Giant Rising Ordinary Mutants for A Clerical Setup in water
11660
    1DG     O5'    1   0.978   2.926   4.746 -0.0692  0.4136  0.8698
    1DG     H5T    2   0.912   2.995   4.759 -0.3046  0.4244 -0.3022
    1DG     C5'    3   0.939   2.817   4.825 -0.3615  0.3177  0.2082
    1DG    H5'1    4   0.961   2.842   4.929  0.9920  0.9509 -0.2105
    1DG    H5'2    5   1.001   2.731   4.802 -0.2864  0.4360 -0.0347
    1DG     C4'    6   0.787   2.792   4.810 -0.1722 -0.4080 -0.3172
    1DG     H4'    7   0.756   2.700   4.859 -0.1503 -0.1640  0.1546
    1DG     O4'    8   0.709   2.896   4.861  0.2438 -0.3506 -0.1653
    1DG     C1'    9   0.623   2.946   4.761 -0.2294  0.0977 -0.6293
    1DG     H1'   10   0.525   2.898   4.763  0.4351 -1.2617 -0.2022
    1DG      N9   11   0.606   3.090   4.756 -0.2705  0.0804 -0.5121
    1DG      C8   12   0.492   3.157   4.718  0.1891  0.0656 -0.6508
    1DG      H8   13   0.393   3.114   4.708  0.9075 -1.1914 -2.7273
    1DG      N7   14   0.518   3.285   4.699  0.4034 -0.2105  0.2169
    1DG      C5   15   0.653   3.302   4.729  0.0251  0.3670 -0.4963
    1DG      C6   16   0.740   3.420   4.725  0.2025  0.3872 -0.1772
    1DG      O6   17   0.712   3.539   4.695 -0.2664  0.1933  0.2918
    1DG      N1   18   0.866   3.393   4.783 -0.1292 -0.0336  0.2859
    1DG      H1   19   0.923   3.473   4.806  0.3467 -0.4315  0.4941
    1DG      C2   20   0.908   3.269   4.803  0.4814  0.1410 -0.5688
    1DG      N2   21   1.040   3.263   4.799  0.1146 -0.4031  0.0229
    1DG     H21   22   1.088   3.352   4.799 -0.1022 -0.2776 -1.3259
    1DG     H22   23   1.088   3.174   4.794 -0.6201 -0.7366 -1.0856
    1DG      N3   24   0.838   3.159   4.798  0.8167  0.7388 -0.0754
    1DG      C4   25   0.710   3.181   4.763  0.1721 -0.1969  0.3943
    1DG     C3'   26   0.753   2.771   4.659 -0.2015 -0.0638  0.4814
    1DG     H3'   27   0.843   2.765   4.597 -0.2431  2.5447  0.1370
    1DG     C2'   28   0.685   2.898   4.625 -0.1744 -0.4883  0.0123
    1DG    H2'1   29   0.754   2.977   4.597 -0.2261 -0.6508 -0.5774
    1DG    H2'2   30   0.611   2.890   4.546 -0.6107  3.2965 -0.0223
    1DG     O3'   31   0.666   2.666   4.628  0.5944  0.3379 -0.3161
    2DG       P   32   0.684   2.585   4.492  0.2074 -0.0100  0.3755
    2DG     O1P   33   0.726   2.675   4.382  0.6901  0.1627 -0.0502
    2DG     O2P   34   0.567   2.501   4.470  0.0830  0.0492  0.1430
    2DG     O5'   35   0.805   2.480   4.527 -0.3036  0.0304  0.4649
    2DG     C5'   36   0.776   2.363   4.595  0.0144 -0.1831 -0.1232
    2DG    H5'1   37   0.721   2.299   4.526  1.0950 -1.5492  0.2546
    2DG    H5'2   38   0.719   2.385   4.685  0.0356  1.0685 -0.4080
    2DG     C4'   39   0.902   2.291   4.633  0.4590  0.1640  0.2740
    2DG     H4'   40   0.960   2.365   4.688  1.0997  0.5688 -0.9146
    2DG     O4'   41   0.870   2.184   4.728 -0.0008 -0.1501  0.0406
    2DG     C1'   42   0.911   2.059   4.672 -0.4525 -0.2392  0.1674
    2DG     H1'   43   1.011   2.042   4.713 -0.4838 -0.9088 -0.0330
    2DG      N9   44   0.808   1.964   4.704  0.5480 -0.0963 -0.2832
    2DG      C8   45   0.673   1.986   4.722 -0.4243  0.2967 -0.0952
    2DG      H8   46   0.625   2.080   4.701  0.0947  1.1068  2.2490
    2DG      N7   47   0.601   1.881   4.738  0.3608 -0.0136  0.1197
    2DG      C5   48   0.691   1.773   4.735  0.3926 -0.3932 -0.3561
    2DG      C6   49   0.675   1.633   4.743  0.1652  0.0515 -0.2983
    2DG      O6   50   0.576   1.562   4.752 -0.1597  0.1429  0.2357
    2DG      N1   51   0.796   1.567   4.738 -0.3771  0.0791 -0.4442
    2DG      H1   52   0.788   1.467   4.737  1.4254 -0.1037  1.4244
    2DG      C2   53   0.915   1.624   4.712  0.0592 -0.1176  0.8045
    2DG      N2   54   1.010   1.537   4.685 -0.0555 -0.0749  0.4832
    2DG     H21   55   0.985   1.439   4.684 -0.7901  0.1035  0.9114
    2DG     H22   56   1.104   1.567   4.662 -0.2329  0.0514 -0.0843
    2DG      N3   57   0.937   1.754   4.702  0.1705  0.1357  0.0684
    2DG      C4   58   0.819   1.829   4.717 -0.5233  0.1871  0.1217
    2DG     C3'   59   0.977   2.234   4.514  0.0199  0.3095  0.3417
    2DG     H3'   60   0.945   2.278   4.420  0.5506 -1.8362 -0.8730
    2DG     C2'   61   0.931   2.094   4.525 -0.1000  0.4160  0.1052
    2DG    H2'1   62   0.833   2.093   4.477 -0.3380  1.3903  0.5593
    2DG    H2'2   63   0.998   2.024   4.476 -1.0730 -1.7167  1.7107
    2DG     O3'   64   1.119   2.249   4.526 -0.3615 -0.0282 -0.2747
    3DG       P   65   1.213   2.258   4.409  0.0207 -0.0038  0.1202
    3DG     O1P   66   1.348   2.287   4.469 -0.2396  0.5842  0.2006
    3DG     O2P   67   1.150   2.360   4.322 -0.1617 -0.3518 -0.5966
    3DG     O5'   68   1.213   2.118   4.328  0.1199  0.1054 -0.6396
    3DG     C5'   69   1.320   2.019   4.343  0.6079 -0.0572 -0.0788
    3DG    H5'1   70   1.307   1.976   4.442 -2.1404  1.4148  0.2329
    3DG    H5'2   71   1.414   2.073   4.331  0.0327  1.1665  0.8227
    3DG     C4'   72   1.317   1.912   4.234 -0.1341 -0.2905  0.1592
    3DG     H4'   73   1.402   1.847   4.253 -0.8520 -1.6369 -1.1316
    3DG     O4'   74   1.201   1.835   4.247  0.3494  0.1936  0.3217
    3DG     C1'   75   1.118   1.855   4.129 -0.6299 -0.1859  0.0933
    3DG     H1'   76   1.130   1.768   4.065  2.1754 -0.7218  1.2661
    3DG      N9   77   0.973   1.867   4.176  0.0128 -0.2627  0.5793
    3DG      C8   78   0.887   1.975   4.157  0.3258  0.4239 -0.0696
    3DG      H8   79   0.922   2.064   4.106  0.2272 -0.6400 -2.0769
    3DG      N7   80   0.767   1.956   4.209  0.2780 -0.2000 -0.2892
    3DG      C5   81   0.781   1.833   4.274 -0.3182 -0.3640  0.4607
    3DG      C6   82   0.685   1.760   4.353  0.2102 -0.0289 -0.2237
    3DG      O6   83   0.567   1.792   4.384 -0.4626  0.6397 -0.3805
    3DG      N1   84   0.729   1.631   4.387 -0.3131  0.0056 -0.5748
    3DG      H1   85   0.667   1.578   4.448  1.8500  0.3815  2.0288
    3DG      C2   86   0.855   1.584   4.360  0.0194 -0.3755  0.0649
    3DG      N2   87   0.882   1.470   4.409 -0.2848  0.6406  0.0867
    3DG     H21   88   0.803   1.411   4.429  1.6312 -2.1663 -0.2619
    3DG     H22   89   0.966   1.421   4.381 -1.9813 -2.1535 -0.3278
    3DG      N3   90   0.949   1.654   4.297 -0.0113  0.1518  0.6645
    3DG      C4   91   0.902   1.775   4.247 -0.1184 -0.1187 -0.3106
    3DG     C3'   92   1.318   1.964   4.087 -0.2210  0.6182 -0.2910
    3DG     H3'   93   1.362   2.063   4.093  1.8797 -0.3201  0.2608
    3DG     C2'   94   1.174   1.970   4.050  0.6099 -0.3431 -0.0364
    3DG    H2'1   95   1.138   2.062   4.097  2.0465 -0.2681  0.9583
    3DG    H2'2   96   1.157   1.958   3.943  0.8259 -2.1332  0.1132
    3DG     O3'   97   1.395   1.875   4.001  0.2350  0.3084 -0.2987
    4DG       P   98   1.535   1.909   3.945 -0.3435  0.3757  0.0776
    4DG     O1P   99   1.555   2.052   3.899 -0.4504  0.3822 -0.5237
    4DG     O2P  100   1.571   1.803   3.848 -0.1024  0.0036  0.5640
    4DG     O5'  101   1.637   1.895   4.071 -0.1914 -0.4817 -0.7383
    4DG     C5'  102   1.680   1.997   4.158  0.0837 -0.7516 -0.0595
    4DG    H5'1  103   1.596   2.033   4.218  0.3168 -1.4693  0.6979
    4DG    H5'2  104   1.722   2.080   4.101  0.5538 -1.8658 -1.3638
    4DG     C4'  105   1.793   1.966   4.253  0.3161 -0.1866 -0.3344
    4DG     H4'  106   1.799   2.049   4.323  1.1194 -1.0611  0.6508
    4DG     O4'  107   1.777   1.833   4.310 -0.4433 -0.1539 -0.0259
    4DG     C1'  108   1.855   1.736   4.254  0.2044 -0.4469  0.0118
    4DG     H1'  109   1.930   1.700   4.325 -0.6058 -2.7157 -0.2424
    4DG      N9  110   1.761   1.629   4.220 -0.1493 -0.0675 -0.4981
    4DG      C8  111   1.704   1.597   4.097 -0.1983  0.3700 -0.4056
    4DG      H8  112   1.728   1.650   4.007 -0.8558  1.1982 -0.0985
    4DG      N7  113   1.614   1.504   4.110 -0.0491  0.0308 -0.1423
    4DG      C5  114   1.618   1.461   4.241 -0.1576 -0.0332 -0.2795
    4DG      C6  115   1.536   1.375   4.318 -0.0063 -0.0899  0.0744
    4DG      O6  116   1.449   1.299   4.282 -0.0899  0.0962 -0.0336
    4DG      N1  117   1.561   1.373   4.456  0.0259 -0.0473  0.3549
    4DG      H1  118   1.507   1.314   4.517 -1.0933 -0.0523 -0.6308
    4DG      C2  119   1.668   1.438   4.511 -0.7711  0.0776  0.4447
    4DG      N2  120   1.683   1.435   4.641  0.3198  0.2152  0.3471
    4DG     H21  121   1.632   1.371   4.700  1.8478 -0.5165  0.9090
    4DG     H22  122   1.747   1.501   4.684  0.5494  0.6976 -0.7225
    4DG      N3  123   1.738   1.527   4.447 -0.2478  0.0877 -0.1599
    4DG      C4  124   1.710   1.539   4.313  0.0545 -0.1695 -0.0076
    4DG     C3'  125   1.924   1.956   4.178  0.1890 -0.1381 -0.6052
    4DG     H3'  126   1.927   2.027   4.096 -1.7433 -0.5766 -1.0888
    4DG     C2'  127   1.926   1.807   4.138  0.0987 -0.3767 -0.7104
    4DG    H2'1  128   1.876   1.796   4.042 -0.9013  0.2547 -0.2745
    4DG    H2'2  129   2.028   1.770   4.131 -0.1416 -0.8698 -1.7804
    4DG     O3'  130   2.032   1.979   4.270 -0.6578  0.6903  0.1147
    5DG       P  131   2.184   2.012   4.223  0.0423 -0.0540 -0.0864
    5DG     O1P  132   2.255   2.086   4.335 -0.2350 -0.2375 -0.1131
    5DG     O2P  133   2.173   2.070   4.091 -0.1929  0.1105 -0.0090
    5DG     O5'  134   2.240   1.859   4.209 -0.3401  0.0175  0.2712
    5DG     C5'  135   2.310   1.791   4.314 -0.3695  0.0513 -0.3174
    5DG    H5'1  136   2.281   1.815   4.416  2.1800 -1.3867  0.7830
    5DG    H5'2  137   2.415   1.817   4.302 -0.1142 -0.7344  0.1785
    5DG     C4'  138   2.308   1.643   4.291  0.0804  0.4367 -0.2544
    5DG     H4'  139   2.387   1.610   4.358  0.4860  0.6264 -0.6465
    5DG     O4'  140   2.190   1.575   4.327  0.1027  0.1145  0.7557
    5DG     C1'  141   2.181   1.465   4.242  0.3100  0.0094  0.6349
    5DG     H1'  142   2.257   1.392   4.271  0.5858  1.0034  2.5036
    5DG      N9  143   2.049   1.401   4.241 -0.2300  0.2725 -0.0744
    5DG      C8  144   1.972   1.362   4.136 -0.1829  0.5093  0.1418
    5DG      H8  145   1.980   1.406   4.038 -0.2969 -0.3583 -0.2606
    5DG      N7  146   1.881   1.272   4.166  0.9000 -0.1652  0.4792
    5DG      C5  147   1.909   1.245   4.301  0.3590 -0.2244  0.3289
    5DG      C6  148   1.847   1.161   4.398 -0.1000  0.2895 -0.2781
    5DG      O6  149   1.757   1.073   4.384  0.2395  0.2434  0.3143
    5DG      N1  150   1.889   1.172   4.526  0.3703  0.1495  0.1818
    5DG      H1  151   1.842   1.113   4.593 -0.3768  0.3732 -0.1358
    5DG      C2  152   1.991   1.255   4.562 -0.5541  0.3888 -0.2990
    5DG      N2  153   2.011   1.269   4.690 -0.3487  0.1836  0.2650
    5DG     H21  154   1.974   1.205   4.759  0.5621 -0.6083  0.0235
    5DG     H22  155   2.072   1.345   4.715 -0.6836  1.0966 -1.5989
    5DG      N3  156   2.048   1.347   4.481 -0.1584 -0.5507 -0.4053
    5DG      C4  157   2.004   1.333   4.350  0.1106  0.4666 -0.4552
    5DG     C3'  158   2.350   1.603   4.150 -0.4160  0.2332 -0.3648
    5DG     H3'  159   2.369   1.688   4.084 -0.1500  0.2100 -0.3194
    5DG     C2'  160   2.233   1.522   4.110 -0.4949 -0.2958  0.0360
    5DG    H2'1  161   2.155   1.585   4.067  0.5131  1.3246  0.5780
    5DG    H2'2  162   2.256   1.449   4.033 -1.6873  0.7281 -1.3122
    5DG     O3'  163   2.465   1.518   4.143 -0.1648  0.3402 -0.2211
    5DG     H3T  164   2.542   1.573   4.160  0.2484  0.8110 -3.3133
   11SOL     OW  165   4.143   4.355   0.865 -0.0997 -0.1475  0.1854
   11SOL    HW2  166   4.214   4.291   0.864  0.9064  0.9567 -0.0340
   11SOL    HW3  167   4.076   4.318   0.807  1.0913 -0.3248 -1.1014
   11SOL    MW4  168   4.143   4.342   0.857  0.1903 -0.0248 -0.0132
   12SOL     OW  169   0.750   2.724   0.843 -0.2164 -0.1969 -0.2561
   12SOL    HW2  170   0.658   2.739   0.865 -0.4613 -0.2961 -1.1860
   12SOL    HW3  171   0.794   2.712   0.928 -0.9220  0.6061  0.2234
   12SOL    MW4  172   0.744   2.724   0.857 -0.3418 -0.1040 -0.3155
   13SOL     OW  173   3.942   0.604   0.737  0.7845 -0.1721  0.7294
   13SOL    HW2  174   3.964   0.554   0.815 -0.6065  0.0519  1.2860
   13SOL    HW3  175   3.896   0.681   0.770 -0.9428 -0.6938 -0.3633
   13SOL    MW4  176   3.939   0.608   0.751  0.3731 -0.2114  0.6587
   14SOL     OW  177   2.025   1.174   0.679 -0.3883  0.3343  0.3177
   14SOL    HW2  178   2.024   1.270   0.681  0.0397  0.3449  0.0005
   14SOL    HW3  179   2.107   1.150   0.721  0.3706  0.1541 -1.2276
   14SOL    MW4  180   2.036   1.184   0.685 -0.2317  0.3121  0.0719
   15SOL     OW  181   2.589   4.591   0.622  0.0144 -0.3240  0.7255
   15SOL    HW2  182   2.682   4.568   0.627  0.0967 -0.3589 -0.6962
   15SOL    HW3  183   2.543   4.508   0.631  0.1431 -0.4043  0.6371
   15SOL    MW4  184   2.595   4.577   0.624  0.0420 -0.3390  0.5262
   16SOL     OW  185   0.063   2.210   0.481 -0.0714  0.5514  0.1506
   16SOL    HW2  186  -0.024   2.232   0.515  0.8429  0.3222  2.7395
   16SOL    HW3  187   0.100   2.152   0.548  1.3141 -0.9698 -1.8870
   16SOL    MW4  188   0.056   2.205   0.494  0.2320  0.3207  0.2233
   17SOL     OW  189   1.726   2.993   0.688  0.0167 -0.2287  0.0278
   17SOL    HW2  190   1.640   3.034   0.702  0.8097  1.2733  0.6584
   17SOL    HW3  191   1.726   2.917   0.746  0.0577  1.2098  1.9874
   17SOL    MW4  192   1.715   2.989   0.698  0.1267  0.1593  0.3695
   18SOL     OW  193   0.490   2.584   0.618  0.1266  0.2517 -0.6671
   18SOL    HW2  194   0.406   2.539   0.617 -0.0128  0.4564  0.6192
   18SOL    HW3  195   0.476   2.661   0.562 -0.6030  0.3989 -0.2857
   18SOL    MW4  196   0.477   2.588   0.610  0.0120  0.2980 -0.4472
   19SOL     OW  197   4.317   3.884   1.175  0.0722  0.0295  0.5130
   19SOL    HW2  198   4.299   3.792   1.194 -0.7069  0.1658  0.4755
   19SOL    HW3  199   4.231   3.926   1.178  0.1663  0.4239 -1.2777
   19SOL    MW4  200   4.303   3.877   1.178 -0.0181  0.0994  0.2718
   20SOL     OW  201   2.138   2.294   0.822  0.0549 -0.1071  0.1492
   20SOL    HW2  202   2.232   2.296   0.841  0.1100 -0.3658 -0.0934
   20SOL    HW3  203   2.096   2.309   0.906  0.2873 -1.8266  0.5989
   20SOL    MW4  204   2.145   2.296   0.835  0.0927 -0.3681  0.1765
   21SOL     OW  205   3.604   3.497   1.099 -0.2999  0.4185  1.1119
   21SOL    HW2  206   3.606   3.410   1.140 -0.8292  0.6380  1.5950
   21SOL    HW3  207   3.534   3.544   1.144 -0.2647  0.9744  0.5942
   21SOL    MW4  208   3.595   3.491   1.110 -0.3653  0.5212  1.1072
   22SOL     OW  209   0.105   0.568   0.427  0.4147  0.0328  0.0412
   22SOL    HW2  210   0.100   0.663   0.414  0.3379  0.1398  0.8469
   22SOL    HW3  211   0.014   0.540   0.438  0.4738 -0.0814  0.2332
   22SOL    MW4  212   0.093   0.577   0.426  0.4125  0.0318  0.1729
   23SOL     OW  213   1.411   4.266   1.090 -0.1857  0.0917 -0.7291
   23SOL    HW2  214   1.335   4.304   1.133  0.6363  0.0294  0.8171
   23SOL    HW3  215   1.394   4.276   0.996 -2.3100 -0.3482 -0.4106
   23SOL    MW4  216   1.399   4.272   1.083 -0.3575  0.0253 -0.4830
   24SOL     OW  217   4.334   0.474   0.496  0.6846  0.1731 -0.2693
   24SOL    HW2  218   4.272   0.545   0.481 -0.0403 -0.6746 -1.4087
   24SOL    HW3  219   4.311   0.440   0.583 -0.6174 -0.2943 -0.7896
   24SOL    MW4  220   4.323   0.479   0.506  0.4172 -0.0004 -0.4883
   25SOL     OW  221   1.559   2.063   1.201  0.2279 -0.1458 -0.3274
   25SOL    HW2  222   1.492   1.997   1.184 -0.4676  0.5921 -0.4691
   25SOL    HW3  223   1.568   2.065   1.296  1.3884 -1.5629 -0.3899
   25SOL    MW4  224   1.551   2.055   1.211  0.2893 -0.2353 -0.3544
   26SOL     OW  225   2.095   2.813   0.510  0.2324  0.1399 -0.3090
   26SOL    HW2  226   2.089   2.805   0.605  0.3994 -0.3315 -0.3363
   26SOL    HW3  227   2.023   2.872   0.486  0.2882  0.3843  0.1240
   26SOL    MW4  228   2.084   2.820   0.519  0.2618  0.1097 -0.2555
   27SOL     OW  229   3.656   1.240   0.394  0.1526  0.2838  0.1323
   27SOL    HW2  230   3.624   1.309   0.453 -0.0708 -0.9218  1.4352
   27SOL    HW3  231   3.702   1.179   0.451 -0.9564 -1.4607 -0.7886
   27SOL    MW4  232   3.658   1.241   0.409 -0.0231 -0.1054  0.1827
   28SOL     OW  233   4.006   3.359   0.584 -0.1450  0.1094 -0.0220
   28SOL    HW2  234   4.017   3.266   0.564 -2.5263  0.3883 -2.8904
   28SOL    HW3  235   3.985   3.361   0.678 -0.0168 -2.2178  0.0872
   28SOL    MW4  236   4.005   3.347   0.594 -0.4420 -0.1609 -0.3861
   29SOL     OW  237   0.562   0.286   0.471  0.3994 -0.1176  0.2795
   29SOL    HW2  238   0.532   0.340   0.398 -0.9522  0.6123  1.3654
   29SOL    HW3  239   0.627   0.227   0.432  2.6377  2.9124 -0.7378
   29SOL    MW4  240   0.567   0.285   0.456  0.5164  0.3785  0.2886
   30SOL     OW  241   2.049   4.425   0.773 -0.2698  0.7277 -0.2789
   30SOL    HW2  242   2.029   4.413   0.680  0.3570 -0.2138 -0.2929
   30SOL    HW3  243   1.981   4.376   0.818  0.6470 -0.5715 -0.2859
   30SOL    MW4  244   2.037   4.417   0.766 -0.0663  0.4325 -0.2816
   31SOL     OW  245   0.173   0.716   1.133 -0.0411  0.0029  0.2338
   31SOL    HW2  246   0.249   0.763   1.167  0.0149  0.2468 -0.2343
   31SOL    HW3  247   0.159   0.751   1.046 -0.2439 -0.5691  0.0309
   31SOL    MW4  248   0.181   0.727   1.126 -0.0604 -0.0404  0.1453
   32SOL     OW  249   0.491   0.140   0.688  0.0937 -0.1438 -0.1528
   32SOL    HW2  250   0.432   0.192   0.742 -0.9949 -0.1217 -1.3435
   32SOL    HW3  251   0.523   0.201   0.622  1.0807 -0.2775  0.2024
   32SOL    MW4  252   0.487   0.155   0.687  0.0803 -0.1585 -0.2630
   33SOL     OW  253   0.942   2.512   0.463 -0.5860  0.1080  0.1335
   33SOL    HW2  254   0.882   2.555   0.402  0.4978  0.6226 -0.5860
   33SOL    HW3  255   0.938   2.420   0.440 -0.3788  0.2681 -0.5500
   33SOL    MW4  256   0.934   2.506   0.452 -0.4157  0.1972 -0.0516
   34SOL     OW  257   1.600   3.605   1.173 -0.3692 -0.0201  0.0235
   34SOL    HW2  258   1.583   3.589   1.266  0.1323 -0.0695  0.1083
   34SOL    HW3  259   1.611   3.700   1.167 -1.6358  0.1169 -0.1938
   34SOL    MW4  260   1.600   3.616   1.184 -0.4702 -0.0086  0.0058
   35SOL     OW  261   1.864   4.226   1.123 -0.0947  0.8699  0.0021
   35SOL    HW2  262   1.854   4.138   1.160  0.6069  1.0787  0.6865
   35SOL    HW3  263   1.788   4.274   1.156  0.1507  0.8533  0.5997
   35SOL    MW4  264   1.852   4.220   1.133  0.0302  0.8950  0.1712
   36SOL     OW  265   0.618   3.204   0.870  0.0760 -0.2846 -0.1594
   36SOL    HW2  266   0.663   3.127   0.834 -0.1432 -0.2893 -0.4229
   36SOL    HW3  267   0.552   3.226   0.804 -0.0225 -0.0173  0.0299
   36SOL    MW4  268   0.616   3.197   0.857  0.0341 -0.2501 -0.1691
   37SOL     OW  269   3.939   2.445   0.433 -0.2712 -0.0610  0.1707
   37SOL    HW2  270   3.943   2.361   0.479 -0.5243 -0.3326 -0.2984
   37SOL    HW3  271   4.023   2.451   0.388  0.2160  0.4770  1.1262
   37SOL    MW4  272   3.950   2.435   0.433 -0.2403 -0.0260  0.2348
   38SOL     OW  273   1.976   2.498   0.219  0.0336  0.1328  0.2142
   38SOL    HW2  274   1.987   2.428   0.284  0.5108 -0.5935 -0.6458
   38SOL    HW3  275   2.065   2.528   0.201  0.0350 -0.7519 -1.2885
   38SOL    MW4  276   1.989   2.493   0.226  0.0967 -0.0799 -0.0976
   39SOL     OW  277   3.515   1.073   0.204 -0.2049 -0.1522  0.0252
   39SOL    HW2  278   3.451   1.019   0.251 -1.5919  1.1924 -0.2735
   39SOL    HW3  279   3.555   1.127   0.272  0.9967 -1.3660  0.2870
   39SOL    MW4  280   3.512   1.073   0.219 -0.2294 -0.1349  0.0203
   40SOL     OW  281   3.814   1.506   0.847 -0.2362  0.5224  0.1892
   40SOL    HW2  282   3.796   1.595   0.817 -0.3533  0.5425  0.3177
   40SOL    HW3  283   3.738   1.455   0.821  0.0497  0.3525 -0.3243
   40SOL    MW4  284   3.802   1.511   0.840 -0.2141  0.5026  0.1383
   41SOL     OW  285   4.248   4.605   1.012 -0.2227 -0.4272 -0.4937
   41SOL    HW2  286   4.196   4.642   1.084 -0.2386 -0.6197 -0.4036
   41SOL    HW3  287   4.274   4.518   1.044  1.8134  0.4333  0.2592
   41SOL    MW4  288   4.244   4.598   1.026  0.0434 -0.3390 -0.3824
   42SOL     OW  289   2.184   3.207   0.633  0.0987  0.0051 -0.2346
   42SOL    HW2  290   2.101   3.200   0.586  0.3855 -1.4792 -0.5213
   42SOL    HW3  291   2.235   3.132   0.604  0.9901  0.0971  1.0441
   42SOL    MW4  292   2.179   3.196   0.623  0.2542 -0.1783 -0.1038
   43SOL     OW  293   0.014   1.997   0.297 -0.0667  0.3714  0.1273
   43SOL    HW2  294   0.036   2.075   0.348  1.1851  0.0327  0.1174
   43SOL    HW3  295   0.080   1.932   0.323 -1.1623 -0.7190  0.2293
   43SOL    MW4  296   0.025   1.999   0.307 -0.0461  0.1827  0.1394
   44SOL     OW  297   0.921   3.471   1.126 -0.0626  0.0593 -0.2596
   44SOL    HW2  298   0.881   3.464   1.040 -1.4545 -1.0140  0.4555
   44SOL    HW3  299   0.899   3.388   1.169  0.6438  0.5736  1.1222
   44SOL    MW4  300   0.913   3.459   1.120 -0.1530 -0.0145  0.0172
   45SOL     OW  301   2.946   2.754   0.776 -0.5908 -0.1488  0.1759
   45SOL    HW2  302   2.947   2.846   0.800  1.0080  0.5952 -2.5242
   45SOL    HW3  303   3.032   2.721   0.802 -0.9833 -0.7809  0.6953
   45SOL    MW4  304   2.957   2.762   0.783 -0.4318 -0.1340 -0.1118
   46SOL     OW  305   1.356   3.207   1.195  0.0146  0.1766 -0.2213
   46SOL    HW2  306   1.391   3.288   1.158  2.2520 -0.5279  0.2620
   46SOL    HW3  307   1.364   3.218   1.290 -1.7143  0.2513 -0.0662
   46SOL    MW4  308   1.362   3.219   1.203  0.0819  0.0937 -0.1371
   47SOL     OW  309   2.990   2.728   0.501 -0.3140 -0.5239  0.1764
   47SOL    HW2  310   3.023   2.640   0.482 -1.5689 -1.1804  0.9618
   47SOL    HW3  311   2.973   2.726   0.596  1.0684  1.0495  0.4817
   47SOL    MW4  312   2.992   2.716   0.511 -0.2973 -0.4032  0.3203
   48SOL     OW  313   2.655   1.037   0.880 -0.1188  0.0672 -0.1139
   48SOL    HW2  314   2.740   1.077   0.862 -0.7075  1.7794  0.8086
   48SOL    HW3  315   2.648   1.040   0.975 -2.2657  2.2313 -0.2993
   48SOL    MW4  316   2.666   1.043   0.890 -0.4797  0.5786 -0.0167
   49SOL     OW  317   3.374   0.919   0.376  0.0608 -0.3619  0.2437
   49SOL    HW2  318   3.423   0.924   0.459  1.9909 -0.9153 -0.8315
   49SOL    HW3  319   3.335   0.831   0.377  0.0371 -0.3484  0.5924
   49SOL    MW4  320   3.375   0.908   0.387  0.3126 -0.4331  0.1478
   50SOL     OW  321   3.894   2.699   0.577 -0.1474  0.5478  0.1450
   50SOL    HW2  322   3.899   2.608   0.550 -1.5045  0.4997  0.0442
   50SOL    HW3  323   3.913   2.697   0.671  1.2373  0.3441 -0.1183
   50SOL    MW4  324   3.897   2.687   0.586 -0.1440  0.5145  0.0970
   51SOL     OW  325   0.791   0.556   0.160 -0.1560 -0.1180  0.2885
   51SOL    HW2  326   0.769   0.565   0.068 -0.8802 -0.3360  0.4362
   51SOL    HW3  327   0.770   0.642   0.198  0.3329  0.0362  0.2152
   51SOL    MW4  328   0.785   0.569   0.153 -0.1870 -0.1265  0.2983
   52SOL     OW  329   2.739   0.514   0.444  0.0590  0.1714  0.4978
   52SOL    HW2  330   2.675   0.449   0.417  1.6196 -0.5484 -1.5941
   52SOL    HW3  331   2.742   0.505   0.540 -1.1052 -1.5202  0.4123
   52SOL    MW4  332   2.731   0.504   0.453  0.1109 -0.1467  0.2105
   53SOL     OW  333   2.944   0.648   0.843  0.6933  0.0541  0.4122
   53SOL    HW2  334   3.007   0.578   0.856 -0.3091 -1.1124 -0.8467
   53SOL    HW3  335   2.861   0.603   0.825  0.2763  1.5366 -1.5522
   53SOL    MW4  336   2.941   0.633   0.843  0.5062  0.0958 -0.0131
   54SOL     OW  337   0.914   0.023   0.546 -0.0079  0.3692  0.0063
   54SOL    HW2  338   0.901   0.062   0.632 -0.5397  0.9590 -0.3373
   54SOL    HW3  339   0.982   0.077   0.505  0.1745  0.1502  0.0196
   54SOL    MW4  340   0.921   0.035   0.552 -0.0539  0.4182 -0.0373
   55SOL     OW  341   1.812   4.008   0.730 -0.2741  0.2510  0.0884
   55SOL    HW2  342   1.839   4.092   0.767 -0.0432 -0.1313  0.8014
   55SOL    HW3  343   1.880   3.947   0.758  0.2494  0.0809 -1.5190
   55SOL    MW4  344   1.825   4.011   0.739 -0.1746  0.1779 -0.0296
   56SOL     OW  345   2.939   3.845   1.119  0.1436  0.4093  0.5799
   56SOL    HW2  346   2.959   3.763   1.163 -2.0379 -0.4538  0.0235
   56SOL    HW3  347   2.853   3.871   1.153 -0.7279  0.6761 -1.7337
   56SOL    MW4  348   2.930   3.838   1.129 -0.2592  0.3309  0.2012
   57SOL     OW  349   0.318   0.293   0.853 -0.1556 -0.1512  0.1269
   57SOL    HW2  350   0.252   0.227   0.878 -0.0267 -0.3728 -0.1106
   57SOL    HW3  351   0.267   0.371   0.833 -0.3717 -0.4201 -0.3731
   57SOL    MW4  352   0.302   0.294   0.854 -0.1671 -0.2159  0.0297
   58SOL     OW  353   0.949   1.050   0.601  0.0920  0.1961  0.0464
   58SOL    HW2  354   1.018   1.114   0.615 -1.0504  1.5074 -0.2243
   58SOL    HW3  355   0.938   1.046   0.506 -0.9490  0.8023  0.1380
   58SOL    MW4  356   0.957   1.058   0.591 -0.1961  0.4491  0.0227
   59SOL     OW  357   3.337   1.557   0.876  0.0098  0.0735  0.0009
   59SOL    HW2  358   3.271   1.522   0.816  0.9046 -2.9555  0.6864
   59SOL    HW3  359   3.352   1.647   0.846 -0.6721 -0.8615 -3.3362
   59SOL    MW4  360   3.330   1.564   0.864  0.0377 -0.4497 -0.3490
   60SOL     OW  361   0.635   1.804   0.537  0.3152  0.7496 -0.0212
   60SOL    HW2  362   0.588   1.861   0.475 -1.7132 -0.2972  0.5046
   60SOL    HW3  363   0.615   1.842   0.623 -0.6349 -0.4318  0.2938
   60SOL    MW4  364   0.626   1.817   0.540 -0.0778  0.4556  0.0898
   61SOL     OW  365   1.967   3.208   0.461  0.3026  0.0668  0.1361
   61SOL    HW2  366   2.006   3.275   0.405  1.1409 -0.6374 -0.1309
   61SOL    HW3  367   1.884   3.246   0.489 -0.7529 -0.0452 -2.5995
   61SOL    MW4  368   1.961   3.222   0.457  0.2739 -0.0410 -0.2601
   62SOL     OW  369   2.720   4.268   0.682 -0.2363 -0.3544  0.0146
   62SOL    HW2  370   2.627   4.286   0.670 -0.2040 -0.2665 -0.1018
   62SOL    HW3  371   2.725   4.173   0.693 -0.4461 -0.2574  0.9760
   62SOL    MW4  372   2.709   4.258   0.682 -0.2599 -0.3304  0.1261
   63SOL     OW  373   3.614   4.066   0.431  0.1612  0.1956 -0.3412
   63SOL    HW2  374   3.602   4.082   0.525 -1.7178 -0.3886 -0.4718
   63SOL    HW3  375   3.590   3.974   0.419  1.3719 -0.0234 -1.2433
   63SOL    MW4  376   3.609   4.056   0.442  0.0730  0.0901 -0.4774
   64SOL     OW  377   3.177   4.030   0.447 -0.4631 -0.5603 -0.2475
   64SOL    HW2  378   3.184   4.126   0.448 -0.9806 -0.5238  1.3055
   64SOL    HW3  379   3.264   4.000   0.421  0.1155  0.3059  0.6337
   64SOL    MW4  380   3.190   4.039   0.444 -0.4551 -0.4416  0.0737
   65SOL     OW  381   0.393   2.738   1.094  0.4583  0.1794 -0.4010
   65SOL    HW2  382   0.319   2.799   1.099  1.0653  0.9824 -1.0554
   65SOL    HW3  383   0.413   2.732   1.000  1.2913  0.0403 -0.2191
   65SOL    MW4  384   0.386   2.745   1.082  0.6483  0.2673 -0.4635
   66SOL     OW  385   0.677   2.156   0.458  0.2056 -0.0622  0.3664
   66SOL    HW2  386   0.659   2.250   0.461 -0.1127 -0.1080 -0.0210
   66SOL    HW3  387   0.655   2.125   0.546  1.0031  0.3454  0.7134
   66SOL    MW4  388   0.672   2.164   0.470  0.2688 -0.0143  0.3610
   67SOL     OW  389   0.887   3.057   0.464 -0.5151  0.3721 -0.8740
   67SOL    HW2  390   0.982   3.048   0.473 -0.4028  1.1749 -1.2151
   67SOL    HW3  391   0.851   3.001   0.533  0.1920 -0.2863 -1.0236
   67SOL    MW4  392   0.894   3.048   0.474 -0.4070  0.3910 -0.9387
   68SOL     OW  393   1.582   3.638   0.706  0.4700  0.8728  0.3747
   68SOL    HW2  394   1.582   3.716   0.763  2.6303  0.9000  0.3784
   68SOL    HW3  395   1.647   3.580   0.745  0.2926 -0.1033 -0.7615
   68SOL    MW4  396   1.591   3.641   0.719  0.7316  0.7477  0.2252
   69SOL     OW  397   1.024   3.307   0.785 -0.1227  0.6420 -0.0874
   69SOL    HW2  398   0.944   3.349   0.818  0.3160  1.0594  0.4552
   69SOL    HW3  399   1.011   3.302   0.690 -0.7982  0.6961 -0.0017
   69SOL    MW4  400   1.012   3.312   0.777 -0.1539  0.7041 -0.0045
   70SOL     OW  401   0.468   4.010   0.641 -0.7219 -0.6853 -0.2248
   70SOL    HW2  402   0.542   3.979   0.693  0.1138 -1.0589 -1.6093
   70SOL    HW3  403   0.451   4.098   0.675  0.6435 -0.4244 -0.1609
   70SOL    MW4  404   0.476   4.018   0.652 -0.4315 -0.7005 -0.3992
   71SOL     OW  405   4.100   3.078   0.541 -0.0170 -0.0882 -0.6687
   71SOL    HW2  406   4.023   3.064   0.485 -0.8871  0.8810  0.2785
   71SOL    HW3  407   4.073   3.049   0.628  1.5605 -2.2332 -0.8487
   71SOL    MW4  408   4.086   3.073   0.545  0.0763 -0.2437 -0.5675
   72SOL     OW  409   3.647   2.493   0.878  0.0645  0.1366 -0.0486
   72SOL    HW2  410   3.607   2.564   0.927  0.8043 -0.2297  1.1139
   72SOL    HW3  411   3.582   2.423   0.878  1.0593 -0.8307  2.7068
   72SOL    MW4  412   3.633   2.493   0.884  0.2935 -0.0393  0.4683
   73SOL     OW  413   3.562   0.889   1.256 -0.1058 -0.6986 -0.6698
   73SOL    HW2  414   3.554   0.976   1.216 -0.0326  0.1646  1.1459
   73SOL    HW3  415   3.639   0.851   1.213  0.8990  0.8215 -0.2593
   73SOL    MW4  416   3.571   0.896   1.245  0.0362 -0.3842 -0.3761
   74SOL     OW  417   2.050   3.430   0.327 -0.1817 -0.0277 -0.7978
   74SOL    HW2  418   1.965   3.433   0.283 -0.2720  0.9821 -0.5662
   74SOL    HW3  419   2.055   3.513   0.374 -0.3455 -1.2844  1.5463
   74SOL    MW4  420   2.039   3.441   0.328 -0.2153 -0.0603 -0.4579
   75SOL     OW  421   3.365   1.803   0.781  0.0746  0.0105  0.3060
   75SOL    HW2  422   3.439   1.854   0.815 -0.4086  0.1492  1.1910
   75SOL    HW3  423   3.378   1.801   0.687  1.4073 -0.2902  0.4848
   75SOL    MW4  424   3.376   1.810   0.773  0.1864 -0.0107  0.4464
   76SOL     OW  425   1.032   4.044   0.479  0.0525 -0.2255  0.4020
   76SOL    HW2  426   0.993   4.123   0.442  0.1554 -0.5580 -0.4100
   76SOL    HW3  427   1.002   4.044   0.570 -1.2162 -0.0658 -0.0024
   76SOL    MW4  428   1.023   4.055   0.486 -0.1013 -0.2484  0.2415
   77SOL     OW  429   1.215   2.599   0.461 -0.1113 -0.7728 -0.4272
   77SOL    HW2  430   1.236   2.634   0.547  0.0683 -0.3739 -0.6321
   77SOL    HW3  431   1.120   2.587   0.462 -0.1484 -0.4521 -0.2934
   77SOL    MW4  432   1.205   2.602   0.472 -0.0924 -0.6778 -0.4366
   78SOL     OW  433   2.647   2.457   0.810  0.1836  0.2392 -0.4056
   78SOL    HW2  434   2.720   2.401   0.838  0.6463  0.6126 -0.8611
   78SOL    HW3  435   2.671   2.545   0.841 -0.1509  0.3350 -0.4162
   78SOL    MW4  436   2.660   2.461   0.818  0.2005  0.3011 -0.4671
   79SOL     OW  437   2.970   3.139   0.305 -0.3375 -0.0943 -0.1194
   79SOL    HW2  438   2.915   3.069   0.340  0.5076 -0.5056  0.4027
   79SOL    HW3  439   2.933   3.220   0.341  0.1158 -0.4614  1.2047
   79SOL    MW4  440   2.958   3.141   0.314 -0.1662 -0.1969  0.1242
   80SOL     OW  441   3.310   2.295   1.118 -0.4785 -0.5483  0.4157
   80SOL    HW2  442   3.398   2.323   1.141 -0.1049 -1.2613 -0.1084
   80SOL    HW3  443   3.253   2.368   1.144  0.1733 -0.4018  1.4596
   80SOL    MW4  444   3.314   2.308   1.124 -0.3431 -0.6232  0.4843
   81SOL     OW  445   0.176   2.077   0.690  0.0915 -0.1238 -0.0030
   81SOL    HW2  446   0.225   1.996   0.676 -1.0758 -1.2394  2.0198
   81SOL    HW3  447   0.233   2.131   0.745 -0.7079 -1.2305  1.9628
   81SOL    MW4  448   0.190   2.074   0.695 -0.1680 -0.4172  0.5233
   82SOL     OW  449   2.088   4.105   0.426 -0.2796 -0.4991 -0.6428
   82SOL    HW2  450   2.003   4.062   0.417 -0.6993  0.1343  0.1302
   82SOL    HW3  451   2.141   4.044   0.477 -0.1439 -1.0647 -1.4593
   82SOL    MW4  452   2.084   4.092   0.432 -0.3169 -0.4892 -0.6486
   83SOL     OW  453   2.281   4.280   0.849 -0.5550  0.0291 -0.2229
   83SOL    HW2  454   2.278   4.278   0.945  0.1860  0.8585 -0.1784
   83SOL    HW3  455   2.202   4.328   0.824 -0.7958 -0.2657 -0.0309
   83SOL    MW4  456   2.270   4.286   0.858 -0.4890  0.0997 -0.1916
   84SOL     OW  457   0.694   3.913   0.827  0.3495 -0.3782  0.2724
   84SOL    HW2  458   0.780   3.954   0.830 -0.1579  0.6449  1.0204
   84SOL    HW3  459   0.677   3.884   0.916 -0.0576 -0.6477  0.1125
   84SOL    MW4  460   0.703   3.914   0.839  0.2288 -0.2787  0.3500
   85SOL     OW  461   4.223   2.061   0.889 -0.3545  0.0583 -0.0724
   85SOL    HW2  462   4.315   2.037   0.897 -0.2566  0.7551  1.0167
   85SOL    HW3  463   4.217   2.148   0.928 -1.7583 -0.6163  1.3193
   85SOL    MW4  464   4.234   2.069   0.895 -0.5269  0.0610  0.2549
   86SOL     OW  465   1.083   4.446   0.485 -0.0894 -0.3230 -0.8614
   86SOL    HW2  466   1.027   4.522   0.498 -0.3939 -0.4321 -1.5368
   86SOL    HW3  467   1.163   4.481   0.445  0.4576 -0.1246  0.3808
   86SOL    MW4  468   1.086   4.460   0.481 -0.0575 -0.3109 -0.7867
   87SOL     OW  469   2.455   2.839   0.770 -0.4905  0.2692 -0.1596
   87SOL    HW2  470   2.396   2.783   0.822 -1.4208  0.8479 -0.5783
   87SOL    HW3  471   2.542   2.819   0.804 -0.9744 -0.2142  0.8442
   87SOL    MW4  472   2.458   2.829   0.782 -0.6771  0.2818 -0.0824
   88SOL     OW  473   2.773   3.174   0.633 -0.2356  0.2294  0.0423
   88SOL    HW2  474   2.772   3.111   0.561  1.1290 -3.3821  3.0376
   88SOL    HW3  475   2.681   3.193   0.649 -0.5729  1.1696 -2.6009
   88SOL    MW4  476   2.761   3.168   0.625 -0.1001 -0.1230  0.0888
   89SOL     OW  477   2.282   4.004   0.805 -0.0596 -0.2495  0.5343
   89SOL    HW2  478   2.360   3.968   0.848 -0.3088  0.1239  1.3185
   89SOL    HW3  479   2.282   4.097   0.830  1.2095  0.5886 -2.4147
   89SOL    MW4  480   2.293   4.012   0.814  0.0749 -0.0901  0.2487
   90SOL     OW  481   3.891   1.252   0.284  0.0610  0.0184  0.1153
   90SOL    HW2  482   3.802   1.260   0.317  0.5850  1.4034  1.2394
   90SOL    HW3  483   3.901   1.325   0.223  0.9386  0.7890  1.1807
   90SOL    MW4  484   3.881   1.263   0.280  0.2460  0.3029  0.4042
   91SOL     OW  485   3.182   4.481   0.682 -0.0429  0.2563  0.2453
   91SOL    HW2  486   3.274   4.468   0.708  0.0679  0.3359 -0.1101
   91SOL    HW3  487   3.166   4.574   0.695 -0.1372  0.2055  0.5069
   91SOL    MW4  488   3.192   4.491   0.687 -0.0408  0.2599  0.2329
   92SOL     OW  489   0.654   2.051   0.730  0.1429  0.3230 -0.1609
   92SOL    HW2  490   0.582   1.999   0.766  1.0217  1.5288  3.4662
   92SOL    HW3  491   0.636   2.140   0.758  2.2032  0.8909 -0.5893
   92SOL    MW4  492   0.642   2.056   0.738  0.5307  0.5569  0.2611
   93SOL     OW  493   2.464   1.545   1.090 -0.0578 -0.1904  0.6070
   93SOL    HW2  494   2.470   1.458   1.129  0.4023  0.0899  1.1645
   93SOL    HW3  495   2.391   1.587   1.135 -0.9201 -0.6294 -0.3503
   93SOL    MW4  496   2.455   1.539   1.101 -0.1109 -0.2112  0.5543
   94SOL     OW  497   0.476   1.861   0.804  0.2125  0.1402 -0.0177
   94SOL    HW2  498   0.470   1.882   0.897  1.4972  0.6617 -0.0456
   94SOL    HW3  499   0.524   1.777   0.801  0.8485  0.5071 -0.2400
   94SOL    MW4  500   0.482   1.852   0.815  0.4659  0.2575 -0.0507
   95SOL     OW  501   1.506   0.472   1.199 -0.2826  0.2596 -0.1251
   95SOL    HW2  502   1.513   0.566   1.183 -0.7875  0.2488 -0.4087
   95SOL    HW3  503   1.423   0.447   1.159  1.2602 -0.8587 -2.7488
   95SOL    MW4  504   1.496   0.481   1.192 -0.1456  0.1107 -0.5087
   96SOL     OW  505   2.944   1.285   0.291  0.4853  0.7576 -0.2781
   96SOL    HW2  506   3.019   1.236   0.322  0.2802  0.4442 -0.2784
   96SOL    HW3  507   2.980   1.347   0.227  0.5811 -0.2060 -1.1824
   96SOL    MW4  508   2.958   1.287   0.286  0.4709  0.5891 -0.3975
   97SOL     OW  509   1.864   2.936   0.446  0.3936 -0.1348  0.5796
   97SOL    HW2  510   1.900   3.023   0.426 -2.0376  0.9900  0.9383
   97SOL    HW3  511   1.806   2.951   0.521  1.8196 -2.5340  2.2350
   97SOL    MW4  512   1.861   2.949   0.454  0.2609 -0.3026  0.8453
   98SOL     OW  513   4.236   2.808   1.218  0.5838  0.1274 -0.0721
   98SOL    HW2  514   4.151   2.788   1.178  2.3059 -0.9368 -3.3333
   98SOL    HW3  515   4.242   2.903   1.215 -0.7119  0.2482  0.6907
   98SOL    MW4  516   4.225   2.817   1.212  0.6399  0.0029 -0.4016
   99SOL     OW  517   4.134   2.023   0.612  0.0558 -0.0453 -0.6402
   99SOL    HW2  518   4.187   1.968   0.555 -1.8981 -2.1041 -0.5718
   99SOL    HW3  519   4.187   2.036   0.691  0.9429 -1.0377 -1.0691
   99SOL    MW4  520   4.148   2.018   0.615 -0.0854 -0.4480 -0.6878
  100SOL     OW  521   0.908   3.613   0.566 -0.1569 -0.1340 -0.2921
  100SOL    HW2  522   0.912   3.520   0.545  1.7625 -0.1346 -0.0087
  100SOL    HW3  523   0.830   3.622   0.621 -0.8151 -1.4243 -0.9787
  100SOL    MW4  524   0.898   3.602   0.570  0.0095 -0.3042 -0.3453
  101SOL     OW  525   1.156   0.397   0.788 -0.1460  0.6833 -0.1304
  101SOL    HW2  526   1.197   0.356   0.864 -0.3290 -0.3735 -0.5889
  101SOL    HW3  527   1.062   0.383   0.800 -0.1539  0.1452 -0.7371
  101SOL    MW4  528   1.149   0.390   0.800 -0.1712  0.4728 -0.2710
  102SOL     OW  529   3.408   0.280   0.576  0.1542 -0.2072 -0.5596
  102SOL    HW2  530   3.316   0.306   0.574  0.4121  0.6075 -2.9450
  102SOL    HW3  531   3.455   0.356   0.543  1.6511 -0.8063  0.1559
  102SOL    MW4  532   3.402   0.293   0.572  0.3858 -0.1787 -0.7799
  103SOL     OW  533   0.084   0.138   0.402 -0.3695 -0.1162  0.3672
  103SOL    HW2  534   0.162   0.085   0.418 -0.0503  1.0403  2.8207
  103SOL    HW3  535   0.118   0.219   0.364 -0.6838 -0.8389 -1.5094
  103SOL    MW4  536   0.099   0.141   0.399 -0.3689 -0.0589  0.4433
  104SOL     OW  537   2.714   2.709   0.470 -0.0896  0.2714  0.1028
  104SOL    HW2  538   2.681   2.622   0.491  0.7057  0.2320  1.2534
  104SOL    HW3  539   2.809   2.700   0.475  0.0712  0.7255 -1.7407
  104SOL    MW4  540   2.722   2.696   0.474  0.0367  0.3259  0.0114
  105SOL     OW  541   4.422   1.713   0.632 -0.0807  0.0911  0.7285
  105SOL    HW2  542   4.464   1.645   0.579  1.9939  0.9122  1.2917
  105SOL    HW3  543   4.373   1.765   0.568  0.5609 -0.2708 -0.0759
  105SOL    MW4  544   4.421   1.711   0.616  0.2775  0.1518  0.6967
  106SOL     OW  545   1.086   1.484   0.819  0.8486 -0.1068  0.0795
  106SOL    HW2  546   1.167   1.531   0.802  1.4266 -1.0457  0.1647
  106SOL    HW3  547   1.083   1.475   0.914 -0.1350  1.2667  0.1830
  106SOL    MW4  548   1.096   1.489   0.829  0.7952 -0.0495  0.1044
  107SOL     OW  549   4.291   2.271   0.561  0.3489  0.0949 -0.1444
  107SOL    HW2  550   4.256   2.334   0.497 -0.3000 -0.4649 -0.3440
  107SOL    HW3  551   4.248   2.295   0.643  1.0144  0.6720  0.0431
  107SOL    MW4  552   4.281   2.283   0.563  0.3510  0.0973 -0.1460
  108SOL     OW  553   4.144   4.096   0.387 -0.1340  0.1531  0.0450
  108SOL    HW2  554   4.053   4.121   0.398 -0.4087 -0.3304 -1.1337
  108SOL    HW3  555   4.146   4.002   0.405 -0.2639 -0.2752 -2.1227
  108SOL    MW4  556   4.133   4.087   0.391 -0.1874  0.0329 -0.3965
  109SOL     OW  557   2.305   0.368   0.725  0.5968  0.1346  0.2812
  109SOL    HW2  558   2.364   0.292   0.724  0.7677  0.2755 -0.3682
  109SOL    HW3  559   2.308   0.402   0.636 -0.3922  0.2122  0.2741
  109SOL    MW4  560   2.313   0.362   0.713  0.4890  0.1634  0.1946
  110SOL     OW  561   4.031   0.158   0.732  0.0600  0.2619  0.3913
  110SOL    HW2  562   3.936   0.163   0.726  0.1208  1.3015  0.0369
  110SOL    HW3  563   4.062   0.190   0.647  0.7180 -1.0423  0.1262
  110SOL    MW4  564   4.023   0.163   0.720  0.1554  0.2270  0.3096
  111SOL     OW  565   0.960   0.205   0.227 -0.0954  0.1458  0.1934
  111SOL    HW2  566   0.877   0.178   0.266 -0.2266 -0.1299 -0.2777
  111SOL    HW3  567   0.982   0.135   0.166  0.5536  0.1477  0.4172
  111SOL    MW4  568   0.952   0.192   0.224 -0.0271  0.1097  0.1607
  112SOL     OW  569   0.655   1.812   0.204  0.0161 -0.1837  0.0811
  112SOL    HW2  570   0.736   1.859   0.223 -0.4757  0.2870  1.0295
  112SOL    HW3  571   0.674   1.721   0.226  0.7112 -0.3089 -0.9851
  112SOL    MW4  572   0.668   1.806   0.209  0.0429 -0.1379  0.0655
  113SOL     OW  573   2.524   0.946   0.357  0.8007  0.1932 -0.2508
  113SOL    HW2  574   2.520   1.011   0.428 -0.6114 -0.0621 -0.0921
  113SOL    HW3  575   2.547   0.997   0.280 -1.5861  1.1118 -0.3857
  113SOL    MW4  576   2.526   0.961   0.356  0.2995  0.2807 -0.2477
  114SOL     OW  577   1.138   1.248   0.690  0.0110  0.1615  0.2857
  114SOL    HW2  578   1.150   1.296   0.608  0.7590  0.4271  0.5457
  114SOL    HW3  579   1.101   1.312   0.751 -0.7449 -0.0932  0.0929
  114SOL    MW4  580   1.135   1.263   0.687  0.0100  0.1630  0.2945
  115SOL     OW  581   0.134   3.514   0.789  0.0665  0.0978  0.6012
  115SOL    HW2  582   0.221   3.551   0.805 -0.9486  1.9602  1.9413
  115SOL    HW3  583   0.100   3.564   0.714 -0.5118  0.5239  1.1453
  115SOL    MW4  584   0.141   3.526   0.781 -0.1438  0.3996  0.8498
  116SOL     OW  585   3.455   2.222   0.556  1.0077  0.0091 -0.2942
  116SOL    HW2  586   3.390   2.152   0.547  0.2610  0.8657 -1.7567
  116SOL    HW3  587   3.478   2.222   0.649 -0.8991 -0.4930  0.1907
  116SOL    MW4  588   3.449   2.213   0.567  0.6576  0.0558 -0.4232
  117SOL     OW  589   0.271   1.781   0.654  0.0338  0.4165  0.3279
  117SOL    HW2  590   0.236   1.701   0.694 -0.4652  0.2634 -0.4099
  117SOL    HW3  591   0.343   1.806   0.711 -0.0611 -0.3388  0.7928
  117SOL    MW4  592   0.275   1.773   0.667 -0.0446  0.2966  0.2919
  118SOL     OW  593   0.749   0.812   0.271  0.1954 -0.1149 -0.0686
  118SOL    HW2  594   0.768   0.779   0.359  1.2954 -1.0097 -0.6227
  118SOL    HW3  595   0.654   0.804   0.262  0.2718 -1.8013  0.3512
  118SOL    MW4  596   0.739   0.806   0.282  0.3506 -0.4554 -0.0863
  119SOL     OW  597   3.340   1.778   0.502 -0.0500 -0.1479  0.6969
  119SOL    HW2  598   3.263   1.722   0.490 -0.9549  1.1685  0.1496
  119SOL    HW3  599   3.312   1.863   0.468  2.1681 -0.0275 -0.9757
  119SOL    MW4  600   3.326   1.782   0.496  0.1233  0.0415  0.4040
  120SOL     OW  601   3.849   3.627   0.764 -0.4194 -0.1612 -0.0237
  120SOL    HW2  602   3.847   3.722   0.770  0.3602 -0.0425 -1.4473
  120SOL    HW3  603   3.762   3.599   0.793 -0.4241  0.9279  1.0615
  120SOL    MW4  604   3.838   3.635   0.769 -0.3171 -0.0017 -0.0683
  121SOL     OW  605   0.373   0.930   0.449  0.1505 -0.1521  0.0294
  121SOL    HW2  606   0.380   0.884   0.533 -0.1621 -2.6402 -1.2975
  121SOL    HW3  607   0.279   0.929   0.430  0.1367  1.0718 -0.0176
  121SOL    MW4  608   0.361   0.924   0.458  0.1074 -0.3189 -0.1519
  122SOL     OW  609   2.945   3.575   1.215  0.0558  0.1572 -0.0012
  122SOL    HW2  610   2.868   3.532   1.177  0.0978  0.3593 -0.3144
  122SOL    HW3  611   3.018   3.539   1.165 -0.0154  1.5412 -1.1135
  122SOL    MW4  612   2.944   3.564   1.204  0.0522  0.3664 -0.1894
  123SOL     OW  613   2.373   2.201   0.374  0.3643 -0.0920 -0.2428
  123SOL    HW2  614   2.363   2.270   0.439  0.5813 -0.6771  0.4219
  123SOL    HW3  615   2.396   2.123   0.425  0.1257 -0.6535 -0.9808
  123SOL    MW4  616   2.375   2.200   0.389  0.3614 -0.2432 -0.2525
  124SOL     OW  617   3.602   1.988   0.844  0.0079 -0.0736 -0.5772
  124SOL    HW2  618   3.673   1.930   0.816  0.7558  0.7130 -0.3402
  124SOL    HW3  619   3.608   1.989   0.940 -0.5973 -0.3424 -0.5350
  124SOL    MW4  620   3.612   1.981   0.853  0.0267 -0.0054 -0.5403
  125SOL     OW  621   2.251   2.404   1.237 -0.1175 -0.0567 -0.3345
  125SOL    HW2  622   2.236   2.394   1.331 -1.1232  2.6705 -0.1410
  125SOL    HW3  623   2.170   2.373   1.196  0.0083 -0.4801 -0.2658
  125SOL    MW4  624   2.238   2.399   1.244 -0.2339  0.2470 -0.3000
  126SOL     OW  625   2.831   1.222   0.690  0.0263 -0.2366 -0.2302
  126SOL    HW2  626   2.853   1.301   0.738 -0.9217  0.1358 -0.3965
  126SOL    HW3  627   2.780   1.253   0.614 -1.0698 -1.0595  0.1511
  126SOL    MW4  628   2.827   1.236   0.686 -0.2434 -0.2960 -0.2018
  127SOL     OW  629   0.692   2.690   0.276 -0.6310  0.7643  0.2499
  127SOL    HW2  630   0.669   2.673   0.185  0.6266 -0.0104  0.0601
  127SOL    HW3  631   0.618   2.738   0.312 -1.3840  0.5571 -1.0279
  127SOL    MW4  632   0.680   2.694   0.269 -0.5643  0.6344  0.0563
  128SOL     OW  633   3.315   1.385   0.472  0.1835 -0.0535  0.4168
  128SOL    HW2  634   3.280   1.304   0.435 -2.3316  0.3376  1.7937
  128SOL    HW3  635   3.270   1.394   0.556  1.4172  2.0821  0.8793
  128SOL    MW4  636   3.304   1.376   0.478  0.0145  0.2798  0.6594
  129SOL     OW  637   2.909   1.239   1.179 -0.0549 -0.4939 -0.0973
  129SOL    HW2  638   2.986   1.199   1.139  0.0183 -0.1979 -0.2557
  129SOL    HW3  639   2.925   1.234   1.273  0.5677  0.3721 -0.1534
  129SOL    MW4  640   2.921   1.233   1.186  0.0372 -0.3405 -0.1255
  130SOL     OW  641   0.894   1.919   0.374 -0.2158 -0.0304 -0.2366
  130SOL    HW2  642   0.825   1.882   0.428 -0.7820 -0.7519 -1.4198
  130SOL    HW3  643   0.867   2.010   0.360 -0.8997 -0.2871 -0.6301
  130SOL    MW4  644   0.881   1.926   0.379 -0.3807 -0.1594 -0.4447
  131SOL     OW  645   2.788   3.673   0.255 -0.1125  0.1109  0.4116
  131SOL    HW2  646   2.871   3.719   0.268  0.6768 -1.2233  0.1627
  131SOL    HW3  647   2.811   3.581   0.259 -1.8046 -0.2810  1.6288
  131SOL    MW4  648   2.802   3.667   0.257 -0.2317 -0.1168  0.5393
  132SOL     OW  649   2.468   2.050   0.742  0.1193 -0.4231  0.4321
  132SOL    HW2  650   2.461   2.135   0.786 -1.3653 -0.8843  1.1273
  132SOL    HW3  651   2.528   2.000   0.796 -0.2100 -0.3348  0.8845
  132SOL    MW4  652   2.475   2.055   0.755 -0.1202 -0.4723  0.5835
  133SOL     OW  653   3.393   2.798   0.733  0.4762 -0.0034 -0.0974
  133SOL    HW2  654   3.473   2.762   0.696  0.5066  0.5980 -0.6223
  133SOL    HW3  655   3.344   2.831   0.658 -0.2342 -0.3124  0.2240
  133SOL    MW4  656   3.397   2.798   0.718  0.3865  0.0350 -0.1243
  134SOL     OW  657   4.071   1.400   0.735  0.0067 -0.2089 -0.2385
  134SOL    HW2  658   3.987   1.401   0.780  0.3405 -0.7235  0.3954
  134SOL    HW3  659   4.097   1.308   0.734 -0.1440 -0.2594 -1.7636
  134SOL    MW4  660   4.064   1.388   0.741  0.0305 -0.2835 -0.3561
  135SOL     OW  661   1.753   0.032   0.532 -0.2033 -0.1654  0.0229
  135SOL    HW2  662   1.674   0.080   0.506  0.2775 -0.4168 -1.9703
  135SOL    HW3  663   1.733  -0.060   0.513 -0.4819 -0.5797  2.2201
  135SOL    MW4  664   1.740   0.026   0.526 -0.1765 -0.2533  0.0498
  136SOL     OW  665   1.389   2.427   0.630  0.2070 -0.4663 -0.1593
  136SOL    HW2  666   1.420   2.455   0.544  1.4151 -1.1137  0.0536
  136SOL    HW3  667   1.393   2.506   0.684  2.5495 -0.7570  0.1468
  136SOL    MW4  668   1.394   2.441   0.626  0.6753 -0.5901 -0.0908
  137SOL     OW  669   0.773   1.169   0.771  0.2074 -0.3304  0.1408
  137SOL    HW2  670   0.733   1.238   0.719 -0.6308 -1.0669 -0.1988
  137SOL    HW3  671   0.840   1.131   0.714  2.1761  1.6163  1.0885
  137SOL    MW4  672   0.777   1.173   0.756  0.3566 -0.1707  0.2210
  138SOL     OW  673   2.293   0.751   0.404  0.6467 -0.2010 -0.5734
  138SOL    HW2  674   2.354   0.808   0.356  0.1910 -0.4630 -1.4678
  138SOL    HW3  675   2.206   0.784   0.381  0.4243 -0.2553  0.1742
  138SOL    MW4  676   2.290   0.763   0.395  0.5572 -0.2427 -0.5927
  139SOL     OW  677   2.536   3.664   0.706  0.3658 -0.0283 -0.3429
  139SOL    HW2  678   2.454   3.621   0.683 -0.2406  1.4759 -1.0667
  139SOL    HW3  679   2.572   3.693   0.622  1.5680 -0.5391 -0.0165
  139SOL    MW4  680   2.530   3.662   0.692  0.4444  0.1028 -0.3954
  140SOL     OW  681   2.729   0.792   0.469 -0.2832 -0.2345  0.4956
  140SOL    HW2  682   2.666   0.834   0.412 -0.0358  0.5635  0.8102
  140SOL    HW3  683   2.726   0.699   0.443 -0.3238  0.0782 -0.6576
  140SOL    MW4  684   2.720   0.785   0.458 -0.2556 -0.0879  0.3849
  141SOL     OW  685   1.120   0.154   0.435  0.1276  0.3444 -0.2823
  141SOL    HW2  686   1.157   0.235   0.470  0.2417 -0.1075  0.6510
  141SOL    HW3  687   1.074   0.182   0.356  0.1947  1.3185  0.0088
  141SOL    MW4  688   1.119   0.169   0.429  0.1516  0.4133 -0.1208
  142SOL     OW  689   1.091   3.111   1.161  0.4671  0.1219  0.3730
  142SOL    HW2  690   1.175   3.150   1.187  0.2068  1.0402 -0.1522
  142SOL    HW3  691   1.100   3.018   1.182  2.3954 -0.1797 -1.6098
  142SOL    MW4  692   1.103   3.104   1.167  0.6871  0.2031  0.0422
  143SOL     OW  693   2.553   3.040   0.231  0.2542  0.2330  0.4173
  143SOL    HW2  694   2.507   2.961   0.257  1.7348 -0.4125  1.1151
  143SOL    HW3  695   2.586   3.021   0.143 -0.6360  0.6321 -0.0127
  143SOL    MW4  696   2.551   3.027   0.223  0.3321  0.2003  0.4526
  144SOL     OW  697   0.090   0.892   0.413 -0.4033  0.0521  0.2636
  144SOL    HW2  698   0.060   0.949   0.341 -0.8924  0.5556  0.8594
  144SOL    HW3  699   0.034   0.916   0.487 -1.0031 -1.6136  0.3787
  144SOL    MW4  700   0.078   0.903   0.413 -0.5470 -0.1013  0.3574
  145SOL     OW  701   0.823   0.658   0.487 -0.2457 -0.6111 -0.0910
  145SOL    HW2  702   0.849   0.687   0.575 -0.7274 -1.3572  0.3004
  145SOL    HW3  703   0.904   0.630   0.446 -0.0488 -0.4666  0.1991
  145SOL    MW4  704   0.837   0.658   0.493 -0.2833 -0.6904 -0.0011
  146SOL     OW  705   3.926   1.778   0.233  0.2830  0.2807 -0.0004
  146SOL    HW2  706   3.919   1.807   0.324  0.8390 -1.4604  0.6096
  146SOL    HW3  707   4.016   1.749   0.224  0.3666  0.9082 -1.2602
  146SOL    MW4  708   3.937   1.778   0.244  0.3672  0.1338 -0.0861
  147SOL     OW  709   3.579   0.910   0.692  0.8891  0.1307 -0.1160
  147SOL    HW2  710   3.577   0.983   0.753 -0.2143 -0.2460  0.3230
  147SOL    HW3  711   3.495   0.866   0.705  1.5338 -1.2065 -0.3808
  147SOL    MW4  712   3.567   0.914   0.702  0.8283 -0.0954 -0.0929
  148SOL     OW  713   4.302   3.696   0.674 -0.1949  0.5879  0.4593
  148SOL    HW2  714   4.296   3.773   0.730  0.8705  0.3522  0.9054
  148SOL    HW3  715   4.395   3.689   0.652 -0.2681 -0.6086  0.4824
  148SOL    MW4  716   4.313   3.706   0.678 -0.0639  0.3989  0.5212
  149SOL     OW  717   3.124   1.464   0.154  0.5386  0.3374  0.0272
  149SOL    HW2  718   3.161   1.552   0.141  0.5063  0.2871 -0.4264
  149SOL    HW3  719   3.198   1.405   0.144  0.3864  0.2549 -0.5957
  149SOL    MW4  720   3.138   1.468   0.151  0.5140  0.3197 -0.1149
  150SOL     OW  721   2.711   3.472   0.844 -0.1180 -0.0655 -0.0387
  150SOL    HW2  722   2.659   3.545   0.812  0.3606  0.4470  0.3550
  150SOL    HW3  723   2.791   3.475   0.791 -0.3147 -0.6205 -0.3785
  150SOL    MW4  724   2.715   3.482   0.833 -0.0808 -0.0713 -0.0315
  151SOL     OW  725   4.480   2.999   0.800 -0.0559 -0.3288  0.3615
  151SOL    HW2  726   4.546   3.065   0.780  0.0155  0.0212  1.6668
  151SOL    HW3  727   4.449   2.968   0.715  1.4030 -0.1085 -0.2565
  151SOL    MW4  728   4.484   3.003   0.786  0.1464 -0.2537  0.4521
  152SOL     OW  729   0.498   1.180   0.392  0.1074  0.0966  0.5992
  152SOL    HW2  730   0.451   1.226   0.323  1.0677  1.8338  1.0741
  152SOL    HW3  731   0.454   1.095   0.399 -0.5380  0.2306 -1.5431
  152SOL    MW4  732   0.486   1.175   0.384  0.1490  0.3436  0.3792
  153SOL     OW  733   2.587   1.574   0.341  0.1726 -0.2317 -0.1027
  153SOL    HW2  734   2.515   1.613   0.389  0.1450 -0.4665  0.0483
  153SOL    HW3  735   2.652   1.644   0.334 -0.7500  0.4788 -1.6842
  153SOL    MW4  736   2.586   1.588   0.346  0.0474 -0.1688 -0.2914
  154SOL     OW  737   2.698   2.678   1.156  0.0479  0.6008 -0.0744
  154SOL    HW2  738   2.683   2.587   1.181 -0.9984  0.8000  0.0325
  154SOL    HW3  739   2.614   2.722   1.170  0.6337  1.6616  0.2069
  154SOL    MW4  740   2.685   2.672   1.161 -0.0129  0.7670 -0.0230
  155SOL     OW  741   3.046   1.060   0.646  0.0187 -0.2387  0.0739
  155SOL    HW2  742   3.002   0.978   0.623  0.9068 -1.2201  1.6761
  155SOL    HW3  743   2.976   1.122   0.663 -0.7617 -1.5263  1.7322
  155SOL    MW4  744   3.031   1.057   0.645  0.0329 -0.5381  0.5041
  156SOL     OW  745   2.878   0.712   1.103  0.5855 -0.1825 -0.2592
  156SOL    HW2  746   2.947   0.777   1.110 -1.2077  1.6943  0.3553
  156SOL    HW3  747   2.882   0.683   1.012  1.2773  0.9096 -0.5848
  156SOL    MW4  748   2.888   0.717   1.092  0.4404  0.2092 -0.2210
  157SOL     OW  749   3.269   2.035   0.425  0.3419  0.2140 -0.2179
  157SOL    HW2  750   3.288   2.081   0.343  1.8812  0.1802  0.1171
  157SOL    HW3  751   3.175   2.051   0.439 -0.4850 -1.6361 -3.1406
  157SOL    MW4  752   3.259   2.043   0.416  0.4358 -0.0343 -0.5593
  158SOL     OW  753   2.059   3.581   0.733  0.0671  0.3959 -0.2226
  158SOL    HW2  754   2.073   3.591   0.638  0.6719  1.3475 -0.0376
  158SOL    HW3  755   2.057   3.670   0.766  1.0746  0.0356  0.8388
  158SOL    MW4  756   2.061   3.594   0.725  0.2799  0.4742 -0.0582
  159SOL     OW  757   2.530   0.321   0.404 -0.1167 -0.1823 -0.0522
  159SOL    HW2  758   2.499   0.231   0.418  0.2585 -0.1952  0.7089
  159SOL    HW3  759   2.451   0.374   0.404 -0.5806 -0.8112 -3.0324
  159SOL    MW4  760   2.516   0.316   0.406 -0.1287 -0.2669 -0.3450
  160SOL     OW  761   3.656   0.833   0.223 -0.0865 -0.2623  0.5984
  160SOL    HW2  762   3.609   0.915   0.210  0.2900 -0.1388 -0.0008
  160SOL    HW3  763   3.607   0.768   0.172  0.7045 -0.0189 -0.4970
  160SOL    MW4  764   3.643   0.835   0.215  0.0675 -0.2140  0.3748
  161SOL     OW  765   1.162   2.239   0.678 -0.3116 -0.0412 -0.3624
  161SOL    HW2  766   1.119   2.306   0.731 -0.7151  0.2276 -1.0073
  161SOL    HW3  767   1.236   2.284   0.637 -0.4197 -0.0594 -0.5805
  161SOL    MW4  768   1.166   2.254   0.679 -0.3791 -0.0083 -0.4762
  162SOL     OW  769   2.098   2.050   0.474  0.0315 -0.0014  0.0214
  162SOL    HW2  770   2.080   2.042   0.568 -0.5145 -0.8199 -0.1440
  162SOL    HW3  771   2.189   2.080   0.470 -0.1723  0.7703  0.8204
  162SOL    MW4  772   2.108   2.053   0.486 -0.0672 -0.0076  0.1050
  163SOL     OW  773   1.791   1.057   0.789 -0.3941 -0.2536 -0.0235
  163SOL    HW2  774   1.796   0.968   0.756  0.3287 -0.1134 -0.2980
  163SOL    HW3  775   1.874   1.097   0.763 -1.3593  0.9718 -1.3159
  163SOL    MW4  776   1.803   1.051   0.781 -0.4261 -0.0732 -0.2302
  164SOL     OW  777   1.763   0.392   1.108  0.3750  0.3633  0.9397
  164SOL    HW2  778   1.757   0.299   1.134 -0.3185 -0.2519 -1.3433
  164SOL    HW3  779   1.682   0.431   1.141 -1.9156 -1.0667 -2.7315
  164SOL    MW4  780   1.752   0.385   1.116 -0.0186  0.0935  0.1543
  165SOL     OW  781   3.859   2.918   0.400  0.1530  0.1645 -0.0688
  165SOL    HW2  782   3.870   2.846   0.462  1.8418  0.3338 -0.1515
  165SOL    HW3  783   3.841   2.875   0.316  0.4685 -0.1351  0.0176
  165SOL    MW4  784   3.858   2.903   0.397  0.4172  0.1473 -0.0683
  166SOL     OW  785   2.163   0.202   0.898 -0.6759  0.1138 -0.1142
  166SOL    HW2  786   2.199   0.261   0.832  0.7790 -0.4366  0.1813
  166SOL    HW3  787   2.181   0.245   0.982 -3.2078  1.1911 -0.0783
  166SOL    MW4  788   2.170   0.215   0.900 -0.8180  0.1833 -0.0705
  167SOL     OW  789   2.846   1.679   0.478 -0.2434 -0.1878 -0.3152
  167SOL    HW2  790   2.816   1.766   0.454  1.3633  0.9013  1.4964
  167SOL    HW3  791   2.810   1.665   0.566 -0.8836 -1.5559 -0.7775
  167SOL    MW4  792   2.837   1.688   0.487 -0.1156 -0.2247 -0.1372
  168SOL     OW  793   2.715   1.357   0.453  0.0077  0.2846  0.5537
  168SOL    HW2  794   2.800   1.352   0.409  0.1864  0.7523  0.8390
  168SOL    HW3  795   2.669   1.428   0.409 -1.0006 -1.2280 -0.8916
  168SOL    MW4  796   2.720   1.366   0.442 -0.1020  0.1469  0.4007
  169SOL     OW  797   3.466   4.456   0.728  0.2257 -0.4527 -0.6104
  169SOL    HW2  798   3.458   4.542   0.770  0.2644 -0.6570 -0.1818
  169SOL    HW3  799   3.509   4.474   0.645 -0.8414  0.1043 -1.0579
  169SOL    MW4  800   3.470   4.469   0.723  0.0899 -0.4058 -0.6129
  170SOL     OW  801   1.178   3.902   1.132  0.2515  0.2948 -0.3694
  170SOL    HW2  802   1.160   3.808   1.142  0.2854  0.3165 -0.1079
  170SOL    HW3  803   1.092   3.943   1.132  0.2523  0.3005 -0.0997
  170SOL    MW4  804   1.165   3.895   1.133  0.2559  0.2985 -0.2995
  171SOL     OW  805   2.421   2.305   0.862  0.1473  0.5563  0.0479
  171SOL    HW2  806   2.446   2.285   0.952  2.1907 -1.3246 -0.8959
  171SOL    HW3  807   2.472   2.382   0.839 -1.6433  2.0686  1.0211
  171SOL    MW4  808   2.431   2.312   0.871  0.1807  0.5078  0.0517
  172SOL     OW  809   3.210   0.994   0.846 -0.5068  0.1105 -0.1605
  172SOL    HW2  810   3.289   1.045   0.827 -0.4959  0.1576  0.0078
  172SOL    HW3  811   3.142   1.032   0.790 -0.3277 -0.1523 -0.5542
  172SOL    MW4  812   3.211   1.006   0.836 -0.4818  0.0819 -0.1902
  173SOL     OW  813   2.675   1.922   0.851 -0.5052 -0.2784  0.5743
  173SOL    HW2  814   2.754   1.962   0.815 -0.8108  0.0899  0.3103
  173SOL    HW3  815   2.682   1.935   0.945 -1.6125  2.2522  0.3423
  173SOL    MW4  816   2.686   1.929   0.859 -0.6919  0.1041  0.5088
  174SOL     OW  817   3.843   0.238   0.418  0.7271 -0.6301  0.3107
  174SOL    HW2  818   3.929   0.219   0.381  0.1992  0.6583 -1.6392
  174SOL    HW3  819   3.835   0.333   0.414 -1.6753 -0.8585 -1.6030
  174SOL    MW4  820   3.853   0.248   0.413  0.3405 -0.4902 -0.1991
  175SOL     OW  821   3.394   3.606   1.249  0.2687 -0.0107 -0.1876
  175SOL    HW2  822   3.406   3.696   1.220  0.0772 -0.2545 -1.0357
  175SOL    HW3  823   3.399   3.611   1.344  0.9178  0.7959 -0.2558
  175SOL    MW4  824   3.396   3.618   1.258  0.3290  0.0634 -0.3084
  176SOL     OW  825   2.009   2.832   1.181 -0.1398  0.4618  0.1376
  176SOL    HW2  826   1.936   2.776   1.156  0.0229  0.4676 -0.3709
  176SOL    HW3  827   2.085   2.774   1.179  0.2331  0.9792 -1.6779
  176SOL    MW4  828   2.010   2.817   1.177 -0.0694  0.5307 -0.1690
  177SOL     OW  829   3.505   2.234   0.828 -0.0899  0.1357 -0.1230
  177SOL    HW2  830   3.411   2.216   0.833 -0.0956 -0.3053 -1.6849
  177SOL    HW3  831   3.546   2.147   0.827  0.2484  0.3020 -0.9677
  177SOL    MW4  832   3.498   2.220   0.829 -0.0463  0.0997 -0.4406
  178SOL     OW  833   3.783   1.800   0.749 -0.6248  0.3645 -0.4552
  178SOL    HW2  834   3.804   1.815   0.657  0.9767 -0.5534 -0.2681
  178SOL    HW3  835   3.860   1.832   0.797 -1.4035  0.7576  0.5729
  178SOL    MW4  836   3.796   1.806   0.744 -0.5162  0.2952 -0.2949
  179SOL     OW  837   4.127   1.152   0.810  0.5523  0.2380 -0.0767
  179SOL    HW2  838   4.223   1.152   0.801  0.4729  2.6596 -1.2274
  179SOL    HW3  839   4.112   1.172   0.902  1.1365  0.2228  0.0284
  179SOL    MW4  840   4.138   1.155   0.821  0.6189  0.5555 -0.2147
  180SOL     OW  841   4.285   1.879   0.434 -0.2027  0.2515 -0.2672
  180SOL    HW2  842   4.355   1.923   0.386  0.2610 -0.6656 -0.4421
  180SOL    HW3  843   4.231   1.839   0.366  0.5314 -1.1667 -0.0549
  180SOL    MW4  844   4.287   1.879   0.419 -0.0439 -0.0566 -0.2623
  181SOL     OW  845   0.864   0.383   0.812  0.2729  0.0109 -0.3315
  181SOL    HW2  846   0.844   0.421   0.898 -1.1668 -1.4251 -0.0133
  181SOL    HW3  847   0.797   0.419   0.754  1.3102  1.0656 -0.9016
  181SOL    MW4  848   0.853   0.393   0.816  0.2199 -0.0394 -0.3647
  182SOL     OW  849   0.157   3.230   0.763  0.2472  0.7623  0.3897
  182SOL    HW2  850   0.126   3.320   0.765  0.0985  0.7113  0.3908
  182SOL    HW3  851   0.178   3.209   0.854 -0.7122  0.4488  0.5363
  182SOL    MW4  852   0.156   3.239   0.775  0.1010  0.7143  0.4093
  183SOL     OW  853   2.560   0.854   0.683 -0.2471  0.0187 -0.3029
  183SOL    HW2  854   2.628   0.834   0.619 -0.9123 -0.7343 -0.7758
  183SOL    HW3  855   2.608   0.892   0.757  0.6167  0.0787 -0.8806
  183SOL    MW4  856   2.576   0.856   0.684 -0.2210 -0.0727 -0.4416
  184SOL     OW  857   1.758   3.504   0.319 -0.4955 -0.2370  0.0305
  184SOL    HW2  858   1.734   3.435   0.381 -1.8641  0.0166 -0.2120
  184SOL    HW3  859   1.678   3.521   0.270  0.0417  1.0120 -0.4170
  184SOL    MW4  860   1.745   3.497   0.320 -0.6051 -0.0389 -0.0606
  185SOL     OW  861   2.814   4.371   0.926 -0.3056  0.3475 -0.0996
  185SOL    HW2  862   2.904   4.340   0.936 -0.0719  0.8212 -0.6628
  185SOL    HW3  863   2.778   4.318   0.855 -1.3014 -1.5960  1.7931
  185SOL    MW4  864   2.821   4.360   0.918 -0.4065  0.1540  0.0759
  186SOL     OW  865   3.437   3.055   0.875 -0.1847  0.1926  0.4616
  186SOL    HW2  866   3.350   3.083   0.846 -0.1625 -0.3773 -0.1651
  186SOL    HW3  867   3.444   2.965   0.845  0.3329 -0.0024  1.1723
  186SOL    MW4  868   3.426   3.047   0.867 -0.1135  0.0916  0.4727
  187SOL     OW  869   1.368   1.518   0.492  0.0289  0.0168  0.2093
  187SOL    HW2  870   1.436   1.454   0.513  0.1392  0.5344  1.5168
  187SOL    HW3  871   1.346   1.558   0.577 -2.1939 -0.4302 -0.1067
  187SOL    MW4  872   1.374   1.515   0.506 -0.2499  0.0261  0.3401
  188SOL     OW  873   4.078   3.975   0.733  0.2207 -0.3173  0.1414
  188SOL    HW2  874   4.101   3.942   0.646 -1.9689 -1.8711  0.1175
  188SOL    HW3  875   4.047   4.064   0.717  0.8810 -0.2003 -0.5168
  188SOL    MW4  876   4.077   3.982   0.719  0.0186 -0.5071  0.0514
  189SOL     OW  877   2.472   0.150   0.787  0.1070 -0.1003  0.4948
  189SOL    HW2  878   2.521   0.099   0.722 -0.4526 -1.0547  0.8114
  189SOL    HW3  879   2.418   0.085   0.832  0.5356  0.5497  1.9617
  189SOL    MW4  880   2.471   0.134   0.784  0.0899 -0.1405  0.7301
  190SOL     OW  881   3.989   2.750   0.820  0.2416 -0.0567 -0.0320
  190SOL    HW2  882   4.006   2.843   0.803 -2.1589  0.6317  1.0681
  190SOL    HW3  883   3.990   2.744   0.916  0.4516 -1.1943 -0.1062
  190SOL    MW4  884   3.992   2.762   0.830 -0.0472 -0.1161  0.1034
  191SOL     OW  885   0.942   3.324   0.516 -0.3386  0.0262  0.2113
  191SOL    HW2  886   0.909   3.236   0.495 -0.9335  0.4306 -0.5726
  191SOL    HW3  887   1.019   3.334   0.461 -1.0590  0.5233 -0.7102
  191SOL    MW4  888   0.948   3.314   0.506 -0.5121  0.1450 -0.0138
  192SOL     OW  889   2.235   2.704   0.869 -0.3103 -0.0799 -0.1848
  192SOL    HW2  890   2.182   2.639   0.823 -0.5189  0.4148 -0.6426
  192SOL    HW3  891   2.235   2.675   0.960 -0.7970 -0.4530 -0.3038
  192SOL    MW4  892   2.228   2.691   0.875 -0.4022 -0.0637 -0.2609
  193SOL     OW  893   2.066   0.727   0.794 -0.2984 -0.0533  0.0835
  193SOL    HW2  894   2.053   0.752   0.885  0.0435 -0.3346  0.2099
  193SOL    HW3  895   2.142   0.778   0.765 -0.0973 -0.3401  0.1041
  193SOL    MW4  896   2.074   0.737   0.802 -0.2265 -0.1283  0.1029
  194SOL     OW  897   1.549   2.807   1.159  0.3379  0.3416 -0.7908
  194SOL    HW2  898   1.545   2.898   1.128  1.5606  0.4372 -0.7224
  194SOL    HW3  899   1.475   2.764   1.118  0.5169  1.0647 -1.8966
  194SOL    MW4  900   1.539   2.814   1.149  0.5229  0.4497 -0.9277
  195SOL     OW  901   3.734   2.422   0.230 -0.3199 -0.1143  0.7246
  195SOL    HW2  902   3.809   2.427   0.289  0.2597 -0.3603  0.0136
  195SOL    HW3  903   3.671   2.485   0.265  0.5852  0.7561  0.7897
  195SOL    MW4  904   3.736   2.431   0.243 -0.1240 -0.0319  0.6394
  196SOL     OW  905   4.242   3.423   0.717 -0.1657 -0.0651 -0.0625
  196SOL    HW2  906   4.182   3.391   0.651  2.6368 -1.1611 -2.1703
  196SOL    HW3  907   4.266   3.511   0.688  0.6429 -0.3325 -0.2296
  196SOL    MW4  908   4.237   3.430   0.705  0.3109 -0.2446 -0.3626
  197SOL     OW  909   2.730   0.277   0.845  0.3988 -0.4800  0.2159
  197SOL    HW2  910   2.794   0.205   0.845  0.5308 -0.3937 -2.3013
  197SOL    HW3  911   2.646   0.235   0.828  0.3571 -0.1556 -0.4027
  197SOL    MW4  912   2.728   0.262   0.843  0.4108 -0.4258 -0.1979
  198SOL     OW  913   2.947   2.025   0.504  0.0223  0.1919  0.0480
  198SOL    HW2  914   2.939   2.034   0.599 -0.9796  0.0067 -0.0063
  198SOL    HW3  915   2.933   2.113   0.471 -0.4130  0.1167  0.0303
  198SOL    MW4  916   2.944   2.038   0.512 -0.1674  0.1576  0.0384
  199SOL     OW  917   2.897   3.390   0.381  0.2110  0.0208  0.7172
  199SOL    HW2  918   2.916   3.385   0.474 -0.3252 -0.0647  0.8257
  199SOL    HW3  919   2.982   3.403   0.339  0.3139  1.3868  1.3242
  199SOL    MW4  920   2.911   3.391   0.388  0.1538  0.1898  0.8116
  200SOL     OW  921   0.068   3.693   0.578  0.9411 -0.5042 -0.2023
  200SOL    HW2  922   0.074   3.692   0.482 -0.1397  1.6336 -0.3377
  200SOL    HW3  923   0.122   3.768   0.604 -0.9206  0.5936  0.6242
  200SOL    MW4  924   0.076   3.703   0.568  0.5529 -0.0775 -0.1111
  201SOL     OW  925   1.132   4.664   0.853  0.2508 -0.3407  0.0965
  201SOL    HW2  926   1.197   4.730   0.830  0.9100 -0.3892  1.7307
  201SOL    HW3  927   1.048   4.708   0.840  0.6093 -0.1979 -1.7981
  201SOL    MW4  928   1.129   4.679   0.849  0.3852 -0.3285  0.0621
  202SOL     OW  929   0.469   2.805   0.438  0.0415 -0.1885  0.0417
  202SOL    HW2  930   0.470   2.879   0.499 -1.8697 -0.6067  0.5917
  202SOL    HW3  931   0.378   2.798   0.410  0.1685 -2.4541  0.1444
  202SOL    MW4  932   0.457   2.814   0.442 -0.1939 -0.5424  0.1278
  203SOL     OW  933   4.368   4.174   0.857 -0.4247  0.0258 -0.0638
  203SOL    HW2  934   4.381   4.080   0.858 -0.2543  0.0581  0.6403
  203SOL    HW3  935   4.427   4.208   0.924  0.4464  0.7598 -1.1824
  203SOL    MW4  936   4.377   4.166   0.866 -0.2875  0.1268 -0.1184
  204SOL     OW  937   4.163   0.234   0.447  0.2355  0.4281 -0.4004
  204SOL    HW2  938   4.221   0.309   0.436  0.4182  0.5806  1.5281
  204SOL    HW3  939   4.219   0.158   0.435  0.7473  0.5817  0.9178
  204SOL    MW4  940   4.178   0.234   0.444  0.3271  0.4685  0.0279
  205SOL     OW  941   4.014   1.534   0.470  0.7942  0.1102 -0.5371
  205SOL    HW2  942   4.001   1.498   0.557  1.0776 -0.1999 -0.6231
  205SOL    HW3  943   3.985   1.464   0.411  0.4429  0.3802 -0.6901
  205SOL    MW4  944   4.008   1.520   0.473  0.7849  0.1049 -0.5687
  206SOL     OW  945   1.057   2.466   0.823 -0.4039  0.0235 -0.7647
  206SOL    HW2  946   0.971   2.461   0.782 -0.5109 -0.6700 -0.4779
  206SOL    HW3  947   1.044   2.429   0.911 -0.2818  1.8877  0.0672
  206SOL    MW4  948   1.044   2.460   0.830 -0.4019  0.1779 -0.6171
  207SOL     OW  949   1.275   0.828   0.420 -0.2322 -0.2600  0.0097
  207SOL    HW2  950   1.267   0.920   0.395  2.1857 -0.6840 -2.4992
  207SOL    HW3  951   1.296   0.830   0.514 -0.3641  1.7152  0.0073
  207SOL    MW4  952   1.277   0.840   0.429  0.0695 -0.0554 -0.3216
  208SOL     OW  953   2.626   2.430   0.530  0.3027 -0.3749 -0.0470
  208SOL    HW2  954   2.631   2.425   0.625 -0.6811  0.9061  0.0774
  208SOL    HW3  955   2.532   2.423   0.511  0.4512 -0.0755 -0.8982
  208SOL    MW4  956   2.614   2.428   0.540  0.1924 -0.1664 -0.1429
  209SOL     OW  957   2.905   1.452   0.840  0.3156  0.4084  0.0830
  209SOL    HW2  958   2.834   1.508   0.807 -1.2252 -1.7849 -0.4435
  209SOL    HW3  959   2.908   1.471   0.933  0.0962  1.6783 -0.1562
  209SOL    MW4  960   2.896   1.462   0.848  0.0834  0.2866 -0.0181
  210SOL     OW  961   2.230   3.898   0.558 -0.3345 -0.0088 -0.7121
  210SOL    HW2  962   2.316   3.880   0.519  0.6245 -0.2326  1.4707
  210SOL    HW3  963   2.249   3.935   0.644 -2.4309  1.1560 -0.7153
  210SOL    MW4  964   2.244   3.900   0.564 -0.4845  0.1152 -0.4246
  211SOL     OW  965   1.150   0.674   0.873 -0.0804 -0.4961  0.0688
  211SOL    HW2  966   1.144   0.580   0.856  0.0363 -0.1942 -1.7371
  211SOL    HW3  967   1.141   0.682   0.968 -0.2446 -2.3143  0.2209
  211SOL    MW4  968   1.148   0.663   0.884 -0.0865 -0.6961 -0.1494
  212SOL     OW  969   2.259   1.083   0.813 -0.1131 -0.2173 -0.0483
  212SOL    HW2  970   2.344   1.116   0.784  0.5096 -0.9022  0.9638
  212SOL    HW3  971   2.249   1.000   0.767 -0.1205 -0.2546  0.0209
  212SOL    MW4  972   2.269   1.076   0.803 -0.0319 -0.3124  0.0944
  213SOL     OW  973   1.826   3.493   1.075 -0.5907  0.2405  0.0765
  213SOL    HW2  974   1.745   3.534   1.106 -1.6968 -0.8433 -1.3303
  213SOL    HW3  975   1.818   3.402   1.101  0.5380  0.2759  0.5914
  213SOL    MW4  976   1.814   3.487   1.082 -0.5877  0.1023 -0.0412
  214SOL     OW  977   4.218   2.456   0.354 -0.1708  0.0652 -0.0684
  214SOL    HW2  978   4.269   2.523   0.399  0.2643  0.4230 -1.0847
  214SOL    HW3  979   4.270   2.433   0.278 -0.9307 -0.4949 -0.4274
  214SOL    MW4  980   4.231   2.461   0.350 -0.2131  0.0384 -0.2498
  215SOL     OW  981   0.664   3.657   0.737  0.1353  0.1627  0.1547
  215SOL    HW2  982   0.570   3.641   0.749 -0.1815  0.6770 -1.5870
  215SOL    HW3  983   0.679   3.743   0.776 -0.3534  0.6242 -0.6747
  215SOL    MW4  984   0.653   3.666   0.744  0.0291  0.2911 -0.1845
  216SOL     OW  985   0.123   2.681   0.595  0.5013  0.0075 -0.2390
  216SOL    HW2  986   0.169   2.600   0.573  1.6266  0.3511  0.7810
  216SOL    HW3  987   0.098   2.670   0.687  0.8048  0.8744 -0.0476
  216SOL    MW4  988   0.126   2.669   0.604  0.6898  0.1671 -0.0792
  217SOL     OW  989   1.736   3.331   0.555  0.2173  0.0218  0.0091
  217SOL    HW2  990   1.768   3.373   0.635 -0.1916 -0.6591  0.5280
  217SOL    HW3  991   1.641   3.340   0.559  0.1959 -0.0004 -0.4126
  217SOL    MW4  992   1.728   3.338   0.566  0.1606 -0.0710  0.0219
  218SOL     OW  993   0.424   3.280   0.676 -0.2396 -0.2408  0.6632
  218SOL    HW2  994   0.330   3.276   0.689 -0.6041 -0.3140 -1.8212
  218SOL    HW3  995   0.443   3.374   0.665 -0.3294 -0.3747 -0.7706
  218SOL    MW4  996   0.414   3.292   0.676 -0.2995 -0.2680  0.1462
  219SOL     OW  997   2.501   1.511   0.824 -0.1192 -0.1258  0.0610
  219SOL    HW2  998   2.500   1.528   0.918  0.8231 -0.8380  0.2122
  219SOL    HW3  999   2.501   1.415   0.817  0.5724 -0.0838 -0.6397
  219SOL    MW4 1000   2.501   1.500   0.835  0.0966 -0.2143 -0.0116
  220SOL     OW 1001   3.643   3.079   0.340  0.4586  0.0031  0.2975
  220SOL    HW2 1002   3.710   3.023   0.378 -0.2066 -0.7537  0.3753
  220SOL    HW3 1003   3.567   3.021   0.328  0.3113  0.4774 -1.1983
  220SOL    MW4 1004   3.642   3.064   0.343  0.3517 -0.0343  0.1104
  221SOL     OW 1005   0.265   1.796   0.375  0.0820  0.2763  0.1289
  221SOL    HW2 1006   0.271   1.784   0.470  1.6455 -3.9854 -0.3809
  221SOL    HW3 1007   0.339   1.854   0.354  0.3874  0.3695  1.3982
  221SOL    MW4 1008   0.276   1.802   0.385  0.3286 -0.2736  0.2291
  222SOL     OW 1009   2.476   2.003   1.225 -0.4219  0.3328  0.7950
  222SOL    HW2 1010   2.562   1.971   1.198  0.4718  2.4648  1.0064
  222SOL    HW3 1011   2.483   2.012   1.320 -1.4537 -1.0763  1.0242
  222SOL    MW4 1012   2.488   2.000   1.234 -0.4404  0.4283  0.8532
  223SOL     OW 1013   1.217   3.525   0.366 -0.0678  0.0436  0.0562
  223SOL    HW2 1014   1.177   3.611   0.362 -1.8085 -0.7041  0.8420
  223SOL    HW3 1015   1.308   3.542   0.392 -0.4594  1.6147  0.4503
  223SOL    MW4 1016   1.224   3.538   0.369 -0.3490  0.1521  0.2119
  224SOL     OW 1017   4.473   2.707   1.141  0.1342 -0.1844 -0.3864
  224SOL    HW2 1018   4.487   2.701   1.047  0.6176  0.0092 -0.3251
  224SOL    HW3 1019   4.385   2.745   1.150  0.5343  0.8453 -0.7562
  224SOL    MW4 1020   4.463   2.711   1.130  0.2508 -0.0229 -0.4271
  225SOL     OW 1021   3.927   1.827   0.503 -0.6128 -0.5402 -0.3221
  225SOL    HW2 1022   3.953   1.735   0.499 -1.2956 -0.7140 -0.8093
  225SOL    HW3 1023   4.005   1.872   0.536  0.1666 -1.1125 -1.3492
  225SOL    MW4 1024   3.941   1.821   0.507 -0.6001 -0.6385 -0.5220
  226SOL     OW 1025   1.333   4.663   0.346  0.5272  0.2821  0.0817
  226SOL    HW2 1026   1.263   4.724   0.367  0.2313  0.2281 -0.7169
  226SOL    HW3 1027   1.407   4.691   0.400  0.2405  1.0377  0.0852
  226SOL    MW4 1028   1.333   4.674   0.356  0.4503  0.3748 -0.0232
  227SOL     OW 1029   0.492   1.127   0.837  0.1095 -0.3642 -0.3976
  227SOL    HW2 1030   0.583   1.123   0.808  0.0896  1.5615 -0.7985
  227SOL    HW3 1031   0.456   1.203   0.792 -1.8337 -1.3606 -0.5760
  227SOL    MW4 1032   0.499   1.137   0.827 -0.1495 -0.2416 -0.4740
  228SOL     OW 1033   1.792   2.412   1.197  0.0690  0.2698  0.0575
  228SOL    HW2 1034   1.723   2.366   1.151  1.3496 -0.5450 -1.0715
  228SOL    HW3 1035   1.770   2.402   1.290 -1.2507 -0.0721 -0.2889
  228SOL    MW4 1036   1.780   2.405   1.204  0.0638  0.1173 -0.1371
  229SOL     OW 1037   2.913   4.601   1.172 -0.2665  0.3346 -0.0689
  229SOL    HW2 1038   2.910   4.604   1.076  1.2211  1.3594 -0.0978
  229SOL    HW3 1039   2.919   4.508   1.193 -1.0968  0.0755 -0.9449
  229SOL    MW4 1040   2.913   4.589   1.162 -0.1798  0.4363 -0.1882
  230SOL     OW 1041   2.872   4.508   0.657  0.3886  0.7412 -0.0495
  230SOL    HW2 1042   2.958   4.489   0.621 -0.5838 -0.3924 -1.8533
  230SOL    HW3 1043   2.835   4.422   0.677 -0.2234  1.2303  0.9607
  230SOL    MW4 1044   2.878   4.494   0.655  0.1798  0.6566 -0.1542
  231SOL     OW 1045   0.635   4.031   0.400 -0.0579 -0.6825  0.1102
  231SOL    HW2 1046   0.683   3.950   0.381  1.5876  0.3581 -0.3501
  231SOL    HW3 1047   0.586   4.012   0.480  0.7032 -1.9828  0.2833
  231SOL    MW4 1048   0.635   4.018   0.408  0.2596 -0.7167  0.0723
  232SOL     OW 1049   1.797   1.684   0.431 -0.1813 -0.6888  0.6077
  232SOL    HW2 1050   1.820   1.604   0.386 -0.4299 -0.2671 -0.2809
  232SOL    HW3 1051   1.812   1.665   0.524  0.4289 -1.5231  0.3413
  232SOL    MW4 1052   1.802   1.671   0.437 -0.1335 -0.7433  0.4553
  233SOL     OW 1053   2.901   3.033   0.828 -0.2372 -0.1327  0.1063
  233SOL    HW2 1054   2.990   3.066   0.827  0.4936 -2.0136  0.8833
  233SOL    HW3 1055   2.856   3.082   0.759  1.3995  0.7765 -0.3336
  233SOL    MW4 1056   2.907   3.044   0.819  0.0751 -0.2608  0.1509
  234SOL     OW 1057   2.756   2.984   0.418 -0.3268 -0.0724  0.0509
  234SOL    HW2 1058   2.720   2.897   0.435  0.3211 -0.4250 -0.3903
  234SOL    HW3 1059   2.695   3.023   0.355 -0.7445 -0.1097  0.4255
  234SOL    MW4 1060   2.743   2.978   0.412 -0.2964 -0.1237  0.0421
  235SOL     OW 1061   3.572   0.260   0.905  0.0164  0.4443  0.3764
  235SOL    HW2 1062   3.576   0.287   0.997  0.9969 -0.1701  0.5306
  235SOL    HW3 1063   3.555   0.340   0.857  0.5643  0.9552  1.0162
  235SOL    MW4 1064   3.570   0.274   0.911  0.2182  0.4307  0.4812
  236SOL     OW 1065   1.594   4.651   0.874 -0.2634  0.6125  0.1759
  236SOL    HW2 1066   1.684   4.680   0.856 -0.3972  0.4235 -0.8202
  236SOL    HW3 1067   1.592   4.561   0.843 -0.0727 -0.2396  2.5477
  236SOL    MW4 1068   1.606   4.643   0.867 -0.2558  0.4754  0.3573
  237SOL     OW 1069   3.588   0.552   0.799  0.2361 -1.0785  0.6827
  237SOL    HW2 1070   3.576   0.540   0.705 -0.5848 -1.6749  0.8629
  237SOL    HW3 1071   3.672   0.597   0.806  0.1468 -0.7297 -0.3528
  237SOL    MW4 1072   3.598   0.556   0.787  0.1159 -1.1112  0.5699
  238SOL     OW 1073   3.198   4.303   0.452  0.2158  0.5205  0.0754
  238SOL    HW2 1074   3.241   4.364   0.391 -0.5509  0.5523 -0.4305
  238SOL    HW3 1075   3.193   4.352   0.534  0.2388  0.8843 -0.1359
  238SOL    MW4 1076   3.203   4.318   0.454  0.1175  0.5732 -0.0192
  239SOL     OW 1077   0.960   2.236   0.437  0.1801  0.2963 -0.2825
  239SOL    HW2 1078   0.871   2.206   0.454  0.2547 -0.1820 -0.7255
  239SOL    HW3 1079   1.008   2.216   0.518  0.0837 -0.1983 -0.3505
  239SOL    MW4 1080   0.954   2.230   0.450  0.1772  0.1678 -0.3499
  240SOL     OW 1081   4.262   2.326   1.086 -0.3356  0.1153 -0.1126
  240SOL    HW2 1082   4.334   2.371   1.130  0.2663 -0.3517 -0.6172
  240SOL    HW3 1083   4.183   2.363   1.126  0.1279  2.0814 -0.9609
  240SOL    MW4 1084   4.261   2.337   1.097 -0.1955  0.3133 -0.2910
  241SOL     OW 1085   1.265   2.924   0.720 -0.2416  0.7838  0.1814
  241SOL    HW2 1086   1.262   2.830   0.736  0.3052  0.8656  0.8200
  241SOL    HW3 1087   1.195   2.960   0.774 -0.4720  0.7402 -0.0884
  241SOL    MW4 1088   1.256   2.917   0.729 -0.1999  0.7889  0.2300
  242SOL     OW 1089   0.124   1.354   0.734 -0.1113 -0.1798  0.0238
  242SOL    HW2 1090   0.168   1.429   0.775 -1.6487  0.8373 -0.1397
  242SOL    HW3 1091   0.106   1.383   0.645  1.2923 -1.6041 -0.7455
  242SOL    MW4 1092   0.128   1.368   0.728 -0.1289 -0.2334 -0.0992
  243SOL     OW 1093   4.424   1.049   0.203  0.4312 -0.1195 -0.1939
  243SOL    HW2 1094   4.358   0.985   0.227  0.0016  0.4454  0.1415
  243SOL    HW3 1095   4.378   1.133   0.201  1.4692  0.5455  1.7542
  243SOL    MW4 1096   4.409   1.052   0.206  0.5116  0.0427  0.1074
  244SOL     OW 1097   4.028   1.852   0.889  0.3013  0.0880  0.2247
  244SOL    HW2 1098   4.076   1.934   0.877  0.7632 -0.3010 -0.6412
  244SOL    HW3 1099   4.092   1.783   0.870 -0.3738 -0.4466 -0.1596
  244SOL    MW4 1100   4.043   1.854   0.885  0.2732 -0.0341  0.0598
  245SOL     OW 1101   1.860   0.064   0.793  0.0795  0.0027 -0.1959
  245SOL    HW2 1102   1.856   0.157   0.813  1.2060 -0.1507  0.7505
  245SOL    HW3 1103   1.833   0.058   0.701 -1.0174  1.1382  0.0398
  245SOL    MW4 1104   1.856   0.076   0.783  0.0834  0.1322 -0.0400
  246SOL     OW 1105   3.200   2.638   0.850 -0.3442 -0.3805  0.5544
  246SOL    HW2 1106   3.267   2.679   0.795 -0.6908 -1.1957 -0.5118
  246SOL    HW3 1107   3.204   2.685   0.933 -0.7814  1.8592 -0.6549
  246SOL    MW4 1108   3.209   2.649   0.853 -0.4478 -0.1926  0.2542
  247SOL     OW 1109   0.677   4.340   0.431 -0.3340 -0.1459 -0.3555
  247SOL    HW2 1110   0.656   4.358   0.522 -1.4401  1.5658 -0.9272
  247SOL    HW3 1111   0.668   4.245   0.423 -1.8924 -0.1348  0.9139
  247SOL    MW4 1112   0.673   4.330   0.442 -0.6855  0.0820 -0.2634
  248SOL     OW 1113   0.198   0.571   0.705  0.3374  0.0870  0.2383
  248SOL    HW2 1114   0.175   0.576   0.612  1.1850 -0.4451 -0.0021
  248SOL    HW3 1115   0.131   0.514   0.744  1.2150 -1.4387 -0.4547
  248SOL    MW4 1116   0.186   0.564   0.698  0.5650 -0.1845  0.1152
  249SOL     OW 1117   3.886   4.567   0.877 -0.1013  0.2934  0.3462
  249SOL    HW2 1118   3.850   4.640   0.827  0.2883 -0.7485 -1.5399
  249SOL    HW3 1119   3.822   4.496   0.865  0.5994 -0.3405  0.3226
  249SOL    MW4 1120   3.873   4.567   0.869  0.0424  0.0720  0.0942
  250SOL     OW 1121   1.988   0.165   0.435 -0.0139 -0.0095 -0.4199
  250SOL    HW2 1122   1.975   0.257   0.414  1.1766  0.1166 -0.6480
  250SOL    HW3 1123   1.903   0.135   0.464 -0.3613  1.2224 -0.1311
  250SOL    MW4 1124   1.975   0.173   0.436  0.0974  0.1696 -0.4120
  251SOL     OW 1125   0.934   4.263   0.347  0.1721 -0.4168  0.3607
  251SOL    HW2 1126   1.000   4.325   0.379 -0.5892  0.5531  0.0646
  251SOL    HW3 1127   0.850   4.305   0.366 -0.3525 -1.3903  0.2205
  251SOL    MW4 1128   0.932   4.277   0.354  0.0024 -0.4168  0.3032
  252SOL     OW 1129   3.911   2.200   0.578 -0.2364  0.3446  0.4645
  252SOL    HW2 1130   3.969   2.124   0.578 -0.9448 -0.2413 -1.4733
  252SOL    HW3 1131   3.832   2.170   0.532 -0.8637  1.9849  0.4371
  252SOL    MW4 1132   3.908   2.186   0.572 -0.4125  0.4838  0.2052
  253SOL     OW 1133   4.438   0.307   1.088  0.0619 -0.0894  0.1185
  253SOL    HW2 1134   4.369   0.371   1.106  0.8624  0.3476  1.7152
  253SOL    HW3 1135   4.406   0.226   1.128  0.4181  0.0872  0.7683
  253SOL    MW4 1136   4.424   0.305   1.096  0.2146 -0.0085  0.4150
  254SOL     OW 1137   3.878   0.535   0.477 -0.6601 -0.0988  0.0852
  254SOL    HW2 1138   3.843   0.624   0.474  0.1703  0.2290 -0.1108
  254SOL    HW3 1139   3.915   0.527   0.564  0.0547  0.0609 -0.1985
  254SOL    MW4 1140   3.878   0.546   0.488 -0.4563 -0.0345  0.0219
  255SOL     OW 1141   1.333   1.096   0.803 -0.1752 -0.5672 -0.7176
  255SOL    HW2 1142   1.258   1.145   0.768  0.5870  0.7791 -0.4942
  255SOL    HW3 1143   1.409   1.133   0.758  0.3469 -2.0788 -1.1042
  255SOL    MW4 1144   1.333   1.107   0.793 -0.0057 -0.5890 -0.7392
  256SOL     OW 1145   3.722   0.754   0.493  0.5637 -0.0380  0.1250
  256SOL    HW2 1146   3.711   0.780   0.402  1.8736 -2.4703 -0.7724
  256SOL    HW3 1147   3.695   0.831   0.543 -0.1522  1.3480 -2.2943
  256SOL    MW4 1148   3.717   0.768   0.488  0.6421 -0.1760 -0.3126
  257SOL     OW 1149   3.518   3.799   0.433 -0.1444  0.1447  0.1642
  257SOL    HW2 1150   3.452   3.786   0.501  0.6475 -0.6336  0.7981
  257SOL    HW3 1151   3.564   3.716   0.428  0.8849  0.7271 -0.1540
  257SOL    MW4 1152   3.515   3.787   0.442  0.0958  0.1192  0.2059
  258SOL     OW 1153   1.561   0.385   0.782  0.1596  0.0269 -0.5073
  258SOL    HW2 1154   1.555   0.480   0.792 -1.2307 -0.1454  0.6300
  258SOL    HW3 1155   1.653   0.365   0.798  0.3583  1.1337 -0.1874
  258SOL    MW4 1156   1.572   0.395   0.786  0.0024  0.1502 -0.3151
  259SOL     OW 1157   4.280   1.436   0.391  0.0211 -0.5824 -0.2910
  259SOL    HW2 1158   4.206   1.473   0.440 -0.2167 -0.2172 -0.9181
  259SOL    HW3 1159   4.270   1.341   0.401 -0.1519 -0.5144  0.1815
  259SOL    MW4 1160   4.269   1.428   0.399 -0.0329 -0.5254 -0.3114
  260SOL     OW 1161   1.351   1.877   1.152 -0.5594 -0.0811 -0.1143
  260SOL    HW2 1162   1.378   1.874   1.060  0.4919  0.2312  0.1886
  260SOL    HW3 1163   1.275   1.936   1.152 -0.8985 -0.5099 -0.8616
  260SOL    MW4 1164   1.344   1.884   1.140 -0.4653 -0.0964 -0.1730
  261SOL     OW 1165   2.532   3.859   0.904 -0.0497 -0.1619 -0.7499
  261SOL    HW2 1166   2.596   3.917   0.862 -0.8059  0.2910 -1.2898
  261SOL    HW3 1167   2.526   3.784   0.846 -0.0311 -0.1922 -0.7126
  261SOL    MW4 1168   2.540   3.857   0.891 -0.1469 -0.1061 -0.8162
  262SOL     OW 1169   1.345   2.106   0.310  0.5219 -0.0326  0.0313
  262SOL    HW2 1170   1.307   2.193   0.320 -1.8323 -1.0041 -0.1436
  262SOL    HW3 1171   1.307   2.055   0.382  1.1460 -1.1451 -0.4146
  262SOL    MW4 1172   1.335   2.111   0.321  0.2937 -0.3076 -0.0506
  263SOL     OW 1173   2.631   3.335   0.277  0.0927 -0.0169  0.1773
  263SOL    HW2 1174   2.616   3.241   0.261 -0.1998  0.1247 -0.4233
  263SOL    HW3 1175   2.715   3.339   0.321  0.6596 -0.4862 -0.8399
  263SOL    MW4 1176   2.640   3.323   0.281  0.1290 -0.0603 -0.0362
  264SOL     OW 1177   3.923   0.960   0.243  0.2808 -0.0404 -0.6358
  264SOL    HW2 1178   3.841   0.911   0.236  0.0056  0.2571  0.5454
  264SOL    HW3 1179   3.900   1.049   0.218  0.1842  0.1073 -0.0162
  264SOL    MW4 1180   3.909   0.965   0.239  0.2317  0.0184 -0.3982
  265SOL     OW 1181   3.140   0.453   0.893  0.7766 -0.1920  0.0182
  265SOL    HW2 1182   3.133   0.411   0.978  0.4133 -1.8062 -0.7882
  265SOL    HW3 1183   3.220   0.506   0.898  0.9148 -0.5266  1.2389
  265SOL    MW4 1184   3.150   0.455   0.905  0.7470 -0.4491  0.0728
  266SOL     OW 1185   1.788   0.782   0.720 -0.1558  0.1495  0.1159
  266SOL    HW2 1186   1.875   0.750   0.742 -0.3668 -0.1396  0.5270
  266SOL    HW3 1187   1.778   0.761   0.627  0.9367  1.8466 -0.3990
  266SOL    MW4 1188   1.798   0.775   0.710 -0.0395  0.3353  0.1022
  267SOL     OW 1189   0.349   4.623   0.510 -0.0780 -0.2110  0.2332
  267SOL    HW2 1190   0.391   4.679   0.576  0.4814  0.3821 -0.6294
  267SOL    HW3 1191   0.420   4.598   0.451 -0.8787  0.5292 -1.0482
  267SOL    MW4 1192   0.364   4.627   0.511 -0.1099 -0.0353 -0.0497
  268SOL     OW 1193   3.402   1.340   0.114 -0.4339 -0.2646 -0.2745
  268SOL    HW2 1194   3.473   1.402   0.130 -0.5231 -0.4692  0.9217
  268SOL    HW3 1195   3.443   1.254   0.124 -1.2086 -0.3827  2.0507
  268SOL    MW4 1196   3.417   1.336   0.118 -0.5479 -0.3072  0.1901
  269SOL     OW 1197   1.461   3.847   0.404 -0.3557  0.0522 -0.5253
  269SOL    HW2 1198   1.403   3.883   0.337  0.6704  0.5435 -1.1478
  269SOL    HW3 1199   1.464   3.915   0.472 -2.0257 -0.7734  0.4087
  269SOL    MW4 1200   1.453   3.861   0.404 -0.4408  0.0081 -0.4842
  270SOL     OW 1201   4.485   4.353   0.693 -0.0464 -0.0736  0.0491
  270SOL    HW2 1202   4.437   4.286   0.741 -0.8492  0.5583  0.1307
  270SOL    HW3 1203   4.446   4.435   0.721  1.8925  0.5509  1.0636
  270SOL    MW4 1204   4.474   4.355   0.703  0.1035  0.0925  0.1937
  271SOL     OW 1205   4.249   0.488   0.772 -0.0613  0.1790 -0.0531
  271SOL    HW2 1206   4.179   0.443   0.819  0.6409  0.1466  1.0009
  271SOL    HW3 1207   4.216   0.577   0.761 -0.5313 -0.0018 -0.1322
  271SOL    MW4 1208   4.236   0.494   0.777 -0.0305  0.1509  0.0755
  272SOL     OW 1209   0.542   4.559   0.317 -0.4646  0.4246 -0.2256
  272SOL    HW2 1210   0.522   4.525   0.230 -0.3624  0.6848 -0.3508
  272SOL    HW3 1211   0.575   4.483   0.365 -0.4246  0.3036 -0.4446
  272SOL    MW4 1212   0.544   4.544   0.312 -0.4460  0.4435 -0.2710
  273SOL     OW 1213   1.734   4.430   0.488  0.1468  0.3747 -0.2737
  273SOL    HW2 1214   1.688   4.361   0.441 -0.7381 -0.1689  1.3733
  273SOL    HW3 1215   1.826   4.403   0.486  0.2621  0.8336 -2.4696
  273SOL    MW4 1216   1.740   4.417   0.482  0.0453  0.3633 -0.3461
  274SOL     OW 1217   0.532   1.576   0.825 -0.0903 -0.1978 -0.1917
  274SOL    HW2 1218   0.569   1.562   0.913 -1.0823 -0.7702  0.1536
  274SOL    HW3 1219   0.585   1.521   0.768  1.3918  1.1829 -0.1655
  274SOL    MW4 1220   0.544   1.567   0.829 -0.0256 -0.0911 -0.1428
  275SOL     OW 1221   1.613   3.886   1.127 -0.4856  0.1493 -0.0034
  275SOL    HW2 1222   1.607   3.894   1.032  0.7345  0.4709 -0.0693
  275SOL    HW3 1223   1.551   3.951   1.160 -0.5612  0.3796 -0.5838
  275SOL    MW4 1224   1.604   3.896   1.119 -0.3346  0.2220 -0.0887
  276SOL     OW 1225   0.813   2.481   0.716  0.7044 -0.2319  0.1305
  276SOL    HW2 1226   0.853   2.491   0.630 -0.1094 -1.0888 -0.3571
  276SOL    HW3 1227   0.815   2.569   0.755  1.5553  0.0461 -0.5440
  276SOL    MW4 1228   0.818   2.494   0.710  0.7093 -0.3080 -0.0229
  277SOL     OW 1229   1.886   3.184   0.801 -0.2573 -0.2071 -0.2050
  277SOL    HW2 1230   1.820   3.117   0.783 -0.7657  0.4674 -0.8548
  277SOL    HW3 1231   1.836   3.265   0.811  0.3213  0.0176  0.9819
  277SOL    MW4 1232   1.871   3.186   0.800 -0.2481 -0.0882 -0.1341
  278SOL     OW 1233   3.555   0.522   0.517 -0.6614 -0.1860  0.0037
  278SOL    HW2 1234   3.488   0.575   0.474  0.2879 -0.6371 -2.0984
  278SOL    HW3 1235   3.637   0.550   0.477  0.3408 -0.1703  2.0151
  278SOL    MW4 1236   3.557   0.532   0.506 -0.4039 -0.2434 -0.0083
  279SOL     OW 1237   3.079   4.276   0.879  0.5581  0.1944  0.0710
  279SOL    HW2 1238   3.094   4.206   0.815  0.4243 -0.0953  0.3604
  279SOL    HW3 1239   3.068   4.355   0.825 -0.1036 -0.1431 -0.2872
  279SOL    MW4 1240   3.080   4.277   0.863  0.4532  0.1111  0.0619
  280SOL     OW 1241   4.010   3.427   0.869  0.1031 -0.3149  0.6176
  280SOL    HW2 1242   4.097   3.434   0.832 -0.1795 -1.3673 -0.2785
  280SOL    HW3 1243   3.972   3.515   0.860  0.5615 -0.2046 -0.2520
  280SOL    MW4 1244   4.016   3.440   0.863  0.1264 -0.4394  0.3846
  281SOL     OW 1245   3.028   3.681   0.599 -0.5854  0.0937 -0.6087
  281SOL    HW2 1246   2.994   3.594   0.621  0.9858 -0.4011 -0.0726
  281SOL    HW3 1247   3.002   3.736   0.673  0.0512 -0.3710 -0.0170
  281SOL    MW4 1248   3.020   3.677   0.612 -0.2940 -0.0329 -0.4598
  282SOL     OW 1249   3.227   2.216   0.859  0.1971 -0.7859 -0.0858
  282SOL    HW2 1250   3.193   2.127   0.867 -0.2205 -0.5241  1.1489
  282SOL    HW3 1251   3.237   2.247   0.949  0.6892  0.2866 -0.4891
  282SOL    MW4 1252   3.224   2.209   0.872  0.2067 -0.6099  0.0239
  283SOL     OW 1253   0.677   4.384   0.708  0.3507  0.0435 -0.1730
  283SOL    HW2 1254   0.590   4.350   0.731 -0.1693  1.0100 -0.6768
  283SOL    HW3 1255   0.685   4.465   0.759  1.1353 -0.2719  0.2017
  283SOL    MW4 1256   0.666   4.390   0.718  0.3856  0.1292 -0.1900
  284SOL     OW 1257   1.201   3.931   0.838  0.1341  0.3611  0.0094
  284SOL    HW2 1258   1.201   3.926   0.934 -0.6663  1.3484  0.0658
  284SOL    HW3 1259   1.180   3.842   0.810 -0.0623  0.1667  0.7496
  284SOL    MW4 1260   1.198   3.919   0.847  0.0026  0.4659  0.1145
  285SOL     OW 1261   3.025   2.460   0.446  0.0759 -0.3473  0.4577
  285SOL    HW2 1262   3.108   2.439   0.403 -0.9675 -0.5398 -1.5308
  285SOL    HW3 1263   3.039   2.439   0.538  1.9157 -1.2796 -0.0200
  285SOL    MW4 1264   3.038   2.455   0.452  0.1810 -0.4954  0.1323
  286SOL     OW 1265   0.261   1.573   0.835 -0.1888 -0.7708 -0.1450
  286SOL    HW2 1266   0.355   1.557   0.834 -0.5124 -2.7397  0.1471
  286SOL    HW3 1267   0.238   1.576   0.928 -0.3675  0.1094 -0.2076
  286SOL    MW4 1268   0.270   1.571   0.847 -0.2551 -0.9145 -0.1146
  287SOL     OW 1269   3.821   3.899   0.797  0.2276 -0.0677  0.4728
  287SOL    HW2 1270   3.812   3.877   0.890  0.2709  0.0964  0.5159
  287SOL    HW3 1271   3.912   3.927   0.788 -0.0947  1.0579  0.6209
  287SOL    MW4 1272   3.831   3.900   0.808  0.1907  0.1023  0.4981
  288SOL     OW 1273   0.030   1.960   1.140  0.6349  0.3142  0.3788
  288SOL    HW2 1274  -0.042   2.015   1.171  1.1435  0.8874  0.5549
  288SOL    HW3 1275   0.024   1.964   1.045  2.1440  2.6719  0.3441
  288SOL    MW4 1276   0.020   1.968   1.132  0.9012  0.7007  0.3974
  289SOL     OW 1277   3.562   1.703   0.361  0.3894  0.2727  0.1982
  289SOL    HW2 1278   3.600   1.779   0.317 -1.6708  0.5252 -1.2503
  289SOL    HW3 1279   3.476   1.733   0.390  0.1425 -1.0789  0.8814
  289SOL    MW4 1280   3.556   1.717   0.359  0.0849  0.1277  0.0972
  290SOL     OW 1281   3.144   3.393   0.838  0.6218 -0.0782  0.4458
  290SOL    HW2 1282   3.219   3.432   0.792  0.0992  1.1901  0.6346
  290SOL    HW3 1283   3.156   3.419   0.929 -1.0038  1.7050  0.1808
  290SOL    MW4 1284   3.156   3.402   0.844  0.3381  0.3245  0.4358
  291SOL     OW 1285   1.040   3.049   0.852  0.0345 -0.0467  0.3578
  291SOL    HW2 1286   1.077   3.054   0.940  0.3805 -0.5131  0.2436
  291SOL    HW3 1287   1.037   3.140   0.822 -0.6571  0.1722  1.0804
  291SOL    MW4 1288   1.045   3.062   0.859 -0.0111 -0.0794  0.4382
  292SOL     OW 1289   0.169   3.649   1.171  0.2922  0.4363  0.6013
  292SOL    HW2 1290   0.099   3.598   1.130  0.6817 -0.0690  0.5732
  292SOL    HW3 1291   0.171   3.620   1.262  1.1457 -0.2918  0.3623
  292SOL    MW4 1292   0.160   3.639   1.178  0.4562  0.2737  0.5661
  293SOL     OW 1293   1.594   2.281   0.358  0.0474  0.6931  0.4102
  293SOL    HW2 1294   1.527   2.216   0.336  0.1646  0.4022  0.8951
  293SOL    HW3 1295   1.551   2.365   0.347 -0.5262  0.4951  1.1334
  293SOL    MW4 1296   1.580   2.283   0.353 -0.0128  0.6285  0.5696
  294SOL     OW 1297   0.898   1.922   0.742  0.4643  0.5365 -0.3457
  294SOL    HW2 1298   0.891   1.934   0.837  0.6202  0.5327 -0.3334
  294SOL    HW3 1299   0.819   1.962   0.707 -0.7172 -1.4558 -0.0327
  294SOL    MW4 1300   0.887   1.929   0.750  0.3291  0.2732 -0.3028
  295SOL     OW 1301   0.916   1.050   0.337  0.0823  0.2190  0.6578
  295SOL    HW2 1302   0.859   1.122   0.310  0.2566  0.4896  1.0104
  295SOL    HW3 1303   0.886   0.976   0.285 -0.9799  0.2136  1.2669
  295SOL    MW4 1304   0.905   1.050   0.326 -0.0348  0.2539  0.7847
  296SOL     OW 1305   1.847   4.260   0.851  0.5490 -0.6608  0.0807
  296SOL    HW2 1306   1.760   4.299   0.845  0.5835 -0.4933  0.6027
  296SOL    HW3 1307   1.861   4.248   0.945  0.8829 -1.1522 -0.0308
  296SOL    MW4 1308   1.838   4.264   0.863  0.5976 -0.7038  0.1349
  297SOL     OW 1309   2.275   1.609   0.714  0.1619  0.1155 -0.1006
  297SOL    HW2 1310   2.270   1.697   0.752  1.6584 -0.5203  1.6818
  297SOL    HW3 1311   2.356   1.572   0.751  0.9964 -1.0276 -2.9709
  297SOL    MW4 1312   2.285   1.616   0.724  0.4692 -0.1193 -0.2441
  298SOL     OW 1313   1.782   2.753   0.841  0.2265 -0.0587  0.3662
  298SOL    HW2 1314   1.772   2.679   0.780 -0.6981  0.0979  0.3229
  298SOL    HW3 1315   1.784   2.712   0.927  1.2016 -0.2535  0.2598
  298SOL    MW4 1316   1.781   2.738   0.844  0.2333 -0.0634  0.3465
  299SOL     OW 1317   1.364   4.387   0.367  0.0215  0.4326 -0.6974
  299SOL    HW2 1318   1.367   4.479   0.340  2.5696  0.8755  0.8815
  299SOL    HW3 1319   1.435   4.345   0.318  1.2308  0.1348  1.2336
  299SOL    MW4 1320   1.374   4.394   0.357  0.5171  0.4516 -0.2343
  300SOL     OW 1321   1.512   0.158   0.513 -0.5135 -0.5130 -0.1635
  300SOL    HW2 1322   1.469   0.148   0.598  1.0101  0.8281  0.8036
  300SOL    HW3 1323   1.517   0.252   0.500  0.1828 -0.7007 -1.2663
  300SOL    MW4 1324   1.507   0.169   0.523 -0.2205 -0.3609 -0.1815
  301SOL     OW 1325   1.627   1.346   0.471  0.3012 -0.0380  0.2979
  301SOL    HW2 1326   1.717   1.364   0.444 -0.2111  1.9292 -0.2005
  301SOL    HW3 1327   1.584   1.317   0.391 -0.4540  2.8364 -0.4019
  301SOL    MW4 1328   1.633   1.344   0.457  0.1340  0.6007  0.1399
  302SOL     OW 1329   1.806   1.597   0.697 -0.0299 -0.2103 -0.1352
  302SOL    HW2 1330   1.890   1.554   0.718  0.7815  1.7452  0.7396
  302SOL    HW3 1331   1.812   1.682   0.739 -2.3227  0.1151 -0.4174
  302SOL    MW4 1332   1.818   1.602   0.706 -0.2253  0.0907 -0.0570
  303SOL     OW 1333   2.441   2.824   0.339  0.1396 -0.3083 -0.0436
  303SOL    HW2 1334   2.519   2.783   0.376 -0.5389 -1.1320  0.5128
  303SOL    HW3 1335   2.397   2.863   0.415  0.0699  0.2512 -0.3738
  303SOL    MW4 1336   2.446   2.824   0.354  0.0410 -0.3433 -0.0137
  304SOL     OW 1337   1.408   4.037   0.674 -0.0376  0.0316  0.1859
  304SOL    HW2 1338   1.368   4.058   0.590  0.4888 -2.4845 -0.7237
  304SOL    HW3 1339   1.338   3.994   0.724  0.5576 -1.4052 -0.1899
  304SOL    MW4 1340   1.393   4.034   0.670  0.1104 -0.4892  0.0163
  305SOL     OW 1341   0.426   1.317   0.656  0.3096  0.2317 -0.0059
  305SOL    HW2 1342   0.440   1.276   0.570  1.0583  0.3323  0.0651
  305SOL    HW3 1343   0.331   1.324   0.663  0.2131 -0.4513 -0.5104
  305SOL    MW4 1344   0.415   1.312   0.645  0.3957  0.1549 -0.0631
  306SOL     OW 1345   0.432   2.986   0.647 -0.1262  0.0819  0.1596
  306SOL    HW2 1346   0.341   2.980   0.617  0.8062 -1.0987 -2.6042
  306SOL    HW3 1347   0.449   3.080   0.654 -1.8997  0.2971  1.8343
  306SOL    MW4 1348   0.422   2.998   0.644 -0.2371 -0.0453  0.0159
  307SOL     OW 1349   2.132   1.551   0.373  0.2021 -0.0321 -0.4452
  307SOL    HW2 1350   2.101   1.604   0.300  1.9028 -1.6793 -2.4198
  307SOL    HW3 1351   2.185   1.611   0.426 -0.5643  1.0241 -0.8555
  307SOL    MW4 1352   2.135   1.566   0.371  0.3254 -0.1100 -0.7598
  308SOL     OW 1353   1.133   2.059   1.152  0.0303  0.0441 -0.8195
  308SOL    HW2 1354   1.117   2.051   1.246 -0.5358 -0.3883 -0.9480
  308SOL    HW3 1355   1.111   2.150   1.132 -2.2547 -0.5031 -0.9707
  308SOL    MW4 1356   1.128   2.070   1.162 -0.3458 -0.0851 -0.8563
  309SOL     OW 1357   0.009   0.385   0.829  0.3878 -0.3684  0.2408
  309SOL    HW2 1358   0.002   0.338   0.912 -0.0708  1.3306  1.1783
  309SOL    HW3 1359  -0.079   0.418   0.813  0.0174 -2.3081 -1.9100
  309SOL    MW4 1360  -0.004   0.383   0.838  0.2780 -0.4002  0.0808
  310SOL     OW 1361   0.315   2.279   0.815  0.8404  0.1669  0.2881
  310SOL    HW2 1362   0.279   2.300   0.901 -0.0915  1.6018 -0.4486
  310SOL    HW3 1363   0.409   2.297   0.824  0.7599  0.2554  1.0167
  310SOL    MW4 1364   0.323   2.284   0.828  0.7069  0.3679  0.2870
  311SOL     OW 1365   3.357   3.529   0.710 -0.4056 -0.5678 -0.7967
  311SOL    HW2 1366   3.340   3.485   0.627 -0.2989 -0.1859 -1.0226
  311SOL    HW3 1367   3.356   3.622   0.688 -0.6220 -0.4582 -0.3231
  311SOL    MW4 1368   3.355   3.536   0.696 -0.4203 -0.5031 -0.7640
  312SOL     OW 1369   1.814   3.222   1.152  0.0235  0.0715  0.2106
  312SOL    HW2 1370   1.740   3.172   1.116  0.6867 -0.7218 -0.0567
  312SOL    HW3 1371   1.799   3.221   1.247  0.5568 -1.4979  0.2954
  312SOL    MW4 1372   1.802   3.216   1.160  0.1814 -0.2406  0.1864
  313SOL     OW 1373   2.262   1.904   1.080  0.2437 -0.1213 -0.0717
  313SOL    HW2 1374   2.330   1.929   1.143 -0.1739 -1.2879  0.8561
  313SOL    HW3 1375   2.182   1.943   1.113  0.3012  0.5784 -0.7365
  313SOL    MW4 1376   2.261   1.913   1.093  0.1962 -0.1830 -0.0371
  314SOL     OW 1377   3.607   3.518   0.822 -0.4029 -0.5012 -0.4177
  314SOL    HW2 1378   3.517   3.545   0.803  0.3124  3.1788  0.9371
  314SOL    HW3 1379   3.609   3.509   0.918  0.6174 -0.7875 -0.4635
  314SOL    MW4 1380   3.595   3.521   0.832 -0.1740 -0.0529 -0.2450
  315SOL     OW 1381   1.895   1.386   0.389 -0.2057  0.1163 -0.4084
  315SOL    HW2 1382   1.978   1.434   0.384 -0.3615  0.7145  2.0222
  315SOL    HW3 1383   1.921   1.294   0.399  0.1256  0.0795 -1.5237
  315SOL    MW4 1384   1.909   1.380   0.390 -0.1824  0.1904 -0.2349
  316SOL     OW 1385   2.166   4.538   0.381  0.4410  0.1567 -0.0014
  316SOL    HW2 1386   2.114   4.598   0.329  0.7751  0.2630 -0.2114
  316SOL    HW3 1387   2.172   4.579   0.467 -0.3068 -0.1296  0.1905
  316SOL    MW4 1388   2.160   4.551   0.386  0.3862  0.1335 -0.0037
  317SOL     OW 1389   0.479   2.762   0.834 -0.0787  0.1978 -0.1455
  317SOL    HW2 1390   0.487   2.690   0.772 -1.1769 -0.2545  0.2269
  317SOL    HW3 1391   0.492   2.841   0.780 -0.7950 -0.1998 -0.9153
  317SOL    MW4 1392   0.482   2.763   0.819 -0.3181  0.0856 -0.1979
  318SOL     OW 1393   2.193   2.212   0.171  0.0863 -0.0044 -0.1760
  318SOL    HW2 1394   2.222   2.284   0.114 -0.8546  0.8318  0.3799
  318SOL    HW3 1395   2.264   2.200   0.233  0.7048 -0.2694 -0.9228
  318SOL    MW4 1396   2.206   2.220   0.171  0.0439  0.0706 -0.2012
  319SOL     OW 1397   3.585   1.562   0.128  0.1764  0.5478 -0.4587
  319SOL    HW2 1398   3.572   1.617   0.206  1.1861  1.5800 -0.9983
  319SOL    HW3 1399   3.599   1.624   0.057 -0.2325 -0.3989 -1.3801
  319SOL    MW4 1400   3.585   1.577   0.129  0.2556  0.5590 -0.6515
  320SOL     OW 1401   0.648   0.729   0.809  0.0580  0.4542  0.0550
  320SOL    HW2 1402   0.733   0.771   0.792  0.5506 -0.6171 -0.1611
  320SOL    HW3 1403   0.654   0.645   0.764 -0.4185 -0.4170  1.6016
  320SOL    MW4 1404   0.660   0.723   0.801  0.0600  0.1979  0.2306
  321SOL     OW 1405   1.738   2.413   0.077  0.1535 -0.1818  0.0676
  321SOL    HW2 1406   1.799   2.468   0.126 -0.1304 -0.3468  0.6059
  321SOL    HW3 1407   1.748   2.441  -0.014 -0.6598  1.4025  0.4484
  321SOL    MW4 1408   1.747   2.424   0.071  0.0088  0.0055  0.1888
  322SOL     OW 1409   0.260   4.479   0.730 -0.3955  0.0655 -0.3287
  322SOL    HW2 1410   0.298   4.512   0.648 -1.3678  1.2328 -0.3134
  322SOL    HW3 1411   0.172   4.451   0.706 -0.4798 -0.1259  0.2006
  322SOL    MW4 1412   0.254   4.479   0.716 -0.5349  0.1941 -0.2568
  323SOL     OW 1413   3.788   1.534   1.125 -0.3361  0.0634  0.4146
  323SOL    HW2 1414   3.869   1.564   1.167 -0.2402 -0.4235  0.5799
  323SOL    HW3 1415   3.808   1.534   1.032 -0.0718 -0.2660  0.4692
  323SOL    MW4 1416   3.802   1.538   1.118 -0.2885 -0.0442  0.4436
  324SOL     OW 1417   0.666   0.490   0.627  0.0584 -0.1742 -0.1205
  324SOL    HW2 1418   0.624   0.423   0.573  0.3885  0.2799 -0.9484
  324SOL    HW3 1419   0.724   0.537   0.566 -0.3002  0.9752  0.4059
  324SOL    MW4 1420   0.668   0.488   0.612  0.0545  0.0373 -0.1603
  325SOL     OW 1421   1.305   3.255   0.368  0.8825 -0.2051 -0.2293
  325SOL    HW2 1422   1.301   3.223   0.278  1.8223 -1.3310  0.1065
  325SOL    HW3 1423   1.271   3.344   0.364  1.0013 -0.2171 -1.7160
  325SOL    MW4 1424   1.300   3.262   0.356  1.0223 -0.3550 -0.3811
  326SOL     OW 1425   2.661   3.201   1.240 -0.8779  0.0915 -0.2344
  326SOL    HW2 1426   2.589   3.148   1.206 -0.3943 -0.3691 -0.5478
  326SOL    HW3 1427   2.738   3.168   1.195 -0.4579  0.5417  0.1497
  326SOL    MW4 1428   2.662   3.190   1.230 -0.7584  0.0901 -0.2251
  327SOL     OW 1429   2.046   2.894   0.792 -0.0807  0.1179 -0.1825
  327SOL    HW2 1430   1.956   2.860   0.794  0.0120 -0.1498 -0.4817
  327SOL    HW3 1431   2.098   2.826   0.835  0.2465 -0.5538 -1.6209
  327SOL    MW4 1432   2.041   2.881   0.798 -0.0255 -0.0057 -0.4117
  328SOL     OW 1433   3.140   0.349   0.617  0.3317  0.5669  0.2093
  328SOL    HW2 1434   3.104   0.411   0.555 -0.5267 -0.1357 -0.0047
  328SOL    HW3 1435   3.157   0.400   0.696 -0.5009  1.0411  0.0808
  328SOL    MW4 1436   3.138   0.364   0.619  0.1087  0.5367  0.1642
  329SOL     OW 1437   1.368   1.849   0.887 -0.1954 -0.0616 -0.6066
  329SOL    HW2 1438   1.289   1.885   0.847 -0.6248 -0.0661  0.2322
  329SOL    HW3 1439   1.439   1.880   0.831 -0.5726  1.9627  0.0026
  329SOL    MW4 1440   1.367   1.858   0.874 -0.3018  0.2048 -0.4155
  330SOL     OW 1441   1.091   2.351   1.091  0.1788 -0.2056  0.1093
  330SOL    HW2 1442   1.023   2.402   1.135  0.3559 -0.4733  0.6993
  330SOL    HW3 1443   1.172   2.381   1.132  0.3313 -0.5634  0.0629
  330SOL    MW4 1444   1.093   2.362   1.102  0.2223 -0.2882  0.1811
  331SOL     OW 1445   4.036   0.391   0.897  0.1763  0.0142  0.6829
  331SOL    HW2 1446   4.027   0.364   0.988  0.8066 -0.4287  0.6122
  331SOL    HW3 1447   4.028   0.310   0.846  0.0726  0.2250  0.3586
  331SOL    MW4 1448   4.033   0.377   0.902  0.2456 -0.0164  0.6307
  332SOL     OW 1449   2.277   1.313   0.363 -0.1535 -0.2919  0.4115
  332SOL    HW2 1450   2.338   1.312   0.290 -1.2062 -1.7400 -0.4763
  332SOL    HW3 1451   2.237   1.400   0.360 -1.8965 -1.1420 -2.2077
  332SOL    MW4 1452   2.280   1.324   0.353 -0.5224 -0.5952 -0.0513
  333SOL     OW 1453   2.935   3.413   0.671  0.1175 -0.0117  0.0128
  333SOL    HW2 1454   2.905   3.323   0.656 -0.2552  0.2356 -0.7239
  333SOL    HW3 1455   3.000   3.405   0.741 -3.3650 -0.3127  3.4100
  333SOL    MW4 1456   2.939   3.400   0.678 -0.3910 -0.0188  0.3638
  334SOL     OW 1457   3.811   3.080   1.121 -0.1672  0.3430  0.5701
  334SOL    HW2 1458   3.880   3.114   1.178  0.4966 -0.3350  0.1846
  334SOL    HW3 1459   3.826   3.124   1.038 -1.1727  1.3767  0.9287
  334SOL    MW4 1460   3.822   3.090   1.118 -0.2122  0.3898  0.5666
  335SOL     OW 1461   2.047   3.084   1.073  0.4256  0.0862  0.7947
  335SOL    HW2 1462   1.966   3.125   1.103  0.4727 -0.1921  1.3066
  335SOL    HW3 1463   2.041   2.994   1.104  0.6757 -0.0899  0.3426
  335SOL    MW4 1464   2.035   3.078   1.081  0.4644  0.0265  0.8025
  336SOL     OW 1465   1.322   1.131   1.101 -0.0107 -0.2623 -0.0720
  336SOL    HW2 1466   1.323   1.041   1.133  1.5387 -0.7995 -1.5267
  336SOL    HW3 1467   1.331   1.122   1.006  1.9015  1.4834 -0.0810
  336SOL    MW4 1468   1.323   1.118   1.092  0.4462 -0.1029 -0.2651
  337SOL     OW 1469   2.347   4.581   0.920  0.2577 -0.0377 -0.3873
  337SOL    HW2 1470   2.348   4.487   0.901  0.9400 -0.1512  0.2323
  337SOL    HW3 1471   2.397   4.590   1.001  0.4710  0.8990 -0.6223
  337SOL    MW4 1472   2.354   4.570   0.928  0.3755  0.0710 -0.3366
  338SOL     OW 1473   2.361   3.539   0.353 -0.0044  0.6950  0.1839
  338SOL    HW2 1474   2.423   3.478   0.314  0.0733 -0.2988  1.8139
  338SOL    HW3 1475   2.276   3.511   0.319  0.1965  0.6769 -0.3153
  338SOL    MW4 1476   2.358   3.527   0.343  0.0324  0.5615  0.3331
  339SOL     OW 1477   2.649   3.788   0.495 -0.4850  0.0128  0.1711
  339SOL    HW2 1478   2.712   3.790   0.423 -1.6559  1.9293 -0.8357
  339SOL    HW3 1479   2.566   3.813   0.455 -1.1335  1.2156  2.2106
  339SOL    MW4 1480   2.647   3.792   0.481 -0.7250  0.4244  0.3074
  340SOL     OW 1481   1.466   3.580   0.446  0.2276 -0.0758 -0.4357
  340SOL    HW2 1482   1.517   3.585   0.527  0.9647 -2.8434 -0.6598
  340SOL    HW3 1483   1.462   3.670   0.415  0.9581  0.8726  2.0457
  340SOL    MW4 1484   1.472   3.592   0.453  0.4213 -0.3159 -0.1379
  341SOL     OW 1485   0.282   3.858   0.781 -0.4594 -0.2404  0.1832
  341SOL    HW2 1486   0.334   3.903   0.714 -0.6030  0.4427  0.5375
  341SOL    HW3 1487   0.289   3.912   0.859 -0.2104 -1.0934  0.7598
  341SOL    MW4 1488   0.290   3.871   0.782 -0.4455 -0.2627  0.3060
  342SOL     OW 1489   1.104   4.392   0.766 -0.2139  0.1295 -0.6180
  342SOL    HW2 1490   1.107   4.405   0.671  1.8790  1.6066 -0.3851
  342SOL    HW3 1491   1.131   4.477   0.803 -0.0955 -0.7049  1.2885
  342SOL    MW4 1492   1.108   4.405   0.759  0.0778  0.2136 -0.3357
  343SOL     OW 1493   4.329   2.671   0.519  0.4008  0.3776  0.5489
  343SOL    HW2 1494   4.423   2.670   0.538  0.8006 -1.7284 -1.3331
  343SOL    HW3 1495   4.289   2.633   0.598  1.4097 -1.6092  0.1339
  343SOL    MW4 1496   4.336   2.666   0.532  0.5865 -0.1624  0.2458
  344SOL     OW 1497   4.169   2.358   0.836 -0.1198  0.2464  0.1344
  344SOL    HW2 1498   4.199   2.343   0.926 -0.3400 -0.6227  0.0678
  344SOL    HW3 1499   4.074   2.348   0.841 -0.0748 -0.4101 -0.3079
  344SOL    MW4 1500   4.161   2.355   0.849 -0.1431  0.0451  0.0672
  345SOL     OW 1501   3.844   1.061   0.510  0.1038  0.3821 -0.0172
  345SOL    HW2 1502   3.882   1.011   0.437 -0.5154  0.5138 -0.4318
  345SOL    HW3 1503   3.898   1.038   0.585  0.7417  0.2350 -0.5187
  345SOL    MW4 1504   3.856   1.051   0.511  0.1063  0.3802 -0.1381
  346SOL     OW 1505   4.144   0.661   0.483  0.1116  0.3658 -0.1346
  346SOL    HW2 1506   4.139   0.689   0.574 -0.1019  0.7684 -0.2714
  346SOL    HW3 1507   4.062   0.614   0.467  0.5848 -0.5858  0.1745
  346SOL    MW4 1508   4.133   0.659   0.493  0.1459  0.2934 -0.1119
  347SOL     OW 1509   1.391   0.150   0.775  0.0782  0.1436 -0.3471
  347SOL    HW2 1510   1.464   0.093   0.798 -0.9390 -1.0092  0.0085
  347SOL    HW3 1511   1.430   0.238   0.773  1.4628 -0.4486 -0.1148
  347SOL    MW4 1512   1.406   0.154   0.777  0.1267 -0.0866 -0.2695
  348SOL     OW 1513   0.161   2.932   0.527 -0.6408  0.0199  0.6561
  348SOL    HW2 1514   0.075   2.960   0.497 -0.0339  3.0136  1.5227
  348SOL    HW3 1515   0.148   2.842   0.556 -2.9003 -0.4111 -1.4915
  348SOL    MW4 1516   0.148   2.924   0.527 -0.8588  0.3579  0.4871
  349SOL     OW 1517   3.415   2.190   0.216  0.1068 -0.2794 -0.1856
  349SOL    HW2 1518   3.433   2.120   0.154  2.5230  0.4326 -0.3190
  349SOL    HW3 1519   3.492   2.192   0.273 -0.3137  1.7095  0.3451
  349SOL    MW4 1520   3.428   2.181   0.216  0.3700  0.0770 -0.1332
  350SOL     OW 1521   4.153   1.181   0.403  0.0612  0.4505 -0.3889
  350SOL    HW2 1522   4.060   1.196   0.386  0.1242 -0.4443 -1.6313
  350SOL    HW3 1523   4.164   1.086   0.394  1.1543  0.5894 -0.6098
  350SOL    MW4 1524   4.142   1.170   0.400  0.2141  0.3508 -0.5819
  351SOL     OW 1525   2.056   4.427   1.216 -0.2970 -0.1480 -0.0687
  351SOL    HW2 1526   2.004   4.353   1.185  0.6605 -0.9927  0.2918
  351SOL    HW3 1527   2.059   4.416   1.311 -0.2232  0.4075 -0.0052
  351SOL    MW4 1528   2.050   4.416   1.224 -0.1609 -0.1860 -0.0128
  352SOL     OW 1529   1.817   1.125   1.074 -0.1421  0.2272 -0.1827
  352SOL    HW2 1530   1.819   1.103   0.981  0.7186  1.1134 -0.3783
  352SOL    HW3 1531   1.748   1.190   1.083 -0.1640  0.2074 -0.2071
  352SOL    MW4 1532   1.808   1.130   1.063 -0.0315  0.3414 -0.2117
  353SOL     OW 1533   3.760   0.722   1.137  0.1536 -0.2500 -0.9472
  353SOL    HW2 1534   3.763   0.644   1.192  0.0438  0.0633 -0.4904
  353SOL    HW3 1535   3.849   0.756   1.139 -0.3415  1.0269  0.8984
  353SOL    MW4 1536   3.772   0.716   1.144  0.0739 -0.0402 -0.6434
  354SOL     OW 1537   2.534   3.283   0.741 -0.3890 -0.0587 -0.6198
  354SOL    HW2 1538   2.607   3.336   0.772  0.9033 -2.0491 -0.1934
  354SOL    HW3 1539   2.479   3.344   0.691  1.2284  1.5876 -0.4180
  354SOL    MW4 1540   2.536   3.298   0.738 -0.0052 -0.1042 -0.5370
  355SOL     OW 1541   3.336   0.762   0.720 -0.0055  0.6211 -0.2475
  355SOL    HW2 1542   3.273   0.831   0.742 -0.5790 -0.0169  0.1337
  355SOL    HW3 1543   3.352   0.716   0.802  0.2555  0.2046 -0.5262
  355SOL    MW4 1544   3.329   0.765   0.734 -0.0467  0.4820 -0.2339
  356SOL     OW 1545   2.272   1.877   0.797  0.1329 -0.0539  0.2460
  356SOL    HW2 1546   2.264   1.896   0.891 -0.2289  1.8875 -0.1561
  356SOL    HW3 1547   2.333   1.943   0.765 -0.1886 -0.3495 -0.9902
  356SOL    MW4 1548   2.279   1.888   0.805  0.0427  0.1632  0.0299
  357SOL     OW 1549   2.457   0.694   1.053  0.6376 -0.0696 -0.2579
  357SOL    HW2 1550   2.460   0.662   0.963  0.6835  0.7858 -0.5556
  357SOL    HW3 1551   2.479   0.617   1.106  0.0331 -0.7122 -0.9393
  357SOL    MW4 1552   2.460   0.679   1.048  0.5639 -0.0414 -0.3871
  358SOL     OW 1553   2.902   2.051   0.776  0.6088 -0.3718 -0.0518
  358SOL    HW2 1554   2.979   2.010   0.815  0.1050 -0.5892  0.7313
  358SOL    HW3 1555   2.898   2.137   0.818  0.0131 -0.6405  0.4490
  358SOL    MW4 1556   2.912   2.057   0.787  0.4640 -0.4361  0.1175
  359SOL     OW 1557   2.026   3.859   0.841  0.4206 -0.0994 -0.2049
  359SOL    HW2 1558   2.115   3.890   0.823 -0.2479  0.7203 -2.2427
  359SOL    HW3 1559   2.020   3.858   0.936  2.4398  0.3413 -0.0464
  359SOL    MW4 1560   2.037   3.863   0.851  0.5989  0.0670 -0.4529
  360SOL     OW 1561   2.172   0.039   0.629  0.2907 -0.1126 -0.7624
  360SOL    HW2 1562   2.129   0.101   0.571 -0.3236  0.2847  0.1054
  360SOL    HW3 1563   2.264   0.043   0.604  0.2747  1.2317 -0.6669
  360SOL    MW4 1564   2.179   0.048   0.618  0.2077  0.1172 -0.6353
  361SOL     OW 1565   3.688   1.925   0.239  0.2788 -0.2395 -0.2704
  361SOL    HW2 1566   3.773   1.895   0.206 -0.1048 -1.2908 -0.3013
  361SOL    HW3 1567   3.710   2.000   0.295  1.2131 -0.4160 -0.3839
  361SOL    MW4 1568   3.702   1.931   0.242  0.3517 -0.4016 -0.2894
  362SOL     OW 1569   1.652   1.996   0.242  0.9036 -0.3496  0.4250
  362SOL    HW2 1570   1.632   1.955   0.326 -1.3605 -0.9576 -0.3711
  362SOL    HW3 1571   1.586   1.960   0.182  0.3601  2.6532 -0.8396
  362SOL    MW4 1572   1.641   1.986   0.245  0.5332 -0.0336  0.1531
  363SOL     OW 1573   3.538   2.570   0.399  0.1688 -0.3126  0.3848
  363SOL    HW2 1574   3.455   2.523   0.390 -1.4649  2.4659  0.6595
  363SOL    HW3 1575   3.544   2.593   0.492  0.4313  0.9394  0.0692
  363SOL    MW4 1576   3.528   2.567   0.410 -0.0122  0.2191  0.3794
  364SOL     OW 1577   4.225   0.766   0.763 -0.0934 -0.0039 -0.2608
  364SOL    HW2 1578   4.155   0.829   0.748  0.3049  0.0999 -1.7962
  364SOL    HW3 1579   4.304   0.809   0.731  0.7688  0.0448  1.8354
  364SOL    MW4 1580   4.226   0.780   0.757  0.0730  0.0162 -0.1869
  365SOL     OW 1581   1.315   4.123   0.434 -0.5184 -0.1672 -0.2988
  365SOL    HW2 1582   1.222   4.101   0.428 -0.9374  0.7390  2.2668
  365SOL    HW3 1583   1.319   4.217   0.414 -0.3316  0.0788  0.8766
  365SOL    MW4 1584   1.303   4.132   0.430 -0.5492 -0.0153  0.1948
  366SOL     OW 1585   2.701   3.955   1.222  0.2501 -0.3242 -0.3282
  366SOL    HW2 1586   2.700   4.040   1.177  0.7843  0.5128  1.1922
  366SOL    HW3 1587   2.618   3.915   1.198 -0.2747  0.8912 -0.6119
  366SOL    MW4 1588   2.690   3.961   1.213  0.2513 -0.0534 -0.1650
  367SOL     OW 1589   4.204   0.914   0.345 -0.2622 -0.2959 -0.1832
  367SOL    HW2 1590   4.125   0.892   0.295 -0.6139 -0.4958  0.4444
  367SOL    HW3 1591   4.212   0.842   0.408 -1.0280  1.0042  1.4437
  367SOL    MW4 1592   4.195   0.901   0.347 -0.4096 -0.1507  0.1143
  368SOL     OW 1593   2.038   0.874   0.340  0.0311 -0.1411  0.1142
  368SOL    HW2 1594   2.011   0.870   0.249 -0.3908  0.5677  0.2127
  368SOL    HW3 1595   2.048   0.967   0.359 -0.2619 -0.2633  0.9043
  368SOL    MW4 1596   2.036   0.886   0.331 -0.0629 -0.0638  0.2315
  369SOL     OW 1597   1.782   3.719   0.507  0.3931 -0.1079  0.1441
  369SOL    HW2 1598   1.768   3.651   0.440 -1.4323  1.2269 -0.8933
  369SOL    HW3 1599   1.718   3.698   0.575 -0.6161  0.9005 -0.4708
  369SOL    MW4 1600   1.771   3.707   0.507  0.0191  0.2010 -0.0739
  370SOL     OW 1601   4.115   3.821   0.490  0.1595 -0.3651  0.3218
  370SOL    HW2 1602   4.044   3.757   0.491  0.4757 -0.7328  0.0097
  370SOL    HW3 1603   4.190   3.773   0.525  0.5619 -0.3652 -0.5237
  370SOL    MW4 1604   4.116   3.806   0.495  0.2542 -0.4134  0.1690
  371SOL     OW 1605   0.242   0.346   0.322  0.3241  0.1870 -0.1494
  371SOL    HW2 1606   0.326   0.378   0.289  0.5023  0.9098  0.9913
  371SOL    HW3 1607   0.195   0.425   0.349 -0.8627 -0.1820 -1.0764
  371SOL    MW4 1608   0.247   0.361   0.321  0.1910  0.2337 -0.1212
  372SOL     OW 1609   1.823   2.575   0.607 -0.4129  0.5931  0.0997
  372SOL    HW2 1610   1.792   2.485   0.605  2.2363 -0.3497 -0.4756
  372SOL    HW3 1611   1.828   2.602   0.515  2.2300  0.0547  0.0500
  372SOL    MW4 1612   1.820   2.567   0.595  0.2853  0.3977  0.0173
  373SOL     OW 1613   0.276   1.526   0.326 -0.2417  0.2087 -0.3275
  373SOL    HW2 1614   0.364   1.526   0.364  0.2745 -1.7733 -1.4345
  373SOL    HW3 1615   0.260   1.617   0.302  1.4114  0.6233  0.1081
  373SOL    MW4 1616   0.285   1.538   0.328  0.0445  0.0019 -0.4161
  374SOL     OW 1617   4.441   0.924   0.680 -0.3825 -0.3615 -0.4506
  374SOL    HW2 1618   4.522   0.890   0.718 -0.1613  2.4071  1.6857
  374SOL    HW3 1619   4.435   1.014   0.712 -3.3707  0.0884 -2.0856
  374SOL    MW4 1620   4.451   0.931   0.689 -0.7477  0.0632 -0.3844
  375SOL     OW 1621   2.004   4.345   0.514 -0.1081 -0.2400 -0.1878
  375SOL    HW2 1622   2.044   4.266   0.476  2.3763  0.5451  0.6881
  375SOL    HW3 1623   2.033   4.416   0.458 -0.8547  0.2727  0.0683
  375SOL    MW4 1624   2.013   4.344   0.502  0.1214 -0.0687 -0.0384
  376SOL     OW 1625   3.095   2.407   0.716 -0.1306  0.3001 -0.3107
  376SOL    HW2 1626   3.137   2.483   0.755 -0.4108 -0.3264  1.2463
  376SOL    HW3 1627   3.137   2.332   0.757  0.9054 -0.4271 -2.6251
  376SOL    MW4 1628   3.106   2.407   0.727 -0.0310  0.1216 -0.4107
  377SOL     OW 1629   2.463   4.346   0.634 -0.4159 -0.1314 -0.0607
  377SOL    HW2 1630   2.432   4.319   0.548 -0.5630 -0.7780  0.1953
  377SOL    HW3 1631   2.390   4.329   0.693  0.5722 -2.1306  0.6250
  377SOL    MW4 1632   2.449   4.341   0.631 -0.3047 -0.4807  0.0635
  378SOL     OW 1633   1.287   3.420   0.790 -0.7857 -0.2770 -0.5876
  378SOL    HW2 1634   1.271   3.513   0.771 -1.1084  0.0514  1.1360
  378SOL    HW3 1635   1.200   3.380   0.788 -0.7169 -0.4190 -0.7189
  378SOL    MW4 1636   1.274   3.427   0.787 -0.8191 -0.2527 -0.3775
  379SOL     OW 1637   2.049   3.607   1.195  0.6408  0.2579  0.0564
  379SOL    HW2 1638   1.971   3.565   1.158  1.3076 -0.6806 -0.3172
  379SOL    HW3 1639   2.036   3.602   1.289  0.5920 -0.5707  0.0107
  379SOL    MW4 1640   2.037   3.600   1.202  0.7224  0.0250  0.0010
  380SOL     OW 1641   4.276   3.181   0.869 -0.1155  0.5113  0.3964
  380SOL    HW2 1642   4.298   3.263   0.824  0.7655 -0.7935 -1.6498
  380SOL    HW3 1643   4.347   3.122   0.846 -1.3949 -1.2100  0.8084
  380SOL    MW4 1644   4.288   3.184   0.860 -0.1678  0.1121  0.1808
  381SOL     OW 1645   0.749   1.280   0.365  0.7585  0.3067  0.3641
  381SOL    HW2 1646   0.740   1.342   0.293  0.2573  0.4164  0.5189
  381SOL    HW3 1647   0.668   1.230   0.364  1.0504 -0.1687  0.4062
  381SOL    MW4 1648   0.737   1.282   0.356  0.7309  0.2584  0.3901
  382SOL     OW 1649   3.821   4.378   0.342 -0.1680 -0.0036  0.5041
  382SOL    HW2 1650   3.794   4.348   0.256  1.4797  1.8730 -0.7349
  382SOL    HW3 1651   3.740   4.399   0.388 -0.9631  1.9134 -1.7223
  382SOL    MW4 1652   3.807   4.377   0.337 -0.0556  0.4964  0.0469
  383SOL     OW 1653   2.679   2.419   1.227  0.0176  0.2646 -0.1310
  383SOL    HW2 1654   2.674   2.413   1.322 -1.6889  0.0181 -0.2288
  383SOL    HW3 1655   2.608   2.364   1.196  1.5322 -0.9133 -1.5874
  383SOL    MW4 1656   2.669   2.411   1.236 -0.0079  0.0770 -0.3362
  384SOL     OW 1657   2.244   2.699   1.595 -0.2753  0.4872 -0.2378
  384SOL    HW2 1658   2.231   2.689   1.690  0.0303 -0.2370 -0.2692
  384SOL    HW3 1659   2.163   2.740   1.564 -0.8371 -0.2901  0.1751
  384SOL    MW4 1660   2.231   2.703   1.604 -0.3092  0.2894 -0.1874
  385SOL     OW 1661   0.485   1.954   0.362 -0.0816 -0.2324  0.2401
  385SOL    HW2 1662   0.540   1.902   0.304  0.7176 -0.1735  0.9328
  385SOL    HW3 1663   0.528   2.040   0.366 -0.2698 -0.1579  0.7139
  385SOL    MW4 1664   0.498   1.958   0.355 -0.0010 -0.2149  0.3940
  386SOL     OW 1665   2.057   2.043   0.746  0.0456  0.2832 -0.0121
  386SOL    HW2 1666   2.124   1.976   0.758 -1.3203 -1.1401 -0.0897
  386SOL    HW3 1667   2.095   2.122   0.784  2.3156 -0.1278 -1.3604
  386SOL    MW4 1668   2.071   2.044   0.753  0.1650  0.0415 -0.2003
  387SOL     OW 1669   0.522   1.563   0.466 -0.1624  0.0771  0.6202
  387SOL    HW2 1670   0.581   1.501   0.509 -0.0839  0.3394  0.8909
  387SOL    HW3 1671   0.548   1.648   0.500 -0.6410  0.2013  0.6743
  387SOL    MW4 1672   0.533   1.566   0.476 -0.2153  0.1281  0.6630
  388SOL     OW 1673   3.485   4.260   0.305  0.2870 -0.0468  0.6129
  388SOL    HW2 1674   3.542   4.277   0.230  0.5091 -1.2556  0.4970
  388SOL    HW3 1675   3.528   4.188   0.352 -0.0508  0.4441  1.6828
  388SOL    MW4 1676   3.498   4.253   0.301  0.2718 -0.1416  0.7388
  389SOL     OW 1677   4.278   4.370   0.494  0.1819  0.0275  0.6460
  389SOL    HW2 1678   4.353   4.346   0.549 -0.0704 -0.5715  0.7419
  389SOL    HW3 1679   4.257   4.289   0.447  0.9256  0.7583 -0.9802
  389SOL    MW4 1680   4.285   4.356   0.495  0.2470  0.0448  0.4441
  390SOL     OW 1681   1.988   0.458   0.445  0.2026  0.0261 -0.1116
  390SOL    HW2 1682   1.987   0.456   0.540 -0.7703 -2.5465 -0.1297
  390SOL    HW3 1683   1.931   0.531   0.421 -1.6107 -0.9136  1.2590
  390SOL    MW4 1684   1.981   0.467   0.454 -0.1649 -0.4373  0.0668
  391SOL     OW 1685   1.945   2.075   0.152 -0.1195  0.5181  0.3958
  391SOL    HW2 1686   2.033   2.111   0.142  0.1076  0.5257  2.2436
  391SOL    HW3 1687   1.958   1.992   0.198 -1.0995  0.7167  1.0522
  391SOL    MW4 1688   1.959   2.069   0.157 -0.2189  0.5453  0.7262
  392SOL     OW 1689   3.921   3.620   0.503  0.2142  0.0539  0.4292
  392SOL    HW2 1690   3.892   3.626   0.594  0.0490  0.4227  0.3535
  392SOL    HW3 1691   3.967   3.536   0.498 -0.2812 -0.2358  0.7095
  392SOL    MW4 1692   3.923   3.610   0.515  0.1271  0.0641  0.4562
  393SOL     OW 1693   0.934   0.795   0.744 -0.0049 -0.2659  0.0426
  393SOL    HW2 1694   1.008   0.746   0.781 -0.6261 -0.3735  1.1462
  393SOL    HW3 1695   0.975   0.868   0.698  0.8828 -1.3216 -0.8653
  393SOL    MW4 1696   0.949   0.798   0.743  0.0302 -0.4193  0.0684
  394SOL     OW 1697   0.467   0.738   0.256  0.1237  0.0065 -0.0057
  394SOL    HW2 1698   0.429   0.779   0.178 -0.9796 -1.5281 -0.2930
  394SOL    HW3 1699   0.440   0.795   0.328 -0.2771  0.5185 -0.5487
  394SOL    MW4 1700   0.458   0.751   0.255 -0.0748 -0.1284 -0.1153
  395SOL     OW 1701   3.495   1.135   0.864 -0.0283 -0.6954 -0.0395
  395SOL    HW2 1702   3.525   1.223   0.843  0.5759 -1.0317 -0.6288
  395SOL    HW3 1703   3.509   1.126   0.958  1.1614 -0.6219 -0.2004
  395SOL    MW4 1704   3.501   1.145   0.874  0.2086 -0.7302 -0.1385
  396SOL     OW 1705   2.423   0.065   0.464  0.6196  0.5437 -1.1224
  396SOL    HW2 1706   2.417   0.023   0.378  0.0174 -0.9929 -0.3505
  396SOL    HW3 1707   2.487   0.011   0.512 -0.2998  0.4031 -0.0468
  396SOL    MW4 1708   2.431   0.052   0.459  0.4187  0.3225 -0.8786
  397SOL     OW 1709   1.618   4.191   0.393 -0.3749 -0.3197 -0.4308
  397SOL    HW2 1710   1.534   4.152   0.418 -0.3265 -0.5516 -0.6285
  397SOL    HW3 1711   1.682   4.121   0.407  0.0743  0.4688  1.6337
  397SOL    MW4 1712   1.616   4.176   0.398 -0.3091 -0.2460 -0.1845
  398SOL     OW 1713   3.855   1.486   0.148  0.0281  0.4549 -0.0100
  398SOL    HW2 1714   3.889   1.572   0.172 -0.1976  0.5379  0.0181
  398SOL    HW3 1715   3.760   1.498   0.147 -0.0462  0.0041  0.7953
  398SOL    MW4 1716   3.847   1.499   0.151 -0.0117  0.4064  0.0999
  399SOL     OW 1717   2.047   3.864   1.117  0.0220  0.5749  0.0518
  399SOL    HW2 1718   1.972   3.900   1.164 -1.2210  0.0717 -1.4807
  399SOL    HW3 1719   2.054   3.774   1.147  0.3694  0.7791  0.5985
  399SOL    MW4 1720   2.038   3.857   1.127 -0.0961  0.5357 -0.0784
  400SOL     OW 1721   0.938   4.012   0.764 -0.0622  0.0946 -0.5293
  400SOL    HW2 1722   1.027   3.991   0.791 -0.5910 -1.4876  0.0428
  400SOL    HW3 1723   0.923   4.100   0.798  1.5027  0.6481 -1.2060
  400SOL    MW4 1724   0.948   4.021   0.772  0.0745 -0.0415 -0.5431
  401SOL     OW 1725   1.810   1.936   1.089  0.0892 -0.1420 -0.7424
  401SOL    HW2 1726   1.735   1.984   1.122  0.2769  0.2111 -0.8277
  401SOL    HW3 1727   1.809   1.853   1.137 -1.1874 -0.7416 -1.7736
  401SOL    MW4 1728   1.800   1.931   1.100 -0.0545 -0.1745 -0.8898
  402SOL     OW 1729   4.224   2.631   0.786  0.4660  0.0204  0.2229
  402SOL    HW2 1730   4.207   2.539   0.804  0.2585 -0.2135 -1.0695
  402SOL    HW3 1731   4.139   2.674   0.799  0.1079 -0.2862 -0.9864
  402SOL    MW4 1732   4.210   2.624   0.790  0.3915 -0.0508 -0.1071
  403SOL     OW 1733   3.152   1.472   0.687 -0.4084 -0.3200  0.0395
  403SOL    HW2 1734   3.145   1.542   0.622 -0.6973 -0.0238  0.3925
  403SOL    HW3 1735   3.063   1.459   0.718 -0.3040 -0.6219  0.2118
  403SOL    MW4 1736   3.140   1.480   0.682 -0.4325 -0.3208  0.1088
  404SOL     OW 1737   4.056   4.527   0.574  0.2854  0.5216  0.3890
  404SOL    HW2 1738   4.129   4.481   0.532 -0.5283  0.1467 -0.6288
  404SOL    HW3 1739   3.983   4.516   0.514 -1.0567 -0.4785  2.1556
  404SOL    MW4 1740   4.056   4.519   0.561  0.0010  0.3405  0.4879
  405SOL     OW 1741   0.724   1.436   0.613 -0.1616  0.4776 -0.1187
  405SOL    HW2 1742   0.786   1.508   0.622 -0.4677  0.7870 -0.4974
  405SOL    HW3 1743   0.762   1.379   0.546  0.7428 -0.4049  1.1241
  405SOL    MW4 1744   0.737   1.438   0.605 -0.0827  0.4020 -0.0046
  406SOL     OW 1745   1.571   3.918   0.849 -0.2208 -0.3411 -0.0857
  406SOL    HW2 1746   1.654   3.961   0.828 -1.0132  2.1500  1.6604
  406SOL    HW3 1747   1.507   3.957   0.789 -0.5953 -0.4430  0.2426
  406SOL    MW4 1748   1.573   3.929   0.839 -0.3747 -0.0260  0.1880
  407SOL     OW 1749   2.274   0.474   0.458  0.4073 -0.0095 -0.4599
  407SOL    HW2 1750   2.298   0.566   0.446 -0.6875  0.5782  1.6678
  407SOL    HW3 1751   2.183   0.468   0.431 -0.0500 -0.0735  1.0251
  407SOL    MW4 1752   2.265   0.485   0.453  0.2027  0.0596  0.0168
  408SOL     OW 1753   0.706   1.543   0.236 -0.4957 -0.0921  0.8388
  408SOL    HW2 1754   0.628   1.532   0.292 -0.8815  0.6765  0.4555
  408SOL    HW3 1755   0.778   1.552   0.298 -0.8865  0.4915  1.2177
  408SOL    MW4 1756   0.705   1.543   0.252 -0.5982  0.0862  0.8382
  409SOL     OW 1757   3.402   3.967   0.842  0.3334  0.2003  0.6108
  409SOL    HW2 1758   3.434   3.913   0.914  0.9231  0.3055  0.4303
  409SOL    HW3 1759   3.481   4.007   0.805 -0.1533  1.8382  1.2608
  409SOL    MW4 1760   3.416   3.965   0.847  0.3469  0.4301  0.6728
  410SOL     OW 1761   1.378   1.752   0.331  0.1431  0.2755 -0.0185
  410SOL    HW2 1762   1.308   1.796   0.379 -0.0665 -0.2617  0.1690
  410SOL    HW3 1763   1.378   1.663   0.365  0.9936  0.3076  0.0645
  410SOL    MW4 1764   1.369   1.746   0.342  0.2277  0.2089  0.0172
  411SOL     OW 1765   0.878   0.102   0.814  0.1697 -0.3709 -0.7504
  411SOL    HW2 1766   0.859   0.196   0.809  0.2885 -0.3159 -0.2049
  411SOL    HW3 1767   0.791   0.062   0.821  0.1793 -0.2021  0.4609
  411SOL    MW4 1768   0.864   0.109   0.814  0.1866 -0.3414 -0.5186
  412SOL     OW 1769   3.852   3.195   0.884  0.3704  0.0277 -0.3291
  412SOL    HW2 1770   3.886   3.284   0.874 -1.1195  0.6440 -0.0819
  412SOL    HW3 1771   3.765   3.199   0.844  0.9368 -1.7445 -1.7863
  412SOL    MW4 1772   3.845   3.208   0.877  0.2487 -0.1249 -0.4888
  413SOL     OW 1773   2.081   2.548   0.707 -0.2973  0.5701  0.0681
  413SOL    HW2 1774   2.001   2.542   0.655 -0.4184  0.4229  0.2693
  413SOL    HW3 1775   2.088   2.462   0.749 -0.2988  0.7525  0.4390
  413SOL    MW4 1776   2.072   2.536   0.705 -0.3135  0.5746  0.1436
  414SOL     OW 1777   2.326   4.302   0.397 -0.2198 -0.2188  0.5594
  414SOL    HW2 1778   2.281   4.383   0.372  0.2222 -0.1127  0.0968
  414SOL    HW3 1779   2.258   4.235   0.398 -1.0376  0.5944  3.1541
  414SOL    MW4 1780   2.311   4.304   0.394 -0.2694 -0.0978  0.8407
  415SOL     OW 1781   3.700   4.244   0.103 -0.2242 -0.6193 -0.0394
  415SOL    HW2 1782   3.737   4.161   0.132  0.8536  0.0569  0.5705
  415SOL    HW3 1783   3.758   4.272   0.032 -0.8856 -0.6305 -0.5881
  415SOL    MW4 1784   3.713   4.237   0.097 -0.1693 -0.5317 -0.0313
  416SOL     OW 1785   2.004   0.509   1.187  0.4248  0.0213  0.0324
  416SOL    HW2 1786   2.002   0.493   1.281  0.2514 -0.1134  0.0063
  416SOL    HW3 1787   1.923   0.469   1.154  1.0428 -0.9711 -0.3366
  416SOL    MW4 1788   1.993   0.501   1.195  0.4833 -0.1274 -0.0197
  417SOL     OW 1789   0.411   3.612   0.799  0.1151  0.2162  0.3595
  417SOL    HW2 1790   0.369   3.698   0.802  0.2028  0.2700 -0.0271
  417SOL    HW3 1791   0.413   3.584   0.891  0.0772  0.6214  0.4853
  417SOL    MW4 1792   0.406   3.619   0.812  0.1217  0.2768  0.3251
  418SOL     OW 1793   2.819   2.265   0.409  0.4033 -0.0664 -0.3894
  418SOL    HW2 1794   2.754   2.325   0.446 -1.0617 -0.5069 -2.1351
  418SOL    HW3 1795   2.897   2.319   0.396 -0.2773  0.9870 -0.1504
  418SOL    MW4 1796   2.821   2.280   0.412  0.1202  0.0145 -0.5882
  419SOL     OW 1797   3.613   3.248   0.758 -0.4195  0.0368 -0.6138
  419SOL    HW2 1798   3.598   3.339   0.784 -1.8202 -0.1212 -0.8292
  419SOL    HW3 1799   3.546   3.198   0.805 -0.3753 -0.7476 -1.3737
  419SOL    MW4 1800   3.602   3.253   0.768 -0.5987 -0.0875 -0.7425
  420SOL     OW 1801   1.363   4.294   0.783 -0.3069  0.2836 -0.1091
  420SOL    HW2 1802   1.274   4.329   0.777 -0.9456 -0.8870  1.8782
  420SOL    HW3 1803   1.361   4.213   0.734 -0.4439  0.0728  0.2426
  420SOL    MW4 1804   1.351   4.288   0.776 -0.4092  0.1016  0.1995
  421SOL     OW 1805   2.041   0.453   0.720 -0.2240 -0.1258  0.1778
  421SOL    HW2 1806   2.130   0.425   0.741  0.1441  0.4399 -0.5770
  421SOL    HW3 1807   2.036   0.543   0.753 -0.6354 -0.2869  0.5518
  421SOL    MW4 1808   2.052   0.461   0.727 -0.2294 -0.0724  0.1276
  422SOL     OW 1809   3.690   2.171   0.391  0.1214 -0.3712 -0.1749
  422SOL    HW2 1810   3.615   2.193   0.447  0.1217  0.3058 -0.4244
  422SOL    HW3 1811   3.707   2.252   0.342  0.7944 -0.6272 -0.3738
  422SOL    MW4 1812   3.682   2.185   0.392  0.2100 -0.3157 -0.2341
  423SOL     OW 1813   2.473   2.255   1.136 -0.1388 -0.1222  0.2520
  423SOL    HW2 1814   2.474   2.166   1.169 -0.1536 -0.8581 -1.6983
  423SOL    HW3 1815   2.410   2.300   1.193 -0.8448 -1.5747  0.6437
  423SOL    MW4 1816   2.464   2.250   1.148 -0.2337 -0.4108  0.0464
  424SOL     OW 1817   0.250   2.414   0.572 -0.2306  0.2979  0.3143
  424SOL    HW2 1818   0.262   2.374   0.658  2.0222 -0.0007 -0.1012
  424SOL    HW3 1819   0.194   2.354   0.524 -0.0976 -0.3923  1.0205
  424SOL    MW4 1820   0.244   2.401   0.577  0.0842  0.1676  0.3527
  425SOL     OW 1821   4.012   2.700   1.102  0.8698 -0.2035  0.3974
  425SOL    HW2 1822   4.033   2.618   1.146  0.1484 -0.4913  0.2213
  425SOL    HW3 1823   3.929   2.728   1.142  0.4804 -0.1979 -0.4007
  425SOL    MW4 1824   4.004   2.693   1.113  0.7229 -0.2408  0.2689
  426SOL     OW 1825   2.044   1.475   0.787  0.0128 -0.7567 -0.3378
  426SOL    HW2 1826   2.043   1.470   0.883 -1.6117 -2.4904 -0.4145
  426SOL    HW3 1827   2.119   1.530   0.767 -0.5801  0.9744  1.9866
  426SOL    MW4 1828   2.054   1.482   0.797 -0.2797 -0.7571 -0.0412
  427SOL     OW 1829   0.945   1.609   0.395  0.0147  0.3061  0.3699
  427SOL    HW2 1830   0.916   1.625   0.485 -1.9089  0.6145 -0.2658
  427SOL    HW3 1831   1.002   1.682   0.374  1.0872 -0.1588  1.5799
  427SOL    MW4 1832   0.948   1.620   0.404 -0.0976  0.2855  0.4457
  428SOL     OW 1833   2.224   0.354   1.132  0.3162  0.1105  0.1605
  428SOL    HW2 1834   2.151   0.410   1.160 -0.1183 -0.4705  0.1945
  428SOL    HW3 1835   2.302   0.399   1.165 -0.1636 -0.3866  2.0683
  428SOL    MW4 1836   2.225   0.368   1.140  0.1957 -0.0318  0.4168
  429SOL     OW 1837   3.614   4.248   1.118  0.3704 -0.3309 -0.4648
  429SOL    HW2 1838   3.533   4.284   1.155 -0.3910 -1.0025 -1.4536
  429SOL    HW3 1839   3.615   4.157   1.149  1.2076 -0.0724  0.2797
  429SOL    MW4 1840   3.603   4.241   1.127  0.3803 -0.3848 -0.4971
  430SOL     OW 1841   2.721   1.647   0.747  0.1937  0.1167  0.4079
  430SOL    HW2 1842   2.702   1.724   0.801  1.2085  0.6957 -0.0481
  430SOL    HW3 1843   2.638   1.599   0.744 -0.4249  1.1427  0.7753
  430SOL    MW4 1844   2.708   1.651   0.753  0.2460  0.3284  0.3962
  431SOL     OW 1845   1.222   2.350   0.320 -0.2401  0.1619 -0.2817
  431SOL    HW2 1846   1.134   2.313   0.324  0.1174 -0.5016  1.6281
  431SOL    HW3 1847   1.219   2.426   0.378  0.8773 -0.8065  1.0793
  431SOL    MW4 1848   1.210   2.355   0.328 -0.0454 -0.0534  0.1498
  432SOL     OW 1849   3.754   0.106   0.745 -0.1256 -0.7011  0.6082
  432SOL    HW2 1850   3.693   0.162   0.793  0.2836 -0.2144  0.5742
  432SOL    HW3 1851   3.708   0.087   0.663 -0.8440 -1.5842  1.2150
  432SOL    MW4 1852   3.740   0.111   0.740 -0.1664 -0.7534  0.6837
  433SOL     OW 1853   0.030   0.156   0.678 -0.6315 -0.0568  0.1702
  433SOL    HW2 1854   0.010   0.241   0.717  1.0351  0.1734  0.5538
  433SOL    HW3 1855   0.048   0.175   0.586  1.0178  0.2027  0.5343
  433SOL    MW4 1856   0.030   0.169   0.671 -0.1940  0.0078  0.2688
  434SOL     OW 1857   3.023   3.781   0.338 -0.0260  0.9841 -0.1254
  434SOL    HW2 1858   3.019   3.744   0.427  1.4906 -0.7582 -0.7407
  434SOL    HW3 1859   3.047   3.872   0.352  0.5388  0.6518  1.2775
  434SOL    MW4 1860   3.026   3.788   0.352  0.2484  0.7105 -0.0215
  435SOL     OW 1861   1.524   0.704   0.393  0.2904 -0.3322 -0.3098
  435SOL    HW2 1862   1.507   0.622   0.440 -0.3780 -0.2531 -0.4122
  435SOL    HW3 1863   1.443   0.754   0.403  0.9448  0.6196  0.3640
  435SOL    MW4 1864   1.511   0.700   0.401  0.2885 -0.1962 -0.2345
  436SOL     OW 1865   3.776   2.807   1.212  0.0121  0.1703  0.1454
  436SOL    HW2 1866   3.748   2.814   1.304  1.8567  0.8941  0.6682
  436SOL    HW3 1867   3.782   2.898   1.182 -1.2822 -0.0719 -0.9440
  436SOL    MW4 1868   3.773   2.820   1.220  0.0844  0.2337  0.0706
  437SOL     OW 1869   4.406   1.160   0.796 -0.6021 -0.0856 -0.0654
  437SOL    HW2 1870   4.477   1.222   0.775 -1.3040  0.9613  0.6215
  437SOL    HW3 1871   4.413   1.147   0.890 -0.1447 -1.4623 -0.2761
  437SOL    MW4 1872   4.417   1.167   0.806 -0.6351 -0.1289 -0.0025
  438SOL     OW 1873   0.017   1.941   0.855  0.3926 -0.0071 -0.0490
  438SOL    HW2 1874   0.003   1.853   0.820  0.3667  0.1391 -0.4059
  438SOL    HW3 1875   0.052   1.991   0.782  2.7938 -0.3566  0.8185
  438SOL    MW4 1876   0.019   1.936   0.841  0.7062 -0.0339  0.0183
  439SOL     OW 1877   0.144   0.800   0.856  0.3071  0.1986  0.1551
  439SOL    HW2 1878   0.162   0.720   0.807 -0.6652  0.4647 -0.6635
  439SOL    HW3 1879   0.227   0.847   0.859  0.5988 -0.2889 -0.3863
  439SOL    MW4 1880   0.157   0.796   0.850  0.2173  0.1693 -0.0244
  440SOL     OW 1881   1.065   3.762   0.392 -0.4179 -0.1255  0.1519
  440SOL    HW2 1882   1.063   3.853   0.421  0.4319 -0.1414  0.2726
  440SOL    HW3 1883   1.006   3.716   0.451 -1.1442  0.4171 -0.1535
  440SOL    MW4 1884   1.057   3.768   0.403 -0.4016 -0.0563  0.1275
  441SOL     OW 1885   2.688   1.160   0.204 -0.2520 -0.4496 -0.0787
  441SOL    HW2 1886   2.709   1.145   0.112 -0.3000  0.8845 -0.3201
  441SOL    HW3 1887   2.768   1.196   0.242  0.1119 -1.9797  0.6730
  441SOL    MW4 1888   2.701   1.163   0.197 -0.2105 -0.4756 -0.0113
  442SOL     OW 1889   4.322   0.003   0.422 -0.1872  0.1337 -0.0233
  442SOL    HW2 1890   4.413   0.031   0.415 -0.0898 -0.6364 -2.6240
  442SOL    HW3 1891   4.324  -0.091   0.407 -1.2135 -0.2254  1.9480
  442SOL    MW4 1892   4.334  -0.006   0.419 -0.3095 -0.0148 -0.1063
  443SOL     OW 1893   1.828   0.332   0.838 -0.5842  0.3862  0.1478
  443SOL    HW2 1894   1.910   0.377   0.820 -0.6254  0.3524 -0.1358
  443SOL    HW3 1895   1.800   0.364   0.923 -1.3787  2.0277 -0.7056
  443SOL    MW4 1896   1.835   0.342   0.847 -0.6945  0.5983 -0.0022
  444SOL     OW 1897   0.797   3.435   0.882 -0.1929 -0.1807  0.5632
  444SOL    HW2 1898   0.745   3.358   0.860 -1.0890  0.7102 -0.5133
  444SOL    HW3 1899   0.742   3.509   0.857  2.2853  0.7956 -2.2717
  444SOL    MW4 1900   0.783   3.435   0.876  0.0159  0.0656  0.0471
  445SOL     OW 1901   1.729   2.323   0.588  0.0642 -0.1348  0.2779
  445SOL    HW2 1902   1.679   2.306   0.509 -0.3964  0.2415  0.4869
  445SOL    HW3 1903   1.672   2.296   0.660 -0.0186  0.7194  0.5344
  445SOL    MW4 1904   1.715   2.317   0.587 -0.0074  0.0277  0.3394
  446SOL     OW 1905   1.209   1.106   0.337  0.1431 -0.0830  0.4084
  446SOL    HW2 1906   1.164   1.190   0.345  0.1702  0.0309 -0.5617
  446SOL    HW3 1907   1.140   1.045   0.311  0.1420 -0.3435  1.0176
  446SOL    MW4 1908   1.194   1.109   0.335  0.1464 -0.1024  0.3607
  447SOL     OW 1909   1.339   2.445   1.182 -0.1553  0.4215 -0.1196
  447SOL    HW2 1910   1.350   2.446   1.277  0.8590 -0.6200 -0.2060
  447SOL    HW3 1911   1.417   2.399   1.150 -0.7287  0.3369 -1.4189
  447SOL    MW4 1912   1.351   2.439   1.190 -0.0972  0.2728 -0.3023
  448SOL     OW 1913   1.567   1.959   0.719 -0.0981  0.1118 -0.0592
  448SOL    HW2 1914   1.563   1.928   0.629 -0.7350  1.2131 -0.4246
  448SOL    HW3 1915   1.651   1.926   0.752  0.0467 -0.4666 -0.9859
  448SOL    MW4 1916   1.577   1.951   0.712 -0.1630  0.1808 -0.2298
  449SOL     OW 1917   3.118   1.622   0.466  0.0296 -0.1225 -0.4181
  449SOL    HW2 1918   3.139   1.553   0.402 -0.8757 -0.7821 -0.0151
  449SOL    HW3 1919   3.023   1.631   0.460  0.0559  0.5110  0.1368
  449SOL    MW4 1920   3.108   1.614   0.457 -0.0863 -0.1259 -0.2917
  450SOL     OW 1921   3.380   4.337   1.234 -0.4066  0.2230  0.7203
  450SOL    HW2 1922   3.369   4.429   1.210 -0.1558  0.3850  1.2381
  450SOL    HW3 1923   3.318   4.290   1.178  0.4460  0.5681 -0.5426
  450SOL    MW4 1924   3.371   4.343   1.223 -0.2611  0.2899  0.6219
  451SOL     OW 1925   0.053   1.484   0.497 -0.3311  0.2045 -0.5836
  451SOL    HW2 1926   0.119   1.504   0.430  0.9302 -0.8784  0.3076
  451SOL    HW3 1927  -0.017   1.441   0.450  0.8988 -1.2599 -1.1022
  451SOL    MW4 1928   0.053   1.481   0.482 -0.0025 -0.1316 -0.5345
  452SOL     OW 1929   2.377   1.698   0.473 -0.7455 -0.5864  0.3350
  452SOL    HW2 1930   2.366   1.652   0.557 -1.1019 -0.6578  0.2488
  452SOL    HW3 1931   2.393   1.789   0.498  0.8286 -0.9068  0.5361
  452SOL    MW4 1932   2.378   1.704   0.488 -0.5846 -0.6380  0.3501
  453SOL     OW 1933   2.699   2.718   0.885 -0.1275  0.2539  0.2016
  453SOL    HW2 1934   2.790   2.738   0.861 -0.4014 -0.7472 -1.6708
  453SOL    HW3 1935   2.703   2.702   0.980  1.5970  0.4500  0.1800
  453SOL    MW4 1936   2.712   2.719   0.895  0.0637  0.1478 -0.0483
  454SOL     OW 1937   3.618   4.076   0.735 -0.1209  0.4284  0.5499
  454SOL    HW2 1938   3.682   4.008   0.758 -0.9641 -0.7032 -0.3775
  454SOL    HW3 1939   3.664   4.158   0.752  1.2963 -0.3669  0.6938
  454SOL    MW4 1940   3.633   4.078   0.740 -0.0453  0.1740  0.4466
  455SOL     OW 1941   1.470   1.257   0.268  0.0487  0.0850  0.5829
  455SOL    HW2 1942   1.393   1.201   0.259  1.0801 -1.1135 -1.0779
  455SOL    HW3 1943   1.464   1.318   0.194  0.9754 -0.3472  0.1588
  455SOL    MW4 1944   1.459   1.258   0.257  0.3071 -0.1301  0.3079
  456SOL     OW 1945   2.643   2.110   0.236  0.2473  0.3278 -0.2279
  456SOL    HW2 1946   2.558   2.145   0.265  0.4068  1.7547 -1.4355
  456SOL    HW3 1947   2.707   2.172   0.271  0.7533 -0.4012  0.1436
  456SOL    MW4 1948   2.640   2.123   0.245  0.3352  0.4201 -0.3382
  457SOL     OW 1949   3.572   1.389   0.796  0.1439  0.1334 -0.0501
  457SOL    HW2 1950   3.570   1.407   0.702  1.7356  1.2056  0.1085
  457SOL    HW3 1951   3.493   1.433   0.830 -0.8772 -0.9516 -0.9847
  457SOL    MW4 1952   3.561   1.397   0.788  0.2193  0.1317 -0.1525
  458SOL     OW 1953   3.174   1.137   0.409  0.2038 -0.2480  0.5626
  458SOL    HW2 1954   3.132   1.112   0.491  0.8759  0.4746  1.1325
  458SOL    HW3 1955   3.223   1.059   0.383  0.4220 -0.3048  1.1328
  458SOL    MW4 1956   3.175   1.123   0.417  0.3214 -0.1601  0.7130
  459SOL     OW 1957   1.157   3.672   0.713  0.6086 -0.0765  0.6660
  459SOL    HW2 1958   1.184   3.708   0.628 -0.4182  0.5563  0.6000
  459SOL    HW3 1959   1.066   3.644   0.700  0.7739 -0.9146  1.2771
  459SOL    MW4 1960   1.149   3.673   0.700  0.4950 -0.1037  0.7380
  460SOL     OW 1961   1.052   0.465   0.169 -0.2641 -0.1826 -0.1593
  460SOL    HW2 1962   1.037   0.371   0.177  1.6809 -0.5936 -1.0336
  460SOL    HW3 1963   0.966   0.501   0.147 -1.0147 -1.7659  0.0921
  460SOL    MW4 1964   1.039   0.457   0.167 -0.1065 -0.4457 -0.2415
  461SOL     OW 1965   1.802   3.478   0.803 -0.2196 -0.0118 -0.1241
  461SOL    HW2 1966   1.795   3.480   0.898 -1.0625 -0.2822 -0.1726
  461SOL    HW3 1967   1.893   3.499   0.785  0.6387 -2.7001  0.8398
  461SOL    MW4 1968   1.813   3.481   0.813 -0.2176 -0.4020 -0.0033
  462SOL     OW 1969   2.893   2.309   0.871  0.1729  0.5425 -0.2475
  462SOL    HW2 1970   2.917   2.304   0.964 -0.5339  1.0444 -0.0293
  462SOL    HW3 1971   2.964   2.357   0.830  0.4608  0.3692  0.0444
  462SOL    MW4 1972   2.905   2.315   0.878  0.1175  0.5858 -0.1802
  463SOL     OW 1973   3.305   3.364   0.478 -0.6625  0.3357 -0.0165
  463SOL    HW2 1974   3.393   3.342   0.446 -0.6086 -1.0023  0.9880
  463SOL    HW3 1975   3.265   3.411   0.405  0.6568  0.3850 -0.7439
  463SOL    MW4 1976   3.312   3.367   0.464 -0.4814  0.1657  0.0201
  464SOL     OW 1977   3.116   0.344   1.152 -0.0147 -0.0568 -0.2580
  464SOL    HW2 1978   3.115   0.252   1.177  1.2339 -0.4088 -1.4592
  464SOL    HW3 1979   3.034   0.379   1.187 -0.1400 -1.4366  0.8702
  464SOL    MW4 1980   3.105   0.337   1.160  0.1335 -0.2853 -0.2676
  465SOL     OW 1981   1.943   2.264   0.399 -0.2601 -0.0344 -0.0600
  465SOL    HW2 1982   2.003   2.189   0.395  1.5860  1.2280  2.2907
  465SOL    HW3 1983   1.910   2.264   0.489  0.0601  2.1263  0.1033
  465SOL    MW4 1984   1.947   2.255   0.411  0.0257  0.4170  0.2717
  466SOL     OW 1985   1.829   3.993   0.450  0.1822  0.3054 -0.0973
  466SOL    HW2 1986   1.833   4.017   0.543  0.6864  1.1566 -0.3276
  466SOL    HW3 1987   1.813   3.899   0.450 -0.4736  0.4046  0.8499
  466SOL    MW4 1988   1.827   3.984   0.462  0.1621  0.4306 -0.0027
  467SOL     OW 1989   2.963   0.797   0.606  0.5291  0.0625 -0.4402
  467SOL    HW2 1990   2.880   0.808   0.560  0.8769 -0.6136 -1.2383
  467SOL    HW3 1991   2.941   0.750   0.686  0.0159  0.6551 -0.2344
  467SOL    MW4 1992   2.949   0.792   0.610  0.5071  0.0516 -0.5183
  468SOL     OW 1993   3.359   0.617   0.952 -0.2911  0.2261 -0.0009
  468SOL    HW2 1994   3.352   0.666   1.034 -0.3612  0.0181  0.1165
  468SOL    HW3 1995   3.452   0.595   0.945 -0.5010 -0.9517  0.7178
  468SOL    MW4 1996   3.370   0.620   0.962 -0.3278  0.0433  0.1094
  469SOL     OW 1997   0.513   0.467   0.275  0.5984 -0.3550  0.6695
  469SOL    HW2 1998   0.600   0.461   0.237  1.4726  0.7515  2.4230
  469SOL    HW3 1999   0.492   0.561   0.273 -1.5841 -0.8322 -1.9351
  469SOL    MW4 2000   0.522   0.479   0.270  0.4258 -0.2719  0.5572
  470SOL     OW 2001   3.457   2.854   0.337  0.4398 -0.1423  0.2385
  470SOL    HW2 2002   3.383   2.845   0.396  0.1645 -1.3875 -0.2921
  470SOL    HW3 2003   3.500   2.768   0.338  0.2934 -0.2647 -1.5368
  470SOL    MW4 2004   3.453   2.841   0.345  0.3839 -0.3228 -0.0657
  471SOL     OW 2005   3.587   3.291   0.483  0.0975  0.5390 -0.3840
  471SOL    HW2 2006   3.604   3.258   0.571  0.0845 -0.2775 -0.6820
  471SOL    HW3 2007   3.596   3.214   0.427 -2.1431  0.5659 -0.8314
  471SOL    MW4 2008   3.591   3.276   0.487 -0.1996  0.4349 -0.4824
  472SOL     OW 2009   3.661   3.560   0.398  0.0613  0.0415 -0.0843
  472SOL    HW2 2010   3.653   3.468   0.421  0.1090 -0.1392 -0.7839
  472SOL    HW3 2011   3.752   3.582   0.419  0.5810 -0.5544 -1.6103
  472SOL    MW4 2012   3.672   3.551   0.404  0.1361 -0.0613 -0.3780
  473SOL     OW 2013   3.889   4.149   0.463  0.2629 -0.5510 -0.0284
  473SOL    HW2 2014   3.799   4.115   0.463  0.0713 -0.0569 -0.7340
  473SOL    HW3 2015   3.883   4.231   0.415  0.8301  0.2265  1.2310
  473SOL    MW4 2016   3.876   4.155   0.456  0.3126 -0.3834  0.0447
  474SOL     OW 2017   0.654   2.344   1.066  0.1970  0.5635  0.1174
  474SOL    HW2 2018   0.591   2.401   1.109  0.4565  1.0816 -0.1904
  474SOL    HW3 2019   0.656   2.265   1.121 -0.8117  0.4841  0.0636
  474SOL    MW4 2020   0.646   2.341   1.079  0.0982  0.6211  0.0696
  475SOL     OW 2021   4.239   1.552   1.102  0.2868  0.2231 -0.1053
  475SOL    HW2 2022   4.241   1.456   1.097 -0.9013  0.1582  0.4721
  475SOL    HW3 2023   4.256   1.581   1.013  1.2120 -0.5129 -0.1790
  475SOL    MW4 2024   4.242   1.543   1.090  0.2522  0.1175 -0.0389
  476SOL     OW 2025   2.733   1.896   0.370  0.0242 -0.1955 -0.2873
  476SOL    HW2 2026   2.797   1.943   0.423 -0.4156 -1.0916  1.0439
  476SOL    HW3 2027   2.697   1.964   0.312  1.4307  0.5222 -0.3610
  476SOL    MW4 2028   2.737   1.912   0.369  0.1521 -0.2190 -0.1214
  477SOL     OW 2029   0.628   2.435   0.428 -0.2165 -0.3564  0.7096
  477SOL    HW2 2030   0.622   2.497   0.355 -0.8667 -0.1807  0.9057
  477SOL    HW3 2031   0.600   2.485   0.504 -0.4379 -0.8011  0.9223
  477SOL    MW4 2032   0.623   2.450   0.428 -0.3314 -0.3917  0.7636
  478SOL     OW 2033   3.698   4.330   0.854 -0.9823  0.0142  0.4379
  478SOL    HW2 2034   3.667   4.290   0.935 -0.7957  0.7531  0.8769
  478SOL    HW3 2035   3.627   4.388   0.828 -0.5690  0.6364  0.6846
  478SOL    MW4 2036   3.684   4.332   0.861 -0.9034  0.1936  0.5284
  479SOL     OW 2037   1.227   0.390   0.529  0.6385 -0.2993 -0.0724
  479SOL    HW2 2038   1.174   0.462   0.493 -0.9675 -0.6445  1.5390
  479SOL    HW3 2039   1.206   0.388   0.622  1.6241 -2.0478  0.1431
  479SOL    MW4 2040   1.217   0.399   0.536  0.5566 -0.5755  0.1686
  480SOL     OW 2041   0.740   0.095   0.351  0.1163 -0.2439  0.4560
  480SOL    HW2 2042   0.674   0.027   0.337  0.0554 -0.4659  1.7655
  480SOL    HW3 2043   0.798   0.058   0.417  0.1790  0.9327  1.0623
  480SOL    MW4 2044   0.739   0.081   0.358  0.1166 -0.1180  0.7087
  481SOL     OW 2045   1.626   4.390   0.754 -0.5465 -0.1620  0.0140
  481SOL    HW2 2046   1.642   4.387   0.660 -0.3706  2.4365 -0.0627
  481SOL    HW3 2047   1.540   4.351   0.766 -0.2685 -1.1396 -1.1379
  481SOL    MW4 2048   1.617   4.384   0.743 -0.4866  0.0520 -0.1481
  482SOL     OW 2049   3.864   2.319   0.871 -0.3054  0.1504 -0.3874
  482SOL    HW2 2050   3.785   2.372   0.864  0.3487  1.0295 -1.3189
  482SOL    HW3 2051   3.856   2.254   0.801 -0.3987 -0.0211 -0.2171
  482SOL    MW4 2052   3.853   2.318   0.861 -0.2313  0.2437 -0.4879
  483SOL     OW 2053   0.194   0.034   0.864  0.0019  0.7172 -0.3375
  483SOL    HW2 2054   0.230  -0.045   0.823 -1.8794 -0.3652  0.0376
  483SOL    HW3 2055   0.143   0.075   0.795 -0.2622  0.7945 -0.0959
  483SOL    MW4 2056   0.192   0.029   0.850 -0.2812  0.5846 -0.2561
  484SOL     OW 2057   2.327   3.461   0.618 -0.2600  0.4631 -0.2834
  484SOL    HW2 2058   2.323   3.466   0.522  0.5704  0.1313 -0.3379
  484SOL    HW3 2059   2.266   3.390   0.640 -0.3343  0.4344 -0.5743
  484SOL    MW4 2060   2.318   3.452   0.608 -0.1600  0.4156 -0.3290
  485SOL     OW 2061   3.299   0.673   0.445  0.8887 -0.2422  0.2488
  485SOL    HW2 2062   3.297   0.686   0.540 -0.0461 -0.6850  0.2957
  485SOL    HW3 2063   3.211   0.642   0.424  0.8353  0.6565 -0.8743
  485SOL    MW4 2064   3.287   0.671   0.455  0.7582 -0.1820  0.1068
  486SOL     OW 2065   2.902   0.053   0.878  0.2079 -0.1132 -0.2448
  486SOL    HW2 2066   2.983   0.074   0.831  1.3524 -1.5134  1.0391
  486SOL    HW3 2067   2.867  -0.023   0.832  0.7868 -0.8454  0.4980
  486SOL    MW4 2068   2.908   0.046   0.866  0.4354 -0.3945  0.0226
  487SOL     OW 2069   1.282   0.361   1.059  0.5558  0.5090  0.5539
  487SOL    HW2 2070   1.207   0.383   1.115 -0.4704  0.5581 -0.8090
  487SOL    HW3 2071   1.315   0.279   1.095 -0.9125 -0.1501  0.4499
  487SOL    MW4 2072   1.276   0.353   1.072  0.2269  0.4286  0.3603
  488SOL     OW 2073   4.221   1.642   0.829  0.0380  0.2537  0.4634
  488SOL    HW2 2074   4.178   1.559   0.808  0.0862  0.1861  0.6252
  488SOL    HW3 2075   4.287   1.653   0.761 -0.8798  0.8418 -0.3353
  488SOL    MW4 2076   4.224   1.632   0.817 -0.0763  0.3223  0.3793
  489SOL     OW 2077   1.765   2.675   0.332  0.3175 -0.3266  0.2588
  489SOL    HW2 2078   1.803   2.760   0.353 -0.4640  0.2724 -0.6779
  489SOL    HW3 2079   1.835   2.627   0.287  1.1810 -0.6804  1.9509
  489SOL    MW4 2080   1.779   2.680   0.329  0.3283 -0.2942  0.3585
  490SOL     OW 2081   4.021   3.216   1.264  0.4999  0.1826  0.0503
  490SOL    HW2 2082   4.036   3.215   1.359 -1.0484  0.7132  0.3182
  490SOL    HW3 2083   4.031   3.307   1.238 -0.5921  0.2972 -0.0196
  490SOL    MW4 2084   4.024   3.228   1.273  0.1512  0.2677  0.0764
  491SOL     OW 2085   4.417   4.655   1.262  0.0255 -0.2062 -0.2306
  491SOL    HW2 2086   4.506   4.648   1.227  0.3041  0.5577  0.3106
  491SOL    HW3 2087   4.383   4.566   1.260  0.5736 -0.3980 -1.0512
  491SOL    MW4 2088   4.424   4.643   1.257  0.1345 -0.1306 -0.2675
  492SOL     OW 2089   0.168   4.650   1.144  0.2255 -0.9293  0.4691
  492SOL    HW2 2090   0.160   4.679   1.054 -1.1335  0.7812  1.1062
  492SOL    HW3 2091   0.245   4.695   1.178 -0.2792 -0.1996  0.6573
  492SOL    MW4 2092   0.177   4.660   1.137 -0.0204 -0.6073  0.5780
  493SOL     OW 2093   0.167   0.453   1.175  0.2727 -0.6856 -0.2455
  493SOL    HW2 2094   0.157   0.540   1.137  2.0576 -1.5656 -2.8772
  493SOL    HW3 2095   0.085   0.408   1.156 -1.2340  0.7902  2.3712
  493SOL    MW4 2096   0.155   0.459   1.168  0.3094 -0.6070 -0.2475
  494SOL     OW 2097   4.438   0.846   1.218 -0.4287 -0.4173  0.0812
  494SOL    HW2 2098   4.460   0.872   1.308 -0.8458 -0.2602  0.1354
  494SOL    HW3 2099   4.513   0.793   1.190  1.0231  1.8809 -0.4779
  494SOL    MW4 2100   4.451   0.842   1.226 -0.2923 -0.0933  0.0147
  495SOL     OW 2101   2.478   1.198   0.506  0.1100 -0.3471  0.0698
  495SOL    HW2 2102   2.557   1.250   0.489 -0.3879  1.6106  3.4032
  495SOL    HW3 2103   2.413   1.233   0.446  0.7590  0.4792 -0.1619
  495SOL    MW4 2104   2.480   1.209   0.496  0.1299  0.0201  0.4791
  496SOL     OW 2105   4.233   0.760   1.061  0.2381 -0.2406 -0.0898
  496SOL    HW2 2106   4.253   0.753   0.967  1.3374 -0.1627  0.1261
  496SOL    HW3 2107   4.307   0.810   1.097 -0.0361 -0.5167  0.8614
  496SOL    MW4 2108   4.246   0.766   1.053  0.3467 -0.2668  0.0641
  497SOL     OW 2109   4.444   1.114   1.077  0.2517 -0.0300  0.8634
  497SOL    HW2 2110   4.385   1.163   1.133  0.2772  0.1088  0.7714
  497SOL    HW3 2111   4.441   1.024   1.110  1.3516  0.3225  1.9958
  497SOL    MW4 2112   4.436   1.109   1.088  0.3996  0.0348  1.0006
  498SOL     OW 2113   0.155   1.276   1.162 -0.0049  0.3078  0.4595
  498SOL    HW2 2114   0.242   1.240   1.147 -0.1573  0.8255 -1.8156
  498SOL    HW3 2115   0.097   1.223   1.106 -1.2487 -0.4035  2.3660
  498SOL    MW4 2116   0.159   1.264   1.152 -0.1891  0.2822  0.4109
  499SOL     OW 2117   3.306   2.399   0.374  0.0409  0.2455  0.6341
  499SOL    HW2 2118   3.332   2.345   0.299  1.0574  1.7846 -0.1528
  499SOL    HW3 2119   3.331   2.347   0.450 -0.1554 -0.9420 -0.0869
  499SOL    MW4 2120   3.313   2.385   0.374  0.1488  0.2921  0.4352
  500SOL     OW 2121   4.446   1.702   1.239  0.1654  0.1581 -0.4646
  500SOL    HW2 2122   4.370   1.667   1.193  0.3506 -0.4998 -0.2680
  500SOL    HW3 2123   4.458   1.790   1.202 -1.3102  0.6632  0.2107
  500SOL    MW4 2124   4.438   1.709   1.228 -0.0048  0.1379 -0.3495
  501SOL     OW 2125   3.774   0.786   0.848 -0.0270  0.0432  0.0556
  501SOL    HW2 2126   3.693   0.819   0.810  0.3537  2.5873  1.2967
  501SOL    HW3 2127   3.749   0.759   0.937  0.1911 -0.4814 -0.0445
  501SOL    MW4 2128   3.760   0.787   0.855  0.0517  0.3096  0.2062
  502SOL     OW 2129   0.267   2.079   1.195 -0.4524  0.0994 -0.4483
  502SOL    HW2 2130   0.255   2.171   1.171 -0.4105  0.9095  2.3996
  502SOL    HW3 2131   0.184   2.038   1.174 -1.0860  1.1890 -0.1270
  502SOL    MW4 2132   0.255   2.086   1.189 -0.5305  0.3500 -0.0302
  503SOL     OW 2133   0.224   2.332   1.087 -0.2775 -0.2157 -0.6524
  503SOL    HW2 2134   0.286   2.396   1.122  0.2695 -0.5165 -1.0850
  503SOL    HW3 2135   0.141   2.355   1.130  0.2094 -0.0694  0.2261
  503SOL    MW4 2136   0.221   2.344   1.097 -0.1411 -0.2360 -0.5937
  504SOL     OW 2137   4.488   2.452   1.226 -0.0493  0.1099  0.0694
  504SOL    HW2 2138   4.486   2.544   1.199 -1.3935  0.0617 -0.0123
  504SOL    HW3 2139   4.494   2.455   1.321 -0.7217  0.2801  0.1064
  504SOL    MW4 2140   4.488   2.465   1.235 -0.3153  0.1259  0.0635
  505SOL     OW 2141   0.161   2.926   1.160 -0.2118 -0.0166 -0.5174
  505SOL    HW2 2142   0.094   2.858   1.157 -0.4018  0.0681  1.3261
  505SOL    HW3 2143   0.200   2.918   1.247  1.4247  0.6591 -1.1492
  505SOL    MW4 2144   0.158   2.916   1.171 -0.0209  0.0834 -0.3576
  506SOL     OW 2145   2.447   3.821   0.312  0.4483 -0.2832 -0.3845
  506SOL    HW2 2146   2.427   3.728   0.306 -0.1518 -0.1017 -1.1793
  506SOL    HW3 2147   2.480   3.844   0.225 -0.5696  0.5196 -0.5630
  506SOL    MW4 2148   2.449   3.812   0.300  0.2348 -0.1535 -0.5129
  507SOL     OW 2149   0.195   3.167   1.034  0.6816 -0.5743  0.0107
  507SOL    HW2 2150   0.262   3.208   1.088  1.0992 -1.7450  0.3835
  507SOL    HW3 2151   0.196   3.075   1.059 -0.8646 -0.6604 -0.1888
  507SOL    MW4 2152   0.204   3.161   1.044  0.5327 -0.7401  0.0335
  508SOL     OW 2153   4.460   3.277   1.205 -0.0427  0.2351  0.2261
  508SOL    HW2 2154   4.389   3.215   1.187  0.3405  0.3768 -2.0309
  508SOL    HW3 2155   4.537   3.238   1.161  0.4538  1.7320 -0.2567
  508SOL    MW4 2156   4.461   3.263   1.197  0.0730  0.4513 -0.1353
  509SOL     OW 2157   4.472   3.513   1.017 -0.3622 -0.2344  0.1720
  509SOL    HW2 2158   4.475   3.425   1.054 -0.0134  0.1214  1.0050
  509SOL    HW3 2159   4.518   3.506   0.934 -0.7348 -0.9365  0.0216
  509SOL    MW4 2160   4.478   3.501   1.011 -0.3654 -0.2801  0.2620
  510SOL     OW 2161   0.241   3.909   1.079  0.6531  0.0628  0.3816
  510SOL    HW2 2162   0.204   3.821   1.090  1.1598 -0.0725  1.0323
  510SOL    HW3 2163   0.191   3.964   1.139 -0.1664  0.3779 -0.5632
  510SOL    MW4 2164   0.229   3.905   1.088  0.6118  0.0865  0.3427
  511SOL     OW 2165   3.406   0.029   0.869  0.7009  0.2939 -0.0581
  511SOL    HW2 2166   3.435   0.120   0.879  1.0283 -0.0454  2.4191
  511SOL    HW3 2167   3.385   0.001   0.958  3.6946 -3.0635 -0.3083
  511SOL    MW4 2168   3.407   0.038   0.883  1.1392 -0.1939  0.2357
  512SOL     OW 2169   0.058   4.036   1.252 -0.0972 -0.3545 -0.8212
  512SOL    HW2 2170   0.053   4.024   1.346 -0.8061  1.0373 -0.6652
  512SOL    HW3 2171  -0.016   3.986   1.217 -0.5990  0.1833 -0.5320
  512SOL    MW4 2172   0.048   4.028   1.260 -0.2569 -0.1001 -0.7625
  513SOL     OW 2173   0.021   4.255   1.083 -0.8136 -0.5650 -0.0053
  513SOL    HW2 2174   0.106   4.296   1.097 -0.7665 -0.4636 -0.5660
  513SOL    HW3 2175   0.018   4.183   1.146 -1.0429  0.5081  1.2202
  513SOL    MW4 2176   0.032   4.251   1.093 -0.8376 -0.4101  0.0824
  514SOL     OW 2177   0.264   4.398   1.172 -0.1020 -0.1784  0.0611
  514SOL    HW2 2178   0.257   4.387   1.267 -1.0202 -0.7904 -0.0712
  514SOL    HW3 2179   0.241   4.490   1.157  0.1909 -0.0412  0.4463
  514SOL    MW4 2180   0.260   4.409   1.183 -0.1845 -0.2408  0.0944
  515SOL     OW 2181   0.618   4.633   1.127  0.2574  0.1225 -0.5502
  515SOL    HW2 2182   0.629   4.538   1.129  0.0180  0.1102  0.8889
  515SOL    HW3 2183   0.706   4.667   1.143 -0.1153  0.1053  1.6691
  515SOL    MW4 2184   0.631   4.625   1.129  0.1766  0.1183 -0.0674
  516SOL     OW 2185   0.406   0.104   1.255  0.1225  0.2040 -0.1334
  516SOL    HW2 2186   0.416   0.184   1.204  0.1470  0.1056 -0.2838
  516SOL    HW3 2187   0.482   0.051   1.231  0.2703  0.2667  0.2033
  516SOL    MW4 2188   0.417   0.107   1.245  0.1453  0.1993 -0.1088
  517SOL     OW 2189   0.407   0.344   1.108 -0.3073 -0.3655  0.1841
  517SOL    HW2 2190   0.402   0.314   1.018  1.8335 -0.3862  0.0455
  517SOL    HW3 2191   0.321   0.380   1.127 -0.8969 -0.7575 -1.7237
  517SOL    MW4 2192   0.395   0.345   1.099 -0.1026 -0.4199 -0.0859
  518SOL     OW 2193   0.596   0.507   1.201  0.7381  0.0733 -0.0027
  518SOL    HW2 2194   0.608   0.594   1.163  1.1316  0.9836  2.1482
  518SOL    HW3 2195   0.522   0.469   1.152  1.0375  1.3125 -1.4444
  518SOL    MW4 2196   0.588   0.513   1.190  0.8295  0.3569  0.0907
  519SOL     OW 2197   0.635   0.760   1.086  0.0003  0.0136  0.1530
  519SOL    HW2 2198   0.560   0.809   1.119  0.8333  0.0493  2.0534
  519SOL    HW3 2199   0.619   0.752   0.992 -2.1705  0.3812  0.4673
  519SOL    MW4 2200   0.623   0.765   1.078 -0.1762  0.0668  0.4451
  520SOL     OW 2201   0.395   0.873   1.195 -0.1532  0.0226 -0.0302
  520SOL    HW2 2202   0.410   0.888   1.288 -0.1723  1.3664 -0.2347
  520SOL    HW3 2203   0.401   0.960   1.155 -1.3191 -0.3736 -1.1152
  520SOL    MW4 2204   0.398   0.887   1.202 -0.3095  0.1476 -0.2004
  521SOL     OW 2205   0.397   1.155   1.101  0.3327  0.5338  0.0513
  521SOL    HW2 2206   0.431   1.142   1.012  0.9682 -1.5934  0.5557
  521SOL    HW3 2207   0.475   1.164   1.155 -0.0527  1.7289  0.4053
  521SOL    MW4 2208   0.412   1.154   1.096  0.3657  0.4109  0.1644
  522SOL     OW 2209   0.652   1.237   1.209  0.3401 -0.1241 -0.6881
  522SOL    HW2 2210   0.727   1.206   1.157 -0.7367  0.1161 -2.4249
  522SOL    HW3 2211   0.630   1.322   1.171  0.3882  0.6873  1.0743
  522SOL    MW4 2212   0.659   1.244   1.197  0.2044  0.0145 -0.6849
  523SOL     OW 2213   0.582   1.499   1.090  0.6029  0.2155  0.0145
  523SOL    HW2 2214   0.655   1.550   1.127  0.4064 -1.1753  2.4317
  523SOL    HW3 2215   0.504   1.536   1.131  0.1919 -0.0808 -0.4998
  523SOL    MW4 2216   0.582   1.511   1.100  0.5227 -0.0070  0.2656
  524SOL     OW 2217   0.407   1.695   1.212 -0.6219  0.1799 -0.0580
  524SOL    HW2 2218   0.400   1.669   1.304 -0.8730 -0.3293 -0.2163
  524SOL    HW3 2219   0.319   1.679   1.176 -0.6023  0.6547 -0.3121
  524SOL    MW4 2220   0.394   1.689   1.219 -0.6525  0.1752 -0.1124
  525SOL     OW 2221   0.470   1.939   1.063  0.0264 -0.6173 -0.4364
  525SOL    HW2 2222   0.449   1.860   1.113 -1.4358 -1.3518 -2.1689
  525SOL    HW3 2223   0.399   2.000   1.085  0.2539 -0.3707 -0.3846
  525SOL    MW4 2224   0.458   1.936   1.073 -0.1365 -0.6816 -0.6582
  526SOL     OW 2225   0.870   1.940   1.050  0.2565 -0.2438  0.2696
  526SOL    HW2 2226   0.803   2.005   1.072 -0.3795 -1.2129  1.2409
  526SOL    HW3 2227   0.949   1.971   1.095  0.7376  1.3887 -1.6154
  526SOL    MW4 2228   0.872   1.953   1.059  0.2361 -0.1563  0.1491
  527SOL     OW 2229   0.640   2.095   1.217 -0.2397  0.0689 -0.0351
  527SOL    HW2 2230   0.576   2.034   1.181  1.7509 -1.6945 -0.6946
  527SOL    HW3 2231   0.635   2.083   1.312 -0.4496 -0.5090 -0.1203
  527SOL    MW4 2232   0.631   2.086   1.225 -0.0048 -0.2403 -0.1334
  528SOL     OW 2233   0.445   2.481   1.191  0.5129 -0.5671 -0.1390
  528SOL    HW2 2234   0.429   2.475   1.286 -1.2902 -0.8107 -0.4308
  528SOL    HW3 2235   0.431   2.573   1.171 -0.5284 -0.7773 -0.3967
  528SOL    MW4 2236   0.441   2.492   1.201  0.1377 -0.6268 -0.2116
  529SOL     OW 2237   0.622   2.873   1.197  0.2123  0.2210 -0.0511
  529SOL    HW2 2238   0.554   2.815   1.161  0.0205  0.7899 -0.6015
  529SOL    HW3 2239   0.593   2.961   1.175  1.0784  0.4775 -0.1834
  529SOL    MW4 2240   0.609   2.877   1.189  0.3013  0.3302 -0.1413
  530SOL     OW 2241   1.175   1.976   0.710 -0.1827 -0.3090  0.0430
  530SOL    HW2 2242   1.081   1.960   0.720 -0.1920 -0.1702  0.1841
  530SOL    HW3 2243   1.181   2.070   0.695 -0.0892 -0.3628 -0.2650
  530SOL    MW4 2244   1.163   1.986   0.709 -0.1717 -0.2978  0.0210
  531SOL     OW 2245   0.611   3.153   1.134  0.2387  0.2730 -0.2573
  531SOL    HW2 2246   0.688   3.187   1.179 -0.5581  1.8700 -0.0805
  531SOL    HW3 2247   0.620   3.184   1.044  0.0171  0.1157 -0.3345
  531SOL    MW4 2248   0.623   3.162   1.128  0.1043  0.4630 -0.2443
  532SOL     OW 2249   0.377   3.284   1.216  0.5504 -0.4337  0.3122
  532SOL    HW2 2250   0.386   3.373   1.182 -0.4459 -0.0817  0.9233
  532SOL    HW3 2251   0.453   3.237   1.183  0.3198  0.2649 -1.2246
  532SOL    MW4 2252   0.388   3.289   1.207  0.3885 -0.2952  0.1900
  533SOL     OW 2253   0.402   3.534   1.081 -0.3830  0.2658 -0.2360
  533SOL    HW2 2254   0.330   3.577   1.127 -0.7670 -1.8454  1.2022
  533SOL    HW3 2255   0.480   3.560   1.128 -0.4685  0.4818 -0.2125
  533SOL    MW4 2256   0.403   3.543   1.093 -0.4449  0.0155 -0.0432
  534SOL     OW 2257   0.672   3.580   1.208  0.1233 -0.7032 -0.1527
  534SOL    HW2 2258   0.758   3.542   1.190 -0.2195 -1.7710  0.4630
  534SOL    HW3 2259   0.667   3.587   1.303  0.3376  1.2847 -0.2542
  534SOL    MW4 2260   0.683   3.576   1.218  0.1063 -0.5817 -0.0849
  535SOL     OW 2261   0.671   3.838   1.105  0.3606 -0.3868  0.1922
  535SOL    HW2 2262   0.623   3.887   1.172 -1.8883 -1.0219 -0.8808
  535SOL    HW3 2263   0.682   3.750   1.143 -0.1393 -0.4942  0.0971
  535SOL    MW4 2264   0.666   3.833   1.119 -0.0021 -0.4845  0.0381
  536SOL     OW 2265   0.462   3.989   1.232 -0.1621  0.4966  0.9817
  536SOL    HW2 2266   0.470   4.078   1.199  0.1895  0.7111  1.6324
  536SOL    HW3 2267   0.394   3.949   1.178  1.3623  0.4035 -0.9417
  536SOL    MW4 2268   0.454   3.995   1.221  0.0854  0.5126  0.8138
  537SOL     OW 2269   0.450   4.236   1.079 -0.1488  0.5279 -0.4062
  537SOL    HW2 2270   0.534   4.279   1.096  0.2783 -0.4767  0.0660
  537SOL    HW3 2271   0.385   4.292   1.120  0.3432  1.0379 -0.3230
  537SOL    MW4 2272   0.452   4.249   1.087 -0.0276  0.4625 -0.3330
  538SOL     OW 2273   0.679   4.354   1.158  0.3156  0.1518 -0.0089
  538SOL    HW2 2274   0.669   4.356   1.253  1.2516  1.3418  0.0685
  538SOL    HW3 2275   0.769   4.325   1.143  0.6159  1.3386 -0.5139
  538SOL    MW4 2276   0.690   4.350   1.168  0.4788  0.4649 -0.0653
  539SOL     OW 2277   1.110   4.628   1.128 -0.0334  0.3315  0.0515
  539SOL    HW2 2278   1.113   4.624   1.033 -2.6615  0.6872 -0.0697
  539SOL    HW3 2279   1.139   4.541   1.156  1.9920  0.6236 -0.9944
  539SOL    MW4 2280   1.114   4.616   1.119 -0.1128  0.4168 -0.1023
  540SOL     OW 2281   0.854   0.119   1.194  0.0821  0.3408 -0.2914
  540SOL    HW2 2282   0.852   0.109   1.289 -1.3490  2.4873 -0.0640
  540SOL    HW3 2283   0.937   0.080   1.168 -0.2330 -1.7199  1.6431
  540SOL    MW4 2284   0.865   0.113   1.203 -0.1484  0.3521 -0.0061
  541SOL     OW 2285   0.818   0.382   1.102  0.3367  0.2995  0.0708
  541SOL    HW2 2286   0.818   0.287   1.117  1.5055  0.6199  2.3544
  541SOL    HW3 2287   0.732   0.411   1.133  0.4058  0.1337  0.4184
  541SOL    MW4 2288   0.806   0.373   1.108  0.5000  0.3199  0.4181
  542SOL     OW 2289   1.067   0.480   1.192 -0.1608  0.1165  0.2470
  542SOL    HW2 2290   1.092   0.462   1.282  0.0666  2.0526  0.6069
  542SOL    HW3 2291   0.977   0.448   1.185 -1.4125  2.9360  2.1993
  542SOL    MW4 2292   1.058   0.474   1.203 -0.2959  0.7439  0.5519
  543SOL     OW 2293   1.115   0.741   1.157  0.1807 -0.0982  0.0712
  543SOL    HW2 2294   1.036   0.793   1.170 -0.2927 -0.8160  0.0821
  543SOL    HW3 2295   1.089   0.652   1.178  0.3972 -0.7045 -2.1268
  543SOL    MW4 2296   1.101   0.737   1.162  0.1467 -0.2729 -0.2174
  544SOL     OW 2297   0.868   0.880   1.186  0.3821 -0.3172 -0.2416
  544SOL    HW2 2298   0.873   0.963   1.139  0.3349  0.5417  1.2401
  544SOL    HW3 2299   0.790   0.837   1.149 -0.5233  1.0019  0.0701
  544SOL    MW4 2300   0.858   0.886   1.175  0.2564 -0.0299 -0.0049
  545SOL     OW 2301   0.856   1.111   1.047  0.3061  0.2883 -0.2706
  545SOL    HW2 2302   0.847   1.121   0.952  0.7161 -0.9086 -0.4439
  545SOL    HW3 2303   0.942   1.149   1.067  0.1683  0.6485 -0.3554
  545SOL    MW4 2304   0.866   1.118   1.037  0.3420  0.1777 -0.3048
  546SOL     OW 2305   1.084   1.265   1.133 -0.5526 -0.1641  0.1471
  546SOL    HW2 2306   1.070   1.253   1.227  0.1611  0.1135  0.2934
  546SOL    HW3 2307   1.164   1.215   1.114  0.1302  0.9613 -0.0249
  546SOL    MW4 2308   1.093   1.257   1.143 -0.3682  0.0209  0.1436
  547SOL     OW 2309   1.778   2.666   1.108  0.0828 -0.6118 -0.1872
  547SOL    HW2 2310   1.693   2.706   1.126  0.0859  0.0918 -1.6536
  547SOL    HW3 2311   1.768   2.575   1.135 -0.2492  0.1258  2.2344
  547SOL    MW4 2312   1.765   2.659   1.114  0.0397 -0.4215 -0.0610
  548SOL     OW 2313   0.795   1.645   1.203 -0.0892  0.3107  0.1066
  548SOL    HW2 2314   0.809   1.734   1.172 -0.5511  0.4245  0.2200
  548SOL    HW3 2315   0.828   1.645   1.293 -0.7025  0.5455  0.3336
  548SOL    MW4 2316   0.801   1.656   1.211 -0.2311  0.3567  0.1516
  549SOL     OW 2317   0.903   1.641   0.669  0.0615 -0.2360  0.2030
  549SOL    HW2 2318   0.971   1.610   0.729 -1.1544  1.5355  2.6297
  549SOL    HW3 2319   0.879   1.728   0.704 -2.0276  0.0158 -1.7471
  549SOL    MW4 2320   0.909   1.649   0.682 -0.3746  0.0309  0.2658
  550SOL     OW 2321   4.481   2.725   0.843  0.3994  0.5963  0.1609
  550SOL    HW2 2322   4.386   2.712   0.839  0.4901 -0.1533  0.3405
  550SOL    HW3 2323   4.491   2.820   0.853 -0.3688  0.6048  1.0579
  550SOL    MW4 2324   4.469   2.736   0.844  0.3104  0.4985  0.3030
  551SOL     OW 2325   1.302   2.690   1.062 -0.2768 -0.1118  0.0304
  551SOL    HW2 2326   1.232   2.736   1.109 -0.9454 -1.6058  0.5145
  551SOL    HW3 2327   1.310   2.606   1.107  0.4868 -0.7327 -1.2512
  551SOL    MW4 2328   1.294   2.685   1.074 -0.2643 -0.3905 -0.0747
  552SOL     OW 2329   0.859   2.489   1.189  0.1773  0.5100 -0.3610
  552SOL    HW2 2330   0.845   2.461   1.279  0.5410  1.0189 -0.1406
  552SOL    HW3 2331   0.792   2.443   1.138  0.4778 -0.3946  0.0535
  552SOL    MW4 2332   0.849   2.480   1.194  0.2649  0.4582 -0.2772
  553SOL     OW 2333   0.842   2.762   1.103  0.3292  0.1417 -0.1226
  553SOL    HW2 2334   0.834   2.673   1.137 -1.5522  0.2056 -0.3181
  553SOL    HW3 2335   0.762   2.806   1.132  1.2728  1.8039  0.0481
  553SOL    MW4 2336   0.830   2.756   1.112  0.2055  0.3693 -0.1259
  554SOL     OW 2337   1.278   2.651   0.793 -0.1870  0.0499 -0.4086
  554SOL    HW2 2338   1.285   2.679   0.884  0.4631 -1.4760  0.0080
  554SOL    HW3 2339   1.187   2.623   0.783 -0.2656  0.2465 -0.2565
  554SOL    MW4 2340   1.267   2.651   0.804 -0.1115 -0.1256 -0.3335
  555SOL     OW 2341   1.166   3.018   0.470 -0.3289  0.0101  0.1961
  555SOL    HW2 2342   1.209   2.977   0.545 -1.6337 -1.9477 -0.1069
  555SOL    HW3 2343   1.228   3.086   0.441  2.0065 -1.9241  0.5094
  555SOL    MW4 2344   1.180   3.022   0.476 -0.1929 -0.5035  0.1974
  556SOL     OW 2345   0.840   3.223   1.264  0.0713  0.0777  0.0415
  556SOL    HW2 2346   0.858   3.226   1.358  0.6915 -0.4507 -0.0636
  556SOL    HW3 2347   0.917   3.182   1.226  0.3284  1.3197 -0.8276
  556SOL    MW4 2348   0.852   3.218   1.271  0.1871  0.1719 -0.0869
  557SOL     OW 2349   1.158   3.630   1.192 -0.2295 -0.1514  0.6399
  557SOL    HW2 2350   1.076   3.586   1.169 -0.5948  0.6523  0.4127
  557SOL    HW3 2351   1.226   3.569   1.164 -0.7358 -0.5082  0.1788
  557SOL    MW4 2352   1.156   3.616   1.185 -0.3446 -0.0930  0.5490
  558SOL     OW 2353   1.362   3.460   1.068 -0.3615 -0.2046 -0.2254
  558SOL    HW2 2354   1.439   3.515   1.079  0.5128 -1.5454  0.5500
  558SOL    HW3 2355   1.361   3.438   0.975  0.3539 -0.3809 -0.1967
  558SOL    MW4 2356   1.372   3.464   1.057 -0.1516 -0.4048 -0.1194
  559SOL     OW 2357   1.399   4.018   1.219  0.2241 -0.2347 -0.2719
  559SOL    HW2 2358   1.386   4.097   1.167 -0.2401 -0.1275  0.0083
  559SOL    HW3 2359   1.327   3.960   1.193  0.3469 -0.4197 -0.2004
  559SOL    MW4 2360   1.388   4.021   1.209  0.1791 -0.2456 -0.2253
  560SOL     OW 2361   0.908   3.994   1.190  0.0434 -0.5367 -0.6288
  560SOL    HW2 2362   0.909   3.987   1.285 -0.1586  2.1774 -0.3682
  560SOL    HW3 2363   0.822   3.962   1.164 -0.4063 -0.0640  0.2522
  560SOL    MW4 2364   0.897   3.989   1.199 -0.0426 -0.1161 -0.4780
  561SOL     OW 2365   0.947   4.269   1.109  0.1491 -0.2331 -0.2065
  561SOL    HW2 2366   0.939   4.178   1.138  1.5706 -0.5923 -0.9002
  561SOL    HW3 2367   0.932   4.266   1.015  0.4032  0.2164 -0.2635
  561SOL    MW4 2368   0.944   4.257   1.101  0.3703 -0.2203 -0.3055
  562SOL     OW 2369   1.175   4.374   1.221  0.3277  0.2509 -0.3181
  562SOL    HW2 2370   1.176   4.372   1.317  0.1809  2.4966 -0.2279
  562SOL    HW3 2371   1.089   4.342   1.196  0.1172  0.3059  0.3367
  562SOL    MW4 2372   1.164   4.370   1.231  0.2806  0.5541 -0.2198
  563SOL     OW 2373   1.549   4.648   1.165 -0.8339 -0.2100 -0.4728
  563SOL    HW2 2374   1.559   4.651   1.070  0.8794  0.4369 -0.2816
  563SOL    HW3 2375   1.554   4.554   1.186  1.4854 -0.1768 -0.7576
  563SOL    MW4 2376   1.551   4.636   1.155 -0.3017 -0.1202 -0.4851
  564SOL     OW 2377   1.329   0.123   1.210  0.0679  0.1873  0.2540
  564SOL    HW2 2378   1.400   0.062   1.192  0.5437  0.7850  0.1145
  564SOL    HW3 2379   1.250   0.069   1.203  0.3960 -0.1534 -1.1591
  564SOL    MW4 2380   1.328   0.108   1.207  0.1740  0.2212  0.0492
  565SOL     OW 2381   3.166   3.124   0.796  0.0613  0.1657  0.1726
  565SOL    HW2 2382   3.144   3.213   0.821  0.1945  0.3325 -0.3049
  565SOL    HW3 2383   3.158   3.123   0.700 -1.5686 -0.7527  0.2905
  565SOL    MW4 2384   3.162   3.135   0.787 -0.1361  0.0665  0.1252
  566SOL     OW 2385   1.550   0.722   1.085 -0.2168  0.1639 -0.5280
  566SOL    HW2 2386   1.565   0.703   0.993 -0.3243  0.3281 -0.5789
  566SOL    HW3 2387   1.626   0.774   1.112  0.9451 -1.8038  0.0519
  566SOL    MW4 2388   1.562   0.726   1.077 -0.0777 -0.0740 -0.4584
  567SOL     OW 2389   1.811   0.692   0.455 -0.1750 -0.2192  0.1530
  567SOL    HW2 2390   1.861   0.767   0.421  0.1579 -0.9728 -1.0520
  567SOL    HW3 2391   1.729   0.693   0.406  0.1959 -1.1584 -0.4895
  567SOL    MW4 2392   1.807   0.702   0.444 -0.0820 -0.4426 -0.0907
  568SOL     OW 2393   1.349   0.878   1.221 -0.4042 -0.0037  0.0485
  568SOL    HW2 2394   1.261   0.843   1.202 -0.2847  0.2696 -1.0285
  568SOL    HW3 2395   1.406   0.831   1.161  0.1856 -0.0878  0.6655
  568SOL    MW4 2396   1.345   0.867   1.211 -0.3105  0.0213 -0.0123
  569SOL     OW 2397   3.930   4.228   0.723 -0.3770  0.2123  0.0682
  569SOL    HW2 2398   3.859   4.278   0.763 -2.5966 -2.3772 -0.5253
  569SOL    HW3 2399   3.901   4.212   0.633  1.1034 -0.6043 -0.2800
  569SOL    MW4 2400   3.917   4.232   0.716 -0.4745 -0.2375 -0.0560
  570SOL     OW 2401   1.575   1.257   1.141  0.1139 -0.3527 -0.0049
  570SOL    HW2 2402   1.570   1.351   1.125  0.1191 -0.6202 -1.6050
  570SOL    HW3 2403   1.485   1.225   1.130  0.4608 -0.8478 -1.4770
  570SOL    MW4 2404   1.563   1.265   1.137  0.1603 -0.4534 -0.4101
  571SOL     OW 2405   3.143   1.953   0.877  0.9639  0.3123 -0.2194
  571SOL    HW2 2406   3.220   1.906   0.846  1.5735  1.2601 -0.1715
  571SOL    HW3 2407   3.134   1.926   0.969  0.7448 -0.4271 -0.4525
  571SOL    MW4 2408   3.152   1.943   0.885  1.0154  0.3397 -0.2438
  572SOL     OW 2409   1.067   1.547   1.091 -0.5004 -0.2807 -0.1079
  572SOL    HW2 2410   0.984   1.566   1.135  0.6383  0.4030  1.7810
  572SOL    HW3 2411   1.088   1.458   1.119  0.2237  0.1545  0.7522
  572SOL    MW4 2412   1.059   1.538   1.101 -0.2545 -0.1330  0.2549
  573SOL     OW 2413   1.345   1.587   0.779  0.6201 -0.6823  0.0441
  573SOL    HW2 2414   1.422   1.538   0.809  2.1627  0.9554 -1.0644
  573SOL    HW3 2415   1.362   1.677   0.809 -1.7989 -0.6575  1.4340
  573SOL    MW4 2416   1.358   1.593   0.787  0.5044 -0.4630  0.0812
  574SOL     OW 2417   1.089   0.604   0.415  0.0750 -0.2999  0.2875
  574SOL    HW2 2418   1.077   0.561   0.331 -1.2099 -0.2430  0.4333
  574SOL    HW3 2419   1.152   0.674   0.398 -1.1304  0.5082 -0.9015
  574SOL    MW4 2420   1.096   0.608   0.402 -0.2534 -0.1858  0.1498
  575SOL     OW 2421   1.578   2.041   1.481 -0.4150  0.0687  0.3218
  575SOL    HW2 2422   1.497   1.990   1.492 -1.1954  0.6180 -2.4509
  575SOL    HW3 2423   1.558   2.127   1.518 -2.1056  1.0744 -2.7097
  575SOL    MW4 2424   1.565   2.045   1.487 -0.7411  0.2737 -0.4439
  576SOL     OW 2425   1.324   1.616   1.181  0.2058  0.1961  0.3045
  576SOL    HW2 2426   1.237   1.594   1.147  1.1739 -1.8660 -0.9578
  576SOL    HW3 2427   1.330   1.711   1.173 -1.6728  0.2921 -0.2255
  576SOL    MW4 2428   1.314   1.625   1.175  0.0857 -0.0632  0.0679
  577SOL     OW 2429   1.485   3.087   0.812  0.0818  0.6798 -0.3141
  577SOL    HW2 2430   1.410   3.035   0.782  0.2541  1.7616 -2.7835
  577SOL    HW3 2431   1.488   3.161   0.751  1.7295  1.9052  1.2220
  577SOL    MW4 2432   1.475   3.090   0.800  0.3220  0.9840 -0.4373
  578SOL     OW 2433   0.631   4.635   0.838 -0.1747  0.1568  0.1228
  578SOL    HW2 2434   0.605   4.634   0.930 -0.2465 -0.0659  0.1005
  578SOL    HW3 2435   0.582   4.707   0.800  1.3631  1.5471  0.6999
  578SOL    MW4 2436   0.621   4.644   0.845  0.0187  0.3114  0.1960
  579SOL     OW 2437   1.103   2.837   1.191  0.2011 -0.1875  0.1171
  579SOL    HW2 2438   1.014   2.827   1.156 -0.3143  2.4507  0.5588
  579SOL    HW3 2439   1.093   2.819   1.285 -0.0875  1.0813  0.3417
  579SOL    MW4 2440   1.090   2.834   1.199  0.0949  0.3281  0.2049
  580SOL     OW 2441   4.348   2.958   0.562 -0.4941 -0.1952 -0.0763
  580SOL    HW2 2442   4.329   2.866   0.541  0.2409 -0.2808 -0.3555
  580SOL    HW3 2443   4.264   3.002   0.552 -0.7466 -0.7458 -0.4234
  580SOL    MW4 2444   4.334   2.952   0.558 -0.4311 -0.2792 -0.1589
  581SOL     OW 2445   1.515   2.242   0.794  0.3421 -0.1574 -0.3497
  581SOL    HW2 2446   1.444   2.283   0.745 -0.1745 -0.4688  0.1309
  581SOL    HW3 2447   1.515   2.151   0.764  1.4918  0.1883 -1.4212
  581SOL    MW4 2448   1.505   2.236   0.783  0.4256 -0.1528 -0.4276
  582SOL     OW 2449   2.268   4.279   1.122 -0.0339 -0.5102 -0.3507
  582SOL    HW2 2450   2.197   4.334   1.155 -1.1566 -2.1732  0.0686
  582SOL    HW3 2451   2.251   4.192   1.160  1.4615 -1.2588 -1.3312
  582SOL    MW4 2452   2.256   4.275   1.131  0.0153 -0.8278 -0.4247
  583SOL     OW 2453   4.193   1.704   0.208  0.3185  0.3474 -0.0217
  583SOL    HW2 2454   4.256   1.695   0.137 -1.0204 -0.6009 -1.1182
  583SOL    HW3 2455   4.214   1.632   0.268 -0.3621 -0.5835 -0.8930
  583SOL    MW4 2456   4.204   1.694   0.206  0.0520  0.0993 -0.2814
  584SOL     OW 2457   2.958   3.852   0.825 -0.2572  0.0202  0.2454
  584SOL    HW2 2458   2.942   3.846   0.919 -0.4468 -1.5167  0.1278
  584SOL    HW3 2459   3.037   3.906   0.818  0.1407 -0.3957  1.3224
  584SOL    MW4 2460   2.967   3.858   0.837 -0.2298 -0.2377  0.3720
  585SOL     OW 2461   1.626   4.381   1.224  0.2103 -0.4561 -0.5257
  585SOL    HW2 2462   1.552   4.340   1.179 -1.2939  2.4038 -0.7398
  585SOL    HW3 2463   1.610   4.363   1.317 -0.1778 -0.7788 -0.6527
  585SOL    MW4 2464   1.614   4.373   1.230 -0.0395 -0.1216 -0.5709
  586SOL     OW 2465   1.839   3.973   1.246 -0.0542 -0.4576  0.2216
  586SOL    HW2 2466   1.753   3.948   1.214 -0.0176 -0.1237 -0.1380
  586SOL    HW3 2467   1.831   3.970   1.342 -0.4875 -0.3426  0.1886
  586SOL    MW4 2468   1.827   3.969   1.254 -0.1066 -0.3982  0.1699
  587SOL     OW 2469   1.574   3.081   1.075  0.4209  0.0107  0.1258
  587SOL    HW2 2470   1.549   3.104   0.985 -1.8413 -2.0839  0.1633
  587SOL    HW3 2471   1.501   3.112   1.129  0.8939 -0.4113  1.0146
  587SOL    MW4 2472   1.561   3.088   1.070  0.1849 -0.3211  0.2481
  588SOL     OW 2473   1.806   0.123   1.206 -0.5603 -0.1508 -0.1581
  588SOL    HW2 2474   1.736   0.059   1.192 -0.9916  0.1400  0.6646
  588SOL    HW3 2475   1.821   0.122   1.300 -0.9999  1.4393 -0.0693
  588SOL    MW4 2476   1.799   0.114   1.216 -0.6753  0.0974 -0.0379
  589SOL     OW 2477   2.733   3.983   0.719 -0.3144 -0.0158  0.3557
  589SOL    HW2 2478   2.715   3.930   0.642 -1.0458 -1.1692  1.2984
  589SOL    HW3 2479   2.815   3.949   0.754 -0.6734 -0.3802  0.8425
  589SOL    MW4 2480   2.742   3.972   0.714 -0.4582 -0.2158  0.5443
  590SOL     OW 2481   2.344   3.092   0.887  0.0844 -0.2976  0.4302
  590SOL    HW2 2482   2.405   3.151   0.843  0.6203  0.3069  1.9591
  590SOL    HW3 2483   2.376   3.004   0.867 -0.4420 -0.0797 -1.4657
  590SOL    MW4 2484   2.356   3.088   0.879  0.0856 -0.1888  0.3818
  591SOL     OW 2485   1.130   1.378   0.418  0.4245 -0.1539  0.3174
  591SOL    HW2 2486   1.061   1.444   0.407 -0.5197 -1.1478  0.2720
  591SOL    HW3 2487   1.207   1.429   0.441 -0.7183  0.8634  2.0462
  591SOL    MW4 2488   1.131   1.394   0.420  0.1493 -0.1508  0.5395
  592SOL     OW 2489   2.020   0.771   1.084 -0.2699  0.7587  0.1692
  592SOL    HW2 2490   1.932   0.805   1.101 -1.2482 -0.6662 -1.8115
  592SOL    HW3 2491   2.020   0.683   1.123 -0.0866  0.3424 -0.7505
  592SOL    MW4 2492   2.008   0.764   1.091 -0.3748  0.5158 -0.2134
  593SOL     OW 2493   1.759   0.877   1.168  0.2213  0.2855 -0.0099
  593SOL    HW2 2494   1.764   0.971   1.150 -0.6955  0.3127 -0.1627
  593SOL    HW3 2495   1.777   0.870   1.262  0.5930  0.5876 -0.0589
  593SOL    MW4 2496   1.762   0.888   1.178  0.1495  0.3290 -0.0365
  594SOL     OW 2497   2.004   1.273   1.213 -0.0488 -0.1230  0.3029
  594SOL    HW2 2498   2.075   1.214   1.187 -0.4078 -0.1489 -0.6425
  594SOL    HW3 2499   1.925   1.231   1.179 -0.3919  0.4976  0.3289
  594SOL    MW4 2500   2.003   1.260   1.205 -0.1411 -0.0446  0.1816
  595SOL     OW 2501   2.713   0.524   0.726 -0.7512 -0.3357  0.0177
  595SOL    HW2 2502   2.725   0.438   0.766 -0.1756 -0.4744 -0.4518
  595SOL    HW3 2503   2.620   0.544   0.741 -0.8842 -1.0243  0.1438
  595SOL    MW4 2504   2.702   0.516   0.734 -0.6926 -0.4448 -0.0277
  596SOL     OW 2505   2.041   1.518   1.071  0.1634  0.3090  0.3794
  596SOL    HW2 2506   1.960   1.552   1.109 -0.6041 -0.1660 -0.8044
  596SOL    HW3 2507   2.049   1.429   1.106  1.0928  0.9619  1.8580
  596SOL    MW4 2508   2.031   1.511   1.080  0.1848  0.3325  0.4182
  597SOL     OW 2509   2.475   1.364   0.175  0.7702  0.0372  0.2081
  597SOL    HW2 2510   2.493   1.448   0.216 -0.0600  0.7556 -0.8881
  597SOL    HW3 2511   2.561   1.322   0.168  1.4815  1.6861 -1.1880
  597SOL    MW4 2512   2.489   1.369   0.179  0.7548  0.3495 -0.1207
  598SOL     OW 2513   2.020   2.026   1.450  0.5838  0.0516 -0.4477
  598SOL    HW2 2514   2.102   1.988   1.482  0.1802  0.1035  0.6926
  598SOL    HW3 2515   1.954   1.960   1.471  0.2172  0.3846 -0.5576
  598SOL    MW4 2516   2.022   2.013   1.457  0.4823  0.1023 -0.3119
  599SOL     OW 2517   1.178   1.874   0.445 -0.3836  0.1110 -0.3543
  599SOL    HW2 2518   1.175   1.894   0.538  0.1015  1.3926 -0.6041
  599SOL    HW3 2519   1.091   1.897   0.412 -0.1053  1.0106 -0.4759
  599SOL    MW4 2520   1.166   1.880   0.453 -0.2830  0.3990 -0.4033
  600SOL     OW 2521   2.046   2.059   1.183 -0.1573  0.2304 -0.7170
  600SOL    HW2 2522   2.048   2.053   1.278  0.0868 -0.3148 -0.7513
  600SOL    HW3 2523   1.958   2.030   1.158 -0.5685  1.3493 -0.6018
  600SOL    MW4 2524   2.035   2.055   1.192 -0.1793  0.3059 -0.7064
  601SOL     OW 2525   1.806   1.673   1.184 -0.2019 -0.4321 -0.1192
  601SOL    HW2 2526   1.722   1.634   1.161 -1.6531  1.4710  1.8150
  601SOL    HW3 2527   1.810   1.668   1.279  0.9530  1.3468 -0.0384
  601SOL    MW4 2528   1.796   1.667   1.193 -0.2410  0.0536  0.1466
  602SOL     OW 2529   2.220   1.140   1.080 -0.1984  0.2462  0.2744
  602SOL    HW2 2530   2.231   1.054   1.119  1.5575  1.4213  2.4566
  602SOL    HW3 2531   2.227   1.124   0.985 -0.6679 -2.0749  0.5981
  602SOL    MW4 2532   2.222   1.127   1.072 -0.0286  0.0949  0.6051
  603SOL     OW 2533   2.243   2.671   1.166  0.0657  0.0326 -0.2913
  603SOL    HW2 2534   2.257   2.583   1.201 -1.3244  0.3061  1.0193
  603SOL    HW3 2535   2.326   2.716   1.179  0.3290 -0.6425  0.3870
  603SOL    MW4 2536   2.256   2.665   1.172 -0.0830 -0.0205 -0.0288
  604SOL     OW 2537   0.434   4.252   0.792 -0.4506  0.1979  0.0794
  604SOL    HW2 2538   0.361   4.311   0.778  0.1468  0.7451 -0.8440
  604SOL    HW3 2539   0.437   4.238   0.887 -1.7901  0.1029  0.1058
  604SOL    MW4 2540   0.425   4.258   0.803 -0.5486  0.2570 -0.0389
  605SOL     OW 2541   2.210   3.186   1.271  0.1462  0.1625 -0.1723
  605SOL    HW2 2542   2.233   3.278   1.254  0.3502  0.2180  0.4012
  605SOL    HW3 2543   2.165   3.158   1.191  1.4220  0.3115 -0.9542
  605SOL    MW4 2544   2.207   3.195   1.258  0.3417  0.1893 -0.1999
  606SOL     OW 2545   2.479   3.571   1.217 -0.2016  0.4658 -0.3668
  606SOL    HW2 2546   2.560   3.528   1.191 -0.6190 -0.0533 -0.8323
  606SOL    HW3 2547   2.482   3.573   1.313 -0.0509 -0.3488 -0.3537
  606SOL    MW4 2548   2.490   3.565   1.226 -0.2367  0.2899 -0.4265
  607SOL     OW 2549   2.455   0.616   0.798  0.4697  0.3050 -0.4257
  607SOL    HW2 2550   2.445   0.684   0.731  0.6735 -2.2363 -3.1206
  607SOL    HW3 2551   2.386   0.553   0.778  0.6180 -0.5623  1.7100
  607SOL    MW4 2552   2.444   0.617   0.786  0.5159 -0.1447 -0.4994
  608SOL     OW 2553   0.783   2.985   0.759 -0.3077 -0.0554  0.1302
  608SOL    HW2 2554   0.778   2.892   0.780  0.0708 -0.3945 -1.2241
  608SOL    HW3 2555   0.863   3.015   0.801 -0.7736 -0.1872  1.1273
  608SOL    MW4 2556   0.793   2.976   0.767 -0.3192 -0.1171  0.0830
  609SOL     OW 2557   4.323   4.604   0.688 -0.1459 -0.2599  0.0273
  609SOL    HW2 2558   4.384   4.675   0.708 -0.8083  0.0424  0.9846
  609SOL    HW3 2559   4.299   4.618   0.597 -0.2213  0.7064  0.1964
  609SOL    MW4 2560   4.328   4.615   0.679 -0.2427 -0.0925  0.1760
  610SOL     OW 2561   2.003   4.650   1.065 -0.1891  0.0199 -0.3118
  610SOL    HW2 2562   2.018   4.567   1.110  0.5768  0.9149  1.1235
  610SOL    HW3 2563   1.935   4.693   1.118 -2.2895 -0.6611 -2.3582
  610SOL    MW4 2564   1.996   4.645   1.078 -0.3650  0.0477 -0.3923
  611SOL     OW 2565   1.407   1.929   0.098  0.1241 -0.0844 -0.1179
  611SOL    HW2 2566   1.392   1.847   0.145  0.7329 -0.0530  0.1257
  611SOL    HW3 2567   1.375   1.997   0.158 -3.5317 -0.3269 -1.6495
  611SOL    MW4 2568   1.401   1.927   0.112 -0.2780 -0.1123 -0.2878
  612SOL     OW 2569   2.496   4.633   1.155  0.0323 -0.1548 -0.1881
  612SOL    HW2 2570   2.572   4.680   1.191  0.8791 -1.7550  0.1676
  612SOL    HW3 2571   2.420   4.682   1.188  0.8902  1.4627 -0.5272
  612SOL    MW4 2572   2.496   4.646   1.164  0.2570 -0.1531 -0.1860
  613SOL     OW 2573   1.814   1.845   0.833 -0.1495 -0.4725 -0.4647
  613SOL    HW2 2574   1.890   1.894   0.801  2.2548 -2.9777  1.1542
  613SOL    HW3 2575   1.802   1.875   0.923  0.2821 -1.6042 -0.0215
  613SOL    MW4 2576   1.822   1.855   0.841  0.2247 -0.9522 -0.1926
  614SOL     OW 2577   2.888   0.482   1.251 -0.1235  0.0906 -0.0421
  614SOL    HW2 2578   2.900   0.569   1.212  2.9211 -0.6068 -0.7456
  614SOL    HW3 2579   2.821   0.441   1.196 -0.4794  1.4214 -0.6413
  614SOL    MW4 2580   2.881   0.488   1.238  0.2310  0.1742 -0.2140
  615SOL     OW 2581   3.514   1.987   0.042  0.5901 -0.3330 -0.1535
  615SOL    HW2 2582   3.550   2.029  -0.036  2.3274 -1.0025  0.2708
  615SOL    HW3 2583   3.587   1.983   0.104 -0.3980 -1.0678  0.9977
  615SOL    MW4 2584   3.529   1.992   0.040  0.6890 -0.5183  0.0543
  616SOL     OW 2585   2.258   0.863   1.168  0.7699 -0.0280  0.3657
  616SOL    HW2 2586   2.170   0.836   1.144 -0.2245  0.0434  3.7086
  616SOL    HW3 2587   2.315   0.805   1.118 -1.2126 -1.3732 -0.3958
  616SOL    MW4 2588   2.254   0.852   1.159  0.3772 -0.1960  0.7063
  617SOL     OW 2589   1.993   1.846   0.300  0.6453  0.1186  0.2374
  617SOL    HW2 2590   2.027   1.905   0.368 -1.6560  1.5010  0.2187
  617SOL    HW3 2591   1.924   1.796   0.343 -0.6403  0.8033 -0.9780
  617SOL    MW4 2592   1.989   1.847   0.315  0.1720  0.3914  0.0746
  618SOL     OW 2593   2.447   1.265   1.198 -0.2455  0.0639 -0.7965
  618SOL    HW2 2594   2.516   1.200   1.182 -0.4331 -0.4447  0.4638
  618SOL    HW3 2595   2.368   1.226   1.163 -0.4558 -0.5989  0.4329
  618SOL    MW4 2596   2.446   1.252   1.191 -0.2980 -0.0907 -0.4681
  619SOL     OW 2597   3.144   3.140   0.509  0.0635 -0.1213  0.0375
  619SOL    HW2 2598   3.200   3.215   0.489 -0.6299  0.4989  0.3593
  619SOL    HW3 2599   3.091   3.127   0.430 -0.1666  0.0584  0.1579
  619SOL    MW4 2600   3.144   3.148   0.496 -0.0582 -0.0162  0.0958
  620SOL     OW 2601   2.714   4.239   1.145  0.9250 -0.1668  0.0646
  620SOL    HW2 2602   2.663   4.291   1.207  1.0341 -1.1513  0.9920
  620SOL    HW3 2603   2.741   4.302   1.078 -1.0061  0.4921 -0.1379
  620SOL    MW4 2604   2.711   4.254   1.144  0.6847 -0.2103  0.1603
  621SOL     OW 2605   2.236   1.663   1.210  0.0640 -0.1949  0.2176
  621SOL    HW2 2606   2.227   1.752   1.176  0.2512 -0.3535 -0.2513
  621SOL    HW3 2607   2.168   1.613   1.165  1.2150 -0.7083 -0.9772
  621SOL    MW4 2608   2.226   1.669   1.200  0.2403 -0.2835 -0.0020
  622SOL     OW 2609   0.357   1.285   0.198  0.3569 -0.1996 -0.5619
  622SOL    HW2 2610   0.341   1.281   0.104  1.2475 -0.7281 -0.6966
  622SOL    HW3 2611   0.295   1.351   0.230  1.5694  1.6109 -1.8440
  622SOL    MW4 2612   0.346   1.293   0.190  0.6344 -0.0304 -0.7488
  623SOL     OW 2613   4.049   3.020   0.806 -0.1696 -0.3161 -0.1653
  623SOL    HW2 2614   3.979   3.076   0.842  0.0682 -0.9582  1.3162
  623SOL    HW3 2615   4.129   3.057   0.843  0.0922 -0.8793 -0.1824
  623SOL    MW4 2616   4.050   3.033   0.816 -0.1040 -0.4752  0.0279
  624SOL     OW 2617   2.656   1.108   1.179  0.2680 -0.3533 -0.3432
  624SOL    HW2 2618   2.748   1.132   1.183  0.5183 -1.5742  1.5291
  624SOL    HW3 2619   2.654   1.014   1.199 -1.4737 -0.1142  0.7142
  624SOL    MW4 2620   2.668   1.099   1.182  0.0713 -0.4828  0.0433
  625SOL     OW 2621   1.436   3.282   0.632  0.1277 -0.0627  0.4205
  625SOL    HW2 2622   1.392   3.280   0.547  1.0889  0.5410 -0.0852
  625SOL    HW3 2623   1.383   3.343   0.684 -0.3848 -0.3317  0.2269
  625SOL    MW4 2624   1.423   3.290   0.628  0.1869 -0.0186  0.3283
  626SOL     OW 2625   2.015   2.824   1.456 -0.1819  0.4839  0.0239
  626SOL    HW2 2626   2.013   2.906   1.506  0.6274  1.0423 -0.8417
  626SOL    HW3 2627   2.005   2.852   1.365 -0.9235 -0.4656 -0.1880
  626SOL    MW4 2628   2.013   2.839   1.451 -0.1731  0.4325 -0.1184
  627SOL     OW 2629   1.319   0.830   0.713 -0.2594  0.1400 -0.0575
  627SOL    HW2 2630   1.275   0.782   0.783 -1.5114  1.1074 -0.1568
  627SOL    HW3 2631   1.329   0.919   0.749 -0.2525  0.4559 -0.8408
  627SOL    MW4 2632   1.315   0.836   0.727 -0.4237  0.3094 -0.1739
  628SOL     OW 2633   1.507   2.549   0.390 -0.4562 -0.2427 -0.0254
  628SOL    HW2 2634   1.428   2.594   0.361 -0.3983  1.0774  1.7487
  628SOL    HW3 2635   1.578   2.611   0.372  0.1064 -1.1561 -1.0104
  628SOL    MW4 2636   1.506   2.563   0.384 -0.3743 -0.1893  0.0787
  629SOL     OW 2637   2.479   1.235   0.785 -0.1064 -0.2410  0.4113
  629SOL    HW2 2638   2.477   1.226   0.690 -0.5885 -1.0722  0.5019
  629SOL    HW3 2639   2.541   1.168   0.815  0.9920  0.8250  0.5953
  629SOL    MW4 2640   2.487   1.225   0.777 -0.0253 -0.2100  0.4476
  630SOL     OW 2641   2.237   0.090   1.240 -0.4140  0.1520 -0.0072
  630SOL    HW2 2642   2.234   0.180   1.207  0.1773  0.3327  0.4227
  630SOL    HW3 2643   2.176   0.042   1.184 -2.7608  1.3481  1.4423
  630SOL    MW4 2644   2.229   0.096   1.228 -0.6456  0.3337  0.2407
  631SOL     OW 2645   1.559   2.323   1.069 -0.1604 -0.5769 -0.0368
  631SOL    HW2 2646   1.547   2.236   1.107 -0.4110 -0.5731 -0.1061
  631SOL    HW3 2647   1.556   2.309   0.975  1.8647 -0.7884 -0.1049
  631SOL    MW4 2648   1.557   2.310   1.062  0.0736 -0.6044 -0.0548
  632SOL     OW 2649   2.253   4.028   1.221 -0.1215 -0.1520 -0.1204
  632SOL    HW2 2650   2.330   3.973   1.208  1.0558  1.6144 -0.7709
  632SOL    HW3 2651   2.182   3.981   1.176  1.3655  0.0030 -2.7047
  632SOL    MW4 2652   2.253   4.014   1.214  0.2301  0.1011 -0.5473
  633SOL     OW 2653   3.307   3.785   0.634 -0.7533  0.4404  0.4525
  633SOL    HW2 2654   3.213   3.780   0.617 -1.0449  2.0417  1.4817
  633SOL    HW3 2655   3.314   3.838   0.714  1.0475  0.9353 -0.0102
  633SOL    MW4 2656   3.296   3.792   0.642 -0.5538  0.7172  0.5273
  634SOL     OW 2657   2.486   4.349   1.261  0.0261  0.1434  0.2349
  634SOL    HW2 2658   2.411   4.330   1.204  0.1956  0.1320  0.0160
  634SOL    HW3 2659   2.508   4.440   1.243  0.0053  0.1756  0.3686
  634SOL    MW4 2660   2.479   4.358   1.251  0.0458  0.1464  0.2236
  635SOL     OW 2661   3.145   0.085   0.730 -0.0837 -0.2723 -0.7035
  635SOL    HW2 2662   3.127   0.164   0.680  1.2156  0.2780 -0.3002
  635SOL    HW3 2663   3.226   0.103   0.776 -0.4057 -1.3899  0.3315
  635SOL    MW4 2664   3.153   0.098   0.729  0.0453 -0.3471 -0.5137
  636SOL     OW 2665   2.712   0.098   1.270  0.1189 -0.1211 -0.2674
  636SOL    HW2 2666   2.726   0.095   1.364  2.5539 -2.0421 -0.6482
  636SOL    HW3 2667   2.773   0.033   1.234 -0.7529  0.5795 -3.1644
  636SOL    MW4 2668   2.722   0.089   1.277  0.3252 -0.2821 -0.6999
  637SOL     OW 2669   4.016   0.917   0.694  0.5018 -0.1244 -0.4063
  637SOL    HW2 2670   3.941   0.882   0.741 -0.5287  0.3744 -1.6478
  637SOL    HW3 2671   4.044   0.992   0.746  0.0273 -0.2137 -0.0249
  637SOL    MW4 2672   4.010   0.922   0.707  0.3033 -0.0703 -0.5198
  638SOL     OW 2673   2.685   0.348   1.115  0.5033 -0.0352  0.0439
  638SOL    HW2 2674   2.682   0.271   1.172 -1.2320  0.5469  0.7615
  638SOL    HW3 2675   2.692   0.313   1.027  2.3452 -0.9679  0.5241
  638SOL    MW4 2676   2.686   0.333   1.111  0.5174 -0.0814  0.2018
  639SOL     OW 2677   2.649   0.828   1.235 -0.3072  0.2046  0.0620
  639SOL    HW2 2678   2.731   0.781   1.225 -0.4592 -0.4138  1.5831
  639SOL    HW3 2679   2.589   0.787   1.172 -0.1072 -0.8741  0.5691
  639SOL    MW4 2680   2.652   0.817   1.225 -0.3011 -0.0193  0.3297
  640SOL     OW 2681   2.462   0.478   1.197  0.4127 -0.0005 -0.0050
  640SOL    HW2 2682   2.471   0.487   1.292  1.6620 -0.5460 -0.0642
  640SOL    HW3 2683   2.547   0.445   1.168 -0.1570 -0.3872 -1.2486
  640SOL    MW4 2684   2.474   0.475   1.206  0.5026 -0.1235 -0.1769
  641SOL     OW 2685   4.077   3.465   1.143 -0.1034 -0.6938  0.4353
  641SOL    HW2 2686   4.078   3.444   1.050 -0.4624  0.9987  0.0395
  641SOL    HW3 2687   3.989   3.500   1.158  0.4191  0.3166  1.1294
  641SOL    MW4 2688   4.065   3.467   1.133 -0.0815 -0.3371  0.4746
  642SOL     OW 2689   3.148   1.100   1.104 -0.1689  0.2103 -0.3282
  642SOL    HW2 2690   3.162   1.084   1.011  0.5373 -1.6689  0.0698
  642SOL    HW3 2691   3.230   1.139   1.134 -0.3281  0.6417 -0.4487
  642SOL    MW4 2692   3.161   1.103   1.096 -0.0970  0.0192 -0.2916
  643SOL     OW 2693   2.900   1.525   1.121 -0.6858 -0.1631 -0.7105
  643SOL    HW2 2694   2.896   1.431   1.134 -0.8961 -0.2434 -1.3454
  643SOL    HW3 2695   2.992   1.547   1.136 -0.5305 -0.5505 -1.0831
  643SOL    MW4 2696   2.912   1.516   1.125 -0.6931 -0.2248 -0.8434
  644SOL     OW 2697   2.676   1.639   1.261  0.3522 -0.0142  0.3755
  644SOL    HW2 2698   2.756   1.605   1.221 -0.3620  0.2217 -1.2990
  644SOL    HW3 2699   2.608   1.625   1.194 -1.2533 -1.3064  2.2101
  644SOL    MW4 2700   2.677   1.633   1.247  0.0463 -0.1535  0.3966
  645SOL     OW 2701   2.718   1.911   1.137 -0.2237 -0.0467 -0.2690
  645SOL    HW2 2702   2.803   1.944   1.165  0.4485 -1.2635 -0.8217
  645SOL    HW3 2703   2.705   1.831   1.188 -1.2066  0.3214  0.0759
  645SOL    MW4 2704   2.728   1.904   1.147 -0.2646 -0.1587 -0.2965
  646SOL     OW 2705   2.941   2.034   1.237  0.5244  0.6251 -0.5963
  646SOL    HW2 2706   2.944   2.120   1.193  1.0881  0.8426 -0.1419
  646SOL    HW3 2707   2.923   2.055   1.328  0.3004  0.2336 -0.5519
  646SOL    MW4 2708   2.939   2.048   1.243  0.5693  0.6020 -0.5306
  647SOL     OW 2709   2.941   2.293   1.146  0.2349 -0.3816 -0.2818
  647SOL    HW2 2710   2.856   2.325   1.175  0.4185  0.4344 -0.6500
  647SOL    HW3 2711   3.002   2.364   1.166  1.1007 -1.5863  1.4642
  647SOL    MW4 2712   2.938   2.307   1.153  0.3736 -0.4327 -0.1000
  648SOL     OW 2713   2.686   2.433   1.501  0.6335 -0.0816  0.3135
  648SOL    HW2 2714   2.670   2.525   1.520 -0.1263 -0.1527  0.0669
  648SOL    HW3 2715   2.605   2.389   1.529  0.2809 -0.4374 -1.2007
  648SOL    MW4 2716   2.673   2.439   1.507  0.4869 -0.1378  0.0812
  649SOL     OW 2717   2.464   1.967   0.492  0.5275  0.1152  0.0247
  649SOL    HW2 2718   2.485   1.994   0.582  2.3707  2.2488 -0.9988
  649SOL    HW3 2719   2.549   1.946   0.453 -0.3210 -1.3872 -1.0703
  649SOL    MW4 2720   2.478   1.967   0.499  0.6590  0.1986 -0.2548
  650SOL     OW 2721   2.480   2.812   1.225  0.0502  0.3146  0.3337
  650SOL    HW2 2722   2.491   2.902   1.193  1.8120  0.7993  2.1574
  650SOL    HW3 2723   2.489   2.820   1.320 -1.7121 -1.5358  0.6708
  650SOL    MW4 2724   2.483   2.825   1.233  0.0503  0.1342  0.6187
  651SOL     OW 2725   2.133   3.355   0.910  0.2053 -0.0335  0.3012
  651SOL    HW2 2726   2.121   3.426   0.846  1.8278 -0.8082 -0.8888
  651SOL    HW3 2727   2.165   3.399   0.989 -1.4447  0.8840  0.4943
  651SOL    MW4 2728   2.135   3.370   0.912  0.2015 -0.0145  0.1696
  652SOL     OW 2729   3.197   3.956   1.237 -0.5769 -0.0333  0.2895
  652SOL    HW2 2730   3.117   3.919   1.199 -0.6364 -0.8508  1.1872
  652SOL    HW3 2731   3.182   3.950   1.331  0.1571  0.6795  0.4477
  652SOL    MW4 2732   3.184   3.950   1.244 -0.4878 -0.0467  0.4287
  653SOL     OW 2733   2.441   3.090   1.139  0.0494 -0.0042  0.1708
  653SOL    HW2 2734   2.419   3.088   1.046  0.2094 -0.0421  0.1337
  653SOL    HW3 2735   2.360   3.120   1.182  0.1666  0.6328 -0.0416
  653SOL    MW4 2736   2.427   3.094   1.132  0.0858  0.0749  0.1379
  654SOL     OW 2737   2.721   3.453   1.118  0.0834  0.0299  0.3183
  654SOL    HW2 2738   2.689   3.363   1.117 -0.4887  0.2277  0.1313
  654SOL    HW3 2739   2.721   3.479   1.026  1.0562 -0.0535  0.2878
  654SOL    MW4 2740   2.717   3.445   1.106  0.1359  0.0448  0.2897
  655SOL     OW 2741   3.166   4.215   1.125 -0.3559  0.0073 -0.3802
  655SOL    HW2 2742   3.143   4.213   1.032 -0.6341 -1.3923 -0.2999
  655SOL    HW3 2743   3.164   4.123   1.152 -0.4881  0.4160  1.0661
  655SOL    MW4 2744   3.163   4.202   1.116 -0.4101 -0.1235 -0.1788
  656SOL     OW 2745   3.168   4.058   0.731  0.3474  0.4562  0.1675
  656SOL    HW2 2746   3.258   4.046   0.762  0.2006 -0.7615  0.1803
  656SOL    HW3 2747   3.173   4.046   0.636  0.0068 -1.0175  0.3108
  656SOL    MW4 2748   3.180   4.055   0.723  0.2832  0.1016  0.1882
  657SOL     OW 2749   2.455   3.839   1.169 -0.3138  0.3834  0.2291
  657SOL    HW2 2750   2.475   3.847   1.075 -1.4404  0.7303  0.0166
  657SOL    HW3 2751   2.471   3.747   1.189 -1.0411  0.0832 -0.5390
  657SOL    MW4 2752   2.460   3.828   1.159 -0.5586  0.3896  0.0997
  658SOL     OW 2753   2.945   4.326   1.263  0.1948 -0.3998 -0.2180
  658SOL    HW2 2754   2.867   4.285   1.227  0.5590 -2.4658  1.1904
  658SOL    HW3 2755   3.018   4.283   1.218  0.5553  1.3985 -1.4131
  658SOL    MW4 2756   2.945   4.315   1.252  0.2904 -0.4349 -0.1900
  659SOL     OW 2757   3.366   4.598   1.127 -0.3488 -0.4472 -0.0562
  659SOL    HW2 2758   3.444   4.622   1.176  0.1904  1.2267 -1.6440
  659SOL    HW3 2759   3.295   4.645   1.170  0.0557  0.6892 -0.6184
  659SOL    MW4 2760   3.367   4.607   1.139 -0.2241 -0.0763 -0.3400
  660SOL     OW 2761   3.137   0.076   1.224 -0.0449  0.3614 -0.0284
  660SOL    HW2 2762   3.136   0.089   1.319 -0.0615  0.2474 -0.0132
  660SOL    HW3 2763   3.061   0.021   1.207  0.0237  0.2888 -0.0952
  660SOL    MW4 2764   3.127   0.071   1.234 -0.0381  0.3367 -0.0352
  661SOL     OW 2765   1.563   0.666   0.794  0.1613 -0.2756 -0.5055
  661SOL    HW2 2766   1.506   0.733   0.756  1.2462  1.4982  0.9249
  661SOL    HW3 2767   1.652   0.699   0.781  0.7107 -1.3898  0.3050
  661SOL    MW4 2768   1.567   0.679   0.787  0.3769 -0.1886 -0.2099
  662SOL     OW 2769   3.332   0.439   1.294  0.1493  0.0312  0.1836
  662SOL    HW2 2770   3.313   0.530   1.271  0.5647 -0.0608 -0.5291
  662SOL    HW3 2771   3.261   0.389   1.254 -0.1418  0.0487  0.6723
  662SOL    MW4 2772   3.320   0.445   1.286  0.1657  0.0213  0.1540
  663SOL     OW 2773   3.088   0.871   1.239 -0.2559 -0.1084  0.0688
  663SOL    HW2 2774   3.108   0.884   1.331  1.4173 -0.0755 -0.2762
  663SOL    HW3 2775   3.107   0.956   1.199 -0.0241 -0.4044 -0.4531
  663SOL    MW4 2776   3.093   0.884   1.246 -0.0045 -0.1431 -0.0457
  664SOL     OW 2777   3.179   3.531   0.290  0.1751  0.1506 -0.0427
  664SOL    HW2 2778   3.216   3.549   0.204 -2.9288 -0.3244 -1.5737
  664SOL    HW3 2779   3.129   3.609   0.312  1.2985  0.4376  1.5432
  664SOL    MW4 2780   3.177   3.544   0.282 -0.0863  0.1256 -0.0354
  665SOL     OW 2781   1.571   1.217   0.699  0.1865 -0.5415  0.3708
  665SOL    HW2 2782   1.585   1.255   0.613  0.1671  0.5895  0.8554
  665SOL    HW3 2783   1.651   1.167   0.717  0.2113 -0.7331 -0.2730
  665SOL    MW4 2784   1.583   1.216   0.690  0.1872 -0.4175  0.3498
  666SOL     OW 2785   3.588   1.138   1.128 -0.3185  0.2609  0.0432
  666SOL    HW2 2786   3.673   1.179   1.148 -1.5310  2.1102  1.6142
  666SOL    HW3 2787   3.524   1.190   1.176 -2.4472 -0.7393 -1.5958
  666SOL    MW4 2788   3.591   1.150   1.137 -0.7594  0.3729  0.0341
  667SOL     OW 2789   3.373   1.534   1.155  0.1133 -0.1566  0.2388
  667SOL    HW2 2790   3.454   1.582   1.170 -0.6270  0.7514  1.4098
  667SOL    HW3 2791   3.349   1.554   1.064 -0.1329  1.6033  0.6782
  667SOL    MW4 2792   3.380   1.543   1.145 -0.0169  0.1954  0.4512
  668SOL     OW 2793   3.131   1.637   1.240  0.3998 -0.0657 -0.6997
  668SOL    HW2 2794   3.130   1.645   1.336  0.1762 -0.8852 -0.6320
  668SOL    HW3 2795   3.215   1.597   1.220  0.4556  0.1255 -0.8423
  668SOL    MW4 2796   3.142   1.633   1.250  0.3777 -0.1485 -0.7097
  669SOL     OW 2797   3.157   1.887   1.154 -0.7715  0.1986 -0.2240
  669SOL    HW2 2798   3.150   1.798   1.189 -1.9532 -0.3112 -1.6530
  669SOL    HW3 2799   3.088   1.936   1.198  0.1435  0.5143  0.8616
  669SOL    MW4 2800   3.147   1.882   1.164 -0.8070  0.1731 -0.2694
  670SOL     OW 2801   3.392   2.024   1.216  0.2972 -0.3247  0.6618
  670SOL    HW2 2802   3.364   2.113   1.195 -0.1937 -0.7472 -0.5204
  670SOL    HW3 2803   3.313   1.971   1.206  0.9009 -1.1084  0.0258
  670SOL    MW4 2804   3.377   2.029   1.212  0.3121 -0.4838  0.4219
  671SOL     OW 2805   3.130   2.494   1.217 -0.0802 -0.1999  0.7092
  671SOL    HW2 2806   3.148   2.483   1.311 -0.2922  0.8285  0.8811
  671SOL    HW3 2807   3.147   2.587   1.201  0.5318 -0.4993 -0.4046
  671SOL    MW4 2808   3.134   2.505   1.228 -0.0277 -0.1037  0.5847
  672SOL     OW 2809   3.204   2.771   1.098 -0.1348 -0.3959  0.4901
  672SOL    HW2 2810   3.122   2.806   1.133 -1.0325  0.5609 -2.4620
  672SOL    HW3 2811   3.272   2.814   1.150 -1.4298  0.5971  1.4010
  672SOL    MW4 2812   3.202   2.781   1.110 -0.4241 -0.1388  0.2208
  673SOL     OW 2813   2.956   2.833   1.192 -0.3778  0.1874 -0.4685
  673SOL    HW2 2814   2.880   2.781   1.168 -0.2279 -0.0747 -0.3716
  673SOL    HW3 2815   2.957   2.831   1.288  0.0388 -0.2236 -0.4803
  673SOL    MW4 2816   2.946   2.826   1.202 -0.3028  0.0987 -0.4572
  674SOL     OW 2817   3.430   2.847   1.245  0.0856  0.8266 -0.4184
  674SOL    HW2 2818   3.430   2.809   1.333 -0.6807  2.6910  0.4208
  674SOL    HW3 2819   3.480   2.785   1.192 -0.8199 -1.1530  0.9591
  674SOL    MW4 2820   3.437   2.834   1.249 -0.1352  0.8113 -0.1260
  675SOL     OW 2821   3.189   3.471   1.116 -0.0652  0.2279 -0.0971
  675SOL    HW2 2822   3.186   3.382   1.152  1.4082 -0.5218 -1.7396
  675SOL    HW3 2823   3.258   3.515   1.166 -1.1352  0.6178  1.0548
  675SOL    MW4 2824   3.198   3.465   1.128 -0.0119  0.1805 -0.1618
  676SOL     OW 2825   3.395   3.107   1.154  0.1506  0.0530 -0.1416
  676SOL    HW2 2826   3.415   3.089   1.062 -1.2317  1.3503 -0.7193
  676SOL    HW3 2827   3.408   3.023   1.198  1.9429 -0.3165 -1.2998
  676SOL    MW4 2828   3.399   3.094   1.148  0.2048  0.1755 -0.3707
  677SOL     OW 2829   2.882   3.097   1.107 -0.6446  0.5230  0.2999
  677SOL    HW2 2830   2.916   3.013   1.138  0.6415  0.9321  0.0247
  677SOL    HW3 2831   2.870   3.085   1.013  1.8113  1.3612 -0.1692
  677SOL    MW4 2832   2.885   3.084   1.099 -0.1509  0.6876  0.2017
  678SOL     OW 2833   3.629   3.989   1.203  0.9064  0.0772 -0.1860
  678SOL    HW2 2834   3.636   3.992   1.299  1.2285  0.2892 -0.2126
  678SOL    HW3 2835   3.711   3.948   1.175  1.5093  1.4187 -0.4502
  678SOL    MW4 2836   3.641   3.984   1.212  1.0288  0.2820 -0.2246
  679SOL     OW 2837   2.282   0.846   0.663 -0.7449  0.1712 -0.2041
  679SOL    HW2 2838   2.374   0.866   0.676 -0.4984 -1.4661  0.7575
  679SOL    HW3 2839   2.276   0.818   0.571  0.3689 -2.8758  0.5803
  679SOL    MW4 2840   2.293   0.845   0.652 -0.5658 -0.4468  0.0262
  680SOL     OW 2841   1.490   0.437   0.502  0.0245 -0.2881 -0.1179
  680SOL    HW2 2842   1.395   0.429   0.510  0.0198 -0.5905 -0.4460
  680SOL    HW3 2843   1.523   0.429   0.591 -0.2271 -0.6036 -0.0546
  680SOL    MW4 2844   1.482   0.435   0.515 -0.0092 -0.3696 -0.1528
  681SOL     OW 2845   3.561   1.470   0.521  0.6865 -0.0989  0.3859
  681SOL    HW2 2846   3.470   1.458   0.491  1.1455 -0.9596 -0.7361
  681SOL    HW3 2847   3.588   1.554   0.483  0.0683  0.5955  1.4778
  681SOL    MW4 2848   3.552   1.479   0.512  0.6654 -0.1208  0.3819
  682SOL     OW 2849   3.845   4.375   1.233 -0.1342 -0.2249 -0.1717
  682SOL    HW2 2850   3.862   4.365   1.327  0.3049 -1.7144 -0.3943
  682SOL    HW3 2851   3.761   4.332   1.218 -1.4266  2.1916 -0.0535
  682SOL    MW4 2852   3.836   4.368   1.243 -0.2468 -0.1025 -0.1855
  683SOL     OW 2853   0.584   2.316   0.811 -0.3127 -0.0817 -0.3783
  683SOL    HW2 2854   0.597   2.327   0.905  0.9307  0.9819 -0.6568
  683SOL    HW3 2855   0.641   2.382   0.771 -3.0215  1.4706 -1.8306
  683SOL    MW4 2856   0.593   2.326   0.818 -0.5060  0.2635 -0.6067
  684SOL     OW 2857   3.603   0.081   1.229  0.2037 -0.4175 -0.1183
  684SOL    HW2 2858   3.595   0.172   1.199  0.3597 -0.0499  0.9578
  684SOL    HW3 2859   3.689   0.052   1.196  0.1844 -0.1562 -0.3987
  684SOL    MW4 2860   3.614   0.089   1.221  0.2220 -0.3345 -0.0132
  685SOL     OW 2861   3.561   0.362   1.165  0.1371 -0.4810  0.0391
  685SOL    HW2 2862   3.636   0.415   1.189 -0.7274  0.7142  0.1498
  685SOL    HW3 2863   3.491   0.391   1.223 -0.4958 -1.3695 -0.2654
  685SOL    MW4 2864   3.562   0.373   1.176 -0.0608 -0.4405  0.0135
  686SOL     OW 2865   3.798   0.478   1.244 -0.3580 -0.5467 -0.0190
  686SOL    HW2 2866   3.791   0.453   1.336  0.4215 -1.5443 -0.2208
  686SOL    HW3 2867   3.873   0.429   1.211  0.2145  0.8357 -0.8485
  686SOL    MW4 2868   3.807   0.469   1.251 -0.1795 -0.4959 -0.1551
  687SOL     OW 2869   3.313   0.698   1.214  0.2726 -0.0461  0.1316
  687SOL    HW2 2870   3.235   0.752   1.229  0.2697 -0.1045  0.3280
  687SOL    HW3 2871   3.386   0.756   1.236  0.2507 -0.2841  0.8358
  687SOL    MW4 2872   3.312   0.713   1.219  0.2697 -0.0852  0.2505
  688SOL     OW 2873   3.024   0.596   0.429  0.3652 -0.2996 -0.2136
  688SOL    HW2 2874   2.945   0.558   0.392 -1.0680 -0.0883  2.4678
  688SOL    HW3 2875   2.994   0.642   0.508  3.1517 -0.2260  0.8775
  688SOL    MW4 2876   3.010   0.597   0.435  0.5436 -0.2620  0.2842
  689SOL     OW 2877   3.362   1.268   1.237 -0.9845 -0.0045  0.0646
  689SOL    HW2 2878   3.365   1.280   1.332  0.0191 -0.2565  0.0682
  689SOL    HW3 2879   3.357   1.357   1.202  0.5906  0.1872  0.2936
  689SOL    MW4 2880   3.361   1.281   1.245 -0.6440 -0.0125  0.0954
  690SOL     OW 2881   3.826   1.260   1.213  0.1025  0.1965 -0.6231
  690SOL    HW2 2882   3.800   1.347   1.181 -0.7847  0.6057  1.1387
  690SOL    HW3 2883   3.814   1.265   1.308 -1.4828 -2.3599 -0.6521
  690SOL    MW4 2884   3.821   1.272   1.221 -0.2239 -0.0868 -0.3946
  691SOL     OW 2885   0.880   4.267   0.837  0.1109  0.2404  0.1894
  691SOL    HW2 2886   0.952   4.326   0.815 -0.2993  1.6659  2.5348
  691SOL    HW3 2887   0.802   4.308   0.798  0.2951 -0.4822 -0.9802
  691SOL    MW4 2888   0.879   4.280   0.829  0.0811  0.3328  0.3445
  692SOL     OW 2889   3.582   1.697   1.198 -0.2735  0.1997  1.0015
  692SOL    HW2 2890   3.605   1.785   1.171 -0.4175  0.6569  2.3075
  692SOL    HW3 2891   3.657   1.643   1.172  0.0656  0.8032  0.7247
  692SOL    MW4 2892   3.595   1.701   1.191 -0.2480  0.3397  1.1373
  693SOL     OW 2893   2.326   2.438   0.538  0.0429 -0.1485  0.2218
  693SOL    HW2 2894   2.288   2.495   0.470 -0.1869  1.2159  1.4583
  693SOL    HW3 2895   2.282   2.465   0.618  0.2551 -1.8062  0.9090
  693SOL    MW4 2896   2.315   2.449   0.539  0.0405 -0.1872  0.4756
  694SOL     OW 2897   3.856   2.075   1.263 -0.0706 -0.0633 -0.2664
  694SOL    HW2 2898   3.879   2.069   1.356  0.0265  0.0303 -0.2835
  694SOL    HW3 2899   3.913   2.012   1.219 -0.4887 -0.4953 -0.2000
  694SOL    MW4 2900   3.867   2.066   1.270 -0.1132 -0.1080 -0.2599
  695SOL     OW 2901   3.780   2.308   1.150 -0.1003  0.3537 -0.4515
  695SOL    HW2 2902   3.806   2.232   1.202 -1.0460  0.6208  0.4346
  695SOL    HW3 2903   3.811   2.288   1.062  1.2211 -0.2662  0.1356
  695SOL    MW4 2904   3.788   2.295   1.145 -0.0508  0.3071 -0.2570
  696SOL     OW 2905   3.528   2.418   1.226 -0.4888 -0.5015  0.1600
  696SOL    HW2 2906   3.546   2.421   1.320 -1.2527 -1.8921  0.3630
  696SOL    HW3 2907   3.610   2.387   1.187 -1.0270 -2.6325  0.6580
  696SOL    MW4 2908   3.542   2.414   1.233 -0.6607 -0.9661  0.2525
  697SOL     OW 2909   3.584   2.661   1.107  0.1194 -0.3992 -0.5314
  697SOL    HW2 2910   3.570   2.582   1.159  0.0608  0.1170  0.2391
  697SOL    HW3 2911   3.663   2.700   1.144 -1.5375  1.5084  1.0790
  697SOL    MW4 2912   3.593   2.655   1.119 -0.1070 -0.0792 -0.2173
  698SOL     OW 2913   3.577   4.486   0.477 -0.0261 -0.5230 -0.0044
  698SOL    HW2 2914   3.581   4.577   0.446 -0.7505 -0.4155  0.2022
  698SOL    HW3 2915   3.520   4.442   0.414  2.3773 -1.4640 -1.5954
  698SOL    MW4 2916   3.570   4.492   0.465  0.1957 -0.6328 -0.1870
  699SOL     OW 2917   4.043   2.442   1.201 -0.4186  0.4565 -0.0887
  699SOL    HW2 2918   4.042   2.444   1.297 -0.6512 -3.8004  0.0902
  699SOL    HW3 2919   3.953   2.422   1.177 -0.0281 -0.0629 -1.1220
  699SOL    MW4 2920   4.031   2.440   1.211 -0.3977 -0.1733 -0.2015
  700SOL     OW 2921   3.849   3.597   1.186 -0.3224  0.1066  0.2191
  700SOL    HW2 2922   3.843   3.602   1.281  0.1640 -0.6419  0.2989
  700SOL    HW3 2923   3.770   3.549   1.159  0.6271 -1.6401  0.4523
  700SOL    MW4 2924   3.838   3.591   1.195 -0.1330 -0.2227  0.2605
  701SOL     OW 2925   3.409   3.857   1.099 -0.3941  0.3299  0.1468
  701SOL    HW2 2926   3.484   3.904   1.135 -0.8335  0.0931  1.4170
  701SOL    HW3 2927   3.334   3.895   1.145 -0.9131 -0.3625 -0.1300
  701SOL    MW4 2928   3.409   3.868   1.110 -0.5207  0.2074  0.2780
  702SOL     OW 2929   3.619   3.243   1.218  0.2421 -0.2443  0.5036
  702SOL    HW2 2930   3.535   3.197   1.221 -0.0292  0.2968  1.1764
  702SOL    HW3 2931   3.680   3.177   1.184 -0.4065 -0.7073  0.2233
  702SOL    MW4 2932   3.616   3.228   1.214  0.1206 -0.2339  0.5555
  703SOL     OW 2933   2.036   1.138   0.399  0.5708  0.0501 -0.5136
  703SOL    HW2 2934   2.110   1.192   0.371  1.1077 -0.2720  0.2644
  703SOL    HW3 2935   2.043   1.136   0.495 -0.6357  0.2901 -0.4119
  703SOL    MW4 2936   2.047   1.145   0.408  0.4826  0.0393 -0.3975
  704SOL     OW 2937   4.071   3.979   1.181 -0.0858 -0.0281  0.4031
  704SOL    HW2 2938   4.046   3.979   1.274 -0.4138  0.5534  0.3167
  704SOL    HW3 2939   4.071   4.071   1.156 -1.7099 -0.2709 -0.6199
  704SOL    MW4 2940   4.068   3.991   1.190 -0.3428  0.0167  0.2569
  705SOL     OW 2941   4.078   4.254   1.121 -0.6553  0.4286 -0.0051
  705SOL    HW2 2942   4.004   4.297   1.164 -1.1853  1.0399 -1.4941
  705SOL    HW3 2943   4.076   4.287   1.031  2.1316  1.3732  0.2252
  705SOL    MW4 2944   4.068   4.264   1.115 -0.3576  0.6342 -0.1712
  706SOL     OW 2945   3.841   4.648   1.149 -0.2281 -0.7481  0.2625
  706SOL    HW2 2946   3.843   4.564   1.194 -0.3761 -0.8624  0.0568
  706SOL    HW3 2947   3.844   4.625   1.056 -2.5541 -0.6088  0.1343
  706SOL    MW4 2948   3.842   4.634   1.142 -0.5543 -0.7443  0.2185
  707SOL     OW 2949   2.213   2.630   0.350  0.2364 -0.7268  0.3016
  707SOL    HW2 2950   2.152   2.688   0.397 -0.2979 -0.7385 -0.3770
  707SOL    HW3 2951   2.290   2.684   0.334  0.4814 -0.7625  1.3220
  707SOL    MW4 2952   2.215   2.645   0.354  0.1986 -0.7331  0.3467
  708SOL     OW 2953   1.593   1.459   0.834 -0.9703  0.1360 -0.0887
  708SOL    HW2 2954   1.585   1.375   0.790  1.9426 -1.0922  1.5752
  708SOL    HW3 2955   1.665   1.503   0.789 -0.1228  0.2312  1.3305
  708SOL    MW4 2956   1.602   1.454   0.822 -0.4742 -0.0136  0.3181
  709SOL     OW 2957   4.098   0.065   1.220 -0.2058 -0.2792 -0.4578
  709SOL    HW2 2958   4.107   0.049   1.314 -0.6251  0.1742 -0.3340
  709SOL    HW3 2959   4.008   0.040   1.200 -0.2808  0.1148 -0.6301
  709SOL    MW4 2960   4.087   0.060   1.230 -0.2708 -0.1674 -0.4642
  710SOL     OW 2961   4.027   0.335   1.167  0.1752 -0.4659 -0.4048
  710SOL    HW2 2962   4.104   0.390   1.179 -0.5188  0.2697  0.8125
  710SOL    HW3 2963   4.053   0.249   1.199  0.3330 -0.0940  0.4677
  710SOL    MW4 2964   4.040   0.331   1.172  0.1044 -0.3198 -0.1291
  711SOL     OW 2965   4.236   0.503   1.172  0.0817 -0.0751 -0.1383
  711SOL    HW2 2966   4.247   0.580   1.116 -0.8248  0.8994  0.9994
  711SOL    HW3 2967   4.259   0.534   1.259 -0.2817 -1.0930  0.3199
  711SOL    MW4 2968   4.240   0.518   1.176 -0.0858 -0.0809  0.0722
  712SOL     OW 2969   3.993   0.873   1.152  0.3440  0.1876 -0.1892
  712SOL    HW2 2970   3.994   0.892   1.245 -0.5878 -1.0426  0.0882
  712SOL    HW3 2971   4.069   0.817   1.138 -0.6247 -1.2640  0.2165
  712SOL    MW4 2972   4.003   0.868   1.162  0.0930 -0.1662 -0.0989
  713SOL     OW 2973   4.043   1.141   1.075  0.1870  0.0265  0.0457
  713SOL    HW2 2974   4.025   1.047   1.071 -0.3001  0.0901  0.6331
  713SOL    HW3 2975   3.967   1.178   1.121 -0.6064  0.9694 -1.9757
  713SOL    MW4 2976   4.030   1.134   1.081  0.0181  0.1594 -0.1434
  714SOL     OW 2977   4.252   1.273   1.167  0.1266  0.0454 -0.0510
  714SOL    HW2 2978   4.249   1.291   1.261 -0.8449  0.8473 -0.2310
  714SOL    HW3 2979   4.171   1.224   1.149  0.2631 -0.0250 -0.4893
  714SOL    MW4 2980   4.241   1.269   1.177  0.0162  0.1419 -0.1326
  715SOL     OW 2981   0.167   1.569   1.120  0.1040 -0.0810 -0.2992
  715SOL    HW2 2982   0.153   1.476   1.136  0.1731 -0.3459 -1.7264
  715SOL    HW3 2983   0.093   1.612   1.164  0.1813 -0.7923  0.5245
  715SOL    MW4 2984   0.155   1.563   1.128  0.1233 -0.2098 -0.3787
  716SOL     OW 2985   3.642   1.964   1.118  0.0038  0.1813  0.0770
  716SOL    HW2 2986   3.551   1.973   1.145 -0.1254  0.1428 -0.3401
  716SOL    HW3 2987   3.692   2.015   1.182 -0.3732  0.8001 -0.1185
  716SOL    MW4 2988   3.636   1.972   1.130 -0.0629  0.2577 -0.0038
  717SOL     OW 2989   4.025   1.634   1.253  0.5040  0.3949 -0.0676
  717SOL    HW2 2990   4.096   1.600   1.198  0.0858  0.4865 -0.6816
  717SOL    HW3 2991   4.054   1.620   1.343  1.2074  0.2506 -0.3171
  717SOL    MW4 2992   4.038   1.627   1.257  0.5422  0.3879 -0.1816
  718SOL     OW 2993   4.032   1.890   1.155 -0.0318 -0.7671 -0.4332
  718SOL    HW2 2994   4.036   1.870   1.062  1.0785 -2.4185 -0.0669
  718SOL    HW3 2995   4.021   1.805   1.197 -1.5633  0.0607  0.8906
  718SOL    MW4 2996   4.031   1.876   1.148 -0.0873 -0.8758 -0.2102
  719SOL     OW 2997   4.263   2.072   1.209  0.2916 -0.2346  0.2512
  719SOL    HW2 2998   4.183   2.033   1.174 -0.3760  0.1805  1.2840
  719SOL    HW3 2999   4.267   2.158   1.169 -0.5770  0.3171  1.3207
  719SOL    MW4 3000   4.253   2.078   1.200  0.0892 -0.1073  0.5286
  720SOL     OW 3001   3.232   2.856   0.508 -0.6310 -0.5863 -0.1869
  720SOL    HW2 3002   3.147   2.813   0.502 -0.8528 -0.0485 -0.9185
  720SOL    HW3 3003   3.212   2.950   0.512  0.0207 -0.2074 -3.8875
  720SOL    MW4 3004   3.218   2.863   0.508 -0.5739 -0.4652 -0.7716
  721SOL     OW 3005   0.399   0.883   0.732 -0.1956  0.2092  0.5824
  721SOL    HW2 3006   0.443   0.961   0.767 -0.0084 -0.0779  1.0007
  721SOL    HW3 3007   0.466   0.815   0.735  0.1808  0.4515 -1.4347
  721SOL    MW4 3008   0.414   0.884   0.737 -0.1212  0.2033  0.3715
  722SOL     OW 3009   4.239   3.092   1.148 -0.1047  0.1551  0.1193
  722SOL    HW2 3010   4.153   3.126   1.176 -0.7890 -1.1065 -0.4164
  722SOL    HW3 3011   4.241   3.106   1.054  0.4738  0.5919  0.1945
  722SOL    MW4 3012   4.228   3.098   1.140 -0.1187  0.0465  0.0585
  723SOL     OW 3013   3.624   0.098   0.495  0.1245 -0.8108  0.5182
  723SOL    HW2 3014   3.686   0.152   0.447  0.6978 -1.8868  0.0219
  723SOL    HW3 3015   3.546   0.153   0.504  0.8271  0.2180  0.3505
  723SOL    MW4 3016   3.622   0.112   0.490  0.2928 -0.8170  0.4306
  724SOL     OW 3017   3.157   3.195   1.221  0.5965 -0.2606  0.7041
  724SOL    HW2 3018   3.081   3.160   1.175 -0.0894  1.2774  0.6284
  724SOL    HW3 3019   3.230   3.138   1.195 -0.2037 -0.7211 -0.5543
  724SOL    MW4 3020   3.157   3.183   1.212  0.4003 -0.1183  0.5280
  725SOL     OW 3021   1.587   1.859   0.468  0.1471  0.2456 -0.0930
  725SOL    HW2 3022   1.656   1.794   0.460  0.1514  0.1654  0.5131
  725SOL    HW3 3023   1.513   1.823   0.420  0.0497 -0.3448  0.4989
  725SOL    MW4 3024   1.586   1.846   0.461  0.1348  0.1571  0.0651
  726SOL     OW 3025   4.290   3.614   1.219 -0.1460  0.6111  0.0076
  726SOL    HW2 3026   4.216   3.576   1.172  0.3419  0.8033 -0.9190
  726SOL    HW3 3027   4.367   3.589   1.168  0.2098  2.5878 -0.4832
  726SOL    MW4 3028   4.290   3.606   1.206 -0.0343  0.8972 -0.1794
  727SOL     OW 3029   4.327   3.904   0.873 -0.0359  0.2539 -0.7377
  727SOL    HW2 3030   4.340   3.886   0.966  0.1017  1.2982 -0.5541
  727SOL    HW3 3031   4.234   3.924   0.864  0.0255  0.5249 -0.7661
  727SOL    MW4 3032   4.316   3.904   0.884 -0.0100  0.4272 -0.7172
  728SOL     OW 3033   3.838   3.857   1.073  0.0999  0.6457 -0.0138
  728SOL    HW2 3034   3.836   3.774   1.120 -1.7103  0.1953 -0.8359
  728SOL    HW3 3035   3.925   3.892   1.090  1.1634 -1.7697 -0.2870
  728SOL    MW4 3036   3.849   3.851   1.082  0.0014  0.2675 -0.1582
  729SOL     OW 3037   2.305   2.967   0.566  0.0236 -0.2529 -0.0822
  729SOL    HW2 3038   2.229   2.913   0.545 -0.5577  0.5074  0.0859
  729SOL    HW3 3039   2.357   2.912   0.626 -0.5067 -0.6629  0.0036
  729SOL    MW4 3040   2.302   2.952   0.571 -0.1233 -0.2065 -0.0487
  730SOL     OW 3041   4.301   4.406   1.207  0.0367 -0.2370  0.4570
  730SOL    HW2 3042   4.222   4.354   1.196 -0.7169  0.7748  1.1038
  730SOL    HW3 3043   4.372   4.347   1.180 -0.6972 -2.0338  2.3410
  730SOL    MW4 3044   4.300   4.391   1.202 -0.1597 -0.3405  0.7908
  731SOL     OW 3045   0.226   4.635   1.605 -0.4826  0.1238 -0.3230
  731SOL    HW2 3046   0.307   4.675   1.573 -0.1774  0.2203  0.5762
  731SOL    HW3 3047   0.157   4.694   1.574 -0.0283  1.4252  1.0951
  731SOL    MW4 3048   0.227   4.648   1.596 -0.3824  0.3085 -0.0173
  732SOL     OW 3049   0.001   0.101   1.509 -0.1077 -0.2306  0.1139
  732SOL    HW2 3050  -0.064   0.062   1.567  0.4286 -0.5855  0.4746
  732SOL    HW3 3051  -0.032   0.083   1.421 -0.6897 -0.0839  0.3015
  732SOL    MW4 3052  -0.012   0.093   1.505 -0.1137 -0.2581  0.1862
  733SOL     OW 3053   0.003   0.372   1.565 -0.1092  0.4939  0.2909
  733SOL    HW2 3054   0.002   0.368   1.661 -2.4809 -0.5671  0.2535
  733SOL    HW3 3055   0.017   0.282   1.537  0.1215  0.7346 -0.3870
  733SOL    MW4 3056   0.005   0.360   1.574 -0.3917  0.3857  0.1966
  734SOL     OW 3057   0.223   0.471   1.453 -0.6421  0.0297  0.5550
  734SOL    HW2 3058   0.142   0.442   1.494 -0.5783  0.0597  0.7015
  734SOL    HW3 3059   0.207   0.461   1.359 -0.3809 -1.1251  0.6237
  734SOL    MW4 3060   0.210   0.466   1.446 -0.5992 -0.1188  0.5835
  735SOL     OW 3061   0.220   0.730   1.554  0.5323  0.3840  0.0370
  735SOL    HW2 3062   0.292   0.779   1.516 -0.0003  0.2386 -1.1697
  735SOL    HW3 3063   0.212   0.652   1.498 -1.0226  0.7508 -0.2651
  735SOL    MW4 3064   0.229   0.726   1.542  0.2569  0.4132 -0.1619
  736SOL     OW 3065   4.487   0.885   1.479 -0.1457  0.8077  0.1952
  736SOL    HW2 3066   4.551   0.851   1.542  2.2174  2.5344 -1.1860
  736SOL    HW3 3067   4.476   0.977   1.503 -0.1224  1.1764 -1.1328
  736SOL    MW4 3068   4.494   0.892   1.490  0.1688  1.0841 -0.1624
  737SOL     OW 3069   4.442   1.153   1.548  0.0546  0.0240 -0.1555
  737SOL    HW2 3070   4.449   1.164   1.643 -1.1552 -0.7277  0.0356
  737SOL    HW3 3071   4.519   1.197   1.513  0.0529  1.0717  1.1201
  737SOL    MW4 3072   4.453   1.160   1.556 -0.1053  0.0631  0.0380
  738SOL     OW 3073   0.184   1.261   1.451 -0.5296  0.0017  0.2958
  738SOL    HW2 3074   0.203   1.353   1.464 -1.0037  0.2410 -0.6584
  738SOL    HW3 3075   0.168   1.252   1.357 -0.7119 -1.0042  0.4087
  738SOL    MW4 3076   0.184   1.272   1.440 -0.6162 -0.0993  0.1849
  739SOL     OW 3077   0.185   1.517   1.561  0.3629 -0.2655 -0.1006
  739SOL    HW2 3078   0.167   1.490   1.651  0.4737 -0.8846 -0.2577
  739SOL    HW3 3079   0.114   1.578   1.539  0.6927  0.3880  0.6182
  739SOL    MW4 3080   0.173   1.521   1.570  0.4210 -0.2609 -0.0262
  740SOL     OW 3081   4.450   1.670   1.502  0.1990  0.0997 -0.0568
  740SOL    HW2 3082   4.455   1.756   1.543  0.6871  0.8020 -1.5712
  740SOL    HW3 3083   4.456   1.687   1.408  0.9460 -1.6361 -0.3456
  740SOL    MW4 3084   4.451   1.683   1.495  0.3619 -0.0367 -0.2946
  741SOL     OW 3085   0.017   1.952   1.545 -0.4528  0.2860  0.7064
  741SOL    HW2 3086   0.035   1.951   1.639 -1.4982 -0.1174  0.9155
  741SOL    HW3 3087  -0.069   1.995   1.538 -1.2484 -1.3646  0.1054
  741SOL    MW4 3088   0.008   1.958   1.556 -0.6957  0.0150  0.6547
  742SOL     OW 3089   0.246   2.076   1.475  0.0889 -0.4817 -0.0093
  742SOL    HW2 3090   0.163   2.031   1.491 -1.1260  1.7422  0.0262
  742SOL    HW3 3091   0.256   2.075   1.379  0.0811 -0.7866 -0.0101
  742SOL    MW4 3092   0.237   2.070   1.464 -0.0724 -0.2284 -0.0049
  743SOL     OW 3093   0.230   2.335   1.566 -0.2085  0.3173  0.6530
  743SOL    HW2 3094   0.219   2.329   1.661  0.0105  0.7334  0.7058
  743SOL    HW3 3095   0.238   2.244   1.537 -0.6338  0.1690  0.9887
  743SOL    MW4 3096   0.230   2.322   1.575 -0.2358  0.3526  0.7042
  744SOL     OW 3097   4.489   2.489   1.499 -0.3079  0.1815 -0.0279
  744SOL    HW2 3098   4.414   2.440   1.533 -0.1691  0.7367  1.0902
  744SOL    HW3 3099   4.566   2.442   1.530 -0.1885 -0.1529 -0.8281
  744SOL    MW4 3100   4.489   2.476   1.507 -0.2738  0.2108  0.0139
  745SOL     OW 3101   0.003   2.750   1.574 -0.0558 -0.0090 -0.1677
  745SOL    HW2 3102  -0.080   2.782   1.540 -1.1833 -0.4524  2.0170
  745SOL    HW3 3103   0.010   2.661   1.539 -1.1253 -0.4144  0.6108
  745SOL    MW4 3104  -0.007   2.742   1.565 -0.3457 -0.1209  0.2233
  746SOL     OW 3105   0.214   2.887   1.448 -0.0176  0.1975  0.3127
  746SOL    HW2 3106   0.286   2.850   1.498 -0.4535 -0.8720  0.1548
  746SOL    HW3 3107   0.137   2.836   1.475 -0.4069  0.1837 -0.8062
  746SOL    MW4 3108   0.213   2.876   1.458 -0.1265  0.0544  0.1442
  747SOL     OW 3109   0.218   3.105   1.623  0.3409  0.2501 -0.2475
  747SOL    HW2 3110   0.143   3.158   1.597 -0.1001  0.1452  0.8092
  747SOL    HW3 3111   0.224   3.039   1.554  0.2054  0.9880 -0.9743
  747SOL    MW4 3112   0.209   3.103   1.610  0.2649  0.3335 -0.2042
  748SOL     OW 3113   0.008   3.232   1.475  0.2111  0.2702  0.0884
  748SOL    HW2 3114   0.023   3.317   1.517 -1.4164  0.5127  0.1852
  748SOL    HW3 3115   0.007   3.252   1.381  2.4910 -0.0723 -0.0582
  748SOL    MW4 3116   0.010   3.246   1.468  0.2972  0.2573  0.0820
  749SOL     OW 3117   0.028   3.483   1.587 -0.3041  0.4019  0.7581
  749SOL    HW2 3118   0.024   3.485   1.682  0.8370  0.1436  0.8197
  749SOL    HW3 3119  -0.059   3.510   1.558 -0.8866 -0.2669  1.8776
  749SOL    MW4 3120   0.016   3.487   1.596 -0.2304  0.2797  0.9139
  750SOL     OW 3121   0.232   3.606   1.432 -0.5333  0.1250  0.0243
  750SOL    HW2 3122   0.244   3.686   1.482  0.3968  1.1283 -1.7454
  750SOL    HW3 3123   0.164   3.557   1.479 -0.6547  1.6520  1.4614
  750SOL    MW4 3124   0.225   3.610   1.444 -0.4266  0.4587 -0.0197
  751SOL     OW 3125   0.261   3.830   1.580 -0.2117 -0.3764 -0.4356
  751SOL    HW2 3126   0.255   3.847   1.674 -1.8864 -0.4742 -0.5130
  751SOL    HW3 3127   0.318   3.899   1.546 -0.2583  0.1393  0.5284
  751SOL    MW4 3128   0.268   3.841   1.588 -0.4388 -0.3209 -0.3185
  752SOL     OW 3129   0.042   3.980   1.513  0.3292 -0.4137 -0.5943
  752SOL    HW2 3130   0.070   4.059   1.558  0.1443  0.1601 -1.4687
  752SOL    HW3 3131   0.115   3.919   1.524  0.6648  0.0339 -0.3089
  752SOL    MW4 3132   0.055   3.982   1.520  0.3491 -0.2789 -0.6721
  753SOL     OW 3133   0.072   4.247   1.603 -0.5279 -0.6131  0.5380
  753SOL    HW2 3134   0.086   4.260   1.697 -0.7253  1.3936  0.3134
  753SOL    HW3 3135  -0.011   4.291   1.585 -0.2327 -0.5419 -0.6708
  753SOL    MW4 3136   0.063   4.254   1.613 -0.5150 -0.3390  0.3489
  754SOL     OW 3137   0.255   4.385   1.452  0.2499 -0.2398 -0.6804
  754SOL    HW2 3138   0.195   4.326   1.499  0.7145 -1.0545 -1.0955
  754SOL    HW3 3139   0.238   4.471   1.489 -1.7045 -0.3377 -1.2716
  754SOL    MW4 3140   0.245   4.388   1.463  0.0533 -0.3595 -0.8131
  755SOL     OW 3141   0.680   4.604   1.576 -0.1406  0.1550  0.8134
  755SOL    HW2 3142   0.755   4.656   1.546  1.2360 -0.9405  2.2113
  755SOL    HW3 3143   0.603   4.658   1.556  1.1671  2.2729  1.2751
  755SOL    MW4 3144   0.680   4.618   1.570  0.2136  0.2899  1.0587
  756SOL     OW 3145   0.464   0.119   1.518 -0.3425 -0.2358  0.3049
  756SOL    HW2 3146   0.447   0.201   1.563  0.5768 -0.0519  0.3323
  756SOL    HW3 3147   0.435   0.133   1.428 -0.2869  0.0784  0.3381
  756SOL    MW4 3148   0.458   0.132   1.512 -0.2139 -0.1701  0.3128
  757SOL     OW 3149   0.437   0.377   1.640 -0.3671  0.7809 -0.7822
  757SOL    HW2 3150   0.513   0.406   1.589  0.0483 -1.6046 -1.6087
  757SOL    HW3 3151   0.363   0.425   1.602  0.5146  2.0443 -0.9403
  757SOL    MW4 3152   0.438   0.387   1.628 -0.1960  0.6329 -0.9121
  758SOL     OW 3153   0.617   0.504   1.476 -0.1325 -0.1899  0.1955
  758SOL    HW2 3154   0.607   0.491   1.381 -0.4535  1.0028  0.0638
  758SOL    HW3 3155   0.624   0.599   1.487  1.8995 -0.4134  1.1752
  758SOL    MW4 3156   0.617   0.515   1.465  0.0933 -0.0620  0.3073
  759SOL     OW 3157   0.656   0.770   1.547 -0.6044  0.7308 -0.2067
  759SOL    HW2 3158   0.653   0.773   1.642  0.1141 -2.1610 -0.0432
  759SOL    HW3 3159   0.739   0.811   1.523 -0.8569  1.5941  0.3921
  759SOL    MW4 3160   0.666   0.776   1.556 -0.5429  0.4632 -0.1061
  760SOL     OW 3161   0.429   0.891   1.465 -0.0065  0.1053  0.2154
  760SOL    HW2 3162   0.427   0.963   1.529 -0.8119 -1.9281  2.5719
  760SOL    HW3 3163   0.510   0.844   1.485 -0.3799 -0.6797 -0.0876
  760SOL    MW4 3164   0.440   0.894   1.476 -0.1620 -0.2666  0.4864
  761SOL     OW 3165   0.407   1.120   1.598  0.1660  0.1462  0.3816
  761SOL    HW2 3166   0.488   1.168   1.581 -0.5477  1.8720  1.6649
  761SOL    HW3 3167   0.339   1.171   1.554 -0.3724 -0.6478  0.2909
  761SOL    MW4 3168   0.409   1.133   1.590  0.0008  0.2693  0.5389
  762SOL     OW 3169   0.630   1.256   1.504  0.6481  0.3223 -0.0365
  762SOL    HW2 3170   0.652   1.346   1.526  2.1077 -0.3699  1.4768
  762SOL    HW3 3171   0.646   1.249   1.410  2.3579  1.1355  0.1814
  762SOL    MW4 3172   0.635   1.267   1.495  1.0663  0.3381  0.1919
  763SOL     OW 3173   0.681   1.512   1.572 -0.2749 -0.2630  0.0131
  763SOL    HW2 3174   0.670   1.526   1.666  0.7895  0.3210  0.0671
  763SOL    HW3 3175   0.599   1.540   1.533 -0.5836 -0.1571  0.7383
  763SOL    MW4 3176   0.669   1.517   1.580 -0.1752 -0.1719  0.1158
  764SOL     OW 3177   0.440   1.609   1.491  0.6854 -0.3669  0.0471
  764SOL    HW2 3178   0.443   1.703   1.512  0.8429 -0.4546  0.4257
  764SOL    HW3 3179   0.365   1.576   1.541  0.9368 -0.5382  0.3141
  764SOL    MW4 3180   0.431   1.617   1.500  0.7394 -0.4011  0.1323
  765SOL     OW 3181   0.468   1.901   1.578 -0.2460  0.0620 -0.0781
  765SOL    HW2 3182   0.483   1.898   1.673 -1.1489 -1.4084  0.0382
  765SOL    HW3 3183   0.412   1.978   1.565 -0.4710  0.0270  0.6474
  765SOL    MW4 3184   0.462   1.911   1.589 -0.3948 -0.1365  0.0328
  766SOL     OW 3185   0.677   2.071   1.494  0.2120  0.0759  0.0159
  766SOL    HW2 3186   0.761   2.027   1.506  0.2848  0.0956 -0.4094
  766SOL    HW3 3187   0.613   2.009   1.528  0.4995  0.6081  1.5864
  766SOL    MW4 3188   0.680   2.057   1.500  0.2595  0.1488  0.1670
  767SOL     OW 3189   0.624   2.336   1.586 -0.0773 -0.3331  0.1228
  767SOL    HW2 3190   0.554   2.376   1.536  0.9985 -0.4746 -1.5230
  767SOL    HW3 3191   0.626   2.245   1.557 -0.0155 -0.6354  1.0587
  767SOL    MW4 3192   0.615   2.330   1.576  0.0728 -0.3915  0.0291
  768SOL     OW 3193   0.441   2.477   1.466 -0.0930  0.1524  0.1599
  768SOL    HW2 3194   0.447   2.562   1.510  1.7266 -0.3654  0.9231
  768SOL    HW3 3195   0.366   2.434   1.507 -1.0647  1.3992 -0.2714
  768SOL    MW4 3196   0.432   2.483   1.477  0.0188  0.2484  0.2037
  769SOL     OW 3197   0.430   2.740   1.569  0.1581 -0.4662 -0.3574
  769SOL    HW2 3198   0.428   2.752   1.664 -1.3938 -2.2389 -0.1368
  769SOL    HW3 3199   0.505   2.791   1.540  0.4316  0.4038  1.7771
  769SOL    MW4 3200   0.439   2.748   1.578 -0.0106 -0.5856 -0.0466
  770SOL     OW 3201   0.656   2.873   1.480 -0.1441 -0.0167  0.0700
  770SOL    HW2 3202   0.675   2.958   1.521  3.5854 -0.5209 -0.4158
  770SOL    HW3 3203   0.669   2.889   1.387  0.2351 -1.0403 -0.0522
  770SOL    MW4 3204   0.660   2.887   1.473  0.3979 -0.2182 -0.0103
  771SOL     OW 3205   0.655   3.128   1.615 -0.5300  0.2372 -0.1480
  771SOL    HW2 3206   0.740   3.165   1.590 -0.3392  1.6748  2.4591
  771SOL    HW3 3207   0.591   3.182   1.568 -0.0636 -0.0831 -1.1738
  771SOL    MW4 3208   0.658   3.140   1.605 -0.4432  0.3846  0.0606
  772SOL     OW 3209   0.434   3.256   1.491 -0.4520  0.3105 -0.1751
  772SOL    HW2 3210   0.374   3.190   1.526 -0.9161  0.4909 -0.6276
  772SOL    HW3 3211   0.410   3.263   1.398  0.4783  0.1463 -0.4375
  772SOL    MW4 3212   0.423   3.248   1.483 -0.3905  0.3128 -0.2695
  773SOL     OW 3213   0.433   3.507   1.584 -0.5948 -0.2355 -0.0905
  773SOL    HW2 3214   0.444   3.415   1.562 -0.7107 -0.0932 -0.7593
  773SOL    HW3 3215   0.379   3.543   1.513  1.3360  0.8392 -1.0503
  773SOL    MW4 3216   0.427   3.500   1.572 -0.3554 -0.0751 -0.3053
  774SOL     OW 3217   0.675   3.609   1.494 -0.4113 -0.3047 -0.3727
  774SOL    HW2 3218   0.681   3.701   1.519  1.0344 -0.1694 -1.1341
  774SOL    HW3 3219   0.600   3.576   1.542  0.0862  0.8468  1.2363
  774SOL    MW4 3220   0.666   3.617   1.503 -0.1549 -0.1349 -0.2608
  775SOL     OW 3221   0.673   3.897   1.546 -0.1207 -0.0748 -0.1721
  775SOL    HW2 3222   0.760   3.921   1.513 -0.3499 -0.2783 -0.9398
  775SOL    HW3 3223   0.683   3.895   1.641  0.6722  0.0719 -0.2471
  775SOL    MW4 3224   0.686   3.900   1.554 -0.0464 -0.0823 -0.2831
  776SOL     OW 3225   0.431   4.030   1.505 -0.0106 -0.0587  0.0631
  776SOL    HW2 3226   0.510   3.983   1.531  0.0727 -0.2754 -0.5635
  776SOL    HW3 3227   0.436   4.033   1.409 -1.3485 -1.0885 -0.0538
  776SOL    MW4 3228   0.443   4.024   1.496 -0.1761 -0.2232 -0.0350
  777SOL     OW 3229   0.450   4.273   1.622  0.2763  0.2278  0.1761
  777SOL    HW2 3230   0.448   4.196   1.565  3.2364  0.9526 -0.9969
  777SOL    HW3 3231   0.388   4.334   1.582  0.3497 -0.2950 -0.7441
  777SOL    MW4 3232   0.442   4.271   1.609  0.6765  0.2537 -0.1000
  778SOL     OW 3233   0.669   4.356   1.449  0.0222  0.0829 -0.5438
  778SOL    HW2 3234   0.606   4.311   1.505  0.2686 -0.2127 -0.5048
  778SOL    HW3 3235   0.677   4.443   1.487 -0.7757  0.3063 -0.8622
  778SOL    MW4 3236   0.662   4.362   1.461 -0.0506  0.0734 -0.5807
  779SOL     OW 3237   1.076   4.631   1.550 -0.1071  0.2831 -0.0477
  779SOL    HW2 3238   1.073   4.644   1.644 -0.2949  1.8764 -0.2562
  779SOL    HW3 3239   1.159   4.671   1.522  0.7558 -1.6565 -0.3598
  779SOL    MW4 3240   1.086   4.638   1.559 -0.0179  0.2379 -0.1163
  780SOL     OW 3241   0.862   0.108   1.476 -0.1174  0.1508 -0.4122
  780SOL    HW2 3242   0.872   0.203   1.487 -0.1913  0.0493  0.6297
  780SOL    HW3 3243   0.950   0.074   1.485 -0.4259 -0.1090  1.8179
  780SOL    MW4 3244   0.875   0.116   1.479 -0.1678  0.1031  0.0194
  781SOL     OW 3245   1.133   0.451   1.469  0.4395 -0.1432  0.2477
  781SOL    HW2 3246   1.054   0.404   1.496  0.5898 -1.4137 -1.4987
  781SOL    HW3 3247   1.109   0.544   1.475 -0.6689 -0.4813  1.2435
  781SOL    MW4 3248   1.119   0.457   1.474  0.3132 -0.3555  0.1487
  782SOL     OW 3249   0.878   0.383   1.522 -0.2659 -0.0459  0.1589
  782SOL    HW2 3250   0.867   0.372   1.617 -0.8960 -0.9969 -0.0186
  782SOL    HW3 3251   0.806   0.440   1.496 -0.9246 -0.9110  0.0453
  782SOL    MW4 3252   0.867   0.389   1.531 -0.4360 -0.2855  0.1205
  783SOL     OW 3253   1.090   0.723   1.511  0.5185  0.2234  0.3010
  783SOL    HW2 3254   1.093   0.701   1.604 -0.1291  0.5088  0.3918
  783SOL    HW3 3255   1.172   0.770   1.495 -0.1186  1.6663  1.1209
  783SOL    MW4 3256   1.101   0.726   1.521  0.3489  0.4514  0.4213
  784SOL     OW 3257   0.884   0.887   1.458 -0.2688 -0.2993  0.1162
  784SOL    HW2 3258   0.962   0.838   1.483 -0.5351 -1.7490 -1.7694
  784SOL    HW3 3259   0.880   0.879   1.362 -1.0168  2.3670 -0.1054
  784SOL    MW4 3260   0.894   0.879   1.448 -0.4027 -0.1388 -0.1619
  785SOL     OW 3261   0.865   1.131   1.584 -0.5517  0.4105 -0.5528
  785SOL    HW2 3262   0.862   1.043   1.546 -3.2055  0.1800  0.1220
  785SOL    HW3 3263   0.782   1.171   1.558 -1.2086  1.2447  2.6177
  785SOL    MW4 3264   0.854   1.124   1.575 -0.9885  0.4901 -0.0454
  786SOL     OW 3265   1.079   1.241   1.421  0.1591 -0.3474 -0.3628
  786SOL    HW2 3266   1.164   1.202   1.440 -0.6469 -2.7432 -1.5265
  786SOL    HW3 3267   1.015   1.185   1.465 -0.9243  0.5123 -0.7914
  786SOL    MW4 3268   1.082   1.229   1.429 -0.0901 -0.5500 -0.5728
  787SOL     OW 3269   1.117   1.493   1.548 -0.1211 -0.8307  0.0906
  787SOL    HW2 3270   1.193   1.538   1.511 -0.6191 -0.8246 -0.9292
  787SOL    HW3 3271   1.117   1.407   1.506 -0.5470 -0.9173  0.2694
  787SOL    MW4 3272   1.127   1.487   1.538 -0.2431 -0.8414 -0.0204
  788SOL     OW 3273   0.902   1.645   1.451 -0.5209 -1.0139 -0.4796
  788SOL    HW2 3274   0.977   1.595   1.484  0.7170  0.8393 -0.4533
  788SOL    HW3 3275   0.826   1.595   1.482  0.6637 -1.9414  1.0630
  788SOL    MW4 3276   0.902   1.632   1.460 -0.2013 -0.8918 -0.2725
  789SOL     OW 3277   0.914   1.907   1.576 -0.4094 -0.1460 -0.2419
  789SOL    HW2 3278   0.995   1.939   1.536 -0.7878 -0.3084 -1.1421
  789SOL    HW3 3279   0.907   1.816   1.548 -0.1060 -0.5907  1.1115
  789SOL    MW4 3280   0.924   1.900   1.567 -0.4193 -0.2261 -0.1822
  790SOL     OW 3281   1.112   2.051   1.431  0.7264 -0.2382 -0.6172
  790SOL    HW2 3282   1.199   2.030   1.466  1.3850  0.2834 -1.9312
  790SOL    HW3 3283   1.092   2.138   1.467  0.7273 -0.3800 -0.2754
  790SOL    MW4 3284   1.121   2.060   1.441  0.8134 -0.1881 -0.7454
  791SOL     OW 3285   1.077   2.322   1.567  0.3033 -0.3735  0.1725
  791SOL    HW2 3286   1.140   2.364   1.508 -0.5742 -0.6651 -0.9621
  791SOL    HW3 3287   0.991   2.348   1.534 -0.1966 -0.3115  1.4829
  791SOL    MW4 3288   1.074   2.331   1.555  0.1217 -0.4039  0.1959
  792SOL     OW 3289   0.841   2.430   1.456 -0.3096  0.1680  0.3351
  792SOL    HW2 3290   0.850   2.520   1.486 -0.6588  0.0787  0.7034
  792SOL    HW3 3291   0.762   2.397   1.499 -0.5662 -0.0988 -0.3321
  792SOL    MW4 3292   0.832   2.437   1.466 -0.3895  0.1209  0.2958
  793SOL     OW 3293   0.873   2.695   1.577 -0.2178 -0.2150  0.2157
  793SOL    HW2 3294   0.878   2.691   1.672  0.0724  0.1824  0.2188
  793SOL    HW3 3295   0.797   2.751   1.560 -0.0975 -0.0534  0.2139
  793SOL    MW4 3296   0.864   2.702   1.587 -0.1636 -0.1411  0.2158
  794SOL     OW 3297   1.095   2.834   1.471 -0.2632 -0.0355 -0.0571
  794SOL    HW2 3298   1.092   2.914   1.523  0.7912  1.2562 -1.9060
  794SOL    HW3 3299   1.022   2.781   1.503 -1.2480  1.8636  0.8898
  794SOL    MW4 3300   1.085   2.838   1.482 -0.2540  0.3858 -0.1762
  795SOL     OW 3301   1.123   3.096   1.583 -0.0351  0.5116 -0.2827
  795SOL    HW2 3302   1.135   3.084   1.678 -1.6637  1.1241  0.0006
  795SOL    HW3 3303   1.210   3.121   1.552  0.3891  0.8688  1.1335
  795SOL    MW4 3304   1.136   3.098   1.591 -0.1942  0.6397 -0.0584
  796SOL     OW 3305   0.889   3.232   1.528  0.1699 -0.1668  0.1702
  796SOL    HW2 3306   0.900   3.312   1.579 -1.0116 -0.7977  1.4467
  796SOL    HW3 3307   0.968   3.181   1.545 -0.7706 -0.9399  2.4325
  796SOL    MW4 3308   0.901   3.236   1.537 -0.1101 -0.3521  0.6372
  797SOL     OW 3309   0.897   3.510   1.620  0.0584 -0.0754 -0.0357
  797SOL    HW2 3310   0.968   3.557   1.577  1.6227 -1.1137  1.3738
  797SOL    HW3 3311   0.820   3.531   1.567  1.5379  0.3775 -2.1014
  797SOL    MW4 3312   0.896   3.519   1.607  0.4600 -0.1528 -0.1223
  798SOL     OW 3313   1.108   3.639   1.464  0.0360  0.0478  0.4059
  798SOL    HW2 3314   1.184   3.588   1.494 -0.7428 -2.0514 -1.0369
  798SOL    HW3 3315   1.121   3.648   1.369 -1.6467 -0.5862  0.1020
  798SOL    MW4 3316   1.120   3.633   1.455 -0.2887 -0.3128  0.1755
  799SOL     OW 3317   1.133   3.877   1.602 -0.7892 -0.5061  0.1156
  799SOL    HW2 3318   1.217   3.916   1.581 -1.6268  0.6867 -1.1565
  799SOL    HW3 3319   1.125   3.804   1.540 -1.1720  0.0673 -0.5148
  799SOL    MW4 3320   1.143   3.872   1.591 -0.9501 -0.2732 -0.1354
  800SOL     OW 3321   0.922   3.971   1.475  0.1979 -0.3385 -0.2405
  800SOL    HW2 3322   0.908   4.058   1.513 -1.2305 -0.5726 -0.2135
  800SOL    HW3 3323   0.994   3.934   1.526 -0.8794 -0.1697  1.4496
  800SOL    MW4 3324   0.930   3.978   1.487 -0.1327 -0.3471 -0.0138
  801SOL     OW 3325   0.887   4.214   1.592  0.0845 -0.1926  0.9045
  801SOL    HW2 3326   0.886   4.239   1.684  1.5117  2.9111  0.1516
  801SOL    HW3 3327   0.826   4.275   1.550 -1.0123 -1.9594 -0.1538
  801SOL    MW4 3328   0.879   4.225   1.598  0.1281 -0.0167  0.6654
  802SOL     OW 3329   1.131   4.362   1.498 -0.2958 -0.1125  0.0799
  802SOL    HW2 3330   1.065   4.301   1.531  1.1884 -1.1791  1.1481
  802SOL    HW3 3331   1.096   4.448   1.517 -1.7402 -0.6519 -0.0800
  802SOL    MW4 3332   1.118   4.365   1.505 -0.2908 -0.3247  0.1998
  803SOL     OW 3333   1.542   4.594   1.564 -0.0083  0.3579 -0.2794
  803SOL    HW2 3334   1.560   4.619   1.654 -0.1589  1.6889 -0.6177
  803SOL    HW3 3335   1.464   4.644   1.540 -0.3633 -0.4910 -0.9376
  803SOL    MW4 3336   1.534   4.604   1.573 -0.0750  0.4215 -0.4110
  804SOL     OW 3337   1.325   0.090   1.496 -0.3081 -0.5231  0.0335
  804SOL    HW2 3338   1.333   0.175   1.539  1.7397 -0.6601 -0.0238
  804SOL    HW3 3339   1.333   0.110   1.403 -0.1331 -0.7507  0.0014
  804SOL    MW4 3340   1.327   0.104   1.490 -0.0150 -0.5712  0.0218
  805SOL     OW 3341   1.351   0.350   1.607  0.1915 -0.1165 -0.1314
  805SOL    HW2 3342   1.427   0.394   1.568 -0.0816  1.1178  0.7113
  805SOL    HW3 3343   1.276   0.397   1.571 -0.0499  1.6868  2.5897
  805SOL    MW4 3344   1.351   0.362   1.597  0.1236  0.2843  0.3387
  806SOL     OW 3345   1.557   0.482   1.479 -0.3054 -0.1397  0.1938
  806SOL    HW2 3346   1.634   0.428   1.496 -1.8202 -2.4713 -0.1893
  806SOL    HW3 3347   1.536   0.465   1.387 -1.4173  0.2612  0.3637
  806SOL    MW4 3348   1.564   0.473   1.469 -0.6518 -0.3945  0.1656
  807SOL     OW 3349   1.587   0.742   1.557  0.0544  0.1889 -0.0274
  807SOL    HW2 3350   1.588   0.735   1.653 -0.1729 -1.1763 -0.1119
  807SOL    HW3 3351   1.573   0.652   1.527  0.4783  0.5598 -1.3525
  807SOL    MW4 3352   1.585   0.729   1.566  0.0802  0.0577 -0.2134
  808SOL     OW 3353   1.350   0.840   1.494  0.0960  0.7620 -0.1458
  808SOL    HW2 3354   1.437   0.811   1.520  0.7934  1.7812 -1.2686
  808SOL    HW3 3355   1.355   0.847   1.399 -1.9363 -1.4522 -0.4602
  808SOL    MW4 3356   1.362   0.837   1.485 -0.0800  0.6043 -0.3355
  809SOL     OW 3357   1.332   1.116   1.520 -0.4342 -0.2148 -0.1295
  809SOL    HW2 3358   1.317   1.136   1.613  0.7554  0.3648 -0.0488
  809SOL    HW3 3359   1.342   1.021   1.517  1.5743 -0.0475  0.6553
  809SOL    MW4 3360   1.331   1.106   1.532 -0.0123 -0.1165 -0.0153
  810SOL     OW 3361   1.587   1.214   1.448  0.3726 -0.4351 -0.2808
  810SOL    HW2 3362   1.500   1.180   1.468  0.1899  0.4765  0.5391
  810SOL    HW3 3363   1.591   1.217   1.353 -0.8225  0.3699 -0.3047
  810SOL    MW4 3364   1.576   1.210   1.438  0.1907 -0.2086 -0.1756
  811SOL     OW 3365   1.538   1.500   1.550  0.4090 -0.7496  0.2464
  811SOL    HW2 3366   1.514   1.509   1.642 -0.6223 -1.4258  0.0490
  811SOL    HW3 3367   1.518   1.409   1.528 -0.3667 -0.3127 -0.9237
  811SOL    MW4 3368   1.532   1.490   1.559  0.1707 -0.7811  0.0659
  812SOL     OW 3369   1.331   1.646   1.443  0.3778  0.3710 -0.5120
  812SOL    HW2 3370   1.409   1.596   1.470  0.5853  0.3995 -1.0417
  812SOL    HW3 3371   1.334   1.643   1.348 -0.8337 -0.4921 -0.5340
  812SOL    MW4 3372   1.342   1.639   1.434  0.2453  0.2609 -0.5848
  813SOL     OW 3373   1.337   1.918   1.542 -0.1360  0.3224 -0.4496
  813SOL    HW2 3374   1.326   1.909   1.637  0.8142  0.3757 -0.3326
  813SOL    HW3 3375   1.330   1.829   1.508  1.3991  0.0681 -0.1264
  813SOL    MW4 3376   1.334   1.905   1.550  0.1918  0.2960 -0.3917
  814SOL     OW 3377   1.578   1.536   1.097 -0.3321 -0.3002 -0.4059
  814SOL    HW2 3378   1.493   1.574   1.118  0.3456  0.8350  0.3612
  814SOL    HW3 3379   1.581   1.535   1.001 -1.2292 -0.4136 -0.4381
  814SOL    MW4 3380   1.568   1.540   1.087 -0.3611 -0.1655 -0.3089
  815SOL     OW 3381   1.533   2.294   1.570  0.2535  0.2706 -0.0532
  815SOL    HW2 3382   1.552   2.297   1.664  1.2178  0.1633 -0.2411
  815SOL    HW3 3383   1.614   2.324   1.529 -0.4075  1.0105 -0.8255
  815SOL    MW4 3384   1.546   2.298   1.577  0.2936  0.3543 -0.1799
  816SOL     OW 3385   1.327   2.466   1.460  0.2704  0.3195 -0.2680
  816SOL    HW2 3386   1.338   2.552   1.500  0.6308  0.3140 -0.3556
  816SOL    HW3 3387   1.385   2.408   1.509 -0.2724  0.0369  0.0557
  816SOL    MW4 3388   1.336   2.470   1.472  0.2464  0.2813 -0.2369
  817SOL     OW 3389   1.331   2.735   1.570 -0.3512  0.1136 -0.3780
  817SOL    HW2 3390   1.403   2.776   1.521 -0.2420 -0.6266 -0.8449
  817SOL    HW3 3391   1.252   2.775   1.534 -0.3102 -0.9034 -1.6378
  817SOL    MW4 3392   1.330   2.746   1.559 -0.3316 -0.1185 -0.6059
  818SOL     OW 3393   3.621   2.658   0.642 -0.4956 -0.6986  0.2282
  818SOL    HW2 3394   3.634   2.601   0.717 -0.1159 -0.7182  0.1448
  818SOL    HW3 3395   3.709   2.687   0.618 -0.7414  0.5852  0.7970
  818SOL    MW4 3396   3.634   2.655   0.649 -0.4780 -0.5319  0.2922
  819SOL     OW 3397   1.593   3.106   1.562 -0.0359  0.3071 -0.1836
  819SOL    HW2 3398   1.612   3.084   1.653 -2.0818  0.8235  0.3853
  819SOL    HW3 3399   1.571   3.022   1.521  0.9291  0.0678 -0.2252
  819SOL    MW4 3400   1.593   3.092   1.568 -0.1786  0.3438 -0.1141
  820SOL     OW 3401   1.348   3.222   1.493 -0.0567 -0.0549  0.0406
  820SOL    HW2 3402   1.423   3.182   1.537 -0.5874  0.3267  1.3170
  820SOL    HW3 3403   1.353   3.314   1.518 -0.6373  0.0734 -0.3290
  820SOL    MW4 3404   1.359   3.229   1.502 -0.2033  0.0124  0.1603
  821SOL     OW 3405   1.334   3.491   1.560  0.2484 -0.2053 -0.0017
  821SOL    HW2 3406   1.351   3.464   1.650  0.3583 -0.7408 -0.1795
  821SOL    HW3 3407   1.420   3.516   1.526  0.2662 -0.3560 -0.0697
  821SOL    MW4 3408   1.348   3.491   1.567  0.2652 -0.2959 -0.0341
  822SOL     OW 3409   1.582   3.577   1.464  0.1706 -0.1678  0.2385
  822SOL    HW2 3410   1.567   3.658   1.512  2.2070  0.6721 -0.4575
  822SOL    HW3 3411   1.660   3.539   1.504  1.7305  0.3939 -2.1114
  822SOL    MW4 3412   1.591   3.583   1.475  0.6450  0.0172 -0.1632
  823SOL     OW 3413   1.569   3.825   1.618 -0.1445 -0.4131  0.1260
  823SOL    HW2 3414   1.545   3.829   1.711  0.8108  0.8089  0.3410
  823SOL    HW3 3415   1.505   3.881   1.575 -1.6114 -2.3028 -0.1961
  823SOL    MW4 3416   1.557   3.833   1.625 -0.2121 -0.5009  0.1118
  824SOL     OW 3417   1.372   3.989   1.480 -0.0582 -0.1381 -0.0392
  824SOL    HW2 3418   1.358   4.076   1.518  0.2423 -0.4305  0.7534
  824SOL    HW3 3419   1.401   4.006   1.390  0.6577  0.6021  0.3236
  824SOL    MW4 3420   1.374   4.003   1.473  0.0759 -0.0792  0.1134
  825SOL     OW 3421   1.344   4.226   1.614  0.0129 -0.6092 -0.4385
  825SOL    HW2 3422   1.422   4.266   1.574 -0.5877  0.7014 -0.3369
  825SOL    HW3 3423   1.271   4.274   1.576 -0.5982  0.2437  1.7418
  825SOL    MW4 3424   1.345   4.238   1.604 -0.1470 -0.3233 -0.1374
  826SOL     OW 3425   1.563   4.338   1.483 -0.2626 -0.2153 -0.2937
  826SOL    HW2 3426   1.643   4.288   1.499  0.0986  0.1755 -0.8922
  826SOL    HW3 3427   1.584   4.427   1.511 -0.8744 -0.3574  0.6741
  826SOL    MW4 3428   1.576   4.343   1.489 -0.2955 -0.1822 -0.2451
  827SOL     OW 3429   2.005   4.586   1.577  0.2295 -0.6393  0.1470
  827SOL    HW2 3430   1.992   4.595   1.671 -0.3013 -2.0961  0.2309
  827SOL    HW3 3431   1.932   4.633   1.537 -0.2618 -1.1032  0.4885
  827SOL    MW4 3432   1.994   4.593   1.584  0.0944 -0.8931  0.2033
  828SOL     OW 3433   1.783   0.056   1.479 -0.2021 -0.2323 -0.1264
  828SOL    HW2 3434   1.696   0.021   1.494  0.4486 -0.5570  3.3077
  828SOL    HW3 3435   1.776   0.148   1.505  0.4804 -0.2634  0.1762
  828SOL    MW4 3436   1.771   0.064   1.484 -0.0262 -0.2792  0.3667
  829SOL     OW 3437   1.784   0.331   1.541  0.1482  0.0471 -0.0957
  829SOL    HW2 3438   1.860   0.369   1.497  0.0910 -0.1281 -0.3503
  829SOL    HW3 3439   1.797   0.351   1.634  0.5965 -0.1396 -0.1181
  829SOL    MW4 3440   1.796   0.339   1.548  0.1998 -0.0007 -0.1321
  830SOL     OW 3441   2.028   0.446   1.473  0.0400 -0.5637  0.2526
  830SOL    HW2 3442   2.109   0.412   1.510  0.5788  1.0070  0.5547
  830SOL    HW3 3443   2.025   0.537   1.501 -0.5355  0.1164 -1.8788
  830SOL    MW4 3444   2.038   0.454   1.481  0.0348 -0.2667  0.0113
  831SOL     OW 3445   2.047   0.711   1.555  0.6814  0.0301  0.1234
  831SOL    HW2 3446   2.123   0.757   1.516  1.6746  0.4126  2.4255
  831SOL    HW3 3447   1.971   0.751   1.513  1.7154  0.2385 -1.6105
  831SOL    MW4 3448   2.047   0.723   1.544  0.9491  0.1080  0.1984
  832SOL     OW 3449   1.823   0.822   1.431 -0.3703 -0.2620  0.8640
  832SOL    HW2 3450   1.834   0.911   1.465  1.1222  0.0041 -0.2273
  832SOL    HW3 3451   1.733   0.798   1.453 -1.0619  1.8345  0.4291
  832SOL    MW4 3452   1.813   0.830   1.438 -0.2648  0.0497  0.6624
  833SOL     OW 3453   1.819   1.074   1.546  0.0979 -0.2988  0.1934
  833SOL    HW2 3454   1.880   1.146   1.533 -0.3225 -0.2177 -1.4745
  833SOL    HW3 3455   1.737   1.105   1.508 -0.7153 -0.7839  1.5219
  833SOL    MW4 3456   1.816   1.088   1.539 -0.0648 -0.3521  0.1487
  834SOL     OW 3457   2.023   1.248   1.487 -0.0366  0.7834  0.0884
  834SOL    HW2 3458   1.997   1.329   1.532 -0.9506  0.4405  0.1936
  834SOL    HW3 3459   2.008   1.267   1.394  0.1179  0.8680  0.0809
  834SOL    MW4 3460   2.017   1.261   1.480 -0.1366  0.7493  0.1013
  835SOL     OW 3461   1.990   1.523   1.578 -0.4621 -0.3236  0.1323
  835SOL    HW2 3462   2.061   1.576   1.542 -0.0891  0.9056  2.6166
  835SOL    HW3 3463   1.910   1.566   1.546 -0.1261 -0.4589 -0.9059
  835SOL    MW4 3464   1.989   1.536   1.569 -0.3686 -0.1792  0.3231
  836SOL     OW 3465   1.764   1.640   1.447  0.2083 -0.3167  0.0815
  836SOL    HW2 3466   1.684   1.596   1.475  0.2295 -0.4764 -0.1041
  836SOL    HW3 3467   1.758   1.728   1.485 -0.0353 -0.3410  0.1009
  836SOL    MW4 3468   1.753   1.646   1.456  0.1788 -0.3409  0.0595
  837SOL     OW 3469   1.798   1.899   1.566  0.5524  0.8294 -0.0501
  837SOL    HW2 3470   1.793   1.896   1.661 -1.0133 -0.1537 -0.1444
  837SOL    HW3 3471   1.722   1.950   1.539  0.9816  1.0956 -0.7758
  837SOL    MW4 3472   1.788   1.905   1.575  0.4025  0.7348 -0.1582
  838SOL     OW 3473   2.040   2.321   1.076  0.0424 -0.1583  0.0420
  838SOL    HW2 3474   1.965   2.354   1.127  0.0762  1.2839 -0.8129
  838SOL    HW3 3475   2.052   2.231   1.108 -0.4358  0.4304  2.0045
  838SOL    MW4 3476   2.031   2.313   1.087 -0.0165  0.1094  0.1881
  839SOL     OW 3477   1.766   2.397   1.478  0.5342 -0.5389  0.1745
  839SOL    HW2 3478   1.832   2.344   1.522  0.4197 -1.1599 -0.3807
  839SOL    HW3 3479   1.778   2.485   1.512  0.2351 -1.0702  1.6592
  839SOL    MW4 3480   1.776   2.401   1.488  0.4796 -0.6907  0.2971
  840SOL     OW 3481   2.054   3.675   0.462  0.2732  0.1297  0.2144
  840SOL    HW2 3482   1.970   3.709   0.493  0.2354  0.2716 -0.0479
  840SOL    HW3 3483   2.113   3.751   0.464 -0.1800  0.5548 -1.7744
  840SOL    MW4 3484   2.051   3.690   0.467  0.2081  0.2046 -0.0826
  841SOL     OW 3485   1.557   2.833   1.452 -0.0260  0.0861 -0.1174
  841SOL    HW2 3486   1.626   2.783   1.495  1.0613  1.0243 -0.7491
  841SOL    HW3 3487   1.567   2.813   1.359 -0.7410  0.0799 -0.1993
  841SOL    MW4 3488   1.567   2.824   1.446  0.0231  0.2091 -0.2115
  842SOL     OW 3489   1.768   2.680   1.568  0.2609  0.1300  0.2243
  842SOL    HW2 3490   1.854   2.704   1.534  0.7591 -0.4735  1.0624
  842SOL    HW3 3491   1.770   2.706   1.660  0.6580 -2.6655  1.0646
  842SOL    MW4 3492   1.780   2.687   1.575  0.3791 -0.3183  0.4457
  843SOL     OW 3493   1.995   3.061   1.589  0.6745 -0.1626 -0.4680
  843SOL    HW2 3494   2.075   3.114   1.581 -0.6850  2.0903  0.5291
  843SOL    HW3 3495   1.932   3.104   1.531 -0.8576  0.1405  1.3649
  843SOL    MW4 3496   1.997   3.074   1.580  0.2930  0.1748 -0.0945
  844SOL     OW 3497   1.807   3.213   1.428  0.2957  0.1632 -0.0490
  844SOL    HW2 3498   1.798   3.296   1.475  0.3393  0.1083  0.0572
  844SOL    HW3 3499   1.735   3.160   1.461  0.7630 -0.1332  0.4937
  844SOL    MW4 3500   1.796   3.217   1.439  0.3632  0.1171  0.0367
  845SOL     OW 3501   1.800   3.447   1.570  0.7889  0.0846 -0.4409
  845SOL    HW2 3502   1.872   3.500   1.536  1.1753 -0.2011 -0.0806
  845SOL    HW3 3503   1.806   3.457   1.665  0.4387 -0.0537 -0.4041
  845SOL    MW4 3504   1.811   3.455   1.578  0.7937  0.0288 -0.3884
  846SOL     OW 3505   2.006   3.591   1.457  0.1528  0.7026  0.1895
  846SOL    HW2 3506   2.076   3.549   1.507 -1.1966 -1.2568  0.5155
  846SOL    HW3 3507   1.991   3.674   1.502  0.4304 -0.0768  1.7609
  846SOL    MW4 3508   2.013   3.596   1.470  0.0112  0.3409  0.4399
  847SOL     OW 3509   2.014   3.842   1.603  0.0742 -0.0764  0.1425
  847SOL    HW2 3510   2.094   3.870   1.558  0.0609  0.0880  0.2216
  847SOL    HW3 3511   2.037   3.843   1.696 -0.2488  0.7098  0.2139
  847SOL    MW4 3512   2.028   3.846   1.609  0.0300  0.0491  0.1624
  848SOL     OW 3513   1.786   3.958   1.509  0.2665 -0.0132 -0.0186
  848SOL    HW2 3514   1.870   3.927   1.543 -0.3299 -0.3189  1.1768
  848SOL    HW3 3515   1.721   3.911   1.559 -0.6345 -0.2608 -1.3951
  848SOL    MW4 3516   1.789   3.948   1.520  0.0689 -0.0861 -0.0423
  849SOL     OW 3517   1.804   4.234   1.580 -0.0306  0.2784  0.1370
  849SOL    HW2 3518   1.890   4.267   1.555 -0.3452  0.6543 -0.4795
  849SOL    HW3 3519   1.807   4.141   1.559  0.0605  0.3902 -0.3665
  849SOL    MW4 3520   1.815   4.226   1.574 -0.0601  0.3424 -0.0107
  850SOL     OW 3521   2.061   4.339   1.493 -0.0101  0.0375 -0.0252
  850SOL    HW2 3522   2.123   4.299   1.555 -0.1218  0.6443  0.4799
  850SOL    HW3 3523   2.053   4.430   1.522  0.0173  0.3558 -1.0029
  850SOL    MW4 3524   2.068   4.346   1.505 -0.0207  0.1593 -0.0876
  851SOL     OW 3525   2.480   4.637   1.587 -0.1600 -0.1428  0.1134
  851SOL    HW2 3526   2.470   4.621   1.681  0.9984  0.6357  0.3746
  851SOL    HW3 3527   2.394   4.667   1.559  0.0410  1.7407  1.3744
  851SOL    MW4 3528   2.467   4.639   1.596  0.0193  0.2084  0.3142
  852SOL     OW 3529   2.239   0.060   1.519  0.0623  0.2797  0.1514
  852SOL    HW2 3530   2.152   0.029   1.544  0.1135  1.0748  1.3643
  852SOL    HW3 3531   2.231   0.081   1.426 -0.6859 -0.8446 -0.0549
  852SOL    MW4 3532   2.226   0.058   1.510 -0.0298  0.2363  0.2843
  853SOL     OW 3533   2.250   0.345   1.603  0.1380  0.3650  0.2924
  853SOL    HW2 3534   2.242   0.353   1.698 -0.2079  1.5697  0.1735
  853SOL    HW3 3535   2.259   0.251   1.587  1.9155  0.2768  1.6490
  853SOL    MW4 3536   2.250   0.334   1.613  0.3264  0.5123  0.4559
  854SOL     OW 3537   2.463   0.476   1.481 -0.0182 -0.0949  0.3952
  854SOL    HW2 3538   2.542   0.444   1.525  0.0734 -1.3307 -0.6541
  854SOL    HW3 3539   2.391   0.438   1.532  0.0875 -1.2758 -0.3129
  854SOL    MW4 3540   2.464   0.466   1.494  0.0079 -0.4138  0.1633
  855SOL     OW 3541   2.462   0.724   1.594 -0.0288  0.2972 -0.5440
  855SOL    HW2 3542   2.405   0.763   1.527  0.4749 -0.3884 -1.3661
  855SOL    HW3 3543   2.484   0.638   1.560  0.8919  0.2647  0.1286
  855SOL    MW4 3544   2.457   0.718   1.581  0.1590  0.2024 -0.5636
  856SOL     OW 3545   2.274   0.872   1.455  0.3655  0.0216  0.1999
  856SOL    HW2 3546   2.253   0.963   1.476  0.2039 -0.1332  0.7126
  856SOL    HW3 3547   2.283   0.871   1.359  0.3722  0.5756  0.1934
  856SOL    MW4 3548   2.272   0.884   1.445  0.3450  0.0743  0.2667
  857SOL     OW 3549   2.254   1.121   1.551  0.1720  0.1804  0.8660
  857SOL    HW2 3550   2.234   1.116   1.644 -1.1146 -1.3322  0.5252
  857SOL    HW3 3551   2.174   1.156   1.511 -0.2621 -1.7445  0.0132
  857SOL    MW4 3552   2.241   1.125   1.558 -0.0551 -0.2731  0.7085
  858SOL     OW 3553   2.476   1.267   1.475 -0.2969  0.1181  0.3244
  858SOL    HW2 3554   2.406   1.210   1.508 -0.0266 -0.2960  0.1923
  858SOL    HW3 3555   2.456   1.279   1.383  0.9103 -1.6666 -0.1943
  858SOL    MW4 3556   2.464   1.261   1.468 -0.1018 -0.1720  0.2383
  859SOL     OW 3557   2.456   1.543   1.572 -0.2005 -0.3820 -0.2622
  859SOL    HW2 3558   2.535   1.595   1.560 -0.0749 -0.4452  0.3255
  859SOL    HW3 3559   2.480   1.455   1.544 -0.5242 -0.0509 -1.6404
  859SOL    MW4 3560   2.469   1.538   1.566 -0.2265 -0.3468 -0.3664
  860SOL     OW 3561   2.213   1.651   1.476  0.1230  0.3618 -0.2112
  860SOL    HW2 3562   2.285   1.602   1.515  0.1446  0.4325 -0.1609
  860SOL    HW3 3563   2.230   1.648   1.382 -0.2207 -0.2578 -0.2509
  860SOL    MW4 3564   2.224   1.644   1.469  0.0806  0.2894 -0.2098
  861SOL     OW 3565   2.256   1.906   1.578 -0.2518 -0.2448  0.3909
  861SOL    HW2 3566   2.251   1.899   1.673 -0.9039 -1.6182  0.2789
  861SOL    HW3 3567   2.249   1.815   1.547  0.3128  0.1551 -0.9489
  861SOL    MW4 3568   2.254   1.893   1.587 -0.2635 -0.3732  0.1992
  862SOL     OW 3569   2.483   2.026   1.491  0.4362  0.4664 -0.4063
  862SOL    HW2 3570   2.462   2.113   1.523  0.5999  0.1597  0.5596
  862SOL    HW3 3571   2.413   1.970   1.525  0.4708  0.1783 -0.8005
  862SOL    MW4 3572   2.471   2.030   1.499  0.4625  0.3879 -0.3309
  863SOL     OW 3573   1.978   2.274   1.593 -0.2594 -0.1695 -0.0307
  863SOL    HW2 3574   1.985   2.245   1.684 -1.1779  0.4403  0.2458
  863SOL    HW3 3575   1.981   2.194   1.542  0.3011 -0.5168  0.5364
  863SOL    MW4 3576   1.979   2.260   1.598 -0.3066 -0.1349  0.0806
  864SOL     OW 3577   2.214   2.413   1.512 -0.0524  0.0431  0.0584
  864SOL    HW2 3578   2.225   2.504   1.539  0.6743 -0.4312  1.3542
  864SOL    HW3 3579   2.134   2.385   1.555 -0.4040  0.1237 -0.5284
  864SOL    MW4 3580   2.205   2.422   1.521 -0.0026 -0.0088  0.1520
  865SOL     OW 3581   2.454   2.844   1.493  0.1200 -0.2863 -0.0095
  865SOL    HW2 3582   2.442   2.931   1.531 -1.4064 -0.2799 -0.4973
  865SOL    HW3 3583   2.384   2.792   1.531  0.5122 -1.0890 -0.3904
  865SOL    MW4 3584   2.444   2.849   1.503 -0.0293 -0.3912 -0.1241
  866SOL     OW 3585   2.255   3.425   1.173 -0.0416 -0.0649 -0.3041
  866SOL    HW2 3586   2.332   3.482   1.168  0.2057 -0.3990 -0.3275
  866SOL    HW3 3587   2.182   3.485   1.189  0.4042  0.1248  1.0774
  866SOL    MW4 3588   2.256   3.441   1.174  0.0501 -0.0842 -0.1249
  867SOL     OW 3589   2.477   3.075   1.627 -0.4501 -0.6471  0.6435
  867SOL    HW2 3590   2.552   3.118   1.587 -0.1269 -2.0994 -0.3422
  867SOL    HW3 3591   2.402   3.130   1.605  0.0696 -0.1823  0.0630
  867SOL    MW4 3592   2.477   3.088   1.619 -0.3390 -0.7777  0.4368
  868SOL     OW 3593   2.235   3.187   1.547  0.2078  0.1996 -0.1543
  868SOL    HW2 3594   2.206   3.277   1.566 -0.6123  0.1881 -1.3024
  868SOL    HW3 3595   2.223   3.178   1.453 -3.1702 -2.3198  0.4211
  868SOL    MW4 3596   2.229   3.198   1.537 -0.3462 -0.1342 -0.2300
  869SOL     OW 3597   2.222   3.472   1.581  0.0185 -0.2007 -0.0523
  869SOL    HW2 3598   2.225   3.475   1.676  0.3866  1.4927 -0.1067
  869SOL    HW3 3599   2.311   3.492   1.553 -0.7423  2.3274 -0.7931
  869SOL    MW4 3600   2.234   3.475   1.590 -0.0334  0.3564 -0.1572
  870SOL     OW 3601   2.464   3.560   1.485 -0.1307 -0.4498 -0.4540
  870SOL    HW2 3602   2.548   3.527   1.518  0.1500 -0.3066 -1.0326
  870SOL    HW3 3603   2.469   3.655   1.497 -0.1488 -0.4262 -0.6424
  870SOL    MW4 3604   2.476   3.568   1.491 -0.0958 -0.4280 -0.5552
  871SOL     OW 3605   2.473   3.819   1.550 -0.4171 -0.0014  0.5886
  871SOL    HW2 3606   2.474   3.807   1.645 -0.2676 -0.3803  0.5408
  871SOL    HW3 3607   2.559   3.856   1.529 -0.7979  0.9653  0.7104
  871SOL    MW4 3608   2.485   3.822   1.560 -0.4475  0.0763  0.5983
  872SOL     OW 3609   2.245   3.990   1.495  0.2188 -0.3567 -0.6496
  872SOL    HW2 3610   2.320   3.933   1.513 -0.1538 -0.8101 -0.5106
  872SOL    HW3 3611   2.247   4.004   1.401  1.0746  0.4717 -0.5182
  872SOL    MW4 3612   2.255   3.984   1.485  0.2828 -0.3073 -0.6140
  873SOL     OW 3613   2.266   4.213   1.647 -0.3981 -0.2743 -0.2347
  873SOL    HW2 3614   2.337   4.272   1.620  0.6015 -0.4433  1.9157
  873SOL    HW3 3615   2.259   4.150   1.575  0.7011  0.5559 -1.1026
  873SOL    MW4 3616   2.275   4.212   1.634 -0.1214 -0.1874 -0.0654
  874SOL     OW 3617   2.486   4.360   1.539 -0.2487  0.4340  0.4152
  874SOL    HW2 3618   2.479   4.455   1.551  1.1265  0.3827  1.8126
  874SOL    HW3 3619   2.471   4.347   1.445 -0.4277  2.0357  0.2034
  874SOL    MW4 3620   2.483   4.371   1.528 -0.0906  0.6390  0.5715
  875SOL     OW 3621   2.940   4.623   1.620  0.1969  0.0826  0.3071
  875SOL    HW2 3622   2.949   4.606   1.714 -0.6115  0.5115  0.4702
  875SOL    HW3 3623   2.859   4.673   1.613  0.4963  0.4527 -0.5741
  875SOL    MW4 3624   2.931   4.627   1.631  0.1297  0.1879  0.2123
  876SOL     OW 3625   2.713   0.099   1.541 -0.6066 -0.1079 -0.3192
  876SOL    HW2 3626   2.703   0.193   1.559  0.7751 -0.2805  1.5208
  876SOL    HW3 3627   2.625   0.064   1.548 -1.2334  1.1523 -1.6448
  876SOL    MW4 3628   2.700   0.107   1.544 -0.5071  0.0356 -0.2513
  877SOL     OW 3629   2.688   0.365   1.596  0.1311 -0.0976  0.0662
  877SOL    HW2 3630   2.693   0.345   1.689 -1.4876  1.2033  0.4388
  877SOL    HW3 3631   2.766   0.418   1.579 -0.7862  1.6300  1.1791
  877SOL    MW4 3632   2.699   0.369   1.606 -0.2036  0.3020  0.2621
  878SOL     OW 3633   2.921   0.475   1.532 -0.2271  0.3852  0.0279
  878SOL    HW2 3634   2.938   0.564   1.561 -0.5072  0.1492  0.9313
  878SOL    HW3 3635   2.919   0.480   1.436  1.8438  0.9790 -0.0045
  878SOL    MW4 3636   2.923   0.487   1.523  0.0091  0.4324  0.1428
  879SOL     OW 3637   2.922   0.749   1.624  0.0277  0.1088 -0.3117
  879SOL    HW2 3638   2.916   0.737   1.719 -0.6643  0.1119 -0.3505
  879SOL    HW3 3639   2.845   0.801   1.602  1.0575  1.5306 -0.6463
  879SOL    MW4 3640   2.911   0.755   1.633  0.0722  0.2968 -0.3610
  880SOL     OW 3641   2.691   0.873   1.525 -0.3214 -0.1076  0.2913
  880SOL    HW2 3642   2.615   0.828   1.563 -0.7838 -0.3020 -0.8331
  880SOL    HW3 3643   2.684   0.857   1.431  2.2701 -1.8693  0.3482
  880SOL    MW4 3644   2.680   0.865   1.518 -0.0405 -0.3657  0.1506
  881SOL     OW 3645   2.708   1.140   1.582 -0.2958  0.1888 -0.1653
  881SOL    HW2 3646   2.716   1.050   1.550  1.1660  0.6612 -1.1983
  881SOL    HW3 3647   2.629   1.174   1.540 -0.4725 -0.4055 -0.3075
  881SOL    MW4 3648   2.699   1.133   1.572 -0.1264  0.1727 -0.3203
  882SOL     OW 3649   2.935   1.255   1.471  0.0956  0.3229 -0.2313
  882SOL    HW2 3650   2.995   1.184   1.493  0.4001  0.9189  0.8902
  882SOL    HW3 3651   2.853   1.233   1.516  1.2153  2.3667  2.9225
  882SOL    MW4 3652   2.932   1.243   1.480  0.2837  0.6711  0.3327
  883SOL     OW 3653   2.956   1.499   1.618 -0.2986  0.1847 -0.2722
  883SOL    HW2 3654   2.873   1.539   1.592 -0.9978 -0.4367  0.9317
  883SOL    HW3 3655   2.957   1.415   1.573 -0.0999  0.3919 -0.6569
  883SOL    MW4 3656   2.945   1.493   1.609 -0.3645  0.1301 -0.1642
  884SOL     OW 3657   2.733   1.643   1.535  0.1194  0.3265 -0.0001
  884SOL    HW2 3658   2.741   1.737   1.548 -1.9362  0.4567  0.5421
  884SOL    HW3 3659   2.730   1.631   1.440 -1.3813  0.9747 -0.0342
  884SOL    MW4 3660   2.734   1.654   1.524 -0.3500  0.4290  0.0670
  885SOL     OW 3661   2.716   1.903   1.616 -0.0395  0.2193 -0.3168
  885SOL    HW2 3662   2.686   1.886   1.705  0.9800  0.1582  0.0168
  885SOL    HW3 3663   2.640   1.941   1.572 -0.5536  0.2223  0.5635
  885SOL    MW4 3664   2.702   1.906   1.622  0.0267  0.2116 -0.1566
  886SOL     OW 3665   2.924   2.050   1.514  0.3517 -0.4296  0.0606
  886SOL    HW2 3666   2.921   2.141   1.541  1.2450 -0.6189  0.8137
  886SOL    HW3 3667   2.858   2.006   1.568  1.1976 -0.5599  1.0054
  886SOL    MW4 3668   2.915   2.056   1.524  0.5810 -0.4718  0.2848
  887SOL     OW 3669   3.172   2.427   1.489  0.4345 -0.1521  0.3648
  887SOL    HW2 3670   3.239   2.385   1.542  0.4561 -0.3364  0.1908
  887SOL    HW3 3671   3.090   2.384   1.515  0.3402  0.2669  0.7818
  887SOL    MW4 3672   3.170   2.416   1.500  0.4249 -0.1211  0.3967
  888SOL     OW 3673   2.449   2.276   1.574  0.2423  0.2051 -0.3484
  888SOL    HW2 3674   2.365   2.314   1.547 -1.2010 -1.9944  0.8448
  888SOL    HW3 3675   2.452   2.290   1.669  1.3392  0.4826 -0.4199
  888SOL    MW4 3676   2.438   2.283   1.583  0.1965 -0.0484 -0.2003
  889SOL     OW 3677   2.679   2.686   1.847 -0.0663  0.7589  0.4029
  889SOL    HW2 3678   2.668   2.708   1.754  0.1440 -0.7227  0.0205
  889SOL    HW3 3679   2.593   2.702   1.885 -1.0991 -1.8868 -0.7387
  889SOL    MW4 3680   2.666   2.691   1.839 -0.1748  0.2146  0.2019
  890SOL     OW 3681   2.917   2.785   1.482 -0.2683 -0.3172  0.2842
  890SOL    HW2 3682   2.989   2.736   1.521 -0.3924  0.4983  1.5751
  890SOL    HW3 3683   2.905   2.860   1.540 -3.8691 -1.7965  1.6158
  890SOL    MW4 3684   2.925   2.788   1.495 -0.7598 -0.4046  0.6301
  891SOL     OW 3685   2.923   3.050   1.578 -0.3410  0.1597 -0.1909
  891SOL    HW2 3686   2.935   3.045   1.673 -0.2262 -0.0836 -0.2190
  891SOL    HW3 3687   3.011   3.072   1.544 -0.3117 -0.0722 -0.2673
  891SOL    MW4 3688   2.936   3.052   1.586 -0.3219  0.0970 -0.2046
  892SOL     OW 3689   2.699   3.186   1.508 -0.1894 -0.1770 -0.5508
  892SOL    HW2 3690   2.787   3.155   1.526 -0.5170 -0.1521  1.1525
  892SOL    HW3 3691   2.698   3.203   1.414  1.5489 -0.3771 -0.6104
  892SOL    MW4 3692   2.710   3.184   1.498 -0.0033 -0.2000 -0.3339
  893SOL     OW 3693   2.712   3.469   1.573 -0.1647  0.0728  0.4905
  893SOL    HW2 3694   2.701   3.481   1.667  0.2854 -0.0440  0.5618
  893SOL    HW3 3695   2.694   3.376   1.559 -2.2487  0.5207  0.1527
  893SOL    MW4 3696   2.708   3.458   1.584 -0.3803  0.1161  0.4554
  894SOL     OW 3697   2.975   3.574   1.491  0.3968 -0.6487  0.3679
  894SOL    HW2 3698   2.903   3.516   1.518  0.0118 -0.3433 -0.0014
  894SOL    HW3 3699   2.976   3.568   1.396  0.1112  0.2576  0.3112
  894SOL    MW4 3700   2.966   3.565   1.482  0.3083 -0.4890  0.3117
  895SOL     OW 3701   2.942   3.837   1.595 -0.5109 -0.5616 -0.3832
  895SOL    HW2 3702   2.866   3.876   1.552  0.0306  0.7159 -0.1994
  895SOL    HW3 3703   2.946   3.748   1.559 -1.4683 -0.2939 -1.1872
  895SOL    MW4 3704   2.932   3.830   1.584 -0.5660 -0.3576 -0.4649
  896SOL     OW 3705   2.705   3.933   1.502  0.0683 -0.4002  0.2713
  896SOL    HW2 3706   2.695   4.014   1.550  0.3001  0.5392 -1.2312
  896SOL    HW3 3707   2.701   3.959   1.409  1.8337 -1.8492 -0.2452
  896SOL    MW4 3708   2.703   3.947   1.496  0.3321 -0.4673  0.0050
  897SOL     OW 3709   2.698   4.198   1.628 -0.2636 -0.2849 -0.1065
  897SOL    HW2 3710   2.774   4.252   1.604 -0.1725 -0.3645  0.0027
  897SOL    HW3 3711   2.623   4.246   1.593 -0.1179 -0.5060 -0.7286
  897SOL    MW4 3712   2.699   4.212   1.621 -0.2322 -0.3247 -0.1743
  898SOL     OW 3713   2.921   4.348   1.539 -0.0701  0.2201  0.0609
  898SOL    HW2 3714   2.923   4.443   1.549  1.1385  0.2378 -0.2501
  898SOL    HW3 3715   2.925   4.334   1.445 -0.5344 -0.1385  0.0937
  898SOL    MW4 3716   2.922   4.359   1.528  0.0281  0.1750  0.0242
  899SOL     OW 3717   3.345   4.608   1.575  0.2703  0.3609  0.1472
  899SOL    HW2 3718   3.426   4.655   1.556  1.1794 -1.5810 -0.9742
  899SOL    HW3 3719   3.361   4.519   1.544 -2.2094 -0.1235  0.1170
  899SOL    MW4 3720   3.358   4.603   1.568  0.0632  0.0405 -0.0046
  900SOL     OW 3721   3.132   0.093   1.492 -0.1424 -0.5169 -0.0028
  900SOL    HW2 3722   3.213   0.047   1.512  1.1742  1.6672 -0.1442
  900SOL    HW3 3723   3.063   0.041   1.533  1.3982 -2.0302  0.6896
  900SOL    MW4 3724   3.133   0.080   1.500  0.2346 -0.4284  0.0700
  901SOL     OW 3725   3.126   0.326   1.630 -0.1649 -0.8071 -0.5364
  901SOL    HW2 3726   3.135   0.236   1.601 -0.8273 -1.0466 -0.0167
  901SOL    HW3 3727   3.051   0.360   1.582 -1.3079 -1.2267  0.9018
  901SOL    MW4 3728   3.117   0.319   1.620 -0.4027 -0.8941 -0.2781
  902SOL     OW 3729   3.348   0.483   1.576  0.1908  0.1291  0.0700
  902SOL    HW2 3730   3.284   0.427   1.621  0.7741 -1.5075 -1.1056
  902SOL    HW3 3731   3.331   0.468   1.483  1.3230  0.7924 -0.2462
  902SOL    MW4 3732   3.337   0.473   1.569  0.4172  0.0007 -0.1268
  903SOL     OW 3733   3.382   0.749   1.628 -0.1731 -0.4130 -0.1125
  903SOL    HW2 3734   3.371   0.757   1.722 -1.4834 -0.5302 -0.2455
  903SOL    HW3 3735   3.376   0.655   1.611 -0.0374 -0.3842 -0.3207
  903SOL    MW4 3736   3.380   0.738   1.638 -0.3278 -0.4246 -0.1576
  904SOL     OW 3737   3.150   0.856   1.517  0.2761  0.0581  0.2417
  904SOL    HW2 3738   3.226   0.817   1.559  0.0099  0.4167  1.0583
  904SOL    HW3 3739   3.075   0.817   1.560  0.0106  1.2704  0.8849
  904SOL    MW4 3740   3.150   0.846   1.528  0.2058  0.2654  0.4343
  905SOL     OW 3741   3.154   1.118   1.605  0.0843 -0.2026 -0.0119
  905SOL    HW2 3742   3.152   1.107   1.700 -1.1129  0.1214  0.0082
  905SOL    HW3 3743   3.172   1.030   1.572 -0.4922 -0.5169  0.4868
  905SOL    MW4 3744   3.156   1.105   1.613 -0.1495 -0.2013  0.0565
  906SOL     OW 3745   3.372   1.271   1.529 -0.1405 -0.6004  0.0642
  906SOL    HW2 3746   3.445   1.217   1.560  0.4272  0.7820  1.1973
  906SOL    HW3 3747   3.295   1.231   1.568  0.0259 -1.8943 -0.8951
  906SOL    MW4 3748   3.372   1.258   1.538 -0.0436 -0.5887  0.0871
  907SOL     OW 3749   3.409   1.547   1.625  0.3743  0.7170 -0.3811
  907SOL    HW2 3750   3.405   1.534   1.719  1.6556  0.8312 -0.2977
  907SOL    HW3 3751   3.419   1.459   1.588 -0.6268  0.6251 -0.4528
  907SOL    MW4 3752   3.410   1.534   1.632  0.4110  0.7199 -0.3794
  908SOL     OW 3753   3.177   1.656   1.533 -0.1743  0.2526  0.7960
  908SOL    HW2 3754   3.260   1.616   1.561 -0.0164  0.0126 -0.0205
  908SOL    HW3 3755   3.110   1.601   1.573  0.0418  1.5024  2.9845
  908SOL    MW4 3756   3.179   1.644   1.542 -0.1247  0.3859  0.9770
  909SOL     OW 3757   3.177   1.927   1.602  0.4155  0.0565 -0.0168
  909SOL    HW2 3758   3.175   1.839   1.563  2.1517  0.6030 -1.4003
  909SOL    HW3 3759   3.105   1.974   1.560  0.7595 -0.0880 -0.7606
  909SOL    MW4 3760   3.167   1.921   1.592  0.6900  0.1096 -0.2974
  910SOL     OW 3761   3.403   2.040   1.495  0.3871 -0.1329 -0.2974
  910SOL    HW2 3762   3.323   1.995   1.524 -0.6019  1.6809 -0.0791
  910SOL    HW3 3763   3.395   2.043   1.400  1.2494 -1.8174 -0.4341
  910SOL    MW4 3764   3.391   2.034   1.487  0.3705 -0.1159 -0.2867
  911SOL     OW 3765   3.391   2.295   1.599  0.4297 -0.1184 -0.1260
  911SOL    HW2 3766   3.381   2.204   1.570  0.8508 -0.4691  0.8297
  911SOL    HW3 3767   3.386   2.291   1.694  0.9467  0.8072 -0.0585
  911SOL    MW4 3768   3.389   2.283   1.607  0.5534 -0.0424  0.0089
  912SOL     OW 3769   2.664   2.701   1.576  0.2213 -0.2246  0.4727
  912SOL    HW2 3770   2.601   2.767   1.547  0.2211 -0.4193  0.0185
  912SOL    HW3 3771   2.749   2.734   1.546  0.1451 -0.7588 -0.3686
  912SOL    MW4 3772   2.667   2.714   1.568  0.2110 -0.3209  0.3017
  913SOL     OW 3773   3.128   2.663   1.603 -0.6498  0.1038  0.0123
  913SOL    HW2 3774   3.208   2.705   1.571  0.1966 -0.5833  1.2076
  913SOL    HW3 3775   3.134   2.573   1.571 -1.0865  0.1214 -0.1241
  913SOL    MW4 3776   3.139   2.657   1.594 -0.5953  0.0153  0.1520
  914SOL     OW 3777   3.368   2.776   1.509  0.1111  0.2243  0.3451
  914SOL    HW2 3778   3.445   2.726   1.539  0.8644  1.4368  0.4577
  914SOL    HW3 3779   3.383   2.865   1.541 -1.2443  0.5188  0.1760
  914SOL    MW4 3780   3.380   2.781   1.517  0.0317  0.4230  0.3376
  915SOL     OW 3781   3.424   3.048   1.600  0.2149 -0.0220 -0.6855
  915SOL    HW2 3782   3.400   3.074   1.689 -1.6583  0.0025 -1.1680
  915SOL    HW3 3783   3.489   3.113   1.573 -0.5456  1.0692  0.0163
  915SOL    MW4 3784   3.429   3.060   1.609 -0.1323  0.1254 -0.6567
  916SOL     OW 3785   3.173   3.140   1.497  0.1230  0.0604  0.4615
  916SOL    HW2 3786   3.258   3.105   1.522  0.4701  1.0954  0.7329
  916SOL    HW3 3787   3.184   3.171   1.407  0.2064  0.7431  0.7014
  916SOL    MW4 3788   3.185   3.140   1.488  0.1800  0.2871  0.5288
  917SOL     OW 3789   3.190   3.418   1.592  0.4040  0.3238 -0.1244
  917SOL    HW2 3790   3.163   3.331   1.562  0.0175 -0.4656  2.3928
  917SOL    HW3 3791   3.124   3.477   1.555 -0.7100 -0.7546  0.1104
  917SOL    MW4 3792   3.177   3.414   1.583  0.2065  0.0772  0.2387
  918SOL     OW 3793   3.396   3.577   1.518 -0.1323 -0.0585 -0.0575
  918SOL    HW2 3794   3.476   3.550   1.565 -0.6534  0.4726  1.1708
  918SOL    HW3 3795   3.328   3.521   1.554 -1.0068  2.0271  1.6858
  918SOL    MW4 3796   3.398   3.566   1.529 -0.3164  0.2866  0.3346
  919SOL     OW 3797   3.399   3.845   1.573  0.3533 -0.2610 -0.5229
  919SOL    HW2 3798   3.310   3.880   1.561  0.9359  1.1627 -0.8111
  919SOL    HW3 3799   3.388   3.750   1.569 -1.4202 -0.1691  1.2336
  919SOL    MW4 3800   3.386   3.837   1.571  0.1962 -0.0610 -0.3293
  920SOL     OW 3801   3.166   3.974   1.517  0.4760 -0.2860  0.2641
  920SOL    HW2 3802   3.165   4.063   1.552  0.3571 -0.0560 -0.3099
  920SOL    HW3 3803   3.086   3.934   1.549  1.1522 -0.6054  1.5753
  920SOL    MW4 3804   3.155   3.980   1.526  0.5496 -0.2980  0.3614
  921SOL     OW 3805   3.170   4.225   1.631  0.0920 -0.3994 -0.3617
  921SOL    HW2 3806   3.165   4.240   1.725  0.1138  0.7727 -0.5381
  921SOL    HW3 3807   3.100   4.278   1.594  1.7839  1.2873 -1.2239
  921SOL    MW4 3808   3.160   4.234   1.638  0.3181 -0.0219 -0.4985
  922SOL     OW 3809   3.394   4.345   1.509 -0.2870  0.4967 -0.6149
  922SOL    HW2 3810   3.321   4.302   1.553  0.0742 -0.9935 -1.4385
  922SOL    HW3 3811   3.382   4.326   1.416  1.3636 -0.1100 -0.7227
  922SOL    MW4 3812   3.383   4.337   1.502 -0.0215  0.2203 -0.7379
  923SOL     OW 3813   3.832   4.627   1.594 -0.1448 -0.5084 -0.2728
  923SOL    HW2 3814   3.829   4.645   1.688 -0.6081 -1.2623 -0.1388
  923SOL    HW3 3815   3.917   4.661   1.566 -0.8214  1.5074  0.0308
  923SOL    MW4 3816   3.843   4.634   1.602 -0.2954 -0.3424 -0.2151
  924SOL     OW 3817   3.569   0.101   1.500 -0.4148  0.0520  0.1848
  924SOL    HW2 3818   3.636   0.044   1.539 -1.1362  0.8052  2.5971
  924SOL    HW3 3819   3.591   0.103   1.407  1.3960 -1.7699  0.5378
  924SOL    MW4 3820   3.581   0.094   1.493 -0.2711 -0.0890  0.5496
  925SOL     OW 3821   3.574   0.348   1.649  0.1994  0.1953  0.3947
  925SOL    HW2 3822   3.559   0.265   1.604 -1.1658 -0.3976  1.8987
  925SOL    HW3 3823   3.504   0.405   1.619  1.7162  1.1630 -1.4112
  925SOL    MW4 3824   3.563   0.344   1.639  0.2191  0.2447  0.3550
  926SOL     OW 3825   3.795   0.468   1.529  0.8124 -0.1824  0.7686
  926SOL    HW2 3826   3.722   0.423   1.572  0.2783 -0.2743 -0.1989
  926SOL    HW3 3827   3.796   0.555   1.568  0.5452 -0.3672  1.1953
  926SOL    MW4 3828   3.786   0.473   1.539  0.7067 -0.2189  0.6971
  927SOL     OW 3829   3.834   0.736   1.598  0.1138  0.7316  0.8447
  927SOL    HW2 3830   3.745   0.771   1.594 -0.5671 -0.9729  0.7491
  927SOL    HW3 3831   3.852   0.725   1.691 -0.6211 -0.9750  0.8076
  927SOL    MW4 3832   3.825   0.739   1.609 -0.0730  0.2815  0.8272
  928SOL     OW 3833   3.604   0.868   1.530 -0.0231  0.3567 -0.8633
  928SOL    HW2 3834   3.596   0.863   1.435  1.0833 -0.6960 -0.9002
  928SOL    HW3 3835   3.524   0.827   1.563  0.8577 -1.7904 -1.3238
  928SOL    MW4 3836   3.592   0.862   1.522  0.2389 -0.0654 -0.9289
  929SOL     OW 3837   3.581   1.145   1.632  0.5285 -0.2337 -0.4133
  929SOL    HW2 3838   3.645   1.197   1.584 -0.6418  0.7140 -0.9805
  929SOL    HW3 3839   3.591   1.056   1.596  0.8183  0.1165 -1.2142
  929SOL    MW4 3840   3.591   1.140   1.621  0.4125 -0.0625 -0.5939
  930SOL     OW 3841   3.787   1.287   1.495 -0.2922 -0.3516  0.0580
  930SOL    HW2 3842   3.861   1.237   1.528  0.7094  0.8180 -0.3852
  930SOL    HW3 3843   3.800   1.376   1.529 -1.5302 -0.1475  0.0428
  930SOL    MW4 3844   3.798   1.292   1.504 -0.3235 -0.1702 -0.0025
  931SOL     OW 3845   3.811   1.522   1.608  0.2741  0.0650  0.1097
  931SOL    HW2 3846   3.811   1.541   1.702 -1.8643 -1.8769  0.5587
  931SOL    HW3 3847   3.748   1.583   1.571 -0.3515 -0.4868  0.2547
  931SOL    MW4 3848   3.803   1.533   1.616 -0.0906 -0.2639  0.1881
  932SOL     OW 3849   3.623   1.677   1.490 -0.1990 -0.2610 -0.0038
  932SOL    HW2 3850   3.548   1.623   1.516  0.3038 -1.5533 -1.1462
  932SOL    HW3 3851   3.611   1.690   1.396  0.2581  0.7178  0.0732
  932SOL    MW4 3852   3.611   1.672   1.481 -0.0725 -0.3023 -0.1444
  933SOL     OW 3853   3.633   1.934   1.617 -0.2259  0.1140 -0.0742
  933SOL    HW2 3854   3.549   1.970   1.591 -0.9290 -0.9001  0.7326
  933SOL    HW3 3855   3.637   1.849   1.574 -0.2816 -0.4729  1.0470
  933SOL    MW4 3856   3.622   1.927   1.608 -0.3259 -0.0970  0.1802
  934SOL     OW 3857   3.873   2.044   1.528  0.5029  0.1637  0.3419
  934SOL    HW2 3858   3.867   2.130   1.570  0.7486  0.5915 -0.4948
  934SOL    HW3 3859   3.792   2.000   1.551 -0.8037  1.6059 -1.3824
  934SOL    MW4 3860   3.862   2.050   1.537  0.3629  0.4103  0.0042
  935SOL     OW 3861   3.815   2.313   1.610 -0.3852  0.6194 -0.2208
  935SOL    HW2 3862   3.817   2.314   1.706 -0.7977  0.0571 -0.2050
  935SOL    HW3 3863   3.888   2.369   1.584  0.8049 -0.6033  0.4181
  935SOL    MW4 3864   3.825   2.320   1.619 -0.2828  0.3839 -0.1345
  936SOL     OW 3865   3.604   2.418   1.485  0.3653 -0.0493 -0.1900
  936SOL    HW2 3866   3.672   2.367   1.529  0.2140  0.8744  1.1409
  936SOL    HW3 3867   3.522   2.381   1.516  0.2589 -0.0313 -0.4498
  936SOL    MW4 3868   3.602   2.406   1.495  0.3312  0.0749 -0.0486
  937SOL     OW 3869   3.588   2.665   1.635 -0.2924  0.1222  0.1954
  937SOL    HW2 3870   3.604   2.665   1.730  1.3034  0.9019 -0.0580
  937SOL    HW3 3871   3.602   2.574   1.608 -0.6783 -0.0871  0.6898
  937SOL    MW4 3872   3.592   2.653   1.644 -0.1328  0.1972  0.2273
  938SOL     OW 3873   3.779   2.831   1.510  0.1262 -0.4108 -0.1005
  938SOL    HW2 3874   3.852   2.774   1.534 -1.3523 -1.8861  1.0362
  938SOL    HW3 3875   3.703   2.789   1.549 -1.1902  1.6675 -0.3631
  938SOL    MW4 3876   3.779   2.818   1.518 -0.2427 -0.3312  0.0150
  939SOL     OW 3877   3.794   3.079   1.618  0.0020 -0.1164  0.8472
  939SOL    HW2 3878   3.883   3.108   1.597 -0.6236  0.6846 -0.7878
  939SOL    HW3 3879   3.791   2.989   1.587  0.1341 -0.0230  0.5567
  939SOL    MW4 3880   3.805   3.071   1.611 -0.0629  0.0017  0.5932
  940SOL     OW 3881   3.609   3.228   1.493  0.0623 -0.3328 -0.4564
  940SOL    HW2 3882   3.673   3.160   1.513  1.0840  0.5150 -0.7821
  940SOL    HW3 3883   3.625   3.249   1.401 -0.3571  0.2135 -0.4094
  940SOL    MW4 3884   3.620   3.222   1.483  0.1416 -0.1490 -0.4930
  941SOL     OW 3885   3.627   3.464   1.627 -0.1474  0.1704  0.0197
  941SOL    HW2 3886   3.705   3.503   1.587  0.0814 -0.4733 -0.1572
  941SOL    HW3 3887   3.618   3.379   1.585 -0.4040 -0.1506  0.7202
  941SOL    MW4 3888   3.636   3.458   1.616 -0.1512  0.0432  0.0888
  942SOL     OW 3889   3.836   3.574   1.473  0.0621 -0.3060 -0.0746
  942SOL    HW2 3890   3.914   3.530   1.505 -0.3770 -0.5888  0.6052
  942SOL    HW3 3891   3.838   3.660   1.516  0.2019 -0.1655 -0.3586
  942SOL    MW4 3892   3.847   3.580   1.483  0.0226 -0.3247 -0.0224
  943SOL     OW 3893   3.847   3.824   1.584 -0.2020  0.7269 -0.0228
  943SOL    HW2 3894   3.919   3.877   1.551 -0.1995  0.9632  0.3537
  943SOL    HW3 3895   3.769   3.862   1.543 -0.1045  0.4089 -0.5067
  943SOL    MW4 3896   3.846   3.836   1.574 -0.1888  0.7160 -0.0371
  944SOL     OW 3897   3.628   3.961   1.495 -0.1092  0.1114  0.0812
  944SOL    HW2 3898   3.634   4.045   1.540  0.0221  0.3205 -0.3250
  944SOL    HW3 3899   3.546   3.923   1.526 -0.1008  0.3271  0.3725
  944SOL    MW4 3900   3.618   3.967   1.505 -0.0908  0.1671  0.0660
  945SOL     OW 3901   3.641   4.214   1.614  0.4006  0.0947  0.4064
  945SOL    HW2 3902   3.646   4.240   1.706 -0.5597  0.1905  0.4375
  945SOL    HW3 3903   3.555   4.245   1.585  0.9214  0.5616 -0.6777
  945SOL    MW4 3904   3.631   4.221   1.622  0.3426  0.1688  0.2675
  946SOL     OW 3905   3.846   4.369   1.512  0.2634  0.2337 -0.5517
  946SOL    HW2 3906   3.765   4.329   1.543 -0.3000  0.0740 -2.2110
  946SOL    HW3 3907   3.840   4.461   1.537  0.2904 -0.1148  0.7478
  946SOL    MW4 3908   3.835   4.375   1.519  0.1926  0.1669 -0.5991
  947SOL     OW 3909   4.277   4.627   1.641  0.5802 -0.2563  1.3190
  947SOL    HW2 3910   4.290   4.649   1.734 -0.0464 -1.4230  1.6904
  947SOL    HW3 3911   4.280   4.532   1.638  1.3846 -0.2060  0.0052
  947SOL    MW4 3912   4.279   4.618   1.653  0.6037 -0.4029  1.1947
  948SOL     OW 3913   4.061   0.055   1.505  0.4128  0.0214 -0.1857
  948SOL    HW2 3914   4.076   0.146   1.530 -0.3819 -0.0293  0.5111
  948SOL    HW3 3915   4.137   0.008   1.538 -0.0335  0.1564  1.0658
  948SOL    MW4 3916   4.073   0.061   1.512  0.2494  0.0326  0.0712
  949SOL     OW 3917   4.061   0.314   1.584 -0.3428 -0.0289  0.8624
  949SOL    HW2 3918   4.075   0.322   1.678 -1.7800 -0.2053  1.1030
  949SOL    HW3 3919   3.971   0.343   1.571 -0.6600 -1.4658 -0.2567
  949SOL    MW4 3920   4.051   0.319   1.595 -0.5746 -0.2417  0.7465
  950SOL     OW 3921   4.268   0.479   1.463  0.4049  0.1910 -0.0041
  950SOL    HW2 3922   4.202   0.432   1.515  1.3666 -0.7333  0.4156
  950SOL    HW3 3923   4.351   0.443   1.494  1.1727  2.2626  0.3811
  950SOL    MW4 3924   4.270   0.468   1.474  0.6332  0.3424  0.1022
  951SOL     OW 3925   4.245   0.750   1.549  0.3188  0.3524  0.2263
  951SOL    HW2 3926   4.252   0.661   1.513 -0.4554 -0.0876  1.1326
  951SOL    HW3 3927   4.324   0.794   1.518  0.1157 -0.2768 -1.2591
  951SOL    MW4 3928   4.256   0.744   1.540  0.1898  0.2113  0.1500
  952SOL     OW 3929   4.019   0.879   1.445 -0.0764  0.5994  0.4096
  952SOL    HW2 3930   4.095   0.831   1.477 -0.6169 -0.4608  0.1417
  952SOL    HW3 3931   3.944   0.836   1.487 -0.8076 -0.9470 -2.3360
  952SOL    MW4 3932   4.019   0.867   1.455 -0.2441  0.2555  0.0119
  953SOL     OW 3933   4.003   1.140   1.533  0.2587 -0.1877 -0.1800
  953SOL    HW2 3934   4.011   1.145   1.628  2.6930  0.1097 -0.3529
  953SOL    HW3 3935   4.012   1.047   1.512 -0.1727 -0.2416 -0.1165
  953SOL    MW4 3936   4.005   1.129   1.543  0.5231 -0.1557 -0.1945
  954SOL     OW 3937   4.221   1.266   1.437 -0.2449  0.7680 -0.0014
  954SOL    HW2 3938   4.138   1.223   1.457 -1.0898  1.5720 -1.6422
  954SOL    HW3 3939   4.288   1.204   1.466 -1.4119 -0.0982  0.8972
  954SOL    MW4 3940   4.219   1.252   1.443 -0.5107  0.7598 -0.0993
  955SOL     OW 3941   4.280   1.488   1.596 -0.2597  0.1850 -0.9765
  955SOL    HW2 3942   4.266   1.408   1.545  1.1992 -0.3646 -0.5529
  955SOL    HW3 3943   4.351   1.533   1.551  0.9622 -0.2452  0.4834
  955SOL    MW4 3944   4.288   1.483   1.584  0.0939  0.0558 -0.7279
  956SOL     OW 3945   4.052   1.627   1.535 -0.3909 -0.2296 -0.3769
  956SOL    HW2 3946   4.130   1.578   1.559  0.1029  1.0419  0.6664
  956SOL    HW3 3947   3.980   1.577   1.573 -0.0474 -1.1061 -0.8584
  956SOL    MW4 3948   4.053   1.614   1.543 -0.2804 -0.1775 -0.3029
  957SOL     OW 3949   4.097   1.894   1.619 -0.2122 -0.5271 -0.1384
  957SOL    HW2 3950   4.099   1.800   1.603 -1.0360 -0.6252  0.2768
  957SOL    HW3 3951   4.009   1.921   1.594 -0.1932  0.0160  0.3506
  957SOL    MW4 3952   4.085   1.885   1.614 -0.3185 -0.4684 -0.0191
  958SOL     OW 3953   4.274   2.081   1.499 -0.4553  0.2029  0.2068
  958SOL    HW2 3954   4.215   2.016   1.537  0.2190 -0.4195  0.2110
  958SOL    HW3 3955   4.256   2.079   1.405  0.7682 -1.2504 -0.0158
  958SOL    MW4 3956   4.264   2.072   1.492 -0.2046 -0.0713  0.1780
  959SOL     OW 3957   4.256   2.339   1.598 -0.0805 -0.6207 -0.4810
  959SOL    HW2 3958   4.246   2.332   1.693 -0.7852  0.9809 -0.4160
  959SOL    HW3 3959   4.279   2.251   1.569  1.3056 -0.8693  1.3198
  959SOL    MW4 3960   4.258   2.326   1.607  0.0095 -0.4418 -0.2348
  960SOL     OW 3961   4.036   2.451   1.474 -0.5272  0.2476  0.1868
  960SOL    HW2 3962   4.107   2.405   1.520 -1.8654 -0.5200  1.5001
  960SOL    HW3 3963   4.040   2.541   1.507 -0.9338 -0.0902  1.1558
  960SOL    MW4 3964   4.046   2.457   1.485 -0.7572  0.1020  0.4879
  961SOL     OW 3965   4.017   2.707   1.588 -0.4252 -0.0455 -0.2172
  961SOL    HW2 3966   4.025   2.700   1.683 -3.5200  1.2765  0.2032
  961SOL    HW3 3967   4.087   2.767   1.562 -1.0339  1.4990  1.5613
  961SOL    MW4 3968   4.027   2.714   1.597 -0.9136  0.3326  0.0730
  962SOL     OW 3969   4.240   2.838   1.505 -0.5458  0.1161  0.1221
  962SOL    HW2 3970   4.267   2.929   1.520 -1.6418  0.3182  1.0450
  962SOL    HW3 3971   4.233   2.830   1.410  1.3316  0.4530 -0.0540
  962SOL    MW4 3972   4.242   2.849   1.495 -0.4430  0.1872  0.2205
  963SOL     OW 3973   4.283   3.098   1.605  1.0648 -0.6408  0.1092
  963SOL    HW2 3974   4.260   3.121   1.695  0.2600 -0.9131 -0.0212
  963SOL    HW3 3975   4.358   3.153   1.584 -0.7596  1.8244 -0.1612
  963SOL    MW4 3976   4.290   3.108   1.614  0.7181 -0.3514  0.0561
  964SOL     OW 3977   4.048   3.200   1.528 -0.7707  0.0820 -0.1214
  964SOL    HW2 3978   4.054   3.293   1.552  0.2387 -0.0685  0.2518
  964SOL    HW3 3979   4.136   3.166   1.545 -0.8760 -0.7296 -1.1544
  964SOL    MW4 3980   4.061   3.208   1.533 -0.6514 -0.0448 -0.2085
  965SOL     OW 3981   4.065   3.460   1.573  0.4370  0.2212  0.2057
  965SOL    HW2 3982   4.065   3.482   1.667  1.7042 -1.8756  0.7320
  965SOL    HW3 3983   4.151   3.489   1.542  0.4523 -0.1043 -0.0578
  965SOL    MW4 3984   4.076   3.467   1.582  0.6061 -0.0982  0.2404
  966SOL     OW 3985   4.298   3.606   1.479 -0.6648 -0.2249 -0.1276
  966SOL    HW2 3986   4.299   3.700   1.499 -2.4152 -0.5462  1.6025
  966SOL    HW3 3987   4.295   3.602   1.383  0.3244  1.4556 -0.2467
  966SOL    MW4 3988   4.298   3.618   1.469 -0.7653 -0.0458  0.0849
  967SOL     OW 3989   4.286   3.868   1.563 -0.5875 -0.4059 -0.2516
  967SOL    HW2 3990   4.365   3.919   1.548 -0.8603 -0.0551 -0.5249
  967SOL    HW3 3991   4.271   3.872   1.658 -1.5219  1.4141 -0.4602
  967SOL    MW4 3992   4.294   3.875   1.574 -0.7467 -0.1197 -0.3151
  968SOL     OW 3993   4.038   4.000   1.466  0.3184 -0.1068 -0.2225
  968SOL    HW2 3994   4.049   4.078   1.520  0.4531  1.4273 -2.4310
  968SOL    HW3 3995   4.117   3.948   1.482  0.3902  0.3500  0.9706
  968SOL    MW4 3996   4.050   4.003   1.475  0.3457  0.1559 -0.3564
  969SOL     OW 3997   4.059   4.225   1.628  0.1303  0.3125  0.5648
  969SOL    HW2 3998   4.057   4.221   1.724 -0.3725  0.4372  0.5629
  969SOL    HW3 3999   3.980   4.274   1.605  0.5434  0.7682  0.1098
  969SOL    MW4 4000   4.048   4.231   1.638  0.1183  0.3896  0.5045
  970SOL     OW 4001   4.282   4.383   1.534  0.1472 -0.5718  0.1835
  970SOL    HW2 4002   4.213   4.323   1.561 -2.0000  1.4691 -0.5632
  970SOL    HW3 4003   4.265   4.398   1.441 -0.4056  2.4577  0.7247
  970SOL    MW4 4004   4.271   4.377   1.525 -0.2089  0.0973  0.1564
  971SOL     OW 4005   0.240   4.611   1.898 -0.5735 -0.0929 -0.0090
  971SOL    HW2 4006   0.320   4.660   1.917 -0.7974  0.2776 -0.0184
  971SOL    HW3 4007   0.234   4.610   1.803 -0.0206 -1.0319 -0.0449
  971SOL    MW4 4008   0.250   4.617   1.888 -0.5301 -0.1683 -0.0150
  972SOL     OW 4009   0.054   0.118   2.024 -0.7024 -0.0746 -0.0628
  972SOL    HW2 4010   0.034   0.202   1.982 -0.4536  0.1480  0.2565
  972SOL    HW3 4011   0.116   0.076   1.965 -0.7305  0.0238 -0.1632
  972SOL    MW4 4012   0.059   0.124   2.010 -0.6733 -0.0323 -0.0339
  973SOL     OW 4013   4.486   0.356   1.892  0.6161  0.0323 -0.5182
  973SOL    HW2 4014   4.412   0.414   1.911  0.2561  0.4587 -3.0507
  973SOL    HW3 4015   4.563   0.408   1.916  0.2602  1.2526 -1.9701
  973SOL    MW4 4016   4.486   0.371   1.898  0.5221  0.2496 -1.0439
  974SOL     OW 4017   0.229   0.487   1.958 -0.0720 -0.6688 -0.0351
  974SOL    HW2 4018   0.320   0.457   1.965 -0.0186 -0.7039 -0.9011
  974SOL    HW3 4019   0.234   0.568   1.908 -0.4268 -0.2164  0.6560
  974SOL    MW4 4020   0.242   0.494   1.953 -0.1118 -0.6137 -0.0582
  975SOL     OW 4021   0.242   0.714   1.832  0.0167  0.0908 -0.4592
  975SOL    HW2 4022   0.315   0.769   1.860  0.9016 -1.4314  0.2867
  975SOL    HW3 4023   0.237   0.728   1.737 -0.2228  1.9647 -0.1891
  975SOL    MW4 4024   0.251   0.723   1.823  0.1019  0.1372 -0.3252
  976SOL     OW 4025   0.044   0.883   1.920 -0.0084 -0.2832  0.1389
  976SOL    HW2 4026  -0.044   0.847   1.909  0.1835 -0.5009 -0.7227
  976SOL    HW3 4027   0.103   0.811   1.898  0.3798  0.2636 -0.6606
  976SOL    MW4 4028   0.040   0.869   1.916  0.0682 -0.2398 -0.0803
  977SOL     OW 4029   4.483   1.146   1.819 -0.2346  0.0134  0.3757
  977SOL    HW2 4030   4.423   1.165   1.891 -0.4598 -0.9588  0.4630
  977SOL    HW3 4031   4.505   1.053   1.830  1.2454  0.3427  0.3055
  977SOL    MW4 4032   4.478   1.136   1.830 -0.0696 -0.0714  0.3779
  978SOL     OW 4033   0.191   1.290   1.959  0.0610  0.1231  0.1283
  978SOL    HW2 4034   0.183   1.384   1.942 -0.1033 -0.0700 -0.8832
  978SOL    HW3 4035   0.124   1.250   1.905  1.5667 -0.7463 -1.1117
  978SOL    MW4 4036   0.181   1.297   1.950  0.2380 -0.0170 -0.1688
  979SOL     OW 4037   0.177   1.538   1.852  0.2036  0.1152  0.1871
  979SOL    HW2 4038   0.259   1.584   1.866  0.9731 -1.1026 -0.2713
  979SOL    HW3 4039   0.111   1.591   1.897  1.1198  1.4840 -0.0874
  979SOL    MW4 4040   0.179   1.551   1.860  0.4260  0.1351  0.0905
  980SOL     OW 4041   4.470   1.695   1.982 -0.2879  0.0330 -0.6158
  980SOL    HW2 4042   4.465   1.692   2.078  1.1518 -1.4302 -0.5701
  980SOL    HW3 4043   4.401   1.635   1.953 -0.0753 -0.2795 -0.4759
  980SOL    MW4 4044   4.460   1.686   1.991 -0.0696 -0.2013 -0.5913
  981SOL     OW 4045   0.042   1.916   1.822 -0.2989 -0.6910 -0.1644
  981SOL    HW2 4046  -0.020   1.978   1.861  0.1192 -0.6702  0.4735
  981SOL    HW3 4047   0.035   1.837   1.875 -1.2780 -1.4269 -1.3502
  981SOL    MW4 4048   0.033   1.914   1.834 -0.3729 -0.7854 -0.2366
  982SOL     OW 4049   0.237   2.065   1.953 -0.3835  0.1880 -0.4333
  982SOL    HW2 4050   0.232   2.152   1.914 -0.3838  0.5314  0.3286
  982SOL    HW3 4051   0.166   2.016   1.911 -1.6303  1.1292  0.5467
  982SOL    MW4 4052   0.227   2.070   1.942 -0.5480  0.3576 -0.2036
  983SOL     OW 4053   0.217   2.325   1.844  0.4143 -0.2996 -0.7674
  983SOL    HW2 4054   0.283   2.383   1.883 -0.6434  2.6589 -3.2241
  983SOL    HW3 4055   0.133   2.362   1.872 -0.2730 -1.0641 -1.7763
  983SOL    MW4 4056   0.215   2.338   1.853  0.1841 -0.0100 -1.2246
  984SOL     OW 4057   4.462   2.473   1.929 -0.7566 -0.1479 -0.1721
  984SOL    HW2 4058   4.483   2.470   2.023  1.4900  0.2181 -0.6335
  984SOL    HW3 4059   4.461   2.566   1.908 -0.4914 -0.2524 -0.6529
  984SOL    MW4 4060   4.465   2.485   1.939 -0.4253 -0.1135 -0.2965
  985SOL     OW 4061   4.468   2.756   1.842  0.3156  0.4458  0.1867
  985SOL    HW2 4062   4.398   2.820   1.856  1.2197  1.7025 -0.8871
  985SOL    HW3 4063   4.490   2.765   1.750 -1.2368 -3.2089 -0.6217
  985SOL    MW4 4064   4.462   2.765   1.832  0.2303  0.1292 -0.0616
  986SOL     OW 4065   0.218   2.828   1.974  0.2710  0.0556  0.1999
  986SOL    HW2 4066   0.219   2.924   1.969 -1.8406  0.1317  0.5420
  986SOL    HW3 4067   0.142   2.802   1.921 -0.0530 -1.3151  1.3052
  986SOL    MW4 4068   0.208   2.837   1.967 -0.0503 -0.1152  0.3908
  987SOL     OW 4069   0.232   3.101   1.909 -0.0164 -0.2437  0.3119
  987SOL    HW2 4070   0.313   3.145   1.936 -0.8562  1.5212  0.0242
  987SOL    HW3 4071   0.233   3.107   1.813 -1.2281  1.1664  0.3729
  987SOL    MW4 4072   0.243   3.107   1.900 -0.2871  0.1752  0.2819
  988SOL     OW 4073   4.483   3.241   1.993 -0.1190  0.0213  0.1029
  988SOL    HW2 4074   4.407   3.199   1.953  0.7611 -2.4433  0.9198
  988SOL    HW3 4075   4.557   3.188   1.964  1.1391  1.5861  0.4188
  988SOL    MW4 4076   4.483   3.229   1.984  0.1631 -0.0975  0.2522
  989SOL     OW 4077   0.048   3.471   1.863  0.3818  0.2838 -0.4628
  989SOL    HW2 4078   0.126   3.512   1.899 -0.7742  1.3658  0.8338
  989SOL    HW3 4079   0.040   3.388   1.912 -0.5163  1.2029  0.9963
  989SOL    MW4 4080   0.057   3.465   1.874  0.1108  0.5479 -0.0992
  990SOL     OW 4081   0.253   3.620   1.955 -0.4151 -0.3665  0.0043
  990SOL    HW2 4082   0.245   3.624   2.050 -0.9578 -0.2187 -0.0468
  990SOL    HW3 4083   0.334   3.571   1.940 -1.2598 -1.9743  0.5433
  990SOL    MW4 4084   0.262   3.614   1.965 -0.5982 -0.5591  0.0687
  991SOL     OW 4085   0.223   3.866   1.855 -0.1829 -0.2116 -0.1335
  991SOL    HW2 4086   0.151   3.908   1.902  0.3210  0.6213 -0.0968
  991SOL    HW3 4087   0.227   3.778   1.891 -1.0001 -0.1755  0.0695
  991SOL    MW4 4088   0.214   3.860   1.866 -0.2243 -0.0970 -0.1018
  992SOL     OW 4089   0.028   3.993   1.989 -0.2004  0.0597  0.3492
  992SOL    HW2 4090   0.045   4.086   1.973 -1.2837 -0.1618 -2.2968
  992SOL    HW3 4091   0.023   3.986   2.084  1.8847  2.3352  0.6894
  992SOL    MW4 4092   0.030   4.004   2.000 -0.0682  0.3309  0.0448
  993SOL     OW 4093   0.047   4.251   1.885 -0.2294 -0.0464 -0.5473
  993SOL    HW2 4094  -0.035   4.292   1.911  0.1601  1.2997 -1.3811
  993SOL    HW3 4095   0.114   4.299   1.933  0.1544 -0.4811 -0.6404
  993SOL    MW4 4096   0.045   4.263   1.895 -0.1273  0.0734 -0.6697
  994SOL     OW 4097   0.264   4.359   2.026 -0.1458 -0.4628 -0.1100
  994SOL    HW2 4098   0.241   4.372   2.118  0.8936 -0.3678  0.1466
  994SOL    HW3 4099   0.257   4.446   1.987  0.3771 -0.3177  0.1107
  994SOL    MW4 4100   0.260   4.372   2.033  0.0603 -0.4311 -0.0470
  995SOL     OW 4101   0.658   4.662   1.856  0.3475  0.0638  0.3220
  995SOL    HW2 4102   0.630   4.583   1.902 -2.0191  1.3616  1.1950
  995SOL    HW3 4103   0.671   4.635   1.765  0.2320 -1.4503  0.7527
  995SOL    MW4 4104   0.656   4.648   1.850  0.0199  0.0353  0.4939
  996SOL     OW 4105   0.446   0.136   1.940 -0.3383 -0.4277 -0.1957
  996SOL    HW2 4106   0.458   0.231   1.945 -0.9290 -0.2318 -2.3232
  996SOL    HW3 4107   0.523   0.104   1.894 -1.1413 -0.7223 -1.3617
  996SOL    MW4 4108   0.457   0.144   1.935 -0.5222 -0.4407 -0.6301
  997SOL     OW 4109   0.482   0.410   1.904  0.0588  0.1022  0.3315
  997SOL    HW2 4110   0.565   0.455   1.919  0.5343 -0.6938  0.1150
  997SOL    HW3 4111   0.474   0.406   1.809 -0.0736 -0.1106  0.3526
  997SOL    MW4 4112   0.492   0.416   1.893  0.1041 -0.0309  0.3058
  998SOL     OW 4113   0.732   0.532   1.929  0.1291  0.2450  0.0337
  998SOL    HW2 4114   0.718   0.513   2.022 -2.1421 -0.3224 -0.4000
  998SOL    HW3 4115   0.796   0.466   1.901 -0.6206 -0.8090  0.7529
  998SOL    MW4 4116   0.739   0.521   1.938 -0.2695  0.0311  0.0713
  999SOL     OW 4117   0.676   0.792   1.848  0.8789  0.6054 -0.3951
  999SOL    HW2 4118   0.764   0.826   1.863  1.2926 -0.9993  0.8217
  999SOL    HW3 4119   0.679   0.701   1.877 -0.8812  0.2063 -1.3780
  999SOL    MW4 4120   0.688   0.785   1.854  0.7012  0.3409 -0.3643
 1000SOL     OW 4121   0.433   0.879   1.964 -0.0294 -0.0958 -0.0909
 1000SOL    HW2 4122   0.421   0.967   1.928 -0.0075 -0.5015 -1.1114
 1000SOL    HW3 4123   0.517   0.850   1.930 -0.0121 -0.4967  0.2847
 1000SOL    MW4 4124   0.442   0.887   1.955 -0.0243 -0.2022 -0.1758
 1001SOL     OW 4125   0.405   1.128   1.877 -0.0076 -0.2344 -0.7047
 1001SOL    HW2 4126   0.335   1.180   1.915 -0.0135 -1.8313  1.5873
 1001SOL    HW3 4127   0.385   1.125   1.783 -2.0027  0.8125 -0.3342
 1001SOL    MW4 4128   0.393   1.134   1.870 -0.2716 -0.3070 -0.3533
 1002SOL     OW 4129   0.639   1.251   1.935  0.1700 -0.5903 -0.2292
 1002SOL    HW2 4130   0.641   1.253   2.030  0.4288 -0.9919 -0.2249
 1002SOL    HW3 4131   0.556   1.210   1.913  0.6436 -1.5820 -0.1625
 1002SOL    MW4 4132   0.628   1.246   1.944  0.2666 -0.7743 -0.2198
 1003SOL     OW 4133   0.634   1.508   1.853 -0.0624 -0.0193 -0.2267
 1003SOL    HW2 4134   0.647   1.418   1.885 -0.4180 -0.6928 -1.9506
 1003SOL    HW3 4135   0.711   1.556   1.883  0.4992 -1.0776  0.0426
 1003SOL    MW4 4136   0.646   1.502   1.861 -0.0352 -0.2478 -0.4187
 1004SOL     OW 4137   0.430   1.655   1.940  0.1319  0.5303  0.0133
 1004SOL    HW2 4138   0.428   1.657   2.035  0.0567  1.1270  0.0026
 1004SOL    HW3 4139   0.509   1.605   1.918 -0.4237 -0.5125  0.3840
 1004SOL    MW4 4140   0.440   1.649   1.949  0.0486  0.4712  0.0607
 1005SOL     OW 4141   0.462   1.926   1.864 -0.0497  0.5150  0.3509
 1005SOL    HW2 4142   0.437   1.839   1.895 -1.2736 -0.1070 -2.2860
 1005SOL    HW3 4143   0.391   1.983   1.893 -0.0689  0.3531  0.6307
 1005SOL    MW4 4144   0.450   1.922   1.872 -0.2137  0.4116  0.0398
 1006SOL     OW 4145   0.677   2.081   1.929 -0.4021 -0.0742  0.3549
 1006SOL    HW2 4146   0.668   2.066   2.023  0.3287  0.2535  0.4813
 1006SOL    HW3 4147   0.617   2.019   1.889 -3.2859  2.0827  1.1577
 1006SOL    MW4 4148   0.668   2.071   1.936 -0.6862  0.2537  0.4774
 1007SOL     OW 4149   0.665   2.346   1.856 -0.2080  0.1630  0.2561
 1007SOL    HW2 4150   0.667   2.254   1.879  0.4200  0.3419  0.9248
 1007SOL    HW3 4151   0.662   2.347   1.760  0.7673 -0.5394  0.2204
 1007SOL    MW4 4152   0.665   2.334   1.846  0.0035  0.0939  0.3397
 1008SOL     OW 4153   0.436   2.473   1.967  0.0113 -0.0327 -0.3112
 1008SOL    HW2 4154   0.438   2.487   2.061 -0.9488  1.6258 -0.5219
 1008SOL    HW3 4155   0.510   2.415   1.950  0.3568 -0.1320  1.4097
 1008SOL    MW4 4156   0.446   2.467   1.977 -0.0698  0.1731 -0.1119
 1009SOL     OW 4157   0.435   2.736   1.854 -0.2037  0.1028  0.2698
 1009SOL    HW2 4158   0.437   2.643   1.877  3.6755  0.6560  2.7278
 1009SOL    HW3 4159   0.365   2.773   1.908  0.8994 -0.7570  2.3484
 1009SOL    MW4 4160   0.426   2.729   1.864  0.4537  0.0622  0.8683
 1010SOL     OW 4161   0.697   2.803   1.959 -0.2875 -0.4620 -0.0879
 1010SOL    HW2 4162   0.689   2.825   2.052  1.4543  2.2727 -0.5274
 1010SOL    HW3 4163   0.608   2.781   1.932 -0.8156 -1.2843  2.2091
 1010SOL    MW4 4164   0.684   2.803   1.967 -0.1273 -0.2096  0.1574
 1011SOL     OW 4165   0.663   3.086   1.898  0.0998  0.1401  0.2552
 1011SOL    HW2 4166   0.673   2.994   1.922 -2.7227 -0.2434  0.1237
 1011SOL    HW3 4167   0.685   3.090   1.806 -0.5891 -0.5880  0.0499
 1011SOL    MW4 4168   0.667   3.074   1.889 -0.3635 -0.0067  0.2106
 1012SOL     OW 4169   0.463   3.249   1.988 -0.0964  0.1712 -0.2947
 1012SOL    HW2 4170   0.464   3.324   1.928 -1.5276 -0.6515 -1.3711
 1012SOL    HW3 4171   0.545   3.203   1.970 -0.1786  0.3371 -1.0973
 1012SOL    MW4 4172   0.474   3.253   1.978 -0.2961  0.0839 -0.5426
 1013SOL     OW 4173   0.464   3.476   1.858 -0.1595  0.1974 -0.4900
 1013SOL    HW2 4174   0.527   3.531   1.907  0.8346 -1.0198 -0.3624
 1013SOL    HW3 4175   0.481   3.497   1.766 -0.3822  0.7349 -0.4128
 1013SOL    MW4 4176   0.475   3.486   1.853 -0.0577  0.1078 -0.4628
 1014SOL     OW 4177   0.669   3.624   1.980  0.3962  0.0408  0.2983
 1014SOL    HW2 4178   0.742   3.568   1.956 -0.5485 -1.0796  0.0131
 1014SOL    HW3 4179   0.675   3.699   1.920  0.9759 -0.3124 -0.0889
 1014SOL    MW4 4180   0.679   3.627   1.969  0.3481 -0.1533  0.2095
 1015SOL     OW 4181   0.691   3.854   1.829  0.4860  0.4377  0.0049
 1015SOL    HW2 4182   0.775   3.882   1.865  0.9834  0.4075 -1.0965
 1015SOL    HW3 4183   0.626   3.893   1.886  1.2563  0.3381  0.9568
 1015SOL    MW4 4184   0.694   3.863   1.841  0.6532  0.4206 -0.0149
 1016SOL     OW 4185   0.461   3.968   1.964  0.0314  0.0422 -0.0086
 1016SOL    HW2 4186   0.478   4.055   1.928 -0.8204 -0.0081 -0.5424
 1016SOL    HW3 4187   0.381   3.938   1.920 -1.4381  0.2601  2.4160
 1016SOL    MW4 4188   0.453   3.975   1.953 -0.2749  0.0644  0.2408
 1017SOL     OW 4189   0.479   4.243   1.903  0.1618 -0.1077  0.0795
 1017SOL    HW2 4190   0.399   4.274   1.945 -0.3547 -1.6608  0.2878
 1017SOL    HW3 4191   0.458   4.241   1.810  0.1913  0.1551  0.0674
 1017SOL    MW4 4192   0.465   4.246   1.897  0.0976 -0.2780  0.1054
 1018SOL     OW 4193   0.674   4.412   1.982 -0.3745  0.0042 -0.0556
 1018SOL    HW2 4194   0.746   4.356   1.953  0.6894  2.5604 -2.6451
 1018SOL    HW3 4195   0.595   4.369   1.948  0.4458  0.1277 -2.2407
 1018SOL    MW4 4196   0.673   4.399   1.973 -0.1259  0.3576 -0.6855
 1019SOL     OW 4197   1.072   4.626   1.849  0.2226  0.1875  0.6441
 1019SOL    HW2 4198   1.150   4.677   1.869  1.2301 -0.6960 -0.9135
 1019SOL    HW3 4199   1.083   4.544   1.896 -0.1665  0.3890  1.0883
 1019SOL    MW4 4200   1.084   4.622   1.858  0.3042  0.0973  0.4973
 1020SOL     OW 4201   0.877   0.130   1.940 -0.4301 -0.1568  0.0076
 1020SOL    HW2 4202   0.945   0.068   1.915 -0.4317 -0.0831 -0.1806
 1020SOL    HW3 4203   0.795   0.088   1.914 -0.4526 -0.2146  0.1699
 1020SOL    MW4 4204   0.875   0.117   1.933 -0.4332 -0.1547  0.0043
 1021SOL     OW 4205   0.922   0.370   1.813  0.4341 -0.2749 -0.4802
 1021SOL    HW2 4206   1.000   0.399   1.860  0.5141 -1.5258  0.1691
 1021SOL    HW3 4207   0.905   0.282   1.846 -1.3675  0.0598 -0.4808
 1021SOL    MW4 4208   0.930   0.363   1.824  0.2069 -0.3958 -0.3946
 1022SOL     OW 4209   1.153   0.472   1.950 -0.0576  0.6418 -0.7080
 1022SOL    HW2 4210   1.230   0.424   1.921  0.5847  1.1969  0.0373
 1022SOL    HW3 4211   1.165   0.560   1.913 -0.4965  0.6369 -0.8596
 1022SOL    MW4 4212   1.165   0.477   1.941 -0.0306  0.7143 -0.6297
 1023SOL     OW 4213   1.154   0.689   1.798 -0.2653 -0.0578 -0.4351
 1023SOL    HW2 4214   1.226   0.746   1.822  0.9771 -1.8199  0.0628
 1023SOL    HW3 4215   1.079   0.721   1.849  0.8594 -0.0015  1.2034
 1023SOL    MW4 4216   1.153   0.701   1.808  0.0471 -0.2829 -0.1532
 1024SOL     OW 4217   0.938   0.850   1.906 -0.4610  0.4354  0.0775
 1024SOL    HW2 4218   0.946   0.850   2.002  0.8429  0.0997 -0.0208
 1024SOL    HW3 4219   0.922   0.942   1.884 -2.1366  0.3224  0.7051
 1024SOL    MW4 4220   0.937   0.863   1.916 -0.5101  0.3762  0.1473
 1025SOL     OW 4221   0.851   1.106   1.854 -0.2897  0.0295  0.4102
 1025SOL    HW2 4222   0.770   1.148   1.884 -1.2725 -1.7016  0.2629
 1025SOL    HW3 4223   0.849   1.117   1.758  1.5560  3.2758  0.6766
 1025SOL    MW4 4224   0.840   1.113   1.845 -0.1757  0.2294  0.4259
 1026SOL     OW 4225   1.093   1.245   1.941  0.0680 -0.3460  0.0041
 1026SOL    HW2 4226   1.089   1.328   1.892  1.2377  0.0307  0.5250
 1026SOL    HW3 4227   1.007   1.206   1.929  0.2280 -0.0881 -2.0670
 1026SOL    MW4 4228   1.081   1.251   1.933  0.2435 -0.2624 -0.2005
 1027SOL     OW 4229   1.055   1.499   1.819  0.3220 -0.2792 -0.6456
 1027SOL    HW2 4230   0.975   1.552   1.825  0.4956 -0.1160  0.3187
 1027SOL    HW3 4231   1.066   1.482   1.725 -0.7730 -0.1949 -0.7906
 1027SOL    MW4 4232   1.046   1.504   1.807  0.2004 -0.2465 -0.5374
 1028SOL     OW 4233   0.850   1.672   1.908 -0.2221 -0.2761 -0.4644
 1028SOL    HW2 4234   0.870   1.761   1.881  1.2312 -0.8548 -1.3432
 1028SOL    HW3 4235   0.860   1.672   2.003  1.0180  0.1930 -0.5908
 1028SOL    MW4 4236   0.854   1.683   1.917  0.1333 -0.2906 -0.5971
 1029SOL     OW 4237   0.903   1.940   1.858  0.0972 -0.0097 -0.0664
 1029SOL    HW2 4238   0.827   1.992   1.883 -0.3130 -0.7482  0.2556
 1029SOL    HW3 4239   0.897   1.934   1.762 -0.5421 -0.4918 -0.0045
 1029SOL    MW4 4240   0.892   1.946   1.848 -0.0412 -0.1707 -0.0157
 1030SOL     OW 4241   1.169   2.053   1.911 -0.1778 -0.8359  0.4290
 1030SOL    HW2 4242   1.085   2.009   1.898 -0.3520  0.1727 -2.2807
 1030SOL    HW3 4243   1.154   2.143   1.881  2.2569 -1.0439 -1.5835
 1030SOL    MW4 4244   1.156   2.059   1.905  0.1204 -0.7300 -0.1941
 1031SOL     OW 4245   1.112   2.316   1.861 -0.4936 -0.2867  0.1889
 1031SOL    HW2 4246   1.200   2.347   1.881 -1.4740  2.1578  0.8552
 1031SOL    HW3 4247   1.098   2.337   1.769 -0.6177 -0.1083  0.2484
 1031SOL    MW4 4248   1.122   2.323   1.851 -0.6393  0.0594  0.2846
 1032SOL     OW 4249   0.892   2.421   1.995 -0.0983  0.0210 -0.1441
 1032SOL    HW2 4250   0.968   2.371   1.964 -0.2758 -0.4495  0.1749
 1032SOL    HW3 4251   0.820   2.391   1.940  0.1381  1.1945 -1.1246
 1032SOL    MW4 4252   0.893   2.410   1.984 -0.0905  0.1137 -0.2315
 1033SOL     OW 4253   0.924   2.661   1.853 -0.3523  0.1164 -0.1818
 1033SOL    HW2 4254   0.918   2.576   1.898 -0.3460 -0.4437 -1.2400
 1033SOL    HW3 4255   0.843   2.706   1.878  0.7784  0.8383  2.4392
 1033SOL    MW4 4256   0.912   2.656   1.862 -0.2023  0.1378  0.0243
 1034SOL     OW 4257   1.153   2.801   1.962 -0.2100 -0.5437  0.2676
 1034SOL    HW2 4258   1.127   2.818   2.052 -1.4675  0.8024 -0.3439
 1034SOL    HW3 4259   1.080   2.754   1.923 -0.0278 -0.3716 -0.2973
 1034SOL    MW4 4260   1.140   2.797   1.969 -0.3519 -0.3436  0.1124
 1035SOL     OW 4261   1.137   3.081   1.869  0.4998 -0.0559  0.5320
 1035SOL    HW2 4262   1.058   3.115   1.912 -0.7255 -0.4032 -1.3505
 1035SOL    HW3 4263   1.138   2.988   1.892  0.8566  0.1396  1.2963
 1035SOL    MW4 4264   1.126   3.073   1.877  0.3850 -0.0761  0.3844
 1036SOL     OW 4265   0.906   3.190   1.974  0.2541  0.3650  0.5547
 1036SOL    HW2 4266   0.916   3.197   2.069  3.0474 -0.4808  0.3755
 1036SOL    HW3 4267   0.826   3.140   1.962 -0.4393  0.9700  2.4410
 1036SOL    MW4 4268   0.897   3.185   1.985  0.5312  0.3331  0.7800
 1037SOL     OW 4269   0.889   3.469   1.913 -0.3081  0.1747 -0.0917
 1037SOL    HW2 4270   0.888   3.375   1.929 -1.0520 -0.0680 -1.4533
 1037SOL    HW3 4271   0.858   3.478   1.823 -1.2168  1.7810  0.3542
 1037SOL    MW4 4272   0.885   3.458   1.903 -0.5261  0.3548 -0.2126
 1038SOL     OW 4273   1.140   3.578   1.954  0.1266 -0.2455 -0.1646
 1038SOL    HW2 4274   1.148   3.587   2.049  0.3976  2.1355 -0.3923
 1038SOL    HW3 4275   1.057   3.531   1.941 -0.0950 -0.2527  1.2400
 1038SOL    MW4 4276   1.130   3.573   1.965  0.1330  0.0677 -0.0094
 1039SOL     OW 4277   1.128   3.842   1.883  0.3174 -0.6687 -0.2138
 1039SOL    HW2 4278   1.131   3.748   1.903 -0.3577 -0.8060 -0.7577
 1039SOL    HW3 4279   1.130   3.847   1.788  1.0499 -0.0974 -0.1719
 1039SOL    MW4 4280   1.128   3.830   1.873  0.3251 -0.6113 -0.2799
 1040SOL     OW 4281   0.900   3.980   1.962 -0.0066 -0.0762  0.6672
 1040SOL    HW2 4282   0.899   3.985   2.058  0.0749 -1.4693  0.7465
 1040SOL    HW3 4283   0.978   3.928   1.942  0.6382  1.1995 -0.2085
 1040SOL    MW4 4284   0.910   3.974   1.972  0.0892 -0.0918  0.5622
 1041SOL     OW 4285   0.869   4.249   1.864 -0.3488  0.0034  0.0360
 1041SOL    HW2 4286   0.944   4.293   1.904 -0.4486  0.6116 -0.4497
 1041SOL    HW3 4287   0.875   4.159   1.896 -0.6372  0.5710  1.7346
 1041SOL    MW4 4288   0.880   4.243   1.874 -0.4001  0.1583  0.1960
 1042SOL     OW 4289   1.076   4.369   1.974 -0.0767 -0.1290 -0.0393
 1042SOL    HW2 4290   1.070   4.369   2.070  2.7094  1.1275  0.1969
 1042SOL    HW3 4291   1.157   4.319   1.957 -0.3603 -0.0120 -1.7216
 1042SOL    MW4 4292   1.086   4.362   1.985  0.2536  0.0520 -0.2302
 1043SOL     OW 4293   1.558   4.664   1.831 -0.2091  0.1022 -0.1135
 1043SOL    HW2 4294   1.622   4.709   1.887  0.4567  0.4418 -1.1425
 1043SOL    HW3 4295   1.560   4.573   1.862 -0.1028  0.3578  0.6491
 1043SOL    MW4 4296   1.567   4.658   1.842 -0.1070  0.1807 -0.1488
 1044SOL     OW 4297   1.315   0.071   1.926  0.2306 -0.1964  0.0917
 1044SOL    HW2 4298   1.318   0.063   2.021 -1.2975 -2.4659  0.0005
 1044SOL    HW3 4299   1.396   0.030   1.896  0.6808  0.4577  0.3971
 1044SOL    MW4 4300   1.326   0.065   1.935  0.0883 -0.4095  0.1199
 1045SOL     OW 4301   1.380   0.331   1.882  0.2280  0.2527  0.0466
 1045SOL    HW2 4302   1.360   0.241   1.906 -0.4407  0.5418  0.6234
 1045SOL    HW3 4303   1.368   0.334   1.787  0.0948 -0.2290  0.0461
 1045SOL    MW4 4304   1.375   0.320   1.873  0.1221  0.2273  0.1228
 1046SOL     OW 4305   1.592   0.490   1.956  0.4372  0.3646  0.4698
 1046SOL    HW2 4306   1.670   0.463   1.908 -0.8229  0.3222 -1.6295
 1046SOL    HW3 4307   1.523   0.433   1.922 -0.8555  1.6155  0.9794
 1046SOL    MW4 4308   1.593   0.479   1.945  0.1004  0.5240  0.2600
 1047SOL     OW 4309   1.596   0.744   1.844  0.4442  0.0170  0.1831
 1047SOL    HW2 4310   1.682   0.778   1.869  0.1709  0.8590 -0.0275
 1047SOL    HW3 4311   1.585   0.666   1.899  0.9969  0.3602  0.7906
 1047SOL    MW4 4312   1.606   0.738   1.855  0.4809  0.1733  0.2354
 1048SOL     OW 4313   1.342   0.859   1.892  0.0679  0.0587 -0.0369
 1048SOL    HW2 4314   1.336   0.851   1.987 -0.4869 -1.2431 -0.1677
 1048SOL    HW3 4315   1.428   0.823   1.870 -0.6223 -1.5139 -0.2087
 1048SOL    MW4 4316   1.353   0.853   1.902 -0.0964 -0.3206 -0.0769
 1049SOL     OW 4317   1.282   1.114   1.790  0.2548  0.2072  0.4129
 1049SOL    HW2 4318   1.285   1.026   1.829 -0.5199 -0.0572 -0.1070
 1049SOL    HW3 4319   1.217   1.161   1.842 -0.7233 -0.1220 -0.4920
 1049SOL    MW4 4320   1.274   1.109   1.802  0.0234  0.1287  0.2249
 1050SOL     OW 4321   1.523   1.239   1.866  0.1944 -0.3149  0.4610
 1050SOL    HW2 4322   1.516   1.334   1.858  1.1331 -0.0923  2.0554
 1050SOL    HW3 4323   1.436   1.207   1.844  0.0099  0.8696 -0.6246
 1050SOL    MW4 4324   1.510   1.248   1.862  0.2939 -0.1293  0.5282
 1051SOL     OW 4325   1.512   1.522   1.819 -0.0293  0.0916  0.3496
 1051SOL    HW2 4326   1.587   1.539   1.877  0.1065 -0.5084  0.3566
 1051SOL    HW3 4327   1.438   1.566   1.862  0.1364 -0.0879  0.8205
 1051SOL    MW4 4328   1.512   1.530   1.833  0.0104 -0.0112  0.4127
 1052SOL     OW 4329   1.281   1.638   1.910  0.4290  0.1697 -0.1200
 1052SOL    HW2 4330   1.281   1.646   2.005  0.6641  0.8502 -0.1724
 1052SOL    HW3 4331   1.204   1.585   1.889  0.5603 -0.2477  0.4711
 1052SOL    MW4 4332   1.271   1.632   1.919  0.4773  0.2043 -0.0490
 1053SOL     OW 4333   1.362   1.879   1.815 -0.3920  0.1157  0.4721
 1053SOL    HW2 4334   1.335   1.790   1.837  0.3099 -0.3296 -0.4108
 1053SOL    HW3 4335   1.297   1.935   1.857 -0.4822 -0.7863  1.5765
 1053SOL    MW4 4336   1.350   1.874   1.824 -0.3114 -0.0620  0.5013
 1054SOL     OW 4337   1.582   2.006   1.923  0.3432 -0.1735 -0.0264
 1054SOL    HW2 4338   1.510   1.961   1.879  0.3432 -0.0718 -0.1280
 1054SOL    HW3 4339   1.547   2.026   2.011  0.0894  0.2782 -0.2255
 1054SOL    MW4 4340   1.568   2.003   1.929  0.3097 -0.1006 -0.0659
 1055SOL     OW 4341   1.588   2.271   1.839  0.2853 -0.0302 -0.0276
 1055SOL    HW2 4342   1.652   2.321   1.890  1.8968 -0.7681 -1.3083
 1055SOL    HW3 4343   1.600   2.180   1.867 -1.7689  0.0852  1.3632
 1055SOL    MW4 4344   1.598   2.266   1.849  0.2269 -0.1125 -0.0131
 1056SOL     OW 4345   1.354   2.425   1.925  0.0587  0.5855 -0.5478
 1056SOL    HW2 4346   1.357   2.514   1.889  1.0448  0.7477 -0.1057
 1056SOL    HW3 4347   1.438   2.387   1.899  0.3050  0.3291  0.6225
 1056SOL    MW4 4348   1.366   2.432   1.917  0.2213  0.5729 -0.3350
 1057SOL     OW 4349   1.366   2.686   1.823 -0.6010  0.5299  0.0478
 1057SOL    HW2 4350   1.289   2.719   1.868 -1.7773  0.9325 -2.1959
 1057SOL    HW3 4351   1.353   2.710   1.732  1.2617 -1.0991 -0.6924
 1057SOL    MW4 4352   1.354   2.693   1.817 -0.5105  0.3681 -0.3461
 1058SOL     OW 4353   1.557   2.817   1.958  0.1067 -0.5652  1.0984
 1058SOL    HW2 4354   1.640   2.784   1.923 -0.4922 -2.6237  1.5295
 1058SOL    HW3 4355   1.490   2.774   1.905 -0.6969  0.7701  1.0281
 1058SOL    MW4 4356   1.559   2.807   1.947 -0.0783 -0.6607  1.1461
 1059SOL     OW 4357   1.534   3.077   1.843  0.2392 -0.0202 -0.0882
 1059SOL    HW2 4358   1.542   2.984   1.865  1.2902 -0.2161 -1.2810
 1059SOL    HW3 4359   1.616   3.116   1.875 -0.6751  0.7173  1.4267
 1059SOL    MW4 4360   1.546   3.070   1.850  0.2571  0.0515 -0.0457
 1060SOL     OW 4361   1.356   3.216   2.002  0.5373  0.0729  0.0181
 1060SOL    HW2 4362   1.426   3.165   1.960 -0.5583  0.6421 -2.6429
 1060SOL    HW3 4363   1.276   3.171   1.976 -0.1968  0.7097  1.1772
 1060SOL    MW4 4364   1.355   3.203   1.993  0.2960  0.2322 -0.1802
 1061SOL     OW 4365   1.383   3.456   1.866 -0.3080 -0.5275 -0.2298
 1061SOL    HW2 4366   1.355   3.373   1.906 -1.6934 -0.4240 -0.9422
 1061SOL    HW3 4367   1.306   3.513   1.874  0.2635  0.3243 -0.7483
 1061SOL    MW4 4368   1.369   3.453   1.872 -0.4153 -0.4015 -0.3922
 1062SOL     OW 4369   1.605   3.604   1.958 -0.0556 -0.3399 -0.3834
 1062SOL    HW2 4370   1.606   3.604   2.054 -1.1767 -0.1881 -0.3614
 1062SOL    HW3 4371   1.526   3.556   1.935  1.1314 -1.8922 -1.2704
 1062SOL    MW4 4372   1.594   3.598   1.968 -0.0470 -0.5248 -0.4976
 1063SOL     OW 4373   1.550   3.870   1.915 -0.1231  0.1476  0.2811
 1063SOL    HW2 4374   1.633   3.918   1.918 -0.5877  0.8762  1.6672
 1063SOL    HW3 4375   1.571   3.783   1.946  0.2256  0.1804  0.1343
 1063SOL    MW4 4376   1.564   3.865   1.919 -0.1384  0.2480  0.4447
 1064SOL     OW 4377   1.325   4.011   2.020  0.4695  0.3000  0.0865
 1064SOL    HW2 4378   1.391   3.956   1.977  0.7049  0.8245 -0.2309
 1064SOL    HW3 4379   1.241   3.970   1.998  0.7420 -0.9061  1.2706
 1064SOL    MW4 4380   1.323   3.999   2.012  0.5366  0.2098  0.2010
 1065SOL     OW 4381   1.307   4.257   1.886 -0.0775 -0.0874 -0.3944
 1065SOL    HW2 4382   1.323   4.166   1.912 -1.1481 -0.3413 -0.6247
 1065SOL    HW3 4383   1.293   4.252   1.791 -0.8186  0.2300 -0.3009
 1065SOL    MW4 4384   1.308   4.244   1.877 -0.3166 -0.0787 -0.4126
 1066SOL     OW 4385   1.552   4.405   1.931 -0.0663  0.3299  0.4661
 1066SOL    HW2 4386   1.555   4.407   2.026 -0.0434 -1.5337  0.5142
 1066SOL    HW3 4387   1.468   4.364   1.910 -0.4775  1.5433 -0.3385
 1066SOL    MW4 4388   1.541   4.400   1.940 -0.1174  0.2441  0.3663
 1067SOL     OW 4389   1.994   4.641   1.875 -1.1055  0.3468 -0.1076
 1067SOL    HW2 4390   2.084   4.667   1.895 -0.9159  0.0305 -0.5373
 1067SOL    HW3 4391   1.981   4.559   1.923 -0.4157 -0.7804 -1.8199
 1067SOL    MW4 4392   2.004   4.633   1.884 -0.9894  0.1564 -0.3902
 1068SOL     OW 4393   1.777   0.100   1.965 -0.6477 -0.4623 -0.2258
 1068SOL    HW2 4394   1.797   0.109   2.058  0.7384 -0.1774 -0.5435
 1068SOL    HW3 4395   1.851   0.051   1.929 -1.0458 -0.3399 -1.2310
 1068SOL    MW4 4396   1.789   0.095   1.972 -0.5172 -0.4086 -0.4003
 1069SOL     OW 4397   1.807   0.366   1.818  0.2453  0.1698 -0.0247
 1069SOL    HW2 4398   1.887   0.398   1.859 -0.9312  2.3096  0.7358
 1069SOL    HW3 4399   1.787   0.284   1.863  0.6180  0.9435  1.5788
 1069SOL    MW4 4400   1.815   0.360   1.830  0.1392  0.5543  0.2872
 1070SOL     OW 4401   2.023   0.474   1.933  0.2643  0.3568  0.2524
 1070SOL    HW2 4402   2.033   0.567   1.909 -0.4114  0.2657 -0.4123
 1070SOL    HW3 4403   2.009   0.476   2.028  1.1982  0.8585  0.3936
 1070SOL    MW4 4404   2.022   0.487   1.942  0.2983  0.4110  0.1835
 1071SOL     OW 4405   2.028   0.747   1.832 -0.1548  0.1272  0.2335
 1071SOL    HW2 4406   2.102   0.798   1.866 -0.5363  0.7888  0.0701
 1071SOL    HW3 4407   2.050   0.730   1.740 -1.3160  2.4024 -0.4969
 1071SOL    MW4 4408   2.041   0.751   1.824 -0.3583  0.5147  0.1158
 1072SOL     OW 4409   1.807   0.866   1.938 -0.2904 -0.2960 -0.1355
 1072SOL    HW2 4410   1.802   0.950   1.894 -1.1586 -0.1953  0.1372
 1072SOL    HW3 4411   1.889   0.827   1.908 -0.3313  0.2528 -0.9631
 1072SOL    MW4 4412   1.817   0.872   1.928 -0.4103 -0.2103 -0.2087
 1073SOL     OW 4413   1.795   1.114   1.829 -0.3801 -0.4567 -0.1772
 1073SOL    HW2 4414   1.707   1.148   1.844  0.5839  2.3842 -0.5833
 1073SOL    HW3 4415   1.802   1.109   1.733  0.2927  0.5492 -0.1943
 1073SOL    MW4 4416   1.784   1.118   1.818 -0.1642  0.0508 -0.2331
 1074SOL     OW 4417   1.991   1.265   1.949 -0.0288 -0.2777 -0.1912
 1074SOL    HW2 4418   2.068   1.214   1.926  0.1021  0.0674 -0.5362
 1074SOL    HW3 4419   1.919   1.225   1.900  0.0469 -0.2233 -0.3478
 1074SOL    MW4 4420   1.992   1.253   1.939 -0.0017 -0.2251 -0.2574
 1075SOL     OW 4421   2.023   1.508   1.857 -0.5097 -0.2766  0.0487
 1075SOL    HW2 4422   2.020   1.419   1.891  2.7953 -1.0977 -1.5460
 1075SOL    HW3 4423   2.009   1.498   1.762  0.6723  0.7905 -0.2497
 1075SOL    MW4 4424   2.021   1.495   1.849  0.0823 -0.2443 -0.2011
 1076SOL     OW 4425   1.753   1.597   1.948 -0.0501 -0.0244 -0.3650
 1076SOL    HW2 4426   1.750   1.683   1.907  0.0511  0.7477  1.2257
 1076SOL    HW3 4427   1.835   1.558   1.916  0.0570  0.5750 -0.8352
 1076SOL    MW4 4428   1.764   1.603   1.938 -0.0225  0.1565 -0.2172
 1077SOL     OW 4429   1.775   1.849   1.840 -0.4290 -0.2126  0.2100
 1077SOL    HW2 4430   1.706   1.911   1.862  0.8831  1.5099 -0.4225
 1077SOL    HW3 4431   1.855   1.889   1.872  0.5560 -1.1581 -0.9909
 1077SOL    MW4 4432   1.776   1.862   1.847 -0.1259 -0.1101 -0.0319
 1078SOL     OW 4433   2.006   1.995   1.949 -0.0718 -0.5746 -0.0028
 1078SOL    HW2 4434   2.086   1.946   1.927 -0.2777 -0.0245 -2.0383
 1078SOL    HW3 4435   2.000   1.987   2.044  0.5366 -3.5081 -0.1475
 1078SOL    MW4 4436   2.016   1.987   1.959 -0.0188 -0.8891 -0.2904
 1079SOL     OW 4437   2.027   2.265   1.871 -0.1571 -0.1302 -0.4318
 1079SOL    HW2 4438   2.108   2.290   1.914  0.7776 -1.1714 -1.5219
 1079SOL    HW3 4439   2.003   2.181   1.911 -0.4810 -0.0186 -0.3873
 1079SOL    MW4 4440   2.034   2.257   1.882 -0.0763 -0.2532 -0.5697
 1080SOL     OW 4441   1.814   2.449   1.914 -0.1589 -0.0950  0.1844
 1080SOL    HW2 4442   1.809   2.469   2.007 -0.2643  0.5510  0.0382
 1080SOL    HW3 4443   1.892   2.393   1.906 -0.2070 -0.2313  0.6690
 1080SOL    MW4 4444   1.824   2.444   1.925 -0.1791 -0.0281  0.2289
 1081SOL     OW 4445   1.792   2.711   1.833 -0.2045 -0.3518  0.5099
 1081SOL    HW2 4446   1.783   2.618   1.853  0.1077 -0.5055 -0.0562
 1081SOL    HW3 4447   1.875   2.735   1.875  0.0833 -0.5024  0.0304
 1081SOL    MW4 4448   1.802   2.702   1.841 -0.1254 -0.3917  0.3721
 1082SOL     OW 4449   2.032   2.814   1.938 -0.1848 -0.0758 -0.0106
 1082SOL    HW2 4450   2.019   2.903   1.905 -1.4307 -0.4795 -0.6329
 1082SOL    HW3 4451   2.034   2.824   2.034  2.4498  0.9675 -0.1269
 1082SOL    MW4 4452   2.031   2.827   1.947 -0.0017  0.0086 -0.1081
 1083SOL     OW 4453   1.976   3.068   1.868 -0.1482  0.3506  0.2947
 1083SOL    HW2 4454   1.976   3.048   1.775  1.7356 -1.9368  0.7293
 1083SOL    HW3 4455   1.899   3.123   1.881 -1.4502 -0.7766 -2.3012
 1083SOL    MW4 4456   1.966   3.072   1.858 -0.0714 -0.0997  0.0095
 1084SOL     OW 4457   1.751   3.219   1.944  0.2068 -0.0559 -0.2721
 1084SOL    HW2 4458   1.765   3.220   2.038  1.0866  0.2131 -0.3988
 1084SOL    HW3 4459   1.774   3.307   1.915 -2.3126  0.5827 -0.4406
 1084SOL    MW4 4460   1.756   3.230   1.952 -0.0095  0.0637 -0.3110
 1085SOL     OW 4461   1.820   3.490   1.845  0.1725 -0.3866  0.2537
 1085SOL    HW2 4462   1.734   3.522   1.870 -0.0139 -0.2328 -0.5668
 1085SOL    HW3 4463   1.881   3.543   1.896 -0.2108 -0.3741  0.7029
 1085SOL    MW4 4464   1.817   3.501   1.855  0.0974 -0.3648  0.2047
 1086SOL     OW 4465   2.070   3.612   1.983  0.1295  0.0323  0.1707
 1086SOL    HW2 4466   2.074   3.703   1.951  2.3052  0.4172  1.3833
 1086SOL    HW3 4467   2.043   3.620   2.074  1.1293 -0.4490  0.5197
 1086SOL    MW4 4468   2.067   3.625   1.991  0.5484  0.0198  0.3766
 1087SOL     OW 4469   2.052   3.860   1.865  0.4883  0.1759  0.1815
 1087SOL    HW2 4470   2.130   3.902   1.901  0.8189 -1.1553  1.0644
 1087SOL    HW3 4471   1.980   3.918   1.891  0.9333  0.2039  1.4085
 1087SOL    MW4 4472   2.052   3.873   1.873  0.5908  0.0041  0.4598
 1088SOL     OW 4473   1.810   3.994   1.945  0.2103 -0.2911 -0.4629
 1088SOL    HW2 4474   1.803   4.005   2.040 -0.3244  0.4237 -0.5739
 1088SOL    HW3 4475   1.797   4.083   1.911 -1.4082 -0.8251 -1.2870
 1088SOL    MW4 4476   1.807   4.007   1.953 -0.0738 -0.2670 -0.5863
 1089SOL     OW 4477   1.788   4.274   1.863  0.1033 -0.1086  0.0741
 1089SOL    HW2 4478   1.718   4.332   1.893 -0.0604  0.3016 -1.0753
 1089SOL    HW3 4479   1.773   4.266   1.769  3.1001  2.0445 -0.6682
 1089SOL    MW4 4480   1.777   4.281   1.855  0.4772  0.2298 -0.1755
 1090SOL     OW 4481   1.998   4.384   2.002 -0.5188  0.4559 -0.0160
 1090SOL    HW2 4482   2.084   4.352   1.977 -0.2344  0.8083  0.4967
 1090SOL    HW3 4483   1.937   4.338   1.944 -0.0497 -0.3627  0.1332
 1090SOL    MW4 4484   2.001   4.374   1.991 -0.4191  0.3948  0.0713
 1091SOL     OW 4485   2.480   4.603   1.868 -0.2617  0.2285 -0.1564
 1091SOL    HW2 4486   2.553   4.644   1.914 -1.5354  1.9323  0.3846
 1091SOL    HW3 4487   2.476   4.514   1.905  0.1637  0.8316  1.3881
 1091SOL    MW4 4488   2.489   4.597   1.879 -0.3736  0.5326  0.1187
 1092SOL     OW 4489   2.226   0.049   1.971 -0.2540 -0.1846  0.1188
 1092SOL    HW2 4490   2.236   0.042   2.066 -0.4072 -0.4180  0.1167
 1092SOL    HW3 4491   2.304   0.006   1.936  0.3921  0.9406  0.1555
 1092SOL    MW4 4492   2.238   0.043   1.979 -0.1888 -0.0669  0.1233
 1093SOL     OW 4493   2.242   0.320   1.894 -0.0232 -0.1092  0.0101
 1093SOL    HW2 4494   2.219   0.232   1.925  0.8207 -0.2061  0.3871
 1093SOL    HW3 4495   2.166   0.374   1.915 -0.3549 -0.6502  0.2106
 1093SOL    MW4 4496   2.229   0.315   1.901  0.0443 -0.1934  0.0862
 1094SOL     OW 4497   2.465   0.459   1.993  0.4962 -0.0324 -0.2742
 1094SOL    HW2 4498   2.544   0.410   1.969  1.4733  1.9721 -1.2633
 1094SOL    HW3 4499   2.397   0.422   1.937  0.9574 -1.0815 -0.1597
 1094SOL    MW4 4500   2.467   0.447   1.982  0.6864  0.0936 -0.3897
 1095SOL     OW 4501   2.464   0.723   1.878  0.2002 -0.5130 -0.4960
 1095SOL    HW2 4502   2.469   0.634   1.913 -0.2945 -0.4486 -0.2597
 1095SOL    HW3 4503   2.461   0.712   1.783 -1.9421 -0.8438 -0.4121
 1095SOL    MW4 4504   2.464   0.710   1.870 -0.1478 -0.5481 -0.4537
 1096SOL     OW 4505   2.247   0.875   1.940  0.5419 -0.0420  0.4837
 1096SOL    HW2 4506   2.246   0.889   2.034  0.7248 -0.1590  0.5038
 1096SOL    HW3 4507   2.333   0.836   1.922 -0.1602 -1.6097  0.4803
 1096SOL    MW4 4508   2.259   0.872   1.950  0.4733 -0.2643  0.4858
 1097SOL     OW 4509   2.194   1.120   1.825 -0.0279  0.0644  0.1841
 1097SOL    HW2 4510   2.266   1.169   1.863 -1.0510  1.2691  0.5980
 1097SOL    HW3 4511   2.198   1.034   1.867  0.3757  0.5553  1.1503
 1097SOL    MW4 4512   2.204   1.115   1.836 -0.1097  0.2880  0.3661
 1098SOL     OW 4513   2.430   1.255   1.927 -0.0388  0.4707  0.0665
 1098SOL    HW2 4514   2.439   1.261   2.023  0.4276 -0.4550  0.0835
 1098SOL    HW3 4515   2.450   1.343   1.896  0.5974  0.5841  0.7691
 1098SOL    MW4 4516   2.434   1.268   1.936  0.1068  0.3636  0.1614
 1099SOL     OW 4517   2.478   1.518   1.845 -0.7381  0.0739 -0.3855
 1099SOL    HW2 4518   2.403   1.561   1.886 -0.9745 -0.4435 -0.2791
 1099SOL    HW3 4519   2.463   1.527   1.751 -0.8026  0.1958 -0.3640
 1099SOL    MW4 4520   2.466   1.525   1.838 -0.7775  0.0218 -0.3686
 1100SOL     OW 4521   2.248   1.652   1.979 -0.4653  0.2005 -0.1401
 1100SOL    HW2 4522   2.248   1.625   2.071  0.9346 -1.2279 -0.5420
 1100SOL    HW3 4523   2.166   1.615   1.945 -0.9957  0.7393  0.5239
 1100SOL    MW4 4524   2.237   1.643   1.987 -0.3507  0.0830 -0.1055
 1101SOL     OW 4525   2.246   1.913   1.854  0.4065  0.0523 -0.1792
 1101SOL    HW2 4526   2.318   1.971   1.877  0.5986 -0.7947  1.4065
 1101SOL    HW3 4527   2.266   1.831   1.898 -1.8010 -0.0234  0.7845
 1101SOL    MW4 4528   2.258   1.910   1.863  0.1411 -0.0695  0.1572
 1102SOL     OW 4529   2.466   2.033   1.973 -0.5912 -0.2886  0.5034
 1102SOL    HW2 4530   2.542   1.985   1.941 -0.9532 -0.5462  0.0192
 1102SOL    HW3 4531   2.484   2.049   2.066  1.3433  2.1037 -0.2273
 1102SOL    MW4 4532   2.478   2.029   1.981 -0.3839 -0.0067  0.3431
 1103SOL     OW 4533   2.469   2.288   1.861 -0.7685 -0.6842 -0.4700
 1103SOL    HW2 4534   2.549   2.332   1.890 -2.3183  1.5923  0.5456
 1103SOL    HW3 4535   2.465   2.208   1.913  0.5673 -0.5381 -0.1323
 1103SOL    MW4 4536   2.479   2.283   1.872 -0.7970 -0.3648 -0.2915
 1104SOL     OW 4537   2.236   2.402   1.967 -0.1531 -0.3520  0.4184
 1104SOL    HW2 4538   2.256   2.419   2.060 -0.5367 -0.9904  0.6232
 1104SOL    HW3 4539   2.317   2.365   1.932  0.0875  0.1657  0.4280
 1104SOL    MW4 4540   2.249   2.399   1.975 -0.1721 -0.3679  0.4468
 1105SOL     OW 4541   2.235   2.665   1.862 -0.2401 -0.2074 -0.0318
 1105SOL    HW2 4542   2.157   2.706   1.901  0.0048 -1.5926  1.9830
 1105SOL    HW3 4543   2.225   2.572   1.881  1.8963 -0.3988  0.2664
 1105SOL    MW4 4544   2.224   2.658   1.870  0.0739 -0.4156  0.2732
 1106SOL     OW 4545   2.458   2.782   1.979 -0.4147  0.0241  0.0676
 1106SOL    HW2 4546   2.460   2.873   1.950  2.1685 -0.1401 -0.3747
 1106SOL    HW3 4547   2.378   2.746   1.940 -0.0683  1.3844 -1.9698
 1106SOL    MW4 4548   2.448   2.790   1.970 -0.0279  0.1819 -0.2594
 1107SOL     OW 4549   2.453   3.054   1.894  0.0938  0.2338 -0.7742
 1107SOL    HW2 4550   2.371   3.101   1.910 -1.1556 -1.9756 -0.3674
 1107SOL    HW3 4551   2.470   3.067   1.801 -0.7269  0.7089 -0.8655
 1107SOL    MW4 4552   2.444   3.062   1.884 -0.1791  0.0050 -0.7325
 1108SOL     OW 4553   2.206   3.191   1.961  0.2683  0.0392 -0.0973
 1108SOL    HW2 4554   2.191   3.206   2.054 -0.8199  1.8653 -0.5308
 1108SOL    HW3 4555   2.123   3.158   1.928  0.2175  0.7019 -0.6572
 1108SOL    MW4 4556   2.193   3.189   1.969  0.1180  0.3676 -0.2283
 1109SOL     OW 4557   2.261   3.456   1.870 -0.0679 -0.3248 -0.4485
 1109SOL    HW2 4558   2.245   3.368   1.904  1.1213 -0.5992 -0.5762
 1109SOL    HW3 4559   2.187   3.508   1.903  0.2307 -0.9389  1.2453
 1109SOL    MW4 4560   2.249   3.451   1.879  0.1285 -0.4420 -0.2420
 1110SOL     OW 4561   2.462   3.595   1.983 -0.5851  0.0757 -0.0083
 1110SOL    HW2 4562   2.447   3.585   2.077 -2.0766 -0.6030 -0.3085
 1110SOL    HW3 4563   2.390   3.547   1.942  0.7196 -0.6566 -1.4997
 1110SOL    MW4 4564   2.451   3.587   1.990 -0.6096 -0.1106 -0.2447
 1111SOL     OW 4565   2.458   3.835   1.843  0.3289  0.2321 -0.1243
 1111SOL    HW2 4566   2.408   3.893   1.900  1.2139  0.3982  0.4963
 1111SOL    HW3 4567   2.469   3.754   1.893  0.6401  0.1766 -0.2787
 1111SOL    MW4 4568   2.453   3.832   1.857  0.4866  0.2468 -0.0628
 1112SOL     OW 4569   2.254   3.987   1.982 -0.0591 -0.2131  0.0060
 1112SOL    HW2 4570   2.242   3.996   2.077 -0.8071  0.5020 -0.1564
 1112SOL    HW3 4571   2.254   4.076   1.949  0.6930 -0.4439 -0.6119
 1112SOL    MW4 4572   2.252   4.000   1.990 -0.0587 -0.1490 -0.0969
 1113SOL     OW 4573   2.234   4.249   1.909 -0.2316 -0.7102  0.1635
 1113SOL    HW2 4574   2.313   4.294   1.936 -0.8318  0.5619 -0.1696
 1113SOL    HW3 4575   2.245   4.234   1.815  0.1008 -1.5544  0.3291
 1113SOL    MW4 4576   2.246   4.253   1.900 -0.2670 -0.6537  0.1414
 1114SOL     OW 4577   2.473   4.357   1.993 -0.4881  0.4341 -0.4116
 1114SOL    HW2 4578   2.492   4.375   2.086 -1.2751 -3.0326  0.4925
 1114SOL    HW3 4579   2.549   4.309   1.963 -1.3830 -0.7461 -0.8170
 1114SOL    MW4 4580   2.485   4.353   2.002 -0.7102 -0.1793 -0.3462
 1115SOL     OW 4581   2.931   4.608   1.897 -0.1760  0.0200  0.1994
 1115SOL    HW2 4582   3.009   4.649   1.933 -0.0126  0.1646 -0.3208
 1115SOL    HW3 4583   2.940   4.515   1.919  0.0555  0.0639  0.2878
 1115SOL    MW4 4584   2.942   4.601   1.905 -0.1237  0.0443  0.1425
 1116SOL     OW 4585   2.698   0.063   1.994 -0.1664  0.0057 -0.1352
 1116SOL    HW2 4586   2.717   0.098   2.081  0.8966  1.4641 -0.9360
 1116SOL    HW3 4587   2.779   0.019   1.968 -0.0013  0.8100 -0.9747
 1116SOL    MW4 4588   2.711   0.061   2.002 -0.0045  0.3042 -0.3519
 1117SOL     OW 4589   2.690   0.327   1.877 -0.0917 -0.4264  0.3863
 1117SOL    HW2 4590   2.758   0.370   1.929  0.1979 -0.5384  0.1048
 1117SOL    HW3 4591   2.700   0.234   1.896 -0.1705 -0.4421  0.3519
 1117SOL    MW4 4592   2.700   0.320   1.886 -0.0637 -0.4432  0.3446
 1118SOL     OW 4593   2.879   0.465   2.005  0.4528  0.3263 -0.3281
 1118SOL    HW2 4594   2.966   0.425   1.995 -0.0833 -0.7871 -0.5894
 1118SOL    HW3 4595   2.888   0.552   1.967  1.5180  0.3017 -0.1477
 1118SOL    MW4 4596   2.892   0.471   1.999  0.5226  0.1762 -0.3388
 1119SOL     OW 4597   2.898   0.711   1.888  0.3799 -0.5759  0.1768
 1119SOL    HW2 4598   2.977   0.748   1.928 -0.0709 -0.1889  0.7118
 1119SOL    HW3 4599   2.827   0.768   1.917 -0.0046 -0.4930 -0.8944
 1119SOL    MW4 4600   2.899   0.723   1.897  0.2694 -0.5140  0.1060
 1120SOL     OW 4601   2.675   0.884   1.980 -0.4820 -0.3328  0.0612
 1120SOL    HW2 4602   2.649   0.970   1.947 -2.3445 -0.8666  0.0712
 1120SOL    HW3 4603   2.606   0.825   1.951  0.8366 -1.8594 -0.0481
 1120SOL    MW4 4604   2.662   0.888   1.972 -0.5538 -0.6046  0.0480
 1121SOL     OW 4605   2.665   1.136   1.845 -0.5030 -0.2778  0.2474
 1121SOL    HW2 4606   2.583   1.184   1.860 -1.5675 -1.6202 -1.1976
 1121SOL    HW3 4607   2.676   1.136   1.750 -0.2874 -2.4846  0.2486
 1121SOL    MW4 4608   2.655   1.142   1.835 -0.6151 -0.7461  0.0569
 1122SOL     OW 4609   2.893   1.226   1.978 -0.4983 -0.3352 -0.5325
 1122SOL    HW2 4610   2.889   1.318   1.951  0.4198  0.3157  1.4822
 1122SOL    HW3 4611   2.816   1.186   1.937 -0.1306  0.9782 -2.6231
 1122SOL    MW4 4612   2.883   1.233   1.969 -0.3288 -0.0761 -0.5425
 1123SOL     OW 4613   2.947   1.489   1.888  0.4173 -0.8623 -0.3614
 1123SOL    HW2 4614   3.029   1.535   1.909  0.4754 -0.9679 -0.3547
 1123SOL    HW3 4615   2.946   1.483   1.793 -1.3062  2.2740 -0.5828
 1123SOL    MW4 4616   2.958   1.494   1.879  0.1976 -0.4624 -0.3897
 1124SOL     OW 4617   2.715   1.645   1.951 -0.1457  0.0228  0.2166
 1124SOL    HW2 4618   2.795   1.598   1.927 -0.1636  0.0459  0.1151
 1124SOL    HW3 4619   2.644   1.596   1.909 -0.0469  0.9563 -1.0498
 1124SOL    MW4 4620   2.716   1.632   1.943 -0.1352  0.1490  0.0361
 1125SOL     OW 4621   2.678   1.904   1.882 -0.2489 -0.1650 -0.0121
 1125SOL    HW2 4622   2.755   1.951   1.913 -1.3532  0.0940  2.4056
 1125SOL    HW3 4623   2.695   1.812   1.905 -0.1726 -0.2745 -0.4989
 1125SOL    MW4 4624   2.691   1.898   1.889 -0.3846 -0.1453  0.2427
 1126SOL     OW 4625   2.914   2.030   1.987  0.3261  0.2886  0.2082
 1126SOL    HW2 4626   2.921   2.002   2.078 -0.0938 -1.7311 -0.3537
 1126SOL    HW3 4627   2.987   1.987   1.943 -0.2771  0.1146 -0.6522
 1126SOL    MW4 4628   2.924   2.020   1.993  0.1912 -0.0010  0.0205
 1127SOL     OW 4629   2.933   2.320   1.588  0.4559  0.2923 -0.1359
 1127SOL    HW2 4630   2.938   2.347   1.679  0.2429  0.2561 -0.1145
 1127SOL    HW3 4631   2.855   2.363   1.554 -0.2689 -0.8240  0.0734
 1127SOL    MW4 4632   2.924   2.329   1.595  0.3321  0.1402 -0.1055
 1128SOL     OW 4633   2.929   2.304   1.877  0.0141  0.1213  0.0691
 1128SOL    HW2 4634   3.002   2.354   1.913 -0.9365  1.0894  0.6827
 1128SOL    HW3 4635   2.940   2.216   1.913  0.7200  0.3288  0.3676
 1128SOL    MW4 4636   2.940   2.299   1.886 -0.0181  0.2763  0.1894
 1129SOL     OW 4637   2.691   2.438   1.971  0.4273  0.7586 -0.0897
 1129SOL    HW2 4638   2.697   2.524   1.930 -0.7888  1.0146  0.2226
 1129SOL    HW3 4639   2.774   2.396   1.952  0.8987  1.8730 -0.5517
 1129SOL    MW4 4640   2.703   2.444   1.963  0.3290  0.9396 -0.1096
 1130SOL     OW 4641   2.882   2.805   1.957  0.2683  0.2888 -0.0767
 1130SOL    HW2 4642   2.884   2.889   1.912  0.1787  0.0382 -0.5570
 1130SOL    HW3 4643   2.799   2.765   1.929  0.2993  0.0530  0.1648
 1130SOL    MW4 4644   2.871   2.811   1.948  0.2606  0.2248 -0.1082
 1131SOL     OW 4645   2.918   3.060   1.868  0.0327 -0.4137 -0.0236
 1131SOL    HW2 4646   2.999   3.100   1.901  0.2983 -1.4057  0.5368
 1131SOL    HW3 4647   2.850   3.124   1.889  0.3845 -0.4530  1.2970
 1131SOL    MW4 4648   2.920   3.074   1.875  0.1142 -0.5500  0.2246
 1132SOL     OW 4649   2.695   3.215   1.965 -0.2359  0.1430  0.0245
 1132SOL    HW2 4650   2.695   3.301   1.923  0.9024  0.3225  0.3677
 1132SOL    HW3 4651   2.608   3.180   1.948 -0.9464  1.6544  0.4589
 1132SOL    MW4 4652   2.684   3.222   1.958 -0.1795  0.3662  0.1271
 1133SOL     OW 4653   2.670   3.474   1.847 -0.0668 -0.2598 -0.2493
 1133SOL    HW2 4654   2.744   3.514   1.892 -0.1345  0.6748 -0.9521
 1133SOL    HW3 4655   2.593   3.508   1.892 -0.0559 -2.2060  1.2863
 1133SOL    MW4 4656   2.669   3.483   1.859 -0.0744 -0.3934 -0.1395
 1134SOL     OW 4657   2.902   3.578   1.942 -0.5374  0.0173  0.1819
 1134SOL    HW2 4658   2.920   3.584   2.036  0.7248  0.9689 -0.1137
 1134SOL    HW3 4659   2.986   3.555   1.903 -1.4401 -2.2066 -0.5505
 1134SOL    MW4 4660   2.915   3.575   1.949 -0.4900 -0.1507  0.0463
 1135SOL     OW 4661   2.927   3.864   1.894 -0.2607  0.1017 -0.2341
 1135SOL    HW2 4662   2.923   3.775   1.928 -1.6984 -0.0491 -0.7345
 1135SOL    HW3 4663   2.917   3.854   1.799 -0.0484  0.7625 -0.3284
 1135SOL    MW4 4664   2.925   3.851   1.886 -0.4225  0.1690 -0.3127
 1136SOL     OW 4665   2.685   3.959   1.984  0.2786  0.1120  0.2191
 1136SOL    HW2 4666   2.768   3.930   1.947 -0.2999 -0.7716 -0.3905
 1136SOL    HW3 4667   2.618   3.914   1.933 -0.5769  0.4974  0.9748
 1136SOL    MW4 4668   2.687   3.950   1.972  0.0894  0.0463  0.2385
 1137SOL     OW 4669   2.697   4.215   1.922 -0.3362  0.0068  0.2389
 1137SOL    HW2 4670   2.685   4.124   1.950 -0.8388 -0.2739 -0.8600
 1137SOL    HW3 4671   2.685   4.212   1.827  1.0067  0.9994  0.0256
 1137SOL    MW4 4672   2.694   4.202   1.913 -0.2255  0.1006  0.0658
 1138SOL     OW 4673   2.923   4.348   2.017  0.9592  0.6775 -0.3711
 1138SOL    HW2 4674   2.913   4.369   2.109  0.8859 -3.0121  0.5433
 1138SOL    HW3 4675   2.855   4.283   2.000  0.6650  1.6474 -3.1615
 1138SOL    MW4 4676   2.912   4.342   2.027  0.9108  0.3185 -0.6189
 1139SOL     OW 4677   3.375   4.646   1.861 -0.5979 -0.6038  0.1327
 1139SOL    HW2 4678   3.388   4.554   1.885  0.1793 -0.4145  0.4515
 1139SOL    HW3 4679   3.366   4.646   1.766  1.1237 -0.8194 -0.0426
 1139SOL    MW4 4680   3.375   4.634   1.852 -0.2680 -0.6075  0.1516
 1140SOL     OW 4681   3.153   0.080   2.001  0.3842 -0.1426 -0.0066
 1140SOL    HW2 4682   3.157   0.077   2.096  1.2181 -3.5071 -0.1050
 1140SOL    HW3 4683   3.240   0.053   1.971 -0.3226 -0.6560 -1.7041
 1140SOL    MW4 4684   3.165   0.076   2.009  0.4008 -0.6542 -0.2434
 1141SOL     OW 4685   3.150   0.350   1.923 -0.1980  0.1911  0.0607
 1141SOL    HW2 4686   3.157   0.259   1.952 -0.8784  0.4034  0.9208
 1141SOL    HW3 4687   3.156   0.346   1.828  1.4301 -0.5956  0.1664
 1141SOL    MW4 4688   3.152   0.337   1.914 -0.0727  0.1153  0.1882
 1142SOL     OW 4689   3.366   0.487   2.020  0.3996  0.1389 -0.4756
 1142SOL    HW2 4690   3.451   0.449   1.999 -0.1883 -2.4022  1.5862
 1142SOL    HW3 4691   3.303   0.426   1.983 -0.5564  0.3527  0.7741
 1142SOL    MW4 4692   3.369   0.474   2.012  0.1957 -0.1682 -0.0386
 1143SOL     OW 4693   3.335   0.740   1.898  0.3547  0.2612 -0.3021
 1143SOL    HW2 4694   3.263   0.782   1.946  0.0172 -0.1870 -0.4145
 1143SOL    HW3 4695   3.335   0.649   1.929 -0.3251 -0.2205 -1.6791
 1143SOL    MW4 4696   3.326   0.733   1.909  0.2205  0.1385 -0.4985
 1144SOL     OW 4697   3.097   0.837   2.022 -0.4290 -0.2250 -0.2558
 1144SOL    HW2 4698   3.109   0.849   2.116  1.0293 -0.0986 -0.4554
 1144SOL    HW3 4699   3.099   0.925   1.985 -1.6204 -0.2270 -0.3383
 1144SOL    MW4 4700   3.099   0.850   2.029 -0.3939 -0.2086 -0.2928
 1145SOL     OW 4701   3.134   1.089   1.907  0.0016 -0.3375  0.3193
 1145SOL    HW2 4702   3.210   1.144   1.926 -0.2026 -0.6271  2.0935
 1145SOL    HW3 4703   3.059   1.140   1.937 -0.5723  0.1734 -1.9211
 1145SOL    MW4 4704   3.134   1.103   1.914 -0.1013 -0.3084  0.2578
 1146SOL     OW 4705   3.362   1.251   1.984 -0.1757 -0.1480  0.2286
 1146SOL    HW2 4706   3.353   1.277   2.076 -1.6059  0.6888 -0.1289
 1146SOL    HW3 4707   3.381   1.333   1.938  1.7913 -0.7558 -0.0719
 1146SOL    MW4 4708   3.364   1.266   1.990 -0.1049 -0.1179  0.1419
 1147SOL     OW 4709   3.381   1.502   1.889 -0.1684  0.3174 -0.1034
 1147SOL    HW2 4710   3.452   1.545   1.937 -0.7324  0.0004  1.0430
 1147SOL    HW3 4711   3.305   1.559   1.903 -0.4897 -0.1165 -0.0647
 1147SOL    MW4 4712   3.380   1.515   1.898 -0.2854  0.2184  0.0529
 1148SOL     OW 4713   3.168   1.662   1.992 -0.3630 -0.5236  0.3018
 1148SOL    HW2 4714   3.173   1.665   2.088 -0.1415 -0.6683  0.2962
 1148SOL    HW3 4715   3.152   1.752   1.966 -0.4919 -0.4946  0.4810
 1148SOL    MW4 4716   3.167   1.674   2.001 -0.3507 -0.5387  0.3250
 1149SOL     OW 4717   3.137   1.894   1.869 -0.1425  0.0541  0.1404
 1149SOL    HW2 4718   3.221   1.921   1.905 -0.9621  3.4164 -0.3083
 1149SOL    HW3 4719   3.151   1.897   1.774 -0.8258  0.8979  0.0627
 1149SOL    MW4 4720   3.150   1.898   1.861 -0.3407  0.6089  0.0710
 1150SOL     OW 4721   3.361   2.012   2.009  0.4414  0.3983  0.5169
 1150SOL    HW2 4722   3.361   2.018   2.105  1.7023 -0.6361  0.5864
 1150SOL    HW3 4723   3.453   2.013   1.984  0.2922 -2.6592 -0.4366
 1150SOL    MW4 4724   3.373   2.013   2.018  0.5882 -0.1414  0.4003
 1151SOL     OW 4725   3.340   2.286   1.886 -0.0189  0.3239  0.0149
 1151SOL    HW2 4726   3.344   2.207   1.940 -0.2650  0.3198  0.0272
 1151SOL    HW3 4727   3.275   2.342   1.929  0.2590  0.5939  0.0878
 1151SOL    MW4 4728   3.332   2.283   1.899 -0.0150  0.3591  0.0261
 1152SOL     OW 4729   3.150   2.442   1.995 -0.1313 -0.1287 -0.5331
 1152SOL    HW2 4730   3.150   2.432   2.090  1.5240 -0.5955 -0.5644
 1152SOL    HW3 4731   3.164   2.536   1.980 -0.6999 -0.0105 -0.3158
 1152SOL    MW4 4732   3.152   2.453   2.005  0.0124 -0.1748 -0.5085
 1153SOL     OW 4733   3.148   2.707   1.892  0.0487  0.2642 -0.1410
 1153SOL    HW2 4734   3.058   2.726   1.917  0.1486  0.1101  0.3485
 1153SOL    HW3 4735   3.145   2.693   1.798 -0.7820 -1.7590  0.1795
 1153SOL    MW4 4736   3.136   2.708   1.883 -0.0477 -0.0226 -0.0341
 1154SOL     OW 4737   3.359   2.848   1.968 -0.3318 -0.2111  0.3629
 1154SOL    HW2 4738   3.364   2.847   2.064 -1.3831 -1.6445  0.4314
 1154SOL    HW3 4739   3.294   2.780   1.947  1.3476 -1.3365 -1.4401
 1154SOL    MW4 4740   3.351   2.839   1.978 -0.2487 -0.5486  0.1340
 1155SOL     OW 4741   3.351   3.099   1.862 -0.1532  0.3018 -0.0900
 1155SOL    HW2 4742   3.422   3.145   1.908 -0.3864  1.4444 -0.8431
 1155SOL    HW3 4743   3.351   3.011   1.899  1.6869  0.2831 -0.0891
 1155SOL    MW4 4744   3.361   3.093   1.873  0.0587  0.4501 -0.1891
 1156SOL     OW 4745   3.132   3.211   1.972 -0.0802  0.2812  0.1216
 1156SOL    HW2 4746   3.128   3.303   1.945  0.6622  0.3779  0.3411
 1156SOL    HW3 4747   3.211   3.177   1.931 -1.2539 -0.7180 -1.3538
 1156SOL    MW4 4748   3.142   3.219   1.963 -0.1371  0.1621 -0.0441
 1157SOL     OW 4749   3.151   3.467   1.864  0.0096  0.3403  0.2368
 1157SOL    HW2 4750   3.229   3.519   1.879  0.4013 -0.2490  0.2767
 1157SOL    HW3 4751   3.164   3.430   1.776  0.3577 -0.7596  0.7479
 1157SOL    MW4 4752   3.163   3.469   1.854  0.1070  0.1173  0.3095
 1158SOL     OW 4753   3.378   3.608   1.994  0.0854 -0.1112  0.4311
 1158SOL    HW2 4754   3.465   3.569   1.987  0.0256 -0.1570 -0.1016
 1158SOL    HW3 4755   3.380   3.682   1.934  0.0432  0.4224  1.0839
 1158SOL    MW4 4756   3.390   3.612   1.985  0.0720 -0.0470  0.4470
 1159SOL     OW 4757   3.416   3.872   1.859 -0.3242 -0.2150  0.6289
 1159SOL    HW2 4758   3.338   3.910   1.899 -0.4766 -0.6989  0.8028
 1159SOL    HW3 4759   3.392   3.858   1.767 -0.2824  0.0622  0.5748
 1159SOL    MW4 4760   3.402   3.875   1.852 -0.3388 -0.2425  0.6447
 1160SOL     OW 4761   3.178   3.982   1.938  0.2777  0.4457 -0.0262
 1160SOL    HW2 4762   3.177   3.994   2.033 -0.7742  1.7363 -0.1790
 1160SOL    HW3 4763   3.089   3.952   1.917  0.8529 -0.9725 -0.4717
 1160SOL    MW4 4764   3.166   3.980   1.948  0.2148  0.4287 -0.1051
 1161SOL     OW 4765   3.176   4.264   1.903 -0.3282  0.1275 -0.1776
 1161SOL    HW2 4766   3.191   4.170   1.906 -0.3876  0.1308  0.2230
 1161SOL    HW3 4767   3.105   4.280   1.965 -0.1581  0.4645 -0.0631
 1161SOL    MW4 4768   3.169   4.254   1.911 -0.3135  0.1726 -0.1096
 1162SOL     OW 4769   3.404   4.392   1.997 -0.5439  0.4525 -0.1700
 1162SOL    HW2 4770   3.476   4.354   1.947  0.3353  1.0414  0.6431
 1162SOL    HW3 4771   3.325   4.353   1.959  0.2121 -0.3551 -0.9164
 1162SOL    MW4 4772   3.403   4.382   1.985 -0.3285  0.4239 -0.1612
 1163SOL     OW 4773   3.820   4.656   1.869 -0.1583  0.1997 -0.4787
 1163SOL    HW2 4774   3.835   4.580   1.926 -0.3194  0.0445 -0.6457
 1163SOL    HW3 4775   3.742   4.698   1.906 -0.6376 -0.2593 -0.9678
 1163SOL    MW4 4776   3.812   4.652   1.882 -0.2429  0.1187 -0.5652
 1164SOL     OW 4777   3.612   0.103   1.991  0.1226 -0.1985  0.8665
 1164SOL    HW2 4778   3.607   0.101   2.086 -1.3373  0.5188  0.8224
 1164SOL    HW3 4779   3.530   0.063   1.961  0.5547 -0.3991 -0.0799
 1164SOL    MW4 4780   3.601   0.097   1.999 -0.0131 -0.1303  0.7359
 1165SOL     OW 4781   3.607   0.370   1.922  0.4808  0.1671  0.0887
 1165SOL    HW2 4782   3.607   0.281   1.958  0.2773  0.2363  0.2578
 1165SOL    HW3 4783   3.594   0.358   1.828  0.1546  0.0363  0.1512
 1165SOL    MW4 4784   3.606   0.357   1.915  0.4113  0.1589  0.1192
 1166SOL     OW 4785   3.856   0.467   1.940  0.3002 -0.1287  0.2705
 1166SOL    HW2 4786   3.837   0.552   1.899  1.8949 -0.1456 -0.5354
 1166SOL    HW3 4787   3.781   0.412   1.916 -0.4080  0.8345  0.2162
 1166SOL    MW4 4788   3.843   0.471   1.932  0.4170 -0.0038  0.1571
 1167SOL     OW 4789   3.812   0.737   1.863 -0.0450 -0.7431 -0.1469
 1167SOL    HW2 4790   3.733   0.761   1.913 -1.3806 -1.7154 -1.7329
 1167SOL    HW3 4791   3.874   0.807   1.882 -1.2092 -0.0744  1.3291
 1167SOL    MW4 4792   3.809   0.749   1.872 -0.3750 -0.7832 -0.1613
 1168SOL     OW 4793   3.572   0.849   1.986 -0.1151 -0.7517 -0.1897
 1168SOL    HW2 4794   3.579   0.935   1.946 -0.4471 -1.1742 -1.1711
 1168SOL    HW3 4795   3.481   0.822   1.969 -0.5395 -0.5673  1.6070
 1168SOL    MW4 4796   3.561   0.857   1.979 -0.2148 -0.7831 -0.0821
 1169SOL     OW 4797   3.560   1.095   1.894 -0.2653 -0.1280 -0.0194
 1169SOL    HW2 4798   3.496   1.150   1.938 -0.5070 -0.5335  0.1375
 1169SOL    HW3 4799   3.550   1.116   1.801 -0.4878 -0.0457  0.0229
 1169SOL    MW4 4800   3.550   1.105   1.887 -0.3266 -0.1706  0.0069
 1170SOL     OW 4801   3.755   1.285   1.942  0.3565  0.3761 -0.0491
 1170SOL    HW2 4802   3.777   1.277   2.035 -0.6104  0.2422  0.1694
 1170SOL    HW3 4803   3.685   1.221   1.928 -1.2961  2.2186 -0.2997
 1170SOL    MW4 4804   3.749   1.275   1.952  0.0107  0.6014 -0.0534
 1171SOL     OW 4805   3.800   1.564   1.891  0.2375  0.6165 -0.0930
 1171SOL    HW2 4806   3.889   1.588   1.919  0.4108  0.8659 -0.8531
 1171SOL    HW3 4807   3.788   1.475   1.926  0.9793  0.3788 -0.4176
 1171SOL    MW4 4808   3.810   1.555   1.899  0.3586  0.6180 -0.2363
 1172SOL     OW 4809   3.565   1.687   1.983  0.2310  0.0310  0.7304
 1172SOL    HW2 4810   3.565   1.779   1.958 -0.0034  0.0003  0.6127
 1172SOL    HW3 4811   3.638   1.649   1.934 -0.2001 -0.0193  0.1149
 1172SOL    MW4 4812   3.574   1.694   1.973  0.1433  0.0204  0.6336
 1173SOL     OW 4813   3.615   1.954   1.928 -0.2913 -0.5043  0.4265
 1173SOL    HW2 4814   3.633   1.938   1.836 -1.0982  1.9168 -0.1816
 1173SOL    HW3 4815   3.700   1.975   1.966  0.0069 -1.2945  0.2057
 1173SOL    MW4 4816   3.628   1.955   1.921 -0.3586 -0.2891  0.3172
 1174SOL     OW 4817   3.852   2.079   2.036 -0.8199 -0.4448  0.1121
 1174SOL    HW2 4818   3.939   2.050   2.009 -0.0197  0.2843  1.8369
 1174SOL    HW3 4819   3.835   2.157   1.982  0.3056  0.3713  0.9139
 1174SOL    MW4 4820   3.861   2.086   2.025 -0.5658 -0.2408  0.4456
 1175SOL     OW 4821   3.777   2.314   1.902 -0.0210 -0.1150  0.3616
 1175SOL    HW2 4822   3.843   2.371   1.941 -0.4598  0.6452 -0.0002
 1175SOL    HW3 4823   3.694   2.347   1.935 -0.3121 -0.2250 -0.2490
 1175SOL    MW4 4824   3.775   2.326   1.911 -0.1173 -0.0293  0.2334
 1176SOL     OW 4825   3.546   2.421   2.023 -0.0272  0.1645 -0.6134
 1176SOL    HW2 4826   3.533   2.508   1.986  0.3414 -0.2655 -1.7787
 1176SOL    HW3 4827   3.477   2.367   1.983  0.2622 -0.2646 -0.5432
 1176SOL    MW4 4828   3.535   2.425   2.013  0.0596  0.0510 -0.7582
 1177SOL     OW 4829   3.589   2.685   1.903 -0.0247  0.0072  0.2683
 1177SOL    HW2 4830   3.666   2.736   1.927 -0.4584  0.5266  0.5674
 1177SOL    HW3 4831   3.515   2.742   1.922 -0.5178 -0.7165  0.5722
 1177SOL    MW4 4832   3.589   2.699   1.909 -0.1466 -0.0198  0.3479
 1178SOL     OW 4833   3.804   2.818   1.965 -0.1464 -0.8832 -0.0768
 1178SOL    HW2 4834   3.794   2.804   2.059  0.6309 -1.0262 -0.0078
 1178SOL    HW3 4835   3.800   2.913   1.954  0.7969 -0.7994  0.2392
 1178SOL    MW4 4836   3.803   2.829   1.976  0.0806 -0.8910 -0.0259
 1179SOL     OW 4837   3.777   3.080   1.901 -0.0233  0.0931 -0.0525
 1179SOL    HW2 4838   3.714   3.143   1.937  1.6800  1.3646  0.7685
 1179SOL    HW3 4839   3.770   3.091   1.806 -0.6937  0.5709  0.0474
 1179SOL    MW4 4840   3.768   3.090   1.893  0.1128  0.3235  0.0688
 1180SOL     OW 4841   3.563   3.231   1.986  0.0976 -0.1822 -0.0901
 1180SOL    HW2 4842   3.570   3.229   2.081  1.7241  0.3247 -0.1952
 1180SOL    HW3 4843   3.582   3.322   1.963  0.7016 -0.5389 -0.9871
 1180SOL    MW4 4844   3.566   3.243   1.996  0.3917 -0.1624 -0.2223
 1181SOL     OW 4845   3.636   3.482   1.902 -0.4879 -0.1095 -0.2864
 1181SOL    HW2 4846   3.723   3.521   1.915  0.0999 -2.0972  2.0976
 1181SOL    HW3 4847   3.624   3.483   1.807  1.1961  2.1495 -0.5327
 1181SOL    MW4 4848   3.646   3.487   1.891 -0.1881 -0.0737 -0.0042
 1182SOL     OW 4849   3.882   3.624   1.940  0.2246 -0.0737 -0.3067
 1182SOL    HW2 4850   3.942   3.560   1.903 -0.1816  0.4005 -1.7929
 1182SOL    HW3 4851   3.901   3.705   1.894 -0.0742  0.6085  0.7390
 1182SOL    MW4 4852   3.892   3.626   1.929  0.1318  0.0787 -0.3650
 1183SOL     OW 4853   3.864   3.890   1.851  0.0271  0.2947  0.1789
 1183SOL    HW2 4854   3.777   3.924   1.871 -0.7290 -0.6189 -1.4774
 1183SOL    HW3 4855   3.858   3.859   1.761  1.8183 -0.6114  0.3467
 1183SOL    MW4 4856   3.852   3.891   1.842  0.1636  0.0548 -0.0174
 1184SOL     OW 4857   3.638   4.018   1.954 -0.0384  0.2342 -0.0414
 1184SOL    HW2 4858   3.614   4.025   2.047 -0.9616  0.4692 -0.2892
 1184SOL    HW3 4859   3.566   3.969   1.914  1.6793 -2.2704 -0.1476
 1184SOL    MW4 4860   3.625   4.012   1.961  0.0663 -0.0653 -0.0882
 1185SOL     OW 4861   3.648   4.277   1.872  0.3510  0.1566 -0.3721
 1185SOL    HW2 4862   3.722   4.325   1.910  0.4075 -0.1447 -0.0964
 1185SOL    HW3 4863   3.659   4.187   1.903 -0.3556  0.1960  0.0012
 1185SOL    MW4 4864   3.660   4.271   1.881  0.2651  0.1221 -0.2865
 1186SOL     OW 4865   3.873   4.406   1.991 -0.5884 -0.2199  0.0163
 1186SOL    HW2 4866   3.849   4.400   2.084 -0.1520  0.6725  0.1914
 1186SOL    HW3 4867   3.951   4.350   1.983 -0.0448  0.4716  0.3977
 1186SOL    MW4 4868   3.880   4.398   2.002 -0.4592 -0.0110  0.0896
 1187SOL     OW 4869   4.308   4.637   1.924  0.2000  0.1417 -0.1554
 1187SOL    HW2 4870   4.226   4.678   1.951  1.2384 -0.0260  3.5102
 1187SOL    HW3 4871   4.376   4.698   1.952  1.3635  0.8923 -4.3024
 1187SOL    MW4 4872   4.306   4.650   1.931  0.4907  0.2186 -0.2189
 1188SOL     OW 4873   4.055   0.097   1.987  0.3779  0.0059  0.2110
 1188SOL    HW2 4874   4.045   0.085   2.081  0.1317  0.5084  0.2485
 1188SOL    HW3 4875   3.976   0.058   1.949  0.0862  0.5486  0.2642
 1188SOL    MW4 4876   4.044   0.090   1.994  0.3071  0.1438  0.2232
 1189SOL     OW 4877   4.080   0.346   1.860 -0.0956 -0.0235 -0.6708
 1189SOL    HW2 4878   4.085   0.267   1.914  0.1869  0.1820 -0.3922
 1189SOL    HW3 4879   4.003   0.393   1.894  0.0614  0.0883 -0.4697
 1189SOL    MW4 4880   4.070   0.342   1.872 -0.0377  0.0184 -0.6076
 1190SOL     OW 4881   4.264   0.539   1.926  0.2722  0.5727  0.1393
 1190SOL    HW2 4882   4.254   0.531   2.021  0.0563  0.7827  0.1336
 1190SOL    HW3 4883   4.197   0.481   1.890  1.7249 -1.1358  0.1231
 1190SOL    MW4 4884   4.254   0.531   1.933  0.4349  0.3750  0.1364
 1191SOL     OW 4885   4.285   0.796   1.828 -0.3272  0.1434 -0.0809
 1191SOL    HW2 4886   4.285   0.705   1.858 -1.0063  0.6133  1.3424
 1191SOL    HW3 4887   4.275   0.789   1.733 -0.0109 -1.2759 -0.0244
 1191SOL    MW4 4888   4.284   0.783   1.819 -0.3753  0.0181  0.1142
 1192SOL     OW 4889   4.037   0.918   1.915  0.2572  0.2025  0.1332
 1192SOL    HW2 4890   4.030   0.895   2.008 -0.6772 -1.1829 -0.2595
 1192SOL    HW3 4891   4.123   0.886   1.890  1.7590  3.2433  1.2161
 1192SOL    MW4 4892   4.047   0.911   1.924  0.3314  0.4209  0.2244
 1193SOL     OW 4893   4.033   1.198   1.832 -0.2618  0.4355 -0.3162
 1193SOL    HW2 4894   4.024   1.106   1.854  0.1561  0.5645  0.4075
 1193SOL    HW3 4895   3.950   1.238   1.859 -0.2653  0.3565 -0.2116
 1193SOL    MW4 4896   4.021   1.191   1.838 -0.2069  0.4421 -0.2068
 1194SOL     OW 4897   4.273   1.235   1.981 -0.0274 -0.1869  0.2196
 1194SOL    HW2 4898   4.252   1.256   2.072 -0.0303  0.8302 -0.0140
 1194SOL    HW3 4899   4.193   1.197   1.946  0.1283 -1.0722  0.7750
 1194SOL    MW4 4900   4.260   1.233   1.989 -0.0072 -0.1695  0.2620
 1195SOL     OW 4901   4.267   1.488   1.891  0.1886 -0.4078  0.0468
 1195SOL    HW2 4902   4.273   1.397   1.921  1.0611 -0.2339  0.4088
 1195SOL    HW3 4903   4.252   1.480   1.796 -1.4399 -0.9391  0.3355
 1195SOL    MW4 4904   4.266   1.475   1.882  0.0887 -0.4550  0.1327
 1196SOL     OW 4905   4.054   1.646   1.966  0.0294 -0.3582  0.0597
 1196SOL    HW2 4906   4.064   1.649   2.061  2.2059  0.9133 -0.1905
 1196SOL    HW3 4907   4.119   1.582   1.937 -0.9476 -1.0886 -0.5466
 1196SOL    MW4 4908   4.064   1.638   1.975  0.1879 -0.2866 -0.0533
 1197SOL     OW 4909   4.082   1.939   1.903  0.1742  0.1698 -0.0230
 1197SOL    HW2 4910   4.071   1.846   1.925  1.5663 -0.0669 -0.3238
 1197SOL    HW3 4911   4.094   1.940   1.809  0.1132  0.6687 -0.0267
 1197SOL    MW4 4912   4.082   1.927   1.894  0.3500  0.2043 -0.0632
 1198SOL     OW 4913   4.339   2.055   1.937  0.1595 -0.2773 -0.0414
 1198SOL    HW2 4914   4.337   2.071   2.031 -0.8818 -0.9308  0.0559
 1198SOL    HW3 4915   4.255   2.014   1.918  0.7892 -1.1025 -1.0867
 1198SOL    MW4 4916   4.328   2.052   1.947  0.1054 -0.4723 -0.1664
 1199SOL     OW 4917   4.229   2.318   1.896 -0.1236 -0.2920  0.3098
 1199SOL    HW2 4918   4.248   2.224   1.895  0.5065 -0.1705 -0.7046
 1199SOL    HW3 4919   4.314   2.359   1.914 -0.3142  0.0983  0.3151
 1199SOL    MW4 4920   4.243   2.311   1.898 -0.0653 -0.2246  0.1765
 1200SOL     OW 4921   4.009   2.457   2.005  0.0071 -0.4470  0.2780
 1200SOL    HW2 4922   4.012   2.449   2.100 -0.6454 -0.2429  0.3128
 1200SOL    HW3 4923   4.080   2.400   1.974  0.7240  0.0855  0.9230
 1200SOL    MW4 4924   4.019   2.449   2.013  0.0157 -0.3498  0.3676
 1201SOL     OW 4925   4.032   2.699   1.855 -0.1836 -0.2560 -0.4444
 1201SOL    HW2 4926   4.055   2.618   1.900  2.2903  0.2749 -0.6759
 1201SOL    HW3 4927   3.957   2.734   1.904 -1.0679 -2.4911 -0.1509
 1201SOL    MW4 4928   4.025   2.693   1.867  0.0257 -0.4804 -0.4361
 1202SOL     OW 4929   4.245   2.878   1.939 -0.1122 -0.3453  0.2799
 1202SOL    HW2 4930   4.260   2.848   2.029  0.1665 -1.6858 -0.1965
 1202SOL    HW3 4931   4.168   2.830   1.910  0.2180 -0.4442 -0.4413
 1202SOL    MW4 4932   4.237   2.868   1.947 -0.0315 -0.5355  0.1220
 1203SOL     OW 4933   4.253   3.143   1.877 -0.5480  0.0059 -0.0113
 1203SOL    HW2 4934   4.169   3.180   1.902 -0.4011  0.1972  0.2067
 1203SOL    HW3 4935   4.246   3.050   1.898 -0.9140 -0.0868 -0.5441
 1203SOL    MW4 4936   4.241   3.135   1.883 -0.5774  0.0188 -0.0528
 1204SOL     OW 4937   3.988   3.239   1.957  0.0410 -0.5660 -0.3551
 1204SOL    HW2 4938   4.005   3.224   2.050 -0.0894  0.6993 -0.1138
 1204SOL    HW3 4939   3.914   3.182   1.936 -1.1463  0.5310  0.7867
 1204SOL    MW4 4940   3.981   3.230   1.966 -0.1326 -0.2544 -0.1729
 1205SOL     OW 4941   4.088   3.456   1.847 -0.2302  0.1386 -0.0280
 1205SOL    HW2 4942   4.163   3.484   1.900  0.0694  0.4599 -0.6237
 1205SOL    HW3 4943   4.056   3.377   1.891  0.3662  0.0802  0.3039
 1205SOL    MW4 4944   4.093   3.449   1.860 -0.1121  0.1733 -0.0628
 1206SOL     OW 4945   4.328   3.600   1.988 -0.1956  0.3667 -0.7178
 1206SOL    HW2 4946   4.322   3.687   1.950  0.9864  1.0078  0.5074
 1206SOL    HW3 4947   4.401   3.558   1.942  0.8358  0.9240  0.3711
 1206SOL    MW4 4948   4.337   3.606   1.977  0.0963  0.5250 -0.4125
 1207SOL     OW 4949   4.296   3.839   1.859  0.4399  0.6230  0.1764
 1207SOL    HW2 4950   4.235   3.890   1.912 -0.4844 -0.2016 -0.0805
 1207SOL    HW3 4951   4.383   3.872   1.884 -0.1394  2.3079  0.0035
 1207SOL    MW4 4952   4.300   3.850   1.869  0.2418  0.7367  0.1198
 1208SOL     OW 4953   4.091   3.981   1.974 -0.0027  0.1373 -0.4063
 1208SOL    HW2 4954   4.069   3.988   2.067  1.3941 -1.7186  0.0953
 1208SOL    HW3 4955   4.011   3.946   1.934  0.1776 -1.3429  0.4956
 1208SOL    MW4 4956   4.077   3.977   1.981  0.2055 -0.3028 -0.2211
 1209SOL     OW 4957   4.086   4.249   1.913  0.0542  0.6284  0.7023
 1209SOL    HW2 4958   4.171   4.291   1.927  0.4320 -0.7464  2.7365
 1209SOL    HW3 4959   4.101   4.157   1.934 -1.4820  0.0077 -0.8084
 1209SOL    MW4 4960   4.099   4.242   1.917 -0.0987  0.3653  0.7714
 1210SOL     OW 4961   4.314   4.367   1.966  0.1866 -0.7507  0.3246
 1210SOL    HW2 4962   4.291   4.362   2.059 -2.0893 -0.2897 -0.1843
 1210SOL    HW3 4963   4.318   4.461   1.947 -1.0985 -0.8405 -0.4401
 1210SOL    MW4 4964   4.312   4.379   1.976 -0.2828 -0.7019  0.1565
 1211SOL     OW 4965   0.183   0.044   2.337  0.2494 -0.2837  0.3198
 1211SOL    HW2 4966   0.208   0.029   2.428  0.0632 -0.6656  0.3079
 1211SOL    HW3 4967   0.261   0.083   2.297 -0.5081  2.2659  1.2628
 1211SOL    MW4 4968   0.197   0.047   2.343  0.1249  0.0023  0.4425
 1212SOL     OW 4969   4.441   0.141   2.286  0.0812  0.2666  0.1496
 1212SOL    HW2 4970   4.518   0.115   2.337  0.1955 -1.0976 -0.6956
 1212SOL    HW3 4971   4.459   0.110   2.198 -1.8589 -0.9535  0.1410
 1212SOL    MW4 4972   4.454   0.134   2.281 -0.1593 -0.0744  0.0367
 1213SOL     OW 4973   4.465   0.417   2.339  0.0082 -0.2174 -0.2223
 1213SOL    HW2 4974   4.547   0.448   2.300 -0.8427  1.8104 -0.4277
 1213SOL    HW3 4975   4.466   0.323   2.325  2.1514 -0.1690 -0.5353
 1213SOL    MW4 4976   4.476   0.409   2.332  0.1793  0.0565 -0.2909
 1214SOL     OW 4977   0.204   0.515   2.236  0.1753 -0.5650  0.1404
 1214SOL    HW2 4978   0.283   0.471   2.268  0.4174 -0.7730 -0.7416
 1214SOL    HW3 4979   0.206   0.502   2.142 -0.1634  0.6717 -0.0460
 1214SOL    MW4 4980   0.215   0.507   2.228  0.1626 -0.4293 -0.0005
 1215SOL     OW 4981   0.226   0.786   2.306 -0.0616 -0.2638 -0.2415
 1215SOL    HW2 4982   0.212   0.783   2.401 -1.2914 -0.0319 -0.4087
 1215SOL    HW3 4983   0.219   0.695   2.278  1.1917 -0.4454  0.0059
 1215SOL    MW4 4984   0.223   0.774   2.315 -0.0585 -0.2573 -0.2306
 1216SOL     OW 4985   0.004   0.890   2.185  0.0846  0.1194 -0.1588
 1216SOL    HW2 4986   0.088   0.862   2.223 -0.3477  0.2940  0.9469
 1216SOL    HW3 4987   0.015   0.877   2.091  0.6265 -1.7657  0.1496
 1216SOL    MW4 4988   0.017   0.885   2.178  0.0992 -0.1063  0.0277
 1217SOL     OW 4989   4.474   1.138   2.293 -0.0690 -0.1116 -0.5492
 1217SOL    HW2 4990   4.487   1.119   2.386 -0.9647  0.2676 -0.3412
 1217SOL    HW3 4991   4.488   1.054   2.249  1.3334 -0.0851 -0.1776
 1217SOL    MW4 4992   4.478   1.124   2.299 -0.0019 -0.0581 -0.4725
 1218SOL     OW 4993   0.212   1.271   2.226  0.3755  0.2805 -0.2931
 1218SOL    HW2 4994   0.131   1.230   2.253  1.0770 -1.1700 -0.3471
 1218SOL    HW3 4995   0.201   1.289   2.133 -0.2238  0.9040 -0.0993
 1218SOL    MW4 4996   0.200   1.268   2.218  0.3890  0.1714 -0.2749
 1219SOL     OW 4997   0.214   1.517   2.333 -0.4845  0.4642  0.3954
 1219SOL    HW2 4998   0.228   1.517   2.428 -0.0644  2.3488  0.3588
 1219SOL    HW3 4999   0.223   1.425   2.307 -1.3378 -0.1815  2.2816
 1219SOL    MW4 5000   0.217   1.505   2.343 -0.5416  0.6276  0.6394
 1220SOL     OW 5001   0.000   1.661   2.243 -0.5162 -0.2030  0.1475
 1220SOL    HW2 5002   0.003   1.744   2.292  0.0444  0.5111 -1.0741
 1220SOL    HW3 5003   0.074   1.611   2.277 -1.1763 -0.4298  1.2751
 1220SOL    MW4 5004   0.010   1.665   2.254 -0.5298 -0.1386  0.1349
 1221SOL     OW 5005   0.002   1.906   2.364 -0.2939  0.3331 -0.4567
 1221SOL    HW2 5006  -0.071   1.941   2.314 -0.3197  0.3393 -0.4150
 1221SOL    HW3 5007   0.079   1.951   2.328 -0.3527  0.6079 -0.2438
 1221SOL    MW4 5008   0.003   1.917   2.352 -0.3051  0.3703 -0.4230
 1222SOL     OW 5009   0.216   2.016   2.231 -0.0397 -0.5115  0.7472
 1222SOL    HW2 5010   0.302   1.984   2.259 -0.0073 -0.1396  1.0796
 1222SOL    HW3 5011   0.224   2.026   2.136  0.8224  1.1291  0.9764
 1222SOL    MW4 5012   0.228   2.013   2.222  0.0783 -0.2460  0.8211
 1223SOL     OW 5013   0.239   2.310   2.309  0.0774 -0.1811  0.3513
 1223SOL    HW2 5014   0.231   2.309   2.405  0.6703 -0.6799  0.3996
 1223SOL    HW3 5015   0.234   2.217   2.284  2.1209 -0.2422  0.0970
 1223SOL    MW4 5016   0.237   2.297   2.318  0.4252 -0.2549  0.3240
 1224SOL     OW 5017   0.018   2.446   2.224  0.2214  0.1267 -0.2722
 1224SOL    HW2 5018   0.022   2.518   2.287  2.2308  0.5079 -0.7981
 1224SOL    HW3 5019   0.088   2.386   2.251  1.7403  0.7423 -2.6260
 1224SOL    MW4 5020   0.028   2.448   2.236  0.6866  0.2582 -0.6518
 1225SOL     OW 5021   4.458   2.708   2.381  0.3859  0.5138 -0.1512
 1225SOL    HW2 5022   4.472   2.724   2.475  0.3583 -0.3271 -0.0068
 1225SOL    HW3 5023   4.526   2.759   2.338 -0.4955  2.0847  0.2567
 1225SOL    MW4 5024   4.469   2.717   2.388  0.2666  0.6104 -0.0784
 1226SOL     OW 5025   0.195   2.823   2.245  0.0164  0.1697 -0.5429
 1226SOL    HW2 5026   0.267   2.777   2.287  2.1221  2.8452 -1.1109
 1226SOL    HW3 5027   0.208   2.808   2.151 -0.3196  0.5012 -0.6438
 1226SOL    MW4 5028   0.206   2.815   2.238  0.2499  0.5662 -0.6309
 1227SOL     OW 5029   0.205   3.082   2.369 -0.4319  0.4417 -0.2650
 1227SOL    HW2 5030   0.149   3.148   2.326 -2.0716  0.2286  1.4663
 1227SOL    HW3 5031   0.179   3.000   2.328 -0.3897  0.5141 -0.4403
 1227SOL    MW4 5032   0.194   3.080   2.358 -0.6427  0.4232 -0.0598
 1228SOL     OW 5033   4.454   3.210   2.281  0.0880  0.3469  0.3237
 1228SOL    HW2 5034   4.461   3.303   2.303  1.3971  0.2473  0.3982
 1228SOL    HW3 5035   4.463   3.207   2.186  1.0395  0.2256  0.4087
 1228SOL    MW4 5036   4.456   3.222   2.272  0.3858  0.3176  0.3448
 1229SOL     OW 5037   0.024   3.482   2.334 -0.1054  0.1401  0.3814
 1229SOL    HW2 5038   0.025   3.459   2.427 -0.8042 -1.1732  0.0784
 1229SOL    HW3 5039  -0.059   3.527   2.320 -0.2547 -0.1605  0.2861
 1229SOL    MW4 5040   0.013   3.485   2.344 -0.2173 -0.0730  0.3288
 1230SOL     OW 5041   0.224   3.629   2.221  0.7344 -0.6419 -0.2962
 1230SOL    HW2 5042   0.302   3.594   2.264  0.5842 -1.6989 -0.8540
 1230SOL    HW3 5043   0.152   3.577   2.256  0.3324  0.0197 -0.1298
 1230SOL    MW4 5044   0.225   3.618   2.231  0.6616 -0.6940 -0.3479
 1231SOL     OW 5045   0.252   3.872   2.365 -0.1040 -0.0206  0.2432
 1231SOL    HW2 5046   0.242   3.850   2.457 -2.1130  2.6009  0.7234
 1231SOL    HW3 5047   0.230   3.791   2.319 -1.8380 -0.6202  2.0273
 1231SOL    MW4 5048   0.248   3.859   2.371 -0.5978  0.2463  0.5417
 1232SOL     OW 5049   0.017   3.985   2.253  0.2814 -0.1165  0.3047
 1232SOL    HW2 5050   0.003   4.070   2.294  0.3611  1.4300 -2.7282
 1232SOL    HW3 5051   0.108   3.962   2.274  0.5343  0.9862  0.4204
 1232SOL    MW4 5052   0.027   3.993   2.261  0.3252  0.2332 -0.0803
 1233SOL     OW 5053   4.469   4.247   2.374 -0.2307 -0.2961  0.3815
 1233SOL    HW2 5054   4.469   4.256   2.469  0.0306 -0.1944  0.3735
 1233SOL    HW3 5055   4.517   4.323   2.342 -1.0198  0.0937  0.1196
 1233SOL    MW4 5056   4.476   4.258   2.382 -0.3004 -0.2317  0.3459
 1234SOL     OW 5057   0.177   4.432   2.287  0.3368 -0.0153  0.4112
 1234SOL    HW2 5058   0.256   4.388   2.318  0.3245 -0.1810  0.2026
 1234SOL    HW3 5059   0.186   4.522   2.320 -0.1159 -0.4292  1.7103
 1234SOL    MW4 5060   0.189   4.438   2.296  0.2755 -0.0925  0.5550
 1235SOL     OW 5061   0.656   4.658   2.339 -0.5081 -0.2813 -0.5134
 1235SOL    HW2 5062   0.679   4.671   2.431 -0.5922  3.5772 -0.9634
 1235SOL    HW3 5063   0.730   4.695   2.291 -1.0973 -1.0310 -2.0004
 1235SOL    MW4 5064   0.669   4.665   2.345 -0.5971  0.1287 -0.7687
 1236SOL     OW 5065   0.428   0.104   2.215  0.3393 -0.4517 -0.1634
 1236SOL    HW2 5066   0.516   0.083   2.247  0.5567 -1.8254 -1.6402
 1236SOL    HW3 5067   0.437   0.107   2.120 -0.8011  1.3582 -0.2398
 1236SOL    MW4 5068   0.441   0.102   2.207  0.2175 -0.3941 -0.3686
 1237SOL     OW 5069   0.438   0.371   2.307 -0.3642  0.5183 -0.6752
 1237SOL    HW2 5070   0.421   0.369   2.401  0.5429  2.0074 -0.4620
 1237SOL    HW3 5071   0.426   0.280   2.278  0.2888 -0.1249  1.0447
 1237SOL    MW4 5072   0.434   0.359   2.316 -0.1583  0.6299 -0.4201
 1238SOL     OW 5073   0.688   0.476   2.202  0.0943  0.1313  0.3765
 1238SOL    HW2 5074   0.696   0.567   2.230  1.1947 -0.0598  0.7046
 1238SOL    HW3 5075   0.605   0.447   2.240 -2.3426  2.1485 -3.0626
 1238SOL    MW4 5076   0.678   0.484   2.210 -0.0821  0.3723 -0.0339
 1239SOL     OW 5077   0.685   0.738   2.277 -0.0619  0.1202  0.0985
 1239SOL    HW2 5078   0.687   0.730   2.372  0.6233 -0.3920  0.0430
 1239SOL    HW3 5079   0.606   0.789   2.259 -2.2172 -2.8030  0.7400
 1239SOL    MW4 5080   0.675   0.743   2.287 -0.2558 -0.3331  0.1760
 1240SOL     OW 5081   0.470   0.900   2.228  0.3203  0.4245  0.0947
 1240SOL    HW2 5082   0.391   0.853   2.254 -0.6839  1.8239 -0.3685
 1240SOL    HW3 5083   0.474   0.891   2.133  2.0906 -1.7330  0.3370
 1240SOL    MW4 5084   0.460   0.892   2.219  0.4214  0.3244  0.0660
 1241SOL     OW 5085   0.440   1.155   2.314  0.1685 -0.6750 -0.0820
 1241SOL    HW2 5086   0.451   1.064   2.287  2.1103 -0.2509 -0.8508
 1241SOL    HW3 5087   0.360   1.184   2.271  0.0389 -1.7560 -0.5778
 1241SOL    MW4 5088   0.431   1.147   2.305  0.4076 -0.7617 -0.2487
 1242SOL     OW 5089   0.669   1.272   2.213  0.2575 -0.3309 -0.0382
 1242SOL    HW2 5090   0.660   1.365   2.234 -0.3956 -0.4966  0.4238
 1242SOL    HW3 5091   0.584   1.234   2.235  0.6028 -1.0815  0.0009
 1242SOL    MW4 5092   0.657   1.279   2.219  0.2168 -0.4518  0.0279
 1243SOL     OW 5093   0.654   1.533   2.317 -0.2587  0.1604 -0.1480
 1243SOL    HW2 5094   0.662   1.533   2.412  0.5160  1.3403 -0.2096
 1243SOL    HW3 5095   0.733   1.576   2.286  0.3033 -1.7233 -1.4182
 1243SOL    MW4 5096   0.665   1.538   2.326 -0.0824  0.0676 -0.3238
 1244SOL     OW 5097   0.424   1.660   2.219 -0.1024  0.2084 -0.0345
 1244SOL    HW2 5098   0.487   1.590   2.239  0.3775  0.4309 -0.7376
 1244SOL    HW3 5099   0.340   1.625   2.247  0.2005 -0.4732  0.0455
 1244SOL    MW4 5100   0.422   1.646   2.225  0.0009  0.1478 -0.1168
 1245SOL     OW 5101   0.470   1.916   2.314 -0.3759 -0.1737  0.6786
 1245SOL    HW2 5102   0.543   1.969   2.281  0.3902 -0.0424  2.5332
 1245SOL    HW3 5103   0.480   1.832   2.270 -0.5801  0.6259 -0.9713
 1245SOL    MW4 5104   0.481   1.912   2.304 -0.3018 -0.0508  0.7057
 1246SOL     OW 5105   0.675   2.067   2.208  0.1157 -0.5057  0.0889
 1246SOL    HW2 5106   0.757   2.019   2.223  0.3092 -0.2155 -0.0470
 1246SOL    HW3 5107   0.692   2.154   2.242 -0.0732 -0.3892 -0.1163
 1246SOL    MW4 5108   0.688   2.072   2.214  0.1163 -0.4518  0.0441
 1247SOL     OW 5109   0.691   2.315   2.342 -0.2459  0.7592  0.1059
 1247SOL    HW2 5110   0.684   2.312   2.437  2.2806 -1.1490  0.2725
 1247SOL    HW3 5111   0.767   2.371   2.325  0.0916  0.0665 -0.7360
 1247SOL    MW4 5112   0.700   2.322   2.352  0.1320  0.4160  0.0165
 1248SOL     OW 5113   0.476   2.466   2.235 -0.3050  0.1730  0.1270
 1248SOL    HW2 5114   0.557   2.426   2.269  0.1827 -0.3117 -1.5587
 1248SOL    HW3 5115   0.406   2.412   2.273  0.1421  0.5435  1.5357
 1248SOL    MW4 5116   0.478   2.454   2.245 -0.1817  0.1581  0.0908
 1249SOL     OW 5117   0.441   2.724   2.304 -0.0333  0.1144  0.1889
 1249SOL    HW2 5118   0.436   2.722   2.400  0.5876  1.5754  0.2784
 1249SOL    HW3 5119   0.464   2.635   2.279 -0.7412 -0.4080  1.3645
 1249SOL    MW4 5120   0.444   2.712   2.314 -0.0448  0.2382  0.3560
 1250SOL     OW 5121   0.658   2.883   2.228  0.0985 -0.0546  0.4932
 1250SOL    HW2 5122   0.731   2.835   2.266  0.3722  0.7056  0.9535
 1250SOL    HW3 5123   0.580   2.835   2.255  0.3682 -0.2767  0.8873
 1250SOL    MW4 5124   0.657   2.871   2.236  0.1702  0.0167  0.6058
 1251SOL     OW 5125   0.665   3.131   2.316 -0.2252 -0.1889  0.2058
 1251SOL    HW2 5126   0.581   3.169   2.289 -0.0447 -0.3220 -0.5572
 1251SOL    HW3 5127   0.660   3.040   2.287  1.3153  0.5238 -2.3949
 1251SOL    MW4 5128   0.653   3.124   2.309  0.0019 -0.1123 -0.2379
 1252SOL     OW 5129   0.424   3.244   2.257 -0.1286 -0.3225 -0.4331
 1252SOL    HW2 5130   0.372   3.169   2.286 -1.8037  0.5907 -1.0297
 1252SOL    HW3 5131   0.424   3.237   2.161 -0.0370  0.2716 -0.4742
 1252SOL    MW4 5132   0.417   3.233   2.248 -0.3375 -0.1235 -0.5171
 1253SOL     OW 5133   0.444   3.517   2.351 -0.2429  0.2666 -0.7460
 1253SOL    HW2 5134   0.522   3.565   2.322  0.7627 -0.2828  1.0078
 1253SOL    HW3 5135   0.459   3.427   2.323 -0.1041  0.0952 -0.1177
 1253SOL    MW4 5136   0.456   3.511   2.343 -0.0919  0.1714 -0.4318
 1254SOL     OW 5137   0.689   3.613   2.255 -0.0840 -0.2276 -0.1169
 1254SOL    HW2 5138   0.698   3.697   2.301  1.7379 -0.5296  0.0934
 1254SOL    HW3 5139   0.685   3.637   2.163 -1.4417  0.2113  0.0392
 1254SOL    MW4 5140   0.689   3.627   2.249 -0.0228 -0.2098 -0.0684
 1255SOL     OW 5141   0.680   3.867   2.374  0.2074  0.2038 -0.4597
 1255SOL    HW2 5142   0.687   3.869   2.469  0.5568 -1.6558 -0.4223
 1255SOL    HW3 5143   0.608   3.927   2.353  0.2741  0.7907  0.9455
 1255SOL    MW4 5144   0.672   3.875   2.384  0.2623  0.0360 -0.2692
 1256SOL     OW 5145   0.466   4.034   2.263  0.2864  0.0013  0.1876
 1256SOL    HW2 5146   0.410   3.961   2.290  0.8568 -0.2106  0.8299
 1256SOL    HW3 5147   0.465   4.031   2.167 -1.0330  0.1918  0.1946
 1256SOL    MW4 5148   0.459   4.024   2.254  0.1876 -0.0005  0.2730
 1257SOL     OW 5149   0.401   4.292   2.324 -0.4670  0.1546 -0.1832
 1257SOL    HW2 5150   0.477   4.344   2.294  1.2413 -0.7070  2.4969
 1257SOL    HW3 5151   0.415   4.206   2.284 -0.4496  0.2251 -0.3294
 1257SOL    MW4 5152   0.413   4.288   2.315 -0.2393  0.0501  0.1509
 1258SOL     OW 5153   0.657   4.391   2.263  0.1253  0.5182 -0.0821
 1258SOL    HW2 5154   0.659   4.478   2.303 -0.3576  1.0631 -1.2255
 1258SOL    HW3 5155   0.660   4.408   2.169  0.2276 -0.7153 -0.3087
 1258SOL    MW4 5156   0.658   4.405   2.256  0.0751  0.4277 -0.2627
 1259SOL     OW 5157   1.109   4.646   2.329  0.0288  0.1188  0.1309
 1259SOL    HW2 5158   1.104   4.648   2.425 -3.0561 -2.1490  0.1013
 1259SOL    HW3 5159   1.024   4.678   2.300  1.0611  1.0972 -1.8952
 1259SOL    MW4 5160   1.097   4.651   2.338 -0.2421 -0.0515 -0.1404
 1260SOL     OW 5161   0.880   0.105   2.228  0.0761 -0.4072  0.3838
 1260SOL    HW2 5162   0.881   0.192   2.268  1.7524  0.2329 -0.9833
 1260SOL    HW3 5163   0.870   0.122   2.134  0.0438 -1.7186  0.1375
 1260SOL    MW4 5164   0.879   0.119   2.221  0.2930 -0.4958  0.1707
 1261SOL     OW 5165   0.875   0.349   2.347  0.1042  0.1860 -0.3456
 1261SOL    HW2 5166   0.954   0.383   2.306  0.2254  0.0873 -0.1942
 1261SOL    HW3 5167   0.803   0.385   2.296  0.2794 -0.7564 -1.2694
 1261SOL    MW4 5168   0.876   0.358   2.335  0.1433  0.0486 -0.4475
 1262SOL     OW 5169   1.093   0.486   2.237  0.0937  0.0343  0.1179
 1262SOL    HW2 5170   1.173   0.445   2.270  0.6441  0.7428 -0.3429
 1262SOL    HW3 5171   1.098   0.476   2.142 -0.5739 -0.3042  0.1151
 1262SOL    MW4 5172   1.104   0.479   2.229  0.0782  0.0831  0.0570
 1263SOL     OW 5173   1.101   0.757   2.306 -0.3306  0.8219  0.3212
 1263SOL    HW2 5174   1.018   0.795   2.276 -0.7506  0.3161  0.8262
 1263SOL    HW3 5175   1.099   0.667   2.274 -0.6443  0.3709  1.5895
 1263SOL    MW4 5176   1.089   0.750   2.298 -0.4274  0.6957  0.5550
 1264SOL     OW 5177   0.894   0.909   2.168 -0.1266  0.4150 -0.2326
 1264SOL    HW2 5178   0.892   0.992   2.216 -0.6110  0.2608  0.0242
 1264SOL    HW3 5179   0.826   0.856   2.209  1.4225 -0.7982  0.8182
 1264SOL    MW4 5180   0.885   0.913   2.180  0.0138  0.2345 -0.0601
 1265SOL     OW 5181   0.890   1.132   2.338  0.1173  0.0864 -0.3050
 1265SOL    HW2 5182   0.965   1.189   2.320 -1.1754  1.6769 -0.8872
 1265SOL    HW3 5183   0.814   1.184   2.311 -1.2845 -0.9987  1.4068
 1265SOL    MW4 5184   0.890   1.147   2.332 -0.2382  0.1531 -0.1562
 1266SOL     OW 5185   1.107   1.253   2.216  0.1065  0.6360  0.0152
 1266SOL    HW2 5186   1.192   1.212   2.234  0.1929  0.2925 -1.1271
 1266SOL    HW3 5187   1.106   1.264   2.121 -1.0251  0.8826  0.0538
 1266SOL    MW4 5188   1.118   1.249   2.206 -0.0315  0.6231 -0.1307
 1267SOL     OW 5189   1.058   1.515   2.303 -0.3710 -0.2270  0.2570
 1267SOL    HW2 5190   1.070   1.498   2.396 -0.7884 -1.5150  0.0877
 1267SOL    HW3 5191   1.065   1.429   2.262 -0.2126  0.3275 -0.8979
 1267SOL    MW4 5192   1.060   1.502   2.310 -0.4052 -0.3239  0.0823
 1268SOL     OW 5193   0.866   1.660   2.178  0.0988 -0.0877 -0.2594
 1268SOL    HW2 5194   0.877   1.752   2.198  0.3964 -0.2537  0.3383
 1268SOL    HW3 5195   0.945   1.618   2.212 -0.4549 -0.6874  0.2928
 1268SOL    MW4 5196   0.878   1.666   2.185  0.0650 -0.1886 -0.1082
 1269SOL     OW 5197   0.902   1.922   2.267 -0.0333  0.0531  0.0229
 1269SOL    HW2 5198   0.897   1.919   2.362 -0.5516  0.1588 -0.0036
 1269SOL    HW3 5199   0.988   1.960   2.249  0.1531 -0.1719  0.4454
 1269SOL    MW4 5200   0.913   1.926   2.277 -0.0771  0.0373  0.0751
 1270SOL     OW 5201   1.347   1.888   2.308 -0.4504  0.2455  0.1366
 1270SOL    HW2 5202   1.332   1.887   2.403  0.0822 -0.3332  0.2200
 1270SOL    HW3 5203   1.309   1.806   2.277  0.0358  0.0904 -0.0456
 1270SOL    MW4 5204   1.340   1.877   2.316 -0.3160  0.1487  0.1235
 1271SOL     OW 5205   1.161   2.320   2.339  0.0831 -0.2542 -0.2773
 1271SOL    HW2 5206   1.239   2.366   2.309 -0.0516  0.7168  0.8319
 1271SOL    HW3 5207   1.158   2.241   2.285  1.6137 -0.1156 -0.5967
 1271SOL    MW4 5208   1.171   2.316   2.328  0.2673 -0.1075 -0.1731
 1272SOL     OW 5209   0.927   2.456   2.272 -0.0281  0.6021  0.3004
 1272SOL    HW2 5210   1.002   2.407   2.306  0.7419  1.0594 -0.7353
 1272SOL    HW3 5211   0.929   2.441   2.178 -0.6828  1.4029  0.1564
 1272SOL    MW4 5212   0.937   2.447   2.264 -0.0129  0.7684  0.1447
 1273SOL     OW 5213   0.863   2.721   2.343  0.2234  0.0974 -0.1539
 1273SOL    HW2 5214   0.849   2.719   2.437  0.3778 -0.1809 -0.1365
 1273SOL    HW3 5215   0.894   2.633   2.321 -0.7251 -0.1359 -0.6062
 1273SOL    MW4 5216   0.865   2.709   2.352  0.1187  0.0300 -0.2110
 1274SOL     OW 5217   1.093   2.839   2.237 -0.3182  0.7348 -0.4405
 1274SOL    HW2 5218   1.160   2.787   2.283  0.6157  1.0735 -1.4017
 1274SOL    HW3 5219   1.011   2.818   2.283  0.6879  1.5670  1.7828
 1274SOL    MW4 5220   1.091   2.829   2.249 -0.0623  0.8893 -0.2739
 1275SOL     OW 5221   1.135   3.094   2.330  0.4688 -0.0295 -0.3989
 1275SOL    HW2 5222   1.054   3.133   2.299  0.3651  0.4221  0.4349
 1275SOL    HW3 5223   1.133   3.005   2.297  0.1359  0.3050 -1.2895
 1275SOL    MW4 5224   1.124   3.088   2.322  0.4113  0.0741 -0.4063
 1276SOL     OW 5225   0.916   3.244   2.258  0.1571 -0.3972  0.1651
 1276SOL    HW2 5226   0.923   3.334   2.288  1.7479 -0.9214  1.4612
 1276SOL    HW3 5227   0.831   3.214   2.291 -0.9018  0.9457 -1.2591
 1276SOL    MW4 5228   0.906   3.252   2.266  0.2272 -0.2892  0.1483
 1277SOL     OW 5229   0.933   3.502   2.349  0.0739 -0.1362  0.2002
 1277SOL    HW2 5230   0.924   3.485   2.443 -0.5013 -0.1707  0.1377
 1277SOL    HW3 5231   0.846   3.528   2.320  0.3077  0.1295 -0.2749
 1277SOL    MW4 5232   0.920   3.503   2.358  0.0288 -0.1059  0.1295
 1278SOL     OW 5233   1.177   3.610   2.217 -0.0228 -0.0366 -0.2494
 1278SOL    HW2 5234   1.236   3.558   2.272 -0.3516  0.3568  0.4914
 1278SOL    HW3 5235   1.093   3.607   2.263 -1.0084 -1.8606 -2.0683
 1278SOL    MW4 5236   1.174   3.603   2.230 -0.1962 -0.2251 -0.3915
 1279SOL     OW 5237   1.157   3.886   2.317  0.0149  0.1571  0.2559
 1279SOL    HW2 5238   1.074   3.910   2.276 -0.1832  0.1938  0.6811
 1279SOL    HW3 5239   1.177   3.799   2.282  0.5425  0.7717 -0.9957
 1279SOL    MW4 5240   1.149   3.878   2.307  0.0585  0.2432  0.1471
 1280SOL     OW 5241   0.887   3.967   2.236  0.0285 -0.2966 -0.2187
 1280SOL    HW2 5242   0.887   4.062   2.248 -0.6736  0.0173 -2.5565
 1280SOL    HW3 5243   0.821   3.935   2.297 -0.8915  0.8856 -0.5854
 1280SOL    MW4 5244   0.878   3.975   2.246 -0.1855 -0.0992 -0.5755
 1281SOL     OW 5245   0.889   4.236   2.340 -0.3253  0.1075 -0.3606
 1281SOL    HW2 5246   0.884   4.228   2.436  1.1370  2.0317 -0.0855
 1281SOL    HW3 5247   0.806   4.277   2.315 -0.4924  0.0883  0.1559
 1281SOL    MW4 5248   0.877   4.241   2.350 -0.1544  0.3595 -0.2561
 1282SOL     OW 5249   1.106   4.379   2.239 -0.1152  0.4116  0.0458
 1282SOL    HW2 5250   1.031   4.339   2.283  0.1827 -0.8851 -0.6231
 1282SOL    HW3 5251   1.104   4.471   2.268 -2.2775  0.5271 -0.4311
 1282SOL    MW4 5252   1.096   4.386   2.249 -0.3613  0.2556 -0.1051
 1283SOL     OW 5253   1.555   0.013   2.365 -0.1488  0.2858  0.4111
 1283SOL    HW2 5254   1.632   0.060   2.332  0.3394 -0.5190  0.3660
 1283SOL    HW3 5255   1.482   0.049   2.316  0.6780 -1.5599 -2.3582
 1283SOL    MW4 5256   1.556   0.024   2.354  0.0248 -0.0634  0.0401
 1284SOL     OW 5257   1.321   0.106   2.207 -0.1808  0.0805 -0.0201
 1284SOL    HW2 5258   1.312   0.194   2.244  0.1083  0.0177  0.2053
 1284SOL    HW3 5259   1.257   0.053   2.255  0.7984 -0.1958  1.0330
 1284SOL    MW4 5260   1.312   0.111   2.218 -0.0135  0.0358  0.1485
 1285SOL     OW 5261   1.313   0.362   2.324  0.2967  0.1817  0.1176
 1285SOL    HW2 5262   1.317   0.384   2.417  1.4893 -0.6819  0.2777
 1285SOL    HW3 5263   1.389   0.406   2.286  0.5661 -0.5640 -0.2160
 1285SOL    MW4 5264   1.323   0.371   2.331  0.4896 -0.0306  0.0947
 1286SOL     OW 5265   1.556   0.500   2.224  0.1725  0.0395 -0.4397
 1286SOL    HW2 5266   1.617   0.448   2.277 -2.3403 -2.4308  0.1356
 1286SOL    HW3 5267   1.592   0.496   2.135  1.2213 -0.7776  0.0111
 1286SOL    MW4 5268   1.569   0.493   2.219 -0.0206 -0.3943 -0.3042
 1287SOL     OW 5269   1.543   0.747   2.309 -0.2083 -0.0705 -0.1024
 1287SOL    HW2 5270   1.626   0.782   2.277  0.5314  0.4689  2.3525
 1287SOL    HW3 5271   1.546   0.654   2.286  0.5160  0.1956 -1.1355
 1287SOL    MW4 5272   1.554   0.739   2.302 -0.0151  0.0358  0.0849
 1288SOL     OW 5273   1.329   0.857   2.171  0.7232 -0.3250 -0.3021
 1288SOL    HW2 5274   1.409   0.827   2.214  0.2586 -0.0498  0.7707
 1288SOL    HW3 5275   1.259   0.806   2.212  0.2134  0.3502 -0.3249
 1288SOL    MW4 5276   1.330   0.847   2.182  0.5946 -0.1997 -0.1633
 1289SOL     OW 5277   1.352   1.113   2.288  0.5119 -0.0507  0.1985
 1289SOL    HW2 5278   1.343   1.107   2.383 -0.4093  0.2171  0.1280
 1289SOL    HW3 5279   1.329   1.026   2.256 -0.5646  0.2613  0.1167
 1289SOL    MW4 5280   1.348   1.101   2.297  0.2486  0.0257  0.1783
 1290SOL     OW 5281   1.550   1.293   2.216 -0.0808  0.1588 -0.5641
 1290SOL    HW2 5282   1.500   1.218   2.250 -2.1349  1.3873 -0.7854
 1290SOL    HW3 5283   1.560   1.275   2.123 -0.6013  0.1798 -0.6243
 1290SOL    MW4 5284   1.545   1.281   2.208 -0.4203  0.3238 -0.6011
 1291SOL     OW 5285   1.513   1.552   2.315  0.4899  0.3129  0.1121
 1291SOL    HW2 5286   1.594   1.596   2.292  0.0401  0.7943 -0.5698
 1291SOL    HW3 5287   1.521   1.465   2.275  1.1095 -0.0104  0.9290
 1291SOL    MW4 5288   1.525   1.546   2.306  0.5125  0.3338  0.1297
 1292SOL     OW 5289   1.275   1.649   2.192  0.1063  0.0472 -0.3211
 1292SOL    HW2 5290   1.355   1.632   2.241 -0.0039 -1.9862 -0.8110
 1292SOL    HW3 5291   1.209   1.591   2.231 -0.2348 -0.8417 -2.1545
 1292SOL    MW4 5292   1.277   1.639   2.203  0.0467 -0.3384 -0.6275
 1293SOL     OW 5293   1.149   2.069   2.211  0.2695  0.0430 -0.4215
 1293SOL    HW2 5294   1.168   2.069   2.117  1.1923  1.9944 -0.2550
 1293SOL    HW3 5295   1.217   2.012   2.248 -0.9016 -1.8257 -1.0481
 1293SOL    MW4 5296   1.161   2.061   2.203  0.2366  0.0541 -0.4823
 1294SOL     OW 5297   1.530   2.054   2.190 -0.6935  0.2042 -0.1370
 1294SOL    HW2 5298   1.611   2.014   2.222 -0.6240 -0.2518 -0.8601
 1294SOL    HW3 5299   1.460   2.004   2.234 -0.5879  0.1403 -0.0421
 1294SOL    MW4 5300   1.531   2.042   2.200 -0.6704  0.1357 -0.2198
 1295SOL     OW 5301   1.597   2.287   2.301 -0.1888  0.1389 -0.7006
 1295SOL    HW2 5302   1.592   2.280   2.396  0.8963  1.5915 -0.5051
 1295SOL    HW3 5303   1.577   2.199   2.268  0.1551 -0.5408  0.8959
 1295SOL    MW4 5304   1.594   2.274   2.309 -0.0002  0.2408 -0.4642
 1296SOL     OW 5305   1.365   2.443   2.213 -0.5614 -0.4538 -0.0689
 1296SOL    HW2 5306   1.450   2.401   2.220  0.9606  2.4884 -0.0685
 1296SOL    HW3 5307   1.347   2.444   2.119 -0.5923 -1.0760 -0.0691
 1296SOL    MW4 5308   1.374   2.438   2.201 -0.3645 -0.1481 -0.0687
 1297SOL     OW 5309   1.315   2.702   2.316  0.0205  0.5655  0.4134
 1297SOL    HW2 5310   1.400   2.742   2.298  0.4974 -1.0128 -0.9902
 1297SOL    HW3 5311   1.326   2.610   2.293 -1.9862  0.2640  0.5033
 1297SOL    MW4 5312   1.327   2.695   2.310 -0.1813  0.3176  0.2403
 1298SOL     OW 5313   1.552   2.832   2.266  0.8455  0.4165  0.1810
 1298SOL    HW2 5314   1.542   2.924   2.288  1.4749  0.7504 -0.8854
 1298SOL    HW3 5315   1.575   2.832   2.173 -0.7402 -0.9075 -0.2290
 1298SOL    MW4 5316   1.554   2.844   2.257  0.7194  0.2859 -0.0138
 1299SOL     OW 5317   1.575   3.094   2.338  0.0408 -0.2651  0.0838
 1299SOL    HW2 5318   1.590   3.114   2.430 -0.1279  1.9942 -0.3617
 1299SOL    HW3 5319   1.507   3.155   2.310  1.4168  0.3554 -2.0090
 1299SOL    MW4 5320   1.568   3.105   2.346  0.1999  0.1149 -0.2511
 1300SOL     OW 5321   1.354   3.249   2.272 -0.3986  0.3284 -0.3409
 1300SOL    HW2 5322   1.276   3.200   2.301 -1.8857  2.3456 -0.8385
 1300SOL    HW3 5323   1.352   3.244   2.177  0.1855  0.2600 -0.3538
 1300SOL    MW4 5324   1.343   3.242   2.263 -0.5177  0.5853 -0.4082
 1301SOL     OW 5325   1.369   3.500   2.378 -0.0091  0.2714 -0.2494
 1301SOL    HW2 5326   1.379   3.501   2.473 -0.4228  0.0340 -0.2052
 1301SOL    HW3 5327   1.354   3.408   2.356 -1.1689  0.4956 -0.4170
 1301SOL    MW4 5328   1.369   3.488   2.388 -0.2167  0.2694 -0.2658
 1302SOL     OW 5329   1.590   3.614   2.244  0.0976 -0.3398  0.0624
 1302SOL    HW2 5330   1.582   3.708   2.262  1.1970 -0.1662 -0.3294
 1302SOL    HW3 5331   1.511   3.576   2.283 -0.3176  0.7301  0.3014
 1302SOL    MW4 5332   1.578   3.622   2.251  0.1878 -0.1755  0.0422
 1303SOL     OW 5333   1.587   3.884   2.300  0.5160  0.1215 -0.6604
 1303SOL    HW2 5334   1.583   3.876   2.395  1.1869  0.5464 -0.5934
 1303SOL    HW3 5335   1.512   3.937   2.276 -0.6527 -1.4488 -0.5363
 1303SOL    MW4 5336   1.577   3.890   2.309  0.4501 -0.0296 -0.6351
 1304SOL     OW 5337   1.376   4.043   2.286  0.2718  0.1595 -0.0775
 1304SOL    HW2 5338   1.307   3.978   2.300  0.4025  0.3117  1.3679
 1304SOL    HW3 5339   1.377   4.056   2.191 -0.7161 -0.8953 -0.2541
 1304SOL    MW4 5340   1.367   4.036   2.275  0.1587  0.0401  0.0896
 1305SOL     OW 5341   1.337   4.299   2.342 -0.0861  0.0222  0.0953
 1305SOL    HW2 5342   1.341   4.205   2.329 -0.8025 -0.1706  1.2563
 1305SOL    HW3 5343   1.251   4.325   2.307  0.3730  0.3434 -0.8136
 1305SOL    MW4 5344   1.326   4.290   2.335 -0.1200  0.0391  0.1285
 1306SOL     OW 5345   1.541   4.433   2.205 -0.4096  0.5219 -0.0808
 1306SOL    HW2 5346   1.474   4.368   2.229 -0.2709  0.3775 -0.0804
 1306SOL    HW3 5347   1.535   4.500   2.273  2.2250 -1.5170  2.2500
 1306SOL    MW4 5348   1.531   4.433   2.217 -0.0437  0.2332  0.2267
 1307SOL     OW 5349   2.016   4.657   2.375 -0.9669 -0.5277  0.4991
 1307SOL    HW2 5350   2.075   4.694   2.309 -1.6690 -0.6635 -0.2222
 1307SOL    HW3 5351   2.025   4.562   2.365 -2.8624 -0.5853 -1.0893
 1307SOL    MW4 5352   2.025   4.650   2.365 -1.3096 -0.5532  0.1945
 1308SOL     OW 5353   1.800   0.121   2.253  0.3477 -0.1212  0.7320
 1308SOL    HW2 5354   1.803   0.205   2.299  0.1634  0.2959  0.0030
 1308SOL    HW3 5355   1.875   0.072   2.286 -0.5679 -0.3775  2.4736
 1308SOL    MW4 5356   1.810   0.126   2.263  0.2025 -0.1000  0.8655
 1309SOL     OW 5357   1.805   0.383   2.328  0.8121  0.1543 -0.4675
 1309SOL    HW2 5358   1.799   0.414   2.418 -0.2973  2.2900 -1.2218
 1309SOL    HW3 5359   1.886   0.420   2.294  1.1396 -0.4991 -0.4054
 1309SOL    MW4 5360   1.815   0.392   2.335  0.7088  0.3499 -0.5589
 1310SOL     OW 5361   2.024   0.489   2.206  0.5712  0.0761  0.3946
 1310SOL    HW2 5362   2.038   0.575   2.245  1.2841 -0.1133  0.5662
 1310SOL    HW3 5363   2.095   0.435   2.240  0.3308 -0.4879  0.0152
 1310SOL    MW4 5364   2.035   0.493   2.215  0.6337 -0.0233  0.3674
 1311SOL     OW 5365   2.041   0.745   2.331 -0.3283  0.1119  0.4490
 1311SOL    HW2 5366   2.115   0.788   2.288 -0.9729 -0.9786 -1.8864
 1311SOL    HW3 5367   1.966   0.800   2.310 -0.4157  0.3976  1.5075
 1311SOL    MW4 5368   2.041   0.758   2.322 -0.4249  0.0057  0.2806
 1312SOL     OW 5369   1.782   0.855   2.230  0.0836  0.0963 -0.5193
 1312SOL    HW2 5370   1.789   0.950   2.240  0.0855 -0.0009  0.4589
 1312SOL    HW3 5371   1.790   0.840   2.136  0.8227  0.9998 -0.6028
 1312SOL    MW4 5372   1.784   0.866   2.219  0.1814  0.2027 -0.4013
 1313SOL     OW 5373   1.769   1.136   2.305 -0.0010 -0.1137 -0.0519
 1313SOL    HW2 5374   1.850   1.179   2.279 -0.3190  0.5516  0.0495
 1313SOL    HW3 5375   1.700   1.190   2.266 -0.4199 -0.1648  0.6211
 1313SOL    MW4 5376   1.771   1.149   2.296 -0.0982 -0.0325  0.0501
 1314SOL     OW 5377   1.998   1.250   2.242  0.1631 -0.1158 -0.6116
 1314SOL    HW2 5378   2.007   1.332   2.291 -1.1141  0.1750 -0.8291
 1314SOL    HW3 5379   2.009   1.276   2.150 -1.2702  0.0180 -0.7687
 1314SOL    MW4 5380   2.001   1.265   2.236 -0.1948 -0.0598 -0.6609
 1315SOL     OW 5381   1.994   1.509   2.339 -0.2556 -0.4357  0.0800
 1315SOL    HW2 5382   1.984   1.526   2.433 -0.8855  1.3427 -0.2717
 1315SOL    HW3 5383   1.911   1.540   2.301  0.0001 -1.1397 -1.0544
 1315SOL    MW4 5384   1.981   1.516   2.346 -0.3049 -0.2940 -0.1161
 1316SOL     OW 5385   1.776   1.631   2.237 -0.2120  0.6752 -0.4065
 1316SOL    HW2 5386   1.763   1.724   2.257  0.1482  0.8822 -1.1473
 1316SOL    HW3 5387   1.769   1.625   2.142 -0.4631 -0.0933 -0.3433
 1316SOL    MW4 5388   1.773   1.643   2.227 -0.1976  0.6011 -0.4959
 1317SOL     OW 5389   1.776   1.894   2.325  0.6286  0.2838  0.1905
 1317SOL    HW2 5390   1.786   1.921   2.416 -2.7431  0.9600  0.4325
 1317SOL    HW3 5391   1.844   1.943   2.278  2.1833  0.1845  2.2663
 1317SOL    MW4 5392   1.786   1.904   2.331  0.3887  0.3598  0.4964
 1318SOL     OW 5393   2.005   2.013   2.232  0.0017  0.0536  0.5074
 1318SOL    HW2 5394   2.069   1.957   2.277  1.2973  0.4995 -0.7205
 1318SOL    HW3 5395   2.038   2.102   2.245  0.9409  0.1252 -2.1000
 1318SOL    MW4 5396   2.018   2.017   2.240  0.2968  0.1221  0.0017
 1319SOL     OW 5397   2.035   2.288   2.299 -0.0409 -0.2754  0.2559
 1319SOL    HW2 5398   1.961   2.321   2.248  0.3902 -1.1509 -0.9558
 1319SOL    HW3 5399   2.107   2.347   2.279 -0.1992  0.1125  0.8228
 1319SOL    MW4 5400   2.035   2.300   2.289 -0.0050 -0.3397  0.1712
 1320SOL     OW 5401   1.795   2.447   2.191  0.3752 -0.2732  0.5525
 1320SOL    HW2 5402   1.727   2.389   2.224 -0.3246 -0.3653 -1.0183
 1320SOL    HW3 5403   1.777   2.532   2.232 -0.1667 -0.5063  0.7916
 1320SOL    MW4 5404   1.784   2.451   2.201  0.2112 -0.3161  0.3765
 1321SOL     OW 5405   1.786   2.704   2.307  0.1599 -0.4176 -0.3568
 1321SOL    HW2 5406   1.862   2.744   2.265  1.5998  0.2173  2.7135
 1321SOL    HW3 5407   1.716   2.768   2.298  0.6171 -0.0293 -1.1878
 1321SOL    MW4 5408   1.787   2.718   2.300  0.4102 -0.2825 -0.0613
 1322SOL     OW 5409   2.020   2.826   2.212 -0.0520  0.1312  0.2637
 1322SOL    HW2 5410   2.090   2.779   2.256  2.0588  0.4102 -2.6718
 1322SOL    HW3 5411   2.026   2.915   2.246  2.3397  0.6483 -1.4236
 1322SOL    MW4 5412   2.030   2.831   2.222  0.5422  0.2363 -0.3462
 1323SOL     OW 5413   2.008   3.079   2.318 -0.0089 -0.2735  0.7024
 1323SOL    HW2 5414   1.934   3.132   2.287 -0.1748 -0.2963  1.0513
 1323SOL    HW3 5415   2.006   3.089   2.413  1.8322  1.5552  0.5727
 1323SOL    MW4 5416   1.998   3.087   2.327  0.2123 -0.0353  0.7312
 1324SOL     OW 5417   1.785   3.234   2.211 -0.5283 -0.1157 -0.1975
 1324SOL    HW2 5418   1.713   3.178   2.240 -0.6795  0.1535 -0.0517
 1324SOL    HW3 5419   1.775   3.314   2.262 -0.2803  0.0233 -0.3675
 1324SOL    MW4 5420   1.774   3.237   2.221 -0.5156 -0.0620 -0.2005
 1325SOL     OW 5421   1.799   3.473   2.343 -0.5557 -0.1175 -0.1186
 1325SOL    HW2 5422   1.808   3.494   2.436  2.4631  0.3325 -0.4690
 1325SOL    HW3 5423   1.719   3.518   2.316 -2.4376 -1.6442  2.6154
 1325SOL    MW4 5424   1.789   3.481   2.352 -0.4055 -0.2594  0.1957
 1326SOL     OW 5425   2.000   3.626   2.247 -0.9053 -0.2606 -0.4291
 1326SOL    HW2 5426   1.920   3.575   2.256 -0.7003 -0.5270 -0.0974
 1326SOL    HW3 5427   2.067   3.573   2.290 -0.5064 -0.1464 -0.9054
 1326SOL    MW4 5428   1.999   3.612   2.254 -0.8256 -0.2809 -0.4482
 1327SOL     OW 5429   2.018   3.887   2.310  0.3514  0.1791  0.1271
 1327SOL    HW2 5430   1.999   3.890   2.404 -0.4845 -0.8957  0.0014
 1327SOL    HW3 5431   2.011   3.794   2.287  0.0861  0.4934 -1.0950
 1327SOL    MW4 5432   2.014   3.875   2.320  0.2060  0.0784 -0.0508
 1328SOL     OW 5433   1.793   4.034   2.223  0.2545 -0.0366 -0.2652
 1328SOL    HW2 5434   1.869   3.979   2.241  0.2885  0.6734  1.9615
 1328SOL    HW3 5435   1.718   3.982   2.253  0.1048  0.2775 -0.0843
 1328SOL    MW4 5436   1.793   4.020   2.229  0.2393  0.0987  0.0525
 1329SOL     OW 5437   1.745   4.282   2.339 -0.7193  0.1866 -0.6348
 1329SOL    HW2 5438   1.760   4.195   2.301 -0.1067  0.6636 -1.4954
 1329SOL    HW3 5439   1.685   4.325   2.278 -0.6198  0.5495 -0.4802
 1329SOL    MW4 5440   1.739   4.276   2.326 -0.6254  0.2975 -0.7277
 1330SOL     OW 5441   2.002   4.389   2.271 -0.2725 -0.1554  0.1899
 1330SOL    HW2 5442   1.928   4.337   2.302 -0.9307  1.1044  0.7468
 1330SOL    HW3 5443   1.990   4.393   2.176 -1.7051  1.2153  0.4127
 1330SOL    MW4 5444   1.991   4.383   2.263 -0.5482  0.1922  0.2928
 1331SOL     OW 5445   2.484   0.010   2.385  0.3796  0.6088  0.3659
 1331SOL    HW2 5446   2.556   0.069   2.360  1.2233  0.0607  1.4650
 1331SOL    HW3 5447   2.497  -0.067   2.330  0.9996  0.2637  0.9847
 1331SOL    MW4 5448   2.495   0.007   2.375  0.5727  0.4909  0.5925
 1332SOL     OW 5449   2.254   0.070   2.241  0.2228 -0.1511  0.4943
 1332SOL    HW2 5450   2.247   0.163   2.265  0.2012 -0.3160  1.1545
 1332SOL    HW3 5451   2.334   0.040   2.284  0.5502 -0.2975 -0.2079
 1332SOL    MW4 5452   2.263   0.078   2.250  0.2632 -0.1922  0.4885
 1333SOL     OW 5453   2.233   0.345   2.359  0.0526  0.1140  0.1017
 1333SOL    HW2 5454   2.306   0.402   2.336 -0.4723  1.2070  1.0855
 1333SOL    HW3 5455   2.223   0.357   2.454  0.4415 -2.2178  0.4739
 1333SOL    MW4 5456   2.242   0.354   2.369  0.0350 -0.0495  0.2806
 1334SOL     OW 5457   2.458   0.512   2.290  0.0622  0.2908  0.1627
 1334SOL    HW2 5458   2.533   0.462   2.322 -0.7670 -1.5263 -0.6214
 1334SOL    HW3 5459   2.465   0.505   2.194 -1.4719 -0.5088  0.0896
 1334SOL    MW4 5460   2.469   0.504   2.281 -0.2499 -0.0544  0.0496
 1335SOL     OW 5461   2.467   0.786   2.343  0.1587  0.1575 -0.4590
 1335SOL    HW2 5462   2.557   0.802   2.316  0.2969 -0.6821 -0.5060
 1335SOL    HW3 5463   2.456   0.691   2.336 -0.3597  0.1302  0.7246
 1335SOL    MW4 5464   2.477   0.775   2.338  0.1082  0.0431 -0.3090
 1336SOL     OW 5465   2.245   0.880   2.210  0.3521 -0.4569 -0.1077
 1336SOL    HW2 5466   2.245   0.965   2.255 -0.2113 -0.4385 -0.1392
 1336SOL    HW3 5467   2.329   0.841   2.232  0.5401  0.0357  0.0544
 1336SOL    MW4 5468   2.256   0.886   2.219  0.3023 -0.3895 -0.0906
 1337SOL     OW 5469   2.224   1.124   2.318  0.0563 -0.4073 -0.0105
 1337SOL    HW2 5470   2.288   1.190   2.290  1.3489 -2.0542 -1.0598
 1337SOL    HW3 5471   2.141   1.155   2.283  0.8203  0.1890 -1.3557
 1337SOL    MW4 5472   2.222   1.136   2.310  0.3276 -0.5460 -0.3266
 1338SOL     OW 5473   2.441   1.251   2.216  0.2630  0.2407  0.4115
 1338SOL    HW2 5474   2.501   1.184   2.248 -1.3174 -1.0980  0.6349
 1338SOL    HW3 5475   2.473   1.333   2.254  2.0765 -0.4065  0.3111
 1338SOL    MW4 5476   2.453   1.253   2.225  0.2937 -0.0215  0.4277
 1339SOL     OW 5477   2.481   1.479   2.365  0.3153 -0.0940 -0.0971
 1339SOL    HW2 5478   2.481   1.481   2.461  0.1504 -0.4677 -0.0868
 1339SOL    HW3 5479   2.564   1.519   2.340  0.7691 -0.8194  0.2286
 1339SOL    MW4 5480   2.492   1.484   2.375  0.3533 -0.2390 -0.0529
 1340SOL     OW 5481   2.268   1.626   2.284 -0.2645 -0.0786 -0.0636
 1340SOL    HW2 5482   2.339   1.570   2.315 -1.0047  0.0297  1.8990
 1340SOL    HW3 5483   2.189   1.586   2.320 -0.8528  1.9148  0.9042
 1340SOL    MW4 5484   2.267   1.613   2.292 -0.4399  0.1986  0.3228
 1341SOL     OW 5485   2.227   1.884   2.330  0.6998  0.4018  0.1181
 1341SOL    HW2 5486   2.247   1.903   2.422  2.6939 -0.9110 -0.0058
 1341SOL    HW3 5487   2.235   1.789   2.323  0.1715  0.4536 -1.3256
 1341SOL    MW4 5488   2.231   1.874   2.342  0.8931  0.2354 -0.0889
 1342SOL     OW 5489   2.451   2.039   2.244 -0.0594 -0.4961 -0.0841
 1342SOL    HW2 5490   2.519   1.982   2.281  0.4478  0.3042  0.2406
 1342SOL    HW3 5491   2.369   1.997   2.266  0.3296 -1.3260 -0.2178
 1342SOL    MW4 5492   2.449   2.026   2.252  0.0589 -0.5002 -0.0587
 1343SOL     OW 5493   2.461   2.323   2.336  0.4252  0.0209 -0.2586
 1343SOL    HW2 5494   2.544   2.363   2.312  0.5473 -0.4506 -0.6346
 1343SOL    HW3 5495   2.472   2.230   2.315 -0.1743 -0.0540 -0.2528
 1343SOL    MW4 5496   2.473   2.316   2.330  0.3619 -0.0515 -0.3073
 1344SOL     OW 5497   2.239   2.450   2.235  0.2862 -0.2096  0.2124
 1344SOL    HW2 5498   2.236   2.533   2.283  0.9887 -0.1157  0.1030
 1344SOL    HW3 5499   2.314   2.404   2.272  0.6731 -0.2505 -0.6034
 1344SOL    MW4 5500   2.248   2.455   2.246  0.4299 -0.2024  0.0904
 1345SOL     OW 5501   2.223   2.693   2.340  0.0562  0.4179  0.5337
 1345SOL    HW2 5502   2.236   2.696   2.434 -0.4044  1.8457  0.5622
 1345SOL    HW3 5503   2.294   2.747   2.304  0.3832 -0.3310  0.0467
 1345SOL    MW4 5504   2.234   2.701   2.347  0.0389  0.5076  0.4735
 1346SOL     OW 5505   2.428   2.858   2.254  0.3332 -0.1877  0.1414
 1346SOL    HW2 5506   2.507   2.824   2.297  0.3973  0.2041  0.3354
 1346SOL    HW3 5507   2.440   2.836   2.162  1.6439  1.6899 -0.1525
 1346SOL    MW4 5508   2.440   2.850   2.248  0.5145  0.1118  0.1283
 1347SOL     OW 5509   2.407   3.126   2.334 -0.7715  0.0440  0.0178
 1347SOL    HW2 5510   2.495   3.153   2.309 -1.5521  0.1822 -2.7847
 1347SOL    HW3 5511   2.402   3.033   2.311 -1.3354  0.0263  0.1862
 1347SOL    MW4 5512   2.418   3.117   2.328 -0.9487  0.0601 -0.3297
 1348SOL     OW 5513   2.186   3.257   2.231 -0.0781 -0.0641  0.5600
 1348SOL    HW2 5514   2.119   3.199   2.268  0.5962 -0.9152  0.4602
 1348SOL    HW3 5515   2.269   3.214   2.252  0.4594  1.2228  1.0881
 1348SOL    MW4 5516   2.188   3.243   2.239  0.0820 -0.0067  0.6166
 1349SOL     OW 5517   2.217   3.494   2.380 -0.0369 -0.1145 -0.1234
 1349SOL    HW2 5518   2.216   3.473   2.473  0.0193  0.2272 -0.0472
 1349SOL    HW3 5519   2.224   3.409   2.336 -0.2084 -0.2835  0.1795
 1349SOL    MW4 5520   2.218   3.480   2.386 -0.0520 -0.0916 -0.0734
 1350SOL     OW 5521   2.439   3.595   2.268 -0.0403  0.1623  0.6144
 1350SOL    HW2 5522   2.442   3.688   2.292  1.4250 -0.3126  2.4611
 1350SOL    HW3 5523   2.364   3.560   2.316 -0.3277  0.3187  0.2720
 1350SOL    MW4 5524   2.430   3.603   2.278  0.1152  0.1202  0.8128
 1351SOL     OW 5525   2.469   3.867   2.352  0.1089 -0.5436 -0.1681
 1351SOL    HW2 5526   2.443   3.840   2.441 -0.0087 -1.9905 -0.6290
 1351SOL    HW3 5527   2.389   3.903   2.314 -0.3303 -1.6789 -0.3411
 1351SOL    MW4 5528   2.455   3.868   2.359  0.0355 -0.8841 -0.2518
 1352SOL     OW 5529   2.255   4.021   2.252  0.5129 -0.1731  0.2762
 1352SOL    HW2 5530   2.263   4.110   2.288  0.0534 -0.7558  1.8634
 1352SOL    HW3 5531   2.163   3.998   2.266  0.7947 -1.1658  0.5232
 1352SOL    MW4 5532   2.244   4.030   2.258  0.4895 -0.3810  0.5183
 1353SOL     OW 5533   2.256   4.293   2.326 -0.0644 -0.5124  0.2499
 1353SOL    HW2 5534   2.239   4.271   2.418 -0.7432  0.2647  0.3212
 1353SOL    HW3 5535   2.171   4.326   2.294  0.8896  1.9664  0.1518
 1353SOL    MW4 5536   2.242   4.295   2.334 -0.0281 -0.0830  0.2463
 1354SOL     OW 5537   2.484   4.416   2.265 -0.1105 -0.2941  0.5054
 1354SOL    HW2 5538   2.549   4.362   2.309 -1.8457 -1.7283  1.3967
 1354SOL    HW3 5539   2.400   4.373   2.285 -1.1318  0.2079 -2.4643
 1354SOL    MW4 5540   2.481   4.403   2.274 -0.4745 -0.4172  0.2313
 1355SOL     OW 5541   2.924   4.640   2.388  0.2087  0.0516  0.3251
 1355SOL    HW2 5542   3.000   4.678   2.344  0.4844 -0.3395  0.4539
 1355SOL    HW3 5543   2.909   4.558   2.342  0.4194 -0.2958  0.8751
 1355SOL    MW4 5544   2.932   4.634   2.376  0.2730 -0.0463  0.4148
 1356SOL     OW 5545   2.736   0.125   2.254  0.0233 -0.0906  0.1763
 1356SOL    HW2 5546   2.748   0.208   2.301 -0.6835 -1.7272  3.3704
 1356SOL    HW3 5547   2.783   0.061   2.307 -0.7999 -2.0319 -1.3928
 1356SOL    MW4 5548   2.744   0.128   2.267 -0.1786 -0.5627  0.3905
 1357SOL     OW 5549   2.701   0.371   2.375 -0.1176 -0.7964  0.7817
 1357SOL    HW2 5550   2.715   0.365   2.470 -0.3925  0.9743  0.9562
 1357SOL    HW3 5551   2.786   0.395   2.340 -0.1097 -1.0654  0.6136
 1357SOL    MW4 5552   2.714   0.373   2.383 -0.1528 -0.5983  0.7825
 1358SOL     OW 5553   2.930   0.491   2.289  0.6616 -0.0689  0.2742
 1358SOL    HW2 5554   2.924   0.584   2.313  0.5325  0.0350 -0.1549
 1358SOL    HW3 5555   2.910   0.489   2.195  0.0464 -0.6039  0.4088
 1358SOL    MW4 5556   2.926   0.503   2.280  0.5636 -0.1257  0.2353
 1359SOL     OW 5557   2.917   0.743   2.368 -0.0270 -0.1044 -0.0828
 1359SOL    HW2 5558   2.915   0.769   2.460 -1.5899 -2.1545  0.5083
 1359SOL    HW3 5559   2.839   0.784   2.330  1.2846  1.7738 -0.8300
 1359SOL    MW4 5560   2.906   0.752   2.375 -0.0601 -0.1270 -0.1035
 1360SOL     OW 5561   2.708   0.875   2.257 -0.0285  0.3677  0.0687
 1360SOL    HW2 5562   2.693   0.965   2.283  0.7933  0.4091  0.4133
 1360SOL    HW3 5563   2.699   0.875   2.162 -0.1199  0.7888  0.0783
 1360SOL    MW4 5564   2.705   0.887   2.248  0.0679  0.4287  0.1156
 1361SOL     OW 5565   2.671   1.127   2.341 -0.2260  0.1085 -0.5259
 1361SOL    HW2 5566   2.667   1.126   2.437 -0.9177 -1.3146 -0.5552
 1361SOL    HW3 5567   2.744   1.185   2.321  0.0345  0.2883  0.8662
 1361SOL    MW4 5568   2.680   1.135   2.351 -0.2828 -0.0556 -0.3462
 1362SOL     OW 5569   2.888   1.258   2.259 -0.0340  0.3369  0.4279
 1362SOL    HW2 5570   2.961   1.208   2.294  0.7687  1.2924  0.1247
 1362SOL    HW3 5571   2.906   1.266   2.165  0.1324  1.6763  0.5692
 1362SOL    MW4 5572   2.900   1.253   2.251  0.0937  0.6398  0.4065
 1363SOL     OW 5573   2.918   1.518   2.362 -0.3145 -0.3626 -0.1350
 1363SOL    HW2 5574   2.890   1.519   2.454  0.9323 -0.7842  0.2665
 1363SOL    HW3 5575   2.916   1.426   2.337  0.3346 -0.3618 -0.2078
 1363SOL    MW4 5576   2.914   1.506   2.371 -0.0644 -0.4182 -0.0918
 1364SOL     OW 5577   2.694   1.617   2.234 -0.6979  0.1370 -0.1358
 1364SOL    HW2 5578   2.781   1.591   2.265 -0.8124 -1.1797 -0.8393
 1364SOL    HW3 5579   2.708   1.643   2.143 -0.9210  0.6003 -0.0357
 1364SOL    MW4 5580   2.707   1.617   2.226 -0.7424  0.0243 -0.2155
 1365SOL     OW 5581   2.662   1.880   2.319  0.1536 -0.3176 -0.0774
 1365SOL    HW2 5582   2.661   1.878   2.415 -0.9318 -0.2970 -0.0839
 1365SOL    HW3 5583   2.679   1.789   2.294 -1.7727 -0.7429  0.1176
 1365SOL    MW4 5584   2.664   1.868   2.328 -0.2434 -0.3710 -0.0525
 1366SOL     OW 5585   2.894   2.001   2.274 -0.3392  0.2305  0.3173
 1366SOL    HW2 5586   2.950   1.949   2.332  0.2223  0.4877  0.0204
 1366SOL    HW3 5587   2.807   1.962   2.282 -0.3062  0.3723  1.4619
 1366SOL    MW4 5588   2.890   1.989   2.282 -0.2608  0.2831  0.4289
 1367SOL     OW 5589   2.892   2.286   2.335  0.4479 -0.0091 -0.5700
 1367SOL    HW2 5590   2.900   2.295   2.430  0.0364  0.6035 -0.5914
 1367SOL    HW3 5591   2.894   2.192   2.320 -0.0531 -0.1261  0.0976
 1367SOL    MW4 5592   2.894   2.275   2.345  0.3273  0.0563 -0.4847
 1368SOL     OW 5593   2.690   2.472   2.252  0.1406  0.2974  0.0726
 1368SOL    HW2 5594   2.771   2.423   2.269  0.6633  1.2334  0.2801
 1368SOL    HW3 5595   2.684   2.473   2.156 -0.0536 -0.4715  0.0748
 1368SOL    MW4 5596   2.700   2.466   2.241  0.1838  0.3195  0.1004
 1369SOL     OW 5597   2.680   2.715   2.373 -0.1730  0.2299  0.1711
 1369SOL    HW2 5598   2.757   2.753   2.331  0.0354 -0.3778 -0.0019
 1369SOL    HW3 5599   2.674   2.627   2.336  0.1044 -0.3676  1.5262
 1369SOL    MW4 5600   2.690   2.708   2.363 -0.1090  0.0713  0.3269
 1370SOL     OW 5601   2.899   2.814   2.239 -0.0087 -0.3416  0.2288
 1370SOL    HW2 5602   2.875   2.902   2.269  1.1846  0.5987 -1.5250
 1370SOL    HW3 5603   2.896   2.819   2.144  0.1891 -2.1818  0.1144
 1370SOL    MW4 5604   2.895   2.826   2.231  0.1748 -0.4601 -0.0181
 1371SOL     OW 5605   2.884   3.070   2.355 -0.6470 -0.1463  0.2149
 1371SOL    HW2 5606   2.964   3.105   2.316  0.1479 -0.8899  1.1440
 1371SOL    HW3 5607   2.813   3.108   2.304  0.2945  0.7847 -0.4087
 1371SOL    MW4 5608   2.885   3.080   2.343 -0.4179 -0.1218  0.2553
 1372SOL     OW 5609   2.668   3.197   2.240  0.3597  0.3205 -0.3903
 1372SOL    HW2 5610   2.685   3.289   2.262  0.1815  0.0539  0.8642
 1372SOL    HW3 5611   2.694   3.190   2.148  0.6287  1.5624 -0.4208
 1372SOL    MW4 5612   2.674   3.209   2.230  0.3715  0.4492 -0.2289
 1373SOL     OW 5613   2.681   3.465   2.324  0.1294  0.1518 -0.1591
 1373SOL    HW2 5614   2.751   3.512   2.279 -0.2168 -0.9849 -1.9316
 1373SOL    HW3 5615   2.601   3.512   2.302 -0.0353 -0.3689 -0.6578
 1373SOL    MW4 5616   2.680   3.477   2.315  0.0620 -0.0668 -0.4587
 1374SOL     OW 5617   2.931   3.590   2.222 -0.9054 -0.1779  0.1856
 1374SOL    HW2 5618   2.998   3.538   2.265 -0.2391 -0.7878 -1.5548
 1374SOL    HW3 5619   2.946   3.680   2.253  0.4050 -0.3929  0.1722
 1374SOL    MW4 5620   2.942   3.595   2.232 -0.6447 -0.2866 -0.0458
 1375SOL     OW 5621   2.929   3.854   2.324  0.1370 -0.4930  0.1347
 1375SOL    HW2 5622   2.921   3.842   2.418  1.3616  0.2356  0.3589
 1375SOL    HW3 5623   2.861   3.918   2.302  1.2857  1.0592  0.9303
 1375SOL    MW4 5624   2.919   3.861   2.333  0.4501 -0.1922  0.2694
 1376SOL     OW 5625   2.696   3.993   2.251  0.3762 -0.5537  0.1716
 1376SOL    HW2 5626   2.625   3.939   2.283 -1.1890  0.8967 -0.7836
 1376SOL    HW3 5627   2.695   3.982   2.156  0.2380  0.8714 -0.0115
 1376SOL    MW4 5628   2.687   3.984   2.243  0.1512 -0.1743  0.0215
 1377SOL     OW 5629   2.684   4.237   2.371  0.3223 -0.6650  0.1597
 1377SOL    HW2 5630   2.681   4.234   2.467 -0.9500 -1.1407  0.1204
 1377SOL    HW3 5631   2.668   4.147   2.344  0.9154 -0.5696 -0.4952
 1377SOL    MW4 5632   2.681   4.225   2.380  0.2327 -0.7148  0.0679
 1378SOL     OW 5633   2.911   4.387   2.284 -0.3580  0.5457 -0.4356
 1378SOL    HW2 5634   2.976   4.326   2.318 -0.0886  0.5848 -0.8730
 1378SOL    HW3 5635   2.827   4.346   2.303 -0.1928  0.3120 -0.2110
 1378SOL    MW4 5636   2.908   4.374   2.291 -0.3009  0.5202 -0.4635
 1379SOL     OW 5637   3.358   4.642   2.387 -0.2814  0.0563 -0.0269
 1379SOL    HW2 5638   3.357   4.649   2.483  0.5573 -1.9473  0.1502
 1379SOL    HW3 5639   3.439   4.685   2.361 -0.2145  0.0702  0.2036
 1379SOL    MW4 5640   3.368   4.649   2.396 -0.1619 -0.2060  0.0269
 1380SOL     OW 5641   3.153   0.116   2.286  0.1814  0.3348  0.3844
 1380SOL    HW2 5642   3.174   0.204   2.317  0.1542  0.1681  0.8732
 1380SOL    HW3 5643   3.215   0.059   2.330  0.9426  0.2321 -0.7963
 1380SOL    MW4 5644   3.164   0.120   2.296  0.2780  0.2993  0.2930
 1381SOL     OW 5645   3.168   0.381   2.396  0.0633 -0.4615  0.0501
 1381SOL    HW2 5646   3.240   0.438   2.371  0.2397 -0.5207  0.4169
 1381SOL    HW3 5647   3.090   0.426   2.364  0.3235 -0.7993 -1.0758
 1381SOL    MW4 5648   3.167   0.395   2.389  0.1211 -0.5139 -0.0501
 1382SOL     OW 5649   3.373   0.519   2.290 -0.0957  0.0241 -0.6889
 1382SOL    HW2 5650   3.447   0.467   2.322  0.2099  0.5908 -0.4728
 1382SOL    HW3 5651   3.379   0.513   2.194  0.7235  0.7602 -0.6874
 1382SOL    MW4 5652   3.384   0.511   2.281  0.0527  0.1960 -0.6599
 1383SOL     OW 5653   3.373   0.777   2.399  0.8179 -0.2389  0.0411
 1383SOL    HW2 5654   3.427   0.828   2.339  0.0240  0.5941  0.0397
 1383SOL    HW3 5655   3.378   0.687   2.365 -0.8315  0.4644 -2.1687
 1383SOL    MW4 5656   3.381   0.772   2.387  0.4954 -0.0362 -0.2508
 1384SOL     OW 5657   3.143   0.891   2.299 -0.5072  0.6079  0.5658
 1384SOL    HW2 5658   3.202   0.847   2.360 -0.7536 -1.2851 -0.5178
 1384SOL    HW3 5659   3.056   0.864   2.326 -0.5906 -0.7358 -0.9683
 1384SOL    MW4 5660   3.139   0.882   2.310 -0.5507  0.1808  0.2203
 1385SOL     OW 5661   3.137   1.170   2.363 -0.4040 -0.6569 -0.2635
 1385SOL    HW2 5662   3.211   1.219   2.328 -0.6229 -1.3348 -1.7092
 1385SOL    HW3 5663   3.143   1.084   2.321 -0.8956 -1.3545  1.0868
 1385SOL    MW4 5664   3.148   1.165   2.353 -0.4978 -0.8384 -0.2761
 1386SOL     OW 5665   3.361   1.302   2.274  0.2105  0.3844 -0.0031
 1386SOL    HW2 5666   3.433   1.250   2.310  0.8785  0.5630 -1.0689
 1386SOL    HW3 5667   3.361   1.381   2.327  0.0659 -0.1035  0.7406
 1386SOL    MW4 5668   3.371   1.305   2.286  0.2797  0.3436 -0.0455
 1387SOL     OW 5669   3.412   1.552   2.377  0.2227 -0.2148 -0.0557
 1387SOL    HW2 5670   3.385   1.553   2.469 -0.6590 -1.3768 -0.2847
 1387SOL    HW3 5671   3.342   1.598   2.331  0.5006  0.0818 -0.1764
 1387SOL    MW4 5672   3.399   1.558   2.383  0.1431 -0.3289 -0.1018
 1388SOL     OW 5673   3.153   1.653   2.299  0.6790 -0.0605  0.0285
 1388SOL    HW2 5674   3.126   1.742   2.321  0.0202  0.3732 -2.3540
 1388SOL    HW3 5675   3.086   1.597   2.338  0.1694  0.6013  0.1144
 1388SOL    MW4 5676   3.141   1.657   2.307  0.5250  0.0840 -0.2744
 1389SOL     OW 5677   3.115   1.894   2.390  0.2096 -0.1156 -0.1179
 1389SOL    HW2 5678   3.136   1.890   2.484  0.5455 -0.7153 -0.2166
 1389SOL    HW3 5679   3.186   1.946   2.352  0.2790 -0.1952 -0.0977
 1389SOL    MW4 5680   3.127   1.900   2.398  0.2632 -0.2053 -0.1285
 1390SOL     OW 5681   3.356   2.032   2.300 -0.4295  0.0292  0.2560
 1390SOL    HW2 5682   3.445   1.997   2.308  0.0868  1.1999 -0.1969
 1390SOL    HW3 5683   3.365   2.125   2.323 -1.4346  0.2693 -0.3051
 1390SOL    MW4 5684   3.369   2.040   2.304 -0.4938  0.2155  0.1221
 1391SOL     OW 5685   3.397   2.294   2.376  0.0241 -0.3414 -0.1609
 1391SOL    HW2 5686   3.312   2.327   2.350  0.1561  0.5330  0.5090
 1391SOL    HW3 5687   3.394   2.292   2.472  1.2995  1.1896 -0.0680
 1391SOL    MW4 5688   3.386   2.298   2.385  0.2096 -0.0241 -0.0601
 1392SOL     OW 5689   3.160   2.424   2.292 -0.0007 -0.3000  0.0609
 1392SOL    HW2 5690   3.140   2.515   2.317  0.7441  0.1391 -0.8718
 1392SOL    HW3 5691   3.077   2.378   2.298 -0.6351  0.7323 -0.6158
 1392SOL    MW4 5692   3.146   2.430   2.296  0.0138 -0.1059 -0.1516
 1393SOL     OW 5693   3.140   2.708   2.322  0.3417  0.3263 -0.1031
 1393SOL    HW2 5694   3.141   2.701   2.418 -0.4886 -0.0538 -0.1195
 1393SOL    HW3 5695   3.050   2.732   2.301  0.1360 -1.0852 -0.8907
 1393SOL    MW4 5696   3.128   2.710   2.332  0.2050  0.0899 -0.2091
 1394SOL     OW 5697   3.382   2.834   2.240 -0.3889 -0.2864  0.2530
 1394SOL    HW2 5698   3.375   2.921   2.278  0.2533  0.0924 -0.4767
 1394SOL    HW3 5699   3.307   2.786   2.275 -0.5174  0.4331  0.9785
 1394SOL    MW4 5700   3.371   2.839   2.249 -0.3214 -0.1416  0.2527
 1395SOL     OW 5701   3.349   3.077   2.350  0.4063  0.3065  0.4060
 1395SOL    HW2 5702   3.418   3.134   2.318  0.3979  0.2399  0.2658
 1395SOL    HW3 5703   3.268   3.122   2.326  0.3936 -0.0231 -0.1944
 1395SOL    MW4 5704   3.347   3.090   2.342  0.4034  0.2544  0.3083
 1396SOL     OW 5705   3.116   3.190   2.258 -0.1729 -0.3242 -0.0208
 1396SOL    HW2 5706   3.130   3.283   2.277 -0.2117 -0.5413  1.0907
 1396SOL    HW3 5707   3.113   3.186   2.162  0.4838  0.7238 -0.0993
 1396SOL    MW4 5708   3.117   3.202   2.248 -0.0913 -0.2146  0.1154
 1397SOL     OW 5709   3.148   3.454   2.342  0.1909  0.3880  0.1262
 1397SOL    HW2 5710   3.159   3.442   2.436  0.2325 -2.4913 -0.1989
 1397SOL    HW3 5711   3.225   3.504   2.314  0.9496 -0.0875  1.3698
 1397SOL    MW4 5712   3.160   3.459   2.351  0.2964 -0.0546  0.2475
 1398SOL     OW 5713   3.372   3.601   2.260 -0.1441 -0.0055 -0.1566
 1398SOL    HW2 5714   3.462   3.579   2.282  0.2312  2.0480  0.4420
 1398SOL    HW3 5715   3.367   3.589   2.165  0.6868 -0.3731 -0.1562
 1398SOL    MW4 5716   3.383   3.597   2.250  0.0150  0.2172 -0.0775
 1399SOL     OW 5717   3.380   3.876   2.319 -0.1182  0.2271  0.5163
 1399SOL    HW2 5718   3.465   3.910   2.289 -0.8389  0.9875 -0.6841
 1399SOL    HW3 5719   3.382   3.783   2.295  0.0909  0.4035 -0.1572
 1399SOL    MW4 5720   3.392   3.868   2.312 -0.1857  0.3505  0.2689
 1400SOL     OW 5721   3.157   4.014   2.223  0.0726  0.3024  0.4145
 1400SOL    HW2 5722   3.229   3.962   2.258 -0.5668 -1.2054 -0.4750
 1400SOL    HW3 5723   3.078   3.975   2.260 -0.3862  0.9351  0.1167
 1400SOL    MW4 5724   3.156   4.002   2.233 -0.0722  0.1869  0.2577
 1401SOL     OW 5725   3.133   4.252   2.371 -0.7470 -0.2506  0.1158
 1401SOL    HW2 5726   3.200   4.310   2.335 -0.5365 -0.5816 -0.0352
 1401SOL    HW3 5727   3.145   4.170   2.323  0.1335 -1.0004  1.5698
 1401SOL    MW4 5728   3.143   4.248   2.360 -0.6030 -0.3929  0.2875
 1402SOL     OW 5729   3.370   4.381   2.275 -0.4151  0.0187  0.2976
 1402SOL    HW2 5730   3.366   4.468   2.315 -1.9585  0.4699 -0.7676
 1402SOL    HW3 5731   3.392   4.399   2.183 -0.1182 -0.7545  0.2169
 1402SOL    MW4 5732   3.372   4.395   2.268 -0.5796 -0.0238  0.1464
 1403SOL     OW 5733   3.787   4.637   2.371  0.4265  0.1930  0.3057
 1403SOL    HW2 5734   3.802   4.634   2.465  1.4299 -0.7776  0.1339
 1403SOL    HW3 5735   3.867   4.676   2.335 -0.0974  0.8860 -0.1179
 1403SOL    MW4 5736   3.800   4.641   2.378  0.4900  0.1569  0.2272
 1404SOL     OW 5737   3.589   0.093   2.258  0.0483  0.4358 -0.9025
 1404SOL    HW2 5738   3.571   0.177   2.299  0.6275  0.5632 -0.9050
 1404SOL    HW3 5739   3.656   0.053   2.313  0.7263  0.5479 -1.6370
 1404SOL    MW4 5740   3.595   0.099   2.270  0.2141  0.4674 -0.9997
 1405SOL     OW 5741   3.573   0.341   2.368  0.0883 -0.7267 -0.1911
 1405SOL    HW2 5742   3.599   0.338   2.460  0.9333 -0.0787 -0.4110
 1405SOL    HW3 5743   3.652   0.365   2.321 -0.9856  1.7867 -0.8140
 1405SOL    MW4 5744   3.587   0.344   2.374  0.0582 -0.3095 -0.3026
 1406SOL     OW 5745   3.806   0.458   2.216 -0.1800  0.2942 -0.1804
 1406SOL    HW2 5746   3.809   0.550   2.241 -1.0336  0.6650 -1.4204
 1406SOL    HW3 5747   3.817   0.458   2.121  0.1034 -0.9023 -0.1559
 1406SOL    MW4 5748   3.808   0.470   2.207 -0.2551  0.1853 -0.3407
 1407SOL     OW 5749   3.826   0.740   2.303  0.2795  0.1273 -0.1861
 1407SOL    HW2 5750   3.844   0.758   2.395 -0.4867  0.8456 -0.1694
 1407SOL    HW3 5751   3.908   0.759   2.258  0.2066  1.2753  0.1516
 1407SOL    MW4 5752   3.839   0.745   2.309  0.1690  0.3735 -0.1392
 1408SOL     OW 5753   3.607   0.894   2.258  0.1389  0.0505  0.1771
 1408SOL    HW2 5754   3.670   0.830   2.292  0.4234 -0.0171 -0.4855
 1408SOL    HW3 5755   3.606   0.879   2.164 -1.4772 -0.5032  0.2778
 1408SOL    MW4 5756   3.615   0.883   2.250 -0.0370 -0.0315  0.1032
 1409SOL     OW 5757   3.579   1.152   2.359  0.3392 -0.0910  0.2115
 1409SOL    HW2 5758   3.585   1.149   2.455  0.4695  0.7232  0.2347
 1409SOL    HW3 5759   3.577   1.060   2.332  1.0277 -0.3302  0.9516
 1409SOL    MW4 5760   3.579   1.140   2.368  0.4475 -0.0150  0.3121
 1410SOL     OW 5761   3.805   1.281   2.216 -0.0661  0.0906 -0.4003
 1410SOL    HW2 5762   3.800   1.371   2.248  1.0157 -0.4723  1.4316
 1410SOL    HW3 5763   3.726   1.239   2.250  1.5172 -0.7437  2.4196
 1410SOL    MW4 5764   3.794   1.287   2.224  0.2854 -0.0938  0.2134
 1411SOL     OW 5765   3.825   1.533   2.297  0.2299 -0.0496  0.0438
 1411SOL    HW2 5766   3.818   1.527   2.392 -0.1912  0.2000  0.0268
 1411SOL    HW3 5767   3.755   1.592   2.271 -0.8512 -1.5703 -0.6125
 1411SOL    MW4 5768   3.815   1.540   2.306  0.0317 -0.2173 -0.0451
 1412SOL     OW 5769   3.614   1.687   2.249  0.2228 -0.0603  0.0088
 1412SOL    HW2 5770   3.549   1.632   2.292 -1.6880  0.9806 -1.4845
 1412SOL    HW3 5771   3.593   1.682   2.156  1.5631  1.2069 -0.3875
 1412SOL    MW4 5772   3.603   1.679   2.242  0.1473  0.2444 -0.2403
 1413SOL     OW 5773   3.613   1.934   2.361  0.2720  0.4178 -0.2344
 1413SOL    HW2 5774   3.693   1.983   2.344  0.5856  0.1426  0.4061
 1413SOL    HW3 5775   3.632   1.845   2.329  0.5929  0.0939  0.8276
 1413SOL    MW4 5776   3.626   1.928   2.355  0.3555  0.3388 -0.0100
 1414SOL     OW 5777   3.852   2.116   2.299  0.4895 -0.1351 -0.1236
 1414SOL    HW2 5778   3.918   2.047   2.310  0.9579  0.4888  1.1576
 1414SOL    HW3 5779   3.834   2.117   2.205  4.0635  1.2726 -0.8735
 1414SOL    MW4 5780   3.858   2.107   2.288  1.0228  0.1330 -0.0536
 1415SOL     OW 5781   3.836   2.366   2.400  0.0623  0.0462 -0.2164
 1415SOL    HW2 5782   3.762   2.404   2.353  0.5811  0.1181 -0.9852
 1415SOL    HW3 5783   3.844   2.277   2.366  0.7351  0.2540 -0.6178
 1415SOL    MW4 5784   3.827   2.359   2.389  0.2196  0.0832 -0.3707
 1416SOL     OW 5785   3.598   2.450   2.291  0.2406 -0.0016  0.2011
 1416SOL    HW2 5786   3.530   2.395   2.331 -0.7995  0.7753 -0.4654
 1416SOL    HW3 5787   3.584   2.440   2.197  2.6473 -1.7817 -0.0073
 1416SOL    MW4 5788   3.587   2.442   2.284  0.4208 -0.1340  0.0858
 1417SOL     OW 5789   3.575   2.690   2.414  0.0115  0.2271  0.2883
 1417SOL    HW2 5790   3.565   2.599   2.388 -0.6308  0.4148 -0.1410
 1417SOL    HW3 5791   3.513   2.738   2.359  0.7631  0.9983  0.0815
 1417SOL    MW4 5792   3.566   2.685   2.403  0.0257  0.3538  0.2046
 1418SOL     OW 5793   3.774   2.860   2.274 -0.2629 -0.1573  0.0910
 1418SOL    HW2 5794   3.810   2.938   2.316  0.9276 -0.5885 -0.1123
 1418SOL    HW3 5795   3.718   2.820   2.340  0.2078  0.1275  0.6602
 1418SOL    MW4 5796   3.771   2.865   2.288 -0.0436 -0.1767  0.1395
 1419SOL     OW 5797   3.832   3.116   2.382 -0.1286 -0.2315 -0.5517
 1419SOL    HW2 5798   3.836   3.125   2.477 -0.4239  1.4053 -0.6754
 1419SOL    HW3 5799   3.914   3.154   2.351 -1.3251  2.0481 -1.0959
 1419SOL    MW4 5800   3.843   3.122   2.391 -0.3252  0.2849 -0.6399
 1420SOL     OW 5801   3.560   3.226   2.256  0.0072  0.1820  0.6296
 1420SOL    HW2 5802   3.557   3.319   2.278 -0.4960  0.0466  1.1344
 1420SOL    HW3 5803   3.635   3.192   2.306  0.0307  0.2627  0.6486
 1420SOL    MW4 5804   3.570   3.234   2.266 -0.0560  0.1750  0.6988
 1421SOL     OW 5805   3.626   3.484   2.334 -0.0453  0.1718  0.0163
 1421SOL    HW2 5806   3.632   3.479   2.430 -0.4523  1.8579  0.1563
 1421SOL    HW3 5807   3.710   3.520   2.307 -0.6670  1.5987 -0.0689
 1421SOL    MW4 5808   3.638   3.488   2.343 -0.1812  0.5822  0.0231
 1422SOL     OW 5809   3.844   3.608   2.217  0.1263  0.5616 -0.1631
 1422SOL    HW2 5810   3.818   3.692   2.253  1.1296  0.8031  0.0310
 1422SOL    HW3 5811   3.863   3.626   2.125 -1.2027  0.2087 -0.5160
 1422SOL    MW4 5812   3.843   3.621   2.209  0.0832  0.5467 -0.1843
 1423SOL     OW 5813   3.820   3.865   2.311  0.5716  0.0260  0.9636
 1423SOL    HW2 5814   3.820   3.875   2.406  0.0478  2.5908  0.7269
 1423SOL    HW3 5815   3.885   3.928   2.280 -1.5735  1.5514 -0.5773
 1423SOL    MW4 5816   3.829   3.874   2.319  0.2196  0.5655  0.7293
 1424SOL     OW 5817   3.592   4.011   2.223 -0.4955 -0.3167 -0.2134
 1424SOL    HW2 5818   3.591   4.087   2.282 -0.1459  0.2052 -0.8695
 1424SOL    HW3 5819   3.667   3.959   2.251 -0.4254 -0.1487 -0.0906
 1424SOL    MW4 5820   3.602   4.014   2.234 -0.4401 -0.2251 -0.2835
 1425SOL     OW 5821   3.599   4.234   2.383 -0.6969 -0.2336 -0.2299
 1425SOL    HW2 5822   3.671   4.287   2.347 -1.5304  2.6804  2.1408
 1425SOL    HW3 5823   3.520   4.269   2.341 -1.0012 -1.6178 -0.8329
 1425SOL    MW4 5824   3.598   4.246   2.372 -0.8469 -0.0319  0.0031
 1426SOL     OW 5825   3.800   4.397   2.254  0.2658 -0.0707 -0.2245
 1426SOL    HW2 5826   3.879   4.357   2.290 -1.0952 -1.8175  0.9213
 1426SOL    HW3 5827   3.794   4.482   2.299 -0.0186 -1.1309  1.8078
 1426SOL    MW4 5828   3.810   4.403   2.265  0.0489 -0.4411  0.1948
 1427SOL     OW 5829   4.246   4.616   2.393 -0.5098  0.1980  0.3104
 1427SOL    HW2 5830   4.248   4.610   2.488 -1.5107  0.3566  0.3471
 1427SOL    HW3 5831   4.321   4.671   2.371  0.5399 -0.9746  0.9063
 1427SOL    MW4 5832   4.256   4.622   2.403 -0.5035  0.0639  0.3939
 1428SOL     OW 5833   4.013   0.077   2.250 -0.1339 -0.5593  0.3019
 1428SOL    HW2 5834   4.041   0.167   2.268  1.1725 -0.9477  0.2493
 1428SOL    HW3 5835   4.075   0.023   2.299 -1.0307 -1.4330  0.4891
 1428SOL    MW4 5836   4.025   0.082   2.259 -0.0792 -0.7258  0.3197
 1429SOL     OW 5837   4.052   0.355   2.297  0.0356 -0.0925  0.0776
 1429SOL    HW2 5838   4.061   0.359   2.393 -0.4284 -1.0041  0.1600
 1429SOL    HW3 5839   3.961   0.382   2.281 -0.6536 -2.3022  0.0770
 1429SOL    MW4 5840   4.041   0.359   2.308 -0.1163 -0.5043  0.0885
 1430SOL     OW 5841   4.261   0.508   2.198 -0.3757  0.3988 -0.0044
 1430SOL    HW2 5842   4.337   0.473   2.245 -1.3629  0.1895  1.4681
 1430SOL    HW3 5843   4.187   0.457   2.231 -1.3230  1.4321 -0.5163
 1430SOL    MW4 5844   4.261   0.497   2.209 -0.6309  0.5075  0.1221
 1431SOL     OW 5845   4.288   0.757   2.318 -0.0107  0.1607 -0.5155
 1431SOL    HW2 5846   4.272   0.676   2.271  0.7905  1.2942 -2.7987
 1431SOL    HW3 5847   4.357   0.801   2.269 -0.0751  1.9977  0.9564
 1431SOL    MW4 5848   4.295   0.752   2.305  0.0868  0.5526 -0.6227
 1432SOL     OW 5849   4.051   0.858   2.178  0.1547 -0.5931 -0.0279
 1432SOL    HW2 5850   4.042   0.946   2.215  0.3458 -0.5783 -0.0137
 1432SOL    HW3 5851   4.133   0.825   2.215 -0.0473 -0.8750  0.1624
 1432SOL    MW4 5852   4.061   0.866   2.188  0.1531 -0.6284 -0.0010
 1433SOL     OW 5853   4.002   1.104   2.293 -0.2548  0.2539  0.2134
 1433SOL    HW2 5854   4.015   1.120   2.386  1.8520  0.2741 -0.0678
 1433SOL    HW3 5855   3.938   1.170   2.266 -1.4162 -0.2013  1.7683
 1433SOL    MW4 5856   3.995   1.115   2.302 -0.1299  0.1965  0.3817
 1434SOL     OW 5857   4.231   1.273   2.257  0.1487 -0.1147 -0.4154
 1434SOL    HW2 5858   4.163   1.208   2.274  1.0222 -0.7360  0.7928
 1434SOL    HW3 5859   4.313   1.225   2.268  0.8030  1.1335  0.3035
 1434SOL    MW4 5860   4.233   1.259   2.261  0.3500 -0.0319 -0.1614
 1435SOL     OW 5861   4.318   1.515   2.403  0.3570  0.6327 -0.4362
 1435SOL    HW2 5862   4.317   1.424   2.375  1.4030 -0.1809  1.9991
 1435SOL    HW3 5863   4.378   1.558   2.343  0.9265 -0.6051 -0.7721
 1435SOL    MW4 5864   4.326   1.509   2.392  0.5698  0.3619 -0.1590
 1436SOL     OW 5865   4.087   1.660   2.251  0.2631  0.3210 -0.5610
 1436SOL    HW2 5866   4.148   1.599   2.292 -0.7479 -0.6446 -0.4707
 1436SOL    HW3 5867   4.001   1.623   2.267 -0.2636  0.8650 -2.0150
 1436SOL    MW4 5868   4.084   1.647   2.259  0.0606  0.2654 -0.7408
 1437SOL     OW 5869   4.073   1.937   2.360  0.2304  0.1069  0.1729
 1437SOL    HW2 5870   4.056   1.934   2.454 -0.0289 -1.9987  0.0797
 1437SOL    HW3 5871   4.059   1.847   2.330  0.3093  0.7509 -1.8811
 1437SOL    MW4 5872   4.069   1.925   2.369  0.2065 -0.0859 -0.1101
 1438SOL     OW 5873   4.291   2.055   2.217  0.2458 -0.1404  0.0178
 1438SOL    HW2 5874   4.299   2.138   2.264 -0.8808 -0.2580  0.4328
 1438SOL    HW3 5875   4.225   2.005   2.267  1.2282 -1.4565  0.0367
 1438SOL    MW4 5876   4.283   2.059   2.230  0.2270 -0.3300  0.0749
 1439SOL     OW 5877   4.299   2.304   2.334 -0.0287  0.0847 -0.0352
 1439SOL    HW2 5878   4.218   2.339   2.298 -0.6733  0.8725  2.1130
 1439SOL    HW3 5879   4.368   2.355   2.293 -0.5313 -1.1465 -2.5070
 1439SOL    MW4 5880   4.298   2.315   2.324 -0.1798  0.0260 -0.0780
 1440SOL     OW 5881   4.066   2.445   2.267 -0.0654 -0.1286 -0.5542
 1440SOL    HW2 5882   4.071   2.540   2.281  1.7185 -0.3358  0.3788
 1440SOL    HW3 5883   3.991   2.417   2.320  1.5665  0.2902  2.0987
 1440SOL    MW4 5884   4.057   2.454   2.276  0.3853 -0.1006 -0.0811
 1441SOL     OW 5885   4.014   2.718   2.327 -0.4641  0.0733 -0.3580
 1441SOL    HW2 5886   4.014   2.727   2.423 -0.8791  1.0536 -0.4394
 1441SOL    HW3 5887   3.937   2.769   2.299 -1.0580 -1.2291 -1.1200
 1441SOL    MW4 5888   4.004   2.726   2.336 -0.5975  0.0310 -0.4692
 1442SOL     OW 5889   4.255   2.812   2.216  0.5490  0.0279 -0.3160
 1442SOL    HW2 5890   4.172   2.776   2.248  0.2813  2.3923  1.8536
 1442SOL    HW3 5891   4.321   2.767   2.268  0.4285  0.2775  0.0567
 1442SOL    MW4 5892   4.252   2.801   2.227  0.4973  0.3726  0.0193
 1443SOL     OW 5893   4.250   3.041   2.365  0.2401  0.2313 -0.8435
 1443SOL    HW2 5894   4.253   2.956   2.321 -1.2683  0.0126 -0.5525
 1443SOL    HW3 5895   4.327   3.087   2.332  0.6858 -0.9795 -1.5507
 1443SOL    MW4 5896   4.260   3.036   2.355  0.1001  0.0424 -0.8986
 1444SOL     OW 5897   4.053   3.221   2.238 -0.0490  0.5565  0.2243
 1444SOL    HW2 5898   4.058   3.298   2.293  0.7069  0.2619  0.5831
 1444SOL    HW3 5899   4.121   3.163   2.272  1.0839  0.7674 -1.6001
 1444SOL    MW4 5900   4.063   3.223   2.250  0.2003  0.5455  0.0312
 1445SOL     OW 5901   4.034   3.460   2.371 -0.5330 -0.3656  0.0515
 1445SOL    HW2 5902   4.100   3.515   2.331 -0.3950 -1.6737 -1.5818
 1445SOL    HW3 5903   3.955   3.475   2.320 -1.3389  0.6648  1.5584
 1445SOL    MW4 5904   4.032   3.469   2.359 -0.6213 -0.4022  0.0348
 1446SOL     OW 5905   4.242   3.582   2.255 -0.0209 -0.0277 -0.1361
 1446SOL    HW2 5906   4.242   3.677   2.269 -1.0378 -0.0628  0.1898
 1446SOL    HW3 5907   4.260   3.571   2.162 -0.2132  0.5035 -0.2354
 1446SOL    MW4 5908   4.244   3.593   2.245 -0.1802  0.0377 -0.1061
 1447SOL     OW 5909   4.272   3.856   2.312  0.1891  0.1837 -0.0598
 1447SOL    HW2 5910   4.260   3.866   2.406  0.7849 -1.7276  0.2513
 1447SOL    HW3 5911   4.363   3.881   2.297  0.3065 -0.2137 -0.0120
 1447SOL    MW4 5912   4.283   3.861   2.322  0.2832 -0.1206 -0.0124
 1448SOL     OW 5913   4.037   4.019   2.235 -0.2342 -0.2077  0.0323
 1448SOL    HW2 5914   4.110   3.967   2.269  0.6765  0.4306 -0.8889
 1448SOL    HW3 5915   4.037   4.098   2.288 -0.7032 -0.5047  0.4829
 1448SOL    MW4 5916   4.047   4.022   2.246 -0.1755 -0.1626 -0.0298
 1449SOL     OW 5917   4.012   4.252   2.373 -0.4737 -0.3317 -0.0331
 1449SOL    HW2 5918   4.085   4.293   2.326 -1.4677  0.7547 -0.6601
 1449SOL    HW3 5919   4.038   4.253   2.465  0.1814  0.3053 -0.2274
 1449SOL    MW4 5920   4.025   4.258   2.379 -0.5178 -0.1044 -0.1419
 1450SOL     OW 5921   4.241   4.375   2.250 -0.1970 -0.0738 -0.0241
 1450SOL    HW2 5922   4.254   4.464   2.282 -0.2664  0.2531 -0.9051
 1450SOL    HW3 5923   4.313   4.325   2.289  0.0118  0.4285  0.2371
 1450SOL    MW4 5924   4.252   4.380   2.259 -0.1783  0.0358 -0.1061
 1451SOL     OW 5925   0.227   0.021   2.612 -0.2223 -0.0655 -0.0385
 1451SOL    HW2 5926   0.224  -0.069   2.644 -0.6939 -0.4621 -1.1478
 1451SOL    HW3 5927   0.156   0.065   2.658  0.5390 -0.0406  1.1284
 1451SOL    MW4 5928   0.217   0.015   2.622 -0.1840 -0.1146 -0.0308
 1452SOL     OW 5929   0.026   0.117   2.745  0.1539 -0.2166 -0.1287
 1452SOL    HW2 5930   0.002   0.085   2.832  1.2405 -1.0792 -0.1300
 1452SOL    HW3 5931   0.009   0.211   2.748  1.4643 -0.0026  1.4812
 1452SOL    MW4 5932   0.021   0.125   2.757  0.4702 -0.3022  0.0837
 1453SOL     OW 5933   4.489   0.382   2.620  0.1282  0.2688  0.6258
 1453SOL    HW2 5934   4.565   0.434   2.645  0.3288  0.4286 -0.2881
 1453SOL    HW3 5935   4.488   0.386   2.524 -1.0299  0.2727  0.6292
 1453SOL    MW4 5936   4.499   0.390   2.610  0.0019  0.2904  0.5059
 1454SOL     OW 5937   0.221   0.515   2.720 -0.3834  0.8015 -0.5098
 1454SOL    HW2 5938   0.224   0.504   2.815 -2.3990 -0.3183 -0.5533
 1454SOL    HW3 5939   0.302   0.474   2.689 -1.0155 -1.2969  0.5165
 1454SOL    MW4 5940   0.232   0.508   2.729 -0.7327  0.3769 -0.3803
 1455SOL     OW 5941   0.212   0.749   2.582  0.0817 -0.2470  0.0168
 1455SOL    HW2 5942   0.294   0.788   2.614  0.1600 -0.0109 -0.4685
 1455SOL    HW3 5943   0.211   0.661   2.618  0.9571 -0.5360 -0.6525
 1455SOL    MW4 5944   0.223   0.743   2.591  0.2075 -0.2540 -0.1354
 1456SOL     OW 5945   4.473   0.850   2.732  0.4644 -0.2173 -0.6622
 1456SOL    HW2 5946   4.488   0.856   2.826  0.2082 -0.3713 -0.6088
 1456SOL    HW3 5947   4.545   0.795   2.699  0.2918 -0.5494 -0.4848
 1456SOL    MW4 5948   4.484   0.843   2.740  0.4082 -0.2814 -0.6318
 1457SOL     OW 5949   0.006   1.103   2.563 -0.2868 -0.2470  0.2275
 1457SOL    HW2 5950   0.083   1.145   2.600 -1.3947  1.0205  1.1328
 1457SOL    HW3 5951  -0.002   1.020   2.610  0.3273 -0.2430  0.3422
 1457SOL    MW4 5952   0.015   1.098   2.574 -0.3520 -0.0792  0.3622
 1458SOL     OW 5953   0.202   1.260   2.691 -0.2426  0.4181 -0.3216
 1458SOL    HW2 5954   0.285   1.221   2.662  0.0741  1.0612 -0.2899
 1458SOL    HW3 5955   0.202   1.348   2.652  0.0446  1.1895  1.3606
 1458SOL    MW4 5956   0.213   1.267   2.682 -0.1629  0.6047 -0.0956
 1459SOL     OW 5957   0.230   1.520   2.612 -0.4739 -0.3308 -1.0181
 1459SOL    HW2 5958   0.312   1.568   2.628 -1.2616  1.0534 -1.0389
 1459SOL    HW3 5959   0.162   1.578   2.646 -1.4424 -1.5124 -0.9298
 1459SOL    MW4 5960   0.232   1.534   2.619 -0.7056 -0.3040 -1.0092
 1460SOL     OW 5961   0.012   1.673   2.710 -0.3782  0.2615 -0.1540
 1460SOL    HW2 5962   0.023   1.763   2.677  1.0918  0.5876  1.1702
 1460SOL    HW3 5963  -0.001   1.684   2.804  1.2814 -0.9833  0.2482
 1460SOL    MW4 5964   0.012   1.687   2.718  0.0347  0.1402  0.0739
 1461SOL     OW 5965   4.468   1.951   2.632 -0.0860  0.7111 -0.0116
 1461SOL    HW2 5966   4.549   1.989   2.665  0.3979  0.6091 -1.0870
 1461SOL    HW3 5967   4.476   1.953   2.537  0.0985 -2.3538 -0.1190
 1461SOL    MW4 5968   4.480   1.956   2.624  0.0019  0.2933 -0.1676
 1462SOL     OW 5969   0.216   2.054   2.703  0.1741  0.4240  0.6231
 1462SOL    HW2 5970   0.293   2.015   2.661 -0.6679 -0.2236 -0.3592
 1462SOL    HW3 5971   0.208   2.140   2.663 -0.1588  0.1172  0.0101
 1462SOL    MW4 5972   0.225   2.060   2.692  0.0191  0.2980  0.4125
 1463SOL     OW 5973   0.232   2.309   2.597  0.3120  0.6008  0.3058
 1463SOL    HW2 5974   0.295   2.354   2.654  0.2570  2.9434 -1.3951
 1463SOL    HW3 5975   0.150   2.357   2.608 -0.3240 -0.4112  0.0451
 1463SOL    MW4 5976   0.230   2.321   2.606  0.2208  0.7763  0.0467
 1464SOL     OW 5977   0.001   2.450   2.695  0.4490  0.3953  0.1219
 1464SOL    HW2 5978  -0.002   2.442   2.790 -0.7211  2.0390  0.2444
 1464SOL    HW3 5979  -0.082   2.413   2.665  1.6410 -1.8861 -0.4118
 1464SOL    MW4 5980  -0.010   2.444   2.704  0.4520  0.3114  0.0677
 1465SOL     OW 5981   0.011   2.727   2.658  0.0961  0.1577  0.1570
 1465SOL    HW2 5982  -0.071   2.752   2.700 -0.5861 -0.3030 -0.8888
 1465SOL    HW3 5983   0.018   2.633   2.673  0.6416  0.2645  0.5948
 1465SOL    MW4 5984   0.001   2.718   2.665  0.0777  0.1109  0.0765
 1466SOL     OW 5985   0.239   2.880   2.745  0.1450 -0.4280 -0.0903
 1466SOL    HW2 5986   0.221   2.963   2.700  0.2293  0.3137  1.1950
 1466SOL    HW3 5987   0.162   2.826   2.727  0.4960 -0.4215 -1.7019
 1466SOL    MW4 5988   0.226   2.884   2.737  0.2024 -0.3295 -0.1335
 1467SOL     OW 5989   0.217   3.131   2.641  0.2810 -0.2173  0.0412
 1467SOL    HW2 5990   0.306   3.155   2.670  0.7818 -0.2280 -1.4690
 1467SOL    HW3 5991   0.223   3.126   2.546 -1.8007  1.7027 -0.2485
 1467SOL    MW4 5992   0.230   3.134   2.632  0.0724  0.0346 -0.1962
 1468SOL     OW 5993   0.004   3.206   2.794 -0.1334  0.2571  0.3391
 1468SOL    HW2 5994  -0.068   3.163   2.747  0.0025 -1.2677  1.5079
 1468SOL    HW3 5995   0.083   3.172   2.753 -0.0481  1.1256 -0.2340
 1468SOL    MW4 5996   0.005   3.196   2.782 -0.1044  0.1705  0.4177
 1469SOL     OW 5997   0.003   3.436   2.610  0.1062 -0.0190  0.1726
 1469SOL    HW2 5998   0.078   3.467   2.661 -1.1992 -0.1918  2.2028
 1469SOL    HW3 5999  -0.027   3.358   2.656 -2.7177  1.3115  0.6684
 1469SOL    MW4 6000   0.009   3.430   2.623 -0.4382  0.1340  0.5057
 1470SOL     OW 6001   0.202   3.590   2.757 -0.0136  0.0783  0.6707
 1470SOL    HW2 6002   0.215   3.597   2.852 -0.1415  3.6588  0.4807
 1470SOL    HW3 6003   0.288   3.563   2.723  0.1343 -0.8345  1.7363
 1470SOL    MW4 6004   0.215   3.587   2.765 -0.0110  0.4306  0.7865
 1471SOL     OW 6005   0.220   3.841   2.652  0.0345  0.1352  0.0933
 1471SOL    HW2 6006   0.221   3.753   2.690 -0.0676 -0.0122 -0.2507
 1471SOL    HW3 6007   0.131   3.873   2.668  0.7017  1.0371  2.2095
 1471SOL    MW4 6008   0.208   3.834   2.659  0.1090  0.2348  0.3269
 1472SOL     OW 6009   4.470   3.999   2.727 -0.4864 -0.3240 -0.1017
 1472SOL    HW2 6010   4.494   4.090   2.709 -1.5616 -0.0533 -0.2570
 1472SOL    HW3 6011   4.484   3.989   2.822 -1.3820  0.3357  0.1097
 1472SOL    MW4 6012   4.475   4.010   2.737 -0.7464 -0.2007 -0.0942
 1473SOL     OW 6013   4.485   4.271   2.639  0.5996 -0.1795  0.0072
 1473SOL    HW2 6014   4.418   4.306   2.699  1.0692 -1.0456  1.0487
 1473SOL    HW3 6015   4.547   4.343   2.630 -0.7350  0.8321 -1.4010
 1473SOL    MW4 6016   4.484   4.285   2.646  0.4854 -0.1602 -0.0408
 1474SOL     OW 6017   0.210   4.437   2.699  0.5485 -0.4688 -0.3107
 1474SOL    HW2 6018   0.197   4.423   2.793 -1.0090  0.0945 -0.4256
 1474SOL    HW3 6019   0.270   4.367   2.673  0.5008 -1.0142  0.9784
 1474SOL    MW4 6020   0.216   4.426   2.708  0.3367 -0.4659 -0.1559
 1475SOL     OW 6021   0.642   4.657   2.624  0.2013  0.3945 -0.2941
 1475SOL    HW2 6022   0.721   4.698   2.658 -0.1789  0.9947 -0.1336
 1475SOL    HW3 6023   0.570   4.712   2.655 -0.2594  0.0307 -0.6982
 1475SOL    MW4 6024   0.643   4.670   2.632  0.0904  0.4253 -0.3264
 1476SOL     OW 6025   0.437   0.143   2.728 -0.0698  0.1242 -0.1062
 1476SOL    HW2 6026   0.418   0.158   2.821  0.2042  0.0808 -0.0420
 1476SOL    HW3 6027   0.357   0.103   2.693 -0.5315  1.0379 -0.1087
 1476SOL    MW4 6028   0.424   0.140   2.736 -0.0946  0.2390 -0.0982
 1477SOL     OW 6029   0.452   0.393   2.585 -0.1645 -0.0423  0.3110
 1477SOL    HW2 6030   0.523   0.441   2.627  0.7094 -0.3173 -0.8064
 1477SOL    HW3 6031   0.451   0.308   2.628 -1.6757  0.9315  2.2563
 1477SOL    MW4 6032   0.461   0.388   2.596 -0.2486  0.0499  0.4203
 1478SOL     OW 6033   0.657   0.525   2.685 -0.0454 -0.3208 -0.1587
 1478SOL    HW2 6034   0.642   0.522   2.779  1.0644  1.1902  0.0815
 1478SOL    HW3 6035   0.725   0.460   2.669  0.1943 -0.1509  0.1728
 1478SOL    MW4 6036   0.664   0.516   2.695  0.1327 -0.0990 -0.0832
 1479SOL     OW 6037   0.664   0.759   2.556  0.2925  0.2068 -0.1762
 1479SOL    HW2 6038   0.724   0.819   2.600 -0.3402  0.5195  0.2636
 1479SOL    HW3 6039   0.677   0.675   2.601 -1.8188  0.9962  2.0041
 1479SOL    MW4 6040   0.674   0.755   2.567 -0.0696  0.3522  0.1695
 1480SOL     OW 6041   0.440   0.856   2.687 -0.6035  0.2980  0.3221
 1480SOL    HW2 6042   0.433   0.946   2.656 -2.3593 -0.2029 -0.8044
 1480SOL    HW3 6043   0.512   0.819   2.636 -0.2745  0.8885  0.3538
 1480SOL    MW4 6044   0.448   0.863   2.676 -0.7918  0.3098  0.1776
 1481SOL     OW 6045   0.429   1.127   2.593 -0.9271  0.1944  0.1236
 1481SOL    HW2 6046   0.506   1.165   2.635  0.6844 -3.8628  1.1157
 1481SOL    HW3 6047   0.446   1.135   2.499  1.2206 -1.5212  0.3324
 1481SOL    MW4 6048   0.441   1.133   2.586 -0.4312 -0.5672  0.2820
 1482SOL     OW 6049   0.659   1.244   2.709 -0.0039 -0.2988 -0.5672
 1482SOL    HW2 6050   0.671   1.272   2.799  0.9600  0.8419 -1.0320
 1482SOL    HW3 6051   0.742   1.202   2.685  1.5634  3.6382 -2.3893
 1482SOL    MW4 6052   0.672   1.242   2.717  0.3301  0.3711 -0.8686
 1483SOL     OW 6053   0.658   1.510   2.603  0.3361 -0.1548  0.5837
 1483SOL    HW2 6054   0.585   1.551   2.649  0.3393  1.1860 -0.5987
 1483SOL    HW3 6055   0.652   1.418   2.628 -1.1142  0.1201  1.3377
 1483SOL    MW4 6056   0.648   1.503   2.613  0.1451  0.0584  0.5276
 1484SOL     OW 6057   0.464   1.681   2.725 -0.0409 -0.0378 -0.2592
 1484SOL    HW2 6058   0.433   1.690   2.815 -1.9097  0.2771 -0.9149
 1484SOL    HW3 6059   0.451   1.768   2.687 -0.2628 -0.4536 -1.1378
 1484SOL    MW4 6060   0.459   1.694   2.732 -0.3168 -0.0510 -0.4618
 1485SOL     OW 6061   0.433   1.931   2.586 -0.2335  0.1715 -0.3428
 1485SOL    HW2 6062   0.513   1.974   2.619 -0.5034 -0.7058  1.5265
 1485SOL    HW3 6063   0.443   1.930   2.491  1.3179  1.3737 -0.2063
 1485SOL    MW4 6064   0.445   1.937   2.578 -0.0645  0.2143 -0.0784
 1486SOL     OW 6065   0.636   2.077   2.696 -0.6164 -0.0205  0.1681
 1486SOL    HW2 6066   0.638   2.073   2.792 -1.3510  0.1784  0.1952
 1486SOL    HW3 6067   0.714   2.029   2.668 -0.5672 -0.3458  0.8605
 1486SOL    MW4 6068   0.646   2.070   2.705 -0.7069 -0.0370  0.2630
 1487SOL     OW 6069   0.652   2.344   2.602 -0.2303 -0.0873 -0.2151
 1487SOL    HW2 6070   0.742   2.369   2.623 -0.7081 -0.2153  2.1022
 1487SOL    HW3 6071   0.644   2.255   2.635 -1.2330 -0.0636 -0.3880
 1487SOL    MW4 6072   0.663   2.336   2.609 -0.4256 -0.1009  0.0679
 1488SOL     OW 6073   0.440   2.493   2.714 -0.0945  0.3194  0.2757
 1488SOL    HW2 6074   0.423   2.575   2.668 -0.4910 -0.2330 -0.5894
 1488SOL    HW3 6075   0.524   2.463   2.678 -0.9427 -0.6707 -0.9278
 1488SOL    MW4 6076   0.449   2.500   2.703 -0.2587  0.1159  0.0026
 1489SOL     OW 6077   0.403   2.730   2.593  0.4051 -0.2747  0.3062
 1489SOL    HW2 6078   0.486   2.762   2.629  0.6285 -1.2517  0.6550
 1489SOL    HW3 6079   0.338   2.793   2.623  1.2993  1.6321 -1.6096
 1489SOL    MW4 6080   0.406   2.743   2.602  0.5526 -0.1519  0.0992
 1490SOL     OW 6081   0.641   2.803   2.720  0.2345  0.1308 -0.4459
 1490SOL    HW2 6082   0.621   2.795   2.813  0.2453 -1.4553 -0.5656
 1490SOL    HW3 6083   0.645   2.897   2.704 -0.9184  0.4253  0.9117
 1490SOL    MW4 6084   0.639   2.814   2.730  0.0838 -0.0393 -0.2825
 1491SOL     OW 6085   0.694   3.093   2.601 -0.1384 -0.5145 -0.3054
 1491SOL    HW2 6086   0.777   3.118   2.640 -0.2311 -0.1158 -0.3685
 1491SOL    HW3 6087   0.701   3.120   2.510 -0.3828 -0.3818 -0.2847
 1491SOL    MW4 6088   0.706   3.100   2.594 -0.1829 -0.4444 -0.3109
 1492SOL     OW 6089   0.471   3.218   2.700 -0.3987  0.0583  0.5336
 1492SOL    HW2 6090   0.493   3.237   2.791  1.8935  0.8861 -0.1458
 1492SOL    HW3 6091   0.529   3.147   2.675 -0.7523  0.0781 -0.3839
 1492SOL    MW4 6092   0.481   3.211   2.709 -0.1429  0.1700  0.3231
 1493SOL     OW 6093   0.418   3.487   2.634  0.2546 -0.0146  0.2723
 1493SOL    HW2 6094   0.438   3.395   2.652 -2.2429 -0.8114 -0.8710
 1493SOL    HW3 6095   0.414   3.493   2.539 -0.2259  1.1444  0.3556
 1493SOL    MW4 6096   0.421   3.476   2.624 -0.1383  0.0331  0.1323
 1494SOL     OW 6097   0.665   3.609   2.719 -0.2518 -0.3824 -0.2365
 1494SOL    HW2 6098   0.672   3.600   2.814  1.5087 -0.1347 -0.3134
 1494SOL    HW3 6099   0.576   3.582   2.698 -1.2211  1.2153  1.6743
 1494SOL    MW4 6100   0.654   3.604   2.729 -0.1473 -0.1390  0.0057
 1495SOL     OW 6101   0.676   3.883   2.655  0.1468 -0.1674 -0.6158
 1495SOL    HW2 6102   0.590   3.924   2.667 -0.4573 -1.8301  1.0358
 1495SOL    HW3 6103   0.663   3.792   2.683  2.8088 -0.0563  1.1485
 1495SOL    MW4 6104   0.663   3.876   2.660  0.4183 -0.3722 -0.1652
 1496SOL     OW 6105   0.448   4.001   2.718 -0.1387  0.2961 -0.2990
 1496SOL    HW2 6106   0.440   4.083   2.668  0.4732 -0.1289 -1.1160
 1496SOL    HW3 6107   0.370   3.951   2.695 -1.0329  1.0620  0.9993
 1496SOL    MW4 6108   0.437   4.006   2.708 -0.1759  0.3409 -0.2353
 1497SOL     OW 6109   0.418   4.268   2.613 -0.3429 -0.1996  0.2543
 1497SOL    HW2 6110   0.491   4.323   2.641 -0.8378  0.5161  0.1564
 1497SOL    HW3 6111   0.419   4.275   2.517 -1.1738  0.6586  0.2956
 1497SOL    MW4 6112   0.428   4.276   2.604 -0.5178  0.0081  0.2470
 1498SOL     OW 6113   0.656   4.399   2.718  0.3929  0.0144  0.1207
 1498SOL    HW2 6114   0.663   4.406   2.813 -0.8323  2.1868  0.0622
 1498SOL    HW3 6115   0.668   4.488   2.686 -0.5623 -0.4766 -1.6647
 1498SOL    MW4 6116   0.659   4.411   2.726  0.1052  0.2365 -0.1225
 1499SOL     OW 6117   1.126   0.002   2.615  0.1577 -0.2138 -0.2802
 1499SOL    HW2 6118   1.202   0.055   2.634  0.5378 -0.8402 -0.0324
 1499SOL    HW3 6119   1.150  -0.086   2.644 -0.2607 -0.6330 -1.1614
 1499SOL    MW4 6120   1.139  -0.003   2.621  0.1527 -0.3517 -0.3636
 1500SOL     OW 6121   0.891   0.092   2.707 -0.3969 -0.0309  0.2020
 1500SOL    HW2 6122   0.898   0.084   2.802  0.7564  0.3761  0.1564
 1500SOL    HW3 6123   0.973   0.056   2.673 -0.1188  1.2723 -0.5637
 1500SOL    MW4 6124   0.903   0.086   2.715 -0.2080  0.1947  0.0949
 1501SOL     OW 6125   0.865   0.357   2.626 -0.4878 -0.3031  0.1932
 1501SOL    HW2 6126   0.866   0.263   2.640  0.2915 -0.3110  0.0864
 1501SOL    HW3 6127   0.852   0.367   2.531 -1.1291 -0.2965  0.2814
 1501SOL    MW4 6128   0.863   0.346   2.615 -0.4697 -0.3033  0.1907
 1502SOL     OW 6129   1.096   0.505   2.715  0.1804 -0.1060  0.3129
 1502SOL    HW2 6130   1.089   0.594   2.681 -0.4118 -0.6354 -0.9803
 1502SOL    HW3 6131   1.009   0.467   2.700  0.7660 -1.2626 -0.1708
 1502SOL    MW4 6132   1.083   0.511   2.709  0.1794 -0.3285  0.0784
 1503SOL     OW 6133   1.125   0.747   2.600 -0.1419  0.4550 -0.0959
 1503SOL    HW2 6134   1.210   0.785   2.624  0.6339 -0.8393 -0.7664
 1503SOL    HW3 6135   1.128   0.740   2.504  0.3637 -2.7180  0.1105
 1503SOL    MW4 6136   1.137   0.751   2.590  0.0272 -0.1343 -0.1571
 1504SOL     OW 6137   0.872   0.875   2.699 -0.5661  0.2114 -0.0916
 1504SOL    HW2 6138   0.892   0.875   2.792  1.0603 -0.8658 -0.4104
 1504SOL    HW3 6139   0.945   0.826   2.659 -2.2873 -1.1039 -1.6883
 1504SOL    MW4 6140   0.885   0.868   2.706 -0.5786 -0.1044 -0.3443
 1505SOL     OW 6141   0.888   1.130   2.629 -0.0523  0.3278 -0.3254
 1505SOL    HW2 6142   0.868   1.043   2.662  1.0023 -0.2365 -1.1448
 1505SOL    HW3 6143   0.882   1.122   2.534  0.7957  0.9521 -0.4409
 1505SOL    MW4 6144   0.884   1.118   2.621  0.1987  0.3357 -0.4489
 1506SOL     OW 6145   1.133   1.285   2.701  0.4353  0.2192 -0.2641
 1506SOL    HW2 6146   1.128   1.367   2.651 -1.1967  0.3367  0.0390
 1506SOL    HW3 6147   1.060   1.233   2.668  1.3684 -1.0566 -0.3299
 1506SOL    MW4 6148   1.122   1.289   2.690  0.3431  0.0663 -0.2327
 1507SOL     OW 6149   1.095   1.527   2.584  0.0660  0.4890  0.1465
 1507SOL    HW2 6150   1.014   1.572   2.604 -0.1395 -0.5419  1.7280
 1507SOL    HW3 6151   1.162   1.576   2.632  0.0975  0.2025  0.3983
 1507SOL    MW4 6152   1.093   1.540   2.593  0.0429  0.3152  0.3884
 1508SOL     OW 6153   0.868   1.664   2.666 -0.1506  0.0764  0.3944
 1508SOL    HW2 6154   0.878   1.674   2.761  0.5788  0.2816  0.2922
 1508SOL    HW3 6155   0.788   1.611   2.657  0.0392 -0.3555  1.1363
 1508SOL    MW4 6156   0.858   1.658   2.678 -0.0293  0.0465  0.4787
 1509SOL     OW 6157   0.840   1.925   2.580 -0.3986  0.2489  0.0471
 1509SOL    HW2 6158   0.923   1.938   2.625 -0.6191 -0.1387  0.5623
 1509SOL    HW3 6159   0.825   1.831   2.582 -0.4431  0.2351 -0.7787
 1509SOL    MW4 6160   0.849   1.914   2.586 -0.4336  0.1960  0.0060
 1510SOL     OW 6161   1.104   2.027   2.666 -0.0140 -0.1014 -0.3614
 1510SOL    HW2 6162   1.181   1.984   2.630  1.1836 -0.1200  2.0646
 1510SOL    HW3 6163   1.113   2.119   2.640  0.6166 -0.1930 -0.4775
 1510SOL    MW4 6164   1.116   2.034   2.658  0.2272 -0.1159 -0.0570
 1511SOL     OW 6165   1.144   2.304   2.613 -0.0207 -0.3236 -0.7644
 1511SOL    HW2 6166   1.210   2.358   2.656 -1.0409  0.3518 -0.0169
 1511SOL    HW3 6167   1.163   2.313   2.519 -0.1434  1.2998 -0.6550
 1511SOL    MW4 6168   1.155   2.312   2.606 -0.1714 -0.0200 -0.6516
 1512SOL     OW 6169   0.904   2.409   2.695  0.0000  0.0000 -0.0711
 1512SOL    HW2 6170   0.902   2.499   2.663  0.0000  0.0000 -0.0540
 1512SOL    HW3 6171   0.979   2.370   2.650  0.0000  0.0000 -0.1006
 1512SOL    MW4 6172   0.914   2.416   2.685  0.0000  0.0000 -0.0730
 1513SOL     OW 6173   0.874   2.673   2.611  0.0000  0.0000 -0.0526
 1513SOL    HW2 6174   0.947   2.714   2.656  0.0000  0.0000 -0.0505
 1513SOL    HW3 6175   0.796   2.710   2.653  0.0000  0.0000 -0.0580
 1513SOL    MW4 6176   0.873   2.683   2.622  0.0000  0.0000 -0.0529
 1514SOL     OW 6177   1.083   2.832   2.702  0.0000  0.0000  0.0336
 1514SOL    HW2 6178   1.106   2.825   2.795  0.0000  0.0000  0.0313
 1514SOL    HW3 6179   1.159   2.795   2.657  0.0000  0.0000  0.0249
 1514SOL    MW4 6180   1.096   2.826   2.709  0.0000  0.0000  0.0319
 1515SOL     OW 6181   1.148   3.096   2.628  0.0000  0.0000 -0.4157
 1515SOL    HW2 6182   1.122   3.007   2.651  0.0000  0.0000 -0.4187
 1515SOL    HW3 6183   1.136   3.101   2.533  0.0000  0.0000 -0.4157
 1515SOL    MW4 6184   1.143   3.085   2.619  0.0000  0.0000 -0.4160
 1516SOL     OW 6185   0.919   3.208   2.745  0.0000  0.0000  0.2692
 1516SOL    HW2 6186   0.903   3.287   2.692  0.0000  0.0000  0.2525
 1516SOL    HW3 6187   1.006   3.179   2.717  0.0000  0.0000  0.2973
 1516SOL    MW4 6188   0.928   3.215   2.734  0.0000  0.0000  0.2706
 1517SOL     OW 6189   0.887   3.462   2.629  0.0000  0.0000  0.1713
 1517SOL    HW2 6190   0.961   3.509   2.670  0.0000  0.0000  0.2041
 1517SOL    HW3 6191   0.810   3.512   2.656  0.0000  0.0000  0.1038
 1517SOL    MW4 6192   0.887   3.475   2.638  0.0000  0.0000  0.1667
 1518SOL     OW 6193   1.102   3.599   2.743  0.0000  0.0000  0.2483
 1518SOL    HW2 6194   1.101   3.626   2.835  0.0000  0.0000  0.2484
 1518SOL    HW3 6195   1.100   3.681   2.695  0.0000  0.0000  0.2490
 1518SOL    MW4 6196   1.102   3.613   2.749  0.0000  0.0000  0.2482
 1519SOL     OW 6197   1.098   3.851   2.594  0.0000  0.0000  0.1087
 1519SOL    HW2 6198   1.178   3.889   2.632  0.0000  0.0000  0.1105
 1519SOL    HW3 6199   1.110   3.859   2.500  0.0000  0.0000  0.1091
 1519SOL    MW4 6200   1.110   3.857   2.587  0.0000  0.0000  0.1090
 1520SOL     OW 6201   0.893   4.008   2.764  0.0000  0.0000  0.0180
 1520SOL    HW2 6202   0.957   3.963   2.709  0.0000  0.0000  0.0246
 1520SOL    HW3 6203   0.809   3.969   2.739  0.0000  0.0000  0.0047
 1520SOL    MW4 6204   0.890   3.997   2.753  0.0000  0.0000  0.0174
 1521SOL     OW 6205   0.877   4.260   2.634  0.3813 -0.2213  0.1561
 1521SOL    HW2 6206   0.881   4.174   2.675  0.2401 -0.1171  0.3919
 1521SOL    HW3 6207   0.791   4.295   2.659 -0.0499 -0.4957 -0.9135
 1521SOL    MW4 6208   0.866   4.254   2.643  0.3058 -0.2437  0.0463
 1522SOL     OW 6209   1.128   4.416   2.677  0.1214 -0.4056  0.2362
 1522SOL    HW2 6210   1.114   4.405   2.772 -1.8098 -2.5142 -0.2291
 1522SOL    HW3 6211   1.053   4.372   2.637  0.3533  1.3912 -2.2837
 1522SOL    MW4 6212   1.116   4.409   2.685 -0.1030 -0.4468 -0.1576
 1523SOL     OW 6213   1.582   0.000   2.655  0.1204  0.1257 -0.1142
 1523SOL    HW2 6214   1.598  -0.094   2.659 -2.5299 -0.3514  0.0463
 1523SOL    HW3 6215   1.567   0.018   2.562  1.0840  0.5016 -0.2092
 1523SOL    MW4 6216   1.582  -0.010   2.643 -0.1020  0.1123 -0.1054
 1524SOL     OW 6217   1.362   0.143   2.737  0.1325 -0.0726  0.0154
 1524SOL    HW2 6218   1.376   0.215   2.675  0.3991 -0.7175 -0.6771
 1524SOL    HW3 6219   1.432   0.081   2.718  0.3818 -0.1565  1.1525
 1524SOL    MW4 6220   1.373   0.144   2.727  0.2006 -0.1688  0.0739
 1525SOL     OW 6221   1.326   0.403   2.604  0.4616  0.3543  0.0108
 1525SOL    HW2 6222   1.391   0.451   2.655  0.4289  1.0646 -0.6201
 1525SOL    HW3 6223   1.242   0.433   2.639  0.4632 -0.7911  1.0367
 1525SOL    MW4 6224   1.324   0.413   2.616  0.4574  0.2968  0.0627
 1526SOL     OW 6225   1.590   0.494   2.732 -0.2471 -0.4167  0.0517
 1526SOL    HW2 6226   1.665   0.459   2.685 -0.0375  0.2624 -0.1337
 1526SOL    HW3 6227   1.583   0.585   2.701 -2.1315 -0.9379 -1.1496
 1526SOL    MW4 6228   1.599   0.502   2.722 -0.4680 -0.3958 -0.1314
 1527SOL     OW 6229   1.563   0.746   2.593  0.2873  0.4118  0.2719
 1527SOL    HW2 6230   1.493   0.794   2.638  0.7488  0.7471  0.6364
 1527SOL    HW3 6231   1.545   0.760   2.500  0.4500  1.3336  0.3800
 1527SOL    MW4 6232   1.551   0.754   2.587  0.3698  0.5776  0.3340
 1528SOL     OW 6233   1.353   0.884   2.694  0.3676  0.3926 -0.6926
 1528SOL    HW2 6234   1.358   0.908   2.786  0.8044 -0.8400 -0.3754
 1528SOL    HW3 6235   1.328   0.964   2.649  1.3002  1.2941  0.3699
 1528SOL    MW4 6236   1.351   0.898   2.700  0.5482  0.3489 -0.5102
 1529SOL     OW 6237   1.312   1.131   2.563  0.4062 -0.6398  0.5953
 1529SOL    HW2 6238   1.396   1.172   2.584  0.7177 -1.2130  0.4735
 1529SOL    HW3 6239   1.247   1.184   2.609  0.9352 -0.9071  1.6636
 1529SOL    MW4 6240   1.315   1.143   2.572  0.5171 -0.7507  0.7203
 1530SOL     OW 6241   1.538   1.267   2.660 -0.0065 -0.0042 -0.5387
 1530SOL    HW2 6242   1.546   1.273   2.755  1.5040  1.8138 -0.7702
 1530SOL    HW3 6243   1.613   1.214   2.633 -0.0938 -0.0029 -0.7858
 1530SOL    MW4 6244   1.549   1.261   2.669  0.1812  0.2358 -0.6020
 1531SOL     OW 6245   1.545   1.527   2.584 -0.2393 -0.1854  0.1360
 1531SOL    HW2 6246   1.538   1.431   2.591  0.2181 -0.1157  1.6606
 1531SOL    HW3 6247   1.525   1.545   2.492 -1.6552 -1.6342  0.1214
 1531SOL    MW4 6248   1.541   1.517   2.573 -0.3659 -0.3674  0.3352
 1532SOL     OW 6249   1.783   1.667   2.973  0.2609 -0.4015  0.3921
 1532SOL    HW2 6250   1.761   1.745   3.025 -1.5472 -0.3641 -0.3803
 1532SOL    HW3 6251   1.862   1.632   3.014  1.9698  2.6402 -0.1275
 1532SOL    MW4 6252   1.791   1.673   2.985  0.2478  0.0048  0.2213
 1533SOL     OW 6253   1.335   1.647   2.713  0.4096  1.0939 -0.4981
 1533SOL    HW2 6254   1.332   1.643   2.808 -0.2315 -1.1715 -0.5867
 1533SOL    HW3 6255   1.408   1.590   2.689  0.0800  1.0404 -1.3889
 1533SOL    MW4 6256   1.344   1.639   2.722  0.2816  0.7880 -0.6273
 1534SOL     OW 6257   1.319   1.876   2.576  0.3230  0.0709  0.0728
 1534SOL    HW2 6258   1.321   1.802   2.636 -0.1972  0.4139  0.5287
 1534SOL    HW3 6259   1.394   1.930   2.600  0.9974 -0.5584 -0.5949
 1534SOL    MW4 6260   1.329   1.874   2.587  0.3433  0.0331  0.0451
 1535SOL     OW 6261   1.561   2.297   2.567 -0.5950 -0.1304  0.4335
 1535SOL    HW2 6262   1.636   2.343   2.604  0.1399 -0.5380 -0.5252
 1535SOL    HW3 6263   1.556   2.216   2.618 -1.7918  0.9115  2.0112
 1535SOL    MW4 6264   1.571   2.292   2.579 -0.6560 -0.0470  0.5152
 1536SOL     OW 6265   1.346   2.443   2.717  0.2090  0.3527  0.6670
 1536SOL    HW2 6266   1.358   2.532   2.683 -1.7339 -0.0705 -1.1561
 1536SOL    HW3 6267   1.420   2.393   2.681 -0.6887  0.3925 -1.2649
 1536SOL    MW4 6268   1.358   2.448   2.708 -0.1657  0.3021  0.1714
 1537SOL     OW 6269   1.313   2.708   2.608 -0.2532  0.4951 -0.0940
 1537SOL    HW2 6270   1.384   2.768   2.630  0.2224 -0.1516  0.1446
 1537SOL    HW3 6271   1.313   2.706   2.512  1.0084 -0.6188 -0.0877
 1537SOL    MW4 6272   1.323   2.716   2.598 -0.0241  0.2630 -0.0620
 1538SOL     OW 6273   1.549   2.821   2.677  0.2074 -0.4886  0.0077
 1538SOL    HW2 6274   1.563   2.807   2.771 -0.6182 -1.4279 -0.0033
 1538SOL    HW3 6275   1.625   2.781   2.635 -0.1827 -1.4456  0.1972
 1538SOL    MW4 6276   1.560   2.814   2.684  0.0471 -0.7386  0.0312
 1539SOL     OW 6277   1.568   3.110   2.609  0.3869 -0.2378 -0.2387
 1539SOL    HW2 6278   1.560   3.017   2.630  0.3243 -0.3425 -0.7330
 1539SOL    HW3 6279   1.492   3.151   2.652  0.4669 -0.3976  0.0571
 1539SOL    MW4 6280   1.557   3.103   2.617  0.3892 -0.2728 -0.2649
 1540SOL     OW 6281   1.351   3.236   2.738  0.3020 -0.2057 -0.1306
 1540SOL    HW2 6282   1.284   3.171   2.714  0.6156 -0.3839 -0.5445
 1540SOL    HW3 6283   1.370   3.218   2.830  0.6688 -0.9604 -0.3494
 1540SOL    MW4 6284   1.344   3.225   2.747  0.3917 -0.3290 -0.2143
 1541SOL     OW 6285   1.363   3.515   2.679  0.1129  0.2260 -0.5140
 1541SOL    HW2 6286   1.375   3.431   2.723 -1.3738  0.0734 -0.3890
 1541SOL    HW3 6287   1.278   3.547   2.709  0.1386  1.2280 -1.4628
 1541SOL    MW4 6288   1.354   3.508   2.689 -0.0800  0.3381 -0.6227
 1542SOL     OW 6289   1.619   3.664   2.738  0.0903 -0.3422 -0.1588
 1542SOL    HW2 6290   1.527   3.637   2.732 -0.3559  0.7677  1.2929
 1542SOL    HW3 6291   1.630   3.688   2.830  1.1496  2.0079 -0.8790
 1542SOL    MW4 6292   1.608   3.664   2.750  0.1712  0.1142 -0.0627
 1543SOL     OW 6293   1.576   3.894   2.589  0.0461 -0.0882  0.8068
 1543SOL    HW2 6294   1.493   3.918   2.628 -1.1362 -0.6250 -1.2840
 1543SOL    HW3 6295   1.602   3.813   2.634  0.0986  0.7530  2.3268
 1543SOL    MW4 6296   1.569   3.886   2.600 -0.1030 -0.0482  0.7315
 1544SOL     OW 6297   1.333   3.967   2.687 -0.1665  0.2020 -0.1618
 1544SOL    HW2 6298   1.340   3.975   2.782  0.7648  0.4888 -0.2519
 1544SOL    HW3 6299   1.338   4.056   2.655  1.3361 -0.0240 -0.5883
 1544SOL    MW4 6300   1.335   3.980   2.696  0.1546  0.2100 -0.2298
 1545SOL     OW 6301   1.334   4.243   2.613  0.4441  0.2116 -0.6325
 1545SOL    HW2 6302   1.281   4.313   2.653 -1.6690 -1.3812 -0.5782
 1545SOL    HW3 6303   1.330   4.261   2.519  0.4092  0.4988 -0.5781
 1545SOL    MW4 6304   1.326   4.255   2.606  0.1607  0.0391 -0.6182
 1546SOL     OW 6305   1.560   4.387   2.729  0.2711 -0.2631  0.4394
 1546SOL    HW2 6306   1.544   4.410   2.821 -2.5028 -0.3939  0.0237
 1546SOL    HW3 6307   1.483   4.335   2.704  0.9591 -0.1306 -1.9992
 1546SOL    MW4 6308   1.548   4.383   2.738 -0.0041 -0.2627  0.0629
 1547SOL     OW 6309   2.015   0.032   2.645  0.4052  0.0781 -0.2033
 1547SOL    HW2 6310   2.093   0.068   2.687  0.7154 -0.4020 -0.3600
 1547SOL    HW3 6311   2.035   0.033   2.551  0.6364 -0.9863 -0.1780
 1547SOL    MW4 6312   2.028   0.037   2.638  0.4766 -0.1256 -0.2208
 1548SOL     OW 6313   1.792   0.161   2.742  0.0816 -0.1032  0.4135
 1548SOL    HW2 6314   1.865   0.121   2.695  1.7784  0.8889  2.1091
 1548SOL    HW3 6315   1.718   0.102   2.727  1.0667 -0.7941 -1.8595
 1548SOL    MW4 6316   1.792   0.148   2.734  0.4355 -0.0634  0.3376
 1549SOL     OW 6317   1.824   0.410   2.626 -0.3897 -0.5514  0.3148
 1549SOL    HW2 6318   1.906   0.448   2.657 -1.0090 -1.1263  2.7843
 1549SOL    HW3 6319   1.822   0.323   2.667 -1.6476 -1.0095 -0.7171
 1549SOL    MW4 6320   1.835   0.404   2.636 -0.6374 -0.6877  0.5043
 1550SOL     OW 6321   2.071   0.782   2.594 -0.1358 -0.1089  0.0097
 1550SOL    HW2 6322   2.076   0.775   2.498  0.6212  0.2336  0.0221
 1550SOL    HW3 6323   1.979   0.805   2.611  0.0727  1.3387 -0.7282
 1550SOL    MW4 6324   2.059   0.784   2.583 -0.0086  0.1273 -0.0858
 1551SOL     OW 6325   2.018   0.561   2.772 -0.0482  0.0916  0.3211
 1551SOL    HW2 6326   2.096   0.506   2.765 -0.8495 -1.0901  0.5069
 1551SOL    HW3 6327   2.032   0.632   2.709  1.3834  0.1679  0.7064
 1551SOL    MW4 6328   2.030   0.563   2.763  0.0348 -0.0543  0.3965
 1552SOL     OW 6329   1.806   0.875   2.650  0.0007 -0.2355 -0.2153
 1552SOL    HW2 6330   1.789   0.968   2.634  0.2785 -0.3528 -1.2468
 1552SOL    HW3 6331   1.727   0.831   2.617 -0.0752 -0.3692  0.1508
 1552SOL    MW4 6332   1.793   0.882   2.643  0.0273 -0.2686 -0.3035
 1553SOL     OW 6333   1.767   1.141   2.575 -0.0124 -0.2721 -0.2246
 1553SOL    HW2 6334   1.842   1.192   2.607 -0.8273  1.1062 -0.4924
 1553SOL    HW3 6335   1.774   1.147   2.479 -0.7045  0.1969 -0.2417
 1553SOL    MW4 6336   1.778   1.149   2.566 -0.2114 -0.0283 -0.2620
 1554SOL     OW 6337   1.994   1.263   2.685 -0.0928  0.7378  0.2815
 1554SOL    HW2 6338   2.012   1.277   2.778  1.1573  2.4633 -0.2167
 1554SOL    HW3 6339   2.078   1.238   2.647 -0.6626 -0.2865 -0.3449
 1554SOL    MW4 6340   2.007   1.261   2.692 -0.0031  0.8303  0.1333
 1555SOL     OW 6341   1.968   1.548   2.628 -0.2582  0.2083 -0.0712
 1555SOL    HW2 6342   1.888   1.598   2.642  0.0825  0.6007  0.5176
 1555SOL    HW3 6343   1.950   1.462   2.665 -0.5447  0.1675 -0.3036
 1555SOL    MW4 6344   1.955   1.543   2.635 -0.2511  0.2546 -0.0243
 1556SOL     OW 6345   1.744   1.708   2.695  0.3249 -0.1561  0.0202
 1556SOL    HW2 6346   1.749   1.685   2.787  0.5563  0.7369  0.2334
 1556SOL    HW3 6347   1.673   1.653   2.660 -0.3175  0.1020  0.9108
 1556SOL    MW4 6348   1.735   1.698   2.702  0.2707 -0.0043  0.1659
 1557SOL     OW 6349   1.804   1.958   2.615 -0.0795  0.4948 -0.0594
 1557SOL    HW2 6350   1.892   1.978   2.649  0.6816 -0.4301 -1.4378
 1557SOL    HW3 6351   1.779   1.878   2.662  0.3992 -0.0143 -0.6602
 1557SOL    MW4 6352   1.812   1.950   2.626  0.0840  0.3055 -0.3207
 1558SOL     OW 6353   2.047   2.051   2.699  0.0159  1.0090  0.2825
 1558SOL    HW2 6354   2.011   2.051   2.787  0.2440  2.1767  0.3816
 1558SOL    HW3 6355   2.025   2.137   2.664 -0.2888  0.4673 -0.8890
 1558SOL    MW4 6356   2.039   2.063   2.706  0.0060  1.0917  0.1409
 1559SOL     OW 6357   1.985   2.318   2.581 -0.7620 -0.2960 -0.3572
 1559SOL    HW2 6358   2.054   2.364   2.628 -1.7577 -0.3720  1.2213
 1559SOL    HW3 6359   2.017   2.311   2.492  0.5075  1.2051 -0.0355
 1559SOL    MW4 6360   1.998   2.323   2.576 -0.7259 -0.1082 -0.1066
 1560SOL     OW 6361   1.759   2.444   2.672 -0.2454  0.4720 -0.0840
 1560SOL    HW2 6362   1.758   2.420   2.765  1.6053  0.8151  0.0542
 1560SOL    HW3 6363   1.845   2.416   2.641  0.0561  2.4235 -1.1233
 1560SOL    MW4 6364   1.770   2.437   2.680  0.0386  0.7749 -0.2027
 1561SOL     OW 6365   1.789   2.715   2.589 -0.2461  0.0870  0.0844
 1561SOL    HW2 6366   1.776   2.625   2.616  1.2473  0.2557  1.4120
 1561SOL    HW3 6367   1.784   2.713   2.494 -1.0261 -1.2481  0.1478
 1561SOL    MW4 6368   1.787   2.703   2.580 -0.1520 -0.0668  0.2675
 1562SOL     OW 6369   2.004   2.835   2.704 -0.0846 -0.0154  0.0474
 1562SOL    HW2 6370   2.084   2.797   2.670 -0.0255 -1.1925  1.4748
 1562SOL    HW3 6371   1.934   2.788   2.659  0.0065 -0.3641  0.2712
 1562SOL    MW4 6372   2.005   2.824   2.694 -0.0648 -0.2167  0.2654
 1563SOL     OW 6373   2.011   3.097   2.592  0.2442  0.3043 -0.4524
 1563SOL    HW2 6374   2.009   3.012   2.636 -0.2925  0.6065  0.1181
 1563SOL    HW3 6375   2.099   3.132   2.612 -0.2628  0.7795  1.0574
 1563SOL    MW4 6376   2.023   3.091   2.601  0.1068  0.4070 -0.1781
 1564SOL     OW 6377   1.801   3.232   2.709 -0.1648  0.1374 -0.4624
 1564SOL    HW2 6378   1.722   3.186   2.680 -0.2691 -1.1847  1.7894
 1564SOL    HW3 6379   1.871   3.196   2.654 -0.6795 -0.7156 -0.5701
 1564SOL    MW4 6380   1.800   3.221   2.698 -0.2465 -0.1497 -0.1793
 1565SOL     OW 6381   1.816   3.506   2.627  0.1728 -0.1408 -0.0212
 1565SOL    HW2 6382   1.815   3.415   2.656 -0.3251 -0.7990 -2.0294
 1565SOL    HW3 6383   1.745   3.548   2.676 -0.4905 -1.1618 -0.1059
 1565SOL    MW4 6384   1.807   3.500   2.637  0.0196 -0.3624 -0.2975
 1566SOL     OW 6385   2.031   3.643   2.735  0.3340  0.5777 -0.6234
 1566SOL    HW2 6386   2.026   3.626   2.829 -1.0218  2.1828 -0.4015
 1566SOL    HW3 6387   1.953   3.602   2.699  0.8593 -0.0465 -1.0689
 1566SOL    MW4 6388   2.020   3.635   2.743  0.2244  0.7069 -0.6530
 1567SOL     OW 6389   2.027   3.880   2.607  0.4895  0.1195  0.0922
 1567SOL    HW2 6390   1.943   3.913   2.639 -0.2378 -0.2344 -1.4362
 1567SOL    HW3 6391   2.032   3.790   2.640  1.0252  0.6827  1.5709
 1567SOL    MW4 6392   2.017   3.872   2.616  0.4642  0.1471  0.0858
 1568SOL     OW 6393   1.802   4.024   2.711  0.0642  0.1467 -0.0367
 1568SOL    HW2 6394   1.775   4.115   2.700  0.4703  0.2253 -0.4353
 1568SOL    HW3 6395   1.730   3.973   2.676 -0.9103  0.2613  1.7363
 1568SOL    MW4 6396   1.789   4.029   2.705 -0.0108  0.1721  0.1447
 1569SOL     OW 6397   1.788   4.295   2.617  0.2655 -0.3032 -0.1524
 1569SOL    HW2 6398   1.706   4.327   2.655  1.2463  0.9482  0.9753
 1569SOL    HW3 6399   1.768   4.281   2.525 -1.1714  0.1206  0.0839
 1569SOL    MW4 6400   1.774   4.297   2.610  0.2053 -0.0820  0.0277
 1570SOL     OW 6401   2.015   4.422   2.727 -0.1810  0.2484  0.4006
 1570SOL    HW2 6402   1.940   4.388   2.678 -0.9715  1.1872  0.9317
 1570SOL    HW3 6403   2.020   4.515   2.703  0.7384  0.2200  0.4584
 1570SOL    MW4 6404   2.006   4.430   2.718 -0.1640  0.3686  0.4783
 1571SOL     OW 6405   2.436   4.650   2.652 -0.1937 -0.3992 -0.2931
 1571SOL    HW2 6406   2.506   4.703   2.690 -0.4925  0.1696 -0.5422
 1571SOL    HW3 6407   2.448   4.658   2.557  0.8500 -2.2126 -0.3421
 1571SOL    MW4 6408   2.447   4.658   2.645 -0.0956 -0.5636 -0.3326
 1572SOL     OW 6409   2.244   0.139   2.757 -0.4840 -0.4513  0.1456
 1572SOL    HW2 6410   2.236   0.139   2.853 -0.5194  0.0108  0.1421
 1572SOL    HW3 6411   2.301   0.065   2.738 -2.4458 -2.0863  0.3633
 1572SOL    MW4 6412   2.250   0.129   2.768 -0.7477 -0.6060  0.1740
 1573SOL     OW 6413   2.217   0.389   2.628 -0.1263  0.3840 -0.3433
 1573SOL    HW2 6414   2.222   0.300   2.663 -1.7236  0.3325 -0.2303
 1573SOL    HW3 6415   2.306   0.424   2.639  0.2588 -0.8465  0.5308
 1573SOL    MW4 6416   2.229   0.382   2.634 -0.2861  0.2148 -0.2134
 1574SOL     OW 6417   2.480   0.512   2.695 -0.1097 -0.1301  0.1534
 1574SOL    HW2 6418   2.486   0.599   2.657  1.9162 -0.1948  0.2868
 1574SOL    HW3 6419   2.483   0.527   2.790  2.3450 -0.4535  0.1576
 1574SOL    MW4 6420   2.481   0.525   2.703  0.4814 -0.1813  0.1714
 1575SOL     OW 6421   2.487   0.777   2.617  0.1836  0.1243 -0.3808
 1575SOL    HW2 6422   2.416   0.835   2.645 -1.1677 -1.6469 -0.0525
 1575SOL    HW3 6423   2.486   0.782   2.521 -2.5479 -2.3196 -0.5601
 1575SOL    MW4 6424   2.477   0.785   2.608 -0.3552 -0.4319 -0.3612
 1576SOL     OW 6425   2.261   0.942   2.703  0.4834 -0.3803  0.4505
 1576SOL    HW2 6426   2.263   0.917   2.796 -0.2934 -0.7190  0.3823
 1576SOL    HW3 6427   2.194   0.885   2.665  0.8975 -0.3306 -0.3466
 1576SOL    MW4 6428   2.252   0.931   2.710  0.4354 -0.4184  0.3366
 1577SOL     OW 6429   2.236   1.183   2.591 -0.3609 -0.1902  0.2556
 1577SOL    HW2 6430   2.245   1.103   2.642  1.4346  0.2939  0.7493
 1577SOL    HW3 6431   2.236   1.154   2.500 -2.8158 -0.9923  0.5014
 1577SOL    MW4 6432   2.237   1.169   2.585 -0.4480 -0.2321  0.3531
 1578SOL     OW 6433   2.442   1.274   2.748 -0.3025 -0.7575 -0.0842
 1578SOL    HW2 6434   2.523   1.239   2.710  0.4074  0.0497  0.6665
 1578SOL    HW3 6435   2.374   1.247   2.686  0.2990 -2.8971  0.1429
 1578SOL    MW4 6436   2.444   1.266   2.735 -0.1297 -0.9333  0.0451
 1579SOL     OW 6437   2.469   1.518   2.637  0.3311 -0.4842  0.3198
 1579SOL    HW2 6438   2.386   1.565   2.646  0.3872 -0.3549  0.1697
 1579SOL    HW3 6439   2.455   1.435   2.682 -0.4957 -1.2465 -1.3159
 1579SOL    MW4 6440   2.456   1.513   2.644  0.2294 -0.5678  0.0842
 1580SOL     OW 6441   2.215   1.635   2.695 -0.2469  0.1631  0.4798
 1580SOL    HW2 6442   2.219   1.724   2.661  0.0369  0.1558  0.4878
 1580SOL    HW3 6443   2.129   1.602   2.669  0.2032 -0.0552 -0.7391
 1580SOL    MW4 6444   2.204   1.642   2.687 -0.1500  0.1334  0.3202
 1581SOL     OW 6445   2.260   1.894   2.601  0.3846 -0.4369 -0.1394
 1581SOL    HW2 6446   2.197   1.959   2.631  1.4321  0.8023 -0.5526
 1581SOL    HW3 6447   2.345   1.927   2.631  1.3067  0.1257 -3.1344
 1581SOL    MW4 6448   2.263   1.907   2.609  0.6447 -0.1991 -0.5891
 1582SOL     OW 6449   2.482   2.025   2.701  0.1740  0.5066  0.2114
 1582SOL    HW2 6450   2.468   2.116   2.675  0.2428  0.5197  0.2212
 1582SOL    HW3 6451   2.480   2.026   2.797 -2.0366  0.1555  0.1989
 1582SOL    MW4 6452   2.479   2.037   2.710 -0.1085  0.4623  0.2112
 1583SOL     OW 6453   2.436   2.339   2.607  0.3760  0.0969 -0.3945
 1583SOL    HW2 6454   2.519   2.364   2.647 -0.1053  1.3848 -0.1925
 1583SOL    HW3 6455   2.456   2.336   2.513  0.8919 -0.5763 -0.2725
 1583SOL    MW4 6456   2.450   2.342   2.600  0.3805  0.1779 -0.3517
 1584SOL     OW 6457   2.204   2.443   2.697  0.1606  0.2172  0.2763
 1584SOL    HW2 6458   2.210   2.442   2.793  0.6659  1.8661  0.2896
 1584SOL    HW3 6459   2.288   2.408   2.667 -0.1867 -0.7487  0.4397
 1584SOL    MW4 6460   2.216   2.438   2.706  0.1817  0.3073  0.2995
 1585SOL     OW 6461   2.242   2.696   2.618 -0.2983  0.1045 -0.5021
 1585SOL    HW2 6462   2.327   2.720   2.655 -1.1353  1.1893  0.7694
 1585SOL    HW3 6463   2.230   2.605   2.642  0.1843  0.1479 -0.0821
 1585SOL    MW4 6464   2.252   2.687   2.626 -0.3448  0.2534 -0.2789
 1586SOL     OW 6465   2.477   2.778   2.743  0.4136  0.3179  0.6211
 1586SOL    HW2 6466   2.558   2.737   2.713  0.4593  0.3970  0.6342
 1586SOL    HW3 6467   2.465   2.852   2.683  0.8572  0.8733  1.2064
 1586SOL    MW4 6468   2.486   2.783   2.731  0.4783  0.4015  0.7002
 1587SOL     OW 6469   2.666   3.178   2.727 -0.9410 -0.2197  0.7153
 1587SOL    HW2 6470   2.590   3.137   2.684 -1.0435 -0.2906  0.9665
 1587SOL    HW3 6471   2.675   3.262   2.682 -1.7625  0.2073  1.3222
 1587SOL    MW4 6472   2.657   3.184   2.715 -1.0629 -0.1726  0.8285
 1588SOL     OW 6473   2.233   3.203   2.715  0.4216  0.2033  0.3626
 1588SOL    HW2 6474   2.215   3.293   2.688 -0.1972 -0.2020 -0.5969
 1588SOL    HW3 6475   2.203   3.199   2.806 -0.1142  0.7957  0.2155
 1588SOL    MW4 6476   2.227   3.215   2.723  0.2689  0.2282  0.2167
 1589SOL     OW 6477   2.223   3.465   2.639  0.0411 -0.1831 -0.3048
 1589SOL    HW2 6478   2.301   3.493   2.686 -0.0276 -0.3294 -0.1040
 1589SOL    HW3 6479   2.153   3.521   2.674  0.2634  0.7152 -1.2833
 1589SOL    MW4 6480   2.224   3.476   2.650  0.0615 -0.0837 -0.4072
 1590SOL     OW 6481   2.476   3.549   2.730  0.2242  0.1606 -0.3096
 1590SOL    HW2 6482   2.470   3.542   2.825 -0.4568  0.2102 -0.3504
 1590SOL    HW3 6483   2.457   3.641   2.712  0.0944  0.0919 -0.5182
 1590SOL    MW4 6484   2.473   3.560   2.740  0.1173  0.1581 -0.3424
 1591SOL     OW 6485   2.448   3.821   2.651  0.4576 -0.2214  0.4677
 1591SOL    HW2 6486   2.522   3.881   2.661 -0.0408  0.1884  1.6760
 1591SOL    HW3 6487   2.373   3.868   2.686 -0.1469 -1.1386  0.4237
 1591SOL    MW4 6488   2.448   3.835   2.657  0.3121 -0.2880  0.6213
 1592SOL     OW 6489   2.250   3.991   2.717  0.0559  0.2252  0.1066
 1592SOL    HW2 6490   2.228   4.001   2.809 -1.1856 -0.2939 -0.1250
 1592SOL    HW3 6491   2.171   3.955   2.677  0.7822 -0.1220 -1.0506
 1592SOL    MW4 6492   2.237   3.987   2.724 -0.0122  0.1109 -0.0768
 1593SOL     OW 6493   2.212   4.243   2.604 -0.0216 -0.1689  0.4491
 1593SOL    HW2 6494   2.219   4.154   2.639 -1.3471 -0.8589 -0.9498
 1593SOL    HW3 6495   2.148   4.285   2.661  1.5561  0.3226  1.9047
 1593SOL    MW4 6496   2.204   4.237   2.616  0.0119 -0.1950  0.4566
 1594SOL     OW 6497   2.463   4.377   2.670 -0.5763  0.1139 -0.3190
 1594SOL    HW2 6498   2.380   4.344   2.634 -0.9661 -0.1430  0.7994
 1594SOL    HW3 6499   2.455   4.472   2.667 -0.1849  0.1078 -1.8750
 1594SOL    MW4 6500   2.451   4.385   2.665 -0.5763  0.0796 -0.3769
 1595SOL     OW 6501   2.914   4.658   2.657 -0.7226  0.5089  0.0551
 1595SOL    HW2 6502   2.995   4.703   2.678  0.9888 -1.9533 -1.0420
 1595SOL    HW3 6503   2.916   4.647   2.562 -1.7515 -0.5963  0.1464
 1595SOL    MW4 6504   2.925   4.662   2.648 -0.6323  0.0377 -0.0780
 1596SOL     OW 6505   2.654   0.114   2.745 -0.0493  0.1156 -0.0189
 1596SOL    HW2 6506   2.668   0.145   2.835 -0.1609  0.6141 -0.1682
 1596SOL    HW3 6507   2.735   0.069   2.722 -0.2161 -0.4653  0.5149
 1596SOL    MW4 6508   2.666   0.112   2.754 -0.0861  0.1047  0.0319
 1597SOL     OW 6509   2.724   0.395   2.651  0.3712 -0.2537  0.2259
 1597SOL    HW2 6510   2.706   0.309   2.689 -1.1779  0.7171  1.8292
 1597SOL    HW3 6511   2.639   0.439   2.652  1.4529  1.9139  1.1286
 1597SOL    MW4 6512   2.710   0.390   2.656  0.3095  0.1603  0.5565
 1598SOL     OW 6513   2.964   0.512   2.741 -0.1342 -0.2777 -0.2674
 1598SOL    HW2 6514   2.963   0.603   2.711  0.6660 -0.7010 -1.6007
 1598SOL    HW3 6515   2.880   0.477   2.713 -0.5267  0.0903  0.4213
 1598SOL    MW4 6516   2.953   0.519   2.733 -0.0801 -0.2850 -0.3524
 1599SOL     OW 6517   2.945   0.786   2.644 -0.0547 -0.1476 -0.0484
 1599SOL    HW2 6518   3.013   0.834   2.691  1.1693 -3.0969  1.2586
 1599SOL    HW3 6519   2.863   0.818   2.682  0.6874  1.4560  0.2490
 1599SOL    MW4 6520   2.943   0.797   2.655  0.2048 -0.3251  0.1633
 1600SOL     OW 6521   2.716   0.886   2.727 -0.1907  0.1208 -0.1260
 1600SOL    HW2 6522   2.702   0.898   2.821  0.9236 -2.8048  0.4440
 1600SOL    HW3 6523   2.632   0.854   2.693 -0.3556  0.4292 -0.0147
 1600SOL    MW4 6524   2.703   0.884   2.735 -0.0656 -0.2245 -0.0360
 1601SOL     OW 6525   2.678   1.158   2.615  0.2806  0.2879 -0.5509
 1601SOL    HW2 6526   2.748   1.214   2.649  0.6402 -0.4577 -0.0675
 1601SOL    HW3 6527   2.702   1.070   2.643 -1.1874  0.1137  0.1759
 1601SOL    MW4 6528   2.690   1.154   2.623  0.1345  0.1665 -0.3915
 1602SOL     OW 6529   2.898   1.286   2.723 -0.4077 -0.2250 -0.4644
 1602SOL    HW2 6530   2.926   1.302   2.813  1.7578 -0.6844 -1.0247
 1602SOL    HW3 6531   2.967   1.231   2.686 -0.9938  0.4150 -2.5680
 1602SOL    MW4 6532   2.911   1.281   2.730 -0.1993 -0.2012 -0.8159
 1603SOL     OW 6533   2.880   1.541   2.626  0.2684 -0.0681 -0.2223
 1603SOL    HW2 6534   2.807   1.578   2.676  1.5246  1.7860  0.3034
 1603SOL    HW3 6535   2.890   1.453   2.661 -2.1389 -0.5952 -0.7809
 1603SOL    MW4 6536   2.872   1.535   2.637  0.1163  0.1069 -0.2267
 1604SOL     OW 6537   2.658   1.660   2.785 -0.6782  0.1883  0.1924
 1604SOL    HW2 6538   2.656   1.670   2.880 -1.0743  1.1460  0.0978
 1604SOL    HW3 6539   2.571   1.628   2.762 -1.1348  1.5122  0.0123
 1604SOL    MW4 6540   2.646   1.657   2.795 -0.7906  0.4895  0.1564
 1605SOL     OW 6541   2.681   1.879   2.604 -0.0219 -0.7522 -0.1762
 1605SOL    HW2 6542   2.689   1.800   2.657  0.8899  0.4276  1.4913
 1605SOL    HW3 6543   2.609   1.928   2.644  1.0082  0.3841  0.3405
 1605SOL    MW4 6544   2.673   1.875   2.616  0.2344 -0.4466  0.1121
 1606SOL     OW 6545   2.895   2.021   2.733  0.6723  0.2527  0.4517
 1606SOL    HW2 6546   2.902   2.101   2.681 -1.2100  0.4030  0.3988
 1606SOL    HW3 6547   2.816   1.978   2.701  1.9475 -1.9194  0.1048
 1606SOL    MW4 6548   2.886   2.026   2.722  0.5925 -0.0138  0.3991
 1607SOL     OW 6549   2.923   2.285   2.614  0.0704 -0.2192 -0.0332
 1607SOL    HW2 6550   2.996   2.338   2.646 -0.8204  0.2009  1.3189
 1607SOL    HW3 6551   2.846   2.322   2.656 -1.0103 -0.2911 -1.8984
 1607SOL    MW4 6552   2.922   2.297   2.624 -0.1898 -0.1733 -0.1009
 1608SOL     OW 6553   2.691   2.406   2.715  0.6154 -0.4893 -0.4220
 1608SOL    HW2 6554   2.687   2.415   2.811 -0.9105  0.0631 -0.5346
 1608SOL    HW3 6555   2.712   2.494   2.684 -0.4403 -0.3381 -0.6945
 1608SOL    MW4 6556   2.694   2.418   2.724  0.2749 -0.3963 -0.4728
 1609SOL     OW 6557   2.713   2.661   2.637 -0.2547 -0.7562  0.2862
 1609SOL    HW2 6558   2.779   2.712   2.685  1.5811 -1.8280 -1.0336
 1609SOL    HW3 6559   2.709   2.702   2.551 -0.3510 -1.5181 -0.0749
 1609SOL    MW4 6560   2.721   2.673   2.632 -0.0253 -0.9980  0.0641
 1610SOL     OW 6561   2.920   2.816   2.760 -0.3021  0.6386 -0.2131
 1610SOL    HW2 6562   2.887   2.822   2.850 -1.9220 -0.0114 -0.7299
 1610SOL    HW3 6563   2.913   2.904   2.725 -1.2455  0.5642 -0.2191
 1610SOL    MW4 6564   2.915   2.828   2.767 -0.6404  0.5429 -0.2823
 1611SOL     OW 6565   2.884   3.049   2.635 -0.2299 -0.5308 -0.0623
 1611SOL    HW2 6566   2.806   3.101   2.649  0.5944  0.4807  0.8563
 1611SOL    HW3 6567   2.894   3.046   2.540 -0.9785 -0.0653 -0.1584
 1611SOL    MW4 6568   2.875   3.055   2.624 -0.2198 -0.3359  0.0463
 1612SOL     OW 6569   2.438   3.048   2.615  0.5537  0.5133  0.0210
 1612SOL    HW2 6570   2.366   3.094   2.658  0.1861 -0.0019 -0.0354
 1612SOL    HW3 6571   2.447   3.090   2.530 -0.2667  0.0085 -0.3209
 1612SOL    MW4 6572   2.430   3.059   2.609  0.3967  0.3786 -0.0315
 1613SOL     OW 6573   2.678   3.415   2.597  0.2723  0.1282 -0.2668
 1613SOL    HW2 6574   2.603   3.452   2.644  0.7312  0.7726 -0.0456
 1613SOL    HW3 6575   2.674   3.453   2.510 -0.3806 -0.8071 -0.6595
 1613SOL    MW4 6576   2.667   3.425   2.592  0.2468  0.0899 -0.2894
 1614SOL     OW 6577   2.880   3.593   2.664  0.5908  0.0344 -0.1654
 1614SOL    HW2 6578   2.898   3.583   2.757  1.1010 -0.7686 -0.3491
 1614SOL    HW3 6579   2.804   3.537   2.647 -0.1990  1.0340 -0.0182
 1614SOL    MW4 6580   2.872   3.585   2.674  0.5536  0.0606 -0.1702
 1615SOL     OW 6581   2.887   3.849   2.595 -0.3097 -0.1523 -0.4297
 1615SOL    HW2 6582   2.959   3.887   2.644 -0.1379  0.4104 -1.1082
 1615SOL    HW3 6583   2.884   3.758   2.623  0.9829 -0.3092 -0.7620
 1615SOL    MW4 6584   2.896   3.842   2.605 -0.1166 -0.0985 -0.5634
 1616SOL     OW 6585   2.658   3.964   2.722 -0.1583  0.1404  0.4781
 1616SOL    HW2 6586   2.649   4.057   2.697 -0.5406  0.2408  0.9953
 1616SOL    HW3 6587   2.734   3.934   2.672  0.1151  0.7963  0.4851
 1616SOL    MW4 6588   2.667   3.973   2.712 -0.1726  0.2398  0.5472
 1617SOL     OW 6589   2.692   4.228   2.652 -0.2082  0.0788  0.1425
 1617SOL    HW2 6590   2.768   4.275   2.689  0.2292 -1.0592  0.7049
 1617SOL    HW3 6591   2.618   4.287   2.667  0.5749  1.2347 -0.4805
 1617SOL    MW4 6592   2.692   4.242   2.659 -0.0472  0.0811  0.1349
 1618SOL     OW 6593   2.914   4.398   2.737 -0.1348 -0.2171  0.3107
 1618SOL    HW2 6594   2.940   4.397   2.829  1.0930 -0.6245 -0.0277
 1618SOL    HW3 6595   2.911   4.491   2.714  1.5119 -0.1560  0.2422
 1618SOL    MW4 6596   2.917   4.410   2.746  0.2444 -0.2627  0.2568
 1619SOL     OW 6597   3.360   0.016   2.676 -0.2620  0.5112  0.3972
 1619SOL    HW2 6598   3.350  -0.075   2.704 -1.0334  0.6407  0.5259
 1619SOL    HW3 6599   3.281   0.060   2.707 -0.5757  0.9097 -0.9415
 1619SOL    MW4 6600   3.349   0.010   2.684 -0.4051  0.5803  0.2377
 1620SOL     OW 6601   3.127   0.133   2.744 -0.2586  0.1779  0.1596
 1620SOL    HW2 6602   3.136   0.133   2.839 -0.8790 -0.5414  0.2263
 1620SOL    HW3 6603   3.148   0.223   2.718 -0.1424  0.3941  0.9827
 1620SOL    MW4 6604   3.131   0.145   2.753 -0.3250  0.1115  0.2768
 1621SOL     OW 6605   3.209   0.389   2.677 -0.4232 -0.3264  0.2188
 1621SOL    HW2 6606   3.135   0.444   2.704 -1.0331 -0.4015 -1.2093
 1621SOL    HW3 6607   3.201   0.386   2.581  0.5391 -1.5967  0.1781
 1621SOL    MW4 6608   3.198   0.396   2.668 -0.3767 -0.5039  0.0250
 1622SOL     OW 6609   3.479   0.480   2.740 -0.1556  0.0006 -0.2863
 1622SOL    HW2 6610   3.467   0.574   2.731  0.1617 -0.0325 -1.1377
 1622SOL    HW3 6611   3.391   0.443   2.730 -0.3373  0.2281  0.4397
 1622SOL    MW4 6612   3.466   0.488   2.737 -0.1378  0.0262 -0.3030
 1623SOL     OW 6613   3.386   0.769   2.690 -0.1145 -0.7529  0.1376
 1623SOL    HW2 6614   3.470   0.812   2.704 -0.4543  0.0227 -0.2023
 1623SOL    HW3 6615   3.377   0.764   2.595 -0.5238 -0.6928  0.1706
 1623SOL    MW4 6616   3.396   0.774   2.679 -0.2136 -0.6427  0.0973
 1624SOL     OW 6617   3.160   0.904   2.771  0.6431 -0.2093  0.0169
 1624SOL    HW2 6618   3.154   0.896   2.866 -0.4583 -0.3406 -0.0568
 1624SOL    HW3 6619   3.238   0.855   2.747  1.0933  0.0756  0.8867
 1624SOL    MW4 6620   3.170   0.897   2.780  0.5572 -0.1891  0.1221
 1625SOL     OW 6621   3.123   1.143   2.657 -0.5032  0.1249  0.1425
 1625SOL    HW2 6622   3.127   1.051   2.681 -0.9229  0.1183  0.1906
 1625SOL    HW3 6623   3.131   1.144   2.562  0.8780  0.1315  0.2576
 1625SOL    MW4 6624   3.124   1.131   2.648 -0.3765  0.1251  0.1640
 1626SOL     OW 6625   3.365   1.293   2.740  0.0969 -0.1321 -0.0761
 1626SOL    HW2 6626   3.383   1.303   2.833  0.0689 -0.3123 -0.0525
 1626SOL    HW3 6627   3.283   1.245   2.735 -2.3438  3.7967 -0.1491
 1626SOL    MW4 6628   3.357   1.288   2.751 -0.2291  0.3624 -0.0830
 1627SOL     OW 6629   3.362   1.554   2.648  0.8038  0.1820  0.1746
 1627SOL    HW2 6630   3.278   1.591   2.676  0.0782 -0.1331 -1.5347
 1627SOL    HW3 6631   3.354   1.460   2.666  0.6510  0.1025 -0.2928
 1627SOL    MW4 6632   3.350   1.546   2.654  0.6876  0.1299 -0.1128
 1628SOL     OW 6633   3.110   1.635   2.726  0.0455  0.2917  0.5831
 1628SOL    HW2 6634   3.106   1.728   2.704  0.8230  0.3745  0.7847
 1628SOL    HW3 6635   3.031   1.598   2.686  1.2304  0.4935 -2.0475
 1628SOL    MW4 6636   3.099   1.643   2.718  0.3042  0.3294  0.2627
 1629SOL     OW 6637   3.113   1.887   2.661  0.2304 -0.3464 -0.6246
 1629SOL    HW2 6638   3.182   1.949   2.684 -0.6199 -0.1982  1.7042
 1629SOL    HW3 6639   3.032   1.929   2.690 -0.7088 -1.1073 -2.0684
 1629SOL    MW4 6640   3.112   1.901   2.668 -0.0057 -0.4272 -0.5078
 1630SOL     OW 6641   3.343   2.042   2.712  0.4560 -0.0579 -0.5133
 1630SOL    HW2 6642   3.349   2.017   2.804  1.1536 -0.1460 -0.5794
 1630SOL    HW3 6643   3.365   2.135   2.711 -0.7698  0.2418 -0.4417
 1630SOL    MW4 6644   3.346   2.051   2.724  0.3862 -0.0300 -0.5128
 1631SOL     OW 6645   3.401   2.303   2.668  0.2959  0.0297  0.0878
 1631SOL    HW2 6646   3.320   2.354   2.669  1.1202  1.3542 -0.3033
 1631SOL    HW3 6647   3.468   2.363   2.700  1.1245 -1.0955  0.5121
 1631SOL    MW4 6648   3.399   2.317   2.673  0.5143  0.0560  0.0920
 1632SOL     OW 6649   3.112   2.443   2.739  0.4403 -0.1956 -0.6079
 1632SOL    HW2 6650   3.121   2.533   2.710  1.2396 -0.6706 -1.8466
 1632SOL    HW3 6651   3.117   2.448   2.835  2.7618  0.8262 -0.7521
 1632SOL    MW4 6652   3.114   2.455   2.748  0.8523 -0.1237 -0.7904
 1633SOL     OW 6653   3.137   2.732   2.602 -0.3588  0.3178  0.3899
 1633SOL    HW2 6654   3.222   2.743   2.644  0.0524  0.1342 -0.3871
 1633SOL    HW3 6655   3.074   2.765   2.666  0.5053  2.9814 -0.0807
 1633SOL    MW4 6656   3.140   2.738   2.616 -0.1907  0.6452  0.2253
 1634SOL     OW 6657   3.361   2.829   2.752  0.5021  0.0199  0.0420
 1634SOL    HW2 6658   3.359   2.822   2.847 -1.0647  1.2260  0.1225
 1634SOL    HW3 6659   3.453   2.817   2.729  0.7069 -1.5322  1.5890
 1634SOL    MW4 6660   3.373   2.827   2.761  0.3223 -0.0255  0.2568
 1635SOL     OW 6661   3.358   3.087   2.646 -0.0031 -0.0787  0.1444
 1635SOL    HW2 6662   3.352   2.997   2.679  0.9059  0.4501  1.8132
 1635SOL    HW3 6663   3.367   3.078   2.551 -1.4452 -1.6920  0.1505
 1635SOL    MW4 6664   3.358   3.074   2.638 -0.0734 -0.2217  0.3655
 1636SOL     OW 6665   3.108   3.195   2.740  0.0048 -0.2667 -0.4643
 1636SOL    HW2 6666   3.184   3.157   2.696 -1.2400 -1.2462 -1.8203
 1636SOL    HW3 6667   3.036   3.135   2.720 -1.4413  1.3955 -0.3971
 1636SOL    MW4 6668   3.108   3.182   2.731 -0.3500 -0.1769 -0.6344
 1637SOL     OW 6669   3.133   3.457   2.635  0.0134  0.0051  0.5617
 1637SOL    HW2 6670   3.124   3.365   2.658 -0.7383  0.0343  0.4163
 1637SOL    HW3 6671   3.044   3.492   2.643 -0.1564  0.1457 -1.8189
 1637SOL    MW4 6672   3.120   3.450   2.639 -0.1082  0.0274  0.2286
 1638SOL     OW 6673   3.361   3.647   2.687 -0.3260 -0.1160  0.1395
 1638SOL    HW2 6674   3.347   3.656   2.782  0.6463 -0.0493  0.2814
 1638SOL    HW3 6675   3.285   3.599   2.656 -1.5581  1.4428  0.6745
 1638SOL    MW4 6676   3.349   3.642   2.696 -0.3603  0.0985  0.2286
 1639SOL     OW 6677   3.359   3.918   2.614 -0.0309  0.5267 -0.2453
 1639SOL    HW2 6678   3.357   3.825   2.639  1.9793  0.4896 -0.1411
 1639SOL    HW3 6679   3.361   3.917   2.518  0.0908  0.4675 -0.2419
 1639SOL    MW4 6680   3.359   3.905   2.605  0.2503  0.5138 -0.2313
 1640SOL     OW 6681   3.114   3.979   2.725  0.2852 -0.2503 -0.7520
 1640SOL    HW2 6682   3.107   4.070   2.696  0.1134 -0.5366 -1.6217
 1640SOL    HW3 6683   3.196   3.948   2.686  0.3185 -0.4877 -0.4982
 1640SOL    MW4 6684   3.124   3.987   2.716  0.2670 -0.3195 -0.8333
 1641SOL     OW 6685   3.124   4.255   2.644 -0.5717 -0.0052  0.0765
 1641SOL    HW2 6686   3.054   4.314   2.673  0.0631  0.6552  0.2554
 1641SOL    HW3 6687   3.116   4.253   2.549  0.1576  1.2954 -0.0117
 1641SOL    MW4 6688   3.113   4.262   2.635 -0.3920  0.2537  0.0882
 1642SOL     OW 6689   3.368   4.401   2.712 -0.2591  0.3294  0.5461
 1642SOL    HW2 6690   3.373   4.377   2.804  1.2933 -1.0588  0.1277
 1642SOL    HW3 6691   3.290   4.355   2.680 -0.2915  0.0960  0.9574
 1642SOL    MW4 6692   3.359   4.392   2.720 -0.0587  0.1154  0.5453
 1643SOL     OW 6693   3.820   4.658   2.642  0.7985  0.2189 -0.3897
 1643SOL    HW2 6694   3.828   4.571   2.681 -1.0017  0.0721 -0.3078
 1643SOL    HW3 6695   3.745   4.697   2.686  1.0812  1.5150 -1.0219
 1643SOL    MW4 6696   3.811   4.652   2.653  0.5982  0.3705 -0.4623
 1644SOL     OW 6697   3.598   0.101   2.784  0.2178  0.2901  0.3647
 1644SOL    HW2 6698   3.521   0.061   2.743  1.0617 -0.6342 -0.3622
 1644SOL    HW3 6699   3.602   0.189   2.746 -1.4254  0.9446  1.6757
 1644SOL    MW4 6700   3.589   0.107   2.773  0.1123  0.2545  0.4416
 1645SOL     OW 6701   3.652   0.320   2.629 -0.4237  0.2744  0.3113
 1645SOL    HW2 6702   3.723   0.384   2.632 -0.9657  0.8875  0.1797
 1645SOL    HW3 6703   3.576   0.368   2.661 -0.5312 -0.7089  1.5677
 1645SOL    MW4 6704   3.651   0.335   2.634 -0.5095  0.2255  0.4597
 1646SOL     OW 6705   3.827   0.508   2.664 -0.6073  0.1467  0.2132
 1646SOL    HW2 6706   3.834   0.500   2.759 -1.7370  0.0596  0.2947
 1646SOL    HW3 6707   3.906   0.465   2.631 -0.5120 -0.3679  1.0867
 1646SOL    MW4 6708   3.838   0.501   2.672 -0.7439  0.0673  0.3390
 1647SOL     OW 6709   3.831   0.781   2.587 -0.3431 -0.8290  0.3327
 1647SOL    HW2 6710   3.758   0.829   2.625 -0.8773 -0.3886 -1.2308
 1647SOL    HW3 6711   3.817   0.690   2.614 -2.5977 -1.1066 -1.6113
 1647SOL    MW4 6712   3.819   0.775   2.596 -0.7110 -0.8075 -0.1297
 1648SOL     OW 6713   3.639   0.909   2.748 -0.0893  0.5719 -0.9471
 1648SOL    HW2 6714   3.651   0.922   2.842 -0.9555 -0.2135 -0.7220
 1648SOL    HW3 6715   3.622   0.997   2.714  1.9183  1.1116 -0.6418
 1648SOL    MW4 6716   3.638   0.922   2.756  0.0610  0.5396 -0.8774
 1649SOL     OW 6717   3.595   1.151   2.626  0.0547  0.4992  0.6057
 1649SOL    HW2 6718   3.676   1.196   2.651  0.2733 -0.7980  2.3381
 1649SOL    HW3 6719   3.525   1.203   2.664  0.0987  1.2266 -0.2868
 1649SOL    MW4 6720   3.597   1.164   2.634  0.0894  0.4240  0.7167
 1650SOL     OW 6721   3.829   1.274   2.695  0.1723 -0.0400 -0.3745
 1650SOL    HW2 6722   3.905   1.236   2.651  0.1240  1.6854 -2.0072
 1650SOL    HW3 6723   3.814   1.357   2.649 -1.1955  0.7886  1.5372
 1650SOL    MW4 6724   3.837   1.280   2.683 -0.0145  0.2968 -0.3378
 1651SOL     OW 6725   3.811   1.565   2.583 -0.3491 -0.5037 -0.0691
 1651SOL    HW2 6726   3.887   1.582   2.638 -1.0488 -0.9858  1.0659
 1651SOL    HW3 6727   3.736   1.589   2.638 -0.9703  1.9515 -1.8797
 1651SOL    MW4 6728   3.811   1.571   2.598 -0.5233 -0.2434 -0.1581
 1652SOL     OW 6729   3.590   1.668   2.743 -0.4228  0.6649  0.2948
 1652SOL    HW2 6730   3.594   1.755   2.705  1.2550 -0.2841 -1.8483
 1652SOL    HW3 6731   3.506   1.633   2.714 -0.2001  0.8377 -0.5886
 1652SOL    MW4 6732   3.579   1.675   2.734 -0.1719  0.5624 -0.1047
 1653SOL     OW 6733   3.583   1.926   2.634  0.2654  0.2924 -0.3314
 1653SOL    HW2 6734   3.496   1.964   2.646  0.6193  1.1308 -0.4226
 1653SOL    HW3 6735   3.594   1.921   2.539  0.7517  1.1920 -0.3282
 1653SOL    MW4 6736   3.573   1.930   2.623  0.3762  0.5218 -0.3431
 1654SOL     OW 6737   3.819   2.024   2.768  0.6793  0.2412  0.4672
 1654SOL    HW2 6738   3.892   1.980   2.726  1.2747  1.1233  0.5624
 1654SOL    HW3 6739   3.741   1.978   2.737  1.1946  0.1085 -0.6237
 1654SOL    MW4 6740   3.818   2.013   2.758  0.8259  0.3400  0.3359
 1655SOL     OW 6741   3.779   2.305   2.679 -0.7393 -0.2157  0.1052
 1655SOL    HW2 6742   3.790   2.214   2.707 -0.5709 -0.1538  0.2452
 1655SOL    HW3 6743   3.765   2.300   2.584 -1.6505 -0.4519  0.2463
 1655SOL    MW4 6744   3.779   2.292   2.670 -0.8368 -0.2387  0.1423
 1656SOL     OW 6745   3.582   2.470   2.742  0.2173 -0.1920  0.2746
 1656SOL    HW2 6746   3.567   2.460   2.836 -0.1745 -0.4526  0.1852
 1656SOL    HW3 6747   3.660   2.416   2.724  0.3549 -0.0584  0.4665
 1656SOL    MW4 6748   3.591   2.461   2.752  0.1838 -0.2089  0.2885
 1657SOL     OW 6749   3.618   2.754   2.671 -0.2213 -0.2253 -0.0091
 1657SOL    HW2 6750   3.593   2.673   2.716 -1.0277  0.1297  0.1968
 1657SOL    HW3 6751   3.606   2.734   2.578  1.3451 -0.9245 -0.0870
 1657SOL    MW4 6752   3.613   2.741   2.665 -0.1211 -0.2708  0.0076
 1658SOL     OW 6753   3.857   2.844   2.763 -0.3064 -0.2483  0.2170
 1658SOL    HW2 6754   3.918   2.799   2.704 -0.5814  0.3359 -0.5207
 1658SOL    HW3 6755   3.770   2.826   2.726 -0.5105 -0.3122  0.7345
 1658SOL    MW4 6756   3.854   2.836   2.750 -0.3695 -0.1800  0.1881
 1659SOL     OW 6757   3.813   3.113   2.664  0.2394  0.6893  0.0641
 1659SOL    HW2 6758   3.737   3.160   2.699  0.4133  2.0935 -1.3638
 1659SOL    HW3 6759   3.821   3.036   2.720 -1.3955  1.2290  1.1012
 1659SOL    MW4 6760   3.804   3.109   2.676  0.0465  0.9458  0.0124
 1660SOL     OW 6761   3.576   3.230   2.758 -0.6803 -0.0585  0.1505
 1660SOL    HW2 6762   3.568   3.305   2.698 -0.0290  0.1300  0.2885
 1660SOL    HW3 6763   3.509   3.169   2.729 -0.2210 -0.0694 -0.9308
 1660SOL    MW4 6764   3.566   3.232   2.746 -0.5338 -0.0350  0.0265
 1661SOL     OW 6765   3.591   3.461   2.622 -0.2923  0.3673 -0.1498
 1661SOL    HW2 6766   3.665   3.505   2.664 -0.2350 -0.1484  0.2943
 1661SOL    HW3 6767   3.517   3.522   2.632 -0.1893  0.4029  0.3733
 1661SOL    MW4 6768   3.591   3.475   2.629 -0.2713  0.3040 -0.0224
 1662SOL     OW 6769   3.796   3.605   2.743 -0.0896  0.0632 -0.0551
 1662SOL    HW2 6770   3.879   3.561   2.723  0.2384  0.8511 -0.4103
 1662SOL    HW3 6771   3.797   3.685   2.691 -1.1841 -0.0352 -0.2500
 1662SOL    MW4 6772   3.807   3.609   2.734 -0.1910  0.1543 -0.1276
 1663SOL     OW 6773   3.801   3.860   2.597 -0.1309  0.9584 -0.0676
 1663SOL    HW2 6774   3.865   3.913   2.645 -0.4557  1.4646 -0.1840
 1663SOL    HW3 6775   3.716   3.892   2.627 -0.3339  0.9313 -0.5951
 1663SOL    MW4 6776   3.798   3.871   2.607 -0.2007  1.0216 -0.1526
 1664SOL     OW 6777   3.587   4.024   2.712  0.3747  0.2276 -0.4375
 1664SOL    HW2 6778   3.604   4.113   2.680 -0.8818  0.1068 -1.4710
 1664SOL    HW3 6779   3.502   4.001   2.674  0.4524 -1.2175  0.2562
 1664SOL    MW4 6780   3.578   4.033   2.702  0.2191  0.0215 -0.4821
 1665SOL     OW 6781   3.638   4.310   2.638  0.2518 -0.0528  0.5553
 1665SOL    HW2 6782   3.558   4.333   2.684  0.9827 -0.7235  2.2074
 1665SOL    HW3 6783   3.611   4.296   2.547 -1.3542  0.4868  0.9396
 1665SOL    MW4 6784   3.624   4.311   2.632  0.1361 -0.0701  0.8240
 1666SOL     OW 6785   3.858   4.413   2.761  0.0551  0.4866  0.1763
 1666SOL    HW2 6786   3.785   4.361   2.730 -0.1166  0.3734  0.7668
 1666SOL    HW3 6787   3.935   4.359   2.744 -0.0448  0.3871  0.0372
 1666SOL    MW4 6788   3.859   4.399   2.755  0.0193  0.4587  0.2358
 1667SOL     OW 6789   4.289   4.610   2.671 -0.1417  0.0931  0.0050
 1667SOL    HW2 6790   4.223   4.660   2.718 -1.2957  0.0946 -1.5684
 1667SOL    HW3 6791   4.369   4.661   2.680 -0.4890  0.3997  1.4106
 1667SOL    MW4 6792   4.291   4.623   2.678 -0.3400  0.1340 -0.0172
 1668SOL     OW 6793   4.059   0.104   2.718  0.2725  0.3121  0.6177
 1668SOL    HW2 6794   3.974   0.060   2.715 -0.6292  1.9801  0.6318
 1668SOL    HW3 6795   4.069   0.131   2.809  0.1920  1.2688  0.3526
 1668SOL    MW4 6796   4.049   0.102   2.729  0.1426  0.6584  0.5846
 1669SOL     OW 6797   4.065   0.340   2.570  0.1640  0.3621 -0.4014
 1669SOL    HW2 6798   4.140   0.379   2.614  0.0683  0.7876 -0.6143
 1669SOL    HW3 6799   4.062   0.250   2.602  0.1891  0.6231  0.3458
 1669SOL    MW4 6800   4.074   0.333   2.580  0.1550  0.4526 -0.3309
 1670SOL     OW 6801   4.263   0.492   2.725  0.1950  0.6087  0.0205
 1670SOL    HW2 6802   4.270   0.582   2.691 -0.4641  0.5867 -0.1714
 1670SOL    HW3 6803   4.343   0.449   2.694  0.0779  0.8719 -0.6598
 1670SOL    MW4 6804   4.275   0.498   2.716  0.0925  0.6405 -0.0944
 1671SOL     OW 6805   4.256   0.737   2.585 -0.3206  0.2096  0.2429
 1671SOL    HW2 6806   4.331   0.785   2.620  0.4560 -0.1964 -0.8434
 1671SOL    HW3 6807   4.270   0.735   2.491 -0.8847 -1.2458  0.1780
 1671SOL    MW4 6808   4.267   0.743   2.578 -0.2928 -0.0360  0.0911
 1672SOL     OW 6809   4.059   0.883   2.695 -0.3551  0.1722 -0.8184
 1672SOL    HW2 6810   4.121   0.821   2.656  0.5498  0.8077 -0.3919
 1672SOL    HW3 6811   3.973   0.845   2.676  0.1801 -1.1680 -0.6630
 1672SOL    MW4 6812   4.056   0.870   2.688 -0.1655  0.0792 -0.7417
 1673SOL     OW 6813   4.041   1.132   2.581  0.2497  0.4225 -0.1429
 1673SOL    HW2 6814   4.109   1.187   2.620  0.1579  0.3800  0.0778
 1673SOL    HW3 6815   4.056   1.045   2.619  0.5774  0.2231 -0.7085
 1673SOL    MW4 6816   4.052   1.128   2.591  0.2813  0.3905 -0.1884
 1674SOL     OW 6817   4.273   1.233   2.711 -0.2922  0.3788  0.2424
 1674SOL    HW2 6818   4.283   1.328   2.701  0.2823  0.1247 -1.6591
 1674SOL    HW3 6819   4.344   1.196   2.660  0.3932 -1.0751  2.1981
 1674SOL    MW4 6820   4.283   1.241   2.703 -0.1259  0.1534  0.2496
 1675SOL     OW 6821   4.276   1.511   2.666 -0.7179  0.1171 -0.2728
 1675SOL    HW2 6822   4.340   1.570   2.706 -1.4253  1.1281 -0.5889
 1675SOL    HW3 6823   4.294   1.516   2.572 -0.6979 -0.2686 -0.2878
 1675SOL    MW4 6824   4.286   1.520   2.659 -0.8082  0.1997 -0.3164
 1676SOL     OW 6825   4.028   1.644   2.741  0.4260 -0.4912 -0.0528
 1676SOL    HW2 6826   4.025   1.663   2.834 -0.3041 -1.0307  0.0397
 1676SOL    HW3 6827   4.111   1.598   2.728  0.5276 -0.4144  0.3254
 1676SOL    MW4 6828   4.039   1.641   2.751  0.3438 -0.5523  0.0093
 1677SOL     OW 6829   4.032   1.895   2.643 -0.4544 -0.2895 -0.1349
 1677SOL    HW2 6830   4.111   1.938   2.676 -0.0241 -0.1278 -1.3612
 1677SOL    HW3 6831   4.037   1.806   2.679  0.1309 -0.1907  0.0325
 1677SOL    MW4 6832   4.043   1.889   2.652 -0.3200 -0.2551 -0.2744
 1678SOL     OW 6833   4.247   2.079   2.734  0.0321  0.4666 -0.3404
 1678SOL    HW2 6834   4.245   2.164   2.690  2.2644  1.1524  0.7719
 1678SOL    HW3 6835   4.333   2.043   2.712  0.7488  0.3316  2.4684
 1678SOL    MW4 6836   4.258   2.085   2.725  0.4210  0.5391  0.1769
 1679SOL     OW 6837   4.255   2.327   2.617 -0.0835 -0.1726 -0.0865
 1679SOL    HW2 6838   4.186   2.387   2.645 -0.8413 -1.4226  0.7620
 1679SOL    HW3 6839   4.253   2.332   2.522 -2.0437 -0.9685 -0.1107
 1679SOL    MW4 6840   4.245   2.336   2.608 -0.4425 -0.4423  0.0224
 1680SOL     OW 6841   4.027   2.464   2.695 -0.1798 -0.2736  0.0450
 1680SOL    HW2 6842   4.013   2.478   2.789 -0.7595  0.4466 -0.1430
 1680SOL    HW3 6843   3.954   2.407   2.669  1.4096 -2.5934  0.5338
 1680SOL    MW4 6844   4.015   2.458   2.704 -0.0463 -0.4849  0.0846
 1681SOL     OW 6845   4.045   2.712   2.599  0.2674 -0.4562 -0.0125
 1681SOL    HW2 6846   4.117   2.748   2.650  0.6899 -1.3957  0.0567
 1681SOL    HW3 6847   4.040   2.620   2.625 -2.4674  0.1281  1.7182
 1681SOL    MW4 6848   4.054   2.705   2.609 -0.0372 -0.5033  0.2248
 1682SOL     OW 6849   4.261   2.814   2.753 -0.1167 -0.2504  0.1586
 1682SOL    HW2 6850   4.240   2.825   2.846 -1.0537  0.0682 -0.0903
 1682SOL    HW3 6851   4.272   2.903   2.721 -2.0871 -0.2621 -0.5662
 1682SOL    MW4 6852   4.260   2.827   2.761 -0.4997 -0.2103  0.0300
 1683SOL     OW 6853   4.263   3.095   2.675 -0.0358 -0.1062 -0.2374
 1683SOL    HW2 6854   4.197   3.148   2.720 -0.3452 -1.3527  0.7854
 1683SOL    HW3 6855   4.245   3.110   2.582 -2.1334 -0.8466  0.0060
 1683SOL    MW4 6856   4.252   3.104   2.669 -0.3533 -0.3684 -0.0703
 1684SOL     OW 6857   4.049   3.241   2.760 -0.2562 -0.1282 -0.3339
 1684SOL    HW2 6858   4.051   3.333   2.733  0.2902 -0.1127 -0.2439
 1684SOL    HW3 6859   3.965   3.208   2.728 -0.4907  0.4273 -0.2869
 1684SOL    MW4 6860   4.038   3.249   2.752 -0.2151 -0.0529 -0.3157
 1685SOL     OW 6861   4.051   3.499   2.657  0.3076  0.0457  0.0130
 1685SOL    HW2 6862   4.137   3.539   2.665  1.4588 -2.2205 -0.3773
 1685SOL    HW3 6863   4.044   3.475   2.564 -1.2446  1.2596 -0.2074
 1685SOL    MW4 6864   4.061   3.501   2.646  0.2542 -0.0932 -0.0675
 1686SOL     OW 6865   4.296   3.610   2.722 -0.0282 -0.4387  0.4718
 1686SOL    HW2 6866   4.307   3.614   2.818  0.2321  0.2744  0.4147
 1686SOL    HW3 6867   4.373   3.562   2.692  2.3349  3.2532  0.2171
 1686SOL    MW4 6868   4.308   3.604   2.731  0.3181  0.1423  0.4306
 1687SOL     OW 6869   4.265   3.868   2.585  0.1961 -0.0460  0.1356
 1687SOL    HW2 6870   4.300   3.782   2.609  0.7926  0.3382  0.6287
 1687SOL    HW3 6871   4.307   3.929   2.644  2.0285  0.9869 -2.1474
 1687SOL    MW4 6872   4.275   3.865   2.596  0.5164  0.1409 -0.1004
 1688SOL     OW 6873   4.032   3.963   2.722 -0.4629 -0.1721  0.3927
 1688SOL    HW2 6874   4.034   3.978   2.817  0.5056 -1.4962  0.6046
 1688SOL    HW3 6875   4.108   3.907   2.706  1.3876  2.8127 -1.6833
 1688SOL    MW4 6876   4.042   3.958   2.733 -0.0911  0.0472  0.1471
 1689SOL     OW 6877   4.076   4.228   2.643  0.2188 -0.3436 -0.0407
 1689SOL    HW2 6878   4.140   4.261   2.706 -0.7533 -0.3585  0.9762
 1689SOL    HW3 6879   4.072   4.134   2.660 -0.7117 -0.2144  0.5261
 1689SOL    MW4 6880   4.084   4.220   2.654 -0.0324 -0.3285  0.1681
 1690SOL     OW 6881   4.271   4.365   2.788  0.1513 -0.3911  0.3594
 1690SOL    HW2 6882   4.272   4.454   2.752  1.4293 -0.2728  0.6849
 1690SOL    HW3 6883   4.267   4.377   2.883  1.7291 -0.6678  0.4683
 1690SOL    MW4 6884   4.270   4.378   2.796  0.5279 -0.4115  0.4168
 1691SOL     OW 6885   0.212   4.642   3.118 -0.1548 -0.0583 -0.0017
 1691SOL    HW2 6886   0.207   4.644   3.214 -0.5534 -1.1835  0.0021
 1691SOL    HW3 6887   0.136   4.693   3.089 -0.2467 -0.0370  0.2707
 1691SOL    MW4 6888   0.201   4.649   3.127 -0.2195 -0.2039  0.0348
 1692SOL     OW 6889   4.482   0.096   3.015 -0.0281  0.3715 -0.0079
 1692SOL    HW2 6890   4.419   0.039   3.058 -0.4225  0.9216  0.1558
 1692SOL    HW3 6891   4.466   0.182   3.053  1.1795  0.4168  0.4071
 1692SOL    MW4 6892   4.471   0.100   3.026  0.0796  0.4501  0.0684
 1693SOL     OW 6893   4.464   0.358   3.105  0.0985  0.1606  0.4663
 1693SOL    HW2 6894   4.451   0.382   3.197 -1.6190 -1.2302  0.6026
 1693SOL    HW3 6895   4.382   0.383   3.062  0.7705  0.5040 -0.6326
 1693SOL    MW4 6896   4.451   0.365   3.111 -0.0396  0.0224  0.3390
 1694SOL     OW 6897   0.199   0.504   2.998  0.0081 -0.0570  0.3760
 1694SOL    HW2 6898   0.271   0.468   3.050  1.0946  2.3693  0.6507
 1694SOL    HW3 6899   0.121   0.458   3.028  0.9463 -0.2652  2.5994
 1694SOL    MW4 6900   0.198   0.493   3.009  0.2752  0.2356  0.7055
 1695SOL     OW 6901   0.264   0.768   3.086 -0.1617  0.2206  0.3049
 1695SOL    HW2 6902   0.272   0.763   3.181  0.0481  0.3124  0.2935
 1695SOL    HW3 6903   0.229   0.683   3.060  0.3029 -0.0089  0.4124
 1695SOL    MW4 6904   0.261   0.756   3.095 -0.0727  0.2025  0.3173
 1696SOL     OW 6905   0.024   0.879   3.018  0.0559  0.1840  0.1811
 1696SOL    HW2 6906   0.112   0.845   3.031  0.7936  0.8788 -2.5438
 1696SOL    HW3 6907  -0.033   0.805   3.037  1.1409  0.0533  3.0883
 1696SOL    MW4 6908   0.028   0.864   3.022  0.2964  0.2584  0.2050
 1697SOL     OW 6909   0.012   1.139   3.121 -0.2015  0.8403  0.0553
 1697SOL    HW2 6910  -0.065   1.184   3.087 -0.4784  0.4468  0.1551
 1697SOL    HW3 6911   0.005   1.050   3.085  0.3297  0.8729 -0.1285
 1697SOL    MW4 6912   0.001   1.133   3.112 -0.1679  0.7925  0.0443
 1698SOL     OW 6913   0.217   1.256   2.968  0.0387  0.2730 -0.0179
 1698SOL    HW2 6914   0.143   1.213   3.011  0.7688 -1.6660 -0.6394
 1698SOL    HW3 6915   0.192   1.261   2.876  0.0975  0.9124 -0.0028
 1698SOL    MW4 6916   0.204   1.251   2.962  0.1428  0.1016 -0.0980
 1699SOL     OW 6917   0.195   1.534   3.073 -0.2495 -0.1893  0.3937
 1699SOL    HW2 6918   0.113   1.572   3.043  0.7266  0.3352 -1.7306
 1699SOL    HW3 6919   0.201   1.450   3.028  1.8230  1.1494 -2.0037
 1699SOL    MW4 6920   0.185   1.528   3.063  0.1527  0.0567 -0.2031
 1700SOL     OW 6921   4.450   1.648   3.003  0.0239  0.1054  0.4852
 1700SOL    HW2 6922   4.382   1.601   3.051 -0.1397  0.0511  0.2045
 1700SOL    HW3 6923   4.456   1.733   3.045 -0.2873  0.1461  0.4488
 1700SOL    MW4 6924   4.442   1.653   3.015 -0.0386  0.1036  0.4437
 1701SOL     OW 6925   0.011   1.936   3.070 -0.1848 -0.3210 -0.5965
 1701SOL    HW2 6926  -0.054   1.989   3.024  0.4405  0.6723 -0.3582
 1701SOL    HW3 6927   0.095   1.976   3.047  0.2410 -0.7966  0.1259
 1701SOL    MW4 6928   0.013   1.949   3.061 -0.0458 -0.2525 -0.4699
 1702SOL     OW 6929   0.234   2.084   2.978 -0.1578 -0.0398 -0.3191
 1702SOL    HW2 6930   0.227   2.178   2.995 -0.1092  0.2764 -1.9660
 1702SOL    HW3 6931   0.236   2.077   2.883 -0.3980 -1.7339 -0.2149
 1702SOL    MW4 6932   0.233   2.095   2.968 -0.1831 -0.2215 -0.5226
 1703SOL     OW 6933   0.215   2.348   3.057  0.2743  0.1424 -0.5566
 1703SOL    HW2 6934   0.239   2.334   3.148  0.4847 -0.1660 -0.6618
 1703SOL    HW3 6935   0.276   2.416   3.027 -1.6352  2.3625  0.3506
 1703SOL    MW4 6936   0.226   2.355   3.065  0.0501  0.3946 -0.4506
 1704SOL     OW 6937   4.476   2.484   2.969  0.7427  0.0655 -0.2242
 1704SOL    HW2 6938   4.497   2.563   3.019  1.8590  0.2617 -0.9891
 1704SOL    HW3 6939   4.549   2.425   2.988 -0.3547 -0.9852  0.7702
 1704SOL    MW4 6940   4.489   2.487   2.978  0.7453 -0.0472 -0.1938
 1705SOL     OW 6941   0.045   2.713   3.113 -0.2110 -0.0680  0.0083
 1705SOL    HW2 6942   0.056   2.694   3.206 -0.3322 -1.2858 -0.2196
 1705SOL    HW3 6943   0.123   2.763   3.090 -0.2417  0.3496  0.7962
 1705SOL    MW4 6944   0.057   2.717   3.122 -0.2310 -0.1738  0.0820
 1706SOL     OW 6945   0.242   2.884   3.030  0.2606 -0.0850  0.1677
 1706SOL    HW2 6946   0.313   2.834   3.071 -0.3715 -1.4612 -0.4028
 1706SOL    HW3 6947   0.262   2.882   2.937  1.0039  1.9770  0.2408
 1706SOL    MW4 6948   0.254   2.877   3.023  0.2753  0.0055  0.1023
 1707SOL     OW 6949   0.248   3.132   3.132 -0.0809 -0.5358  0.3161
 1707SOL    HW2 6950   0.168   3.176   3.103 -0.2225 -0.8027  0.2956
 1707SOL    HW3 6951   0.238   3.042   3.101  0.5708 -0.3850 -0.3301
 1707SOL    MW4 6952   0.236   3.126   3.124 -0.0136 -0.5512  0.2282
 1708SOL     OW 6953   0.031   3.259   3.063  0.0284  0.5904  0.9084
 1708SOL    HW2 6954  -0.045   3.217   3.102  1.4726 -1.0253  2.0379
 1708SOL    HW3 6955   0.020   3.247   2.969 -0.5162 -0.6771  1.1337
 1708SOL    MW4 6956   0.020   3.252   3.055  0.1469  0.2100  1.0870
 1709SOL     OW 6957   0.037   3.531   3.180 -0.2050 -0.2030  0.2730
 1709SOL    HW2 6958   0.012   3.524   3.272  0.3942  0.0015  0.4596
 1709SOL    HW3 6959   0.053   3.441   3.152 -1.8578 -0.3938 -0.0600
 1709SOL    MW4 6960   0.036   3.518   3.189 -0.3440 -0.2012  0.2534
 1710SOL     OW 6961   0.247   3.645   3.044 -0.6211 -0.3425 -0.0637
 1710SOL    HW2 6962   0.246   3.739   3.061  0.6724 -0.6201  1.6312
 1710SOL    HW3 6963   0.173   3.610   3.094 -1.4009 -0.1894 -1.0801
 1710SOL    MW4 6964   0.237   3.653   3.053 -0.5534 -0.3588  0.0260
 1711SOL     OW 6965   0.263   3.916   3.100 -0.0183 -0.2308  0.6450
 1711SOL    HW2 6966   0.271   3.893   3.193  1.3846  0.0571  0.5987
 1711SOL    HW3 6967   0.341   3.967   3.081 -0.5082  0.0747 -0.6016
 1711SOL    MW4 6968   0.274   3.920   3.110  0.1022 -0.1526  0.4745
 1712SOL     OW 6969   0.017   3.994   3.015 -0.5910 -0.3080 -0.2354
 1712SOL    HW2 6970   0.104   3.970   3.049 -0.2438  1.1158 -0.0785
 1712SOL    HW3 6971  -0.044   3.957   3.078 -0.0290 -0.0395  0.4801
 1712SOL    MW4 6972   0.021   3.986   3.028 -0.4711 -0.0849 -0.1202
 1713SOL     OW 6973   0.033   4.269   3.129 -1.0377  0.7409 -0.4222
 1713SOL    HW2 6974   0.037   4.240   3.220 -0.4953  2.3221  0.0632
 1713SOL    HW3 6975   0.027   4.187   3.079 -1.1146 -0.1521  1.0084
 1713SOL    MW4 6976   0.033   4.254   3.134 -0.9763  0.8311 -0.1695
 1714SOL     OW 6977   0.213   4.407   2.989  0.0280 -0.6447  0.1469
 1714SOL    HW2 6978   0.144   4.360   3.037 -0.5390 -0.3184 -0.3300
 1714SOL    HW3 6979   0.213   4.495   3.027 -2.2363  0.4309 -2.1617
 1714SOL    MW4 6980   0.204   4.412   3.000 -0.3456 -0.4597 -0.2208
 1715SOL     OW 6981   0.660   4.665   3.122  0.1312 -0.1716 -0.4466
 1715SOL    HW2 6982   0.648   4.578   3.082  1.4209 -0.2974 -0.5586
 1715SOL    HW3 6983   0.579   4.712   3.101 -0.0402 -0.9172 -1.4826
 1715SOL    MW4 6984   0.647   4.659   3.114  0.2787 -0.2866 -0.5982
 1716SOL     OW 6985   0.420   0.140   3.034  0.2492  0.0308  0.4209
 1716SOL    HW2 6986   0.411   0.228   3.071  0.2415  0.8407 -1.4751
 1716SOL    HW3 6987   0.342   0.094   3.064 -0.6869  1.2360 -0.0956
 1716SOL    MW4 6988   0.408   0.146   3.043  0.1247  0.2967  0.1025
 1717SOL     OW 6989   0.412   0.405   3.125 -0.3111 -0.1416  0.3167
 1717SOL    HW2 6990   0.424   0.405   3.220 -0.1522 -3.1002  0.3321
 1717SOL    HW3 6991   0.493   0.442   3.091  0.9951 -2.0771  1.2316
 1717SOL    MW4 6992   0.424   0.410   3.133 -0.1178 -0.7873  0.4392
 1718SOL     OW 6993   0.643   0.482   2.979  0.1848  0.5743  0.4537
 1718SOL    HW2 6994   0.719   0.450   3.027  0.2493 -0.2124 -0.1513
 1718SOL    HW3 6995   0.646   0.577   2.990  1.4427  0.5846  0.1875
 1718SOL    MW4 6996   0.654   0.490   2.987  0.3592  0.4718  0.3388
 1719SOL     OW 6997   0.644   0.748   3.075  0.0757 -0.2673  0.0282
 1719SOL    HW2 6998   0.639   0.760   3.170  0.5590  0.8758 -0.0810
 1719SOL    HW3 6999   0.578   0.808   3.040  1.4944  1.0565 -0.4571
 1719SOL    MW4 7000   0.635   0.758   3.083  0.3266  0.0582 -0.0503
 1720SOL     OW 7001   0.463   0.913   2.958  0.2257 -0.4533 -0.2405
 1720SOL    HW2 7002   0.385   0.884   3.005  0.3424  0.1744  0.3489
 1720SOL    HW3 7003   0.454   0.875   2.871  0.2086 -1.9614  0.4068
 1720SOL    MW4 7004   0.452   0.904   2.953  0.2388 -0.5695 -0.0775
 1721SOL     OW 7005   0.453   1.162   3.049 -0.0713 -0.2784 -0.0149
 1721SOL    HW2 7006   0.465   1.075   3.011 -0.1900 -0.4238  0.2805
 1721SOL    HW3 7007   0.366   1.189   3.018  0.2894  0.0661 -0.7535
 1721SOL    MW4 7008   0.443   1.154   3.040 -0.0394 -0.2521 -0.0737
 1722SOL     OW 7009   0.686   1.311   2.977  0.2865 -0.5035 -0.4708
 1722SOL    HW2 7010   0.752   1.254   3.018 -0.4326 -2.0541 -1.4260
 1722SOL    HW3 7011   0.602   1.275   3.005 -0.1834 -0.0056 -1.2301
 1722SOL    MW4 7012   0.684   1.299   2.986  0.1296 -0.6424 -0.6971
 1723SOL     OW 7013   0.670   1.579   3.038  0.0708 -0.1971  0.5230
 1723SOL    HW2 7014   0.710   1.585   3.124  1.3944  0.8198 -0.1385
 1723SOL    HW3 7015   0.664   1.485   3.021  1.7039 -0.3807  0.8739
 1723SOL    MW4 7016   0.675   1.567   3.047  0.4609 -0.0871  0.4821
 1724SOL     OW 7017   0.414   1.678   2.988  0.1142  0.2114  0.4970
 1724SOL    HW2 7018   0.487   1.617   3.000 -0.0587 -0.5611 -2.0893
 1724SOL    HW3 7019   0.337   1.629   3.016  0.3434  0.3401  1.3665
 1724SOL    MW4 7020   0.414   1.663   2.993  0.1216  0.1265  0.2706
 1725SOL     OW 7021   0.427   1.952   3.125 -0.3733  0.1719  0.0401
 1725SOL    HW2 7022   0.427   1.866   3.084 -0.3135  0.3273 -0.2892
 1725SOL    HW3 7023   0.361   2.002   3.076  0.2616  0.6005 -0.3848
 1725SOL    MW4 7024   0.418   1.947   3.113 -0.2816  0.2489 -0.0594
 1726SOL     OW 7025   0.663   2.048   2.974  0.0082  0.5936  0.0518
 1726SOL    HW2 7026   0.746   2.007   2.998 -1.3039 -1.3761  1.3657
 1726SOL    HW3 7027   0.601   2.017   3.040 -1.9643  1.3316 -1.4124
 1726SOL    MW4 7028   0.666   2.038   2.986 -0.4252  0.4313  0.0319
 1727SOL     OW 7029   0.623   2.317   3.030 -0.0310  0.7088 -0.1420
 1727SOL    HW2 7030   0.633   2.300   3.124 -0.3131  1.2395 -0.0164
 1727SOL    HW3 7031   0.631   2.230   2.990 -3.0933 -0.0112  0.6507
 1727SOL    MW4 7032   0.625   2.303   3.037 -0.4722  0.6840 -0.0210
 1728SOL     OW 7033   0.429   2.500   3.003  0.0714 -0.0813  0.1847
 1728SOL    HW2 7034   0.504   2.445   3.027  0.7472  1.4017  1.5841
 1728SOL    HW3 7035   0.432   2.504   2.908  0.5558 -1.7244  0.1199
 1728SOL    MW4 7036   0.440   2.494   2.994  0.2245 -0.1025  0.3607
 1729SOL     OW 7037   0.419   2.727   3.158 -0.2342  0.0123 -0.5477
 1729SOL    HW2 7038   0.492   2.777   3.122  0.6558 -0.9047 -0.0486
 1729SOL    HW3 7039   0.416   2.647   3.106 -0.8052 -0.0056 -0.4888
 1729SOL    MW4 7040   0.429   2.723   3.147 -0.1921 -0.1111 -0.4740
 1730SOL     OW 7041   0.615   2.854   2.991  0.2257 -0.3416 -0.0466
 1730SOL    HW2 7042   0.695   2.809   3.018 -0.0390 -0.2223  0.9580
 1730SOL    HW3 7043   0.631   2.946   3.013  0.1843 -0.1651 -0.7334
 1730SOL    MW4 7044   0.628   2.860   2.998  0.1853 -0.3026 -0.0048
 1731SOL     OW 7045   0.689   3.108   3.083  0.0635  0.7058  0.4020
 1731SOL    HW2 7046   0.668   3.100   3.176  0.1633 -1.1951  0.2794
 1731SOL    HW3 7047   0.626   3.173   3.050 -3.2243 -2.1289  0.8186
 1731SOL    MW4 7048   0.678   3.116   3.091 -0.3572  0.0808  0.4408
 1732SOL     OW 7049   0.463   3.258   2.982 -0.4582  0.4120 -0.1100
 1732SOL    HW2 7050   0.464   3.345   3.022 -0.3628  0.6080 -0.5445
 1732SOL    HW3 7051   0.389   3.213   3.024 -0.4623  0.6751  0.1666
 1732SOL    MW4 7052   0.453   3.263   2.993 -0.4462  0.4725 -0.1309
 1733SOL     OW 7053   0.479   3.501   3.125 -0.2555  0.3759  0.3729
 1733SOL    HW2 7054   0.476   3.498   3.220 -0.2772 -0.1729  0.3566
 1733SOL    HW3 7055   0.403   3.553   3.100  0.0562  0.9765  0.6789
 1733SOL    MW4 7056   0.469   3.507   3.134 -0.2172  0.3827  0.4110
 1734SOL     OW 7057   0.700   3.649   3.008  0.0266 -0.0393 -0.0897
 1734SOL    HW2 7058   0.777   3.597   3.029 -0.2854  0.2497  1.8444
 1734SOL    HW3 7059   0.627   3.603   3.051 -0.8350 -0.1194 -1.5958
 1734SOL    MW4 7060   0.700   3.636   3.016 -0.1281 -0.0117 -0.0331
 1735SOL     OW 7061   0.706   3.908   3.112 -0.1624 -0.5478  0.0360
 1735SOL    HW2 7062   0.696   3.901   3.207 -0.0672  0.4025  0.1290
 1735SOL    HW3 7063   0.713   3.818   3.081 -2.2334 -0.9760  0.7032
 1735SOL    MW4 7064   0.705   3.895   3.121 -0.4231 -0.4787  0.1361
 1736SOL     OW 7065   0.493   4.054   3.002  0.0810  0.1818 -0.3512
 1736SOL    HW2 7066   0.550   3.985   3.036 -0.9768 -0.7748 -0.4765
 1736SOL    HW3 7067   0.488   4.036   2.908 -1.6894 -0.7238 -0.1111
 1736SOL    MW4 7068   0.500   4.042   2.994 -0.2922 -0.0644 -0.3364
 1737SOL     OW 7069   0.451   4.316   3.099 -0.2351  0.1377  0.0415
 1737SOL    HW2 7070   0.464   4.225   3.074  0.6872  0.4019 -0.4226
 1737SOL    HW3 7071   0.369   4.341   3.055  0.4949  0.0994 -1.3687
 1737SOL    MW4 7072   0.442   4.308   3.090 -0.0171  0.1674 -0.2060
 1738SOL     OW 7073   0.670   4.424   2.985 -0.2757 -0.0323 -0.2265
 1738SOL    HW2 7074   0.597   4.385   3.033 -0.1633  0.9079  0.7262
 1738SOL    HW3 7075   0.745   4.371   3.008 -0.5024 -0.5129 -0.5764
 1738SOL    MW4 7076   0.670   4.412   2.994 -0.2908  0.0281 -0.1471
 1739SOL     OW 7077   1.142   4.642   3.088  0.2148  0.3927  0.6244
 1739SOL    HW2 7078   1.208   4.708   3.067  0.7138 -0.9234 -2.2070
 1739SOL    HW3 7079   1.060   4.681   3.060  0.2466  0.6340  0.8666
 1739SOL    MW4 7080   1.140   4.656   3.081  0.2850  0.2508  0.2825
 1740SOL     OW 7081   0.900   0.076   2.994 -0.1517 -0.4763  0.4252
 1740SOL    HW2 7082   0.904   0.170   3.012 -0.3488  0.0310 -1.9950
 1740SOL    HW3 7083   0.819   0.048   3.034  0.2436  0.2396  1.7681
 1740SOL    MW4 7084   0.890   0.085   3.001 -0.1255 -0.3149  0.2830
 1741SOL     OW 7085   0.882   0.346   3.084 -0.1224 -0.1026 -0.1104
 1741SOL    HW2 7086   0.859   0.368   3.174 -0.9827 -1.0727 -0.0899
 1741SOL    HW3 7087   0.950   0.410   3.061 -1.1056  1.2388  0.6384
 1741SOL    MW4 7088   0.888   0.358   3.093 -0.3656 -0.0536 -0.0091
 1742SOL     OW 7089   1.092   0.537   3.011  0.1924  0.3222 -0.3036
 1742SOL    HW2 7090   1.170   0.492   3.042 -0.1772 -0.1632 -0.0760
 1742SOL    HW3 7091   1.090   0.520   2.917 -0.4252 -0.8869 -0.0843
 1742SOL    MW4 7092   1.102   0.529   3.003  0.0622  0.0986 -0.2446
 1743SOL     OW 7093   1.110   0.811   3.088  0.0394  0.1623 -0.3431
 1743SOL    HW2 7094   1.086   0.802   3.181 -0.9002  0.7772 -0.5167
 1743SOL    HW3 7095   1.109   0.721   3.055 -0.2668  0.0014  0.0864
 1743SOL    MW4 7096   1.106   0.798   3.096 -0.1251  0.2222 -0.3095
 1744SOL     OW 7097   0.864   0.871   2.966  0.1653 -0.0288 -0.2119
 1744SOL    HW2 7098   0.946   0.835   2.998 -0.3250 -1.0778 -0.1148
 1744SOL    HW3 7099   0.798   0.840   3.029 -0.3142  0.7599 -0.3155
 1744SOL    MW4 7100   0.866   0.862   2.979  0.0373 -0.0631 -0.2129
 1745SOL     OW 7101   0.892   1.144   3.076 -0.6892  0.5713 -0.1011
 1745SOL    HW2 7102   0.972   1.184   3.045 -0.7588  0.8021  0.0127
 1745SOL    HW3 7103   0.886   1.061   3.029  0.1475  0.0708  0.6441
 1745SOL    MW4 7104   0.901   1.138   3.066 -0.5880  0.5357  0.0122
 1746SOL     OW 7105   1.113   1.262   2.989  0.5416  0.6483 -0.1461
 1746SOL    HW2 7106   1.202   1.248   3.020  0.5735  1.3606  0.0999
 1746SOL    HW3 7107   1.122   1.273   2.895  0.5170 -0.9251 -0.3335
 1746SOL    MW4 7108   1.126   1.262   2.981  0.5426  0.5347 -0.1383
 1747SOL     OW 7109   1.077   1.517   3.078  0.0209  0.0695  0.3092
 1747SOL    HW2 7110   1.082   1.424   3.053  0.2585 -0.0232  0.6981
 1747SOL    HW3 7111   1.160   1.554   3.051 -0.4648  0.3993 -0.7550
 1747SOL    MW4 7112   1.088   1.509   3.071 -0.0119  0.1010  0.2201
 1748SOL     OW 7113   0.900   1.685   2.938  0.8169  0.1737 -0.2533
 1748SOL    HW2 7114   0.971   1.642   2.986  1.2012  1.6189  0.5241
 1748SOL    HW3 7115   0.821   1.660   2.986  0.8563 -1.0323 -0.8189
 1748SOL    MW4 7116   0.899   1.676   2.951  0.8729  0.2054 -0.2255
 1749SOL     OW 7117   0.897   1.930   3.048 -0.5691  0.1798  0.1226
 1749SOL    HW2 7118   0.877   1.917   3.141 -0.7509 -0.2201  0.0295
 1749SOL    HW3 7119   0.887   1.843   3.009 -0.6948  0.3855 -0.3110
 1749SOL    MW4 7120   0.893   1.917   3.055 -0.6098  0.1540  0.0534
 1750SOL     OW 7121   1.132   2.085   2.936  0.0504 -0.1075 -0.5137
 1750SOL    HW2 7122   1.056   2.034   2.965 -1.5034  1.7337 -1.2936
 1750SOL    HW3 7123   1.130   2.078   2.841  0.8555 -0.0350 -0.5361
 1750SOL    MW4 7124   1.121   2.077   2.928 -0.0483  0.1447 -0.6196
 1751SOL     OW 7125   1.096   2.323   3.070  0.0454  0.1024  0.2274
 1751SOL    HW2 7126   1.015   2.362   3.038 -0.2096 -0.2318  0.4636
 1751SOL    HW3 7127   1.108   2.245   3.016  0.4019  0.3396 -0.0473
 1751SOL    MW4 7128   1.087   2.318   3.059  0.0589  0.0894  0.2222
 1752SOL     OW 7129   0.863   2.461   2.967 -0.0060  0.1338  0.2272
 1752SOL    HW2 7130   0.779   2.418   2.985  0.7498 -0.7891  1.7279
 1752SOL    HW3 7131   0.880   2.444   2.875 -0.6366 -1.2078  0.3499
 1752SOL    MW4 7132   0.854   2.453   2.958  0.0104 -0.1650  0.4416
 1753SOL     OW 7133   0.848   2.720   3.064 -0.0757 -0.0887 -0.1890
 1753SOL    HW2 7134   0.867   2.721   3.158 -0.5716  0.4231 -0.0914
 1753SOL    HW3 7135   0.848   2.627   3.040  2.1883 -0.1273 -0.1230
 1753SOL    MW4 7136   0.850   2.708   3.073  0.1575 -0.0265 -0.1674
 1754SOL     OW 7137   1.120   2.833   3.001 -0.4881 -0.1781  0.0746
 1754SOL    HW2 7138   1.106   2.918   3.042 -1.0459  0.6201 -1.7491
 1754SOL    HW3 7139   1.039   2.786   3.016 -1.0791  0.4879 -0.9933
 1754SOL    MW4 7140   1.108   2.838   3.009 -0.6397  0.0148 -0.3066
 1755SOL     OW 7141   1.151   3.102   3.124  0.1350  0.1365 -0.2754
 1755SOL    HW2 7142   1.095   3.177   3.105  0.3388  0.4646  0.3905
 1755SOL    HW3 7143   1.155   3.099   3.220  0.7769 -0.2388 -0.3122
 1755SOL    MW4 7144   1.144   3.111   3.134  0.2466  0.1299 -0.1924
 1756SOL     OW 7145   0.914   3.241   3.020  0.0505 -0.4603 -0.0751
 1756SOL    HW2 7146   0.840   3.185   3.042 -0.4545  0.0296 -0.5132
 1756SOL    HW3 7147   0.916   3.243   2.924 -0.5316  1.0331 -0.0726
 1756SOL    MW4 7148   0.905   3.234   3.010 -0.0929 -0.1991 -0.1326
 1757SOL     OW 7149   0.898   3.503   3.133  0.6987 -0.3249  0.4343
 1757SOL    HW2 7150   0.972   3.545   3.091  1.4806 -0.4553  1.6672
 1757SOL    HW3 7151   0.894   3.415   3.094 -0.7684  0.7406 -1.9340
 1757SOL    MW4 7152   0.907   3.497   3.122  0.6083 -0.2015  0.2847
 1758SOL     OW 7153   1.123   3.629   3.026 -0.1966 -0.5910  0.2294
 1758SOL    HW2 7154   1.207   3.597   3.057  0.2108 -0.5429 -0.8048
 1758SOL    HW3 7155   1.116   3.718   3.062 -0.5902 -1.2249  1.7403
 1758SOL    MW4 7156   1.133   3.637   3.034 -0.1948 -0.6685  0.2921
 1759SOL     OW 7157   1.135   3.884   3.111  0.3706  0.1687  0.1186
 1759SOL    HW2 7158   1.138   3.888   3.207 -1.6192 -1.7069  0.3040
 1759SOL    HW3 7159   1.053   3.927   3.088  0.9216  0.7471 -0.7650
 1759SOL    MW4 7160   1.125   3.890   3.121  0.1807 -0.0026  0.0265
 1760SOL     OW 7161   0.921   4.042   3.022 -0.1713  0.6558 -0.0385
 1760SOL    HW2 7162   0.840   4.001   3.053  1.2214 -1.5718  0.7324
 1760SOL    HW3 7163   0.925   4.020   2.929 -0.7236  1.2362 -0.2013
 1760SOL    MW4 7164   0.911   4.034   3.014 -0.0604  0.4387  0.0415
 1761SOL     OW 7165   0.898   4.302   3.087 -0.2000 -0.3034  0.3095
 1761SOL    HW2 7166   0.906   4.209   3.067  0.8286 -0.5017  1.5166
 1761SOL    HW3 7167   0.896   4.305   3.183 -0.0593  0.9325  0.2782
 1761SOL    MW4 7168   0.899   4.290   3.097 -0.0458 -0.1664  0.4647
 1762SOL     OW 7169   1.123   4.404   2.961 -0.0780  0.2333  0.0048
 1762SOL    HW2 7170   1.043   4.373   3.004 -0.6488  0.1679 -1.0888
 1762SOL    HW3 7171   1.144   4.486   3.004  0.2965 -0.6540  1.5491
 1762SOL    MW4 7172   1.115   4.411   2.972 -0.1038  0.1078  0.0644
 1763SOL     OW 7173   1.580   4.663   3.135 -0.5753 -0.0148  0.1294
 1763SOL    HW2 7174   1.570   4.649   3.229  0.5153 -0.3211  0.2093
 1763SOL    HW3 7175   1.512   4.727   3.113 -0.2310  0.7731  1.2955
 1763SOL    MW4 7176   1.570   4.670   3.144 -0.3859  0.0487  0.2937
 1764SOL     OW 7177   1.342   0.150   3.031  0.0315 -0.1512  0.1433
 1764SOL    HW2 7178   1.356   0.241   3.058  0.5422 -0.5480  1.2484
 1764SOL    HW3 7179   1.345   0.153   2.935  0.7298  0.9002  0.1853
 1764SOL    MW4 7180   1.344   0.162   3.022  0.1910 -0.0648  0.2947
 1765SOL     OW 7181   1.346   0.426   3.070 -0.3974  0.2127 -0.4868
 1765SOL    HW2 7182   1.335   0.416   3.165  0.3928 -2.5919 -0.6477
 1765SOL    HW3 7183   1.422   0.483   3.060 -0.2100  0.1634  0.5854
 1765SOL    MW4 7184   1.354   0.432   3.081 -0.2683 -0.1638 -0.3664
 1766SOL     OW 7185   1.592   0.538   3.001  0.4758 -0.3436  0.0069
 1766SOL    HW2 7186   1.667   0.488   3.032 -0.5602 -1.3109  1.0285
 1766SOL    HW3 7187   1.581   0.511   2.910  2.0319  0.6358 -0.4746
 1766SOL    MW4 7188   1.600   0.528   2.993  0.5443 -0.3421  0.0784
 1767SOL     OW 7189   1.553   0.809   3.062 -0.4932 -0.3378  0.4221
 1767SOL    HW2 7190   1.557   0.721   3.026  0.7783 -0.1637  0.0813
 1767SOL    HW3 7191   1.474   0.848   3.025  0.4527 -0.3788 -1.7014
 1767SOL    MW4 7192   1.543   0.803   3.052 -0.2006 -0.3203  0.0968
 1768SOL     OW 7193   1.335   0.939   2.953 -0.1738  0.2861 -0.2547
 1768SOL    HW2 7194   1.347   1.027   2.988 -0.7490 -0.0204  0.7052
 1768SOL    HW3 7195   1.262   0.903   3.002 -1.5231  0.1413 -2.3297
 1768SOL    MW4 7196   1.327   0.946   2.964 -0.4278  0.2266 -0.4015
 1769SOL     OW 7197   1.359   1.179   3.076 -0.0172  0.0233  0.2623
 1769SOL    HW2 7198   1.368   1.169   3.171 -0.0250  0.3386  0.2971
 1769SOL    HW3 7199   1.421   1.248   3.053  0.1441 -0.2086  0.0054
 1769SOL    MW4 7200   1.368   1.187   3.086  0.0031  0.0343  0.2332
 1770SOL     OW 7201   1.583   1.261   2.933 -0.1276  0.2135 -0.5644
 1770SOL    HW2 7202   1.662   1.222   2.969 -2.1774 -0.1799  3.8771
 1770SOL    HW3 7203   1.587   1.353   2.961 -1.6248 -0.0379  0.5828
 1770SOL    MW4 7204   1.594   1.268   2.942 -0.5957  0.1284  0.1729
 1771SOL     OW 7205   1.529   2.064   2.918 -0.1934  0.7227  0.4365
 1771SOL    HW2 7206   1.457   2.015   2.959 -0.7980  1.1490 -0.1013
 1771SOL    HW3 7207   1.542   2.140   2.976 -1.2518  1.4857 -0.3053
 1771SOL    MW4 7208   1.521   2.068   2.931 -0.4128  0.8795  0.2675
 1772SOL     OW 7209   1.314   1.614   2.991 -0.0245 -0.0610  0.0170
 1772SOL    HW2 7210   1.322   1.708   3.010 -0.7125  0.0173 -0.0947
 1772SOL    HW3 7211   1.393   1.576   3.030  0.6717  0.6707 -0.6518
 1772SOL    MW4 7212   1.326   1.622   2.999 -0.0235  0.0459 -0.0861
 1773SOL     OW 7213   1.329   1.894   3.015  0.1871  0.4282  0.1386
 1773SOL    HW2 7214   1.336   1.912   3.108 -1.3354  0.1985  0.3088
 1773SOL    HW3 7215   1.257   1.949   2.984  0.6317  0.4580 -0.8929
 1773SOL    MW4 7216   1.320   1.904   3.023  0.0448  0.4017  0.0248
 1774SOL     OW 7217   1.535   2.307   3.050  0.1179 -0.2568 -0.0961
 1774SOL    HW2 7218   1.466   2.372   3.038  2.8581  2.4377 -2.1188
 1774SOL    HW3 7219   1.556   2.311   3.143  1.3104  3.0112 -0.4334
 1774SOL    MW4 7220   1.529   2.316   3.060  0.6367  0.5298 -0.4072
 1775SOL     OW 7221   1.570   2.307   3.320  0.4472 -0.0408 -0.0728
 1775SOL    HW2 7222   1.558   2.224   3.365 -1.6623  0.2930  0.0151
 1775SOL    HW3 7223   1.501   2.364   3.354  2.1652  1.9373  0.2715
 1775SOL    MW4 7224   1.559   2.304   3.330  0.3955  0.2642 -0.0157
 1776SOL     OW 7225   1.327   2.484   3.002 -0.2368 -0.2827 -0.5580
 1776SOL    HW2 7226   1.253   2.446   3.049  0.2775 -0.9706 -0.2851
 1776SOL    HW3 7227   1.310   2.465   2.910 -0.3305 -0.5628 -0.4823
 1776SOL    MW4 7228   1.315   2.476   2.996 -0.1814 -0.4106 -0.5119
 1777SOL     OW 7229   1.340   2.736   3.122 -0.1905  0.1419  0.4330
 1777SOL    HW2 7230   1.345   2.645   3.093  0.8712  0.0718  0.8076
 1777SOL    HW3 7231   1.261   2.771   3.081  0.9014 -0.1494 -1.9668
 1777SOL    MW4 7232   1.330   2.729   3.113  0.0937  0.0944  0.1657
 1778SOL     OW 7233   1.575   2.795   2.959  0.1188  0.3852 -0.0359
 1778SOL    HW2 7234   1.655   2.764   3.001 -0.0002 -1.7018 -1.2602
 1778SOL    HW3 7235   1.507   2.735   2.989 -0.2237 -0.2890 -2.0436
 1778SOL    MW4 7236   1.576   2.783   2.968  0.0579  0.0210 -0.4625
 1779SOL     OW 7237   1.603   3.061   3.043 -0.3115  0.5291 -0.3659
 1779SOL    HW2 7238   1.595   3.060   3.138  0.2426  0.1108 -0.3208
 1779SOL    HW3 7239   1.574   2.974   3.016  0.6662  0.2341 -0.4827
 1779SOL    MW4 7240   1.598   3.049   3.052 -0.1094  0.4349 -0.3753
 1780SOL     OW 7241   1.375   3.244   3.012 -0.2251 -0.2542  0.5851
 1780SOL    HW2 7242   1.457   3.207   3.044 -0.7380 -0.6231  1.5301
 1780SOL    HW3 7243   1.307   3.190   3.054 -0.9574  0.7180  0.6699
 1780SOL    MW4 7244   1.377   3.232   3.022 -0.3893 -0.1748  0.7207
 1781SOL     OW 7245   1.361   3.500   3.114 -0.0632  0.4038  0.3226
 1781SOL    HW2 7246   1.381   3.490   3.207  2.1263  1.4547 -0.0117
 1781SOL    HW3 7247   1.366   3.411   3.079 -1.7867 -0.1273  1.3423
 1781SOL    MW4 7248   1.364   3.487   3.122 -0.0018  0.4721  0.4132
 1782SOL     OW 7249   1.587   3.621   3.011 -0.2887  0.3100  0.2131
 1782SOL    HW2 7250   1.501   3.585   3.031 -0.3775  0.4665  0.1124
 1782SOL    HW3 7251   1.649   3.558   3.049 -0.4566  0.6829  1.1286
 1782SOL    MW4 7252   1.584   3.608   3.019 -0.3225  0.3800  0.3204
 1783SOL     OW 7253   1.553   3.871   3.114 -0.3160 -0.1538 -0.2883
 1783SOL    HW2 7254   1.638   3.908   3.094  0.5597 -1.7988  0.3231
 1783SOL    HW3 7255   1.562   3.777   3.096 -1.6637 -0.5229  0.8144
 1783SOL    MW4 7256   1.565   3.863   3.109 -0.3783 -0.4199 -0.0625
 1784SOL     OW 7257   1.348   4.008   2.960 -0.4385 -0.1586  0.2190
 1784SOL    HW2 7258   1.430   3.974   2.995 -0.1054  0.0524 -0.3588
 1784SOL    HW3 7259   1.280   3.956   3.004  0.0551 -1.4573 -0.5212
 1784SOL    MW4 7260   1.350   3.997   2.971 -0.3294 -0.3026  0.0448
 1785SOL     OW 7261   1.343   4.254   3.070  0.2319  0.0578 -0.0807
 1785SOL    HW2 7262   1.324   4.165   3.042 -1.7176  0.1965  0.7467
 1785SOL    HW3 7263   1.270   4.306   3.037  0.1576  0.9436  1.4188
 1785SOL    MW4 7264   1.331   4.249   3.062 -0.0352  0.1931  0.2263
 1786SOL     OW 7265   1.572   4.416   3.038  0.2829 -0.2436 -0.0917
 1786SOL    HW2 7266   1.493   4.365   3.053  0.3541 -0.2480  0.2861
 1786SOL    HW3 7267   1.555   4.500   3.082  0.0139  0.1995 -1.0341
 1786SOL    MW4 7268   1.559   4.421   3.046  0.2568 -0.1855 -0.1664
 1787SOL     OW 7269   2.005   0.008   3.097  0.1971 -0.1121  0.4055
 1787SOL    HW2 7270   2.004   0.009   3.193  0.8498  0.7956  0.4148
 1787SOL    HW3 7271   1.933   0.065   3.072  1.0571  0.9963  0.3852
 1787SOL    MW4 7272   1.996   0.016   3.106  0.3967  0.1539  0.4039
 1788SOL     OW 7273   1.792   0.158   3.021  0.5671 -0.8686 -0.0326
 1788SOL    HW2 7274   1.721   0.101   3.050  0.2126 -0.2344  0.3730
 1788SOL    HW3 7275   1.789   0.154   2.925 -1.0616  0.3928 -0.0583
 1788SOL    MW4 7276   1.782   0.150   3.012  0.3054 -0.6185  0.0174
 1789SOL     OW 7277   1.779   0.402   3.136  0.0963  0.4986 -0.1597
 1789SOL    HW2 7278   1.864   0.443   3.121  0.6521 -0.0575  1.3844
 1789SOL    HW3 7279   1.787   0.316   3.096  0.1745  0.5361 -0.2265
 1789SOL    MW4 7280   1.791   0.396   3.129  0.1800  0.4302  0.0353
 1790SOL     OW 7281   2.022   0.522   3.053  0.0173 -0.4085 -0.0376
 1790SOL    HW2 7282   2.038   0.614   3.076  1.6986 -0.6630 -0.0770
 1790SOL    HW3 7283   1.998   0.524   2.961 -0.3095  0.0287  0.0570
 1790SOL    MW4 7284   2.021   0.534   3.044  0.1962 -0.3845 -0.0303
 1791SOL     OW 7285   2.032   0.798   3.105  0.5348  0.0546  0.1147
 1791SOL    HW2 7286   1.958   0.830   3.054  0.7719 -0.3891 -0.5292
 1791SOL    HW3 7287   2.005   0.807   3.196 -0.2777 -0.0290 -0.1156
 1791SOL    MW4 7288   2.018   0.803   3.110  0.4587 -0.0150 -0.0005
 1792SOL     OW 7289   1.803   0.894   2.961 -0.2244  0.3760  0.5942
 1792SOL    HW2 7290   1.721   0.854   2.990 -0.8933  1.6612  0.5022
 1792SOL    HW3 7291   1.820   0.854   2.876  1.0502 -2.4137  2.0712
 1792SOL    MW4 7292   1.795   0.883   2.954 -0.1445  0.1775  0.7770
 1793SOL     OW 7293   1.822   1.151   3.035 -0.0215  0.2836  0.7087
 1793SOL    HW2 7294   1.818   1.133   3.129 -0.6083  2.0136  1.0296
 1793SOL    HW3 7295   1.810   1.065   2.994  0.2295 -0.4817  2.2073
 1793SOL    MW4 7296   1.820   1.137   3.042 -0.0658  0.4109  0.9487
 1794SOL     OW 7297   2.038   1.306   2.951  0.6323  0.4055  0.4941
 1794SOL    HW2 7298   2.106   1.249   2.986  0.8109  1.0364  1.2061
 1794SOL    HW3 7299   1.956   1.264   2.975  0.7685 -0.4130 -0.4608
 1794SOL    MW4 7300   2.036   1.293   2.959  0.6738  0.3808  0.4621
 1795SOL     OW 7301   2.009   1.554   3.067  0.7813 -0.0615 -0.7056
 1795SOL    HW2 7302   2.028   1.548   3.161 -0.9252 -0.7081 -0.3634
 1795SOL    HW3 7303   2.011   1.463   3.037  1.6754  0.1812 -1.3679
 1795SOL    MW4 7304   2.011   1.541   3.076  0.6742 -0.1147 -0.7479
 1796SOL     OW 7305   1.571   1.512   3.359  0.6159  0.1444 -0.1231
 1796SOL    HW2 7306   1.642   1.565   3.395  0.4675  0.2817 -0.0315
 1796SOL    HW3 7307   1.576   1.429   3.406  0.9944 -0.0090 -0.4275
 1796SOL    MW4 7308   1.581   1.508   3.370  0.6464  0.1422 -0.1512
 1797SOL     OW 7309   1.544   2.045   2.657 -0.2158  0.4104  0.3280
 1797SOL    HW2 7310   1.633   2.012   2.644  0.0935  1.1582  0.4976
 1797SOL    HW3 7311   1.537   2.059   2.752  0.4842  3.0638  0.0358
 1797SOL    MW4 7312   1.555   2.042   2.668 -0.0825  0.8588  0.3119
 1798SOL     OW 7313   1.959   2.004   2.956 -0.1311 -0.3497 -0.4759
 1798SOL    HW2 7314   2.028   1.939   2.969 -0.2868 -0.5245 -0.5124
 1798SOL    HW3 7315   1.996   2.086   2.988  0.2544 -0.3515 -0.9050
 1798SOL    MW4 7316   1.973   2.006   2.962 -0.1009 -0.3729 -0.5372
 1799SOL     OW 7317   2.004   2.258   3.044 -0.9047 -0.2207  0.0074
 1799SOL    HW2 7318   2.003   2.268   3.139 -1.5404  0.5867 -0.0815
 1799SOL    HW3 7319   1.919   2.291   3.015  0.4642  2.4343 -1.1179
 1799SOL    MW4 7320   1.993   2.263   3.052 -0.8081  0.2360 -0.1531
 1800SOL     OW 7321   1.762   2.398   2.945 -0.3818 -0.1856  0.1013
 1800SOL    HW2 7322   1.781   2.484   2.982  0.3769 -0.1818 -0.2955
 1800SOL    HW3 7323   1.677   2.375   2.982 -0.4831  0.6312  0.3909
 1800SOL    MW4 7324   1.753   2.406   2.955 -0.2949 -0.0772  0.0870
 1801SOL     OW 7325   1.801   2.647   3.084  0.9344  0.0842  0.4293
 1801SOL    HW2 7326   1.798   2.654   3.179  0.1750 -0.0420  0.4148
 1801SOL    HW3 7327   1.867   2.711   3.057 -0.2749  1.5519  0.8863
 1801SOL    MW4 7328   1.810   2.656   3.093  0.6745  0.2611  0.4878
 1802SOL     OW 7329   1.986   2.815   2.978 -0.0911  0.0711  0.1445
 1802SOL    HW2 7330   1.980   2.904   3.013 -0.6173 -0.3466  1.1184
 1802SOL    HW3 7331   1.988   2.827   2.883 -0.6974  1.0991  0.2547
 1802SOL    MW4 7332   1.985   2.829   2.970 -0.2407  0.1516  0.2875
 1803SOL     OW 7333   1.995   3.053   3.117 -0.1830  0.1393  0.1409
 1803SOL    HW2 7334   2.008   3.066   3.211  0.3682 -0.6443  0.1795
 1803SOL    HW3 7335   1.931   3.120   3.092 -0.0408  0.6002  0.9958
 1803SOL    MW4 7336   1.988   3.063   3.126 -0.0914  0.0966  0.2589
 1804SOL     OW 7337   1.824   3.228   2.976 -0.2268 -0.2234  0.0656
 1804SOL    HW2 7338   1.749   3.169   2.982 -1.2187  1.0060 -0.0773
 1804SOL    HW3 7339   1.842   3.235   2.882  1.0399 -1.7029  0.1749
 1804SOL    MW4 7340   1.817   3.221   2.964 -0.1906 -0.2565  0.0613
 1805SOL     OW 7341   1.792   3.464   3.104  0.1985  0.4206 -0.4368
 1805SOL    HW2 7342   1.803   3.375   3.071 -0.8382  0.1579 -0.0922
 1805SOL    HW3 7343   1.806   3.456   3.199  1.3183  0.8490 -0.5484
 1805SOL    MW4 7344   1.796   3.451   3.112  0.2097  0.4423 -0.4063
 1806SOL     OW 7345   2.027   3.588   3.022  0.2469 -0.1057  0.1648
 1806SOL    HW2 7346   2.030   3.671   3.072  1.4767 -0.5890  0.9262
 1806SOL    HW3 7347   1.942   3.551   3.043  0.2494  0.3052  0.9368
 1806SOL    MW4 7348   2.016   3.594   3.032  0.4094 -0.1149  0.3672
 1807SOL     OW 7349   2.019   3.908   3.072  0.0208 -0.0874  0.0781
 1807SOL    HW2 7350   2.032   3.904   3.167 -0.3138  0.2630  0.1384
 1807SOL    HW3 7351   1.931   3.943   3.062 -0.0105 -0.2917 -0.3619
 1807SOL    MW4 7352   2.009   3.912   3.084 -0.0274 -0.0684  0.0281
 1808SOL     OW 7353   1.775   4.006   3.014 -0.0304 -0.4107 -0.3933
 1808SOL    HW2 7354   1.779   4.092   3.056  0.0705 -0.4252 -0.3733
 1808SOL    HW3 7355   1.794   4.023   2.922 -1.0490 -0.2720 -0.5790
 1808SOL    MW4 7356   1.778   4.019   3.008 -0.1515 -0.3943 -0.4151
 1809SOL     OW 7357   1.809   4.267   3.100 -0.1018 -0.1943 -0.2706
 1809SOL    HW2 7358   1.887   4.299   3.054 -0.7780  0.8041 -0.7412
 1809SOL    HW3 7359   1.744   4.337   3.089 -1.1591 -1.1394 -0.1197
 1809SOL    MW4 7360   1.811   4.281   3.093 -0.3307 -0.1864 -0.3128
 1810SOL     OW 7361   2.038   4.408   2.998 -0.5008 -0.5616 -0.1341
 1810SOL    HW2 7362   2.008   4.493   3.030 -0.6005 -0.2299 -1.0925
 1810SOL    HW3 7363   2.027   4.413   2.903  0.8369 -1.1046 -0.3345
 1810SOL    MW4 7364   2.033   4.420   2.989 -0.3376 -0.5898 -0.2868
 1811SOL     OW 7365   2.478   0.003   3.096 -0.5623  0.0448 -0.2330
 1811SOL    HW2 7366   2.474  -0.081   3.049 -1.5251  0.8171 -1.5686
 1811SOL    HW3 7367   2.390   0.040   3.086  0.1787  1.7378 -0.6699
 1811SOL    MW4 7368   2.466  -0.003   3.088 -0.5918  0.3700 -0.4671
 1812SOL     OW 7369   2.246   0.126   3.041 -0.1330  0.0774  0.1066
 1812SOL    HW2 7370   2.249   0.218   3.068 -1.2675  0.2632 -0.3734
 1812SOL    HW3 7371   2.158   0.098   3.064 -0.0963 -0.6280 -0.6231
 1812SOL    MW4 7372   2.235   0.135   3.048 -0.2778  0.0089 -0.0529
 1813SOL     OW 7373   2.262   0.411   3.125  0.1004 -0.0222  0.3152
 1813SOL    HW2 7374   2.270   0.407   3.220  0.2428  0.2976  0.3181
 1813SOL    HW3 7375   2.179   0.456   3.109  1.1635  2.0158  0.3014
 1813SOL    MW4 7376   2.252   0.416   3.135  0.2594  0.2889  0.3138
 1814SOL     OW 7377   2.461   0.528   2.970  0.3575  0.0611  0.3152
 1814SOL    HW2 7378   2.476   0.607   3.021 -1.2225  0.3018  0.4297
 1814SOL    HW3 7379   2.397   0.478   3.021  0.8057 -0.9675 -0.0993
 1814SOL    MW4 7380   2.454   0.532   2.983  0.2081 -0.0428  0.2756
 1815SOL     OW 7381   2.467   0.776   3.165  0.3752 -0.4637  0.6916
 1815SOL    HW2 7382   2.543   0.828   3.140  0.0798 -0.1155  0.5273
 1815SOL    HW3 7383   2.468   0.778   3.261 -0.8374  1.5891  0.6857
 1815SOL    MW4 7384   2.477   0.783   3.174  0.1762 -0.1469  0.6692
 1816SOL     OW 7385   2.267   0.858   2.985 -0.4665 -0.0374 -0.0507
 1816SOL    HW2 7386   2.347   0.828   3.029  0.3308  0.4116 -1.1794
 1816SOL    HW3 7387   2.197   0.841   3.049  0.7288  1.1167  1.6348
 1816SOL    MW4 7388   2.269   0.852   3.000 -0.2034  0.1742  0.0229
 1817SOL     OW 7389   2.213   1.122   3.059 -0.5750  0.1060 -0.3192
 1817SOL    HW2 7390   2.204   1.117   3.154 -0.0970  2.0684 -0.1542
 1817SOL    HW3 7391   2.239   1.033   3.033  1.2778  0.0355  1.6076
 1817SOL    MW4 7392   2.216   1.109   3.068 -0.2673  0.3556 -0.0432
 1818SOL     OW 7393   2.474   1.240   3.012 -0.2595  0.2069  0.4735
 1818SOL    HW2 7394   2.390   1.199   3.030  0.4940 -1.3380  0.5238
 1818SOL    HW3 7395   2.475   1.254   2.917 -0.0988 -0.8330  0.3216
 1818SOL    MW4 7396   2.463   1.237   3.002 -0.1388 -0.1341  0.4601
 1819SOL     OW 7397   2.457   1.498   3.130  0.3958 -0.0788 -0.2210
 1819SOL    HW2 7398   2.380   1.534   3.086  1.0308  0.8180 -0.5929
 1819SOL    HW3 7399   2.474   1.416   3.085 -0.9518 -0.7981  0.5220
 1819SOL    MW4 7400   2.449   1.492   3.118  0.3016 -0.0554 -0.1719
 1820SOL     OW 7401   2.264   1.612   2.964 -0.1017  0.0631 -0.0072
 1820SOL    HW2 7402   2.179   1.582   2.996 -0.6023  0.7352 -0.6721
 1820SOL    HW3 7403   2.257   1.606   2.869 -0.0985  1.9128 -0.1488
 1820SOL    MW4 7404   2.252   1.608   2.956 -0.1671  0.3957 -0.1135
 1821SOL     OW 7405   2.211   1.881   3.061  0.4655 -0.1915 -0.3956
 1821SOL    HW2 7406   2.236   1.796   3.023  0.3786 -0.6598  0.5812
 1821SOL    HW3 7407   2.285   1.938   3.040  0.4751 -0.4702 -1.1639
 1821SOL    MW4 7408   2.224   1.877   3.053  0.4554 -0.2902 -0.3679
 1822SOL     OW 7409   2.451   2.027   2.990 -0.0497 -0.0174  0.0975
 1822SOL    HW2 7410   2.442   2.120   3.012 -1.2855  0.0048 -0.4624
 1822SOL    HW3 7411   2.541   2.005   3.014 -0.1539  0.9887  1.4843
 1822SOL    MW4 7412   2.462   2.036   2.996 -0.2267  0.1180  0.2067
 1823SOL     OW 7413   2.441   2.311   3.067  0.4174 -0.1729  0.1471
 1823SOL    HW2 7414   2.445   2.319   3.163  0.5047 -1.1707  0.2288
 1823SOL    HW3 7415   2.355   2.345   3.044  0.0343 -0.7759  0.6775
 1823SOL    MW4 7416   2.430   2.316   3.077  0.3784 -0.3839  0.2277
 1824SOL     OW 7417   2.203   2.435   2.983 -0.0515  0.9592  0.2732
 1824SOL    HW2 7418   2.130   2.380   3.011 -0.1345  0.8151 -0.2212
 1824SOL    HW3 7419   2.184   2.521   3.021 -0.5669  0.9675 -0.0070
 1824SOL    MW4 7420   2.191   2.439   2.992 -0.1304  0.9415  0.1712
 1825SOL     OW 7421   2.206   2.708   3.109  0.3791  0.1510 -0.1262
 1825SOL    HW2 7422   2.281   2.755   3.072  0.2857 -0.5253 -1.2072
 1825SOL    HW3 7423   2.130   2.758   3.080  0.3653  0.3615  0.2658
 1825SOL    MW4 7424   2.206   2.721   3.100  0.3650  0.0894 -0.2170
 1826SOL     OW 7425   2.430   2.824   3.005 -0.2782 -0.4497  0.0025
 1826SOL    HW2 7426   2.437   2.916   3.028 -1.6052 -0.0384 -1.1267
 1826SOL    HW3 7427   2.433   2.823   2.909  0.7870 -1.6873  0.0315
 1826SOL    MW4 7428   2.431   2.836   2.995 -0.3128 -0.5589 -0.1428
 1827SOL     OW 7429   2.457   3.072   3.127  0.0119  0.2928 -0.1896
 1827SOL    HW2 7430   2.535   3.111   3.089  0.0732  0.7586  0.4129
 1827SOL    HW3 7431   2.385   3.107   3.074  0.1282  0.6369 -0.1233
 1827SOL    MW4 7432   2.458   3.082   3.115  0.0353  0.3996 -0.1009
 1828SOL     OW 7433   2.229   3.180   2.997 -0.2086 -0.4809 -0.0691
 1828SOL    HW2 7434   2.253   3.261   3.041 -0.9046  0.4650 -1.3605
 1828SOL    HW3 7435   2.153   3.148   3.045 -0.2380 -0.0937  0.1435
 1828SOL    MW4 7436   2.222   3.187   3.009 -0.3045 -0.3049 -0.2117
 1829SOL     OW 7437   2.240   3.461   3.131  0.2278 -0.1212 -0.5651
 1829SOL    HW2 7438   2.305   3.514   3.083  0.5896  0.5657  0.6697
 1829SOL    HW3 7439   2.156   3.490   3.095  0.2790  2.8234  1.5193
 1829SOL    MW4 7440   2.238   3.472   3.120  0.2820  0.3579 -0.1271
 1830SOL     OW 7441   2.459   3.587   3.013  0.1390  0.0004  0.0648
 1830SOL    HW2 7442   2.547   3.561   3.039 -0.1584  0.3357  1.4901
 1830SOL    HW3 7443   2.456   3.681   3.028  0.6229  0.6022 -3.3297
 1830SOL    MW4 7444   2.470   3.596   3.019  0.1636  0.1242 -0.1950
 1831SOL     OW 7445   2.464   3.837   3.091 -0.3464  0.3286  0.1652
 1831SOL    HW2 7446   2.484   3.833   3.185  0.4278 -0.1252 -0.0185
 1831SOL    HW3 7447   2.535   3.888   3.053  0.2157 -0.8758 -0.4156
 1831SOL    MW4 7448   2.476   3.843   3.099 -0.1700  0.1097  0.0644
 1832SOL     OW 7449   2.259   4.038   2.999 -0.2615  0.1371 -0.0509
 1832SOL    HW2 7450   2.329   3.987   3.041 -0.6211 -0.4558 -0.1684
 1832SOL    HW3 7451   2.178   4.001   3.034 -0.5095  1.3957  0.7413
 1832SOL    MW4 7452   2.258   4.026   3.009 -0.3419  0.2255  0.0381
 1833SOL     OW 7453   2.290   4.292   3.106 -0.0955 -0.2542  0.2760
 1833SOL    HW2 7454   2.289   4.205   3.066 -0.9629 -0.3661  0.5214
 1833SOL    HW3 7455   2.206   4.331   3.082 -0.1959  0.0755  1.1127
 1833SOL    MW4 7456   2.278   4.286   3.098 -0.2232 -0.2251  0.4187
 1834SOL     OW 7457   2.456   4.437   2.946  0.6255 -0.0759  0.2117
 1834SOL    HW2 7458   2.392   4.384   2.994 -0.8024  1.1474 -0.2872
 1834SOL    HW3 7459   2.456   4.400   2.857  0.5027  0.0041  0.1774
 1834SOL    MW4 7460   2.447   4.425   2.940  0.4210  0.0958  0.1414
 1835SOL     OW 7461   2.969   0.030   3.125 -0.1961  0.1508  0.5504
 1835SOL    HW2 7462   3.045   0.076   3.089 -0.3422  1.0437  1.3561
 1835SOL    HW3 7463   2.970  -0.056   3.082  0.8355  0.4286  0.0041
 1835SOL    MW4 7464   2.979   0.025   3.114 -0.0792  0.3053  0.5844
 1836SOL     OW 7465   2.726   0.133   3.013  0.2848 -0.2695  0.5688
 1836SOL    HW2 7466   2.810   0.097   3.040  0.4870 -0.9386 -0.9079
 1836SOL    HW3 7467   2.662   0.069   3.044  0.2275  0.7303  2.5635
 1836SOL    MW4 7468   2.729   0.120   3.021  0.3042 -0.2258  0.6373
 1837SOL     OW 7469   2.706   0.395   3.093 -0.0524  0.4130 -0.6773
 1837SOL    HW2 7470   2.705   0.302   3.068  0.9082  0.4313 -0.7798
 1837SOL    HW3 7471   2.623   0.429   3.059 -0.4276 -0.4095 -0.6143
 1837SOL    MW4 7472   2.695   0.387   3.085  0.0250  0.3069 -0.6826
 1838SOL     OW 7473   2.941   0.504   3.008  0.0856  0.0574 -0.5114
 1838SOL    HW2 7474   2.862   0.450   3.016 -0.7436  1.4721  0.9802
 1838SOL    HW3 7475   2.952   0.515   2.914  0.1620 -2.5385 -0.8610
 1838SOL    MW4 7476   2.932   0.498   2.997 -0.0136 -0.0984 -0.3610
 1839SOL     OW 7477   2.909   0.766   3.132 -0.2078 -0.2406  0.2542
 1839SOL    HW2 7478   2.907   0.761   3.228  0.5355 -0.1130  0.2767
 1839SOL    HW3 7479   2.920   0.675   3.104 -0.5772 -0.2965  0.2797
 1839SOL    MW4 7480   2.910   0.753   3.141 -0.1583 -0.2310  0.2606
 1840SOL     OW 7481   2.700   0.905   3.017 -0.4975 -0.4521  0.5863
 1840SOL    HW2 7482   2.706   0.998   3.036  0.4145 -0.3295 -0.2977
 1840SOL    HW3 7483   2.778   0.867   3.058 -0.7267 -0.7859  0.7155
 1840SOL    MW4 7484   2.711   0.912   3.025 -0.4072 -0.4799  0.4869
 1841SOL     OW 7485   2.709   1.160   3.123  0.9126 -0.1227 -0.5367
 1841SOL    HW2 7486   2.782   1.215   3.096  2.1352 -2.1929 -1.6063
 1841SOL    HW3 7487   2.633   1.199   3.081  1.8466  0.4140 -1.7751
 1841SOL    MW4 7488   2.709   1.172   3.114  1.1971 -0.3250 -0.8414
 1842SOL     OW 7489   2.944   1.289   2.994 -0.0059  0.2526 -0.0175
 1842SOL    HW2 7490   3.026   1.257   3.034 -0.7047  0.8812  1.9798
 1842SOL    HW3 7491   2.930   1.375   3.033  0.0281  1.5472 -2.7610
 1842SOL    MW4 7492   2.953   1.296   3.005 -0.0937  0.5062 -0.1159
 1843SOL     OW 7493   2.893   1.528   3.116 -0.2472 -0.1843  0.2851
 1843SOL    HW2 7494   2.918   1.513   3.207 -0.4369  1.8026  0.6865
 1843SOL    HW3 7495   2.966   1.577   3.079  0.2126 -1.7070 -0.8897
 1843SOL    MW4 7496   2.906   1.532   3.123 -0.2115 -0.1231  0.1831
 1844SOL     OW 7497   2.666   1.659   3.068 -0.1335 -0.0602  0.2141
 1844SOL    HW2 7498   2.745   1.611   3.093  0.0339  0.5113  0.7797
 1844SOL    HW3 7499   2.594   1.608   3.106  0.0675  0.3395  1.1548
 1844SOL    MW4 7500   2.667   1.646   3.076 -0.0846  0.0679  0.4127
 1845SOL     OW 7501   2.694   1.935   3.111  0.0813  0.0007  0.2090
 1845SOL    HW2 7502   2.784   1.959   3.086 -0.4561  0.8453 -0.9583
 1845SOL    HW3 7503   2.683   1.846   3.076 -0.4925  0.9834 -2.1590
 1845SOL    MW4 7504   2.705   1.926   3.103 -0.0656  0.2419 -0.2573
 1846SOL     OW 7505   2.944   2.031   3.011  0.3903 -0.3668 -0.0743
 1846SOL    HW2 7506   2.940   2.126   3.028 -0.8538 -0.5400  0.6876
 1846SOL    HW3 7507   2.919   2.022   2.919 -0.7245 -0.0467  0.1914
 1846SOL    MW4 7508   2.940   2.043   3.001  0.0792 -0.3474  0.0613
 1847SOL     OW 7509   2.907   2.326   3.084  0.1228  0.3658 -0.0769
 1847SOL    HW2 7510   2.889   2.301   3.174 -2.4348 -4.2334 -1.6924
 1847SOL    HW3 7511   2.832   2.379   3.058 -0.2233 -0.1709 -0.1699
 1847SOL    MW4 7512   2.895   2.330   3.092 -0.2601 -0.3119 -0.3026
 1848SOL     OW 7513   2.683   2.464   2.991  0.3383 -0.2875 -0.0182
 1848SOL    HW2 7514   2.671   2.548   3.036 -1.1647  0.1086 -1.1123
 1848SOL    HW3 7515   2.600   2.418   3.005  0.8516 -1.2514 -0.1345
 1848SOL    MW4 7516   2.670   2.469   2.999  0.2079 -0.3626 -0.1781
 1849SOL     OW 7517   2.635   2.694   3.130  0.4707 -0.4178  0.4801
 1849SOL    HW2 7518   2.622   2.700   3.225  0.9346 -1.0100  0.5870
 1849SOL    HW3 7519   2.567   2.750   3.093  0.5197  0.1123  1.1764
 1849SOL    MW4 7520   2.624   2.702   3.138  0.5383 -0.4258  0.5860
 1850SOL     OW 7521   2.865   2.838   3.038  0.0686 -0.5978  0.1991
 1850SOL    HW2 7522   2.937   2.777   3.056 -0.8520 -0.9576  2.8778
 1850SOL    HW3 7523   2.787   2.793   3.070 -0.8392  1.3505  0.8022
 1850SOL    MW4 7524   2.864   2.824   3.045 -0.1726 -0.3884  0.6320
 1851SOL     OW 7525   2.917   3.091   3.116 -0.1489  0.1698  0.0589
 1851SOL    HW2 7526   2.849   3.141   3.072 -1.0290 -0.8724  0.2251
 1851SOL    HW3 7527   2.897   3.000   3.097 -0.0200 -0.2564  1.8465
 1851SOL    MW4 7528   2.905   3.086   3.108 -0.2480 -0.0241  0.3166
 1852SOL     OW 7529   2.695   3.202   3.014  0.1847  0.1253  0.4595
 1852SOL    HW2 7530   2.689   3.297   3.029 -0.5511  0.0390  0.6776
 1852SOL    HW3 7531   2.682   3.193   2.920  0.3595  0.2491  0.4216
 1852SOL    MW4 7532   2.693   3.214   3.004  0.1104  0.1302  0.4830
 1853SOL     OW 7533   2.717   3.465   3.060 -0.0224  0.5439 -0.1752
 1853SOL    HW2 7534   2.717   3.491   3.152  0.0457  1.3546 -0.3972
 1853SOL    HW3 7535   2.803   3.492   3.027  1.4107 -3.0396  0.4131
 1853SOL    MW4 7536   2.728   3.472   3.067  0.1757  0.1783 -0.1271
 1854SOL     OW 7537   2.916   3.600   2.927  0.1145 -0.4766 -0.1964
 1854SOL    HW2 7538   2.994   3.582   2.978  0.7551  0.5616 -0.7985
 1854SOL    HW3 7539   2.880   3.680   2.966 -0.5899 -0.8961  0.0175
 1854SOL    MW4 7540   2.921   3.608   2.939  0.1059 -0.3953 -0.2472
 1855SOL     OW 7541   2.873   3.842   3.060  0.1606  0.1301  0.3576
 1855SOL    HW2 7542   2.884   3.849   3.155  0.9903  0.0222  0.2799
 1855SOL    HW3 7543   2.795   3.893   3.041  0.6934  1.1976  0.9528
 1855SOL    MW4 7544   2.864   3.850   3.070  0.3402  0.2565  0.4258
 1856SOL     OW 7545   2.664   3.996   2.995  0.3502  0.1765 -0.5840
 1856SOL    HW2 7546   2.687   4.088   3.009 -1.9204  0.9104 -1.3608
 1856SOL    HW3 7547   2.654   3.988   2.900  0.6098 -0.8777 -0.5227
 1856SOL    MW4 7548   2.665   4.007   2.985  0.0846  0.1345 -0.6783
 1857SOL     OW 7549   2.688   4.293   3.044  0.1976 -0.2815 -0.1312
 1857SOL    HW2 7550   2.682   4.296   3.139 -0.4534  0.2452 -0.1851
 1857SOL    HW3 7551   2.609   4.338   3.013 -1.3150 -3.3956 -0.9468
 1857SOL    MW4 7552   2.676   4.300   3.052 -0.0880 -0.6227 -0.2458
 1858SOL     OW 7553   2.946   4.435   3.027  0.4861 -0.4507 -0.0506
 1858SOL    HW2 7554   3.009   4.373   3.064  0.4129 -0.2669  0.3881
 1858SOL    HW3 7555   2.861   4.393   3.037  0.5485 -0.7357 -0.7233
 1858SOL    MW4 7556   2.943   4.422   3.033  0.4847 -0.4640 -0.0813
 1859SOL     OW 7557   3.395   4.656   3.107  0.3953  0.3669 -0.3442
 1859SOL    HW2 7558   3.479   4.686   3.072  0.3729  0.6959 -0.1200
 1859SOL    HW3 7559   3.383   4.569   3.070  0.4583  0.6442 -1.0254
 1859SOL    MW4 7560   3.404   4.649   3.097  0.4005  0.4468 -0.4046
 1860SOL     OW 7561   3.178   0.149   3.019  0.9265 -0.1864 -0.0499
 1860SOL    HW2 7562   3.190   0.238   3.052  0.8873 -0.4103  0.5861
 1860SOL    HW3 7563   3.265   0.109   3.026  0.9074 -0.2481 -0.1749
 1860SOL    MW4 7564   3.191   0.155   3.024  0.9186 -0.2241  0.0174
 1861SOL     OW 7565   3.163   0.417   3.119 -0.2393 -0.3029 -0.3849
 1861SOL    HW2 7566   3.230   0.459   3.064  0.1444 -1.1999 -0.6110
 1861SOL    HW3 7567   3.080   0.438   3.076 -0.1793  1.4763  0.3298
 1861SOL    MW4 7568   3.161   0.425   3.106 -0.1810 -0.1865 -0.3204
 1862SOL     OW 7569   3.413   0.500   3.002  0.1953 -0.6944  0.4961
 1862SOL    HW2 7570   3.478   0.459   3.060 -0.1789 -0.9370  0.7532
 1862SOL    HW3 7571   3.447   0.486   2.914  0.3586 -1.0673  0.6143
 1862SOL    MW4 7572   3.426   0.492   2.998  0.1674 -0.7756  0.5457
 1863SOL     OW 7573   3.383   0.772   3.125 -0.6553  0.0943 -0.3589
 1863SOL    HW2 7574   3.369   0.763   3.220  2.8630  0.9370  0.2965
 1863SOL    HW3 7575   3.393   0.682   3.094  1.1000 -0.0470  0.5774
 1863SOL    MW4 7576   3.382   0.759   3.134  0.0403  0.1869 -0.1488
 1864SOL     OW 7577   3.147   0.887   3.055 -0.2285  0.1853  0.5008
 1864SOL    HW2 7578   3.227   0.844   3.085 -0.1517  1.7242  2.5943
 1864SOL    HW3 7579   3.076   0.831   3.086 -0.0583  0.2826  1.0620
 1864SOL    MW4 7580   3.148   0.874   3.063 -0.1957  0.4012  0.8507
 1865SOL     OW 7581   3.169   1.151   3.137  0.0217 -0.6264  0.2490
 1865SOL    HW2 7582   3.253   1.182   3.103  0.3247  0.3360  1.8019
 1865SOL    HW3 7583   3.158   1.064   3.098  1.7126 -0.7433 -0.0105
 1865SOL    MW4 7584   3.179   1.144   3.127  0.2847 -0.5149  0.4199
 1866SOL     OW 7585   3.401   1.289   3.021 -0.0685  0.2579  0.2396
 1866SOL    HW2 7586   3.486   1.264   3.057  0.0762  0.8232  0.2964
 1866SOL    HW3 7587   3.393   1.383   3.041 -1.0608  0.0288  0.9513
 1866SOL    MW4 7588   3.411   1.298   3.029 -0.1802  0.3023  0.3409
 1867SOL     OW 7589   3.355   1.550   3.094 -0.1942 -0.5573  0.2808
 1867SOL    HW2 7590   3.363   1.547   3.190  0.3258 -0.5046  0.2448
 1867SOL    HW3 7591   3.430   1.602   3.066 -0.0886 -0.9594 -0.1844
 1867SOL    MW4 7592   3.366   1.556   3.103 -0.1118 -0.6036  0.2148
 1868SOL     OW 7593   3.109   1.669   3.007  0.4856  0.4512 -0.0256
 1868SOL    HW2 7594   3.194   1.637   3.037 -0.0877 -1.1649 -0.0745
 1868SOL    HW3 7595   3.112   1.658   2.912  0.4122  0.8888 -0.0799
 1868SOL    MW4 7596   3.120   1.663   2.998  0.4003  0.2956 -0.0393
 1869SOL     OW 7597   3.142   1.887   3.157  0.2040  0.3329 -0.2479
 1869SOL    HW2 7598   3.124   1.808   3.106  0.1684 -0.2665  0.6800
 1869SOL    HW3 7599   3.067   1.944   3.139 -0.5085 -0.4348  0.2088
 1869SOL    MW4 7600   3.130   1.884   3.148  0.1054  0.1526 -0.0656
 1870SOL     OW 7601   3.340   2.008   2.993 -0.5691  0.2864 -0.1867
 1870SOL    HW2 7602   3.419   1.985   3.042  0.4809 -0.1567 -2.0447
 1870SOL    HW3 7603   3.270   1.964   3.039  0.3714  0.0337  1.0310
 1870SOL    MW4 7604   3.342   1.999   3.005 -0.3061  0.1948 -0.2713
 1871SOL     OW 7605   3.371   2.264   3.127  0.1803  0.0489  0.1723
 1871SOL    HW2 7606   3.348   2.259   3.220  2.1037 -1.4080  0.6219
 1871SOL    HW3 7607   3.346   2.178   3.092 -0.2647  0.4868 -0.5846
 1871SOL    MW4 7608   3.365   2.252   3.135  0.3755 -0.0856  0.1316
 1872SOL     OW 7609   3.151   2.429   3.009  0.3234 -0.5739 -0.0735
 1872SOL    HW2 7610   3.213   2.377   3.061  0.1983 -1.1323 -0.4827
 1872SOL    HW3 7611   3.065   2.394   3.032  0.2091 -0.2571 -0.0218
 1872SOL    MW4 7612   3.148   2.418   3.019  0.2916 -0.6058 -0.1206
 1873SOL     OW 7613   3.092   2.693   3.107 -0.0362  0.2556  0.2322
 1873SOL    HW2 7614   3.097   2.679   3.202  1.4849  0.7896  0.2541
 1873SOL    HW3 7615   3.126   2.612   3.069 -1.4786 -0.3026  0.1169
 1873SOL    MW4 7616   3.097   2.680   3.114 -0.0255  0.2525  0.2198
 1874SOL     OW 7617   3.335   2.799   3.028 -0.1582 -0.1828 -0.5630
 1874SOL    HW2 7618   3.340   2.893   3.043 -1.5479  0.1874 -2.2798
 1874SOL    HW3 7619   3.253   2.772   3.069 -0.4113 -0.4060 -1.2025
 1874SOL    MW4 7620   3.325   2.808   3.035 -0.3748 -0.1636 -0.8738
 1875SOL     OW 7621   3.345   3.083   3.102 -0.0810  0.0263  0.1102
 1875SOL    HW2 7622   3.361   3.102   3.194  3.1380  2.0978 -0.7789
 1875SOL    HW3 7623   3.268   3.135   3.080 -0.7688 -0.3568  1.5712
 1875SOL    MW4 7624   3.337   3.093   3.111  0.2532  0.2489  0.1857
 1876SOL     OW 7625   3.133   3.258   3.038  0.0426 -0.2187  0.3160
 1876SOL    HW2 7626   3.069   3.208   3.088 -0.4160  0.2561  0.2141
 1876SOL    HW3 7627   3.102   3.253   2.947 -0.1234  0.4079  0.3312
 1876SOL    MW4 7628   3.121   3.251   3.032 -0.0398 -0.0734  0.3047
 1877SOL     OW 7629   3.127   3.516   3.087  0.2798 -0.3639  0.0091
 1877SOL    HW2 7630   3.197   3.563   3.041 -0.5281  0.8205 -0.0244
 1877SOL    HW3 7631   3.133   3.426   3.054  1.5213 -0.1747 -0.3033
 1877SOL    MW4 7632   3.137   3.510   3.077  0.3369 -0.1826 -0.0367
 1878SOL     OW 7633   3.318   3.658   2.984  0.0316 -0.2866 -0.0510
 1878SOL    HW2 7634   3.402   3.614   2.999 -0.1513 -0.0377  1.8235
 1878SOL    HW3 7635   3.324   3.739   3.035 -1.4921 -0.4648  0.4361
 1878SOL    MW4 7636   3.330   3.663   2.993 -0.1936 -0.2775  0.2604
 1879SOL     OW 7637   3.358   3.917   3.073 -0.0103 -0.2801  0.1330
 1879SOL    HW2 7638   3.347   3.891   3.164  0.3112  2.0331  0.8600
 1879SOL    HW3 7639   3.268   3.924   3.039 -0.1344 -0.9704  0.3086
 1879SOL    MW4 7640   3.344   3.914   3.080  0.0157 -0.0660  0.2520
 1880SOL     OW 7641   3.089   4.001   2.986 -0.2241 -0.2151  0.8033
 1880SOL    HW2 7642   3.008   3.957   3.013 -1.0874  0.5740 -0.4982
 1880SOL    HW3 7643   3.095   3.985   2.892 -0.0896  1.7345  0.4733
 1880SOL    MW4 7644   3.079   3.993   2.977 -0.3202  0.1464  0.5879
 1881SOL     OW 7645   3.142   4.252   3.087  0.1969  0.2096 -0.1416
 1881SOL    HW2 7646   3.169   4.243   3.179 -0.4476 -0.4724 -0.0097
 1881SOL    HW3 7647   3.122   4.163   3.060 -0.6661  0.5424 -0.6175
 1881SOL    MW4 7648   3.143   4.239   3.096 -0.0021  0.1636 -0.1869
 1882SOL     OW 7649   3.371   4.391   3.004  0.1172 -0.1077  0.3262
 1882SOL    HW2 7650   3.437   4.358   3.065 -0.2146 -0.2574  0.6071
 1882SOL    HW3 7651   3.292   4.341   3.026 -0.2853  0.6030  0.4901
 1882SOL    MW4 7652   3.369   4.380   3.015  0.0203 -0.0339  0.3850
 1883SOL     OW 7653   3.874   4.661   3.183  0.2038 -0.4242  0.3619
 1883SOL    HW2 7654   3.887   4.575   3.142 -0.2009 -0.6172  0.6503
 1883SOL    HW3 7655   3.793   4.694   3.145 -0.3894 -0.7804  1.3332
 1883SOL    MW4 7656   3.865   4.654   3.172  0.0720 -0.4969  0.5283
 1884SOL     OW 7657   3.666   0.089   3.047 -0.7430 -0.1864  0.0019
 1884SOL    HW2 7658   3.639   0.176   3.077 -1.0527 -0.0167 -0.7671
 1884SOL    HW3 7659   3.644   0.088   2.954  0.7435 -0.5036 -0.3642
 1884SOL    MW4 7660   3.660   0.101   3.039 -0.5877 -0.2059 -0.1481
 1885SOL     OW 7661   3.625   0.355   3.113 -0.0130  0.4985  0.3050
 1885SOL    HW2 7662   3.648   0.348   3.206  1.7205 -3.4000 -0.2979
 1885SOL    HW3 7663   3.706   0.382   3.070 -0.3248  0.5188 -0.2748
 1885SOL    MW4 7664   3.639   0.357   3.120  0.1750 -0.0132  0.1490
 1886SOL     OW 7665   3.818   0.500   2.950  0.4767  0.7507 -0.2076
 1886SOL    HW2 7666   3.891   0.467   3.003  0.1562  0.6909  0.1994
 1886SOL    HW3 7667   3.807   0.591   2.979  0.9662  1.0331 -0.8994
 1886SOL    MW4 7668   3.826   0.507   2.961  0.4990  0.7801 -0.2453
 1887SOL     OW 7669   3.856   0.748   3.056  0.5661  0.5317  0.3552
 1887SOL    HW2 7670   3.864   0.740   3.151  1.4096  0.0988  0.2499
 1887SOL    HW3 7671   3.941   0.783   3.027  0.0715  1.3463 -0.1655
 1887SOL    MW4 7672   3.868   0.752   3.064  0.6120  0.5820  0.2730
 1888SOL     OW 7673   3.633   0.913   3.041  0.8885 -0.3041  0.3270
 1888SOL    HW2 7674   3.702   0.851   3.065  0.4643 -0.4329  1.2284
 1888SOL    HW3 7675   3.552   0.862   3.046  0.5348  0.3197  1.1105
 1888SOL    MW4 7676   3.632   0.898   3.045  0.7861 -0.2388  0.5493
 1889SOL     OW 7677   3.649   1.190   3.127  0.6364 -0.4903  0.3359
 1889SOL    HW2 7678   3.709   1.238   3.070 -0.3021 -0.2527 -0.4716
 1889SOL    HW3 7679   3.660   1.098   3.102  0.6046 -0.4364  0.1198
 1889SOL    MW4 7680   3.658   1.184   3.116  0.5083 -0.4519  0.2010
 1890SOL     OW 7681   3.870   1.319   2.974 -0.5674 -0.3170  0.2816
 1890SOL    HW2 7682   3.881   1.410   3.002 -0.4091 -0.3011  0.1669
 1890SOL    HW3 7683   3.844   1.324   2.882  1.3606 -0.4406 -0.2918
 1890SOL    MW4 7684   3.868   1.331   2.966 -0.2918 -0.3310  0.1910
 1891SOL     OW 7685   3.831   1.564   3.128  0.1436 -0.0664  0.2312
 1891SOL    HW2 7686   3.815   1.566   3.222 -0.9422 -0.8063  0.0665
 1891SOL    HW3 7687   3.751   1.599   3.089  1.5756  2.7718 -0.3294
 1891SOL    MW4 7688   3.818   1.569   3.135  0.1891  0.2104  0.1357
 1892SOL     OW 7689   3.595   1.667   3.008 -0.1016 -0.0540 -0.6865
 1892SOL    HW2 7690   3.590   1.761   3.029  0.6114  0.1273 -1.2964
 1892SOL    HW3 7691   3.600   1.665   2.912  0.4587 -0.6864 -0.6424
 1892SOL    MW4 7692   3.595   1.679   2.998  0.0665 -0.1135 -0.7610
 1893SOL     OW 7693   3.584   1.925   3.089 -0.0029 -0.1501  0.2186
 1893SOL    HW2 7694   3.578   1.926   3.185  0.9694  1.0656  0.2646
 1893SOL    HW3 7695   3.662   1.976   3.069 -0.7546  0.4348 -1.2743
 1893SOL    MW4 7696   3.594   1.932   3.099  0.0262  0.0876  0.0274
 1894SOL     OW 7697   3.820   2.086   3.040 -0.0732  0.1189 -0.5567
 1894SOL    HW2 7698   3.833   2.178   3.061 -0.6690  0.1199 -0.1722
 1894SOL    HW3 7699   3.827   2.082   2.945 -0.0569  0.5621 -0.5759
 1894SOL    MW4 7700   3.822   2.098   3.031 -0.1495  0.1774 -0.5085
 1895SOL     OW 7701   3.821   2.351   3.104 -0.1109  0.1211  0.0373
 1895SOL    HW2 7702   3.799   2.346   3.197 -0.9589 -2.0033 -0.2466
 1895SOL    HW3 7703   3.742   2.388   3.063 -0.6752 -1.2696 -0.1428
 1895SOL    MW4 7704   3.807   2.355   3.111 -0.2975 -0.3426 -0.0241
 1896SOL     OW 7705   3.568   2.431   3.010 -0.2159 -0.3892 -0.4579
 1896SOL    HW2 7706   3.547   2.515   3.049  1.2086 -0.0600 -0.3831
 1896SOL    HW3 7707   3.507   2.369   3.051 -1.3901  0.6254 -0.6554
 1896SOL    MW4 7708   3.557   2.434   3.020 -0.1829 -0.2120 -0.4740
 1897SOL     OW 7709   3.568   2.683   3.129 -0.5845 -0.2425 -0.0312
 1897SOL    HW2 7710   3.638   2.733   3.089 -1.5576  1.7942  0.7266
 1897SOL    HW3 7711   3.487   2.724   3.097 -1.4074 -1.2399  0.7121
 1897SOL    MW4 7712   3.566   2.695   3.120 -0.8216 -0.1054  0.1667
 1898SOL     OW 7713   3.766   2.840   3.011 -0.1233  0.2318  0.2864
 1898SOL    HW2 7714   3.772   2.931   3.041 -0.0604  0.7298 -1.1919
 1898SOL    HW3 7715   3.816   2.839   2.929  0.9265 -1.4290  0.9273
 1898SOL    MW4 7716   3.774   2.852   3.004  0.0234  0.0782  0.1760
 1899SOL     OW 7717   3.802   3.106   3.097  0.9877  0.1631 -0.2115
 1899SOL    HW2 7718   3.883   3.158   3.090  0.9457  0.5211  1.5791
 1899SOL    HW3 7719   3.732   3.170   3.087  0.8989  1.0063  4.4039
 1899SOL    MW4 7720   3.804   3.121   3.095  0.9708  0.3219  0.6337
 1900SOL     OW 7721   3.554   3.247   3.028  0.3799  0.0442  0.2036
 1900SOL    HW2 7722   3.483   3.184   3.040  0.9245 -0.6902 -0.3902
 1900SOL    HW3 7723   3.573   3.244   2.934  1.4653 -0.0630  0.4225
 1900SOL    MW4 7724   3.547   3.239   3.017  0.5949 -0.0670  0.1543
 1901SOL     OW 7725   3.565   3.529   3.070 -0.4876  0.0948  0.0768
 1901SOL    HW2 7726   3.656   3.558   3.060 -0.5803  0.2608 -0.2956
 1901SOL    HW3 7727   3.570   3.433   3.064 -0.2664  0.0717  0.6368
 1901SOL    MW4 7728   3.578   3.520   3.068 -0.4709  0.1137  0.1016
 1902SOL     OW 7729   3.831   3.627   3.029 -0.4188 -0.2434 -0.1214
 1902SOL    HW2 7730   3.828   3.720   3.054  1.7950 -0.3816  0.7467
 1902SOL    HW3 7731   3.812   3.627   2.935 -1.0374  1.0198 -0.0082
 1902SOL    MW4 7732   3.828   3.639   3.020 -0.2086 -0.0949  0.0081
 1903SOL     OW 7733   3.806   3.894   3.077 -0.5147  0.3162 -0.1698
 1903SOL    HW2 7734   3.799   3.900   3.172 -2.8681 -0.2530 -0.2654
 1903SOL    HW3 7735   3.723   3.928   3.044 -0.4373 -1.1042 -1.9395
 1903SOL    MW4 7736   3.794   3.899   3.085 -0.8149  0.0536 -0.4158
 1904SOL     OW 7737   3.564   4.057   2.978  0.3888 -0.4090 -0.5026
 1904SOL    HW2 7738   3.490   4.005   3.009 -0.5961  1.3016  0.1172
 1904SOL    HW3 7739   3.569   4.039   2.884  0.1779 -1.7300 -0.2668
 1904SOL    MW4 7740   3.555   4.048   2.970  0.2310 -0.3581 -0.3896
 1905SOL     OW 7741   3.612   4.318   3.131  0.2423 -0.3640 -0.0304
 1905SOL    HW2 7742   3.702   4.344   3.111  0.0212 -0.1356 -0.7639
 1905SOL    HW3 7743   3.602   4.233   3.090  0.9953 -1.7039  2.4585
 1905SOL    MW4 7744   3.623   4.310   3.123  0.3123 -0.5107  0.2010
 1906SOL     OW 7745   3.868   4.408   3.054  0.0959  0.1089  0.4452
 1906SOL    HW2 7746   3.935   4.340   3.058 -1.5614 -1.6865 -1.0508
 1906SOL    HW3 7747   3.864   4.431   2.961 -1.0032  0.5321  0.5934
 1906SOL    MW4 7748   3.876   4.402   3.042 -0.2677 -0.0715  0.2673
 1907SOL     OW 7749   4.244   4.644   3.123  0.1074 -0.0786 -0.3781
 1907SOL    HW2 7750   4.240   4.666   3.216 -1.2391  2.6461 -1.0124
 1907SOL    HW3 7751   4.187   4.709   3.081 -0.5646 -2.2501 -2.9379
 1907SOL    MW4 7752   4.236   4.656   3.130 -0.1593 -0.0057 -0.7994
 1908SOL     OW 7753   4.060   0.141   3.000  0.1488 -0.0295  0.2023
 1908SOL    HW2 7754   3.999   0.085   3.049 -0.7396  0.5091 -0.2740
 1908SOL    HW3 7755   4.048   0.228   3.038  0.4204  0.1340 -0.0861
 1908SOL    MW4 7756   4.050   0.145   3.012  0.0677  0.0631  0.1013
 1909SOL     OW 7757   3.999   0.379   3.123  0.3975 -0.0097 -0.5372
 1909SOL    HW2 7758   4.083   0.419   3.100  0.4357 -0.4642 -1.2247
 1909SOL    HW3 7759   3.998   0.378   3.218  1.7399 -1.1459 -0.5101
 1909SOL    MW4 7760   4.010   0.384   3.132  0.5794 -0.2196 -0.6244
 1910SOL     OW 7761   4.227   0.470   2.996  0.1121  0.1622  0.1692
 1910SOL    HW2 7762   4.241   0.558   3.031 -0.3502  0.8627 -1.3476
 1910SOL    HW3 7763   4.257   0.475   2.905 -2.3387 -0.5208 -0.7242
 1910SOL    MW4 7764   4.233   0.482   2.989 -0.2723  0.1645 -0.1490
 1911SOL     OW 7765   4.290   0.717   3.129 -0.4405  0.1407 -0.3444
 1911SOL    HW2 7766   4.231   0.785   3.098 -2.7114 -1.6484 -0.1240
 1911SOL    HW3 7767   4.280   0.718   3.225 -0.8483 -0.8019 -0.3728
 1911SOL    MW4 7768   4.281   0.726   3.138 -0.7939 -0.2197 -0.3190
 1912SOL     OW 7769   4.107   0.846   2.972  0.3790 -0.2002 -0.0173
 1912SOL    HW2 7770   4.085   0.932   3.007 -1.3240 -0.3563 -0.6565
 1912SOL    HW3 7771   4.099   0.855   2.877  0.3244 -1.0070 -0.0974
 1912SOL    MW4 7772   4.103   0.859   2.964  0.1473 -0.3273 -0.1121
 1913SOL     OW 7773   4.047   1.109   3.091 -0.3326 -0.3417  0.3899
 1913SOL    HW2 7774   4.045   1.122   3.185 -0.2898 -0.4266  0.4026
 1913SOL    HW3 7775   3.976   1.164   3.057 -0.3144 -0.2718  0.4658
 1913SOL    MW4 7776   4.038   1.118   3.099 -0.3247 -0.3436  0.4015
 1914SOL     OW 7777   4.284   1.240   2.993 -0.1570  0.2089  0.2003
 1914SOL    HW2 7778   4.208   1.190   3.023 -0.5254  0.2822 -0.6105
 1914SOL    HW3 7779   4.280   1.235   2.898 -0.4709  2.1978  0.0922
 1914SOL    MW4 7780   4.273   1.233   2.985 -0.2470  0.4810  0.0789
 1915SOL     OW 7781   4.238   1.508   3.132  0.4831 -0.1549  0.0678
 1915SOL    HW2 7782   4.171   1.565   3.095 -0.1956 -1.3104 -0.5412
 1915SOL    HW3 7783   4.234   1.429   3.077  1.4362 -0.7483  0.8461
 1915SOL    MW4 7784   4.228   1.505   3.120  0.5193 -0.3856  0.0899
 1916SOL     OW 7785   4.044   1.682   3.006  0.8555 -0.3185  0.2308
 1916SOL    HW2 7786   4.053   1.770   3.042 -0.5247  0.1102 -0.4496
 1916SOL    HW3 7787   3.967   1.646   3.050 -0.3822 -0.0819 -1.6778
 1916SOL    MW4 7788   4.035   1.689   3.017  0.5097 -0.2308 -0.1106
 1917SOL     OW 7789   4.055   1.931   3.109 -0.1108  0.0146 -0.0864
 1917SOL    HW2 7790   4.128   1.983   3.077  1.5294 -1.8345  0.5497
 1917SOL    HW3 7791   3.978   1.984   3.091  1.2078  1.1973 -2.5128
 1917SOL    MW4 7792   4.054   1.945   3.102  0.2794 -0.0733 -0.3226
 1918SOL     OW 7793   4.263   2.097   3.014  0.0861  0.3262  0.3325
 1918SOL    HW2 7794   4.266   2.188   3.044  0.5768  0.5347 -0.3415
 1918SOL    HW3 7795   4.262   2.103   2.919 -1.7335 -0.3372  0.2987
 1918SOL    MW4 7796   4.264   2.110   3.005 -0.0892  0.2663  0.2394
 1919SOL     OW 7797   4.247   2.391   3.103 -0.0561 -0.5176  0.1589
 1919SOL    HW2 7798   4.171   2.433   3.064 -0.2993 -0.7226  0.4081
 1919SOL    HW3 7799   4.320   2.418   3.048 -0.4008 -0.8400 -0.4661
 1919SOL    MW4 7800   4.247   2.400   3.090 -0.1335 -0.5870  0.1094
 1920SOL     OW 7801   4.018   2.502   2.976  0.1478 -0.7376  0.1207
 1920SOL    HW2 7802   4.016   2.590   3.014  0.1537 -0.0434 -1.4511
 1920SOL    HW3 7803   3.945   2.456   3.018 -0.7024  0.4369 -0.0513
 1920SOL    MW4 7804   4.008   2.507   2.987  0.0367 -0.4911 -0.1094
 1921SOL     OW 7805   4.044   2.762   3.122 -0.4900  0.2945  0.2329
 1921SOL    HW2 7806   4.045   2.736   3.214 -3.0489 -1.0674 -0.0981
 1921SOL    HW3 7807   3.959   2.805   3.110 -1.2148 -1.6394 -2.0307
 1921SOL    MW4 7808   4.033   2.765   3.133 -0.9232 -0.1407 -0.1092
 1922SOL     OW 7809   4.292   2.867   3.056 -0.4938  0.4448  0.1068
 1922SOL    HW2 7810   4.221   2.822   3.101 -0.5765 -0.2015 -0.6518
 1922SOL    HW3 7811   4.372   2.830   3.094 -0.5640  0.3099  0.1237
 1922SOL    MW4 7812   4.293   2.856   3.067 -0.5145  0.3419  0.0088
 1923SOL     OW 7813   4.286   3.125   3.145  0.3431 -0.2969 -0.0943
 1923SOL    HW2 7814   4.211   3.150   3.091  0.9417  0.3445 -0.6445
 1923SOL    HW3 7815   4.304   3.034   3.120 -0.0166 -0.3283 -0.2432
 1923SOL    MW4 7816   4.279   3.116   3.134  0.3743 -0.2165 -0.1862
 1924SOL     OW 7817   4.048   3.221   3.035 -0.3782 -0.5868 -0.3576
 1924SOL    HW2 7818   4.055   3.304   3.082 -2.9451 -0.8943  0.6169
 1924SOL    HW3 7819   4.028   3.247   2.945 -1.0500 -0.1367 -0.0808
 1924SOL    MW4 7820   4.047   3.235   3.029 -0.8054 -0.5684 -0.1926
 1925SOL     OW 7821   4.045   3.487   3.120  0.4262  0.0051  0.3008
 1925SOL    HW2 7822   4.044   3.483   3.216  0.9675 -0.4369  0.2935
 1925SOL    HW3 7823   3.964   3.532   3.097 -0.5388 -1.3497  0.9055
 1925SOL    MW4 7824   4.034   3.492   3.129  0.3705 -0.2320  0.3796
 1926SOL     OW 7825   4.301   3.624   3.015  0.5385  0.5101 -0.1022
 1926SOL    HW2 7826   4.215   3.593   3.043  0.5463  1.2227  0.7379
 1926SOL    HW3 7827   4.362   3.578   3.074  0.5585  1.9879  1.0568
 1926SOL    MW4 7828   4.298   3.614   3.027  0.5422  0.7992  0.1614
 1927SOL     OW 7829   4.278   3.867   3.150 -0.1569  0.1756 -0.5183
 1927SOL    HW2 7830   4.218   3.919   3.097  0.5834  0.2333 -1.2991
 1927SOL    HW3 7831   4.287   3.784   3.103  0.4632  0.2076 -0.4476
 1927SOL    MW4 7832   4.271   3.863   3.137  0.0229  0.1876 -0.6120
 1928SOL     OW 7833   4.059   3.974   3.001  0.3102 -0.1739 -0.3124
 1928SOL    HW2 7834   4.062   4.064   3.032 -0.1930 -0.1187 -0.4200
 1928SOL    HW3 7835   3.975   3.940   3.032  0.5694 -0.6610 -0.1257
 1928SOL    MW4 7836   4.049   3.981   3.009  0.2785 -0.2313 -0.3018
 1929SOL     OW 7837   4.054   4.219   3.099 -0.1310 -0.4561 -0.1016
 1929SOL    HW2 7838   4.034   4.224   3.193  1.2084 -1.3936  0.2452
 1929SOL    HW3 7839   4.140   4.261   3.091 -1.4098  2.0696 -1.3353
 1929SOL    MW4 7840   4.063   4.225   3.111 -0.1230 -0.2465 -0.2186
 1930SOL     OW 7841   4.274   4.385   3.063 -0.1345 -0.1225  0.3325
 1930SOL    HW2 7842   4.353   4.354   3.106 -0.3727  0.5656  1.2637
 1930SOL    HW3 7843   4.264   4.475   3.091 -0.0446  0.4955 -1.5293
 1930SOL    MW4 7844   4.283   4.393   3.072 -0.1535  0.0501  0.2096
 1931SOL     OW 7845   0.192   0.013   3.383  0.0749  0.1226  0.5127
 1931SOL    HW2 7846   0.278   0.049   3.405  0.3043  0.6469 -1.1485
 1931SOL    HW3 7847   0.198  -0.080   3.407  1.9197 -0.3767 -1.6759
 1931SOL    MW4 7848   0.204   0.005   3.389  0.3485  0.1260  0.0050
 1932SOL     OW 7849   4.474   0.157   3.473  0.2698  0.3561  0.1464
 1932SOL    HW2 7850   4.554   0.115   3.444  0.5711  0.8524  0.2621
 1932SOL    HW3 7851   4.464   0.232   3.415  0.1682  0.5937  0.4727
 1932SOL    MW4 7852   4.483   0.161   3.461  0.2966  0.4530  0.2043
 1933SOL     OW 7853   4.438   0.411   3.369  0.4485 -0.6374  0.0402
 1933SOL    HW2 7854   4.356   0.438   3.411  1.1092  0.1343  0.8578
 1933SOL    HW3 7855   4.505   0.462   3.414  1.3497 -1.0666 -0.8145
 1933SOL    MW4 7856   4.436   0.421   3.381  0.6545 -0.5922  0.0353
 1934SOL     OW 7857   0.196   0.537   3.488 -0.2284 -0.2756  0.0927
 1934SOL    HW2 7858   0.272   0.483   3.463 -0.2404  0.0234 -0.6039
 1934SOL    HW3 7859   0.212   0.622   3.448 -0.3808  0.1407  0.9075
 1934SOL    MW4 7860   0.208   0.541   3.479 -0.2501 -0.1813  0.1085
 1935SOL     OW 7861   0.241   0.777   3.353  0.3418 -0.4572  0.1704
 1935SOL    HW2 7862   0.314   0.838   3.367  0.2919  0.1458 -1.9060
 1935SOL    HW3 7863   0.165   0.822   3.390  0.2996  0.8020 -1.3733
 1935SOL    MW4 7864   0.241   0.791   3.359  0.3296 -0.2115 -0.3071
 1936SOL     OW 7865   0.018   0.880   3.458 -0.3138  0.6692  0.0151
 1936SOL    HW2 7866   0.015   0.873   3.553  0.6078 -0.6841 -0.0468
 1936SOL    HW3 7867   0.010   0.974   3.441  0.6849  1.0356  1.4787
 1936SOL    MW4 7868   0.016   0.892   3.468 -0.0605  0.5389  0.2000
 1937SOL     OW 7869   4.486   1.163   3.400 -0.2128  0.3696  0.2686
 1937SOL    HW2 7870   4.573   1.202   3.411 -0.7261  1.9524 -1.1090
 1937SOL    HW3 7871   4.482   1.138   3.308 -0.6213 -1.2379  0.6999
 1937SOL    MW4 7872   4.497   1.165   3.389 -0.3344  0.3663  0.1438
 1938SOL     OW 7873   0.251   1.269   3.467  0.4834 -0.6558  0.0119
 1938SOL    HW2 7874   0.346   1.254   3.459  0.4270 -0.8237 -0.3849
 1938SOL    HW3 7875   0.237   1.353   3.423  0.6456  0.0380  1.2877
 1938SOL    MW4 7876   0.262   1.278   3.460  0.4973 -0.5863  0.1280
 1939SOL     OW 7877   0.230   1.512   3.338 -0.1007  0.0289  0.0666
 1939SOL    HW2 7878   0.315   1.557   3.338 -0.4781  0.7360 -0.4179
 1939SOL    HW3 7879   0.198   1.521   3.249 -1.2245  0.7582  0.5361
 1939SOL    MW4 7880   0.237   1.519   3.327 -0.2987  0.2184  0.0646
 1940SOL     OW 7881   0.030   1.689   3.456 -0.4216 -0.6040 -0.1019
 1940SOL    HW2 7882  -0.050   1.643   3.433 -0.8182 -0.8184  1.6714
 1940SOL    HW3 7883   0.100   1.625   3.443 -0.5000 -0.4061 -1.6760
 1940SOL    MW4 7884   0.029   1.675   3.451 -0.4843 -0.6062 -0.0756
 1941SOL     OW 7885   0.017   1.943   3.361  0.0556  0.0933 -0.5909
 1941SOL    HW2 7886   0.018   1.854   3.397  0.0852  0.5289  0.5021
 1941SOL    HW3 7887   0.023   1.931   3.266  1.6458 -1.0391 -0.3724
 1941SOL    MW4 7888   0.018   1.930   3.353  0.2694  0.0013 -0.4179
 1942SOL     OW 7889   0.209   2.089   3.488  0.5487  0.0208  0.3083
 1942SOL    HW2 7890   0.216   2.072   3.582  0.0055 -0.7838  0.2062
 1942SOL    HW3 7891   0.144   2.026   3.457  2.0253 -0.9342 -0.9223
 1942SOL    MW4 7892   0.201   2.079   3.496  0.6718 -0.2115  0.1326
 1943SOL     OW 7893   0.214   2.307   3.324  0.6919 -0.4278 -0.1975
 1943SOL    HW2 7894   0.200   2.231   3.380 -0.3425  1.1588  1.7890
 1943SOL    HW3 7895   0.291   2.350   3.360 -0.5776  1.1615  0.6891
 1943SOL    MW4 7896   0.222   2.303   3.336  0.3879 -0.0088  0.1817
 1944SOL     OW 7897   0.002   2.417   3.484  0.2045  0.3601 -0.4526
 1944SOL    HW2 7898   0.074   2.382   3.432  0.3905 -2.3285  1.4980
 1944SOL    HW3 7899  -0.074   2.364   3.457  0.2885 -0.9951  1.8767
 1944SOL    MW4 7900   0.001   2.405   3.473  0.2398 -0.1733  0.1121
 1945SOL     OW 7901   0.038   2.677   3.397 -0.4041 -0.1905  0.3547
 1945SOL    HW2 7902   0.104   2.712   3.456  0.2429 -0.4993 -0.1753
 1945SOL    HW3 7903   0.021   2.588   3.428  1.0601 -0.9015 -0.8253
 1945SOL    MW4 7904   0.044   2.670   3.409 -0.1255 -0.3250  0.1290
 1946SOL     OW 7905   0.223   2.821   3.540  0.1278  0.2140 -0.2325
 1946SOL    HW2 7906   0.301   2.770   3.520  1.1717  0.8503  2.0495
 1946SOL    HW3 7907   0.233   2.901   3.488 -0.1420 -0.6750 -1.6773
 1946SOL    MW4 7908   0.235   2.825   3.530  0.2300  0.1807 -0.1221
 1947SOL     OW 7909   0.221   3.057   3.395 -1.0981 -0.5519 -0.0563
 1947SOL    HW2 7910   0.137   3.091   3.426 -0.2435  0.0736  1.6053
 1947SOL    HW3 7911   0.224   3.082   3.303 -1.7337  1.4308  0.4448
 1947SOL    MW4 7912   0.211   3.065   3.387 -1.0692 -0.2077  0.2294
 1948SOL     OW 7913   0.008   3.220   3.517  0.1658 -0.0458  0.2352
 1948SOL    HW2 7914  -0.079   3.195   3.486 -0.0248  0.9114 -0.0148
 1948SOL    HW3 7915  -0.002   3.228   3.612 -0.1565  0.5841  0.1512
 1948SOL    MW4 7916  -0.005   3.218   3.526  0.0978  0.1638  0.1912
 1949SOL     OW 7917   4.487   3.484   3.451  0.1510  0.2296  0.0162
 1949SOL    HW2 7918   4.404   3.523   3.477 -0.1424  0.5701 -1.4171
 1949SOL    HW3 7919   4.482   3.394   3.482 -0.2881  0.5578  0.9128
 1949SOL    MW4 7920   4.475   3.477   3.458  0.0548  0.3178 -0.0544
 1950SOL     OW 7921   0.247   3.618   3.480  0.1140  0.1996 -0.3511
 1950SOL    HW2 7922   0.261   3.638   3.573  1.2589  0.4394 -0.5638
 1950SOL    HW3 7923   0.180   3.550   3.480  0.7537 -0.4470  0.7094
 1950SOL    MW4 7924   0.240   3.612   3.492  0.3495  0.1462 -0.2394
 1951SOL     OW 7925   0.242   3.871   3.387  0.4015 -0.1158  0.7341
 1951SOL    HW2 7926   0.165   3.907   3.432  0.6288  0.1742  0.8869
 1951SOL    HW3 7927   0.238   3.777   3.406 -0.1139 -0.1571  0.4474
 1951SOL    MW4 7928   0.231   3.863   3.396  0.3635 -0.0830  0.7164
 1952SOL     OW 7929   0.012   3.992   3.494  0.4553  0.3776 -0.3569
 1952SOL    HW2 7930   0.021   3.978   3.589  1.0609  0.4265 -0.4012
 1952SOL    HW3 7931  -0.002   4.086   3.486  1.1759  0.4887 -0.3610
 1952SOL    MW4 7932   0.011   4.003   3.506  0.6309  0.3986 -0.3631
 1953SOL     OW 7933   4.480   4.251   3.404  0.4755 -0.6906 -0.0984
 1953SOL    HW2 7934   4.397   4.294   3.424  0.4410 -1.7625  2.2883
 1953SOL    HW3 7935   4.547   4.314   3.430  0.4287  0.0513 -1.7322
 1953SOL    MW4 7936   4.478   4.265   3.410  0.4640 -0.7339  0.0010
 1954SOL     OW 7937   0.198   4.418   3.470  0.2139  0.3511  0.0594
 1954SOL    HW2 7938   0.213   4.420   3.565  0.4913  1.6819 -0.0026
 1954SOL    HW3 7939   0.265   4.360   3.436 -0.8603 -1.3955  0.8418
 1954SOL    MW4 7940   0.209   4.411   3.478  0.1088  0.2961  0.1543
 1955SOL     OW 7941   0.654   4.649   3.395 -0.3959 -0.2417 -0.4271
 1955SOL    HW2 7942   0.717   4.717   3.420  0.5789 -1.1157 -0.4979
 1955SOL    HW3 7943   0.660   4.644   3.300 -0.6822 -0.2213 -0.4474
 1955SOL    MW4 7944   0.663   4.657   3.386 -0.3050 -0.3538 -0.4392
 1956SOL     OW 7945   0.435   0.117   3.442 -0.6685  0.4444  0.2052
 1956SOL    HW2 7946   0.419   0.111   3.536  1.0175  1.0834  0.5441
 1956SOL    HW3 7947   0.513   0.063   3.427 -1.3917 -0.3108 -0.9636
 1956SOL    MW4 7948   0.443   0.109   3.453 -0.5415  0.4290  0.0958
 1957SOL     OW 7949   0.440   0.409   3.402  0.1665 -0.3608  0.0729
 1957SOL    HW2 7950   0.514   0.442   3.452  0.3824 -0.8009  0.0427
 1957SOL    HW3 7951   0.427   0.319   3.434 -0.8700 -0.0175  0.6780
 1957SOL    MW4 7952   0.448   0.401   3.413  0.0582 -0.3736  0.1488
 1958SOL     OW 7953   0.662   0.529   3.521  0.1390 -0.1438  0.2859
 1958SOL    HW2 7954   0.672   0.525   3.616 -0.2963  0.4162  0.3569
 1958SOL    HW3 7955   0.744   0.493   3.486  1.0788  1.4270  0.8559
 1958SOL    MW4 7956   0.674   0.523   3.529  0.2056  0.1374  0.3705
 1959SOL     OW 7957   0.675   0.758   3.360  0.0416  0.1008  0.6858
 1959SOL    HW2 7958   0.593   0.800   3.386 -0.4930 -0.4845 -0.0287
 1959SOL    HW3 7959   0.678   0.677   3.411 -0.1784 -0.2270  0.1817
 1959SOL    MW4 7960   0.665   0.753   3.370 -0.0579 -0.0196  0.5250
 1960SOL     OW 7961   0.467   0.917   3.448 -0.5242 -0.1730 -0.0349
 1960SOL    HW2 7962   0.455   0.924   3.543  0.1850 -0.4359  0.0789
 1960SOL    HW3 7963   0.493   1.005   3.421 -0.3858 -0.1827  0.0665
 1960SOL    MW4 7964   0.469   0.930   3.457 -0.4124 -0.2090 -0.0067
 1961SOL     OW 7965   0.496   1.175   3.338 -0.3711  0.1201  0.3192
 1961SOL    HW2 7966   0.571   1.235   3.344 -1.0458  0.8324  2.0521
 1961SOL    HW3 7967   0.463   1.188   3.249  2.1652 -0.9723 -0.8276
 1961SOL    MW4 7968   0.502   1.185   3.327 -0.1255  0.0699  0.3967
 1962SOL     OW 7969   0.708   1.338   3.395  0.5012  0.2557  0.4064
 1962SOL    HW2 7970   0.792   1.292   3.388  0.0850 -0.0594 -3.0554
 1962SOL    HW3 7971   0.722   1.420   3.348 -1.0829  0.2711 -0.0531
 1962SOL    MW4 7972   0.721   1.343   3.388  0.2373  0.2162 -0.1111
 1963SOL     OW 7973   0.736   1.607   3.326  0.3163 -0.4933  0.4653
 1963SOL    HW2 7974   0.788   1.647   3.395  0.6489  0.1314 -0.1426
 1963SOL    HW3 7975   0.645   1.625   3.351  0.4423 -0.0571  0.6176
 1963SOL    MW4 7976   0.731   1.615   3.338  0.3768 -0.3533  0.4051
 1964SOL     OW 7977   0.473   1.657   3.401  0.2363  0.4956 -0.1438
 1964SOL    HW2 7978   0.478   1.641   3.495 -1.1355  0.3893 -0.0737
 1964SOL    HW3 7979   0.449   1.750   3.394 -0.5423  0.2826 -0.3609
 1964SOL    MW4 7980   0.470   1.667   3.413 -0.0474  0.4535 -0.1633
 1965SOL     OW 7981   0.430   1.933   3.394 -0.4209 -0.2405  0.0515
 1965SOL    HW2 7982   0.362   1.993   3.427  0.6169  0.4517  0.9478
 1965SOL    HW3 7983   0.424   1.941   3.299  0.3652  2.0559  0.1725
 1965SOL    MW4 7984   0.420   1.942   3.386 -0.1803  0.1539  0.1857
 1966SOL     OW 7985   0.668   2.069   3.467  0.4943  0.2343  0.2281
 1966SOL    HW2 7986   0.738   2.015   3.430  0.0091  0.9332 -1.7553
 1966SOL    HW3 7987   0.588   2.021   3.450  0.2473  0.6235  0.2724
 1966SOL    MW4 7988   0.667   2.056   3.460  0.3977  0.3779 -0.0279
 1967SOL     OW 7989   0.650   2.275   3.308  0.4148  0.1999  0.2270
 1967SOL    HW2 7990   0.656   2.191   3.353  0.7031  0.7213  1.1707
 1967SOL    HW3 7991   0.717   2.329   3.349  0.3987  0.8114 -0.5492
 1967SOL    MW4 7992   0.659   2.271   3.319  0.4507  0.3495  0.2491
 1968SOL     OW 7993   1.613   4.062   4.099  0.0697 -0.4294 -0.4606
 1968SOL    HW2 7994   1.658   4.143   4.124  0.5882 -0.6680 -0.6131
 1968SOL    HW3 7995   1.656   3.994   4.152  0.7907 -0.8560 -1.5787
 1968SOL    MW4 7996   1.624   4.064   4.109  0.2333 -0.5174 -0.6289
 1969SOL     OW 7997   0.455   2.696   3.432 -0.6122  0.0744  0.3300
 1969SOL    HW2 7998   0.446   2.601   3.430 -1.5692  0.1245  1.7058
 1969SOL    HW3 7999   0.437   2.723   3.342  0.3017 -1.0909 -0.2091
 1969SOL    MW4 8000   0.451   2.687   3.420 -0.6180 -0.0725  0.4404
 1970SOL     OW 8001   0.686   2.845   3.480 -0.4970 -0.3788 -0.2219
 1970SOL    HW2 8002   0.759   2.811   3.428 -1.1013 -0.3558 -1.0971
 1970SOL    HW3 8003   0.617   2.780   3.472 -1.2103  0.4341 -0.8815
 1970SOL    MW4 8004   0.686   2.832   3.472 -0.6709 -0.2685 -0.4244
 1971SOL     OW 8005   0.616   3.092   3.350  0.2125  0.1762 -0.6060
 1971SOL    HW2 8006   0.542   3.132   3.395  0.3008  0.3136 -0.5821
 1971SOL    HW3 8007   0.626   3.007   3.391 -0.6128 -0.2858 -1.3305
 1971SOL    MW4 8008   0.607   3.086   3.361  0.1152  0.1335 -0.6986
 1972SOL     OW 8009   0.429   3.222   3.490 -0.8358 -0.1164  0.0695
 1972SOL    HW2 8010   0.422   3.217   3.585 -1.1942 -0.0557  0.0463
 1972SOL    HW3 8011   0.350   3.180   3.457  0.0423 -1.5798 -0.2330
 1972SOL    MW4 8012   0.418   3.216   3.498 -0.7672 -0.3016  0.0267
 1973SOL     OW 8013   0.479   3.496   3.394 -0.3299  0.5869  0.5853
 1973SOL    HW2 8014   0.478   3.405   3.426  0.1372  0.8467  1.3529
 1973SOL    HW3 8015   0.401   3.535   3.432 -0.0625  0.7488  0.9657
 1973SOL    MW4 8016   0.469   3.489   3.403 -0.2330  0.6425  0.7367
 1974SOL     OW 8017   0.720   3.625   3.462 -0.3816  0.7173  0.5263
 1974SOL    HW2 8018   0.795   3.567   3.451 -0.2026  0.9435  0.5332
 1974SOL    HW3 8019   0.643   3.571   3.442 -0.2221  0.4600  0.6129
 1974SOL    MW4 8020   0.719   3.610   3.458 -0.3369  0.7133  0.5386
 1975SOL     OW 8021   0.713   3.895   3.383  0.5036 -0.2289 -0.0149
 1975SOL    HW2 8022   0.631   3.918   3.426  0.8687 -0.3578  0.7606
 1975SOL    HW3 8023   0.729   3.805   3.409  1.0987 -0.0747  0.1546
 1975SOL    MW4 8024   0.704   3.886   3.392  0.6303 -0.2258  0.1097
 1976SOL     OW 8025   0.445   4.019   3.521  0.0399  0.5512 -0.0697
 1976SOL    HW2 8026   0.441   4.104   3.478  1.5888  0.4201 -0.4918
 1976SOL    HW3 8027   0.372   3.969   3.483 -1.4711  2.0061  0.8939
 1976SOL    MW4 8028   0.435   4.023   3.510  0.0449  0.7253  0.0017
 1977SOL     OW 8029   0.423   4.269   3.358  0.4126  0.1770 -0.0980
 1977SOL    HW2 8030   0.512   4.299   3.381  1.2900 -0.1426 -2.9385
 1977SOL    HW3 8031   0.418   4.279   3.263 -2.6132  0.1415  0.0201
 1977SOL    MW4 8032   0.434   4.275   3.349  0.1291  0.1302 -0.4573
 1978SOL     OW 8033   0.669   4.390   3.465  0.0153 -0.2127 -0.3348
 1978SOL    HW2 8034   0.752   4.364   3.426  0.1893  0.7417 -0.6209
 1978SOL    HW3 8035   0.655   4.480   3.434 -0.6076  0.0041  0.5440
 1978SOL    MW4 8036   0.678   4.398   3.456 -0.0439 -0.0582 -0.2565
 1979SOL     OW 8037   1.117   0.007   3.383  0.0522  0.1476 -0.2674
 1979SOL    HW2 8038   1.202   0.039   3.414 -0.3129  2.5024 -1.5240
 1979SOL    HW3 8039   1.130  -0.006   3.289 -0.4214 -1.4676 -0.1178
 1979SOL    MW4 8040   1.130   0.010   3.374 -0.0585  0.2451 -0.4134
 1980SOL     OW 8041   0.875   0.139   3.490 -0.2926  0.5298 -0.0861
 1980SOL    HW2 8042   0.895   0.130   3.584 -0.3204  0.7429 -0.0582
 1980SOL    HW3 8043   0.955   0.110   3.446 -0.0276  1.0731  0.0180
 1980SOL    MW4 8044   0.888   0.134   3.497 -0.2613  0.6296 -0.0689
 1981SOL     OW 8045   0.877   0.392   3.364  0.0694  0.3458  0.0490
 1981SOL    HW2 8046   0.967   0.415   3.386  0.1988  0.5963 -0.7106
 1981SOL    HW3 8047   0.866   0.303   3.397  1.5908 -0.8469 -2.4858
 1981SOL    MW4 8048   0.887   0.383   3.371  0.2872  0.2215 -0.3855
 1982SOL     OW 8049   1.118   0.497   3.460  0.1187  0.2729  0.2344
 1982SOL    HW2 8050   1.115   0.492   3.556  0.8098 -1.4409  0.1896
 1982SOL    HW3 8051   1.117   0.591   3.441 -0.9982  0.6201  1.8767
 1982SOL    MW4 8052   1.118   0.509   3.470  0.0626  0.0926  0.4449
 1983SOL     OW 8053   1.099   0.771   3.374  0.0390  0.2374  0.1350
 1983SOL    HW2 8054   1.174   0.829   3.380 -0.4333  0.9474 -0.6956
 1983SOL    HW3 8055   1.028   0.818   3.419 -0.0932 -0.1239  0.3093
 1983SOL    MW4 8056   1.099   0.784   3.381 -0.0407  0.2834  0.0484
 1984SOL     OW 8057   0.876   0.892   3.491  0.4138  0.1832 -0.1039
 1984SOL    HW2 8058   0.888   0.976   3.446 -0.3820  0.9070  0.9850
 1984SOL    HW3 8059   0.814   0.844   3.436 -0.8802  1.2284  0.4283
 1984SOL    MW4 8060   0.869   0.897   3.478  0.1380  0.4166  0.1097
 1985SOL     OW 8061   0.922   1.139   3.366  0.3541 -0.0237  0.2400
 1985SOL    HW2 8062   1.000   1.188   3.394 -0.5423  1.2018  0.6188
 1985SOL    HW3 8063   0.927   1.138   3.271 -0.1773  1.7528  0.1755
 1985SOL    MW4 8064   0.933   1.145   3.357  0.1657  0.3723  0.2813
 1986SOL     OW 8065   1.126   1.309   3.459  0.3226 -0.3941 -0.7410
 1986SOL    HW2 8066   1.097   1.397   3.436  0.5000 -0.8053 -2.6839
 1986SOL    HW3 8067   1.143   1.312   3.553  0.6490  1.7182 -0.8508
 1986SOL    MW4 8068   1.124   1.321   3.468  0.3891 -0.1696 -1.0116
 1987SOL     OW 8069   1.349   1.660   3.409  0.1982 -0.0348  0.1239
 1987SOL    HW2 8070   1.354   1.681   3.502  0.4197  0.4589  0.0047
 1987SOL    HW3 8071   1.430   1.611   3.391 -0.2310 -0.8403  0.3629
 1987SOL    MW4 8072   1.361   1.656   3.419  0.1708 -0.0759  0.1400
 1988SOL     OW 8073   0.921   1.742   3.505  0.0527  0.2644 -0.0652
 1988SOL    HW2 8074   0.986   1.676   3.482 -1.5308 -1.2804 -0.2381
 1988SOL    HW3 8075   0.916   1.739   3.601  0.8910  1.0615  0.0168
 1988SOL    MW4 8076   0.929   1.733   3.515 -0.0455  0.1658 -0.0770
 1989SOL     OW 8077   0.902   1.954   3.319 -0.5286 -0.0791  0.0851
 1989SOL    HW2 8078   0.908   1.877   3.375  0.9924 -0.8850 -1.1762
 1989SOL    HW3 8079   0.970   2.013   3.351  0.2614 -0.4886 -0.8360
 1989SOL    MW4 8080   0.912   1.952   3.331 -0.2237 -0.2395 -0.2029
 1990SOL     OW 8081   1.134   2.066   3.427 -0.2563 -0.4043 -0.4266
 1990SOL    HW2 8082   1.138   2.036   3.518 -0.0698  1.0815  0.0623
 1990SOL    HW3 8083   1.212   2.030   3.386  0.1860 -0.2298  0.2613
 1990SOL    MW4 8084   1.144   2.057   3.433 -0.1733 -0.1850 -0.2713
 1991SOL     OW 8085   1.118   2.330   3.338 -0.6246 -0.0591 -0.1689
 1991SOL    HW2 8086   1.128   2.240   3.369 -0.9624  0.1789  0.6427
 1991SOL    HW3 8087   1.127   2.324   3.243  1.1719 -0.6982  0.0178
 1991SOL    MW4 8088   1.120   2.317   3.330 -0.4323 -0.1121 -0.0372
 1992SOL     OW 8089   0.856   2.429   3.417 -0.0774  0.1525  0.4439
 1992SOL    HW2 8090   0.853   2.436   3.512 -0.3349 -1.2376  0.5468
 1992SOL    HW3 8091   0.947   2.404   3.398  0.1518  1.1083  0.2738
 1992SOL    MW4 8092   0.868   2.426   3.427 -0.0811  0.0951  0.4351
 1993SOL     OW 8093   0.891   2.698   3.345 -0.0027  0.2794  0.1117
 1993SOL    HW2 8094   0.963   2.727   3.401  0.3486 -0.8646  0.2490
 1993SOL    HW3 8095   0.869   2.611   3.377 -1.7510  0.7881  0.3587
 1993SOL    MW4 8096   0.897   2.690   3.357 -0.1871  0.1957  0.1621
 1994SOL     OW 8097   1.098   2.811   3.483  0.2623  0.4195 -0.0607
 1994SOL    HW2 8098   1.106   2.803   3.578  1.5603 -1.6063 -0.3162
 1994SOL    HW3 8099   1.182   2.780   3.449 -0.2642  0.9191 -1.8883
 1994SOL    MW4 8100   1.110   2.806   3.491  0.3642  0.2182 -0.3357
 1995SOL     OW 8101   1.139   3.092   3.404 -0.2690  0.2556  0.3293
 1995SOL    HW2 8102   1.138   2.999   3.427  0.1776 -0.3573 -2.0099
 1995SOL    HW3 8103   1.047   3.119   3.406 -0.7018 -1.0074 -1.9594
 1995SOL    MW4 8104   1.127   3.083   3.407 -0.2671  0.0079 -0.2816
 1996SOL     OW 8105   0.889   3.172   3.460  0.6785  0.6105 -0.4620
 1996SOL    HW2 8106   0.881   3.189   3.554 -0.2779  0.9383 -0.5963
 1996SOL    HW3 8107   0.803   3.138   3.435  1.8540 -2.3786 -0.6429
 1996SOL    MW4 8108   0.877   3.170   3.469  0.7074  0.2592 -0.5035
 1997SOL     OW 8109   0.956   3.450   3.399  0.0169 -0.0302 -0.4006
 1997SOL    HW2 8110   0.914   3.364   3.408 -0.9730  0.5118  0.3010
 1997SOL    HW3 8111   0.957   3.466   3.305  1.2717 -1.3227 -0.6250
 1997SOL    MW4 8112   0.951   3.441   3.388  0.0518 -0.1290 -0.3378
 1998SOL     OW 8113   1.188   3.569   3.522 -0.0376  0.2137 -0.7164
 1998SOL    HW2 8114   1.178   3.575   3.617  0.3702  0.8965 -0.7049
 1998SOL    HW3 8115   1.108   3.527   3.491  0.3745 -1.1384  0.0497
 1998SOL    MW4 8116   1.176   3.564   3.530  0.0707  0.1252 -0.6139
 1999SOL     OW 8117   1.147   3.851   3.393  0.3172  0.0955 -0.2975
 1999SOL    HW2 8118   1.220   3.897   3.434 -0.2660  1.7167 -1.0562
 1999SOL    HW3 8119   1.155   3.761   3.426  2.1747  0.4274  0.2494
 1999SOL    MW4 8120   1.158   3.845   3.403  0.4853  0.3531 -0.3257
 2000SOL     OW 8121   0.945   4.013   3.461  0.1926 -0.0128 -0.2200
 2000SOL    HW2 8122   1.018   3.953   3.451 -1.3720 -2.2777  1.3672
 2000SOL    HW3 8123   0.869   3.964   3.430 -0.8508  1.8122 -0.6280
 2000SOL    MW4 8124   0.944   3.999   3.456 -0.1515 -0.0710 -0.0644
 2001SOL     OW 8125   0.899   4.296   3.369  0.1135  0.3432  0.4072
 2001SOL    HW2 8126   0.914   4.206   3.398  0.9000  0.3037 -0.1187
 2001SOL    HW3 8127   0.973   4.345   3.404 -0.6153  0.8956  1.1781
 2001SOL    MW4 8128   0.910   4.291   3.377  0.1212  0.4110  0.4394
 2002SOL     OW 8129   1.119   4.418   3.481 -0.3881  0.6744 -0.2950
 2002SOL    HW2 8130   1.121   4.410   3.577  2.0770 -0.3091 -0.4029
 2002SOL    HW3 8131   1.121   4.512   3.465  0.1590  0.8184  0.6061
 2002SOL    MW4 8132   1.119   4.429   3.492  0.0093  0.5631 -0.1900
 2003SOL     OW 8133   1.542   4.632   3.403 -0.2347 -0.0636  0.0346
 2003SOL    HW2 8134   1.548   4.546   3.445  1.1711  0.3402  0.6871
 2003SOL    HW3 8135   1.475   4.679   3.454 -0.6484 -0.5997 -0.0173
 2003SOL    MW4 8136   1.534   4.627   3.416 -0.1038 -0.0811  0.1140
 2004SOL     OW 8137   1.328   0.127   3.508 -0.1026  0.0644  0.5603
 2004SOL    HW2 8138   1.318   0.141   3.602  0.0071  0.2147  0.5503
 2004SOL    HW3 8139   1.326   0.215   3.471  1.3492  0.1166  0.5669
 2004SOL    MW4 8140   1.326   0.140   3.515  0.1035  0.0911  0.5598
 2005SOL     OW 8141   1.324   0.367   3.347  0.7972  0.2060 -0.6094
 2005SOL    HW2 8142   1.403   0.404   3.386  0.0478 -0.1524  1.3222
 2005SOL    HW3 8143   1.253   0.423   3.379  0.0006 -0.9954 -0.2385
 2005SOL    MW4 8144   1.325   0.380   3.357  0.5931  0.0002 -0.3057
 2006SOL     OW 8145   1.524   0.518   3.484  0.2954 -0.3007  0.1578
 2006SOL    HW2 8146   1.520   0.604   3.443  0.0291  0.2728  1.3726
 2006SOL    HW3 8147   1.611   0.485   3.461  0.2343  0.1040 -0.6749
 2006SOL    MW4 8148   1.535   0.525   3.476  0.2522 -0.1717  0.2079
 2007SOL     OW 8149   1.544   0.776   3.360  0.0557 -0.2756 -0.1564
 2007SOL    HW2 8150   1.452   0.801   3.368  0.2478  0.3235  0.2751
 2007SOL    HW3 8151   1.565   0.790   3.268 -0.0695  0.3706 -0.0922
 2007SOL    MW4 8152   1.535   0.781   3.349  0.0645 -0.1113 -0.0913
 2008SOL     OW 8153   1.300   0.934   3.426  0.2783 -0.1174  0.2002
 2008SOL    HW2 8154   1.295   0.931   3.522 -0.0073 -0.8622  0.1682
 2008SOL    HW3 8155   1.319   1.026   3.406  0.6407 -0.0136  0.9819
 2008SOL    MW4 8156   1.302   0.946   3.436  0.2884 -0.2019  0.2990
 2009SOL     OW 8157   1.362   1.185   3.363  0.1578  0.1582 -0.4949
 2009SOL    HW2 8158   1.434   1.215   3.419  0.1849 -1.9566  0.6699
 2009SOL    HW3 8159   1.285   1.231   3.395  0.4896  0.2692  0.1465
 2009SOL    MW4 8160   1.361   1.195   3.374  0.2053 -0.1062 -0.2565
 2010SOL     OW 8161   1.589   1.264   3.493 -0.1044 -0.3148 -0.0300
 2010SOL    HW2 8162   1.652   1.220   3.434  0.7417  0.7313  0.0775
 2010SOL    HW3 8163   1.622   1.245   3.581 -0.4178 -0.4714  0.0518
 2010SOL    MW4 8164   1.602   1.256   3.497 -0.0341 -0.1974 -0.0050
 2011SOL     OW 8165   1.573   1.496   3.079  0.2226 -1.0412  0.3007
 2011SOL    HW2 8166   1.581   1.478   3.172 -0.5730 -0.0775  0.5642
 2011SOL    HW3 8167   1.646   1.554   3.059 -0.3734 -0.1907  0.6008
 2011SOL    MW4 8168   1.584   1.501   3.089  0.0390 -0.8019  0.3750
 2012SOL     OW 8169   1.129   3.084   4.059 -0.2741 -0.2339  0.9887
 2012SOL    HW2 8170   1.182   3.012   4.094  0.3970  0.9752  2.5699
 2012SOL    HW3 8171   1.161   3.161   4.107 -2.0452  0.8496  0.4465
 2012SOL    MW4 8172   1.140   3.085   4.070 -0.4193  0.0687  1.1258
 2013SOL     OW 8173   1.430   2.131   3.668 -0.4028  0.0697  1.1298
 2013SOL    HW2 8174   1.466   2.104   3.752  1.4338  0.3499  0.4640
 2013SOL    HW3 8175   1.439   2.226   3.667 -0.3900  0.0644  0.6139
 2013SOL    MW4 8176   1.436   2.140   3.679 -0.1587  0.1059  0.9737
 2014SOL     OW 8177   1.758   1.886   3.328  0.2923  0.5582  0.0447
 2014SOL    HW2 8178   1.836   1.939   3.344  0.0582  0.9479 -0.1029
 2014SOL    HW3 8179   1.744   1.892   3.234  0.8381 -0.5710 -0.1146
 2014SOL    MW4 8180   1.766   1.894   3.318  0.3335  0.4606  0.0041
 2015SOL     OW 8181   1.815   2.397   3.435 -0.2602  0.5800  0.3256
 2015SOL    HW2 8182   1.742   2.351   3.394  0.3867  0.3695 -0.6074
 2015SOL    HW3 8183   1.893   2.350   3.404  0.3695  1.9380 -0.1576
 2015SOL    MW4 8184   1.816   2.384   3.426 -0.0918  0.7312  0.1388
 2016SOL     OW 8185   1.381   2.473   3.400 -0.3500 -0.2885 -0.3269
 2016SOL    HW2 8186   1.293   2.439   3.380 -0.1410 -0.6434 -0.6468
 2016SOL    HW3 8187   1.367   2.566   3.418 -1.1171 -0.7800  1.7936
 2016SOL    MW4 8188   1.367   2.480   3.400 -0.4237 -0.4003 -0.0894
 2017SOL     OW 8189   1.354   2.752   3.394  0.1314 -0.2305 -0.3308
 2017SOL    HW2 8190   1.439   2.786   3.423 -0.4216  1.1431 -0.3058
 2017SOL    HW3 8191   1.361   2.746   3.299  0.4134 -0.5624 -0.2904
 2017SOL    MW4 8192   1.366   2.755   3.385  0.0956 -0.0930 -0.3221
 2018SOL     OW 8193   1.615   2.840   3.440 -0.3265  0.5168 -0.2279
 2018SOL    HW2 8194   1.679   2.782   3.400 -0.5942  0.0943 -0.0392
 2018SOL    HW3 8195   1.621   2.823   3.534 -1.7784 -0.6105 -0.3337
 2018SOL    MW4 8196   1.624   2.830   3.447 -0.5533  0.3121 -0.2172
 2019SOL     OW 8197   1.608   3.101   3.328  0.1328  0.3072 -0.0888
 2019SOL    HW2 8198   1.527   3.140   3.360 -0.6247  0.5859 -2.2142
 2019SOL    HW3 8199   1.612   3.015   3.369 -0.9621  0.5013  0.4409
 2019SOL    MW4 8200   1.598   3.095   3.337 -0.1115  0.3695 -0.2992
 2020SOL     OW 8201   1.384   3.209   3.454 -0.1950 -0.0963  0.0596
 2020SOL    HW2 8202   1.378   3.218   3.549 -0.7959 -0.0719  0.0171
 2020SOL    HW3 8203   1.298   3.180   3.427 -0.0169 -0.1225 -0.4798
 2020SOL    MW4 8204   1.372   3.206   3.463 -0.2508 -0.0963 -0.0172
 2021SOL     OW 8205   1.412   3.489   3.392 -0.0617  0.3978  0.1382
 2021SOL    HW2 8206   1.409   3.395   3.410  1.2470  0.0329 -1.3918
 2021SOL    HW3 8207   1.340   3.526   3.443 -1.8119 -1.6832 -0.7495
 2021SOL    MW4 8208   1.402   3.481   3.401 -0.1199  0.0749 -0.1810
 2022SOL     OW 8209   1.633   3.631   3.493  0.2648 -0.1121  0.2416
 2022SOL    HW2 8210   1.641   3.635   3.588  2.6610  0.7781  0.0199
 2022SOL    HW3 8211   1.549   3.587   3.478  0.7147 -1.8856  2.7371
 2022SOL    MW4 8212   1.623   3.626   3.504  0.6404 -0.2289  0.5414
 2023SOL     OW 8213   1.595   3.911   3.388  0.2179  0.0184 -0.2728
 2023SOL    HW2 8214   1.607   3.822   3.421  0.6527  0.7000  1.4491
 2023SOL    HW3 8215   1.605   3.903   3.293 -0.7276 -1.9222 -0.2313
 2023SOL    MW4 8216   1.598   3.898   3.379  0.1504 -0.1478 -0.0401
 2024SOL     OW 8217   1.356   4.001   3.482 -0.0689  0.7328 -0.4974
 2024SOL    HW2 8218   1.349   4.087   3.441 -0.7023  0.8860 -0.0627
 2024SOL    HW3 8219   1.445   3.972   3.460  0.3089  1.6880 -0.2529
 2024SOL    MW4 8220   1.367   4.008   3.474 -0.1026  0.8793 -0.4077
 2025SOL     OW 8221   1.337   4.260   3.380 -0.3348 -0.3758 -0.3473
 2025SOL    HW2 8222   1.270   4.316   3.418  0.7028  1.6719 -1.4450
 2025SOL    HW3 8223   1.326   4.269   3.285 -0.1093 -2.0000 -0.5517
 2025SOL    MW4 8224   1.327   4.268   3.372 -0.1682 -0.3195 -0.5190
 2026SOL     OW 8225   1.554   4.369   3.504 -0.0435 -0.0391  0.5626
 2026SOL    HW2 8226   1.632   4.329   3.466  0.1661 -0.7704  1.7350
 2026SOL    HW3 8227   1.481   4.330   3.457  0.2594  0.0083  0.0515
 2026SOL    MW4 8228   1.555   4.359   3.493  0.0241 -0.1297  0.6499
 2027SOL     OW 8229   2.017   0.035   3.378 -0.4071 -0.8446  0.0232
 2027SOL    HW2 8230   2.091   0.067   3.429 -0.0107 -0.2810 -0.8943
 2027SOL    HW3 8231   1.940   0.077   3.417 -0.1586 -0.8049  0.4675
 2027SOL    MW4 8232   2.016   0.045   3.390 -0.3219 -0.7650 -0.0393
 2028SOL     OW 8233   1.771   0.122   3.472  0.4551  0.7947  0.4278
 2028SOL    HW2 8234   1.771   0.124   3.568  0.7407  0.8758  0.4269
 2028SOL    HW3 8235   1.701   0.061   3.449  0.8884  0.1976  0.6997
 2028SOL    MW4 8236   1.762   0.115   3.482  0.5499  0.7266  0.4635
 2029SOL     OW 8237   1.773   0.398   3.414  0.2812  0.0241 -0.1364
 2029SOL    HW2 8238   1.768   0.303   3.424 -3.9648  0.1505 -0.4719
 2029SOL    HW3 8239   1.772   0.412   3.320  3.4777  0.3990 -0.1943
 2029SOL    MW4 8240   1.772   0.387   3.403  0.1429  0.0902 -0.1881
 2030SOL     OW 8241   2.011   0.530   3.481 -0.3620  0.2891  0.3804
 2030SOL    HW2 8242   2.007   0.552   3.574 -2.5209 -1.0788  0.6641
 2030SOL    HW3 8243   1.933   0.476   3.467  0.1896  0.1126 -2.1271
 2030SOL    MW4 8244   2.000   0.526   3.492 -0.5739  0.0854  0.0873
 2031SOL     OW 8245   1.971   0.788   3.376  0.0761 -0.0574  0.3542
 2031SOL    HW2 8246   2.054   0.833   3.392 -0.5673  0.7651  1.4093
 2031SOL    HW3 8247   1.980   0.704   3.421 -0.1818  0.5870  1.6031
 2031SOL    MW4 8248   1.983   0.783   3.384 -0.0427  0.1361  0.6583
 2032SOL     OW 8249   1.745   0.921   3.462 -0.0481 -0.6979 -0.0981
 2032SOL    HW2 8250   1.817   0.864   3.436  0.8688  0.3153  0.2003
 2032SOL    HW3 8251   1.667   0.882   3.421  0.6307 -1.9113 -0.2463
 2032SOL    MW4 8252   1.744   0.908   3.453  0.1625 -0.7243 -0.0782
 2033SOL     OW 8253   1.797   1.171   3.309 -0.1359 -1.0703 -0.2507
 2033SOL    HW2 8254   1.866   1.218   3.356 -0.7656  0.0272 -0.4139
 2033SOL    HW3 8255   1.802   1.081   3.343  1.0875 -0.9003  0.0407
 2033SOL    MW4 8256   1.807   1.165   3.320 -0.0576 -0.9029 -0.2339
 2034SOL     OW 8257   1.987   1.311   3.437  0.3834 -0.0483 -0.4341
 2034SOL    HW2 8258   2.000   1.401   3.407  1.1508 -0.0208 -0.0193
 2034SOL    HW3 8259   1.988   1.317   3.532 -4.2530  0.2108 -0.2928
 2034SOL    MW4 8260   1.989   1.324   3.446 -0.1271 -0.0104 -0.3607
 2035SOL     OW 8261   2.032   1.567   3.347 -0.4082  0.2058 -0.4643
 2035SOL    HW2 8262   2.092   1.614   3.405 -1.0954  2.3196 -1.4194
 2035SOL    HW3 8263   1.945   1.595   3.376 -0.8428 -0.7156 -0.8653
 2035SOL    MW4 8264   2.028   1.577   3.359 -0.5562  0.3631 -0.6433
 2036SOL     OW 8265   1.793   1.654   3.462 -0.3638 -0.1875 -0.1632
 2036SOL    HW2 8266   1.779   1.730   3.406 -0.4491  0.1864  0.3592
 2036SOL    HW3 8267   1.798   1.690   3.550  1.5606 -0.5850 -0.0974
 2036SOL    MW4 8268   1.792   1.669   3.466 -0.1212 -0.1905 -0.0854
 2037SOL     OW 8269   1.226   2.856   4.156 -0.1149  0.1059  0.3080
 2037SOL    HW2 8270   1.250   2.772   4.118  0.5695  0.4292  0.0195
 2037SOL    HW3 8271   1.155   2.836   4.217  0.1768 -0.7011  0.3763
 2037SOL    MW4 8272   1.220   2.842   4.159  0.0139  0.0420  0.2785
 2038SOL     OW 8273   2.468   2.349   3.808 -0.0749 -0.1181  0.0239
 2038SOL    HW2 8274   2.450   2.312   3.894 -0.2445  0.0400  0.0579
 2038SOL    HW3 8275   2.385   2.389   3.781 -0.1899 -0.6800 -0.4711
 2038SOL    MW4 8276   2.455   2.349   3.816 -0.1125 -0.1714 -0.0370
 2039SOL     OW 8277   2.027   2.263   3.312 -0.4121 -0.3985 -0.2452
 2039SOL    HW2 8278   2.101   2.295   3.363 -1.7259 -0.9300  2.0850
 2039SOL    HW3 8279   2.017   2.172   3.341 -0.8279 -0.8889 -1.9017
 2039SOL    MW4 8280   2.036   2.255   3.323 -0.6404 -0.5333 -0.1562
 2040SOL     OW 8281   1.990   1.993   3.426 -0.3359 -0.1093 -0.1626
 2040SOL    HW2 8282   2.077   1.972   3.394  0.6766  2.9985  0.3700
 2040SOL    HW3 8283   1.997   1.991   3.521 -0.8345  0.1424 -0.1137
 2040SOL    MW4 8284   2.002   1.990   3.434 -0.2682  0.3338 -0.0858
 2041SOL     OW 8285   1.819   2.668   3.361 -0.2801  0.1932 -0.7064
 2041SOL    HW2 8286   1.881   2.710   3.421 -0.7485  1.0608 -0.8189
 2041SOL    HW3 8287   1.815   2.577   3.390 -0.4466  0.5885  0.5407
 2041SOL    MW4 8288   1.826   2.661   3.373 -0.3638  0.3598 -0.5567
 2042SOL     OW 8289   1.994   2.830   3.506  0.1065  0.1320 -0.2305
 2042SOL    HW2 8290   1.990   2.831   3.601  0.6891 -0.2045 -0.1987
 2042SOL    HW3 8291   2.016   2.920   3.481 -1.2043  0.4964 -0.1095
 2042SOL    MW4 8292   1.997   2.842   3.515  0.0104  0.1357 -0.2103
 2043SOL     OW 8293   2.026   3.090   3.384 -0.3952  0.3023  0.3444
 2043SOL    HW2 8294   2.103   3.134   3.420 -0.3232  0.1292  0.4052
 2043SOL    HW3 8295   1.952   3.133   3.426 -0.3555  0.8992 -0.1952
 2043SOL    MW4 8296   2.027   3.101   3.395 -0.3805  0.3581  0.2811
 2044SOL     OW 8297   1.813   3.249   3.475  0.3641 -0.2834 -0.6127
 2044SOL    HW2 8298   1.787   3.254   3.567  2.2146 -1.3964  0.0081
 2044SOL    HW3 8299   1.741   3.202   3.432 -0.5169  0.2568  0.2492
 2044SOL    MW4 8300   1.800   3.243   3.481  0.4921 -0.3588 -0.4172
 2045SOL     OW 8301   1.862   3.490   3.386  0.4560 -0.0172  0.0244
 2045SOL    HW2 8302   1.780   3.531   3.414 -0.1149 -0.1157 -1.4604
 2045SOL    HW3 8303   1.858   3.402   3.423 -0.4202 -0.2329 -0.5530
 2045SOL    MW4 8304   1.850   3.483   3.394  0.2651 -0.0584 -0.2480
 2046SOL     OW 8305   2.060   3.649   3.504 -0.1676 -0.2253  0.4619
 2046SOL    HW2 8306   2.143   3.607   3.480 -0.1076 -0.1166  0.4786
 2046SOL    HW3 8307   1.993   3.592   3.467 -0.0894 -0.4256  0.6253
 2046SOL    MW4 8308   2.062   3.636   3.496 -0.1495 -0.2375  0.4854
 2047SOL     OW 8309   2.054   3.906   3.361  0.1019  0.0191  0.4640
 2047SOL    HW2 8310   1.983   3.955   3.403  1.0714  0.1609  1.9453
 2047SOL    HW3 8311   2.055   3.821   3.406  1.1663  0.1848  0.7614
 2047SOL    MW4 8312   2.045   3.901   3.372  0.3700  0.0601  0.6988
 2048SOL     OW 8313   1.836   4.021   3.476 -0.1169  0.5920  0.0790
 2048SOL    HW2 8314   1.814   4.029   3.569  1.1490  1.2447  0.3467
 2048SOL    HW3 8315   1.755   3.996   3.434 -0.6670  0.1123  1.3960
 2048SOL    MW4 8316   1.823   4.019   3.483 -0.0224  0.6146  0.2882
 2049SOL     OW 8317   1.804   4.292   3.393  0.0846  0.1224 -0.0652
 2049SOL    HW2 8318   1.819   4.202   3.423  0.7418  0.5649  0.9584
 2049SOL    HW3 8319   1.812   4.287   3.298  1.9485 -0.5902  0.0979
 2049SOL    MW4 8320   1.807   4.279   3.385  0.4172  0.0863  0.0916
 2050SOL     OW 8321   2.038   4.428   3.431  0.7548  0.1524 -0.1881
 2050SOL    HW2 8322   1.947   4.397   3.428  0.3650  1.2068  0.1527
 2050SOL    HW3 8323   2.034   4.516   3.393  1.4125  0.6759  0.9098
 2050SOL    MW4 8324   2.025   4.436   3.426  0.7899  0.3610  0.0019
 2051SOL     OW 8325   2.470   0.017   3.377  0.0969  0.2664 -0.4664
 2051SOL    HW2 8326   2.490  -0.072   3.406  0.3644  0.2394 -0.7256
 2051SOL    HW3 8327   2.468   0.011   3.281 -0.7213  0.3637 -0.4626
 2051SOL    MW4 8328   2.472   0.005   3.368  0.0241  0.2757 -0.4997
 2052SOL     OW 8329   2.240   0.137   3.500 -0.2734 -0.4107  0.3441
 2052SOL    HW2 8330   2.236   0.226   3.465 -0.2526 -0.6875 -0.3795
 2052SOL    HW3 8331   2.321   0.101   3.465  0.6493 -0.1058  2.1418
 2052SOL    MW4 8332   2.250   0.144   3.491 -0.1488 -0.4070  0.4857
 2053SOL     OW 8333   2.249   0.410   3.389 -0.5020 -0.1612  0.3753
 2053SOL    HW2 8334   2.327   0.444   3.433 -0.5369  0.5176 -0.0933
 2053SOL    HW3 8335   2.178   0.468   3.416 -0.6732 -0.2259  0.0708
 2053SOL    MW4 8336   2.250   0.422   3.398 -0.5291 -0.0801  0.2732
 2054SOL     OW 8337   2.484   0.501   3.503  0.5635 -0.1539 -0.0005
 2054SOL    HW2 8338   2.558   0.453   3.466  2.6229  0.6702  2.8112
 2054SOL    HW3 8339   2.501   0.592   3.480  0.5059  0.0473  0.7195
 2054SOL    MW4 8340   2.496   0.507   3.495  0.8276 -0.0186  0.4656
 2055SOL     OW 8341   2.477   0.768   3.442  0.4206 -0.1196 -0.7051
 2055SOL    HW2 8342   2.554   0.810   3.478 -0.0670  0.1764 -0.0051
 2055SOL    HW3 8343   2.403   0.820   3.474 -0.0977 -0.6503 -1.0178
 2055SOL    MW4 8344   2.477   0.780   3.451  0.2875 -0.1506 -0.6542
 2056SOL     OW 8345   2.215   0.899   3.448 -0.1422 -0.3566 -0.0366
 2056SOL    HW2 8346   2.189   0.911   3.540  1.2036  0.5512  0.2333
 2056SOL    HW3 8347   2.216   0.987   3.412 -1.6901 -0.8086 -1.2315
 2056SOL    MW4 8348   2.212   0.912   3.456 -0.1688 -0.2965 -0.1585
 2057SOL     OW 8349   2.192   1.159   3.335  0.5632 -0.4828 -0.2124
 2057SOL    HW2 8350   2.272   1.202   3.366  0.3137  0.0762 -0.3330
 2057SOL    HW3 8351   2.122   1.203   3.382  0.3702 -1.4465  0.4160
 2057SOL    MW4 8352   2.193   1.170   3.345  0.5047 -0.5362 -0.1454
 2058SOL     OW 8353   2.423   1.175   3.474  0.0077 -0.1872  0.6059
 2058SOL    HW2 8354   2.429   1.202   3.566  1.2667  1.5032  0.0557
 2058SOL    HW3 8355   2.512   1.153   3.450 -0.4060 -1.1081 -0.0805
 2058SOL    MW4 8356   2.436   1.176   3.483  0.1192 -0.0857  0.4425
 2059SOL     OW 8357   2.442   1.486   3.403  0.1245 -0.4018 -0.8012
 2059SOL    HW2 8358   2.450   1.394   3.431  1.5961  0.3331  1.2689
 2059SOL    HW3 8359   2.429   1.480   3.308  1.5117 -2.7084 -0.9020
 2059SOL    MW4 8360   2.441   1.473   3.394  0.5016 -0.6092 -0.5414
 2060SOL     OW 8361   2.241   1.661   3.502  0.1969  0.0270  0.0543
 2060SOL    HW2 8362   2.230   1.693   3.591 -0.8526 -0.2124  0.0195
 2060SOL    HW3 8363   2.318   1.605   3.505  2.3314  2.8198  0.0473
 2060SOL    MW4 8364   2.249   1.658   3.514  0.3400  0.3638  0.0491
 2061SOL     OW 8365   2.233   1.903   3.335  0.0704 -0.4438 -0.1999
 2061SOL    HW2 8366   2.225   1.815   3.372  1.6459 -0.5337 -0.0243
 2061SOL    HW3 8367   2.219   1.891   3.241 -3.1145 -0.3438  0.1955
 2061SOL    MW4 8368   2.230   1.890   3.328 -0.1419 -0.4425 -0.1245
 2062SOL     OW 8369   2.460   2.053   3.450 -0.2123  0.1940  0.0322
 2062SOL    HW2 8370   2.419   2.073   3.534 -1.6433  0.3375 -0.6815
 2062SOL    HW3 8371   2.396   1.999   3.404  0.0119  1.1897 -1.4832
 2062SOL    MW4 8372   2.446   2.048   3.455 -0.3715  0.3440 -0.2620
 2063SOL     OW 8373   2.449   2.321   3.356  0.0706  0.6524  0.3046
 2063SOL    HW2 8374   2.534   2.356   3.382  0.0156  0.4925  0.7071
 2063SOL    HW3 8375   2.455   2.228   3.378 -0.0896  0.5755  0.0242
 2063SOL    MW4 8376   2.461   2.313   3.362  0.0417  0.6213  0.3209
 2064SOL     OW 8377   2.203   2.401   3.469  0.4503 -0.0428 -0.3069
 2064SOL    HW2 8378   2.175   2.487   3.438 -1.1688 -0.4723 -0.0702
 2064SOL    HW3 8379   2.291   2.390   3.433 -0.1728  0.7900 -2.1336
 2064SOL    MW4 8380   2.211   2.411   3.460  0.1545  0.0105 -0.5169
 2065SOL     OW 8381   2.194   2.677   3.400  0.0512 -0.1067 -0.1510
 2065SOL    HW2 8382   2.118   2.718   3.441  0.2553  0.4856 -0.3540
 2065SOL    HW3 8383   2.176   2.681   3.306  0.0388 -0.5543 -0.1705
 2065SOL    MW4 8384   2.182   2.683   3.393  0.0765 -0.0877 -0.1800
 2066SOL     OW 8385   2.423   2.817   3.477 -0.1734  0.2477  0.4023
 2066SOL    HW2 8386   2.428   2.909   3.451  1.8340 -0.3228 -1.3978
 2066SOL    HW3 8387   2.356   2.780   3.421  1.1741 -0.0305 -1.0745
 2066SOL    MW4 8388   2.415   2.825   3.466  0.2694  0.1357 -0.0300
 2067SOL     OW 8389   2.470   3.083   3.409  0.3138  0.1023  0.1849
 2067SOL    HW2 8390   2.541   3.145   3.423 -0.3473  0.3393  2.6255
 2067SOL    HW3 8391   2.467   3.071   3.314  0.5351  3.6843 -0.3303
 2067SOL    MW4 8392   2.479   3.089   3.398  0.2558  0.6061  0.4387
 2068SOL     OW 8393   2.259   3.210   3.504  0.4268  0.2893 -0.3181
 2068SOL    HW2 8394   2.274   3.200   3.599  0.4244  0.8644 -0.2572
 2068SOL    HW3 8395   2.330   3.160   3.464 -1.4875 -2.8274 -0.0281
 2068SOL    MW4 8396   2.271   3.202   3.512  0.1738 -0.0458 -0.2723
 2069SOL     OW 8397   2.284   3.508   3.425  0.1880  0.0402 -0.4006
 2069SOL    HW2 8398   2.276   3.420   3.461  1.0751 -0.1495 -0.6542
 2069SOL    HW3 8399   2.263   3.497   3.332 -1.2719  0.3817 -0.1226
 2069SOL    MW4 8400   2.280   3.495   3.417  0.1125  0.0601 -0.3977
 2070SOL     OW 8401   2.528   3.613   3.519  0.1646 -0.2726 -0.0812
 2070SOL    HW2 8402   2.524   3.700   3.480  1.7460 -0.6846 -1.2298
 2070SOL    HW3 8403   2.447   3.570   3.490  0.8925 -0.2700 -2.2077
 2070SOL    MW4 8404   2.517   3.619   3.510  0.4694 -0.3266 -0.5133
 2071SOL     OW 8405   2.514   3.860   3.385  0.2960 -0.1987 -0.3246
 2071SOL    HW2 8406   2.587   3.922   3.379 -0.9934  1.3635 -0.3553
 2071SOL    HW3 8407   2.444   3.911   3.426 -1.1791 -1.2967 -1.4695
 2071SOL    MW4 8408   2.515   3.875   3.390 -0.0689 -0.1376 -0.4797
 2072SOL     OW 8409   2.310   4.037   3.471 -0.1596 -0.0927 -0.0151
 2072SOL    HW2 8410   2.302   4.130   3.452 -2.0905  0.1035  1.5655
 2072SOL    HW3 8411   2.230   3.998   3.435  0.5068 -1.0931 -0.4213
 2072SOL    MW4 8412   2.298   4.044   3.464 -0.3266 -0.1988  0.1400
 2073SOL     OW 8413   2.281   4.290   3.385  0.1988 -0.2468 -0.1265
 2073SOL    HW2 8414   2.199   4.324   3.421 -0.7879 -1.1514 -1.4722
 2073SOL    HW3 8415   2.272   4.300   3.290  1.9541  0.3104 -0.2559
 2073SOL    MW4 8416   2.269   4.295   3.377  0.3002 -0.2928 -0.3214
 2074SOL     OW 8417   2.516   4.440   3.481  0.5838 -0.1629  0.1061
 2074SOL    HW2 8418   2.529   4.433   3.576  0.3150 -1.3375  0.0675
 2074SOL    HW3 8419   2.441   4.383   3.463  1.9072 -1.5317 -1.0973
 2074SOL    MW4 8420   2.508   4.432   3.492  0.7226 -0.4983 -0.0577
 2075SOL     OW 8421   2.927   4.654   3.406 -0.4581  0.4048  0.4267
 2075SOL    HW2 8422   2.850   4.703   3.436  0.0698  1.9832 -0.6957
 2075SOL    HW3 8423   2.949   4.694   3.322  0.6036 -1.1280 -0.0396
 2075SOL    MW4 8424   2.920   4.666   3.399 -0.2487  0.4110  0.2170
 2076SOL     OW 8425   2.709   0.125   3.469 -0.1520  0.1437 -0.3598
 2076SOL    HW2 8426   2.694   0.214   3.436  0.9042  0.6829  0.5877
 2076SOL    HW3 8427   2.633   0.076   3.439 -1.2001  1.5834 -0.1227
 2076SOL    MW4 8428   2.697   0.130   3.460 -0.1507  0.4048 -0.2034
 2077SOL     OW 8429   2.699   0.386   3.382  0.1969  0.3042 -0.2251
 2077SOL    HW2 8430   2.780   0.409   3.426  1.4219 -2.5401 -0.8723
 2077SOL    HW3 8431   2.715   0.406   3.290 -0.2323  0.7764 -0.1971
 2077SOL    MW4 8432   2.712   0.392   3.375  0.3021 -0.0088 -0.3068
 2078SOL     OW 8433   2.925   0.486   3.508 -0.1741  0.0893 -0.2174
 2078SOL    HW2 8434   2.917   0.500   3.602  1.3596  0.0098 -0.0692
 2078SOL    HW3 8435   2.914   0.574   3.470  0.2103  0.2791  0.1035
 2078SOL    MW4 8436   2.922   0.500   3.515  0.0794  0.1039 -0.1557
 2079SOL     OW 8437   2.915   0.760   3.410 -0.0500  0.1699  0.0357
 2079SOL    HW2 8438   2.989   0.798   3.457  0.3627  0.8389 -1.1264
 2079SOL    HW3 8439   2.838   0.800   3.450  0.3438  1.6176 -0.6138
 2079SOL    MW4 8440   2.915   0.771   3.422  0.0563  0.4492 -0.2031
 2080SOL     OW 8441   2.696   0.896   3.521  0.1844  0.5126  0.7434
 2080SOL    HW2 8442   2.690   0.932   3.610 -0.7487 -0.2965  1.0183
 2080SOL    HW3 8443   2.705   0.973   3.465  1.5529  0.9943  1.5864
 2080SOL    MW4 8444   2.696   0.911   3.525  0.2418  0.4694  0.8910
 2081SOL     OW 8445   2.696   1.140   3.407 -0.2327  0.4802  0.3452
 2081SOL    HW2 8446   2.782   1.174   3.432 -0.3341  1.0316 -0.0380
 2081SOL    HW3 8447   2.696   1.145   3.311 -0.0224 -1.1691  0.2419
 2081SOL    MW4 8448   2.707   1.145   3.397 -0.2184  0.3353  0.2811
 2082SOL     OW 8449   2.924   1.275   3.481 -0.1847 -0.1872  0.5668
 2082SOL    HW2 8450   2.933   1.264   3.576 -2.5707 -3.0435  0.5074
 2082SOL    HW3 8451   3.008   1.246   3.446 -0.0623 -1.2350  1.6865
 2082SOL    MW4 8452   2.936   1.270   3.489 -0.4835 -0.7021  0.7064
 2083SOL     OW 8453   2.896   1.536   3.397  0.1737 -0.1350  0.3378
 2083SOL    HW2 8454   2.811   1.564   3.431 -0.1690 -0.9055  0.1369
 2083SOL    HW3 8455   2.910   1.449   3.435  0.9247  0.0431  0.4635
 2083SOL    MW4 8456   2.887   1.528   3.406  0.2277 -0.2133  0.3281
 2084SOL     OW 8457   2.668   1.628   3.506 -0.0638  0.4238  0.4075
 2084SOL    HW2 8458   2.654   1.711   3.461 -1.7833 -1.0719 -1.9666
 2084SOL    HW3 8459   2.590   1.576   3.486  1.0142 -1.8220  1.7321
 2084SOL    MW4 8460   2.656   1.632   3.497 -0.1488 -0.0699  0.2689
 2085SOL     OW 8461   2.669   1.883   3.401 -0.0309  0.2864  0.1669
 2085SOL    HW2 8462   2.605   1.944   3.439 -0.4876 -0.5493  0.7578
 2085SOL    HW3 8463   2.665   1.900   3.307 -0.7557  0.6020  0.2458
 2085SOL    MW4 8464   2.660   1.894   3.394 -0.1869  0.2179  0.2553
 2086SOL     OW 8465   2.883   2.041   3.461  0.0248 -0.1030  0.1309
 2086SOL    HW2 8466   2.885   2.044   3.556 -0.5990 -1.1203  0.1925
 2086SOL    HW3 8467   2.811   1.982   3.441  0.8000 -0.7017 -0.9545
 2086SOL    MW4 8468   2.874   2.033   3.471  0.0448 -0.3161 -0.0043
 2087SOL     OW 8469   2.900   2.296   3.360 -0.0534 -0.2719  0.1659
 2087SOL    HW2 8470   2.869   2.210   3.389  1.1941 -0.7860  0.0186
 2087SOL    HW3 8471   2.980   2.310   3.411  0.0632  0.5391 -0.2419
 2087SOL    MW4 8472   2.907   2.287   3.370  0.1266 -0.2329  0.0927
 2088SOL     OW 8473   2.691   2.477   3.439 -0.0153 -0.2938 -0.0134
 2088SOL    HW2 8474   2.696   2.482   3.535  1.7847  0.2531 -0.1274
 2088SOL    HW3 8475   2.770   2.430   3.414 -0.5779 -0.5962 -1.2289
 2088SOL    MW4 8476   2.702   2.471   3.449  0.1481 -0.2618 -0.1891
 2089SOL     OW 8477   2.680   2.737   3.412  0.1118 -0.2538 -0.0177
 2089SOL    HW2 8478   2.679   2.641   3.417 -0.2416 -0.2244  0.6232
 2089SOL    HW3 8479   2.592   2.763   3.442  0.7248  0.3225  1.3294
 2089SOL    MW4 8480   2.668   2.728   3.417  0.1462 -0.1736  0.2449
 2090SOL     OW 8481   2.922   2.825   3.512  0.1663  0.0260  0.2850
 2090SOL    HW2 8482   2.929   2.839   3.606  0.1419  1.1732  0.1160
 2090SOL    HW3 8483   2.835   2.787   3.500 -1.0642  2.7222  0.4034
 2090SOL    MW4 8484   2.912   2.822   3.523  0.0007  0.5331  0.2785
 2091SOL     OW 8485   2.887   3.082   3.395  0.8086  0.1488 -0.1825
 2091SOL    HW2 8486   2.885   2.988   3.413  1.6037  0.1883  0.1006
 2091SOL    HW3 8487   2.891   3.088   3.300 -0.9482 -0.0817 -0.2987
 2091SOL    MW4 8488   2.887   3.070   3.385  0.6816  0.1235 -0.1605
 2092SOL     OW 8489   2.680   3.247   3.475 -0.2638  0.3279 -0.2800
 2092SOL    HW2 8490   2.668   3.252   3.570 -2.2086  0.8288 -0.5292
 2092SOL    HW3 8491   2.756   3.190   3.463 -0.9418 -0.9947  1.5420
 2092SOL    MW4 8492   2.688   3.240   3.486 -0.6096  0.2196 -0.0725
 2093SOL     OW 8493   2.698   3.480   3.341  0.4189  0.1276 -0.6118
 2093SOL    HW2 8494   2.707   3.391   3.373  0.3820 -0.3692 -1.9511
 2093SOL    HW3 8495   2.634   3.521   3.400 -0.1300 -0.9490 -0.4569
 2093SOL    MW4 8496   2.690   3.474   3.353  0.3419 -0.0801 -0.7679
 2094SOL     OW 8497   2.928   3.612   3.416 -0.1056  0.2751 -0.0254
 2094SOL    HW2 8498   2.918   3.703   3.386 -0.0327 -0.6698 -3.1661
 2094SOL    HW3 8499   2.847   3.569   3.388  0.6413 -1.0386 -0.1911
 2094SOL    MW4 8500   2.916   3.618   3.408  0.0026 -0.0229 -0.4616
 2095SOL     OW 8501   2.913   3.885   3.321  0.3311 -0.2327 -0.2116
 2095SOL    HW2 8502   2.985   3.932   3.363  0.0539  0.9735 -1.0604
 2095SOL    HW3 8503   2.834   3.929   3.352 -0.1085 -2.1077  1.4061
 2095SOL    MW4 8504   2.912   3.897   3.330  0.2363 -0.3211 -0.1099
 2096SOL     OW 8505   2.723   4.054   3.409 -0.1621 -0.1595  0.5552
 2096SOL    HW2 8506   2.717   4.061   3.504 -1.9393  0.6628  0.4100
 2096SOL    HW3 8507   2.725   4.145   3.378 -0.7684 -0.4068 -0.2415
 2096SOL    MW4 8508   2.723   4.067   3.417 -0.4766 -0.0834  0.4308
 2097SOL     OW 8509   2.710   4.316   3.326  0.0659  0.1623 -0.2356
 2097SOL    HW2 8510   2.794   4.337   3.367  0.4639  1.5328 -1.7153
 2097SOL    HW3 8511   2.645   4.361   3.381  0.2540 -1.1800  1.1073
 2097SOL    MW4 8512   2.712   4.325   3.339  0.1433  0.1664 -0.2537
 2098SOL     OW 8513   2.934   4.385   3.455 -0.0550  0.1148  0.1303
 2098SOL    HW2 8514   2.955   4.394   3.548  2.2042 -1.2997 -0.2318
 2098SOL    HW3 8515   2.931   4.476   3.423 -0.7378  0.6074  1.5161
 2098SOL    MW4 8516   2.936   4.398   3.463  0.1528 -0.0072  0.2656
 2099SOL     OW 8517   3.386   4.659   3.392  0.4312 -0.2823  0.2447
 2099SOL    HW2 8518   3.306   4.705   3.419  0.9915  0.0909  1.2562
 2099SOL    HW3 8519   3.385   4.666   3.296 -0.7442 -0.2730  0.2436
 2099SOL    MW4 8520   3.375   4.666   3.383  0.3498 -0.2322  0.3781
 2100SOL     OW 8521   3.149   0.117   3.538  0.3445  0.0597 -0.3361
 2100SOL    HW2 8522   3.148   0.206   3.504 -2.6723  1.1225  2.2890
 2100SOL    HW3 8523   3.076   0.073   3.494  0.9395 -0.6907 -0.5865
 2100SOL    MW4 8524   3.139   0.123   3.528  0.0250  0.1009 -0.0229
 2101SOL     OW 8525   3.158   0.374   3.410 -0.1367  0.4509 -0.1796
 2101SOL    HW2 8526   3.081   0.422   3.441 -0.0514  0.9814 -0.7759
 2101SOL    HW3 8527   3.159   0.389   3.315 -0.3483 -1.0760 -0.4363
 2101SOL    MW4 8528   3.148   0.383   3.402 -0.1535  0.3195 -0.2921
 2102SOL     OW 8529   3.360   0.494   3.533 -0.0369  0.1272 -0.0347
 2102SOL    HW2 8530   3.440   0.458   3.493  0.1097  0.9697 -0.5160
 2102SOL    HW3 8531   3.289   0.450   3.488  0.1491  0.1040 -0.3103
 2102SOL    MW4 8532   3.361   0.483   3.522  0.0072  0.2353 -0.1342
 2103SOL     OW 8533   3.349   0.740   3.384 -0.3855 -0.3727  0.3536
 2103SOL    HW2 8534   3.360   0.659   3.433 -1.1779  0.5148  2.0404
 2103SOL    HW3 8535   3.419   0.797   3.414  0.0292 -0.3335 -0.6551
 2103SOL    MW4 8536   3.359   0.737   3.394 -0.4354 -0.2504  0.4430
 2104SOL     OW 8537   3.143   0.890   3.525  0.3404  0.1673 -0.0517
 2104SOL    HW2 8538   3.155   0.979   3.490 -0.2252  0.3217  0.1346
 2104SOL    HW3 8539   3.217   0.841   3.492 -0.6222  0.0825 -2.1751
 2104SOL    MW4 8540   3.154   0.895   3.516  0.1388  0.1764 -0.3071
 2105SOL     OW 8541   3.145   1.150   3.410 -0.3939  0.2153 -0.1986
 2105SOL    HW2 8542   3.222   1.195   3.443 -0.7636  0.8505 -0.1987
 2105SOL    HW3 8543   3.157   1.148   3.315 -0.3697  0.2935 -0.1974
 2105SOL    MW4 8544   3.157   1.156   3.402 -0.4399  0.3093 -0.1984
 2106SOL     OW 8545   3.379   1.312   3.489  0.5704  0.2927  0.1967
 2106SOL    HW2 8546   3.465   1.287   3.454  0.1596  0.4572 -0.9408
 2106SOL    HW3 8547   3.357   1.393   3.444 -0.6720 -0.3205 -0.3276
 2106SOL    MW4 8548   3.388   1.319   3.479  0.3521  0.2334 -0.0226
 2107SOL     OW 8549   3.349   1.554   3.365 -0.4784  0.1593  0.0548
 2107SOL    HW2 8550   3.419   1.607   3.403 -0.3795 -0.6238  0.9881
 2107SOL    HW3 8551   3.270   1.586   3.410 -0.6580  0.7069 -0.6440
 2107SOL    MW4 8552   3.348   1.565   3.376 -0.4888  0.1284  0.0858
 2108SOL     OW 8553   3.129   1.662   3.500 -0.1626 -0.0563  0.1922
 2108SOL    HW2 8554   3.125   1.754   3.474  0.2479  0.2899  1.3190
 2108SOL    HW3 8555   3.052   1.622   3.458  0.0619  0.6390 -0.8984
 2108SOL    MW4 8556   3.118   1.669   3.491 -0.0787  0.0812  0.1969
 2109SOL     OW 8557   3.129   1.931   3.427  0.3503  0.1369  0.7542
 2109SOL    HW2 8558   3.039   1.958   3.442  0.7060  0.2447  2.8440
 2109SOL    HW3 8559   3.132   1.908   3.334 -1.7576  0.3422  0.6107
 2109SOL    MW4 8560   3.118   1.932   3.416  0.1190  0.1782  1.0114
 2110SOL     OW 8561   3.368   2.032   3.539  0.0616  0.3439 -0.3362
 2110SOL    HW2 8562   3.339   2.117   3.505  0.8066  0.5449 -0.4879
 2110SOL    HW3 8563   3.303   1.970   3.506  0.0738  0.7167 -1.0764
 2110SOL    MW4 8564   3.356   2.035   3.530  0.1614  0.4194 -0.4539
 2111SOL     OW 8565   3.342   2.287   3.411  0.2533 -0.2227 -0.0850
 2111SOL    HW2 8566   3.421   2.334   3.437  0.1612  0.4187 -0.9315
 2111SOL    HW3 8567   3.270   2.338   3.448  0.2163 -0.6833  0.4950
 2111SOL    MW4 8568   3.343   2.300   3.419  0.2363 -0.1988 -0.1202
 2112SOL     OW 8569   3.129   2.433   3.518 -0.0924  0.5914  0.0737
 2112SOL    HW2 8570   3.112   2.524   3.492  0.3360  1.1474  1.6881
 2112SOL    HW3 8571   3.161   2.440   3.608 -0.0449 -1.1675  0.1954
 2112SOL    MW4 8572   3.131   2.446   3.526 -0.0298  0.4330  0.3023
 2113SOL     OW 8573   3.134   2.674   3.392 -0.3511 -0.4916 -0.5903
 2113SOL    HW2 8574   3.214   2.714   3.428 -0.0358 -0.8804 -0.8512
 2113SOL    HW3 8575   3.063   2.729   3.424 -0.0135 -0.4167  0.0371
 2113SOL    MW4 8576   3.135   2.687   3.401 -0.2649 -0.5329 -0.5419
 2114SOL     OW 8577   3.383   2.789   3.502 -0.4349 -0.1977  0.3735
 2114SOL    HW2 8578   3.455   2.740   3.461  1.1125  1.3873  1.1058
 2114SOL    HW3 8579   3.385   2.875   3.459 -0.1509  0.7637  2.2670
 2114SOL    MW4 8580   3.393   2.794   3.491 -0.1934  0.1383  0.7198
 2115SOL     OW 8581   3.355   3.043   3.390 -0.0822 -0.3546 -0.0164
 2115SOL    HW2 8582   3.416   3.110   3.421  0.8443 -1.5247  0.7213
 2115SOL    HW3 8583   3.271   3.065   3.430 -0.2434  1.4591 -1.2990
 2115SOL    MW4 8584   3.352   3.054   3.399  0.0191 -0.2694 -0.0885
 2116SOL     OW 8585   3.133   3.167   3.487  0.1214  0.4391  0.1818
 2116SOL    HW2 8586   3.138   3.259   3.463 -0.5966  0.4034 -0.1255
 2116SOL    HW3 8587   3.057   3.133   3.439  0.2626 -0.2656  0.4371
 2116SOL    MW4 8588   3.123   3.174   3.477  0.0455  0.3414  0.1748
 2117SOL     OW 8589   3.127   3.431   3.385 -0.1521  0.4216  0.1620
 2117SOL    HW2 8590   3.052   3.490   3.400 -1.4273 -0.9800 -0.6042
 2117SOL    HW3 8591   3.137   3.430   3.290 -0.1786 -0.6666  0.1737
 2117SOL    MW4 8592   3.118   3.439   3.375 -0.3238  0.0930  0.0627
 2118SOL     OW 8593   3.329   3.592   3.460 -0.6617 -0.0777  0.0101
 2118SOL    HW2 8594   3.328   3.675   3.413 -2.2767 -0.3963 -0.5528
 2118SOL    HW3 8595   3.249   3.548   3.433  0.1330 -1.7987  0.3473
 2118SOL    MW4 8596   3.319   3.597   3.450 -0.7696 -0.3467 -0.0198
 2119SOL     OW 8597   3.334   3.843   3.342  0.1400 -0.3079 -0.2217
 2119SOL    HW2 8598   3.418   3.876   3.374  0.2906 -0.0298 -0.8845
 2119SOL    HW3 8599   3.269   3.902   3.381  0.3946  0.6476 -1.2161
 2119SOL    MW4 8600   3.336   3.855   3.351  0.1936 -0.1454 -0.4404
 2120SOL     OW 8601   3.146   4.013   3.455  0.3315 -0.3440 -0.2115
 2120SOL    HW2 8602   3.128   4.001   3.549 -0.6898 -2.0388 -0.6130
 2120SOL    HW3 8603   3.160   4.108   3.445  1.0437 -0.2144  1.7488
 2120SOL    MW4 8604   3.146   4.024   3.466  0.2906 -0.5512 -0.0057
 2121SOL     OW 8605   3.194   4.276   3.365 -0.0012  0.0187  0.2554
 2121SOL    HW2 8606   3.268   4.305   3.418  1.1300  0.2386 -1.4315
 2121SOL    HW3 8607   3.118   4.320   3.405  0.6123 -0.9414  2.5474
 2121SOL    MW4 8608   3.194   4.286   3.377  0.2289 -0.0787  0.3352
 2122SOL     OW 8609   3.400   4.378   3.522 -0.1362  0.1211 -0.1410
 2122SOL    HW2 8610   3.384   4.371   3.616  0.3528  0.0947 -0.0597
 2122SOL    HW3 8611   3.419   4.471   3.508 -0.3564  0.1529 -0.2424
 2122SOL    MW4 8612   3.400   4.390   3.532 -0.1006  0.1221 -0.1435
 2123SOL     OW 8613   3.833   4.629   3.445 -0.0771  0.3437 -0.7882
 2123SOL    HW2 8614   3.833   4.536   3.471  0.5344  0.3602 -0.7165
 2123SOL    HW3 8615   3.831   4.627   3.350 -1.9499  0.2781 -0.7634
 2123SOL    MW4 8616   3.833   4.616   3.436 -0.2437  0.3371 -0.7756
 2124SOL     OW 8617   3.589   0.133   3.509 -0.0296  0.0019  0.0485
 2124SOL    HW2 8618   3.657   0.075   3.475  0.6788 -0.0351  1.4873
 2124SOL    HW3 8619   3.507   0.091   3.484  0.4752 -1.5060  0.8440
 2124SOL    MW4 8620   3.587   0.120   3.501  0.1304 -0.2019  0.3433
 2125SOL     OW 8621   3.610   0.380   3.392 -0.3020 -0.1899  0.3567
 2125SOL    HW2 8622   3.595   0.300   3.442 -0.0934  0.1373  0.9533
 2125SOL    HW3 8623   3.672   0.430   3.445 -0.6434  0.4855  0.1294
 2125SOL    MW4 8624   3.616   0.376   3.406 -0.3195 -0.0576  0.4055
 2126SOL     OW 8625   3.810   0.524   3.538 -0.0691 -0.2428  0.3607
 2126SOL    HW2 8626   3.877   0.474   3.491  0.0176  0.4683 -0.2754
 2126SOL    HW3 8627   3.839   0.524   3.629  0.5789 -0.2904  0.1562
 2126SOL    MW4 8628   3.823   0.517   3.544  0.0281 -0.1553  0.2499
 2127SOL     OW 8629   3.802   0.735   3.354  0.2152 -0.1212  0.4328
 2127SOL    HW2 8630   3.862   0.800   3.391 -0.0887  0.1985  0.3603
 2127SOL    HW3 8631   3.803   0.663   3.418  1.4290 -0.5458 -0.0508
 2127SOL    MW4 8632   3.810   0.734   3.367  0.3352 -0.1351  0.3595
 2128SOL     OW 8633   3.590   0.874   3.472 -0.7366  0.6483  0.1339
 2128SOL    HW2 8634   3.615   0.875   3.564  2.0746  1.3197 -0.5877
 2128SOL    HW3 8635   3.655   0.818   3.430 -2.4012 -0.2390 -1.3684
 2128SOL    MW4 8636   3.602   0.867   3.479 -0.5856  0.6198 -0.1597
 2129SOL     OW 8637   3.637   1.151   3.417 -0.3948  0.2043 -0.1541
 2129SOL    HW2 8638   3.624   1.057   3.429  0.9023 -0.0284 -0.5503
 2129SOL    HW3 8639   3.634   1.164   3.323 -0.1911  0.5057 -0.1181
 2129SOL    MW4 8640   3.635   1.140   3.406 -0.1967  0.2133 -0.2015
 2130SOL     OW 8641   3.859   1.285   3.488 -0.0623  0.1985  0.1717
 2130SOL    HW2 8642   3.841   1.290   3.582 -0.8488  0.4116  0.0127
 2130SOL    HW3 8643   3.785   1.235   3.453 -0.1827  0.8082 -0.4443
 2130SOL    MW4 8644   3.847   1.279   3.496 -0.1819  0.3071  0.0694
 2131SOL     OW 8645   3.793   1.551   3.400 -0.8015  0.4125  0.5284
 2131SOL    HW2 8646   3.861   1.604   3.442 -1.8318  1.2757  1.1556
 2131SOL    HW3 8647   3.814   1.461   3.423  1.0033  0.5302 -0.5670
 2131SOL    MW4 8648   3.804   1.546   3.408 -0.6993  0.5420  0.4666
 2132SOL     OW 8649   3.558   1.682   3.486  0.2166  0.0232 -0.0350
 2132SOL    HW2 8650   3.556   1.770   3.449  1.2980 -0.1150 -0.4513
 2132SOL    HW3 8651   3.638   1.643   3.451  0.6144 -0.5477  1.4477
 2132SOL    MW4 8652   3.568   1.688   3.477  0.4120 -0.0703  0.1059
 2133SOL     OW 8653   3.553   1.944   3.367 -0.6687  0.9524 -0.1981
 2133SOL    HW2 8654   3.633   1.980   3.405 -0.2366 -0.5047  0.3055
 2133SOL    HW3 8655   3.482   1.983   3.418 -0.1414 -0.0722  1.3551
 2133SOL    MW4 8656   3.554   1.953   3.378 -0.5424  0.6250  0.0730
 2134SOL     OW 8657   3.790   2.029   3.469  0.0150  0.0429  0.1849
 2134SOL    HW2 8658   3.825   2.027   3.558  0.4233 -0.8030  0.0019
 2134SOL    HW3 8659   3.856   1.985   3.416 -1.2513 -1.4395 -0.1873
 2134SOL    MW4 8660   3.803   2.023   3.474 -0.0982 -0.2644  0.1116
 2135SOL     OW 8661   3.843   2.278   3.378 -0.4275 -0.3159  0.2301
 2135SOL    HW2 8662   3.914   2.312   3.432  0.1429 -0.2676 -0.5425
 2135SOL    HW3 8663   3.831   2.188   3.407  1.1264 -0.8847 -0.8126
 2135SOL    MW4 8664   3.851   2.271   3.389 -0.1473 -0.3848 -0.0093
 2136SOL     OW 8665   3.609   2.383   3.471  0.1192 -0.1574  0.9037
 2136SOL    HW2 8666   3.611   2.478   3.459  0.4169  0.0446  2.3713
 2136SOL    HW3 8667   3.692   2.352   3.436 -0.0491  0.1082  0.2731
 2136SOL    MW4 8668   3.620   2.391   3.465  0.1364 -0.0954  1.0142
 2137SOL     OW 8669   3.614   2.656   3.414 -0.0874 -0.4770  0.4688
 2137SOL    HW2 8670   3.695   2.690   3.452 -0.9649  1.6071  0.5333
 2137SOL    HW3 8671   3.612   2.691   3.325 -0.3063 -1.5582  0.0389
 2137SOL    MW4 8672   3.624   2.665   3.407 -0.2322 -0.3445  0.4206
 2138SOL     OW 8673   3.835   2.814   3.500  0.2464 -0.2914  0.7681
 2138SOL    HW2 8674   3.810   2.837   3.589  0.2566  0.5456  0.5567
 2138SOL    HW3 8675   3.814   2.891   3.448  1.8989 -0.1067  0.3359
 2138SOL    MW4 8676   3.829   2.827   3.505  0.4656 -0.1566  0.6831
 2139SOL     OW 8677   3.787   3.067   3.373 -0.0554  0.0242  0.1600
 2139SOL    HW2 8678   3.868   3.110   3.399  0.5267 -1.0126  0.0942
 2139SOL    HW3 8679   3.786   3.072   3.278 -0.9116  1.5264  0.2288
 2139SOL    MW4 8680   3.797   3.073   3.364 -0.0913  0.0861  0.1602
 2140SOL     OW 8681   3.567   3.220   3.484 -0.0355 -0.2658 -0.5338
 2140SOL    HW2 8682   3.573   3.303   3.437 -1.0205 -0.3250 -0.7854
 2140SOL    HW3 8683   3.640   3.168   3.451 -0.8205 -0.3699 -2.1457
 2140SOL    MW4 8684   3.577   3.224   3.473 -0.2689 -0.2873 -0.7796
 2141SOL     OW 8685   3.576   3.480   3.349 -0.1011  0.5266  0.1955
 2141SOL    HW2 8686   3.500   3.517   3.393 -1.9019 -0.5716 -1.8611
 2141SOL    HW3 8687   3.562   3.502   3.256  1.5596 -0.5789 -0.3307
 2141SOL    MW4 8688   3.564   3.488   3.342 -0.1197  0.2358 -0.1452
 2142SOL     OW 8689   3.812   3.609   3.467  0.2088  0.1457 -0.1893
 2142SOL    HW2 8690   3.818   3.590   3.560  1.1449 -0.0285 -0.2842
 2142SOL    HW3 8691   3.724   3.580   3.442 -0.4876  1.3041  0.8895
 2142SOL    MW4 8692   3.801   3.603   3.476  0.2406  0.2756 -0.0596
 2143SOL     OW 8693   3.816   3.866   3.370 -0.0016 -0.2856  0.0663
 2143SOL    HW2 8694   3.732   3.904   3.397 -0.8624 -1.4799 -0.9004
 2143SOL    HW3 8695   3.810   3.774   3.393  0.8863 -0.4646 -0.3853
 2143SOL    MW4 8696   3.804   3.859   3.377  0.0019 -0.4666 -0.1209
 2144SOL     OW 8697   3.570   3.951   3.445  0.2366  0.2278  0.2004
 2144SOL    HW2 8698   3.563   3.955   3.540 -1.0575  1.7599  0.0638
 2144SOL    HW3 8699   3.571   4.043   3.416 -1.6296 -0.1985 -1.3808
 2144SOL    MW4 8700   3.569   3.964   3.453 -0.1805  0.3738 -0.0265
 2145SOL     OW 8701   3.601   4.215   3.397  0.4092 -0.1125  0.1948
 2145SOL    HW2 8702   3.528   4.263   3.435  0.4061 -0.5219  0.7173
 2145SOL    HW3 8703   3.607   4.246   3.307 -0.6732 -0.3734  0.0286
 2145SOL    MW4 8704   3.592   4.225   3.390  0.2663 -0.2007  0.2420
 2146SOL     OW 8705   3.822   4.368   3.526  0.6278  0.0822 -0.2036
 2146SOL    HW2 8706   3.740   4.334   3.490  0.0848  0.3577  0.7625
 2146SOL    HW3 8707   3.890   4.328   3.472 -0.2053  1.4994 -2.3839
 2146SOL    MW4 8708   3.820   4.358   3.514  0.4463  0.3057 -0.3636
 2147SOL     OW 8709   4.252   0.013   3.380 -0.3455 -0.1895 -0.1775
 2147SOL    HW2 8710   4.330   0.056   3.415  0.3962 -1.5894 -0.0423
 2147SOL    HW3 8711   4.181   0.040   3.439  0.1395  0.6858  0.0071
 2147SOL    MW4 8712   4.253   0.022   3.393 -0.1841 -0.2587 -0.1354
 2148SOL     OW 8713   4.056   0.109   3.548  0.0612 -0.4941 -0.3957
 2148SOL    HW2 8714   3.975   0.058   3.543 -0.6109  0.5373 -0.0665
 2148SOL    HW3 8715   4.070   0.122   3.642 -0.1682  0.5682 -0.5094
 2148SOL    MW4 8716   4.047   0.104   3.560 -0.0577 -0.2179 -0.3674
 2149SOL     OW 8717   4.020   0.377   3.401 -0.1131  0.0488 -0.1745
 2149SOL    HW2 8718   4.004   0.290   3.437 -0.1150  0.1861  0.1576
 2149SOL    HW3 8719   4.102   0.405   3.442 -0.9368  0.8543  0.9323
 2149SOL    MW4 8720   4.029   0.369   3.411 -0.2217  0.1732  0.0157
 2150SOL     OW 8721   4.221   0.483   3.530 -0.5052  0.2288 -0.1534
 2150SOL    HW2 8722   4.215   0.573   3.498  2.1746  0.4433 -0.2438
 2150SOL    HW3 8723   4.225   0.492   3.625 -2.8722 -0.0162  0.0002
 2150SOL    MW4 8724   4.221   0.496   3.538 -0.4644  0.2248 -0.1450
 2151SOL     OW 8725   4.241   0.749   3.405 -0.6604  0.1554  0.2231
 2151SOL    HW2 8726   4.166   0.807   3.416 -0.8172  0.4498 -2.1170
 2151SOL    HW3 8727   4.315   0.799   3.438 -1.3189  0.3058  1.4881
 2151SOL    MW4 8728   4.241   0.763   3.411 -0.7682  0.2140  0.0813
 2152SOL     OW 8729   4.007   0.896   3.446 -0.3530  0.3349  0.0380
 2152SOL    HW2 8730   4.041   0.981   3.417  0.4955 -0.2076 -0.5937
 2152SOL    HW3 8731   4.016   0.897   3.541  1.1585  0.3361 -0.0857
 2152SOL    MW4 8732   4.013   0.908   3.455 -0.0415  0.2635 -0.0615
 2153SOL     OW 8733   4.083   1.156   3.376 -0.0118 -0.1151  0.2251
 2153SOL    HW2 8734   4.015   1.213   3.410  0.4958  0.7941 -0.2531
 2153SOL    HW3 8735   4.165   1.196   3.407  0.4259  0.4077 -1.5561
 2153SOL    MW4 8736   4.085   1.169   3.384  0.1125  0.0737 -0.0732
 2154SOL     OW 8737   4.280   1.303   3.490  0.2451  0.0528  0.0308
 2154SOL    HW2 8738   4.359   1.265   3.452 -0.6311 -0.0757 -1.7149
 2154SOL    HW3 8739   4.284   1.396   3.466 -0.4913 -0.0973 -0.6916
 2154SOL    MW4 8740   4.291   1.311   3.482  0.0319  0.0160 -0.2949
 2155SOL     OW 8741   4.269   1.566   3.411  0.1063 -0.2739 -0.4409
 2155SOL    HW2 8742   4.181   1.590   3.442  0.2717  0.0069 -0.1934
 2155SOL    HW3 8743   4.256   1.546   3.318 -0.3277 -0.7988 -0.2725
 2155SOL    MW4 8744   4.256   1.566   3.403  0.0710 -0.3061 -0.3862
 2156SOL     OW 8745   4.024   1.699   3.528 -0.1887 -0.3007  0.4654
 2156SOL    HW2 8746   4.054   1.713   3.618  2.0726  1.1898 -0.4701
 2156SOL    HW3 8747   4.049   1.779   3.481  0.0761 -1.6733 -1.8257
 2156SOL    MW4 8748   4.031   1.711   3.533  0.1445 -0.2850  0.0396
 2157SOL     OW 8749   4.062   1.941   3.391 -0.0096  0.2701 -0.0039
 2157SOL    HW2 8750   4.142   1.988   3.413  0.5274 -1.3640  1.5847
 2157SOL    HW3 8751   4.065   1.932   3.295  0.8939  1.6028 -0.1142
 2157SOL    MW4 8752   4.073   1.946   3.381  0.1802  0.2303  0.1912
 2158SOL     OW 8753   4.300   2.078   3.491 -0.3831  0.3181  0.0692
 2158SOL    HW2 8754   4.284   2.157   3.439 -0.5787  0.4067  0.2657
 2158SOL    HW3 8755   4.385   2.046   3.460  0.8478  1.9435  1.6855
 2158SOL    MW4 8756   4.309   2.084   3.480 -0.2465  0.5441  0.3085
 2159SOL     OW 8757   4.255   2.323   3.361 -0.2335  0.4225 -0.5738
 2159SOL    HW2 8758   4.191   2.378   3.406  0.1764  0.7259 -0.3659
 2159SOL    HW3 8759   4.249   2.350   3.269 -0.0011  0.8429 -0.4663
 2159SOL    MW4 8760   4.245   2.334   3.355 -0.1483  0.5178 -0.5319
 2160SOL     OW 8761   4.044   2.455   3.494  0.2330  0.9496 -0.5712
 2160SOL    HW2 8762   4.070   2.473   3.584 -0.0286  0.7267 -0.4530
 2160SOL    HW3 8763   4.045   2.541   3.452  2.1069  0.8337 -0.8196
 2160SOL    MW4 8764   4.048   2.469   3.500  0.4458  0.9048 -0.5887
 2161SOL     OW 8765   4.072   2.710   3.394 -0.0068 -0.0555  0.0191
 2161SOL    HW2 8766   4.151   2.758   3.418 -0.3281 -0.4495  1.8789
 2161SOL    HW3 8767   4.000   2.761   3.432 -0.4434 -1.2856  0.8563
 2161SOL    MW4 8768   4.073   2.723   3.402 -0.1068 -0.2697  0.3750
 2162SOL     OW 8769   4.304   2.836   3.486 -0.0938 -0.3175 -0.2115
 2162SOL    HW2 8770   4.289   2.818   3.579 -0.1031  0.6932 -0.0105
 2162SOL    HW3 8771   4.369   2.772   3.459 -0.3471 -0.8378  0.4122
 2162SOL    MW4 8772   4.311   2.825   3.495 -0.1287 -0.2530 -0.1028
 2163SOL     OW 8773   4.238   3.090   3.409  0.0685  0.0988  0.1586
 2163SOL    HW2 8774   4.261   3.004   3.444 -0.2790 -0.5854 -1.2545
 2163SOL    HW3 8775   4.264   3.086   3.317  1.0179  1.8810  0.3250
 2163SOL    MW4 8776   4.244   3.079   3.402  0.1473  0.2439 -0.0060
 2164SOL     OW 8777   4.004   3.212   3.453  0.3359 -0.2022  0.3718
 2164SOL    HW2 8778   4.018   3.305   3.435 -1.3069 -0.1424 -0.6569
 2164SOL    HW3 8779   4.087   3.171   3.432  1.5602  1.2211  2.2490
 2164SOL    MW4 8780   4.017   3.219   3.448  0.2813 -0.0064  0.4838
 2165SOL     OW 8781   4.032   3.482   3.397 -0.2131  0.3445  0.2544
 2165SOL    HW2 8782   4.106   3.521   3.443 -0.6225  0.1455  1.1003
 2165SOL    HW3 8783   3.959   3.543   3.413 -0.5002 -0.0285  0.3746
 2165SOL    MW4 8784   4.032   3.495   3.405 -0.3052  0.2692  0.3817
 2166SOL     OW 8785   4.258   3.610   3.540  0.1358  0.0150  0.1035
 2166SOL    HW2 8786   4.247   3.610   3.635  0.8056  0.6391  0.1899
 2166SOL    HW3 8787   4.270   3.702   3.517  0.8377 -0.2085 -0.4718
 2166SOL    MW4 8788   4.258   3.622   3.549  0.3171  0.0677  0.0389
 2167SOL     OW 8789   4.249   3.882   3.441  0.0402  0.6617 -0.3630
 2167SOL    HW2 8790   4.326   3.926   3.476  1.6286 -1.3379 -1.2143
 2167SOL    HW3 8791   4.266   3.874   3.347 -0.1543 -1.7685 -0.2320
 2167SOL    MW4 8792   4.261   3.887   3.433  0.2241  0.0770 -0.4578
 2168SOL     OW 8793   3.995   3.997   3.502 -0.7849 -0.1927  0.1053
 2168SOL    HW2 8794   4.073   3.952   3.468 -0.7849 -0.8212  0.9386
 2168SOL    HW3 8795   3.922   3.942   3.473 -0.7636 -0.9350  1.4256
 2168SOL    MW4 8796   3.995   3.984   3.494 -0.7820 -0.3734  0.3893
 2169SOL     OW 8797   4.017   4.244   3.373 -0.0195 -0.2927 -0.2640
 2169SOL    HW2 8798   4.093   4.289   3.410 -0.1023  0.3653 -0.8954
 2169SOL    HW3 8799   4.008   4.165   3.427  2.0726 -1.1914 -1.1377
 2169SOL    MW4 8800   4.026   4.239   3.385  0.2460 -0.3242 -0.4628
 2170SOL     OW 8801   4.239   4.381   3.465 -0.3078 -0.2823 -0.0031
 2170SOL    HW2 8802   4.245   4.387   3.560  0.8568 -0.5764 -0.0461
 2170SOL    HW3 8803   4.252   4.471   3.434 -0.2405 -0.2570  0.0989
 2170SOL    MW4 8804   4.242   4.394   3.474 -0.1454 -0.3176  0.0048
 2171SOL     OW 8805   0.210   0.005   3.863 -0.3977  0.5122 -0.0382
 2171SOL    HW2 8806   0.237   0.032   3.951 -0.8863 -0.4694  0.4229
 2171SOL    HW3 8807   0.124   0.044   3.852 -0.5783  0.1625  0.1409
 2171SOL    MW4 8808   0.202   0.014   3.873 -0.4860  0.3366  0.0463
 2172SOL     OW 8809   4.478   0.136   3.780 -0.0061 -0.5377  0.2818
 2172SOL    HW2 8810   4.482   0.221   3.824  0.2106  0.1409 -1.0030
 2172SOL    HW3 8811   4.461   0.158   3.688  0.4934 -1.8654 -0.1383
 2172SOL    MW4 8812   4.476   0.150   3.773  0.0887 -0.6233  0.0572
 2173SOL     OW 8813   4.480   0.392   3.879  0.2709  0.0676 -0.0442
 2173SOL    HW2 8814   4.393   0.427   3.859  0.0221 -0.2097  0.5506
 2173SOL    HW3 8815   4.541   0.456   3.840 -0.1892  0.8490  0.5027
 2173SOL    MW4 8816   4.477   0.405   3.871  0.1774  0.1341  0.1066
 2174SOL     OW 8817   0.197   0.529   3.772 -0.2044 -0.2002 -0.0942
 2174SOL    HW2 8818   0.209   0.620   3.798 -3.1070 -0.1847  1.4140
 2174SOL    HW3 8819   0.184   0.531   3.678 -0.7622  0.9938  0.0111
 2174SOL    MW4 8820   0.197   0.541   3.763 -0.6610 -0.0406  0.1190
 2175SOL     OW 8821   0.249   0.817   3.860  0.1623  0.4827 -0.2650
 2175SOL    HW2 8822   0.243   0.846   3.951  0.7251  1.2833 -0.4760
 2175SOL    HW3 8823   0.164   0.837   3.822 -0.6312 -1.3122  0.4899
 2175SOL    MW4 8824   0.237   0.823   3.867  0.1319  0.3515 -0.1931
 2176SOL     OW 8825   4.490   0.891   3.737 -0.3219  0.4698  0.0928
 2176SOL    HW2 8826   4.400   0.870   3.760  0.0078 -0.0512  0.9120
 2176SOL    HW3 8827   4.506   0.976   3.779 -0.0960  0.0729  0.8052
 2176SOL    MW4 8828   4.480   0.900   3.745 -0.2484  0.3487  0.2949
 2177SOL     OW 8829   0.046   1.135   3.856  0.2915 -0.0463  0.0317
 2177SOL    HW2 8830  -0.033   1.180   3.826  0.7013 -0.5397 -1.8325
 2177SOL    HW3 8831   0.118   1.181   3.814  0.9301 -0.3185  0.8126
 2177SOL    MW4 8832   0.045   1.147   3.847  0.4299 -0.1472 -0.1113
 2178SOL     OW 8833   2.500   2.413   4.214  0.4412  0.3024  0.0804
 2178SOL    HW2 8834   2.530   2.357   4.285  1.4787 -0.0055 -0.6012
 2178SOL    HW3 8835   2.429   2.465   4.253 -0.3978 -1.3239  0.7687
 2178SOL    MW4 8836   2.494   2.413   4.229  0.4675  0.0472  0.0815
 2179SOL     OW 8837   1.358   3.160   4.434 -0.2118  0.3345  0.7315
 2179SOL    HW2 8838   1.334   3.213   4.358  0.8749 -0.7986 -0.4145
 2179SOL    HW3 8839   1.277   3.114   4.456 -0.0278 -0.8661 -1.0054
 2179SOL    MW4 8840   1.344   3.161   4.427 -0.0440  0.0267  0.3510
 2180SOL     OW 8841   0.034   1.673   3.783 -0.0151  0.2600  0.1332
 2180SOL    HW2 8842   0.050   1.760   3.817 -0.6785  0.1412  0.7564
 2180SOL    HW3 8843   0.028   1.685   3.688  0.0285  0.8725  0.2072
 2180SOL    MW4 8844   0.035   1.686   3.775 -0.0969  0.3250  0.2251
 2181SOL     OW 8845   0.691   2.838   3.761  0.3251  0.0137 -0.7748
 2181SOL    HW2 8846   0.709   2.856   3.669 -1.5099 -1.1957 -1.4023
 2181SOL    HW3 8847   0.607   2.792   3.760  0.1912  0.1742  1.5243
 2181SOL    MW4 8848   0.682   2.834   3.749  0.0653 -0.1247 -0.5546
 2182SOL     OW 8849   3.075   0.773   4.761 -0.1785 -0.2626  0.1074
 2182SOL    HW2 8850   3.164   0.747   4.739  0.0621  0.6311  0.0024
 2182SOL    HW3 8851   3.084   0.859   4.802 -0.9917 -0.1480  0.0695
 2182SOL    MW4 8852   3.088   0.781   4.763 -0.2542 -0.1296  0.0887
 2183SOL     OW 8853   0.656   3.100   3.848 -0.3811 -0.3930 -0.2572
 2183SOL    HW2 8854   0.689   3.106   3.937  2.4881  1.0685 -1.3245
 2183SOL    HW3 8855   0.651   3.006   3.830  2.8092 -0.7297  0.2030
 2183SOL    MW4 8856   0.660   3.089   3.857  0.4183 -0.2446 -0.3374
 2184SOL     OW 8857   0.284   1.918   4.229 -0.2486  0.1907 -0.0132
 2184SOL    HW2 8858   0.222   1.990   4.243  1.2804  1.4792  0.3450
 2184SOL    HW3 8859   0.281   1.868   4.310 -0.7484  0.3142  0.0474
 2184SOL    MW4 8860   0.275   1.921   4.241 -0.1128  0.3771  0.0420
 2185SOL     OW 8861   0.047   2.472   3.767 -0.4649  0.2838 -0.4807
 2185SOL    HW2 8862   0.032   2.456   3.674 -0.4838  0.5943 -0.5325
 2185SOL    HW3 8863   0.132   2.432   3.785 -0.6736 -0.1778 -0.5259
 2185SOL    MW4 8864   0.057   2.465   3.757 -0.4949  0.2637 -0.4933
 2186SOL     OW 8865   0.225   2.854   3.825 -0.4240 -0.3531 -0.0237
 2186SOL    HW2 8866   0.220   2.949   3.833  0.6812 -0.3319  0.5579
 2186SOL    HW3 8867   0.192   2.835   3.738  0.5448  0.6883 -0.6322
 2186SOL    MW4 8868   0.220   2.864   3.815 -0.1504 -0.2129 -0.0274
 2187SOL     OW 8869   0.383   1.526   4.578 -0.1503 -0.3939 -0.0794
 2187SOL    HW2 8870   0.445   1.552   4.647 -1.9447 -0.9781  1.7850
 2187SOL    HW3 8871   0.363   1.608   4.532  0.0841  0.2141  0.8951
 2187SOL    MW4 8872   0.389   1.540   4.581 -0.3562 -0.3909  0.2956
 2188SOL     OW 8873   4.488   2.821   4.583 -0.5109 -0.3499 -0.0082
 2188SOL    HW2 8874   4.533   2.905   4.590  0.8049 -1.1285  1.0908
 2188SOL    HW3 8875   4.395   2.844   4.577 -0.0122  1.2733 -2.1569
 2188SOL    MW4 8876   4.481   2.835   4.583 -0.2714 -0.2384 -0.1469
 2189SOL     OW 8877   0.000   3.515   3.856 -0.4850 -0.3012 -0.1224
 2189SOL    HW2 8878   0.012   3.422   3.834  0.1352 -0.0669 -0.7779
 2189SOL    HW3 8879  -0.006   3.516   3.951  2.9024 -0.6529  0.1540
 2189SOL    MW4 8880   0.001   3.503   3.866  0.0437 -0.3169 -0.1724
 2190SOL     OW 8881   4.458   3.239   3.788  0.2397 -0.1505  0.4831
 2190SOL    HW2 8882   4.534   3.195   3.826  0.6525 -0.6139 -0.8673
 2190SOL    HW3 8883   4.383   3.190   3.821  0.6324 -1.0307  0.0733
 2190SOL    MW4 8884   4.458   3.227   3.798  0.3457 -0.3278  0.2506
 2191SOL     OW 8885   0.209   3.907   3.916 -0.2495 -0.2424 -0.2519
 2191SOL    HW2 8886   0.230   3.817   3.888  1.2823 -0.1272  0.4742
 2191SOL    HW3 8887   0.282   3.960   3.882  0.8124  0.1423  2.4973
 2191SOL    MW4 8888   0.222   3.902   3.908  0.0927 -0.1767  0.2065
 2192SOL     OW 8889   0.005   3.993   3.772  0.0013 -0.8711  0.1235
 2192SOL    HW2 8890  -0.074   3.968   3.819  0.1475 -0.2147  0.7323
 2192SOL    HW3 8891   0.076   3.952   3.821  0.3240  1.4222  1.6853
 2192SOL    MW4 8892   0.004   3.984   3.785  0.0631 -0.4818  0.4098
 2193SOL     OW 8893   4.487   4.289   3.845 -0.3304  0.7691 -0.3670
 2193SOL    HW2 8894   4.501   4.195   3.832  0.2265  0.7530  0.3061
 2193SOL    HW3 8895   4.560   4.331   3.800 -0.4070  0.8600 -0.4058
 2193SOL    MW4 8896   4.499   4.282   3.838 -0.2670  0.7792 -0.2830
 2194SOL     OW 8897   0.228   4.436   3.735  0.1788 -0.1802  0.1677
 2194SOL    HW2 8898   0.304   4.399   3.781  1.0098 -0.6058 -1.5267
 2194SOL    HW3 8899   0.223   4.526   3.767  1.2401 -0.2263  0.4850
 2194SOL    MW4 8900   0.237   4.443   3.746  0.4285 -0.2422 -0.0141
 2195SOL     OW 8901   0.646   0.007   3.815 -0.0053 -0.4092  0.1634
 2195SOL    HW2 8902   0.649  -0.085   3.789 -0.0259 -0.4659  0.3684
 2195SOL    HW3 8903   0.566   0.041   3.774  0.1317 -0.4201 -0.1164
 2195SOL    MW4 8904   0.635  -0.000   3.806  0.0101 -0.4181  0.1535
 2196SOL     OW 8905   0.411   0.145   3.718  0.3086 -0.0552  0.1944
 2196SOL    HW2 8906   0.424   0.234   3.750  0.1858  0.1310 -0.2715
 2196SOL    HW3 8907   0.352   0.105   3.781 -0.1436  0.3950  0.0618
 2196SOL    MW4 8908   0.405   0.151   3.730  0.2328  0.0287  0.1154
 2197SOL     OW 8909   0.438   0.380   3.849 -0.3439  0.2578 -0.0936
 2197SOL    HW2 8910   0.360   0.428   3.820 -0.5874 -0.4390 -0.5904
 2197SOL    HW3 8911   0.511   0.432   3.815 -0.6301 -0.6812 -2.1843
 2197SOL    MW4 8912   0.437   0.393   3.841 -0.4138  0.0419 -0.4351
 2198SOL     OW 8913   0.692   0.556   3.813 -0.1541 -0.7111  0.4045
 2198SOL    HW2 8914   0.777   0.514   3.829  0.9390  1.8191  1.4504
 2198SOL    HW3 8915   0.689   0.629   3.875 -3.0385 -0.6554  0.2726
 2198SOL    MW4 8916   0.703   0.560   3.823 -0.3905 -0.3700  0.5250
 2199SOL     OW 8917   4.339   3.958   4.692 -0.2374 -0.0065 -0.4524
 2199SOL    HW2 8918   4.394   3.894   4.647 -0.6498  0.2493 -1.3120
 2199SOL    HW3 8919   4.283   3.905   4.749  0.9887 -0.2615  0.5578
 2199SOL    MW4 8920   4.339   3.943   4.694 -0.1302 -0.0067 -0.4330
 2200SOL     OW 8921   0.467   0.910   3.717  0.3232  0.3932 -1.0533
 2200SOL    HW2 8922   0.476   0.995   3.758  1.8969 -1.2419  2.1506
 2200SOL    HW3 8923   0.391   0.870   3.760  1.7116 -1.1673 -0.0023
 2200SOL    MW4 8924   0.458   0.916   3.728  0.7140 -0.0284 -0.4921
 2201SOL     OW 8925   4.157   0.367   4.246 -0.3497 -0.1922  0.5239
 2201SOL    HW2 8926   4.245   0.356   4.209 -0.7022 -1.7134  0.0946
 2201SOL    HW3 8927   4.146   0.461   4.255  0.5247  0.1089 -1.3757
 2201SOL    MW4 8928   4.167   0.378   4.242 -0.2809 -0.3532  0.2170
 2202SOL     OW 8929   3.066   1.360   4.514  0.7295 -0.2755  0.0071
 2202SOL    HW2 8930   3.005   1.351   4.442  0.7653  1.1735 -0.2136
 2202SOL    HW3 8931   3.149   1.325   4.480  0.6431  0.0250 -0.5055
 2202SOL    MW4 8932   3.069   1.354   4.500  0.7229 -0.0445 -0.0896
 2203SOL     OW 8933   0.473   1.672   3.702  0.1361  0.3084  0.0630
 2203SOL    HW2 8934   0.550   1.631   3.742  0.2114 -0.7920 -1.1483
 2203SOL    HW3 8935   0.399   1.643   3.757  0.4166  0.1112  0.3375
 2203SOL    MW4 8936   0.473   1.663   3.714  0.1830  0.1373 -0.0608
 2204SOL     OW 8937   0.263   1.282   3.756 -0.0780 -0.0927 -0.5354
 2204SOL    HW2 8938   0.262   1.373   3.788 -0.9991 -0.5246  0.7108
 2204SOL    HW3 8939   0.253   1.290   3.661 -0.7222  1.0873 -0.3869
 2204SOL    MW4 8940   0.262   1.295   3.748 -0.2845  0.0061 -0.3517
 2205SOL     OW 8941   2.871   3.536   4.135  0.3523 -0.4163  0.1360
 2205SOL    HW2 8942   2.963   3.510   4.139 -0.2753 -2.6159  0.9913
 2205SOL    HW3 8943   2.834   3.508   4.218 -0.6040  2.5477  0.7631
 2205SOL    MW4 8944   2.879   3.529   4.146  0.1435 -0.3154  0.3314
 2206SOL     OW 8945   2.728   3.163   4.623 -0.0601 -0.1716 -0.0769
 2206SOL    HW2 8946   2.786   3.183   4.549  0.1260 -0.1304  0.0825
 2206SOL    HW3 8947   2.705   3.071   4.611  1.5215 -0.7069  0.9043
 2206SOL    MW4 8948   2.732   3.153   4.611  0.1731 -0.2367  0.0734
 2207SOL     OW 8949   1.425   3.491   4.115  0.2361 -0.0472 -0.4990
 2207SOL    HW2 8950   1.409   3.483   4.021  0.1877  1.0905 -0.6015
 2207SOL    HW3 8951   1.514   3.527   4.121  0.5741 -0.9319 -0.0834
 2207SOL    MW4 8952   1.435   3.495   4.104  0.2744 -0.0141 -0.4578
 2208SOL     OW 8953   2.476   1.539   3.868 -0.2357 -0.1024 -0.3628
 2208SOL    HW2 8954   2.550   1.599   3.864 -0.2626 -0.0975 -0.7413
 2208SOL    HW3 8955   2.460   1.528   3.962  0.8932 -0.9075 -0.2522
 2208SOL    MW4 8956   2.484   1.546   3.880 -0.0901 -0.2079 -0.3979
 2209SOL     OW 8957   3.846   4.379   4.257 -0.7211  0.0136 -0.9430
 2209SOL    HW2 8958   3.777   4.337   4.206  0.3053 -0.6134 -1.8355
 2209SOL    HW3 8959   3.919   4.318   4.254 -0.7063 -0.1400  1.4973
 2209SOL    MW4 8960   3.847   4.366   4.250 -0.5836 -0.0892 -0.7386
 2210SOL     OW 8961   0.883   2.686   3.871 -0.0814  0.3587  0.1372
 2210SOL    HW2 8962   0.865   2.685   3.965 -1.7755 -0.4378 -0.1746
 2210SOL    HW3 8963   0.814   2.740   3.834 -0.1434 -0.3519 -0.7871
 2210SOL    MW4 8964   0.872   2.693   3.879 -0.3130  0.1597 -0.0260
 2211SOL     OW 8965   0.741   2.938   4.296 -0.6223  0.0613 -0.1362
 2211SOL    HW2 8966   0.685   2.999   4.344  0.8149  0.5582  0.9267
 2211SOL    HW3 8967   0.726   2.853   4.338 -0.0061  0.3386  0.6521
 2211SOL    MW4 8968   0.732   2.935   4.308 -0.3514  0.1638  0.1082
 2212SOL     OW 8969   0.222   3.125   3.869  0.2504 -0.0597 -0.0125
 2212SOL    HW2 8970   0.298   3.177   3.844  0.3697 -0.6901 -0.9868
 2212SOL    HW3 8971   0.213   3.139   3.963  0.1312  1.9203 -0.2916
 2212SOL    MW4 8972   0.231   3.134   3.878  0.2504  0.1183 -0.1779
 2213SOL     OW 8973   0.445   3.275   3.767  0.0579  1.1420 -0.4592
 2213SOL    HW2 8974   0.516   3.219   3.797 -0.6337 -0.0742 -1.0623
 2213SOL    HW3 8975   0.461   3.360   3.809 -0.2592 -0.1805  2.4461
 2213SOL    MW4 8976   0.456   3.279   3.777 -0.0752  0.8070 -0.1557
 2214SOL     OW 8977   0.712   3.631   3.750 -0.6730 -0.0818 -0.4223
 2214SOL    HW2 8978   0.785   3.578   3.783 -0.9564 -0.5845 -0.6005
 2214SOL    HW3 8979   0.717   3.622   3.655  0.3109  1.5843 -0.5608
 2214SOL    MW4 8980   0.722   3.623   3.742 -0.5806  0.0718 -0.4640
 2215SOL     OW 8981   0.514   4.081   4.218  0.2285  0.0587  0.6033
 2215SOL    HW2 8982   0.444   4.019   4.197 -0.1727  0.5415  0.5091
 2215SOL    HW3 8983   0.488   4.162   4.175  1.4485 -0.0789 -0.4508
 2215SOL    MW4 8984   0.502   4.083   4.210  0.3366  0.1040  0.4516
 2216SOL     OW 8985   1.047   4.131   4.527 -0.7555  0.1441  0.3398
 2216SOL    HW2 8986   1.138   4.100   4.529 -0.9975 -0.4783  1.6289
 2216SOL    HW3 8987   1.004   4.075   4.462 -0.4138 -0.1056  0.3284
 2216SOL    MW4 8988   1.053   4.119   4.518 -0.7423  0.0291  0.5083
 2217SOL     OW 8989   0.451   4.026   3.806  0.8500 -0.0066  0.4599
 2217SOL    HW2 8990   0.515   3.960   3.834  1.8193  0.4384 -0.6288
 2217SOL    HW3 8991   0.453   4.022   3.710  1.7930  2.3815  0.3363
 2217SOL    MW4 8992   0.460   4.017   3.797  1.1023  0.3672  0.2999
 2218SOL     OW 8993   0.653   4.391   3.740  0.2329  0.2331  0.0432
 2218SOL    HW2 8994   0.732   4.354   3.780 -0.8671 -1.6641  0.5564
 2218SOL    HW3 8995   0.668   4.385   3.646  0.3983 -0.8857  0.1288
 2218SOL    MW4 8996   0.665   4.385   3.733  0.1096 -0.1645  0.1223
 2219SOL     OW 8997   1.125   4.623   3.895 -0.1896  0.0610  0.3935
 2219SOL    HW2 8998   1.045   4.673   3.876 -1.6957 -2.1979  0.5945
 2219SOL    HW3 8999   1.134   4.628   3.990 -1.0830 -1.0888  0.5560
 2219SOL    MW4 9000   1.115   4.630   3.905 -0.5060 -0.3887  0.4416
 2220SOL     OW 9001   0.917   0.131   3.769  0.3222 -0.1318  0.0563
 2220SOL    HW2 9002   0.831   0.108   3.804  0.7941 -1.8053  0.1839
 2220SOL    HW3 9003   0.927   0.224   3.787 -0.8272 -0.2556  1.3926
 2220SOL    MW4 9004   0.907   0.140   3.776  0.2328 -0.3690  0.2496
 2221SOL     OW 9005   0.907   0.396   3.876  0.0857 -0.1829  0.1647
 2221SOL    HW2 9006   0.910   0.425   3.967  1.4758 -0.0637  0.0872
 2221SOL    HW3 9007   0.987   0.431   3.837  0.2288 -1.4744 -0.7195
 2221SOL    MW4 9008   0.918   0.404   3.883  0.2880 -0.3375  0.0379
 2222SOL     OW 9009   1.787   1.739   3.724 -0.0788 -0.5647 -0.0359
 2222SOL    HW2 9010   1.838   1.818   3.705 -0.3444 -0.3890 -0.0159
 2222SOL    HW3 9011   1.704   1.771   3.759 -0.3742 -0.8389 -0.4761
 2222SOL    MW4 9012   1.783   1.753   3.726 -0.1527 -0.5777 -0.0913
 2223SOL     OW 9013   0.316   1.748   4.445  0.0466  0.0076  0.0845
 2223SOL    HW2 9014   0.406   1.776   4.425  0.0053  0.7474  0.9370
 2223SOL    HW3 9015   0.297   1.786   4.530 -1.7325  1.3696 -0.9027
 2223SOL    MW4 9016   0.326   1.757   4.453 -0.1936  0.2849  0.0672
 2224SOL     OW 9017   0.883   0.910   3.752 -0.5638 -0.1983 -0.1849
 2224SOL    HW2 9018   0.871   0.901   3.657  0.7232  0.1405 -0.3961
 2224SOL    HW3 9019   0.887   1.005   3.766  2.3719 -0.2595 -0.2468
 2224SOL    MW4 9020   0.882   0.921   3.741 -0.0067 -0.1618 -0.2208
 2225SOL     OW 9021   4.013   2.058   4.279 -0.1074  0.1557 -0.1711
 2225SOL    HW2 9022   3.964   2.055   4.361 -0.7239  1.6332 -0.4588
 2225SOL    HW3 9023   3.961   2.115   4.223  0.5908 -0.4171 -1.4011
 2225SOL    MW4 9024   4.000   2.065   4.283 -0.0968  0.2751 -0.3715
 2226SOL     OW 9025   2.314   4.497   4.174 -0.1246  0.2612 -0.2760
 2226SOL    HW2 9026   2.380   4.532   4.115 -0.2801  1.2185  0.1191
 2226SOL    HW3 9027   2.337   4.404   4.183  0.8794  0.4831 -0.5108
 2226SOL    MW4 9028   2.326   4.489   4.167 -0.0126  0.4168 -0.2551
 2227SOL     OW 9029   0.567   0.202   4.441 -0.0433  0.4379 -0.1237
 2227SOL    HW2 9030   0.624   0.272   4.472 -0.0274  1.1851 -1.7570
 2227SOL    HW3 9031   0.625   0.143   4.392 -0.4440  0.5497 -0.7493
 2227SOL    MW4 9032   0.582   0.203   4.438 -0.0941  0.5513 -0.4210
 2228SOL     OW 9033   3.589   3.834   4.851 -0.2137 -0.3580 -0.4268
 2228SOL    HW2 9034   3.525   3.783   4.801 -0.5510  0.5295 -0.9190
 2228SOL    HW3 9035   3.600   3.786   4.932 -3.2395  0.6087  0.6478
 2228SOL    MW4 9036   3.582   3.821   4.855 -0.6573 -0.1132 -0.3495
 2229SOL     OW 9037   0.363   2.987   4.502 -0.2924  0.6174  0.1278
 2229SOL    HW2 9038   0.330   2.945   4.422 -1.0990  0.3873  0.5768
 2229SOL    HW3 9039   0.443   3.032   4.474  0.2733 -0.7346 -0.4871
 2229SOL    MW4 9040   0.369   2.987   4.487 -0.3241  0.4089  0.1059
 2230SOL     OW 9041   0.950   1.707   3.789 -0.5061 -0.5965 -0.2870
 2230SOL    HW2 9042   1.032   1.662   3.807  0.3345  0.6236 -0.9615
 2230SOL    HW3 9043   0.959   1.793   3.832 -1.7767 -0.7688  0.3640
 2230SOL    MW4 9044   0.962   1.713   3.797 -0.5628 -0.4584 -0.2897
 2231SOL     OW 9045   0.818   1.281   4.708 -0.0613  0.3792 -0.4261
 2231SOL    HW2 9046   0.738   1.245   4.746  0.7373 -1.8776 -0.8384
 2231SOL    HW3 9047   0.877   1.207   4.701  2.1979  2.0632  0.1325
 2231SOL    MW4 9048   0.815   1.267   4.712  0.3421  0.3036 -0.4067
 2232SOL     OW 9049   2.451   3.596   4.640  0.1328  0.2476 -0.7000
 2232SOL    HW2 9050   2.476   3.508   4.670  0.4560  1.0197  1.3920
 2232SOL    HW3 9051   2.509   3.613   4.566  1.4089 -0.5625  0.0695
 2232SOL    MW4 9052   2.462   3.587   4.634  0.3438  0.2427 -0.3223
 2233SOL     OW 9053   1.890   2.654   4.064  0.2810 -0.0553  0.2859
 2233SOL    HW2 9054   1.975   2.636   4.104 -0.0096 -1.1304  0.4342
 2233SOL    HW3 9055   1.826   2.627   4.130 -0.2009 -1.6397 -0.7882
 2233SOL    MW4 9056   1.893   2.648   4.078  0.1789 -0.4063  0.1640
 2234SOL     OW 9057   0.829   2.618   4.149 -0.2116  0.1195 -0.3094
 2234SOL    HW2 9058   0.873   2.533   4.159  2.3696  1.4866  0.2813
 2234SOL    HW3 9059   0.793   2.637   4.236  0.1517  0.1368 -0.1636
 2234SOL    MW4 9060   0.830   2.609   4.162  0.1768  0.3021 -0.2131
 2235SOL     OW 9061   1.113   2.808   3.780  0.3070  0.1903 -0.5369
 2235SOL    HW2 9062   1.188   2.749   3.789  0.0983  0.0762  0.5225
 2235SOL    HW3 9063   1.039   2.756   3.809 -0.0013  0.7178 -0.3854
 2235SOL    MW4 9064   1.113   2.793   3.785  0.2389  0.2449 -0.3772
 2236SOL     OW 9065   1.237   3.044   4.759  0.1102 -0.0283  0.2239
 2236SOL    HW2 9066   1.188   2.973   4.800  0.0430 -0.0357  0.1273
 2236SOL    HW3 9067   1.306   3.000   4.709 -0.1787 -0.0362 -0.1623
 2236SOL    MW4 9068   1.240   3.029   4.758  0.0632 -0.0300  0.1602
 2237SOL     OW 9069   0.896   3.464   3.836  0.3965  0.0945 -0.6501
 2237SOL    HW2 9070   0.885   3.450   3.931  1.6869  1.8929 -0.2007
 2237SOL    HW3 9071   0.883   3.378   3.798  3.0266 -1.3564  1.5021
 2237SOL    MW4 9072   0.893   3.451   3.844  0.9138  0.1402 -0.3071
 2238SOL     OW 9073   1.142   3.567   3.807  0.0538  0.4630 -0.1334
 2238SOL    HW2 9074   1.144   3.653   3.847 -0.1238  0.9290 -1.1047
 2238SOL    HW3 9075   1.050   3.540   3.813  0.1475  0.2514  0.3559
 2238SOL    MW4 9076   1.130   3.574   3.813  0.0427  0.4969 -0.1967
 2239SOL     OW 9077   0.904   4.003   3.732 -0.7600  0.0453 -0.2158
 2239SOL    HW2 9078   0.974   3.943   3.755 -1.0866 -0.4851 -0.6076
 2239SOL    HW3 9079   0.910   4.013   3.637 -2.0966 -1.1115 -0.4427
 2239SOL    MW4 9080   0.914   3.997   3.723 -0.9795 -0.1774 -0.2975
 2240SOL     OW 9081   0.693   3.876   3.886 -0.0294  0.1811  0.1972
 2240SOL    HW2 9082   0.756   3.934   3.843 -0.0515  0.5923  0.7070
 2240SOL    HW3 9083   0.702   3.792   3.841  0.6870  0.3179  0.0791
 2240SOL    MW4 9084   0.703   3.872   3.875  0.0622  0.2534  0.2489
 2241SOL     OW 9085   0.900   4.253   3.841  0.0846 -0.3060  0.2492
 2241SOL    HW2 9086   0.912   4.233   3.934  0.0394  0.2569  0.3770
 2241SOL    HW3 9087   0.906   4.168   3.797  0.7629 -0.4902  0.6967
 2241SOL    MW4 9088   0.902   4.239   3.847  0.1681 -0.2556  0.3252
 2242SOL     OW 9089   1.131   4.379   3.763  0.0560 -0.4185 -0.3960
 2242SOL    HW2 9090   1.056   4.329   3.796 -1.6439  1.7452 -0.9028
 2242SOL    HW3 9091   1.133   4.458   3.817  0.0987  0.9770 -2.3822
 2242SOL    MW4 9092   1.121   4.383   3.775 -0.1628  0.0510 -0.7248
 2243SOL     OW 9093   1.688   0.075   4.120  0.3786  0.0150 -0.4309
 2243SOL    HW2 9094   1.783   0.079   4.131  0.2435  0.3146  0.7132
 2243SOL    HW3 9095   1.654   0.132   4.189 -0.7372 -2.4152  1.1088
 2243SOL    MW4 9096   1.696   0.083   4.131  0.2136 -0.2661 -0.0768
 2244SOL     OW 9097   1.315   0.135   3.781  0.2149 -0.4307  0.3227
 2244SOL    HW2 9098   1.254   0.063   3.799  0.3288 -0.5220  0.3486
 2244SOL    HW3 9099   1.400   0.100   3.806  0.6022 -1.1363 -1.8649
 2244SOL    MW4 9100   1.318   0.121   3.787  0.2810 -0.5358  0.0372
 2245SOL     OW 9101   2.351   2.679   4.592  0.0155  0.1753  0.3407
 2245SOL    HW2 9102   2.272   2.641   4.630  0.2082  1.1023  1.7137
 2245SOL    HW3 9103   2.320   2.760   4.550  0.0116 -0.2007 -0.3923
 2245SOL    MW4 9104   2.336   2.685   4.591  0.0405  0.2480  0.4249
 2246SOL     OW 9105   1.523   0.790   3.824  0.1831  0.8834 -0.2410
 2246SOL    HW2 9106   1.603   0.833   3.796 -0.2845  2.4831  0.7829
 2246SOL    HW3 9107   1.541   0.763   3.915  0.0978 -0.1720 -0.5220
 2246SOL    MW4 9108   1.536   0.792   3.833  0.1101  0.9553 -0.1426
 2247SOL     OW 9109   1.450   0.520   4.616 -0.1538  0.3451  0.2335
 2247SOL    HW2 9110   1.415   0.609   4.620 -0.7189  0.0808  1.5040
 2247SOL    HW3 9111   1.523   0.520   4.679 -0.4667 -0.2074  0.6084
 2247SOL    MW4 9112   1.455   0.532   4.625 -0.2698  0.2373  0.4506
 2248SOL     OW 9113   1.167   1.318   3.733 -0.4244 -0.7501 -0.1569
 2248SOL    HW2 9114   1.194   1.406   3.759 -0.5592 -0.5820 -0.5968
 2248SOL    HW3 9115   1.227   1.260   3.781  0.3472 -0.3881 -0.6824
 2248SOL    MW4 9116   1.179   1.322   3.743 -0.3403 -0.6803 -0.2844
 2249SOL     OW 9117   0.678   1.298   3.669  0.1537  0.4693 -0.0946
 2249SOL    HW2 9118   0.672   1.309   3.574 -0.9975  0.1184 -0.0706
 2249SOL    HW3 9119   0.693   1.386   3.703 -0.0408  0.6839 -0.5618
 2249SOL    MW4 9120   0.679   1.311   3.661 -0.0238  0.4513 -0.1531
 2250SOL     OW 9121   1.813   1.076   4.784  0.4290 -0.1675  0.1358
 2250SOL    HW2 9122   1.722   1.105   4.786  0.4271 -0.1569 -0.1369
 2250SOL    HW3 9123   1.809   0.981   4.797  0.4986  0.0691  2.1356
 2250SOL    MW4 9124   1.801   1.067   4.786  0.4380 -0.1349  0.3643
 2251SOL     OW 9125   4.475   3.261   4.197 -0.3350 -0.1599 -0.5116
 2251SOL    HW2 9126   4.561   3.221   4.199 -0.1179  0.3035 -0.6089
 2251SOL    HW3 9127   4.460   3.291   4.287 -0.0049  0.5821 -0.6985
 2251SOL    MW4 9128   4.484   3.260   4.209 -0.2628 -0.0007 -0.5484
 2252SOL     OW 9129   1.218   1.938   3.686  0.2952 -0.5127  0.5105
 2252SOL    HW2 9130   1.137   1.959   3.734  0.7400  0.6296  0.7746
 2252SOL    HW3 9131   1.264   2.022   3.680  0.8597 -0.9066 -0.7790
 2252SOL    MW4 9132   1.213   1.952   3.692  0.4283 -0.4141  0.3753
 2253SOL     OW 9133   2.643   2.639   4.648  0.1097  0.2464 -0.0520
 2253SOL    HW2 9134   2.681   2.722   4.619  1.2186  0.6099  2.3362
 2253SOL    HW3 9135   2.552   2.661   4.669  0.2218  0.6975 -0.0366
 2253SOL    MW4 9136   2.636   2.653   4.647  0.2706  0.3541  0.2651
 2254SOL     OW 9137   1.081   1.560   3.346 -0.0110  0.2471 -0.4673
 2254SOL    HW2 9138   1.072   1.539   3.253  0.0304 -0.6882 -0.2651
 2254SOL    HW3 9139   1.168   1.600   3.353  0.5308 -0.8918 -0.6185
 2254SOL    MW4 9140   1.091   1.562   3.334  0.0660 -0.0267 -0.4606
 2255SOL     OW 9141   1.067   0.605   4.570 -0.1044 -0.2377  0.0837
 2255SOL    HW2 9142   0.986   0.654   4.559  1.2247  1.7456 -1.2846
 2255SOL    HW3 9143   1.102   0.634   4.655  0.1009  0.3084 -0.1884
 2255SOL    MW4 9144   1.061   0.615   4.580  0.0981  0.0961 -0.1326
 2256SOL     OW 9145   3.117   0.392   4.141 -0.3151  0.0616 -0.2070
 2256SOL    HW2 9146   3.028   0.425   4.158 -0.0981  0.6786 -0.2691
 2256SOL    HW3 9147   3.122   0.386   4.046  0.2015  1.3829 -0.2644
 2256SOL    MW4 9148   3.106   0.395   4.131 -0.2184  0.3173 -0.2227
 2257SOL     OW 9149   0.494   2.895   4.171  0.2774 -0.0664 -0.3709
 2257SOL    HW2 9150   0.580   2.915   4.207  0.5548 -1.0486 -0.4607
 2257SOL    HW3 9151   0.504   2.809   4.131 -0.7515 -0.2025 -0.3614
 2257SOL    MW4 9152   0.507   2.886   4.171  0.1783 -0.2136 -0.3815
 2258SOL     OW 9153   2.923   2.376   4.123  0.1790 -0.0703  0.4653
 2258SOL    HW2 9154   2.918   2.366   4.028 -1.6184  1.6712  0.3474
 2258SOL    HW3 9155   3.010   2.414   4.138  1.2415 -2.0974 -0.2811
 2258SOL    MW4 9156   2.934   2.380   4.112  0.0820 -0.1080  0.3514
 2259SOL     OW 9157   1.613   3.062   3.821 -0.2918 -0.4057  0.6571
 2259SOL    HW2 9158   1.525   3.072   3.784 -0.1343  0.5482  0.5301
 2259SOL    HW3 9159   1.599   3.051   3.915 -0.6060 -1.3302  0.5059
 2259SOL    MW4 9160   1.600   3.062   3.829 -0.3124 -0.4017  0.6201
 2260SOL     OW 9161   1.366   3.176   3.720 -0.0748 -0.2531 -0.2010
 2260SOL    HW2 9162   1.368   3.259   3.768 -0.0024 -0.3953  0.0414
 2260SOL    HW3 9163   1.281   3.138   3.742  0.1048 -0.4848  0.0975
 2260SOL    MW4 9164   1.355   3.182   3.730 -0.0416 -0.3021 -0.1299
 2261SOL     OW 9165   1.390   3.434   3.838  0.3707  0.0939  0.5221
 2261SOL    HW2 9166   1.456   3.494   3.801  0.9599  0.6956  2.4997
 2261SOL    HW3 9167   1.307   3.481   3.828  0.4223 -0.0333 -0.6128
 2261SOL    MW4 9168   1.388   3.448   3.832  0.4553  0.1566  0.6330
 2262SOL     OW 9169   1.638   3.614   3.771 -0.3002 -0.1983 -0.1129
 2262SOL    HW2 9170   1.702   3.563   3.822  0.2568 -1.1321 -1.6981
 2262SOL    HW3 9171   1.631   3.697   3.818 -0.1721 -1.2071  1.7498
 2262SOL    MW4 9172   1.646   3.618   3.784 -0.2098 -0.4549 -0.0763
 2263SOL     OW 9173   1.566   3.903   3.879  0.0495  0.0208 -0.4808
 2263SOL    HW2 9174   1.583   3.960   3.954 -0.2264 -0.2774 -0.1900
 2263SOL    HW3 9175   1.484   3.936   3.843 -0.2130 -0.3095 -0.1951
 2263SOL    MW4 9176   1.557   3.915   3.884 -0.0215 -0.0622 -0.4046
 2264SOL     OW 9177   1.342   4.007   3.761  0.1553 -0.3219  0.1136
 2264SOL    HW2 9178   1.343   4.096   3.796 -1.0991 -0.5657  0.8038
 2264SOL    HW3 9179   1.347   4.018   3.666 -0.0315  0.4923  0.1950
 2264SOL    MW4 9180   1.342   4.020   3.753 -0.0347 -0.2465  0.2155
 2265SOL     OW 9181   1.583   4.418   3.772 -0.2664  0.8241 -0.2680
 2265SOL    HW2 9182   1.578   4.410   3.677  0.3695  0.9191 -0.3127
 2265SOL    HW3 9183   1.669   4.382   3.794 -1.1333 -0.8628  0.4594
 2265SOL    MW4 9184   1.594   4.412   3.762 -0.2970  0.6142 -0.1781
 2266SOL     OW 9185   1.814   4.279   3.846  0.1669 -0.3824 -0.6768
 2266SOL    HW2 9186   1.889   4.318   3.800  0.8345 -1.2443 -0.3219
 2266SOL    HW3 9187   1.806   4.191   3.808 -1.2252  0.0216 -1.3508
 2266SOL    MW4 9188   1.823   4.273   3.835  0.0713 -0.4430 -0.7188
 2267SOL     OW 9189   1.984   4.630   3.899  0.1690 -0.0222  0.1416
 2267SOL    HW2 9190   2.063   4.668   3.860  0.2274  0.2514  0.5193
 2267SOL    HW3 9191   1.961   4.558   3.841  0.8778 -0.2971  0.1949
 2267SOL    MW4 9192   1.992   4.626   3.887  0.2704 -0.0224  0.1984
 2268SOL     OW 9193   1.791   0.140   3.768 -0.2225  0.0816  0.0656
 2268SOL    HW2 9194   1.854   0.119   3.837  0.0096 -0.3548 -0.2798
 2268SOL    HW3 9195   1.708   0.101   3.798  0.2894 -1.6980 -0.7573
 2268SOL    MW4 9196   1.788   0.132   3.781 -0.1245 -0.2108 -0.0882
 2269SOL     OW 9197   1.990   0.572   3.768 -0.3227 -0.0788 -0.1401
 2269SOL    HW2 9198   2.075   0.533   3.791 -0.3331  0.2682  0.4987
 2269SOL    HW3 9199   1.925   0.508   3.799 -0.3096 -0.0775 -0.1094
 2269SOL    MW4 9200   1.993   0.558   3.775 -0.3225 -0.0328 -0.0515
 2270SOL     OW 9201   0.016   1.787   4.738 -0.1323 -0.0411  0.1952
 2270SOL    HW2 9202   0.032   1.703   4.693  0.2637 -0.2027  0.6347
 2270SOL    HW3 9203   0.102   1.830   4.738 -0.2746  0.2383  0.2286
 2270SOL    MW4 9204   0.030   1.781   4.732 -0.0988 -0.0257  0.2580
 2271SOL     OW 9205   2.852   4.578   4.135  0.4530 -0.2060 -0.2840
 2271SOL    HW2 9206   2.859   4.635   4.212  2.2668  0.6631 -1.0762
 2271SOL    HW3 9207   2.865   4.490   4.170  2.8829  0.3121  0.2057
 2271SOL    MW4 9208   2.854   4.574   4.150  1.0128 -0.0229 -0.3247
 2272SOL     OW 9209   0.333   4.479   4.537 -0.3143  0.0203 -0.0285
 2272SOL    HW2 9210   0.423   4.466   4.568 -0.1311  1.2400 -0.0249
 2272SOL    HW3 9211   0.297   4.391   4.530  0.9881 -0.4976 -0.3317
 2272SOL    MW4 9212   0.340   4.466   4.540 -0.1183  0.1130 -0.0682
 2273SOL     OW 9213   1.107   0.789   3.836 -0.8304 -0.2051 -0.2160
 2273SOL    HW2 9214   1.178   0.839   3.796 -0.6470 -0.3533 -0.0734
 2273SOL    HW3 9215   1.027   0.837   3.811 -0.6054  0.5785  0.5471
 2273SOL    MW4 9216   1.106   0.802   3.827 -0.7765 -0.1212 -0.0966
 2274SOL     OW 9217   1.379   2.680   3.795  0.2352  0.0859 -0.1202
 2274SOL    HW2 9218   1.392   2.667   3.889 -1.6363 -0.3400  0.1110
 2274SOL    HW3 9219   1.388   2.592   3.758 -0.1819  0.0647 -0.1753
 2274SOL    MW4 9220   1.382   2.666   3.803 -0.0666  0.0269 -0.0968
 2275SOL     OW 9221   1.994   1.582   3.837  0.3443 -0.6657  0.2909
 2275SOL    HW2 9222   2.078   1.627   3.829  0.4894 -1.1414 -1.0138
 2275SOL    HW3 9223   1.929   1.646   3.809  0.2332 -0.2086  1.5565
 2275SOL    MW4 9224   1.996   1.596   3.832  0.3487 -0.6682  0.2859
 2276SOL     OW 9225   0.635   2.312   4.259 -0.3585  0.5666  0.6052
 2276SOL    HW2 9226   0.723   2.344   4.239 -0.5583  0.5250 -0.3386
 2276SOL    HW3 9227   0.606   2.367   4.332  0.7188  0.1285  1.3909
 2276SOL    MW4 9228   0.643   2.323   4.266 -0.2427  0.5031  0.5841
 2277SOL     OW 9229   1.467   0.088   4.751  0.3368  0.5145  0.0823
 2277SOL    HW2 9230   1.495   0.118   4.837 -2.9875 -2.1668  2.2119
 2277SOL    HW3 9231   1.531   0.020   4.728  0.4159  0.2569  1.0593
 2277SOL    MW4 9232   1.479   0.083   4.759 -0.0913  0.1268  0.4921
 2278SOL     OW 9233   1.719   1.918   3.068  0.0071 -0.4496  0.0600
 2278SOL    HW2 9234   1.647   1.963   3.024  0.0758 -1.0644 -0.7025
 2278SOL    HW3 9235   1.798   1.956   3.030  0.0665 -2.1767 -1.6395
 2278SOL    MW4 9236   1.720   1.929   3.057  0.0240 -0.7586 -0.2649
 2279SOL     OW 9237   0.227   3.613   4.566 -0.1097 -0.1577  0.6872
 2279SOL    HW2 9238   0.228   3.616   4.470 -0.8911  0.6994  0.6987
 2279SOL    HW3 9239   0.317   3.634   4.591  0.3807 -1.5558  0.1162
 2279SOL    MW4 9240   0.239   3.616   4.557 -0.1481 -0.2291  0.6132
 2280SOL     OW 9241   2.602   2.361   4.767  0.1468  0.4862 -0.1410
 2280SOL    HW2 9242   2.518   2.343   4.724  0.4217 -0.6299 -0.2022
 2280SOL    HW3 9243   2.621   2.452   4.743 -1.1898  0.8504  0.1220
 2280SOL    MW4 9244   2.593   2.371   4.758  0.0069  0.3870 -0.1149
 2281SOL     OW 9245   1.946   3.320   4.163 -0.0693  0.6302 -0.2276
 2281SOL    HW2 9246   1.851   3.307   4.156  0.1439 -0.5756 -1.0876
 2281SOL    HW3 9247   1.969   3.287   4.250 -0.2178 -0.4805 -0.6111
 2281SOL    MW4 9248   1.937   3.314   4.173 -0.0609  0.3245 -0.3920
 2282SOL     OW 9249   2.005   2.868   3.773 -0.0865  0.1473  0.0563
 2282SOL    HW2 9250   1.944   2.799   3.797 -1.0386  1.2086  0.7459
 2282SOL    HW3 9251   2.090   2.837   3.804 -0.1193 -1.6892 -1.6206
 2282SOL    MW4 9252   2.008   2.855   3.780 -0.2165  0.0451 -0.0741
 2283SOL     OW 9253   2.283   3.224   3.769 -0.3514 -0.8078 -0.0343
 2283SOL    HW2 9254   2.292   3.314   3.800  1.0386 -0.8088 -0.4250
 2283SOL    HW3 9255   2.200   3.194   3.807 -0.9987  0.7452 -0.1986
 2283SOL    MW4 9256   2.273   3.232   3.778 -0.2532 -0.6034 -0.1075
 2284SOL     OW 9257   1.780   3.273   3.772 -0.0123  0.5594  0.5802
 2284SOL    HW2 9258   1.718   3.207   3.802  0.3329  0.4304  1.0271
 2284SOL    HW3 9259   1.866   3.231   3.781  0.2064  1.0560  0.8353
 2284SOL    MW4 9260   1.784   3.259   3.777  0.0621  0.6080  0.6728
 2285SOL     OW 9261   2.841   4.588   4.612 -0.0138 -0.3422 -0.3329
 2285SOL    HW2 9262   2.935   4.578   4.623 -0.3289 -2.7702  0.2553
 2285SOL    HW3 9263   2.832   4.642   4.534  1.8203 -2.0565 -1.7664
 2285SOL    MW4 9264   2.852   4.594   4.603  0.1867 -0.8888 -0.4449
 2286SOL     OW 9265   2.046   3.634   3.775 -0.0234  0.1647 -0.2457
 2286SOL    HW2 9266   2.127   3.595   3.808 -1.0742 -1.0295  0.9843
 2286SOL    HW3 9267   2.055   3.631   3.680  1.1874 -0.3507 -0.1254
 2286SOL    MW4 9268   2.058   3.628   3.767 -0.0024 -0.0608 -0.0675
 2287SOL     OW 9269   1.839   3.508   3.930  0.3740  0.4012 -0.7076
 2287SOL    HW2 9270   1.910   3.552   3.885  1.6645  0.1173  0.9908
 2287SOL    HW3 9271   1.831   3.423   3.886  0.6997  0.6672 -1.2718
 2287SOL    MW4 9272   1.847   3.502   3.919  0.5873  0.3989 -0.5577
 2288SOL     OW 9273   1.788   4.023   3.737 -0.6114  0.5685 -0.1268
 2288SOL    HW2 9274   1.866   3.979   3.772  0.4254  0.0342 -2.9615
 2288SOL    HW3 9275   1.715   3.983   3.784  0.7196  0.0691  1.5707
 2288SOL    MW4 9276   1.789   4.012   3.748 -0.2990  0.4320 -0.2766
 2289SOL     OW 9277   1.920   0.401   4.596  0.2834 -0.1709  0.3377
 2289SOL    HW2 9278   1.861   0.456   4.545  0.1400  0.2680  0.9712
 2289SOL    HW3 9279   1.998   0.455   4.611  0.3083 -0.2811  0.6135
 2289SOL    MW4 9280   1.923   0.415   4.591  0.2677 -0.1275  0.4573
 2290SOL     OW 9281   2.023   4.422   3.718 -0.1941  0.0646  0.8773
 2290SOL    HW2 9282   2.100   4.371   3.740  0.8416  0.8862 -0.7030
 2290SOL    HW3 9283   2.020   4.420   3.622 -0.2329  2.7630  0.7896
 2290SOL    MW4 9284   2.033   4.415   3.708 -0.0627  0.5288  0.6571
 2291SOL     OW 9285   2.459   4.645   3.852  0.4486  0.0647  0.0150
 2291SOL    HW2 9286   2.486   4.631   3.943 -1.8454 -0.0722  0.7009
 2291SOL    HW3 9287   2.529   4.698   3.815  0.5063  1.7696  2.4106
 2291SOL    MW4 9288   2.472   4.650   3.859  0.1535  0.2716  0.4213
 2292SOL     OW 9289   2.211   0.090   3.783  0.3928  0.4246 -0.0457
 2292SOL    HW2 9290   2.295   0.059   3.815 -0.0174 -0.8813 -0.2146
 2292SOL    HW3 9291   2.219   0.088   3.688 -0.7275 -2.3492 -0.1418
 2292SOL    MW4 9292   2.223   0.086   3.775  0.1910 -0.1136 -0.0808
 2293SOL     OW 9293   1.984   0.839   3.882 -0.2986 -0.1942 -0.3707
 2293SOL    HW2 9294   1.976   0.745   3.864  0.6452 -0.8922  2.5784
 2293SOL    HW3 9295   1.920   0.880   3.824 -1.1973 -2.7087 -1.2230
 2293SOL    MW4 9296   1.975   0.832   3.872 -0.2927 -0.6181 -0.0939
 2294SOL     OW 9297   2.433   0.471   3.779 -0.4724 -0.4104  0.0040
 2294SOL    HW2 9298   2.351   0.422   3.784 -0.0669 -1.0963  0.0277
 2294SOL    HW3 9299   2.439   0.499   3.687  0.1802 -1.9758 -0.4478
 2294SOL    MW4 9300   2.423   0.468   3.767 -0.3331 -0.7074 -0.0522
 2295SOL     OW 9301   2.089   3.095   4.117 -0.5196  0.1249 -0.1361
 2295SOL    HW2 9302   2.031   3.030   4.157  0.4978 -0.1450  0.9145
 2295SOL    HW3 9303   2.042   3.178   4.126 -0.7173 -0.0819  0.7916
 2295SOL    MW4 9304   2.075   3.098   4.124 -0.4113  0.0620  0.1249
 2296SOL     OW 9305   2.205   0.933   3.720  0.2586 -0.4743  0.0435
 2296SOL    HW2 9306   2.273   0.882   3.764 -0.2705 -1.1090  0.1264
 2296SOL    HW3 9307   2.122   0.896   3.752 -0.1488  1.4984  1.3544
 2296SOL    MW4 9308   2.203   0.922   3.730  0.1349 -0.2978  0.2277
 2297SOL     OW 9309   1.770   0.415   3.852  0.5370 -0.4649 -0.4453
 2297SOL    HW2 9310   1.767   0.336   3.798 -0.3857 -0.3880 -0.5102
 2297SOL    HW3 9311   1.689   0.462   3.831  0.2907 -0.3050  0.7927
 2297SOL    MW4 9312   1.759   0.411   3.842  0.3828 -0.4336 -0.2906
 2298SOL     OW 9313   2.448   1.279   3.749  0.3759 -0.0414 -0.3732
 2298SOL    HW2 9314   2.362   1.246   3.774  1.4323 -1.5849  1.4186
 2298SOL    HW3 9315   2.464   1.353   3.807  0.2327  0.2967 -0.7608
 2298SOL    MW4 9316   2.439   1.284   3.760  0.4964 -0.2004 -0.1881
 2299SOL     OW 9317   1.984   1.969   3.699  0.0840  0.4166 -0.0139
 2299SOL    HW2 9318   2.046   1.951   3.769 -1.3077 -1.6384  0.7411
 2299SOL    HW3 9319   1.930   2.041   3.732  0.5269  0.6065  0.2965
 2299SOL    MW4 9320   1.985   1.976   3.712 -0.0411  0.1706  0.1264
 2300SOL     OW 9321   0.518   4.137   4.500  0.1356  0.3363 -0.0837
 2300SOL    HW2 9322   0.521   4.135   4.405  1.7846 -0.9268 -0.0072
 2300SOL    HW3 9323   0.548   4.051   4.528 -0.7354  0.5408  1.5806
 2300SOL    MW4 9324   0.522   4.125   4.491  0.2382  0.1965  0.1454
 2301SOL     OW 9325   4.102   3.153   4.528 -0.0986  0.2658 -0.2622
 2301SOL    HW2 9326   4.087   3.168   4.435 -0.4510  1.8787  0.0356
 2301SOL    HW3 9327   4.161   3.078   4.531  3.7544  3.1120 -1.9479
 2301SOL    MW4 9328   4.107   3.145   4.516  0.3633  0.8540 -0.4454
 2302SOL     OW 9329   4.336   0.392   4.512 -0.2814  0.0374 -0.0633
 2302SOL    HW2 9330   4.276   0.331   4.470 -1.2149  0.1544  1.0735
 2302SOL    HW3 9331   4.380   0.341   4.580 -0.4281  0.4067  0.3121
 2302SOL    MW4 9332   4.334   0.377   4.516 -0.4239  0.1016  0.1359
 2303SOL     OW 9333   2.704   2.465   3.719 -0.3061 -0.0928  0.1404
 2303SOL    HW2 9334   2.631   2.412   3.751 -0.7747  0.3367 -0.1983
 2303SOL    HW3 9335   2.701   2.545   3.772  0.0661 -0.1785  0.2891
 2303SOL    MW4 9336   2.694   2.469   3.730 -0.3188 -0.0474  0.1152
 2304SOL     OW 9337   1.384   2.363   4.716  0.1260 -0.2086 -0.1834
 2304SOL    HW2 9338   1.358   2.282   4.760  2.5301 -0.8184  0.2251
 2304SOL    HW3 9339   1.381   2.342   4.623 -0.5855 -0.3341 -0.1343
 2304SOL    MW4 9340   1.380   2.349   4.710  0.3492 -0.3057 -0.1230
 2305SOL     OW 9341   2.276   2.922   4.488  0.0204  0.0060 -0.3167
 2305SOL    HW2 9342   2.180   2.926   4.495  0.1265 -0.2315  1.4659
 2305SOL    HW3 9343   2.302   3.012   4.468 -0.4840  0.3137  0.4050
 2305SOL    MW4 9344   2.267   2.934   4.486 -0.0322  0.0157  0.0138
 2306SOL     OW 9345   2.441   2.816   3.750  0.0329  0.5617  0.2520
 2306SOL    HW2 9346   2.367   2.778   3.797  0.2900  0.7293  0.7930
 2306SOL    HW3 9347   2.414   2.814   3.658 -1.0347  1.4883  0.5318
 2306SOL    MW4 9348   2.428   2.811   3.744 -0.0737  0.7062  0.3605
 2307SOL     OW 9349   2.234   2.697   3.873 -0.0538  0.5464  0.2481
 2307SOL    HW2 9350   2.218   2.700   3.968  3.3922 -1.2427  0.9825
 2307SOL    HW3 9351   2.196   2.614   3.845 -1.1314  1.1062  0.0455
 2307SOL    MW4 9352   2.227   2.686   3.882  0.2587  0.3841  0.3181
 2308SOL     OW 9353   2.478   3.071   3.872 -0.0779  0.6585  0.1787
 2308SOL    HW2 9354   2.408   3.126   3.835  0.7120  1.1575 -0.5783
 2308SOL    HW3 9355   2.474   2.989   3.823 -1.2540  0.0265  1.3043
 2308SOL    MW4 9356   2.468   3.068   3.861 -0.1290  0.6409  0.2272
 2309SOL     OW 9357   2.278   3.493   3.856 -0.1713  0.0975 -0.1764
 2309SOL    HW2 9358   2.283   3.479   3.950  1.9970 -1.5798 -0.4981
 2309SOL    HW3 9359   2.355   3.546   3.835 -1.9176  2.5149 -0.7066
 2309SOL    MW4 9360   2.289   3.498   3.865 -0.1156  0.1948 -0.2887
 2310SOL     OW 9361   2.534   3.630   3.798 -0.3434 -0.4064  0.1969
 2310SOL    HW2 9362   2.583   3.556   3.835 -0.0866 -0.5568 -0.4447
 2310SOL    HW3 9363   2.544   3.621   3.703  0.4503  0.9616  0.1312
 2310SOL    MW4 9364   2.542   3.619   3.790 -0.2050 -0.2456  0.1037
 2311SOL     OW 9365   2.511   3.900   3.840  0.3006  0.0868  0.3549
 2311SOL    HW2 9366   2.548   3.919   3.926  1.5584 -0.4962 -0.0544
 2311SOL    HW3 9367   2.510   3.804   3.834  0.6159  0.1329 -0.4574
 2311SOL    MW4 9368   2.516   3.890   3.850  0.5081  0.0160  0.1934
 2312SOL     OW 9369   2.272   4.002   3.736  0.5207 -0.2211  0.4228
 2312SOL    HW2 9370   2.355   3.967   3.768  0.8129 -0.0601 -0.1703
 2312SOL    HW3 9371   2.285   4.015   3.643  0.4601  1.6017  0.6577
 2312SOL    MW4 9372   2.284   3.999   3.728  0.5515  0.0405  0.3755
 2313SOL     OW 9373   2.252   4.271   3.824  0.1167  0.1238  0.1850
 2313SOL    HW2 9374   2.222   4.253   3.913  1.4288 -0.0757  0.6011
 2313SOL    HW3 9375   2.256   4.185   3.782  0.8919  0.0505  0.3957
 2313SOL    MW4 9376   2.249   4.257   3.830  0.3922  0.0882  0.2682
 2314SOL     OW 9377   2.510   4.398   3.768  0.1044  0.2145  0.1634
 2314SOL    HW2 9378   2.430   4.346   3.781  0.2724  0.1026  0.7556
 2314SOL    HW3 9379   2.488   4.484   3.803 -0.2844  0.6530 -1.1146
 2314SOL    MW4 9380   2.496   4.402   3.774  0.0751  0.2575  0.0730
 2315SOL     OW 9381   2.282   2.025   4.595  0.0573 -0.4195 -0.0098
 2315SOL    HW2 9382   2.273   2.057   4.506  1.3643  0.3921  0.1405
 2315SOL    HW3 9383   2.193   2.000   4.621 -0.7809  1.9146 -0.5591
 2315SOL    MW4 9384   2.269   2.026   4.587  0.1192 -0.0045 -0.0620
 2316SOL     OW 9385   2.693   0.116   3.766 -0.0578 -0.5244  0.1652
 2316SOL    HW2 9386   2.770   0.068   3.795 -0.2057 -1.8194 -1.5181
 2316SOL    HW3 9387   2.701   0.120   3.670 -2.7356 -1.8688 -0.1713
 2316SOL    MW4 9388   2.704   0.110   3.757 -0.4308 -0.8726 -0.1013
 2317SOL     OW 9389   2.664   0.366   3.873 -0.3134 -0.4310  0.4195
 2317SOL    HW2 9390   2.593   0.402   3.819  0.6422  0.7696 -0.0457
 2317SOL    HW3 9391   2.665   0.273   3.850 -0.9459 -0.2287 -0.4671
 2317SOL    MW4 9392   2.654   0.358   3.863 -0.2708 -0.2459  0.2408
 2318SOL     OW 9393   2.876   0.542   3.781 -0.5160  0.1360 -0.0280
 2318SOL    HW2 9394   2.811   0.475   3.802 -0.4895 -0.0209 -0.4360
 2318SOL    HW3 9395   2.960   0.499   3.793 -0.5011  0.0192 -0.5241
 2318SOL    MW4 9396   2.878   0.527   3.785 -0.5107  0.0999 -0.1473
 2319SOL     OW 9397   3.760   4.456   4.518  0.0211 -0.0052  0.2345
 2319SOL    HW2 9398   3.776   4.433   4.426  0.1856 -1.9908  0.7190
 2319SOL    HW3 9399   3.842   4.434   4.562  0.2387  1.7485  0.7298
 2319SOL    MW4 9400   3.773   4.450   4.512  0.0718 -0.0358  0.3633
 2320SOL     OW 9401   2.399   0.759   3.857  0.4578 -0.2597  0.0975
 2320SOL    HW2 9402   2.407   0.666   3.839  0.4810 -0.1990 -0.2169
 2320SOL    HW3 9403   2.387   0.765   3.952  0.2397 -0.5949  0.0902
 2320SOL    MW4 9404   2.399   0.748   3.867  0.4320 -0.2959  0.0551
 2321SOL     OW 9405   2.668   1.148   3.894 -0.1066  0.3895  0.2331
 2321SOL    HW2 9406   2.588   1.197   3.877 -0.0517  0.3310 -0.2059
 2321SOL    HW3 9407   2.654   1.063   3.852 -0.0323  0.1846  0.6226
 2321SOL    MW4 9408   2.656   1.143   3.886 -0.0899  0.3549  0.2267
 2322SOL     OW 9409   2.895   1.259   3.748  0.3811 -0.2914  0.1169
 2322SOL    HW2 9410   2.900   1.348   3.784 -1.3139 -0.6486  1.3037
 2322SOL    HW3 9411   2.819   1.220   3.791  0.0247 -1.7197 -1.7338
 2322SOL    MW4 9412   2.886   1.266   3.758  0.1104 -0.5269  0.0293
 2323SOL     OW 9413   1.631   1.016   4.145  0.2980 -0.6853  0.2042
 2323SOL    HW2 9414   1.679   1.036   4.225  0.1476 -4.0951  1.2390
 2323SOL    HW3 9415   1.539   1.035   4.166  0.4034 -0.4331  0.4348
 2323SOL    MW4 9416   1.625   1.021   4.158  0.2921 -1.1019  0.3710
 2324SOL     OW 9417   2.463   2.081   3.731 -0.4128 -0.4556 -0.5332
 2324SOL    HW2 9418   2.460   2.171   3.762 -0.9462 -0.9110  0.8067
 2324SOL    HW3 9419   2.546   2.047   3.764 -1.0536 -0.9905  0.5627
 2324SOL    MW4 9420   2.473   2.088   3.740 -0.5677 -0.5860 -0.2120
 2325SOL     OW 9421   2.525   2.868   4.342 -0.7367  0.0143  0.2659
 2325SOL    HW2 9422   2.451   2.888   4.399 -0.1561  0.4611  0.8719
 2325SOL    HW3 9423   2.512   2.925   4.266 -1.3770 -0.4005  0.0672
 2325SOL    MW4 9424   2.514   2.878   4.339 -0.7443  0.0186  0.3200
 2326SOL     OW 9425   2.711   1.667   3.782 -0.4808 -0.1636 -0.1833
 2326SOL    HW2 9426   2.782   1.613   3.816 -1.0355  0.0864  1.3932
 2326SOL    HW3 9427   2.705   1.644   3.689  0.9688 -0.9355 -0.0901
 2326SOL    MW4 9428   2.720   1.657   3.774 -0.3626 -0.2325  0.0367
 2327SOL     OW 9429   2.682   1.952   3.855 -0.0171 -0.0494  0.0654
 2327SOL    HW2 9430   2.682   1.866   3.813  0.7942  0.8989 -1.9775
 2327SOL    HW3 9431   2.650   1.936   3.944 -1.2131 -2.2311 -0.7192
 2327SOL    MW4 9432   2.678   1.938   3.861 -0.0677 -0.2122 -0.3078
 2328SOL     OW 9433   2.925   2.306   3.851 -0.6646 -0.6173 -0.2978
 2328SOL    HW2 9434   2.873   2.335   3.776 -0.2100 -0.2504 -0.4709
 2328SOL    HW3 9435   3.015   2.333   3.830 -0.4058 -1.2478 -0.0012
 2328SOL    MW4 9436   2.930   2.313   3.838 -0.5703 -0.6518 -0.2816
 2329SOL     OW 9437   2.687   2.710   3.856  0.0804  0.2771  0.3019
 2329SOL    HW2 9438   2.656   2.706   3.947  1.7273 -0.2463  0.8481
 2329SOL    HW3 9439   2.616   2.754   3.809 -0.9056  0.3144  1.7884
 2329SOL    MW4 9440   2.673   2.715   3.862  0.1674  0.2129  0.5696
 2330SOL     OW 9441   2.931   2.820   3.783 -0.2092  0.1847 -0.3459
 2330SOL    HW2 9442   2.933   2.914   3.804  1.0279  0.1924 -0.4623
 2330SOL    HW3 9443   2.846   2.790   3.815 -0.9250  1.4989 -0.9793
 2330SOL    MW4 9444   2.920   2.828   3.790 -0.1402  0.3588 -0.4449
 2331SOL     OW 9445   2.905   3.099   3.892  0.2525  0.1556 -0.6191
 2331SOL    HW2 9446   2.996   3.126   3.875  0.6413 -1.5902 -1.4178
 2331SOL    HW3 9447   2.853   3.154   3.835  0.6625  2.2386  0.9442
 2331SOL    MW4 9448   2.910   3.110   3.882  0.3579  0.2000 -0.5183
 2332SOL     OW 9449   2.695   3.214   3.744 -0.3441  0.5330  0.6476
 2332SOL    HW2 9450   2.691   3.290   3.802  0.2201  0.4691  0.7755
 2332SOL    HW3 9451   2.640   3.148   3.787  0.6882  0.2176  1.5207
 2332SOL    MW4 9452   2.687   3.215   3.758 -0.1335  0.4830  0.7794
 2333SOL     OW 9453   2.748   3.456   3.888 -0.9849 -0.0383 -0.1467
 2333SOL    HW2 9454   2.796   3.473   3.969 -0.1282 -1.2205 -0.3831
 2333SOL    HW3 9455   2.786   3.517   3.824  1.0916 -1.7874 -0.6423
 2333SOL    MW4 9456   2.759   3.466   3.890 -0.5980 -0.4251 -0.2432
 2334SOL     OW 9457   2.880   3.592   3.688 -0.5133  0.5503  0.8329
 2334SOL    HW2 9458   2.950   3.537   3.724 -0.3845 -0.2410 -0.5814
 2334SOL    HW3 9459   2.902   3.601   3.595 -2.5019 -0.0799  0.2718
 2334SOL    MW4 9460   2.892   3.586   3.681 -0.7589  0.3626  0.5722
 2335SOL     OW 9461   2.884   3.842   3.822 -0.5556 -0.4262  0.2197
 2335SOL    HW2 9462   2.815   3.895   3.783 -1.3474  0.0847  2.2469
 2335SOL    HW3 9463   2.885   3.761   3.771 -1.1072  0.4665 -1.2416
 2335SOL    MW4 9464   2.875   3.839   3.810 -0.7327 -0.2410  0.2940
 2336SOL     OW 9465   2.713   4.013   3.681 -0.0598 -0.0278  0.2311
 2336SOL    HW2 9466   2.720   4.096   3.729 -1.2104 -0.4849  1.2157
 2336SOL    HW3 9467   2.634   3.971   3.717  0.7313 -1.7277  0.0154
 2336SOL    MW4 9468   2.703   4.019   3.692 -0.1073 -0.3128  0.3326
 2337SOL     OW 9469   2.559   4.650   4.122  0.1535 -0.5356  0.2299
 2337SOL    HW2 9470   2.550   4.731   4.171 -0.7303 -0.4808 -0.0179
 2337SOL    HW3 9471   2.644   4.615   4.148  0.6897  0.6513  0.0638
 2337SOL    MW4 9472   2.569   4.656   4.132  0.1075 -0.3717  0.1760
 2338SOL     OW 9473   2.893   4.624   3.866 -0.0080 -0.5672  0.0122
 2338SOL    HW2 9474   2.971   4.678   3.858 -1.2826  1.0692 -1.7977
 2338SOL    HW3 9475   2.879   4.616   3.961  2.4737 -1.1438  0.3650
 2338SOL    MW4 9476   2.901   4.630   3.878  0.1514 -0.4272 -0.1800
 2339SOL     OW 9477   3.356   0.014   3.870 -0.4921  0.1188 -0.1900
 2339SOL    HW2 9478   3.367  -0.012   3.962 -0.1126 -2.0913 -0.8153
 2339SOL    HW3 9479   3.438   0.059   3.848  0.0856 -0.7523  0.1256
 2339SOL    MW4 9480   3.369   0.016   3.880 -0.3657 -0.2875 -0.2308
 2340SOL     OW 9481   3.111   0.124   3.813  0.3194  0.0026 -0.4012
 2340SOL    HW2 9482   3.196   0.090   3.841 -0.1803 -1.2286 -0.3451
 2340SOL    HW3 9483   3.115   0.121   3.717  0.4844  0.3240 -0.4054
 2340SOL    MW4 9484   3.123   0.119   3.804  0.2749 -0.1174 -0.3941
 2341SOL     OW 9485   4.067   2.684   4.624 -0.1936  0.3497  0.3654
 2341SOL    HW2 9486   4.131   2.612   4.622  0.0484  0.5818 -0.5144
 2341SOL    HW3 9487   3.987   2.643   4.657 -0.1930 -0.4459 -0.5764
 2341SOL    MW4 9488   4.065   2.669   4.628 -0.1621  0.2751  0.1254
 2342SOL     OW 9489   2.866   0.781   3.915 -0.5232 -0.0652 -0.5033
 2342SOL    HW2 9490   2.944   0.830   3.891  0.1719 -1.0245 -0.2498
 2342SOL    HW3 9491   2.875   0.698   3.868 -0.7480 -0.6858  0.5231
 2342SOL    MW4 9492   2.877   0.776   3.906 -0.4609 -0.2737 -0.3345
 2343SOL     OW 9493   3.349   0.786   3.871  0.0134 -0.1389  0.0879
 2343SOL    HW2 9494   3.342   0.691   3.872 -1.0057 -0.0725  0.0511
 2343SOL    HW3 9495   3.429   0.804   3.821  1.0357 -1.0035  1.3865
 2343SOL    MW4 9496   3.359   0.776   3.864  0.0136 -0.2442  0.2544
 2344SOL     OW 9497   3.101   0.887   3.801 -0.1037 -0.0230 -0.1158
 2344SOL    HW2 9498   3.192   0.869   3.824 -0.6165 -3.3015 -0.4407
 2344SOL    HW3 9499   3.097   0.873   3.706 -1.3887 -2.1192  0.2181
 2344SOL    MW4 9500   3.113   0.883   3.791 -0.3407 -0.7322 -0.1147
 2345SOL     OW 9501   3.145   1.168   3.826 -0.1269  0.4818  0.1998
 2345SOL    HW2 9502   3.152   1.080   3.789 -1.1929 -0.2914  1.7872
 2345SOL    HW3 9503   3.061   1.201   3.794 -0.6820  0.1163  1.2639
 2345SOL    MW4 9504   3.135   1.160   3.817 -0.3407  0.3314  0.5498
 2346SOL     OW 9505   3.370   1.338   3.781  0.6484  0.0659 -0.3952
 2346SOL    HW2 9506   3.295   1.292   3.819  0.6692 -0.0122 -0.4501
 2346SOL    HW3 9507   3.358   1.330   3.686 -0.0373  1.2604 -0.4210
 2346SOL    MW4 9508   3.359   1.331   3.773  0.5605  0.2133 -0.4058
 2347SOL     OW 9509   3.372   1.595   3.883  0.0517 -0.4201  0.1947
 2347SOL    HW2 9510   3.291   1.630   3.845  0.9381  0.8121 -0.6106
 2347SOL    HW3 9511   3.374   1.504   3.854  0.2992  0.2732 -2.1249
 2347SOL    MW4 9512   3.362   1.588   3.874  0.2012 -0.1661 -0.2174
 2348SOL     OW 9513   3.123   1.668   3.772  0.7122  0.6200 -0.1491
 2348SOL    HW2 9514   3.117   1.757   3.807  0.9719  0.6863 -0.2761
 2348SOL    HW3 9515   3.129   1.679   3.677 -1.1900  0.3999 -0.3089
 2348SOL    MW4 9516   3.123   1.681   3.764  0.4959  0.5996 -0.1872
 2349SOL     OW 9517   2.903   2.062   3.741 -0.0837  0.0082  0.3843
 2349SOL    HW2 9518   2.835   2.010   3.784  0.0419 -0.0821  0.4777
 2349SOL    HW3 9519   2.906   2.143   3.791 -0.6806  0.3412 -0.1206
 2349SOL    MW4 9520   2.895   2.066   3.754 -0.1457  0.0405  0.3302
 2350SOL     OW 9521   3.382   2.012   3.803 -0.0336 -0.0185 -0.2937
 2350SOL    HW2 9522   3.298   1.979   3.837  0.1683  0.0216  0.2553
 2350SOL    HW3 9523   3.372   2.010   3.708 -0.2896 -0.9681 -0.2484
 2350SOL    MW4 9524   3.370   2.008   3.795 -0.0405 -0.1388 -0.2155
 2351SOL     OW 9525   3.406   2.301   3.858 -0.0978 -0.4178 -0.1265
 2351SOL    HW2 9526   3.479   2.345   3.816  0.3740  0.4227  1.4981
 2351SOL    HW3 9527   3.416   2.208   3.835  0.2163  0.0020 -1.6936
 2351SOL    MW4 9528   3.417   2.294   3.850  0.0060 -0.2515 -0.1192
 2352SOL     OW 9529   3.173   2.418   3.783 -0.4232 -0.4137  0.0726
 2352SOL    HW2 9530   3.168   2.503   3.828  0.5665  0.6155 -1.7085
 2352SOL    HW3 9531   3.256   2.381   3.812 -0.5546 -0.4882  0.3555
 2352SOL    MW4 9532   3.183   2.425   3.793 -0.3097 -0.2880 -0.1252
 2353SOL     OW 9533   3.139   2.668   3.886  0.3411 -0.3439  0.1629
 2353SOL    HW2 9534   3.157   2.716   3.967  1.0103 -0.5235  0.1172
 2353SOL    HW3 9535   3.060   2.710   3.850  0.7205  0.4882  0.3056
 2353SOL    MW4 9536   3.131   2.680   3.892  0.4795 -0.2577  0.1757
 2354SOL     OW 9537   3.365   2.805   3.794 -0.0724 -0.1424  0.5580
 2354SOL    HW2 9538   3.292   2.756   3.830 -3.2361  3.7649 -0.1615
 2354SOL    HW3 9539   3.355   2.798   3.699  0.2839  0.7017  0.4504
 2354SOL    MW4 9540   3.354   2.798   3.786 -0.4427  0.4845  0.4489
 2355SOL     OW 9541   2.493   3.321   4.701 -0.4043 -0.3257 -0.3710
 2355SOL    HW2 9542   2.473   3.279   4.785 -1.4479  0.4694 -0.1999
 2355SOL    HW3 9543   2.570   3.275   4.669 -1.0273 -1.8138  0.1966
 2355SOL    MW4 9544   2.500   3.309   4.708 -0.6242 -0.4172 -0.2737
 2356SOL     OW 9545   3.402   3.034   3.923  0.0606 -0.2009  0.1744
 2356SOL    HW2 9546   3.396   2.951   3.876  3.4577 -1.3862  1.6571
 2356SOL    HW3 9547   3.457   3.089   3.866 -0.2024  0.2058  0.3113
 2356SOL    MW4 9548   3.409   3.030   3.909  0.4740 -0.3035  0.3879
 2357SOL     OW 9549   3.111   3.464   3.800 -0.5319 -0.1315 -0.0055
 2357SOL    HW2 9550   3.190   3.505   3.764 -0.5371 -0.7720 -0.7571
 2357SOL    HW3 9551   3.121   3.371   3.780 -1.9131 -0.0951 -0.9321
 2357SOL    MW4 9552   3.123   3.457   3.793 -0.7150 -0.2110 -0.2267
 2358SOL     OW 9553   3.362   3.592   3.731 -0.3370  0.3424 -0.1640
 2358SOL    HW2 9554   3.347   3.594   3.636  0.6312 -0.6541 -0.3431
 2358SOL    HW3 9555   3.335   3.679   3.761 -0.8544  0.5934 -1.3148
 2358SOL    MW4 9556   3.356   3.604   3.722 -0.2773  0.2441 -0.3393
 2359SOL     OW 9557   3.320   3.827   3.848  0.1846  0.1539 -0.4089
 2359SOL    HW2 9558   3.395   3.868   3.804  0.0813  1.2517  0.4085
 2359SOL    HW3 9559   3.243   3.865   3.806  0.0873  0.9643  0.5020
 2359SOL    MW4 9560   3.320   3.838   3.837  0.1581  0.4055 -0.1810
 2360SOL     OW 9561   3.101   3.990   3.729 -0.0426  0.3612 -0.0968
 2360SOL    HW2 9562   3.114   4.066   3.786 -0.3791  0.3889 -0.0608
 2360SOL    HW3 9563   3.025   3.945   3.764  1.3941 -1.1670  1.1462
 2360SOL    MW4 9564   3.093   3.994   3.741  0.1025  0.1628  0.0718
 2361SOL     OW 9565   2.967   4.378   3.730  0.1931  0.7614  0.3777
 2361SOL    HW2 9566   2.944   4.459   3.776  0.2757  1.0064 -0.0091
 2361SOL    HW3 9567   3.007   4.323   3.797 -1.9361  0.1331  1.1871
 2361SOL    MW4 9568   2.969   4.381   3.745 -0.0768  0.7110  0.4334
 2362SOL     OW 9569   3.371   4.386   3.790 -0.1554 -0.5067 -0.0946
 2362SOL    HW2 9570   3.450   4.345   3.825  0.5946  0.3564 -0.7602
 2362SOL    HW3 9571   3.379   4.478   3.815 -1.6384 -0.6798  1.0594
 2362SOL    MW4 9572   3.383   4.393   3.798 -0.2520 -0.4158 -0.0300
 2363SOL     OW 9573   3.808   4.625   3.884  0.1280  0.2209 -0.1821
 2363SOL    HW2 9574   3.792   4.623   3.979 -2.0969  2.0477 -0.4909
 2363SOL    HW3 9575   3.827   4.534   3.862  0.9304 -0.2018  2.0594
 2363SOL    MW4 9576   3.809   4.613   3.894 -0.0598  0.4063  0.0727
 2364SOL     OW 9577   3.605   0.112   3.775  0.4912 -0.2342  0.0563
 2364SOL    HW2 9578   3.679   0.057   3.801 -0.3124 -1.9726 -1.2454
 2364SOL    HW3 9579   3.599   0.101   3.680 -1.0109  0.4405  0.0551
 2364SOL    MW4 9580   3.614   0.103   3.766  0.1872 -0.3745 -0.1156
 2365SOL     OW 9581   3.375   0.505   3.811  0.5560  0.2973  0.2112
 2365SOL    HW2 9582   3.367   0.483   3.718  2.1578  1.0757 -0.1278
 2365SOL    HW3 9583   3.462   0.474   3.836  0.6870  1.3311  1.0973
 2365SOL    MW4 9584   3.385   0.498   3.802  0.7846  0.5364  0.2837
 2366SOL     OW 9585   3.856   0.494   3.818 -0.3443 -0.2959  0.5519
 2366SOL    HW2 9586   3.925   0.452   3.870  0.4213  0.3796  0.0879
 2366SOL    HW3 9587   3.775   0.452   3.848  0.3725 -1.9626  0.2415
 2366SOL    MW4 9588   3.854   0.483   3.829 -0.1490 -0.4267  0.4499
 2367SOL     OW 9589   3.821   0.766   3.890 -0.4826  0.0200 -0.1093
 2367SOL    HW2 9590   3.812   0.785   3.984  2.2155  0.0435  0.1728
 2367SOL    HW3 9591   3.839   0.672   3.887 -1.0677 -0.0738 -0.6420
 2367SOL    MW4 9592   3.822   0.756   3.902 -0.2038  0.0107 -0.1423
 2368SOL     OW 9593   3.608   0.862   3.743  0.3614  0.0205 -0.1861
 2368SOL    HW2 9594   3.681   0.828   3.796 -0.1401 -0.6076  0.1019
 2368SOL    HW3 9595   3.610   0.957   3.758  0.5513 -0.0947  0.5514
 2368SOL    MW4 9596   3.618   0.870   3.752  0.3202 -0.0776 -0.0508
 2369SOL     OW 9597   3.613   1.169   3.816  0.2824  0.0231 -0.8651
 2369SOL    HW2 9598   3.691   1.217   3.790 -0.2535  0.9925 -0.7189
 2369SOL    HW3 9599   3.540   1.227   3.794 -0.3682 -0.6459 -0.5173
 2369SOL    MW4 9600   3.614   1.183   3.810  0.1259  0.0627 -0.7999
 2370SOL     OW 9601   3.850   1.308   3.770  0.1236  0.1660 -0.0037
 2370SOL    HW2 9602   3.931   1.264   3.794  0.9463  1.8302  0.3648
 2370SOL    HW3 9603   3.843   1.381   3.832 -1.1876  0.5646 -0.5983
 2370SOL    MW4 9604   3.860   1.312   3.782  0.0589  0.4381 -0.0336
 2371SOL     OW 9605   3.849   1.544   3.924 -0.1098  0.0426  0.3867
 2371SOL    HW2 9606   3.928   1.581   3.885 -0.4766  0.6200  0.1778
 2371SOL    HW3 9607   3.777   1.586   3.877 -0.5396 -1.3680 -0.2520
 2371SOL    MW4 9608   3.850   1.554   3.913 -0.2148 -0.0672  0.2749
 2372SOL     OW 9609   3.622   1.665   3.772  0.1700 -0.0874  0.3277
 2372SOL    HW2 9610   3.532   1.643   3.798 -0.8287  3.1124 -0.1347
 2372SOL    HW3 9611   3.620   1.662   3.676  0.2185  1.1374  0.2831
 2372SOL    MW4 9612   3.610   1.662   3.763  0.0448  0.4964  0.2606
 2373SOL     OW 9613   3.645   1.930   3.854  0.0567 -0.1694 -0.3558
 2373SOL    HW2 9614   3.643   1.839   3.825  0.2269  0.1686 -1.4586
 2373SOL    HW3 9615   3.555   1.959   3.849 -0.3657 -0.9254  2.1688
 2373SOL    MW4 9616   3.633   1.922   3.850  0.0231 -0.2245 -0.1681
 2374SOL     OW 9617   0.616   1.076   4.497  0.2258 -0.2659  0.2129
 2374SOL    HW2 9618   0.674   1.023   4.442  0.5226  0.1308  0.1419
 2374SOL    HW3 9619   0.626   1.165   4.463 -0.4564 -0.2005  0.1761
 2374SOL    MW4 9620   0.625   1.080   4.485  0.1749 -0.2049  0.1988
 2375SOL     OW 9621   3.881   2.015   3.729 -0.3185  0.3708  0.1794
 2375SOL    HW2 9622   3.802   1.977   3.767 -0.4837  0.1016 -0.4230
 2375SOL    HW3 9623   3.953   1.981   3.782 -0.4717 -0.7056 -0.2988
 2375SOL    MW4 9624   3.880   2.006   3.741 -0.3605  0.1931  0.0367
 2376SOL     OW 9625   3.634   2.429   3.745  0.2698  0.0790  0.1840
 2376SOL    HW2 9626   3.717   2.385   3.761  1.4283  2.2196  0.2517
 2376SOL    HW3 9627   3.619   2.420   3.651  0.4526 -0.4898  0.2055
 2376SOL    MW4 9628   3.643   2.422   3.735  0.4466  0.2866  0.1955
 2377SOL     OW 9629   3.598   2.679   3.882  0.5217  0.0844 -0.0372
 2377SOL    HW2 9630   3.597   2.597   3.833 -1.1162 -1.4176  2.3958
 2377SOL    HW3 9631   3.524   2.729   3.847 -0.0484 -0.5721  0.2098
 2377SOL    MW4 9632   3.588   2.675   3.871  0.2303 -0.2003  0.3164
 2378SOL     OW 9633   3.825   2.805   3.780 -0.1414 -0.4606  0.1599
 2378SOL    HW2 9634   3.901   2.802   3.838 -0.5547  1.0064  0.8094
 2378SOL    HW3 9635   3.760   2.751   3.823  0.5994 -1.9351 -0.5267
 2378SOL    MW4 9636   3.827   2.798   3.793 -0.0982 -0.4613  0.1550
 2379SOL     OW 9637   3.823   3.067   3.860 -0.7675  0.2631  0.3180
 2379SOL    HW2 9638   3.743   3.117   3.845 -0.1430  0.8244 -1.2088
 2379SOL    HW3 9639   3.801   2.978   3.831 -0.8877  0.3755  0.0600
 2379SOL    MW4 9640   3.809   3.062   3.854 -0.7005  0.3524  0.0825
 2380SOL     OW 9641   3.586   3.232   3.788 -0.0077  0.2954 -0.2100
 2380SOL    HW2 9642   3.578   3.321   3.823  2.9340  0.4443  0.1792
 2380SOL    HW3 9643   3.588   3.244   3.693 -0.9188  0.5081 -0.2098
 2380SOL    MW4 9644   3.585   3.246   3.780  0.2601  0.3431 -0.1585
 2381SOL     OW 9645   3.565   3.483   3.890  0.3065  0.1614  0.3492
 2381SOL    HW2 9646   3.492   3.517   3.839  1.3657  0.1160 -1.2522
 2381SOL    HW3 9647   3.642   3.523   3.850  1.3195 -1.5132  0.5788
 2381SOL    MW4 9648   3.566   3.493   3.878  0.5801 -0.0658  0.1683
 2382SOL     OW 9649   3.789   3.571   3.744  0.4146  0.3673  0.2015
 2382SOL    HW2 9650   3.775   3.661   3.774  1.5611  0.4886  0.3602
 2382SOL    HW3 9651   3.871   3.544   3.784  0.7398 -0.2983 -0.8936
 2382SOL    MW4 9652   3.798   3.580   3.753  0.6087  0.2956  0.0780
 2383SOL     OW 9653   3.760   3.830   3.833 -0.0314  0.0785 -0.4331
 2383SOL    HW2 9654   3.741   3.823   3.926  0.3487  0.1270 -0.3505
 2383SOL    HW3 9655   3.837   3.886   3.828 -0.7453  1.0318 -0.8500
 2383SOL    MW4 9656   3.767   3.836   3.844 -0.0756  0.2108 -0.4771
 2384SOL     OW 9657   3.543   3.954   3.748  0.3077 -0.2045  0.1739
 2384SOL    HW2 9658   3.616   3.906   3.786 -0.6940  0.0171  2.5351
 2384SOL    HW3 9659   3.551   4.042   3.786 -1.5123 -0.3593  0.9485
 2384SOL    MW4 9660   3.554   3.960   3.758 -0.0646 -0.1955  0.5877
 2385SOL     OW 9661   0.105   0.530   4.213 -0.3312  0.1337 -0.1099
 2385SOL    HW2 9662   0.116   0.530   4.309  1.1195 -1.1998 -0.2501
 2385SOL    HW3 9663   0.047   0.456   4.196 -0.4403  0.2576 -0.2786
 2385SOL    MW4 9664   0.099   0.520   4.224 -0.1542 -0.0258 -0.1507
 2386SOL     OW 9665   3.818   4.363   3.794 -0.2070 -0.1983 -0.1249
 2386SOL    HW2 9666   3.904   4.328   3.816  0.6273  1.8655  0.0857
 2386SOL    HW3 9667   3.816   4.364   3.699 -0.1114 -0.5011 -0.1311
 2386SOL    MW4 9668   3.830   4.359   3.785 -0.0842  0.0339 -0.0980
 2387SOL     OW 9669   4.264   4.641   3.865  0.1493 -0.2081 -0.1586
 2387SOL    HW2 9670   4.279   4.630   3.959  0.6035  0.6360 -0.1197
 2387SOL    HW3 9671   4.337   4.697   3.836 -0.3989  0.1513 -0.8600
 2387SOL    MW4 9672   4.276   4.647   3.874  0.1369 -0.0496 -0.2458
 2388SOL     OW 9673   4.037   0.133   3.844 -0.1525  0.3934 -0.1529
 2388SOL    HW2 9674   3.958   0.079   3.845 -0.4692  0.8615  1.2835
 2388SOL    HW3 9675   4.109   0.070   3.855 -0.3154 -0.0242 -1.4087
 2388SOL    MW4 9676   4.036   0.117   3.845 -0.2155  0.4001 -0.1290
 2389SOL     OW 9677   4.058   0.378   3.974 -0.1500  0.1391  1.0789
 2389SOL    HW2 9678   4.068   0.360   4.068 -0.3204  0.3569  1.1406
 2389SOL    HW3 9679   4.054   0.291   3.934 -1.9592  0.0090  1.4875
 2389SOL    MW4 9680   4.059   0.364   3.981 -0.4110  0.1507  1.1411
 2390SOL     OW 9681   4.251   0.526   3.820  0.0879 -0.1029  0.4188
 2390SOL    HW2 9682   4.185   0.486   3.876  0.3583 -0.2187  0.6518
 2390SOL    HW3 9683   4.247   0.619   3.842 -0.8758  0.0772 -0.4655
 2390SOL    MW4 9684   4.242   0.533   3.830 -0.0033 -0.0944  0.3328
 2391SOL     OW 9685   4.235   0.811   3.819 -0.1507  0.2991 -0.4242
 2391SOL    HW2 9686   4.159   0.859   3.786 -0.0459  0.6095 -0.2181
 2391SOL    HW3 9687   4.245   0.841   3.909 -0.0030 -0.0098 -0.3379
 2391SOL    MW4 9688   4.226   0.821   3.826 -0.1178  0.2992 -0.3858
 2392SOL     OW 9689   4.001   0.896   3.713  0.0187 -0.0173  0.6646
 2392SOL    HW2 9690   3.992   0.979   3.759  0.0337  0.6133 -0.4585
 2392SOL    HW3 9691   3.941   0.837   3.758 -0.5780  0.8152  0.9629
 2392SOL    MW4 9692   3.992   0.899   3.725 -0.0582  0.1758  0.5558
 2393SOL     OW 9693   4.089   1.150   3.843 -0.0549  0.0081  0.0825
 2393SOL    HW2 9694   4.096   1.166   3.937  0.0469  0.2779  0.0285
 2393SOL    HW3 9695   4.161   1.198   3.804 -1.5661  1.9842 -0.3699
 2393SOL    MW4 9696   4.099   1.158   3.850 -0.2408  0.3045  0.0157
 2394SOL     OW 9697   4.314   1.278   3.766 -0.1128 -0.1190  0.0541
 2394SOL    HW2 9698   4.275   1.359   3.800 -1.0380 -0.0387 -1.1658
 2394SOL    HW3 9699   4.303   1.284   3.671 -0.9289 -2.0643  0.0049
 2394SOL    MW4 9700   4.308   1.290   3.758 -0.3424 -0.3651 -0.1135
 2395SOL     OW 9701   4.264   2.160   4.301 -0.1754 -0.0275 -0.2468
 2395SOL    HW2 9702   4.266   2.228   4.234  0.5998 -0.6390 -0.8554
 2395SOL    HW3 9703   4.174   2.127   4.299 -0.4826  0.7899 -0.1345
 2395SOL    MW4 9704   4.252   2.165   4.292 -0.1140 -0.0005 -0.3128
 2396SOL     OW 9705   4.084   1.660   3.832  0.2544 -0.0605 -0.4784
 2396SOL    HW2 9706   4.157   1.620   3.878  2.6591  2.1556 -2.2094
 2396SOL    HW3 9707   4.076   1.748   3.869 -1.1349 -0.0504 -0.7501
 2396SOL    MW4 9708   4.092   1.667   3.843  0.3891  0.2332 -0.7424
 2397SOL     OW 9709   4.104   1.935   3.887  0.1037  0.1528  0.2795
 2397SOL    HW2 9710   4.119   1.934   3.981 -0.4719  2.3802  0.4354
 2397SOL    HW3 9711   4.163   2.002   3.854 -1.1199  0.8049 -0.6532
 2397SOL    MW4 9712   4.114   1.944   3.895 -0.1340  0.5327  0.1771
 2398SOL     OW 9713   4.301   2.081   3.768 -0.0017 -0.0524 -0.0364
 2398SOL    HW2 9714   4.310   2.174   3.792  1.3784 -0.1394 -0.1681
 2398SOL    HW3 9715   4.298   2.081   3.673  1.2682 -0.2349 -0.0839
 2398SOL    MW4 9716   4.302   2.094   3.759  0.3481 -0.0880 -0.0603
 2399SOL     OW 9717   0.916   2.355   4.189 -0.4394 -0.0759  0.7436
 2399SOL    HW2 9718   0.925   2.322   4.099  0.5097  0.1635  0.7494
 2399SOL    HW3 9719   1.006   2.362   4.221 -0.7893 -0.5384  1.8527
 2399SOL    MW4 9720   0.929   2.351   4.181 -0.3604 -0.1054  0.8907
 2400SOL     OW 9721   4.067   2.466   3.793  0.1515  0.5249 -0.6075
 2400SOL    HW2 9722   4.151   2.423   3.814  0.5352  0.9305 -1.2896
 2400SOL    HW3 9723   4.005   2.393   3.784  0.6245  0.1574 -0.9541
 2400SOL    MW4 9724   4.070   2.451   3.795  0.2646  0.5298 -0.7429
 2401SOL     OW 9725   4.069   2.722   3.901  0.0818 -0.2430 -0.2535
 2401SOL    HW2 9726   4.075   2.694   3.992 -0.5456 -0.5029 -0.2884
 2401SOL    HW3 9727   4.061   2.640   3.851 -1.1740 -0.0411 -0.4051
 2401SOL    MW4 9728   4.069   2.707   3.906 -0.1669 -0.2506 -0.2782
 2402SOL     OW 9729   4.281   2.803   3.752  0.3308 -0.2945 -0.0015
 2402SOL    HW2 9730   4.208   2.771   3.805  1.6938 -0.0916  2.0469
 2402SOL    HW3 9731   4.359   2.771   3.797  1.5926  2.1607 -0.3985
 2402SOL    MW4 9732   4.282   2.794   3.765  0.6771  0.0565  0.2165
 2403SOL     OW 9733   4.253   3.078   3.864  0.0497  0.2338  0.2062
 2403SOL    HW2 9734   4.181   3.116   3.813 -2.2591 -2.8569  1.0010
 2403SOL    HW3 9735   4.272   2.995   3.821  2.7488  0.6892  0.4312
 2403SOL    MW4 9736   4.246   3.072   3.852  0.1011 -0.1140  0.3409
 2404SOL     OW 9737   4.024   3.201   3.734  0.5823  0.2363  0.3878
 2404SOL    HW2 9738   3.950   3.147   3.765  0.6808 -0.4094 -0.4891
 2404SOL    HW3 9739   4.010   3.209   3.640  0.4694  1.9128  0.5279
 2404SOL    MW4 9740   4.012   3.195   3.726  0.5798  0.3722  0.2906
 2405SOL     OW 9741   4.004   3.466   3.873 -0.0626 -0.0459 -0.1358
 2405SOL    HW2 9742   4.084   3.504   3.837  1.3179 -1.3230  1.5289
 2405SOL    HW3 9743   4.004   3.376   3.840 -0.9675  0.0291 -0.3493
 2405SOL    MW4 9744   4.015   3.459   3.864  0.0005 -0.2043  0.0553
 2406SOL     OW 9745   4.219   3.627   3.815 -0.1262  0.0976 -0.2614
 2406SOL    HW2 9746   4.217   3.720   3.838 -2.2337  0.1606 -0.5962
 2406SOL    HW3 9747   4.306   3.597   3.843  0.8314  2.3100 -0.7843
 2406SOL    MW4 9748   4.230   3.635   3.822 -0.2780  0.3977 -0.3746
 2407SOL     OW 9749   4.236   3.892   3.884 -0.1985 -0.2014  0.2112
 2407SOL    HW2 9750   4.232   3.883   3.979  0.5240 -0.3056  0.2328
 2407SOL    HW3 9751   4.155   3.938   3.861  0.7585  2.0119  1.1398
 2407SOL    MW4 9752   4.225   3.897   3.893  0.0234  0.0770  0.3364
 2408SOL     OW 9753   4.005   4.004   3.801 -0.0725 -0.4882 -0.0652
 2408SOL    HW2 9754   4.017   4.005   3.706 -2.0429  0.5746 -0.3358
 2408SOL    HW3 9755   4.021   4.095   3.828 -0.5314 -0.5591  0.4647
 2408SOL    MW4 9756   4.009   4.016   3.792 -0.3934 -0.3581 -0.0312
 2409SOL     OW 9757   4.060   4.262   3.891  0.0526  0.1788  0.0653
 2409SOL    HW2 9758   4.090   4.251   3.981  1.0066  0.9443 -0.1527
 2409SOL    HW3 9759   4.133   4.304   3.846 -0.7777  0.6910 -0.8362
 2409SOL    MW4 9760   4.073   4.266   3.897  0.0691  0.3476 -0.0823
 2410SOL     OW 9761   4.258   4.398   3.749 -0.1952  0.3599  0.2098
 2410SOL    HW2 9762   4.258   4.489   3.778  1.4176  1.2875 -2.5074
 2410SOL    HW3 9763   4.342   4.363   3.779 -0.9911 -0.3776  1.6184
 2410SOL    MW4 9764   4.269   4.405   3.757 -0.0873  0.3848  0.0374
 2411SOL     OW 9765   3.662   2.660   4.148  0.0902 -0.2779  0.1567
 2411SOL    HW2 9766   3.639   2.650   4.056  0.5315  0.1179  0.0011
 2411SOL    HW3 9767   3.592   2.714   4.184  0.8905  1.1669 -0.3824
 2411SOL    MW4 9768   3.650   2.666   4.141  0.2542 -0.0350  0.0653
 2412SOL     OW 9769   1.532   0.277   4.267 -0.0435 -0.0666 -0.4765
 2412SOL    HW2 9770   1.448   0.294   4.223 -0.8349  0.6582  1.2581
 2412SOL    HW3 9771   1.508   0.229   4.346  1.0259  1.3005  0.7125
 2412SOL    MW4 9772   1.518   0.273   4.272 -0.0067  0.2094 -0.0906
 2413SOL     OW 9773   0.335   2.322   4.115  0.0680  0.1617 -0.0369
 2413SOL    HW2 9774   0.417   2.277   4.099 -0.1693 -0.3525  0.1902
 2413SOL    HW3 9775   0.360   2.397   4.170  0.1091 -1.1475  1.7776
 2413SOL    MW4 9776   0.349   2.326   4.120  0.0421 -0.0789  0.2322
 2414SOL     OW 9777   2.045   3.517   4.456  0.2177  0.1145 -0.1666
 2414SOL    HW2 9778   2.073   3.538   4.367  1.4102 -0.1821  0.1300
 2414SOL    HW3 9779   1.953   3.540   4.458  0.3572  0.7926 -1.2717
 2414SOL    MW4 9780   2.037   3.522   4.444  0.3934  0.1650 -0.2737
 2415SOL     OW 9781   4.430   0.323   4.149  0.0128  0.8010  0.0636
 2415SOL    HW2 9782   4.457   0.329   4.058  1.6380 -1.1416  0.3835
 2415SOL    HW3 9783   4.472   0.243   4.182 -1.6946  0.7060  2.1238
 2415SOL    MW4 9784   4.439   0.313   4.142  0.0019  0.5321  0.3772
 2416SOL     OW 9785   3.402   3.102   4.318 -0.4860 -0.3047  0.4525
 2416SOL    HW2 9786   3.446   3.029   4.275  0.2715  0.5218 -0.1988
 2416SOL    HW3 9787   3.473   3.161   4.343 -1.1414  0.5238  0.3816
 2416SOL    MW4 9788   3.417   3.100   4.316 -0.4725 -0.0863  0.3572
 2417SOL     OW 9789   3.786   1.281   4.228 -0.1349 -0.0184  0.1562
 2417SOL    HW2 9790   3.808   1.251   4.316  1.7603  0.5068 -0.1303
 2417SOL    HW3 9791   3.749   1.368   4.241 -1.6421 -0.7091  0.5921
 2417SOL    MW4 9792   3.784   1.288   4.242 -0.0837 -0.0402  0.1755
 2418SOL     OW 9793   3.177   2.510   4.221 -0.3413 -0.1896  0.6101
 2418SOL    HW2 9794   3.243   2.459   4.174 -1.4081 -1.4934  0.4788
 2418SOL    HW3 9795   3.186   2.484   4.312 -1.3076 -1.1247  0.4544
 2418SOL    MW4 9796   3.187   2.500   4.227 -0.6096 -0.4849  0.5727
 2419SOL     OW 9797   2.573   0.198   4.315  0.6542 -0.4406 -0.7263
 2419SOL    HW2 9798   2.627   0.253   4.259  3.3254 -2.1744  0.0367
 2419SOL    HW3 9799   2.547   0.255   4.387  2.3502  0.1629 -0.5810
 2419SOL    MW4 9800   2.577   0.213   4.317  1.2302 -0.5897 -0.6065
 2420SOL     OW 9801   2.740   4.352   4.512 -0.2092  0.1761 -0.8040
 2420SOL    HW2 9802   2.779   4.275   4.555 -0.5919 -0.1604 -1.0544
 2420SOL    HW3 9803   2.772   4.426   4.563 -2.4702 -0.3476  1.5085
 2420SOL    MW4 9804   2.749   4.352   4.525 -0.5581  0.0625 -0.5317
 2421SOL     OW 9805   2.069   4.443   4.296 -0.4046  0.6209 -0.3832
 2421SOL    HW2 9806   2.150   4.476   4.257 -0.9657  0.5992 -1.5835
 2421SOL    HW3 9807   1.999   4.485   4.246 -1.1307  0.1005  0.1850
 2421SOL    MW4 9808   2.070   4.453   4.284 -0.5746  0.5493 -0.4668
 2422SOL     OW 9809   4.308   2.347   3.835  0.3235 -0.0189  0.1395
 2422SOL    HW2 9810   4.281   2.347   3.927  1.2540 -0.3616  0.4256
 2422SOL    HW3 9811   4.390   2.397   3.835  0.6568 -0.5577 -0.3989
 2422SOL    MW4 9812   4.315   2.353   3.847  0.4902 -0.1349  0.1061
 2423SOL     OW 9813   2.646   4.221   4.081  0.3422  0.4255 -0.5884
 2423SOL    HW2 9814   2.677   4.253   3.996 -0.4107  0.9748 -0.6595
 2423SOL    HW3 9815   2.709   4.257   4.144  0.0407  1.2641 -0.7649
 2423SOL    MW4 9816   2.659   4.230   4.078  0.2031  0.6089 -0.6213
 2424SOL     OW 9817   4.220   0.649   4.561  0.3340 -0.5292  0.5183
 2424SOL    HW2 9818   4.296   0.706   4.567 -0.0540 -0.0659  1.1275
 2424SOL    HW3 9819   4.256   0.563   4.539  1.0098 -0.2671  0.5797
 2424SOL    MW4 9820   4.235   0.645   4.559  0.3724 -0.4335  0.6075
 2425SOL     OW 9821   2.000   2.577   4.472  0.1908  0.3973 -0.0263
 2425SOL    HW2 9822   2.053   2.556   4.548 -0.1353  1.2892  0.4659
 2425SOL    HW3 9823   2.030   2.518   4.404  0.1276 -0.7751  0.9471
 2425SOL    MW4 9824   2.011   2.567   4.473  0.1392  0.3605  0.1674
 2426SOL     OW 9825   0.042   3.533   4.116  0.3820 -0.2835 -0.1230
 2426SOL    HW2 9826   0.041   3.442   4.146  0.0473 -0.3445 -0.3178
 2426SOL    HW3 9827  -0.048   3.564   4.130  0.7736  0.3731  1.0252
 2426SOL    MW4 9828   0.030   3.525   4.122  0.3896 -0.2050  0.0029
 2427SOL     OW 9829   0.401   3.310   4.255  0.3686 -0.7395 -0.0491
 2427SOL    HW2 9830   0.442   3.390   4.221  0.3967 -0.3778  0.8233
 2427SOL    HW3 9831   0.365   3.336   4.340 -1.1719 -1.2126 -0.5475
 2427SOL    MW4 9832   0.402   3.324   4.262  0.1691 -0.7544  0.0000
 2428SOL     OW 9833   3.367   3.859   4.119  0.1230 -0.3495  0.3356
 2428SOL    HW2 9834   3.352   3.840   4.027  0.9483  1.1122 -0.1087
 2428SOL    HW3 9835   3.285   3.900   4.149  0.8332  1.6672 -0.4415
 2428SOL    MW4 9836   3.354   3.862   4.111  0.3254  0.1094  0.1745
 2429SOL     OW 9837   2.849   3.079   4.177  0.0012 -0.2553 -0.0646
 2429SOL    HW2 9838   2.897   2.996   4.174 -0.0983 -0.2915 -0.8067
 2429SOL    HW3 9839   2.868   3.120   4.093 -0.2564  0.3022  0.1499
 2429SOL    MW4 9840   2.858   3.073   4.165 -0.0460 -0.1864 -0.1340
 2430SOL     OW 9841   3.524   3.963   4.502  0.0191  0.0218  0.1017
 2430SOL    HW2 9842   3.573   4.031   4.548  0.4570  0.2085 -0.6259
 2430SOL    HW3 9843   3.540   3.981   4.409 -2.0374  0.5551 -0.1816
 2430SOL    MW4 9844   3.533   3.974   4.496 -0.1945  0.1166 -0.0319
 2431SOL     OW 9845   0.971   3.485   4.327 -0.1031 -0.5479 -0.0995
 2431SOL    HW2 9846   0.921   3.536   4.391 -1.6659 -0.5806 -1.2629
 2431SOL    HW3 9847   1.045   3.541   4.304  0.6991 -0.6843  1.9864
 2431SOL    MW4 9848   0.974   3.499   4.333 -0.2034 -0.5703  0.0224
 2432SOL     OW 9849   0.863   3.216   3.722  0.3158 -0.0543  0.1625
 2432SOL    HW2 9850   0.794   3.165   3.764  0.0576 -0.7298 -1.0650
 2432SOL    HW3 9851   0.944   3.168   3.740  0.1972 -0.3737 -0.1516
 2432SOL    MW4 9852   0.865   3.203   3.730  0.2661 -0.1857 -0.0408
 2433SOL     OW 9853   3.855   1.697   4.154 -0.1484  0.0232  0.3475
 2433SOL    HW2 9854   3.941   1.738   4.151 -0.5720  0.9098  0.2457
 2433SOL    HW3 9855   3.850   1.647   4.073  1.3414 -2.2476  1.5901
 2433SOL    MW4 9856   3.865   1.696   4.143 -0.0079 -0.1594  0.4978
 2434SOL     OW 9857   2.865   2.224   4.503  0.5487  0.0528  0.3719
 2434SOL    HW2 9858   2.857   2.318   4.516  0.8177  0.0347  0.6515
 2434SOL    HW3 9859   2.814   2.185   4.575  0.7724 -0.0212  0.4899
 2434SOL    MW4 9860   2.857   2.231   4.514  0.6137  0.0405  0.4244
 2435SOL     OW 9861   0.967   1.028   4.706 -0.0741  0.3425  0.7835
 2435SOL    HW2 9862   1.035   0.986   4.759 -0.3586  0.8523  1.5519
 2435SOL    HW3 9863   0.887   0.981   4.728 -0.3672  1.1726  1.5372
 2435SOL    MW4 9864   0.966   1.016   4.716 -0.1503  0.5193  0.9842
 2436SOL     OW 9865   1.537   1.141   4.780 -0.1495  0.4321 -0.4271
 2436SOL    HW2 9866   1.474   1.195   4.733  0.5531  0.4907 -1.3125
 2436SOL    HW3 9867   1.490   1.112   4.859 -0.8625  1.4757 -0.4615
 2436SOL    MW4 9868   1.523   1.144   4.784 -0.1508  0.5776 -0.5488
 2437SOL     OW 9869   0.712   1.543   3.803 -0.5676 -0.6577 -0.0507
 2437SOL    HW2 9870   0.678   1.545   3.893 -1.6943  1.3714 -0.4871
 2437SOL    HW3 9871   0.787   1.603   3.805 -1.8374  1.0132 -0.9043
 2437SOL    MW4 9872   0.718   1.551   3.815 -0.8838 -0.1695 -0.2210
 2438SOL     OW 9873   0.037   1.927   3.895 -0.2667  0.5330 -0.3014
 2438SOL    HW2 9874   0.033   1.932   3.991  1.1365  1.5491 -0.2737
 2438SOL    HW3 9875  -0.034   1.983   3.865  0.0196  1.1571  0.1587
 2438SOL    MW4 9876   0.027   1.935   3.904 -0.0438  0.7495 -0.2372
 2439SOL     OW 9877   2.156   0.145   4.321 -0.2743  0.2532  0.2502
 2439SOL    HW2 9878   2.239   0.110   4.354 -0.4122 -0.8345 -0.5236
 2439SOL    HW3 9879   2.181   0.206   4.252 -0.1380 -1.2588 -1.0868
 2439SOL    MW4 9880   2.170   0.148   4.316 -0.2747 -0.0898 -0.0281
 2440SOL     OW 9881   1.118   0.517   3.731  0.4763 -0.5173 -0.4758
 2440SOL    HW2 9882   1.194   0.489   3.782 -0.7769 -0.9135  1.2170
 2440SOL    HW3 9883   1.108   0.610   3.751 -0.1807 -0.7358  0.2273
 2440SOL    MW4 9884   1.127   0.525   3.740  0.2242 -0.5984 -0.1597
 2441SOL     OW 9885   4.193   1.444   4.683  0.0587 -0.0429  0.0028
 2441SOL    HW2 9886   4.236   1.435   4.768 -1.5031 -0.7546  0.7344
 2441SOL    HW3 9887   4.198   1.357   4.644  1.5054  0.4784 -1.0097
 2441SOL    MW4 9888   4.199   1.431   4.689  0.0434 -0.0679 -0.0343
 2442SOL     OW 9889   0.175   0.473   4.490 -0.1366 -0.7275 -0.0999
 2442SOL    HW2 9890   0.109   0.418   4.533 -0.1472 -0.9355 -0.3779
 2442SOL    HW3 9891   0.227   0.411   4.438  0.4958 -0.6127  0.3923
 2442SOL    MW4 9892   0.173   0.457   4.489 -0.0546 -0.7398 -0.0720
 2443SOL     OW 9893   0.275   1.543   3.839 -0.2091  0.6433 -0.5892
 2443SOL    HW2 9894   0.187   1.579   3.825 -0.5197  0.1631  0.1155
 2443SOL    HW3 9895   0.286   1.542   3.934  0.6229  0.8468 -0.6816
 2443SOL    MW4 9896   0.265   1.548   3.850 -0.1403  0.6069 -0.5085
 2444SOL     OW 9897   1.300   0.920   3.701  0.0034  0.2962  0.3760
 2444SOL    HW2 9898   1.368   0.862   3.736 -0.7544  0.4500  2.1438
 2444SOL    HW3 9899   1.319   1.005   3.740 -0.4859  0.6364 -0.1128
 2444SOL    MW4 9900   1.311   0.924   3.710 -0.1612  0.3615  0.5445
 2445SOL     OW 9901   1.597   2.006   4.577  0.0826 -0.4290  0.0237
 2445SOL    HW2 9902   1.605   2.081   4.518  1.0345 -0.4054  0.1790
 2445SOL    HW3 9903   1.511   2.018   4.618  1.2011  1.9729  1.8798
 2445SOL    MW4 9904   1.586   2.018   4.575  0.3557 -0.1090  0.2890
 2446SOL     OW 9905   4.233   1.342   4.303  0.1658  0.0516  0.1373
 2446SOL    HW2 9906   4.225   1.436   4.315 -1.0238 -0.0405  0.1097
 2446SOL    HW3 9907   4.224   1.306   4.391 -0.9144 -0.1265 -0.0361
 2446SOL    MW4 9908   4.231   1.349   4.316 -0.1335  0.0160  0.1106
 2447SOL     OW 9909   0.651   3.918   4.624 -0.3020  0.1209  0.8843
 2447SOL    HW2 9910   0.594   3.849   4.657  0.2679  0.0989  1.8401
 2447SOL    HW3 9911   0.737   3.876   4.615 -0.6554 -0.1370 -1.5730
 2447SOL    MW4 9912   0.655   3.903   4.627 -0.2733  0.0839  0.6862
 2448SOL     OW 9913   2.026   3.223   4.423  0.4510 -0.1592  0.0792
 2448SOL    HW2 9914   2.106   3.177   4.451 -1.0396 -1.4651  2.3664
 2448SOL    HW3 9915   2.037   3.312   4.455  1.6165  0.0712 -0.9107
 2448SOL    MW4 9916   2.038   3.228   4.431  0.4082 -0.3011  0.2499
 2449SOL     OW 9917   2.808   2.151   4.247  0.5103  0.1658 -0.0176
 2449SOL    HW2 9918   2.827   2.233   4.201 -0.1744  0.8901  0.9826
 2449SOL    HW3 9919   2.823   2.171   4.339 -0.7138 -0.5292  0.3402
 2449SOL    MW4 9920   2.813   2.164   4.253  0.2587  0.1698  0.1612
 2450SOL     OW 9921   4.341   2.196   4.585 -0.2534  0.1333 -0.0418
 2450SOL    HW2 9922   4.324   2.190   4.491  0.3253  0.3075 -0.1601
 2450SOL    HW3 9923   4.434   2.217   4.591 -0.6181  1.6206  0.5310
 2450SOL    MW4 9924   4.351   2.198   4.574 -0.2251  0.3524  0.0181
 2451SOL     OW 9925   1.969   4.181   4.254 -0.0472  0.2446  0.1568
 2451SOL    HW2 9926   2.001   4.265   4.286  2.1415 -0.8482  0.9482
 2451SOL    HW3 9927   1.935   4.137   4.331 -0.1142 -0.0627 -0.0478
 2451SOL    MW4 9928   1.969   4.186   4.268  0.2327  0.0601  0.2337
 2452SOL     OW 9929   0.618   1.356   4.466 -0.2619  0.2165 -0.2285
 2452SOL    HW2 9930   0.539   1.390   4.423 -0.3159  0.1258 -0.2001
 2452SOL    HW3 9931   0.595   1.350   4.558  0.0956  1.1206 -0.0739
 2452SOL    MW4 9932   0.605   1.360   4.472 -0.2218  0.3240 -0.2046
 2453SOL     OW 9933   1.721   3.589   4.173 -0.3943  0.4655 -0.9011
 2453SOL    HW2 9934   1.771   3.556   4.098 -1.1307 -0.6772 -0.8997
 2453SOL    HW3 9935   1.736   3.683   4.172  0.7770  0.2809 -1.6190
 2453SOL    MW4 9936   1.729   3.597   4.163 -0.3371  0.2904 -0.9956
 2454SOL     OW 9937   1.609   2.237   4.419 -0.0989  0.4811  0.3195
 2454SOL    HW2 9938   1.641   2.278   4.499  0.3245 -0.1771  0.4912
 2454SOL    HW3 9939   1.514   2.246   4.423 -0.1597 -0.6728  1.4984
 2454SOL    MW4 9940   1.601   2.244   4.430 -0.0510  0.2422  0.4978
 2455SOL     OW 9941   0.666   4.597   4.343 -0.0640  0.3312 -0.3413
 2455SOL    HW2 9942   0.651   4.550   4.425 -0.7300  0.1259 -0.5780
 2455SOL    HW3 9943   0.751   4.564   4.312 -0.1854 -0.1764 -0.1405
 2455SOL    MW4 9944   0.675   4.586   4.349 -0.1680  0.2370 -0.3462
 2456SOL     OW 9945   1.404   0.237   4.527  0.2307  0.1288  0.8042
 2456SOL    HW2 9946   1.408   0.330   4.549 -1.9564  0.2912  0.6482
 2456SOL    HW3 9947   1.421   0.192   4.609  1.3447  0.6515  0.8693
 2456SOL    MW4 9948   1.407   0.243   4.540  0.0890  0.2192  0.7915
 2457SOL     OW 9949   2.563   1.946   4.551  0.0521 -0.4488 -0.4075
 2457SOL    HW2 9950   2.477   1.980   4.577 -0.3897 -0.9049 -1.2301
 2457SOL    HW3 9951   2.625   1.989   4.610 -0.7786 -0.3970  0.4343
 2457SOL    MW4 9952   2.559   1.956   4.562 -0.1156 -0.5022 -0.4053
 2458SOL     OW 9953   3.150   1.862   4.603  0.4518  0.2942 -0.5202
 2458SOL    HW2 9954   3.088   1.789   4.601 -0.5992  1.1545  0.0758
 2458SOL    HW3 9955   3.235   1.820   4.614  0.1256 -0.9784 -2.6546
 2458SOL    MW4 9956   3.153   1.847   4.604  0.2699  0.2397 -0.7229
 2459SOL     OW 9957   3.150   4.321   4.434 -0.0930 -0.4164  0.0323
 2459SOL    HW2 9958   3.135   4.383   4.506  1.9198 -0.2825  0.3584
 2459SOL    HW3 9959   3.195   4.247   4.475  0.8562 -0.4409 -1.0471
 2459SOL    MW4 9960   3.154   4.319   4.449  0.2978 -0.4025 -0.0672
 2460SOL     OW 9961   0.695   0.940   4.723  0.1783 -0.0141  0.1388
 2460SOL    HW2 9962   0.691   0.997   4.646  0.2988 -0.2984 -0.0827
 2460SOL    HW3 9963   0.607   0.941   4.759  0.2122  0.4081  0.2027
 2460SOL    MW4 9964   0.683   0.947   4.718  0.1987  0.0041  0.1183
 2461SOL     OW 9965   0.660   0.831   3.888 -0.1752  0.6825  0.0489
 2461SOL    HW2 9966   0.740   0.844   3.837 -0.4734 -1.4527 -1.0373
 2461SOL    HW3 9967   0.589   0.860   3.830 -0.3154  0.6618  0.2101
 2461SOL    MW4 9968   0.661   0.836   3.873 -0.2330  0.3981 -0.0730
 2462SOL     OW 9969   3.445   3.434   4.676 -0.6488 -0.9091 -0.0230
 2462SOL    HW2 9970   3.357   3.403   4.652 -0.1830 -0.8012 -1.9674
 2462SOL    HW3 9971   3.447   3.525   4.648  0.6434 -1.3909 -1.6074
 2462SOL    MW4 9972   3.433   3.442   4.669 -0.4170 -0.9582 -0.4892
 2463SOL     OW 9973   0.921   1.195   3.769 -0.2420 -0.8861 -0.6417
 2463SOL    HW2 9974   0.847   1.231   3.721  0.1390 -0.9469 -1.2684
 2463SOL    HW3 9975   0.993   1.256   3.753 -0.5577  0.0453  1.2462
 2463SOL    MW4 9976   0.921   1.208   3.761 -0.2334 -0.7713 -0.4754
 2464SOL     OW 9977   0.499   3.690   4.592 -0.2338  0.3772 -0.0465
 2464SOL    HW2 9978   0.554   3.620   4.627 -1.1014 -0.5000 -0.3983
 2464SOL    HW3 9979   0.525   3.698   4.500  0.5267  1.1719  0.2400
 2464SOL    MW4 9980   0.510   3.682   4.585 -0.2480  0.3664 -0.0558
 2465SOL     OW 9981   1.580   2.066   3.439 -0.1114 -0.5778 -0.0063
 2465SOL    HW2 9982   1.549   2.055   3.529  1.6992 -0.6043  0.6326
 2465SOL    HW3 9983   1.639   1.993   3.425  0.1442 -0.1891 -0.9907
 2465SOL    MW4 9984   1.584   2.055   3.449  0.1612 -0.5300 -0.0520
 2466SOL     OW 9985   3.132   3.426   4.078 -0.0732  0.3553 -0.1062
 2466SOL    HW2 9986   3.132   3.451   3.985 -1.8349  0.4298 -0.1108
 2466SOL    HW3 9987   3.152   3.333   4.078 -0.2371  0.3171 -0.5791
 2466SOL    MW4 9988   3.134   3.417   4.065 -0.3271  0.3603 -0.1688
 2467SOL     OW 9989   1.976   1.322   3.722  0.0183  0.2000 -0.2448
 2467SOL    HW2 9990   1.973   1.411   3.758  0.8812 -0.0822  0.5444
 2467SOL    HW3 9991   2.056   1.284   3.759  0.9621 -0.0775 -2.5238
 2467SOL    MW4 9992   1.986   1.329   3.732  0.2565  0.1261 -0.4413
 2468SOL     OW 9993   0.988   0.340   4.532 -0.0755 -0.0170  0.3153
 2468SOL    HW2 9994   1.041   0.408   4.574  0.4461  1.0085 -1.9290
 2468SOL    HW3 9995   1.047   0.264   4.527 -0.2772 -0.2815  1.7707
 2468SOL    MW4 9996   1.003   0.339   4.537 -0.0333  0.0834  0.2108
 2469SOL     OW 9997   0.465   1.924   3.799  0.2174  0.1309  0.0462
 2469SOL    HW2 9998   0.488   1.837   3.766 -2.2286 -0.4574 -0.1526
 2469SOL    HW3 9999   0.466   1.914   3.894 -1.2214 -0.4449  0.0119
 2469SOL    MW410000   0.469   1.911   3.807 -0.2951 -0.0226  0.0155
 2470SOL     OW10001   3.194   3.086   4.513  0.7384 -0.8186  0.2409
 2470SOL    HW210002   3.271   3.078   4.457  0.2343 -1.3379 -0.3836
 2470SOL    HW310003   3.195   3.177   4.543  0.1781 -0.1038 -1.8354
 2470SOL    MW410004   3.204   3.097   4.510  0.5977 -0.7927 -0.1154
 2471SOL     OW10005   3.255   2.388   4.465  0.1642 -0.2266 -0.1677
 2471SOL    HW210006   3.234   2.300   4.498  0.6929  0.1021  1.0563
 2471SOL    HW310007   3.346   2.402   4.491  0.6712 -0.0580 -2.0119
 2471SOL    MW410008   3.264   2.378   4.473  0.3009 -0.1609 -0.2503
 2472SOL     OW10009   0.148   2.174   4.277 -0.1552 -0.0716  0.0005
 2472SOL    HW210010   0.211   2.230   4.232 -1.9177  2.1703  0.2305
 2472SOL    HW310011   0.117   2.226   4.351 -1.3452 -1.6138  0.6234
 2472SOL    MW410012   0.152   2.188   4.281 -0.5447  0.0205  0.1140
 2473SOL     OW10013   1.673   3.290   4.164  0.3390  0.4586 -0.1284
 2473SOL    HW210014   1.609   3.355   4.133  0.8401  1.6085  1.1774
 2473SOL    HW310015   1.667   3.294   4.259  2.0908  0.3241  0.0088
 2473SOL    MW410016   1.664   3.299   4.172  0.6361  0.5925  0.0620
 2474SOL     OW10017   0.898   2.448   3.718 -0.2434  0.0856  0.1889
 2474SOL    HW210018   0.911   2.531   3.764 -1.2422  0.6403 -0.5036
 2474SOL    HW310019   0.819   2.411   3.758 -0.8346  0.3362 -0.7364
 2474SOL    MW410020   0.889   2.454   3.730 -0.4532  0.1919 -0.0246
 2475SOL     OW10021   1.364   1.334   4.655 -0.4217  0.1527  0.5308
 2475SOL    HW210022   1.288   1.283   4.629 -0.0858  1.0588 -2.3784
 2475SOL    HW310023   1.354   1.418   4.610  1.6526  0.7504  1.1111
 2475SOL    MW410024   1.353   1.339   4.646 -0.1038  0.3511  0.2236
 2476SOL     OW10025   4.317   3.539   4.476 -0.5796  0.2065 -0.5608
 2476SOL    HW210026   4.370   3.461   4.491 -0.6573  0.4359  0.9432
 2476SOL    HW310027   4.234   3.521   4.520 -0.6256  1.1038 -0.2714
 2476SOL    MW410028   4.313   3.527   4.484 -0.5965  0.3550 -0.3242
 2477SOL     OW10029   2.461   1.254   4.257 -0.2241 -0.0638 -0.5962
 2477SOL    HW210030   2.413   1.251   4.340  0.7179 -2.4759 -0.0853
 2477SOL    HW310031   2.478   1.347   4.242 -0.0481  0.3783  2.1425
 2477SOL    MW410032   2.457   1.266   4.266 -0.0768 -0.3237 -0.1674
 2478SOL     OW10033   0.939   4.007   4.271  0.4351  0.2470  0.3211
 2478SOL    HW210034   0.853   3.972   4.245  0.2575  1.0957 -0.2887
 2478SOL    HW310035   1.002   3.959   4.217  0.2228  0.5915 -0.2428
 2478SOL    MW410036   0.936   3.996   4.260  0.3837  0.4046  0.1664
 2479SOL     OW10037   1.632   0.812   4.539  0.3472 -0.1950  0.2368
 2479SOL    HW210038   1.604   0.746   4.475  0.1649 -0.9800  1.1094
 2479SOL    HW310039   1.655   0.889   4.487 -1.1497 -0.3519 -0.6655
 2479SOL    MW410040   1.632   0.813   4.524  0.1258 -0.3193  0.2322
 2480SOL     OW10041   0.530   2.073   4.405  0.0640 -0.3953 -0.5728
 2480SOL    HW210042   0.590   2.131   4.359  0.7580 -0.4968  0.1985
 2480SOL    HW310043   0.545   1.987   4.366  0.4117 -0.4179 -0.3897
 2480SOL    MW410044   0.540   2.069   4.394  0.2014 -0.4117 -0.4468
 2481SOL     OW10045   0.992   3.879   4.629 -0.0078 -0.1892  0.1915
 2481SOL    HW210046   1.009   3.972   4.621  0.3473 -0.0772  2.1632
 2481SOL    HW310047   1.066   3.844   4.678  0.8249 -1.8602 -2.1066
 2481SOL    MW410048   1.004   3.886   4.634  0.1490 -0.3948  0.1483
 2482SOL     OW10049   1.295   2.621   4.585  0.3521 -0.1976 -0.2637
 2482SOL    HW210050   1.202   2.602   4.572  0.2520 -0.7410  1.1000
 2482SOL    HW310051   1.326   2.548   4.639  1.3113  0.5483  0.2030
 2482SOL    MW410052   1.287   2.609   4.590  0.4654 -0.1709 -0.0224
 2483SOL     OW10053   3.184   3.355   4.592 -0.1686 -0.1910 -0.0769
 2483SOL    HW210054   3.095   3.348   4.627 -0.3983 -2.1483 -0.9825
 2483SOL    HW310055   3.184   3.436   4.542 -0.7990  0.9262  1.6757
 2483SOL    MW410056   3.172   3.365   4.590 -0.2820 -0.3021  0.0348
 2484SOL     OW10057   3.837   3.539   4.548  0.1232 -0.5151  0.4909
 2484SOL    HW210058   3.788   3.457   4.554  0.2541 -0.6555 -0.2563
 2484SOL    HW310059   3.815   3.573   4.461  1.1761 -0.4631  0.2384
 2484SOL    MW410060   3.828   3.533   4.537  0.2792 -0.5267  0.3586
 2485SOL     OW10061   1.337   0.404   3.887 -0.1035 -0.0862  0.1819
 2485SOL    HW210062   1.398   0.451   3.831 -2.9200  0.2736 -2.7399
 2485SOL    HW310063   1.338   0.314   3.854 -2.0835  0.2142 -0.7610
 2485SOL    MW410064   1.345   0.398   3.876 -0.7364  0.0010 -0.3281
 2486SOL     OW10065   3.842   3.762   4.695 -0.0507  0.0429 -0.0389
 2486SOL    HW210066   3.828   3.672   4.666  0.5724 -0.6161  1.6492
 2486SOL    HW310067   3.756   3.790   4.727 -0.4192  0.3082 -1.2514
 2486SOL    MW410068   3.829   3.754   4.696 -0.0172 -0.0091  0.0238
 2487SOL     OW10069   3.582   3.992   4.227  0.0182 -0.3135  0.4135
 2487SOL    HW210070   3.646   3.929   4.193 -0.5897 -0.2531 -0.8755
 2487SOL    HW310071   3.497   3.958   4.197 -0.3889  0.6398  0.4687
 2487SOL    MW410072   3.579   3.979   4.218 -0.1159 -0.1798  0.2508
 2488SOL     OW10073   2.182   3.692   4.630 -0.2529 -0.2546  0.1701
 2488SOL    HW210074   2.144   3.629   4.569 -0.1315 -1.2607  1.1298
 2488SOL    HW310075   2.267   3.654   4.654  0.3229  0.8244 -0.1281
 2488SOL    MW410076   2.188   3.679   4.625 -0.1609 -0.2451  0.2575
 2489SOL     OW10077   4.313   1.907   4.596 -0.6726  0.1158 -0.1678
 2489SOL    HW210078   4.330   1.998   4.619  1.8770 -0.4665  0.4326
 2489SOL    HW310079   4.361   1.856   4.662 -0.0371 -1.6345 -1.9353
 2489SOL    MW410080   4.322   1.912   4.608 -0.2522 -0.1919 -0.3209
 2490SOL     OW10081   2.398   0.148   4.716  0.1510  0.6087  0.1300
 2490SOL    HW210082   2.324   0.200   4.749 -0.2084  0.1819  0.0005
 2490SOL    HW310083   2.360   0.062   4.697  0.9053  0.0356  1.1375
 2490SOL    MW410084   2.383   0.143   4.718  0.2031  0.4768  0.2460
 2491SOL     OW10085   2.038   2.246   3.951 -0.2438 -0.5017 -0.1178
 2491SOL    HW210086   2.081   2.177   4.002 -1.3302  0.1375  1.6991
 2491SOL    HW310087   1.960   2.204   3.914  1.0604 -1.2333 -2.1140
 2491SOL    MW410088   2.033   2.231   3.953 -0.2153 -0.5140 -0.1414
 2492SOL     OW10089   1.769   0.914   3.729  0.1376  0.1250 -0.2260
 2492SOL    HW210090   1.767   1.006   3.757  1.1711 -0.4738  1.9463
 2492SOL    HW310091   1.762   0.918   3.634 -0.3095  2.4366 -0.1332
 2492SOL    MW410092   1.768   0.927   3.720  0.2149  0.3510  0.0730
 2493SOL     OW10093   1.622   0.757   4.078  0.1000  0.0285  0.0378
 2493SOL    HW210094   1.581   0.708   4.149 -0.2448  0.3383  0.0524
 2493SOL    HW310095   1.622   0.847   4.108  1.0497 -0.0045  0.1598
 2493SOL    MW410096   1.617   0.762   4.091  0.1799  0.0650  0.0558
 2494SOL     OW10097   3.143   0.993   4.511 -0.1298  0.3054  0.0804
 2494SOL    HW210098   3.199   0.926   4.551  0.4147  0.5795 -0.2127
 2494SOL    HW310099   3.060   0.986   4.558  0.2408  0.0748  0.7127
 2494SOL    MW410100   3.139   0.984   4.523 -0.0091  0.3111  0.1249
 2495SOL     OW10101   0.515   1.864   4.063 -0.2618 -0.1970  0.0972
 2495SOL    HW210102   0.574   1.937   4.082  0.2183 -1.0073  1.8522
 2495SOL    HW310103   0.434   1.885   4.109 -0.0753 -0.8127  0.7244
 2495SOL    MW410104   0.512   1.876   4.071 -0.1739 -0.3854  0.4115
 2496SOL     OW10105   3.771   0.352   4.417 -0.2999  0.2458 -0.3219
 2496SOL    HW210106   3.784   0.445   4.401 -0.5799  0.2971 -0.2479
 2496SOL    HW310107   3.715   0.347   4.494 -0.7741  0.0311 -0.6709
 2496SOL    MW410108   3.765   0.363   4.425 -0.3994  0.2242 -0.3576
 2497SOL     OW10109   3.106   3.939   4.236 -0.5014  0.2510 -0.1822
 2497SOL    HW210110   3.039   3.882   4.200 -0.5357  0.4577 -0.4461
 2497SOL    HW310111   3.099   3.928   4.331 -1.8853  1.3644 -0.1284
 2497SOL    MW410112   3.097   3.930   4.244 -0.6886  0.4253 -0.2103
 2498SOL     OW10113   0.456   2.699   3.809 -0.2119 -0.0008 -0.2524
 2498SOL    HW210114   0.468   2.668   3.898  0.8746  1.2317  0.0518
 2498SOL    HW310115   0.386   2.764   3.815 -0.0859  0.1387 -0.2695
 2498SOL    MW410116   0.448   2.704   3.821 -0.0519  0.1800 -0.2143
 2499SOL     OW10117   0.105   3.944   4.377  0.6532 -0.4938 -0.0176
 2499SOL    HW210118   0.164   3.996   4.430  2.0479 -1.0044 -1.0445
 2499SOL    HW310119   0.067   3.881   4.438  2.2751 -1.1006  0.3968
 2499SOL    MW410120   0.108   3.942   4.392  1.0512 -0.6413 -0.0992
 2500SOL     OW10121   0.687   2.059   3.738  0.1274 -0.3672 -0.0952
 2500SOL    HW210122   0.687   2.059   3.642  0.8584  0.3587 -0.1001
 2500SOL    HW310123   0.614   2.001   3.762 -1.0972  0.7291 -1.0978
 2500SOL    MW410124   0.677   2.051   3.728  0.0622 -0.1271 -0.2284
 2501SOL     OW10125   1.085   3.058   4.505 -0.6157 -0.1989  0.3049
 2501SOL    HW210126   1.100   3.030   4.596 -0.4191 -0.3840  0.2173
 2501SOL    HW310127   1.059   2.978   4.460 -1.0202 -0.0430  0.2662
 2501SOL    MW410128   1.084   3.044   4.511 -0.6433 -0.2027  0.2875
 2502SOL     OW10129   4.367   4.086   4.282  0.0802 -0.7900 -0.5035
 2502SOL    HW210130   4.452   4.046   4.303 -0.0526 -0.5636  0.4787
 2502SOL    HW310131   4.386   4.146   4.210  0.5389 -1.5944 -1.0613
 2502SOL    MW410132   4.381   4.088   4.276  0.1235 -0.8669 -0.4468
 2503SOL     OW10133   2.325   1.271   4.501  0.1339  0.2683 -0.3253
 2503SOL    HW210134   2.237   1.310   4.501  0.2038  0.4371  0.8328
 2503SOL    HW310135   2.371   1.315   4.572  1.5836  1.0999 -1.7436
 2503SOL    MW410136   2.319   1.282   4.510  0.3340  0.4003 -0.3595
 2504SOL     OW10137   0.869   3.671   4.497 -0.0435  0.4599  0.0002
 2504SOL    HW210138   0.922   3.737   4.540  0.9219 -0.5053  0.3207
 2504SOL    HW310139   0.815   3.634   4.567 -0.6867  1.0024 -0.2067
 2504SOL    MW410140   0.869   3.675   4.512 -0.0010  0.4041  0.0148
 2505SOL     OW10141   3.277   2.101   4.259  0.1706  0.3446 -0.2033
 2505SOL    HW210142   3.351   2.042   4.275  0.0397 -0.0242 -0.9637
 2505SOL    HW310143   3.236   2.110   4.345  0.5607 -0.1753  0.0455
 2505SOL    MW410144   3.282   2.094   4.273  0.2048  0.2272 -0.2704
 2506SOL     OW10145   1.029   0.934   4.240  0.0189  0.3664  0.0764
 2506SOL    HW210146   1.044   0.846   4.206 -1.6910 -0.0830  0.4643
 2506SOL    HW310147   0.991   0.982   4.166  1.1619  0.8539 -0.2058
 2506SOL    MW410148   1.026   0.929   4.226 -0.0559  0.3715  0.0906
 2507SOL     OW10149   0.702   1.042   4.117 -0.2154  0.5664  0.2494
 2507SOL    HW210150   0.628   1.095   4.146 -1.2049 -0.4819 -0.2790
 2507SOL    HW310151   0.673   1.007   4.032  1.0762  0.5115 -0.1702
 2507SOL    MW410152   0.688   1.044   4.109 -0.1755  0.4208  0.1245
 2508SOL     OW10153   3.225   3.160   4.087 -0.2402 -0.5022  0.0050
 2508SOL    HW210154   3.282   3.126   4.018  0.1321  2.7890 -1.4612
 2508SOL    HW310155   3.277   3.154   4.167  1.3113  0.3251 -0.9145
 2508SOL    MW410156   3.240   3.155   4.088  0.0134  0.0410 -0.3095
 2509SOL     OW10157   2.848   4.321   4.243 -0.1385 -0.2899 -0.1400
 2509SOL    HW210158   2.934   4.280   4.251  0.1442  0.3211  0.0310
 2509SOL    HW310159   2.821   4.338   4.333 -0.0439  0.3134 -0.2210
 2509SOL    MW410160   2.856   4.318   4.256 -0.0889 -0.1297 -0.1278
 2510SOL     OW10161   3.312   3.586   4.221 -0.0879  0.1383 -0.0564
 2510SOL    HW210162   3.329   3.663   4.166  0.8778  0.0433  0.0944
 2510SOL    HW310163   3.261   3.527   4.165  0.6800  0.1469 -0.7705
 2510SOL    MW410164   3.308   3.588   4.206  0.1409  0.1271 -0.1307
 2511SOL     OW10165   2.482   3.716   4.220 -0.0882  0.0745 -0.6403
 2511SOL    HW210166   2.401   3.765   4.236 -0.0359  0.5217 -1.7544
 2511SOL    HW310167   2.540   3.778   4.176  0.6318 -0.4449 -0.4270
 2511SOL    MW410168   2.479   3.731   4.217  0.0138  0.0648 -0.7591
 2512SOL     OW10169   2.800   0.751   4.634 -0.3227 -0.3552  0.0922
 2512SOL    HW210170   2.887   0.736   4.672 -1.0093 -0.5018  1.6566
 2512SOL    HW310171   2.774   0.665   4.601 -0.9000 -0.9139  1.8916
 2512SOL    MW410172   2.808   0.738   4.635 -0.4895 -0.4483  0.5360
 2513SOL     OW10173   4.436   1.116   4.435  0.1584 -0.1433  0.3197
 2513SOL    HW210174   4.471   1.127   4.346 -0.1603  0.2950  0.2470
 2513SOL    HW310175   4.501   1.159   4.491  0.7464 -1.0992  0.3697
 2513SOL    MW410176   4.449   1.123   4.431  0.1941 -0.2116  0.3171
 2514SOL     OW10177   2.244   3.847   4.246  0.0299  0.0298 -0.6570
 2514SOL    HW210178   2.268   3.926   4.196 -0.3577 -0.8240 -2.2128
 2514SOL    HW310179   2.214   3.881   4.330  1.8920  1.4225 -0.5196
 2514SOL    MW410180   2.243   3.862   4.250  0.2241  0.1009 -0.8440
 2515SOL     OW10181   0.958   1.136   4.057 -0.3003  0.4682 -0.3354
 2515SOL    HW210182   0.866   1.122   4.082 -0.8828  4.1559 -0.0511
 2515SOL    HW310183   0.955   1.148   3.962 -0.1301  0.4308 -0.3439
 2515SOL    MW410184   0.945   1.136   4.048 -0.3548  0.9499 -0.2990
 2516SOL     OW10185   0.957   2.015   3.794  0.3629 -0.5625 -0.1415
 2516SOL    HW210186   0.971   2.099   3.838  0.7937 -0.5975 -0.2101
 2516SOL    HW310187   0.866   2.019   3.765  0.7491  0.4268 -1.2950
 2516SOL    MW410188   0.947   2.027   3.796  0.4707 -0.4370 -0.3026
 2517SOL     OW10189   1.364   1.947   3.320  0.0979  0.2732  0.4389
 2517SOL    HW210190   1.360   1.856   3.349  0.6644  0.8846  2.5250
 2517SOL    HW310191   1.443   1.982   3.361 -0.4483  1.8791  0.1554
 2517SOL    MW410192   1.374   1.940   3.329  0.1006  0.5658  0.6766
 2518SOL     OW10193   2.862   0.767   4.180  0.3470 -0.1655  0.0422
 2518SOL    HW210194   2.870   0.781   4.086  1.8124  0.2582  0.2208
 2518SOL    HW310195   2.948   0.791   4.215  0.5289 -2.4905  1.2214
 2518SOL    MW410196   2.875   0.772   4.172  0.5646 -0.4163  0.2213
 2519SOL     OW10197   1.623   2.809   3.714 -0.0371  0.0265  0.2046
 2519SOL    HW210198   1.531   2.784   3.729  0.0968 -0.9478 -0.5404
 2519SOL    HW310199   1.626   2.902   3.736 -0.9731 -0.1830  1.2505
 2519SOL    MW410200   1.611   2.818   3.719 -0.1431 -0.1297  0.2441
 2520SOL     OW10201   2.716   1.716   4.468  0.1764  0.0567 -0.5243
 2520SOL    HW210202   2.679   1.786   4.521  1.9023  0.7716 -0.2463
 2520SOL    HW310203   2.808   1.712   4.493  0.6375 -0.7475 -2.2323
 2520SOL    MW410204   2.723   1.725   4.478  0.4649  0.0448 -0.7129
 2521SOL     OW10205   3.703   1.932   4.121  0.0333  0.3139 -0.2470
 2521SOL    HW210206   3.678   1.922   4.029 -0.3006  1.5269 -0.2826
 2521SOL    HW310207   3.755   1.853   4.139 -0.6084 -0.3569 -1.2254
 2521SOL    MW410208   3.707   1.920   4.111 -0.0956  0.3854 -0.3805
 2522SOL     OW10209   0.571   3.525   4.138 -0.4049 -0.0235 -0.2988
 2522SOL    HW210210   0.581   3.591   4.206  0.1496 -0.5805  0.1685
 2522SOL    HW310211   0.659   3.491   4.125 -0.4533  0.3151 -1.5386
 2522SOL    MW410212   0.584   3.529   4.145 -0.3381 -0.0520 -0.4010
 2523SOL     OW10213   3.557   0.108   4.273 -0.3691  0.2824  0.4526
 2523SOL    HW210214   3.637   0.058   4.255 -1.3391 -1.4850  0.9972
 2523SOL    HW310215   3.571   0.191   4.227  1.8045  0.0350  0.5779
 2523SOL    MW410216   3.570   0.112   4.265 -0.2100  0.0166  0.5412
 2524SOL     OW10217   1.983   2.397   4.205 -0.5254 -0.2769 -0.0853
 2524SOL    HW210218   2.034   2.358   4.276  0.3929  0.9751 -0.0411
 2524SOL    HW310219   2.028   2.369   4.125  1.1447  2.0367  0.0021
 2524SOL    MW410220   1.996   2.388   4.204 -0.1839  0.1934 -0.0677
 2525SOL     OW10221   1.385   1.728   3.686  0.3034  0.2685 -0.0732
 2525SOL    HW210222   1.335   1.809   3.694  0.9207  0.6429 -0.0440
 2525SOL    HW310223   1.466   1.744   3.734  1.1532  0.2064 -1.4748
 2525SOL    MW410224   1.389   1.741   3.693  0.4970  0.3098 -0.2544
 2526SOL     OW10225   1.738   2.380   3.704 -0.1741 -0.2063  0.1096
 2526SOL    HW210226   1.779   2.462   3.731 -0.9163  0.8048 -1.7457
 2526SOL    HW310227   1.754   2.375   3.609 -2.1491 -1.0442 -0.2010
 2526SOL    MW410228   1.746   2.390   3.695 -0.5327 -0.1833 -0.1762
 2527SOL     OW10229   3.848   2.350   4.431  0.1175  0.1673  0.0325
 2527SOL    HW210230   3.775   2.373   4.373  0.2426  0.0351 -0.1784
 2527SOL    HW310231   3.828   2.393   4.514 -0.0180  0.4306 -0.1385
 2527SOL    MW410232   3.836   2.358   4.434  0.1161  0.1848 -0.0176
 2528SOL     OW10233   3.347   0.782   4.603  0.0931 -0.0376  0.2961
 2528SOL    HW210234   3.372   0.690   4.589  0.1379 -0.1445  1.0577
 2528SOL    HW310235   3.421   0.832   4.567 -0.7490 -0.2446 -1.8087
 2528SOL    MW410236   3.360   0.776   4.596 -0.0119 -0.0791  0.1192
 2529SOL     OW10237   4.420   0.835   4.478 -0.1420 -0.1200  0.2161
 2529SOL    HW210238   4.411   0.930   4.477 -0.3204 -0.1281 -1.6818
 2529SOL    HW310239   4.514   0.819   4.477 -0.1196  0.0564 -1.3759
 2529SOL    MW410240   4.431   0.845   4.478 -0.1626 -0.0978 -0.2441
 2530SOL     OW10241   3.266   4.108   4.556 -0.0652 -0.2506  0.4612
 2530SOL    HW210242   3.351   4.068   4.540 -0.4571 -0.8278 -0.2184
 2530SOL    HW310243   3.276   4.156   4.638  0.5194 -1.4315  1.0882
 2530SOL    MW410244   3.278   4.109   4.565 -0.0398 -0.4826  0.4544
 2531SOL     OW10245   2.388   4.643   4.407 -0.1417  0.3162 -0.3883
 2531SOL    HW210246   2.444   4.711   4.370  2.6534 -1.7232 -0.1092
 2531SOL    HW310247   2.384   4.575   4.340  0.5423 -1.0477  0.9074
 2531SOL    MW410248   2.395   4.643   4.394  0.3176 -0.1330 -0.1807
 2532SOL     OW10249   2.176   0.359   3.831 -0.2418 -0.2047  0.4411
 2532SOL    HW210250   2.151   0.343   3.922  0.5201 -2.1341  0.3454
 2532SOL    HW310251   2.178   0.272   3.791  2.9449  0.2137 -0.4911
 2532SOL    MW410252   2.173   0.345   3.838  0.2794 -0.4041  0.3054
 2533SOL     OW10253   1.355   4.259   3.852  0.2095  0.5289  0.2830
 2533SOL    HW210254   1.422   4.323   3.830 -0.1425 -0.0904 -2.7335
 2533SOL    HW310255   1.274   4.296   3.816 -0.2893 -0.8043  0.0242
 2533SOL    MW410256   1.353   4.273   3.845  0.0973  0.2708 -0.1493
 2534SOL     OW10257   3.370   0.764   4.169  0.4088 -0.0483 -0.9191
 2534SOL    HW210258   3.352   0.768   4.075 -0.2606 -0.5406 -0.8121
 2534SOL    HW310259   3.291   0.797   4.210  0.7230  0.2225 -0.5203
 2534SOL    MW410260   3.358   0.769   4.162  0.3619 -0.0775 -0.8526
 2535SOL     OW10261   3.143   0.392   4.530 -0.3809  0.2423 -0.5274
 2535SOL    HW210262   3.228   0.435   4.530  0.8584 -2.1338  0.4923
 2535SOL    HW310263   3.104   0.418   4.614  0.3029 -0.5036  0.0238
 2535SOL    MW410264   3.149   0.401   4.541 -0.1271 -0.1696 -0.3195
 2536SOL     OW10265   3.504   4.119   4.760  0.4239 -0.0572 -0.3368
 2536SOL    HW210266   3.580   4.148   4.710  1.0079 -1.7753 -0.5047
 2536SOL    HW310267   3.528   4.031   4.790 -1.6767 -0.8284 -0.8207
 2536SOL    MW410268   3.517   4.111   4.757  0.2239 -0.3858 -0.4230
 2537SOL     OW10269   4.063   0.977   4.248 -0.1952  0.3616  0.3899
 2537SOL    HW210270   4.002   0.927   4.194  0.8964 -0.1846 -0.3818
 2537SOL    HW310271   4.057   1.067   4.214 -0.1484  0.1909 -0.0790
 2537SOL    MW410272   4.054   0.982   4.236 -0.0453  0.2670  0.2270
 2538SOL     OW10273   2.845   1.025   4.568  0.1601 -0.2641  0.2096
 2538SOL    HW210274   2.847   0.931   4.586  1.0291 -0.4539 -0.8062
 2538SOL    HW310275   2.771   1.036   4.508 -0.2098 -0.2402  0.6725
 2538SOL    MW410276   2.836   1.014   4.562  0.2258 -0.2860  0.1364
 2539SOL     OW10277   0.820   3.413   4.117 -0.0236 -0.2769  0.7225
 2539SOL    HW210278   0.870   3.432   4.197  1.3071 -0.3187 -0.0959
 2539SOL    HW310279   0.816   3.318   4.113 -0.1321 -0.2741  0.7652
 2539SOL    MW410280   0.826   3.403   4.127  0.1377 -0.2818  0.6208
 2540SOL     OW10281   4.216   4.368   4.380  0.3122  0.2027  0.2194
 2540SOL    HW210282   4.147   4.362   4.446  2.2433 -0.5471  2.2265
 2540SOL    HW310283   4.293   4.396   4.429  1.4445  1.0424 -1.9931
 2540SOL    MW410284   4.217   4.371   4.395  0.7162  0.2151  0.1922
 2541SOL     OW10285   1.541   0.529   3.754 -0.6208 -0.0769  0.3302
 2541SOL    HW210286   1.535   0.622   3.775  1.6643  0.0548  0.4333
 2541SOL    HW310287   1.527   0.524   3.660  0.5535  0.5180  0.1195
 2541SOL    MW410288   1.538   0.540   3.744 -0.1643  0.0190  0.3159
 2542SOL     OW10289   0.056   0.083   4.266  0.1993  0.2803 -0.3320
 2542SOL    HW210290   0.070   0.071   4.360  1.5439 -2.2164 -0.8031
 2542SOL    HW310291   0.144   0.097   4.231 -0.2578  0.8087 -1.2643
 2542SOL    MW410292   0.069   0.083   4.274  0.3164  0.0206 -0.5174
 2543SOL     OW10293   0.159   2.598   4.525  0.2257 -0.5945 -0.3435
 2543SOL    HW210294   0.089   2.658   4.550 -0.2167 -1.1445 -0.2306
 2543SOL    HW310295   0.229   2.615   4.588  0.5747  0.6345 -1.0536
 2543SOL    MW410296   0.159   2.608   4.537  0.2134 -0.5047 -0.4220
 2544SOL     OW10297   2.039   3.903   3.843  0.1311 -0.1717 -0.0543
 2544SOL    HW210298   2.039   3.815   3.805 -0.1159 -0.4197  0.5189
 2544SOL    HW310299   2.111   3.948   3.800 -0.4201 -0.3107 -1.1506
 2544SOL    MW410300   2.048   3.898   3.832  0.0260 -0.2227 -0.1230
 2545SOL     OW10301   1.847   2.635   3.803 -0.0872  0.1865  0.3578
 2545SOL    HW210302   1.761   2.676   3.794  0.3996  1.1414 -0.0224
 2545SOL    HW310303   1.859   2.624   3.897 -1.3256 -1.4890  0.3533
 2545SOL    MW410304   1.837   2.639   3.814 -0.1864  0.0916  0.3068
 2546SOL     OW10305   4.230   3.890   4.160  0.3472  0.0299 -0.4878
 2546SOL    HW210306   4.289   3.955   4.199  0.2482  0.3768 -0.9202
 2546SOL    HW310307   4.267   3.806   4.187  0.1801  0.2609  0.5152
 2546SOL    MW410308   4.243   3.887   4.169  0.3123  0.1061 -0.4129
 2547SOL     OW10309   2.729   4.247   3.826 -0.0194 -0.1240  0.0209
 2547SOL    HW210310   2.799   4.289   3.776  0.5406  0.0911  0.9909
 2547SOL    HW310311   2.652   4.302   3.809 -0.3147 -1.1341 -2.1666
 2547SOL    MW410312   2.728   4.260   3.817  0.0155 -0.2294 -0.1397
 2548SOL     OW10313   0.402   2.385   4.661 -0.4723  0.4924  0.4950
 2548SOL    HW210314   0.414   2.437   4.740 -0.5151  0.4845  0.5069
 2548SOL    HW310315   0.459   2.427   4.596 -0.1212  0.2473  0.6468
 2548SOL    MW410316   0.411   2.398   4.662 -0.4317  0.4590  0.5169
 2549SOL     OW10317   0.209   0.750   4.443  0.2244  0.4113  0.5989
 2549SOL    HW210318   0.235   0.733   4.352  0.8045 -0.2598  0.8838
 2549SOL    HW310319   0.211   0.664   4.484 -0.9529  0.5817  1.0200
 2549SOL    MW410320   0.213   0.736   4.436  0.1456  0.3453  0.6919
 2550SOL     OW10321   1.021   4.426   4.550  0.1034 -0.3820 -0.1883
 2550SOL    HW210322   1.031   4.331   4.556  0.4078 -0.3709 -0.5534
 2550SOL    HW310323   1.110   4.460   4.556  0.0644 -0.1605 -0.7995
 2550SOL    MW410324   1.034   4.418   4.551  0.1384 -0.3514 -0.3171
 2551SOL     OW10325   3.035   3.973   4.513 -0.3294  0.2798  0.0216
 2551SOL    HW210326   2.969   4.019   4.564 -0.1188  0.1675  0.4026
 2551SOL    HW310327   3.118   4.009   4.544  0.0108 -2.2658  2.3344
 2551SOL    MW410328   3.037   3.984   4.524 -0.2568 -0.0708  0.3767
 2552SOL     OW10329   0.388   4.326   4.145  0.2285 -0.2692  0.0650
 2552SOL    HW210330   0.380   4.329   4.050  0.0119  0.8840  0.1152
 2552SOL    HW310331   0.415   4.414   4.170 -2.1338  0.1356  1.3062
 2552SOL    MW410332   0.391   4.338   4.136 -0.1118 -0.0639  0.2351
 2553SOL     OW10333   0.628   1.615   4.067 -0.0067 -0.7233 -0.3914
 2553SOL    HW210334   0.598   1.567   4.145  0.8978  0.2067  0.5445
 2553SOL    HW310335   0.577   1.696   4.068  0.1667 -0.6119 -0.6477
 2553SOL    MW410336   0.617   1.619   4.077  0.1355 -0.5858 -0.3018
 2554SOL     OW10337   2.634   3.917   4.088 -0.1418  0.4240 -0.3023
 2554SOL    HW210338   2.624   4.012   4.095 -0.5854  0.4092 -0.7040
 2554SOL    HW310339   2.727   3.901   4.107 -0.3013  0.8253  0.8740
 2554SOL    MW410340   2.645   3.927   4.092 -0.2213  0.4749 -0.1998
 2555SOL     OW10341   1.661   3.242   4.438 -0.6549  0.0292  0.3717
 2555SOL    HW210342   1.713   3.170   4.475 -1.3587 -0.4768  0.3929
 2555SOL    HW310343   1.570   3.214   4.450 -0.9116  0.4952 -0.4887
 2555SOL    MW410344   1.656   3.229   4.445 -0.7814  0.0241  0.2608
 2556SOL     OW10345   1.860   3.982   4.462 -0.0227  0.1969 -0.2400
 2556SOL    HW210346   1.946   3.981   4.505 -0.0881  0.7948 -0.0774
 2556SOL    HW310347   1.811   4.048   4.512 -0.6509 -0.3189 -0.1829
 2556SOL    MW410348   1.865   3.991   4.475 -0.1142  0.2077 -0.2108
 2557SOL     OW10349   2.010   3.815   4.102  0.3834  0.1440  0.1343
 2557SOL    HW210350   2.031   3.852   4.016 -0.7562  0.4047 -0.0398
 2557SOL    HW310351   2.085   3.839   4.156  1.1500 -0.0819 -0.7993
 2557SOL    MW410352   2.022   3.823   4.097  0.3343  0.1488 -0.0119
 2558SOL     OW10353   1.458   2.410   3.746  0.1628  0.3858 -0.0150
 2558SOL    HW210354   1.546   2.401   3.709 -0.2647  0.3510 -1.0347
 2558SOL    HW310355   1.470   2.393   3.840  1.1983  0.1278 -0.1832
 2558SOL    MW410356   1.471   2.406   3.754  0.2429  0.3471 -0.1717
 2559SOL     OW10357   1.724   2.615   4.538 -0.0462  0.3042  0.0815
 2559SOL    HW210358   1.678   2.595   4.457  0.7170  3.0137 -1.0746
 2559SOL    HW310359   1.816   2.597   4.519  0.0709  0.4176  0.5307
 2559SOL    MW410360   1.730   2.610   4.525  0.0700  0.6766 -0.0119
 2560SOL     OW10361   3.836   1.248   4.509  0.0954  0.0397  0.4716
 2560SOL    HW210362   3.888   1.323   4.537  0.3825 -0.1018  0.3138
 2560SOL    HW310363   3.750   1.263   4.548  0.0082  0.7051  0.0315
 2560SOL    MW410364   3.832   1.260   4.518  0.1218  0.1087  0.3924
 2561SOL     OW10365   2.480   3.292   4.287  0.0641 -0.0134  0.5150
 2561SOL    HW210366   2.428   3.344   4.226 -0.4614  1.3715  2.1148
 2561SOL    HW310367   2.525   3.228   4.231 -0.2353  1.3470 -1.3424
 2561SOL    MW410368   2.479   3.290   4.271 -0.0446  0.3486  0.4807
 2562SOL     OW10369   2.245   1.677   3.785  0.1267  0.6674 -0.3995
 2562SOL    HW210370   2.324   1.624   3.791  0.0120  0.4270 -0.9768
 2562SOL    HW310371   2.268   1.760   3.827  0.8648  0.8184 -1.0935
 2562SOL    MW410372   2.258   1.681   3.791  0.2091  0.6557 -0.5672
 2563SOL     OW10373   2.706   0.138   4.772 -0.3375 -0.2175 -0.6475
 2563SOL    HW210374   2.615   0.111   4.784 -0.6170  0.4339 -1.2858
 2563SOL    HW310375   2.749   0.060   4.736 -0.5975 -0.5893 -0.1573
 2563SOL    MW410376   2.699   0.124   4.769 -0.4084 -0.1806 -0.6666
 2564SOL     OW10377   1.780   1.760   4.624  0.0145  0.1559  0.2949
 2564SOL    HW210378   1.740   1.720   4.547  1.4938 -0.3539 -0.2251
 2564SOL    HW310379   1.711   1.816   4.660 -0.5268  0.8192 -1.7046
 2564SOL    MW410380   1.765   1.762   4.619  0.1383  0.1762 -0.0372
 2565SOL     OW10381   1.196   3.617   4.245  0.1653  0.2626  0.5055
 2565SOL    HW210382   1.215   3.609   4.338 -0.0748 -1.4936  0.4254
 2565SOL    HW310383   1.281   3.601   4.202 -0.2022 -1.3280  0.3533
 2565SOL    MW410384   1.210   3.614   4.251  0.0850 -0.1793  0.4745
 2566SOL     OW10385   4.362   4.580   4.142  0.0176  0.4568  0.4176
 2566SOL    HW210386   4.438   4.625   4.179  0.0284  0.3773  0.4915
 2566SOL    HW310387   4.295   4.585   4.210 -0.3492  1.3389 -0.0063
 2566SOL    MW410388   4.363   4.586   4.156 -0.0300  0.5627  0.3710
 2567SOL     OW10389   0.330   2.138   4.573  0.0160  0.4144 -0.5536
 2567SOL    HW210390   0.377   2.215   4.605  0.7531 -0.1878 -0.1736
 2567SOL    HW310391   0.384   2.105   4.502 -0.0451 -0.0564 -0.3776
 2567SOL    MW410392   0.343   2.144   4.568  0.1052  0.2725 -0.4802
 2568SOL     OW10393   1.912   0.447   4.098 -0.3711 -0.3098 -0.0833
 2568SOL    HW210394   1.866   0.416   4.020  0.8395  0.1460 -0.9924
 2568SOL    HW310395   1.909   0.542   4.092  0.6900 -0.2776 -0.1470
 2568SOL    MW410396   1.905   0.455   4.087 -0.0714 -0.2454 -0.2117
 2569SOL     OW10397   2.358   2.292   4.632 -0.0846 -0.2517 -0.2214
 2569SOL    HW210398   2.340   2.205   4.666  1.5776 -0.2442  0.7370
 2569SOL    HW310399   2.406   2.277   4.551 -0.2318 -0.2259 -0.3145
 2569SOL    MW410400   2.362   2.279   4.625  0.1154 -0.2472 -0.1078
 2570SOL     OW10401   0.652   0.108   4.063 -0.0617 -0.2464 -0.7197
 2570SOL    HW210402   0.678   0.029   4.110  3.0162  1.0280 -0.1521
 2570SOL    HW310403   0.658   0.085   3.971  2.3148 -0.3048 -0.5917
 2570SOL    MW410404   0.656   0.095   4.057  0.6580 -0.0859 -0.6285
 2571SOL     OW10405   4.256   2.465   4.536 -0.3053 -0.0337 -0.0067
 2571SOL    HW210406   4.285   2.377   4.562 -1.5885  0.0425  1.7985
 2571SOL    HW310407   4.315   2.490   4.465  1.4536 -1.4849  0.9057
 2571SOL    MW410408   4.268   2.457   4.530 -0.2422 -0.2151  0.3524
 2572SOL     OW10409   0.238   4.156   4.496 -0.3146  0.0414  0.2163
 2572SOL    HW210410   0.232   4.196   4.409 -0.7809 -0.7900 -0.1368
 2572SOL    HW310411   0.331   4.165   4.519  0.0205 -0.6400 -0.8081
 2572SOL    MW410412   0.250   4.162   4.488 -0.3319 -0.1583  0.0343
 2573SOL     OW10413   2.713   2.114   4.721 -0.5135  0.4179 -0.4459
 2573SOL    HW210414   2.677   2.185   4.774  1.1127  0.0467  1.1982
 2573SOL    HW310415   2.779   2.073   4.777  0.3823 -0.7694 -2.3167
 2573SOL    MW410416   2.717   2.118   4.736 -0.1805  0.2122 -0.4759
 2574SOL     OW10417   3.326   4.333   4.719  0.3681  0.3907 -0.0575
 2574SOL    HW210418   3.383   4.267   4.758 -0.9132 -1.4537 -1.2494
 2574SOL    HW310419   3.385   4.388   4.668  1.4022 -0.0617  0.6370
 2574SOL    MW410420   3.341   4.332   4.717  0.3355  0.0882 -0.1230
 2575SOL     OW10421   3.077   1.731   4.272  0.1130 -0.0242 -0.5824
 2575SOL    HW210422   3.018   1.682   4.215 -1.4689 -0.2353  1.1795
 2575SOL    HW310423   3.068   1.822   4.243 -1.8792  0.0907  0.2857
 2575SOL    MW410424   3.068   1.737   4.261 -0.3588 -0.0368 -0.2356
 2576SOL     OW10425   3.336   1.245   4.198 -0.1557 -0.2303  0.3367
 2576SOL    HW210426   3.352   1.338   4.183  0.3252 -0.4259 -0.3770
 2576SOL    HW310427   3.415   1.202   4.166 -0.1420 -0.8391  1.1861
 2576SOL    MW410428   3.349   1.251   4.192 -0.0901 -0.3364  0.3543
 2577SOL     OW10429   1.735   0.458   4.326  0.2708 -0.0970 -0.0333
 2577SOL    HW210430   1.670   0.388   4.330  0.1942 -0.0138  0.1904
 2577SOL    HW310431   1.788   0.438   4.249  0.2805 -0.4248  0.0620
 2577SOL    MW410432   1.733   0.446   4.316  0.2620 -0.1293  0.0091
 2578SOL     OW10433   2.154   2.326   4.411  0.2947 -0.4693  0.2519
 2578SOL    HW210434   2.193   2.241   4.390 -1.7082 -0.9853 -1.5787
 2578SOL    HW310435   2.091   2.308   4.480  0.5919 -0.2861  0.5742
 2578SOL    MW410436   2.151   2.312   4.417  0.0699 -0.5133  0.0534
 2579SOL     OW10437   3.384   2.342   4.152  0.1598  0.2950 -0.2886
 2579SOL    HW210438   3.391   2.334   4.057  0.2319  3.2402 -0.5919
 2579SOL    HW310439   3.338   2.263   4.180 -3.3284  1.1729 -3.2411
 2579SOL    MW410440   3.379   2.331   4.143 -0.2909  0.7989 -0.7181
 2580SOL     OW10441   3.111   0.391   3.856 -0.4263 -0.1776  0.2829
 2580SOL    HW210442   3.106   0.296   3.841  0.4998  0.1921 -2.7480
 2580SOL    HW310443   3.204   0.411   3.849 -0.8118  1.2148 -1.1122
 2580SOL    MW410444   3.122   0.381   3.853 -0.3548  0.0549 -0.3009
 2581SOL     OW10445   2.345   0.512   4.210 -0.1905  0.0906 -0.1294
 2581SOL    HW210446   2.340   0.599   4.171 -2.6729 -0.2588 -0.6181
 2581SOL    HW310447   2.351   0.529   4.304 -0.3149  0.7914 -0.2417
 2581SOL    MW410448   2.345   0.526   4.217 -0.5345  0.1370 -0.2084
 2582SOL     OW10449   1.711   2.346   4.180  0.3113 -0.6737 -0.4033
 2582SOL    HW210450   1.806   2.353   4.182  0.1360  1.4622  1.1921
 2582SOL    HW310451   1.687   2.311   4.265 -0.5339  1.8335  0.4280
 2582SOL    MW410452   1.720   2.342   4.191  0.1768 -0.0610 -0.0830
 2583SOL     OW10453   3.636   3.251   4.340 -0.0243 -0.0868  0.0569
 2583SOL    HW210454   3.692   3.194   4.287  1.0721 -0.0552  1.1858
 2583SOL    HW310455   3.620   3.327   4.284  1.3571  0.0694 -0.1336
 2583SOL    MW410456   3.641   3.253   4.325  0.3023 -0.0620  0.1807
 2584SOL     OW10457   0.114   0.016   4.536 -0.1320 -0.0097  0.5440
 2584SOL    HW210458   0.198  -0.029   4.541  0.1804  0.4468 -0.4147
 2584SOL    HW310459   0.048  -0.054   4.535  0.2737 -0.3883  0.4705
 2584SOL    MW410460   0.116   0.001   4.537 -0.0373  0.0006  0.4077
 2585SOL     OW10461   3.252   0.133   4.523  0.1747  0.2175  0.2005
 2585SOL    HW210462   3.346   0.146   4.523  0.1104  0.7582 -0.7025
 2585SOL    HW310463   3.215   0.219   4.544 -0.1302  0.2364 -0.3889
 2585SOL    MW410464   3.259   0.146   4.526  0.1261  0.2914  0.0033
 2586SOL     OW10465   4.301   2.363   4.118 -0.3027  0.1532  0.4869
 2586SOL    HW210466   4.222   2.399   4.159 -0.3155 -1.3469  1.8149
 2586SOL    HW310467   4.372   2.394   4.174 -0.2248 -0.9502  1.0186
 2586SOL    MW410468   4.300   2.372   4.131 -0.2937 -0.1905  0.7324
 2587SOL     OW10469   0.291   1.145   4.687 -0.3673 -0.4881  0.6762
 2587SOL    HW210470   0.230   1.211   4.655 -0.5028 -0.7670  0.3584
 2587SOL    HW310471   0.311   1.092   4.611  0.3142 -0.3698  0.7651
 2587SOL    MW410472   0.286   1.147   4.673 -0.2952 -0.5093  0.6456
 2588SOL     OW10473   0.386   2.726   4.658 -0.4485 -0.3536 -0.2811
 2588SOL    HW210474   0.479   2.711   4.645 -0.1988  0.1924  0.8252
 2588SOL    HW310475   0.370   2.813   4.620 -0.9287 -1.3370 -2.3500
 2588SOL    MW410476   0.396   2.736   4.651 -0.4789 -0.4113 -0.4077
 2589SOL     OW10477   2.176   2.441   3.753 -0.0061  0.2002  0.0046
 2589SOL    HW210478   2.118   2.376   3.794 -1.3125  1.1903 -0.2318
 2589SOL    HW310479   2.168   2.424   3.659 -1.5549  1.6623 -0.1559
 2589SOL    MW410480   2.167   2.430   3.746 -0.3829  0.5236 -0.0474
 2590SOL     OW10481   3.121   1.934   3.874  0.3485  0.4102  0.3275
 2590SOL    HW210482   3.102   1.931   3.968  2.3201  0.1004  0.7506
 2590SOL    HW310483   3.041   1.966   3.834 -1.7600 -2.8115  1.7444
 2590SOL    MW410484   3.108   1.938   3.881  0.3307 -0.0557  0.5703
 2591SOL     OW10485   0.232   2.055   3.753 -0.0798 -0.2222  0.1167
 2591SOL    HW210486   0.320   2.027   3.776 -0.7604 -1.1520  1.6265
 2591SOL    HW310487   0.175   2.011   3.815 -1.5655  0.9322 -0.3818
 2591SOL    MW410488   0.236   2.046   3.764 -0.3656 -0.1926  0.2503
 2592SOL     OW10489   0.484   1.485   4.249 -0.0287  0.0454  0.9100
 2592SOL    HW210490   0.490   1.398   4.210 -1.4162 -0.1509  1.0803
 2592SOL    HW310491   0.404   1.522   4.211  1.0159  1.5888  0.1641
 2592SOL    MW410492   0.474   1.478   4.239 -0.0739  0.2232  0.8345
 2593SOL     OW10493   3.459   2.883   4.144 -0.0929 -0.5464  0.0660
 2593SOL    HW210494   3.374   2.841   4.154 -2.1333  3.3328  0.0211
 2593SOL    HW310495   3.450   2.939   4.066  2.5623 -0.2682 -0.0884
 2593SOL    MW410496   3.447   2.885   4.135 -0.0117  0.0021  0.0396
 2594SOL     OW10497   2.130   3.947   4.514  0.2154  0.3862 -0.3569
 2594SOL    HW210498   2.124   3.861   4.555 -0.3567 -0.2114 -1.6533
 2594SOL    HW310499   2.222   3.972   4.524  0.4368 -0.4791 -0.1862
 2594SOL    MW410500   2.142   3.939   4.521  0.1693  0.1931 -0.5054
 2595SOL     OW10501   1.945   0.149   4.503 -0.3464  0.7343  0.1722
 2595SOL    HW210502   1.923   0.235   4.539 -0.6059  0.2866  1.0827
 2595SOL    HW310503   2.017   0.167   4.442 -0.4803  1.6154  0.2665
 2595SOL    MW410504   1.951   0.163   4.500 -0.3983  0.7915  0.3047
 2596SOL     OW10505   2.325   3.188   4.492 -0.3049 -0.1031 -0.4620
 2596SOL    HW210506   2.352   3.251   4.559 -1.5420 -0.3161  0.2492
 2596SOL    HW310507   2.361   3.222   4.410  1.2455  0.1474  0.3155
 2596SOL    MW410508   2.333   3.201   4.490 -0.2635 -0.0978 -0.2661
 2597SOL     OW10509   0.314   3.884   4.189 -0.3938 -0.0178  0.1051
 2597SOL    HW210510   0.260   3.897   4.111 -0.4063 -2.3811 -0.3145
 2597SOL    HW310511   0.254   3.900   4.263 -1.0572 -0.3555 -0.3583
 2597SOL    MW410512   0.299   3.888   4.189 -0.4830 -0.3738 -0.0114
 2598SOL     OW10513   3.852   0.605   4.335 -0.1327 -0.2087 -0.3398
 2598SOL    HW210514   3.942   0.617   4.304  0.0544 -0.6433  0.0371
 2598SOL    HW310515   3.847   0.657   4.415  0.5610 -2.2847  1.0815
 2598SOL    MW410516   3.863   0.614   4.341 -0.0165 -0.5400 -0.1030
 2599SOL     OW10517   4.215   2.911   4.558 -0.1669 -0.0772 -0.1216
 2599SOL    HW210518   4.153   2.847   4.594  1.9144 -1.4989  1.0436
 2599SOL    HW310519   4.229   2.881   4.468 -1.0342  0.1500 -0.3367
 2599SOL    MW410520   4.209   2.898   4.551 -0.0067 -0.2348  0.0038
 2600SOL     OW10521   3.479   4.480   4.529  0.0797  0.4935 -0.4846
 2600SOL    HW210522   3.448   4.445   4.445 -0.5267  0.4615 -0.2514
 2600SOL    HW310523   3.575   4.476   4.523  0.0113 -1.1247 -0.4883
 2600SOL    MW410524   3.488   4.475   4.517 -0.0093  0.2756 -0.4549
 2601SOL     OW10525   3.125   4.220   3.890  0.2149 -0.0736 -0.2883
 2601SOL    HW210526   3.136   4.196   3.982 -1.1689  2.2483  0.5515
 2601SOL    HW310527   3.186   4.292   3.876 -0.5888  0.5346 -0.7609
 2601SOL    MW410528   3.134   4.226   3.900 -0.0734  0.3128 -0.2398
 2602SOL     OW10529   1.356   4.470   4.307 -0.0482 -0.3083 -0.0849
 2602SOL    HW210530   1.446   4.494   4.286 -0.6638  1.6849 -0.5518
 2602SOL    HW310531   1.338   4.518   4.389  0.1737 -2.8075  1.4784
 2602SOL    MW410532   1.366   4.480   4.315 -0.1001 -0.3748  0.0596
 2603SOL     OW10533   3.423   3.709   4.614 -0.1571  0.4663  0.1128
 2603SOL    HW210534   3.473   3.767   4.556  0.1069  0.0120 -0.1227
 2603SOL    HW310535   3.338   3.700   4.572 -0.5877  1.5967  0.7429
 2603SOL    MW410536   3.418   3.715   4.601 -0.1791  0.5558  0.1650
 2604SOL     OW10537   3.574   1.237   4.596  0.5898 -0.0158 -0.2775
 2604SOL    HW210538   3.495   1.236   4.542 -0.0484  1.2106  0.5996
 2604SOL    HW310539   3.585   1.146   4.624 -0.1696 -0.3039 -0.8831
 2604SOL    MW410540   3.565   1.225   4.592  0.4055  0.1080 -0.2418
 2605SOL     OW10541   3.777   4.638   4.183  0.3262  0.2607  0.6466
 2605SOL    HW210542   3.849   4.699   4.201 -0.2681  1.0459  0.3929
 2605SOL    HW310543   3.814   4.551   4.200  0.9845  0.7327  1.6592
 2605SOL    MW410544   3.792   4.634   4.187  0.3345  0.4272  0.7467
 2606SOL     OW10545   3.531   0.127   4.550 -0.3925 -0.4775 -0.1437
 2606SOL    HW210546   3.516   0.034   4.569  0.7861 -0.7992 -0.7862
 2606SOL    HW310547   3.553   0.130   4.457 -1.7527  0.6108 -0.4540
 2606SOL    MW410548   3.532   0.115   4.540 -0.4165 -0.3764 -0.2694
 2607SOL     OW10549   2.334   0.576   4.477 -0.1042  0.2498  0.1623
 2607SOL    HW210550   2.383   0.654   4.504 -0.2369 -0.7213  3.4657
 2607SOL    HW310551   2.389   0.502   4.506 -0.5153 -0.8884 -1.8926
 2607SOL    MW410552   2.348   0.576   4.485 -0.1762 -0.0285  0.3271
 2608SOL     OW10553   3.855   2.815   4.474  0.2149  0.4065  0.0165
 2608SOL    HW210554   3.923   2.766   4.520  0.9185  1.0019 -0.3842
 2608SOL    HW310555   3.858   2.903   4.511  0.8674  0.9267 -1.2219
 2608SOL    MW410556   3.865   2.820   4.485  0.3941  0.5538 -0.2003
 2609SOL     OW10557   0.478   0.686   4.118  0.1466 -0.5024 -0.0008
 2609SOL    HW210558   0.526   0.707   4.037  1.5831  2.9145  1.6274
 2609SOL    HW310559   0.528   0.614   4.157  0.6403 -0.7707 -1.0962
 2609SOL    MW410560   0.491   0.679   4.112  0.4012 -0.0870  0.0696
 2610SOL     OW10561   2.490   2.214   4.404 -0.2575  0.2287  0.0145
 2610SOL    HW210562   2.415   2.166   4.370  0.7113 -0.5566 -1.0852
 2610SOL    HW310563   2.551   2.145   4.433  0.1340  0.8437  0.6830
 2610SOL    MW410564   2.488   2.199   4.404 -0.0777  0.2062 -0.0424
 2611SOL     OW10565   2.764   0.405   4.859  0.4290  0.2464  0.4546
 2611SOL    HW210566   2.715   0.420   4.940  0.3209 -0.5976  0.5582
 2611SOL    HW310567   2.737   0.317   4.832  1.0990  0.1956 -0.0543
 2611SOL    MW410568   2.754   0.395   4.866  0.5033  0.1284  0.4010
 2612SOL     OW10569   1.870   4.381   4.736 -0.3243 -0.4945 -0.4711
 2612SOL    HW210570   1.918   4.438   4.675 -1.8565  1.3337 -0.0028
 2612SOL    HW310571   1.926   4.377   4.814  0.3430 -0.6269 -0.9473
 2612SOL    MW410572   1.884   4.388   4.738 -0.4385 -0.2708 -0.4721
 2613SOL     OW10573   3.131   1.099   4.096 -0.2387  0.2560 -0.3959
 2613SOL    HW210574   3.134   1.137   4.008  1.2303 -0.2471 -0.5771
 2613SOL    HW310575   3.204   1.140   4.142  1.3448 -2.2383 -0.5731
 2613SOL    MW410576   3.141   1.109   4.090  0.1640 -0.1396 -0.4430
 2614SOL     OW10577   4.003   1.019   4.524 -0.1840  0.0979  0.1889
 2614SOL    HW210578   4.004   0.999   4.430 -0.3315 -1.0305  0.4258
 2614SOL    HW310579   3.935   1.086   4.534 -0.2931  0.0862 -0.4742
 2614SOL    MW410580   3.994   1.025   4.513 -0.2179 -0.0526  0.1330
 2615SOL     OW10581   0.574   2.151   4.031 -0.5862  0.2472 -0.0988
 2615SOL    HW210582   0.601   2.194   4.112 -0.8825  0.7445 -0.2579
 2615SOL    HW310583   0.588   2.217   3.963  1.5989 -0.8758 -0.7514
 2615SOL    MW410584   0.579   2.166   4.033 -0.3370  0.1645 -0.2060
 2616SOL     OW10585   2.001   2.857   4.431 -0.0239  0.0058 -0.3131
 2616SOL    HW210586   2.004   2.768   4.466  0.9680 -0.0451 -0.5025
 2616SOL    HW310587   1.950   2.849   4.350  0.3474 -0.4552 -0.5047
 2616SOL    MW410588   1.995   2.844   4.425  0.1560 -0.0618 -0.3638
 2617SOL     OW10589   3.583   1.138   4.116 -0.3614  0.3192  0.0133
 2617SOL    HW210590   3.650   1.186   4.164  0.8703 -0.0133 -1.3467
 2617SOL    HW310591   3.601   1.156   4.024 -0.4742 -1.9163 -0.4912
 2617SOL    MW410592   3.594   1.146   4.110 -0.2136 -0.0197 -0.2327
 2618SOL     OW10593   1.961   2.260   4.598 -0.4971  0.4855 -0.0936
 2618SOL    HW210594   1.872   2.289   4.620 -0.9173  0.1857 -1.3849
 2618SOL    HW310595   1.952   2.166   4.582  0.2147  0.2947  0.5711
 2618SOL    MW410596   1.948   2.251   4.599 -0.4586  0.4210 -0.1769
 2619SOL     OW10597   1.891   2.914   4.154 -0.2404  0.0876  0.6832
 2619SOL    HW210598   1.908   2.828   4.115  0.1769 -0.2377  1.5689
 2619SOL    HW310599   1.798   2.929   4.140  0.0847  0.4151 -1.3078
 2619SOL    MW410600   1.881   2.904   4.147 -0.1423  0.0880  0.5369
 2620SOL     OW10601   3.969   3.993   4.190  0.3967 -0.0559  0.0253
 2620SOL    HW210602   3.934   3.978   4.278 -0.8428 -1.7528 -0.7132
 2620SOL    HW310603   4.054   3.950   4.191 -0.0341 -0.9354  0.1300
 2620SOL    MW410604   3.975   3.985   4.202  0.1762 -0.3955 -0.0582
 2621SOL     OW10605   1.815   0.795   4.761  0.2730  0.1248  0.4384
 2621SOL    HW210606   1.767   0.771   4.682  0.7098 -1.4044  0.6201
 2621SOL    HW310607   1.907   0.795   4.734  0.3102  1.1359  0.5635
 2621SOL    MW410608   1.821   0.792   4.747  0.3356  0.0564  0.4783
 2622SOL     OW10609   1.296   0.381   4.169  0.3713  0.3039  0.3981
 2622SOL    HW210610   1.299   0.420   4.082  1.5331  0.6624  0.5885
 2622SOL    HW310611   1.276   0.453   4.228  0.2763  0.1886  0.5091
 2622SOL    MW410612   1.294   0.395   4.165  0.5121  0.3360  0.4382
 2623SOL     OW10613   0.961   0.459   4.131  0.5515 -0.3262 -0.1697
 2623SOL    HW210614   0.874   0.466   4.170  0.7404 -0.4033  0.2631
 2623SOL    HW310615   0.986   0.368   4.144  0.7715 -0.2615 -0.1460
 2623SOL    MW410616   0.953   0.448   4.138  0.6055 -0.3278 -0.1092
 2624SOL     OW10617   3.612   2.712   4.598 -0.3770  0.1274 -0.3287
 2624SOL    HW210618   3.679   2.772   4.563 -0.6623  1.4176  1.3079
 2624SOL    HW310619   3.530   2.762   4.592 -0.8120 -0.5585 -0.0984
 2624SOL    MW410620   3.610   2.727   4.592 -0.4721  0.2069 -0.0825
 2625SOL     OW10621   2.321   2.950   4.068 -0.0853  0.1071  0.1465
 2625SOL    HW210622   2.382   2.989   4.006  0.6703  1.3906  1.6466
 2625SOL    HW310623   2.252   3.016   4.078  0.1153  0.1917  1.1024
 2625SOL    MW410624   2.320   2.964   4.061  0.0408  0.2878  0.4711
 2626SOL     OW10625   2.941   3.737   4.427  0.5189 -0.1029 -0.4259
 2626SOL    HW210626   2.956   3.825   4.461  1.2647 -0.0846 -0.8041
 2626SOL    HW310627   2.849   3.736   4.403  0.2825  0.2843  0.4253
 2626SOL    MW410628   2.931   3.748   4.429  0.5865 -0.0494 -0.3633
 2627SOL     OW10629   1.976   1.977   4.549  0.6909  0.1167 -0.0915
 2627SOL    HW210630   1.980   1.955   4.456 -1.6083  1.4512 -0.5523
 2627SOL    HW310631   1.928   1.904   4.589 -0.6662  0.8007 -0.4294
 2627SOL    MW410632   1.970   1.964   4.542  0.2086  0.3830 -0.1965
 2628SOL     OW10633   3.897   2.095   4.533 -0.5673 -0.1341 -0.1594
 2628SOL    HW210634   3.870   2.180   4.499 -0.8125 -0.3748 -0.5748
 2628SOL    HW310635   3.815   2.048   4.549 -0.5039  0.5315  2.2313
 2628SOL    MW410636   3.882   2.100   4.531 -0.5913 -0.0780  0.1016
 2629SOL     OW10637   4.119   0.646   4.293  0.1955  0.6251 -0.0379
 2629SOL    HW210638   4.191   0.677   4.237  0.8732  0.3038  0.6391
 2629SOL    HW310639   4.148   0.667   4.381 -0.4283  0.2470  0.2545
 2629SOL    MW410640   4.132   0.653   4.297  0.2022  0.5327  0.0896
 2630SOL     OW10641   2.887   0.070   4.375  0.1182  0.0075 -0.2992
 2630SOL    HW210642   2.972   0.073   4.330  0.8638 -1.1997  0.9934
 2630SOL    HW310643   2.869   0.161   4.397  0.8479  0.3355 -1.0195
 2630SOL    MW410644   2.896   0.082   4.372  0.3128 -0.1085 -0.2241
 2631SOL     OW10645   2.839   4.120   4.678 -0.8566 -0.0959  0.4195
 2631SOL    HW210646   2.780   4.047   4.658  0.5674 -1.4040  0.8873
 2631SOL    HW310647   2.840   4.124   4.773  0.3685 -0.5643  0.4347
 2631SOL    MW410648   2.831   4.111   4.688 -0.5071 -0.3304  0.4835
 2632SOL     OW10649   3.630   0.371   3.886  0.2800  0.1100 -0.3805
 2632SOL    HW210650   3.621   0.289   3.837 -0.5512  0.2450 -0.4690
 2632SOL    HW310651   3.616   0.345   3.977  0.2673  0.1070 -0.3833
 2632SOL    MW410652   3.627   0.356   3.891  0.1686  0.1274 -0.3922
 2633SOL     OW10653   1.753   4.295   4.126  0.6041  0.6290 -0.0850
 2633SOL    HW210654   1.835   4.252   4.152  0.6283  0.3323 -0.6472
 2633SOL    HW310655   1.754   4.293   4.031 -0.6273 -0.4380 -0.0797
 2633SOL    MW410656   1.764   4.289   4.117  0.4448  0.4487 -0.1588
 2634SOL     OW10657   4.100   4.234   4.158  0.0853 -0.8722 -0.0565
 2634SOL    HW210658   4.167   4.256   4.223 -0.2899  1.1803 -0.3066
 2634SOL    HW310659   4.079   4.142   4.174  2.3666 -1.3152  0.5580
 2634SOL    MW410660   4.106   4.225   4.168  0.3371 -0.6599 -0.0086
 2635SOL     OW10661   2.209   4.090   4.096  0.2041 -0.1844 -0.1271
 2635SOL    HW210662   2.276   4.136   4.147  0.1978  0.8422 -1.0250
 2635SOL    HW310663   2.126   4.121   4.132  0.2148 -0.3882  0.0661
 2635SOL    MW410664   2.207   4.101   4.107  0.2046 -0.0753 -0.2198
 2636SOL     OW10665   4.459   1.988   4.175 -0.0217 -0.2182 -0.1430
 2636SOL    HW210666   4.371   2.003   4.210  0.6623  0.3978  1.3794
 2636SOL    HW310667   4.511   2.061   4.210  0.9433 -0.1942 -1.5792
 2636SOL    MW410668   4.454   2.000   4.184  0.1960 -0.1336 -0.1316
 2637SOL     OW10669   0.482   2.447   3.701  0.0771 -0.3942 -0.1196
 2637SOL    HW210670   0.403   2.403   3.732 -0.4983  0.1220 -0.8302
 2637SOL    HW310671   0.479   2.533   3.744  0.5792 -0.5988  0.3353
 2637SOL    MW410672   0.471   2.453   3.711  0.0675 -0.3531 -0.1533
 2638SOL     OW10673   3.841   0.779   4.569 -0.2555  0.0945  0.2086
 2638SOL    HW210674   3.872   0.716   4.633  1.4161 -0.2740 -0.9051
 2638SOL    HW310675   3.898   0.855   4.581  0.4525 -0.1944 -1.1933
 2638SOL    MW410676   3.853   0.781   4.579  0.0584  0.0077 -0.1230
 2639SOL     OW10677   4.472   1.793   4.406  0.2977  0.7500 -0.3046
 2639SOL    HW210678   4.423   1.849   4.467 -1.8771 -0.6274 -0.7065
 2639SOL    HW310679   4.496   1.851   4.334 -1.1109  1.3888 -0.2760
 2639SOL    MW410680   4.468   1.808   4.404 -0.1750  0.6527 -0.3538
 2640SOL     OW10681   4.098   2.665   4.162 -0.8300 -0.0434 -0.2565
 2640SOL    HW210682   4.018   2.718   4.167 -0.5473  0.2022  2.5488
 2640SOL    HW310683   4.072   2.579   4.196  0.4370  0.4932  2.1592
 2640SOL    MW410684   4.084   2.660   4.167 -0.6251  0.0598  0.4325
 2641SOL     OW10685   1.208   1.535   4.299  0.1434  0.3713  0.0195
 2641SOL    HW210686   1.253   1.552   4.215 -0.7416  1.0030 -0.3387
 2641SOL    HW310687   1.135   1.597   4.299  0.9104  1.3052  1.8616
 2641SOL    MW410688   1.205   1.546   4.288  0.1279  0.5779  0.2155
 2642SOL     OW10689   3.387   4.408   4.269  0.1511  0.0153 -0.2619
 2642SOL    HW210690   3.305   4.409   4.318  0.5876  1.1078  0.4878
 2642SOL    HW310691   3.384   4.488   4.216  2.1164  1.8105  2.2058
 2642SOL    MW410692   3.376   4.419   4.268  0.4678  0.3963  0.1621
 2643SOL     OW10693   1.092   0.224   4.216  0.1211 -0.5842 -0.0641
 2643SOL    HW210694   1.108   0.157   4.150 -0.0083 -0.1229 -0.5608
 2643SOL    HW310695   1.168   0.282   4.210 -0.3996  0.0563 -0.5385
 2643SOL    MW410696   1.104   0.223   4.207  0.0353 -0.4389 -0.1922
 2644SOL     OW10697   4.099   3.465   4.635  0.1307 -0.5312  0.4829
 2644SOL    HW210698   4.093   3.369   4.630 -0.3507 -0.4740 -0.0804
 2644SOL    HW310699   4.015   3.496   4.603  1.4739  0.1656 -2.6383
 2644SOL    MW410700   4.087   3.456   4.630  0.2446 -0.4320 -0.0029
 2645SOL     OW10701   0.496   1.242   4.123  0.0288 -0.0677  0.6114
 2645SOL    HW210702   0.496   1.227   4.029  0.1386  1.6355  0.3174
 2645SOL    HW310703   0.405   1.227   4.150 -0.3364  0.9025 -0.0404
 2645SOL    MW410704   0.484   1.238   4.114 -0.0049  0.2851  0.4864
 2646SOL     OW10705   4.010   0.603   4.736  0.1745 -0.1597 -0.1444
 2646SOL    HW210706   4.036   0.661   4.807 -0.5221  0.4089 -0.3522
 2646SOL    HW310707   4.083   0.606   4.674  1.4235 -1.7601  1.1893
 2646SOL    MW410708   4.023   0.611   4.737  0.2470 -0.2958  0.0043
 2647SOL     OW10709   0.832   4.544   4.719  0.3004 -0.2386  0.1926
 2647SOL    HW210710   0.870   4.589   4.795 -0.3538 -0.3302  0.5784
 2647SOL    HW310711   0.905   4.494   4.682  0.5889 -0.3062  0.8466
 2647SOL    MW410712   0.847   4.543   4.724  0.2522 -0.2594  0.3295
 2648SOL     OW10713   4.037   3.496   4.151  0.1830 -0.3794  0.2528
 2648SOL    HW210714   4.038   3.409   4.190  0.2080  0.1052  1.3571
 2648SOL    HW310715   4.027   3.480   4.057 -2.7233 -1.4809  0.7113
 2648SOL    MW410716   4.036   3.482   4.144 -0.1974 -0.4609  0.4592
 2649SOL     OW10717   3.107   4.206   4.173 -0.1685 -0.2330  0.2228
 2649SOL    HW210718   3.133   4.253   4.252 -1.7059  0.1192  0.5433
 2649SOL    HW310719   3.107   4.114   4.198 -2.0275 -0.0347  1.0866
 2649SOL    MW410720   3.110   4.200   4.186 -0.6168 -0.1602  0.3791
 2650SOL     OW10721   0.104   2.285   4.544  0.2464 -0.7608 -0.4557
 2650SOL    HW210722   0.135   2.368   4.579 -0.6705 -0.3505 -0.6136
 2650SOL    HW310723   0.178   2.225   4.556  1.0600  0.1768 -0.7326
 2650SOL    MW410724   0.118   2.288   4.550  0.2328 -0.5832 -0.5136
 2651SOL     OW10725   4.033   4.320   4.587 -0.1976 -0.2658  0.3126
 2651SOL    HW210726   4.076   4.241   4.555 -1.6012 -0.7276 -0.5082
 2651SOL    HW310727   4.047   4.319   4.681  0.0526 -1.3369  0.2704
 2651SOL    MW410728   4.040   4.310   4.595 -0.3495 -0.4683  0.1984
 2652SOL     OW10729   1.297   3.561   4.512  0.3886  0.1686  0.5191
 2652SOL    HW210730   1.319   3.497   4.579 -1.7782 -0.5240  0.6176
 2652SOL    HW310731   1.349   3.638   4.534 -1.5689  0.5702  4.0070
 2652SOL    MW410732   1.307   3.562   4.523 -0.1556  0.1302  0.9923
 2653SOL     OW10733   1.202   1.835   4.671 -0.1379 -0.0036  0.5850
 2653SOL    HW210734   1.114   1.796   4.669  0.6102 -1.8151  1.2104
 2653SOL    HW310735   1.253   1.782   4.610  0.4960  1.1429  0.1078
 2653SOL    MW410736   1.197   1.823   4.663  0.0446 -0.0913  0.6046
 2654SOL     OW10737   2.727   3.437   4.360  0.1306 -0.3127 -0.5598
 2654SOL    HW210738   2.791   3.367   4.369  0.1034 -0.1864  0.7017
 2654SOL    HW310739   2.648   3.393   4.327 -0.2225 -1.0607  1.2564
 2654SOL    MW410740   2.725   3.422   4.356  0.0803 -0.3948 -0.1540
 2655SOL     OW10741   4.291   2.843   4.276  0.2686  0.0722  0.0356
 2655SOL    HW210742   4.217   2.792   4.242  0.4917 -0.2457  0.0290
 2655SOL    HW310743   4.275   2.932   4.243 -0.0094 -0.0357 -0.1284
 2655SOL    MW410744   4.279   2.848   4.267  0.2613  0.0160  0.0129
 2656SOL     OW10745   3.356   1.692   4.346  0.4121 -0.3946 -0.3734
 2656SOL    HW210746   3.262   1.705   4.332  0.3784  0.2393  0.4342
 2656SOL    HW310747   3.371   1.719   4.437  1.7221  1.4508 -1.1014
 2656SOL    MW410748   3.345   1.698   4.356  0.5805 -0.0677 -0.3629
 2657SOL     OW10749   2.334   1.919   3.920 -0.1907 -0.3682  0.2168
 2657SOL    HW210750   2.277   1.959   3.986 -0.3993 -0.1722 -0.0832
 2657SOL    HW310751   2.380   1.992   3.880 -0.8046 -0.3998 -0.5482
 2657SOL    MW410752   2.332   1.934   3.923 -0.2990 -0.3467  0.0763
 2658SOL     OW10753   1.547   1.772   4.451 -0.4384  0.2728 -0.1920
 2658SOL    HW210754   1.565   1.859   4.488 -0.8318  0.9999 -1.6656
 2658SOL    HW310755   1.612   1.762   4.381 -0.4905 -0.5643 -0.1211
 2658SOL    MW410756   1.558   1.783   4.446 -0.4970  0.2583 -0.3767
 2659SOL     OW10757   4.116   3.769   4.767  0.3998  0.0534 -0.3535
 2659SOL    HW210758   4.118   3.674   4.765  0.5179  0.0757 -1.9739
 2659SOL    HW310759   4.026   3.791   4.741  0.3964  0.3909 -0.0619
 2659SOL    MW410760   4.104   3.760   4.764  0.4153  0.1009 -0.5283
 2660SOL     OW10761   3.706   4.158   4.575 -0.2714  0.2876  0.3101
 2660SOL    HW210762   3.722   4.242   4.532 -1.4895 -1.2057 -3.1963
 2660SOL    HW310763   3.787   4.108   4.563  0.4606  0.8983  2.4091
 2660SOL    MW410764   3.719   4.162   4.568 -0.3355  0.1717  0.1245
 2661SOL     OW10765   4.302   1.525   3.897  0.0207 -0.2918  0.0453
 2661SOL    HW210766   4.343   1.480   3.971 -0.3984  0.1837  0.5755
 2661SOL    HW310767   4.374   1.569   3.852  0.4913 -1.8239 -0.7193
 2661SOL    MW410768   4.317   1.525   3.901  0.0277 -0.4311  0.0145
 2662SOL     OW10769   3.213   2.759   4.128  0.1976 -0.0022 -0.0847
 2662SOL    HW210770   3.129   2.801   4.143  1.1419  1.5111  1.0958
 2662SOL    HW310771   3.205   2.673   4.169 -0.1719  0.8269  1.6184
 2662SOL    MW410772   3.201   2.753   4.135  0.2732  0.3066  0.2966
 2663SOL     OW10773   0.474   3.537   3.878 -0.2104 -0.2703  0.0238
 2663SOL    HW210774   0.553   3.575   3.840 -0.2684 -0.2878 -0.1179
 2663SOL    HW310775   0.486   3.545   3.972  0.6937 -1.7948  0.0376
 2663SOL    MW410776   0.486   3.543   3.885 -0.0987 -0.4735  0.0069
 2664SOL     OW10777   4.034   3.237   4.270 -0.5207  0.2960  0.3142
 2664SOL    HW210778   3.957   3.188   4.242  0.7932 -1.7049  0.1064
 2664SOL    HW310779   4.105   3.204   4.214  0.3747  2.5113  0.1139
 2664SOL    MW410780   4.033   3.226   4.259 -0.2294  0.3242  0.2604
 2665SOL     OW10781   1.551   0.648   4.321 -0.1254  0.3704  0.1286
 2665SOL    HW210782   1.461   0.616   4.310 -0.3933  1.1757 -0.0746
 2665SOL    HW310783   1.605   0.569   4.320 -0.6006  0.0337 -2.0880
 2665SOL    MW410784   1.546   0.633   4.319 -0.2235  0.4321 -0.1907
 2666SOL     OW10785   2.913   3.811   4.089  0.1941 -0.2653 -0.3004
 2666SOL    HW210786   2.886   3.720   4.103 -2.1322  0.5704  0.8849
 2666SOL    HW310787   2.908   3.823   3.994  0.6324 -1.4056 -0.4735
 2666SOL    MW410788   2.909   3.801   4.078 -0.0548 -0.3054 -0.1669
 2667SOL     OW10789   1.368   0.805   4.622 -0.2535 -0.0548 -0.0853
 2667SOL    HW210790   1.457   0.832   4.599 -0.1305 -0.9720 -0.7345
 2667SOL    HW310791   1.314   0.832   4.548 -0.3727 -0.2245 -0.0617
 2667SOL    MW410792   1.373   0.812   4.609 -0.2530 -0.1981 -0.1678
 2668SOL     OW10793   0.703   3.902   4.162  0.0676  0.2372  0.3738
 2668SOL    HW210794   0.698   3.878   4.069  0.8202 -0.5387  0.5275
 2668SOL    HW310795   0.645   3.978   4.170 -0.1769  0.1755 -0.6846
 2668SOL    MW410796   0.695   3.909   4.151  0.1347  0.1266  0.2546
 2669SOL     OW10797   0.236   1.177   4.287 -0.1010  0.1772 -0.4434
 2669SOL    HW210798   0.174   1.130   4.231 -1.7767  0.3787  1.1932
 2669SOL    HW310799   0.274   1.110   4.344 -0.6796  0.4062  0.2293
 2669SOL    MW410800   0.233   1.162   4.287 -0.3984  0.2341 -0.1388
 2670SOL     OW10801   1.762   3.517   4.442 -0.0826  0.0410 -0.5505
 2670SOL    HW210802   1.720   3.434   4.463 -2.3628  1.4355  0.5963
 2670SOL    HW310803   1.738   3.533   4.351 -0.3148 -0.1928 -0.5322
 2670SOL    MW410804   1.753   3.508   4.433 -0.4141  0.1941 -0.3972
 2671SOL     OW10805   0.518   1.284   4.758 -0.0976  0.3428 -0.2887
 2671SOL    HW210806   0.431   1.249   4.741 -0.6146  1.5794 -0.2307
 2671SOL    HW310807   0.502   1.369   4.800  1.1395 -0.1818  1.2715
 2671SOL    MW410808   0.504   1.291   4.761 -0.0026  0.4368 -0.0753
 2672SOL     OW10809   4.150   4.652   4.325  0.5128  0.1057 -0.2414
 2672SOL    HW210810   4.073   4.709   4.331  0.8279  0.4806  0.2895
 2672SOL    HW310811   4.114   4.563   4.325  0.0784  0.2777  0.0890
 2672SOL    MW410812   4.135   4.648   4.326  0.4973  0.1774 -0.1278
 2673SOL     OW10813   3.555   1.530   4.703 -0.1694  0.5283  0.1279
 2673SOL    HW210814   3.548   1.435   4.695  0.3125  0.4926  0.1252
 2673SOL    HW310815   3.618   1.556   4.636 -0.4362  0.8705  0.0076
 2673SOL    MW410816   3.562   1.521   4.693 -0.1411  0.5686  0.1116
 2674SOL     OW10817   0.010   2.705   4.187  0.1208  0.2330 -0.2832
 2674SOL    HW210818   0.001   2.689   4.093 -2.0609  0.4676 -0.1327
 2674SOL    HW310819  -0.061   2.764   4.209  0.7102  0.3188  1.5007
 2674SOL    MW410820  -0.001   2.711   4.178 -0.0893  0.2751 -0.0277
 2675SOL     OW10821   0.427   4.289   3.867  0.0916 -0.2021  0.7719
 2675SOL    HW210822   0.512   4.318   3.834 -0.3351 -0.8296 -0.9407
 2675SOL    HW310823   0.430   4.193   3.858 -1.0076 -0.1764  0.2016
 2675SOL    MW410824   0.439   4.280   3.862 -0.1097 -0.2809  0.4706
 2676SOL     OW10825   1.189   0.901   4.832  0.0288 -0.2163 -0.3687
 2676SOL    HW210826   1.251   0.939   4.894  0.4849  0.4666 -1.2323
 2676SOL    HW310827   1.241   0.886   4.753 -0.7599 -0.2203 -0.8879
 2676SOL    MW410828   1.204   0.904   4.830 -0.0150 -0.1267 -0.5512
 2677SOL     OW10829   1.167   0.118   4.462 -0.0659 -0.1265 -0.9911
 2677SOL    HW210830   1.248   0.166   4.479 -0.9680  1.0460  0.0611
 2677SOL    HW310831   1.140   0.149   4.375  0.6319 -0.5715 -1.3798
 2677SOL    MW410832   1.174   0.129   4.452 -0.0930 -0.0305 -0.9041
 2678SOL     OW10833   0.218   0.774   4.158 -0.2348  0.3978 -0.4153
 2678SOL    HW210834   0.308   0.742   4.144 -0.4984  0.1924 -1.7653
 2678SOL    HW310835   0.164   0.695   4.152 -0.5493  0.5823 -0.0228
 2678SOL    MW410836   0.223   0.759   4.155 -0.3110  0.3950 -0.5417
 2679SOL     OW10837   3.391   0.514   4.513  0.2588 -0.2351  0.0779
 2679SOL    HW210838   3.395   0.506   4.418  0.7234  0.8608  0.0017
 2679SOL    HW310839   3.463   0.460   4.545 -0.6618 -1.6044 -0.1305
 2679SOL    MW410840   3.401   0.506   4.505  0.1986 -0.2712  0.0401
 2680SOL     OW10841   2.625   1.458   4.423  0.7015  0.0566 -0.0237
 2680SOL    HW210842   2.660   1.543   4.451  0.7156  0.2000 -0.4725
 2680SOL    HW310843   2.557   1.437   4.487 -0.4050  1.1611 -0.8025
 2680SOL    MW410844   2.621   1.466   4.435  0.5572  0.2213 -0.1855
 2681SOL     OW10845   1.714   0.537   4.761  0.0745 -0.2217  0.3508
 2681SOL    HW210846   1.795   0.486   4.765  0.7703  0.6847 -1.2619
 2681SOL    HW310847   1.743   0.628   4.772 -0.7445  0.0866 -0.0286
 2681SOL    MW410848   1.729   0.542   4.763  0.0582 -0.0615  0.0877
 2682SOL     OW10849   3.088   1.029   4.874  0.4483 -0.1100  0.1597
 2682SOL    HW210850   3.148   1.063   4.940  1.5162 -0.5553 -0.5755
 2682SOL    HW310851   3.027   1.101   4.858  0.5762  0.2304  1.1455
 2682SOL    MW410852   3.087   1.043   4.881  0.6061 -0.1240  0.1926
 2683SOL     OW10853   1.674   2.617   4.257 -0.2887 -0.5830  0.0983
 2683SOL    HW210854   1.615   2.692   4.265  0.0387 -0.1014 -1.7980
 2683SOL    HW310855   1.619   2.546   4.224 -0.2302 -0.7081  0.2664
 2683SOL    MW410856   1.659   2.618   4.254 -0.2377 -0.5357 -0.1302
 2684SOL     OW10857   3.408   1.757   4.606  0.2108  0.1356  0.0171
 2684SOL    HW210858   3.478   1.822   4.609  0.2491  0.0720  0.4304
 2684SOL    HW310859   3.445   1.678   4.643  0.3579 -0.3169 -1.0696
 2684SOL    MW410860   3.422   1.755   4.611  0.2351  0.0675 -0.0715
 2685SOL     OW10861   1.549   0.010   3.871  0.1860 -0.1137 -0.2713
 2685SOL    HW210862   1.581   0.008   3.962 -0.9600 -0.8012  0.1168
 2685SOL    HW310863   1.563  -0.079   3.839  0.3697  0.0695 -0.7010
 2685SOL    MW410864   1.555  -0.002   3.879  0.0589 -0.1802 -0.2768
 2686SOL     OW10865   4.208   1.200   4.553  0.0177  0.1736 -0.1843
 2686SOL    HW210866   4.292   1.159   4.534  0.5781  0.7337  1.0517
 2686SOL    HW310867   4.145   1.128   4.550  0.5973 -0.3119 -0.7180
 2686SOL    MW410868   4.211   1.185   4.550  0.1678  0.1835 -0.0916
 2687SOL     OW10869   0.502   1.152   3.853 -0.1060 -0.2578  0.0216
 2687SOL    HW210870   0.420   1.180   3.812  0.2483  1.1518  0.2705
 2687SOL    HW310871   0.570   1.183   3.793  0.2163 -2.8758 -1.0564
 2687SOL    MW410872   0.500   1.160   3.840 -0.0167 -0.4174 -0.0877
 2688SOL     OW10873   1.230   0.934   4.417 -0.2875 -0.3350  0.1615
 2688SOL    HW210874   1.223   1.017   4.465  2.4552  1.2924 -2.1306
 2688SOL    HW310875   1.152   0.932   4.362 -0.4570  0.6343  0.3485
 2688SOL    MW410876   1.219   0.945   4.416  0.0520  0.0076 -0.1168
 2689SOL     OW10877   0.642   3.704   4.353  0.0417 -0.2016 -0.2528
 2689SOL    HW210878   0.715   3.688   4.413  0.9214 -0.9020 -1.4797
 2689SOL    HW310879   0.677   3.764   4.288 -1.0582  0.9432  0.2008
 2689SOL    MW410880   0.656   3.710   4.352  0.0127 -0.1428 -0.3548
 2690SOL     OW10881   2.466   0.350   4.520  0.1727 -0.0056  0.3838
 2690SOL    HW210882   2.435   0.290   4.587  0.2513 -0.7750 -0.2558
 2690SOL    HW310883   2.548   0.384   4.555  0.3271 -0.5710  0.5781
 2690SOL    MW410884   2.473   0.346   4.533  0.2036 -0.1817  0.3252
 2691SOL     OW10885   3.601   0.365   4.172 -0.3503  0.2953 -0.1917
 2691SOL    HW210886   3.525   0.415   4.201 -0.1595  0.2224  0.4421
 2691SOL    HW310887   3.669   0.386   4.235  0.3336  0.8204 -1.0961
 2691SOL    MW410888   3.600   0.374   4.184 -0.2348  0.3549 -0.2270
 2692SOL     OW10889   2.164   2.707   4.148  0.0448  0.3828 -0.3110
 2692SOL    HW210890   2.226   2.779   4.135  2.1157 -1.5355 -1.5052
 2692SOL    HW310891   2.192   2.667   4.230  0.1362 -0.2405 -0.6480
 2692SOL    MW410892   2.176   2.711   4.157  0.3302  0.0477 -0.5126
 2693SOL     OW10893   4.488   1.105   4.148  0.6749 -0.2913  0.4453
 2693SOL    HW210894   4.435   1.029   4.125  0.3951  0.0939 -0.1869
 2693SOL    HW310895   4.492   1.157   4.068  1.1739  0.1779  0.7709
 2693SOL    MW410896   4.482   1.102   4.134  0.7043 -0.1786  0.4048
 2694SOL     OW10897   1.248   0.600   4.345  0.0007  0.3677  0.8346
 2694SOL    HW210898   1.196   0.586   4.424 -0.9228  1.5206  0.4509
 2694SOL    HW310899   1.190   0.647   4.286  0.8234 -0.1064 -0.3783
 2694SOL    MW410900   1.234   0.605   4.348 -0.0128  0.4573  0.6242
 2695SOL     OW10901   1.693   0.032   4.460  0.4525 -0.4022 -0.0335
 2695SOL    HW210902   1.776   0.079   4.461 -0.2028  0.7684  0.4400
 2695SOL    HW310903   1.709  -0.044   4.404  2.1205 -0.7216  0.8238
 2695SOL    MW410904   1.706   0.028   4.453  0.5862 -0.2900  0.1421
 2696SOL     OW10905   3.994   1.588   4.552 -0.1001 -0.2338  0.1623
 2696SOL    HW210906   4.008   1.676   4.589  0.6959  0.4294 -1.6628
 2696SOL    HW310907   4.057   1.533   4.598  0.6347  0.5131  0.0766
 2696SOL    MW410908   4.004   1.592   4.563  0.1016 -0.0478 -0.0901
 2697SOL     OW10909   3.695   3.314   4.603  0.3901  0.5038  0.0977
 2697SOL    HW210910   3.619   3.345   4.653  0.1748 -0.8739  0.6456
 2697SOL    HW310911   3.660   3.290   4.518  0.2758  0.2043  0.2299
 2697SOL    MW410912   3.681   3.315   4.599  0.3467  0.2825  0.1874
 2698SOL     OW10913   3.588   0.914   4.550  0.3338  0.2804  0.2465
 2698SOL    HW210914   3.670   0.868   4.567 -0.0493 -0.2375  0.7131
 2698SOL    HW310915   3.583   0.919   4.455  0.7218 -0.0186  0.2075
 2698SOL    MW410916   3.598   0.909   4.540  0.3345  0.1727  0.3033
 2699SOL     OW10917   1.837   3.049   4.545  0.7422  0.6315 -0.0579
 2699SOL    HW210918   1.868   2.963   4.517  0.1903  0.1585  0.7886
 2699SOL    HW310919   1.897   3.111   4.503  0.2535 -0.0891 -1.8631
 2699SOL    MW410920   1.849   3.046   4.535  0.6049  0.4740 -0.1841
 2700SOL     OW10921   0.182   1.352   4.499 -0.1648 -0.2840  0.2674
 2700SOL    HW210922   0.216   1.308   4.421  0.9121  0.2602  0.4177
 2700SOL    HW310923   0.255   1.405   4.530 -1.4763  1.7548 -0.0084
 2700SOL    MW410924   0.196   1.353   4.493 -0.1957  0.0569  0.2513
 2701SOL     OW10925   2.603   2.682   4.129 -0.2892 -0.0042  0.0126
 2701SOL    HW210926   2.578   2.725   4.211 -0.3730 -0.7995  0.4111
 2701SOL    HW310927   2.554   2.600   4.130  0.3749 -0.4056 -0.4225
 2701SOL    MW410928   2.594   2.677   4.140 -0.2127 -0.1621  0.0076
 2702SOL     OW10929   1.354   1.597   4.060 -0.0473  0.2377  0.1250
 2702SOL    HW210930   1.437   1.553   4.046 -0.1630 -0.0840  0.4368
 2702SOL    HW310931   1.366   1.685   4.024 -0.2915 -0.5159 -1.8537
 2702SOL    MW410932   1.366   1.603   4.053 -0.0948  0.0957 -0.0949
 2703SOL     OW10933   2.167   0.325   4.120  0.2749  0.4835 -0.1840
 2703SOL    HW210934   2.236   0.385   4.146 -0.9075  2.4969 -1.4839
 2703SOL    HW310935   2.088   0.379   4.117 -1.0300 -1.3682 -0.4103
 2703SOL    MW410936   2.166   0.340   4.123 -0.0532  0.5048 -0.3858
 2704SOL     OW10937   1.165   1.180   4.539 -0.3353 -0.0468 -0.6625
 2704SOL    HW210938   1.096   1.122   4.573  0.2009 -0.5437 -0.4193
 2704SOL    HW310939   1.134   1.205   4.452 -0.8201 -0.2768 -0.5621
 2704SOL    MW410940   1.152   1.176   4.532 -0.3284 -0.1427 -0.6170
 2705SOL     OW10941   2.303   2.555   4.342  0.7643  0.2666  0.3043
 2705SOL    HW210942   2.260   2.480   4.383 -0.2773  1.2267  1.0259
 2705SOL    HW310943   2.337   2.606   4.416  0.0944  1.2955 -0.0838
 2705SOL    MW410944   2.302   2.552   4.357  0.5383  0.5288  0.3486
 2706SOL     OW10945   0.954   4.244   4.112  0.1406  0.6969 -0.0818
 2706SOL    HW210946   0.937   4.168   4.167 -0.8886  0.3366 -0.8796
 2706SOL    HW310947   1.049   4.255   4.114  0.0643  1.1031  2.3154
 2706SOL    MW410948   0.964   4.236   4.119 -0.0052  0.7033  0.1292
 2707SOL     OW10949   3.113   4.551   4.621  0.4216  0.3954 -0.0105
 2707SOL    HW210950   3.169   4.620   4.584 -0.7846 -0.3004 -3.2929
 2707SOL    HW310951   3.172   4.500   4.676  2.1074  2.0526 -0.2084
 2707SOL    MW410952   3.128   4.554   4.623  0.4849  0.5221 -0.4697
 2708SOL     OW10953   3.716   1.657   4.521 -0.5420 -0.2842 -0.1983
 2708SOL    HW210954   3.692   1.615   4.438  0.8999  0.8267 -1.1855
 2708SOL    HW310955   3.803   1.621   4.541 -0.4904  0.1585  0.3631
 2708SOL    MW410956   3.724   1.647   4.513 -0.3448 -0.0793 -0.2546
 2709SOL     OW10957   1.400   2.527   4.341 -1.1285  0.1366  0.2175
 2709SOL    HW210958   1.383   2.435   4.360 -0.9031  0.3467  1.5050
 2709SOL    HW310959   1.368   2.573   4.419 -0.2557  1.0498  0.0433
 2709SOL    MW410960   1.394   2.521   4.354 -0.9836  0.2851  0.3643
 2710SOL     OW10961   4.458   2.488   4.343  0.5325 -0.0205  0.0932
 2710SOL    HW210962   4.465   2.561   4.282  0.4031  0.4901  0.6881
 2710SOL    HW310963   4.526   2.505   4.409 -0.0057 -0.0351  0.6533
 2710SOL    MW410964   4.468   2.500   4.344  0.4449  0.0448  0.2451
 2711SOL     OW10965   1.480   4.296   4.505  0.5775  0.0751 -0.5020
 2711SOL    HW210966   1.439   4.341   4.432 -0.9068 -0.8442 -0.2497
 2711SOL    HW310967   1.500   4.365   4.568  0.7365  0.7024 -1.2403
 2711SOL    MW410968   1.477   4.311   4.504  0.4027  0.0362 -0.5665
 2712SOL     OW10969   1.216   3.786   4.760 -0.1167  0.3084 -0.0825
 2712SOL    HW210970   1.288   3.798   4.698  0.3448  0.8777  0.5608
 2712SOL    HW310971   1.230   3.854   4.827 -1.1200  0.2826  0.1633
 2712SOL    MW410972   1.227   3.797   4.761 -0.1882  0.3800  0.0348
 2713SOL     OW10973   2.137   0.569   4.663 -0.3847 -0.0419 -0.5176
 2713SOL    HW210974   2.107   0.658   4.682 -2.1303 -0.6624 -0.2712
 2713SOL    HW310975   2.200   0.579   4.592  0.5289  1.5324  0.4982
 2713SOL    MW410976   2.141   0.582   4.656 -0.4947  0.0840 -0.3505
 2714SOL     OW10977   0.821   0.738   4.562  0.0139 -0.7002 -0.2397
 2714SOL    HW210978   0.808   0.792   4.483  2.5159  0.6014  0.2103
 2714SOL    HW310979   0.777   0.788   4.631 -1.3483 -1.3724 -0.5908
 2714SOL    MW410980   0.813   0.752   4.560  0.1644 -0.6171 -0.2270
 2715SOL     OW10981   4.481   3.777   4.556  0.5239  0.0238  0.5896
 2715SOL    HW210982   4.564   3.733   4.574  0.7096  0.3071  0.4341
 2715SOL    HW310983   4.420   3.706   4.537  0.9009 -0.1442  0.0187
 2715SOL    MW410984   4.484   3.762   4.556  0.5989  0.0386  0.4940
 2716SOL     OW10985   3.580   0.378   4.642 -0.4065  0.1986  0.1350
 2716SOL    HW210986   3.619   0.385   4.729 -0.0794  1.0867 -0.0733
 2716SOL    HW310987   3.563   0.285   4.630 -0.1963  0.0435  1.0380
 2716SOL    MW410988   3.583   0.367   4.652 -0.3355  0.2953  0.2265
 2717SOL     OW10989   3.872   2.823   4.199  0.2488 -0.3311  0.3259
 2717SOL    HW210990   3.793   2.778   4.171  0.0417  0.2006  0.0543
 2717SOL    HW310991   3.869   2.819   4.295 -0.4022  0.1938  0.3309
 2717SOL    MW410992   3.861   2.817   4.208  0.1354 -0.1917  0.2904
 2718SOL     OW10993   4.253   3.110   4.158 -0.4483 -0.2966  0.1557
 2718SOL    HW210994   4.332   3.163   4.166 -0.9665  0.4751  0.1574
 2718SOL    HW310995   4.247   3.088   4.065  0.8830 -2.0760  0.4682
 2718SOL    MW410996   4.262   3.114   4.147 -0.3409 -0.4296  0.1969
 2719SOL     OW10997   1.499   2.293   4.009  0.1291  0.2472  0.1958
 2719SOL    HW210998   1.531   2.212   3.969  0.9624  0.4969  0.3426
 2719SOL    HW310999   1.567   2.317   4.072 -0.9799  0.0721  1.4882
 2719SOL    MW411000   1.512   2.286   4.012  0.0927  0.2570  0.3858
 2720SOL     OW11001   1.630   2.884   4.665 -0.1844  0.6763  0.4810
 2720SOL    HW211002   1.674   2.799   4.663 -0.3903  0.5946 -0.8411
 2720SOL    HW311003   1.692   2.944   4.625 -0.7887  0.7929 -0.2813
 2720SOL    MW411004   1.644   2.880   4.660 -0.2915  0.6809  0.2065
 2721SOL     OW11005   1.235   2.350   4.048 -0.2271 -0.0863  0.3031
 2721SOL    HW211006   1.329   2.333   4.050  0.2230  2.0671 -1.0535
 2721SOL    HW311007   1.210   2.356   4.140  1.1389  0.1209  0.6727
 2721SOL    MW411008   1.244   2.349   4.061  0.0125  0.2251  0.1731
 2722SOL     OW11009   2.667   1.085   4.348 -0.0330  0.4554  0.0139
 2722SOL    HW211010   2.741   1.086   4.288 -0.6600 -1.0502 -0.8328
 2722SOL    HW311011   2.603   1.144   4.308  0.0599  0.4559 -0.1371
 2722SOL    MW411012   2.668   1.093   4.335 -0.1037  0.2569 -0.1178
 2723SOL     OW11013   3.410   1.506   4.154  0.4346 -0.3183  0.1482
 2723SOL    HW211014   3.396   1.574   4.220 -0.0746  0.1549 -0.4423
 2723SOL    HW311015   3.389   1.548   4.071  0.5980 -1.0542 -0.2733
 2723SOL    MW411016   3.406   1.520   4.152  0.3891 -0.3529  0.0148
 2724SOL     OW11017   4.174   4.083   4.502  0.3534 -0.4506  0.0748
 2724SOL    HW211018   4.238   4.057   4.568 -0.3827  1.2512  1.5174
 2724SOL    HW311019   4.227   4.108   4.426  1.6205  2.9581  1.9620
 2724SOL    MW411020   4.189   4.083   4.501  0.4239  0.2236  0.5150
 2725SOL     OW11021   3.675   1.517   4.275 -0.0072  0.3262 -0.0638
 2725SOL    HW211022   3.737   1.580   4.239 -0.1884  2.1962  2.7430
 2725SOL    HW311023   3.595   1.529   4.222  0.8995  0.3084 -1.4631
 2725SOL    MW411024   3.672   1.527   4.263  0.0887  0.5708  0.1221
 2726SOL     OW11025   2.618   0.801   4.296 -0.1705  0.4333  0.0608
 2726SOL    HW211026   2.690   0.777   4.238 -0.9612  1.2697 -1.2870
 2726SOL    HW311027   2.635   0.892   4.320  0.1540  0.0904  1.1486
 2726SOL    MW411028   2.629   0.810   4.292 -0.2320  0.4984  0.0267
 2727SOL     OW11029   2.704   0.490   4.590 -0.5907 -0.1655 -0.1810
 2727SOL    HW211030   2.759   0.431   4.538 -1.2530  0.4100 -1.5803
 2727SOL    HW311031   2.705   0.453   4.678  0.0235 -1.5479 -0.7493
 2727SOL    MW411032   2.711   0.477   4.594 -0.5970 -0.2719 -0.4406
 2728SOL     OW11033   1.728   1.183   3.727 -0.3708  0.5276 -0.2432
 2728SOL    HW211034   1.807   1.237   3.728 -0.2439  0.3393  0.0882
 2728SOL    HW311035   1.669   1.224   3.790 -0.8437  1.1132 -1.0563
 2728SOL    MW411036   1.731   1.195   3.735 -0.4163  0.5800 -0.3068
 2729SOL     OW11037   1.029   2.830   4.366 -0.2048 -0.0220  0.3380
 2729SOL    HW211038   1.025   2.738   4.391  0.5433 -0.3195 -0.5746
 2729SOL    HW311039   0.939   2.853   4.344 -0.1383 -1.0639 -1.1708
 2729SOL    MW411040   1.017   2.821   4.366 -0.0975 -0.1984  0.0191
 2730SOL     OW11041   4.426   1.406   4.108 -0.5970  0.0261  0.0300
 2730SOL    HW211042   4.484   1.451   4.170 -0.0592 -1.2965  0.5284
 2730SOL    HW311043   4.363   1.361   4.164 -0.1622 -1.1083 -0.3713
 2730SOL    MW411044   4.426   1.406   4.124 -0.4687 -0.2980  0.0429
 2731SOL     OW11045   1.338   1.143   3.891 -0.1436  0.1367  0.2163
 2731SOL    HW211046   1.325   1.104   3.977  0.6787  1.2379  0.8654
 2731SOL    HW311047   1.421   1.191   3.899  0.0012  0.1521 -1.2253
 2731SOL    MW411048   1.347   1.145   3.903 -0.0160  0.2840  0.1116
 2732SOL     OW11049   2.038   1.604   4.592  0.2864  0.1326 -0.2379
 2732SOL    HW211050   2.012   1.517   4.560 -0.7043  0.8008 -1.2678
 2732SOL    HW311051   1.956   1.650   4.607  0.8056  0.8694  0.4220
 2732SOL    MW411052   2.024   1.598   4.590  0.2246  0.3178 -0.2866
 2733SOL     OW11053   0.843   3.121   4.072  0.0568  0.1434 -0.2915
 2733SOL    HW211054   0.934   3.105   4.049 -0.5184 -0.9928 -1.8943
 2733SOL    HW311055   0.831   3.075   4.155  1.1721  1.0826  0.4028
 2733SOL    MW411056   0.853   3.113   4.080  0.1280  0.1173 -0.4115
 2734SOL     OW11057   1.332   2.076   4.676  0.4778  0.2171 -0.1638
 2734SOL    HW211058   1.279   1.996   4.676  2.8293 -1.4063 -2.3167
 2734SOL    HW311059   1.287   2.135   4.616  1.3949 -1.4171 -2.5389
 2734SOL    MW411060   1.319   2.073   4.668  0.9090 -0.2124 -0.7615
 2735SOL     OW11061   0.260   1.602   4.132 -0.2081 -0.0723 -0.1407
 2735SOL    HW211062   0.198   1.591   4.205  0.8665  0.6911  0.9024
 2735SOL    HW311063   0.284   1.694   4.134  0.3294 -0.1868 -1.0563
 2735SOL    MW411064   0.255   1.612   4.142  0.0046  0.0132 -0.1235
 2736SOL     OW11065   2.901   1.250   4.731 -0.0577  0.4840  0.5384
 2736SOL    HW211066   2.870   1.171   4.688 -0.6665  0.2917  1.3232
 2736SOL    HW311067   2.968   1.285   4.672  0.1209 -0.5431  0.1342
 2736SOL    MW411068   2.906   1.245   4.717 -0.1144  0.3232  0.5889
 2737SOL     OW11069   0.250   3.629   4.288  0.1112  0.3092 -0.6590
 2737SOL    HW211070   0.286   3.704   4.242 -1.2584  0.3739 -1.6723
 2737SOL    HW311071   0.191   3.588   4.225  0.4404 -1.3161  0.0525
 2737SOL    MW411072   0.247   3.633   4.274 -0.0261  0.1030 -0.6981
 2738SOL     OW11073   3.815   0.396   4.829  0.4399 -0.0983  0.1531
 2738SOL    HW211074   3.872   0.459   4.785  0.8887 -1.1151 -0.7503
 2738SOL    HW311075   3.876   0.335   4.871  0.0115 -0.1226  0.7302
 2738SOL    MW411076   3.831   0.396   4.828  0.4427 -0.2356  0.1101
 2739SOL     OW11077   0.275   0.108   4.107 -0.0609 -0.0827  0.0707
 2739SOL    HW211078   0.306   0.187   4.150 -0.1779 -0.1983  0.3715
 2739SOL    HW311079   0.321   0.037   4.152 -0.3121 -0.2156  0.1196
 2739SOL    MW411080   0.286   0.109   4.119 -0.1095 -0.1155  0.1163
 2740SOL     OW11081   1.369   1.063   4.160 -0.4827  0.3580  0.4200
 2740SOL    HW211082   1.371   1.152   4.194 -0.1890  0.5224 -0.0229
 2740SOL    HW311083   1.327   1.012   4.229  1.1817  0.4653  1.5493
 2740SOL    MW411084   1.364   1.068   4.173 -0.2244  0.3939  0.5102
 2741SOL     OW11085   3.837   2.254   3.843  0.6963  0.2893 -0.1121
 2741SOL    HW211086   3.841   2.224   3.933 -1.0589 -1.0543 -0.4494
 2741SOL    HW311087   3.845   2.175   3.790 -0.0678  0.8404 -1.0876
 2741SOL    MW411088   3.838   2.240   3.848  0.3638  0.1845 -0.2851
 2742SOL     OW11089   2.155   2.492   4.662  0.9522  0.4726 -0.2413
 2742SOL    HW211090   2.226   2.430   4.645  0.4220 -0.0563 -0.5252
 2742SOL    HW311091   2.083   2.438   4.693  1.4418  1.2522  2.4119
 2742SOL    MW411092   2.155   2.477   4.664  0.9468  0.5057  0.0710
 2743SOL     OW11093   2.370   0.787   4.139  0.3371  0.1808 -0.6231
 2743SOL    HW211094   2.305   0.852   4.164 -0.1565 -0.5637  0.0457
 2743SOL    HW311095   2.445   0.806   4.195  0.0896 -0.0079 -0.2298
 2743SOL    MW411096   2.372   0.798   4.150  0.2394  0.0576 -0.4826
 2744SOL     OW11097   1.943   4.659   4.176  0.0900 -0.0865 -0.1677
 2744SOL    HW211098   1.970   4.643   4.086  2.4929 -0.5438  0.5817
 2744SOL    HW311099   2.004   4.725   4.208 -1.4564  0.9055  0.7940
 2744SOL    MW411100   1.954   4.665   4.169  0.2029 -0.0162  0.0582
 2745SOL     OW11101   3.570   3.477   4.177  0.0579 -0.2855 -0.4926
 2745SOL    HW211102   3.577   3.484   4.081  0.4407 -0.0443 -0.4487
 2745SOL    HW311103   3.481   3.505   4.197  0.1320  0.1203 -0.7332
 2745SOL    MW411104   3.559   3.482   4.167  0.1183 -0.2003 -0.5183
 2746SOL     OW11105   2.822   2.608   4.246  0.0532 -0.3857  0.1432
 2746SOL    HW211106   2.736   2.625   4.207 -0.2289  0.5334  1.1354
 2746SOL    HW311107   2.853   2.528   4.204 -1.6035 -1.1088  0.2786
 2746SOL    MW411108   2.815   2.600   4.235 -0.2029 -0.3598  0.2923
 2747SOL     OW11109   2.617   0.413   4.144 -0.0034 -0.1377  0.0156
 2747SOL    HW211110   2.604   0.381   4.055  0.1399  1.0416 -0.4447
 2747SOL    HW311111   2.537   0.462   4.163  0.9907  1.6969 -0.4055
 2747SOL    MW411112   2.605   0.415   4.135  0.1464  0.2599 -0.1001
 2748SOL     OW11113   2.182   1.195   3.843 -0.4222 -0.2997  0.5608
 2748SOL    HW211114   2.202   1.191   3.936  0.8938 -0.0129  0.2870
 2748SOL    HW311115   2.190   1.104   3.813 -0.1918 -0.2893  0.5898
 2748SOL    MW411116   2.185   1.182   3.851 -0.2184 -0.2605  0.5283
 2749SOL     OW11117   2.053   0.821   4.652  0.1032 -0.0970 -0.2941
 2749SOL    HW211118   2.002   0.834   4.573 -1.1844  2.4908  0.9054
 2749SOL    HW311119   2.123   0.887   4.647 -0.2800  0.4193  0.9452
 2749SOL    MW411120   2.056   0.832   4.641 -0.1173  0.3125  0.0277
 2750SOL     OW11121   2.033   4.549   4.566  0.0566 -0.4537 -0.0417
 2750SOL    HW211122   2.055   4.523   4.477  0.6203 -1.1615  0.2958
 2750SOL    HW311123   2.012   4.642   4.560  0.6141 -0.3765 -0.8230
 2750SOL    MW411124   2.033   4.558   4.554  0.2048 -0.5369 -0.1001
 2751SOL     OW11125   3.816   2.191   4.149 -0.4658 -0.3416  0.3182
 2751SOL    HW211126   3.758   2.258   4.186  0.4381  1.0548 -0.7195
 2751SOL    HW311127   3.760   2.116   4.134 -1.6974  0.4905  0.6639
 2751SOL    MW411128   3.801   2.190   4.152 -0.5090 -0.0474  0.2270
 2752SOL     OW11129   0.444   2.412   3.431 -0.2237  0.2391  0.0601
 2752SOL    HW211130   0.513   2.353   3.402  0.9824  1.0260  1.2576
 2752SOL    HW311131   0.460   2.422   3.525 -1.4383  1.1208  0.1818
 2752SOL    MW411132   0.455   2.406   3.440 -0.2248  0.4592  0.2341
 2753SOL     OW11133   1.804   2.146   3.831 -0.3083  0.3970 -0.3231
 2753SOL    HW211134   1.774   2.227   3.788 -0.6265  0.1359 -0.5942
 2753SOL    HW311135   1.723   2.098   3.850 -0.1742  0.5866  0.7143
 2753SOL    MW411136   1.789   2.151   3.828 -0.3326  0.3879 -0.2220
 2754SOL     OW11137   1.712   3.780   4.582  0.0157 -0.0057 -0.3133
 2754SOL    HW211138   1.774   3.841   4.539  1.3120 -1.2832 -0.2965
 2754SOL    HW311139   1.744   3.693   4.557 -1.1654 -0.7003  0.5853
 2754SOL    MW411140   1.725   3.777   4.573  0.0308 -0.2658 -0.1922
 2755SOL     OW11141   2.640   1.716   4.210 -0.2160  0.1113 -0.2097
 2755SOL    HW211142   2.636   1.808   4.185 -1.9594 -0.0501 -0.6214
 2755SOL    HW311143   2.651   1.717   4.305  0.7306  0.7357 -0.3205
 2755SOL    MW411144   2.641   1.728   4.219 -0.3211  0.1725 -0.2785
 2756SOL     OW11145   2.581   3.075   4.156  0.2576  0.2702  0.4310
 2756SOL    HW211146   2.673   3.054   4.173  0.0994 -0.1960  0.7090
 2756SOL    HW311147   2.572   3.068   4.061  0.4025 -0.1213  0.4444
 2756SOL    MW411148   2.592   3.072   4.146  0.2558  0.1571  0.4692
 2757SOL     OW11149   2.923   1.514   3.870  0.3465  0.0282 -0.0436
 2757SOL    HW211150   3.000   1.545   3.823 -0.1590  0.5453 -0.5440
 2757SOL    HW311151   2.937   1.542   3.960  0.8576 -0.0904 -0.0845
 2757SOL    MW411152   2.935   1.522   3.875  0.3471  0.0806 -0.1149
 2758SOL     OW11153   3.831   0.832   4.180 -0.3778  0.2611  0.4055
 2758SOL    HW211154   3.754   0.881   4.208 -0.3613  0.9387 -0.7158
 2758SOL    HW311155   3.821   0.746   4.222 -1.2009  0.7008  1.1150
 2758SOL    MW411156   3.820   0.827   4.189 -0.4842  0.4085  0.3514
 2759SOL     OW11157   1.351   1.590   4.543 -0.1003 -0.0740  0.1319
 2759SOL    HW211158   1.433   1.638   4.530 -0.5829  0.7076 -0.0399
 2759SOL    HW311159   1.312   1.585   4.455 -1.2749  1.4356  0.5474
 2759SOL    MW411160   1.357   1.595   4.530 -0.3189  0.2280  0.1640
 2760SOL     OW11161   1.137   4.610   4.173  0.7823  0.1063 -0.0131
 2760SOL    HW211162   1.057   4.594   4.224  0.2488  0.2523 -0.8056
 2760SOL    HW311163   1.202   4.552   4.213 -0.0687 -1.0129 -0.2220
 2760SOL    MW411164   1.135   4.600   4.185  0.5997 -0.0219 -0.1450
 2761SOL     OW11165   1.124   3.850   3.835 -0.4002 -0.4922 -0.0727
 2761SOL    HW211166   1.120   3.869   3.929 -1.5936 -0.8874 -0.0411
 2761SOL    HW311167   1.198   3.902   3.804 -0.7703  0.6363  0.8620
 2761SOL    MW411168   1.133   3.859   3.843 -0.6065 -0.3953  0.0548
 2762SOL     OW11169   2.873   0.492   4.196  0.1267  0.1364  0.1386
 2762SOL    HW211170   2.789   0.465   4.159 -0.1895  0.4311  0.6367
 2762SOL    HW311171   2.870   0.588   4.195  0.2978  0.1482  0.5153
 2762SOL    MW411172   2.862   0.501   4.191  0.1075  0.1768  0.2537
 2763SOL     OW11173   3.575   4.204   3.858  0.3780 -0.2374  0.1075
 2763SOL    HW211174   3.639   4.258   3.812  0.3143  0.3379  0.6898
 2763SOL    HW311175   3.590   4.221   3.951 -0.6390 -0.0505  0.2517
 2763SOL    MW411176   3.585   4.213   3.864  0.2356 -0.1369  0.2031
 2764SOL     OW11177   0.776   0.920   4.352 -0.4479 -0.3825 -0.2842
 2764SOL    HW211178   0.723   0.909   4.273 -1.2194 -0.3455  0.2279
 2764SOL    HW311179   0.861   0.951   4.320 -1.5495  2.0357 -0.9131
 2764SOL    MW411180   0.780   0.923   4.337 -0.6950 -0.0586 -0.2995
 2765SOL     OW11181   1.241   3.306   4.216  0.2250  0.0005 -0.0619
 2765SOL    HW211182   1.304   3.359   4.167  0.2658  0.6014  0.6459
 2765SOL    HW311183   1.188   3.369   4.265 -2.0585 -0.3803 -1.9505
 2765SOL    MW411184   1.242   3.321   4.216 -0.0708  0.0296 -0.2179
 2766SOL     OW11185   3.308   1.203   4.463  0.2050 -0.2895  0.4801
 2766SOL    HW211186   3.254   1.124   4.475 -0.0885  0.0103  1.1797
 2766SOL    HW311187   3.324   1.207   4.369  0.0318 -1.0645  0.4131
 2766SOL    MW411188   3.303   1.193   4.452  0.1433 -0.3521  0.5631
 2767SOL     OW11189   0.019   0.258   4.686  0.1300 -0.3508 -0.2538
 2767SOL    HW211190   0.062   0.177   4.660  1.5417  0.1634  0.4371
 2767SOL    HW311191   0.003   0.248   4.780 -0.4440 -0.1654 -0.3280
 2767SOL    MW411192   0.023   0.246   4.695  0.2405 -0.2585 -0.1726
 2768SOL     OW11193   1.927   0.867   4.370 -0.3844 -0.0963  0.2108
 2768SOL    HW211194   1.860   0.935   4.364  1.7460  1.9579 -1.3213
 2768SOL    HW311195   1.915   0.815   4.291 -0.1110  0.3579 -0.1359
 2768SOL    MW411196   1.917   0.869   4.359 -0.0674  0.2345 -0.0372
 2769SOL     OW11197   2.700   1.446   4.794 -0.4677 -0.6992  0.1005
 2769SOL    HW211198   2.758   1.372   4.777 -0.6220 -0.5300 -1.1705
 2769SOL    HW311199   2.750   1.501   4.855  0.4554 -0.8621 -0.5029
 2769SOL    MW411200   2.714   1.443   4.800 -0.3660 -0.6986 -0.1469
 2770SOL     OW11201   3.125   0.137   4.239 -0.7386 -0.3864  0.4115
 2770SOL    HW211202   3.124   0.225   4.200 -1.9039 -0.3844  0.4272
 2770SOL    HW311203   3.171   0.149   4.323  0.6784 -0.1516 -0.3720
 2770SOL    MW411204   3.131   0.151   4.245 -0.7055 -0.3551  0.3104
 2771SOL     OW11205   0.005   2.711   3.922  0.0149 -0.1377  0.0643
 2771SOL    HW211206   0.029   2.629   3.879  0.7030 -0.2970  0.7436
 2771SOL    HW311207   0.084   2.765   3.917  0.4747 -0.5810  2.1225
 2771SOL    MW411208   0.019   2.708   3.916  0.1664 -0.2172  0.4256
 2772SOL     OW11209   1.483   2.839   4.320  0.2391 -0.2538 -0.0643
 2772SOL    HW211210   1.459   2.870   4.407  0.9097  0.1507 -0.0170
 2772SOL    HW311211   1.400   2.825   4.275 -0.0997 -0.0475  0.5007
 2772SOL    MW411212   1.469   2.842   4.325  0.2829 -0.1733  0.0172
 2773SOL     OW11213   3.764   3.830   4.110 -0.2155  0.4100  0.1884
 2773SOL    HW211214   3.770   3.750   4.163 -1.2229  0.1719 -0.0554
 2773SOL    HW311215   3.842   3.880   4.134  0.2938 -0.5371  0.5198
 2773SOL    MW411216   3.775   3.826   4.120 -0.2813  0.2537  0.2003
 2774SOL     OW11217   0.502   2.633   4.086 -0.2182 -0.1656 -0.1422
 2774SOL    HW211218   0.446   2.602   4.157  0.4584 -2.5713 -0.5987
 2774SOL    HW311219   0.587   2.590   4.102  1.2112  2.5711 -0.0487
 2774SOL    MW411220   0.506   2.623   4.098  0.0597 -0.1218 -0.1898
 2775SOL     OW11221   1.079   1.277   4.283 -0.6766 -0.5339 -0.1171
 2775SOL    HW211222   1.061   1.238   4.197 -0.1902  0.7847 -0.8471
 2775SOL    HW311223   1.142   1.347   4.264 -1.1587  0.2802  1.2103
 2775SOL    MW411224   1.085   1.281   4.269 -0.6762 -0.2525 -0.0377
 2776SOL     OW11225   1.599   1.251   3.951  0.0130 -0.1593 -0.1308
 2776SOL    HW211226   1.612   1.181   4.014  1.1023 -0.3751 -0.5799
 2776SOL    HW311227   1.623   1.331   3.998  1.2340 -0.3644 -0.3886
 2776SOL    MW411228   1.604   1.253   3.965  0.3178 -0.2148 -0.2241
 2777SOL     OW11229   2.264   0.993   4.533  0.3654 -0.2088 -0.5160
 2777SOL    HW211230   2.340   0.944   4.562  0.8658  0.6413 -0.3749
 2777SOL    HW311231   2.294   1.084   4.528 -0.8816  0.2794  0.4595
 2777SOL    MW411232   2.278   0.999   4.536  0.2668 -0.0322 -0.3691
 2778SOL     OW11233   2.423   2.195   4.054 -0.3624  0.5072 -0.1375
 2778SOL    HW211234   2.336   2.157   4.069  0.9388 -1.5403  2.6657
 2778SOL    HW311235   2.422   2.278   4.102  0.0329 -0.7538  2.1480
 2778SOL    MW411236   2.411   2.201   4.063 -0.1385  0.0708  0.5345
 2779SOL     OW11237   0.680   2.334   3.838 -0.3260  0.5170  0.6958
 2779SOL    HW211238   0.613   2.378   3.786  0.9626  2.4193  0.6124
 2779SOL    HW311239   0.674   2.242   3.811 -1.7108  0.9563 -0.5714
 2779SOL    MW411240   0.670   2.328   3.827 -0.3387  0.8259  0.5176
 2780SOL     OW11241   0.506   0.333   4.114  0.2085  0.1307 -0.1074
 2780SOL    HW211242   0.485   0.351   4.022  1.3029  0.3247 -0.3250
 2780SOL    HW311243   0.555   0.251   4.111 -1.4870 -0.9257  0.5110
 2780SOL    MW411244   0.510   0.325   4.101  0.1292  0.0169 -0.0548
 2781SOL     OW11245   3.151   2.132   4.516 -0.3403 -0.3179  0.4446
 2781SOL    HW211246   3.065   2.167   4.493  0.5210  0.6512 -1.4741
 2781SOL    HW311247   3.135   2.040   4.537 -1.9744  0.0893  1.0293
 2781SOL    MW411248   3.138   2.125   4.516 -0.4420 -0.1361  0.2680
 2782SOL     OW11249   2.151   0.308   4.765  0.1472  0.3550 -0.8971
 2782SOL    HW211250   2.073   0.280   4.717  0.4161  4.0923 -3.7295
 2782SOL    HW311251   2.147   0.404   4.764  4.0194  0.6045  0.2132
 2782SOL    MW411252   2.140   0.317   4.759  0.6936  0.8810 -1.1244
 2783SOL     OW11253   2.025   3.160   3.855 -0.3273 -0.0476 -0.0845
 2783SOL    HW211254   2.006   3.068   3.835  0.1417 -0.2370  0.3216
 2783SOL    HW311255   2.042   3.161   3.949  2.2512  0.0084 -0.5204
 2783SOL    MW411256   2.024   3.148   3.865  0.0751 -0.0651 -0.0882
 2784SOL     OW11257   2.986   2.893   4.491 -0.2301  0.1199 -0.4237
 2784SOL    HW211258   3.050   2.962   4.508 -0.3146 -0.3376  1.9555
 2784SOL    HW311259   3.025   2.814   4.529 -1.2203 -0.6097 -0.9105
 2784SOL    MW411260   2.999   2.892   4.499 -0.3719 -0.0367 -0.1740
 2785SOL     OW11261   0.689   0.512   4.204  0.0510  0.0986 -0.0826
 2785SOL    HW211262   0.692   0.484   4.296 -1.2989  1.2505  0.3328
 2785SOL    HW311263   0.638   0.444   4.160  1.6878 -1.0549 -0.2119
 2785SOL    MW411264   0.682   0.500   4.210  0.0888  0.0984 -0.0448
 2786SOL     OW11265   1.770   3.867   4.226 -0.3984  0.0375  0.1619
 2786SOL    HW211266   1.856   3.855   4.187 -0.3595  0.7499  0.0193
 2786SOL    HW311267   1.789   3.903   4.313 -0.6041  2.2331 -0.6612
 2786SOL    MW411268   1.784   3.870   4.233 -0.4203  0.4210  0.0348
 2787SOL     OW11269   0.217   2.876   4.291 -0.1817 -0.5484 -0.5214
 2787SOL    HW211270   0.158   2.808   4.260 -1.2833  0.4850 -0.7215
 2787SOL    HW311271   0.296   2.865   4.238 -0.3083 -1.7384 -0.4642
 2787SOL    MW411272   0.220   2.866   4.280 -0.3437 -0.5689 -0.5398
 2788SOL     OW11273   2.855   1.175   4.132  0.4353  0.0676 -0.1660
 2788SOL    HW211274   2.798   1.144   4.062 -0.4312  1.2205  0.0101
 2788SOL    HW311275   2.943   1.153   4.103 -0.0646 -1.3939 -0.6153
 2788SOL    MW411276   2.859   1.168   4.119  0.2551  0.0268 -0.2022
 2789SOL     OW11277   3.036   1.986   4.153 -0.3339 -0.2561 -0.3003
 2789SOL    HW211278   3.110   2.036   4.186  0.0134  1.0476 -2.9230
 2789SOL    HW311279   2.959   2.035   4.183 -0.0453  0.4146 -0.6397
 2789SOL    MW411280   3.035   1.999   4.161 -0.2499  0.0043 -0.6909
 2790SOL     OW11281   1.343   2.609   4.089  0.8924  0.3911  0.0428
 2790SOL    HW211282   1.283   2.539   4.064  1.1006  0.7490 -1.5268
 2790SOL    HW311283   1.360   2.594   4.182 -0.9899 -0.1925  0.3227
 2790SOL    MW411284   1.337   2.598   4.098  0.6716  0.3614 -0.1273
 2791SOL     OW11285   3.920   3.923   4.472 -0.2820  0.1544 -0.1505
 2791SOL    HW211286   4.008   3.955   4.493 -0.1703 -1.0956  1.3544
 2791SOL    HW311287   3.894   3.872   4.548 -2.6682  1.1867 -0.2374
 2791SOL    MW411288   3.928   3.920   4.485 -0.5822  0.1256  0.0367
 2792SOL     OW11289   4.048   1.221   4.114 -0.5532  0.0518 -0.3875
 2792SOL    HW211290   3.958   1.252   4.123 -0.8574 -0.8390 -0.3632
 2792SOL    HW311291   4.101   1.288   4.159 -1.1395  0.8783 -0.9101
 2792SOL    MW411292   4.043   1.234   4.121 -0.6714  0.0433 -0.4525
 2793SOL     OW11293   4.203   1.620   4.342  0.4685 -0.3896 -0.0132
 2793SOL    HW211294   4.263   1.677   4.389  0.0987 -0.0981  0.1064
 2793SOL    HW311295   4.132   1.603   4.405  0.0330 -0.0995 -0.4191
 2793SOL    MW411296   4.201   1.625   4.357  0.3619 -0.3129 -0.0515
 2794SOL     OW11297   2.622   0.907   3.794 -0.1036 -0.0002 -0.2687
 2794SOL    HW211298   2.537   0.865   3.809  0.3481 -1.1813 -0.8994
 2794SOL    HW311299   2.685   0.849   3.837  0.5575 -0.1053 -1.3605
 2794SOL    MW411300   2.619   0.893   3.801  0.0434 -0.1699 -0.4961
 2795SOL     OW11301   0.236   3.663   3.792  0.4251  0.1517  0.0526
 2795SOL    HW211302   0.164   3.602   3.809  0.5076  0.1661  0.4494
 2795SOL    HW311303   0.310   3.625   3.838  0.4366  0.6418  0.4399
 2795SOL    MW411304   0.236   3.650   3.800  0.4375  0.2184  0.1562
 2796SOL     OW11305   2.873   0.334   4.443  0.1058 -0.0278  0.3830
 2796SOL    HW211306   2.869   0.386   4.363  1.6544 -1.8907 -0.9772
 2796SOL    HW311307   2.953   0.363   4.486 -1.0075  1.3444  1.5239
 2796SOL    MW411308   2.883   0.344   4.438  0.1631 -0.0926  0.3538
 2797SOL     OW11309   2.415   4.238   4.220  0.0839  0.1254 -0.4577
 2797SOL    HW211310   2.449   4.255   4.308  0.3680  1.5659 -0.8361
 2797SOL    HW311311   2.492   4.225   4.166 -0.0979 -0.9391 -0.4583
 2797SOL    MW411312   2.429   4.239   4.225  0.0975  0.1745 -0.5078
 2798SOL     OW11313   1.094   3.542   4.715  0.2910  0.0304  0.1181
 2798SOL    HW211314   1.103   3.533   4.620  0.7548  0.6001  0.1098
 2798SOL    HW311315   1.140   3.623   4.737 -0.0172  0.0273  0.7993
 2798SOL    MW411316   1.101   3.551   4.705  0.3116  0.1049  0.2069
 2799SOL     OW11317   1.342   4.052   4.218  0.1792 -0.1752  0.3028
 2799SOL    HW211318   1.429   4.050   4.179  0.4950  1.7867  0.8445
 2799SOL    HW311319   1.303   4.133   4.185 -0.8166 -0.2088  1.3769
 2799SOL    MW411320   1.348   4.063   4.208  0.0895  0.0787  0.5159
 2800SOL     OW11321   1.378   2.887   4.578  0.2099  0.1365  1.1797
 2800SOL    HW211322   1.470   2.889   4.606  0.3599  1.4063  0.6123
 2800SOL    HW311323   1.350   2.797   4.595  1.0566  0.1849  2.9639
 2800SOL    MW411324   1.387   2.875   4.584  0.3414  0.3104  1.3399
 2801SOL     OW11325   2.987   1.648   4.520 -0.1688 -0.0065 -0.2414
 2801SOL    HW211326   2.995   1.553   4.518 -0.5559 -0.0262 -1.0203
 2801SOL    HW311327   3.021   1.677   4.436  2.7508  0.7875  1.1418
 2801SOL    MW411328   2.992   1.640   4.509  0.1657  0.0957 -0.1616
 2802SOL     OW11329   2.184   0.960   4.274 -0.2524  0.0266  0.5638
 2802SOL    HW211330   2.221   0.959   4.363  0.5614  0.6430  0.2351
 2802SOL    HW311331   2.098   0.919   4.284 -0.4815  0.7520  1.7838
 2802SOL    MW411332   2.178   0.955   4.287 -0.1752  0.2036  0.6814
 2803SOL     OW11333   3.832   3.083   4.155 -0.2085 -0.2487  0.2803
 2803SOL    HW211334   3.843   2.993   4.185 -1.1994 -0.5991 -0.3714
 2803SOL    HW311335   3.852   3.080   4.061  1.3359  0.5317  0.5685
 2803SOL    MW411336   3.836   3.071   4.147 -0.1354 -0.1919  0.2322
 2804SOL     OW11337   0.991   2.267   3.926  0.3223  0.1421 -0.2879
 2804SOL    HW211338   1.076   2.300   3.953  0.8611 -1.1451 -0.3745
 2804SOL    HW311339   0.969   2.319   3.848  1.3921 -0.0531 -0.7322
 2804SOL    MW411340   0.999   2.278   3.919  0.5345 -0.0536 -0.3581
 2805SOL     OW11341   3.950   0.172   4.301 -0.0748  0.2471 -0.2191
 2805SOL    HW211342   3.888   0.228   4.348  1.0070  1.3865 -0.0950
 2805SOL    HW311343   4.025   0.229   4.285  1.3265 -1.3662  0.4652
 2805SOL    MW411344   3.952   0.187   4.305  0.2530  0.1846 -0.1125
 2806SOL     OW11345   0.352   1.001   4.446  0.0697  0.0482 -0.4106
 2806SOL    HW211346   0.330   0.908   4.443  0.2418 -0.0985  2.0252
 2806SOL    HW311347   0.443   1.003   4.478  0.1626  1.0349 -0.7119
 2806SOL    MW411348   0.361   0.989   4.450  0.1047  0.1590 -0.1292
 2807SOL     OW11349   2.885   1.385   4.301 -0.1539  0.4155 -0.2243
 2807SOL    HW211350   2.809   1.400   4.358 -0.9120  2.5361 -1.6973
 2807SOL    HW311351   2.855   1.318   4.239 -0.6318  0.8305 -0.4478
 2807SOL    MW411352   2.871   1.378   4.300 -0.3173  0.7501 -0.4482
 2808SOL     OW11353   1.135   3.865   4.135  0.2661 -0.1842 -0.4230
 2808SOL    HW211354   1.201   3.931   4.157 -0.2910  0.2761 -0.1295
 2808SOL    HW311355   1.166   3.785   4.179 -0.0525  0.3564  0.7985
 2808SOL    MW411356   1.148   3.863   4.144  0.1506 -0.0520 -0.2232
 2809SOL     OW11357   1.894   0.740   4.107  0.4012  0.0220 -0.0884
 2809SOL    HW211358   1.801   0.743   4.084  0.5311  0.6169 -0.5494
 2809SOL    HW311359   1.937   0.796   4.042  1.1074 -0.3938  0.0124
 2809SOL    MW411360   1.887   0.748   4.095  0.5115  0.0456 -0.1354
 2810SOL     OW11361   1.361   3.330   4.648 -0.2001 -0.8559  0.3085
 2810SOL    HW211362   1.361   3.287   4.562  0.3749 -0.6683  0.2113
 2810SOL    HW311363   1.354   3.259   4.711  1.5390 -1.1545  0.1741
 2810SOL    MW411364   1.360   3.315   4.645  0.1051 -0.8707  0.2780
 2811SOL     OW11365   2.891   1.597   4.141 -0.2262  0.0736 -0.1274
 2811SOL    HW211366   2.897   1.526   4.204 -0.1232 -1.2638 -1.6000
 2811SOL    HW311367   2.813   1.646   4.166 -0.6710 -0.9573  0.5172
 2811SOL    MW411368   2.881   1.594   4.152 -0.2713 -0.2389 -0.2365
 2812SOL     OW11369   0.729   0.447   4.477  0.4575 -0.3106  0.2624
 2812SOL    HW211370   0.741   0.535   4.513  0.6012 -0.5662  0.8441
 2812SOL    HW311371   0.814   0.405   4.488  0.5485 -0.3422 -0.5226
 2812SOL    MW411372   0.741   0.453   4.484  0.4885 -0.3485  0.2356
 2813SOL     OW11373   0.907   4.472   4.304 -0.1517  0.5686  0.3024
 2813SOL    HW211374   0.941   4.452   4.391 -0.5903  0.9556  0.5656
 2813SOL    HW311375   0.899   4.387   4.261  0.3459  0.4042  0.5338
 2813SOL    MW411376   0.910   4.458   4.310 -0.1439  0.5984  0.3676
 2814SOL     OW11377   2.463   1.408   4.681 -0.4643  0.2533 -0.2552
 2814SOL    HW211378   2.549   1.424   4.719 -0.7077  1.8758 -0.3287
 2814SOL    HW311379   2.415   1.490   4.694 -1.8322 -0.4605 -0.6508
 2814SOL    MW411380   2.468   1.421   4.688 -0.6771  0.3732 -0.3166
 2815SOL     OW11381   4.398   3.252   4.468 -0.0198 -0.5931  0.4408
 2815SOL    HW211382   4.459   3.185   4.501 -0.2137 -1.6243 -1.2256
 2815SOL    HW311383   4.311   3.215   4.483 -0.1538 -0.3334  0.3078
 2815SOL    MW411384   4.395   3.238   4.474 -0.0634 -0.6948  0.2036
 2816SOL     OW11385   0.155   4.313   4.291 -0.0216  0.3463  0.1754
 2816SOL    HW211386   0.084   4.315   4.227  1.1137 -1.1525 -1.1977
 2816SOL    HW311387   0.233   4.336   4.240  0.8674 -0.6556  1.0650
 2816SOL    MW411388   0.156   4.316   4.276  0.2455  0.0162  0.1111
 2817SOL     OW11389   1.095   0.698   4.128  0.2474 -0.6014  0.5076
 2817SOL    HW211390   1.103   0.711   4.034 -2.4540  0.7627  0.4298
 2817SOL    HW311391   1.053   0.613   4.138 -0.7503 -0.1161  0.4411
 2817SOL    MW411392   1.091   0.688   4.117 -0.2407 -0.3574  0.4888
 2818SOL     OW11393   1.708   4.176   4.597  0.5382 -0.3779 -0.5698
 2818SOL    HW211394   1.647   4.227   4.544  1.7309  0.0911 -1.5408
 2818SOL    HW311395   1.757   4.242   4.647 -0.2244 -0.7900  0.7523
 2818SOL    MW411396   1.707   4.192   4.597  0.5950 -0.3705 -0.5236
 2819SOL     OW11397   4.288   3.633   4.207 -0.1070  0.0992  0.0284
 2819SOL    HW211398   4.214   3.584   4.171 -0.1602 -0.0966  0.4075
 2819SOL    HW311399   4.293   3.605   4.298  1.2617 -0.8971 -0.3349
 2819SOL    MW411400   4.279   3.623   4.214  0.0668 -0.0582  0.0305
 2820SOL     OW11401   2.540   3.784   4.816 -0.2248  0.0814  0.3327
 2820SOL    HW211402   2.471   3.850   4.808  0.6340  0.7988 -1.2596
 2820SOL    HW311403   2.507   3.708   4.768  0.6005  0.8544 -1.4863
 2820SOL    MW411404   2.526   3.783   4.809 -0.0024  0.2778 -0.1173
 2821SOL     OW11405   2.643   3.909   4.610 -0.2994 -0.2974 -0.3142
 2821SOL    HW211406   2.630   3.865   4.694 -0.5525 -0.6544 -0.5410
 2821SOL    HW311407   2.652   3.838   4.547 -0.0325 -0.0305 -0.5785
 2821SOL    MW411408   2.643   3.894   4.613 -0.2975 -0.3095 -0.3791
 2822SOL     OW11409   0.344   2.523   4.320 -0.1716 -0.0732  0.0325
 2822SOL    HW211410   0.278   2.543   4.386 -0.6384  1.8990 -0.9899
 2822SOL    HW311411   0.428   2.540   4.364 -0.4432  0.3779  0.3765
 2822SOL    MW411412   0.346   2.528   4.334 -0.2691  0.2463 -0.0567
 2823SOL     OW11413   0.222   3.127   4.150 -0.6023  0.5808  0.4706
 2823SOL    HW211414   0.216   3.046   4.201 -1.6237  0.3008 -0.0724
 2823SOL    HW311415   0.295   3.175   4.189  0.4019 -0.8663  0.4294
 2823SOL    MW411416   0.231   3.123   4.162 -0.6046  0.3529  0.3939
 2824SOL     OW11417   2.321   1.660   4.629  0.0230 -0.7342  0.1084
 2824SOL    HW211418   2.227   1.649   4.612 -0.1900  0.4383  0.5139
 2824SOL    HW311419   2.337   1.753   4.618  1.5883 -1.2372 -2.1608
 2824SOL    MW411420   2.310   1.671   4.625  0.2012 -0.6460 -0.1369
 2825SOL     OW11421   3.105   0.868   4.254  0.3646 -0.7063 -0.1036
 2825SOL    HW211422   3.119   0.948   4.202 -2.4532 -0.5105 -0.6555
 2825SOL    HW311423   3.097   0.899   4.344 -0.6073 -0.3664 -0.3034
 2825SOL    MW411424   3.106   0.883   4.259 -0.1354 -0.6356 -0.2027
 2826SOL     OW11425   0.068   1.550   4.328  0.3184  0.2977  0.0560
 2826SOL    HW211426   0.038   1.629   4.373  1.1708  0.1896  0.8132
 2826SOL    HW311427   0.114   1.499   4.395  1.0242 -0.1716 -0.7661
 2826SOL    MW411428   0.070   1.554   4.343  0.5240  0.2215  0.0477
 2827SOL     OW11429   2.458   4.292   4.492 -0.2181 -0.1648 -0.0380
 2827SOL    HW211430   2.540   4.332   4.521  0.0148 -0.6268 -0.0486
 2827SOL    HW311431   2.391   4.335   4.544  0.0888 -0.1805  0.3733
 2827SOL    MW411432   2.460   4.303   4.503 -0.1469 -0.2284  0.0148
 2828SOL     OW11433   3.161   3.176   3.785 -0.0590  0.1481 -0.1759
 2828SOL    HW211434   3.242   3.132   3.812 -0.2987  0.9086  1.8394
 2828SOL    HW311435   3.156   3.160   3.691  0.8373 -2.5598  0.1752
 2828SOL    MW411436   3.171   3.168   3.776  0.0277 -0.1087  0.1364
 2829SOL     OW11437   2.073   3.556   4.168 -0.5907  0.0073  0.4199
 2829SOL    HW211438   2.024   3.481   4.134 -2.3117  1.6134 -0.7284
 2829SOL    HW311439   2.034   3.632   4.125  2.9294  1.3721 -0.5440
 2829SOL    MW411440   2.062   3.556   4.158 -0.3533  0.3994  0.1411
 2830SOL     OW11441   0.301   3.346   4.518  0.4347 -0.1613 -0.1323
 2830SOL    HW211442   0.267   3.433   4.537 -1.7798 -0.6063 -1.7720
 2830SOL    HW311443   0.370   3.332   4.583  0.4716  2.5782  0.4794
 2830SOL    MW411444   0.306   3.355   4.529  0.1474  0.1416 -0.2680
 2831SOL     OW11445   2.303   4.509   4.628  0.1225  0.0822  0.5887
 2831SOL    HW211446   2.329   4.565   4.555 -1.8165 -0.0556 -0.2132
 2831SOL    HW311447   2.208   4.500   4.620  0.2441 -2.3088  1.4196
 2831SOL    MW411448   2.294   4.515   4.617 -0.1175 -0.2513  0.5927
 2832SOL     OW11449   3.347   2.837   4.579  0.0639  0.0813  0.1213
 2832SOL    HW211450   3.282   2.768   4.574  0.6832 -0.4084 -1.7201
 2832SOL    HW311451   3.297   2.919   4.583 -0.6438 -0.3549  0.0796
 2832SOL    MW411452   3.332   2.839   4.579  0.0525 -0.0408 -0.1268
 2833SOL     OW11453   0.279   1.878   4.668 -0.1649 -0.2665 -0.2924
 2833SOL    HW211454   0.367   1.867   4.705 -0.2845  0.4683  0.2324
 2833SOL    HW311455   0.279   1.967   4.633 -1.3424  0.4917  1.5293
 2833SOL    MW411456   0.291   1.889   4.669 -0.3361 -0.0694  0.0176
 2834SOL     OW11457   1.103   3.081   3.784  0.0159 -0.2131  0.2708
 2834SOL    HW211458   1.123   3.092   3.877  0.0702  0.4814  0.1772
 2834SOL    HW311459   1.100   2.986   3.772  2.2194 -0.3521  0.5241
 2834SOL    MW411460   1.105   3.070   3.795  0.3139 -0.1397  0.2921
 2835SOL     OW11461   2.970   2.835   4.238 -0.1729  0.0263  0.1588
 2835SOL    HW211462   2.932   2.747   4.244 -1.0009  0.3612 -0.1785
 2835SOL    HW311463   2.975   2.865   4.329 -0.2305 -0.2237  0.2464
 2835SOL    MW411464   2.966   2.827   4.251 -0.2899  0.0374  0.1259
 2836SOL     OW11465   1.632   4.508   4.253 -0.6588  0.3472  0.1462
 2836SOL    HW211466   1.686   4.444   4.207 -0.9828  0.3651 -0.2596
 2836SOL    HW311467   1.655   4.592   4.214 -0.3489  0.4592  0.5703
 2836SOL    MW411468   1.642   4.511   4.242 -0.6607  0.3648  0.1493
 2837SOL     OW11469   3.362   4.642   4.124  0.6511 -0.2579 -0.1163
 2837SOL    HW211470   3.278   4.676   4.155  0.6103 -1.3961  1.0366
 2837SOL    HW311471   3.428   4.686   4.178  0.8356  0.8386 -1.2011
 2837SOL    MW411472   3.360   4.653   4.135  0.6700 -0.2637 -0.1073
 2838SOL     OW11473   1.632   2.993   4.107  0.0228 -0.1614  0.3057
 2838SOL    HW211474   1.634   3.078   4.151  1.2011  0.0938 -0.2072
 2838SOL    HW311475   1.601   2.932   4.173  0.1542  0.4948  0.9807
 2838SOL    MW411476   1.628   2.996   4.121  0.1956 -0.0412  0.3271
 2839SOL     OW11477   3.581   0.903   4.268 -0.2490  0.3082  0.3325
 2839SOL    HW211478   3.587   0.981   4.213  0.5113 -0.7304 -1.0726
 2839SOL    HW311479   3.518   0.846   4.224 -0.7378  0.0741  1.3022
 2839SOL    MW411480   3.573   0.906   4.255 -0.2131  0.1404  0.2751
 2840SOL     OW11481   3.100   2.632   4.559  0.0377  0.1183  0.0133
 2840SOL    HW211482   3.016   2.587   4.549  1.0215 -1.7985  0.0644
 2840SOL    HW311483   3.164   2.561   4.564  2.1011  1.5650 -3.7859
 2840SOL    MW411484   3.097   2.616   4.558  0.4399  0.0563 -0.4816
 2841SOL     OW11485   4.474   4.428   4.475 -0.1223 -0.2440 -0.0397
 2841SOL    HW211486   4.525   4.379   4.411 -1.6257 -1.1275 -0.5874
 2841SOL    HW311487   4.450   4.364   4.542 -2.0523 -0.2622 -0.7241
 2841SOL    MW411488   4.478   4.413   4.476 -0.5751 -0.3629 -0.2027
 2842SOL     OW11489   4.302   0.908   4.093  0.6025 -0.3758  0.2867
 2842SOL    HW211490   4.234   0.944   4.151  2.0788  0.2456  1.6755
 2842SOL    HW311491   4.339   0.834   4.142  1.0223 -0.6241 -0.3961
 2842SOL    MW411492   4.298   0.903   4.107  0.8526 -0.3266  0.3796
 2843SOL     OW11493   1.674   2.355   4.655 -0.2188 -0.2845 -0.4796
 2843SOL    HW211494   1.583   2.360   4.683 -0.1633  0.7102 -0.4528
 2843SOL    HW311495   1.698   2.446   4.634  0.8434 -0.4911 -0.2112
 2843SOL    MW411496   1.665   2.368   4.656 -0.0715 -0.1807 -0.4406
 2844SOL     OW11497   2.337   3.478   4.129 -0.5704  0.2227  0.1712
 2844SOL    HW211498   2.398   3.549   4.152  0.6797 -1.1770  1.3142
 2844SOL    HW311499   2.251   3.512   4.151  0.0440  1.2744  0.9886
 2844SOL    MW411500   2.334   3.492   4.135 -0.3245  0.1769  0.4301
 2845SOL     OW11501   4.030   1.866   4.636  0.3742 -0.0742  0.1099
 2845SOL    HW211502   3.997   1.947   4.598  0.5230  0.5883  1.3685
 2845SOL    HW311503   4.124   1.882   4.648  0.7482 -1.0982 -1.3082
 2845SOL    MW411504   4.038   1.878   4.632  0.4435 -0.1220  0.0887
 2846SOL     OW11505   2.699   2.894   4.556 -0.3714 -0.0156  0.0361
 2846SOL    HW211506   2.792   2.885   4.533 -0.5609 -0.8943 -0.4020
 2846SOL    HW311507   2.654   2.898   4.472 -0.6963  0.8537  0.2465
 2846SOL    MW411508   2.705   2.893   4.542 -0.4394 -0.0167  0.0067
 2847SOL     OW11509   1.189   1.572   3.824 -0.5416 -0.2212 -0.1872
 2847SOL    HW211510   1.218   1.558   3.914 -0.3518 -0.5744 -0.3009
 2847SOL    HW311511   1.263   1.617   3.782 -0.4302 -0.4983 -0.2933
 2847SOL    MW411512   1.203   1.576   3.830 -0.5019 -0.3043 -0.2162
 2848SOL     OW11513   2.640   3.684   4.444 -0.1621 -0.4755 -0.2913
 2848SOL    HW211514   2.582   3.701   4.370 -0.7636  0.7367  0.4419
 2848SOL    HW311515   2.684   3.602   4.421 -1.2880 -0.7985 -1.3961
 2848SOL    MW411516   2.638   3.675   4.431 -0.3901 -0.3581 -0.3400
 2849SOL     OW11517   0.393   4.573   4.284 -0.0592 -0.4196 -0.1027
 2849SOL    HW211518   0.482   4.583   4.318 -0.1212 -1.3159  0.3563
 2849SOL    HW311519   0.341   4.551   4.361 -0.8104  0.7975 -0.2598
 2849SOL    MW411520   0.398   4.571   4.299 -0.1665 -0.3767 -0.0634
 2850SOL     OW11521   0.854   3.212   4.442  0.0143  0.1637  0.4074
 2850SOL    HW211522   0.901   3.294   4.432 -0.9866  0.6143 -0.7055
 2850SOL    HW311523   0.916   3.154   4.486  1.8627  0.5113 -1.6438
 2850SOL    MW411524   0.868   3.215   4.447  0.1261  0.2694 -0.0105
 2851SOL     OW11525   3.806   3.601   4.278  0.1855  0.4289  0.4854
 2851SOL    HW211526   3.886   3.568   4.236 -0.2759  0.8523 -0.7433
 2851SOL    HW311527   3.737   3.545   4.245 -0.2653  1.1317  0.2198
 2851SOL    MW411528   3.808   3.589   4.268  0.0653  0.5774  0.2880
 2852SOL     OW11529   3.612   4.249   4.146  0.3959  0.2904  0.0019
 2852SOL    HW211530   3.601   4.159   4.176 -0.6803  0.1937 -0.6366
 2852SOL    HW311531   3.529   4.292   4.168  1.2934  1.4100  1.2550
 2852SOL    MW411532   3.599   4.243   4.153  0.3724  0.4253  0.0834
 2853SOL     OW11533   0.286   2.336   3.843  0.3255  0.4869 -0.5066
 2853SOL    HW211534   0.294   2.343   3.938 -0.9892  1.4279 -0.4510
 2853SOL    HW311535   0.247   2.249   3.828  0.1455  0.5083 -0.1587
 2853SOL    MW411536   0.282   2.325   3.853  0.1283  0.6139 -0.4530
 2854SOL     OW11537   3.648   2.414   4.248  0.3414 -0.1487 -0.1004
 2854SOL    HW211538   3.566   2.378   4.214  0.4927 -0.2589 -0.3541
 2854SOL    HW311539   3.659   2.497   4.202 -0.6472  0.8457  1.4031
 2854SOL    MW411540   3.639   2.420   4.238  0.2310 -0.0317  0.0648
 2855SOL     OW11541   1.056   2.568   4.451 -0.0506 -0.3507 -0.3500
 2855SOL    HW211542   1.086   2.490   4.405 -1.3960 -0.8441 -0.4176
 2855SOL    HW311543   0.965   2.549   4.473 -0.5744  1.4430 -0.8985
 2855SOL    MW411544   1.048   2.555   4.448 -0.2972 -0.1795 -0.4315
 2856SOL     OW11545   0.123   3.095   4.591 -0.1223 -0.1100  0.1870
 2856SOL    HW211546   0.140   3.189   4.591 -1.4437  0.1376 -0.0978
 2856SOL    HW311547   0.201   3.056   4.551  1.3957  0.6804  2.2906
 2856SOL    MW411548   0.136   3.102   4.586 -0.0964  0.0267  0.4263
 2857SOL     OW11549   1.329   4.063   4.504  0.4038  0.1254  0.0628
 2857SOL    HW211550   1.366   4.146   4.535  0.2071  0.4865 -0.6432
 2857SOL    HW311551   1.358   4.057   4.412  1.2530 -1.0711  0.3873
 2857SOL    MW411552   1.338   4.073   4.496  0.4898  0.0153  0.0119
 2858SOL     OW11553   4.102   2.426   4.296 -0.3474 -0.4543 -0.3247
 2858SOL    HW211554   4.015   2.392   4.317 -0.6833  0.4417 -0.2618
 2858SOL    HW311555   4.141   2.446   4.381 -0.1503 -0.6690 -0.3621
 2858SOL    MW411556   4.096   2.424   4.310 -0.3662 -0.3643 -0.3209
 2859SOL     OW11557   3.647   1.945   4.556 -0.1002 -0.2454 -0.0379
 2859SOL    HW211558   3.590   1.952   4.479  0.5082 -0.2972 -0.5005
 2859SOL    HW311559   3.696   1.864   4.541  0.7762  0.2988 -0.1103
 2859SOL    MW411560   3.646   1.935   4.544  0.0958 -0.1805 -0.1087
 2860SOL     OW11561   0.598   4.451   4.593 -0.3288 -0.4968  0.6390
 2860SOL    HW211562   0.606   4.356   4.599  0.4026 -0.6288 -1.7933
 2860SOL    HW311563   0.664   4.485   4.654 -1.1321 -1.5280  2.0995
 2860SOL    MW411564   0.608   4.443   4.602 -0.3383 -0.6509  0.5107
 2861SOL     OW11565   3.845   3.073   4.603 -0.1875 -0.4310  0.0263
 2861SOL    HW211566   3.782   3.145   4.614 -0.1265  0.1063 -2.6697
 2861SOL    HW311567   3.930   3.117   4.595  0.0123 -0.8695 -0.2688
 2861SOL    MW411568   3.848   3.089   4.603 -0.1533 -0.4179 -0.3686
 2862SOL     OW11569   3.358   0.503   4.241 -0.0757 -0.3604 -0.0537
 2862SOL    HW211570   3.339   0.596   4.236 -2.0244 -0.5883  2.0534
 2862SOL    HW311571   3.277   0.460   4.213  0.5892 -1.4261 -0.3886
 2862SOL    MW411572   3.345   0.510   4.237 -0.2449 -0.5310  0.1798
 2863SOL     OW11573   1.223   4.290   4.117  0.0130  0.0212  0.5292
 2863SOL    HW211574   1.268   4.296   4.033 -0.3633 -1.9174  0.1730
 2863SOL    HW311575   1.277   4.342   4.177  0.4124  1.2124 -0.8260
 2863SOL    MW411576   1.236   4.298   4.114  0.0161 -0.0772  0.3042
 2864SOL     OW11577   3.185   3.610   4.468 -0.1067 -0.0623  0.4151
 2864SOL    HW211578   3.225   3.606   4.382  0.6612 -0.6139  0.7947
 2864SOL    HW311579   3.095   3.639   4.451  1.0447  3.3922 -0.2390
 2864SOL    MW411580   3.178   3.613   4.455  0.1466  0.3209  0.3791
 2865SOL     OW11581   2.488   0.794   4.542 -0.1878 -0.4203 -0.3391
 2865SOL    HW211582   2.565   0.762   4.590  0.3633  1.4200  0.0545
 2865SOL    HW311583   2.517   0.796   4.450  0.9975  2.3419  0.0646
 2865SOL    MW411584   2.502   0.790   4.536  0.0415  0.1869 -0.2337
 2866SOL     OW11585   3.508   1.942   4.313  0.3479  0.0866  0.1149
 2866SOL    HW211586   3.463   1.857   4.309 -1.2276  0.8688  0.7254
 2866SOL    HW311587   3.574   1.937   4.244  0.4902 -1.7588  0.3557
 2866SOL    MW411588   3.511   1.930   4.303  0.1588 -0.0536  0.2275
 2867SOL     OW11589   3.828   2.540   4.701 -0.3111  0.2303  0.2546
 2867SOL    HW211590   3.823   2.491   4.783  1.5708 -1.6133 -0.6735
 2867SOL    HW311591   3.743   2.583   4.694 -2.0621 -2.8837  1.1350
 2867SOL    MW411592   3.816   2.539   4.711 -0.2940 -0.4239  0.2489
 2868SOL     OW11593   4.398   0.702   4.236 -0.2274  0.2700 -0.0984
 2868SOL    HW211594   4.399   0.743   4.322 -0.8834  1.1095 -0.4909
 2868SOL    HW311595   4.470   0.639   4.239 -0.8353 -0.3729  1.3896
 2868SOL    MW411596   4.408   0.699   4.248 -0.3943  0.2959  0.0458
 2869SOL     OW11597   4.114   1.809   4.170  0.1424  0.0041 -0.6112
 2869SOL    HW211598   4.158   1.740   4.220 -1.3766 -0.0651  0.6843
 2869SOL    HW311599   4.106   1.882   4.232  0.2780  0.7465 -1.4616
 2869SOL    MW411600   4.119   1.809   4.185 -0.0405  0.0929 -0.5522
 2870SOL     OW11601   4.476   4.193   4.652 -0.8320 -0.4818  0.3254
 2870SOL    HW211602   4.568   4.174   4.631 -1.0939 -0.6977 -0.6724
 2870SOL    HW311603   4.440   4.110   4.681 -0.9157 -0.5904 -0.0773
 2870SOL    MW411604   4.483   4.180   4.653 -0.8776 -0.5250  0.1411
 2871SOL     OW11605   1.618   4.521   4.650 -0.0238 -0.3160 -0.0274
 2871SOL    HW211606   1.639   4.582   4.579 -2.2834  0.9920  0.4078
 2871SOL    HW311607   1.704   4.494   4.684  1.0281  3.5765  0.5992
 2871SOL    MW411608   1.632   4.525   4.645 -0.1832  0.3700  0.1135
 2872SOL     OW11609   2.847   2.502   4.499 -0.3183  0.5693 -0.2396
 2872SOL    HW211610   2.778   2.536   4.555  0.5192  1.6174  0.1773
 2872SOL    HW311611   2.836   2.549   4.416  0.6400  1.6590  0.2309
 2872SOL    MW411612   2.837   2.513   4.495 -0.0815  0.8514 -0.1230
 2873SOL     OW11613   0.578   3.130   4.387  0.4887 -0.7973 -0.3999
 2873SOL    HW211614   0.655   3.174   4.422  0.1231 -1.2438  0.9793
 2873SOL    HW311615   0.529   3.200   4.343  0.5650 -0.0718  0.6429
 2873SOL    MW411616   0.582   3.145   4.386  0.4506 -0.7606 -0.0806
 2874SOL     OW11617   1.423   3.796   4.541 -0.0522  0.0997  0.4659
 2874SOL    HW211618   1.407   3.888   4.519  0.7086 -0.3902 -2.4545
 2874SOL    HW311619   1.518   3.790   4.552 -0.1963 -0.1518  1.5713
 2874SOL    MW411620   1.433   3.807   4.539  0.0291  0.0019  0.2265
 2875SOL     OW11621   1.287   4.554   4.580 -0.1104  0.1061  0.5099
 2875SOL    HW211622   1.342   4.587   4.651  1.9971  1.9884 -1.8614
 2875SOL    HW311623   1.239   4.631   4.549  0.1169 -0.3457 -1.0239
 2875SOL    MW411624   1.288   4.568   4.585  0.1975  0.2947 -0.0052
 2876SOL     OW11625   3.509   2.471   4.502 -0.0353  0.2440  0.2063
 2876SOL    HW211626   3.535   2.461   4.410  0.3600 -0.0085  0.3468
 2876SOL    HW311627   3.550   2.552   4.530 -0.3117  0.4184  0.1043
 2876SOL    MW411628   3.517   2.480   4.493 -0.0196  0.2339  0.2103
 2877SOL     OW11629   2.388   4.012   4.546 -0.3474  0.3694  0.1155
 2877SOL    HW211630   2.476   3.975   4.553 -0.7748 -0.7435 -0.3679
 2877SOL    HW311631   2.403   4.106   4.536  0.7450  0.3568  1.3906
 2877SOL    MW411632   2.402   4.020   4.546 -0.2596  0.2208  0.2203
 2878SOL     OW11633   0.321   0.310   4.332 -0.2432  0.4144  0.0401
 2878SOL    HW211634   0.365   0.247   4.390  0.7356  1.2372  0.2014
 2878SOL    HW311635   0.392   0.348   4.281 -0.4308  3.5353  1.9812
 2878SOL    MW411636   0.336   0.307   4.333 -0.1388  0.9347  0.3176
 2879SOL     OW11637   3.014   0.468   4.765  0.0156 -0.0802  0.1140
 2879SOL    HW211638   3.001   0.562   4.777 -2.2570 -0.0881 -1.7713
 2879SOL    HW311639   2.938   0.428   4.808  1.0332 -1.0966  1.0237
 2879SOL    MW411640   3.002   0.475   4.772 -0.1497 -0.2153 -0.0143
 2880SOL     OW11641   2.248   1.176   4.107 -0.0397 -0.0390 -0.2031
 2880SOL    HW211642   2.327   1.203   4.155 -0.9384  2.0116  0.2059
 2880SOL    HW311643   2.213   1.103   4.157  0.2730  0.6313  1.0240
 2880SOL    MW411644   2.254   1.170   4.120 -0.1171  0.3200  0.0129
 2881SOL     OW11645   4.429   4.318   4.127 -0.5115 -0.0004 -0.2454
 2881SOL    HW211646   4.460   4.317   4.037 -1.7239  0.9934 -0.6859
 2881SOL    HW311647   4.388   4.404   4.138  0.0228  0.0637  1.3831
 2881SOL    MW411648   4.427   4.329   4.117 -0.6018  0.1397 -0.0882
 2882SOL     OW11649   2.613   1.995   4.134 -0.5650  0.0886  0.0486
 2882SOL    HW211650   2.541   2.047   4.099  0.1194  0.6501 -0.5052
 2882SOL    HW311651   2.666   2.057   4.184  0.2125 -0.0878 -0.5570
 2882SOL    MW411652   2.610   2.010   4.136 -0.3722  0.1395 -0.1044
 2883SOL     OW11653   2.929   3.229   4.411  0.1982  0.2287 -0.3795
 2883SOL    HW211654   2.895   3.165   4.348  0.2027 -0.2158  0.0707
 2883SOL    HW311655   3.012   3.192   4.442  0.9364  1.1441 -1.2085
 2883SOL    MW411656   2.936   3.216   4.407  0.2966  0.2909 -0.4296
 2884NA      NA11657   1.775   2.220   0.228 -0.0613  0.5429 -0.1592
 2885NA      NA11658   4.126   4.578   0.808  0.1223 -0.0887 -0.2595
 2886NA      NA11659   2.111   3.134   0.856  0.0088 -0.5055 -0.6392
 2887NA      NA11660   2.083   4.655   0.843 -0.3882 -0.1513  0.1102
   4.49070   4.66690  10.00000
