Gromacs Runs On Most of All Computer Systems in water
11619
    1RU5    O5'    1   2.312   1.488   4.612 -0.1860  0.3124  0.5916
    1RU5    H5T    2   2.358   1.405   4.597 -2.7444 -1.1450  0.6400
    1RU5    C5'    3   2.298   1.542   4.480 -0.2717  0.2199  0.2259
    1RU5   H5'1    4   2.255   1.474   4.408 -0.6919  0.6168  0.1032
    1RU5   H5'2    5   2.398   1.568   4.444  0.0506  0.7010  1.4110
    1RU5    C4'    6   2.217   1.668   4.481  0.2076  1.1048  0.2162
    1RU5    H4'    7   2.226   1.719   4.384  3.6116  2.1511  0.9908
    1RU5    O4'    8   2.084   1.630   4.502  0.3036  0.2493  0.2398
    1RU5    C1'    9   2.034   1.695   4.622 -0.0230 -0.1849 -0.1953
    1RU5    H1'   10   1.987   1.786   4.585 -0.6487 -0.8724 -1.1268
    1RU5     N1   11   1.943   1.609   4.701 -0.2712 -0.0828  0.0150
    1RU5     C6   12   1.970   1.475   4.720 -0.0565 -0.1860 -0.1796
    1RU5     H6   13   2.057   1.426   4.678  1.6232  1.7031  1.0073
    1RU5     C5   14   1.882   1.404   4.794  0.3674  0.1720 -0.5570
    1RU5     H5   15   1.904   1.300   4.812 -0.2191  0.3473  1.2941
    1RU5     C4   16   1.765   1.461   4.852 -0.4442  0.0687  0.1594
    1RU5     O4   17   1.689   1.394   4.924  0.1053  0.1217  0.3513
    1RU5     N3   18   1.738   1.594   4.817 -0.1399 -0.2660 -0.2307
    1RU5     H3   19   1.652   1.640   4.844  1.3788  2.5180  0.0089
    1RU5     C2   20   1.825   1.668   4.743  0.2391  0.1157  0.1900
    1RU5     O2   21   1.791   1.789   4.718  0.0154  0.4310  0.4631
    1RU5    C3'   22   2.248   1.772   4.591  0.1940  0.0272 -0.6432
    1RU5    H3'   23   2.351   1.768   4.627 -0.1349 -0.6222  0.2102
    1RU5    C2'   24   2.152   1.739   4.705 -0.0175  0.8269 -0.5828
    1RU5   H2'1   25   2.185   1.649   4.758  2.0859  0.2845 -2.7426
    1RU5    O2'   26   2.131   1.852   4.793 -0.1004 -0.1173  0.3311
    1RU5   HO'2   27   2.196   1.863   4.862  0.8159 -0.8060 -0.3991
    1RU5    O3'   28   2.219   1.897   4.527  0.1762 -0.0088  0.1858
    2RG       P   29   2.348   1.982   4.479  0.0677  0.0708  0.4024
    2RG     O1P   30   2.300   2.091   4.396 -0.1261  0.3311  0.6320
    2RG     O2P   31   2.463   1.902   4.424  0.1018  0.7371  0.2220
    2RG     O5'   32   2.398   2.051   4.615  0.2816 -0.2562 -0.1643
    2RG     C5'   33   2.313   2.136   4.688  0.4266 -0.6828 -0.0957
    2RG    H5'1   34   2.217   2.085   4.697  0.3785 -0.3283  1.6161
    2RG    H5'2   35   2.288   2.227   4.634  0.7103 -0.5079  0.0613
    2RG     C4'   36   2.370   2.167   4.827 -0.2098  0.0653  0.1767
    2RG     H4'   37   2.309   2.243   4.876  0.3785  0.4707  0.2876
    2RG     O4'   38   2.362   2.043   4.898 -0.6475 -0.0496 -0.1036
    2RG     C1'   39   2.490   2.004   4.957 -0.1775  0.3665  0.5825
    2RG     H1'   40   2.481   1.968   5.059 -1.4648 -1.3325 -0.0988
    2RG      N9   41   2.552   1.889   4.883 -0.0794  0.0595 -0.1882
    2RG      C8   42   2.648   1.885   4.785  0.0921 -0.5211  0.5764
    2RG      H8   43   2.690   1.975   4.744  1.7273 -0.9946  1.1961
    2RG      N7   44   2.679   1.766   4.744  0.5498 -0.0471  0.3232
    2RG      C5   45   2.600   1.676   4.819  0.2399  0.4286 -0.1234
    2RG      C6   46   2.579   1.534   4.817 -0.4207 -0.2066  0.3120
    2RG      O6   47   2.617   1.450   4.732 -0.4303  0.2161  0.3645
    2RG      N1   48   2.491   1.492   4.914  0.4107 -0.1230 -0.4446
    2RG      H1   49   2.458   1.398   4.901  1.7723 -0.9822  1.9850
    2RG      C2   50   2.418   1.574   4.988 -0.3371  0.1973 -0.1246
    2RG      N2   51   2.331   1.506   5.061  0.0955  0.4653  0.4269
    2RG     H21   52   2.273   1.564   5.121  0.8485  1.3776  0.2868
    2RG     H22   53   2.329   1.405   5.067  1.4041  0.3410 -0.9219
    2RG      N3   54   2.432   1.705   4.998  0.5157  0.0753  0.3239
    2RG      C4   55   2.520   1.754   4.904  0.3164 -0.3678 -0.0441
    2RG     C3'   56   2.521   2.207   4.834 -0.1453  0.3740 -0.3721
    2RG     H3'   57   2.575   2.175   4.745 -0.3183 -0.8060 -0.0573
    2RG     C2'   58   2.571   2.129   4.955  0.3802  0.1479 -0.1375
    2RG    H2'1   59   2.680   2.117   4.959  0.1546 -1.9396  0.6160
    2RG     O2'   60   2.539   2.198   5.079 -0.2165 -0.1062  0.2567
    2RG    HO'2   61   2.518   2.286   5.050  1.2924  0.3076  0.3831
    2RG     O3'   62   2.540   2.345   4.855  0.1630 -0.7577  0.3525
    3RG3      P   63   2.498   2.454   4.748 -0.4705  0.0485 -0.3248
    3RG3    O1P   64   2.346   2.449   4.740  0.1675 -0.1751  0.1047
    3RG3    O2P   65   2.574   2.418   4.627  0.2332 -0.4391 -0.0305
    3RG3    O5'   66   2.548   2.599   4.811 -0.1885 -0.0709  0.1389
    3RG3    C5'   67   2.683   2.636   4.837  0.1225  0.0410 -0.0584
    3RG3   H5'1   68   2.737   2.649   4.743 -0.5473  1.3141 -0.2916
    3RG3   H5'2   69   2.743   2.561   4.888  0.0068  0.1804  0.2844
    3RG3    C4'   70   2.699   2.758   4.927  0.5208  0.5529 -0.3986
    3RG3    H4'   71   2.806   2.761   4.946  0.8894 -0.9060 -2.1144
    3RG3    O4'   72   2.665   2.873   4.856 -0.6359  0.7368  0.3381
    3RG3    C1'   73   2.640   2.978   4.955  0.1686  0.5025  0.1047
    3RG3    H1'   74   2.734   3.033   4.956  2.0145 -2.4964 -1.7188
    3RG3     N9   75   2.524   3.062   4.919 -0.3885  0.1277 -0.4027
    3RG3     C8   76   2.516   3.198   4.913 -0.2510  0.0272  0.2747
    3RG3     H8   77   2.600   3.255   4.949 -0.7056  1.0107 -0.2006
    3RG3     N7   78   2.404   3.239   4.854  0.1391  0.2228  0.1685
    3RG3     C5   79   2.337   3.121   4.824  0.2366 -0.2960 -0.2511
    3RG3     C6   80   2.209   3.104   4.768  0.0024 -0.0038  0.9765
    3RG3     O6   81   2.132   3.186   4.723 -0.1027  0.1706  0.1729
    3RG3     N1   82   2.167   2.976   4.772  0.1888 -0.3520  0.6418
    3RG3     H1   83   2.071   2.960   4.745 -0.3529  1.1206  1.6341
    3RG3     C2   84   2.241   2.873   4.807 -0.1123 -0.0639 -0.0229
    3RG3     N2   85   2.200   2.759   4.770 -0.0419 -0.1822 -0.6861
    3RG3    H21   86   2.269   2.686   4.783  0.0738  0.2698  1.4053
    3RG3    H22   87   2.108   2.746   4.730 -0.0405 -1.3261 -0.3381
    3RG3     N3   88   2.361   2.883   4.860 -0.0588 -0.1201  0.1804
    3RG3     C4   89   2.405   3.012   4.871  0.0992 -0.3890 -0.5200
    3RG3    C3'   90   2.619   2.754   5.059 -0.2459 -0.3703 -0.0201
    3RG3    H3'   91   2.514   2.725   5.049 -0.3234 -0.2817  0.5591
    3RG3    C2'   92   2.629   2.909   5.092 -0.4678 -0.3579 -0.4561
    3RG3   H2'1   93   2.538   2.944   5.142 -0.1598 -0.8903  0.4703
    3RG3    O2'   94   2.753   2.943   5.156  0.1997 -0.4571  0.0159
    3RG3   HO'2   95   2.786   2.863   5.197 -0.9556 -0.8824  0.1391
    3RG3    O3'   96   2.690   2.678   5.156  0.2134 -0.2605  0.3545
    3RG3    H3T   97   2.671   2.587   5.134  1.2940 -0.6322  0.9600
    7SOL     OW   98   0.505   4.666   0.449 -0.5896  0.0717 -0.3113
    7SOL    HW2   99   0.588   4.629   0.419 -1.0953 -0.8941 -0.5294
    7SOL    HW3  100   0.499   4.750   0.404  0.2413  0.1270 -0.3337
    7SOL    MW4  101   0.516   4.672   0.439 -0.5468 -0.0482 -0.3430
    8SOL     OW  102   3.823   4.581   0.463  0.1506 -0.3480 -0.0949
    8SOL    HW2  103   3.840   4.675   0.460 -0.1756 -0.2695  0.3612
    8SOL    HW3  104   3.907   4.540   0.446  0.2892  0.0300 -0.3141
    8SOL    MW4  105   3.836   4.588   0.460  0.1261 -0.2875 -0.0636
    9SOL     OW  106   3.719   0.176   0.155 -0.2237 -0.1460  0.2057
    9SOL    HW2  107   3.778   0.175   0.080  0.1982 -1.4465  0.5550
    9SOL    HW3  108   3.694   0.084   0.168 -1.0708  0.1891  1.0485
    9SOL    MW4  109   3.723   0.164   0.147 -0.2799 -0.2733  0.3630
   10SOL     OW  110   4.395   1.764   0.707 -0.6796 -0.3454 -0.0915
   10SOL    HW2  111   4.443   1.681   0.705 -0.3251 -0.1273 -0.6411
   10SOL    HW3  112   4.304   1.737   0.720 -0.3430 -0.7198  1.6185
   10SOL    MW4  113   4.389   1.749   0.708 -0.5884 -0.3659  0.0616
   11SOL     OW  114   1.376   0.897   0.351 -0.3289  0.1748 -0.6240
   11SOL    HW2  115   1.295   0.903   0.402 -0.0734 -0.4648 -0.1351
   11SOL    HW3  116   1.350   0.919   0.262 -0.8710  0.8522 -0.2992
   11SOL    MW4  117   1.362   0.901   0.346 -0.3666  0.1798 -0.5167
   12SOL     OW  118   0.240   0.524   0.465 -0.0249 -0.5423 -0.4351
   12SOL    HW2  119   0.247   0.509   0.560  1.5313  0.2366 -0.4056
   12SOL    HW3  120   0.237   0.436   0.427  0.0102 -0.8660  0.2923
   12SOL    MW4  121   0.241   0.510   0.473  0.1851 -0.4824 -0.3352
   13SOL     OW  122   0.452   0.913   0.472 -0.1473 -0.5712 -0.0915
   13SOL    HW2  123   0.464   0.923   0.566 -0.2987 -0.2044 -0.1076
   13SOL    HW3  124   0.470   0.821   0.454 -1.7888 -1.0363  0.5673
   13SOL    MW4  125   0.456   0.902   0.482 -0.3839 -0.5842 -0.0067
   14SOL     OW  126   0.824   0.881   0.491  0.1828 -0.5429 -0.2736
   14SOL    HW2  127   0.844   0.909   0.580  0.1157 -1.7397  0.1330
   14SOL    HW3  128   0.781   0.956   0.450  0.1058 -0.0369  0.7351
   14SOL    MW4  129   0.821   0.895   0.497  0.1638 -0.6340 -0.0869
   15SOL     OW  130   0.655   1.078   0.369  0.8140  0.2812 -0.1635
   15SOL    HW2  131   0.580   1.034   0.408  1.0032  1.7974  1.9734
   15SOL    HW3  132   0.629   1.094   0.278 -1.2565  0.3789  0.4293
   15SOL    MW4  133   0.642   1.074   0.362  0.5659  0.4941  0.1967
   16SOL     OW  134   4.205   1.258   0.591 -0.0783 -0.3597  0.1209
   16SOL    HW2  135   4.165   1.224   0.671 -0.2832  0.5520  0.4048
   16SOL    HW3  136   4.132   1.294   0.541  0.2282  0.2665  0.1221
   16SOL    MW4  137   4.190   1.258   0.595 -0.0648 -0.1568  0.1585
   17SOL     OW  138   4.184   1.466   0.173 -0.2492 -0.1472  0.0510
   17SOL    HW2  139   4.143   1.448   0.089 -0.9093 -1.5848  0.6514
   17SOL    HW3  140   4.120   1.436   0.238 -0.2531  2.0306  1.0914
   17SOL    MW4  141   4.170   1.460   0.171 -0.3362 -0.0496  0.2674
   18SOL     OW  142   0.021   1.870   0.469  0.6246 -0.3401  0.0564
   18SOL    HW2  143  -0.014   1.857   0.557 -2.0969  2.1250 -0.5637
   18SOL    HW3  144  -0.015   1.797   0.418 -1.7859  0.8269 -0.0151
   18SOL    MW4  145   0.012   1.859   0.474 -0.0529  0.1391 -0.0348
   19SOL     OW  146   0.056   2.469   0.296 -0.6559  0.3797 -0.4076
   19SOL    HW2  147   0.070   2.439   0.206 -0.5713 -1.4970  0.2161
   19SOL    HW3  148   0.144   2.483   0.331 -0.6254 -0.8071  0.0068
   19SOL    MW4  149   0.070   2.467   0.289 -0.6407 -0.0243 -0.2707
   20SOL     OW  150   4.343   2.924   0.415  0.1354  0.2656 -0.4400
   20SOL    HW2  151   4.419   2.865   0.417  0.5195  0.7248 -1.2662
   20SOL    HW3  152   4.381   3.012   0.418 -0.4734  0.4910  1.8603
   20SOL    MW4  153   4.358   2.928   0.416  0.1059  0.3557 -0.2455
   21SOL     OW  154   4.352   3.798   0.183  0.6493  0.4097 -0.1761
   21SOL    HW2  155   4.368   3.705   0.168 -1.2646  0.0193  0.0053
   21SOL    HW3  156   4.311   3.829   0.102  0.5556  0.9155  0.0592
   21SOL    MW4  157   4.348   3.790   0.171  0.3843  0.4251 -0.1211
   22SOL     OW  158   0.567   3.102   0.436  0.3169  0.0827  0.2068
   22SOL    HW2  159   0.519   3.150   0.504  1.0320 -0.1021  0.8532
   22SOL    HW3  160   0.603   3.170   0.379 -0.1968  0.2411  0.0692
   22SOL    MW4  161   0.565   3.117   0.437  0.3435  0.0792  0.2739
   23SOL     OW  162   0.703   3.536   0.452 -0.0315  0.3520  0.2044
   23SOL    HW2  163   0.766   3.587   0.401 -1.7728  1.1939 -1.1750
   23SOL    HW3  164   0.720   3.561   0.543  3.5697 -1.6901  0.1822
   23SOL    MW4  165   0.714   3.546   0.457  0.2139  0.1938  0.0194
   24SOL     OW  166   1.091   3.891   0.348 -0.5051 -0.7550 -0.0387
   24SOL    HW2  167   1.129   3.964   0.300 -0.6072 -0.9852 -0.4737
   24SOL    HW3  168   1.014   3.928   0.391  0.8599 -0.0033  1.8197
   24SOL    MW4  169   1.086   3.905   0.348 -0.3383 -0.6859  0.1491
   25SOL     OW  170   4.282   3.216   0.113  0.7909  0.2224 -0.8516
   25SOL    HW2  171   4.340   3.146   0.086  1.1443  0.2464 -0.1735
   25SOL    HW3  172   4.205   3.172   0.148  0.2096  0.1953 -2.1598
   25SOL    MW4  173   4.279   3.201   0.114  0.7606  0.2220 -0.9347
   26SOL     OW  174   0.062   3.879   0.395  0.5561 -0.2930 -0.7706
   26SOL    HW2  175   0.005   3.875   0.319 -1.2994  0.8597  0.5240
   26SOL    HW3  176   0.039   3.962   0.438  1.9303 -0.6809  0.7478
   26SOL    MW4  177   0.051   3.889   0.391  0.4926 -0.1922 -0.3995
   27SOL     OW  178   0.358   4.405   0.499 -0.8915  0.4982 -0.7356
   27SOL    HW2  179   0.388   4.487   0.460 -0.5777  1.0857  0.6930
   27SOL    HW3  180   0.267   4.397   0.471 -1.1865  1.7806 -0.2099
   27SOL    MW4  181   0.350   4.415   0.490 -0.8890  0.7443 -0.4778
   28SOL     OW  182   0.089   4.444   0.408 -0.4926  0.4067 -0.1526
   28SOL    HW2  183   0.020   4.412   0.466  0.5411  0.2006  0.9878
   28SOL    HW3  184   0.081   4.390   0.329 -2.5627  1.3735 -0.6435
   28SOL    MW4  185   0.079   4.433   0.405 -0.6293  0.5074 -0.0669
   29SOL     OW  186   4.348   4.364   0.535  0.2789  0.1112  0.0321
   29SOL    HW2  187   4.387   4.277   0.542 -0.3160 -0.1807 -0.2902
   29SOL    HW3  188   4.325   4.387   0.625 -0.1792 -0.3457  0.0343
   29SOL    MW4  189   4.350   4.356   0.548  0.1397  0.0124 -0.0101
   30SOL     OW  190   0.486   3.700   0.499 -0.1049 -0.4045  0.1455
   30SOL    HW2  191   0.547   3.639   0.455 -0.2852  0.1523 -0.8857
   30SOL    HW3  192   0.526   3.716   0.585  0.5721 -1.0164 -0.0517
   30SOL    MW4  193   0.500   3.694   0.505 -0.0394 -0.4117 -0.0166
   31SOL     OW  194   0.758   0.090   0.277 -0.9023 -0.2333 -0.1086
   31SOL    HW2  195   0.811   0.106   0.355 -0.1234  0.4156 -0.7617
   31SOL    HW3  196   0.760  -0.005   0.267 -1.3649 -0.3586  0.9072
   31SOL    MW4  197   0.765   0.080   0.286 -0.8606 -0.1643 -0.0608
   32SOL     OW  198   0.259   0.300   0.327  0.1726 -0.1471  0.6113
   32SOL    HW2  199   0.229   0.210   0.340 -0.2010 -0.4121 -1.7795
   32SOL    HW3  200   0.351   0.290   0.303 -0.3978 -0.0819 -1.7192
   32SOL    MW4  201   0.267   0.287   0.326  0.0480 -0.1734 -0.0116
   33SOL     OW  202   4.293   0.501   0.452 -0.1119 -0.1750  0.0714
   33SOL    HW2  203   4.374   0.550   0.441 -0.6001  0.4520 -0.8017
   33SOL    HW3  204   4.302   0.425   0.395 -0.5047  0.3649 -0.7159
   33SOL    MW4  205   4.305   0.498   0.443 -0.2284 -0.0211 -0.1477
   34SOL     OW  206   1.058   4.531   0.499  0.0656 -0.1646  0.4688
   34SOL    HW2  207   1.035   4.453   0.448  1.3070  0.4619 -1.0704
   34SOL    HW3  208   1.096   4.496   0.579  1.6665 -1.1689 -0.6991
   34SOL    MW4  209   1.060   4.516   0.503  0.4406 -0.2146  0.1116
   35SOL     OW  210   1.113   0.878   0.458 -0.1032 -0.6279  0.0207
   35SOL    HW2  211   1.018   0.888   0.462 -0.1956 -1.3637 -0.2945
   35SOL    HW3  212   1.128   0.785   0.472  0.6040 -0.4334  0.5772
   35SOL    MW4  213   1.102   0.867   0.460 -0.0219 -0.6993  0.0525
   36SOL     OW  214   0.514   0.234   0.286  0.1319  0.0736  0.3041
   36SOL    HW2  215   0.582   0.172   0.260  0.4740 -0.1345  1.6995
   36SOL    HW3  216   0.555   0.290   0.352  0.0120  2.1954 -1.3504
   36SOL    MW4  217   0.528   0.233   0.291  0.1611  0.3261  0.2699
   37SOL     OW  218   0.026   0.673   0.435 -0.3613  0.0051 -0.1134
   37SOL    HW2  219   0.109   0.626   0.432  0.0479  0.6542  0.8124
   37SOL    HW3  220   0.045   0.759   0.396 -0.4549  0.3533  0.5933
   37SOL    MW4  221   0.039   0.678   0.429 -0.3196  0.1367  0.1020
   38SOL     OW  222   0.364   1.594   0.576  0.1351 -0.1468  0.5051
   38SOL    HW2  223   0.460   1.594   0.569  0.1506  0.5198  0.6586
   38SOL    HW3  224   0.336   1.519   0.524  0.7028  0.0814 -0.1440
   38SOL    MW4  225   0.373   1.584   0.568  0.2120 -0.0287  0.4398
   39SOL     OW  226   0.236   1.363   0.451 -0.0195 -0.0708 -0.3428
   39SOL    HW2  227   0.240   1.271   0.424  1.9206 -0.2012  0.2927
   39SOL    HW3  228   0.142   1.383   0.452 -0.5854 -2.5413  1.1610
   39SOL    MW4  229   0.224   1.353   0.447  0.1618 -0.4139 -0.0605
   40SOL     OW  230   0.365   2.545   0.318  0.1591 -0.2246  0.2381
   40SOL    HW2  231   0.409   2.484   0.378  2.5885  1.3205  0.1049
   40SOL    HW3  232   0.437   2.590   0.273 -1.6021  1.5860 -0.8461
   40SOL    MW4  233   0.381   2.543   0.320  0.2472  0.2182  0.0774
   41SOL     OW  234   0.075   2.746   0.445  0.3609  0.2703 -0.1258
   41SOL    HW2  235   0.065   2.666   0.394  0.7913 -0.3003  0.6711
   41SOL    HW3  236   0.168   2.748   0.467  0.2742  0.7854  0.1963
   41SOL    MW4  237   0.086   2.736   0.441  0.4062  0.2630  0.0218
   42SOL     OW  238   3.746   2.353   0.338 -0.2546 -0.1584  0.2650
   42SOL    HW2  239   3.806   2.420   0.307  1.4863 -2.1257 -0.7591
   42SOL    HW3  240   3.803   2.284   0.374 -1.8718 -1.9549 -0.4941
   42SOL    MW4  241   3.761   2.353   0.339 -0.2384 -0.6549  0.0297
   43SOL     OW  242   0.720   2.414   0.327 -0.3317  0.1145 -0.7020
   43SOL    HW2  243   0.777   2.421   0.404  0.2729 -0.1934 -1.1151
   43SOL    HW3  244   0.770   2.359   0.266 -0.5867  0.7821 -1.5082
   43SOL    MW4  245   0.734   2.408   0.329 -0.2856  0.1616 -0.8629
   44SOL     OW  246   0.604   2.660   0.241 -0.3910  0.0579 -0.0452
   44SOL    HW2  247   0.649   2.576   0.256 -0.5956 -0.5226 -2.5015
   44SOL    HW3  248   0.636   2.717   0.311  1.7928 -1.2716  0.0974
   44SOL    MW4  249   0.614   2.656   0.252 -0.1298 -0.1938 -0.3505
   45SOL     OW  250   4.443   3.175   0.482  0.4621 -0.6514  0.0828
   45SOL    HW2  251   4.352   3.195   0.503  0.4394 -0.8605  0.1834
   45SOL    HW3  252   4.471   3.248   0.426  1.3425  1.3779  3.0304
   45SOL    MW4  253   4.434   3.188   0.477  0.5755 -0.4113  0.4849
   46SOL     OW  254   0.351   2.760   0.502  0.4353  0.3503  0.2833
   46SOL    HW2  255   0.432   2.808   0.490  0.0702  0.7809 -0.5478
   46SOL    HW3  256   0.354   2.690   0.436  0.0107  0.5490  0.0435
   46SOL    MW4  257   0.362   2.757   0.492  0.3311  0.4332  0.1419
   47SOL     OW  258   0.750   4.472   0.394 -0.0128  0.3774  0.1486
   47SOL    HW2  259   0.693   4.396   0.384 -0.9594  1.0382  0.4471
   47SOL    HW3  260   0.775   4.471   0.486 -0.0260  0.4272  0.1528
   47SOL    MW4  261   0.746   4.462   0.405 -0.1395  0.4716  0.1885
   48SOL     OW  262   0.014   3.435   0.387 -0.0212  0.2579  0.7108
   48SOL    HW2  263  -0.031   3.453   0.305  0.2859 -0.0467  0.4779
   48SOL    HW3  264   0.072   3.510   0.400 -0.5999  0.6627  1.0213
   48SOL    MW4  265   0.016   3.447   0.378 -0.0570  0.2713  0.7211
   49SOL     OW  266   0.897   3.678   0.307 -0.0776 -0.3289 -0.3472
   49SOL    HW2  267   0.945   3.761   0.314 -1.4837  0.5038 -0.2776
   49SOL    HW3  268   0.964   3.611   0.316  1.1739  0.8066 -1.0028
   49SOL    MW4  269   0.912   3.680   0.309 -0.0979 -0.0694 -0.4245
   50SOL     OW  270   1.244   3.695   0.477  0.0684  0.1104  0.0250
   50SOL    HW2  271   1.212   3.773   0.431  0.8765 -0.1000 -0.8983
   50SOL    HW3  272   1.197   3.623   0.436  0.4971 -0.0392 -0.2054
   50SOL    MW4  273   1.233   3.696   0.465  0.2315  0.0632 -0.1272
   51SOL     OW  274   0.587   3.976   0.444  0.1215 -0.0804 -0.2603
   51SOL    HW2  275   0.551   4.006   0.527  1.5629 -2.4528  1.2537
   51SOL    HW3  276   0.532   3.902   0.419  0.1750  0.1392 -1.0659
   51SOL    MW4  277   0.575   3.971   0.451  0.3188 -0.3643 -0.1668
   52SOL     OW  278   1.305   3.394   0.195  0.1560 -0.2998 -0.2031
   52SOL    HW2  279   1.395   3.390   0.227  0.0321  1.2093  0.3946
   52SOL    HW3  280   1.274   3.303   0.196  1.3712 -0.7090  0.4387
   52SOL    MW4  281   1.313   3.382   0.199  0.3000 -0.1547 -0.0395
   53SOL     OW  282   0.569   4.264   0.381  0.0280  0.0326 -0.1194
   53SOL    HW2  283   0.601   4.173   0.384  1.9565  0.7296  2.5013
   53SOL    HW3  284   0.486   4.261   0.429  0.6724 -0.1649  1.0175
   53SOL    MW4  285   0.562   4.251   0.388  0.3675  0.0987  0.3764
   54SOL     OW  286   0.634   0.341   0.516  0.1859  0.2350 -0.3604
   54SOL    HW2  287   0.711   0.398   0.510  0.2472  0.2767  0.8415
   54SOL    HW3  288   0.590   0.368   0.597 -1.4674  0.6790 -1.3696
   54SOL    MW4  289   0.638   0.352   0.526 -0.0241  0.2991 -0.3350
   55SOL     OW  290   0.765   0.596   0.516  0.0538  0.3077  0.0919
   55SOL    HW2  291   0.802   0.684   0.507 -0.3056  0.2689 -1.8712
   55SOL    HW3  292   0.677   0.604   0.480 -0.8333 -0.3087  2.0613
   55SOL    MW4  293   0.758   0.609   0.510 -0.1107  0.2212  0.0927
   56SOL     OW  294   0.507   0.640   0.396 -0.0653 -0.0195 -0.6096
   56SOL    HW2  295   0.425   0.593   0.414 -0.1455  0.7142  1.0184
   56SOL    HW3  296   0.521   0.628   0.302 -2.1051 -0.0487 -0.9289
   56SOL    MW4  297   0.498   0.632   0.386 -0.3450  0.0735 -0.4369
   57SOL     OW  298   1.403   0.626   0.363 -0.4656  0.0177 -0.1616
   57SOL    HW2  299   1.393   0.721   0.363  0.9046  0.2073  1.5559
   57SOL    HW3  300   1.486   0.611   0.409 -1.0710 -2.0346  0.3338
   57SOL    MW4  301   1.413   0.636   0.369 -0.3645 -0.2281  0.1304
   58SOL     OW  302   1.873   0.715   0.540  0.1997 -0.2596 -0.1537
   58SOL    HW2  303   1.849   0.807   0.547 -1.1201 -0.6508  0.7807
   58SOL    HW3  304   1.793   0.671   0.514  0.9151 -1.1030 -0.9608
   58SOL    MW4  305   1.859   0.721   0.538  0.1202 -0.4225 -0.1370
   59SOL     OW  306   1.524   1.070   0.552  0.4936 -0.6435 -0.1695
   59SOL    HW2  307   1.506   1.026   0.469 -0.0383 -0.5857 -0.0877
   59SOL    HW3  308   1.459   1.035   0.613 -1.4304  1.9015 -0.6834
   59SOL    MW4  309   1.513   1.060   0.549  0.1698 -0.3000 -0.2265
   60SOL     OW  310   0.640   1.547   0.501 -0.4519  0.0432  0.5394
   60SOL    HW2  311   0.676   1.459   0.511  1.2846  0.7840  1.0597
   60SOL    HW3  312   0.717   1.602   0.485 -1.4829  1.5090  0.5639
   60SOL    MW4  313   0.655   1.543   0.500 -0.3588  0.3343  0.6112
   61SOL     OW  314   0.764   1.298   0.551 -0.2655 -0.2201 -0.0463
   61SOL    HW2  315   0.733   1.239   0.482  0.0306  0.0884 -0.4510
   61SOL    HW3  316   0.850   1.328   0.520  0.4785 -1.1296  1.0920
   61SOL    MW4  317   0.771   1.294   0.538 -0.1283 -0.2995  0.0505
   62SOL     OW  318   1.729   1.373   0.471  0.1662  0.4905  0.2169
   62SOL    HW2  319   1.756   1.462   0.492  0.3402  0.4587  0.1299
   62SOL    HW3  320   1.800   1.318   0.504 -0.0258  0.3698  0.4357
   62SOL    MW4  321   1.742   1.378   0.478  0.1639  0.4704  0.2343
   63SOL     OW  322   1.008   1.448   0.530 -0.2982 -0.1987 -0.3047
   63SOL    HW2  323   1.084   1.438   0.471  0.5641 -1.0776  0.9272
   63SOL    HW3  324   1.000   1.542   0.541  0.2574 -0.0690 -0.9181
   63SOL    MW4  325   1.017   1.459   0.524 -0.1111 -0.2977 -0.2232
   64SOL     OW  326   0.909   1.747   0.519  0.1239 -0.2486  0.4601
   64SOL    HW2  327   0.996   1.786   0.512 -0.3317  0.7872  0.5273
   64SOL    HW3  328   0.897   1.731   0.612  0.1207 -0.1069  0.4844
   64SOL    MW4  329   0.919   1.750   0.530  0.0634 -0.0933  0.4721
   65SOL     OW  330   0.301   1.882   0.546 -0.1644 -0.6255 -0.4959
   65SOL    HW2  331   0.211   1.873   0.513 -1.5957 -0.6745  3.1765
   65SOL    HW3  332   0.328   1.793   0.567  0.1180 -0.4502 -0.1015
   65SOL    MW4  333   0.293   1.869   0.544 -0.3159 -0.6089  0.0407
   66SOL     OW  334   0.738   1.963   0.512 -0.1610  0.3553 -0.4599
   66SOL    HW2  335   0.789   1.887   0.481  0.1004  0.6116 -0.6661
   66SOL    HW3  336   0.795   2.038   0.493 -0.4364  0.6041 -0.2899
   66SOL    MW4  337   0.752   1.963   0.505 -0.1628  0.4219 -0.4647
   67SOL     OW  338   0.903   2.466   0.544 -0.0209  0.3713  0.0211
   67SOL    HW2  339   0.935   2.553   0.523  0.8358  0.2839  0.9194
   67SOL    HW3  340   0.892   2.467   0.639 -0.5440 -0.3192 -0.0263
   67SOL    MW4  341   0.906   2.477   0.554  0.0232  0.2685  0.1334
   68SOL     OW  342   0.481   2.075   0.426  0.1924  0.1685  0.8897
   68SOL    HW2  343   0.573   2.052   0.422 -0.1345 -0.8139 -2.1428
   68SOL    HW3  344   0.438   1.998   0.463  0.6448  0.9006  2.9897
   68SOL    MW4  345   0.487   2.062   0.430  0.2090  0.1354  0.7666
   69SOL     OW  346   1.116   2.867   0.180 -0.4996 -0.1114 -0.1370
   69SOL    HW2  347   1.090   2.818   0.102 -1.3321  1.1688 -0.6776
   69SOL    HW3  348   1.034   2.890   0.223 -0.0242 -1.5317  1.6061
   69SOL    MW4  349   1.102   2.864   0.175 -0.5469 -0.1299  0.0217
   70SOL     OW  350   0.491   2.356   0.480 -0.5844 -0.6093 -0.0785
   70SOL    HW2  351   0.560   2.378   0.416 -0.5134 -0.4378  0.0559
   70SOL    HW3  352   0.473   2.263   0.465 -0.7685 -0.5038 -0.5423
   70SOL    MW4  353   0.498   2.347   0.469 -0.5994 -0.5729 -0.1220
   71SOL     OW  354   0.679   2.848   0.463 -0.0770 -0.2041 -0.5523
   71SOL    HW2  355   0.685   2.835   0.557 -0.4141 -1.2856 -0.6693
   71SOL    HW3  356   0.629   2.929   0.453  0.7917  0.4218  0.2030
   71SOL    MW4  357   0.673   2.857   0.474 -0.0069 -0.2642 -0.4681
   72SOL     OW  358   0.982   3.216   0.441 -0.0422  0.2045  0.4140
   72SOL    HW2  359   0.959   3.208   0.534 -1.2897  2.2182  0.3087
   72SOL    HW3  360   0.904   3.254   0.400  0.8511  0.2477 -1.2900
   72SOL    MW4  361   0.969   3.220   0.448 -0.0890  0.4756  0.1753
   73SOL     OW  362   1.408   4.129   0.457 -0.1789 -0.4127 -0.0660
   73SOL    HW2  363   1.352   4.122   0.379  1.7202 -1.4052 -1.3770
   73SOL    HW3  364   1.427   4.223   0.463 -2.0750 -0.0436  0.4785
   73SOL    MW4  365   1.403   4.141   0.447 -0.1785 -0.4945 -0.1671
   74SOL     OW  366   1.204   4.142   0.243  0.0722  0.2864  0.1518
   74SOL    HW2  367   1.223   4.176   0.156 -1.8990  0.3322 -0.2994
   74SOL    HW3  368   1.135   4.199   0.277 -0.2665 -0.6661  1.1097
   74SOL    MW4  369   1.197   4.154   0.236 -0.2325  0.1674  0.2187
   75SOL     OW  370   0.849   4.044   0.460 -0.1023 -0.0117 -0.2480
   75SOL    HW2  371   0.876   4.038   0.551  0.4413 -1.6080 -0.5009
   75SOL    HW3  372   0.757   4.018   0.461  0.1188 -0.8035 -0.2571
   75SOL    MW4  373   0.840   4.040   0.472 -0.0014 -0.3266 -0.2826
   76SOL     OW  374   1.226   4.666   0.281 -0.1748  0.3463  0.1841
   76SOL    HW2  375   1.159   4.719   0.240 -0.4930  1.1534  1.6973
   76SOL    HW3  376   1.178   4.605   0.337  0.2990  0.2275  0.4673
   76SOL    MW4  377   1.211   4.665   0.283 -0.1541  0.4371  0.4211
   77SOL     OW  378   1.155   0.592   0.500  0.0097 -0.7536  0.3622
   77SOL    HW2  379   1.100   0.525   0.460  0.3876 -0.0784 -1.3135
   77SOL    HW3  380   1.235   0.592   0.447 -0.3022  1.5663 -0.1450
   77SOL    MW4  381   1.159   0.583   0.488  0.0182 -0.3585  0.0741
   78SOL     OW  382   0.931   0.130   0.483  0.1229 -0.0483  0.0360
   78SOL    HW2  383   0.980   0.048   0.476 -0.8427 -0.6241 -0.0784
   78SOL    HW3  384   0.906   0.136   0.575 -0.0321 -0.0186 -0.0073
   78SOL    MW4  385   0.934   0.120   0.494 -0.0250 -0.1204  0.0152
   79SOL     OW  386   1.513   0.335   0.280 -0.1041 -0.6035  0.4751
   79SOL    HW2  387   1.600   0.350   0.318  0.2001  0.8374 -0.7071
   79SOL    HW3  388   1.485   0.422   0.252 -1.0676 -1.3637 -0.9590
   79SOL    MW4  389   1.521   0.349   0.281 -0.1912 -0.5137  0.1299
   80SOL     OW  390   1.643   0.549   0.483 -0.1395 -0.6970 -0.3506
   80SOL    HW2  391   1.678   0.465   0.454 -0.4088 -1.4058  1.2999
   80SOL    HW3  392   1.618   0.534   0.574 -0.0752  1.2078  0.0021
   80SOL    MW4  393   1.645   0.536   0.491 -0.1664 -0.5392 -0.0863
   81SOL     OW  394   1.059   0.343   0.380 -0.2850 -0.0637  0.2636
   81SOL    HW2  395   1.012   0.279   0.434 -0.4866 -1.1526 -1.1687
   81SOL    HW3  396   1.150   0.315   0.383 -0.2249  0.1461  0.4120
   81SOL    MW4  397   1.065   0.331   0.388 -0.3036 -0.1797  0.0942
   82SOL     OW  398   2.020   0.546   0.378 -0.7791 -0.0104  0.2408
   82SOL    HW2  399   2.042   0.574   0.290 -0.3533 -0.3750  0.2315
   82SOL    HW3  400   1.976   0.622   0.417  0.4491  0.6971  0.2556
   82SOL    MW4  401   2.017   0.560   0.372 -0.5610  0.0347  0.2415
   83SOL     OW  402   2.349   0.811   0.401  0.1155  0.3005 -0.1928
   83SOL    HW2  403   2.415   0.801   0.332 -1.6685 -1.7816 -1.6940
   83SOL    HW3  404   2.318   0.722   0.417 -1.2385  1.0647  1.5687
   83SOL    MW4  405   2.353   0.798   0.394 -0.2985  0.1266 -0.1585
   84SOL     OW  406   1.811   1.002   0.574 -0.5745 -0.4340  0.6281
   84SOL    HW2  407   1.810   0.985   0.668 -0.1298 -0.8163  0.5652
   84SOL    HW3  408   1.731   1.051   0.558  0.2527  1.2622  1.5220
   84SOL    MW4  409   1.800   1.006   0.584 -0.4065 -0.2606  0.7378
   85SOL     OW  410   1.471   1.370   0.551  0.5207  0.0503 -0.3460
   85SOL    HW2  411   1.449   1.278   0.567  0.0453  0.4136  1.2207
   85SOL    HW3  412   1.560   1.368   0.516  0.3011 -1.0388 -0.8592
   85SOL    MW4  413   1.480   1.357   0.549  0.4289 -0.0453 -0.2070
   86SOL     OW  414   1.252   1.471   0.401 -0.2303  0.1811 -0.2690
   86SOL    HW2  415   1.273   1.473   0.308 -0.6322  1.0700 -0.3410
   86SOL    HW3  416   1.328   1.431   0.443 -0.4059 -1.0284 -1.0774
   86SOL    MW4  417   1.264   1.466   0.395 -0.3064  0.1389 -0.3851
   87SOL     OW  418   1.214   1.764   0.503 -0.4273  0.0126 -0.0128
   87SOL    HW2  419   1.280   1.765   0.572 -0.4857  1.2326  0.0500
   87SOL    HW3  420   1.215   1.675   0.469 -1.4599 -1.0435  2.6010
   87SOL    MW4  421   1.223   1.753   0.508 -0.5713  0.0343  0.3403
   88SOL     OW  422   1.052   2.754   0.498 -0.0903  0.0141  0.2609
   88SOL    HW2  423   1.141   2.743   0.464 -0.1893  0.9731 -0.3282
   88SOL    HW3  424   1.009   2.810   0.434 -0.7107  0.6549  1.2287
   88SOL    MW4  425   1.058   2.760   0.485 -0.1851  0.2253  0.3109
   89SOL     OW  426   1.309   2.761   0.372  0.2861 -0.2305  0.6903
   89SOL    HW2  427   1.276   2.799   0.291 -0.8997  1.4311  1.9147
   89SOL    HW3  428   1.365   2.830   0.410  0.8762 -1.0035  1.2568
   89SOL    MW4  429   1.312   2.775   0.367  0.2074 -0.1130  0.9266
   90SOL     OW  430   2.009   1.985   0.548  0.6562 -0.2018 -0.4529
   90SOL    HW2  431   1.915   1.995   0.531  0.4590 -0.5859  0.3671
   90SOL    HW3  432   2.023   2.028   0.633  1.3416  0.3949 -0.8605
   90SOL    MW4  433   1.998   1.992   0.557  0.7206 -0.1738 -0.3985
   91SOL     OW  434   1.381   2.238   0.549 -0.1192 -0.0787 -0.0673
   91SOL    HW2  435   1.364   2.329   0.523 -0.5467 -0.2263 -0.3133
   91SOL    HW3  436   1.334   2.186   0.485 -1.2307 -0.4539  1.0268
   91SOL    MW4  437   1.372   2.243   0.537 -0.3222 -0.1478  0.0445
   92SOL     OW  438   0.915   2.198   0.400 -0.3553  0.2699 -0.2038
   92SOL    HW2  439   0.921   2.279   0.449 -1.0052 -0.4968  1.1722
   92SOL    HW3  440   0.988   2.145   0.432 -1.9717 -1.0195  1.4553
   92SOL    MW4  441   0.925   2.201   0.410 -0.6543 -0.0014  0.1967
   93SOL     OW  442   0.922   2.959   0.370 -0.1314  0.3903 -0.5370
   93SOL    HW2  443   0.838   2.927   0.402 -0.4080 -0.7410 -2.3642
   93SOL    HW3  444   0.934   3.043   0.415 -1.0857 -0.5596  1.5518
   93SOL    MW4  445   0.913   2.966   0.380 -0.2939  0.1156 -0.5025
   94SOL     OW  446   2.295   2.729   0.422  0.2424  0.0172  0.2145
   94SOL    HW2  447   2.285   2.637   0.445 -1.4354  0.1894  0.2373
   94SOL    HW3  448   2.388   2.748   0.439  0.4669 -1.4995  0.7706
   94SOL    MW4  449   2.306   2.720   0.427  0.0508 -0.1605  0.2909
   95SOL     OW  450   1.741   4.117   0.452 -0.3850 -0.0366  0.1031
   95SOL    HW2  451   1.646   4.118   0.446 -0.5123 -0.3184  1.9513
   95SOL    HW3  452   1.769   4.061   0.379 -1.4832  1.9916 -1.9182
   95SOL    MW4  453   1.732   4.110   0.441 -0.5467  0.1941  0.0803
   96SOL     OW  454   1.552   3.662   0.451 -0.6841 -0.1701  0.0131
   96SOL    HW2  455   1.460   3.684   0.436 -0.6087  0.3264  0.2633
   96SOL    HW3  456   1.558   3.569   0.428 -1.1789 -0.1295 -0.3013
   96SOL    MW4  457   1.540   3.653   0.446 -0.7393 -0.0992  0.0046
   97SOL     OW  458   2.141   3.270   0.194  0.1152  0.3049  0.0083
   97SOL    HW2  459   2.153   3.292   0.102  1.9797  0.1312  0.1830
   97SOL    HW3  460   2.192   3.190   0.207  0.1481  0.5070  1.2547
   97SOL    MW4  461   2.150   3.262   0.184  0.3660  0.3085  0.1958
   98SOL     OW  462   1.792   3.273   0.445 -0.4799  0.3168 -0.6382
   98SOL    HW2  463   1.832   3.360   0.454  0.8529 -0.3754  0.3104
   98SOL    HW3  464   1.856   3.222   0.396 -0.8720 -0.3735 -0.4373
   98SOL    MW4  465   1.805   3.278   0.440 -0.3557  0.1345 -0.4866
   99SOL     OW  466   1.384   3.190   0.478  0.1153  0.0084 -0.0872
   99SOL    HW2  467   1.313   3.164   0.418  1.3317  1.2105 -2.0904
   99SOL    HW3  468   1.444   3.115   0.478  0.7859  0.5316 -1.4469
   99SOL    MW4  469   1.382   3.177   0.470  0.3643  0.2363 -0.5308
  100SOL     OW  470   1.086   3.476   0.368  0.0796  0.1007 -0.2474
  100SOL    HW2  471   1.054   3.402   0.420 -1.3704  1.5816  1.0170
  100SOL    HW3  472   1.158   3.439   0.317 -1.3686 -2.4678 -0.5274
  100SOL    MW4  473   1.091   3.461   0.368 -0.3027 -0.0427 -0.1176
  101SOL     OW  474   0.982   4.298   0.346 -0.2770 -0.3370 -0.0532
  101SOL    HW2  475   0.958   4.210   0.374 -0.3103 -0.6434 -1.0345
  101SOL    HW3  476   0.904   4.331   0.300 -0.0577 -0.0220 -0.2021
  101SOL    MW4  477   0.969   4.291   0.344 -0.2524 -0.3357 -0.2023
  102SOL     OW  478   2.239   4.465   0.466  0.1808 -0.3557  0.0001
  102SOL    HW2  479   2.250   4.503   0.553 -0.5043  0.7818 -0.3970
  102SOL    HW3  480   2.172   4.519   0.424  0.0077 -1.3143 -0.9922
  102SOL    MW4  481   2.232   4.477   0.472  0.0677 -0.3324 -0.1832
  103SOL     OW  482   1.639   4.516   0.358  0.2079  0.0618  0.2344
  103SOL    HW2  483   1.570   4.507   0.424  0.5693 -1.2719  0.4267
  103SOL    HW3  484   1.600   4.575   0.292 -0.2265  1.2382  1.5107
  103SOL    MW4  485   1.624   4.523   0.358  0.1982  0.0410  0.4282
  104SOL     OW  486   1.849   0.078   0.446 -0.2013 -0.1220  0.0183
  104SOL    HW2  487   1.842   0.114   0.534  0.7649 -0.0998  0.1012
  104SOL    HW3  488   1.767   0.031   0.432 -0.7600  0.6889  0.5570
  104SOL    MW4  489   1.838   0.076   0.456 -0.1476 -0.0121  0.1003
  105SOL     OW  490   1.294   0.222   0.455 -0.1924  0.1788 -0.4735
  105SOL    HW2  491   1.363   0.249   0.394 -0.2638 -0.6250 -0.9191
  105SOL    HW3  492   1.269   0.135   0.425 -0.5995 -0.0008  0.3921
  105SOL    MW4  493   1.300   0.214   0.443 -0.2556  0.0491 -0.4181
  106SOL     OW  494   2.280   0.482   0.401  0.2742  0.1809 -0.1087
  106SOL    HW2  495   2.288   0.388   0.384  0.2797  0.4145 -1.4049
  106SOL    HW3  496   2.185   0.496   0.410  0.2627  0.0829 -0.0697
  106SOL    MW4  497   2.268   0.471   0.400  0.2735  0.1988 -0.2745
  107SOL     OW  498   2.314   1.731   0.475  0.6828 -0.6917  0.5678
  107SOL    HW2  499   2.325   1.826   0.478  0.7558 -0.7365  2.7945
  107SOL    HW3  500   2.231   1.717   0.430  2.0824  0.2792 -2.4594
  107SOL    MW4  501   2.305   1.742   0.470  0.8774 -0.5695  0.4622
  108SOL     OW  502   2.210   1.067   0.512 -0.0859  0.0548  0.3919
  108SOL    HW2  503   2.234   0.992   0.459 -0.4891  0.8564 -0.9454
  108SOL    HW3  504   2.269   1.137   0.484 -1.0242  0.7922  0.2073
  108SOL    MW4  505   2.221   1.067   0.501 -0.2630  0.2580  0.1912
  109SOL     OW  506   1.989   1.225   0.550  0.0350 -0.5595 -0.4405
  109SOL    HW2  507   1.921   1.158   0.564 -0.3926  0.1825  1.1624
  109SOL    HW3  508   2.069   1.175   0.533 -0.3592 -1.4849  0.3529
  109SOL    MW4  509   1.990   1.209   0.549 -0.0734 -0.5838 -0.1243
  110SOL     OW  510   2.526   1.545   0.487  0.1609 -0.0654  0.0911
  110SOL    HW2  511   2.586   1.594   0.543 -0.2173  0.7967 -0.2418
  110SOL    HW3  512   2.448   1.600   0.481  0.1943 -0.1423 -1.2686
  110SOL    MW4  513   2.523   1.559   0.494  0.1152  0.0381 -0.1322
  111SOL     OW  514   2.059   1.741   0.382 -0.1844 -0.2167 -0.5133
  111SOL    HW2  515   2.042   1.829   0.415  0.4299  0.4953 -1.9959
  111SOL    HW3  516   1.984   1.689   0.409 -0.4100  0.6928  0.6343
  111SOL    MW4  517   2.047   1.746   0.390 -0.1333 -0.0030 -0.5575
  112SOL     OW  518   1.740   1.947   0.458 -0.0480 -0.1203 -0.1357
  112SOL    HW2  519   1.677   1.970   0.526 -0.6457 -0.8413 -0.4396
  112SOL    HW3  520   1.719   2.005   0.384  0.0661  0.0870 -0.0060
  112SOL    MW4  521   1.729   1.958   0.457 -0.1119 -0.1881 -0.1586
  113SOL     OW  522   2.319   2.479   0.509  0.1635  0.1329  0.1934
  113SOL    HW2  523   2.412   2.500   0.503  0.1260  0.2970  0.1591
  113SOL    HW3  524   2.305   2.457   0.602  0.0851  0.8667  0.3632
  113SOL    MW4  525   2.329   2.479   0.521  0.1481  0.2518  0.2113
  114SOL     OW  526   1.957   3.081   0.300  0.2931 -0.3745  0.2610
  114SOL    HW2  527   2.014   3.036   0.363  0.3828 -0.8218 -0.1336
  114SOL    HW3  528   2.013   3.146   0.259  0.1821  0.0570  0.7822
  114SOL    MW4  529   1.972   3.083   0.303  0.2903 -0.3767  0.2776
  115SOL     OW  530   1.567   2.969   0.488 -0.3074 -0.0590 -0.3383
  115SOL    HW2  531   1.636   2.950   0.424  0.5178  1.4562  0.0957
  115SOL    HW3  532   1.603   2.940   0.571 -0.7165 -0.4404 -0.2870
  115SOL    MW4  533   1.581   2.962   0.490 -0.2525  0.0908 -0.2742
  116SOL     OW  534   1.195   3.145   0.262 -0.0857 -0.0097 -0.1267
  116SOL    HW2  535   1.181   3.074   0.199  0.6211 -1.7535  1.6383
  116SOL    HW3  536   1.115   3.148   0.314 -0.1702  0.5950 -0.2854
  116SOL    MW4  537   1.183   3.136   0.260 -0.0036 -0.1602  0.0852
  117SOL     OW  538   1.107   2.022   0.498 -0.6830 -0.0301 -0.2558
  117SOL    HW2  539   1.100   2.033   0.593 -0.0729 -0.2155 -0.1821
  117SOL    HW3  540   1.165   1.947   0.487 -0.4251  0.2395 -0.7757
  117SOL    MW4  541   1.114   2.014   0.509 -0.5685 -0.0193 -0.3147
  118SOL     OW  542   3.898   1.973   0.250 -0.0275 -0.6537  0.0831
  118SOL    HW2  543   3.888   1.995   0.157 -0.4681 -1.7407 -0.1340
  118SOL    HW3  544   3.809   1.960   0.281  0.0990  0.0193  0.7507
  118SOL    MW4  545   3.885   1.974   0.242 -0.0689 -0.7082  0.1426
  119SOL     OW  546   2.283   2.988   0.222 -0.2391  0.4660  0.1752
  119SOL    HW2  547   2.269   2.897   0.247 -0.2569  0.6938  1.0007
  119SOL    HW3  548   2.370   3.009   0.256 -0.8415  1.2052  1.2861
  119SOL    MW4  549   2.293   2.979   0.230 -0.3209  0.5934  0.4307
  120SOL     OW  550   1.428   2.532   0.546 -0.1829  0.6835  0.2503
  120SOL    HW2  551   1.520   2.558   0.540  0.0024 -0.1172 -0.3816
  120SOL    HW3  552   1.380   2.605   0.505  0.3124  0.1915 -1.2390
  120SOL    MW4  553   1.434   2.545   0.540 -0.0931  0.5131 -0.0296
  121SOL     OW  554   1.769   2.846   0.329 -0.2707 -0.0866  0.2017
  121SOL    HW2  555   1.749   2.795   0.250 -1.6738  1.6240 -0.5785
  121SOL    HW3  556   1.827   2.915   0.299 -0.7684  0.5442  0.6845
  121SOL    MW4  557   1.774   2.848   0.315 -0.5215  0.2222  0.1624
  122SOL     OW  558   2.248   3.126   0.512  0.0626  0.1784 -0.8824
  122SOL    HW2  559   2.190   3.051   0.509 -1.6033  1.4174 -0.4221
  122SOL    HW3  560   2.232   3.167   0.597  0.4387  1.4401 -1.3919
  122SOL    MW4  561   2.239   3.122   0.523 -0.1075  0.5081 -0.8889
  123SOL     OW  562   1.838   3.763   0.451  0.0134 -0.1043  0.1732
  123SOL    HW2  563   1.862   3.670   0.460 -0.4101 -0.3225 -0.9198
  123SOL    HW3  564   1.743   3.762   0.439  0.0881  0.4314 -0.4784
  123SOL    MW4  565   1.829   3.750   0.451 -0.0325 -0.0625 -0.0570
  124SOL     OW  566   1.496   0.064   0.242 -0.1665  0.5508  0.1178
  124SOL    HW2  567   1.508   0.159   0.235  1.6424  0.3053 -0.3586
  124SOL    HW3  568   1.401   0.051   0.240 -0.4015  2.2947 -0.4554
  124SOL    MW4  569   1.485   0.075   0.241  0.0411  0.7485 -0.0207
  125SOL     OW  570   1.418   4.399   0.542 -0.0362  0.0195  0.2176
  125SOL    HW2  571   1.465   4.401   0.625  0.5848 -0.3608 -0.1205
  125SOL    HW3  572   1.326   4.413   0.566 -0.0352 -1.3768  1.1010
  125SOL    MW4  573   1.412   4.401   0.556  0.0459 -0.2155  0.2896
  126SOL     OW  574   1.013   0.173   0.169  0.2528 -0.6161 -0.0275
  126SOL    HW2  575   1.006   0.235   0.242  0.2904 -0.7201  0.0637
  126SOL    HW3  576   0.927   0.131   0.165 -0.8942  1.8232 -2.2024
  126SOL    MW4  577   1.001   0.176   0.178  0.1066 -0.3080 -0.3024
  127SOL     OW  578   2.242   0.194   0.437 -0.0064  0.4040 -0.6050
  127SOL    HW2  579   2.197   0.127   0.386 -0.1109 -0.1788  0.2457
  127SOL    HW3  580   2.335   0.171   0.431  0.0657  0.8820 -1.3178
  127SOL    MW4  581   2.248   0.182   0.430 -0.0107  0.3902 -0.5867
  128SOL     OW  582   2.073   4.638   0.336  0.3529  0.3497  0.3419
  128SOL    HW2  583   2.022   4.622   0.257 -0.2814 -1.7317  1.1381
  128SOL    HW3  584   2.009   4.670   0.399  0.0258 -2.0384  1.2694
  128SOL    MW4  585   2.058   4.640   0.334  0.2263 -0.2398  0.5693
  129SOL     OW  586   2.684   1.123   0.439 -0.5024 -0.2810  0.3248
  129SOL    HW2  587   2.705   1.064   0.367  0.2055  1.0530 -0.5835
  129SOL    HW3  588   2.760   1.181   0.445 -1.4324  0.8991  0.8137
  129SOL    MW4  589   2.697   1.123   0.430 -0.5314  0.0508  0.2695
  130SOL     OW  590   2.639   0.779   0.276  0.1609  0.3056  0.0203
  130SOL    HW2  591   2.658   0.779   0.182 -0.2327  1.9910 -0.0686
  130SOL    HW3  592   2.724   0.785   0.318  0.3425 -0.4897 -0.2240
  130SOL    MW4  593   2.653   0.780   0.269  0.1330  0.4230 -0.0237
  131SOL     OW  594   2.885   0.802   0.426 -0.1343  0.1996  0.1950
  131SOL    HW2  595   2.972   0.840   0.416  0.2383 -0.3542  1.3058
  131SOL    HW3  596   2.901   0.709   0.439 -0.7977  0.3231  2.0512
  131SOL    MW4  597   2.899   0.795   0.426 -0.1729  0.1428  0.5865
  132SOL     OW  598   3.172   0.947   0.399 -0.6648  0.1366  0.3033
  132SOL    HW2  599   3.178   1.041   0.381  2.1206  0.1164  0.7737
  132SOL    HW3  600   3.165   0.941   0.494 -0.3347 -0.1288  0.3141
  132SOL    MW4  601   3.172   0.958   0.409 -0.2542  0.0989  0.3668
  133SOL     OW  602   2.905   1.303   0.459  0.3373 -0.0360 -0.0308
  133SOL    HW2  603   2.863   1.383   0.429  0.1337 -0.1144  0.0481
  133SOL    HW3  604   2.912   1.314   0.554  1.0826  0.2610 -0.1094
  133SOL    MW4  605   2.901   1.315   0.468  0.4086 -0.0070 -0.0308
  134SOL     OW  606   2.978   1.696   0.473  0.3780  0.4479 -0.2046
  134SOL    HW2  607   2.892   1.656   0.485 -1.6264  3.4088 -3.7687
  134SOL    HW3  608   2.968   1.785   0.507  2.0416  0.7981 -0.6015
  134SOL    MW4  609   2.965   1.702   0.479  0.3333  0.8847 -0.7272
  135SOL     OW  610   2.516   0.096   0.405  0.1523 -0.2771 -0.2827
  135SOL    HW2  611   2.536   0.093   0.499 -0.6913 -0.8793 -0.1157
  135SOL    HW3  612   2.581   0.157   0.369  0.2760  0.2188  0.7430
  135SOL    MW4  613   2.527   0.104   0.413  0.0572 -0.2911 -0.1253
  136SOL     OW  614   2.288   2.013   0.461  0.0653  0.0159 -0.1720
  136SOL    HW2  615   2.291   2.078   0.390  0.3647 -0.7893 -0.9161
  136SOL    HW3  616   2.195   1.997   0.475 -0.0095  0.5692 -0.0187
  136SOL    MW4  617   2.276   2.020   0.453  0.0951 -0.0169 -0.2500
  137SOL     OW  618   1.825   1.637   0.523  0.1467 -0.1769  0.2442
  137SOL    HW2  619   1.825   1.641   0.619 -0.0684  1.8883  0.1721
  137SOL    HW3  620   1.783   1.718   0.496  0.2569 -0.7298 -1.6120
  137SOL    MW4  621   1.819   1.648   0.532  0.1328  0.0226 -0.0103
  138SOL     OW  622   2.273   2.264   0.325  0.0350  0.3509  0.1343
  138SOL    HW2  623   2.269   2.316   0.406  0.3756 -0.4037  0.6364
  138SOL    HW3  624   2.261   2.329   0.255 -1.6261  0.8305  0.8335
  138SOL    MW4  625   2.271   2.280   0.327 -0.1395  0.3145  0.2928
  139SOL     OW  626   2.815   2.400   0.430  0.0288 -0.4080 -0.1716
  139SOL    HW2  627   2.803   2.344   0.353  0.4366 -0.4333 -0.2221
  139SOL    HW3  628   2.838   2.339   0.500  0.2154 -0.3314 -0.1650
  139SOL    MW4  629   2.817   2.385   0.429  0.1075 -0.4013 -0.1774
  140SOL     OW  630   2.590   2.852   0.487 -0.3579 -0.4632  0.6451
  140SOL    HW2  631   2.552   2.927   0.443 -0.5162 -0.7386  0.3132
  140SOL    HW3  632   2.547   2.850   0.573 -0.9139 -0.6317  0.3641
  140SOL    MW4  633   2.580   2.862   0.493 -0.4525 -0.5219  0.5642
  141SOL     OW  634   1.690   2.651   0.540  0.0759 -0.1703 -0.0442
  141SOL    HW2  635   1.734   2.704   0.473  1.4284  0.7900  1.5639
  141SOL    HW3  636   1.665   2.714   0.608 -0.5962 -1.2422  0.7267
  141SOL    MW4  637   1.692   2.666   0.540  0.1657 -0.1853  0.2697
  142SOL     OW  638   2.096   2.901   0.478 -0.2754  0.3382  0.4750
  142SOL    HW2  639   2.061   2.886   0.566  0.2900  2.2528  1.0587
  142SOL    HW3  640   2.149   2.823   0.460 -1.6215 -0.7734  1.1762
  142SOL    MW4  641   2.098   2.888   0.487 -0.3784  0.4444  0.6445
  143SOL     OW  642   1.968   3.968   0.324 -0.7263 -0.3862 -0.1051
  143SOL    HW2  643   2.034   3.931   0.265 -0.9966 -0.6336 -0.2499
  143SOL    HW3  644   1.920   3.892   0.356 -0.9204 -0.2057  0.0276
  143SOL    MW4  645   1.971   3.953   0.321 -0.7875 -0.3951 -0.1068
  144SOL     OW  646   2.396   4.275   0.258 -0.1193 -0.0249  0.5387
  144SOL    HW2  647   2.399   4.363   0.220  2.0770 -0.3496 -0.0999
  144SOL    HW3  648   2.478   4.234   0.230  0.0112 -1.4323  2.8848
  144SOL    MW4  649   2.407   4.281   0.249  0.1881 -0.2537  0.7640
  145SOL     OW  650   1.542   3.401   0.375  0.5692  0.0547 -0.2485
  145SOL    HW2  651   1.482   3.332   0.405  1.0795  0.6437  2.2710
  145SOL    HW3  652   1.627   3.359   0.370  1.0103  0.6176  1.9602
  145SOL    MW4  653   1.545   3.387   0.378  0.6946  0.2065  0.3754
  146SOL     OW  654   1.935   3.510   0.505  0.1708  0.3265 -0.9751
  146SOL    HW2  655   2.020   3.468   0.489 -0.5436 -1.8492  0.7447
  146SOL    HW3  656   1.952   3.569   0.578  0.0197 -0.7936 -0.0175
  146SOL    MW4  657   1.949   3.512   0.513  0.0566 -0.1082 -0.6218
  147SOL     OW  658   1.861   4.363   0.429  0.4825  0.1654  0.1353
  147SOL    HW2  659   1.784   4.415   0.404  0.7064  0.3562 -0.1672
  147SOL    HW3  660   1.825   4.278   0.454  0.2867 -0.2962 -1.5892
  147SOL    MW4  661   1.846   4.359   0.429  0.4861  0.1297 -0.1321
  148SOL     OW  662   2.063   4.170   0.508  0.3629  0.0087 -0.0981
  148SOL    HW2  663   2.046   4.093   0.454 -1.0645  0.0999  0.1942
  148SOL    HW3  664   2.005   4.238   0.473  0.9790  0.6963  0.1916
  148SOL    MW4  665   2.053   4.169   0.496  0.2558  0.1121 -0.0213
  149SOL     OW  666   2.654   4.426   0.447 -0.0992  0.4678 -0.4594
  149SOL    HW2  667   2.609   4.442   0.364 -0.2122  0.4165 -0.4078
  149SOL    HW3  668   2.722   4.493   0.450  1.2151 -0.7969 -1.5353
  149SOL    MW4  669   2.657   4.437   0.436  0.0594  0.2942 -0.5946
  150SOL     OW  670   2.339   4.009   0.450 -0.3002 -0.1834 -0.2508
  150SOL    HW2  671   2.433   3.994   0.450 -0.0297  1.2877 -2.3972
  150SOL    HW3  672   2.300   3.921   0.453  1.1369 -0.8191 -0.1795
  150SOL    MW4  673   2.346   3.996   0.451 -0.0749 -0.0732 -0.5246
  151SOL     OW  674   2.607   4.011   0.513 -0.5225  0.1632  0.3306
  151SOL    HW2  675   2.625   3.918   0.527  0.7996  0.0595 -1.7433
  151SOL    HW3  676   2.690   4.046   0.479 -1.2171  1.9480  0.4374
  151SOL    MW4  677   2.621   4.003   0.510 -0.4399  0.3848  0.0711
  152SOL     OW  678   2.558   0.493   0.414 -0.2315 -0.5719  0.0740
  152SOL    HW2  679   2.463   0.499   0.405 -0.2442  1.7260  1.3734
  152SOL    HW3  680   2.592   0.567   0.364  0.9470 -1.8714 -1.1029
  152SOL    MW4  681   2.550   0.504   0.406 -0.0780 -0.4401  0.0902
  153SOL     OW  682   1.800   0.343   0.381  0.4713  0.0524  0.0277
  153SOL    HW2  683   1.886   0.385   0.389  0.5895 -0.3614  0.9768
  153SOL    HW3  684   1.817   0.250   0.397  0.0351 -0.2084 -0.9854
  153SOL    MW4  685   1.814   0.336   0.384  0.4293 -0.0366  0.0193
  154SOL     OW  686   2.942   0.260   0.462 -0.2814 -0.4786 -0.2787
  154SOL    HW2  687   3.026   0.222   0.485 -0.6111 -1.3995 -0.5832
  154SOL    HW3  688   2.891   0.256   0.543  0.1372  0.5798  0.0543
  154SOL    MW4  689   2.946   0.255   0.476 -0.2697 -0.4604 -0.2750
  155SOL     OW  690   2.443   1.254   0.500  0.6245  0.6007  0.0910
  155SOL    HW2  691   2.459   1.349   0.494 -0.7097  0.8630  0.4033
  155SOL    HW3  692   2.529   1.214   0.484  1.4104  1.8921  0.9374
  155SOL    MW4  693   2.457   1.262   0.497  0.5522  0.8057  0.2439
  156SOL     OW  694   3.401   0.774   0.395  0.3131 -0.1690 -0.4951
  156SOL    HW2  695   3.478   0.828   0.379  0.2626  0.6381  1.8144
  156SOL    HW3  696   3.328   0.836   0.400 -0.2598 -0.7793 -1.1229
  156SOL    MW4  697   3.401   0.789   0.393  0.2308 -0.1431 -0.2733
  157SOL     OW  698   3.613   1.889   0.341  0.4730  0.0496 -0.0249
  157SOL    HW2  699   3.590   1.977   0.313 -0.3144 -0.2176 -0.2376
  157SOL    HW3  700   3.530   1.851   0.371  0.7970 -0.6263  0.0177
  157SOL    MW4  701   3.599   1.895   0.341  0.4117 -0.0749 -0.0474
  158SOL     OW  702   3.161   1.269   0.395 -0.3745 -0.1147 -0.1082
  158SOL    HW2  703   3.066   1.265   0.406 -0.2999  0.7188  0.8746
  158SOL    HW3  704   3.182   1.362   0.400  0.5032 -0.3023 -0.2455
  158SOL    MW4  705   3.151   1.281   0.397 -0.2491 -0.0296  0.0034
  159SOL     OW  706   3.214   1.552   0.426  0.0531  0.1089 -0.6507
  159SOL    HW2  707   3.286   1.613   0.410  0.9783 -0.4388  1.2619
  159SOL    HW3  708   3.135   1.606   0.419  0.7989  1.3051 -0.1349
  159SOL    MW4  709   3.213   1.568   0.423  0.2735  0.1944 -0.3303
  160SOL     OW  710   2.568   0.089   0.677 -0.4540  0.2814 -0.0578
  160SOL    HW2  711   2.577   0.012   0.733  1.3808  0.6239  0.1728
  160SOL    HW3  712   2.500   0.141   0.717 -0.0219 -0.0760  1.1562
  160SOL    MW4  713   2.560   0.085   0.690 -0.1550  0.2794  0.1328
  161SOL     OW  714   2.999   1.966   0.581  0.1803  0.1798  0.0385
  161SOL    HW2  715   2.942   2.040   0.600  0.6533  0.2982  1.0112
  161SOL    HW3  716   3.056   1.959   0.658 -0.2843 -1.5944  0.2436
  161SOL    MW4  717   2.999   1.974   0.594  0.1814 -0.0387  0.1939
  162SOL     OW  718   3.044   2.547   0.549  0.0322  0.0012  0.7721
  162SOL    HW2  719   2.972   2.514   0.495  1.7252 -0.6772 -1.1016
  162SOL    HW3  720   3.079   2.469   0.592 -0.4310  0.3590  1.8305
  162SOL    MW4  721   3.039   2.533   0.547  0.1943 -0.0410  0.6645
  163SOL     OW  722   2.773   1.517   0.345  0.1005 -0.3633  0.6262
  163SOL    HW2  723   2.794   1.597   0.298  2.4032 -0.2475  1.7575
  163SOL    HW3  724   2.684   1.530   0.378 -0.3283  0.8323 -0.9741
  163SOL    MW4  725   2.764   1.529   0.343  0.3479 -0.1903  0.5643
  164SOL     OW  726   2.589   2.547   0.486  0.0918 -0.3531 -0.5989
  164SOL    HW2  727   2.612   2.637   0.463 -1.0309  0.2161  0.3829
  164SOL    HW3  728   2.668   2.496   0.470  0.5640  0.7096 -1.7167
  164SOL    MW4  729   2.602   2.552   0.481  0.0060 -0.1378 -0.6169
  165SOL     OW  730   2.639   3.328   0.418 -0.4209  0.4452  0.1774
  165SOL    HW2  731   2.726   3.349   0.382 -0.4114  1.5901  0.8740
  165SOL    HW3  732   2.653   3.319   0.512 -0.8865 -0.3157  0.1808
  165SOL    MW4  733   2.652   3.329   0.425 -0.4809  0.4959  0.2697
  166SOL     OW  734   2.918   3.445   0.386 -0.3558 -0.0615  0.3226
  166SOL    HW2  735   3.009   3.417   0.376 -0.6441 -0.7796 -0.3465
  166SOL    HW3  736   2.923   3.537   0.411  0.5504 -0.0658  0.1575
  166SOL    MW4  737   2.931   3.453   0.388 -0.2742 -0.1569  0.2125
  167SOL     OW  738   3.162   3.328   0.398  0.4449  0.3644  0.0660
  167SOL    HW2  739   3.108   3.258   0.361  1.7811 -0.4542 -0.4077
  167SOL    HW3  740   3.160   3.312   0.492  0.0560  0.1929  0.0296
  167SOL    MW4  741   3.155   3.317   0.405  0.5696  0.2339 -0.0013
  168SOL     OW  742   2.196   3.397   0.446  0.0851 -0.3296 -0.1117
  168SOL    HW2  743   2.252   3.326   0.478  0.0030 -0.2720  0.1634
  168SOL    HW3  744   2.166   3.367   0.360 -0.0580 -0.6924  0.0597
  168SOL    MW4  745   2.199   3.383   0.439  0.0553 -0.3700 -0.0528
  169SOL     OW  746   2.619   3.734   0.547  0.0977 -0.2354  0.6783
  169SOL    HW2  747   2.569   3.682   0.484 -0.5623 -1.0525  1.8454
  169SOL    HW3  748   2.577   3.716   0.631 -0.2916  2.3715  1.0826
  169SOL    MW4  749   2.607   3.725   0.550 -0.0405  0.0005  0.8856
  170SOL     OW  750   4.094   3.478   0.394 -0.2389 -0.0973  0.2017
  170SOL    HW2  751   4.116   3.398   0.441 -0.1419  0.0786  0.4555
  170SOL    HW3  752   3.998   3.483   0.397 -0.3071 -0.7861 -0.7793
  170SOL    MW4  753   4.084   3.468   0.400 -0.2356 -0.1647  0.1057
  171SOL     OW  754   2.491   4.269   0.617 -0.5454  0.1993  0.2370
  171SOL    HW2  755   2.545   4.208   0.668  0.0078  0.6623  0.2179
  171SOL    HW3  756   2.552   4.339   0.592 -1.1615  0.7462  0.2374
  171SOL    MW4  757   2.507   4.271   0.621 -0.5538  0.3328  0.2346
  172SOL     OW  758   2.235   3.760   0.473 -0.1735 -0.0812 -0.3118
  172SOL    HW2  759   2.175   3.718   0.534  0.0644  0.3025  0.1938
  172SOL    HW3  760   2.309   3.700   0.467  0.0353  0.1202  0.1845
  172SOL    MW4  761   2.237   3.747   0.480 -0.1144 -0.0041 -0.1796
  173SOL     OW  762   3.476   4.086   0.490 -0.1434 -0.3867 -0.0003
  173SOL    HW2  763   3.452   4.169   0.450 -1.3566 -0.7054  0.0703
  173SOL    HW3  764   3.401   4.029   0.476  1.7944 -2.4082 -2.6106
  173SOL    MW4  765   3.463   4.090   0.483 -0.0477 -0.6952 -0.3355
  174SOL     OW  766   2.849   4.648   0.451  0.1239  0.4433 -0.5082
  174SOL    HW2  767   2.876   4.739   0.439  0.9876  0.2558 -0.0493
  174SOL    HW3  768   2.931   4.599   0.453 -0.2398 -0.1513  0.8479
  174SOL    MW4  769   2.863   4.654   0.450  0.1900  0.3405 -0.2688
  175SOL     OW  770   3.551   4.515   0.498  0.1300 -0.0866  0.0050
  175SOL    HW2  771   3.646   4.531   0.505 -0.0764  1.1843 -0.0102
  175SOL    HW3  772   3.512   4.603   0.494 -1.1743 -0.5759  1.5811
  175SOL    MW4  773   3.559   4.529   0.498 -0.0689  0.0162  0.2109
  176SOL     OW  774   3.093   4.512   0.502  0.0918  0.0925  0.1468
  176SOL    HW2  775   3.064   4.482   0.588 -0.1409  0.9224  0.3650
  176SOL    HW3  776   3.167   4.455   0.480 -0.3589 -0.6511  0.5327
  176SOL    MW4  777   3.099   4.501   0.511  0.0012  0.1044  0.2265
  177SOL     OW  778   2.831   4.228   0.501  0.5894  0.6418 -0.0747
  177SOL    HW2  779   2.896   4.262   0.563  0.6596  0.1522  0.1280
  177SOL    HW3  780   2.767   4.298   0.491  1.8957  1.6732 -1.3696
  177SOL    MW4  781   2.831   4.242   0.508  0.7710  0.7138 -0.2189
  178SOL     OW  782   2.700   0.267   0.303 -0.0267  0.2502 -0.5850
  178SOL    HW2  783   2.791   0.268   0.332 -0.0968 -0.3191 -0.3365
  178SOL    HW3  784   2.661   0.344   0.345 -0.0227 -0.3255  0.5087
  178SOL    MW4  785   2.707   0.278   0.312 -0.0353  0.0991 -0.4079
  179SOL     OW  786   3.346   0.465   0.473  0.0040 -0.6169 -0.0928
  179SOL    HW2  787   3.407   0.415   0.419  0.1524  0.7922 -1.2578
  179SOL    HW3  788   3.369   0.556   0.457  0.1472 -0.1562  2.4846
  179SOL    MW4  789   3.357   0.470   0.464  0.0427 -0.3701  0.0935
  180SOL     OW  790   2.806   0.211   0.702  0.0107 -0.3614 -0.2253
  180SOL    HW2  791   2.720   0.171   0.689  0.0934 -1.0042  1.0597
  180SOL    HW3  792   2.788   0.294   0.745 -0.0045 -0.2578 -0.4337
  180SOL    MW4  793   2.792   0.216   0.706  0.0193 -0.4326 -0.0833
  181SOL     OW  794   3.550   0.310   0.342 -0.2875 -0.4387  0.1168
  181SOL    HW2  795   3.617   0.363   0.385 -0.6488 -0.8811  1.2496
  181SOL    HW3  796   3.581   0.300   0.252 -0.2098  1.6521 -0.0971
  181SOL    MW4  797   3.563   0.316   0.336 -0.3250 -0.2212  0.2380
  182SOL     OW  798   3.001   0.535   0.477  0.3089  0.2237  0.3311
  182SOL    HW2  799   3.094   0.548   0.457  0.2433  1.1300  0.6125
  182SOL    HW3  800   2.988   0.440   0.470  1.2307  0.1048  0.1968
  182SOL    MW4  801   3.012   0.524   0.473  0.4220  0.3276  0.3505
  183SOL     OW  802   3.706   1.641   0.528 -0.3250 -0.2113 -0.3060
  183SOL    HW2  803   3.681   1.690   0.450  1.3923 -0.3847 -0.9788
  183SOL    HW3  804   3.650   1.677   0.597 -2.1019 -0.2895 -1.6460
  183SOL    MW4  805   3.695   1.652   0.527 -0.3328 -0.2446 -0.5715
  184SOL     OW  806   3.384   1.789   0.446 -0.3622 -0.3746  0.2066
  184SOL    HW2  807   3.322   1.851   0.406 -1.7582 -0.5059  2.1167
  184SOL    HW3  808   3.414   1.833   0.525  0.5024 -1.1358  0.3091
  184SOL    MW4  809   3.380   1.803   0.451 -0.4325 -0.4923  0.4722
  185SOL     OW  810   3.624   0.981   0.487  0.4176 -0.6692  0.4297
  185SOL    HW2  811   3.560   1.052   0.489  0.6488 -0.4240 -0.6118
  185SOL    HW3  812   3.631   0.953   0.578 -2.6740 -2.0440  0.3381
  185SOL    MW4  813   3.616   0.987   0.499  0.0403 -0.8181  0.2803
  186SOL     OW  814   3.543   2.162   0.301  0.1304 -0.1546  0.1701
  186SOL    HW2  815   3.462   2.200   0.337 -0.3351 -1.3760  0.4573
  186SOL    HW3  816   3.608   2.232   0.308 -0.9833  0.9591 -0.3683
  186SOL    MW4  817   3.541   2.176   0.307 -0.0780 -0.1690  0.1369
  187SOL     OW  818   3.208   2.000   0.383 -0.4560 -0.2092  0.2069
  187SOL    HW2  819   3.123   1.996   0.426 -0.5441  0.7372  0.1294
  187SOL    HW3  820   3.231   2.093   0.383  0.3874 -0.4071 -0.1439
  187SOL    MW4  821   3.200   2.012   0.389 -0.3562 -0.1104  0.1504
  188SOL     OW  822   3.676   2.947   0.524  0.0780  0.3215 -0.3052
  188SOL    HW2  823   3.667   2.982   0.613 -0.0176  2.7629 -1.2522
  188SOL    HW3  824   3.607   2.881   0.517 -1.4901  1.8218  0.6271
  188SOL    MW4  825   3.666   2.943   0.535 -0.1414  0.8414 -0.3072
  189SOL     OW  826   2.492   3.078   0.399 -0.1082 -0.4020  0.1394
  189SOL    HW2  827   2.402   3.097   0.427 -0.4562 -1.3723 -0.2917
  189SOL    HW3  828   2.536   3.163   0.400 -1.3061  0.2475 -0.5941
  189SOL    MW4  829   2.486   3.091   0.403 -0.3121 -0.4442 -0.0142
  190SOL     OW  830   3.444   2.738   0.502 -0.1116  0.3418 -0.0192
  190SOL    HW2  831   3.353   2.752   0.477  0.1258  1.7581 -0.1047
  190SOL    HW3  832   3.458   2.644   0.488 -1.9314 -0.1676  1.2821
  190SOL    MW4  833   3.434   2.727   0.497 -0.3204  0.4616  0.1412
  191SOL     OW  834   2.947   2.714   0.776 -0.2365 -0.7244  0.3434
  191SOL    HW2  835   2.958   2.659   0.698 -1.0661 -1.5181  0.7836
  191SOL    HW3  836   3.036   2.725   0.809  0.2302  0.3436 -1.2033
  191SOL    MW4  837   2.960   2.708   0.770 -0.2842 -0.6883  0.1974
  192SOL     OW  838   3.176   0.105   0.546  0.3310 -0.4438 -0.3492
  192SOL    HW2  839   3.173   0.094   0.641  2.1363 -0.1454 -0.2479
  192SOL    HW3  840   3.156   0.018   0.511 -3.2942  0.0792  0.2411
  192SOL    MW4  841   3.173   0.092   0.554  0.0908 -0.3354 -0.2580
  193SOL     OW  842   3.235   3.936   0.489  0.0790 -0.4899  0.4282
  193SOL    HW2  843   3.287   3.856   0.501  0.3609 -0.2759  0.6445
  193SOL    HW3  844   3.200   3.955   0.576 -0.6364 -0.8171  0.2161
  193SOL    MW4  845   3.238   3.928   0.502  0.0217 -0.5047  0.4287
  194SOL     OW  846   3.723   3.760   0.511  0.3673 -0.0804 -0.0429
  194SOL    HW2  847   3.627   3.765   0.515  0.2811 -1.3360 -0.4184
  194SOL    HW3  848   3.750   3.762   0.603  0.0337  1.1981  0.0320
  194SOL    MW4  849   3.714   3.761   0.524  0.3119 -0.0772 -0.0826
  195SOL     OW  850   3.619   3.316   0.438 -0.0709  0.0684 -0.5838
  195SOL    HW2  851   3.695   3.373   0.449  0.7640 -0.9198 -1.1078
  195SOL    HW3  852   3.652   3.244   0.384 -1.5587 -0.0206 -1.3878
  195SOL    MW4  853   3.633   3.314   0.432 -0.1571 -0.0737 -0.7590
  196SOL     OW  854   3.378   3.487   0.401  0.1382  0.3125 -0.1385
  196SOL    HW2  855   3.292   3.447   0.390 -0.6475  1.9373 -0.1792
  196SOL    HW3  856   3.440   3.416   0.388 -1.1938 -0.8222 -0.4144
  196SOL    MW4  857   3.375   3.473   0.398 -0.1409  0.3772 -0.1802
  197SOL     OW  858   2.927   3.989   0.375 -0.2586  0.0865 -0.3020
  197SOL    HW2  859   3.020   3.971   0.359 -0.2032 -0.5854  0.7134
  197SOL    HW3  860   2.925   4.079   0.407  0.1859 -0.3179  0.8822
  197SOL    MW4  861   2.939   3.998   0.377 -0.1931 -0.0558 -0.0118
  198SOL     OW  862   2.445   3.545   0.419 -0.4324 -0.0612 -0.3712
  198SOL    HW2  863   2.519   3.485   0.414  1.2811  1.8294  1.1510
  198SOL    HW3  864   2.369   3.492   0.396  1.1782 -2.4708 -0.3087
  198SOL    MW4  865   2.445   3.530   0.415  0.0062 -0.1297 -0.1621
  199SOL     OW  866   4.118   0.091   0.413 -0.7431  0.1331  0.2572
  199SOL    HW2  867   4.190   0.118   0.358 -1.0687  0.4012 -0.0391
  199SOL    HW3  868   4.122  -0.005   0.414  0.6932  0.1877  1.6908
  199SOL    MW4  869   4.128   0.082   0.406 -0.5965  0.1757  0.4072
  200SOL     OW  870   3.672   4.579   0.201  0.0322 -0.3962 -0.4764
  200SOL    HW2  871   3.629   4.493   0.199 -0.7680 -0.0146 -0.1434
  200SOL    HW3  872   3.676   4.601   0.294  1.3482 -0.6092 -0.4741
  200SOL    MW4  873   3.667   4.570   0.213  0.1004 -0.3743 -0.4322
  201SOL     OW  874   3.454   0.116   0.507  0.0830  0.5141 -0.0634
  201SOL    HW2  875   3.359   0.123   0.502  0.1107  0.9515  0.0008
  201SOL    HW3  876   3.486   0.175   0.439  0.3194  0.6593  0.1737
  201SOL    MW4  877   3.446   0.124   0.497  0.1178  0.5910 -0.0237
  202SOL     OW  878   3.749   0.451   0.479  0.6996 -0.2106 -0.0089
  202SOL    HW2  879   3.769   0.456   0.572 -0.4869  0.2131  0.2292
  202SOL    HW3  880   3.803   0.378   0.447  1.7809  0.2076  0.8151
  202SOL    MW4  881   3.759   0.442   0.487  0.6855 -0.0995  0.1313
  203SOL     OW  882   3.869   0.202   0.397 -0.1724 -0.2267  0.2119
  203SOL    HW2  883   3.960   0.174   0.390 -0.2023 -0.6966  1.4060
  203SOL    HW3  884   3.834   0.192   0.309  0.4770 -1.7074  0.0988
  203SOL    MW4  885   3.876   0.197   0.385 -0.0906 -0.4840  0.3545
  204SOL     OW  886   4.131   0.725   0.515 -0.4837 -0.1686  0.5480
  204SOL    HW2  887   4.036   0.727   0.498 -0.1927 -1.8349 -1.6282
  204SOL    HW3  888   4.159   0.642   0.477  2.0901  0.9817 -0.1499
  204SOL    MW4  889   4.122   0.714   0.508 -0.1059 -0.2366  0.1688
  205SOL     OW  890   3.906   1.059   0.481 -0.1105 -0.0409 -0.0867
  205SOL    HW2  891   3.810   1.059   0.481 -0.1217 -0.9340 -0.8839
  205SOL    HW3  892   3.929   0.982   0.429  1.0444 -0.0914  0.5022
  205SOL    MW4  893   3.896   1.049   0.474  0.0403 -0.1653 -0.1142
  206SOL     OW  894   4.001   1.654   0.521  0.6574  0.0832  0.1497
  206SOL    HW2  895   3.905   1.662   0.524  0.7581  1.0421  2.5435
  206SOL    HW3  896   4.030   1.736   0.481  0.5037  0.0542 -0.0235
  206SOL    MW4  897   3.992   1.666   0.516  0.6506  0.2059  0.4427
  207SOL     OW  898   3.988   1.395   0.428  0.1929  0.0729 -0.2658
  207SOL    HW2  899   4.008   1.483   0.461 -1.5601  1.0410 -1.6581
  207SOL    HW3  900   3.896   1.382   0.449 -0.5247  0.0497 -3.2121
  207SOL    MW4  901   3.979   1.405   0.435 -0.1333  0.1975 -0.8382
  208SOL     OW  902   3.449   1.228   0.470 -0.1315  0.2588 -0.6463
  208SOL    HW2  903   3.418   1.237   0.561 -1.0766 -1.0038 -0.8308
  208SOL    HW3  904   3.373   1.250   0.417  0.4140  0.9539 -1.1535
  208SOL    MW4  905   3.435   1.232   0.475 -0.1841  0.1839 -0.7375
  209SOL     OW  906   3.722   1.372   0.496 -0.0939  0.4351 -0.2179
  209SOL    HW2  907   3.644   1.324   0.470 -0.2270 -0.5853  2.0333
  209SOL    HW3  908   3.691   1.460   0.518 -0.3536  0.5117 -0.8766
  209SOL    MW4  909   3.708   1.377   0.495 -0.1457  0.3105 -0.0078
  210SOL     OW  910   3.509   2.462   0.489 -0.3407  0.0957 -0.6024
  210SOL    HW2  911   3.579   2.422   0.437  1.7555  3.2431 -0.2925
  210SOL    HW3  912   3.543   2.461   0.578 -1.3444  0.2997 -0.2163
  210SOL    MW4  913   3.523   2.456   0.494 -0.1967  0.5379 -0.5106
  211SOL     OW  914   3.907   2.583   0.308  0.2377  0.0532 -0.1070
  211SOL    HW2  915   3.947   2.662   0.272  0.6395  0.2275  0.6962
  211SOL    HW3  916   3.981   2.529   0.335 -0.0187 -0.9525 -1.3703
  211SOL    MW4  917   3.922   2.586   0.307  0.2568 -0.0565 -0.1677
  212SOL     OW  918   3.178   2.770   0.437  0.3495 -0.2620  0.4562
  212SOL    HW2  919   3.117   2.812   0.376 -0.6161  1.6126  2.6532
  212SOL    HW3  920   3.139   2.686   0.457 -0.8558  0.3909  0.8538
  212SOL    MW4  921   3.165   2.765   0.431  0.0629  0.0713  0.7986
  213SOL     OW  922   2.881   3.695   0.480  0.3433  0.0652  0.0813
  213SOL    HW2  923   2.899   3.764   0.417 -0.8036  1.5734  1.3621
  213SOL    HW3  924   2.795   3.716   0.515  0.4119 -1.4556  1.2225
  213SOL    MW4  925   2.872   3.707   0.477  0.2012  0.0634  0.4009
  214SOL     OW  926   3.067   3.034   0.382 -0.4494  0.3346 -0.2360
  214SOL    HW2  927   3.003   2.989   0.438 -1.5326  1.2868 -0.6891
  214SOL    HW3  928   3.151   2.998   0.409 -1.0643 -0.0622  1.2175
  214SOL    MW4  929   3.070   3.023   0.393 -0.6735  0.4079 -0.1040
  215SOL     OW  930   4.088   2.827   0.336  0.3987 -0.0537  0.2488
  215SOL    HW2  931   4.036   2.814   0.416 -0.4720  0.4449 -0.2224
  215SOL    HW3  932   4.172   2.861   0.367 -0.0185  0.3700  0.9414
  215SOL    MW4  933   4.092   2.830   0.350  0.2289  0.0679  0.2780
  216SOL     OW  934   3.769   3.104   0.294  0.2095  0.2445  0.3857
  216SOL    HW2  935   3.716   3.052   0.233 -0.3457  1.6070 -0.3227
  216SOL    HW3  936   3.755   3.062   0.379 -0.5587 -0.5193 -0.1016
  216SOL    MW4  937   3.760   3.092   0.297  0.0348  0.3235  0.2279
  217SOL     OW  938   3.926   3.935   0.431  0.4296 -0.6077 -0.2571
  217SOL    HW2  939   3.867   3.864   0.457  2.1430 -1.5600  1.1862
  217SOL    HW3  940   4.002   3.890   0.395  1.2081  0.5362 -0.0480
  217SOL    MW4  941   3.928   3.920   0.429  0.7584 -0.5822 -0.0391
  218SOL     OW  942   3.313   2.252   0.473  0.0375 -0.3095 -0.0387
  218SOL    HW2  943   3.345   2.341   0.464  0.5938 -0.7321 -2.5284
  218SOL    HW3  944   3.254   2.255   0.548  0.0006  2.1582 -0.1409
  218SOL    MW4  945   3.309   2.264   0.482  0.1059 -0.0396 -0.3807
  219SOL     OW  946   3.416   3.731   0.514  0.1187 -0.1964 -0.2321
  219SOL    HW2  947   3.389   3.656   0.460 -1.4310  0.3697 -0.2557
  219SOL    HW3  948   3.400   3.702   0.604  0.0241 -0.0891 -0.2148
  219SOL    MW4  949   3.410   3.717   0.518 -0.0982 -0.1078 -0.2330
  220SOL     OW  950   4.151   3.777   0.382  0.8658  0.1395  0.2722
  220SOL    HW2  951   4.136   3.683   0.372  0.3166  0.2415  0.1003
  220SOL    HW3  952   4.230   3.794   0.330  0.9279 -0.2149  0.2479
  220SOL    MW4  953   4.159   3.766   0.374  0.8016  0.1063  0.2463
  221SOL     OW  954   3.361   4.331   0.388  0.0866  0.5829  0.1321
  221SOL    HW2  955   3.416   4.402   0.421  0.5327 -0.1652  1.0196
  221SOL    HW3  956   3.403   4.305   0.305  1.3149 -0.2489  1.0015
  221SOL    MW4  957   3.374   4.337   0.381  0.3076  0.3743  0.3639
  222SOL     OW  958   3.914   4.292   0.525 -0.4733  0.2186  0.1750
  222SOL    HW2  959   3.832   4.258   0.488 -1.0024  1.3852  0.2428
  222SOL    HW3  960   3.887   4.333   0.608  0.0913  1.0907 -0.0720
  222SOL    MW4  961   3.899   4.293   0.531 -0.4685  0.4873  0.1513
  223SOL     OW  962   0.081   0.072   0.440  0.3444 -0.0503 -0.1311
  223SOL    HW2  963   0.106  -0.014   0.408 -0.5804  0.1765 -1.5066
  223SOL    HW3  964   0.056   0.058   0.531 -0.6698 -1.3981 -0.6045
  223SOL    MW4  965   0.081   0.059   0.447  0.0886 -0.1983 -0.3751
  224SOL     OW  966   3.840   0.733   0.500 -0.1093 -0.2204 -0.0431
  224SOL    HW2  967   3.772   0.784   0.456 -1.6478 -0.6718  1.7536
  224SOL    HW3  968   3.805   0.644   0.504  1.8177 -1.0850 -1.6014
  224SOL    MW4  969   3.826   0.728   0.494 -0.0577 -0.3940 -0.0116
  225SOL     OW  970   4.445   1.438   0.505  0.3896  0.2095  0.3973
  225SOL    HW2  971   4.362   1.390   0.507  0.5994 -0.2924 -1.5134
  225SOL    HW3  972   4.424   1.519   0.457  0.9196  0.2264  0.1947
  225SOL    MW4  973   4.431   1.443   0.499  0.4869  0.1454  0.1185
  226SOL     OW  974   4.366   0.232   0.305 -0.4484  0.4618  0.2527
  226SOL    HW2  975   4.403   0.275   0.228 -1.5710  0.5813 -0.2397
  226SOL    HW3  976   4.440   0.192   0.349  0.2167  0.4960 -0.8310
  226SOL    MW4  977   4.380   0.233   0.301 -0.5088  0.4821  0.0447
  227SOL     OW  978   4.258   1.001   0.492  0.7699 -0.2009  0.3772
  227SOL    HW2  979   4.229   0.990   0.401 -1.5954 -1.3053  1.2117
  227SOL    HW3  980   4.231   1.089   0.516 -0.4726 -0.6385  0.6277
  227SOL    MW4  981   4.250   1.011   0.483  0.2937 -0.4042  0.5203
  228SOL     OW  982   3.563   4.307   0.200 -0.0601 -0.1096 -0.3486
  228SOL    HW2  983   3.633   4.274   0.258 -0.6459 -1.6906 -0.5061
  228SOL    HW3  984   3.594   4.286   0.112 -0.2140  0.2180 -0.4781
  228SOL    MW4  985   3.576   4.300   0.196 -0.1576 -0.2756 -0.3865
  229SOL     OW  986   4.307   1.008   0.864 -0.5807 -0.3666 -0.3566
  229SOL    HW2  987   4.272   1.000   0.953  0.9364 -0.0545  0.2977
  229SOL    HW3  988   4.359   1.089   0.867 -0.1133 -0.6259 -1.3883
  229SOL    MW4  989   4.309   1.018   0.876 -0.3185 -0.3595 -0.4064
  230SOL     OW  990   0.004   0.957   0.355 -0.0675  0.1929 -0.0104
  230SOL    HW2  991  -0.058   0.987   0.421  1.2239  0.0821  1.2982
  230SOL    HW3  992   0.089   0.987   0.387  0.5503  0.3620 -1.7750
  230SOL    MW4  993   0.007   0.965   0.368  0.1843  0.2006 -0.0705
  231SOL     OW  994   3.937   2.208   0.468  0.4470 -0.0228  0.3317
  231SOL    HW2  995   3.951   2.144   0.398 -0.1423 -1.9128  1.9027
  231SOL    HW3  996   3.996   2.280   0.446  0.4799 -0.6960 -1.9574
  231SOL    MW4  997   3.947   2.209   0.456  0.3734 -0.3607  0.2370
  232SOL     OW  998   4.137   1.872   0.357  0.2039  0.0061  0.1349
  232SOL    HW2  999   4.169   1.958   0.385 -0.0962  0.0673  0.2880
  232SOL    HW3 1000   4.057   1.891   0.308  0.4161 -0.1460 -0.2653
  232SOL    MW4 1001   4.131   1.886   0.354  0.1917 -0.0060  0.1023
  233SOL     OW 1002   4.322   2.079   0.539  0.0684 -0.1536 -0.2726
  233SOL    HW2 1003   4.334   2.173   0.537 -1.5598  0.0858  0.3986
  233SOL    HW3 1004   4.400   2.043   0.495  0.5585  1.4939 -0.7627
  233SOL    MW4 1005   4.334   2.086   0.533 -0.0820  0.0956 -0.2487
  234SOL     OW 1006   4.340   1.642   0.363  0.0493  0.2646 -0.0545
  234SOL    HW2 1007   4.270   1.705   0.377  0.0186  0.3856 -0.7578
  234SOL    HW3 1008   4.299   1.572   0.312  0.2578 -0.0036  0.1443
  234SOL    MW4 1009   4.325   1.641   0.358  0.0730  0.2452 -0.1211
  235SOL     OW 1010   4.389   2.362   0.508  0.0967  0.4340  0.3781
  235SOL    HW2 1011   4.460   2.387   0.449 -0.7296  1.9580  0.0101
  235SOL    HW3 1012   4.409   2.405   0.590  0.3646 -0.3297  0.7166
  235SOL    MW4 1013   4.401   2.371   0.511  0.0229  0.5343  0.3742
  236SOL     OW 1014   4.042   3.106   0.261  0.2055  0.3014  0.2033
  236SOL    HW2 1015   4.059   3.013   0.273 -1.4004  0.0362  0.4296
  236SOL    HW3 1016   3.947   3.115   0.263  0.3483  2.0179  0.7258
  236SOL    MW4 1017   4.032   3.095   0.263  0.0124  0.4930  0.3021
  237SOL     OW 1018   4.103   2.432   0.455 -0.2929  0.1991 -0.3676
  237SOL    HW2 1019   4.086   2.463   0.544  0.2554 -3.8893  1.2693
  237SOL    HW3 1020   4.199   2.424   0.450 -0.4831 -2.6213 -0.1687
  237SOL    MW4 1021   4.114   2.435   0.466 -0.2456 -0.7124 -0.1254
  238SOL     OW 1022   0.205   3.640   0.440  0.2034 -0.1224 -0.5364
  238SOL    HW2 1023   0.153   3.716   0.416  1.3894  0.6758 -0.6218
  238SOL    HW3 1024   0.294   3.673   0.448  1.0484 -1.8363 -2.3316
  238SOL    MW4 1025   0.210   3.654   0.438  0.4713 -0.2432 -0.7845
  239SOL     OW 1026   4.313   3.496   0.170  0.5518 -0.2321  0.0116
  239SOL    HW2 1027   4.310   3.411   0.128 -0.3787  0.1119 -0.6398
  239SOL    HW3 1028   4.237   3.498   0.228 -0.9854  1.1436 -1.9648
  239SOL    MW4 1029   4.303   3.485   0.173  0.2255 -0.0052 -0.3351
  240SOL     OW 1030   0.749   3.302   0.321  0.1144  0.3073  0.4243
  240SOL    HW2 1031   0.703   3.319   0.238  1.1042 -0.0516 -0.2005
  240SOL    HW3 1032   0.743   3.385   0.368  2.3246  1.5453 -1.3609
  240SOL    MW4 1033   0.742   3.316   0.316  0.5366  0.4237  0.1063
  241SOL     OW 1034   3.839   3.503   0.466 -0.1715 -0.5958 -0.3221
  241SOL    HW2 1035   3.804   3.591   0.452  1.9899  0.3651  0.1096
  241SOL    HW3 1036   3.867   3.503   0.557  0.3082 -1.5680 -0.4687
  241SOL    MW4 1037   3.838   3.515   0.476  0.1769 -0.5975 -0.2845
  242SOL     OW 1038   4.167   3.222   0.495 -0.0886 -0.0261  0.4118
  242SOL    HW2 1039   4.117   3.211   0.576 -0.8759  0.9387  0.0605
  242SOL    HW3 1040   4.112   3.183   0.428 -0.4315  1.1507  0.0027
  242SOL    MW4 1041   4.153   3.215   0.497 -0.2379  0.2565  0.3115
  243SOL     OW 1042   4.448   4.114   0.526 -0.3419  0.4645 -0.2241
  243SOL    HW2 1043   4.357   4.088   0.510  0.6288 -1.5596 -2.6454
  243SOL    HW3 1044   4.465   4.086   0.616 -1.7911 -0.0692 -0.1061
  243SOL    MW4 1045   4.438   4.107   0.536 -0.4053  0.1268 -0.5281
  244SOL     OW 1046   4.142   4.061   0.555 -0.2954  0.1252  0.6404
  244SOL    HW2 1047   4.086   4.001   0.505  0.8339 -0.5910  0.2160
  244SOL    HW3 1048   4.095   4.145   0.551 -2.2508 -0.8637  1.8657
  244SOL    MW4 1049   4.128   4.064   0.548 -0.4039 -0.1001  0.7461
  245SOL     OW 1050   3.725   4.158   0.394  0.0051 -0.2968  0.4339
  245SOL    HW2 1051   3.640   4.131   0.431  0.8140 -1.6858  1.3177
  245SOL    HW3 1052   3.772   4.076   0.381  0.7139  0.3764 -1.3314
  245SOL    MW4 1053   3.720   4.144   0.397  0.2053 -0.3915  0.3176
  246SOL     OW 1054   4.101   4.480   0.439  0.5531  0.2574  0.0236
  246SOL    HW2 1055   4.180   4.427   0.444  0.5635  0.1492 -1.2263
  246SOL    HW3 1056   4.030   4.416   0.427  0.2797  0.3615  1.0021
  246SOL    MW4 1057   4.102   4.464   0.438  0.5188  0.2565 -0.0122
  247SOL     OW 1058   0.259   0.025   0.843  0.2229  0.0833 -0.3709
  247SOL    HW2 1059   0.280  -0.065   0.817  1.5321  0.4558 -0.6467
  247SOL    HW3 1060   0.173   0.041   0.804 -0.0264 -1.0440 -0.3137
  247SOL    MW4 1061   0.250   0.015   0.834  0.3628 -0.0163 -0.3997
  248SOL     OW 1062   0.029   0.101   0.706 -0.2087 -0.4823  0.2354
  248SOL    HW2 1063  -0.046   0.062   0.751 -0.3371 -0.6747 -0.1460
  248SOL    HW3 1064   0.031   0.191   0.738  0.6989 -1.0596  1.8999
  248SOL    MW4 1065   0.020   0.108   0.716 -0.1059 -0.5838  0.4047
  249SOL     OW 1066   0.025   0.363   0.835 -0.4684  0.2231  0.1951
  249SOL    HW2 1067   0.021   0.367   0.930  1.1568  0.9241  0.2528
  249SOL    HW3 1068   0.108   0.406   0.812 -0.9753  0.3290 -1.5468
  249SOL    MW4 1069   0.036   0.369   0.844 -0.3209  0.3295 -0.0272
  250SOL     OW 1070   0.256   0.490   0.737 -0.4640  0.0304  0.3004
  250SOL    HW2 1071   0.331   0.449   0.779 -0.9540 -0.2677  0.8767
  250SOL    HW3 1072   0.257   0.581   0.769 -0.0736  0.1597 -0.0659
  250SOL    MW4 1073   0.266   0.497   0.747 -0.4771  0.0081  0.3282
  251SOL     OW 1074   0.249   0.775   0.815  0.0436  0.0279 -0.3163
  251SOL    HW2 1075   0.231   0.774   0.909  1.3698 -0.6121 -0.0591
  251SOL    HW3 1076   0.196   0.847   0.782  0.8853  1.3692  1.1883
  251SOL    MW4 1077   0.239   0.784   0.823  0.3296  0.1204 -0.0839
  252SOL     OW 1078   4.408   0.743   0.690 -0.9814 -0.0217  0.1187
  252SOL    HW2 1079   4.459   0.719   0.612 -0.8880  0.0548  0.1558
  252SOL    HW3 1080   4.380   0.659   0.727  0.6204 -0.1502  1.1012
  252SOL    MW4 1081   4.411   0.728   0.684 -0.7577 -0.0287  0.2533
  253SOL     OW 1082   0.086   0.967   0.699  0.1651 -0.2724 -0.3806
  253SOL    HW2 1083   0.061   1.040   0.756  0.5338  0.2210 -0.8539
  253SOL    HW3 1084   0.023   0.898   0.720  0.5867 -0.2666  0.9833
  253SOL    MW4 1085   0.075   0.968   0.709  0.2694 -0.2066 -0.2631
  254SOL     OW 1086   0.217   1.076   0.470 -0.5886  0.2358  0.7284
  254SOL    HW2 1087   0.305   1.037   0.475 -1.4975 -2.0609 -0.6222
  254SOL    HW3 1088   0.176   1.052   0.553 -0.1137  0.9090  1.1630
  254SOL    MW4 1089   0.223   1.068   0.482 -0.6458  0.0216  0.6075
  255SOL     OW 1090   0.218   1.330   0.723 -0.2479  0.0799 -0.3699
  255SOL    HW2 1091   0.177   1.414   0.743 -0.8015  0.2418 -2.0700
  255SOL    HW3 1092   0.217   1.325   0.627 -1.4046 -2.4319 -0.2625
  255SOL    MW4 1093   0.212   1.341   0.713 -0.4735 -0.2301 -0.5800
  256SOL     OW 1094   0.021   1.536   0.759 -0.4399 -0.1540  0.2664
  256SOL    HW2 1095  -0.042   1.510   0.826 -1.9755 -0.7118 -1.3458
  256SOL    HW3 1096  -0.007   1.488   0.680  0.2398  1.8555 -1.2261
  256SOL    MW4 1097   0.009   1.526   0.757 -0.5527  0.0374 -0.1433
  257SOL     OW 1098   0.002   1.933   0.896 -0.1960  0.1980 -0.3993
  257SOL    HW2 1099   0.093   1.947   0.871 -0.2831 -0.6900 -1.2646
  257SOL    HW3 1100  -0.029   1.867   0.834 -0.7518 -1.2181  1.3502
  257SOL    MW4 1101   0.010   1.926   0.885 -0.2809 -0.1060 -0.2826
  258SOL     OW 1102   0.243   2.064   0.758 -0.2903  0.0241 -0.0472
  258SOL    HW2 1103   0.209   2.150   0.733 -1.4870 -0.4413 -0.0500
  258SOL    HW3 1104   0.252   2.016   0.675  0.2942  0.1113 -0.0381
  258SOL    MW4 1105   0.240   2.069   0.744 -0.3711 -0.0257 -0.0463
  259SOL     OW 1106   0.187   2.345   0.838 -0.6095  0.9280  0.3261
  259SOL    HW2 1107   0.193   2.321   0.930 -0.1344  0.6762  0.2350
  259SOL    HW3 1108   0.268   2.395   0.821 -0.7266  1.0301  0.0651
  259SOL    MW4 1109   0.199   2.349   0.848 -0.5623  0.9081  0.2795
  260SOL     OW 1110   4.453   2.478   0.750 -0.1219 -0.3665  0.4453
  260SOL    HW2 1111   4.396   2.449   0.822  0.5977 -0.4996  0.9673
  260SOL    HW3 1112   4.539   2.441   0.771 -0.2359 -1.6642 -1.2758
  260SOL    MW4 1113   4.457   2.470   0.762 -0.0420 -0.5555  0.2871
  261SOL     OW 1114   4.480   2.747   0.815  0.4950 -0.1671  0.0582
  261SOL    HW2 1115   4.477   2.742   0.910 -0.3700 -1.3111 -0.0224
  261SOL    HW3 1116   4.495   2.657   0.786  2.9149  0.4603 -0.8312
  261SOL    MW4 1117   4.482   2.735   0.824  0.7000 -0.2353 -0.0698
  262SOL     OW 1118   0.233   2.853   0.736 -0.0944  0.6338 -0.0407
  262SOL    HW2 1119   0.150   2.808   0.752  0.7619 -0.4766  1.3683
  262SOL    HW3 1120   0.265   2.815   0.654  0.2704 -0.8436  0.7605
  262SOL    MW4 1121   0.227   2.842   0.727  0.0667  0.2928  0.2509
  263SOL     OW 1122   0.265   3.121   0.821  0.0982 -0.1366  0.1076
  263SOL    HW2 1123   0.267   3.118   0.916 -0.4351 -1.4001  0.0941
  263SOL    HW3 1124   0.243   3.031   0.795 -1.6934  0.6334 -1.1298
  263SOL    MW4 1125   0.262   3.108   0.830 -0.2086 -0.2019 -0.0575
  264SOL     OW 1126   0.019   3.232   0.763  0.5018 -0.3166  0.5142
  264SOL    HW2 1127   0.097   3.200   0.808  0.6280 -1.3067 -0.4013
  264SOL    HW3 1128   0.027   3.199   0.674 -0.3176  0.6732  0.0676
  264SOL    MW4 1129   0.030   3.223   0.757  0.4101 -0.3166  0.3344
  265SOL     OW 1130   4.473   3.519   0.789  0.2390  0.0852 -0.4524
  265SOL    HW2 1131   4.385   3.538   0.757  0.1203  0.5906  0.1563
  265SOL    HW3 1132   4.488   3.428   0.764 -1.2838 -0.6709  1.2377
  265SOL    MW4 1133   4.463   3.509   0.782  0.0224  0.0522 -0.1491
  266SOL     OW 1134   0.236   3.653   0.749  0.4726  0.0523 -0.5901
  266SOL    HW2 1135   0.151   3.619   0.776  1.3016 -0.8322  0.9862
  266SOL    HW3 1136   0.239   3.637   0.654 -0.8673 -0.4442 -0.5627
  266SOL    MW4 1137   0.225   3.646   0.740  0.4052 -0.1299 -0.3785
  267SOL     OW 1138   0.301   3.908   0.833 -0.1380 -0.0565  0.7993
  267SOL    HW2 1139   0.283   3.905   0.927  0.5724 -0.8251  0.9196
  267SOL    HW3 1140   0.275   3.822   0.801  0.9906 -0.3232  0.5549
  267SOL    MW4 1141   0.295   3.896   0.842  0.1046 -0.1931  0.7830
  268SOL     OW 1142   0.040   4.004   0.765 -0.2416  0.1403 -0.2008
  268SOL    HW2 1143  -0.015   3.927   0.782 -0.3372  0.4675  1.0441
  268SOL    HW3 1144   0.127   3.978   0.795 -0.1739  0.3591 -0.2107
  268SOL    MW4 1145   0.044   3.990   0.771 -0.2453  0.2127 -0.0378
  269SOL     OW 1146   0.073   4.285   0.847  0.1802  0.0026 -0.1502
  269SOL    HW2 1147   0.049   4.285   0.940 -2.1618  0.9427 -0.7234
  269SOL    HW3 1148   0.066   4.193   0.821 -0.4589 -0.0708  0.2729
  269SOL    MW4 1149   0.069   4.273   0.856 -0.2131  0.1173 -0.1700
  270SOL     OW 1150   0.307   4.445   0.774 -0.0579  0.0731  0.1824
  270SOL    HW2 1151   0.221   4.404   0.774 -0.0335  0.0003 -0.7705
  270SOL    HW3 1152   0.334   4.443   0.682  0.4486  1.1542  0.2987
  270SOL    MW4 1153   0.299   4.439   0.762  0.0121  0.2060  0.0720
  271SOL     OW 1154   0.684   0.008   0.810  0.1331 -0.3196 -0.4518
  271SOL    HW2 1155   0.676   0.015   0.905 -0.4282 -0.3374 -0.4934
  271SOL    HW3 1156   0.602   0.044   0.777 -0.8120 -2.7125 -0.8409
  271SOL    MW4 1157   0.672   0.014   0.818 -0.0657 -0.6377 -0.5087
  272SOL     OW 1158   0.455   0.146   0.707 -0.0387  0.3064 -0.0432
  272SOL    HW2 1159   0.380   0.098   0.741  0.7939 -0.6526  0.4685
  272SOL    HW3 1160   0.466   0.113   0.618  0.6071 -0.5567  0.3493
  272SOL    MW4 1161   0.447   0.135   0.700  0.1564  0.0660  0.0761
  273SOL     OW 1162   0.469   0.373   0.856  0.4252 -0.3449  0.1077
  273SOL    HW2 1163   0.554   0.410   0.832  0.9540 -0.1771  2.1438
  273SOL    HW3 1164   0.465   0.289   0.810  0.5139  0.8318 -2.1395
  273SOL    MW4 1165   0.479   0.367   0.846  0.5067 -0.1675  0.0799
  274SOL     OW 1166   0.685   0.532   0.769  0.4006  0.0248  0.4207
  274SOL    HW2 1167   0.757   0.488   0.814 -0.5392 -1.1990  0.7709
  274SOL    HW3 1168   0.722   0.559   0.685  1.1942 -0.8300  0.4857
  274SOL    MW4 1169   0.699   0.530   0.764  0.3814 -0.2494  0.4755
  275SOL     OW 1170   0.658   0.787   0.877 -0.4564  0.3737 -0.1771
  275SOL    HW2 1171   0.589   0.832   0.827 -0.0748 -0.2517 -1.2781
  275SOL    HW3 1172   0.666   0.702   0.835  0.0320 -0.0827  0.8315
  275SOL    MW4 1173   0.650   0.782   0.865 -0.3417  0.2310 -0.1893
  276SOL     OW 1174   0.457   0.928   0.752  0.2029 -0.0361 -0.2036
  276SOL    HW2 1175   0.468   1.010   0.799 -1.3954  0.2640 -0.3098
  276SOL    HW3 1176   0.369   0.897   0.777  0.1739 -0.9299 -1.3334
  276SOL    MW4 1177   0.447   0.935   0.762 -0.0118 -0.1144 -0.3666
  277SOL     OW 1178   0.423   1.200   0.868 -0.0284  0.1421  0.3272
  277SOL    HW2 1179   0.509   1.240   0.856  0.3893 -0.4608  1.2914
  277SOL    HW3 1180   0.363   1.255   0.818  1.0355  0.1297 -0.9785
  277SOL    MW4 1181   0.426   1.212   0.860  0.1671  0.0609  0.2822
  278SOL     OW 1182   0.674   1.312   0.818  0.0450  0.3753  0.0346
  278SOL    HW2 1183   0.664   1.407   0.813 -0.1523  0.3086 -0.9664
  278SOL    HW3 1184   0.706   1.287   0.731  0.2351 -0.4538  0.3414
  278SOL    MW4 1185   0.677   1.322   0.806  0.0440  0.2571 -0.0570
  279SOL     OW 1186   0.644   1.582   0.866  0.4295 -0.2618 -0.1902
  279SOL    HW2 1187   0.654   1.588   0.961 -1.0398 -0.7276  0.0079
  279SOL    HW3 1188   0.550   1.590   0.851  0.5710 -0.9371 -1.5480
  279SOL    MW4 1189   0.633   1.584   0.877  0.2544 -0.4122 -0.3432
  280SOL     OW 1190   0.352   1.614   0.859  0.2185 -0.3703  0.0343
  280SOL    HW2 1191   0.367   1.708   0.861  3.0250 -0.7675 -0.3855
  280SOL    HW3 1192   0.346   1.593   0.766 -1.1794 -0.5201  0.1459
  280SOL    MW4 1193   0.353   1.624   0.847  0.4043 -0.4425 -0.0064
  281SOL     OW 1194   0.414   1.881   0.882  0.4472  0.2430  0.2898
  281SOL    HW2 1195   0.440   1.916   0.967 -2.9933 -2.2110  2.4901
  281SOL    HW3 1196   0.353   1.946   0.847 -0.4415 -0.1416  1.0985
  281SOL    MW4 1197   0.410   1.894   0.889 -0.1240 -0.1315  0.6869
  282SOL     OW 1198   0.625   2.032   0.771 -0.2983 -0.3123  0.4871
  282SOL    HW2 1199   0.545   1.982   0.789 -0.6660 -0.0868 -0.4811
  282SOL    HW3 1200   0.664   1.988   0.695  0.2964 -0.1863  0.7171
  282SOL    MW4 1201   0.619   2.020   0.763 -0.2684 -0.2658  0.3897
  283SOL     OW 1202   0.609   2.304   0.856  0.2128  0.3395 -0.0157
  283SOL    HW2 1203   0.616   2.288   0.950 -1.5009  1.3136  0.3014
  283SOL    HW3 1204   0.601   2.217   0.818  0.6741 -0.0487  0.7519
  283SOL    MW4 1205   0.609   2.291   0.863  0.0476  0.4172  0.1274
  284SOL     OW 1206   0.422   2.456   0.753  0.2684 -0.2838  0.1788
  284SOL    HW2 1207   0.490   2.404   0.797 -0.1600 -0.0528  1.1361
  284SOL    HW3 1208   0.417   2.420   0.665 -0.8250 -2.6671  1.1615
  284SOL    MW4 1209   0.430   2.444   0.748  0.0676 -0.5677  0.4348
  285SOL     OW 1210   0.463   2.719   0.825 -0.3009 -0.5407  0.0271
  285SOL    HW2 1211   0.452   2.629   0.796 -0.0849 -0.4329 -0.3857
  285SOL    HW3 1212   0.387   2.765   0.790 -1.0638 -0.8135  1.2729
  285SOL    MW4 1213   0.451   2.713   0.817 -0.3731 -0.5624  0.1370
  286SOL     OW 1214   0.678   2.854   0.738  0.8093  0.0541  0.0142
  286SOL    HW2 1215   0.742   2.803   0.788 -1.7974 -2.3421  1.0306
  286SOL    HW3 1216   0.593   2.815   0.760 -0.8785  2.0842 -2.5612
  286SOL    MW4 1217   0.675   2.842   0.747  0.2427  0.0057 -0.1915
  287SOL     OW 1218   0.670   3.130   0.799  0.4906 -0.1040  0.3419
  287SOL    HW2 1219   0.601   3.179   0.755  0.4486 -1.6642 -1.3939
  287SOL    HW3 1220   0.662   3.041   0.765  1.5427 -0.9755  2.2709
  287SOL    MW4 1221   0.660   3.125   0.789  0.6238 -0.4249  0.3675
  288SOL     OW 1222   0.454   3.270   0.641  0.1471  0.4158 -0.3438
  288SOL    HW2 1223   0.484   3.360   0.657  1.2739 -0.0438  0.1467
  288SOL    HW3 1224   0.384   3.257   0.704  0.6294  0.6182  0.2354
  288SOL    MW4 1225   0.448   3.280   0.651  0.3594  0.3819 -0.2027
  289SOL     OW 1226   0.463   3.514   0.814 -0.1475 -0.2527  0.2185
  289SOL    HW2 1227   0.464   3.512   0.910 -0.4776  1.6506  0.2697
  289SOL    HW3 1228   0.383   3.561   0.792  0.0964 -0.4051 -1.0022
  289SOL    MW4 1229   0.452   3.520   0.824 -0.1589 -0.0217  0.0642
  290SOL     OW 1230   0.703   3.624   0.717 -0.1572 -0.5017 -0.0677
  290SOL    HW2 1231   0.626   3.583   0.757 -1.2114  1.4293 -0.0680
  290SOL    HW3 1232   0.708   3.710   0.757  2.2767 -0.7514  0.2247
  290SOL    MW4 1233   0.693   3.630   0.728  0.0249 -0.2797 -0.0291
  291SOL     OW 1234   0.676   3.899   0.788  0.5601 -0.1491  0.2248
  291SOL    HW2 1235   0.759   3.946   0.780  0.4094 -0.2093 -2.1641
  291SOL    HW3 1236   0.609   3.964   0.765  0.2322 -1.0536 -1.4768
  291SOL    MW4 1237   0.678   3.914   0.784  0.4970 -0.2766 -0.3148
  292SOL     OW 1238   0.485   4.062   0.702 -0.4407 -0.3898  0.0437
  292SOL    HW2 1239   0.492   4.146   0.747 -0.4380 -0.6435  0.5098
  292SOL    HW3 1240   0.416   4.015   0.749 -1.6913  0.0375 -1.2949
  292SOL    MW4 1241   0.477   4.067   0.714 -0.6053 -0.3672 -0.0714
  293SOL     OW 1242   0.553   4.304   0.826 -0.2782 -0.1358 -0.0847
  293SOL    HW2 1243   0.544   4.312   0.921 -0.3102  0.6540 -0.1573
  293SOL    HW3 1244   0.470   4.335   0.791  0.0267  0.3160 -0.4099
  293SOL    MW4 1245   0.541   4.309   0.834 -0.2423  0.0286 -0.1372
  294SOL     OW 1246   0.747   4.442   0.682 -0.0560  0.1842  0.5751
  294SOL    HW2 1247   0.685   4.377   0.715 -0.9045  0.9526  0.5421
  294SOL    HW3 1248   0.739   4.515   0.743  1.4484 -0.0328  1.0494
  294SOL    MW4 1249   0.737   4.443   0.694  0.0305  0.2575  0.6332
  295SOL     OW 1250   1.166   0.047   0.844 -0.3754 -0.1379 -0.0537
  295SOL    HW2 1251   1.226   0.102   0.795 -1.2651  1.0226  0.1295
  295SOL    HW3 1252   1.079   0.080   0.821 -0.8438 -0.2600  1.4706
  295SOL    MW4 1253   1.162   0.058   0.835 -0.5546 -0.0009  0.1715
  296SOL     OW 1254   0.914   0.144   0.755 -0.0610 -0.1711  0.1304
  296SOL    HW2 1255   0.908   0.225   0.806  0.0519 -0.6624  0.9190
  296SOL    HW3 1256   0.829   0.101   0.769 -0.2222 -0.0748 -0.4997
  296SOL    MW4 1257   0.902   0.149   0.764 -0.0673 -0.2232  0.1514
  297SOL     OW 1258   0.924   0.383   0.879 -0.2611 -0.3088 -0.4618
  297SOL    HW2 1259   0.946   0.377   0.972 -0.9007 -0.6486 -0.3326
  297SOL    HW3 1260   1.001   0.424   0.839  0.3945 -1.0077  0.0712
  297SOL    MW4 1261   0.937   0.388   0.886 -0.2590 -0.4458 -0.3745
  298SOL     OW 1262   1.137   0.573   0.783  0.1212 -0.0420  0.1525
  298SOL    HW2 1263   1.206   0.513   0.814  1.1064  0.9715 -0.0382
  298SOL    HW3 1264   1.152   0.579   0.688  0.5399  1.1388  0.2911
  298SOL    MW4 1265   1.148   0.566   0.774  0.3064  0.2475  0.1456
  299SOL     OW 1266   1.119   0.858   0.819 -0.1452 -0.1025  1.0217
  299SOL    HW2 1267   1.115   0.859   0.914  0.7815  0.0614  1.0644
  299SOL    HW3 1268   1.127   0.765   0.796  0.4294 -0.0896  1.1493
  299SOL    MW4 1269   1.120   0.846   0.828  0.0528 -0.0792  1.0441
  300SOL     OW 1270   0.868   0.941   0.757  0.1021  0.2857  0.3494
  300SOL    HW2 1271   0.952   0.903   0.782  0.4285  0.0795 -1.0397
  300SOL    HW3 1272   0.804   0.894   0.812  0.7476 -0.5497  0.4077
  300SOL    MW4 1273   0.871   0.929   0.768  0.2304  0.1483  0.1738
  301SOL     OW 1274   0.921   1.179   0.881 -0.2262  0.9959  0.1970
  301SOL    HW2 1275   0.917   1.088   0.849 -0.6699  1.1524 -0.2013
  301SOL    HW3 1276   0.839   1.218   0.850  0.3485  1.7718 -0.3500
  301SOL    MW4 1277   0.910   1.172   0.873 -0.2090  1.1188  0.0723
  302SOL     OW 1278   1.114   1.358   0.784 -0.2348 -0.6532 -0.3756
  302SOL    HW2 1279   1.047   1.297   0.816  0.6304 -1.7798 -0.6762
  302SOL    HW3 1280   1.083   1.382   0.697 -0.8870 -0.1981 -0.0196
  302SOL    MW4 1281   1.101   1.353   0.777 -0.2067 -0.7417 -0.3682
  303SOL     OW 1282   1.136   1.623   0.892  0.1234  0.0664  0.4078
  303SOL    HW2 1283   1.056   1.660   0.854  1.3462 -1.2194 -3.7264
  303SOL    HW3 1284   1.140   1.534   0.857  2.6196 -0.3864  1.7213
  303SOL    MW4 1285   1.126   1.616   0.882  0.6140 -0.1630  0.0357
  304SOL     OW 1286   0.875   1.702   0.775 -0.1040 -0.5610  0.1015
  304SOL    HW2 1287   0.867   1.791   0.809  0.7190 -0.3270 -0.2912
  304SOL    HW3 1288   0.797   1.657   0.806  0.2714 -0.1588  1.7072
  304SOL    MW4 1289   0.864   1.708   0.784  0.0541 -0.4772  0.2615
  305SOL     OW 1290   0.864   1.968   0.894 -0.2784 -0.0107  0.0908
  305SOL    HW2 1291   0.855   1.965   0.989 -2.1927 -0.3782 -0.0787
  305SOL    HW3 1292   0.775   1.987   0.862  0.0198 -1.4169 -1.6720
  305SOL    MW4 1293   0.851   1.970   0.902 -0.4916 -0.2447 -0.1642
  306SOL     OW 1294   1.095   2.055   0.784 -0.0199 -0.6260  0.1066
  306SOL    HW2 1295   1.079   2.148   0.803 -0.6544 -0.6074 -0.5057
  306SOL    HW3 1296   1.020   2.010   0.824  0.3415 -0.8858  0.4920
  306SOL    MW4 1297   1.083   2.061   0.792 -0.0558 -0.6580  0.0766
  307SOL     OW 1298   1.096   2.321   0.854  0.2407 -0.1547 -0.3012
  307SOL    HW2 1299   1.102   2.330   0.949  0.9371 -1.1726 -0.2459
  307SOL    HW3 1300   1.182   2.349   0.822 -0.1594  0.6721 -0.6736
  307SOL    MW4 1301   1.108   2.326   0.862  0.2797 -0.1798 -0.3430
  308SOL     OW 1302   0.864   2.450   0.810  0.3879  0.0170 -0.2522
  308SOL    HW2 1303   0.940   2.393   0.823  0.1561 -0.0383  0.8460
  308SOL    HW3 1304   0.789   2.393   0.825  0.1231  0.1438 -1.0508
  308SOL    MW4 1305   0.864   2.435   0.813  0.3223  0.0265 -0.2127
  309SOL     OW 1306   0.906   2.723   0.879  0.1363  0.0019  0.2927
  309SOL    HW2 1307   0.921   2.729   0.973  0.0086  1.1063  0.2486
  309SOL    HW3 1308   0.898   2.629   0.862  1.1762 -0.2667  1.2200
  309SOL    MW4 1309   0.907   2.712   0.889  0.2567  0.1121  0.4092
  310SOL     OW 1310   1.118   2.833   0.750 -0.2392  0.4762  0.5476
  310SOL    HW2 1311   1.044   2.798   0.801 -0.7057  0.2028 -0.2992
  310SOL    HW3 1312   1.097   2.810   0.659  0.1923  1.6435  0.1446
  310SOL    MW4 1313   1.105   2.825   0.745 -0.2438  0.5941  0.3827
  311SOL     OW 1314   1.135   3.112   0.828 -0.1372  0.0941  0.2819
  311SOL    HW2 1315   1.056   3.157   0.799 -0.0944 -1.0602 -1.7591
  311SOL    HW3 1316   1.128   3.024   0.791  1.8467 -0.1980  0.5059
  311SOL    MW4 1317   1.124   3.107   0.819  0.1303 -0.0968  0.0421
  312SOL     OW 1318   0.911   3.238   0.731  0.4722  0.1421 -0.0096
  312SOL    HW2 1319   0.906   3.326   0.767  0.6791  0.6316 -1.1280
  312SOL    HW3 1320   0.830   3.195   0.757 -0.0977  1.0172 -0.3422
  312SOL    MW4 1321   0.900   3.244   0.739  0.4244  0.3221 -0.2010
  313SOL     OW 1322   0.933   3.514   0.839  0.3710  0.1266  0.2603
  313SOL    HW2 1323   1.003   3.569   0.804  0.7457 -0.0893  0.6573
  313SOL    HW3 1324   0.853   3.548   0.800  0.7611  0.0217 -0.6394
  313SOL    MW4 1325   0.932   3.525   0.829  0.4719  0.0842  0.1940
  314SOL     OW 1326   1.153   3.655   0.742 -0.2085  0.0130  0.1900
  314SOL    HW2 1327   1.212   3.591   0.781 -1.1692 -0.5866  0.6939
  314SOL    HW3 1328   1.182   3.662   0.651 -0.4337 -1.5739 -0.0273
  314SOL    MW4 1329   1.164   3.647   0.735 -0.3649 -0.2754  0.2279
  315SOL     OW 1330   1.165   3.921   0.834 -0.3170 -0.2197  0.0475
  315SOL    HW2 1331   1.171   3.915   0.930 -0.2878 -1.0336 -0.0060
  315SOL    HW3 1332   1.179   3.832   0.803  0.9309  0.2529 -0.7885
  315SOL    MW4 1333   1.168   3.909   0.843 -0.1484 -0.2651 -0.0699
  316SOL     OW 1334   0.927   4.020   0.730  0.3102 -0.3177 -0.0944
  316SOL    HW2 1335   0.935   4.107   0.769  0.9729 -0.6993  0.6392
  316SOL    HW3 1336   0.997   3.969   0.771  0.3776 -1.0067 -1.0384
  316SOL    MW4 1337   0.938   4.025   0.740  0.4066 -0.4592 -0.1221
  317SOL     OW 1338   0.944   4.286   0.804  0.3019  0.2205 -0.0303
  317SOL    HW2 1339   1.024   4.338   0.797 -0.2640  1.1734  0.5351
  317SOL    HW3 1340   0.880   4.333   0.751 -0.1405 -0.0646  0.2508
  317SOL    MW4 1341   0.946   4.299   0.796  0.1689  0.3085  0.0814
  318SOL     OW 1342   1.166   4.454   0.767 -0.4366  0.0903  0.1906
  318SOL    HW2 1343   1.232   4.412   0.822 -0.2180  0.3016  0.0860
  318SOL    HW3 1344   1.168   4.546   0.793 -0.8250  0.0617  0.3245
  318SOL    MW4 1345   1.175   4.461   0.778 -0.4590  0.1144  0.1945
  319SOL     OW 1346   1.594   0.044   0.818  0.1596  0.5476 -0.2652
  319SOL    HW2 1347   1.573   0.062   0.910 -0.4790 -0.4128 -0.2156
  319SOL    HW3 1348   1.521   0.082   0.769 -1.1225 -1.6847 -0.1682
  319SOL    MW4 1349   1.581   0.051   0.824 -0.0938  0.1264 -0.2458
  320SOL     OW 1350   1.384   0.193   0.707 -0.0050 -0.2208  0.6181
  320SOL    HW2 1351   1.377   0.282   0.743 -1.5046  0.2430 -0.7776
  320SOL    HW3 1352   1.365   0.203   0.614  1.0680 -1.8287  0.2101
  320SOL    MW4 1353   1.381   0.206   0.699 -0.0614 -0.3718  0.3802
  321SOL     OW 1354   1.350   0.423   0.841 -0.1137  0.3597 -0.5046
  321SOL    HW2 1355   1.367   0.429   0.935 -0.2828  3.1233 -0.5930
  321SOL    HW3 1356   1.420   0.475   0.801  1.0040 -2.2515 -2.0513
  321SOL    MW4 1357   1.362   0.431   0.848  0.0114  0.3799 -0.7204
  322SOL     OW 1358   1.579   0.563   0.751 -0.0663  0.6641  0.0301
  322SOL    HW2 1359   1.564   0.650   0.790  0.5162  1.3272 -1.1884
  322SOL    HW3 1360   1.654   0.528   0.799 -0.8584  0.4586  1.1274
  322SOL    MW4 1361   1.587   0.570   0.762 -0.0941  0.7245  0.0142
  323SOL     OW 1362   1.540   0.812   0.896 -0.3559 -0.3643  0.4378
  323SOL    HW2 1363   1.620   0.858   0.870  0.4006 -1.1631  1.3185
  323SOL    HW3 1364   1.469   0.872   0.871  0.4622 -0.0562 -1.1959
  323SOL    MW4 1365   1.541   0.826   0.889 -0.1482 -0.4290  0.3384
  324SOL     OW 1366   1.359   0.978   0.777  0.5456 -0.0866  0.2203
  324SOL    HW2 1367   1.340   1.060   0.822  3.0216 -0.2685  1.6979
  324SOL    HW3 1368   1.275   0.931   0.777 -0.3733  1.4976  1.3385
  324SOL    MW4 1369   1.345   0.982   0.783  0.7509  0.0985  0.5628
  325SOL     OW 1370   1.350   1.222   0.906  0.6716  0.1514  0.0411
  325SOL    HW2 1371   1.427   1.266   0.871  0.9080  0.5937  1.1266
  325SOL    HW3 1372   1.277   1.278   0.879  0.9841  1.2945  1.5483
  325SOL    MW4 1373   1.350   1.235   0.898  0.7441  0.3607  0.3833
  326SOL     OW 1374   1.591   1.375   0.797  0.4276 -0.4592  0.0716
  326SOL    HW2 1375   1.587   1.466   0.827 -2.0333 -0.8944  1.1434
  326SOL    HW3 1376   1.556   1.377   0.709  1.1699 -0.2597 -0.2265
  326SOL    MW4 1377   1.586   1.387   0.790  0.2009 -0.4903  0.1737
  327SOL     OW 1378   1.571   1.628   0.906 -0.3197 -0.0379  0.4626
  327SOL    HW2 1379   1.563   1.645   1.000  0.6360  2.6888  0.0879
  327SOL    HW3 1380   1.495   1.670   0.867  1.2441  2.0902 -0.3367
  327SOL    MW4 1381   1.560   1.635   0.913  0.0128  0.6026  0.3079
  328SOL     OW 1382   1.358   1.756   0.776 -0.3460 -0.7606 -0.0678
  328SOL    HW2 1383   1.376   1.839   0.821 -1.3677  0.3138 -1.5992
  328SOL    HW3 1384   1.272   1.729   0.809 -1.2726  0.2250 -1.6086
  328SOL    MW4 1385   1.349   1.763   0.786 -0.6030 -0.4888 -0.4732
  329SOL     OW 1386   1.363   1.993   0.904 -0.3918 -0.1772 -0.0758
  329SOL    HW2 1387   1.355   1.988   0.999 -0.1076 -1.0640 -0.0928
  329SOL    HW3 1388   1.284   2.037   0.875 -0.0733  0.8902  0.6469
  329SOL    MW4 1389   1.352   1.998   0.913 -0.3124 -0.1534  0.0173
  330SOL     OW 1390   1.561   2.100   0.731  0.5360 -0.2975 -0.2778
  330SOL    HW2 1391   1.495   2.066   0.791  0.4966  0.0295 -0.1331
  330SOL    HW3 1392   1.511   2.149   0.666  0.6721  0.3197  0.0829
  330SOL    MW4 1393   1.545   2.102   0.731  0.5487 -0.1729 -0.2111
  331SOL     OW 1394   1.608   2.331   0.873 -0.1086 -0.6458  0.3934
  331SOL    HW2 1395   1.522   2.369   0.856  0.4806 -0.1114 -1.4503
  331SOL    HW3 1396   1.605   2.244   0.834  0.0284 -0.8071  0.7392
  331SOL    MW4 1397   1.597   2.325   0.866 -0.0128 -0.5968  0.1958
  332SOL     OW 1398   1.368   2.439   0.820  0.0958  0.5604  0.0625
  332SOL    HW2 1399   1.371   2.534   0.822  1.3862  0.5688 -1.1803
  332SOL    HW3 1400   1.375   2.417   0.727  0.8161 -0.7799  0.4252
  332SOL    MW4 1401   1.369   2.449   0.808  0.3611  0.3843 -0.0536
  333SOL     OW 1402   1.357   2.726   0.828  0.2662  0.2620 -0.0616
  333SOL    HW2 1403   1.361   2.728   0.924  1.0095 -0.4110 -0.0770
  333SOL    HW3 1404   1.270   2.761   0.807 -0.1248 -0.1316  0.8815
  333SOL    MW4 1405   1.346   2.731   0.838  0.3127  0.1211  0.0609
  334SOL     OW 1406   1.603   2.834   0.750  0.1559 -0.3865  0.1669
  334SOL    HW2 1407   1.609   2.919   0.793  0.2996 -0.2833 -0.0528
  334SOL    HW3 1408   1.515   2.803   0.770  0.4258 -0.5986  1.0073
  334SOL    MW4 1409   1.593   2.841   0.758  0.2105 -0.4008  0.2488
  335SOL     OW 1410   1.592   3.097   0.846  0.1171  0.4838  0.2555
  335SOL    HW2 1411   1.593   3.098   0.941  0.4685 -1.0614  0.2674
  335SOL    HW3 1412   1.517   3.153   0.822 -0.0477  0.7651  1.4211
  335SOL    MW4 1413   1.582   3.105   0.855  0.1416  0.3171  0.4109
  336SOL     OW 1414   1.372   3.258   0.752  0.3193 -0.5689 -0.2942
  336SOL    HW2 1415   1.294   3.208   0.777 -2.0832  2.8875 -0.5470
  336SOL    HW3 1416   1.376   3.251   0.657  0.0261 -0.3591 -0.3234
  336SOL    MW4 1417   1.362   3.250   0.743 -0.0364 -0.0851 -0.3314
  337SOL     OW 1418   1.380   3.526   0.821  0.0885  0.0049 -0.2889
  337SOL    HW2 1419   1.449   3.589   0.797  1.0978 -0.9034  0.1617
  337SOL    HW3 1420   1.412   3.442   0.788 -1.1829 -0.2985 -0.7573
  337SOL    MW4 1421   1.394   3.523   0.814  0.0540 -0.1550 -0.2912
  338SOL     OW 1422   1.588   3.679   0.737 -0.8221 -0.2416  0.1021
  338SOL    HW2 1423   1.656   3.619   0.768  0.0534 -0.0879 -1.4686
  338SOL    HW3 1424   1.594   3.674   0.641 -0.5448  2.5462 -0.0594
  338SOL    MW4 1425   1.598   3.671   0.728 -0.6700  0.1464 -0.1264
  339SOL     OW 1426   1.586   3.961   0.811 -0.3885 -0.0622  0.3745
  339SOL    HW2 1427   1.504   4.006   0.786 -0.3884  0.3415  1.0992
  339SOL    HW3 1428   1.577   3.874   0.773 -0.2357  0.6591 -1.3663
  339SOL    MW4 1429   1.574   3.955   0.803 -0.3682  0.0861  0.2405
  340SOL     OW 1430   1.363   4.085   0.722 -0.1004  0.0980 -0.1175
  340SOL    HW2 1431   1.295   4.026   0.754  0.5485 -1.5263 -1.6570
  340SOL    HW3 1432   1.356   4.081   0.626  0.8333  1.4918 -0.2688
  340SOL    MW4 1433   1.353   4.077   0.713  0.1084  0.0677 -0.3406
  341SOL     OW 1434   1.380   4.312   0.878  0.4452  0.2152  0.0440
  341SOL    HW2 1435   1.459   4.361   0.857  1.0350 -0.4089  0.7624
  341SOL    HW3 1436   1.382   4.237   0.819  1.7360 -1.1617  1.7699
  341SOL    MW4 1437   1.391   4.309   0.868  0.6932 -0.0491  0.3665
  342SOL     OW 1438   1.601   4.439   0.760 -0.2456  0.4458  0.0205
  342SOL    HW2 1439   1.686   4.399   0.778 -0.7047 -0.6546 -0.2061
  342SOL    HW3 1440   1.605   4.524   0.803  0.8989  0.3267  0.1733
  342SOL    MW4 1441   1.613   4.445   0.768 -0.1553  0.2851  0.0108
  343SOL     OW 1442   2.025   0.054   0.793  0.3154  0.0056  0.2607
  343SOL    HW2 1443   2.113   0.091   0.804  0.2699  0.3011 -0.3961
  343SOL    HW3 1444   2.039  -0.030   0.750  0.3860 -0.5918  1.4087
  343SOL    MW4 1445   2.038   0.048   0.789  0.3188 -0.0342  0.3255
  344SOL     OW 1446   1.808   0.207   0.708  0.1562  1.0265  0.0770
  344SOL    HW2 1447   1.887   0.165   0.743  0.2192 -1.2590 -2.6153
  344SOL    HW3 1448   1.736   0.161   0.750  0.2383  1.1663  0.3725
  344SOL    MW4 1449   1.809   0.195   0.718  0.1755  0.7434 -0.2392
  345SOL     OW 1450   1.819   0.449   0.832  0.3519 -0.2205 -0.0682
  345SOL    HW2 1451   1.823   0.372   0.775 -1.2755 -0.1213 -0.3595
  345SOL    HW3 1452   1.902   0.494   0.817  0.0912 -0.3479 -2.1767
  345SOL    MW4 1453   1.830   0.445   0.822  0.1029 -0.2241 -0.3849
  346SOL     OW 1454   2.031   0.611   0.734 -0.7266  0.2509  0.3220
  346SOL    HW2 1455   2.103   0.550   0.715 -1.0173 -0.2393  0.7849
  346SOL    HW3 1456   1.999   0.638   0.648  0.0920  0.5685  0.1090
  346SOL    MW4 1457   2.037   0.606   0.720 -0.6568  0.2281  0.3549
  347SOL     OW 1458   2.031   0.813   0.914 -0.0500  0.0638 -0.2614
  347SOL    HW2 1459   2.098   0.868   0.873 -0.3318  0.7746  0.2172
  347SOL    HW3 1460   2.023   0.737   0.856  1.7797 -0.4461  0.1220
  347SOL    MW4 1461   2.039   0.810   0.901  0.1543  0.0903 -0.1477
  348SOL     OW 1462   1.806   0.932   0.845 -0.4270  0.0085 -0.3923
  348SOL    HW2 1463   1.803   1.022   0.878  1.6776 -0.0705  0.0785
  348SOL    HW3 1464   1.882   0.893   0.888 -1.1862 -1.9486 -0.7616
  348SOL    MW4 1465   1.815   0.939   0.855 -0.2494 -0.2601 -0.3789
  349SOL     OW 1466   1.786   1.208   0.908  0.3923 -0.6820  0.1856
  349SOL    HW2 1467   1.867   1.248   0.877 -0.1856 -1.6557 -2.7402
  349SOL    HW3 1468   1.717   1.256   0.862 -0.6806 -0.4020  2.0319
  349SOL    MW4 1469   1.788   1.219   0.898  0.1745 -0.7735  0.0433
  350SOL     OW 1470   2.001   1.332   0.809 -0.1118  0.1977  0.2321
  350SOL    HW2 1471   2.072   1.276   0.841  0.1146  0.6269  0.4871
  350SOL    HW3 1472   1.991   1.306   0.717 -1.3827 -1.6825  0.8672
  350SOL    MW4 1473   2.009   1.321   0.801 -0.2496  0.0062  0.3496
  351SOL     OW 1474   2.028   1.589   0.899  0.1597 -0.2597 -0.2431
  351SOL    HW2 1475   2.110   1.591   0.850  1.3171 -1.2995  1.6005
  351SOL    HW3 1476   1.992   1.502   0.883  0.2674 -0.4056  0.2789
  351SOL    MW4 1477   2.034   1.578   0.891  0.3269 -0.4162  0.0690
  352SOL     OW 1478   1.806   1.729   0.788  0.0748 -0.5475 -0.2859
  352SOL    HW2 1479   1.885   1.691   0.826  0.2205 -0.1406 -0.1905
  352SOL    HW3 1480   1.734   1.681   0.831  0.2431 -0.2571  0.3212
  352SOL    MW4 1481   1.807   1.717   0.799  0.1162 -0.4556 -0.1932
  353SOL     OW 1482   1.795   1.987   0.859 -0.3953  0.0354  0.1503
  353SOL    HW2 1483   1.813   1.895   0.841 -1.0213  0.1598 -1.1348
  353SOL    HW3 1484   1.716   2.007   0.809 -1.0929  0.8976  1.5490
  353SOL    MW4 1485   1.787   1.978   0.850 -0.5701  0.1655  0.1653
  354SOL     OW 1486   2.042   2.074   0.800 -0.0991  0.3867 -0.2163
  354SOL    HW2 1487   2.043   2.166   0.829 -1.8884  0.2493  0.3565
  354SOL    HW3 1488   1.959   2.040   0.832 -0.7559 -0.6538 -2.8459
  354SOL    MW4 1489   2.031   2.082   0.808 -0.4218  0.2313 -0.4877
  355SOL     OW 1490   2.029   2.325   0.880  0.1790  0.0877  0.1018
  355SOL    HW2 1491   2.026   2.335   0.975 -1.8434  1.0744 -0.0499
  355SOL    HW3 1492   1.956   2.377   0.848  1.8723  1.1664 -2.1392
  355SOL    MW4 1493   2.019   2.333   0.888  0.1357  0.3600 -0.2138
  356SOL     OW 1494   1.809   2.480   0.756 -0.3554  0.1095 -0.2949
  356SOL    HW2 1495   1.738   2.427   0.791  0.0908  0.6964  1.5587
  356SOL    HW3 1496   1.771   2.525   0.681 -1.7344 -0.1673  0.2214
  356SOL    MW4 1497   1.795   2.479   0.751 -0.4784  0.1504  0.0178
  357SOL     OW 1498   1.821   2.716   0.894  0.1375 -0.4302 -0.0946
  357SOL    HW2 1499   1.828   2.636   0.841 -0.3453 -0.1812 -0.5395
  357SOL    HW3 1500   1.731   2.745   0.881  0.9865  1.4918 -1.7835
  357SOL    MW4 1501   1.810   2.709   0.885  0.1857 -0.1438 -0.3762
  358SOL     OW 1502   1.999   2.822   0.719 -0.0776  0.0405  0.2190
  358SOL    HW2 1503   2.075   2.782   0.761  0.1670 -1.1972 -1.3174
  358SOL    HW3 1504   1.924   2.784   0.765  0.2019 -0.6266  0.1355
  358SOL    MW4 1505   1.999   2.811   0.730 -0.0085 -0.2108  0.0052
  359SOL     OW 1506   2.010   3.109   0.832 -0.2087  0.0283  0.1272
  359SOL    HW2 1507   1.937   3.159   0.796  0.3532  0.2722 -0.6996
  359SOL    HW3 1508   1.998   3.021   0.797 -0.2361  0.0159  0.1688
  359SOL    MW4 1509   1.999   3.104   0.822 -0.1380  0.0589  0.0236
  360SOL     OW 1510   1.791   3.273   0.725 -0.3537 -0.3327  0.3853
  360SOL    HW2 1511   1.725   3.206   0.742 -0.2510 -0.8310 -1.1343
  360SOL    HW3 1512   1.810   3.265   0.632  0.3461  1.1891  0.3831
  360SOL    MW4 1513   1.785   3.263   0.715 -0.2477 -0.1979  0.1845
  361SOL     OW 1514   1.796   3.527   0.824  0.2304 -0.0610 -0.3771
  361SOL    HW2 1515   1.807   3.516   0.918 -1.6427 -1.0787 -0.2577
  361SOL    HW3 1516   1.804   3.439   0.788 -3.0326 -0.3033 -0.6929
  361SOL    MW4 1517   1.798   3.514   0.832 -0.4474 -0.2272 -0.4030
  362SOL     OW 1518   2.041   3.671   0.723 -0.2477  0.1617 -0.2114
  362SOL    HW2 1519   2.051   3.760   0.756  0.7371  0.4398 -1.2560
  362SOL    HW3 1520   1.960   3.640   0.764 -0.5180  1.4757  0.2780
  362SOL    MW4 1521   2.032   3.679   0.733 -0.1533  0.3719 -0.2846
  363SOL     OW 1522   2.054   3.921   0.810 -0.1149  0.2259 -0.1510
  363SOL    HW2 1523   2.033   3.908   0.902 -1.5051 -2.3538 -0.8065
  363SOL    HW3 1524   1.973   3.955   0.772  0.2567  0.6535 -0.5644
  363SOL    MW4 1525   2.041   3.924   0.817 -0.2494 -0.0582 -0.2920
  364SOL     OW 1526   1.827   4.061   0.726 -0.1655  0.4501 -0.2792
  364SOL    HW2 1527   1.744   4.027   0.759  0.1960  0.0154  0.1972
  364SOL    HW3 1528   1.817   4.061   0.631 -0.6267  0.1940 -0.2315
  364SOL    MW4 1529   1.815   4.057   0.718 -0.1787  0.3591 -0.2102
  365SOL     OW 1530   1.834   4.334   0.833  0.1276 -0.3612 -0.0103
  365SOL    HW2 1531   1.827   4.328   0.929 -0.0116 -0.5475 -0.0324
  365SOL    HW3 1532   1.831   4.244   0.803  0.0380 -0.2951 -0.2010
  365SOL    MW4 1533   1.833   4.322   0.842  0.0974 -0.3777 -0.0383
  366SOL     OW 1534   1.996   4.472   0.659 -0.5762  0.3130 -0.0003
  366SOL    HW2 1535   1.942   4.434   0.729 -1.2546  0.2755 -0.5355
  366SOL    HW3 1536   1.943   4.461   0.580 -0.6267  2.0228 -0.2230
  366SOL    MW4 1537   1.982   4.465   0.658 -0.6722  0.5341 -0.1003
  367SOL     OW 1538   2.543   4.560   0.858 -0.3966  0.2927  0.5007
  367SOL    HW2 1539   2.532   4.596   0.946 -2.5114 -0.1246  0.4417
  367SOL    HW3 1540   2.600   4.484   0.871  0.0457  0.7620  1.3717
  367SOL    MW4 1541   2.549   4.555   0.872 -0.6173  0.2990  0.6078
  368SOL     OW 1542   2.291   0.156   0.711  0.3388  0.5142 -0.2558
  368SOL    HW2 1543   2.297   0.060   0.716 -0.0460  0.5615  1.7943
  368SOL    HW3 1544   2.253   0.173   0.625 -1.4574 -1.2985  0.1198
  368SOL    MW4 1545   2.287   0.145   0.700  0.0513  0.2813  0.0643
  369SOL     OW 1546   2.250   0.414   0.805  0.2254  0.0768  0.2552
  369SOL    HW2 1547   2.333   0.459   0.788  0.7709 -0.2733  1.8787
  369SOL    HW3 1548   2.266   0.324   0.777 -0.2051  0.4013 -1.0909
  369SOL    MW4 1549   2.263   0.408   0.799  0.2408  0.0734  0.2919
  370SOL     OW 1550   2.484   0.544   0.696  0.2221 -0.3319  0.3325
  370SOL    HW2 1551   2.545   0.502   0.757  0.0778 -0.4527  0.3964
  370SOL    HW3 1552   2.510   0.511   0.610  1.1302  0.7142  0.2102
  370SOL    MW4 1553   2.495   0.534   0.693  0.3228 -0.2097  0.3247
  371SOL     OW 1554   2.442   0.799   0.786  0.2720 -0.7442  0.2106
  371SOL    HW2 1555   2.510   0.853   0.745 -1.6474  1.1467 -0.6040
  371SOL    HW3 1556   2.449   0.714   0.742  0.6192  0.1387 -1.4965
  371SOL    MW4 1557   2.452   0.795   0.775  0.0646 -0.3781 -0.1221
  372SOL     OW 1558   2.216   0.964   0.779  0.6610  0.1641 -0.0446
  372SOL    HW2 1559   2.297   0.913   0.779  0.8725  0.4896 -0.6963
  372SOL    HW3 1560   2.207   0.993   0.688  0.0495  0.5067  0.1261
  372SOL    MW4 1561   2.226   0.961   0.767  0.6084  0.2522 -0.1080
  373SOL     OW 1562   2.224   1.193   0.905 -0.2569  0.1676 -0.0074
  373SOL    HW2 1563   2.240   1.168   0.996  3.0926  0.4531 -0.4452
  373SOL    HW3 1564   2.238   1.113   0.856  2.3329  0.9282 -0.6234
  373SOL    MW4 1565   2.228   1.179   0.911  0.5267  0.3055 -0.1464
  374SOL     OW 1566   2.442   1.314   0.791 -0.3351  0.0489  0.3049
  374SOL    HW2 1567   2.353   1.309   0.827 -0.6608 -0.1750 -0.5149
  374SOL    HW3 1568   2.432   1.290   0.699  0.6675 -0.5694  0.3476
  374SOL    MW4 1569   2.429   1.310   0.783 -0.2458 -0.0622  0.2024
  375SOL     OW 1570   2.525   1.582   0.843  0.1263 -0.1981 -0.0449
  375SOL    HW2 1571   2.592   1.623   0.787 -0.8324 -0.2536 -1.2600
  375SOL    HW3 1572   2.499   1.503   0.796 -1.6745  0.4577 -0.2181
  375SOL    MW4 1573   2.530   1.577   0.829 -0.2377 -0.1190 -0.2282
  376SOL     OW 1574   2.263   1.649   0.730  0.1069 -0.2339 -0.1846
  376SOL    HW2 1575   2.355   1.638   0.756  0.3497 -0.1317 -0.9874
  376SOL    HW3 1576   2.266   1.656   0.635 -0.7598 -0.4333 -0.2262
  376SOL    MW4 1577   2.276   1.649   0.721  0.0243 -0.2469 -0.2960
  377SOL     OW 1578   2.242   1.891   0.885  0.0492  0.2376  0.7048
  377SOL    HW2 1579   2.244   1.822   0.818  2.0989  1.7738 -0.8877
  377SOL    HW3 1580   2.172   1.949   0.858  0.8237  0.8136 -0.1043
  377SOL    MW4 1581   2.233   1.889   0.873  0.4218  0.5162  0.3880
  378SOL     OW 1582   2.427   2.026   0.721 -0.0084  0.8076  0.1352
  378SOL    HW2 1583   2.363   1.984   0.779  0.7312 -0.0502  0.3389
  378SOL    HW3 1584   2.388   2.022   0.634 -0.7719  1.3876  0.4451
  378SOL    MW4 1585   2.413   2.020   0.717 -0.0114  0.7710  0.2030
  379SOL     OW 1586   2.465   2.269   0.869 -0.0516 -0.3887 -0.3771
  379SOL    HW2 1587   2.539   2.316   0.830  0.3030 -1.6945 -1.3565
  379SOL    HW3 1588   2.468   2.183   0.827 -0.4117 -1.4322  1.6602
  379SOL    MW4 1589   2.475   2.263   0.858 -0.0525 -0.6983 -0.2375
  380SOL     OW 1590   2.267   2.433   0.791 -0.0069  0.2044  0.2699
  380SOL    HW2 1591   2.336   2.383   0.835 -0.2121 -0.6827 -0.4149
  380SOL    HW3 1592   2.186   2.407   0.836 -0.2980 -1.1536 -0.9776
  380SOL    MW4 1593   2.265   2.423   0.803 -0.0722 -0.0918  0.0149
  381SOL     OW 1594   2.246   2.717   0.819 -0.0203 -0.8791 -0.4019
  381SOL    HW2 1595   2.267   2.726   0.912  0.6956  1.0304 -0.7194
  381SOL    HW3 1596   2.268   2.626   0.798 -0.4775 -1.4167  1.3525
  381SOL    MW4 1597   2.251   2.706   0.829  0.0138 -0.6981 -0.2124
  382SOL     OW 1598   2.507   2.862   0.749 -0.2827 -0.1905 -0.4287
  382SOL    HW2 1599   2.572   2.799   0.782 -0.6257 -0.4589 -0.2625
  382SOL    HW3 1600   2.423   2.818   0.762 -0.7593  1.4437  2.3647
  382SOL    MW4 1601   2.505   2.848   0.755 -0.3910 -0.0105 -0.0381
  383SOL     OW 1602   2.482   3.130   0.840 -0.2051 -0.2731 -0.3122
  383SOL    HW2 1603   2.512   3.131   0.931 -0.2161 -0.5562 -0.3055
  383SOL    HW3 1604   2.481   3.037   0.816 -0.6412 -0.2311 -0.4569
  383SOL    MW4 1605   2.486   3.118   0.849 -0.2644 -0.3047 -0.3305
  384SOL     OW 1606   2.231   3.252   0.770  0.0098  0.6368  0.3844
  384SOL    HW2 1607   2.161   3.204   0.815  0.2886  0.0543  0.1841
  384SOL    HW3 1608   2.312   3.214   0.802  0.2225  0.6174 -0.1683
  384SOL    MW4 1609   2.232   3.241   0.780  0.0746  0.5569  0.2850
  385SOL     OW 1610   2.264   3.539   0.823  0.1208 -0.3976  0.3318
  385SOL    HW2 1611   2.269   3.447   0.797 -0.1786 -0.3788  0.2056
  385SOL    HW3 1612   2.187   3.573   0.778  0.9294  0.2287 -0.6184
  385SOL    MW4 1613   2.255   3.532   0.814  0.1879 -0.3128  0.1898
  386SOL     OW 1614   2.501   3.678   0.791  0.2500  0.3490 -0.2468
  386SOL    HW2 1615   2.564   3.610   0.817 -0.0262 -0.9810 -2.9520
  386SOL    HW3 1616   2.416   3.640   0.810  0.1532  0.7136  0.0446
  386SOL    MW4 1617   2.498   3.664   0.797  0.2005  0.2215 -0.5653
  387SOL     OW 1618   2.504   3.940   0.880  0.0516  0.0827 -0.3845
  387SOL    HW2 1619   2.431   3.973   0.827 -1.3215  0.6418  1.8139
  387SOL    HW3 1620   2.514   3.849   0.851 -2.2258 -0.3251  0.0301
  387SOL    MW4 1621   2.496   3.932   0.869 -0.4299  0.1023 -0.0397
  388SOL     OW 1622   2.280   4.042   0.727 -0.1345  0.0742 -0.2222
  388SOL    HW2 1623   2.203   3.994   0.757  0.8447 -0.3840  1.5976
  388SOL    HW3 1624   2.282   4.028   0.632 -2.2296  0.0235 -0.2721
  388SOL    MW4 1625   2.270   4.034   0.718 -0.2818  0.0067  0.0113
  389SOL     OW 1626   2.167   4.285   0.809  0.1090  0.5333  0.2705
  389SOL    HW2 1627   2.228   4.213   0.793 -0.8417 -0.6267  1.7237
  389SOL    HW3 1628   2.098   4.272   0.744 -1.1983 -1.2208  1.9514
  389SOL    MW4 1629   2.166   4.274   0.798 -0.1888  0.1493  0.6840
  390SOL     OW 1630   2.287   4.544   0.736  0.0336  0.0865 -0.5612
  390SOL    HW2 1631   2.377   4.542   0.770  0.0501  0.8277 -0.5682
  390SOL    HW3 1632   2.243   4.474   0.785  0.0334  1.2083  1.0912
  390SOL    MW4 1633   2.293   4.534   0.747  0.0358  0.3319 -0.3441
  391SOL     OW 1634   2.891   0.026   0.868 -0.4118  0.2655 -0.0588
  391SOL    HW2 1635   2.867  -0.055   0.823  1.2622 -0.1126 -0.2788
  391SOL    HW3 1636   2.858   0.096   0.812 -2.2285 -0.2448  0.3291
  391SOL    MW4 1637   2.883   0.024   0.855 -0.4306  0.1483 -0.0366
  392SOL     OW 1638   2.511   4.540   0.218 -0.6988  0.1318  0.1568
  392SOL    HW2 1639   2.471   4.580   0.296  0.9557 -1.2656  1.7829
  392SOL    HW3 1640   2.558   4.612   0.176  0.5207  0.3929  1.8979
  392SOL    MW4 1641   2.512   4.555   0.223 -0.3197 -0.0181  0.6011
  393SOL     OW 1642   2.692   0.429   0.827  0.2294  0.5200  0.2125
  393SOL    HW2 1643   2.732   0.408   0.912  3.2694  0.7310 -1.1022
  393SOL    HW3 1644   2.754   0.490   0.786 -0.3891 -0.8363 -2.8449
  393SOL    MW4 1645   2.705   0.434   0.833  0.5491  0.3689 -0.3644
  394SOL     OW 1646   2.910   0.563   0.753  0.2852  0.1188  0.4431
  394SOL    HW2 1647   2.979   0.513   0.796  1.9284  0.6273 -1.5405
  394SOL    HW3 1648   2.936   0.567   0.661 -1.3170  2.1144  0.0278
  394SOL    MW4 1649   2.922   0.557   0.747  0.2906  0.4492  0.1266
  395SOL     OW 1650   2.880   0.826   0.777  0.1841 -0.2444  0.7425
  395SOL    HW2 1651   2.878   0.840   0.872 -2.2984  0.6240  0.6033
  395SOL    HW3 1652   2.889   0.731   0.767 -0.9734 -0.4894  1.8621
  395SOL    MW4 1653   2.881   0.815   0.788 -0.2964 -0.1621  0.8719
  396SOL     OW 1654   2.647   0.963   0.684 -0.2783  0.3676  0.3468
  396SOL    HW2 1655   2.719   0.904   0.707 -0.1952  0.6340  0.7753
  396SOL    HW3 1656   2.673   0.999   0.599 -0.9664 -1.2128 -0.5506
  396SOL    MW4 1657   2.660   0.960   0.676 -0.3581  0.1942  0.2849
  397SOL     OW 1658   2.659   1.174   0.864  0.3189 -0.2988 -0.2502
  397SOL    HW2 1659   2.660   1.100   0.804 -1.0227 -1.3345  0.9681
  397SOL    HW3 1660   2.580   1.224   0.839  0.9633  0.4791 -0.7655
  397SOL    MW4 1661   2.648   1.171   0.853  0.2267 -0.3327 -0.1575
  398SOL     OW 1662   2.880   1.312   0.733  0.3203  0.4628  0.0109
  398SOL    HW2 1663   2.961   1.267   0.758  0.0543 -0.3517 -0.5857
  398SOL    HW3 1664   2.810   1.259   0.769 -0.0485 -0.4662 -2.0103
  398SOL    MW4 1665   2.882   1.299   0.741  0.2365  0.2327 -0.3345
  399SOL     OW 1666   2.897   1.583   0.781 -0.3111 -0.8120  0.0874
  399SOL    HW2 1667   2.987   1.592   0.748 -0.2453  1.2782  0.7586
  399SOL    HW3 1668   2.880   1.489   0.778  0.7240 -0.9722 -3.1562
  399SOL    MW4 1669   2.907   1.572   0.776 -0.1659 -0.5573 -0.2519
  400SOL     OW 1670   2.709   1.712   0.628 -0.1255 -0.2201 -0.1177
  400SOL    HW2 1671   2.714   1.806   0.649 -2.2016 -0.2818  0.8035
  400SOL    HW3 1672   2.767   1.670   0.690 -0.3243  0.3341  0.4545
  400SOL    MW4 1673   2.717   1.719   0.639 -0.4256 -0.1551  0.0793
  401SOL     OW 1674   2.701   1.985   0.723 -0.3005  0.3378 -0.1149
  401SOL    HW2 1675   2.731   1.972   0.813 -0.3347  1.8254  0.1296
  401SOL    HW3 1676   2.606   1.986   0.730 -0.2837  2.1725  0.1109
  401SOL    MW4 1677   2.693   1.983   0.736 -0.3028  0.7763 -0.0528
  402SOL     OW 1678   2.830   2.192   0.621  0.3875  0.2360 -0.4045
  402SOL    HW2 1679   2.846   2.246   0.699 -0.0984  0.7040 -0.6259
  402SOL    HW3 1680   2.767   2.126   0.650 -0.1604  0.7020 -0.5236
  402SOL    MW4 1681   2.824   2.190   0.635  0.2513  0.3591 -0.4494
  403SOL     OW 1682   2.916   2.316   0.847 -0.0081  0.3068  0.2096
  403SOL    HW2 1683   2.938   2.335   0.939  0.0395 -0.0101  0.2623
  403SOL    HW3 1684   2.852   2.384   0.824 -0.4643  0.0397  0.6612
  403SOL    MW4 1685   2.910   2.328   0.856 -0.0620  0.2296  0.2761
  404SOL     OW 1686   2.649   2.425   0.747  0.7305  0.0577 -0.5746
  404SOL    HW2 1687   2.610   2.442   0.661 -0.4792  1.6601  0.2748
  404SOL    HW3 1688   2.660   2.512   0.785  0.2806 -0.7104  1.3333
  404SOL    MW4 1689   2.646   2.439   0.740  0.5114  0.1678 -0.2108
  405SOL     OW 1690   2.691   2.674   0.850  0.3268 -0.2469 -0.3945
  405SOL    HW2 1691   2.682   2.683   0.944  0.9294 -1.9661 -0.1553
  405SOL    HW3 1692   2.777   2.711   0.830 -0.1299  0.8281 -0.3825
  405SOL    MW4 1693   2.701   2.680   0.859  0.3459 -0.3319 -0.3614
  406SOL     OW 1694   2.888   2.903   0.580  0.5999 -0.0366 -0.2328
  406SOL    HW2 1695   2.906   2.847   0.655  1.0833  1.2587  0.6274
  406SOL    HW3 1696   2.796   2.884   0.558  0.8202 -1.3107 -0.0985
  406SOL    MW4 1697   2.878   2.893   0.587  0.6928 -0.0341 -0.1016
  407SOL     OW 1698   2.911   3.127   0.753 -0.6761  0.0388 -0.1998
  407SOL    HW2 1699   2.849   3.192   0.721  0.7264  1.0398 -0.9320
  407SOL    HW3 1700   2.878   3.044   0.719 -1.6814  0.5491 -0.4714
  407SOL    MW4 1701   2.899   3.124   0.744 -0.6235  0.2382 -0.3322
  408SOL     OW 1702   2.669   3.256   0.689  0.2465 -0.2977  0.2055
  408SOL    HW2 1703   2.673   3.345   0.724  0.1935 -0.0738 -0.3377
  408SOL    HW3 1704   2.600   3.213   0.740  0.9784 -0.3463  1.1638
  408SOL    MW4 1705   2.660   3.262   0.700  0.3359 -0.2747  0.2603
  409SOL     OW 1706   2.734   3.505   0.822  0.3388  0.2613 -0.3419
  409SOL    HW2 1707   2.747   3.493   0.916 -0.2165 -1.2855 -0.4498
  409SOL    HW3 1708   2.809   3.558   0.795  0.7797  0.3007  0.8844
  409SOL    MW4 1709   2.746   3.510   0.831  0.3235  0.0625 -0.1943
  410SOL     OW 1710   2.955   3.659   0.745  0.2308  0.6912  0.0499
  410SOL    HW2 1711   2.953   3.751   0.773  0.2181  1.1107 -1.2872
  410SOL    HW3 1712   2.946   3.663   0.650 -0.0427 -0.7194  0.0096
  410SOL    MW4 1713   2.954   3.672   0.737  0.1929  0.5605 -0.1317
  411SOL     OW 1714   2.942   3.924   0.829 -0.6131 -0.5648 -0.0931
  411SOL    HW2 1715   2.938   3.926   0.924  0.6588  1.5245 -0.0634
  411SOL    HW3 1716   2.876   3.987   0.800 -0.5185 -0.6825 -0.5765
  411SOL    MW4 1717   2.933   3.933   0.838 -0.4330 -0.3047 -0.1529
  412SOL     OW 1718   2.714   4.079   0.762 -0.0448 -0.1005 -0.0765
  412SOL    HW2 1719   2.647   4.059   0.827  0.0103 -0.3479 -0.0971
  412SOL    HW3 1720   2.682   4.038   0.681  0.6341 -1.0979  0.1576
  412SOL    MW4 1721   2.701   4.071   0.760  0.0522 -0.2646 -0.0483
  413SOL     OW 1722   2.727   4.344   0.858  0.5320  0.0565  0.2963
  413SOL    HW2 1723   2.707   4.329   0.950  0.4799 -0.7734  0.1567
  413SOL    HW3 1724   2.732   4.256   0.820  0.1555  0.3999 -0.5740
  413SOL    MW4 1725   2.725   4.330   0.865  0.4752 -0.0076  0.1631
  414SOL     OW 1726   2.954   4.415   0.724  0.5952  0.0325  0.1553
  414SOL    HW2 1727   3.033   4.382   0.767  0.0406 -0.2560  0.9714
  414SOL    HW3 1728   2.882   4.384   0.779 -0.0830  0.3718 -0.5285
  414SOL    MW4 1729   2.955   4.407   0.737  0.4327  0.0391  0.1727
  415SOL     OW 1730   3.395   4.643   0.891 -0.1712 -0.0453 -0.1624
  415SOL    HW2 1731   3.399   4.641   0.986 -0.7153 -1.4660 -0.1533
  415SOL    HW3 1732   3.324   4.704   0.871  0.2382  0.5962  0.3272
  415SOL    MW4 1733   3.386   4.651   0.901 -0.1888 -0.1483 -0.0966
  416SOL     OW 1734   3.161   0.120   0.826 -0.4696 -0.0610  0.0622
  416SOL    HW2 1735   3.152   0.216   0.827  2.5334  0.2656  1.9411
  416SOL    HW3 1736   3.074   0.088   0.850 -0.9982  2.2608  1.4830
  416SOL    MW4 1737   3.148   0.129   0.829 -0.1433  0.2884  0.4976
  417SOL     OW 1738   3.119   0.399   0.842 -0.2961  0.4823 -0.3902
  417SOL    HW2 1739   3.134   0.384   0.936 -0.1258  1.9005 -0.1861
  417SOL    HW3 1740   3.204   0.423   0.807 -0.3540 -0.0815 -0.9257
  417SOL    MW4 1741   3.132   0.400   0.850 -0.2811  0.5951 -0.4339
  418SOL     OW 1742   3.368   0.493   0.742  0.0170  0.1756 -0.0988
  418SOL    HW2 1743   3.455   0.475   0.778  0.3997  1.6693 -0.2456
  418SOL    HW3 1744   3.378   0.476   0.648  0.0183 -0.1389 -0.0413
  418SOL    MW4 1745   3.381   0.488   0.734  0.0675  0.3311 -0.1106
  419SOL     OW 1746   3.362   0.765   0.792 -0.0775  0.1134  0.4110
  419SOL    HW2 1747   3.287   0.821   0.774  0.1587  0.2498 -0.1872
  419SOL    HW3 1748   3.340   0.681   0.751 -0.5021 -0.2899  1.4494
  419SOL    MW4 1749   3.349   0.761   0.784 -0.1025  0.0781  0.4691
  420SOL     OW 1750   3.118   0.943   0.688  0.7834 -0.3121  0.3340
  420SOL    HW2 1751   3.118   1.033   0.721  1.4384 -0.7979  1.7247
  420SOL    HW3 1752   3.030   0.911   0.709  0.3929  0.1445 -0.5845
  420SOL    MW4 1753   3.106   0.951   0.695  0.8185 -0.3160  0.3963
  421SOL     OW 1754   3.126   1.204   0.789  0.3600 -1.3186  0.2627
  421SOL    HW2 1755   3.131   1.185   0.883 -0.2469  0.6112  0.7057
  421SOL    HW3 1756   3.215   1.230   0.765  0.0799  0.0791  0.7313
  421SOL    MW4 1757   3.138   1.205   0.798  0.2429 -0.8795  0.3831
  422SOL     OW 1758   3.395   1.252   0.731 -0.9142 -0.4544  0.3543
  422SOL    HW2 1759   3.465   1.218   0.786  0.2254 -0.7618 -1.2509
  422SOL    HW3 1760   3.391   1.345   0.751  2.5400  0.3410 -2.2401
  422SOL    MW4 1761   3.404   1.259   0.741 -0.3078 -0.3901 -0.1998
  423SOL     OW 1762   3.381   1.514   0.815 -0.2676  0.0138 -0.1596
  423SOL    HW2 1763   3.351   1.516   0.906 -2.3063 -1.2955 -0.7759
  423SOL    HW3 1764   3.451   1.580   0.812  1.1526 -1.2470  2.7726
  423SOL    MW4 1765   3.386   1.523   0.827 -0.3493 -0.3252  0.1460
  424SOL     OW 1766   3.171   1.644   0.704 -0.1056  0.0913  0.0179
  424SOL    HW2 1767   3.244   1.591   0.737  0.9530  1.4782 -0.0833
  424SOL    HW3 1768   3.166   1.622   0.611  0.9826  0.9098 -0.2399
  424SOL    MW4 1769   3.180   1.634   0.696  0.1776  0.3823 -0.0294
  425SOL     OW 1770   3.157   1.904   0.787 -0.5917 -0.6989 -0.1602
  425SOL    HW2 1771   3.167   1.904   0.882 -0.3190  0.5291 -0.1895
  425SOL    HW3 1772   3.156   1.811   0.763  0.0734 -0.9947  0.9569
  425SOL    MW4 1773   3.158   1.892   0.796 -0.4680 -0.5758 -0.0167
  426SOL     OW 1774   3.409   2.016   0.662  0.2013 -0.5448 -0.0982
  426SOL    HW2 1775   3.409   2.084   0.594  1.0136 -0.6950 -0.2583
  426SOL    HW3 1776   3.317   2.005   0.686  0.0756  0.7190  0.0292
  426SOL    MW4 1777   3.397   2.024   0.656  0.2916 -0.3979 -0.1025
  427SOL     OW 1778   3.341   2.479   0.855 -0.0807  0.5670  0.9790
  427SOL    HW2 1779   3.349   2.450   0.946  0.2277  2.5986  1.6155
  427SOL    HW3 1780   3.431   2.487   0.824 -0.1910 -0.4893  0.3586
  427SOL    MW4 1781   3.354   2.476   0.863 -0.0546  0.6957  0.9812
  428SOL     OW 1782   3.162   2.333   0.711 -0.1387  0.5868 -0.0221
  428SOL    HW2 1783   3.231   2.359   0.773  0.0015 -2.2134  1.1116
  428SOL    HW3 1784   3.083   2.329   0.765 -0.1374 -1.2740 -0.1384
  428SOL    MW4 1785   3.161   2.336   0.726 -0.1202 -0.0281  0.1122
  429SOL     OW 1786   3.221   2.725   0.893 -0.4109 -0.0814 -0.2686
  429SOL    HW2 1787   3.264   2.639   0.893  1.2378  0.7138  0.5109
  429SOL    HW3 1788   3.280   2.781   0.842 -0.5812  1.0047  0.7140
  429SOL    MW4 1789   3.234   2.721   0.886 -0.2160  0.1669 -0.0362
  430SOL     OW 1790   3.415   2.868   0.746 -0.2546 -0.0437  0.3848
  430SOL    HW2 1791   3.415   2.838   0.655 -0.5450 -1.0880  0.7275
  430SOL    HW3 1792   3.497   2.836   0.783  0.6617  1.8161  0.0399
  430SOL    MW4 1793   3.426   2.860   0.739 -0.1721  0.0639  0.3846
  431SOL     OW 1794   3.340   3.142   0.814  0.7495 -0.2145  0.3582
  431SOL    HW2 1795   3.345   3.147   0.909  1.6694 -1.1877  0.3761
  431SOL    HW3 1796   3.369   3.053   0.794 -0.9326 -0.5443 -0.7272
  431SOL    MW4 1797   3.344   3.131   0.824  0.6490 -0.3862  0.2174
  432SOL     OW 1798   3.143   3.250   0.663  0.1246 -0.4955 -0.2929
  432SOL    HW2 1799   3.203   3.201   0.720 -0.7726  0.7133  1.7863
  432SOL    HW3 1800   3.057   3.212   0.681 -0.2950  0.4980 -0.1539
  432SOL    MW4 1801   3.139   3.239   0.673 -0.0491 -0.2050 -0.0004
  433SOL     OW 1802   3.175   3.492   0.785 -0.0300  0.5984 -0.0602
  433SOL    HW2 1803   3.158   3.402   0.757  0.2973  0.8046 -0.9412
  433SOL    HW3 1804   3.092   3.537   0.771 -0.7077  0.0443  2.0173
  433SOL    MW4 1805   3.162   3.486   0.779 -0.0761  0.5529  0.0977
  434SOL     OW 1806   3.395   3.658   0.778 -0.0677 -0.0341  0.1465
  434SOL    HW2 1807   3.374   3.740   0.822  0.9173  0.9683 -1.2090
  434SOL    HW3 1808   3.311   3.612   0.770 -0.9546  1.7279 -0.8657
  434SOL    MW4 1809   3.381   3.663   0.783 -0.0546  0.3304 -0.1659
  435SOL     OW 1810   3.394   3.913   0.901 -0.0474  0.4323  0.1861
  435SOL    HW2 1811   3.427   3.915   0.990 -0.0406  0.5375  0.1807
  435SOL    HW3 1812   3.462   3.957   0.849  0.1397  0.0061  0.0685
  435SOL    MW4 1813   3.407   3.919   0.906 -0.0217  0.3901  0.1699
  436SOL     OW 1814   3.186   4.023   0.749 -0.4334  0.1623 -0.0974
  436SOL    HW2 1815   3.249   3.990   0.813  0.0662  0.6564 -0.3273
  436SOL    HW3 1816   3.103   3.983   0.774  0.0450 -0.7941 -0.0200
  436SOL    MW4 1817   3.184   4.014   0.761 -0.3042  0.1006 -0.1175
  437SOL     OW 1818   3.186   4.289   0.790 -0.2854 -0.3586 -0.0643
  437SOL    HW2 1819   3.272   4.322   0.766 -0.3437 -1.0978 -1.3341
  437SOL    HW3 1820   3.187   4.197   0.765 -1.5466 -0.2936 -0.4092
  437SOL    MW4 1821   3.197   4.281   0.783 -0.4597 -0.4478 -0.2774
  438SOL     OW 1822   3.457   4.412   0.760 -0.0560 -0.1510 -0.3231
  438SOL    HW2 1823   3.438   4.480   0.824  1.2479  0.0169 -0.1110
  438SOL    HW3 1824   3.495   4.458   0.685 -0.3935 -0.4921 -0.7127
  438SOL    MW4 1825   3.460   4.427   0.759  0.0715 -0.1740 -0.3465
  439SOL     OW 1826   3.844   4.663   0.806 -0.1107 -0.1452  0.1021
  439SOL    HW2 1827   3.917   4.706   0.761  0.3051 -1.2056 -0.2358
  439SOL    HW3 1828   3.766   4.697   0.761  0.2024  0.4118 -0.0305
  439SOL    MW4 1829   3.843   4.673   0.794 -0.0145 -0.2117  0.0401
  440SOL     OW 1830   3.595   0.096   0.733  0.4736  0.1739  0.0431
  440SOL    HW2 1831   3.525   0.061   0.788 -0.0615 -0.2687 -0.8946
  440SOL    HW3 1832   3.555   0.107   0.647  1.4577  0.2549 -0.4201
  440SOL    MW4 1833   3.581   0.093   0.729  0.5326  0.1262 -0.1416
  441SOL     OW 1834   3.602   0.386   0.847  0.3810 -0.0594 -0.4245
  441SOL    HW2 1835   3.573   0.371   0.937  1.4652  1.4213  0.1947
  441SOL    HW3 1836   3.604   0.299   0.808 -2.1884 -0.4960  0.3155
  441SOL    MW4 1837   3.598   0.373   0.854  0.1850  0.0784 -0.2452
  442SOL     OW 1838   3.837   0.482   0.755  0.2221 -0.0034 -0.2489
  442SOL    HW2 1839   3.853   0.575   0.771  0.9296 -0.3128  0.9060
  442SOL    HW3 1840   3.760   0.461   0.808  0.6081 -0.2705  0.2223
  442SOL    MW4 1841   3.829   0.491   0.764  0.3660 -0.0795 -0.0343
  443SOL     OW 1842   3.875   0.754   0.838  0.1229  0.3341 -0.2337
  443SOL    HW2 1843   3.849   0.767   0.929 -0.9295 -0.1765 -0.4509
  443SOL    HW3 1844   3.887   0.842   0.803  1.0309  0.5231  0.5318
  443SOL    MW4 1845   3.873   0.767   0.845  0.1042  0.2917 -0.1613
  444SOL     OW 1846   3.625   0.884   0.752  0.3399 -0.0524 -0.3563
  444SOL    HW2 1847   3.675   0.803   0.761 -0.1799 -0.3686 -0.2458
  444SOL    HW3 1848   3.534   0.857   0.768  0.0800  0.4174 -1.0338
  444SOL    MW4 1849   3.619   0.870   0.755  0.2367 -0.0321 -0.4311
  445SOL     OW 1850   3.645   1.136   0.864 -0.3167  0.0176  0.1316
  445SOL    HW2 1851   3.607   1.130   0.952 -1.3764  4.3285  0.0526
  445SOL    HW3 1852   3.629   1.049   0.826 -1.3014 -1.4162  3.5752
  445SOL    MW4 1853   3.638   1.124   0.871 -0.5863  0.3972  0.5755
  446SOL     OW 1854   3.812   1.336   0.768  0.0544  0.3935  0.7018
  446SOL    HW2 1855   3.749   1.278   0.812 -1.0841  2.2764  1.6310
  446SOL    HW3 1856   3.783   1.339   0.677 -0.3101  0.0898  0.8058
  446SOL    MW4 1857   3.800   1.329   0.762 -0.1442  0.6019  0.8381
  447SOL     OW 1858   3.850   1.589   0.884  0.0648 -0.2658 -0.1901
  447SOL    HW2 1859   3.941   1.612   0.868  0.1438 -1.3796 -1.4372
  447SOL    HW3 1860   3.841   1.501   0.848 -1.3331 -0.4291  0.5275
  447SOL    MW4 1861   3.861   1.581   0.877 -0.1097 -0.4342 -0.2599
  448SOL     OW 1862   3.594   1.702   0.805  0.0277 -0.8737  0.2269
  448SOL    HW2 1863   3.590   1.795   0.828  0.3087 -0.6663 -0.5394
  448SOL    HW3 1864   3.676   1.671   0.844  0.2459 -0.6461 -0.0471
  448SOL    MW4 1865   3.604   1.710   0.813  0.0935 -0.8163  0.0896
  449SOL     OW 1866   3.602   1.992   0.847 -0.3981 -0.2933  0.0764
  449SOL    HW2 1867   3.681   2.013   0.799 -0.9832  0.8301 -0.4201
  449SOL    HW3 1868   3.531   2.001   0.783 -1.1249  0.6735  0.9936
  449SOL    MW4 1869   3.603   1.996   0.832 -0.5713 -0.0175  0.1319
  450SOL     OW 1870   3.835   2.089   0.714 -0.3919  0.1106  0.0143
  450SOL    HW2 1871   3.901   2.036   0.759  0.5518  0.5335 -0.8581
  450SOL    HW3 1872   3.880   2.124   0.637 -1.6709  0.3164 -0.6555
  450SOL    MW4 1873   3.850   2.087   0.710 -0.4363  0.1936 -0.1891
  451SOL     OW 1874   3.814   2.354   0.782 -0.8253 -0.4281 -0.4734
  451SOL    HW2 1875   3.816   2.354   0.877  0.6787  1.2222 -0.4914
  451SOL    HW3 1876   3.818   2.261   0.758  0.8957 -0.7627  1.0311
  451SOL    MW4 1877   3.815   2.342   0.791 -0.3998 -0.2546 -0.2773
  452SOL     OW 1878   3.600   2.516   0.737 -0.6680 -0.1327 -0.6768
  452SOL    HW2 1879   3.638   2.603   0.738  0.6558 -0.7152  0.5890
  452SOL    HW3 1880   3.673   2.456   0.753 -1.6561 -1.4430 -0.8982
  452SOL    MW4 1881   3.614   2.519   0.739 -0.6239 -0.3824 -0.5390
  453SOL     OW 1882   3.675   2.806   0.811 -0.4533  0.3176  0.4628
  453SOL    HW2 1883   3.668   2.791   0.906  0.5415  0.8694  0.6258
  453SOL    HW3 1884   3.710   2.895   0.804  0.3816 -0.0799 -0.4164
  453SOL    MW4 1885   3.679   2.816   0.823 -0.2120  0.3381  0.3683
  454SOL     OW 1886   3.901   2.771   0.543  0.2446 -0.4219 -0.1788
  454SOL    HW2 1887   3.832   2.836   0.538  1.0515  0.2846 -2.5626
  454SOL    HW3 1888   3.868   2.697   0.492  1.1047 -0.2044 -1.0612
  454SOL    MW4 1889   3.888   2.770   0.535  0.4647 -0.2999 -0.6097
  455SOL     OW 1890   3.762   3.082   0.807 -0.0834 -0.6073 -0.1402
  455SOL    HW2 1891   3.848   3.118   0.786  0.6565 -2.4433 -0.3439
  455SOL    HW3 1892   3.700   3.151   0.782  1.2793  0.4547 -0.6299
  455SOL    MW4 1893   3.765   3.096   0.801  0.1943 -0.7095 -0.2317
  456SOL     OW 1894   3.562   3.272   0.734  0.1511 -0.0828  0.4718
  456SOL    HW2 1895   3.479   3.228   0.753 -0.5770  0.7733 -0.6364
  456SOL    HW3 1896   3.558   3.291   0.640  0.2344  2.7175  1.0002
  456SOL    MW4 1897   3.550   3.269   0.724  0.0665  0.3998  0.3953
  457SOL     OW 1898   3.620   3.497   0.847  0.5217  0.6315 -0.5026
  457SOL    HW2 1899   3.601   3.417   0.799 -1.4834  0.7365  0.0872
  457SOL    HW3 1900   3.543   3.553   0.833  2.1270  2.7190 -1.4227
  457SOL    MW4 1901   3.608   3.494   0.839  0.4690  0.9205 -0.5463
  458SOL     OW 1902   3.843   3.639   0.750 -0.0359  0.2219  0.0506
  458SOL    HW2 1903   3.911   3.581   0.785 -0.1980  0.0679  0.1074
  458SOL    HW3 1904   3.761   3.603   0.782 -0.1927  0.0335 -0.5536
  458SOL    MW4 1905   3.841   3.627   0.759 -0.0782  0.1767 -0.0216
  459SOL     OW 1906   3.861   3.903   0.843  0.2548 -0.0917  0.0529
  459SOL    HW2 1907   3.790   3.945   0.793  1.7055  1.7077 -0.5873
  459SOL    HW3 1908   3.864   3.813   0.810 -0.9577  0.1621 -0.7722
  459SOL    MW4 1909   3.852   3.897   0.832  0.2861  0.1793 -0.1404
  460SOL     OW 1910   3.620   4.000   0.726  0.0193  0.2912  0.1935
  460SOL    HW2 1911   3.622   4.081   0.779 -0.7509  0.7850 -0.5125
  460SOL    HW3 1912   3.584   4.028   0.642  0.6564 -0.6193 -0.3791
  460SOL    MW4 1913   3.615   4.015   0.722  0.0014  0.2365  0.0247
  461SOL     OW 1914   3.623   4.218   0.866 -0.0493  0.1311  0.3866
  461SOL    HW2 1915   3.713   4.252   0.863 -0.1720  0.4038 -0.3319
  461SOL    HW3 1916   3.571   4.284   0.821 -0.5024 -0.3453  0.2110
  461SOL    MW4 1917   3.628   4.231   0.860 -0.1254  0.1049  0.2686
  462SOL     OW 1918   3.852   4.378   0.832 -0.3536  0.3795 -0.1801
  462SOL    HW2 1919   3.941   4.364   0.866 -0.5805 -0.0847  0.2256
  462SOL    HW3 1920   3.844   4.473   0.824  0.1923  0.4240 -0.2544
  462SOL    MW4 1921   3.863   4.388   0.835 -0.3114  0.3238 -0.1364
  463SOL     OW 1922   4.295   0.015   0.830  0.4418 -0.2335 -0.1864
  463SOL    HW2 1923   4.270   0.025   0.921  1.4409 -0.7943  0.1580
  463SOL    HW3 1924   4.214   0.027   0.781 -0.0389  0.3849  0.7540
  463SOL    MW4 1925   4.281   0.018   0.835  0.5102 -0.2259 -0.0169
  464SOL     OW 1926   4.062   0.110   0.693  0.2088 -0.7001 -0.6537
  464SOL    HW2 1927   4.077   0.193   0.738 -0.6233 -0.3878 -0.9392
  464SOL    HW3 1928   4.087   0.127   0.602  4.5762 -2.1158  0.1581
  464SOL    MW4 1929   4.067   0.123   0.687  0.6757 -0.8457 -0.5842
  465SOL     OW 1930   4.070   0.352   0.848  0.1295 -0.4023 -0.1312
  465SOL    HW2 1931   4.141   0.409   0.819 -0.2051  0.1086  0.0439
  465SOL    HW3 1932   3.991   0.391   0.811 -0.2265 -0.1139  0.8987
  465SOL    MW4 1933   4.069   0.364   0.839  0.0381 -0.2968  0.0278
  466SOL     OW 1934   4.288   0.491   0.735  0.3758 -0.4668 -0.6086
  466SOL    HW2 1935   4.372   0.452   0.761  0.8612  0.6487 -0.4763
  466SOL    HW3 1936   4.289   0.488   0.639  0.4566 -0.6639 -0.6028
  466SOL    MW4 1937   4.299   0.485   0.726  0.4506 -0.3456 -0.5904
  467SOL     OW 1938   4.144   0.729   0.835  0.1173  0.2711  0.2458
  467SOL    HW2 1939   4.048   0.737   0.830  0.2669  1.4883 -0.8565
  467SOL    HW3 1940   4.161   0.637   0.814 -0.7495  0.2945 -0.5874
  467SOL    MW4 1941   4.133   0.718   0.832  0.0229  0.4348 -0.0095
  468SOL     OW 1942   4.003   0.976   0.724 -0.3930 -0.5127  0.3789
  468SOL    HW2 1943   4.015   1.053   0.779 -0.0340 -0.5747  0.3850
  468SOL    HW3 1944   3.979   1.011   0.638  0.2452 -0.3838  0.2569
  468SOL    MW4 1945   4.001   0.991   0.720 -0.2623 -0.5038  0.3636
  469SOL     OW 1946   4.065   1.231   0.839 -0.0663  0.3001  0.0181
  469SOL    HW2 1947   4.056   1.222   0.934 -0.5946 -1.6676 -0.1970
  469SOL    HW3 1948   3.985   1.274   0.812  0.2775  1.2724  0.4974
  469SOL    MW4 1949   4.054   1.235   0.848 -0.0901  0.1687  0.0530
  470SOL     OW 1950   0.017   1.200   0.861  0.1652  0.0224 -0.1931
  470SOL    HW2 1951   0.087   1.256   0.827  0.4517 -1.0222 -1.3753
  470SOL    HW3 1952   0.025   1.207   0.956  0.7524  1.2841 -0.3113
  470SOL    MW4 1953   0.027   1.209   0.869  0.2805  0.0510 -0.3647
  471SOL     OW 1954   4.258   1.471   0.876  0.1666 -0.1650  0.3185
  471SOL    HW2 1955   4.195   1.399   0.876 -0.2273  0.1716 -0.6044
  471SOL    HW3 1956   4.270   1.492   0.969 -0.5720 -0.6648  0.5368
  471SOL    MW4 1957   4.251   1.464   0.888  0.0167 -0.1866  0.2256
  472SOL     OW 1958   4.117   1.682   0.781  0.0485  0.0713  0.0707
  472SOL    HW2 1959   4.166   1.608   0.816  0.4273 -0.0058 -0.6210
  472SOL    HW3 1960   4.076   1.648   0.701 -0.4702  0.3645  0.2112
  472SOL    MW4 1961   4.118   1.668   0.775  0.0296  0.0998 -0.0020
  473SOL     OW 1962   4.055   1.939   0.854 -0.1846  0.2297  0.1758
  473SOL    HW2 1963   4.124   2.000   0.829  0.7070 -1.2046 -0.9231
  473SOL    HW3 1964   4.078   1.857   0.811 -3.2110  0.0442 -1.2919
  473SOL    MW4 1965   4.067   1.936   0.845 -0.4659  0.0159 -0.1628
  474SOL     OW 1966   4.286   2.094   0.831  0.6752  0.1131  0.0492
  474SOL    HW2 1967   4.364   2.051   0.865  1.5951  1.3129 -0.5093
  474SOL    HW3 1968   4.305   2.109   0.738 -0.0794  0.7170 -0.0132
  474SOL    MW4 1969   4.298   2.090   0.823  0.6971  0.3512 -0.0327
  475SOL     OW 1970   4.242   2.366   0.900 -0.2187 -0.1495 -0.6818
  475SOL    HW2 1971   4.186   2.408   0.835 -1.2357 -0.4386 -0.0071
  475SOL    HW3 1972   4.248   2.275   0.872  0.1166 -0.0710 -0.8776
  475SOL    MW4 1973   4.235   2.360   0.888 -0.3085 -0.1771 -0.6186
  476SOL     OW 1974   4.056   2.477   0.717 -0.0187 -0.1684  0.4103
  476SOL    HW2 1975   4.049   2.568   0.746 -0.3108  0.0479 -0.3341
  476SOL    HW3 1976   3.971   2.438   0.738  0.1681 -0.3207  0.8939
  476SOL    MW4 1977   4.044   2.484   0.724 -0.0329 -0.1600  0.3759
  477SOL     OW 1978   4.054   2.741   0.781 -0.4800 -0.0596  0.3059
  477SOL    HW2 1979   4.125   2.796   0.750 -0.2588 -0.4441  0.1247
  477SOL    HW3 1980   3.982   2.757   0.719 -1.1991  1.7586  1.5836
  477SOL    MW4 1981   4.054   2.750   0.768 -0.5460  0.1297  0.4506
  478SOL     OW 1982   4.270   2.856   0.679 -0.3130 -0.1848  0.5873
  478SOL    HW2 1983   4.346   2.813   0.718 -0.0118 -0.3667 -0.1921
  478SOL    HW3 1984   4.299   2.879   0.590 -1.0126  0.1652  0.4507
  478SOL    MW4 1985   4.284   2.854   0.672 -0.3657 -0.1624  0.4665
  479SOL     OW 1986   4.260   3.103   0.841  0.1277  0.0947  0.1260
  479SOL    HW2 1987   4.276   3.017   0.802 -0.9903 -0.2286  0.3565
  479SOL    HW3 1988   4.335   3.156   0.813  0.5829 -0.8125 -0.4202
  479SOL    MW4 1989   4.272   3.098   0.832  0.0401 -0.0675  0.0843
  480SOL     OW 1990   4.022   3.201   0.742  0.5818  0.0695  0.2648
  480SOL    HW2 1991   4.024   3.296   0.756 -0.1368  0.0196  0.7125
  480SOL    HW3 1992   4.096   3.169   0.794  0.5120  0.3362  0.5362
  480SOL    MW4 1993   4.032   3.209   0.751  0.4778  0.0985  0.3595
  481SOL     OW 1994   4.038   3.483   0.811  0.3415  0.2672 -0.0633
  481SOL    HW2 1995   4.053   3.491   0.906 -1.3324 -1.1821  0.3451
  481SOL    HW3 1996   4.114   3.527   0.772  1.7736 -0.3104  1.9418
  481SOL    MW4 1997   4.050   3.490   0.819  0.3099 -0.0002  0.2551
  482SOL     OW 1998   4.251   3.605   0.675 -0.2825 -0.0680 -0.2054
  482SOL    HW2 1999   4.271   3.686   0.722  3.0484 -0.5448 -0.7174
  482SOL    HW3 2000   4.259   3.628   0.583  1.5220 -1.1485 -0.3444
  482SOL    MW4 2001   4.254   3.619   0.669  0.3953 -0.2735 -0.2913
  483SOL     OW 2002   4.298   3.831   0.844  0.2539 -0.2255 -0.7664
  483SOL    HW2 2003   4.324   3.831   0.936  0.9553  0.4749 -0.9620
  483SOL    HW3 2004   4.237   3.904   0.835  0.2036 -0.2780 -0.8619
  483SOL    MW4 2005   4.293   3.841   0.855  0.3395 -0.1400 -0.8048
  484SOL     OW 2006   4.113   4.032   0.823 -0.0779 -0.2870 -0.1354
  484SOL    HW2 2007   4.025   3.994   0.830 -0.0680 -0.3304 -0.2519
  484SOL    HW3 2008   4.128   4.041   0.729  0.0420 -0.2781 -0.1146
  484SOL    MW4 2009   4.103   4.028   0.812 -0.0610 -0.2913 -0.1481
  485SOL     OW 2010   4.088   4.301   0.934 -0.3528 -0.2084 -0.2621
  485SOL    HW2 2011   4.163   4.341   0.890 -1.1867 -1.1320 -2.6132
  485SOL    HW3 2012   4.092   4.209   0.909 -1.1808 -0.6427  1.1675
  485SOL    MW4 2013   4.098   4.295   0.925 -0.5713 -0.3877 -0.3837
  486SOL     OW 2014   4.315   4.417   0.816 -0.0340  0.4014 -0.1454
  486SOL    HW2 2015   4.310   4.513   0.823  0.6512  0.4372 -0.0709
  486SOL    HW3 2016   4.405   4.396   0.842  0.0297 -0.2017 -0.8253
  486SOL    MW4 2017   4.327   4.427   0.820  0.0653  0.3266 -0.2252
  487SOL     OW 2018   0.242   0.002   1.135 -0.3285  0.0365 -0.3962
  487SOL    HW2 2019   0.319   0.048   1.168 -0.4067  0.2711 -0.5363
  487SOL    HW3 2020   0.239   0.024   1.042 -1.6214  1.5448 -0.0326
  487SOL    MW4 2021   0.251   0.011   1.127 -0.5094  0.2666 -0.3667
  488SOL     OW 2022   0.003   0.140   1.237  0.4061  0.0254  0.0029
  488SOL    HW2 2023  -0.072   0.093   1.201  0.0753  0.5939 -0.0477
  488SOL    HW3 2024   0.079   0.091   1.205  0.0118 -1.5453  1.4667
  488SOL    MW4 2025   0.003   0.127   1.228  0.3104 -0.1068  0.1894
  489SOL     OW 2026   0.030   0.376   1.108  0.0183  0.2629  0.0841
  489SOL    HW2 2027  -0.063   0.402   1.112  0.0756  0.4734  0.0901
  489SOL    HW3 2028   0.035   0.297   1.162 -0.2102  0.0904 -0.1446
  489SOL    MW4 2029   0.018   0.369   1.116 -0.0043  0.2679  0.0547
  490SOL     OW 2030   0.239   0.529   1.228  0.2118 -0.4571 -0.3085
  490SOL    HW2 2031   0.224   0.617   1.195 -1.3034 -0.0601  1.3149
  490SOL    HW3 2032   0.170   0.476   1.188  0.9290 -0.8402 -1.0387
  490SOL    MW4 2033   0.228   0.534   1.219  0.1065 -0.4553 -0.1906
  491SOL     OW 2034   0.211   0.782   1.097 -0.3161 -0.4314 -0.1722
  491SOL    HW2 2035   0.288   0.823   1.138 -0.3910  0.2664 -0.7139
  491SOL    HW3 2036   0.137   0.834   1.128 -0.5765 -1.1535  0.4113
  491SOL    MW4 2037   0.212   0.794   1.106 -0.3603 -0.4345 -0.1667
  492SOL     OW 2038   4.463   0.896   1.185  0.0799 -0.1928 -0.2084
  492SOL    HW2 2039   4.475   0.896   1.280 -0.9477  0.2541 -0.0748
  492SOL    HW3 2040   4.385   0.843   1.170 -0.9886  1.4594 -0.6306
  492SOL    MW4 2041   4.454   0.889   1.196 -0.1969  0.0841 -0.2464
  493SOL     OW 2042   0.009   1.191   1.139 -0.4565 -0.2573  0.1666
  493SOL    HW2 2043  -0.067   1.237   1.175 -0.2951  0.9661 -1.0246
  493SOL    HW3 2044   0.003   1.103   1.176 -1.6295  0.2634  1.2541
  493SOL    MW4 2045  -0.002   1.185   1.148 -0.5899 -0.0273  0.1529
  494SOL     OW 2046   0.240   1.320   1.210  0.2490 -0.1728 -0.3029
  494SOL    HW2 2047   0.315   1.265   1.187  0.1771 -0.3540 -0.1051
  494SOL    HW3 2048   0.164   1.272   1.178  0.1647 -0.3202  0.1122
  494SOL    MW4 2049   0.240   1.306   1.203  0.2284 -0.2161 -0.2221
  495SOL     OW 2050   0.271   1.564   1.128  0.2409 -0.1829  0.3925
  495SOL    HW2 2051   0.294   1.558   1.035 -0.7584  0.8533  0.0639
  495SOL    HW3 2052   0.264   1.473   1.157  0.0372 -0.5225 -0.6946
  495SOL    MW4 2053   0.273   1.551   1.119  0.0822 -0.0910  0.2058
  496SOL     OW 2054   0.044   1.665   1.238  0.4282 -0.4200 -0.3438
  496SOL    HW2 2055   0.034   1.758   1.217 -0.6622 -0.0780  1.4988
  496SOL    HW3 2056   0.127   1.640   1.199  0.9646  1.4680 -0.4637
  496SOL    MW4 2057   0.053   1.674   1.230  0.3548 -0.1258 -0.1165
  497SOL     OW 2058   4.454   1.941   1.174  0.2424  0.0563 -0.4015
  497SOL    HW2 2059   4.368   1.976   1.194  0.6400  0.7720  0.0735
  497SOL    HW3 2060   4.457   1.937   1.078 -0.2310  0.2491 -0.4227
  497SOL    MW4 2061   4.443   1.945   1.164  0.2322  0.1761 -0.3419
  498SOL     OW 2062   0.202   2.065   1.223  0.5263 -0.2035  0.2237
  498SOL    HW2 2063   0.197   2.153   1.186  0.3561 -0.2273  0.1895
  498SOL    HW3 2064   0.113   2.030   1.214  0.5465 -0.3040  0.4218
  498SOL    MW4 2065   0.189   2.072   1.217  0.5065 -0.2198  0.2452
  499SOL     OW 2066   0.191   2.335   1.120 -0.3686  0.0953  0.0891
  499SOL    HW2 2067   0.262   2.380   1.167  0.1415  0.2809 -0.8385
  499SOL    HW3 2068   0.113   2.385   1.142 -0.5660 -1.3152  2.7435
  499SOL    MW4 2069   0.190   2.348   1.129 -0.3273 -0.0660  0.3170
  500SOL     OW 2070   4.444   2.470   1.194  0.0602 -0.0987 -0.2076
  500SOL    HW2 2071   4.470   2.447   1.283  0.1893 -0.6003 -0.3702
  500SOL    HW3 2072   4.360   2.427   1.182 -0.9265  1.6303  0.3630
  500SOL    MW4 2073   4.437   2.461   1.204 -0.0525  0.0632 -0.1537
  501SOL     OW 2074   4.482   2.724   1.097  0.2518 -0.5284  0.3817
  501SOL    HW2 2075   4.400   2.756   1.136 -0.2369 -0.3471 -0.7643
  501SOL    HW3 2076   4.488   2.633   1.124 -0.8234 -0.8103 -0.3209
  501SOL    MW4 2077   4.472   2.716   1.106  0.0458 -0.5417  0.1377
  502SOL     OW 2078   0.230   2.878   1.189  0.2560  0.3544 -0.4373
  502SOL    HW2 2079   0.229   2.866   1.284  0.3163  0.0498 -0.4751
  502SOL    HW3 2080   0.147   2.841   1.159 -0.0201  0.9653 -0.4437
  502SOL    MW4 2081   0.219   2.871   1.197  0.2275  0.3946 -0.4431
  503SOL     OW 2082   0.253   3.130   1.094  0.2908  0.4020  0.3835
  503SOL    HW2 2083   0.322   3.175   1.144 -0.1667  0.2557  1.1554
  503SOL    HW3 2084   0.239   3.048   1.141 -1.9453  1.4045  1.5174
  503SOL    MW4 2085   0.260   3.125   1.107 -0.0646  0.5147  0.6349
  504SOL     OW 2086   4.491   3.241   1.181 -0.1182  0.2254  0.1240
  504SOL    HW2 2087   4.417   3.182   1.165  0.0298 -0.6260  2.4279
  504SOL    HW3 2088   4.567   3.191   1.151 -0.1861  0.0276  0.2783
  504SOL    MW4 2089   4.491   3.226   1.175 -0.1076  0.0868  0.4483
  505SOL     OW 2090   0.006   3.510   1.087  0.6521  0.0376 -0.5622
  505SOL    HW2 2091   0.008   3.421   1.123 -0.3222  0.2785  0.1205
  505SOL    HW3 2092  -0.008   3.498   0.993 -0.0816 -0.5193 -0.3879
  505SOL    MW4 2093   0.004   3.496   1.080  0.4268 -0.0043 -0.4491
  506SOL     OW 2094   0.243   3.634   1.189 -0.0749  0.2836 -0.4173
  506SOL    HW2 2095   0.227   3.643   1.283 -0.6527  0.8264 -0.5652
  506SOL    HW3 2096   0.167   3.586   1.156  0.0491  0.2360 -0.6344
  506SOL    MW4 2097   0.231   3.628   1.197 -0.1348  0.3488 -0.4654
  507SOL     OW 2098   0.281   3.904   1.141  0.0408 -0.2554  0.0687
  507SOL    HW2 2099   0.195   3.944   1.154  0.4945  0.4800  0.8340
  507SOL    HW3 2100   0.265   3.810   1.144 -0.5349 -0.1164  1.5446
  507SOL    MW4 2101   0.268   3.897   1.143  0.0247 -0.1397  0.3644
  508SOL     OW 2102   0.048   4.032   1.217 -1.0230  0.0934  0.0882
  508SOL    HW2 2103   0.039   4.046   1.311 -1.7818  0.5964 -0.0569
  508SOL    HW3 2104  -0.034   3.990   1.191 -0.1984 -1.4552 -0.0872
  508SOL    MW4 2105   0.036   4.028   1.226 -1.0143 -0.0443  0.0461
  509SOL     OW 2106   0.008   4.292   1.141  0.4109 -0.1399 -0.2010
  509SOL    HW2 2107   0.095   4.327   1.157  0.2924 -0.3868  0.9638
  509SOL    HW3 2108   0.013   4.200   1.168 -0.6675  0.2738  1.4343
  509SOL    MW4 2109   0.020   4.284   1.146  0.2530 -0.1178  0.1683
  510SOL     OW 2110   0.251   4.395   1.197 -0.2757  0.1806  0.0605
  510SOL    HW2 2111   0.239   4.403   1.291 -2.8103  0.6121 -0.2914
  510SOL    HW3 2112   0.267   4.484   1.166  0.6021  0.0342  0.0620
  510SOL    MW4 2113   0.252   4.408   1.205 -0.4943  0.2184  0.0143
  511SOL     OW 2114   0.677   0.004   1.094 -0.1385  0.6731 -0.7293
  511SOL    HW2 2115   0.749   0.058   1.128 -0.7942  1.2941 -0.3219
  511SOL    HW3 2116   0.683  -0.077   1.145 -0.1848  1.0161 -0.1666
  511SOL    MW4 2117   0.687   0.000   1.105 -0.2311  0.7997 -0.6013
  512SOL     OW 2118   0.474   0.130   1.237 -0.0578  0.2323 -0.1104
  512SOL    HW2 2119   0.477   0.224   1.218  1.0475  0.0306 -0.9504
  512SOL    HW3 2120   0.551   0.094   1.193  0.1933 -0.8874  1.2063
  512SOL    MW4 2121   0.485   0.138   1.229  0.1212  0.0580 -0.0476
  513SOL     OW 2122   0.455   0.381   1.143  0.0400  0.4336 -0.0278
  513SOL    HW2 2123   0.384   0.443   1.163 -0.3525  0.2105 -0.7232
  513SOL    HW3 2124   0.450   0.369   1.048  0.3201 -0.4234  0.0654
  513SOL    MW4 2125   0.445   0.388   1.133  0.0252  0.2911 -0.1073
  514SOL     OW 2126   0.727   0.473   1.234  0.2386 -0.0943 -0.5990
  514SOL    HW2 2127   0.700   0.562   1.215  0.0753  0.0570  0.3227
  514SOL    HW3 2128   0.646   0.422   1.229  0.3653 -0.2227 -1.3247
  514SOL    MW4 2129   0.712   0.478   1.231  0.2338 -0.0913 -0.5730
  515SOL     OW 2130   0.690   0.736   1.157  0.2270 -0.1072 -0.1819
  515SOL    HW2 2131   0.606   0.778   1.171  0.4940  0.3273  0.1398
  515SOL    HW3 2132   0.706   0.744   1.063 -1.0002 -1.9398 -0.5668
  515SOL    MW4 2133   0.681   0.742   1.146  0.1003 -0.2917 -0.1903
  516SOL     OW 2134   0.460   0.873   1.208  0.0117 -0.0930 -0.5804
  516SOL    HW2 2135   0.452   0.868   1.303  1.9378 -0.1831 -0.4033
  516SOL    HW3 2136   0.444   0.965   1.187  0.7688  0.1627 -0.0389
  516SOL    MW4 2137   0.457   0.884   1.218  0.3657 -0.0712 -0.4855
  517SOL     OW 2138   0.450   1.158   1.145  0.2458  0.1160  0.0704
  517SOL    HW2 2139   0.532   1.201   1.166  1.5463 -2.2081 -0.1068
  517SOL    HW3 2140   0.435   1.179   1.052 -0.4450  2.1984  0.6144
  517SOL    MW4 2141   0.459   1.166   1.135  0.3262  0.0842  0.1189
  518SOL     OW 2142   0.671   1.284   1.228 -0.3310  0.2017 -0.6499
  518SOL    HW2 2143   0.747   1.242   1.187 -0.8383 -0.2290 -1.1653
  518SOL    HW3 2144   0.673   1.374   1.195  0.7695  0.5908  0.4733
  518SOL    MW4 2145   0.681   1.291   1.218 -0.2527  0.1962 -0.5696
  519SOL     OW 2146   0.693   1.559   1.134  0.0449 -0.0538 -0.3244
  519SOL    HW2 2147   0.770   1.603   1.171 -0.2479  0.2996 -0.1295
  519SOL    HW3 2148   0.619   1.603   1.176 -0.2780  0.0839 -1.0451
  519SOL    MW4 2149   0.694   1.571   1.145 -0.0363  0.0108 -0.3939
  520SOL     OW 2150   0.473   1.697   1.245 -0.1087 -0.0375 -0.0344
  520SOL    HW2 2151   0.465   1.674   1.337 -0.5734 -0.3573 -0.1544
  520SOL    HW3 2152   0.391   1.668   1.205  0.9250 -1.7991 -0.9517
  520SOL    MW4 2153   0.461   1.691   1.252 -0.0336 -0.3122 -0.1712
  521SOL     OW 2154   0.443   1.959   1.150  0.2202  0.0816 -0.2296
  521SOL    HW2 2155   0.449   1.871   1.188  0.5092 -0.0293 -0.5211
  521SOL    HW3 2156   0.354   1.988   1.169  0.4491  0.1438  0.7791
  521SOL    MW4 2157   0.432   1.951   1.158  0.2885  0.0752 -0.1352
  522SOL     OW 2158   0.650   2.128   1.242  0.0157 -0.1653  0.2703
  522SOL    HW2 2159   0.656   2.131   1.338 -0.9370  1.3538  0.3012
  522SOL    HW3 2160   0.571   2.079   1.224 -0.2534  0.2563  0.2874
  522SOL    MW4 2161   0.641   2.122   1.252 -0.1454  0.0908  0.2767
  523SOL     OW 2162   0.633   2.400   1.129 -0.1330 -0.1410 -0.2800
  523SOL    HW2 2163   0.544   2.430   1.148 -0.2062 -0.1872 -0.5560
  523SOL    HW3 2164   0.640   2.316   1.176 -0.1114  0.0409  0.0414
  523SOL    MW4 2165   0.623   2.393   1.138 -0.1398 -0.1233 -0.2739
  524SOL     OW 2166   0.395   2.509   1.239  0.4350 -0.5104 -0.0799
  524SOL    HW2 2167   0.419   2.531   1.329  1.5720 -0.0235 -0.5006
  524SOL    HW3 2168   0.407   2.590   1.190  0.0047 -0.8208 -0.7090
  524SOL    MW4 2169   0.400   2.522   1.244  0.5282 -0.4866 -0.2184
  525SOL     OW 2170   0.458   2.745   1.101 -0.2798  0.3888  0.2902
  525SOL    HW2 2171   0.377   2.795   1.111 -1.2029 -1.1105  0.4289
  525SOL    HW3 2172   0.465   2.730   1.006 -0.7924 -0.5161  0.3981
  525SOL    MW4 2173   0.449   2.750   1.090 -0.4692  0.0713  0.3226
  526SOL     OW 2174   0.659   2.892   1.210 -0.1400  0.3794 -0.0227
  526SOL    HW2 2175   0.669   2.970   1.156  0.3849 -0.5268 -1.2302
  526SOL    HW3 2176   0.602   2.834   1.159  0.6335 -0.6192  0.2332
  526SOL    MW4 2177   0.653   2.894   1.196  0.0314  0.1283 -0.1483
  527SOL     OW 2178   0.666   3.148   1.079  0.2831 -0.0634  0.1425
  527SOL    HW2 2179   0.756   3.171   1.103 -0.3359  0.3820  2.2089
  527SOL    HW3 2180   0.664   3.155   0.984  2.1974  0.7838  0.1256
  527SOL    MW4 2181   0.678   3.152   1.070  0.4540  0.1070  0.4128
  528SOL     OW 2182   0.464   3.252   1.238 -0.3467 -0.1973  0.0521
  528SOL    HW2 2183   0.475   3.342   1.207 -0.3388  0.1728  1.1111
  528SOL    HW3 2184   0.531   3.202   1.192 -0.4286  0.3242 -0.6301
  528SOL    MW4 2185   0.474   3.257   1.228 -0.3565 -0.0796  0.1017
  529SOL     OW 2186   0.487   3.513   1.097 -0.6240 -0.0735 -0.1527
  529SOL    HW2 2187   0.551   3.560   1.151  0.1434 -1.2823  0.0138
  529SOL    HW3 2188   0.404   3.557   1.116 -0.4646 -0.7956  2.4467
  529SOL    MW4 2189   0.485   3.525   1.107 -0.5017 -0.3285  0.2123
  530SOL     OW 2190   0.720   3.650   1.220  0.8777 -0.1728  0.0842
  530SOL    HW2 2191   0.700   3.667   1.312  3.1450 -0.1444  0.6216
  530SOL    HW3 2192   0.707   3.734   1.177 -1.2426 -0.4432  0.1592
  530SOL    MW4 2193   0.716   3.663   1.226  0.8970 -0.2046  0.1649
  531SOL     OW 2194   0.704   3.893   1.085  0.1467  0.0216  0.1594
  531SOL    HW2 2195   0.637   3.943   1.132 -1.5831 -1.1529 -1.0043
  531SOL    HW3 2196   0.677   3.897   0.993  2.6407  0.9702 -0.5868
  531SOL    MW4 2197   0.692   3.900   1.079  0.2475 -0.0081 -0.0925
  532SOL     OW 2198   0.499   4.023   1.229  0.0108  0.1726  0.1153
  532SOL    HW2 2199   0.489   4.104   1.179 -0.6706  0.3360  0.4989
  532SOL    HW3 2200   0.422   3.971   1.206  0.7048 -0.5878 -0.5210
  532SOL    MW4 2201   0.487   4.027   1.219  0.0125  0.0935  0.0820
  533SOL     OW 2202   0.483   4.285   1.096 -0.0173  1.1638  0.0731
  533SOL    HW2 2203   0.552   4.330   1.144 -0.0676 -0.2811  1.5602
  533SOL    HW3 2204   0.403   4.309   1.142  0.0152 -0.8618  1.2573
  533SOL    MW4 2205   0.481   4.294   1.108 -0.0196  0.7062  0.4256
  534SOL     OW 2206   0.697   4.426   1.220  0.1122  0.2724  0.5801
  534SOL    HW2 2207   0.687   4.396   1.311 -0.8418 -1.4309 -0.0590
  534SOL    HW3 2208   0.772   4.376   1.187 -0.9485 -0.8055 -0.2364
  534SOL    MW4 2209   0.705   4.415   1.228 -0.1535 -0.0944  0.3880
  535SOL     OW 2210   1.130   4.655   1.133  0.0810  0.0007 -0.2382
  535SOL    HW2 2211   1.153   4.565   1.156  0.1441 -0.0897 -0.6552
  535SOL    HW3 2212   1.154   4.663   1.041  1.9307  1.0469  0.2983
  535SOL    MW4 2213   1.136   4.644   1.124  0.3334  0.1268 -0.2226
  536SOL     OW 2214   0.899   0.110   1.234  0.1125  0.1472  0.0845
  536SOL    HW2 2215   0.887   0.109   1.328  0.1003  0.6200  0.0897
  536SOL    HW3 2216   0.986   0.072   1.220 -1.0082 -2.5173  0.0980
  536SOL    MW4 2217   0.909   0.105   1.244 -0.0370 -0.1420  0.0869
  537SOL     OW 2218   0.958   0.361   1.147 -0.0579  0.3315 -0.3657
  537SOL    HW2 2219   0.943   0.269   1.167  0.1782  0.3101 -0.2905
  537SOL    HW3 2220   0.879   0.405   1.180 -0.4398  0.0855 -0.9515
  537SOL    MW4 2221   0.945   0.355   1.154 -0.0771  0.2963 -0.4332
  538SOL     OW 2222   1.176   0.527   1.208  0.0810 -0.6011 -0.3026
  538SOL    HW2 2223   1.192   0.510   1.301  2.6630 -0.6294 -0.7381
  538SOL    HW3 2224   1.105   0.467   1.185 -0.5011 -0.6776  1.6109
  538SOL    MW4 2225   1.169   0.517   1.217  0.3449 -0.6150 -0.1076
  539SOL     OW 2226   1.094   0.783   1.087 -0.8607 -0.0767  0.3509
  539SOL    HW2 2227   1.027   0.826   1.140 -0.6315 -1.2714  1.6284
  539SOL    HW3 2228   1.109   0.699   1.130  0.8212 -0.2033 -0.4316
  539SOL    MW4 2229   1.087   0.778   1.100 -0.6084 -0.2511  0.4162
  540SOL     OW 2230   0.904   0.898   1.254  0.2110  0.0695 -0.0393
  540SOL    HW2 2231   0.889   0.990   1.231  0.6875  0.3378  0.6967
  540SOL    HW3 2232   0.824   0.853   1.228 -0.3522  0.8371  0.3400
  540SOL    MW4 2233   0.892   0.904   1.248  0.1996  0.2061  0.1079
  541SOL     OW 2234   0.907   1.153   1.150 -0.4330  0.3767 -0.5319
  541SOL    HW2 2235   0.978   1.204   1.189  0.0307 -1.1817  0.7409
  541SOL    HW3 2236   0.921   1.162   1.056  1.9783 -0.5210 -0.3144
  541SOL    MW4 2237   0.919   1.161   1.143 -0.0537  0.0526 -0.3353
  542SOL     OW 2238   1.137   1.281   1.239  0.1219 -0.1699  0.3698
  542SOL    HW2 2239   1.119   1.272   1.332  0.6316  0.7906  0.5716
  542SOL    HW3 2240   1.227   1.251   1.229 -0.1478 -0.9014  0.0686
  542SOL    MW4 2241   1.146   1.276   1.250  0.1534 -0.1398  0.3566
  543SOL     OW 2242   1.138   1.564   1.188  0.6243  0.0479 -0.4059
  543SOL    HW2 2243   1.144   1.471   1.209  0.4454  0.1338  0.0450
  543SOL    HW3 2244   1.134   1.568   1.092  0.0845 -0.4412 -0.4071
  543SOL    MW4 2245   1.138   1.553   1.178  0.5295 -0.0052 -0.3464
  544SOL     OW 2246   0.907   1.702   1.271  0.3513  0.8240  0.1163
  544SOL    HW2 2247   0.919   1.783   1.222  0.4744 -0.5462 -2.2117
  544SOL    HW3 2248   0.986   1.651   1.251 -0.4993 -0.5370  0.2174
  544SOL    MW4 2249   0.919   1.706   1.262  0.2554  0.4637 -0.1775
  545SOL     OW 2250   0.882   1.958   1.188  0.0472  0.1721  0.1555
  545SOL    HW2 2251   0.949   2.005   1.238  0.7799 -1.4507  0.7338
  545SOL    HW3 2252   0.800   2.003   1.208  0.5784  0.5554  1.5172
  545SOL    MW4 2253   0.880   1.970   1.197  0.2139  0.0087  0.4114
  546SOL     OW 2254   1.082   2.104   1.284  0.0186  0.4794 -0.0124
  546SOL    HW2 2255   1.095   2.135   1.374  0.4618  0.3930 -0.0476
  546SOL    HW3 2256   1.090   2.183   1.230  2.4032  0.1312 -0.2212
  546SOL    MW4 2257   1.084   2.119   1.289  0.3917  0.4220 -0.0448
  547SOL     OW 2258   1.102   2.337   1.138  0.1124 -0.0948  0.5687
  547SOL    HW2 2259   1.192   2.368   1.151 -0.0102  0.3195  0.4093
  547SOL    HW3 2260   1.047   2.401   1.182 -0.1351 -0.1401  0.3307
  547SOL    MW4 2261   1.107   2.349   1.146  0.0635 -0.0463  0.5162
  548SOL     OW 2262   0.867   2.510   1.223  0.1392 -0.0063  0.2154
  548SOL    HW2 2263   0.875   2.498   1.318 -0.3043  3.8894  0.8190
  548SOL    HW3 2264   0.783   2.470   1.200 -0.8620  1.0986  1.8753
  548SOL    MW4 2265   0.857   2.503   1.233 -0.0514  0.6530  0.5140
  549SOL     OW 2266   0.919   2.766   1.144  0.3308  0.4142 -0.3498
  549SOL    HW2 2267   0.900   2.675   1.167  1.7305  0.0152 -0.7585
  549SOL    HW3 2268   0.849   2.816   1.187  0.8044 -0.6490  1.7154
  549SOL    MW4 2269   0.907   2.761   1.153  0.5779  0.2213 -0.1312
  550SOL     OW 2270   1.166   2.845   1.203 -0.0448 -0.0293 -0.1535
  550SOL    HW2 2271   1.157   2.863   1.297  1.2428  1.5862 -0.3290
  550SOL    HW3 2272   1.078   2.817   1.176 -0.4226 -0.5614  1.5360
  550SOL    MW4 2273   1.153   2.843   1.212  0.0752  0.1137  0.0461
  551SOL     OW 2274   1.158   3.113   1.114  0.3205 -0.2530 -0.1329
  551SOL    HW2 2275   1.169   3.025   1.150 -1.3095  0.0066  1.0606
  551SOL    HW3 2276   1.162   3.100   1.019 -0.7715 -1.7478 -0.0035
  551SOL    MW4 2277   1.160   3.099   1.106 -0.0386 -0.4158  0.0416
  552SOL     OW 2278   0.912   3.225   1.166 -0.5411 -0.2609 -0.6812
  552SOL    HW2 2279   0.930   3.317   1.144 -1.3039 -0.0583 -0.5061
  552SOL    HW3 2280   0.995   3.180   1.153  0.2152  0.7083  0.5551
  552SOL    MW4 2281   0.925   3.231   1.162 -0.5419 -0.1063 -0.4950
  553SOL     OW 2282   0.926   3.493   1.114 -0.1662  0.0801  0.6046
  553SOL    HW2 2283   0.851   3.545   1.142  0.4152  2.0290 -1.3714
  553SOL    HW3 2284   0.929   3.502   1.019  1.2916 -1.7632  0.4254
  553SOL    MW4 2285   0.917   3.501   1.105  0.1028  0.0942  0.3202
  554SOL     OW 2286   1.124   3.642   1.211  0.1582  0.3963  0.5651
  554SOL    HW2 2287   1.208   3.613   1.175 -0.7200  0.4546 -1.5850
  554SOL    HW3 2288   1.063   3.572   1.190 -0.5691  0.8533  1.1175
  554SOL    MW4 2289   1.127   3.629   1.203 -0.0536  0.4640  0.3544
  555SOL     OW 2290   1.178   3.894   1.124  0.5060 -0.2296  0.3338
  555SOL    HW2 2291   1.098   3.943   1.142  0.4164 -0.4703  0.5772
  555SOL    HW3 2292   1.159   3.805   1.150  0.8355 -0.3003  0.3394
  555SOL    MW4 2293   1.165   3.889   1.130  0.5376 -0.2708  0.3666
  556SOL     OW 2294   0.944   4.017   1.177 -0.1892 -0.3564  0.2689
  556SOL    HW2 2295   0.938   4.013   1.273  0.3402 -0.9624  0.2863
  556SOL    HW3 2296   0.875   3.958   1.146 -0.2451 -0.2984  0.2828
  556SOL    MW4 2297   0.934   4.009   1.186 -0.1267 -0.4287  0.2731
  557SOL     OW 2298   0.909   4.280   1.088 -0.4508  0.1548 -0.0559
  557SOL    HW2 2299   0.926   4.192   1.121  0.1538  0.0692 -0.5998
  557SOL    HW3 2300   0.917   4.273   0.993 -1.1118  0.6444 -0.1573
  557SOL    MW4 2301   0.912   4.268   1.080 -0.4582  0.2084 -0.1410
  558SOL     OW 2302   1.131   4.384   1.226 -0.0787  0.4051 -0.2478
  558SOL    HW2 2303   1.126   4.386   1.322  0.7282 -0.9235 -0.1588
  558SOL    HW3 2304   1.042   4.365   1.198 -0.1873  0.1018  0.2809
  558SOL    MW4 2305   1.119   4.382   1.235  0.0135  0.1898 -0.1664
  559SOL     OW 2306   1.579   0.025   1.105 -0.4885 -0.0206  0.0601
  559SOL    HW2 2307   1.650   0.067   1.152  1.5930 -0.3633 -2.6338
  559SOL    HW3 2308   1.575  -0.064   1.141  0.2079  0.1242  0.4964
  559SOL    MW4 2309   1.587   0.018   1.116 -0.1218 -0.0467 -0.2378
  560SOL     OW 2310   1.366   0.168   1.199 -0.0168  0.1912  0.0653
  560SOL    HW2 2311   1.439   0.117   1.164 -0.2053  0.7903 -1.2539
  560SOL    HW3 2312   1.290   0.110   1.190 -0.3433  0.8665 -2.0032
  560SOL    MW4 2313   1.365   0.154   1.193 -0.0848  0.3593 -0.3817
  561SOL     OW 2314   1.386   0.427   1.109 -0.7808 -0.4865  0.2210
  561SOL    HW2 2315   1.373   0.337   1.139  0.3319 -1.2347 -1.4364
  561SOL    HW3 2316   1.322   0.478   1.157  0.2508 -1.7707  3.0630
  561SOL    MW4 2317   1.376   0.422   1.119 -0.4978 -0.7547  0.3772
  562SOL     OW 2318   1.611   0.533   1.235  0.1764 -0.6345  0.1936
  562SOL    HW2 2319   1.602   0.625   1.208  0.6723 -0.4699  0.5746
  562SOL    HW3 2320   1.544   0.487   1.185  0.8645 -0.2871 -1.0778
  562SOL    MW4 2321   1.601   0.539   1.225  0.3327 -0.5670  0.0762
  563SOL     OW 2322   1.558   0.791   1.179  0.1670 -0.2540  0.1324
  563SOL    HW2 2323   1.640   0.837   1.197 -1.0815  2.5226 -1.0337
  563SOL    HW3 2324   1.548   0.796   1.084 -0.7165 -1.7249  0.1314
  563SOL    MW4 2325   1.567   0.798   1.169 -0.1142 -0.0817 -0.0216
  564SOL     OW 2326   1.338   0.924   1.226  0.0556  0.0030  0.2099
  564SOL    HW2 2327   1.421   0.878   1.227 -0.6295 -1.2810 -0.2096
  564SOL    HW3 2328   1.281   0.870   1.172 -0.8583  1.2153 -0.0774
  564SOL    MW4 2329   1.341   0.911   1.219 -0.1554 -0.0064  0.1167
  565SOL     OW 2330   1.388   1.197   1.186  0.1837 -0.5494  0.3250
  565SOL    HW2 2331   1.362   1.107   1.205  2.5764 -1.2681  0.3617
  565SOL    HW3 2332   1.386   1.203   1.091 -0.9695 -0.3236  0.3593
  565SOL    MW4 2333   1.385   1.186   1.176  0.3474 -0.6144  0.3343
  566SOL     OW 2334   1.605   1.349   1.261  0.4815 -0.0656  0.4995
  566SOL    HW2 2335   1.670   1.286   1.230  0.3276  0.5434 -1.1174
  566SOL    HW3 2336   1.520   1.310   1.237  0.3040 -0.1674  1.2778
  566SOL    MW4 2337   1.602   1.335   1.254  0.4376  0.0012  0.3889
  567SOL     OW 2338   1.587   1.621   1.183  0.2377 -0.6366 -0.7652
  567SOL    HW2 2339   1.654   1.657   1.241  0.4662 -0.1992 -1.3030
  567SOL    HW3 2340   1.596   1.526   1.192 -0.8525 -0.5928  1.2334
  567SOL    MW4 2341   1.597   1.613   1.192  0.1240 -0.5732 -0.5724
  568SOL     OW 2342   1.345   1.711   1.294 -1.0408  0.0013 -0.4364
  568SOL    HW2 2343   1.423   1.680   1.249 -0.3879  1.3441 -0.2839
  568SOL    HW3 2344   1.274   1.660   1.258 -0.2811 -0.2102 -1.6603
  568SOL    MW4 2345   1.346   1.700   1.283 -0.8544  0.1504 -0.5778
  569SOL     OW 2346   1.324   1.961   1.188 -0.0514 -0.0508 -0.0788
  569SOL    HW2 2347   1.322   1.869   1.214  0.5098  0.0497  0.3449
  569SOL    HW3 2348   1.236   1.993   1.207  0.2165 -0.1004  1.3013
  569SOL    MW4 2349   1.312   1.953   1.194  0.0581 -0.0441  0.1591
  570SOL     OW 2350   1.564   2.076   1.227 -0.0532 -0.2878  0.1304
  570SOL    HW2 2351   1.566   2.165   1.194 -0.7130 -0.0518  0.7152
  570SOL    HW3 2352   1.472   2.050   1.222  0.1300 -0.9361 -0.0330
  570SOL    MW4 2353   1.552   2.084   1.222 -0.1161 -0.3421  0.1860
  571SOL     OW 2354   1.592   2.323   1.142  0.4428  0.2492  0.0235
  571SOL    HW2 2355   1.509   2.369   1.156 -0.5758 -1.1456 -1.3523
  571SOL    HW3 2356   1.598   2.311   1.048  1.5417 -0.9133  0.2208
  571SOL    MW4 2357   1.582   2.328   1.132  0.4534 -0.0885 -0.1321
  572SOL     OW 2358   1.355   2.429   1.175  0.3366 -0.1535  0.4566
  572SOL    HW2 2359   1.346   2.422   1.270 -2.3419 -1.7419  0.1504
  572SOL    HW3 2360   1.341   2.522   1.156  2.6489  0.4975  1.7242
  572SOL    MW4 2361   1.352   2.440   1.185  0.2882 -0.2770  0.5835
  573SOL     OW 2362   1.359   2.687   1.103 -0.3290  0.3131  0.0009
  573SOL    HW2 2363   1.436   2.731   1.139 -0.7482  0.7222  0.3922
  573SOL    HW3 2364   1.285   2.736   1.137 -0.7434  0.4649 -1.1100
  573SOL    MW4 2365   1.360   2.699   1.113 -0.4390  0.3870 -0.0939
  574SOL     OW 2366   1.587   2.851   1.214 -0.0531  0.6330 -0.5342
  574SOL    HW2 2367   1.679   2.825   1.217 -0.1583  0.3522  0.3611
  574SOL    HW3 2368   1.588   2.946   1.208  0.3103  0.5625 -1.6090
  574SOL    MW4 2369   1.599   2.860   1.214 -0.0190  0.5867 -0.5578
  575SOL     OW 2370   1.545   3.136   1.135  0.6615 -0.0004  0.4534
  575SOL    HW2 2371   1.624   3.185   1.158 -0.1348  0.7120  1.7338
  575SOL    HW3 2372   1.473   3.190   1.168 -0.3701 -0.5358 -0.8944
  575SOL    MW4 2373   1.546   3.150   1.142  0.4203  0.0231  0.4445
  576SOL     OW 2374   1.339   3.307   1.193 -0.2164 -0.4485  0.1027
  576SOL    HW2 2375   1.319   3.312   1.286 -0.6688 -0.2450 -0.0059
  576SOL    HW3 2376   1.283   3.236   1.161  0.7570 -1.2823  0.2013
  576SOL    MW4 2377   1.329   3.298   1.201 -0.1477 -0.5317  0.1013
  577SOL     OW 2378   1.378   3.570   1.106  0.2818  0.3253 -0.1566
  577SOL    HW2 2379   1.363   3.484   1.145 -0.6815  0.6690  0.2600
  577SOL    HW3 2380   1.392   3.552   1.013 -1.6540 -0.1405 -0.3779
  577SOL    MW4 2381   1.378   3.556   1.099 -0.1009  0.3095 -0.1308
  578SOL     OW 2382   1.618   3.681   1.223 -0.0830  0.2568  0.2121
  578SOL    HW2 2383   1.636   3.753   1.163 -0.6494  0.7192  0.5923
  578SOL    HW3 2384   1.534   3.645   1.192 -0.3609  0.4755  0.7093
  578SOL    MW4 2385   1.609   3.686   1.211 -0.1945  0.3467  0.3279
  579SOL     OW 2386   1.603   3.911   1.072  0.2645 -0.5283 -0.2216
  579SOL    HW2 2387   1.534   3.948   1.127 -0.4463 -3.3276  0.8575
  579SOL    HW3 2388   1.583   3.942   0.984  0.5452  2.7773  0.7966
  579SOL    MW4 2389   1.592   3.920   1.068  0.2077 -0.4613  0.0552
  580SOL     OW 2390   1.402   4.010   1.241 -0.0165  0.4301  0.0660
  580SOL    HW2 2391   1.408   4.099   1.207 -1.3370  1.0309  1.3491
  580SOL    HW3 2392   1.327   3.972   1.196  0.7102 -0.1210 -0.6781
  580SOL    MW4 2393   1.393   4.017   1.231 -0.0948  0.4363  0.1371
  581SOL     OW 2394   1.374   4.253   1.139  0.2422  0.0215 -0.0428
  581SOL    HW2 2395   1.303   4.303   1.178 -0.6610 -0.7276 -0.6983
  581SOL    HW3 2396   1.374   4.278   1.046  0.2038 -0.6871 -0.2422
  581SOL    MW4 2397   1.365   4.263   1.132  0.1179 -0.1707 -0.1556
  582SOL     OW 2398   1.582   4.431   1.254  0.1957 -0.2753  0.0934
  582SOL    HW2 2399   1.574   4.440   1.349 -0.1374 -2.2859  0.2811
  582SOL    HW3 2400   1.507   4.377   1.228  0.1739  0.4171 -1.3461
  582SOL    MW4 2401   1.571   4.425   1.263  0.1488 -0.4487 -0.0718
  583SOL     OW 2402   2.023   0.036   1.059  0.2103 -0.2044 -0.3658
  583SOL    HW2 2403   2.030  -0.053   1.094 -0.0028 -0.1343 -0.1451
  583SOL    HW3 2404   1.998   0.023   0.967 -1.6899 -0.3433  0.1481
  583SOL    MW4 2405   2.021   0.022   1.051 -0.0684 -0.2135 -0.2688
  584SOL     OW 2406   1.816   0.128   1.240  0.2143  0.3140 -0.2862
  584SOL    HW2 2407   1.804   0.214   1.200 -0.6664 -0.6854 -2.2192
  584SOL    HW3 2408   1.889   0.089   1.192 -0.3655 -0.6149 -0.4119
  584SOL    MW4 2409   1.824   0.134   1.229  0.0215  0.0596 -0.5579
  585SOL     OW 2410   1.800   0.376   1.129 -0.3093  0.2213  0.2864
  585SOL    HW2 2411   1.749   0.448   1.167  0.1341  0.4088  0.5294
  585SOL    HW3 2412   1.795   0.390   1.035 -1.0896 -0.0208  0.2903
  585SOL    MW4 2413   1.792   0.388   1.122 -0.3538  0.2141  0.3190
  586SOL     OW 2414   2.040   0.480   1.222 -0.3298 -0.0250  0.4572
  586SOL    HW2 2415   2.043   0.462   1.316  1.0241 -1.6968  0.1167
  586SOL    HW3 2416   1.956   0.445   1.193 -0.6757  0.3419  1.0142
  586SOL    MW4 2417   2.029   0.473   1.231 -0.1967 -0.1972  0.4858
  587SOL     OW 2418   2.062   0.752   1.190  0.5276  0.2346  0.4655
  587SOL    HW2 2419   2.054   0.657   1.195 -2.1283  0.4406  0.9304
  587SOL    HW3 2420   2.045   0.773   1.098  1.7602  0.2129  0.2306
  587SOL    MW4 2421   2.059   0.742   1.178  0.3400  0.2589  0.4958
  588SOL     OW 2422   1.818   0.886   1.260 -0.0732 -0.5359  0.4387
  588SOL    HW2 2423   1.818   0.897   1.355  1.6514 -1.5553  0.5706
  588SOL    HW3 2424   1.903   0.847   1.240  0.5413  1.7987 -1.7847
  588SOL    MW4 2425   1.829   0.882   1.269  0.2354 -0.3623  0.1627
  589SOL     OW 2426   1.805   1.160   1.198  0.2008 -0.3055 -0.4692
  589SOL    HW2 2427   1.811   1.066   1.214  0.2553 -0.4600 -1.4068
  589SOL    HW3 2428   1.795   1.169   1.104 -1.5919  0.5468 -0.2346
  589SOL    MW4 2429   1.804   1.149   1.188 -0.0285 -0.2134 -0.5620
  590SOL     OW 2430   2.027   1.308   1.290  0.1377 -0.1228 -0.2621
  590SOL    HW2 2431   2.103   1.253   1.272 -0.0804 -0.7921  0.8393
  590SOL    HW3 2432   1.952   1.253   1.266 -0.1019 -0.5147  1.3239
  590SOL    MW4 2433   2.027   1.293   1.284  0.0772 -0.2627  0.0925
  591SOL     OW 2434   1.966   1.573   1.180 -0.1958  0.1576 -0.0347
  591SOL    HW2 2435   1.982   1.485   1.214  0.3057 -0.1235 -0.9508
  591SOL    HW3 2436   1.968   1.562   1.085 -2.7831  0.6990 -0.1870
  591SOL    MW4 2437   1.968   1.560   1.172 -0.4710  0.1919 -0.1757
  592SOL     OW 2438   1.784   1.748   1.315 -0.0667 -0.5433 -0.0539
  592SOL    HW2 2439   1.786   1.828   1.264  1.2016  0.3175  1.2987
  592SOL    HW3 2440   1.844   1.688   1.269 -0.0125 -0.2624 -0.3451
  592SOL    MW4 2441   1.792   1.750   1.302  0.1079 -0.3928  0.0862
  593SOL     OW 2442   1.789   1.958   1.137  0.1157 -0.2667  0.0653
  593SOL    HW2 2443   1.711   2.006   1.164 -0.2294 -0.3781 -0.7092
  593SOL    HW3 2444   1.778   1.946   1.043  0.6856 -0.9737  0.0814
  593SOL    MW4 2445   1.777   1.962   1.128  0.1452 -0.3746 -0.0348
  594SOL     OW 2446   2.037   2.027   1.241  0.3199 -0.0578  0.2073
  594SOL    HW2 2447   2.020   2.040   1.334 -0.1226  0.0383  0.1184
  594SOL    HW3 2448   1.950   2.017   1.202  0.4957 -0.0110 -0.2078
  594SOL    MW4 2449   2.023   2.027   1.248  0.2849 -0.0386  0.1408
  595SOL     OW 2450   2.047   2.291   1.168 -0.4591 -0.1073 -0.4479
  595SOL    HW2 2451   2.132   2.326   1.197 -0.1662  0.2865 -1.7569
  595SOL    HW3 2452   2.049   2.199   1.195 -0.3676  0.3432  1.1357
  595SOL    MW4 2453   2.059   2.283   1.175 -0.4086  0.0043 -0.4116
  596SOL     OW 2454   1.821   2.464   1.217  0.3065  0.0969 -0.0115
  596SOL    HW2 2455   1.890   2.406   1.183  0.9158  1.4065 -1.0604
  596SOL    HW3 2456   1.740   2.420   1.193  0.7666 -0.6986 -0.1356
  596SOL    MW4 2457   1.819   2.451   1.209  0.4474  0.1650 -0.1664
  597SOL     OW 2458   1.840   2.752   1.193  0.3834  0.2835 -0.0062
  597SOL    HW2 2459   1.816   2.663   1.219  1.5114 -0.1119 -0.3181
  597SOL    HW3 2460   1.848   2.748   1.098  0.6548  0.6761 -0.0008
  597SOL    MW4 2461   1.838   2.740   1.184  0.5680  0.2832 -0.0466
  598SOL     OW 2462   2.087   2.890   1.221  0.1334  0.0981  0.4915
  598SOL    HW2 2463   2.077   2.982   1.197  0.0695  0.1592  0.7497
  598SOL    HW3 2464   1.997   2.858   1.232  0.1381 -0.1580 -0.2095
  598SOL    MW4 2465   2.074   2.898   1.219  0.1254  0.0725  0.4331
  599SOL     OW 2466   2.013   3.149   1.128 -0.2705  0.1066  0.2138
  599SOL    HW2 2467   1.928   3.176   1.162 -0.6616 -0.0236 -0.6586
  599SOL    HW3 2468   2.000   3.140   1.034  0.4512 -0.8810  0.2016
  599SOL    MW4 2469   2.000   3.152   1.120 -0.2269 -0.0410  0.0969
  600SOL     OW 2470   1.778   3.257   1.223 -0.1039 -0.1690 -0.8512
  600SOL    HW2 2471   1.796   3.272   1.316 -0.4978 -0.4938 -0.7193
  600SOL    HW3 2472   1.809   3.336   1.179  0.4612 -0.1877 -0.4898
  600SOL    MW4 2473   1.784   3.269   1.229 -0.0812 -0.2143 -0.7861
  601SOL     OW 2474   1.803   3.507   1.091  0.1544  0.3285  0.0174
  601SOL    HW2 2475   1.873   3.561   1.128  1.2939 -2.2197  1.7358
  601SOL    HW3 2476   1.723   3.550   1.118  0.9797  3.2388 -1.8789
  601SOL    MW4 2477   1.802   3.520   1.099  0.4137  0.3765 -0.0060
  602SOL     OW 2478   2.021   3.643   1.187  0.3464 -0.4854 -0.1452
  602SOL    HW2 2479   2.032   3.631   1.281  0.9925 -0.0874 -0.1676
  602SOL    HW3 2480   2.098   3.601   1.149  1.2415  1.3243 -0.3728
  602SOL    MW4 2481   2.032   3.636   1.194  0.5500 -0.1943 -0.1782
  603SOL     OW 2482   2.044   3.901   1.099 -0.4262 -0.2450 -0.6909
  603SOL    HW2 2483   1.969   3.946   1.139  1.6629  1.2065  1.7159
  603SOL    HW3 2484   2.051   3.818   1.147  0.3235  0.2253  0.0244
  603SOL    MW4 2485   2.035   3.896   1.111 -0.0517  0.0088 -0.2789
  604SOL     OW 2486   1.823   4.073   1.157 -0.4149  0.2778 -0.0651
  604SOL    HW2 2487   1.830   4.053   1.251 -1.4985  1.4767  0.2806
  604SOL    HW3 2488   1.749   4.020   1.127  0.2369 -0.4740 -0.3509
  604SOL    MW4 2489   1.814   4.064   1.166 -0.4719  0.3366 -0.0571
  605SOL     OW 2490   1.815   4.336   1.106  0.6670  0.5530 -0.3746
  605SOL    HW2 2491   1.806   4.241   1.109  0.4742  0.5525 -0.8454
  605SOL    HW3 2492   1.736   4.369   1.150  0.2588  0.5040 -1.0626
  605SOL    MW4 2493   1.803   4.328   1.112  0.5876  0.5465 -0.5275
  606SOL     OW 2494   2.035   4.461   1.192 -0.1842 -0.5464  0.0283
  606SOL    HW2 2495   2.013   4.478   1.283  1.0835 -0.2663  0.2819
  606SOL    HW3 2496   1.955   4.423   1.155 -1.5539  1.6960  0.5965
  606SOL    MW4 2497   2.021   4.458   1.199 -0.1974 -0.2131  0.1366
  607SOL     OW 2498   2.516   0.013   1.134  0.0822  0.6018  0.0062
  607SOL    HW2 2499   2.579   0.061   1.188 -0.4963  0.9081  0.4183
  607SOL    HW3 2500   2.431   0.051   1.158 -0.4765 -1.2134  0.9519
  607SOL    MW4 2501   2.513   0.025   1.144 -0.0679  0.4029  0.1853
  608SOL     OW 2502   2.258   0.130   1.192  0.1254 -0.1910 -0.1603
  608SOL    HW2 2503   2.255   0.217   1.152  1.4276 -0.3954 -0.7337
  608SOL    HW3 2504   2.193   0.080   1.144 -1.7494  0.8661  1.1992
  608SOL    MW4 2505   2.249   0.135   1.180  0.0503 -0.0785 -0.0566
  609SOL     OW 2506   2.264   0.401   1.097  0.2286  0.5695  0.0198
  609SOL    HW2 2507   2.175   0.415   1.129 -0.2142  0.1499 -1.0074
  609SOL    HW3 2508   2.261   0.425   1.004  0.6849 -1.3983 -0.5287
  609SOL    MW4 2509   2.252   0.406   1.089  0.2306  0.2545 -0.1881
  610SOL     OW 2510   2.507   0.508   1.171  0.5186 -0.4349 -0.4502
  610SOL    HW2 2511   2.506   0.506   1.267  0.5154 -1.8877 -0.4751
  610SOL    HW3 2512   2.424   0.468   1.146  0.1217  0.7462 -1.0642
  610SOL    MW4 2513   2.496   0.503   1.180  0.4659 -0.4708 -0.5343
  611SOL     OW 2514   2.507   0.771   1.070  0.4646 -0.2487 -0.1459
  611SOL    HW2 2515   2.506   0.677   1.091  0.3348  0.2474  2.1749
  611SOL    HW3 2516   2.490   0.774   0.976 -3.1176 -2.4164  0.3078
  611SOL    MW4 2517   2.505   0.759   1.060 -0.0253 -0.4692  0.2202
  612SOL     OW 2518   2.308   0.885   1.240 -0.5571  0.4128 -0.2895
  612SOL    HW2 2519   2.370   0.842   1.181 -2.0108  0.1058 -1.6135
  612SOL    HW3 2520   2.230   0.829   1.238 -1.3480  1.4777  0.3508
  612SOL    MW4 2521   2.306   0.872   1.232 -0.8533  0.5127 -0.3799
  613SOL     OW 2522   2.237   1.150   1.201  0.3812 -0.2608  0.0360
  613SOL    HW2 2523   2.316   1.204   1.206  0.5396 -0.5064  0.2272
  613SOL    HW3 2524   2.270   1.060   1.207  0.2325 -0.4388 -1.4235
  613SOL    MW4 2525   2.252   1.145   1.202  0.3824 -0.3166 -0.1314
  614SOL     OW 2526   2.492   1.279   1.244  0.1731  0.0228  0.2459
  614SOL    HW2 2527   2.568   1.229   1.216 -0.5730 -0.1303 -1.5840
  614SOL    HW3 2528   2.501   1.363   1.200  0.9048  1.1838  2.5221
  614SOL    MW4 2529   2.503   1.283   1.235  0.1712  0.1558  0.3047
  615SOL     OW 2530   2.495   1.540   1.117  0.2516  0.1288  0.2352
  615SOL    HW2 2531   2.403   1.552   1.141 -0.1893 -0.9542 -0.8720
  615SOL    HW3 2532   2.498   1.552   1.023  1.2886  0.3855  0.2922
  615SOL    MW4 2533   2.483   1.543   1.108  0.3302  0.0197  0.0967
  616SOL     OW 2534   2.247   1.670   1.246 -0.1499 -0.0273 -0.0095
  616SOL    HW2 2535   2.265   1.760   1.217  0.4130  0.5771  2.1314
  616SOL    HW3 2536   2.152   1.662   1.237 -0.4399  1.4117  1.4493
  616SOL    MW4 2537   2.237   1.681   1.241 -0.1142  0.2422  0.4653
  617SOL     OW 2538   2.302   1.926   1.182  0.4732  0.3271 -0.2090
  617SOL    HW2 2539   2.227   1.969   1.222  1.3428  1.3486  0.3299
  617SOL    HW3 2540   2.280   1.920   1.089 -1.2809 -1.4762  0.2890
  617SOL    MW4 2541   2.290   1.931   1.175  0.3564  0.2239 -0.0722
  618SOL     OW 2542   2.543   2.044   1.246  0.2846 -0.3609 -0.6416
  618SOL    HW2 2543   2.612   2.019   1.185  0.0323  0.2256 -1.1784
  618SOL    HW3 2544   2.466   1.996   1.216  0.5204 -1.2142  0.1123
  618SOL    MW4 2545   2.542   2.034   1.234  0.2828 -0.3963 -0.6130
  619SOL     OW 2546   2.510   2.301   1.156  0.1293  0.4660  0.1298
  619SOL    HW2 2547   2.534   2.212   1.180 -0.1490  0.7703  1.5996
  619SOL    HW3 2548   2.473   2.293   1.068  1.2615 -0.6724 -0.2706
  619SOL    MW4 2549   2.509   2.288   1.148  0.2420  0.3560  0.2710
  620SOL     OW 2550   2.268   2.449   1.215  0.2401 -0.0974 -0.6795
  620SOL    HW2 2551   2.262   2.443   1.310 -0.6914  1.0802 -0.6524
  620SOL    HW3 2552   2.357   2.420   1.194 -0.4336 -2.9719  0.3061
  620SOL    MW4 2553   2.279   2.445   1.224  0.0284 -0.3214 -0.5460
  621SOL     OW 2554   2.297   2.732   1.094  0.0571  0.3906 -0.6011
  621SOL    HW2 2555   2.288   2.640   1.121  1.1503  0.7213  0.9593
  621SOL    HW3 2556   2.225   2.777   1.138 -0.3546  0.3043 -1.1963
  621SOL    MW4 2557   2.286   2.726   1.104  0.1469  0.4227 -0.4737
  622SOL     OW 2558   2.523   2.867   1.243 -0.1106 -0.1166  0.4727
  622SOL    HW2 2559   2.500   2.866   1.336  0.2890  0.6002  0.5852
  622SOL    HW3 2560   2.461   2.806   1.202 -0.6520 -0.0110  1.1268
  622SOL    MW4 2561   2.512   2.859   1.250 -0.1295 -0.0081  0.5739
  623SOL     OW 2562   2.511   3.129   1.129 -0.1885 -0.1027  0.0696
  623SOL    HW2 2563   2.428   3.170   1.152 -0.7131 -0.6893 -0.7990
  623SOL    HW3 2564   2.504   3.040   1.163 -0.4146 -0.5451 -1.1329
  623SOL    MW4 2565   2.499   3.123   1.137 -0.2875 -0.2387 -0.2036
  624SOL     OW 2566   2.252   3.232   1.194 -0.1815  0.2163  0.1065
  624SOL    HW2 2567   2.248   3.318   1.153  2.6706 -0.2208 -1.2161
  624SOL    HW3 2568   2.167   3.192   1.175 -0.8181  1.9929 -0.9173
  624SOL    MW4 2569   2.240   3.238   1.186  0.1111  0.3929 -0.2030
  625SOL     OW 2570   2.241   3.483   1.088  0.7063  0.0065  0.5429
  625SOL    HW2 2571   2.317   3.522   1.131  0.0708  1.3059  0.5231
  625SOL    HW3 2572   2.252   3.507   0.995  0.3898 -0.0001  0.5042
  625SOL    MW4 2573   2.253   3.492   1.081  0.5805  0.1771  0.5350
  626SOL     OW 2574   2.447   3.612   1.231  0.0799  0.7529  0.3230
  626SOL    HW2 2575   2.468   3.605   1.325  0.8891  2.0294  0.2593
  626SOL    HW3 2576   2.472   3.702   1.208  1.0548  0.0532 -1.4137
  626SOL    MW4 2577   2.453   3.623   1.241  0.3154  0.8290  0.0855
  627SOL     OW 2578   2.469   3.880   1.139 -0.9219 -0.2228  0.2336
  627SOL    HW2 2579   2.391   3.932   1.159 -1.4677 -0.5980 -0.9210
  627SOL    HW3 2580   2.480   3.888   1.045  1.3028  1.0205  0.5573
  627SOL    MW4 2581   2.460   3.888   1.129 -0.7005 -0.1082  0.1239
  628SOL     OW 2582   2.256   4.048   1.184 -0.3231 -0.3169 -0.0140
  628SOL    HW2 2583   2.247   4.133   1.141  2.5340 -0.4184 -0.9137
  628SOL    HW3 2584   2.178   3.999   1.159 -1.7822  1.8705  0.1618
  628SOL    MW4 2585   2.245   4.053   1.175 -0.1390 -0.0415 -0.1097
  629SOL     OW 2586   2.246   4.316   1.084 -0.1620 -0.1555 -0.7348
  629SOL    HW2 2587   2.178   4.366   1.130 -0.6414 -0.7812 -0.7600
  629SOL    HW3 2588   2.221   4.320   0.992 -0.0196 -0.1670 -0.7739
  629SOL    MW4 2589   2.234   4.323   1.078 -0.2065 -0.2398 -0.7433
  630SOL     OW 2590   2.490   4.431   1.247  0.0375  0.4840  0.1348
  630SOL    HW2 2591   2.408   4.416   1.199 -0.8018 -0.4584  1.8373
  630SOL    HW3 2592   2.506   4.525   1.236 -1.0921  0.6149 -0.5155
  630SOL    MW4 2593   2.481   4.442   1.239 -0.2224  0.3767  0.2736
  631SOL     OW 2594   2.947   0.014   1.142 -0.0530 -0.0364  0.1698
  631SOL    HW2 2595   2.947  -0.079   1.164  0.8661 -0.0175  0.2655
  631SOL    HW3 2596   2.933   0.017   1.047 -0.6934 -0.2439  0.2559
  631SOL    MW4 2597   2.945   0.002   1.132 -0.0160 -0.0612  0.1938
  632SOL     OW 2598   2.730   0.130   1.253  0.0488 -0.0654  0.0873
  632SOL    HW2 2599   2.741   0.126   1.348  1.4765  1.1130 -0.0095
  632SOL    HW3 2600   2.812   0.094   1.219 -1.0354 -1.8151 -0.7044
  632SOL    MW4 2601   2.743   0.125   1.261  0.0942 -0.1408 -0.0299
  633SOL     OW 2602   2.752   0.384   1.116 -0.2537 -0.1802  0.5001
  633SOL    HW2 2603   2.753   0.294   1.150 -1.1541 -0.2992  0.2203
  633SOL    HW3 2604   2.672   0.423   1.152 -0.1062  0.3653  0.2480
  633SOL    MW4 2605   2.741   0.377   1.125 -0.3531 -0.1239  0.4299
  634SOL     OW 2606   2.952   0.565   1.165  0.1515 -0.5510  0.4092
  634SOL    HW2 2607   2.939   0.655   1.135 -0.0938 -0.0701  1.9071
  634SOL    HW3 2608   2.868   0.522   1.147  0.1596 -0.4037 -0.0009
  634SOL    MW4 2609   2.939   0.571   1.158  0.1202 -0.4681  0.5527
  635SOL     OW 2610   2.929   0.811   1.060 -0.3549 -0.6986  0.0833
  635SOL    HW2 2611   3.006   0.855   1.095  0.2024 -0.9595 -0.8254
  635SOL    HW3 2612   2.860   0.832   1.123 -0.1066  1.4874 -0.3204
  635SOL    MW4 2613   2.930   0.820   1.073 -0.2487 -0.4446 -0.0899
  636SOL     OW 2614   2.717   0.883   1.217 -0.5090  0.2306 -0.3880
  636SOL    HW2 2615   2.723   0.971   1.181 -0.7983  0.6629  0.6189
  636SOL    HW3 2616   2.637   0.847   1.179 -0.1783  0.2454 -1.1178
  636SOL    MW4 2617   2.707   0.890   1.207 -0.5035  0.2896 -0.3515
  637SOL     OW 2618   2.709   1.143   1.128 -0.0390 -0.0920 -0.0588
  637SOL    HW2 2619   2.788   1.195   1.142 -0.3373  0.4349 -0.3326
  637SOL    HW3 2620   2.687   1.156   1.036  0.9251 -2.1754 -0.6151
  637SOL    MW4 2621   2.717   1.151   1.118  0.0489 -0.2974 -0.1683
  638SOL     OW 2622   2.926   1.306   1.191  0.3043 -0.4145 -0.4156
  638SOL    HW2 2623   2.919   1.316   1.286 -0.0557 -0.0067 -0.4805
  638SOL    HW3 2624   2.899   1.391   1.157  4.1447  0.7584 -0.7548
  638SOL    MW4 2625   2.922   1.319   1.199  0.7634 -0.2058 -0.4690
  639SOL     OW 2626   2.890   1.570   1.071 -0.5643  0.1138 -0.1713
  639SOL    HW2 2627   2.975   1.602   1.100 -0.6200 -0.0680  0.1952
  639SOL    HW3 2628   2.899   1.559   0.977 -0.3923  0.7445 -0.2302
  639SOL    MW4 2629   2.902   1.573   1.063 -0.5491  0.1730 -0.1307
  640SOL     OW 2630   2.678   1.744   1.163 -0.2259 -0.2722  0.4551
  640SOL    HW2 2631   2.754   1.697   1.127 -0.8978 -0.2358 -1.0627
  640SOL    HW3 2632   2.605   1.683   1.151 -1.1690  1.2494 -1.8161
  640SOL    MW4 2633   2.679   1.729   1.157 -0.4389 -0.0666 -0.0449
  641SOL     OW 2634   2.722   1.969   0.993  0.2062 -0.0553 -0.3333
  641SOL    HW2 2635   2.789   2.015   1.044  0.0513  0.0065 -0.1836
  641SOL    HW3 2636   2.696   1.895   1.049 -0.1065  0.1266 -0.2376
  641SOL    MW4 2637   2.727   1.965   1.007  0.1447 -0.0231 -0.3010
  642SOL     OW 2638   2.906   2.065   1.165  0.6257 -0.0476 -0.3267
  642SOL    HW2 2639   2.918   2.055   1.259 -3.0486  1.8084  0.3945
  642SOL    HW3 2640   2.905   2.159   1.150  0.8439 -0.3153 -2.2035
  642SOL    MW4 2641   2.908   2.076   1.175  0.1700  0.1619 -0.4792
  643SOL     OW 2642   2.911   2.340   1.137 -0.1977 -0.6029 -0.3239
  643SOL    HW2 2643   2.991   2.371   1.179  0.0701 -0.1578 -1.1596
  643SOL    HW3 2644   2.841   2.379   1.189  0.1349  0.1649 -0.4411
  643SOL    MW4 2645   2.912   2.349   1.149 -0.1185 -0.4430 -0.4495
  644SOL     OW 2646   2.702   2.469   1.250 -0.1889 -0.4429 -0.3908
  644SOL    HW2 2647   2.701   2.471   1.346  1.3796 -1.4289 -0.3350
  644SOL    HW3 2648   2.632   2.408   1.227 -0.7452 -0.0015  0.1238
  644SOL    MW4 2649   2.693   2.461   1.260 -0.0556 -0.5150 -0.3157
  645SOL     OW 2650   2.709   2.709   1.132 -0.0229 -0.1281 -0.2224
  645SOL    HW2 2651   2.713   2.632   1.188 -0.8650  0.4731  0.6701
  645SOL    HW3 2652   2.654   2.771   1.179 -1.4636  0.0699 -2.0840
  645SOL    MW4 2653   2.702   2.707   1.145 -0.3240 -0.0229 -0.3502
  646SOL     OW 2654   2.930   2.875   1.155  0.0759  0.3559 -0.4096
  646SOL    HW2 2655   2.919   2.875   1.251 -1.4692  0.7911 -0.5768
  646SOL    HW3 2656   2.854   2.825   1.123  0.8392 -0.1755 -1.3866
  646SOL    MW4 2657   2.918   2.868   1.164 -0.0272  0.3431 -0.5605
  647SOL     OW 2658   2.954   3.126   1.036 -0.4985 -0.4382  0.3032
  647SOL    HW2 2659   2.944   3.034   1.058  1.2683 -0.9654 -1.0126
  647SOL    HW3 2660   2.943   3.129   0.941 -0.8732  0.7546  0.3781
  647SOL    MW4 2661   2.951   3.114   1.026 -0.3150 -0.3502  0.1395
  648SOL     OW 2662   2.756   3.256   1.224 -0.4017 -0.0640 -0.0502
  648SOL    HW2 2663   2.831   3.232   1.171  0.6783 -0.3289  1.5622
  648SOL    HW3 2664   2.682   3.207   1.187  0.2277  0.1651 -1.6043
  648SOL    MW4 2665   2.756   3.247   1.212 -0.1762 -0.0687 -0.0426
  649SOL     OW 2666   2.706   3.515   1.138 -0.0911  0.3339 -0.0866
  649SOL    HW2 2667   2.708   3.431   1.183 -0.8380 -0.1664 -0.9754
  649SOL    HW3 2668   2.616   3.546   1.148  0.1939  1.0531  0.2866
  649SOL    MW4 2669   2.694   3.508   1.145 -0.1519  0.3629 -0.1546
  650SOL     OW 2670   2.953   3.653   1.219 -0.5192 -0.0023  0.5543
  650SOL    HW2 2671   3.020   3.596   1.183 -0.6852  0.6786 -0.8874
  650SOL    HW3 2672   2.870   3.617   1.186 -0.7297  0.2340  0.8167
  650SOL    MW4 2673   2.951   3.641   1.210 -0.5691  0.1185  0.3985
  651SOL     OW 2674   2.903   3.909   1.106  0.0126 -0.0784  0.3596
  651SOL    HW2 2675   2.983   3.954   1.132  1.2493 -1.1860 -1.3874
  651SOL    HW3 2676   2.903   3.828   1.157  1.3903 -1.2970 -1.4942
  651SOL    MW4 2677   2.914   3.905   1.116  0.3574 -0.3853 -0.1153
  652SOL     OW 2678   2.690   4.044   1.197 -0.3342  0.0047 -0.2161
  652SOL    HW2 2679   2.760   3.991   1.158 -1.4068 -1.7713  0.1805
  652SOL    HW3 2680   2.610   3.993   1.180 -1.3761  1.4194  0.3744
  652SOL    MW4 2681   2.689   4.030   1.189 -0.6132 -0.0434 -0.0861
  653SOL     OW 2682   2.693   4.305   1.115  0.0292 -0.2308 -0.0814
  653SOL    HW2 2683   2.702   4.217   1.152  0.1341  0.1355  0.7570
  653SOL    HW3 2684   2.615   4.341   1.156  0.9256  0.6913  0.8205
  653SOL    MW4 2685   2.684   4.298   1.125  0.1614 -0.0615  0.1483
  654SOL     OW 2686   2.928   4.415   1.205  0.3705 -0.1508  0.6769
  654SOL    HW2 2687   2.980   4.369   1.138  1.1687  0.8146  0.6305
  654SOL    HW3 2688   2.837   4.394   1.182  0.5642  1.2378 -1.5121
  654SOL    MW4 2689   2.923   4.406   1.193  0.5014  0.1602  0.3819
  655SOL     OW 2690   3.374   4.650   1.176 -0.4054 -0.2868  0.0760
  655SOL    HW2 2691   3.459   4.694   1.183 -0.4771 -0.2038  0.4333
  655SOL    HW3 2692   3.313   4.708   1.221 -0.8806  0.2433 -1.2181
  655SOL    MW4 2693   3.377   4.663   1.182 -0.4776 -0.2065 -0.0477
  656SOL     OW 2694   3.161   0.107   1.303 -0.2378  0.1096 -0.5756
  656SOL    HW2 2695   3.169   0.097   1.398 -0.5131  1.3403 -0.4085
  656SOL    HW3 2696   3.081   0.060   1.281  0.2695 -0.8778 -0.3166
  656SOL    MW4 2697   3.151   0.099   1.313 -0.2072  0.1417 -0.5194
  657SOL     OW 2698   3.141   0.323   1.118  0.6161 -0.2319 -0.0117
  657SOL    HW2 2699   3.125   0.250   1.178  0.0003 -0.1099 -0.0314
  657SOL    HW3 2700   3.077   0.389   1.142  1.0693  0.2439 -0.1012
  657SOL    MW4 2701   3.131   0.322   1.129  0.5944 -0.1530 -0.0262
  658SOL     OW 2702   3.344   0.513   1.243  0.4468  0.0640 -0.1268
  658SOL    HW2 2703   3.358   0.580   1.177 -1.2056  0.1778 -0.3817
  658SOL    HW3 2704   3.284   0.451   1.202  2.7398 -2.1563 -0.2774
  658SOL    MW4 2705   3.338   0.513   1.229  0.5312 -0.2139 -0.1802
  659SOL     OW 2706   3.388   0.721   1.070 -0.1557  0.3004  0.0186
  659SOL    HW2 2707   3.324   0.778   1.112 -0.6441  0.5288 -1.0131
  659SOL    HW3 2708   3.378   0.739   0.976  0.3397 -0.7858 -0.2542
  659SOL    MW4 2709   3.378   0.731   1.063 -0.1547  0.1873 -0.1534
  660SOL     OW 2710   3.176   0.892   1.166  0.2464  0.4589 -0.0928
  660SOL    HW2 2711   3.164   0.906   1.260  1.4392 -1.0077  0.2964
  660SOL    HW3 2712   3.166   0.979   1.128 -2.3296  0.7431  1.1421
  660SOL    MW4 2713   3.173   0.905   1.174  0.0637  0.3029  0.1214
  661SOL     OW 2714   3.131   1.143   1.070  0.2853  0.1258 -0.0139
  661SOL    HW2 2715   3.200   1.174   1.129  1.4566 -2.1214 -0.1347
  661SOL    HW3 2716   3.051   1.183   1.103  1.3914  1.4910  1.1103
  661SOL    MW4 2717   3.130   1.153   1.082  0.5858  0.0093  0.1185
  662SOL     OW 2718   3.352   1.258   1.212  0.3798  0.0471 -0.3702
  662SOL    HW2 2719   3.373   1.272   1.304  1.2476 -0.1826 -0.5359
  662SOL    HW3 2720   3.347   1.346   1.174  0.2908  0.1285 -0.1686
  662SOL    MW4 2721   3.354   1.271   1.219  0.4828  0.0274 -0.3655
  663SOL     OW 2722   3.358   1.524   1.116  0.2571 -0.0671  0.2948
  663SOL    HW2 2723   3.434   1.581   1.129 -0.5515  1.3411 -0.9792
  663SOL    HW3 2724   3.287   1.568   1.162 -0.0254 -0.8577  0.6181
  663SOL    MW4 2725   3.359   1.538   1.124  0.1132  0.0144  0.1693
  664SOL     OW 2726   3.129   1.666   1.178 -0.2593 -0.1009 -0.3333
  664SOL    HW2 2727   3.141   1.672   1.273  0.1186 -1.0100 -0.3222
  664SOL    HW3 2728   3.135   1.757   1.148  0.1543  0.1415  0.4536
  664SOL    MW4 2729   3.132   1.679   1.187 -0.1550 -0.1889 -0.2280
  665SOL     OW 2730   3.161   1.917   1.073  0.4140  0.1660 -0.2993
  665SOL    HW2 2731   3.233   1.979   1.089  0.2022  1.2564 -3.2272
  665SOL    HW3 2732   3.082   1.967   1.090  0.2797  0.1030 -0.7345
  665SOL    MW4 2733   3.160   1.932   1.077  0.3681  0.3017 -0.7430
  666SOL     OW 2734   3.357   2.089   1.159  0.1664  0.2357  0.0233
  666SOL    HW2 2735   3.441   2.047   1.140  0.5062  0.3237  1.2516
  666SOL    HW3 2736   3.371   2.181   1.138  0.6334  0.3850  0.9238
  666SOL    MW4 2737   3.370   2.096   1.154  0.2730  0.2673  0.3041
  667SOL     OW 2738   3.368   2.361   1.102 -0.5009  0.0484  0.2751
  667SOL    HW2 2739   3.445   2.403   1.141  0.3675 -1.4021  0.1412
  667SOL    HW3 2740   3.295   2.391   1.157  0.2434  0.8361  0.8534
  667SOL    MW4 2741   3.369   2.371   1.115 -0.2880 -0.0391  0.3337
  668SOL     OW 2742   3.160   2.451   1.228  0.1034 -0.2589  0.4238
  668SOL    HW2 2743   3.171   2.453   1.323 -1.0036 -1.0339  0.5716
  668SOL    HW3 2744   3.161   2.543   1.202  0.3593 -0.0417  1.1902
  668SOL    MW4 2745   3.162   2.464   1.237 -0.0088 -0.3326  0.5443
  669SOL     OW 2746   3.181   2.714   1.172  0.1560 -0.2984 -0.0258
  669SOL    HW2 2747   3.097   2.755   1.193  0.4213 -0.3095  1.0898
  669SOL    HW3 2748   3.191   2.728   1.077 -0.1176  1.5316  0.1858
  669SOL    MW4 2749   3.171   2.722   1.162  0.1552 -0.0587  0.1494
  670SOL     OW 2750   3.401   2.872   1.193  0.1337  0.6490  0.5641
  670SOL    HW2 2751   3.383   2.948   1.137 -0.2586 -0.4682 -0.8377
  670SOL    HW3 2752   3.320   2.821   1.191  0.3371  0.2779  1.6427
  670SOL    MW4 2753   3.388   2.876   1.185  0.1090  0.4528  0.5215
  671SOL     OW 2754   3.386   3.111   1.077  0.6686 -0.2842 -0.1061
  671SOL    HW2 2755   3.468   3.144   1.116  0.7426  0.0790 -0.5733
  671SOL    HW3 2756   3.317   3.159   1.124  0.7443 -0.1242 -0.1584
  671SOL    MW4 2757   3.388   3.122   1.089  0.6886 -0.2151 -0.1745
  672SOL     OW 2758   3.177   3.262   1.172 -0.3123  0.1254  0.2281
  672SOL    HW2 2759   3.175   3.351   1.136 -1.3997 -0.6498 -1.6989
  672SOL    HW3 2760   3.104   3.217   1.128 -1.0921 -1.1352  2.7353
  672SOL    MW4 2761   3.167   3.268   1.161 -0.5586 -0.1433  0.3046
  673SOL     OW 2762   3.147   3.513   1.063 -0.3988 -0.2765  0.1364
  673SOL    HW2 2763   3.226   3.559   1.094 -0.2761 -1.0122  0.9393
  673SOL    HW3 2764   3.160   3.505   0.968  1.1507 -1.6088  0.4379
  673SOL    MW4 2765   3.159   3.518   1.054 -0.1781 -0.5493  0.2822
  674SOL     OW 2766   3.368   3.641   1.182 -0.0461 -0.2239  0.2637
  674SOL    HW2 2767   3.366   3.608   1.272  1.6550  0.5151  0.5850
  674SOL    HW3 2768   3.442   3.596   1.141 -0.3816 -0.0324 -0.5712
  674SOL    MW4 2769   3.377   3.631   1.189  0.1340 -0.1011  0.1960
  675SOL     OW 2770   3.401   3.906   1.182  0.3522 -0.1233 -0.3057
  675SOL    HW2 2771   3.312   3.943   1.182  0.3747 -0.0026  1.4369
  675SOL    HW3 2772   3.387   3.811   1.183  0.2301 -0.0964  0.7172
  675SOL    MW4 2773   3.387   3.898   1.182  0.3393 -0.1037  0.0592
  676SOL     OW 2774   3.140   4.036   1.177  0.2472  0.4192 -0.2326
  676SOL    HW2 2775   3.148   4.036   1.272 -2.1344 -1.4923  0.0300
  676SOL    HW3 2776   3.129   4.128   1.154  0.3504  0.8600  1.4056
  676SOL    MW4 2777   3.139   4.048   1.187 -0.0534  0.2251  0.0181
  677SOL     OW 2778   3.118   4.290   1.057  0.3090 -0.3249 -0.2161
  677SOL    HW2 2779   3.189   4.316   1.116  0.4828  0.3753 -0.7310
  677SOL    HW3 2780   3.156   4.298   0.969 -0.3505 -0.1136 -0.4850
  677SOL    MW4 2781   3.132   4.294   1.053  0.2451 -0.2050 -0.3196
  678SOL     OW 2782   3.327   4.390   1.221 -0.3201  0.8790  0.2097
  678SOL    HW2 2783   3.407   4.348   1.191 -1.3366 -1.0510  0.1022
  678SOL    HW3 2784   3.342   4.484   1.208  1.8736  0.5338  0.1465
  678SOL    MW4 2785   3.339   4.397   1.215 -0.1645  0.5789  0.1872
  679SOL     OW 2786   3.839   0.002   1.095 -0.1258 -0.1817 -0.5727
  679SOL    HW2 2787   3.823  -0.086   1.129 -0.9792  0.2526  0.2043
  679SOL    HW3 2788   3.832  -0.007   1.000  0.6850 -1.1175 -0.5513
  679SOL    MW4 2789   3.836  -0.011   1.087 -0.1316 -0.2480 -0.4674
  680SOL     OW 2790   3.621   0.118   1.210 -0.0340  0.4629 -0.1828
  680SOL    HW2 2791   3.595   0.200   1.167  0.2091  0.1748 -0.8672
  680SOL    HW3 2792   3.702   0.092   1.167  0.2278  0.1873  0.4655
  680SOL    MW4 2793   3.628   0.125   1.199  0.0329  0.3885 -0.1876
  681SOL     OW 2794   3.563   0.382   1.125  0.7307 -0.4387 -0.6193
  681SOL    HW2 2795   3.644   0.418   1.159  0.3372  1.7413 -1.9301
  681SOL    HW3 2796   3.494   0.426   1.175  0.3026 -0.6417 -1.0245
  681SOL    MW4 2797   3.565   0.392   1.136  0.6225 -0.1779 -0.8458
  682SOL     OW 2798   3.792   0.490   1.198 -0.5351 -0.0645  0.2436
  682SOL    HW2 2799   3.871   0.443   1.171 -0.2592  0.6157 -0.1410
  682SOL    HW3 2800   3.813   0.582   1.184 -1.0479  0.1829  1.0662
  682SOL    MW4 2801   3.805   0.496   1.192 -0.5667  0.0579  0.3016
  683SOL     OW 2802   3.839   0.763   1.138  0.1032  0.1057 -0.7072
  683SOL    HW2 2803   3.894   0.825   1.185  0.2027 -1.1038  0.8269
  683SOL    HW3 2804   3.751   0.778   1.173  0.1267 -0.5960 -0.3390
  683SOL    MW4 2805   3.834   0.773   1.149  0.1197 -0.1464 -0.4562
  684SOL     OW 2806   3.592   0.843   1.222  0.2161  0.1493  0.4553
  684SOL    HW2 2807   3.569   0.936   1.216 -0.7643 -0.0459  1.0674
  684SOL    HW3 2808   3.523   0.798   1.173  0.3309 -0.3009  0.7040
  684SOL    MW4 2809   3.580   0.850   1.215  0.1018  0.0641  0.5689
  685SOL     OW 2810   3.584   1.116   1.133 -0.2194 -0.3951 -0.1945
  685SOL    HW2 2811   3.658   1.149   1.183  0.6952 -1.3047 -0.9063
  685SOL    HW3 2812   3.509   1.168   1.162  0.5868  0.1332  0.9648
  685SOL    MW4 2813   3.584   1.127   1.143  0.0079 -0.4455 -0.1355
  686SOL     OW 2814   3.799   1.275   1.234  0.2457 -0.4357  0.3867
  686SOL    HW2 2815   3.805   1.254   1.327  0.6114 -0.6141  0.3212
  686SOL    HW3 2816   3.788   1.370   1.231  0.0748 -0.4497  0.6184
  686SOL    MW4 2817   3.798   1.285   1.246  0.2713 -0.4610  0.4086
  687SOL     OW 2818   3.828   1.547   1.169  0.0894  0.0791 -0.5064
  687SOL    HW2 2819   3.907   1.588   1.203  0.7907 -1.1092 -0.6733
  687SOL    HW3 2820   3.832   1.560   1.074 -0.4893  0.9984 -0.4122
  687SOL    MW4 2821   3.839   1.554   1.161  0.1059  0.0435 -0.5159
  688SOL     OW 2822   3.586   1.683   1.185  0.0466 -0.0718  0.1505
  688SOL    HW2 2823   3.593   1.774   1.157 -0.8631 -0.3991 -1.2193
  688SOL    HW3 2824   3.676   1.650   1.186  0.3001  0.6176 -0.1274
  688SOL    MW4 2825   3.599   1.691   1.181 -0.0398 -0.0240 -0.0669
  689SOL     OW 2826   3.603   1.945   1.127 -0.5370  0.1305 -0.0413
  689SOL    HW2 2827   3.685   1.990   1.150  0.9773 -1.5695 -2.0140
  689SOL    HW3 2828   3.592   1.962   1.034 -2.8263  0.9198  0.3608
  689SOL    MW4 2829   3.613   1.953   1.118 -0.6392  0.0104 -0.2486
  690SOL     OW 2830   3.825   2.060   1.200 -0.2404 -0.2990 -0.0128
  690SOL    HW2 2831   3.837   2.070   1.295 -1.1816  0.9867 -0.0230
  690SOL    HW3 2832   3.899   2.005   1.173  1.8241  1.8917  0.9989
  690SOL    MW4 2833   3.837   2.054   1.209 -0.0923  0.1597  0.1193
  691SOL     OW 2834   3.794   2.317   1.056  0.0180  0.2762 -0.5154
  691SOL    HW2 2835   3.853   2.377   1.101  0.5365 -0.9165  0.4367
  691SOL    HW3 2836   3.818   2.230   1.090 -1.3764 -0.3600 -1.1255
  691SOL    MW4 2837   3.805   2.313   1.066 -0.0978  0.0350 -0.4704
  692SOL     OW 2838   3.602   2.496   1.156 -0.6870  0.2015 -0.0632
  692SOL    HW2 2839   3.595   2.494   1.252 -2.5294 -0.1558 -0.1834
  692SOL    HW3 2840   3.661   2.424   1.135 -0.6086  0.0075  0.7902
  692SOL    MW4 2841   3.609   2.486   1.166 -0.9196  0.1287  0.0335
  693SOL     OW 2842   3.639   2.780   1.106  0.1270  0.0102 -0.4077
  693SOL    HW2 2843   3.630   2.687   1.127 -1.0481  0.2386  0.1224
  693SOL    HW3 2844   3.554   2.817   1.126  0.6270  1.2309 -0.5313
  693SOL    MW4 2845   3.627   2.772   1.111  0.0377  0.2017 -0.3541
  694SOL     OW 2846   3.877   2.883   1.164  0.1823 -0.4205 -0.5166
  694SOL    HW2 2847   3.877   2.889   1.260  0.2911  0.5464 -0.5693
  694SOL    HW3 2848   3.788   2.853   1.142 -0.1159  0.1932 -0.1582
  694SOL    MW4 2849   3.865   2.880   1.174  0.1574 -0.2120 -0.4762
  695SOL     OW 2850   3.844   3.141   1.077  0.4023  0.1029 -0.3154
  695SOL    HW2 2851   3.854   3.054   1.114 -4.8652 -0.2115  0.7831
  695SOL    HW3 2852   3.805   3.126   0.991 -0.9800  1.3201  0.0707
  695SOL    MW4 2853   3.840   3.128   1.070 -0.4749  0.2220 -0.1196
  696SOL     OW 2854   3.602   3.231   1.208  0.9539  0.0373 -0.1488
  696SOL    HW2 2855   3.599   3.324   1.186  1.1133  0.4114  1.4048
  696SOL    HW3 2856   3.678   3.198   1.159  1.1194  0.7907 -0.4060
  696SOL    MW4 2857   3.612   3.239   1.199  0.9968  0.1862  0.0222
  697SOL     OW 2858   3.619   3.506   1.116 -0.2700  0.1523  0.1301
  697SOL    HW2 2859   3.703   3.528   1.158 -0.3329 -0.5388  0.6453
  697SOL    HW3 2860   3.638   3.507   1.023  0.2999  0.0740  0.2411
  697SOL    MW4 2861   3.633   3.509   1.109 -0.2031  0.0505  0.2128
  698SOL     OW 2862   3.858   3.631   1.230 -0.0231 -0.5533 -0.1353
  698SOL    HW2 2863   3.843   3.624   1.324  0.2925 -0.3586 -0.0670
  698SOL    HW3 2864   3.846   3.723   1.210  0.1953 -0.5447 -0.2334
  698SOL    MW4 2865   3.855   3.642   1.240  0.0477 -0.5264 -0.1392
  699SOL     OW 2866   3.842   3.881   1.118 -0.5150 -0.4101 -0.0523
  699SOL    HW2 2867   3.768   3.924   1.161 -0.5056 -0.4524  0.0074
  699SOL    HW3 2868   3.827   3.895   1.025 -1.0350 -1.1037 -0.0857
  699SOL    MW4 2869   3.830   3.888   1.111 -0.5827 -0.5071 -0.0489
  700SOL     OW 2870   3.627   4.032   1.265  0.0633  0.3265 -0.5247
  700SOL    HW2 2871   3.635   4.025   1.360 -1.1350  2.4795 -0.2333
  700SOL    HW3 2872   3.537   4.006   1.247  0.2111  0.1885 -1.0551
  700SOL    MW4 2873   3.616   4.028   1.275 -0.0753  0.5927 -0.5562
  701SOL     OW 2874   3.576   4.277   1.131 -0.0182  0.0840 -0.0706
  701SOL    HW2 2875   3.598   4.198   1.180 -1.3974 -0.3282 -0.0962
  701SOL    HW3 2876   3.581   4.251   1.039  0.9938  0.4295 -0.1174
  701SOL    MW4 2877   3.579   4.263   1.125 -0.0668  0.0749 -0.0801
  702SOL     OW 2878   3.788   4.433   1.235  0.5135  0.5065 -0.8476
  702SOL    HW2 2879   3.783   4.431   1.331  0.7043  2.3617 -0.7869
  702SOL    HW3 2880   3.708   4.389   1.207  0.8927 -0.8769  0.1473
  702SOL    MW4 2881   3.777   4.427   1.244  0.5887  0.5689 -0.7083
  703SOL     OW 2882   4.259   0.010   1.120 -0.1809  0.1244 -0.1157
  703SOL    HW2 2883   4.258  -0.081   1.151 -0.2582  0.0938 -0.2061
  703SOL    HW3 2884   4.188   0.052   1.168  0.9774  0.5730  1.2238
  703SOL    MW4 2885   4.250   0.003   1.131 -0.0386  0.1793  0.0491
  704SOL     OW 2886   4.051   0.128   1.241 -0.0085  0.1854 -0.4864
  704SOL    HW2 2887   4.043   0.114   1.336 -0.0917  0.1808 -0.4940
  704SOL    HW3 2888   3.989   0.066   1.203 -0.1982  0.4030 -0.5313
  704SOL    MW4 2889   4.042   0.118   1.249 -0.0453  0.2135 -0.4933
  705SOL     OW 2890   4.029   0.368   1.119  0.2383 -0.1707  0.1454
  705SOL    HW2 2891   4.030   0.286   1.168  0.5226 -0.5525 -0.4949
  705SOL    HW3 2892   4.039   0.342   1.027  2.0117  0.6824  0.0732
  705SOL    MW4 2893   4.030   0.354   1.113  0.5097 -0.1085  0.0515
  706SOL     OW 2894   4.267   0.500   1.156  0.1932 -0.0340  0.1731
  706SOL    HW2 2895   4.282   0.519   1.249  2.2056 -0.9900  0.0560
  706SOL    HW3 2896   4.186   0.450   1.155  0.1078  0.0592  1.4146
  706SOL    MW4 2897   4.258   0.496   1.168  0.4473 -0.1478  0.3215
  707SOL     OW 2898   4.208   0.768   1.096 -0.6408 -0.0024  0.2433
  707SOL    HW2 2899   4.220   0.678   1.124  0.1186 -0.5280 -1.7281
  707SOL    HW3 2900   4.192   0.763   1.002  1.7448  2.0637 -0.3413
  707SOL    MW4 2901   4.208   0.756   1.088 -0.2260  0.2008 -0.0941
  708SOL     OW 2902   4.018   0.951   1.235 -0.2568  0.4570  0.0296
  708SOL    HW2 2903   4.016   0.945   1.330  0.6758 -0.4968 -0.0066
  708SOL    HW3 2904   4.076   0.880   1.207 -0.8454  0.4612 -1.2692
  708SOL    MW4 2905   4.025   0.941   1.244 -0.2112  0.3317 -0.1466
  709SOL     OW 2906   4.043   1.201   1.117  0.4814  0.7450  0.3383
  709SOL    HW2 2907   4.046   1.107   1.139  0.2664  0.8013  0.6124
  709SOL    HW3 2908   3.962   1.232   1.156 -0.5078  0.6061 -1.5507
  709SOL    MW4 2909   4.033   1.192   1.125  0.3223  0.7340  0.1252
  710SOL     OW 2910   4.266   1.292   1.247 -0.2036  0.4434 -0.2014
  710SOL    HW2 2911   4.257   1.286   1.342 -0.4186 -0.7393 -0.2884
  710SOL    HW3 2912   4.180   1.268   1.213 -0.6345  2.5353 -0.6615
  710SOL    MW4 2913   4.254   1.288   1.255 -0.2890  0.5633 -0.2736
  711SOL     OW 2914   4.296   1.546   1.150  0.3723  0.2668 -0.0846
  711SOL    HW2 2915   4.300   1.460   1.191  2.2803  0.9240  1.1911
  711SOL    HW3 2916   4.384   1.581   1.159  0.2038  1.4356 -2.6601
  711SOL    MW4 2917   4.308   1.540   1.157  0.6018  0.5078 -0.2561
  712SOL     OW 2918   4.053   1.656   1.268  0.3370  0.4693  0.2760
  712SOL    HW2 2919   4.057   1.666   1.363  1.4263 -0.3530  0.3311
  712SOL    HW3 2920   4.136   1.614   1.245 -0.2656 -0.0791 -0.9495
  712SOL    MW4 2921   4.065   1.652   1.277  0.4010  0.2885  0.1216
  713SOL     OW 2922   4.022   1.899   1.124  0.1202  0.4218 -0.3987
  713SOL    HW2 2923   4.044   1.812   1.159 -2.5788  0.0177  0.3699
  713SOL    HW3 2924   4.044   1.893   1.031  0.4168 -0.9272 -0.2596
  713SOL    MW4 2925   4.028   1.887   1.117 -0.1969  0.1905 -0.2789
  714SOL     OW 2926   4.204   2.076   1.233  0.2176  0.0620  0.5146
  714SOL    HW2 2927   4.194   2.164   1.197  1.2692  0.3451  0.9173
  714SOL    HW3 2928   4.135   2.025   1.189 -0.6057  1.1462  0.5271
  714SOL    MW4 2929   4.193   2.081   1.222  0.2470  0.2427  0.5693
  715SOL     OW 2930   4.201   2.343   1.171 -0.1079 -0.0721 -0.1290
  715SOL    HW2 2931   4.112   2.372   1.192  0.0114 -1.2842  2.1663
  715SOL    HW3 2932   4.207   2.353   1.076 -2.7681 -0.1304 -0.3552
  715SOL    MW4 2933   4.190   2.348   1.161 -0.4430 -0.2398  0.1439
  716SOL     OW 2934   3.954   2.477   1.211 -0.3807 -0.4720 -0.4888
  716SOL    HW2 2935   3.986   2.480   1.301 -0.2148 -1.1685 -0.5245
  716SOL    HW3 2936   3.995   2.552   1.168 -3.2621  2.0555  0.9454
  716SOL    MW4 2937   3.963   2.487   1.217 -0.7386 -0.2306 -0.3042
  717SOL     OW 2938   4.057   2.681   1.077  0.4884 -0.0097 -0.0562
  717SOL    HW2 2939   3.994   2.747   1.105  0.1206 -0.7178  0.8084
  717SOL    HW3 2940   4.063   2.692   0.982 -0.0612  0.8220  0.0039
  717SOL    MW4 2941   4.050   2.691   1.068  0.3676  0.0064  0.0659
  718SOL     OW 2942   4.250   2.803   1.240 -0.2000 -0.2898  0.3615
  718SOL    HW2 2943   4.242   2.896   1.218 -0.0902  0.3166  2.7254
  718SOL    HW3 2944   4.183   2.760   1.187 -1.0281  1.2850  0.0980
  718SOL    MW4 2945   4.240   2.810   1.230 -0.2952 -0.0019  0.6385
  719SOL     OW 2946   4.285   3.061   1.105 -0.7677 -0.2398  0.5647
  719SOL    HW2 2947   4.206   3.109   1.131 -0.4490  0.2769  0.5991
  719SOL    HW3 2948   4.296   3.083   1.012  0.0703  0.7623  0.8824
  719SOL    MW4 2949   4.276   3.071   1.096 -0.6156 -0.0391  0.6112
  720SOL     OW 2950   4.085   3.264   1.162  0.2807 -0.6856 -0.4986
  720SOL    HW2 2951   4.081   3.245   1.256  0.7324  0.0198 -0.3334
  720SOL    HW3 2952   4.006   3.224   1.126 -0.3804 -0.1308  0.3350
  720SOL    MW4 2953   4.074   3.256   1.170  0.2532 -0.5193 -0.3669
  721SOL     OW 2954   4.071   3.513   1.085  0.4101  0.2042 -0.4480
  721SOL    HW2 2955   4.084   3.428   1.127 -1.7907 -0.4145 -0.9136
  721SOL    HW3 2956   4.000   3.553   1.136  0.9027  1.4299 -0.7206
  721SOL    MW4 2957   4.063   3.507   1.097  0.1845  0.2842 -0.5455
  722SOL     OW 2958   4.279   3.666   1.210 -0.2915 -0.2555  0.4891
  722SOL    HW2 2959   4.201   3.627   1.171 -0.1456 -1.6184  1.5395
  722SOL    HW3 2960   4.352   3.620   1.170 -0.0128  0.8458 -0.3030
  722SOL    MW4 2961   4.278   3.655   1.200 -0.2356 -0.2902  0.5232
  723SOL     OW 2962   4.319   3.901   1.106  0.0186  0.0160 -0.2688
  723SOL    HW2 2963   4.251   3.958   1.143 -1.0089 -1.0251 -0.5427
  723SOL    HW3 2964   4.306   3.817   1.149 -0.2078 -0.7782 -1.8547
  723SOL    MW4 2965   4.308   3.897   1.117 -0.1464 -0.2260 -0.5140
  724SOL     OW 2966   4.071   4.024   1.206  0.5905  0.2521 -0.1894
  724SOL    HW2 2967   4.068   4.118   1.190 -1.3252  0.0042 -1.3655
  724SOL    HW3 2968   3.982   3.994   1.190  1.0387 -1.6735  0.7911
  724SOL    MW4 2969   4.059   4.033   1.202  0.3972 -0.0348 -0.2151
  725SOL     OW 2970   4.053   4.303   1.202 -0.6369  0.1584 -0.7107
  725SOL    HW2 2971   3.969   4.334   1.235  0.1261  0.8995  0.6332
  725SOL    HW3 2972   4.046   4.309   1.107 -1.2573  2.5142 -0.5441
  725SOL    MW4 2973   4.041   4.308   1.194 -0.6180  0.5674 -0.5113
  726SOL     OW 2974   4.278   4.435   1.241 -0.2989  0.0284 -0.4465
  726SOL    HW2 2975   4.198   4.386   1.219  0.0896 -0.4798 -0.7430
  726SOL    HW3 2976   4.347   4.392   1.190  0.2986 -0.0409  0.4156
  726SOL    MW4 2977   4.277   4.423   1.231 -0.1688 -0.0482 -0.3719
  727SOL     OW 2978   0.265   4.633   1.625 -0.2135 -0.3873  0.4641
  727SOL    HW2 2979   0.332   4.686   1.583 -0.8319  1.0929  1.2783
  727SOL    HW3 2980   0.182   4.668   1.591 -0.6460 -0.4992  1.3798
  727SOL    MW4 2981   0.263   4.644   1.615 -0.3521 -0.2074  0.6925
  728SOL     OW 2982   0.033   0.088   1.504 -0.1201  0.2978  0.1760
  728SOL    HW2 2983  -0.052   0.061   1.539 -0.0077  0.8324  0.8823
  728SOL    HW3 2984   0.017   0.104   1.411 -1.0291  1.3741  0.5117
  728SOL    MW4 2985   0.019   0.087   1.496 -0.2252  0.5104  0.3134
  729SOL     OW 2986   0.007   0.374   1.548 -0.1901  0.1020  0.1653
  729SOL    HW2 2987   0.000   0.391   1.642  0.4298 -1.3587  0.4951
  729SOL    HW3 2988   0.007   0.278   1.541  1.1081  0.1753 -1.2139
  729SOL    MW4 2989   0.006   0.364   1.560  0.0629 -0.0810  0.0269
  730SOL     OW 2990   0.223   0.534   1.504 -0.3530 -0.2122  0.3883
  730SOL    HW2 2991   0.145   0.480   1.516 -1.6042  1.3654 -0.6676
  730SOL    HW3 2992   0.244   0.526   1.411  0.8309 -0.7299  0.6881
  730SOL    MW4 2993   0.216   0.525   1.494 -0.3619 -0.0724  0.2886
  731SOL     OW 2994   0.217   0.783   1.601  0.4447  0.1324 -0.3113
  731SOL    HW2 2995   0.289   0.829   1.558  0.8065  0.1241  0.2710
  731SOL    HW3 2996   0.225   0.693   1.572 -1.2202  0.7252 -2.7047
  731SOL    MW4 2997   0.228   0.777   1.592  0.2728  0.2096 -0.5503
  732SOL     OW 2998   4.491   0.880   1.466  0.4866 -0.0617  0.1916
  732SOL    HW2 2999   4.494   0.966   1.507 -0.5077 -0.4916  1.2133
  732SOL    HW3 3000   4.555   0.828   1.514  0.2187 -0.2249  0.3716
  732SOL    MW4 3001   4.500   0.884   1.478  0.3204 -0.1399  0.3501
  733SOL     OW 3002   4.488   1.135   1.579  0.4260  0.2530 -0.7547
  733SOL    HW2 3003   4.509   1.142   1.672  0.5380 -0.3494 -0.7307
  733SOL    HW3 3004   4.562   1.178   1.535 -0.1761  1.5476 -0.5358
  733SOL    MW4 3005   4.501   1.142   1.585  0.3610  0.3444 -0.7226
  734SOL     OW 3006   0.213   1.256   1.468 -0.2036  0.0821 -0.7604
  734SOL    HW2 3007   0.194   1.333   1.521 -0.4770 -0.4276 -0.0993
  734SOL    HW3 3008   0.211   1.287   1.378 -1.6555  0.5859 -0.5747
  734SOL    MW4 3009   0.210   1.270   1.463 -0.4312  0.0813 -0.6487
  735SOL     OW 3010   0.223   1.504   1.622 -0.1430  0.1817  0.4143
  735SOL    HW2 3011   0.226   1.521   1.716 -0.9021  1.0589  0.2917
  735SOL    HW3 3012   0.170   1.576   1.586  1.2175  0.5821 -0.8571
  735SOL    MW4 3013   0.216   1.516   1.629 -0.0636  0.3502  0.2304
  736SOL     OW 3014   0.030   1.647   1.521  0.4543 -0.1705 -0.3974
  736SOL    HW2 3015  -0.000   1.729   1.559  1.2744 -0.0999  0.1144
  736SOL    HW3 3016   0.028   1.662   1.427 -0.3745  0.0818 -0.3486
  736SOL    MW4 3017   0.026   1.660   1.514  0.4531 -0.1280 -0.3234
  737SOL     OW 3018   4.484   1.926   1.606  0.1533 -0.3846 -0.0436
  737SOL    HW2 3019   4.465   1.938   1.699 -0.0924 -1.1415  0.0096
  737SOL    HW3 3020   4.414   1.973   1.561  0.6102  0.4936  0.1485
  737SOL    MW4 3021   4.472   1.934   1.613  0.1812 -0.3686 -0.0113
  738SOL     OW 3022   0.215   2.068   1.514  0.3552  0.3549 -0.3729
  738SOL    HW2 3023   0.148   2.003   1.537  1.2474 -0.7925 -1.0054
  738SOL    HW3 3024   0.203   2.083   1.420  0.4591  0.7583 -0.3222
  738SOL    MW4 3025   0.205   2.061   1.505  0.4866  0.2568 -0.4497
  739SOL     OW 3026   0.238   2.333   1.633 -0.1143  0.4069  0.1748
  739SOL    HW2 3027   0.238   2.349   1.727  2.2348 -1.1951  0.4936
  739SOL    HW3 3028   0.235   2.238   1.625 -1.5523  0.5625 -1.4233
  739SOL    MW4 3029   0.237   2.323   1.644  0.0059  0.2162  0.0060
  740SOL     OW 3030   0.032   2.430   1.461  0.4464 -0.2969 -0.1212
  740SOL    HW2 3031  -0.043   2.395   1.508  0.6960 -0.6101  0.0488
  740SOL    HW3 3032   0.107   2.406   1.515  0.8075 -1.3561 -1.0723
  740SOL    MW4 3033   0.032   2.422   1.474  0.5269 -0.4780 -0.2244
  741SOL     OW 3034   0.034   2.675   1.617  0.2396  0.0764  0.4379
  741SOL    HW2 3035  -0.052   2.715   1.603  0.5694  0.6765  0.0876
  741SOL    HW3 3036   0.041   2.608   1.549  0.0995  0.1169  0.3835
  741SOL    MW4 3037   0.024   2.671   1.606  0.2646  0.1607  0.3844
  742SOL     OW 3038   0.195   2.856   1.487 -0.0492 -0.0645 -0.0774
  742SOL    HW2 3039   0.273   2.834   1.537 -0.4610 -2.1798 -0.3033
  742SOL    HW3 3040   0.125   2.806   1.529 -1.4139  2.2966  0.5168
  742SOL    MW4 3041   0.196   2.846   1.499 -0.2836 -0.0322 -0.0290
  743SOL     OW 3042   0.260   3.126   1.599 -0.3417 -0.1978  0.0146
  743SOL    HW2 3043   0.190   3.158   1.543 -0.8101  0.0446  0.7342
  743SOL    HW3 3044   0.271   3.034   1.573 -0.2604  0.0281 -0.7650
  743SOL    MW4 3045   0.252   3.118   1.588 -0.3928 -0.1361  0.0067
  744SOL     OW 3046   0.063   3.259   1.464 -0.0090 -0.2734  0.1392
  744SOL    HW2 3047   0.059   3.345   1.505 -1.2643 -0.1665 -0.1809
  744SOL    HW3 3048   0.042   3.276   1.372 -0.6977 -0.9743  0.1645
  744SOL    MW4 3049   0.060   3.273   1.457 -0.2655 -0.3519  0.1003
  745SOL     OW 3050   0.021   3.507   1.591  0.4332 -0.0866 -0.0298
  745SOL    HW2 3051   0.011   3.506   1.686  0.4034  2.7450  0.0447
  745SOL    HW3 3052  -0.065   3.534   1.558  0.9242  0.6198 -0.7597
  745SOL    MW4 3053   0.008   3.510   1.599  0.4940  0.3803 -0.1162
  746SOL     OW 3054   0.223   3.637   1.464 -0.2857  0.0663  0.1422
  746SOL    HW2 3055   0.211   3.724   1.502  1.6883  0.3456  0.1782
  746SOL    HW3 3056   0.154   3.584   1.504 -0.2368  1.1201  1.6830
  746SOL    MW4 3057   0.213   3.642   1.474 -0.0188  0.2418  0.3502
  747SOL     OW 3058   0.232   3.890   1.592 -0.0358  0.0038  0.2876
  747SOL    HW2 3059   0.240   3.876   1.687 -0.2881  1.9736  0.6346
  747SOL    HW3 3060   0.308   3.943   1.569 -0.8096  0.8852 -0.3004
  747SOL    MW4 3061   0.243   3.895   1.602 -0.1712  0.3800  0.2557
  748SOL     OW 3062   0.005   4.028   1.494 -0.2693 -0.0338  0.2464
  748SOL    HW2 3063   0.002   4.116   1.533  0.7912 -0.3849  1.1538
  748SOL    HW3 3064   0.078   3.985   1.538 -1.1381 -1.5787  0.2239
  748SOL    MW4 3065   0.014   4.034   1.505 -0.2440 -0.2837  0.3632
  749SOL     OW 3066   4.486   4.293   1.600  0.4096  0.2314  0.1149
  749SOL    HW2 3067   4.495   4.280   1.695 -0.0852  0.0152  0.1314
  749SOL    HW3 3068   4.403   4.340   1.590 -0.3816 -1.2485 -0.3320
  749SOL    MW4 3069   4.476   4.298   1.611  0.2398  0.0072  0.0579
  750SOL     OW 3070   0.196   4.406   1.465  0.1315 -0.1089 -0.2336
  750SOL    HW2 3071   0.120   4.366   1.507 -0.3761 -0.2547 -1.2648
  750SOL    HW3 3072   0.216   4.483   1.519 -0.9767  0.1397 -0.1583
  750SOL    MW4 3073   0.189   4.411   1.478 -0.0817 -0.0954 -0.3597
  751SOL     OW 3074   0.693   4.640   1.639  0.0281 -0.0403  0.3428
  751SOL    HW2 3075   0.764   4.693   1.603 -0.1248  0.7348  1.1831
  751SOL    HW3 3076   0.613   4.683   1.607 -0.0800 -0.3240  0.2312
  751SOL    MW4 3077   0.692   4.653   1.630 -0.0064  0.0243  0.4389
  752SOL     OW 3078   0.468   0.113   1.522 -0.1967 -0.3128  0.4792
  752SOL    HW2 3079   0.456   0.206   1.539  1.6177  0.0003  0.1081
  752SOL    HW3 3080   0.455   0.104   1.427 -0.3500 -0.4457  0.5119
  752SOL    MW4 3081   0.464   0.124   1.512  0.0225 -0.2890  0.4346
  753SOL     OW 3082   0.442   0.381   1.594 -0.6334 -0.3163 -0.5033
  753SOL    HW2 3083   0.517   0.427   1.558 -0.3917 -1.1466 -1.0834
  753SOL    HW3 3084   0.366   0.433   1.569 -0.3027  0.1917 -0.4503
  753SOL    MW4 3085   0.442   0.394   1.586 -0.5578 -0.3588 -0.5729
  754SOL     OW 3086   0.669   0.488   1.505 -0.3841 -0.1983  0.2162
  754SOL    HW2 3087   0.677   0.572   1.550  2.1268  0.5566 -1.5500
  754SOL    HW3 3088   0.703   0.504   1.417  1.3993 -3.3508  0.2348
  754SOL    MW4 3089   0.675   0.501   1.499  0.1824 -0.5146 -0.0144
  755SOL     OW 3090   0.683   0.754   1.579 -0.7508  0.2621  0.0397
  755SOL    HW2 3091   0.677   0.752   1.674 -2.9684  0.8191 -0.0598
  755SOL    HW3 3092   0.755   0.815   1.561 -0.3960  0.2437  1.3398
  755SOL    MW4 3093   0.692   0.762   1.589 -0.9966  0.3332  0.1980
  756SOL     OW 3094   0.433   0.895   1.479 -0.0450 -0.0167  0.3855
  756SOL    HW2 3095   0.425   0.982   1.518 -1.0472  0.5088 -0.9320
  756SOL    HW3 3096   0.513   0.859   1.516  0.7514  1.7475  0.4249
  756SOL    MW4 3097   0.442   0.902   1.489 -0.0722  0.2854  0.2168
  757SOL     OW 3098   0.442   1.146   1.576  0.5489 -0.2423  0.6596
  757SOL    HW2 3099   0.516   1.203   1.551 -0.1673  1.3038  1.9777
  757SOL    HW3 3100   0.367   1.185   1.531  0.2278 -0.7329  0.7770
  757SOL    MW4 3101   0.442   1.159   1.567  0.4121 -0.1031  0.8489
  758SOL     OW 3102   0.681   1.276   1.512  0.0825 -0.4611  0.5907
  758SOL    HW2 3103   0.684   1.370   1.532  0.6313 -0.4166  0.3154
  758SOL    HW3 3104   0.663   1.273   1.418 -0.9835 -0.6488  0.7902
  758SOL    MW4 3105   0.679   1.288   1.502  0.0142 -0.4801  0.5807
  759SOL     OW 3106   0.707   1.545   1.599  0.0077  0.0971  0.4840
  759SOL    HW2 3107   0.772   1.613   1.581 -0.6991  0.0962 -2.2532
  759SOL    HW3 3108   0.625   1.581   1.565 -0.5701 -1.6897 -0.0328
  759SOL    MW4 3109   0.704   1.559   1.592 -0.1618 -0.1388  0.0547
  760SOL     OW 3110   0.448   1.622   1.516  0.1917 -0.2450  0.1409
  760SOL    HW2 3111   0.441   1.713   1.545 -0.4724 -0.0676 -0.5773
  760SOL    HW3 3112   0.373   1.578   1.556 -0.9223  0.0716 -1.5628
  760SOL    MW4 3113   0.437   1.628   1.525 -0.0429 -0.1800 -0.1786
  761SOL     OW 3114   0.427   1.886   1.573  0.2954 -0.5067  0.2879
  761SOL    HW2 3115   0.448   1.910   1.663  0.9131  0.2888 -0.0632
  761SOL    HW3 3116   0.370   1.955   1.541  2.2264  0.6403 -0.7824
  761SOL    MW4 3117   0.422   1.898   1.581  0.6317 -0.2503  0.1005
  762SOL     OW 3118   0.666   2.122   1.512 -0.0889 -0.4236 -0.2915
  762SOL    HW2 3119   0.742   2.074   1.547  0.3438  1.4032  1.3770
  762SOL    HW3 3120   0.592   2.065   1.529  0.6327 -1.2584  0.1020
  762SOL    MW4 3121   0.666   2.108   1.519  0.0634 -0.2928 -0.0196
  763SOL     OW 3122   0.688   2.390   1.600 -0.7927  0.3663  0.2475
  763SOL    HW2 3123   0.605   2.430   1.574 -0.9544 -0.5457 -0.7237
  763SOL    HW3 3124   0.678   2.298   1.575  0.6180  0.3127 -0.1375
  763SOL    MW4 3125   0.676   2.383   1.593 -0.6279  0.2387  0.0685
  764SOL     OW 3126   0.438   2.512   1.529 -0.1446  0.4370 -0.1070
  764SOL    HW2 3127   0.436   2.597   1.574 -0.5565  1.3117 -1.7554
  764SOL    HW3 3128   0.353   2.474   1.547 -0.1262  0.5644  0.2613
  764SOL    MW4 3129   0.427   2.519   1.537 -0.1965  0.5693 -0.2760
  765SOL     OW 3130   0.436   2.786   1.621 -0.0031 -0.0241  0.6149
  765SOL    HW2 3131   0.440   2.780   1.716 -0.2692  1.3071  0.7292
  765SOL    HW3 3132   0.520   2.824   1.596  0.2622 -0.8243  0.2682
  765SOL    MW4 3133   0.448   2.790   1.630 -0.0032  0.0460  0.5841
  766SOL     OW 3134   0.662   2.906   1.503 -0.9263  0.4496  0.0685
  766SOL    HW2 3135   0.677   2.997   1.529  0.9925  0.0781  0.3357
  766SOL    HW3 3136   0.651   2.909   1.408 -1.3867  1.0215  0.1400
  766SOL    MW4 3137   0.662   2.918   1.494 -0.7339  0.4764  0.1132
  767SOL     OW 3138   0.693   3.170   1.613  0.9434 -0.2166  0.0819
  767SOL    HW2 3139   0.759   3.218   1.563  1.1900  1.5091  1.9827
  767SOL    HW3 3140   0.611   3.215   1.593  0.6888 -0.9448 -0.5236
  767SOL    MW4 3141   0.691   3.182   1.603  0.9423 -0.0849  0.2527
  768SOL     OW 3142   0.470   3.294   1.519 -0.0774  0.1245  0.2874
  768SOL    HW2 3143   0.399   3.244   1.560 -0.2296 -0.9008 -1.2159
  768SOL    HW3 3144   0.459   3.280   1.425  1.5578  0.7331 -0.0074
  768SOL    MW4 3145   0.459   3.286   1.512  0.1183  0.0696  0.0502
  769SOL     OW 3146   0.469   3.548   1.617  0.4776 -0.0278 -0.0127
  769SOL    HW2 3147   0.481   3.456   1.595  2.3855  0.3307 -0.5542
  769SOL    HW3 3148   0.389   3.574   1.572  1.0567 -0.8973 -1.5623
  769SOL    MW4 3149   0.460   3.540   1.608  0.8057 -0.0951 -0.2886
  770SOL     OW 3150   0.704   3.692   1.495  0.6531  0.2489  0.0123
  770SOL    HW2 3151   0.773   3.635   1.527  0.1540  0.1617  0.9580
  770SOL    HW3 3152   0.623   3.652   1.526  0.1782  0.3672 -1.0570
  770SOL    MW4 3153   0.702   3.679   1.504  0.5246  0.2532 -0.0039
  771SOL     OW 3154   0.719   3.946   1.612 -0.2789 -0.1540  0.0397
  771SOL    HW2 3155   0.793   3.985   1.565 -1.4150  0.7088 -1.0827
  771SOL    HW3 3156   0.706   3.861   1.570  0.0890 -0.3312  0.2751
  771SOL    MW4 3157   0.727   3.940   1.600 -0.3802 -0.0637 -0.0771
  772SOL     OW 3158   0.479   4.044   1.518  0.0340  0.1967  0.3173
  772SOL    HW2 3159   0.569   4.024   1.546  0.5170  1.6451 -0.1202
  772SOL    HW3 3160   0.482   4.040   1.423  0.0432  1.7601  0.2275
  772SOL    MW4 3161   0.492   4.041   1.509  0.0989  0.5941  0.2477
  773SOL     OW 3162   0.439   4.288   1.627 -0.4671  0.0023 -0.5586
  773SOL    HW2 3163   0.450   4.198   1.596 -1.8799 -0.7931  1.1963
  773SOL    HW3 3164   0.362   4.320   1.580 -0.1292  0.2334 -0.9706
  773SOL    MW4 3165   0.431   4.281   1.617 -0.6090 -0.0720 -0.3815
  774SOL     OW 3166   0.646   4.391   1.489 -0.0097  0.4402 -0.1315
  774SOL    HW2 3167   0.582   4.344   1.543  0.1659  0.7638  0.3680
  774SOL    HW3 3168   0.650   4.479   1.528  0.0329  0.7131 -0.7470
  774SOL    MW4 3169   0.638   4.397   1.502  0.0191  0.5188 -0.1469
  775SOL     OW 3170   1.129   0.003   1.611 -0.0278  0.1124  0.0838
  775SOL    HW2 3171   1.142  -0.008   1.705  1.4762 -1.7043 -0.2960
  775SOL    HW3 3172   1.209   0.047   1.581 -0.4109  0.4949 -0.3665
  775SOL    MW4 3173   1.142   0.007   1.620  0.1200 -0.0768 -0.0256
  776SOL     OW 3174   0.897   0.113   1.516  0.1561  0.2982 -0.1370
  776SOL    HW2 3175   0.906   0.208   1.508 -1.0822  0.4293 -0.1074
  776SOL    HW3 3176   0.977   0.085   1.559  1.0996  1.1783 -1.2606
  776SOL    MW4 3177   0.909   0.122   1.520  0.1172  0.4316 -0.2812
  777SOL     OW 3178   0.936   0.396   1.579  0.3915 -0.1262  0.3311
  777SOL    HW2 3179   0.957   0.407   1.672 -1.0807  0.4537  0.6164
  777SOL    HW3 3180   0.842   0.412   1.574  0.6185  0.7837 -1.4136
  777SOL    MW4 3181   0.926   0.399   1.590  0.2272  0.0703  0.1386
  778SOL     OW 3182   1.193   0.486   1.489 -0.1279  0.3432  0.3306
  778SOL    HW2 3183   1.201   0.580   1.505  1.3523  0.3465 -0.3504
  778SOL    HW3 3184   1.104   0.465   1.517 -0.1393  1.7513  1.4416
  778SOL    MW4 3185   1.182   0.496   1.495  0.0658  0.5294  0.3874
  779SOL     OW 3186   1.160   0.759   1.575  0.4614  0.2460  0.4720
  779SOL    HW2 3187   1.165   0.741   1.669  0.5713 -0.1721  0.3875
  779SOL    HW3 3188   1.221   0.830   1.561  1.2895 -0.4479  0.5293
  779SOL    MW4 3189   1.168   0.766   1.586  0.5851  0.0993  0.4684
  780SOL     OW 3190   0.926   0.916   1.529  0.5534  0.2149  0.0966
  780SOL    HW2 3191   1.001   0.862   1.551 -1.1746 -1.7303  1.4236
  780SOL    HW3 3192   0.922   0.915   1.434  1.3148 -0.9084  0.0717
  780SOL    MW4 3193   0.935   0.909   1.520  0.4258 -0.1900  0.2682
  781SOL     OW 3194   0.899   1.163   1.644 -0.0175  0.3266 -0.1511
  781SOL    HW2 3195   0.892   1.072   1.615 -2.0958  0.3887  0.0942
  781SOL    HW3 3196   0.825   1.207   1.602 -0.6841  1.2846  1.9675
  781SOL    MW4 3197   0.888   1.157   1.634 -0.3797  0.4612  0.1608
  782SOL     OW 3198   1.099   1.267   1.506 -0.1485  0.1180 -0.1683
  782SOL    HW2 3199   1.183   1.244   1.547 -0.5631  0.6752  0.9823
  782SOL    HW3 3200   1.034   1.214   1.552 -0.3957 -0.6164 -1.3276
  782SOL    MW4 3201   1.102   1.257   1.518 -0.2358  0.0947 -0.1694
  783SOL     OW 3202   1.091   1.538   1.598 -0.0132 -0.0074  0.1108
  783SOL    HW2 3203   1.177   1.579   1.588 -0.5164  0.8984 -0.6127
  783SOL    HW3 3204   1.101   1.451   1.560  0.4121  0.3330 -0.5639
  783SOL    MW4 3205   1.104   1.532   1.592 -0.0236  0.1569 -0.0737
  784SOL     OW 3206   0.900   1.723   1.539 -0.1161  0.4074 -0.8224
  784SOL    HW2 3207   0.971   1.662   1.560  0.2264  0.6617 -1.2126
  784SOL    HW3 3208   0.894   1.721   1.443 -0.4945  0.5480 -0.8020
  784SOL    MW4 3209   0.909   1.715   1.529 -0.1208  0.4597 -0.8712
  785SOL     OW 3210   0.890   1.986   1.609 -0.2519 -0.1198 -0.0846
  785SOL    HW2 3211   0.976   2.018   1.582 -0.5474 -0.2957 -1.2402
  785SOL    HW3 3212   0.889   1.894   1.582 -0.5770 -0.2843  0.4691
  785SOL    MW4 3213   0.901   1.978   1.602 -0.3338 -0.1646 -0.1640
  786SOL     OW 3214   1.148   2.106   1.539  0.0133 -0.0492 -0.2059
  786SOL    HW2 3215   1.227   2.066   1.576 -0.9378 -0.2402  1.7308
  786SOL    HW3 3216   1.149   2.196   1.574 -1.2153 -0.4171  0.8175
  786SOL    MW4 3217   1.159   2.113   1.549 -0.2742 -0.1233  0.1847
  787SOL     OW 3218   1.141   2.386   1.603  0.1192  0.6874  0.2944
  787SOL    HW2 3219   1.212   2.409   1.544 -0.0036  0.2620 -0.0208
  787SOL    HW3 3220   1.062   2.420   1.560  0.1290  1.1044  0.6129
  787SOL    MW4 3221   1.140   2.393   1.590  0.1043  0.6864  0.2949
  788SOL     OW 3222   0.907   2.481   1.478  0.6675  0.1999 -0.5159
  788SOL    HW2 3223   0.918   2.575   1.492 -0.3572  0.7471 -3.0328
  788SOL    HW3 3224   0.822   2.461   1.517  0.9165  0.3061  0.0847
  788SOL    MW4 3225   0.897   2.491   1.485  0.5652  0.2861 -0.7687
  789SOL     OW 3226   0.899   2.741   1.553 -0.3365 -0.1468  0.1374
  789SOL    HW2 3227   0.898   2.740   1.649 -0.1273  0.2512  0.1446
  789SOL    HW3 3228   0.814   2.778   1.529 -0.9765 -1.5528  0.1395
  789SOL    MW4 3229   0.888   2.746   1.562 -0.3932 -0.2797  0.1386
  790SOL     OW 3230   1.117   2.883   1.466  0.2511  0.0592 -0.0070
  790SOL    HW2 3231   1.113   2.973   1.500 -0.2607  0.2005 -0.4443
  790SOL    HW3 3232   1.030   2.847   1.483  0.2477 -0.1349 -0.4364
  790SOL    MW4 3233   1.105   2.890   1.473  0.1832  0.0520 -0.1212
  791SOL     OW 3234   1.100   3.157   1.533  0.6682  0.4267 -0.1173
  791SOL    HW2 3235   1.099   3.163   1.628  0.5628 -0.4286 -0.0577
  791SOL    HW3 3236   1.179   3.205   1.506  1.4923 -0.5632  0.4941
  791SOL    MW4 3237   1.110   3.164   1.542  0.7629  0.1833 -0.0287
  792SOL     OW 3238   0.879   3.276   1.432 -0.3948 -0.2856  0.7508
  792SOL    HW2 3239   0.950   3.228   1.475  0.1410  1.2139  1.5992
  792SOL    HW3 3240   0.887   3.253   1.339  0.5633 -0.9367  0.9872
  792SOL    MW4 3241   0.890   3.267   1.425 -0.1976 -0.1733  0.8938
  793SOL     OW 3242   0.870   3.500   1.571 -0.5350  0.6460 -0.1761
  793SOL    HW2 3243   0.947   3.552   1.544 -0.5416  1.3657  1.1542
  793SOL    HW3 3244   0.878   3.419   1.521  1.2545  0.5919  0.1420
  793SOL    MW4 3245   0.881   3.496   1.561 -0.2998  0.7339  0.0412
  794SOL     OW 3246   1.119   3.632   1.511 -0.5199  0.6613 -0.5810
  794SOL    HW2 3247   1.207   3.600   1.531 -0.5299  1.0165  0.0544
  794SOL    HW3 3248   1.113   3.629   1.416 -1.1371 -2.8463 -0.4891
  794SOL    MW4 3249   1.130   3.628   1.501 -0.6026  0.2453 -0.4851
  795SOL     OW 3250   1.123   3.889   1.621 -0.0077 -0.0121  0.3931
  795SOL    HW2 3251   1.199   3.918   1.571  0.1603  0.4599  0.9143
  795SOL    HW3 3252   1.105   3.801   1.589  0.2324  0.2008 -0.3399
  795SOL    MW4 3253   1.130   3.881   1.610  0.0461  0.0782  0.3651
  796SOL     OW 3254   0.931   4.057   1.488 -0.1778 -0.3352 -0.1424
  796SOL    HW2 3255   0.924   4.142   1.532  2.1161 -0.6885  1.0236
  796SOL    HW3 3256   1.012   4.019   1.524  0.5106 -1.6476 -2.9739
  796SOL    MW4 3257   0.941   4.064   1.499  0.2156 -0.5550 -0.3622
  797SOL     OW 3258   0.904   4.310   1.611  0.1444 -0.5432 -0.1351
  797SOL    HW2 3259   0.899   4.318   1.707  1.4138 -0.6648 -0.0611
  797SOL    HW3 3260   0.816   4.336   1.581 -0.2206 -0.3690  1.0481
  797SOL    MW4 3261   0.891   4.315   1.620  0.2637 -0.5360  0.0309
  798SOL     OW 3262   1.121   4.426   1.509 -0.1133 -0.1554 -0.3517
  798SOL    HW2 3263   1.039   4.390   1.542  0.0917  0.6781  1.0892
  798SOL    HW3 3264   1.131   4.509   1.554  1.7259 -0.4264 -0.2159
  798SOL    MW4 3265   1.112   4.432   1.519  0.1565 -0.0815 -0.1438
  799SOL     OW 3266   1.597   0.020   1.599 -0.0661 -0.0746  0.1425
  799SOL    HW2 3267   1.576   0.029   1.692  0.1312  2.6775 -0.0573
  799SOL    HW3 3268   1.523   0.059   1.554  0.5811  0.0369 -0.8316
  799SOL    MW4 3269   1.584   0.026   1.606  0.0453  0.3028 -0.0124
  800SOL     OW 3270   1.348   0.152   1.512 -0.3408 -0.0191 -0.0996
  800SOL    HW2 3271   1.381   0.227   1.561 -1.5996  1.0690 -0.8691
  800SOL    HW3 3272   1.348   0.182   1.421  0.6799 -1.5361 -0.6120
  800SOL    MW4 3273   1.352   0.166   1.507 -0.3722 -0.0757 -0.2687
  801SOL     OW 3274   1.437   0.389   1.632  0.6230 -0.4639  0.0534
  801SOL    HW2 3275   1.505   0.430   1.579  1.3630 -1.8161 -0.0882
  801SOL    HW3 3276   1.356   0.432   1.606  1.1378 -0.3229 -1.3426
  801SOL    MW4 3277   1.435   0.400   1.622  0.7883 -0.6237 -0.1495
  802SOL     OW 3278   1.600   0.562   1.511  0.5698 -0.0081  0.3097
  802SOL    HW2 3279   1.672   0.514   1.554  0.7885  0.4856  0.4932
  802SOL    HW3 3280   1.606   0.536   1.419 -0.6258 -1.9894  0.7624
  802SOL    MW4 3281   1.610   0.552   1.504  0.4410 -0.2044  0.3936
  803SOL     OW 3282   1.537   0.806   1.584 -0.8183 -0.2561  0.3375
  803SOL    HW2 3283   1.528   0.812   1.679  0.0040 -0.3189  0.4187
  803SOL    HW3 3284   1.570   0.718   1.568 -1.0736 -0.2929 -0.0234
  803SOL    MW4 3285   1.540   0.795   1.594 -0.7436 -0.2692  0.3005
  804SOL     OW 3286   1.332   0.957   1.491  0.5682  0.1414 -0.1567
  804SOL    HW2 3287   1.410   0.912   1.522  0.6289  0.6466  0.4242
  804SOL    HW3 3288   1.324   0.930   1.399  1.0935 -0.3663 -0.0573
  804SOL    MW4 3289   1.341   0.948   1.483  0.6454  0.1410 -0.0670
  805SOL     OW 3290   1.352   1.207   1.608 -0.0122 -0.1800 -0.3766
  805SOL    HW2 3291   1.354   1.193   1.702  2.2123  1.3410 -0.1387
  805SOL    HW3 3292   1.344   1.119   1.570  1.6958 -1.0409  1.1926
  805SOL    MW4 3293   1.351   1.194   1.615  0.5068 -0.0929 -0.1384
  806SOL     OW 3294   1.605   1.328   1.542  0.0570 -0.3112  0.2683
  806SOL    HW2 3295   1.523   1.280   1.559 -0.3395  0.6361  1.0860
  806SOL    HW3 3296   1.612   1.330   1.447 -2.2928  1.8928  0.0570
  806SOL    MW4 3297   1.595   1.322   1.532 -0.3053  0.1047  0.3482
  807SOL     OW 3298   1.580   1.584   1.652  0.4439  0.1871 -0.2917
  807SOL    HW2 3299   1.574   1.579   1.747  1.0219  0.1818 -0.2522
  807SOL    HW3 3300   1.594   1.493   1.624  1.5580  0.3440 -0.2804
  807SOL    MW4 3301   1.581   1.571   1.661  0.6673  0.2071 -0.2849
  808SOL     OW 3302   1.335   1.664   1.562  0.2535 -0.3666 -0.0285
  808SOL    HW2 3303   1.421   1.637   1.594  0.8745  0.5266 -0.9149
  808SOL    HW3 3304   1.349   1.683   1.469 -1.0838 -1.0122 -0.3724
  808SOL    MW4 3305   1.348   1.663   1.554  0.1589 -0.3340 -0.1909
  809SOL     OW 3306   1.371   1.953   1.645  0.4166 -0.0064 -0.1104
  809SOL    HW2 3307   1.352   1.953   1.739 -0.8195 -0.5405 -0.3541
  809SOL    HW3 3308   1.379   1.861   1.622  1.2071  0.1398 -0.4455
  809SOL    MW4 3309   1.370   1.941   1.655  0.3577 -0.0576 -0.1869
  810SOL     OW 3310   1.585   2.094   1.512  0.0779  0.2684  0.1588
  810SOL    HW2 3311   1.514   2.037   1.540  0.7082 -0.8911 -0.5901
  810SOL    HW3 3312   1.577   2.097   1.417  0.3557  1.0484  0.1515
  810SOL    MW4 3313   1.574   2.087   1.503  0.1978  0.2182  0.0590
  811SOL     OW 3314   1.584   2.357   1.599  0.2188  0.3637 -0.2999
  811SOL    HW2 3315   1.663   2.395   1.562  0.8691 -0.1741  0.5133
  811SOL    HW3 3316   1.590   2.264   1.578  0.1110  0.2183  0.2957
  811SOL    MW4 3317   1.595   2.350   1.591  0.2904  0.2732 -0.1141
  812SOL     OW 3318   1.359   2.450   1.455  0.0042 -0.5697  0.0186
  812SOL    HW2 3319   1.368   2.540   1.484 -0.3447 -0.1286 -1.1910
  812SOL    HW3 3320   1.431   2.403   1.498  0.0488  0.2319  0.8281
  812SOL    MW4 3321   1.370   2.456   1.464 -0.0360 -0.4058 -0.0341
  813SOL     OW 3322   1.344   2.726   1.528 -0.1197 -0.2826 -0.0826
  813SOL    HW2 3323   1.428   2.773   1.527 -0.4348  0.2711 -1.8420
  813SOL    HW3 3324   1.279   2.793   1.508 -0.8067 -1.0570 -0.4287
  813SOL    MW4 3325   1.347   2.741   1.526 -0.2520 -0.3119 -0.3605
  814SOL     OW 3326   1.573   2.864   1.492 -0.1866  0.6466  0.3494
  814SOL    HW2 3327   1.651   2.821   1.526  1.8159  3.8698 -0.0237
  814SOL    HW3 3328   1.577   2.847   1.397 -1.2652 -1.1905  0.6027
  814SOL    MW4 3329   1.584   2.856   1.484 -0.0646  0.8297  0.3335
  815SOL     OW 3330   1.521   3.123   1.560  0.0668  0.1903  0.0504
  815SOL    HW2 3331   1.605   3.167   1.549 -0.2205  0.4430 -1.2368
  815SOL    HW3 3332   1.537   3.033   1.534 -0.5731  0.7502 -2.4703
  815SOL    MW4 3333   1.534   3.117   1.555 -0.0554  0.2973 -0.4519
  816SOL     OW 3334   1.330   3.287   1.472 -0.2506  0.5351  0.7241
  816SOL    HW2 3335   1.360   3.368   1.512  1.8957  0.0964  0.0711
  816SOL    HW3 3336   1.397   3.222   1.496 -1.2487 -0.7426  0.1357
  816SOL    MW4 3337   1.343   3.289   1.481 -0.0991  0.3088  0.5602
  817SOL     OW 3338   1.379   3.540   1.569 -0.5761  0.1121  0.0783
  817SOL    HW2 3339   1.400   3.525   1.662 -0.4487  1.2225  0.2358
  817SOL    HW3 3340   1.450   3.595   1.537 -1.4406  1.0387 -0.2651
  817SOL    MW4 3341   1.391   3.545   1.577 -0.6734  0.3805  0.0539
  818SOL     OW 3342   1.615   3.687   1.486  0.2822  0.0416  0.0255
  818SOL    HW2 3343   1.616   3.775   1.522  0.0235 -0.3941  1.1164
  818SOL    HW3 3344   1.621   3.700   1.391 -1.1896  1.2733  0.0846
  818SOL    MW4 3345   1.616   3.700   1.478  0.0539  0.1466  0.1773
  819SOL     OW 3346   1.617   3.948   1.596 -0.1856  0.4198  0.3440
  819SOL    HW2 3347   1.623   3.937   1.691  0.1238 -0.1510  0.2642
  819SOL    HW3 3348   1.527   3.976   1.580 -0.6804 -0.9400  0.6781
  819SOL    MW4 3349   1.606   3.950   1.606 -0.2099  0.1652  0.3774
  820SOL     OW 3350   1.364   4.001   1.512 -0.3664  0.4929  0.0342
  820SOL    HW2 3351   1.357   4.091   1.544 -0.0844  0.4483  0.2271
  820SOL    HW3 3352   1.376   4.010   1.418 -0.0592  0.6718  0.0894
  820SOL    MW4 3353   1.365   4.014   1.504 -0.2886  0.5107  0.0670
  821SOL     OW 3354   1.330   4.283   1.610 -0.5481 -0.3578 -0.3688
  821SOL    HW2 3355   1.414   4.325   1.588 -1.0171 -0.0133 -1.5403
  821SOL    HW3 3356   1.264   4.340   1.572 -1.3930 -0.0130  1.5555
  821SOL    MW4 3357   1.333   4.296   1.602 -0.7215 -0.2666 -0.2693
  822SOL     OW 3358   1.549   4.431   1.545 -0.2044  0.2460  0.4019
  822SOL    HW2 3359   1.625   4.379   1.572  0.8448  1.5085 -0.0851
  822SOL    HW3 3360   1.569   4.520   1.574 -2.4558  0.2323  2.1659
  822SOL    MW4 3361   1.562   4.436   1.552 -0.3630  0.4110  0.5704
  823SOL     OW 3362   2.083   0.048   1.612  0.4935 -0.0018 -0.0707
  823SOL    HW2 3363   2.060   0.023   1.702  1.3596 -0.0368  0.1453
  823SOL    HW3 3364   2.004   0.090   1.578  0.8761  2.0886  1.4817
  823SOL    MW4 3365   2.069   0.050   1.620  0.6585  0.2694  0.1626
  824SOL     OW 3366   1.841   0.133   1.521 -0.0874  0.8432  0.3639
  824SOL    HW2 3367   1.767   0.078   1.548  0.9371 -0.5987  0.2761
  824SOL    HW3 3368   1.839   0.129   1.425 -1.1508  2.5145  0.2969
  824SOL    MW4 3369   1.831   0.125   1.512 -0.0924  0.8735  0.3436
  825SOL     OW 3370   1.793   0.393   1.595  0.0936  0.8729  0.3844
  825SOL    HW2 3371   1.872   0.424   1.552 -1.4754  1.1659 -2.3685
  825SOL    HW3 3372   1.796   0.298   1.585 -0.1964  0.9298 -0.2577
  825SOL    MW4 3373   1.803   0.385   1.588 -0.1518  0.9191 -0.0637
  826SOL     OW 3374   2.047   0.505   1.540 -0.4108 -0.4314  0.2168
  826SOL    HW2 3375   2.111   0.466   1.599 -1.4634  0.0843  1.7109
  826SOL    HW3 3376   2.068   0.599   1.540 -0.1378 -0.4865 -0.5822
  826SOL    MW4 3377   2.059   0.512   1.548 -0.5138 -0.3706  0.3085
  827SOL     OW 3378   2.069   0.778   1.605 -0.1358 -0.1499  0.3184
  827SOL    HW2 3379   2.150   0.821   1.582  0.9131 -1.7813  0.8380
  827SOL    HW3 3380   2.000   0.832   1.566  1.2537  0.5787 -1.1685
  827SOL    MW4 3381   2.070   0.791   1.597  0.1857 -0.2691  0.1909
  828SOL     OW 3382   1.806   0.910   1.539 -0.4715 -0.3373 -0.4042
  828SOL    HW2 3383   1.815   1.001   1.567 -0.6678 -0.3971 -0.1491
  828SOL    HW3 3384   1.719   0.883   1.570 -0.0771 -0.8680  0.2614
  828SOL    MW4 3385   1.796   0.918   1.547 -0.4454 -0.4153 -0.2829
  829SOL     OW 3386   1.819   1.171   1.631 -0.1359 -0.6567 -0.0244
  829SOL    HW2 3387   1.904   1.211   1.610 -1.1774  0.6981 -1.8023
  829SOL    HW3 3388   1.755   1.225   1.586 -1.9530 -1.8152  1.0967
  829SOL    MW4 3389   1.822   1.183   1.622 -0.5130 -0.6309 -0.1110
  830SOL     OW 3390   2.054   1.310   1.563 -0.3537 -0.0284  0.5095
  830SOL    HW2 3391   2.051   1.394   1.609  1.6064 -0.4915  1.5393
  830SOL    HW3 3392   2.038   1.333   1.471 -0.3759  1.4013  0.8515
  830SOL    MW4 3393   2.051   1.324   1.557 -0.0980  0.0991  0.6906
  831SOL     OW 3394   2.043   1.580   1.683 -0.3065  0.4403 -0.4632
  831SOL    HW2 3395   2.105   1.635   1.635  0.2929  1.7393  1.6801
  831SOL    HW3 3396   1.958   1.619   1.667  0.0175  1.5054  0.3470
  831SOL    MW4 3397   2.040   1.592   1.675 -0.1843  0.7522 -0.0734
  832SOL     OW 3398   1.805   1.715   1.590 -0.2990  0.1765  0.2392
  832SOL    HW2 3399   1.729   1.663   1.616  1.0705 -1.7384  0.5924
  832SOL    HW3 3400   1.792   1.731   1.497 -1.1887 -0.0519  0.3192
  832SOL    MW4 3401   1.794   1.710   1.581 -0.2358 -0.1065  0.2964
  833SOL     OW 3402   1.792   1.980   1.637 -0.4355 -0.1724  0.3723
  833SOL    HW2 3403   1.786   1.885   1.628 -1.5002 -0.1908  1.1986
  833SOL    HW3 3404   1.716   2.014   1.589  0.4677  0.3208 -0.7434
  833SOL    MW4 3405   1.781   1.972   1.629 -0.4569 -0.1097  0.3341
  834SOL     OW 3406   2.027   2.086   1.517 -0.4513 -0.1580 -0.0655
  834SOL    HW2 3407   2.102   2.028   1.524 -0.1204  0.3154  0.3273
  834SOL    HW3 3408   1.955   2.038   1.558  0.0415  0.0945  1.1216
  834SOL    MW4 3409   2.027   2.072   1.523 -0.3424 -0.0625  0.1431
  835SOL     OW 3410   2.052   2.354   1.603 -0.6287  0.0929 -0.2868
  835SOL    HW2 3411   2.066   2.340   1.696 -0.0402  0.0507 -0.3773
  835SOL    HW3 3412   2.043   2.266   1.566  1.1641  0.0068 -0.5687
  835SOL    MW4 3413   2.052   2.341   1.610 -0.3147  0.0756 -0.3359
  836SOL     OW 3414   1.810   2.471   1.494 -0.0686  0.1781 -0.2268
  836SOL    HW2 3415   1.883   2.421   1.531 -0.4795 -0.5632 -0.4110
  836SOL    HW3 3416   1.826   2.470   1.400 -0.7156 -0.6215 -0.3294
  836SOL    MW4 3417   1.822   2.464   1.487 -0.2083 -0.0255 -0.2646
  837SOL     OW 3418   1.818   2.725   1.567  0.2915 -0.4015  0.0871
  837SOL    HW2 3419   1.887   2.771   1.519  1.3000 -2.0260 -0.0391
  837SOL    HW3 3420   1.823   2.635   1.536 -1.5986 -0.6425  0.4133
  837SOL    MW4 3421   1.828   2.719   1.556  0.1750 -0.6475  0.1136
  838SOL     OW 3422   2.060   2.837   1.489 -0.3370 -0.0661  0.0017
  838SOL    HW2 3423   2.043   2.917   1.538  0.3518 -0.0128  0.1652
  838SOL    HW3 3424   2.096   2.866   1.406 -0.5799 -0.1853 -0.1428
  838SOL    MW4 3425   2.063   2.851   1.485 -0.2785 -0.0751  0.0042
  839SOL     OW 3426   2.020   3.092   1.608  0.3356  0.0994  0.3834
  839SOL    HW2 3427   2.050   3.107   1.698  1.2604  0.3408  0.0342
  839SOL    HW3 3428   2.079   3.143   1.553  0.3924 -0.8233 -0.4400
  839SOL    MW4 3429   2.032   3.101   1.613  0.4652  0.0093  0.2286
  840SOL     OW 3430   1.771   3.232   1.513 -0.2448  0.3425 -0.4167
  840SOL    HW2 3431   1.766   3.325   1.535 -0.6992  0.2364 -0.0540
  840SOL    HW3 3432   1.853   3.202   1.554 -0.5779  0.3719  0.2709
  840SOL    MW4 3433   1.781   3.240   1.522 -0.3487  0.3324 -0.2781
  841SOL     OW 3434   1.765   3.498   1.607 -0.0436 -0.1081 -0.3059
  841SOL    HW2 3435   1.776   3.516   1.700 -1.1013  1.6376 -0.5091
  841SOL    HW3 3436   1.703   3.564   1.576 -1.4866 -2.1084 -1.7794
  841SOL    MW4 3437   1.758   3.509   1.615 -0.3735 -0.1416 -0.5270
  842SOL     OW 3438   1.976   3.612   1.473  0.9076 -0.1321 -0.3763
  842SOL    HW2 3439   2.048   3.589   1.531 -0.0653 -2.2654 -0.0043
  842SOL    HW3 3440   1.898   3.579   1.517 -0.1323  0.7181 -1.5613
  842SOL    MW4 3441   1.975   3.605   1.486  0.6419 -0.3016 -0.4836
  843SOL     OW 3442   2.020   3.868   1.572 -0.1301 -0.2845 -0.6811
  843SOL    HW2 3443   2.095   3.920   1.543  0.3191  0.2746  1.3544
  843SOL    HW3 3444   2.018   3.793   1.513  1.1437  0.4535 -1.6843
  843SOL    MW4 3445   2.030   3.865   1.561  0.0973 -0.1132 -0.5449
  844SOL     OW 3446   1.833   4.029   1.454  0.1962  0.2584 -0.3117
  844SOL    HW2 3447   1.903   3.982   1.499 -1.0240 -1.1510  0.1686
  844SOL    HW3 3448   1.752   3.992   1.490 -0.8067  1.6106 -1.0968
  844SOL    MW4 3449   1.832   4.018   1.465 -0.0970  0.2508 -0.3520
  845SOL     OW 3450   1.802   4.289   1.607  0.5086 -0.4896  0.2301
  845SOL    HW2 3451   1.866   4.343   1.561  0.0014 -1.5394 -1.7514
  845SOL    HW3 3452   1.815   4.201   1.572 -0.9631 -1.0114  0.9520
  845SOL    MW4 3453   1.812   4.284   1.597  0.2475 -0.6971  0.0639
  846SOL     OW 3454   2.014   4.444   1.476  0.1549  0.0655 -0.0498
  846SOL    HW2 3455   2.087   4.396   1.515 -0.8260 -0.5052  1.1086
  846SOL    HW3 3456   2.026   4.534   1.507  0.9495  0.2045 -0.7266
  846SOL    MW4 3457   2.025   4.450   1.485  0.1304  0.0086  0.0137
  847SOL     OW 3458   2.543   4.650   1.591  0.2487 -0.4897 -0.0966
  847SOL    HW2 3459   2.549   4.663   1.686 -0.1991 -1.2862  0.0492
  847SOL    HW3 3460   2.466   4.700   1.565  0.3780 -0.2614 -0.0370
  847SOL    MW4 3461   2.534   4.658   1.600  0.2065 -0.5647 -0.0695
  848SOL     OW 3462   2.314   0.128   1.498 -0.2443 -0.9673  0.0554
  848SOL    HW2 3463   2.226   0.114   1.534 -0.4286 -0.3902 -0.1647
  848SOL    HW3 3464   2.301   0.130   1.403  0.0231 -0.9982  0.0175
  848SOL    MW4 3465   2.301   0.126   1.491 -0.2334 -0.8953  0.0213
  849SOL     OW 3466   2.314   0.402   1.621 -0.1929 -0.2016  0.2102
  849SOL    HW2 3467   2.308   0.367   1.710 -2.8944  0.3121  0.2498
  849SOL    HW3 3468   2.327   0.325   1.567  2.0304 -0.4757  1.0540
  849SOL    MW4 3469   2.315   0.387   1.626 -0.2561 -0.1699  0.3269
  850SOL     OW 3470   2.522   0.535   1.458 -0.0652  0.3313  0.1009
  850SOL    HW2 3471   2.609   0.499   1.472  0.0828  0.7944  0.3603
  850SOL    HW3 3472   2.465   0.482   1.514  0.3025  1.1595  1.2760
  850SOL    MW4 3473   2.526   0.523   1.467  0.0026  0.5016  0.2903
  851SOL     OW 3474   2.514   0.786   1.567 -0.2279  0.3018 -0.3594
  851SOL    HW2 3475   2.426   0.812   1.540 -1.0719  0.1082  2.1406
  851SOL    HW3 3476   2.530   0.705   1.518 -2.3404 -0.8771  0.8210
  851SOL    MW4 3477   2.505   0.778   1.557 -0.6180  0.1206  0.1261
  852SOL     OW 3478   2.285   0.906   1.507  0.6350 -0.6037 -0.2007
  852SOL    HW2 3479   2.290   0.993   1.546  1.0479 -1.2537  1.2573
  852SOL    HW3 3480   2.299   0.920   1.413 -0.1716  0.9812 -0.0970
  852SOL    MW4 3481   2.288   0.919   1.500  0.5827 -0.4804  0.0054
  853SOL     OW 3482   2.292   1.164   1.599  0.1185  0.0486 -0.2478
  853SOL    HW2 3483   2.282   1.141   1.691  1.4609  1.4311  0.2557
  853SOL    HW3 3484   2.216   1.219   1.580  0.2083  0.3314  0.2182
  853SOL    MW4 3485   2.280   1.168   1.608  0.3076  0.2683 -0.1200
  854SOL     OW 3486   2.496   1.357   1.507  0.1945 -0.6382  0.0121
  854SOL    HW2 3487   2.428   1.300   1.542 -0.9479 -0.3993 -1.7369
  854SOL    HW3 3488   2.502   1.333   1.414  1.4669  0.3533 -0.1804
  854SOL    MW4 3489   2.488   1.347   1.499  0.2117 -0.4756 -0.2440
  855SOL     OW 3490   2.520   1.611   1.599  0.2163 -0.4006  0.5834
  855SOL    HW2 3491   2.592   1.660   1.559 -0.8891  0.5583 -0.2813
  855SOL    HW3 3492   2.520   1.527   1.554 -0.8716  0.5881 -1.3270
  855SOL    MW4 3493   2.530   1.607   1.588 -0.0732 -0.1438  0.2172
  856SOL     OW 3494   2.267   1.689   1.528 -0.1313  0.7158 -0.3607
  856SOL    HW2 3495   2.354   1.659   1.556 -1.2545 -1.5112  0.8313
  856SOL    HW3 3496   2.268   1.677   1.433  0.7024  0.3115 -0.3114
  856SOL    MW4 3497   2.279   1.684   1.519 -0.1693  0.3686 -0.1969
  857SOL     OW 3498   2.253   1.950   1.589  0.1054 -0.1016 -0.1215
  857SOL    HW2 3499   2.267   1.945   1.684  1.5165  0.7102 -0.2822
  857SOL    HW3 3500   2.265   1.860   1.558  2.4103  0.0996  0.1073
  857SOL    MW4 3501   2.256   1.938   1.598  0.5956  0.0321 -0.1125
  858SOL     OW 3502   2.475   2.104   1.516 -0.1823  0.1111  0.1761
  858SOL    HW2 3503   2.399   2.057   1.551 -0.5744  1.0734  0.6347
  858SOL    HW3 3504   2.483   2.072   1.426 -1.3114  0.2084  0.0326
  858SOL    MW4 3505   2.466   2.094   1.509 -0.3829  0.2508  0.2177
  859SOL     OW 3506   2.489   2.348   1.620  0.4409  0.1213  0.3978
  859SOL    HW2 3507   2.512   2.331   1.712  0.1420 -0.0998  0.4325
  859SOL    HW3 3508   2.486   2.261   1.581 -2.1102  0.0058  0.8085
  859SOL    MW4 3509   2.492   2.334   1.627  0.0651  0.0770  0.4567
  860SOL     OW 3510   2.275   2.471   1.508 -0.2397 -0.3264 -0.3456
  860SOL    HW2 3511   2.343   2.412   1.540  0.2077  1.0863  1.4454
  860SOL    HW3 3512   2.193   2.432   1.539 -0.1458 -1.3057 -1.3169
  860SOL    MW4 3513   2.273   2.458   1.517 -0.1683 -0.2692 -0.2373
  861SOL     OW 3514   2.227   2.700   1.666 -0.1875  0.0012 -0.0234
  861SOL    HW2 3515   2.246   2.625   1.609  0.9586 -0.8831  1.4799
  861SOL    HW3 3516   2.156   2.746   1.622  0.6897 -0.6463 -2.1757
  861SOL    MW4 3517   2.220   2.696   1.653  0.0796 -0.2007 -0.1091
  862SOL     OW 3518   2.464   2.849   1.533  0.0548 -0.2085 -0.5218
  862SOL    HW2 3519   2.470   2.937   1.569  1.6231 -0.6811  0.4423
  862SOL    HW3 3520   2.377   2.818   1.561 -0.2397  0.7814 -0.3135
  862SOL    MW4 3521   2.453   2.856   1.542  0.2227 -0.1404 -0.3670
  863SOL     OW 3522   2.481   3.112   1.609 -0.2153 -0.3515  0.0158
  863SOL    HW2 3523   2.556   3.163   1.578 -0.4780  0.7395  1.1660
  863SOL    HW3 3524   2.410   3.136   1.550  0.0758 -0.6213 -0.4496
  863SOL    MW4 3525   2.482   3.122   1.597 -0.2115 -0.2429  0.1062
  864SOL     OW 3526   2.249   3.228   1.476 -0.2652  0.6817  0.1983
  864SOL    HW2 3527   2.253   3.318   1.508  0.8778  0.8627 -0.4314
  864SOL    HW3 3528   2.253   3.235   1.381  2.4034 -0.1126  0.1938
  864SOL    MW4 3529   2.250   3.241   1.468  0.2377  0.6008  0.1146
  865SOL     OW 3530   2.234   3.506   1.588  0.2127 -0.3555 -0.5144
  865SOL    HW2 3531   2.245   3.500   1.683 -0.0279  0.8446 -0.4065
  865SOL    HW3 3532   2.314   3.547   1.556 -0.2989  0.5348 -0.6676
  865SOL    MW4 3533   2.246   3.511   1.596  0.1135 -0.0796 -0.5205
  866SOL     OW 3534   2.458   3.634   1.515  0.2190 -0.5430 -0.2900
  866SOL    HW2 3535   2.533   3.598   1.561  0.0096 -0.9569 -0.2693
  866SOL    HW3 3536   2.468   3.729   1.523  0.2495 -0.6096  0.4973
  866SOL    MW4 3537   2.469   3.642   1.522  0.1955 -0.6065 -0.1833
  867SOL     OW 3538   2.461   3.907   1.565 -0.0052 -0.0215  0.0178
  867SOL    HW2 3539   2.467   3.918   1.660  0.3831 -2.0395  0.2572
  867SOL    HW3 3540   2.542   3.945   1.531  0.0125  0.3948  0.5210
  867SOL    MW4 3541   2.473   3.913   1.573  0.0486 -0.2329  0.1158
  868SOL     OW 3542   2.227   4.030   1.470  0.2936 -0.3807 -0.1387
  868SOL    HW2 3543   2.312   3.997   1.499  1.5597  0.8766 -2.1904
  868SOL    HW3 3544   2.238   4.041   1.375 -2.0594  0.1175 -0.3722
  868SOL    MW4 3545   2.240   4.027   1.461  0.1502 -0.1493 -0.4402
  869SOL     OW 3546   2.226   4.319   1.583 -0.4354  0.1781 -0.1737
  869SOL    HW2 3547   2.310   4.362   1.563  0.3448 -0.8165  0.8996
  869SOL    HW3 3548   2.236   4.230   1.548 -0.9404 -0.0336  0.2152
  869SOL    MW4 3549   2.239   4.313   1.575 -0.3991  0.0186  0.0192
  870SOL     OW 3550   2.466   4.413   1.513 -0.1887  0.0660 -0.0960
  870SOL    HW2 3551   2.491   4.492   1.562 -1.9404 -0.7710  2.2696
  870SOL    HW3 3552   2.480   4.436   1.421 -0.5687  3.0877  0.5484
  870SOL    MW4 3553   2.471   4.427   1.508 -0.4702  0.3543  0.3011
  871SOL     OW 3554   2.980   4.605   1.620  0.2485 -0.2002  0.3194
  871SOL    HW2 3555   2.946   4.581   1.707 -2.7643 -0.4933 -0.8798
  871SOL    HW3 3556   2.922   4.674   1.590  1.8225  0.5294 -1.1093
  871SOL    MW4 3557   2.967   4.611   1.628  0.0587 -0.1426 -0.0273
  872SOL     OW 3558   2.791   0.097   1.522  0.4391  0.5255  0.5123
  872SOL    HW2 3559   2.781   0.188   1.550 -1.5709  0.5161 -0.1238
  872SOL    HW3 3560   2.712   0.053   1.554 -0.1624 -0.2747 -2.0133
  872SOL    MW4 3561   2.780   0.103   1.530  0.0947  0.4187  0.0952
  873SOL     OW 3562   2.753   0.381   1.559 -0.0449 -0.0229 -0.0811
  873SOL    HW2 3563   2.747   0.394   1.654  1.5034 -0.1597  0.0406
  873SOL    HW3 3564   2.828   0.434   1.532 -0.3818 -0.1076 -1.2084
  873SOL    MW4 3565   2.762   0.390   1.568  0.1149 -0.0521 -0.2139
  874SOL     OW 3566   2.964   0.539   1.468 -0.2811 -0.2484 -0.1489
  874SOL    HW2 3567   2.968   0.619   1.521  1.6522 -0.2667 -0.2413
  874SOL    HW3 3568   2.985   0.568   1.379  0.0675 -0.7932 -0.2459
  874SOL    MW4 3569   2.967   0.554   1.463  0.0198 -0.3228 -0.1739
  875SOL     OW 3570   2.939   0.787   1.612  0.1812 -0.3393  0.0728
  875SOL    HW2 3571   2.930   0.789   1.707  0.9260 -0.9701  0.1585
  875SOL    HW3 3572   2.869   0.843   1.580  0.3865  0.4756  1.0278
  875SOL    MW4 3573   2.929   0.795   1.620  0.3066 -0.3150  0.2100
  876SOL     OW 3574   2.718   0.947   1.484 -0.4118 -0.6700 -0.1513
  876SOL    HW2 3575   2.640   0.896   1.507  0.0922 -1.1277  0.5738
  876SOL    HW3 3576   2.726   0.937   1.389 -2.0177  0.5150 -0.4230
  876SOL    MW4 3577   2.709   0.939   1.475 -0.5569 -0.5741 -0.0916
  877SOL     OW 3578   2.737   1.213   1.579 -0.6219 -0.2687 -0.3468
  877SOL    HW2 3579   2.725   1.134   1.527 -1.1638 -0.4978  0.1230
  877SOL    HW3 3580   2.657   1.263   1.565  0.3177  0.8824 -1.8039
  877SOL    MW4 3581   2.725   1.210   1.570 -0.5696 -0.1471 -0.4772
  878SOL     OW 3582   2.960   1.321   1.466 -0.5465 -0.4538  0.6699
  878SOL    HW2 3583   3.036   1.273   1.499 -0.0009  0.7498  1.1848
  878SOL    HW3 3584   2.886   1.283   1.513  0.0015 -0.0988  1.8328
  878SOL    MW4 3585   2.960   1.309   1.477 -0.4025 -0.2482  0.8911
  879SOL     OW 3586   2.967   1.595   1.621 -0.0248 -0.0588  0.0702
  879SOL    HW2 3587   2.898   1.654   1.591  0.9408  0.3398 -1.3969
  879SOL    HW3 3588   2.948   1.512   1.578 -0.1028 -0.2013  0.3784
  879SOL    MW4 3589   2.955   1.592   1.612  0.0925 -0.0250 -0.0825
  880SOL     OW 3590   2.748   1.710   1.458 -0.0508  0.0165  0.0038
  880SOL    HW2 3591   2.720   1.795   1.492 -0.7387 -0.1035 -0.2590
  880SOL    HW3 3592   2.722   1.712   1.366  0.1306 -0.3946 -0.0547
  880SOL    MW4 3593   2.741   1.721   1.450 -0.1175 -0.0535 -0.0386
  881SOL     OW 3594   2.692   1.936   1.576 -0.0293 -0.8718  0.0381
  881SOL    HW2 3595   2.707   1.951   1.669  0.4169 -1.6783  0.0947
  881SOL    HW3 3596   2.610   1.982   1.558  1.1072  1.3185  0.2961
  881SOL    MW4 3597   2.683   1.944   1.586  0.1795 -0.6893  0.0795
  882SOL     OW 3598   2.939   2.058   1.457  0.3010 -0.3725  0.7665
  882SOL    HW2 3599   2.942   2.141   1.504 -2.2755  0.5799 -0.6583
  882SOL    HW3 3600   2.863   2.013   1.492  0.2138 -1.0184 -0.2238
  882SOL    MW4 3601   2.929   2.063   1.468 -0.0508 -0.3321  0.4478
  883SOL     OW 3602   2.972   2.314   1.561  0.0832 -0.0741 -0.2653
  883SOL    HW2 3603   2.987   2.308   1.656 -1.1245 -0.2826 -0.0772
  883SOL    HW3 3604   2.893   2.367   1.553  0.2331  0.0109 -1.1667
  883SOL    MW4 3605   2.964   2.320   1.573 -0.0563 -0.0904 -0.3594
  884SOL     OW 3606   2.739   2.457   1.517 -0.3388  0.0231  0.0024
  884SOL    HW2 3607   2.734   2.551   1.532  0.9445  0.2212 -0.6877
  884SOL    HW3 3608   2.654   2.423   1.545 -0.0843  1.1087  2.1801
  884SOL    MW4 3609   2.727   2.465   1.523 -0.1359  0.1924  0.1987
  885SOL     OW 3610   2.715   2.734   1.592 -0.2033 -0.2082 -0.3730
  885SOL    HW2 3611   2.778   2.794   1.552 -0.1171 -0.7081 -1.0037
  885SOL    HW3 3612   2.630   2.775   1.577  0.0713  1.1630  1.7222
  885SOL    MW4 3613   2.712   2.747   1.585 -0.1557 -0.0935 -0.1798
  886SOL     OW 3614   2.918   2.877   1.468  0.0689  0.0141  0.3197
  886SOL    HW2 3615   2.993   2.836   1.511  1.6491  1.5513 -0.8805
  886SOL    HW3 3616   2.919   2.968   1.499 -0.5711  0.3683 -0.6582
  886SOL    MW4 3617   2.928   2.883   1.478  0.1931  0.2637  0.0324
  887SOL     OW 3618   2.930   3.135   1.573 -0.2063  0.2736 -0.4178
  887SOL    HW2 3619   2.941   3.126   1.668  0.7916 -3.3061 -0.8062
  887SOL    HW3 3620   3.011   3.178   1.544  0.0149  0.2751  0.1835
  887SOL    MW4 3621   2.942   3.140   1.582 -0.0453 -0.1984 -0.3898
  888SOL     OW 3622   2.695   3.245   1.485  0.0344 -0.1442  0.3050
  888SOL    HW2 3623   2.768   3.194   1.521 -0.6485 -1.8025 -0.6091
  888SOL    HW3 3624   2.716   3.254   1.392  0.2763  1.5063  0.5006
  888SOL    MW4 3625   2.708   3.240   1.478 -0.0238 -0.1452  0.2104
  889SOL     OW 3626   2.682   3.493   1.589  0.0299  0.0959  0.7291
  889SOL    HW2 3627   2.683   3.489   1.684  0.3107  0.6042  0.7522
  889SOL    HW3 3628   2.689   3.402   1.560 -0.6021 -0.1015  1.1937
  889SOL    MW4 3629   2.683   3.481   1.598 -0.0167  0.1366  0.7935
  890SOL     OW 3630   2.934   3.642   1.510 -0.4474 -0.3988 -0.2981
  890SOL    HW2 3631   2.850   3.600   1.524 -0.9675  0.4699 -0.7851
  890SOL    HW3 3632   2.937   3.658   1.416 -0.2395  0.6442 -0.1120
  890SOL    MW4 3633   2.924   3.638   1.499 -0.4885 -0.1469 -0.3377
  891SOL     OW 3634   2.959   3.897   1.598  0.0742 -0.1716 -0.1502
  891SOL    HW2 3635   2.884   3.945   1.563  1.3205  1.1370 -1.1079
  891SOL    HW3 3636   2.945   3.806   1.570 -1.7586 -0.1911  0.7502
  891SOL    MW4 3637   2.947   3.891   1.590 -0.0036 -0.0014 -0.1576
  892SOL     OW 3638   2.712   4.015   1.494 -0.2984  0.3183 -0.1941
  892SOL    HW2 3639   2.706   4.094   1.548  0.4615  0.7890 -0.7827
  892SOL    HW3 3640   2.721   4.048   1.405  1.2638 -0.3938 -0.3206
  892SOL    MW4 3641   2.713   4.030   1.490  0.0076  0.2861 -0.2884
  893SOL     OW 3642   2.695   4.262   1.602  0.7121  0.5219 -0.2594
  893SOL    HW2 3643   2.766   4.304   1.553  1.2548  0.3911  0.4024
  893SOL    HW3 3644   2.615   4.298   1.564  1.1521  1.3695 -0.4021
  893SOL    MW4 3645   2.694   4.272   1.590  0.8419  0.6166 -0.1911
  894SOL     OW 3646   2.921   4.377   1.488  0.4021 -0.0351  0.2703
  894SOL    HW2 3647   2.948   4.458   1.532  0.8239 -0.2981  0.5049
  894SOL    HW3 3648   2.951   4.388   1.398 -0.4798  0.5115  0.0363
  894SOL    MW4 3649   2.929   4.389   1.482  0.3414  0.0019  0.2702
  895SOL     OW 3650   3.445   4.634   1.640 -0.7040  0.3949  0.0735
  895SOL    HW2 3651   3.512   4.673   1.585  1.7452 -0.6947  2.1890
  895SOL    HW3 3652   3.421   4.553   1.596 -0.7028  0.8281 -0.7343
  895SOL    MW4 3653   3.451   4.629   1.627 -0.3803  0.3085  0.2462
  896SOL     OW 3654   3.205   0.103   1.576  0.0027 -0.2524  0.1986
  896SOL    HW2 3655   3.289   0.061   1.596  0.1639 -1.0575 -2.0310
  896SOL    HW3 3656   3.140   0.049   1.622  0.6091 -0.1736  1.1654
  896SOL    MW4 3657   3.208   0.090   1.585  0.1040 -0.3482  0.0319
  897SOL     OW 3658   3.190   0.384   1.607 -0.1769  0.1896 -0.5378
  897SOL    HW2 3659   3.194   0.289   1.608 -1.3436  0.1403  1.5740
  897SOL    HW3 3660   3.110   0.404   1.560 -0.4375  0.0985 -0.1354
  897SOL    MW4 3661   3.180   0.374   1.601 -0.3650  0.1711 -0.2061
  898SOL     OW 3662   3.398   0.518   1.510  0.2275 -0.0767  0.2677
  898SOL    HW2 3663   3.320   0.472   1.538 -0.1606  0.6338  0.3735
  898SOL    HW3 3664   3.392   0.521   1.415  0.0616  0.0869  0.2832
  898SOL    MW4 3665   3.387   0.512   1.501  0.1543  0.0387  0.2837
  899SOL     OW 3666   3.344   0.766   1.603 -0.3497  0.5537 -0.1092
  899SOL    HW2 3667   3.343   0.763   1.699 -1.3412  0.5769 -0.1216
  899SOL    HW3 3668   3.361   0.675   1.577  2.9121  1.0324  0.1213
  899SOL    MW4 3669   3.346   0.753   1.612 -0.0501  0.6199 -0.0803
  900SOL     OW 3670   3.148   0.887   1.465  0.1344 -0.4418  0.4906
  900SOL    HW2 3671   3.219   0.830   1.497  0.9375 -0.0513 -0.5674
  900SOL    HW3 3672   3.070   0.853   1.508  0.7096 -1.9145  0.4301
  900SOL    MW4 3673   3.147   0.875   1.475  0.3161 -0.5846  0.3431
  901SOL     OW 3674   3.147   1.158   1.563  0.5859 -0.5605 -0.2594
  901SOL    HW2 3675   3.137   1.161   1.658 -0.0549 -0.8781 -0.3155
  901SOL    HW3 3676   3.131   1.066   1.540 -0.2640 -0.2875 -0.7810
  901SOL    MW4 3677   3.144   1.146   1.573  0.3891 -0.5664 -0.3358
  902SOL     OW 3678   3.394   1.278   1.509  0.4974  0.0315 -0.0995
  902SOL    HW2 3679   3.459   1.214   1.537  0.4168 -0.2066 -0.4483
  902SOL    HW3 3680   3.310   1.237   1.530  0.4502  0.1408 -0.0733
  902SOL    MW4 3681   3.391   1.264   1.516  0.4804  0.0145 -0.1421
  903SOL     OW 3682   3.409   1.546   1.567 -0.2681 -0.1927 -0.0086
  903SOL    HW2 3683   3.421   1.559   1.661 -0.3268  1.0016 -0.1538
  903SOL    HW3 3684   3.405   1.451   1.556  0.7614 -0.3683  1.0646
  903SOL    MW4 3685   3.410   1.536   1.578 -0.1400 -0.0582  0.1138
  904SOL     OW 3686   3.164   1.656   1.458 -0.0939  0.4397 -0.1419
  904SOL    HW2 3687   3.244   1.625   1.500  0.0252 -0.5948 -1.1096
  904SOL    HW3 3688   3.094   1.631   1.517  0.1869  0.1348  0.0622
  904SOL    MW4 3689   3.166   1.649   1.471 -0.0412  0.2631 -0.2427
  905SOL     OW 3690   3.178   1.933   1.590 -0.0019 -0.0232  0.3153
  905SOL    HW2 3691   3.181   1.845   1.553 -0.1612 -0.5055  1.4323
  905SOL    HW3 3692   3.101   1.973   1.550 -0.6803 -0.8373  0.8061
  905SOL    MW4 3693   3.168   1.927   1.580 -0.1123 -0.1943  0.5273
  906SOL     OW 3694   3.377   2.090   1.448  0.4680 -0.0518 -0.4016
  906SOL    HW2 3695   3.306   2.032   1.475  0.6091 -0.6149 -1.2048
  906SOL    HW3 3696   3.373   2.090   1.352  0.2033  1.6069 -0.4135
  906SOL    MW4 3697   3.367   2.083   1.439  0.4516  0.0930 -0.5093
  907SOL     OW 3698   3.412   2.339   1.577  0.2690 -0.2351  0.5614
  907SOL    HW2 3699   3.488   2.380   1.535  0.6261 -0.2558  1.1845
  907SOL    HW3 3700   3.399   2.258   1.529  0.5012 -0.1220  0.3042
  907SOL    MW4 3701   3.421   2.334   1.565  0.3464 -0.2229  0.6096
  908SOL     OW 3702   3.178   2.477   1.500  0.2442 -0.6711 -0.6066
  908SOL    HW2 3703   3.247   2.439   1.554  1.1690 -0.7469 -1.8214
  908SOL    HW3 3704   3.102   2.420   1.514  0.0771  0.0018  1.5486
  908SOL    MW4 3705   3.177   2.465   1.509  0.3443 -0.5922 -0.4826
  909SOL     OW 3706   3.166   2.742   1.566 -0.1157  0.1506 -0.6248
  909SOL    HW2 3707   3.250   2.765   1.527 -0.1132 -2.2795 -2.1517
  909SOL    HW3 3708   3.156   2.649   1.549 -0.4430 -0.9429  4.6035
  909SOL    MW4 3709   3.176   2.733   1.559 -0.1583 -0.3142 -0.1365
  910SOL     OW 3710   3.393   2.855   1.466 -0.4741  0.2990 -0.2279
  910SOL    HW2 3711   3.399   2.943   1.501 -3.3224  1.2257 -1.8836
  910SOL    HW3 3712   3.402   2.865   1.371 -0.6980 -1.1950 -0.4334
  910SOL    MW4 3713   3.395   2.868   1.458 -0.8793  0.2239 -0.4733
  911SOL     OW 3714   3.366   3.121   1.544 -0.1660 -0.1936 -0.5853
  911SOL    HW2 3715   3.373   3.118   1.640 -1.4132  0.4491 -0.4633
  911SOL    HW3 3716   3.447   3.163   1.515 -0.2789  0.6169  0.2626
  911SOL    MW4 3717   3.378   3.126   1.553 -0.3455 -0.0019 -0.4574
  912SOL     OW 3718   3.154   3.280   1.478 -0.0209 -0.2342  0.2544
  912SOL    HW2 3719   3.220   3.220   1.513  0.6320 -1.0412 -2.2529
  912SOL    HW3 3720   3.183   3.298   1.389 -2.2816  0.7782 -0.3111
  912SOL    MW4 3721   3.166   3.274   1.471 -0.2332 -0.2072 -0.1510
  913SOL     OW 3722   3.153   3.508   1.619  0.2436 -0.3789  0.0033
  913SOL    HW2 3723   3.146   3.420   1.582 -1.0799 -0.0296 -0.5986
  913SOL    HW3 3724   3.074   3.553   1.590  0.9401  1.0403  0.2468
  913SOL    MW4 3725   3.142   3.503   1.611  0.1607 -0.1457 -0.0440
  914SOL     OW 3726   3.376   3.580   1.453  0.0035  0.2927  0.3955
  914SOL    HW2 3727   3.461   3.550   1.483 -0.2555 -1.0292 -0.1599
  914SOL    HW3 3728   3.313   3.543   1.515 -0.4525 -1.6962 -1.2090
  914SOL    MW4 3729   3.379   3.571   1.465 -0.0908 -0.1440  0.1105
  915SOL     OW 3730   3.360   3.855   1.563  0.2900 -0.3265 -0.1132
  915SOL    HW2 3731   3.296   3.908   1.515  1.3909  0.6346 -0.5647
  915SOL    HW3 3732   3.347   3.766   1.530 -1.0700 -0.2179  0.0979
  915SOL    MW4 3733   3.350   3.850   1.552  0.2556 -0.1853 -0.1448
  916SOL     OW 3734   3.157   4.027   1.468  0.1711  0.0081  0.0111
  916SOL    HW2 3735   3.159   4.107   1.521 -1.2727  0.7260 -1.0157
  916SOL    HW3 3736   3.089   3.973   1.508  0.6405 -0.4213  0.2501
  916SOL    MW4 3737   3.148   4.030   1.480  0.0424  0.0458 -0.0927
  917SOL     OW 3738   3.156   4.288   1.610 -0.0674  0.2201 -0.2479
  917SOL    HW2 3739   3.156   4.290   1.705  0.6652 -0.1351 -0.2394
  917SOL    HW3 3740   3.064   4.296   1.586 -0.2139  0.7261  0.4781
  917SOL    MW4 3741   3.144   4.289   1.619  0.0098  0.2398 -0.1509
  918SOL     OW 3742   3.376   4.423   1.485 -0.1097 -0.4276 -0.0494
  918SOL    HW2 3743   3.295   4.391   1.525  0.8874 -1.3802  1.2687
  918SOL    HW3 3744   3.367   4.402   1.392 -1.3989 -0.4729  0.0743
  918SOL    MW4 3745   3.364   4.416   1.478 -0.1485 -0.5589  0.1409
  919SOL     OW 3746   3.846   4.654   1.612  0.3400  0.5978  0.4667
  919SOL    HW2 3747   3.837   4.669   1.706 -2.4865  1.4435  0.1300
  919SOL    HW3 3748   3.913   4.715   1.583 -0.8305  2.4199  1.4949
  919SOL    MW4 3749   3.853   4.664   1.621 -0.1874  0.9494  0.5580
  920SOL     OW 3750   3.625   0.114   1.498 -0.1201  0.9006 -0.4864
  920SOL    HW2 3751   3.703   0.065   1.524 -1.2076  0.1111  1.3767
  920SOL    HW3 3752   3.621   0.103   1.403 -0.7326 -3.3798 -0.0986
  920SOL    MW4 3753   3.634   0.106   1.489 -0.3445  0.2317 -0.1894
  921SOL     OW 3754   3.598   0.363   1.598  0.2430 -0.3094 -0.3267
  921SOL    HW2 3755   3.597   0.274   1.561 -1.2934 -1.2579  1.8583
  921SOL    HW3 3756   3.517   0.402   1.567  0.0544 -0.3003  0.1833
  921SOL    MW4 3757   3.587   0.356   1.589  0.0155 -0.4334  0.0288
  922SOL     OW 3758   3.830   0.483   1.503 -0.0266  0.5728  0.1222
  922SOL    HW2 3759   3.766   0.419   1.534  1.8573 -1.4426  0.0241
  922SOL    HW3 3760   3.815   0.487   1.409 -1.1476  1.4224  0.3322
  922SOL    MW4 3761   3.820   0.475   1.495  0.0739  0.4190  0.1370
  923SOL     OW 3762   3.813   0.733   1.630  0.1780 -0.2789  0.2548
  923SOL    HW2 3763   3.735   0.764   1.583  0.6060  0.1881 -0.1517
  923SOL    HW3 3764   3.828   0.645   1.596 -0.2898 -0.4483  0.4809
  923SOL    MW4 3765   3.804   0.726   1.619  0.1731 -0.2396  0.2310
  924SOL     OW 3766   3.590   0.845   1.506  0.4246 -0.4290  0.6780
  924SOL    HW2 3767   3.508   0.822   1.549  0.4086 -2.2493 -0.2996
  924SOL    HW3 3768   3.575   0.824   1.414  2.2360 -1.4933  0.6077
  924SOL    MW4 3769   3.577   0.839   1.500  0.6616 -0.8096  0.5397
  925SOL     OW 3770   3.597   1.098   1.609  0.2454 -0.3561  0.2813
  925SOL    HW2 3771   3.671   1.143   1.568 -0.0887  0.4727  0.5613
  925SOL    HW3 3772   3.596   1.011   1.570 -0.1448  0.4635 -1.5757
  925SOL    MW4 3773   3.607   1.093   1.599  0.1497 -0.1386  0.0732
  926SOL     OW 3774   3.818   1.242   1.503  0.5558 -0.2486  0.6496
  926SOL    HW2 3775   3.898   1.209   1.544  0.8149  0.7391  0.9619
  926SOL    HW3 3776   3.822   1.336   1.517 -0.1282 -0.0738 -0.2930
  926SOL    MW4 3777   3.829   1.250   1.510  0.5000 -0.0954  0.5664
  927SOL     OW 3778   3.809   1.502   1.595  0.4620 -0.1274 -0.2073
  927SOL    HW2 3779   3.811   1.526   1.688 -0.0173  0.5946 -0.3858
  927SOL    HW3 3780   3.740   1.556   1.557  0.1287 -0.9752 -0.8332
  927SOL    MW4 3781   3.800   1.512   1.603  0.3548 -0.1440 -0.3133
  928SOL     OW 3782   3.619   1.671   1.446 -0.0535  0.2758  0.3253
  928SOL    HW2 3783   3.547   1.628   1.492 -1.1589  2.5715  0.7944
  928SOL    HW3 3784   3.588   1.681   1.356  0.8433 -1.2910 -0.1918
  928SOL    MW4 3785   3.605   1.667   1.440 -0.0811  0.3719  0.3190
  929SOL     OW 3786   3.616   1.964   1.542 -0.1272  0.0578 -0.1474
  929SOL    HW2 3787   3.616   1.877   1.503 -1.7845 -0.0195 -0.0061
  929SOL    HW3 3788   3.537   2.006   1.508 -0.0217  1.0441  0.7834
  929SOL    MW4 3789   3.606   1.958   1.532 -0.3321  0.1779 -0.0060
  930SOL     OW 3790   3.871   2.080   1.491 -0.3614 -0.4146 -0.0053
  930SOL    HW2 3791   3.866   2.171   1.520  0.6615 -0.0819 -0.8707
  930SOL    HW3 3792   3.781   2.047   1.502 -0.3532  0.1611  1.9953
  930SOL    MW4 3793   3.858   2.087   1.496 -0.2253 -0.2949  0.1445
  931SOL     OW 3794   3.835   2.350   1.567  0.0214 -0.1388  0.1475
  931SOL    HW2 3795   3.835   2.344   1.663  0.6842 -0.9799  0.1039
  931SOL    HW3 3796   3.920   2.390   1.546  0.8296 -1.9621 -0.1800
  931SOL    MW4 3797   3.846   2.355   1.577  0.2155 -0.4900  0.0985
  932SOL     OW 3798   3.604   2.475   1.431  0.0658  0.0709 -0.2354
  932SOL    HW2 3799   3.609   2.563   1.467  1.2584 -0.0497 -0.1011
  932SOL    HW3 3800   3.686   2.434   1.455  0.7534 -0.1272 -2.7786
  932SOL    MW4 3801   3.615   2.481   1.439  0.3138  0.0288 -0.5533
  933SOL     OW 3802   3.643   2.736   1.542 -0.2097 -0.0631 -0.3341
  933SOL    HW2 3803   3.656   2.748   1.636  0.0005  2.4577 -0.6477
  933SOL    HW3 3804   3.554   2.767   1.526 -0.2322 -0.4499 -0.9865
  933SOL    MW4 3805   3.633   2.741   1.553 -0.1845  0.2184 -0.4616
  934SOL     OW 3806   3.863   2.866   1.441  0.3515  0.3460 -0.3555
  934SOL    HW2 3807   3.936   2.811   1.469  0.8161  0.8003 -0.6489
  934SOL    HW3 3808   3.784   2.818   1.466  0.7422 -0.7038 -1.1030
  934SOL    MW4 3809   3.862   2.853   1.448  0.4642  0.2675 -0.4928
  935SOL     OW 3810   3.848   3.125   1.536 -0.2860 -0.1319 -0.2510
  935SOL    HW2 3811   3.928   3.172   1.511 -2.0190  1.0356 -3.8318
  935SOL    HW3 3812   3.853   3.043   1.488 -0.1372 -1.0662  1.3486
  935SOL    MW4 3813   3.859   3.121   1.527 -0.4950 -0.1011 -0.5124
  936SOL     OW 3814   3.593   3.237   1.484  0.3676  0.0996 -0.3199
  936SOL    HW2 3815   3.681   3.223   1.519 -0.2418 -1.0609  0.7646
  936SOL    HW3 3816   3.604   3.228   1.389  1.4004 -0.1334 -0.1874
  936SOL    MW4 3817   3.606   3.234   1.476  0.4234 -0.0844 -0.1594
  937SOL     OW 3818   3.598   3.500   1.592 -0.1766 -0.6191  0.5804
  937SOL    HW2 3819   3.686   3.524   1.564 -0.3505 -0.1750  0.4199
  937SOL    HW3 3820   3.586   3.411   1.558 -0.1805 -0.2904 -0.2859
  937SOL    MW4 3821   3.608   3.491   1.584 -0.1998 -0.5171  0.4449
  938SOL     OW 3822   3.833   3.613   1.494 -0.1070  0.2352 -0.5886
  938SOL    HW2 3823   3.921   3.576   1.505 -0.1400 -0.2526 -1.9668
  938SOL    HW3 3824   3.838   3.698   1.538  1.3666  0.6706 -1.5581
  938SOL    MW4 3825   3.845   3.619   1.502  0.0827  0.2279 -0.8984
  939SOL     OW 3826   3.865   3.861   1.610 -0.0160  0.0196 -0.2340
  939SOL    HW2 3827   3.936   3.895   1.555 -0.8953 -0.4125 -1.6506
  939SOL    HW3 3828   3.790   3.917   1.590  0.1008  0.9503  1.8144
  939SOL    MW4 3829   3.865   3.873   1.600 -0.1166  0.0851 -0.1508
  940SOL     OW 3830   3.629   3.985   1.550 -0.2046  0.1551 -0.9151
  940SOL    HW2 3831   3.621   4.075   1.581  0.8018 -0.2852  0.7347
  940SOL    HW3 3832   3.546   3.944   1.572 -0.3142  0.4458 -0.7884
  940SOL    MW4 3833   3.617   3.991   1.557 -0.0863  0.1357 -0.6807
  941SOL     OW 3834   3.576   4.268   1.619  0.2430  0.6696 -0.2302
  941SOL    HW2 3835   3.573   4.279   1.714  0.9560 -1.1192  0.0171
  941SOL    HW3 3836   3.504   4.322   1.586  1.0520  2.6701  1.1799
  941SOL    MW4 3837   3.566   4.277   1.627  0.4437  0.6976 -0.0114
  942SOL     OW 3838   3.793   4.388   1.511 -0.4540  0.0352 -0.1997
  942SOL    HW2 3839   3.723   4.339   1.555 -0.8902 -1.7806 -2.7875
  942SOL    HW3 3840   3.790   4.474   1.552 -3.9176 -0.1278  0.0986
  942SOL    MW4 3841   3.783   4.393   1.522 -0.9687 -0.2260 -0.5018
  943SOL     OW 3842   4.278   0.016   1.623  0.3871 -0.4461  0.1373
  943SOL    HW2 3843   4.260   0.007   1.717 -0.8912 -0.1105 -0.0671
  943SOL    HW3 3844   4.273  -0.073   1.589 -0.5922 -0.4102  0.1529
  943SOL    MW4 3845   4.275   0.003   1.631  0.0892 -0.3971  0.1123
  944SOL     OW 3846   4.051   0.130   1.531  0.4065  0.2996  0.1085
  944SOL    HW2 3847   4.067   0.223   1.549  1.0955  0.1123  0.4512
  944SOL    HW3 3848   4.133   0.086   1.552  0.2439 -0.3269 -0.5313
  944SOL    MW4 3849   4.064   0.137   1.536  0.4754  0.1922  0.0693
  945SOL     OW 3850   4.083   0.390   1.604 -0.0147 -0.3218 -0.4276
  945SOL    HW2 3851   4.084   0.408   1.698  0.8244 -1.2052 -0.2558
  945SOL    HW3 3852   4.008   0.439   1.571  0.0810  0.5274  0.5932
  945SOL    MW4 3853   4.074   0.399   1.612  0.1087 -0.3263 -0.2702
  946SOL     OW 3854   4.288   0.511   1.429 -0.2734 -0.1363  0.0373
  946SOL    HW2 3855   4.212   0.467   1.467 -1.1423  0.9945 -0.3678
  946SOL    HW3 3856   4.363   0.464   1.464 -1.1690 -1.4851  0.1704
  946SOL    MW4 3857   4.288   0.499   1.439 -0.5054 -0.1651  0.0013
  947SOL     OW 3858   4.271   0.756   1.561  0.4593  0.0914  0.1932
  947SOL    HW2 3859   4.296   0.667   1.535 -0.3837 -0.3126  0.7449
  947SOL    HW3 3860   4.347   0.809   1.539 -0.0018 -0.3299 -2.4861
  947SOL    MW4 3861   4.285   0.751   1.555  0.2875 -0.0175 -0.0875
  948SOL     OW 3862   4.012   0.887   1.526 -0.2054 -0.4005 -0.0485
  948SOL    HW2 3863   4.095   0.841   1.538  0.0079 -0.0086 -0.0105
  948SOL    HW3 3864   3.947   0.830   1.567  0.4849  0.8361  2.9358
  948SOL    MW4 3865   4.015   0.873   1.533 -0.0858 -0.1857  0.3502
  949SOL     OW 3866   4.045   1.153   1.640  0.6340  0.3504 -0.0688
  949SOL    HW2 3867   4.049   1.151   1.736  0.7755 -0.9704 -0.1038
  949SOL    HW3 3868   4.027   1.063   1.615 -1.1084  0.9810 -1.2112
  949SOL    MW4 3869   4.043   1.141   1.650  0.4230  0.2594 -0.2242
  950SOL     OW 3870   4.268   1.283   1.528 -0.1225  0.2237 -0.0995
  950SOL    HW2 3871   4.191   1.243   1.571  0.0239  0.6827  0.5988
  950SOL    HW3 3872   4.339   1.222   1.547 -0.4046 -0.4520 -1.1607
  950SOL    MW4 3873   4.267   1.270   1.536 -0.1397  0.1951 -0.1473
  951SOL     OW 3874   4.269   1.546   1.610  0.3159 -0.4482  0.5665
  951SOL    HW2 3875   4.262   1.453   1.588 -0.1197 -0.5739  1.2388
  951SOL    HW3 3876   4.350   1.574   1.567  0.7005 -1.2477  0.7583
  951SOL    MW4 3877   4.279   1.537   1.601  0.3090 -0.5702  0.6807
  952SOL     OW 3878   4.031   1.679   1.544  0.2246 -0.0547 -0.0528
  952SOL    HW2 3879   4.111   1.638   1.577 -0.7730  0.7235  3.5384
  952SOL    HW3 3880   3.966   1.608   1.545  0.0781  0.0824  0.0487
  952SOL    MW4 3881   4.033   1.664   1.548  0.0739  0.0662  0.4344
  953SOL     OW 3882   4.057   1.925   1.636  0.1863 -0.1072  0.6333
  953SOL    HW2 3883   4.050   1.835   1.605  0.5642  0.0271  0.1622
  953SOL    HW3 3884   3.979   1.969   1.601  0.9911  0.2332 -0.7728
  953SOL    MW4 3885   4.046   1.919   1.627  0.3428 -0.0445  0.3858
  954SOL     OW 3886   4.272   2.064   1.503  0.3931  0.0353  0.4202
  954SOL    HW2 3887   4.192   2.024   1.535  1.1043 -1.2688  0.6050
  954SOL    HW3 3888   4.255   2.080   1.410 -0.5510  1.0019  0.7459
  954SOL    MW4 3889   4.259   2.061   1.495  0.3624 -0.0093  0.4877
  955SOL     OW 3890   4.306   2.330   1.587  0.1422  0.2399 -0.3217
  955SOL    HW2 3891   4.311   2.329   1.682  1.1291  0.7376 -0.3655
  955SOL    HW3 3892   4.302   2.237   1.562 -0.9735  0.1357  0.2416
  955SOL    MW4 3893   4.306   2.318   1.596  0.1259  0.2921 -0.2531
  956SOL     OW 3894   4.073   2.458   1.463  0.1745  0.1184 -0.1508
  956SOL    HW2 3895   4.077   2.537   1.517  1.4486  1.6284 -2.3711
  956SOL    HW3 3896   4.151   2.408   1.488  0.8414  0.8802 -0.7093
  956SOL    MW4 3897   4.084   2.462   1.474  0.4301  0.4182 -0.5175
  957SOL     OW 3898   4.083   2.707   1.565  0.1279 -0.5503 -0.3912
  957SOL    HW2 3899   4.068   2.717   1.659 -0.5766  0.2828 -0.5860
  957SOL    HW3 3900   4.166   2.750   1.549  0.8114 -1.6809  0.0295
  957SOL    MW4 3901   4.092   2.714   1.576  0.1259 -0.5896 -0.3613
  958SOL     OW 3902   4.333   2.844   1.491  0.2878 -0.1011  0.3850
  958SOL    HW2 3903   4.340   2.939   1.495  1.9843 -0.1259 -1.0503
  958SOL    HW3 3904   4.308   2.825   1.401  0.5579 -1.0382  0.4988
  958SOL    MW4 3905   4.331   2.854   1.480  0.5474 -0.2282  0.2106
  959SOL     OW 3906   4.321   3.124   1.544  0.2393  0.4562  0.3372
  959SOL    HW2 3907   4.338   3.122   1.638 -0.4380  1.5560  0.4964
  959SOL    HW3 3908   4.392   3.177   1.507  0.9591 -0.6566  0.1250
  959SOL    MW4 3909   4.332   3.131   1.551  0.2451  0.4547  0.3303
  960SOL     OW 3910   4.091   3.229   1.440 -0.7022 -0.7939 -0.4368
  960SOL    HW2 3911   4.082   3.315   1.481 -1.2787 -0.2458 -1.6765
  960SOL    HW3 3912   4.169   3.191   1.481 -1.8475 -0.7271  1.9175
  960SOL    MW4 3913   4.100   3.235   1.451 -0.9298 -0.7126 -0.2896
  961SOL     OW 3914   4.063   3.483   1.562  0.4306  0.0303  0.0010
  961SOL    HW2 3915   4.059   3.484   1.657 -1.8866  2.8564 -0.0583
  961SOL    HW3 3916   4.139   3.538   1.541  0.7795 -0.3678  0.2256
  961SOL    MW4 3917   4.072   3.491   1.572  0.1712  0.3510  0.0228
  962SOL     OW 3918   4.286   3.612   1.480  0.3873 -0.1875  0.1189
  962SOL    HW2 3919   4.285   3.699   1.519 -2.6263 -0.1447  0.0609
  962SOL    HW3 3920   4.285   3.628   1.386 -2.1938 -0.2162  0.0993
  962SOL    MW4 3921   4.286   3.626   1.473 -0.3505 -0.1857  0.1087
  963SOL     OW 3922   4.281   3.876   1.576 -0.3679 -0.0468 -0.0599
  963SOL    HW2 3923   4.207   3.932   1.552 -0.1476  0.2635 -0.0206
  963SOL    HW3 3924   4.359   3.929   1.555 -0.1678 -0.0767  0.6106
  963SOL    MW4 3925   4.282   3.891   1.570 -0.3123 -0.0095  0.0336
  964SOL     OW 3926   4.058   4.009   1.478 -0.0677 -0.0515  0.0195
  964SOL    HW2 3927   4.045   4.102   1.499 -1.1158 -0.1584 -0.1273
  964SOL    HW3 3928   4.072   4.007   1.384 -0.2189 -0.0553 -0.0035
  964SOL    MW4 3929   4.058   4.021   1.469 -0.2260 -0.0663 -0.0029
  965SOL     OW 3930   4.034   4.256   1.593 -0.1103  0.3204 -0.0565
  965SOL    HW2 3931   4.034   4.257   1.689 -0.0140  0.8743 -0.0603
  965SOL    HW3 3932   3.958   4.309   1.569 -0.2231  0.0508 -0.2833
  965SOL    MW4 3933   4.024   4.263   1.603 -0.1125  0.3581 -0.0869
  966SOL     OW 3934   4.252   4.424   1.531  0.0425 -0.1161  0.6350
  966SOL    HW2 3935   4.168   4.379   1.544 -0.5257  1.0621  1.1735
  966SOL    HW3 3936   4.266   4.422   1.437 -1.0236  0.4134  0.4511
  966SOL    MW4 3937   4.243   4.418   1.521 -0.1726  0.1097  0.6819
  967SOL     OW 3938   0.228   4.655   1.896  0.2137 -0.4315 -0.2033
  967SOL    HW2 3939   0.303   4.704   1.929 -0.1743 -0.1548  0.2656
  967SOL    HW3 3940   0.248   4.642   1.803  0.6364  0.0234 -0.1806
  967SOL    MW4 3941   0.240   4.660   1.888  0.2183 -0.3347 -0.1385
  968SOL     OW 3942   4.481   0.133   1.965  0.3153  0.1773 -0.2217
  968SOL    HW2 3943   4.485   0.215   1.916 -0.1036  0.2478 -0.1339
  968SOL    HW3 3944   4.559   0.085   1.936  1.8933  1.6188  1.5460
  968SOL    MW4 3945   4.492   0.137   1.955  0.4678  0.3768  0.0230
  969SOL     OW 3946   0.015   0.393   1.832  0.2111 -0.5253 -0.4429
  969SOL    HW2 3947  -0.053   0.443   1.879 -0.0302  0.1357 -1.4725
  969SOL    HW3 3948   0.096   0.416   1.877 -0.1788 -0.9017  0.4621
  969SOL    MW4 3949   0.017   0.403   1.844  0.1278 -0.4877 -0.4593
  970SOL     OW 3950   0.232   0.478   2.002  0.5320 -0.3370  0.1999
  970SOL    HW2 3951   0.308   0.442   1.956 -0.8497 -0.4497 -2.0926
  970SOL    HW3 3952   0.222   0.566   1.965 -0.3938 -0.2903  0.5716
  970SOL    MW4 3953   0.241   0.485   1.991  0.2275 -0.3457 -0.0536
  971SOL     OW 3954   0.231   0.730   1.873  0.2711  0.3048  0.2877
  971SOL    HW2 3955   0.306   0.778   1.906 -0.0486  0.6948  0.4465
  971SOL    HW3 3956   0.233   0.745   1.778  1.8111 -1.6939 -0.0412
  971SOL    MW4 3957   0.241   0.738   1.865  0.4321  0.0926  0.2652
  972SOL     OW 3958   4.490   0.865   1.972 -0.8497  0.0015 -0.1172
  972SOL    HW2 3959   4.414   0.831   1.925 -0.3015 -0.6658 -0.5408
  972SOL    HW3 3960   4.563   0.810   1.943 -0.2532  0.4527  0.4920
  972SOL    MW4 3961   4.490   0.853   1.962 -0.6981 -0.0271 -0.0927
  973SOL     OW 3962   0.028   1.124   1.877  0.0008 -0.0719 -0.7606
  973SOL    HW2 3963  -0.050   1.169   1.912  0.5707  0.6334 -0.3777
  973SOL    HW3 3964   0.019   1.034   1.907  1.6575  1.0239  3.2764
  973SOL    MW4 3965   0.016   1.118   1.885  0.2946  0.1658 -0.1774
  974SOL     OW 3966   0.234   1.267   1.972 -0.0455  0.2171  0.1371
  974SOL    HW2 3967   0.228   1.358   1.942  0.4529 -0.1462 -1.0538
  974SOL    HW3 3968   0.161   1.222   1.930 -0.5468  0.1437  1.0584
  974SOL    MW4 3969   0.224   1.273   1.963 -0.0459  0.1596  0.1014
  975SOL     OW 3970   0.241   1.534   1.890  0.3012  0.2163  0.6364
  975SOL    HW2 3971   0.319   1.586   1.908  1.4240 -1.1001 -0.3641
  975SOL    HW3 3972   0.169   1.585   1.928  1.4018  2.3769 -0.1398
  975SOL    MW4 3973   0.241   1.548   1.898  0.5946  0.3277  0.4021
  976SOL     OW 3974   0.046   1.696   1.999  0.0856  0.2776  0.1886
  976SOL    HW2 3975   0.040   1.687   2.094  0.7834 -0.7628  0.1487
  976SOL    HW3 3976  -0.037   1.660   1.967  0.7254 -1.3611  0.3086
  976SOL    MW4 3977   0.034   1.690   2.008  0.2620 -0.0758  0.1991
  977SOL     OW 3978   0.041   1.955   1.893  0.0629 -0.2791 -0.4360
  977SOL    HW2 3979  -0.011   2.011   1.951  0.3247  0.3164 -0.7671
  977SOL    HW3 3980   0.028   1.866   1.926  0.1128  0.0460  0.4500
  977SOL    MW4 3981   0.032   1.951   1.905  0.1040 -0.1576 -0.3628
  978SOL     OW 3982   0.284   2.080   1.968  0.6768  0.2741  0.1263
  978SOL    HW2 3983   0.277   2.174   1.951  0.8436  0.1579 -0.5632
  978SOL    HW3 3984   0.201   2.044   1.936 -0.2071  0.4367  2.1190
  978SOL    MW4 3985   0.272   2.088   1.962  0.5822  0.2801  0.2981
  979SOL     OW 3986   0.250   2.338   1.902  0.3759 -0.0853  0.3299
  979SOL    HW2 3987   0.321   2.401   1.911  1.4823 -1.2705  0.1074
  979SOL    HW3 3988   0.178   2.374   1.953  1.1935  1.0532  0.6815
  979SOL    MW4 3989   0.250   2.351   1.910  0.6298 -0.0916  0.3469
  980SOL     OW 3990   0.020   2.436   2.013  0.2082 -0.3477 -0.1600
  980SOL    HW2 3991   0.010   2.427   2.108 -2.6599 -0.9395 -0.4412
  980SOL    HW3 3992   0.027   2.530   1.997 -1.5303 -0.0860  0.5084
  980SOL    MW4 3993   0.019   2.447   2.023 -0.4001 -0.3915 -0.1090
  981SOL     OW 3994   0.016   2.695   1.896 -0.1161  0.5139  0.4329
  981SOL    HW2 3995  -0.074   2.726   1.903 -0.2289  0.2926 -0.0295
  981SOL    HW3 3996   0.035   2.696   1.802 -0.6049 -2.1535  0.2578
  981SOL    MW4 3997   0.007   2.699   1.885 -0.1955  0.1328  0.3488
  982SOL     OW 3998   0.218   2.870   1.956 -0.1546 -0.1024 -0.2555
  982SOL    HW2 3999   0.207   2.959   1.921 -0.7193  0.3101  0.9363
  982SOL    HW3 4000   0.138   2.824   1.930  0.2276 -0.3297 -1.0479
  982SOL    MW4 4001   0.206   2.876   1.948 -0.1787 -0.0782 -0.2028
  983SOL     OW 4002   0.224   3.146   1.881  0.1910 -0.1008  0.3222
  983SOL    HW2 4003   0.311   3.177   1.903  0.3584  0.0105 -0.4793
  983SOL    HW3 4004   0.225   3.135   1.785 -1.4261  2.1914  0.0069
  983SOL    MW4 4005   0.235   3.148   1.871 -0.0003  0.2162  0.1749
  984SOL     OW 4006   4.487   3.276   1.979  0.1448 -0.3900 -0.1701
  984SOL    HW2 4007   4.425   3.214   1.938 -0.5886  0.7861 -0.8880
  984SOL    HW3 4008   4.573   3.241   1.958 -0.2597 -1.2096 -0.5021
  984SOL    MW4 4009   4.490   3.263   1.971 -0.0057 -0.3428 -0.3085
  985SOL     OW 4010   4.484   3.515   1.864 -0.3884 -0.1958  0.0972
  985SOL    HW2 4011   4.569   3.544   1.898 -1.0474  0.8987  0.8282
  985SOL    HW3 4012   4.475   3.425   1.897  1.3086 -1.0194 -1.5409
  985SOL    MW4 4013   4.494   3.507   1.873 -0.2515 -0.1600 -0.0224
  986SOL     OW 4014   0.237   3.614   2.002  0.3430  0.1569 -0.3443
  986SOL    HW2 4015   0.226   3.602   2.096 -0.0716  1.4716 -0.2165
  986SOL    HW3 4016   0.329   3.593   1.986  0.3161 -0.4636  0.2884
  986SOL    MW4 4017   0.248   3.609   2.012  0.2847  0.2484 -0.2439
  987SOL     OW 4018   0.235   3.863   1.865 -0.3589 -0.0964 -0.3057
  987SOL    HW2 4019   0.315   3.908   1.893 -0.8182  0.5497 -0.0269
  987SOL    HW3 4020   0.246   3.773   1.896  0.7097 -0.2701 -1.1537
  987SOL    MW4 4021   0.247   3.857   1.873 -0.2785 -0.0343 -0.3806
  988SOL     OW 4022   0.027   3.983   1.999 -0.2348  0.5622 -0.3826
  988SOL    HW2 4023   0.027   4.075   1.972  2.8389  0.8475  0.3854
  988SOL    HW3 4024   0.096   3.942   1.947 -0.6872 -1.0190  0.2212
  988SOL    MW4 4025   0.036   3.990   1.989  0.1110  0.3912 -0.2016
  989SOL     OW 4026   4.484   4.231   1.884  0.0653  0.5630 -0.2057
  989SOL    HW2 4027   4.415   4.294   1.904  0.1407  0.6075 -0.0884
  989SOL    HW3 4028   4.564   4.272   1.916  0.1444  0.5037 -0.3267
  989SOL    MW4 4029   4.485   4.245   1.891  0.0858  0.5612 -0.2061
  990SOL     OW 4030   0.216   4.377   1.984  0.5950 -0.0515 -0.6606
  990SOL    HW2 4031   0.216   4.378   2.080 -1.1390 -0.5292 -0.6357
  990SOL    HW3 4032   0.217   4.470   1.960  0.2857  0.0808 -0.1733
  990SOL    MW4 4033   0.216   4.390   1.994  0.3254 -0.0978 -0.5929
  991SOL     OW 4034   0.725   0.012   1.923  0.4950 -0.3214 -0.5619
  991SOL    HW2 4035   0.715  -0.078   1.955 -1.7503 -0.2622 -1.0325
  991SOL    HW3 4036   0.728   0.004   1.828 -1.0393  0.1862 -0.6721
  991SOL    MW4 4037   0.724  -0.001   1.915 -0.0037 -0.2465 -0.6385
  992SOL     OW 4038   0.470   0.131   1.976  0.2930  0.2072  0.4491
  992SOL    HW2 4039   0.466   0.220   1.940 -0.3642 -0.3325 -0.8064
  992SOL    HW3 4040   0.549   0.093   1.938  0.5726  0.2533  0.9839
  992SOL    MW4 4041   0.480   0.138   1.967  0.2431  0.1421  0.3541
  993SOL     OW 4042   0.468   0.380   1.865  0.3931 -0.1191  0.1108
  993SOL    HW2 4043   0.548   0.420   1.899  1.1662 -1.3278 -0.2674
  993SOL    HW3 4044   0.480   0.376   1.771  0.4465 -1.4962  0.1684
  993SOL    MW4 4045   0.480   0.385   1.857  0.5021 -0.4602  0.0683
  994SOL     OW 4046   0.705   0.494   1.944  0.0189  0.6009  0.6370
  994SOL    HW2 4047   0.700   0.499   2.040  1.4065 -1.3684  0.8543
  994SOL    HW3 4048   0.797   0.471   1.927  0.1023  2.2183 -1.2447
  994SOL    MW4 4049   0.717   0.492   1.954  0.2130  0.5545  0.4175
  995SOL     OW 4050   0.666   0.760   1.857 -0.3529  0.1974 -0.0491
  995SOL    HW2 4051   0.725   0.801   1.921  0.4041 -0.0607 -0.5668
  995SOL    HW3 4052   0.665   0.668   1.883  0.1994  0.0379 -0.5956
  995SOL    MW4 4053   0.674   0.753   1.869 -0.1801  0.1423 -0.1895
  996SOL     OW 4054   0.446   0.862   1.978 -0.4541 -0.8933 -0.0270
  996SOL    HW2 4055   0.445   0.957   1.963 -1.7031 -0.7038  1.1072
  996SOL    HW3 4056   0.521   0.830   1.929 -0.7499  0.5244 -1.4219
  996SOL    MW4 4057   0.456   0.870   1.970 -0.6579 -0.6813 -0.0614
  997SOL     OW 4058   0.438   1.131   1.870  0.1588  0.2810 -0.5004
  997SOL    HW2 4059   0.354   1.171   1.893  0.5376  1.3106 -0.8613
  997SOL    HW3 4060   0.443   1.140   1.774  0.4190 -0.3075 -0.5467
  997SOL    MW4 4061   0.427   1.137   1.860  0.2431  0.3393 -0.5542
  998SOL     OW 4062   0.635   1.306   1.973 -0.0420  0.2735 -0.1576
  998SOL    HW2 4063   0.630   1.305   2.069 -0.4978  1.3682 -0.1649
  998SOL    HW3 4064   0.572   1.239   1.946  0.8586 -0.7991  0.3168
  998SOL    MW4 4065   0.626   1.297   1.982  0.0167  0.2764 -0.0960
  999SOL     OW 4066   0.702   1.554   1.877  0.2032 -0.4602 -0.2086
  999SOL    HW2 4067   0.682   1.465   1.905 -1.0785 -0.4691 -1.0738
  999SOL    HW3 4068   0.715   1.547   1.782  0.8488  0.1481 -0.1671
  999SOL    MW4 4069   0.701   1.541   1.868  0.1193 -0.3810 -0.3172
 1000SOL     OW 4070   0.467   1.674   1.963  0.0004 -0.1967  0.1180
 1000SOL    HW2 4071   0.463   1.657   2.057 -2.0358 -0.7102 -0.0330
 1000SOL    HW3 4072   0.546   1.629   1.934  1.4089  1.0991  1.7848
 1000SOL    MW4 4073   0.477   1.666   1.972 -0.0824 -0.0933  0.3181
 1001SOL     OW 4074   0.479   1.927   1.842  0.3525 -0.6609  0.1542
 1001SOL    HW2 4075   0.469   1.843   1.887 -1.0854 -0.5055  0.1447
 1001SOL    HW3 4076   0.414   1.984   1.882  0.8349  0.2560 -0.3314
 1001SOL    MW4 4077   0.469   1.924   1.853  0.2264 -0.5194  0.0890
 1002SOL     OW 4078   0.652   2.127   1.937 -0.5033 -0.0001 -0.4239
 1002SOL    HW2 4079   0.652   2.122   2.033 -1.6991 -0.1540 -0.4316
 1002SOL    HW3 4080   0.608   2.046   1.909  0.1025 -0.0979 -1.1156
 1002SOL    MW4 4081   0.646   2.115   1.946 -0.5811 -0.0334 -0.5162
 1003SOL     OW 4082   0.695   2.388   1.883 -0.0294 -0.0512 -0.1009
 1003SOL    HW2 4083   0.685   2.297   1.911 -0.7110  0.0792  0.0771
 1003SOL    HW3 4084   0.688   2.384   1.787 -0.9791 -0.0646 -0.0305
 1003SOL    MW4 4085   0.693   2.375   1.874 -0.2446 -0.0358 -0.0681
 1004SOL     OW 4086   0.462   2.480   1.979 -0.1493 -0.2195 -0.2455
 1004SOL    HW2 4087   0.468   2.489   2.074 -0.3365  1.1554 -0.3515
 1004SOL    HW3 4088   0.548   2.445   1.953  0.6185  1.2682  0.2306
 1004SOL    MW4 4089   0.474   2.477   1.988 -0.0727  0.1581 -0.1967
 1005SOL     OW 4090   0.465   2.745   1.893  0.2939  0.4764  0.4159
 1005SOL    HW2 4091   0.450   2.656   1.925 -1.6586  0.0375 -1.5611
 1005SOL    HW3 4092   0.382   2.790   1.908  0.4615  1.2326 -0.8934
 1005SOL    MW4 4093   0.452   2.740   1.899  0.0584  0.5181 -0.0176
 1006SOL     OW 4094   0.675   2.909   1.964 -0.2263  0.1918 -0.3509
 1006SOL    HW2 4095   0.686   2.896   2.059  0.3399 -0.8144 -0.5403
 1006SOL    HW3 4096   0.599   2.856   1.941 -0.6497  0.8169 -0.3731
 1006SOL    MW4 4097   0.667   2.900   1.974 -0.2074  0.1411 -0.3790
 1007SOL     OW 4098   0.677   3.170   1.896 -0.2529  0.7157 -0.1896
 1007SOL    HW2 4099   0.657   3.079   1.920 -1.6914  1.2334  0.6310
 1007SOL    HW3 4100   0.676   3.170   1.800 -0.1174 -0.1651 -0.1948
 1007SOL    MW4 4101   0.674   3.158   1.887 -0.4248  0.6676 -0.0819
 1008SOL     OW 4102   0.439   3.290   1.973 -0.4728  0.8261  0.7416
 1008SOL    HW2 4103   0.440   3.383   1.950  0.3849  0.9203  1.1236
 1008SOL    HW3 4104   0.523   3.257   1.941 -0.3082  0.4238  1.5817
 1008SOL    MW4 4105   0.450   3.298   1.966 -0.3379  0.7854  0.9029
 1009SOL     OW 4106   0.480   3.556   1.888 -0.1434 -0.2391 -0.2400
 1009SOL    HW2 4107   0.567   3.584   1.918  0.4641 -1.4231 -0.8795
 1009SOL    HW3 4108   0.478   3.579   1.795 -0.5907 -0.0383 -0.1820
 1009SOL    MW4 4109   0.491   3.563   1.880 -0.1223 -0.3688 -0.3169
 1010SOL     OW 4110   0.733   3.643   1.991  0.2367  0.1231  0.0282
 1010SOL    HW2 4111   0.803   3.608   1.936  2.1049  0.2093  2.2465
 1010SOL    HW3 4112   0.721   3.733   1.961  0.5680 -0.1179 -0.8349
 1010SOL    MW4 4113   0.741   3.650   1.980  0.5268  0.1028  0.2069
 1011SOL     OW 4114   0.727   3.912   1.891  0.4601 -0.2434  0.0057
 1011SOL    HW2 4115   0.807   3.952   1.924  0.4902 -0.2397 -0.0723
 1011SOL    HW3 4116   0.726   3.933   1.798  0.0942  0.2133  0.1100
 1011SOL    MW4 4117   0.737   3.920   1.883  0.4159 -0.1829  0.0091
 1012SOL     OW 4118   0.471   3.990   1.958 -0.4178 -0.3277  0.3116
 1012SOL    HW2 4119   0.470   4.082   1.933 -0.4740 -0.4207 -0.0426
 1012SOL    HW3 4120   0.558   3.959   1.934 -0.1607 -0.1982  1.0735
 1012SOL    MW4 4121   0.482   3.998   1.951 -0.3913 -0.3228  0.3655
 1013SOL     OW 4122   0.480   4.253   1.901 -0.2989 -0.0896  0.0521
 1013SOL    HW2 4123   0.400   4.283   1.943  0.0177 -0.5183  0.9524
 1013SOL    HW3 4124   0.464   4.266   1.807 -1.6268 -0.7000  0.1893
 1013SOL    MW4 4125   0.468   4.259   1.894 -0.4323 -0.2265  0.1891
 1014SOL     OW 4126   0.690   4.429   2.009 -0.0571 -0.1521  0.4689
 1014SOL    HW2 4127   0.748   4.372   1.958 -0.1936  1.2620 -1.3523
 1014SOL    HW3 4128   0.602   4.396   1.990 -0.1832  0.9926 -1.0982
 1014SOL    MW4 4129   0.686   4.417   2.000 -0.0917  0.1855  0.0216
 1015SOL     OW 4130   1.143   0.004   1.891 -0.0446 -0.5068  0.2390
 1015SOL    HW2 4131   1.226   0.045   1.914  0.1670 -1.0180  0.4041
 1015SOL    HW3 4132   1.137  -0.072   1.949 -0.5890 -0.5177  0.1737
 1015SOL    MW4 4133   1.153  -0.001   1.902 -0.0886 -0.5751  0.2522
 1016SOL     OW 4134   0.963   0.176   1.996 -0.1841  0.1230  0.4993
 1016SOL    HW2 4135   1.033   0.122   1.960 -0.1458 -1.2933  2.6600
 1016SOL    HW3 4136   0.883   0.128   1.975 -0.3098  0.3229  0.5197
 1016SOL    MW4 4137   0.962   0.163   1.988 -0.1956 -0.0375  0.7869
 1017SOL     OW 4138   0.949   0.414   1.857  0.2136 -0.1490 -0.5130
 1017SOL    HW2 4139   1.007   0.480   1.896 -0.9969  0.9610 -0.5600
 1017SOL    HW3 4140   0.969   0.334   1.906  0.7957  0.5404  0.4080
 1017SOL    MW4 4141   0.960   0.413   1.869  0.1307  0.0884 -0.3977
 1018SOL     OW 4142   1.172   0.523   2.024 -0.2861 -0.3547 -0.2612
 1018SOL    HW2 4143   1.244   0.478   1.982  0.7192  1.3321 -0.4092
 1018SOL    HW3 4144   1.167   0.608   1.979 -0.6793  0.5506  1.4367
 1018SOL    MW4 4145   1.181   0.529   2.013 -0.2054 -0.0127 -0.0565
 1019SOL     OW 4146   1.143   0.768   1.898 -0.7000  0.3385  0.2324
 1019SOL    HW2 4147   1.218   0.813   1.937 -0.7184  1.4887 -1.0455
 1019SOL    HW3 4148   1.067   0.814   1.933 -0.7487  0.5573 -0.1566
 1019SOL    MW4 4149   1.143   0.780   1.908 -0.7088  0.5192  0.0124
 1020SOL     OW 4150   0.905   0.876   1.986 -0.3480  0.1885  0.4050
 1020SOL    HW2 4151   0.902   0.873   2.081  0.0491  1.2165  0.4561
 1020SOL    HW3 4152   0.894   0.969   1.965 -0.4735 -0.0396 -0.5515
 1020SOL    MW4 4153   0.903   0.888   1.996 -0.3121  0.2940  0.2855
 1021SOL     OW 4154   0.879   1.144   1.917  0.2794 -0.2813 -0.1211
 1021SOL    HW2 4155   0.807   1.199   1.950  0.4885  0.6368 -1.1894
 1021SOL    HW3 4156   0.881   1.161   1.823  1.7592 -0.4739 -0.1271
 1021SOL    MW4 4157   0.870   1.154   1.909  0.5022 -0.1856 -0.2629
 1022SOL     OW 4158   1.120   1.291   1.944 -0.2679 -0.3283 -0.1969
 1022SOL    HW2 4159   1.094   1.383   1.947  0.3965 -0.1076 -1.0441
 1022SOL    HW3 4160   1.037   1.243   1.938 -0.5656  0.2742 -0.8922
 1022SOL    MW4 4161   1.105   1.296   1.943 -0.2193 -0.2197 -0.4004
 1023SOL     OW 4162   1.129   1.574   1.876 -0.2079 -0.3553 -0.4678
 1023SOL    HW2 4163   1.054   1.631   1.895 -0.8012 -0.9700 -0.9656
 1023SOL    HW3 4164   1.119   1.552   1.783  0.3191 -0.8399 -0.4064
 1023SOL    MW4 4165   1.118   1.579   1.866 -0.2166 -0.5004 -0.5254
 1024SOL     OW 4166   0.918   1.702   1.971 -0.0065 -0.1531  0.3717
 1024SOL    HW2 4167   0.913   1.794   1.947 -0.8171 -0.5244 -0.8903
 1024SOL    HW3 4168   0.836   1.664   1.941  0.7161 -1.4876  0.0363
 1024SOL    MW4 4169   0.907   1.709   1.964 -0.0181 -0.3781  0.1611
 1025SOL     OW 4170   0.886   1.967   1.881 -0.2258  0.2902 -0.0507
 1025SOL    HW2 4171   0.815   2.028   1.900 -1.0400 -0.7942  0.4519
 1025SOL    HW3 4172   0.897   1.971   1.786 -1.7086 -0.3522 -0.2541
 1025SOL    MW4 4173   0.878   1.975   1.871 -0.5290  0.0623 -0.0112
 1026SOL     OW 4174   1.096   2.113   2.015 -0.1205 -0.0071 -0.0040
 1026SOL    HW2 4175   1.093   2.196   1.968  1.3042 -0.6764 -1.3567
 1026SOL    HW3 4176   1.023   2.062   1.979 -0.5236  0.3852  0.2683
 1026SOL    MW4 4177   1.086   2.117   2.004  0.0142 -0.0436 -0.1466
 1027SOL     OW 4178   1.135   2.348   1.880 -0.3091  0.3485  0.0979
 1027SOL    HW2 4179   1.211   2.393   1.918  1.5002 -2.1019 -0.5445
 1027SOL    HW3 4180   1.145   2.360   1.785 -1.7776  1.6113  0.0716
 1027SOL    MW4 4181   1.146   2.356   1.872 -0.2642  0.1917  0.0095
 1028SOL     OW 4182   0.922   2.519   1.977 -0.2903 -0.3233  0.0889
 1028SOL    HW2 4183   0.994   2.465   1.942  0.0506  1.0222 -1.3090
 1028SOL    HW3 4184   0.843   2.477   1.945 -0.0407 -0.2741 -0.5926
 1028SOL    MW4 4185   0.921   2.506   1.968 -0.2124 -0.1392 -0.1854
 1029SOL     OW 4186   0.859   2.771   1.811  0.0231 -0.2400  0.4315
 1029SOL    HW2 4187   0.864   2.687   1.857  1.2592  0.3301  1.3549
 1029SOL    HW3 4188   0.792   2.820   1.859 -0.4953 -0.5875  0.0668
 1029SOL    MW4 4189   0.851   2.766   1.824  0.1177 -0.2108  0.5052
 1030SOL     OW 4190   1.104   2.841   1.933 -0.6042  0.2234 -0.3059
 1030SOL    HW2 4191   1.101   2.862   2.026 -0.8368 -3.3429  0.5594
 1030SOL    HW3 4192   1.016   2.811   1.912 -0.0218 -0.9393 -1.1547
 1030SOL    MW4 4193   1.092   2.839   1.943 -0.5579 -0.4008 -0.3035
 1031SOL     OW 4194   1.111   3.097   1.823 -0.4406 -0.0967  0.1321
 1031SOL    HW2 4195   1.059   3.146   1.888 -0.8194  1.0323 -1.0071
 1031SOL    HW3 4196   1.093   3.005   1.843 -2.0685  0.2594  0.4345
 1031SOL    MW4 4197   1.102   3.092   1.834 -0.7054  0.0989  0.0218
 1032SOL     OW 4198   0.914   3.259   1.959 -0.1855 -0.1464 -0.0536
 1032SOL    HW2 4199   0.914   3.262   2.055 -0.4779  1.6377 -0.1035
 1032SOL    HW3 4200   0.829   3.221   1.937  0.3590 -1.6887  0.4028
 1032SOL    MW4 4201   0.902   3.254   1.969 -0.1522 -0.1147 -0.0001
 1033SOL     OW 4202   0.933   3.524   1.851  0.4218  0.0124  0.1577
 1033SOL    HW2 4203   0.948   3.438   1.891  1.3529 -0.0181 -0.2332
 1033SOL    HW3 4204   0.910   3.504   1.760 -1.7185  0.0797  0.6721
 1033SOL    MW4 4205   0.932   3.510   1.844  0.2623  0.0172  0.1738
 1034SOL     OW 4206   1.174   3.605   1.965 -0.1388  0.2951  0.1851
 1034SOL    HW2 4207   1.161   3.597   2.059  1.2214 -1.2682  0.2646
 1034SOL    HW3 4208   1.089   3.582   1.927 -0.2261 -0.7134  0.9773
 1034SOL    MW4 4209   1.161   3.601   1.972  0.0291 -0.0443  0.3002
 1035SOL     OW 4210   1.172   3.915   1.891 -0.1375  0.7640 -0.3173
 1035SOL    HW2 4211   1.173   3.825   1.925  1.8755  0.6611 -0.5932
 1035SOL    HW3 4212   1.156   3.905   1.798  1.2596  0.5836 -0.5583
 1035SOL    MW4 4213   1.170   3.902   1.883  0.3123  0.7267 -0.3855
 1036SOL     OW 4214   0.945   4.046   1.976 -0.0453  0.8250 -0.1311
 1036SOL    HW2 4215   0.954   4.048   2.072  1.0737  3.0019 -0.2590
 1036SOL    HW3 4216   1.020   3.994   1.946 -0.7328 -0.3804  0.1792
 1036SOL    MW4 4217   0.956   4.039   1.985  0.0116  0.9532 -0.1070
 1037SOL     OW 4218   0.915   4.297   1.882 -0.1814 -0.3822 -0.1111
 1037SOL    HW2 4219   0.987   4.355   1.908 -1.0069  0.4018  0.4627
 1037SOL    HW3 4220   0.934   4.214   1.926 -0.7102  0.4447  1.7600
 1037SOL    MW4 4221   0.927   4.294   1.892 -0.3601 -0.1698  0.2115
 1038SOL     OW 4222   1.135   4.426   2.018  0.2857  0.5088 -0.6319
 1038SOL    HW2 4223   1.135   4.412   2.113 -0.4239  2.4111 -0.3341
 1038SOL    HW3 4224   1.211   4.376   1.987  1.6227  1.3279  1.1821
 1038SOL    MW4 4225   1.145   4.417   2.027  0.3685  0.8678 -0.3531
 1039SOL     OW 4226   1.608   0.023   1.897  0.3486 -0.1243 -0.0269
 1039SOL    HW2 4227   1.688   0.061   1.933 -0.0757  0.1596  0.6254
 1039SOL    HW3 4228   1.622  -0.072   1.901  0.3237 -0.0972  0.8690
 1039SOL    MW4 4229   1.620   0.015   1.902  0.2892 -0.0833  0.1775
 1040SOL     OW 4230   1.359   0.133   1.977 -0.2297  0.2603 -0.2691
 1040SOL    HW2 4231   1.342   0.125   2.071 -1.1429 -1.0233 -0.5332
 1040SOL    HW3 4232   1.445   0.092   1.965  0.2006  1.0369  0.0974
 1040SOL    MW4 4233   1.368   0.127   1.988 -0.2935  0.1934 -0.2556
 1041SOL     OW 4234   1.401   0.406   1.905 -0.5865  0.0416 -0.3588
 1041SOL    HW2 4235   1.392   0.322   1.951  1.4377  0.0165  0.0489
 1041SOL    HW3 4236   1.427   0.382   1.816  2.0910  0.2665  0.3298
 1041SOL    MW4 4237   1.403   0.392   1.899  0.0337  0.0680 -0.2141
 1042SOL     OW 4238   1.606   0.577   1.992  0.0195 -0.2144 -0.0672
 1042SOL    HW2 4239   1.678   0.518   1.969 -0.2264 -0.4861 -0.1378
 1042SOL    HW3 4240   1.527   0.527   1.975 -0.1776 -0.2337  0.8609
 1042SOL    MW4 4241   1.605   0.563   1.987 -0.0389 -0.2528  0.0460
 1043SOL     OW 4242   1.560   0.803   1.860  0.2487 -0.1334  0.2872
 1043SOL    HW2 4243   1.637   0.854   1.886  0.7730 -0.7017 -0.1307
 1043SOL    HW3 4244   1.570   0.720   1.905 -0.3191 -0.0747  0.5259
 1043SOL    MW4 4245   1.572   0.799   1.870  0.2429 -0.2006  0.2636
 1044SOL     OW 4246   1.361   0.919   1.996  0.2638 -0.5440 -0.1605
 1044SOL    HW2 4247   1.369   0.900   2.089  2.2277  1.0646  0.0353
 1044SOL    HW3 4248   1.430   0.867   1.955  0.0058 -0.5349 -0.6095
 1044SOL    MW4 4249   1.372   0.909   2.003  0.4890 -0.3306 -0.1938
 1045SOL     OW 4250   1.358   1.168   1.888 -0.1770 -0.3949  0.1812
 1045SOL    HW2 4251   1.356   1.079   1.922 -0.3763 -0.2192  0.6366
 1045SOL    HW3 4252   1.274   1.206   1.914  0.4404  0.3492  1.1651
 1045SOL    MW4 4253   1.347   1.161   1.896 -0.1218 -0.2735  0.3711
 1046SOL     OW 4254   1.565   1.288   2.002  0.0885 -0.2513  0.3354
 1046SOL    HW2 4255   1.547   1.381   1.986 -0.0969 -0.2764  0.3931
 1046SOL    HW3 4256   1.489   1.243   1.964  0.6867 -0.4424 -0.6341
 1046SOL    MW4 4257   1.552   1.294   1.995  0.1429 -0.2798  0.2151
 1047SOL     OW 4258   1.547   1.551   1.925  0.4946 -0.3971  0.3377
 1047SOL    HW2 4259   1.622   1.603   1.955  1.0491  0.3375 -2.2146
 1047SOL    HW3 4260   1.471   1.605   1.944  0.9162  0.4959 -0.4729
 1047SOL    MW4 4261   1.547   1.565   1.932  0.6233 -0.1824 -0.1060
 1048SOL     OW 4262   1.334   1.740   1.974  0.0283 -0.0640 -0.2854
 1048SOL    HW2 4263   1.323   1.715   2.065 -2.0786  0.4742 -0.3703
 1048SOL    HW3 4264   1.280   1.679   1.925 -0.5328  0.9689 -0.9865
 1048SOL    MW4 4265   1.325   1.729   1.979 -0.3238  0.1432 -0.3891
 1049SOL     OW 4266   1.326   2.003   1.920  0.0999 -0.4924 -0.6032
 1049SOL    HW2 4267   1.330   1.912   1.949  1.7893  0.2146  1.5152
 1049SOL    HW3 4268   1.257   2.043   1.974 -0.6484 -0.5033 -1.5357
 1049SOL    MW4 4269   1.318   1.996   1.931  0.2240 -0.4007 -0.4468
 1050SOL     OW 4270   1.568   2.106   2.004 -0.0049  0.3145  0.6100
 1050SOL    HW2 4271   1.589   2.186   1.956  0.1536  0.7965  1.4763
 1050SOL    HW3 4272   1.477   2.087   1.980  0.1153  0.4823  0.0245
 1050SOL    MW4 4273   1.559   2.114   1.995  0.0319  0.4003  0.6472
 1051SOL     OW 4274   1.637   2.348   1.884 -0.0651 -0.0403 -0.2309
 1051SOL    HW2 4275   1.725   2.386   1.880 -0.4832  0.9635 -0.1712
 1051SOL    HW3 4276   1.598   2.368   1.799  0.2063 -1.6213 -0.7465
 1051SOL    MW4 4277   1.643   2.356   1.872 -0.0845 -0.1163 -0.2911
 1052SOL     OW 4278   1.381   2.479   1.984  0.1344  0.0868 -0.2131
 1052SOL    HW2 4279   1.380   2.557   1.928 -0.3522  0.0812 -0.2100
 1052SOL    HW3 4280   1.462   2.433   1.960 -0.3670 -0.2177 -1.3120
 1052SOL    MW4 4281   1.392   2.484   1.974  0.0041  0.0458 -0.3576
 1053SOL     OW 4282   1.327   2.697   1.837 -0.1962  0.2967  0.0051
 1053SOL    HW2 4283   1.246   2.731   1.877 -0.6274 -0.0264 -0.5912
 1053SOL    HW3 4284   1.320   2.721   1.745 -0.0687 -0.5900 -0.2366
 1053SOL    MW4 4285   1.315   2.705   1.830 -0.2362  0.1371 -0.1054
 1054SOL     OW 4286   1.572   2.852   1.950 -0.0116 -0.0854 -0.2343
 1054SOL    HW2 4287   1.637   2.796   1.908  0.9857 -0.4883  1.7844
 1054SOL    HW3 4288   1.489   2.808   1.935  0.8083 -2.4660  1.7818
 1054SOL    MW4 4289   1.570   2.839   1.943  0.2280 -0.4528  0.2980
 1055SOL     OW 4290   1.564   3.123   1.840  0.1946 -0.1106  0.0889
 1055SOL    HW2 4291   1.554   3.037   1.880  0.0002 -0.2867 -0.3402
 1055SOL    HW3 4292   1.552   3.108   1.747  0.1533  0.3823  0.0133
 1055SOL    MW4 4293   1.561   3.110   1.833  0.1634 -0.0687  0.0222
 1056SOL     OW 4294   1.329   3.248   1.933  0.3160  0.4533  0.1759
 1056SOL    HW2 4295   1.406   3.201   1.904  0.6633  0.2476  1.3830
 1056SOL    HW3 4296   1.255   3.200   1.895  0.7818  0.8432 -1.2416
 1056SOL    MW4 4297   1.329   3.236   1.924  0.4231  0.4778  0.1482
 1057SOL     OW 4298   1.402   3.499   1.839 -0.0432 -0.2275  0.4286
 1057SOL    HW2 4299   1.385   3.408   1.861  0.9331 -0.4920  0.1296
 1057SOL    HW3 4300   1.322   3.545   1.863 -0.5854 -1.1804  0.4673
 1057SOL    MW4 4301   1.389   3.493   1.845  0.0139 -0.3881  0.3942
 1058SOL     OW 4302   1.616   3.614   1.957 -0.2356  0.1056  0.4934
 1058SOL    HW2 4303   1.593   3.603   2.049 -1.8787 -1.0517 -0.0427
 1058SOL    HW3 4304   1.547   3.569   1.909  0.0518  1.5791 -1.3550
 1058SOL    MW4 4305   1.604   3.606   1.963 -0.4145  0.1471  0.1788
 1059SOL     OW 4306   1.599   3.881   1.859 -0.0323  0.3323  0.3939
 1059SOL    HW2 4307   1.669   3.928   1.904  0.3099  0.1272  0.0820
 1059SOL    HW3 4308   1.599   3.794   1.899 -0.9921  0.7494  1.3114
 1059SOL    MW4 4309   1.609   3.876   1.870 -0.1138  0.3603  0.4737
 1060SOL     OW 4310   1.408   4.026   1.986  0.1323  0.2185  0.2318
 1060SOL    HW2 4311   1.472   3.986   1.928 -1.0469  1.4671 -2.0142
 1060SOL    HW3 4312   1.323   3.994   1.954 -0.6606  2.4879 -0.0327
 1060SOL    MW4 4313   1.405   4.016   1.974 -0.1279  0.6819 -0.0995
 1061SOL     OW 4314   1.377   4.308   1.897 -0.2849  0.2479  0.1398
 1061SOL    HW2 4315   1.390   4.216   1.921  0.7384  0.1574 -0.7276
 1061SOL    HW3 4316   1.337   4.305   1.810  0.5283  0.6210 -0.2588
 1061SOL    MW4 4317   1.373   4.296   1.888 -0.0426  0.2851 -0.0273
 1062SOL     OW 4318   1.611   4.412   1.986 -0.5936 -0.6813 -0.1655
 1062SOL    HW2 4319   1.614   4.399   2.081 -1.4976 -0.3805 -0.1007
 1062SOL    HW3 4320   1.524   4.384   1.960 -0.1138 -1.4081 -1.0061
 1062SOL    MW4 4321   1.600   4.407   1.995 -0.6496 -0.7377 -0.2677
 1063SOL     OW 4322   2.036   4.649   1.883  0.5186  0.3586  0.8318
 1063SOL    HW2 4323   2.113   4.676   1.933  1.0093  0.7819 -0.1541
 1063SOL    HW3 4324   2.022   4.558   1.908  0.9169  0.4878  1.5433
 1063SOL    MW4 4325   2.044   4.641   1.893  0.6359  0.4311  0.7956
 1064SOL     OW 4326   1.831   0.161   1.994 -0.2643 -0.7022  0.0441
 1064SOL    HW2 4327   1.826   0.159   2.089  0.2472 -0.2423  0.0901
 1064SOL    HW3 4328   1.911   0.112   1.973  1.2899  1.7370  0.0446
 1064SOL    MW4 4329   1.841   0.155   2.004  0.0083 -0.3197  0.0503
 1065SOL     OW 4330   1.816   0.419   1.896 -0.0463  0.3488 -0.4707
 1065SOL    HW2 4331   1.819   0.328   1.927 -1.4262  0.8648  1.2000
 1065SOL    HW3 4332   1.813   0.411   1.801 -0.4810 -1.3730 -0.3343
 1065SOL    MW4 4333   1.816   0.406   1.888 -0.2859  0.1897 -0.2323
 1066SOL     OW 4334   2.044   0.554   2.000 -0.3468  0.0674  0.3360
 1066SOL    HW2 4335   2.037   0.644   1.969 -0.3848  0.5162  1.6170
 1066SOL    HW3 4336   1.965   0.511   1.966  0.8605 -0.1520 -2.3417
 1066SOL    MW4 4337   2.032   0.560   1.991 -0.1926  0.0976  0.1518
 1067SOL     OW 4338   2.031   0.813   1.882 -0.3337  0.0540 -0.2620
 1067SOL    HW2 4339   2.112   0.852   1.913  0.6369 -1.8689 -0.3120
 1067SOL    HW3 4340   2.043   0.804   1.787 -1.3995  1.5578 -0.5609
 1067SOL    MW4 4341   2.043   0.817   1.873 -0.3464 -0.0013 -0.3079
 1068SOL     OW 4342   1.796   0.935   1.953  0.0760 -0.3970  0.5602
 1068SOL    HW2 4343   1.798   1.030   1.943 -1.8641 -0.4915 -1.1235
 1068SOL    HW3 4344   1.881   0.905   1.920 -0.3750  0.5542 -1.5345
 1068SOL    MW4 4345   1.807   0.943   1.947 -0.2394 -0.2840  0.0616
 1069SOL     OW 4346   1.804   1.213   1.899 -0.1463  0.5190  0.0482
 1069SOL    HW2 4347   1.721   1.244   1.935 -1.0810 -1.2425 -0.5317
 1069SOL    HW3 4348   1.790   1.209   1.805  1.0616  1.5287 -0.1820
 1069SOL    MW4 4349   1.792   1.216   1.892 -0.1103  0.4199 -0.0588
 1070SOL     OW 4350   2.049   1.297   2.017  0.7011 -0.2331  0.2415
 1070SOL    HW2 4351   2.119   1.246   1.977  0.9307  0.5661 -0.3960
 1070SOL    HW3 4352   1.972   1.276   1.965  0.7253 -0.1905  0.1878
 1070SOL    MW4 4353   2.048   1.288   2.005  0.7343 -0.1221  0.1500
 1071SOL     OW 4354   1.996   1.565   1.961 -0.0144 -0.4070 -0.0309
 1071SOL    HW2 4355   2.019   1.472   1.971  0.3939 -0.1687  1.2943
 1071SOL    HW3 4356   2.018   1.585   1.870 -0.5791 -1.7437 -0.4696
 1071SOL    MW4 4357   2.002   1.555   1.950 -0.0350 -0.5519  0.0859
 1072SOL     OW 4358   1.753   1.699   2.018 -0.7515 -0.2231 -0.0451
 1072SOL    HW2 4359   1.756   1.788   1.985 -0.9012 -0.3314 -0.3510
 1072SOL    HW3 4360   1.839   1.662   1.997 -1.5538 -0.9541 -2.1776
 1072SOL    MW4 4361   1.764   1.706   2.011 -0.8770 -0.3339 -0.3667
 1073SOL     OW 4362   1.789   1.957   1.910 -0.2034  0.3852 -0.2138
 1073SOL    HW2 4363   1.707   1.998   1.938  0.1445  1.2896 -0.5137
 1073SOL    HW3 4364   1.793   1.973   1.816 -0.4013 -0.9389 -0.4468
 1073SOL    MW4 4365   1.779   1.965   1.901 -0.1835  0.3299 -0.2841
 1074SOL     OW 4366   2.036   2.077   1.967  0.2084  0.2960  0.1025
 1074SOL    HW2 4367   2.099   2.019   1.925  0.1549 -1.3538  2.2202
 1074SOL    HW3 4368   1.950   2.040   1.945  0.1156  0.3572  0.3587
 1074SOL    MW4 4369   2.033   2.065   1.958  0.1893  0.0863  0.4159
 1075SOL     OW 4370   2.105   2.333   1.867  0.1649  0.1436  0.2713
 1075SOL    HW2 4371   2.187   2.344   1.915 -0.5168  0.4046  1.4160
 1075SOL    HW3 4372   2.070   2.249   1.899  0.0643 -0.0395 -0.3223
 1075SOL    MW4 4373   2.111   2.323   1.878  0.0618  0.1540  0.3439
 1076SOL     OW 4374   1.881   2.488   1.966  0.1416  0.0473 -0.4514
 1076SOL    HW2 4375   1.849   2.467   2.053 -0.1605  1.3118 -0.2475
 1076SOL    HW3 4376   1.957   2.431   1.954  1.3687  1.2117  1.4129
 1076SOL    MW4 4377   1.887   2.478   1.976  0.2637  0.3681 -0.1785
 1077SOL     OW 4378   1.818   2.730   1.859  0.0560 -0.0210  0.3748
 1077SOL    HW2 4379   1.835   2.639   1.882 -1.3111 -0.4566 -0.2429
 1077SOL    HW3 4380   1.826   2.732   1.763  0.3564  0.5679  0.4115
 1077SOL    MW4 4381   1.821   2.718   1.849 -0.0848 -0.0010  0.2981
 1078SOL     OW 4382   2.029   2.841   1.991  0.0113 -0.3371  0.1551
 1078SOL    HW2 4383   2.011   2.826   2.084 -2.0988  1.5171  0.0883
 1078SOL    HW3 4384   1.951   2.809   1.946  0.6329 -0.3757 -0.9183
 1078SOL    MW4 4385   2.016   2.835   1.997 -0.1850 -0.0975  0.0048
 1079SOL     OW 4386   2.042   3.104   1.882  0.2684 -0.1793 -0.2554
 1079SOL    HW2 4387   1.965   3.158   1.901 -0.2674 -0.3030 -1.9578
 1079SOL    HW3 4388   2.021   3.018   1.918 -0.1648 -0.0719 -0.2511
 1079SOL    MW4 4389   2.029   3.100   1.889  0.1402 -0.1817 -0.4793
 1080SOL     OW 4390   1.804   3.220   1.961 -0.0008 -0.2445 -0.3994
 1080SOL    HW2 4391   1.787   3.217   2.055 -0.1517 -1.9912 -0.4602
 1080SOL    HW3 4392   1.723   3.187   1.921  0.2347  0.0316 -1.1084
 1080SOL    MW4 4393   1.791   3.215   1.968  0.0104 -0.4385 -0.5010
 1081SOL     OW 4394   1.843   3.479   1.873 -0.3601  0.1164 -0.6810
 1081SOL    HW2 4395   1.836   3.389   1.904 -0.0783  0.1885 -0.4055
 1081SOL    HW3 4396   1.768   3.524   1.912  0.8332  0.5635  1.1434
 1081SOL    MW4 4397   1.832   3.473   1.882 -0.1655  0.1850 -0.4038
 1082SOL     OW 4398   2.052   3.616   1.983 -0.0005 -0.0923 -0.1354
 1082SOL    HW2 4399   2.044   3.707   1.953 -1.8630  0.6755  2.4524
 1082SOL    HW3 4400   1.979   3.571   1.942 -0.7603  0.2709  0.7803
 1082SOL    MW4 4401   2.041   3.622   1.974 -0.3464  0.0570  0.3268
 1083SOL     OW 4402   2.018   3.866   1.866  0.1648 -0.7902 -0.2292
 1083SOL    HW2 4403   2.097   3.913   1.894  0.0720 -0.4929 -0.4512
 1083SOL    HW3 4404   2.014   3.882   1.771 -1.1207  0.6924  0.0417
 1083SOL    MW4 4405   2.027   3.875   1.857 -0.0167 -0.5553 -0.2227
 1084SOL     OW 4406   1.810   4.000   2.000  0.0759 -0.4070 -0.0028
 1084SOL    HW2 4407   1.805   4.083   1.951  0.2257 -0.5593 -0.2775
 1084SOL    HW3 4408   1.889   3.958   1.967  2.3662  1.2233  3.0963
 1084SOL    MW4 4409   1.820   4.005   1.989  0.3977 -0.2122  0.3698
 1085SOL     OW 4410   1.773   4.238   1.864 -0.1928 -0.3368  0.3555
 1085SOL    HW2 4411   1.699   4.289   1.898  0.0460  0.4734 -0.3324
 1085SOL    HW3 4412   1.768   4.247   1.769  0.0612 -1.3113  0.2407
 1085SOL    MW4 4413   1.763   4.246   1.856 -0.1276 -0.3586  0.2496
 1086SOL     OW 4414   1.991   4.380   1.939  0.4205  0.5320  0.2163
 1086SOL    HW2 4415   2.071   4.337   1.908 -1.1311 -0.5068 -2.4621
 1086SOL    HW3 4416   1.920   4.333   1.897 -1.5083  3.1214  0.4453
 1086SOL    MW4 4417   1.992   4.368   1.929 -0.0386  0.7362 -0.1068
 1087SOL     OW 4418   2.497   0.019   1.863  0.2487 -0.0595 -0.2963
 1087SOL    HW2 4419   2.575   0.051   1.907  0.9147 -0.4766 -1.1527
 1087SOL    HW3 4420   2.485  -0.070   1.896  0.2035 -0.0319 -0.2404
 1087SOL    MW4 4421   2.506   0.012   1.873  0.3304 -0.1109 -0.4020
 1088SOL     OW 4422   2.273   0.095   2.004  0.0625 -0.1895 -0.4819
 1088SOL    HW2 4423   2.288   0.091   2.098 -0.0428 -2.3608 -0.5487
 1088SOL    HW3 4424   2.357   0.069   1.965  0.5569  2.0922 -1.0380
 1088SOL    MW4 4425   2.286   0.091   2.011  0.1135 -0.1749 -0.5641
 1089SOL     OW 4426   2.265   0.384   1.903  0.3844  0.5735  0.2206
 1089SOL    HW2 4427   2.270   0.297   1.942  2.0294  1.2250  1.4940
 1089SOL    HW3 4428   2.195   0.429   1.951  0.8489  0.5977  0.8786
 1089SOL    MW4 4429   2.257   0.379   1.914  0.6626  0.6627  0.4754
 1090SOL     OW 4430   2.507   0.531   1.966  0.6462 -0.4901  0.2616
 1090SOL    HW2 4431   2.569   0.493   1.903  0.8558  0.4228 -0.0861
 1090SOL    HW3 4432   2.423   0.489   1.945  0.0710  1.9366 -2.5811
 1090SOL    MW4 4433   2.504   0.520   1.955  0.5980 -0.0495 -0.1595
 1091SOL     OW 4434   2.516   0.810   1.848  0.0759  0.1917  0.0567
 1091SOL    HW2 4435   2.512   0.721   1.884  1.3521  0.3352  0.6035
 1091SOL    HW3 4436   2.518   0.797   1.753 -1.5705 -0.2701  0.0751
 1091SOL    MW4 4437   2.516   0.796   1.840  0.0272  0.1497  0.1312
 1092SOL     OW 4438   2.272   0.908   1.965  0.1367  0.4933  0.1742
 1092SOL    HW2 4439   2.276   0.890   2.059 -0.8360  1.0601  0.3385
 1092SOL    HW3 4440   2.352   0.871   1.929  0.2836 -0.1466  1.1615
 1092SOL    MW4 4441   2.283   0.901   1.973  0.0277  0.4837  0.3263
 1093SOL     OW 4442   2.265   1.158   1.884 -0.4237 -0.1522 -0.2580
 1093SOL    HW2 4443   2.344   1.205   1.914  0.1982 -1.0088 -0.5417
 1093SOL    HW3 4444   2.279   1.068   1.912 -0.6290 -0.6108 -1.5894
 1093SOL    MW4 4445   2.278   1.153   1.892 -0.3688 -0.3258 -0.4712
 1094SOL     OW 4446   2.503   1.298   1.957 -0.2776  0.2424 -0.1355
 1094SOL    HW2 4447   2.490   1.292   2.052 -1.9390 -0.2485 -0.3713
 1094SOL    HW3 4448   2.500   1.392   1.939  2.4183  0.5135  0.5718
 1094SOL    MW4 4449   2.501   1.310   1.967 -0.1409  0.2135 -0.0733
 1095SOL     OW 4450   2.505   1.558   1.877 -0.2502 -0.3720 -0.3835
 1095SOL    HW2 4451   2.428   1.600   1.917  0.0303 -0.5915  0.4018
 1095SOL    HW3 4452   2.515   1.601   1.793 -0.8205  0.1437 -0.1912
 1095SOL    MW4 4453   2.496   1.569   1.871 -0.2885 -0.3330 -0.2545
 1096SOL     OW 4454   2.270   1.675   1.982  0.2238  0.2395 -0.1006
 1096SOL    HW2 4455   2.266   1.666   2.077  0.1246 -0.2125 -0.1478
 1096SOL    HW3 4456   2.196   1.624   1.950  0.8577 -0.4503 -0.4722
 1096SOL    MW4 4457   2.260   1.667   1.990  0.2944  0.0890 -0.1558
 1097SOL     OW 4458   2.274   1.933   1.876 -0.0504  0.1146  0.0477
 1097SOL    HW2 4459   2.352   1.971   1.916 -0.5910 -0.5027  1.7638
 1097SOL    HW3 4460   2.272   1.843   1.909 -1.5099  0.1462  0.0885
 1097SOL    MW4 4461   2.284   1.926   1.886 -0.3142  0.0373  0.2795
 1098SOL     OW 4462   2.527   2.020   1.991  0.1868  0.0140  0.6554
 1098SOL    HW2 4463   2.615   1.992   1.964  0.6077  0.8045  1.1943
 1098SOL    HW3 4464   2.520   2.110   1.960 -0.0807  0.2677  1.4500
 1098SOL    MW4 4465   2.538   2.028   1.983  0.2072  0.1516  0.8315
 1099SOL     OW 4466   2.532   2.281   1.894 -0.2801 -0.0450  0.1068
 1099SOL    HW2 4467   2.613   2.329   1.911 -0.0830 -0.9870  1.9934
 1099SOL    HW3 4468   2.464   2.332   1.938 -0.0084 -1.6469  2.5060
 1099SOL    MW4 4469   2.533   2.294   1.902 -0.2184 -0.3805  0.6722
 1100SOL     OW 4470   2.321   2.406   2.001  0.0163  0.2185 -0.0478
 1100SOL    HW2 4471   2.296   2.398   2.094  0.2943  0.4459  0.0454
 1100SOL    HW3 4472   2.288   2.492   1.975 -1.7218 -0.6099 -0.6681
 1100SOL    MW4 4473   2.313   2.417   2.010 -0.1762  0.1392 -0.1173
 1101SOL     OW 4474   2.242   2.680   1.948  0.8795  0.0846 -0.0607
 1101SOL    HW2 4475   2.166   2.734   1.967  1.7102  1.4802 -0.6305
 1101SOL    HW3 4476   2.252   2.684   1.853  1.3701 -0.4865 -0.0360
 1101SOL    MW4 4477   2.234   2.687   1.938  1.0540  0.1934 -0.1324
 1102SOL     OW 4478   2.499   2.759   1.978  0.4661 -0.0980 -0.0481
 1102SOL    HW2 4479   2.498   2.851   1.952  1.7526  0.0447  0.3645
 1102SOL    HW3 4480   2.407   2.732   1.977 -0.1022  1.6908  1.5766
 1102SOL    MW4 4481   2.487   2.767   1.975  0.5612  0.1571  0.2207
 1103SOL     OW 4482   2.472   3.070   1.890  0.2398  0.3288  0.2978
 1103SOL    HW2 4483   2.402   3.113   1.939 -0.6777  0.5095 -1.1123
 1103SOL    HW3 4484   2.464   3.106   1.802  1.5351 -0.3363 -0.0960
 1103SOL    MW4 4485   2.461   3.080   1.885  0.2897  0.2649  0.0600
 1104SOL     OW 4486   2.272   3.223   1.992 -0.1449  0.0483 -0.6009
 1104SOL    HW2 4487   2.266   3.226   2.088  0.6602  0.3014 -0.5543
 1104SOL    HW3 4488   2.189   3.185   1.964 -0.1083 -0.6673  0.2384
 1104SOL    MW4 4489   2.260   3.218   2.001 -0.0341 -0.0126 -0.4840
 1105SOL     OW 4490   2.247   3.471   1.853 -0.0871  0.7813  0.1370
 1105SOL    HW2 4491   2.254   3.391   1.904 -1.0461  0.7637  0.2625
 1105SOL    HW3 4492   2.179   3.522   1.898 -0.8449  0.8191 -1.0174
 1105SOL    MW4 4493   2.239   3.467   1.865 -0.3135  0.7839  0.0012
 1106SOL     OW 4494   2.483   3.609   1.919  0.1854 -0.1437 -0.2064
 1106SOL    HW2 4495   2.482   3.616   2.015  0.6637 -0.6707 -0.1586
 1106SOL    HW3 4496   2.399   3.570   1.897 -0.3028  0.8212 -0.0758
 1106SOL    MW4 4497   2.472   3.605   1.929  0.1841 -0.0861 -0.1829
 1107SOL     OW 4498   2.476   3.896   1.841  0.1737 -0.2968  0.1889
 1107SOL    HW2 4499   2.400   3.938   1.880  0.0764  0.2313 -0.5451
 1107SOL    HW3 4500   2.468   3.803   1.864 -0.7881 -0.2726 -0.0418
 1107SOL    MW4 4501   2.465   3.889   1.849  0.0341 -0.2239  0.0618
 1108SOL     OW 4502   2.243   4.004   1.937  0.4783  0.4815 -0.3154
 1108SOL    HW2 4503   2.252   3.993   2.031  1.8757  0.4737 -0.4418
 1108SOL    HW3 4504   2.228   4.098   1.925  0.0073  0.4382 -0.0696
 1108SOL    MW4 4505   2.242   4.015   1.948  0.6006  0.4745 -0.2996
 1109SOL     OW 4506   2.240   4.282   1.865  0.0441  0.3140 -0.8071
 1109SOL    HW2 4507   2.292   4.356   1.897 -0.2179  0.2756 -0.2871
 1109SOL    HW3 4508   2.249   4.286   1.770  2.6487 -0.8979 -0.6628
 1109SOL    MW4 4509   2.248   4.293   1.857  0.3531  0.1493 -0.7193
 1110SOL     OW 4510   2.457   4.432   1.990  0.3649 -0.7225  0.4128
 1110SOL    HW2 4511   2.449   4.411   2.083  0.7862  0.6324  0.7659
 1110SOL    HW3 4512   2.537   4.388   1.962  0.8660 -0.1823  0.9767
 1110SOL    MW4 4513   2.467   4.423   1.999  0.4864 -0.4721  0.5338
 1111SOL     OW 4514   2.908   4.615   1.881 -0.4161 -0.0359 -0.0142
 1111SOL    HW2 4515   2.993   4.658   1.887  0.9538 -2.4252 -1.2016
 1111SOL    HW3 4516   2.916   4.539   1.938 -1.9069 -0.0581  0.1814
 1111SOL    MW4 4517   2.921   4.610   1.889 -0.4320 -0.3538 -0.1450
 1112SOL     OW 4518   2.721   0.135   1.976  0.2421  0.4562 -0.4215
 1112SOL    HW2 4519   2.709   0.128   2.071 -0.2871 -0.3132 -0.5403
 1112SOL    HW3 4520   2.790   0.071   1.956  0.2701  0.5337 -0.5693
 1112SOL    MW4 4521   2.729   0.126   1.986  0.1762  0.3649 -0.4568
 1113SOL     OW 4522   2.733   0.401   1.831  0.5303 -0.3341 -0.4464
 1113SOL    HW2 4523   2.800   0.457   1.871  1.8878 -2.2348  0.0232
 1113SOL    HW3 4524   2.733   0.322   1.884 -1.8256 -0.5414 -0.7109
 1113SOL    MW4 4525   2.742   0.398   1.843  0.3984 -0.6122 -0.4194
 1114SOL     OW 4526   2.915   0.537   1.983 -0.4271 -0.0598  0.0756
 1114SOL    HW2 4527   3.004   0.503   1.969 -0.8518 -0.9143 -0.5178
 1114SOL    HW3 4528   2.921   0.629   1.959  0.1117 -0.2955 -0.7034
 1114SOL    MW4 4529   2.928   0.544   1.978 -0.4122 -0.2037 -0.1055
 1115SOL     OW 4530   2.935   0.810   1.886 -0.1232 -0.6046  0.2653
 1115SOL    HW2 4531   3.012   0.852   1.923 -0.5902  1.3255 -0.8606
 1115SOL    HW3 4532   2.861   0.849   1.933 -0.5349 -0.6446 -0.3346
 1115SOL    MW4 4533   2.935   0.821   1.897 -0.2394 -0.3552  0.0377
 1116SOL     OW 4534   2.717   0.943   2.003  0.2131 -0.2756 -0.2341
 1116SOL    HW2 4535   2.727   1.030   1.965 -0.2706 -0.0244  0.2061
 1116SOL    HW3 4536   2.647   0.902   1.953 -0.3994  0.0424  0.3520
 1116SOL    MW4 4537   2.709   0.949   1.992  0.0682 -0.2005 -0.0986
 1117SOL     OW 4538   2.738   1.190   1.871 -0.5970  0.2080  0.0569
 1117SOL    HW2 4539   2.659   1.242   1.881 -0.8282 -0.2125  0.4068
 1117SOL    HW3 4540   2.748   1.180   1.776 -1.2237 -0.1407  0.0245
 1117SOL    MW4 4541   2.729   1.196   1.860 -0.7102  0.1065  0.0988
 1118SOL     OW 4542   2.958   1.292   2.002 -0.4350 -0.0560  0.0979
 1118SOL    HW2 4543   2.960   1.385   1.976  0.7364  0.0034  0.3954
 1118SOL    HW3 4544   2.886   1.255   1.950 -0.4701  0.8691 -0.5334
 1118SOL    MW4 4545   2.949   1.300   1.992 -0.2851  0.0739  0.0539
 1119SOL     OW 4546   2.965   1.560   1.898  0.0764  0.5938 -0.0147
 1119SOL    HW2 4547   3.043   1.605   1.929 -0.5785  1.2940  0.6667
 1119SOL    HW3 4548   2.962   1.579   1.804 -0.0054  1.7130  0.2041
 1119SOL    MW4 4549   2.975   1.569   1.890 -0.0210  0.8337  0.1042
 1120SOL     OW 4550   2.735   1.693   1.994 -0.2725  0.0754 -0.3106
 1120SOL    HW2 4551   2.815   1.646   1.970 -0.2085  0.3949 -0.7349
 1120SOL    HW3 4552   2.664   1.638   1.960 -0.2877 -0.7863  1.0701
 1120SOL    MW4 4553   2.736   1.679   1.986 -0.2661  0.0038 -0.1843
 1121SOL     OW 4554   2.752   1.920   1.851  0.8235 -0.1133 -0.0125
 1121SOL    HW2 4555   2.830   1.966   1.879 -0.1463 -0.1863  3.0350
 1121SOL    HW3 4556   2.753   1.839   1.902 -0.9836 -0.3236 -0.2821
 1121SOL    MW4 4557   2.762   1.915   1.861  0.4570 -0.1508  0.3541
 1122SOL     OW 4558   2.992   2.036   1.927  0.2365 -0.8016 -0.3110
 1122SOL    HW2 4559   2.988   2.048   2.022 -2.6455 -2.8745 -0.0995
 1122SOL    HW3 4560   3.065   1.976   1.913  1.0871  0.0276  0.5163
 1122SOL    MW4 4561   3.001   2.030   1.938 -0.0315 -0.9654 -0.1739
 1123SOL     OW 4562   2.999   2.310   1.852 -0.0156  0.5303 -0.1114
 1123SOL    HW2 4563   3.084   2.353   1.859 -0.2321  0.9098  0.2808
 1123SOL    HW3 4564   3.016   2.219   1.875  0.5366  0.2922 -1.4375
 1123SOL    MW4 4565   3.012   2.303   1.856  0.0286  0.5491 -0.2346
 1124SOL     OW 4566   2.765   2.429   1.984 -0.0523 -0.1626  0.1070
 1124SOL    HW2 4567   2.777   2.520   1.957 -0.6608  0.0917  0.6860
 1124SOL    HW3 4568   2.847   2.385   1.958 -0.0750  0.3760 -0.8762
 1124SOL    MW4 4569   2.778   2.435   1.977 -0.1357 -0.0579  0.0538
 1125SOL     OW 4570   2.739   2.676   1.875  0.5779 -0.1344  0.2517
 1125SOL    HW2 4571   2.649   2.702   1.895  0.0286 -0.9339 -1.0285
 1125SOL    HW3 4572   2.738   2.660   1.780  1.8210 -1.0820  0.3824
 1125SOL    MW4 4573   2.727   2.677   1.865  0.6695 -0.3648  0.0999
 1126SOL     OW 4574   2.944   2.857   1.973  0.4563 -0.2989  0.0234
 1126SOL    HW2 4575   2.924   2.941   1.931 -1.6833 -0.3020  0.9657
 1126SOL    HW3 4576   2.884   2.795   1.932  2.1310 -1.4295 -0.7735
 1126SOL    MW4 4577   2.934   2.860   1.962  0.3951 -0.4485  0.0424
 1127SOL     OW 4578   2.920   3.099   1.850  0.2743  0.3216 -0.4421
 1127SOL    HW2 4579   3.001   3.140   1.881  0.2241 -0.9729  1.4667
 1127SOL    HW3 4580   2.851   3.136   1.905 -0.1954  0.0723 -0.8609
 1127SOL    MW4 4581   2.922   3.109   1.861  0.2055  0.1180 -0.2455
 1128SOL     OW 4582   2.679   3.222   2.011  0.2183  0.2560  0.0165
 1128SOL    HW2 4583   2.684   3.295   1.949  0.7667  0.2443  0.0463
 1128SOL    HW3 4584   2.616   3.162   1.971 -0.3903  0.8332  0.0890
 1128SOL    MW4 4585   2.671   3.224   1.997  0.2105  0.3302  0.0298
 1129SOL     OW 4586   2.699   3.439   1.862 -0.1603  0.1627  0.2847
 1129SOL    HW2 4587   2.772   3.494   1.891  0.6772 -0.2824 -0.9494
 1129SOL    HW3 4588   2.620   3.489   1.886  0.5754  1.4516  0.0727
 1129SOL    MW4 4589   2.698   3.453   1.869  0.0472  0.2744  0.0938
 1130SOL     OW 4590   2.890   3.605   1.983 -0.6321 -0.0440 -0.5737
 1130SOL    HW2 4591   2.882   3.614   2.078 -2.7378  0.0608 -0.7329
 1130SOL    HW3 4592   2.968   3.551   1.970 -0.5724 -0.4149  1.2237
 1130SOL    MW4 4593   2.899   3.599   1.993 -0.9019 -0.0792 -0.3575
 1131SOL     OW 4594   2.923   3.874   1.897 -0.0656  0.1023  0.3390
 1131SOL    HW2 4595   2.914   3.790   1.941 -1.2996 -0.0200 -0.1174
 1131SOL    HW3 4596   2.940   3.852   1.806 -2.9533  0.3061 -0.2926
 1131SOL    MW4 4597   2.924   3.860   1.891 -0.6094  0.1128  0.1954
 1132SOL     OW 4598   2.704   4.010   1.951  0.1375 -0.0241  0.0223
 1132SOL    HW2 4599   2.784   3.963   1.928  0.6315  1.4299 -1.3278
 1132SOL    HW3 4600   2.635   3.969   1.897 -0.0423 -1.2146  1.1190
 1132SOL    MW4 4601   2.705   3.998   1.941  0.1786  0.0107 -0.0112
 1133SOL     OW 4602   2.673   4.277   1.879 -0.5829  0.2079  0.2364
 1133SOL    HW2 4603   2.685   4.186   1.906  0.2861  0.0984 -0.5060
 1133SOL    HW3 4604   2.683   4.275   1.784 -1.4763  0.9399  0.1232
 1133SOL    MW4 4605   2.676   4.265   1.870 -0.5858  0.2899  0.1235
 1134SOL     OW 4606   2.920   4.362   1.987  0.1083 -0.9575 -0.0438
 1134SOL    HW2 4607   2.915   4.361   2.083 -0.0318 -1.1290 -0.0534
 1134SOL    HW3 4608   2.831   4.340   1.958  0.3111 -1.5572 -0.2117
 1134SOL    MW4 4609   2.908   4.359   1.996  0.1163 -1.0600 -0.0672
 1135SOL     OW 4610   3.360   4.640   1.902 -0.1953  0.1250 -0.0054
 1135SOL    HW2 4611   3.378   4.560   1.952  0.5352 -0.0694 -0.5554
 1135SOL    HW3 4612   3.404   4.625   1.818 -0.7555  0.7635 -0.4187
 1135SOL    MW4 4613   3.368   4.627   1.897 -0.1729  0.1836 -0.1323
 1136SOL     OW 4614   3.131   0.118   1.929  0.0246 -0.0316  0.4097
 1136SOL    HW2 4615   3.122   0.126   2.024 -0.6014  0.5396  0.3169
 1136SOL    HW3 4616   3.208   0.064   1.915  1.1351  1.3246  1.2264
 1136SOL    MW4 4617   3.140   0.112   1.940  0.0885  0.2227  0.5052
 1137SOL     OW 4618   3.158   0.402   1.894  0.0667  0.3874 -0.0944
 1137SOL    HW2 4619   3.142   0.310   1.917 -0.3071  0.1789 -1.1628
 1137SOL    HW3 4620   3.152   0.404   1.799 -2.1795  1.9384  0.0397
 1137SOL    MW4 4621   3.155   0.390   1.884 -0.2792  0.5645 -0.2177
 1138SOL     OW 4622   3.377   0.520   2.011 -0.5141 -0.1592  0.0558
 1138SOL    HW2 4623   3.448   0.474   1.966  0.0097 -1.0425  1.7494
 1138SOL    HW3 4624   3.297   0.480   1.976 -0.1743  0.3936 -1.3815
 1138SOL    MW4 4625   3.376   0.508   2.000 -0.4003 -0.2028  0.0899
 1139SOL     OW 4626   3.383   0.765   1.884 -0.3049  0.0120  0.4633
 1139SOL    HW2 4627   3.317   0.817   1.930 -1.0207 -0.4707  0.0017
 1139SOL    HW3 4628   3.382   0.680   1.930 -0.7864 -0.3596 -0.2214
 1139SOL    MW4 4629   3.374   0.760   1.896 -0.4628 -0.1007  0.3121
 1140SOL     OW 4630   3.181   0.922   1.976 -0.0111 -0.0545  0.0925
 1140SOL    HW2 4631   3.173   0.919   2.071  1.4435 -1.2009  0.1915
 1140SOL    HW3 4632   3.177   1.015   1.954 -1.0258  0.1717  1.2075
 1140SOL    MW4 4633   3.179   0.934   1.985  0.0467 -0.1759  0.2526
 1141SOL     OW 4634   3.160   1.175   1.862 -0.0858  0.4384  0.1267
 1141SOL    HW2 4635   3.246   1.198   1.897  0.2954  0.1180 -0.5965
 1141SOL    HW3 4636   3.098   1.214   1.924  0.5793 -0.4159  1.3578
 1141SOL    MW4 4637   3.163   1.183   1.875  0.0522  0.2832  0.1936
 1142SOL     OW 4638   3.401   1.292   1.971 -0.2952 -0.2120  0.2846
 1142SOL    HW2 4639   3.395   1.300   2.066 -0.3550  0.6866  0.2097
 1142SOL    HW3 4640   3.411   1.382   1.940 -0.8956 -0.4443 -0.6006
 1142SOL    MW4 4641   3.402   1.304   1.980 -0.3822 -0.1242  0.1580
 1143SOL     OW 4642   3.428   1.539   1.853  0.2476 -0.4989 -0.4539
 1143SOL    HW2 4643   3.492   1.586   1.906 -1.1288  1.0673 -0.1263
 1143SOL    HW3 4644   3.343   1.566   1.888 -0.6149 -2.2428 -1.1235
 1143SOL    MW4 4645   3.425   1.549   1.864 -0.0477 -0.5223 -0.4990
 1144SOL     OW 4646   3.215   1.664   1.978  0.6714  0.1482 -0.4406
 1144SOL    HW2 4647   3.197   1.676   2.072 -1.4404 -0.3950 -0.7587
 1144SOL    HW3 4648   3.227   1.753   1.945  1.4329  0.3428  0.3382
 1144SOL    MW4 4649   3.214   1.678   1.986  0.4933  0.1022 -0.3798
 1145SOL     OW 4650   3.244   1.912   1.864 -0.1820  0.1259  0.4504
 1145SOL    HW2 4651   3.290   1.994   1.884  0.2200  0.2197 -0.8152
 1145SOL    HW3 4652   3.220   1.920   1.772  0.2066 -1.3526  0.2095
 1145SOL    MW4 4653   3.247   1.924   1.854 -0.0775 -0.0567  0.2518
 1146SOL     OW 4654   3.424   2.101   1.965  0.4082  0.0679  0.1443
 1146SOL    HW2 4655   3.493   2.053   1.919  0.0602 -0.1578 -0.1456
 1146SOL    HW3 4656   3.429   2.190   1.929  1.1541  0.2942  0.7949
 1146SOL    MW4 4657   3.434   2.106   1.954  0.4606  0.0679  0.1918
 1147SOL     OW 4658   3.450   2.351   1.849 -0.1352 -0.6127 -0.1565
 1147SOL    HW2 4659   3.369   2.382   1.889  0.8586  0.0025  1.4099
 1147SOL    HW3 4660   3.432   2.354   1.754 -1.8735 -0.3543  0.1589
 1147SOL    MW4 4661   3.437   2.356   1.841 -0.2334 -0.4976  0.0918
 1148SOL     OW 4662   3.212   2.459   1.916  0.0606 -0.3966 -0.9475
 1148SOL    HW2 4663   3.206   2.462   2.011 -0.3746 -1.7180 -0.9265
 1148SOL    HW3 4664   3.213   2.551   1.889 -0.1468 -0.0220  0.3032
 1148SOL    MW4 4665   3.211   2.472   1.925 -0.0243 -0.5214 -0.7796
 1149SOL     OW 4666   3.177   2.748   1.877  0.3480 -0.1547 -0.2672
 1149SOL    HW2 4667   3.099   2.774   1.927 -1.1259 -3.0915 -0.9267
 1149SOL    HW3 4668   3.154   2.766   1.786  0.4281 -0.9597 -0.4538
 1149SOL    MW4 4669   3.163   2.754   1.872  0.1640 -0.6485 -0.3790
 1150SOL     OW 4670   3.438   2.817   1.958 -0.2083 -0.2930 -0.1881
 1150SOL    HW2 4671   3.439   2.832   2.053 -0.3099  2.3165 -0.5585
 1150SOL    HW3 4672   3.352   2.780   1.941 -0.0497 -1.1405  0.7751
 1150SOL    MW4 4673   3.427   2.814   1.968 -0.2007 -0.0606 -0.1099
 1151SOL     OW 4674   3.371   3.055   1.833 -0.2800 -0.0675 -0.0400
 1151SOL    HW2 4675   3.435   3.107   1.881 -0.4158  0.1087 -0.0501
 1151SOL    HW3 4676   3.387   2.965   1.862  0.3266 -0.0907 -0.4460
 1151SOL    MW4 4677   3.382   3.050   1.843 -0.2179 -0.0472 -0.0949
 1152SOL     OW 4678   3.153   3.215   1.960 -1.0661 -0.1935 -0.4083
 1152SOL    HW2 4679   3.152   3.306   1.930 -0.7637  0.6261  1.9348
 1152SOL    HW3 4680   3.230   3.177   1.917 -0.3104  1.0950 -0.2414
 1152SOL    MW4 4681   3.163   3.222   1.950 -0.9263  0.0842 -0.0771
 1153SOL     OW 4682   3.145   3.489   1.898  0.1013 -0.3859  0.6817
 1153SOL    HW2 4683   3.222   3.525   1.940  1.2708 -1.1972 -0.7002
 1153SOL    HW3 4684   3.150   3.521   1.808 -0.8057 -0.9952  0.4103
 1153SOL    MW4 4685   3.156   3.498   1.891  0.1357 -0.5732  0.4635
 1154SOL     OW 4686   3.380   3.601   2.003  0.0298  0.2154  0.3120
 1154SOL    HW2 4687   3.448   3.541   1.974  0.1572  0.1694  0.7071
 1154SOL    HW3 4688   3.400   3.684   1.959 -0.3096 -0.1024 -0.4623
 1154SOL    MW4 4689   3.391   3.604   1.993  0.0021  0.1674  0.2620
 1155SOL     OW 4690   3.391   3.846   1.847 -0.0924  0.7064  0.1222
 1155SOL    HW2 4691   3.319   3.896   1.885 -0.0957  0.0449  1.0204
 1155SOL    HW3 4692   3.377   3.850   1.753 -0.4006  1.9289  0.2191
 1155SOL    MW4 4693   3.380   3.853   1.840 -0.1338  0.7803  0.2536
 1156SOL     OW 4694   3.173   3.987   1.974  0.0796 -0.0972 -0.0823
 1156SOL    HW2 4695   3.176   3.990   2.070  2.2929  0.3217 -0.1452
 1156SOL    HW3 4696   3.085   3.954   1.954 -0.5057  0.0582  2.0768
 1156SOL    MW4 4697   3.162   3.983   1.984  0.2942 -0.0215  0.1942
 1157SOL     OW 4698   3.174   4.266   1.882  0.2668 -0.2903  0.2797
 1157SOL    HW2 4699   3.196   4.176   1.907  0.0582 -0.0877  1.2115
 1157SOL    HW3 4700   3.100   4.289   1.939  1.2246  0.9567  1.0557
 1157SOL    MW4 4701   3.167   4.257   1.893  0.3655 -0.0992  0.5050
 1158SOL     OW 4702   3.393   4.374   2.003  0.1411  0.1210  0.5457
 1158SOL    HW2 4703   3.461   4.322   1.961 -0.3666 -0.2669  0.1921
 1158SOL    HW3 4704   3.312   4.346   1.960 -0.2230  0.6752  0.8649
 1158SOL    MW4 4705   3.391   4.364   1.992  0.0260  0.1421  0.5410
 1159SOL     OW 4706   3.783   0.012   1.898  0.2946 -0.2068 -0.2743
 1159SOL    HW2 4707   3.775  -0.079   1.926  0.9777  0.1986  1.2699
 1159SOL    HW3 4708   3.696   0.050   1.912  0.1934 -0.4318 -0.2877
 1159SOL    MW4 4709   3.771   0.005   1.903  0.3715 -0.1830 -0.0724
 1160SOL     OW 4710   3.562   0.149   1.975  0.5031  0.1033  0.3776
 1160SOL    HW2 4711   3.548   0.146   2.070 -0.0260  1.4329  0.3688
 1160SOL    HW3 4712   3.493   0.093   1.939  0.9433 -0.7091  0.7968
 1160SOL    MW4 4713   3.551   0.141   1.983  0.4914  0.1715  0.4319
 1161SOL     OW 4714   3.582   0.416   1.863 -0.7702  0.0318 -0.1569
 1161SOL    HW2 4715   3.560   0.327   1.890 -1.2702  0.0547 -0.4884
 1161SOL    HW3 4716   3.601   0.409   1.769 -0.2740  0.1797 -0.0726
 1161SOL    MW4 4717   3.582   0.403   1.854 -0.7706  0.0543 -0.1895
 1162SOL     OW 4718   3.808   0.496   1.988 -0.2936  0.4158 -0.5316
 1162SOL    HW2 4719   3.790   0.590   1.992 -1.6150  0.1650 -0.2657
 1162SOL    HW3 4720   3.726   0.458   1.955  0.1010 -0.6787 -0.2672
 1162SOL    MW4 4721   3.795   0.504   1.984 -0.4158  0.2384 -0.4617
 1163SOL     OW 4722   3.816   0.763   1.918 -0.0924  0.3084  0.5572
 1163SOL    HW2 4723   3.746   0.824   1.940  0.8874  1.2384  1.1287
 1163SOL    HW3 4724   3.804   0.746   1.824 -1.1901  0.3047  0.6918
 1163SOL    MW4 4725   3.805   0.769   1.908 -0.1078  0.4306  0.6503
 1164SOL     OW 4726   3.601   0.899   1.986  0.8134  0.3390  0.0054
 1164SOL    HW2 4727   3.602   0.991   1.959 -1.3411  0.5525  0.5056
 1164SOL    HW3 4728   3.519   0.865   1.950  0.6077 -0.8435  1.5412
 1164SOL    MW4 4729   3.590   0.907   1.978  0.5019  0.2112  0.2739
 1165SOL     OW 4730   3.632   1.147   1.874 -0.0865 -0.2038 -0.0544
 1165SOL    HW2 4731   3.549   1.187   1.898  0.3938  0.3597  0.6717
 1165SOL    HW3 4732   3.623   1.127   1.781 -0.3729  1.4992 -0.4080
 1165SOL    MW4 4733   3.620   1.150   1.865 -0.0613  0.0951 -0.0052
 1166SOL     OW 4734   3.841   1.318   1.948  0.2917 -0.1308  0.2792
 1166SOL    HW2 4735   3.827   1.304   2.042 -0.9882  1.4482  0.3682
 1166SOL    HW3 4736   3.777   1.261   1.906  0.3209 -0.2600  0.4108
 1166SOL    MW4 4737   3.830   1.309   1.955  0.1268  0.0604  0.3082
 1167SOL     OW 4738   3.823   1.579   1.881 -0.4502 -0.0401 -0.5168
 1167SOL    HW2 4739   3.906   1.623   1.899 -1.1584  0.5969  1.3742
 1167SOL    HW3 4740   3.838   1.488   1.906  0.4338 -0.4887 -2.6033
 1167SOL    MW4 4741   3.836   1.573   1.887 -0.4270 -0.0151 -0.5426
 1168SOL     OW 4742   3.621   1.707   1.998 -0.5246 -0.2107 -0.3497
 1168SOL    HW2 4743   3.635   1.789   1.951  0.7431 -0.2736 -0.1000
 1168SOL    HW3 4744   3.693   1.651   1.971 -1.8475 -1.5481 -1.1669
 1168SOL    MW4 4745   3.632   1.711   1.989 -0.5317 -0.3954 -0.4246
 1169SOL     OW 4746   3.614   1.941   1.837 -0.5789  0.0646  0.4413
 1169SOL    HW2 4747   3.700   1.977   1.859  0.1637 -1.8701  0.8384
 1169SOL    HW3 4748   3.606   1.954   1.742  0.2478  0.0638  0.3679
 1169SOL    MW4 4749   3.624   1.948   1.827 -0.3719 -0.1907  0.4841
 1170SOL     OW 4750   3.837   2.058   1.947  0.2450  0.2982 -0.1293
 1170SOL    HW2 4751   3.926   2.022   1.939  0.1498 -0.0252  0.2356
 1170SOL    HW3 4752   3.848   2.152   1.935  0.7342  0.3361  0.5638
 1170SOL    MW4 4753   3.851   2.066   1.945  0.2973  0.2606  0.0103
 1171SOL     OW 4754   3.866   2.363   1.844 -0.0581 -0.4615  0.2908
 1171SOL    HW2 4755   3.951   2.397   1.873  0.2903 -2.1587  1.3688
 1171SOL    HW3 4756   3.801   2.417   1.890  0.4842 -1.6580  2.5297
 1171SOL    MW4 4757   3.869   2.375   1.854  0.0594 -0.8433  0.7282
 1172SOL     OW 4758   3.646   2.526   1.941 -0.4329 -0.0196 -0.1327
 1172SOL    HW2 4759   3.645   2.605   1.887  0.4482 -0.8153 -1.3368
 1172SOL    HW3 4760   3.584   2.467   1.899 -0.6313 -0.2094  0.4146
 1172SOL    MW4 4761   3.637   2.528   1.928 -0.3431 -0.1497 -0.2193
 1173SOL     OW 4762   3.669   2.763   1.816  0.2415 -0.0811  0.0554
 1173SOL    HW2 4763   3.749   2.799   1.854  0.4252 -2.2218  1.7569
 1173SOL    HW3 4764   3.599   2.793   1.873  0.1483 -0.6313  0.2269
 1173SOL    MW4 4765   3.671   2.772   1.828  0.2534 -0.4363  0.3024
 1174SOL     OW 4766   3.887   2.881   1.964  0.3140  0.0954  0.3728
 1174SOL    HW2 4767   3.866   2.878   2.057  0.6712  1.5532  0.5097
 1174SOL    HW3 4768   3.882   2.974   1.941  1.6892 -0.0882 -0.7242
 1174SOL    MW4 4769   3.884   2.893   1.973  0.5426  0.2635  0.2460
 1175SOL     OW 4770   3.826   3.120   1.837  0.1213 -0.3064  0.0916
 1175SOL    HW2 4771   3.748   3.155   1.878  0.6173 -0.2163  0.9729
 1175SOL    HW3 4772   3.809   3.127   1.743 -1.3446 -1.2542  0.2794
 1175SOL    MW4 4773   3.814   3.126   1.830 -0.0067 -0.4196  0.2326
 1176SOL     OW 4774   3.597   3.194   1.949 -0.0103 -0.2712 -0.3785
 1176SOL    HW2 4775   3.586   3.203   2.043  0.4114 -1.6582 -0.1817
 1176SOL    HW3 4776   3.583   3.282   1.914 -0.5366  0.1747  0.9364
 1176SOL    MW4 4777   3.594   3.207   1.956 -0.0241 -0.3958 -0.1792
 1177SOL     OW 4778   3.587   3.466   1.876  0.9097  0.3890 -0.3709
 1177SOL    HW2 4779   3.665   3.495   1.923  1.9529 -1.2805 -1.0344
 1177SOL    HW3 4780   3.607   3.482   1.783  0.5803 -0.2593 -0.5621
 1177SOL    MW4 4781   3.600   3.472   1.870  1.0040  0.0832 -0.4838
 1178SOL     OW 4782   3.828   3.558   1.978 -0.0754 -0.4327 -0.2017
 1178SOL    HW2 4783   3.895   3.504   1.936  0.4419 -0.3964  0.5685
 1178SOL    HW3 4784   3.836   3.644   1.936  0.6426 -0.3106  0.1831
 1178SOL    MW4 4785   3.838   3.562   1.967  0.0875 -0.4117 -0.0492
 1179SOL     OW 4786   3.841   3.815   1.888 -0.8894 -0.7058  0.3647
 1179SOL    HW2 4787   3.761   3.865   1.908  0.0119  1.1323 -0.4812
 1179SOL    HW3 4788   3.846   3.817   1.792  0.8395  0.3043  0.4614
 1179SOL    MW4 4789   3.831   3.822   1.878 -0.5422 -0.3302  0.2658
 1180SOL     OW 4790   3.627   3.983   1.944  0.1520 -0.2022 -0.3021
 1180SOL    HW2 4791   3.613   3.988   2.039 -0.2370 -0.5754 -0.3364
 1180SOL    HW3 4792   3.554   3.929   1.912 -0.7545  1.4403 -1.0487
 1180SOL    MW4 4793   3.615   3.976   1.952 -0.0188 -0.0348 -0.4051
 1181SOL     OW 4794   3.604   4.249   1.893  0.0610  0.1148  0.0993
 1181SOL    HW2 4795   3.679   4.300   1.924  0.0195  0.2003  0.0599
 1181SOL    HW3 4796   3.617   4.161   1.929 -0.2295  0.3319  0.7475
 1181SOL    MW4 4797   3.616   4.244   1.902  0.0169  0.1550  0.1796
 1182SOL     OW 4798   3.814   4.408   1.971  0.1885  0.1979  0.2807
 1182SOL    HW2 4799   3.825   4.397   2.065 -0.6437 -1.3105  0.2108
 1182SOL    HW3 4800   3.900   4.386   1.934  0.5477  0.9006  0.6785
 1182SOL    MW4 4801   3.827   4.404   1.978  0.1261  0.0911  0.3240
 1183SOL     OW 4802   4.248   4.661   1.890  0.1997 -0.2519  0.5808
 1183SOL    HW2 4803   4.174   4.717   1.915 -0.0258  0.0288 -0.6753
 1183SOL    HW3 4804   4.325   4.709   1.921 -0.0115  0.5880 -0.1647
 1183SOL    MW4 4805   4.248   4.675   1.898  0.1416 -0.1041  0.3165
 1184SOL     OW 4806   4.020   0.129   1.974 -0.5631 -0.3020  0.0982
 1184SOL    HW2 4807   4.016   0.135   2.070  0.3172  1.6206  0.0411
 1184SOL    HW3 4808   3.933   0.099   1.949 -1.4556  1.0771  1.4050
 1184SOL    MW4 4809   4.008   0.126   1.983 -0.5646  0.1336  0.2630
 1185SOL     OW 4810   4.058   0.399   1.885 -0.0714 -0.1488  0.1598
 1185SOL    HW2 4811   4.057   0.309   1.918 -0.7614 -0.8000 -1.5772
 1185SOL    HW3 4812   3.976   0.437   1.918 -1.6358 -1.3468 -2.1905
 1185SOL    MW4 4813   4.047   0.392   1.894 -0.3691 -0.3927 -0.3794
 1186SOL     OW 4814   4.297   0.502   1.971 -0.4241  0.3129 -0.0243
 1186SOL    HW2 4815   4.300   0.499   2.067  0.4780 -2.8078 -0.1028
 1186SOL    HW3 4816   4.223   0.446   1.948 -0.4289  0.7942 -1.1606
 1186SOL    MW4 4817   4.288   0.494   1.981 -0.3061 -0.0353 -0.1847
 1187SOL     OW 4818   4.256   0.753   1.844  0.4379  0.8025 -0.1003
 1187SOL    HW2 4819   4.246   0.663   1.875  1.9368  0.7663  0.3426
 1187SOL    HW3 4820   4.270   0.745   1.749  0.5327  0.5796 -0.0660
 1187SOL    MW4 4821   4.257   0.740   1.835  0.6485  0.7683 -0.0372
 1188SOL     OW 4822   4.064   0.880   1.984  0.1973  0.3281 -0.8275
 1188SOL    HW2 4823   4.134   0.836   1.936  0.6674  0.7477 -0.5192
 1188SOL    HW3 4824   3.985   0.832   1.958  0.8583 -1.5562  0.5308
 1188SOL    MW4 4825   4.063   0.867   1.974  0.3467  0.1349 -0.6076
 1189SOL     OW 4826   4.080   1.161   1.921 -0.0092  0.2297  0.2612
 1189SOL    HW2 4827   4.063   1.069   1.944 -0.9017  0.2539 -0.2733
 1189SOL    HW3 4828   3.998   1.206   1.943 -0.6749  0.3610 -2.3729
 1189SOL    MW4 4829   4.067   1.154   1.927 -0.2151  0.2502 -0.1568
 1190SOL     OW 4830   4.307   1.297   1.978 -0.5861 -0.1816 -0.0450
 1190SOL    HW2 4831   4.293   1.320   2.069 -1.1024  0.8001 -0.3642
 1190SOL    HW3 4832   4.227   1.252   1.952 -0.5045 -0.3167 -0.0640
 1190SOL    MW4 4833   4.294   1.294   1.986 -0.6433 -0.0699 -0.0896
 1191SOL     OW 4834   4.321   1.558   1.890  0.2160 -0.2713  0.5648
 1191SOL    HW2 4835   4.327   1.464   1.910 -2.9082 -0.4751  0.8738
 1191SOL    HW3 4836   4.319   1.561   1.794  1.5963 -0.4085  0.5261
 1191SOL    MW4 4837   4.321   1.546   1.880 -0.0138 -0.3163  0.6005
 1192SOL     OW 4838   4.088   1.682   1.945  0.4504 -0.4856  0.5361
 1192SOL    HW2 4839   4.075   1.667   2.038 -1.2810 -1.1412  0.2087
 1192SOL    HW3 4840   4.176   1.648   1.927  1.3130  0.8369  2.1566
 1192SOL    MW4 4841   4.098   1.675   1.955  0.3357 -0.3976  0.7067
 1193SOL     OW 4842   4.088   1.948   1.908  0.5235 -0.1102  0.0566
 1193SOL    HW2 4843   4.091   1.859   1.942  1.0412 -0.3493 -0.6086
 1193SOL    HW3 4844   4.075   1.938   1.814  1.3246  0.4965 -0.1258
 1193SOL    MW4 4845   4.086   1.935   1.900  0.6971 -0.0616 -0.0554
 1194SOL     OW 4846   4.322   2.082   2.025 -0.0924  0.6121  0.1748
 1194SOL    HW2 4847   4.329   2.063   2.119 -1.5727  2.5973  0.7166
 1194SOL    HW3 4848   4.251   2.025   1.995  0.0871  0.2960  0.3415
 1194SOL    MW4 4849   4.314   2.072   2.033 -0.2642  0.8321  0.2685
 1195SOL     OW 4850   4.308   2.327   1.881  0.5791 -0.2803 -0.1107
 1195SOL    HW2 4851   4.306   2.238   1.917  0.2959 -0.8972 -1.6040
 1195SOL    HW3 4852   4.388   2.365   1.917  0.3553 -0.9023  1.0786
 1195SOL    MW4 4853   4.318   2.320   1.891  0.5121 -0.4439 -0.1509
 1196SOL     OW 4854   4.094   2.470   1.950  0.0529 -0.4506  0.6557
 1196SOL    HW2 4855   4.061   2.442   2.036  1.0850 -0.1741  1.1513
 1196SOL    HW3 4856   4.181   2.429   1.944  0.2870  0.1304  0.0657
 1196SOL    MW4 4857   4.101   2.461   1.961  0.2203 -0.3374  0.6434
 1197SOL     OW 4858   4.062   2.718   1.837  0.3973 -0.2314  0.2442
 1197SOL    HW2 4859   4.078   2.643   1.895 -0.3691 -0.2139  0.4918
 1197SOL    HW3 4860   4.003   2.774   1.888  1.4734  0.8450  0.3090
 1197SOL    MW4 4861   4.056   2.715   1.852  0.4377 -0.0870  0.2854
 1198SOL     OW 4862   4.281   2.846   1.926  0.2806 -0.0406  0.0121
 1198SOL    HW2 4863   4.295   2.829   2.019 -1.1963  0.8182  0.4001
 1198SOL    HW3 4864   4.208   2.789   1.901  0.1048  0.3674 -0.4160
 1198SOL    MW4 4865   4.273   2.836   1.935  0.0625  0.1266  0.0067
 1199SOL     OW 4866   4.304   3.121   1.831  0.3520 -0.3254 -0.1273
 1199SOL    HW2 4867   4.220   3.160   1.854  0.1619 -0.6534 -0.2596
 1199SOL    HW3 4868   4.306   3.038   1.879  0.5555 -0.3642 -0.2010
 1199SOL    MW4 4869   4.293   3.115   1.840  0.3538 -0.3741 -0.1546
 1200SOL     OW 4870   4.071   3.238   1.925  0.5021  0.2633 -0.1889
 1200SOL    HW2 4871   4.070   3.218   2.019  2.1486 -1.3671 -0.5100
 1200SOL    HW3 4872   3.992   3.195   1.891 -0.9242  2.1276  0.6727
 1200SOL    MW4 4873   4.060   3.230   1.933  0.5312  0.2942 -0.1175
 1201SOL     OW 4874   4.065   3.484   1.835 -0.7065 -0.1793  0.1385
 1201SOL    HW2 4875   4.125   3.545   1.879 -1.3226  0.7145 -0.2417
 1201SOL    HW3 4876   4.079   3.401   1.880 -0.3501  0.4034  1.1373
 1201SOL    MW4 4877   4.075   3.481   1.847 -0.7405  0.0155  0.2201
 1202SOL     OW 4878   4.265   3.611   1.992  0.3628  0.1373  0.0509
 1202SOL    HW2 4879   4.243   3.699   1.963  0.4934  0.8564  2.0747
 1202SOL    HW3 4880   4.343   3.587   1.943  1.2092  1.7555  0.5831
 1202SOL    MW4 4881   4.272   3.619   1.982  0.4916  0.4458  0.3881
 1203SOL     OW 4882   4.263   3.878   1.863  0.0893 -0.2178  0.0696
 1203SOL    HW2 4883   4.331   3.924   1.914 -0.0249 -0.4747  0.4554
 1203SOL    HW3 4884   4.295   3.882   1.773  0.2211  0.3720  0.1368
 1203SOL    MW4 4885   4.276   3.885   1.858  0.0920 -0.1738  0.1293
 1204SOL     OW 4886   4.045   3.994   1.969 -0.0461  0.1368 -0.1841
 1204SOL    HW2 4887   4.128   3.971   1.927  1.3620 -0.0048  2.5441
 1204SOL    HW3 4888   3.980   3.940   1.925  1.5334 -0.7663 -1.4588
 1204SOL    MW4 4889   4.047   3.984   1.958  0.3486 -0.0010  0.0077
 1205SOL     OW 4890   4.057   4.277   1.875  0.2920 -0.3768 -0.0555
 1205SOL    HW2 4891   4.138   4.307   1.917 -0.0809 -0.5815  0.8309
 1205SOL    HW3 4892   4.048   4.185   1.901  0.3018 -0.6481 -0.9875
 1205SOL    MW4 4893   4.066   4.269   1.884  0.2437 -0.4401 -0.0614
 1206SOL     OW 4894   4.286   4.389   1.958  0.5685 -0.2506 -0.0168
 1206SOL    HW2 4895   4.288   4.387   2.054  0.0021 -1.3873 -0.0155
 1206SOL    HW3 4896   4.259   4.478   1.936 -1.5932 -0.6182  0.9422
 1206SOL    MW4 4897   4.283   4.400   1.968  0.2089 -0.4492  0.1099
 1207SOL     OW 4898   0.219   4.628   2.331  0.3382  0.2709 -0.2366
 1207SOL    HW2 4899   0.217   4.636   2.426  0.0434  1.3461 -0.3226
 1207SOL    HW3 4900   0.284   4.693   2.303  0.8300 -0.4288 -0.7288
 1207SOL    MW4 4901   0.227   4.638   2.340  0.3642  0.3204 -0.3130
 1208SOL     OW 4902   0.009   0.129   2.259 -0.4634 -0.0849 -0.3575
 1208SOL    HW2 4903   0.078   0.063   2.272  1.9026  2.3676  0.0762
 1208SOL    HW3 4904  -0.002   0.134   2.164  0.8315  0.3503 -0.4914
 1208SOL    MW4 4905   0.017   0.121   2.248  0.0191  0.2961 -0.3181
 1209SOL     OW 4906   0.001   0.372   2.396  0.4187  0.1328 -0.1154
 1209SOL    HW2 4907   0.066   0.407   2.335 -0.7493  0.8401 -0.9677
 1209SOL    HW3 4908  -0.004   0.279   2.375  2.1658 -0.2098  0.8951
 1209SOL    MW4 4909   0.009   0.364   2.385  0.4950  0.1810 -0.0944
 1210SOL     OW 4910   0.223   0.487   2.287  0.1036  0.0090 -0.0166
 1210SOL    HW2 4911   0.307   0.451   2.315  0.2409 -0.3273 -0.8509
 1210SOL    HW3 4912   0.223   0.477   2.192 -0.1421  1.6011 -0.1978
 1210SOL    MW4 4913   0.234   0.481   2.278  0.0893  0.1746 -0.1509
 1211SOL     OW 4914   0.201   0.746   2.377 -0.7282  0.4841 -0.0665
 1211SOL    HW2 4915   0.199   0.752   2.472 -0.8217  0.6860 -0.0817
 1211SOL    HW3 4916   0.203   0.652   2.359 -0.3909  0.4484  0.1427
 1211SOL    MW4 4917   0.201   0.735   2.387 -0.6960  0.5060 -0.0410
 1212SOL     OW 4918   4.453   0.832   2.267 -0.1841 -0.0973 -0.0204
 1212SOL    HW2 4919   4.540   0.800   2.291  0.2171  0.3987 -0.7906
 1212SOL    HW3 4920   4.454   0.836   2.171 -1.0711 -0.1386 -0.0383
 1212SOL    MW4 4921   4.465   0.828   2.258 -0.2484 -0.0373 -0.1240
 1213SOL     OW 4922   4.412   1.126   2.372  0.1606  0.2489 -0.3840
 1213SOL    HW2 4923   4.406   1.145   2.465  0.4463 -0.4123 -0.2308
 1213SOL    HW3 4924   4.408   1.031   2.366  0.1997  0.2834 -1.0441
 1213SOL    MW4 4925   4.411   1.116   2.383  0.2031  0.1663 -0.4508
 1214SOL     OW 4926   0.162   1.257   2.286 -0.2307 -0.3063 -0.2100
 1214SOL    HW2 4927   0.087   1.208   2.319 -1.8661  2.0130 -0.3411
 1214SOL    HW3 4928   0.150   1.261   2.191  0.4111 -0.4859 -0.3046
 1214SOL    MW4 4929   0.151   1.251   2.278 -0.3618 -0.0241 -0.2398
 1215SOL     OW 4930   0.228   1.528   2.355  0.1459  0.2065 -0.2767
 1215SOL    HW2 4931   0.227   1.530   2.450 -0.5910  1.3597 -0.3023
 1215SOL    HW3 4932   0.205   1.438   2.333 -1.0705  0.2888  0.6194
 1215SOL    MW4 4933   0.225   1.516   2.364 -0.1118  0.3695 -0.1616
 1216SOL     OW 4934   0.018   1.675   2.266 -0.1394 -0.3141 -0.1206
 1216SOL    HW2 4935   0.015   1.760   2.309  1.6555  0.7821 -2.0344
 1216SOL    HW3 4936   0.086   1.627   2.314  0.4570  0.1813 -0.4548
 1216SOL    MW4 4937   0.027   1.680   2.278  0.1761 -0.1041 -0.4172
 1217SOL     OW 4938   0.040   1.929   2.390 -0.5506 -0.0836 -0.0505
 1217SOL    HW2 4939  -0.031   1.989   2.367  0.0006 -0.6594 -3.4870
 1217SOL    HW3 4940   0.115   1.960   2.340  0.2978 -2.3565 -0.2222
 1217SOL    MW4 4941   0.040   1.941   2.380 -0.3660 -0.4594 -0.5264
 1218SOL     OW 4942   0.250   2.035   2.253 -0.0663  0.0436 -0.1346
 1218SOL    HW2 4943   0.330   1.988   2.275 -0.3358 -0.0566  0.6407
 1218SOL    HW3 4944   0.249   2.038   2.157  0.1232 -1.2464 -0.1825
 1218SOL    MW4 4945   0.260   2.029   2.243 -0.0769 -0.1400 -0.0389
 1219SOL     OW 4946   0.265   2.288   2.322  0.3820  0.1257  0.2880
 1219SOL    HW2 4947   0.246   2.298   2.415 -0.9716 -0.2115  0.0653
 1219SOL    HW3 4948   0.260   2.193   2.307  0.0885  0.2187 -0.2210
 1219SOL    MW4 4949   0.262   2.277   2.332  0.1646  0.0937  0.1912
 1220SOL     OW 4950   0.004   2.420   2.283  0.2018 -0.3466  0.0149
 1220SOL    HW2 4951   0.018   2.509   2.315  1.3018 -0.1703 -0.8769
 1220SOL    HW3 4952   0.078   2.370   2.318 -0.5213 -0.9488  0.6747
 1220SOL    MW4 4953   0.016   2.425   2.292  0.2513 -0.4029 -0.0157
 1221SOL     OW 4954   0.035   2.687   2.369  0.0879 -0.6466 -0.1969
 1221SOL    HW2 4955   0.049   2.696   2.464 -0.4921  0.4101 -0.1993
 1221SOL    HW3 4956   0.100   2.746   2.330  0.5839 -1.3727 -0.4776
 1221SOL    MW4 4957   0.046   2.696   2.377  0.0768 -0.6027 -0.2344
 1222SOL     OW 4958   0.224   2.859   2.252  0.2784 -0.2143 -0.2247
 1222SOL    HW2 4959   0.310   2.818   2.264  0.0241 -0.6099  0.2879
 1222SOL    HW3 4960   0.215   2.871   2.158  0.3633 -1.3395 -0.3843
 1222SOL    MW4 4961   0.234   2.855   2.241  0.2560 -0.4151 -0.1781
 1223SOL     OW 4962   0.228   3.114   2.364  0.2214  0.1125  0.1117
 1223SOL    HW2 4963   0.142   3.141   2.332  0.2465 -0.5166 -0.4993
 1223SOL    HW3 4964   0.240   3.025   2.330  1.2309  0.2999 -0.0598
 1223SOL    MW4 4965   0.218   3.106   2.355  0.3579  0.0544  0.0086
 1224SOL     OW 4966   4.473   3.198   2.246  0.2796  0.2143 -0.8452
 1224SOL    HW2 4967   4.477   3.283   2.290  0.3272  0.4745 -1.3457
 1224SOL    HW3 4968   4.460   3.220   2.154  0.1568 -0.3277 -0.9554
 1224SOL    MW4 4969   4.472   3.212   2.240  0.2704  0.1771 -0.9258
 1225SOL     OW 4970   0.011   3.447   2.380 -0.3516 -0.4290  0.2160
 1225SOL    HW2 4971   0.013   3.473   2.472 -0.5145  0.2795  0.0225
 1225SOL    HW3 4972  -0.060   3.498   2.341  1.7264  1.7108 -0.9943
 1225SOL    MW4 4973   0.002   3.457   2.387 -0.0989 -0.0532  0.0308
 1226SOL     OW 4974   0.231   3.581   2.292 -0.4212 -0.2706 -0.3745
 1226SOL    HW2 4975   0.305   3.553   2.346 -0.3356 -0.6888 -0.7055
 1226SOL    HW3 4976   0.156   3.533   2.329 -0.4187 -0.3087 -0.4182
 1226SOL    MW4 4977   0.231   3.571   2.304 -0.4095 -0.3307 -0.4237
 1227SOL     OW 4978   0.254   3.846   2.355 -0.0420  0.3403  0.3047
 1227SOL    HW2 4979   0.174   3.888   2.323  0.6869  0.9550 -0.7191
 1227SOL    HW3 4980   0.251   3.757   2.319 -0.4528  0.2232  0.6111
 1227SOL    MW4 4981   0.243   3.840   2.346 -0.0000  0.4058  0.2100
 1228SOL     OW 4982   0.005   3.962   2.280 -0.1483 -0.0556  0.2988
 1228SOL    HW2 4983   0.009   4.053   2.310  0.6978 -0.6062  1.9575
 1228SOL    HW3 4984   0.000   3.968   2.185 -1.7201  1.7482  0.4656
 1228SOL    MW4 4985   0.005   3.975   2.272 -0.2440  0.1097  0.5395
 1229SOL     OW 4986   4.487   4.239   2.355 -0.1544  0.3672  0.0009
 1229SOL    HW2 4987   4.493   4.262   2.447  1.7292  0.6363 -0.1634
 1229SOL    HW3 4988   4.559   4.288   2.313  0.8308 -1.9595 -1.1349
 1229SOL    MW4 4989   4.498   4.248   2.361  0.2241  0.0958 -0.1705
 1230SOL     OW 4990   0.214   4.374   2.251  0.2369 -0.1540  0.3621
 1230SOL    HW2 4991   0.289   4.328   2.290 -0.7077  0.1993  2.6608
 1230SOL    HW3 4992   0.220   4.463   2.286  0.7328  0.8856 -2.2518
 1230SOL    MW4 4993   0.225   4.379   2.261  0.1777  0.0300  0.3204
 1231SOL     OW 4994   0.663   4.657   2.366  0.4418 -0.4407  0.2258
 1231SOL    HW2 4995   0.675   4.649   2.461 -0.0189 -0.4324  0.2843
 1231SOL    HW3 4996   0.745   4.696   2.336  0.8199 -0.9685  0.5435
 1231SOL    MW4 4997   0.675   4.661   2.375  0.4309 -0.5093  0.2754
 1232SOL     OW 4998   0.445   0.132   2.243 -0.0361  0.0750  0.0577
 1232SOL    HW2 4999   0.515   0.077   2.277  0.0168 -0.1681 -0.4342
 1232SOL    HW3 5000   0.455   0.127   2.147  0.1419  1.1533  0.0105
 1232SOL    MW4 5001   0.455   0.124   2.235 -0.0056  0.1852 -0.0138
 1233SOL     OW 5002   0.488   0.395   2.313 -0.3149  0.1515 -0.4229
 1233SOL    HW2 5003   0.495   0.400   2.408  3.1029  0.1830 -0.6236
 1233SOL    HW3 5004   0.482   0.301   2.294  0.7022  0.0567 -0.2754
 1233SOL    MW4 5005   0.488   0.383   2.323  0.2703  0.1431 -0.4299
 1234SOL     OW 5006   0.693   0.529   2.215  0.5128 -0.3848  0.5340
 1234SOL    HW2 5007   0.698   0.611   2.265 -0.2941 -0.6214  1.0232
 1234SOL    HW3 5008   0.614   0.486   2.248  0.6762 -1.1464 -0.0494
 1234SOL    MW4 5009   0.683   0.535   2.226  0.4279 -0.5165  0.5217
 1235SOL     OW 5010   0.671   0.759   2.369 -0.6337  0.0814 -0.5318
 1235SOL    HW2 5011   0.678   0.787   2.461 -0.3248 -0.8676 -0.2616
 1235SOL    HW3 5012   0.588   0.796   2.339 -0.7847  0.3117  0.1599
 1235SOL    MW4 5013   0.661   0.767   2.377 -0.6129 -0.0135 -0.4048
 1236SOL     OW 5014   0.432   0.853   2.269 -0.0136 -0.4043 -0.2301
 1236SOL    HW2 5015   0.354   0.822   2.316 -0.2999 -1.0249 -1.1049
 1236SOL    HW3 5016   0.411   0.839   2.177  1.4378 -1.2792 -0.4298
 1236SOL    MW4 5017   0.419   0.847   2.263  0.1401 -0.6016 -0.3719
 1237SOL     OW 5018   0.417   1.150   2.346  0.7110 -0.2519 -0.2290
 1237SOL    HW2 5019   0.426   1.058   2.322 -0.7219 -0.7135  0.9220
 1237SOL    HW3 5020   0.326   1.172   2.324  0.6559  0.5032  0.7171
 1237SOL    MW4 5021   0.406   1.141   2.340  0.5147 -0.2133  0.0474
 1238SOL     OW 5022   0.655   1.249   2.255  0.8012  0.1051  0.6964
 1238SOL    HW2 5023   0.665   1.336   2.294  0.4772  1.2341 -1.6564
 1238SOL    HW3 5024   0.568   1.221   2.280 -0.0561  1.5445 -0.5325
 1238SOL    MW4 5025   0.645   1.257   2.263  0.6453  0.4438  0.2239
 1239SOL     OW 5026   0.659   1.507   2.367 -0.5875  0.1624 -0.3295
 1239SOL    HW2 5027   0.670   1.520   2.461 -0.6683 -1.8069 -0.0129
 1239SOL    HW3 5028   0.728   1.560   2.326  1.6599 -1.6244  1.0075
 1239SOL    MW4 5029   0.670   1.516   2.374 -0.3016 -0.3333 -0.1116
 1240SOL     OW 5030   0.457   1.633   2.236  0.0262  0.0742  0.4006
 1240SOL    HW2 5031   0.528   1.588   2.282  0.6221  0.3705 -0.2093
 1240SOL    HW3 5032   0.377   1.601   2.277  0.4575 -1.2518  0.2344
 1240SOL    MW4 5033   0.456   1.622   2.247  0.1617 -0.0616  0.2985
 1241SOL     OW 5034   0.484   1.893   2.366  0.2193  0.3643 -0.0428
 1241SOL    HW2 5035   0.547   1.944   2.315  0.7855 -0.9896 -0.7318
 1241SOL    HW3 5036   0.487   1.805   2.327  0.6009 -0.6785  2.2664
 1241SOL    MW4 5037   0.493   1.888   2.354  0.3443  0.0482  0.1707
 1242SOL     OW 5038   0.656   2.041   2.207  0.4197  0.5821  0.1568
 1242SOL    HW2 5039   0.726   1.992   2.251  0.3638  0.7917  0.4868
 1242SOL    HW3 5040   0.653   2.124   2.254  0.7721  1.0561 -0.6542
 1242SOL    MW4 5041   0.665   2.045   2.219  0.4588  0.6723  0.0935
 1243SOL     OW 5042   0.683   2.286   2.322  0.5361 -0.2204  0.0382
 1243SOL    HW2 5043   0.687   2.286   2.417  1.7769 -1.4983 -0.0006
 1243SOL    HW3 5044   0.761   2.334   2.294 -0.4464  1.1998 -0.3308
 1243SOL    MW4 5045   0.694   2.293   2.331  0.5701 -0.2015 -0.0157
 1244SOL     OW 5046   0.478   2.446   2.249 -0.0998  0.2887 -0.1768
 1244SOL    HW2 5047   0.555   2.399   2.281 -0.4910 -0.7020 -0.6956
 1244SOL    HW3 5048   0.404   2.389   2.270 -0.4847  0.2210 -1.6520
 1244SOL    MW4 5049   0.479   2.432   2.256 -0.2022  0.1490 -0.4401
 1245SOL     OW 5050   0.471   2.728   2.312 -0.3259  0.5584  0.1381
 1245SOL    HW2 5051   0.447   2.731   2.404 -0.7837  0.0141  0.0400
 1245SOL    HW3 5052   0.475   2.635   2.291  0.5956  0.6625 -0.1842
 1245SOL    MW4 5053   0.468   2.717   2.321 -0.2647  0.5004  0.0827
 1246SOL     OW 5054   0.698   2.865   2.226  0.1066  0.4603  0.6741
 1246SOL    HW2 5055   0.773   2.820   2.266  0.9695  0.4396 -0.9347
 1246SOL    HW3 5056   0.622   2.814   2.255  0.9631 -1.3321 -0.1231
 1246SOL    MW4 5057   0.698   2.852   2.235  0.3334  0.2210  0.3564
 1247SOL     OW 5058   0.684   3.130   2.366 -0.0686 -0.2669  0.4735
 1247SOL    HW2 5059   0.596   3.165   2.353  0.5744  1.2302  0.0664
 1247SOL    HW3 5060   0.680   3.042   2.329 -0.6607  0.7670 -2.0460
 1247SOL    MW4 5061   0.672   3.123   2.359 -0.0619  0.0670  0.0875
 1248SOL     OW 5062   0.440   3.236   2.254  0.1565 -0.3531  0.4995
 1248SOL    HW2 5063   0.361   3.193   2.285  0.1317  0.4776  1.5841
 1248SOL    HW3 5064   0.429   3.241   2.159 -0.6974 -0.9989  0.5610
 1248SOL    MW4 5065   0.428   3.231   2.245  0.0406 -0.3285  0.6506
 1249SOL     OW 5066   0.469   3.456   2.410  0.1171 -0.1738  0.4979
 1249SOL    HW2 5067   0.552   3.487   2.375 -0.3556  0.8764  0.3150
 1249SOL    HW3 5068   0.452   3.375   2.362  0.9317 -0.2893  0.3922
 1249SOL    MW4 5069   0.478   3.449   2.399  0.1622 -0.0508  0.4599
 1250SOL     OW 5070   0.685   3.596   2.279  0.0375  0.2734  0.4139
 1250SOL    HW2 5071   0.695   3.687   2.307  2.0810  0.4926 -0.9630
 1250SOL    HW3 5072   0.692   3.599   2.184  2.4078 -1.5795  0.4830
 1250SOL    MW4 5073   0.687   3.608   2.270  0.6199  0.0579  0.2415
 1251SOL     OW 5074   0.720   3.866   2.342 -0.3092  0.4997  0.1333
 1251SOL    HW2 5075   0.695   3.881   2.433 -0.6654 -0.1812  0.1531
 1251SOL    HW3 5076   0.643   3.894   2.291 -0.7648 -0.6990  0.1406
 1251SOL    MW4 5077   0.706   3.871   2.347 -0.4163  0.2518  0.1369
 1252SOL     OW 5078   0.486   3.965   2.232  0.0827 -0.0951 -0.4872
 1252SOL    HW2 5079   0.402   3.937   2.269 -0.2845  1.2579 -0.2908
 1252SOL    HW3 5080   0.473   3.962   2.137  0.5647 -2.1344 -0.5313
 1252SOL    MW4 5081   0.473   3.961   2.224  0.0978 -0.1860 -0.4671
 1253SOL     OW 5082   0.456   4.231   2.341 -0.0872 -0.1432  0.4501
 1253SOL    HW2 5083   0.536   4.277   2.319 -0.5571 -0.0408 -1.1239
 1253SOL    HW3 5084   0.461   4.149   2.291 -1.8251  0.7151 -1.1848
 1253SOL    MW4 5085   0.467   4.226   2.331 -0.3785 -0.0162  0.0265
 1254SOL     OW 5086   0.682   4.399   2.278 -0.1381 -0.0437 -0.6238
 1254SOL    HW2 5087   0.667   4.486   2.313 -1.6578  0.3936 -2.2517
 1254SOL    HW3 5088   0.697   4.413   2.184 -2.6713 -1.6569 -1.3464
 1254SOL    MW4 5089   0.682   4.412   2.270 -0.6729 -0.1988 -0.9341
 1255SOL     OW 5090   1.102   4.629   2.409 -0.1892  0.1130  0.1555
 1255SOL    HW2 5091   1.098   4.640   2.504 -1.6222 -0.0193  0.1173
 1255SOL    HW3 5092   1.024   4.674   2.376 -0.1885 -0.6337 -0.8893
 1255SOL    MW4 5093   1.091   4.637   2.417 -0.3781 -0.0038  0.0124
 1256SOL     OW 5094   0.915   0.101   2.273 -0.1202  0.1941 -0.0608
 1256SOL    HW2 5095   0.891   0.185   2.314 -0.7605  0.3240 -0.7004
 1256SOL    HW3 5096   0.932   0.123   2.182  3.8662  0.3598  0.6298
 1256SOL    MW4 5097   0.914   0.115   2.267  0.3213  0.2331 -0.0536
 1257SOL     OW 5098   0.878   0.350   2.351  0.4625  0.3711  0.1733
 1257SOL    HW2 5099   0.959   0.378   2.309  0.0769  0.7345 -0.3296
 1257SOL    HW3 5100   0.810   0.403   2.309 -0.5653 -2.7702 -2.2694
 1257SOL    MW4 5101   0.880   0.361   2.340  0.2761  0.0046 -0.2151
 1258SOL     OW 5102   1.118   0.462   2.283 -0.2161 -0.0842  0.8280
 1258SOL    HW2 5103   1.204   0.437   2.317 -0.3119 -0.5459  0.7324
 1258SOL    HW3 5104   1.136   0.495   2.195 -0.2594 -1.1952  0.3909
 1258SOL    MW4 5105   1.132   0.463   2.276 -0.2344 -0.2916  0.7577
 1259SOL     OW 5106   1.112   0.735   2.386  0.0125 -0.3933  0.3744
 1259SOL    HW2 5107   1.046   0.780   2.335  1.5219 -0.0928 -1.3694
 1259SOL    HW3 5108   1.104   0.643   2.361  1.0496 -0.1847 -0.7973
 1259SOL    MW4 5109   1.102   0.728   2.376  0.3486 -0.3262 -0.0100
 1260SOL     OW 5110   0.918   0.887   2.258  0.1722 -0.3661 -0.2578
 1260SOL    HW2 5111   0.941   0.967   2.305 -0.2579  0.2383 -1.0655
 1260SOL    HW3 5112   0.834   0.861   2.294 -0.1697  0.1110 -0.7066
 1260SOL    MW4 5113   0.910   0.894   2.269  0.0703 -0.2234 -0.4234
 1261SOL     OW 5114   0.890   1.147   2.345 -0.2019  0.1365  0.2708
 1261SOL    HW2 5115   0.956   1.184   2.286  0.4607 -1.3300  0.0643
 1261SOL    HW3 5116   0.807   1.183   2.314  0.4238  1.4643  0.1078
 1261SOL    MW4 5117   0.888   1.157   2.333 -0.0319  0.1181  0.2217
 1262SOL     OW 5118   1.106   1.273   2.237 -0.8483  0.3152  0.3287
 1262SOL    HW2 5119   1.184   1.234   2.276  0.1619  3.3205  1.4070
 1262SOL    HW3 5120   1.132   1.292   2.147 -0.7809  0.1170  0.3044
 1262SOL    MW4 5121   1.120   1.270   2.230 -0.7062  0.6856  0.4680
 1263SOL     OW 5122   1.115   1.526   2.344 -0.3535 -0.1177  0.0004
 1263SOL    HW2 5123   1.044   1.569   2.296 -0.9908  1.3485  2.1911
 1263SOL    HW3 5124   1.113   1.435   2.315 -1.5170  0.4598 -1.7992
 1263SOL    MW4 5125   1.106   1.520   2.334 -0.5910  0.1520  0.0517
 1264SOL     OW 5126   0.867   1.625   2.246  0.0990  0.5272 -0.0243
 1264SOL    HW2 5127   0.875   1.715   2.277 -2.3193  1.4217 -1.8304
 1264SOL    HW3 5128   0.886   1.630   2.152  0.3879 -0.9225 -0.0569
 1264SOL    MW4 5129   0.871   1.637   2.237 -0.1819  0.4538 -0.2670
 1265SOL     OW 5130   0.873   1.900   2.317 -0.1793  0.2074 -0.0152
 1265SOL    HW2 5131   0.862   1.926   2.409  1.1724 -0.1784  0.2554
 1265SOL    HW3 5132   0.938   1.961   2.282  0.7822 -0.9063 -0.1816
 1265SOL    MW4 5133   0.880   1.912   2.324  0.1259  0.0095 -0.0012
 1266SOL     OW 5134   1.086   2.088   2.287  0.0728 -0.7738 -0.1913
 1266SOL    HW2 5135   1.155   2.024   2.303  0.7081 -0.2415 -0.7605
 1266SOL    HW3 5136   1.090   2.103   2.192 -0.2703 -0.1155 -0.1023
 1266SOL    MW4 5137   1.096   2.081   2.276  0.1115 -0.6168 -0.2546
 1267SOL     OW 5138   1.141   2.333   2.408  0.0480 -0.0952  0.1668
 1267SOL    HW2 5139   1.208   2.376   2.355 -1.2578  0.2656 -1.2391
 1267SOL    HW3 5140   1.130   2.247   2.367 -1.6463  0.5439 -0.7884
 1267SOL    MW4 5141   1.148   2.327   2.395 -0.3479  0.0370 -0.1447
 1268SOL     OW 5142   0.899   2.426   2.268  0.0934  0.1605  0.0748
 1268SOL    HW2 5143   0.988   2.401   2.292  1.1344  3.0948 -0.5919
 1268SOL    HW3 5144   0.907   2.465   2.181 -2.0941 -0.9406 -0.6569
 1268SOL    MW4 5145   0.912   2.428   2.260 -0.0579  0.4022 -0.1099
 1269SOL     OW 5146   0.879   2.678   2.374 -0.7091  0.1035  0.2923
 1269SOL    HW2 5147   0.879   2.672   2.469 -0.4740  0.4014  0.3108
 1269SOL    HW3 5148   0.887   2.587   2.344  2.6839  0.2492  0.5860
 1269SOL    MW4 5149   0.880   2.665   2.382 -0.2304  0.1621  0.3335
 1270SOL     OW 5150   1.087   2.810   2.239  0.0660 -0.4361  0.1031
 1270SOL    HW2 5151   1.171   2.785   2.278 -0.2198 -1.4670  0.0726
 1270SOL    HW3 5152   1.021   2.763   2.291 -0.4890  0.2982  0.0767
 1270SOL    MW4 5153   1.089   2.800   2.251 -0.0448 -0.4752  0.0956
 1271SOL     OW 5154   1.095   3.095   2.343  0.5881 -0.5886 -0.0189
 1271SOL    HW2 5155   1.016   3.136   2.309 -0.2630 -1.7628  0.5309
 1271SOL    HW3 5156   1.093   3.006   2.310  1.5451 -0.7044  0.2191
 1271SOL    MW4 5157   1.085   3.089   2.334  0.6021 -0.7586  0.0846
 1272SOL     OW 5158   0.884   3.252   2.226  0.3283 -0.1795  0.1064
 1272SOL    HW2 5159   0.891   3.336   2.271  2.4063 -0.7073  0.7910
 1272SOL    HW3 5160   0.804   3.213   2.261 -3.0790  3.2527 -3.2727
 1272SOL    MW4 5161   0.874   3.258   2.237  0.1529  0.2036 -0.2491
 1273SOL     OW 5162   0.924   3.499   2.363 -0.2761  0.3572  0.4149
 1273SOL    HW2 5163   0.909   3.477   2.455 -0.1314 -1.8342 -0.0666
 1273SOL    HW3 5164   0.840   3.536   2.334 -0.9132 -0.6668  0.9318
 1273SOL    MW4 5165   0.911   3.501   2.371 -0.3411 -0.0670  0.4196
 1274SOL     OW 5166   1.160   3.606   2.241 -0.1309  0.3551  0.2419
 1274SOL    HW2 5167   1.230   3.572   2.296 -1.3711 -0.4675  1.3543
 1274SOL    HW3 5168   1.080   3.566   2.276 -1.1942  1.4954 -0.8102
 1274SOL    MW4 5169   1.158   3.596   2.253 -0.4349  0.3972  0.2499
 1275SOL     OW 5170   1.188   3.868   2.356 -0.1510 -0.3119 -0.0957
 1275SOL    HW2 5171   1.278   3.901   2.352 -0.5370  0.7326 -0.3672
 1275SOL    HW3 5172   1.190   3.786   2.307  0.5937 -0.1488 -0.3374
 1275SOL    MW4 5173   1.200   3.861   2.349 -0.1036 -0.1526 -0.1636
 1276SOL     OW 5174   0.946   4.012   2.286 -0.4206  0.3536  0.3544
 1276SOL    HW2 5175   1.027   3.970   2.313  0.1729 -0.8425 -3.0124
 1276SOL    HW3 5176   0.877   3.951   2.313 -0.1347  0.8298  2.1977
 1276SOL    MW4 5177   0.948   3.998   2.293 -0.3046  0.2589  0.1535
 1277SOL     OW 5178   0.914   4.268   2.391  0.3462  0.0881  0.4040
 1277SOL    HW2 5179   0.907   4.183   2.348  0.5313  0.3571 -0.1505
 1277SOL    HW3 5180   0.843   4.320   2.354  1.6903  0.9480 -1.0099
 1277SOL    MW4 5181   0.904   4.263   2.381  0.5479  0.2370  0.1447
 1278SOL     OW 5182   1.151   4.378   2.286 -0.0077 -0.3951  0.0932
 1278SOL    HW2 5183   1.080   4.324   2.321 -0.1643 -0.0436  0.3143
 1278SOL    HW3 5184   1.137   4.464   2.325 -0.0185 -0.0739 -0.6299
 1278SOL    MW4 5185   1.140   4.382   2.296 -0.0298 -0.3061  0.0267
 1279SOL     OW 5186   1.577   0.003   2.381 -0.2946  0.2206 -0.1907
 1279SOL    HW2 5187   1.651   0.053   2.346  0.6483 -0.0581  1.3638
 1279SOL    HW3 5188   1.501   0.036   2.332  0.3127  3.0510  0.6521
 1279SOL    MW4 5189   1.577   0.014   2.370 -0.0902  0.5573  0.1254
 1280SOL     OW 5190   1.346   0.080   2.256  0.4099  0.3946  0.1060
 1280SOL    HW2 5191   1.369   0.166   2.291  0.7827 -0.3004  1.5946
 1280SOL    HW3 5192   1.271   0.052   2.307  0.4450 -0.2757 -0.2011
 1280SOL    MW4 5193   1.339   0.088   2.267  0.4637  0.2144  0.2620
 1281SOL     OW 5194   1.360   0.341   2.350 -0.8193  0.5111  0.2696
 1281SOL    HW2 5195   1.374   0.343   2.444 -1.3814 -0.1176  0.3757
 1281SOL    HW3 5196   1.420   0.406   2.314 -0.6837  0.8250  1.0723
 1281SOL    MW4 5197   1.370   0.350   2.357 -0.8756  0.4696  0.3898
 1282SOL     OW 5198   1.573   0.497   2.265  0.1486 -0.6952 -0.4609
 1282SOL    HW2 5199   1.657   0.472   2.305  0.7894  1.3709 -0.4728
 1282SOL    HW3 5200   1.595   0.518   2.175 -0.0121  1.7054  0.0225
 1282SOL    MW4 5201   1.587   0.496   2.259  0.2120 -0.1059 -0.3986
 1283SOL     OW 5202   1.555   0.771   2.353  0.2382 -0.5566 -0.0710
 1283SOL    HW2 5203   1.640   0.806   2.325  0.5711 -0.9189  0.4700
 1283SOL    HW3 5204   1.558   0.678   2.328 -0.5299 -0.2717 -1.2547
 1283SOL    MW4 5205   1.567   0.763   2.346  0.1807 -0.5668 -0.1557
 1284SOL     OW 5206   1.312   0.895   2.288  0.3672 -0.0713  0.1684
 1284SOL    HW2 5207   1.392   0.843   2.299 -0.0039 -0.8371 -0.6342
 1284SOL    HW3 5208   1.244   0.843   2.333  0.1191  0.0332 -0.0843
 1284SOL    MW4 5209   1.313   0.881   2.295  0.2855 -0.1585  0.0293
 1285SOL     OW 5210   1.328   1.154   2.381  0.1719 -0.3727  0.3288
 1285SOL    HW2 5211   1.312   1.151   2.476 -1.9286 -1.9501 -0.0559
 1285SOL    HW3 5212   1.322   1.063   2.353  0.4974  0.1242 -1.3979
 1285SOL    MW4 5213   1.325   1.142   2.390 -0.0623 -0.5152  0.0503
 1286SOL     OW 5214   1.553   1.299   2.288 -0.4070  0.6714 -0.0873
 1286SOL    HW2 5215   1.488   1.238   2.321  0.9271 -1.5675 -1.4497
 1286SOL    HW3 5216   1.550   1.289   2.193  1.3764  1.0643 -0.2159
 1286SOL    MW4 5217   1.544   1.290   2.279  0.0043  0.4277 -0.2840
 1287SOL     OW 5218   1.536   1.575   2.367  0.1119  0.0151 -0.5531
 1287SOL    HW2 5219   1.619   1.618   2.346  0.5593 -0.5389  0.0544
 1287SOL    HW3 5220   1.553   1.482   2.355 -0.1764 -0.1645  0.3898
 1287SOL    MW4 5221   1.549   1.569   2.363  0.1329 -0.0818 -0.3483
 1288SOL     OW 5222   1.305   1.685   2.248 -0.5410 -0.3770 -0.3749
 1288SOL    HW2 5223   1.393   1.656   2.271 -0.3098  1.0390  0.6720
 1288SOL    HW3 5224   1.247   1.624   2.293 -0.0885 -0.3725  0.2199
 1288SOL    MW4 5225   1.309   1.673   2.257 -0.4508 -0.1897 -0.1585
 1289SOL     OW 5226   1.310   1.951   2.343 -0.2931 -0.1342  0.4252
 1289SOL    HW2 5227   1.386   1.993   2.302  0.3345 -1.5077  0.1626
 1289SOL    HW3 5228   1.311   1.861   2.309 -1.9992 -0.1851  0.4735
 1289SOL    MW4 5229   1.320   1.945   2.333 -0.4355 -0.3221  0.3967
 1290SOL     OW 5230   1.554   2.089   2.282 -0.2794 -0.2716  0.1085
 1290SOL    HW2 5231   1.628   2.035   2.312  0.7238  0.6317 -0.6914
 1290SOL    HW3 5232   1.572   2.104   2.190 -1.6805 -0.3501 -0.1813
 1290SOL    MW4 5233   1.566   2.084   2.274 -0.3320 -0.1628 -0.0350
 1291SOL     OW 5234   1.548   2.350   2.348 -0.4174 -0.0494 -0.4165
 1291SOL    HW2 5235   1.559   2.344   2.443  0.8087  0.5063 -0.5244
 1291SOL    HW3 5236   1.548   2.259   2.319 -1.8168 -0.2753  0.2129
 1291SOL    MW4 5237   1.549   2.337   2.357 -0.4402 -0.0057 -0.3479
 1292SOL     OW 5238   1.325   2.465   2.240  0.1772 -0.0203  0.3792
 1292SOL    HW2 5239   1.406   2.425   2.272  0.4980  1.9007  2.0851
 1292SOL    HW3 5240   1.341   2.478   2.146  1.4858 -0.5129  0.5189
 1292SOL    MW4 5241   1.338   2.461   2.232  0.3922  0.1681  0.6227
 1293SOL     OW 5242   1.336   2.707   2.366  0.1564  0.2831 -0.5753
 1293SOL    HW2 5243   1.418   2.746   2.336  1.7340 -0.4372  2.6073
 1293SOL    HW3 5244   1.334   2.621   2.325  2.7545 -1.0777  1.9333
 1293SOL    MW4 5245   1.347   2.701   2.357  0.7073  0.0083  0.1755
 1294SOL     OW 5246   1.573   2.837   2.219  0.4889 -0.4511 -0.0514
 1294SOL    HW2 5247   1.563   2.926   2.251 -1.6147 -1.0941  1.1462
 1294SOL    HW3 5248   1.569   2.845   2.124 -0.3511  0.6566  0.0705
 1294SOL    MW4 5249   1.571   2.850   2.211  0.1005 -0.3898  0.1230
 1295SOL     OW 5250   1.526   3.086   2.333 -0.0380  0.1430  0.2902
 1295SOL    HW2 5251   1.542   3.110   2.424 -1.1948 -1.7570  1.0291
 1295SOL    HW3 5252   1.443   3.127   2.311 -0.4853 -0.6003  0.5710
 1295SOL    MW4 5253   1.517   3.094   2.342 -0.2496 -0.2060  0.4249
 1296SOL     OW 5254   1.310   3.230   2.228  0.1874  0.3373  0.3848
 1296SOL    HW2 5255   1.228   3.195   2.262  0.7217 -0.6018  0.7377
 1296SOL    HW3 5256   1.297   3.234   2.134 -0.1237 -0.1914  0.3998
 1296SOL    MW4 5257   1.298   3.226   2.220  0.2170  0.1435  0.4332
 1297SOL     OW 5258   1.398   3.484   2.362 -0.2033  0.2857  0.3812
 1297SOL    HW2 5259   1.387   3.481   2.457  0.8382 -0.8107  0.4866
 1297SOL    HW3 5260   1.365   3.399   2.332  1.8886 -0.4529  0.0606
 1297SOL    MW4 5261   1.392   3.472   2.371  0.2100  0.0436  0.3529
 1298SOL     OW 5262   1.618   3.590   2.227  0.1237  0.5584 -0.1101
 1298SOL    HW2 5263   1.613   3.675   2.271 -1.5255  0.9233 -0.9599
 1298SOL    HW3 5264   1.544   3.541   2.262 -0.2162  0.2577 -1.2371
 1298SOL    MW4 5265   1.608   3.595   2.237 -0.1385  0.5670 -0.3710
 1299SOL     OW 5266   1.624   3.846   2.373 -0.1110  0.1354 -0.0813
 1299SOL    HW2 5267   1.606   3.841   2.467 -0.4025 -1.1467 -0.2079
 1299SOL    HW3 5268   1.712   3.883   2.368  0.6318 -1.4780  0.7547
 1299SOL    MW4 5269   1.633   3.850   2.385 -0.0516 -0.2465  0.0122
 1300SOL     OW 5270   1.434   4.005   2.274  0.3959 -0.4617 -0.1131
 1300SOL    HW2 5271   1.502   3.945   2.304  0.3451 -1.1029 -1.2445
 1300SOL    HW3 5272   1.453   4.019   2.181 -0.3071  0.3179 -0.1535
 1300SOL    MW4 5273   1.445   3.999   2.265  0.2964 -0.4437 -0.2677
 1301SOL     OW 5274   1.407   4.257   2.363  0.0030 -0.0622  0.4430
 1301SOL    HW2 5275   1.405   4.165   2.337  0.1462  0.0669 -0.0289
 1301SOL    HW3 5276   1.325   4.293   2.329  0.1874  0.1052  0.1730
 1301SOL    MW4 5277   1.396   4.250   2.355  0.0461 -0.0229  0.3452
 1302SOL     OW 5278   1.590   4.408   2.261  0.1670 -0.1141 -0.6038
 1302SOL    HW2 5279   1.515   4.361   2.298 -0.0412  0.8078  0.1653
 1302SOL    HW3 5280   1.583   4.496   2.297  1.6564 -0.0384 -0.4653
 1302SOL    MW4 5281   1.579   4.413   2.271  0.3359  0.0176 -0.4838
 1303SOL     OW 5282   2.008   0.012   2.346  0.1400  0.1772 -0.2252
 1303SOL    HW2 5283   2.087   0.057   2.315 -0.0785  1.2153  0.6743
 1303SOL    HW3 5284   2.013  -0.075   2.307  2.4846 -0.2724  0.9526
 1303SOL    MW4 5285   2.019   0.006   2.337  0.4206  0.2542  0.0491
 1304SOL     OW 5286   1.784   0.148   2.259 -0.4675  0.4143 -0.6040
 1304SOL    HW2 5287   1.795   0.240   2.284 -2.4101 -0.1356  2.4419
 1304SOL    HW3 5288   1.852   0.102   2.309 -0.5120 -0.0128 -0.9352
 1304SOL    MW4 5289   1.795   0.154   2.269 -0.7297  0.2854 -0.2458
 1305SOL     OW 5290   1.816   0.412   2.368 -0.0330  0.3661 -0.3284
 1305SOL    HW2 5291   1.804   0.419   2.462  0.4653  0.3697 -0.2637
 1305SOL    HW3 5292   1.896   0.462   2.350  0.2172 -0.1537 -0.6702
 1305SOL    MW4 5293   1.825   0.420   2.378  0.0658  0.2980 -0.3650
 1306SOL     OW 5294   2.050   0.526   2.287 -0.2032 -0.0046 -0.0066
 1306SOL    HW2 5295   2.058   0.612   2.330  0.3239  0.0725 -0.2570
 1306SOL    HW3 5296   2.028   0.547   2.196 -0.1072 -0.1410 -0.0605
 1306SOL    MW4 5297   2.048   0.540   2.281 -0.1209 -0.0125 -0.0467
 1307SOL     OW 5298   2.002   0.804   2.376 -0.2377  0.0212  0.6118
 1307SOL    HW2 5299   2.074   0.850   2.333 -0.2716 -1.1018 -0.6548
 1307SOL    HW3 5300   1.923   0.841   2.336 -0.3280  0.1479  0.9028
 1307SOL    MW4 5301   2.001   0.815   2.365 -0.2542 -0.1103  0.4833
 1308SOL     OW 5302   1.766   0.915   2.231  0.1444 -0.2141  0.3110
 1308SOL    HW2 5303   1.778   1.004   2.265 -0.4183 -0.0754  0.1558
 1308SOL    HW3 5304   1.782   0.924   2.137 -1.4358  0.0279  0.0610
 1308SOL    MW4 5305   1.770   0.928   2.223 -0.1383 -0.1639  0.2573
 1309SOL     OW 5306   1.791   1.175   2.370  0.0511  0.0837  0.4402
 1309SOL    HW2 5307   1.873   1.213   2.340  0.6515  0.2668  2.2866
 1309SOL    HW3 5308   1.724   1.235   2.337  0.7527  0.7971  0.2839
 1309SOL    MW4 5309   1.793   1.188   2.361  0.2229  0.2021  0.6630
 1310SOL     OW 5310   2.035   1.299   2.287  0.2504  0.5169 -0.0474
 1310SOL    HW2 5311   2.023   1.388   2.319 -0.3200  0.2649  0.4600
 1310SOL    HW3 5312   2.042   1.307   2.192 -0.3277  1.0477 -0.0452
 1310SOL    MW4 5313   2.034   1.312   2.279  0.0987  0.5536  0.0200
 1311SOL     OW 5314   1.997   1.562   2.378 -0.0351 -0.1800  0.3227
 1311SOL    HW2 5315   2.006   1.571   2.473  0.4170  0.7656  0.1956
 1311SOL    HW3 5316   1.931   1.627   2.354  0.6356  0.3437 -0.1421
 1311SOL    MW4 5317   1.989   1.572   2.388  0.1130  0.0138  0.2444
 1312SOL     OW 5318   1.778   1.712   2.294 -0.2952  0.2647 -0.1342
 1312SOL    HW2 5319   1.784   1.803   2.325  0.5119  0.3155 -0.4374
 1312SOL    HW3 5320   1.779   1.719   2.198 -1.7161  0.0306 -0.1846
 1312SOL    MW4 5321   1.779   1.725   2.285 -0.3761  0.2404 -0.1805
 1313SOL     OW 5322   1.774   1.970   2.377 -0.3718 -0.1065  0.1291
 1313SOL    HW2 5323   1.773   1.972   2.473 -0.1479 -0.1508  0.1338
 1313SOL    HW3 5324   1.863   1.997   2.354  0.2326 -2.1276 -0.0134
 1313SOL    MW4 5325   1.786   1.974   2.387 -0.2625 -0.3790  0.1109
 1314SOL     OW 5326   2.017   2.041   2.254  0.4468  0.0741 -0.5432
 1314SOL    HW2 5327   2.086   1.983   2.286 -0.1777 -0.3051  0.1402
 1314SOL    HW3 5328   2.021   2.034   2.159  0.3402 -1.1384 -0.4673
 1314SOL    MW4 5329   2.026   2.032   2.246  0.3502 -0.1361 -0.4430
 1315SOL     OW 5330   2.031   2.318   2.346  0.4477 -0.4210 -0.0914
 1315SOL    HW2 5331   2.118   2.353   2.324  0.4372 -1.0062 -1.1046
 1315SOL    HW3 5332   2.029   2.232   2.305 -0.7490 -0.2570 -0.3940
 1315SOL    MW4 5333   2.042   2.311   2.337  0.2885 -0.4766 -0.2646
 1316SOL     OW 5334   1.787   2.428   2.233  0.0397 -0.1182 -0.1217
 1316SOL    HW2 5335   1.859   2.378   2.273 -0.2039 -0.1279  0.3116
 1316SOL    HW3 5336   1.708   2.397   2.279 -0.1583  0.3941 -0.1100
 1316SOL    MW4 5337   1.786   2.417   2.245 -0.0186 -0.0517 -0.0632
 1317SOL     OW 5338   1.782   2.707   2.342 -0.1555 -0.3292  0.2021
 1317SOL    HW2 5339   1.777   2.619   2.305  1.3836  0.2316 -1.4378
 1317SOL    HW3 5340   1.708   2.753   2.302 -0.0957 -0.4721 -0.0753
 1317SOL    MW4 5341   1.771   2.701   2.332  0.0556 -0.2742 -0.0508
 1318SOL     OW 5342   2.002   2.849   2.284 -0.3299  0.1216  0.3162
 1318SOL    HW2 5343   2.082   2.802   2.304 -0.5821 -0.3288  0.2783
 1318SOL    HW3 5344   1.932   2.788   2.305 -0.6257 -0.0268 -1.0203
 1318SOL    MW4 5345   2.003   2.835   2.289 -0.4025  0.0427  0.1352
 1319SOL     OW 5346   1.990   3.112   2.364 -0.3803  0.0254 -0.0051
 1319SOL    HW2 5347   2.071   3.147   2.327 -0.6952  0.7437 -0.0300
 1319SOL    HW3 5348   1.986   3.022   2.333  0.0027  0.2311 -0.6730
 1319SOL    MW4 5349   2.000   3.105   2.355 -0.3712  0.1476 -0.0968
 1320SOL     OW 5350   1.766   3.200   2.225 -0.2152  0.5510 -0.3913
 1320SOL    HW2 5351   1.836   3.166   2.281  2.1035  1.6322 -2.5608
 1320SOL    HW3 5352   1.686   3.162   2.262  1.4165 -0.2790  2.4822
 1320SOL    MW4 5353   1.765   3.190   2.237  0.3060  0.5844 -0.2983
 1321SOL     OW 5354   1.816   3.453   2.341 -0.0758  0.3006  0.2683
 1321SOL    HW2 5355   1.795   3.363   2.316  0.5287  0.4257 -0.7234
 1321SOL    HW3 5356   1.744   3.505   2.304  0.0417  0.3270  0.0794
 1321SOL    MW4 5357   1.803   3.448   2.333  0.0194  0.3207  0.1125
 1322SOL     OW 5358   2.052   3.562   2.258 -0.3474 -0.5210 -0.2609
 1322SOL    HW2 5359   1.974   3.517   2.288 -0.9468  0.3011 -0.5711
 1322SOL    HW3 5360   2.042   3.566   2.163  0.3196 -0.8567 -0.3523
 1322SOL    MW4 5361   2.041   3.556   2.249 -0.3383 -0.4568 -0.3140
 1323SOL     OW 5362   2.057   3.831   2.327 -0.7275 -0.2373  0.1680
 1323SOL    HW2 5363   2.039   3.831   2.421  0.0995 -0.6971  0.3253
 1323SOL    HW3 5364   2.055   3.739   2.301  0.8965 -0.2638  0.0961
 1323SOL    MW4 5365   2.054   3.819   2.336 -0.4039 -0.3014  0.1791
 1324SOL     OW 5366   1.839   4.011   2.283  0.1860 -0.3701 -0.0323
 1324SOL    HW2 5367   1.923   3.965   2.294 -0.1553 -1.0679 -0.2892
 1324SOL    HW3 5368   1.813   3.991   2.193  0.5785  1.2558 -0.5109
 1324SOL    MW4 5369   1.847   4.002   2.273  0.1928 -0.2475 -0.1292
 1325SOL     OW 5370   1.830   4.281   2.365  0.2067 -0.2446  0.0745
 1325SOL    HW2 5371   1.812   4.192   2.336  0.1886 -0.0041 -0.6611
 1325SOL    HW3 5372   1.757   4.333   2.331  1.8727  0.6161 -2.3334
 1325SOL    MW4 5373   1.818   4.276   2.356  0.4241 -0.0992 -0.3400
 1326SOL     OW 5374   2.023   4.428   2.222  0.0422 -0.6797  0.2273
 1326SOL    HW2 5375   1.973   4.363   2.271  2.2541 -1.4482  1.4987
 1326SOL    HW3 5376   2.006   4.406   2.130 -1.7198 -1.0864  0.6235
 1326SOL    MW4 5377   2.014   4.417   2.216  0.1016 -0.8349  0.4473
 1327SOL     OW 5378   2.471   4.640   2.361  0.2103  0.1172 -0.2032
 1327SOL    HW2 5379   2.554   4.665   2.320  0.1167 -0.0587 -0.5036
 1327SOL    HW3 5380   2.450   4.554   2.323 -1.1453  1.0689 -1.6904
 1327SOL    MW4 5381   2.479   4.632   2.351  0.0191  0.2193 -0.4389
 1328SOL     OW 5382   2.251   0.100   2.273 -0.3006 -0.4282  0.0991
 1328SOL    HW2 5383   2.266   0.193   2.291 -2.2620 -0.0190 -0.1964
 1328SOL    HW3 5384   2.331   0.056   2.302  0.4723  1.3024  0.6567
 1328SOL    MW4 5385   2.263   0.107   2.279 -0.4575 -0.1459  0.1335
 1329SOL     OW 5386   2.270   0.372   2.325  0.0241  0.2839 -0.1773
 1329SOL    HW2 5387   2.351   0.419   2.304  0.4408 -0.4756 -0.3348
 1329SOL    HW3 5388   2.200   0.435   2.309  0.7173  1.8604  2.6368
 1329SOL    MW4 5389   2.272   0.386   2.320  0.1705  0.3917  0.1731
 1330SOL     OW 5390   2.527   0.503   2.273  0.2984  0.2330  0.4061
 1330SOL    HW2 5391   2.595   0.440   2.296  0.3617 -0.3501 -1.2868
 1330SOL    HW3 5392   2.545   0.524   2.181 -0.8421  1.2967  0.4184
 1330SOL    MW4 5393   2.538   0.497   2.264  0.1562  0.2965  0.1843
 1331SOL     OW 5394   2.483   0.777   2.353 -0.4700 -0.1979  0.2474
 1331SOL    HW2 5395   2.565   0.815   2.324 -0.9962  0.6068 -0.1938
 1331SOL    HW3 5396   2.482   0.689   2.313  0.8323 -0.7668  1.4417
 1331SOL    MW4 5397   2.494   0.770   2.344 -0.3676 -0.1668  0.3469
 1332SOL     OW 5398   2.246   0.902   2.256 -0.0085  0.4891  0.0053
 1332SOL    HW2 5399   2.248   0.996   2.274  1.1379  0.7710 -1.5215
 1332SOL    HW3 5400   2.326   0.868   2.295 -0.9443 -0.0646  1.5127
 1332SOL    MW4 5401   2.257   0.910   2.264  0.0191  0.4532  0.0026
 1333SOL     OW 5402   2.273   1.153   2.361 -0.2309 -0.2135  0.1105
 1333SOL    HW2 5403   2.344   1.205   2.323 -0.1963  0.5809  1.2455
 1333SOL    HW3 5404   2.193   1.193   2.328 -0.1689 -0.9857 -1.0087
 1333SOL    MW4 5405   2.272   1.165   2.352 -0.2182 -0.2105  0.1125
 1334SOL     OW 5406   2.491   1.275   2.228  0.1587 -0.3577 -0.2015
 1334SOL    HW2 5407   2.553   1.226   2.282 -1.4795 -2.7136 -0.3721
 1334SOL    HW3 5408   2.468   1.351   2.281  1.3242 -0.7327  0.8755
 1334SOL    MW4 5409   2.496   1.278   2.242  0.0963 -0.7181 -0.0818
 1335SOL     OW 5410   2.452   1.511   2.379  0.1118  0.0835 -0.2493
 1335SOL    HW2 5411   2.454   1.537   2.471 -0.4256  0.0707 -0.2315
 1335SOL    HW3 5412   2.514   1.570   2.335 -0.3924  0.7570 -0.0528
 1335SOL    MW4 5413   2.461   1.522   2.385 -0.0255  0.1707 -0.2210
 1336SOL     OW 5414   2.239   1.658   2.264  0.6956 -0.2571  0.0172
 1336SOL    HW2 5415   2.308   1.608   2.308  0.1665  0.7070  2.0017
 1336SOL    HW3 5416   2.158   1.628   2.305  0.1716  0.4942 -0.4544
 1336SOL    MW4 5417   2.237   1.648   2.275  0.5567 -0.0309  0.2167
 1337SOL     OW 5418   2.243   1.924   2.361  0.3230  0.2675  0.0253
 1337SOL    HW2 5419   2.328   1.963   2.341  0.3428 -0.0357 -0.5082
 1337SOL    HW3 5420   2.249   1.835   2.326  0.4074 -0.3435  1.5522
 1337SOL    MW4 5421   2.255   1.917   2.353  0.3369  0.1470  0.1564
 1338SOL     OW 5422   2.486   2.033   2.284  0.1005 -0.4313  0.5140
 1338SOL    HW2 5423   2.571   1.999   2.310  0.1644 -1.0648 -0.5087
 1338SOL    HW3 5424   2.489   2.034   2.188 -1.0793 -0.5609  0.4720
 1338SOL    MW4 5425   2.498   2.029   2.275 -0.0467 -0.5322  0.3734
 1339SOL     OW 5426   2.492   2.305   2.382 -0.4793 -0.3107 -0.2400
 1339SOL    HW2 5427   2.576   2.332   2.344  0.3457 -0.7060  1.2543
 1339SOL    HW3 5428   2.477   2.217   2.347 -0.4032 -0.1444 -0.6997
 1339SOL    MW4 5429   2.501   2.297   2.372 -0.3603 -0.3412 -0.1032
 1340SOL     OW 5430   2.266   2.431   2.268 -0.4468 -0.3042  0.0023
 1340SOL    HW2 5431   2.252   2.525   2.278 -0.4210 -0.3539  0.5008
 1340SOL    HW3 5432   2.347   2.413   2.316  0.3263 -0.3428 -1.2764
 1340SOL    MW4 5433   2.275   2.441   2.276 -0.3414 -0.3159 -0.1009
 1341SOL     OW 5434   2.224   2.696   2.316 -0.3082 -0.2422  0.1310
 1341SOL    HW2 5435   2.213   2.698   2.411 -0.7260  2.9030  0.0578
 1341SOL    HW3 5436   2.306   2.742   2.300  0.0758 -1.2745 -1.0242
 1341SOL    MW4 5437   2.233   2.702   2.326 -0.3126  0.0365 -0.0312
 1342SOL     OW 5438   2.483   2.794   2.262  0.0357 -0.3520 -0.1427
 1342SOL    HW2 5439   2.559   2.753   2.303 -0.1032 -0.3201  0.1464
 1342SOL    HW3 5440   2.477   2.753   2.176 -0.5139 -1.4394  0.4031
 1342SOL    MW4 5441   2.492   2.783   2.256 -0.0551 -0.4911 -0.0327
 1343SOL     OW 5442   2.458   3.085   2.333 -0.2677  0.2029 -0.4920
 1343SOL    HW2 5443   2.550   3.106   2.314  0.1019 -0.1098  0.8877
 1343SOL    HW3 5444   2.454   2.989   2.329 -0.4274  0.1920 -0.1330
 1343SOL    MW4 5445   2.470   3.075   2.330 -0.2398  0.1600 -0.2627
 1344SOL     OW 5446   2.230   3.212   2.259 -0.6074 -0.7664 -0.0748
 1344SOL    HW2 5447   2.242   3.297   2.300 -1.0541 -0.4759 -0.5356
 1344SOL    HW3 5448   2.305   3.160   2.288  0.2506  0.1249 -0.6614
 1344SOL    MW4 5449   2.242   3.216   2.268 -0.5534 -0.6104 -0.2127
 1345SOL     OW 5450   2.289   3.470   2.359  0.0384 -0.6669 -0.3184
 1345SOL    HW2 5451   2.281   3.474   2.454 -0.5414 -0.7600 -0.3601
 1345SOL    HW3 5452   2.209   3.512   2.326  1.2783  1.4562 -0.7747
 1345SOL    MW4 5453   2.278   3.476   2.367  0.1254 -0.3994 -0.3839
 1346SOL     OW 5454   2.495   3.591   2.193  0.5143 -0.2511  0.3608
 1346SOL    HW2 5455   2.510   3.671   2.242 -0.3749  0.1183  0.0509
 1346SOL    HW3 5456   2.424   3.547   2.240 -1.3048  0.7690 -1.3203
 1346SOL    MW4 5457   2.487   3.596   2.205  0.1569 -0.0677  0.0980
 1347SOL     OW 5458   2.483   3.843   2.302  0.7264 -0.2594  0.4978
 1347SOL    HW2 5459   2.490   3.836   2.398  0.3554 -1.6800  0.4379
 1347SOL    HW3 5460   2.409   3.902   2.288 -1.2033 -2.4458  1.1166
 1347SOL    MW4 5461   2.474   3.850   2.313  0.4227 -0.7350  0.5717
 1348SOL     OW 5462   2.265   3.997   2.224  0.5746 -0.2462 -0.1739
 1348SOL    HW2 5463   2.247   4.089   2.241  1.7256 -0.2855  1.3340
 1348SOL    HW3 5464   2.200   3.950   2.277  1.8258 -0.3261  1.3064
 1348SOL    MW4 5465   2.254   4.003   2.233  0.8917 -0.2613  0.2203
 1349SOL     OW 5466   2.229   4.263   2.339  0.1702  0.6863 -0.3735
 1349SOL    HW2 5467   2.220   4.259   2.434  0.9004 -1.0872 -0.3412
 1349SOL    HW3 5468   2.161   4.323   2.310 -0.4745  0.7431  1.2164
 1349SOL    MW4 5469   2.219   4.270   2.348  0.1817  0.4597 -0.1595
 1350SOL     OW 5470   2.475   4.386   2.270 -0.6297  0.2138  0.3244
 1350SOL    HW2 5471   2.553   4.344   2.304 -0.9890 -0.5333  0.2459
 1350SOL    HW3 5472   2.403   4.348   2.320 -0.8213  1.9573  1.3961
 1350SOL    MW4 5473   2.476   4.376   2.281 -0.7026  0.3452  0.4554
 1351SOL     OW 5474   2.935   4.629   2.349 -0.0480 -0.4526 -0.0889
 1351SOL    HW2 5475   3.013   4.671   2.314  0.3431 -1.3439 -0.2800
 1351SOL    HW3 5476   2.940   4.538   2.319 -0.6678 -0.7532  0.6956
 1351SOL    MW4 5477   2.946   4.623   2.340 -0.0782 -0.6099 -0.0107
 1352SOL     OW 5478   2.707   0.085   2.248 -0.3578 -0.1206 -0.3540
 1352SOL    HW2 5479   2.703   0.152   2.316 -0.7657 -1.6494  1.1659
 1352SOL    HW3 5480   2.787   0.036   2.268 -0.5347 -0.6388 -0.9124
 1352SOL    MW4 5481   2.717   0.087   2.260 -0.4349 -0.3906 -0.2272
 1353SOL     OW 5482   2.721   0.329   2.388  0.0762 -0.7337  0.2446
 1353SOL    HW2 5483   2.703   0.365   2.474  1.6836 -0.0731  0.3224
 1353SOL    HW3 5484   2.784   0.389   2.349 -1.1416 -0.6499 -1.6759
 1353SOL    MW4 5485   2.727   0.341   2.394  0.1276 -0.6355  0.0017
 1354SOL     OW 5486   2.889   0.500   2.258  0.4133 -0.2185 -0.6469
 1354SOL    HW2 5487   2.885   0.591   2.286  0.0105 -0.0585 -1.2218
 1354SOL    HW3 5488   2.883   0.504   2.163  1.7447 -0.7551 -0.7640
 1354SOL    MW4 5489   2.888   0.512   2.249  0.5360 -0.2682 -0.7379
 1355SOL     OW 5490   2.950   0.751   2.396  0.1029 -0.3672 -0.3425
 1355SOL    HW2 5491   2.954   0.764   2.491  0.4812 -0.3946 -0.3537
 1355SOL    HW3 5492   2.879   0.807   2.367 -1.2863 -1.8259  0.2044
 1355SOL    MW4 5493   2.942   0.760   2.405 -0.0305 -0.5633 -0.2720
 1356SOL     OW 5494   2.736   0.888   2.289  0.0057  0.1010  0.3169
 1356SOL    HW2 5495   2.715   0.971   2.332 -1.5182  0.3339 -0.8216
 1356SOL    HW3 5496   2.718   0.905   2.196  0.5348 -1.2391 -0.0293
 1356SOL    MW4 5497   2.731   0.902   2.282 -0.1254 -0.0451  0.1214
 1357SOL     OW 5498   2.671   1.139   2.379 -0.0942 -0.3545  0.3463
 1357SOL    HW2 5499   2.656   1.151   2.473  1.0523  0.4780  0.4303
 1357SOL    HW3 5500   2.742   1.200   2.358 -0.3781 -0.4966 -1.0713
 1357SOL    MW4 5501   2.678   1.149   2.389  0.0196 -0.2633  0.1702
 1358SOL     OW 5502   2.868   1.293   2.285 -0.3099  0.1143 -0.4056
 1358SOL    HW2 5503   2.937   1.234   2.316 -0.9493 -0.4212  0.0087
 1358SOL    HW3 5504   2.882   1.297   2.190 -0.9514 -1.6271 -0.6009
 1358SOL    MW4 5505   2.879   1.286   2.277 -0.4790 -0.1861 -0.3767
 1359SOL     OW 5506   2.913   1.559   2.348  0.5557  0.0280  0.0595
 1359SOL    HW2 5507   2.900   1.560   2.442  1.2655  0.2731  0.1527
 1359SOL    HW3 5508   2.901   1.467   2.323  1.6125 -0.2498  0.5578
 1359SOL    MW4 5509   2.909   1.547   2.357  0.7889  0.0238  0.1373
 1360SOL     OW 5510   2.675   1.692   2.285 -0.3136  0.2794 -0.2472
 1360SOL    HW2 5511   2.749   1.634   2.304 -0.2631  0.2735 -0.4641
 1360SOL    HW3 5512   2.671   1.697   2.190 -0.2867  0.6756 -0.2295
 1360SOL    MW4 5513   2.684   1.685   2.275 -0.3030  0.3308 -0.2735
 1361SOL     OW 5514   2.735   1.956   2.366  0.2383 -0.0235 -0.3293
 1361SOL    HW2 5515   2.743   1.962   2.461 -1.0358 -0.0284 -0.2213
 1361SOL    HW3 5516   2.716   1.864   2.348  0.3326  0.0028 -0.5785
 1361SOL    MW4 5517   2.734   1.945   2.376  0.0830 -0.0207 -0.3479
 1362SOL     OW 5518   2.925   2.075   2.183  0.1082 -0.1714 -0.3937
 1362SOL    HW2 5519   3.007   2.038   2.214  0.0982  0.5755  0.5366
 1362SOL    HW3 5520   2.858   2.030   2.235 -0.0984 -1.0005 -1.3632
 1362SOL    MW4 5521   2.927   2.064   2.194  0.0796 -0.1824 -0.3991
 1363SOL     OW 5522   2.993   2.331   2.332 -0.2155 -0.2147  0.3516
 1363SOL    HW2 5523   2.997   2.328   2.427  1.1746  0.9145  0.3470
 1363SOL    HW3 5524   2.962   2.244   2.306  1.3656 -1.2115  1.7498
 1363SOL    MW4 5525   2.990   2.319   2.341  0.1767 -0.1974  0.5355
 1364SOL     OW 5526   2.741   2.429   2.259 -0.1543 -0.2938  0.4576
 1364SOL    HW2 5527   2.825   2.389   2.284  0.4643  0.6351 -0.0899
 1364SOL    HW3 5528   2.748   2.442   2.165  1.2919  4.6522  1.1044
 1364SOL    MW4 5529   2.753   2.425   2.250  0.1185  0.4814  0.4709
 1365SOL     OW 5530   2.713   2.692   2.348  0.8827 -0.1646  0.3888
 1365SOL    HW2 5531   2.793   2.738   2.323  1.4946 -0.7004  1.3005
 1365SOL    HW3 5532   2.731   2.600   2.329 -0.2273 -0.0738 -1.1596
 1365SOL    MW4 5533   2.726   2.686   2.342  0.8171 -0.2232  0.3049
 1366SOL     OW 5534   2.922   2.836   2.269  0.4600 -0.4074  0.0419
 1366SOL    HW2 5535   2.949   2.923   2.298  0.5270 -0.3466 -0.1969
 1366SOL    HW3 5536   2.927   2.840   2.173 -0.3383 -0.4169 -0.0016
 1366SOL    MW4 5537   2.926   2.848   2.260  0.3636 -0.4005  0.0048
 1367SOL     OW 5538   2.944   3.096   2.380 -0.2719  0.1152  0.6714
 1367SOL    HW2 5539   3.012   3.143   2.331  0.5853 -0.0366  1.7169
 1367SOL    HW3 5540   2.862   3.139   2.353  0.2133  0.2288 -0.6692
 1367SOL    MW4 5541   2.942   3.108   2.370 -0.0947  0.1101  0.6325
 1368SOL     OW 5542   2.714   3.210   2.280  0.1384 -0.1031  0.2453
 1368SOL    HW2 5543   2.694   3.301   2.304  0.8989  0.1277  0.0335
 1368SOL    HW3 5544   2.718   3.211   2.185  2.5734  0.1861  0.3269
 1368SOL    MW4 5545   2.712   3.222   2.271  0.5600 -0.0343  0.2284
 1369SOL     OW 5546   2.687   3.474   2.358  0.0413  0.0490 -0.5608
 1369SOL    HW2 5547   2.764   3.525   2.332 -0.0266 -0.0365 -0.9379
 1369SOL    HW3 5548   2.619   3.502   2.296  0.0627 -0.6611 -0.9039
 1369SOL    MW4 5549   2.688   3.485   2.346  0.0353 -0.0558 -0.6554
 1370SOL     OW 5550   2.898   3.641   2.256  0.3031 -0.2037  0.4719
 1370SOL    HW2 5551   2.980   3.600   2.283  0.0447 -0.6731  0.5324
 1370SOL    HW3 5552   2.908   3.733   2.281  0.4782 -0.4246  1.2267
 1370SOL    MW4 5553   2.910   3.648   2.263  0.2921 -0.2949  0.5794
 1371SOL     OW 5554   2.922   3.913   2.347 -0.0352 -0.0558 -0.1912
 1371SOL    HW2 5555   2.908   3.907   2.442 -1.0340  1.3823 -0.2294
 1371SOL    HW3 5556   2.849   3.966   2.315  0.3596 -0.4197 -1.7596
 1371SOL    MW4 5557   2.910   3.920   2.355 -0.1144  0.0861 -0.4032
 1372SOL     OW 5558   2.690   4.019   2.224  0.1474  0.2207 -0.3253
 1372SOL    HW2 5559   2.615   3.966   2.250 -0.0278  0.6633  0.0937
 1372SOL    HW3 5560   2.688   4.018   2.129 -0.7259  0.6875 -0.3213
 1372SOL    MW4 5561   2.680   4.012   2.215  0.0091  0.3409 -0.2697
 1373SOL     OW 5562   2.691   4.271   2.374  0.0134  0.0435  0.1152
 1373SOL    HW2 5563   2.685   4.258   2.469  0.4238 -0.9917  0.0051
 1373SOL    HW3 5564   2.689   4.182   2.337 -0.7765  0.4656 -0.8884
 1373SOL    MW4 5565   2.690   4.257   2.382 -0.0367 -0.0372 -0.0315
 1374SOL     OW 5566   2.927   4.374   2.266 -0.0763 -0.1359  0.3216
 1374SOL    HW2 5567   2.999   4.319   2.299  0.2413 -0.2475 -0.5491
 1374SOL    HW3 5568   2.849   4.336   2.306  0.4326  0.6022  2.0860
 1374SOL    MW4 5569   2.926   4.362   2.276  0.0324 -0.0534  0.4396
 1375SOL     OW 5570   3.361   4.626   2.321 -0.1156  0.3466 -0.3413
 1375SOL    HW2 5571   3.352   4.634   2.416 -0.6600  1.2558 -0.4635
 1375SOL    HW3 5572   3.435   4.683   2.299  0.9356 -0.9661 -0.3038
 1375SOL    MW4 5573   3.370   4.634   2.331 -0.0486  0.2933 -0.3524
 1376SOL     OW 5574   3.144   0.082   2.211 -0.0254 -0.4890 -0.1307
 1376SOL    HW2 5575   3.126   0.162   2.260 -1.5173 -0.2415 -1.0597
 1376SOL    HW3 5576   3.229   0.052   2.244 -0.3114  0.4856  1.5148
 1376SOL    MW4 5577   3.153   0.089   2.222 -0.2599 -0.3278 -0.0362
 1377SOL     OW 5578   3.110   0.341   2.336 -0.4860  0.1326 -0.3744
 1377SOL    HW2 5579   3.182   0.397   2.309  0.0613 -0.9906 -1.2881
 1377SOL    HW3 5580   3.031   0.392   2.319  0.0317  0.8722 -0.5617
 1377SOL    MW4 5581   3.109   0.355   2.330 -0.3452  0.0820 -0.5198
 1378SOL     OW 5582   3.353   0.527   2.283 -0.1184  0.0855 -0.1259
 1378SOL    HW2 5583   3.432   0.483   2.313  0.3496  0.6224 -0.5599
 1378SOL    HW3 5584   3.355   0.519   2.188 -0.4458  0.3347 -0.1566
 1378SOL    MW4 5585   3.363   0.521   2.275 -0.0999  0.1892 -0.1872
 1379SOL     OW 5586   3.385   0.786   2.372 -0.4884  0.0911  0.0720
 1379SOL    HW2 5587   3.465   0.815   2.327 -0.3966 -0.2889 -0.0138
 1379SOL    HW3 5588   3.372   0.697   2.341 -0.2719 -0.2755  1.0178
 1379SOL    MW4 5589   3.394   0.778   2.362 -0.4482 -0.0074  0.1860
 1380SOL     OW 5590   3.166   0.908   2.267 -0.0699 -0.3379  0.0442
 1380SOL    HW2 5591   3.245   0.873   2.309  0.0421  0.2526  0.3294
 1380SOL    HW3 5592   3.094   0.862   2.311  0.0720 -0.1288  0.5025
 1380SOL    MW4 5593   3.167   0.897   2.278 -0.0362 -0.2324  0.1426
 1381SOL     OW 5594   3.110   1.161   2.357  0.3734 -0.2280 -0.0658
 1381SOL    HW2 5595   3.175   1.227   2.334  0.4016 -0.6972 -1.3501
 1381SOL    HW3 5596   3.143   1.080   2.318 -1.0410 -0.4383 -0.8405
 1381SOL    MW4 5597   3.123   1.159   2.349  0.1907 -0.3178 -0.3376
 1382SOL     OW 5598   3.347   1.304   2.276 -0.1821  0.2165  0.1875
 1382SOL    HW2 5599   3.409   1.243   2.317 -0.0131 -0.2047 -0.6765
 1382SOL    HW3 5600   3.380   1.391   2.299 -0.0060 -0.0168  0.8168
 1382SOL    MW4 5601   3.359   1.307   2.284 -0.1369  0.1301  0.1562
 1383SOL     OW 5602   3.386   1.564   2.330 -0.3069 -0.0851 -0.0311
 1383SOL    HW2 5603   3.394   1.570   2.425 -0.2076  1.2751 -0.1285
 1383SOL    HW3 5604   3.304   1.608   2.309 -0.7423 -1.0868 -0.5092
 1383SOL    MW4 5605   3.376   1.570   2.339 -0.3512 -0.0376 -0.1070
 1384SOL     OW 5606   3.150   1.686   2.257 -0.2010  0.2941 -0.0117
 1384SOL    HW2 5607   3.136   1.778   2.281  1.5024  0.8633 -1.0669
 1384SOL    HW3 5608   3.075   1.639   2.294 -1.1117  2.1174  0.5053
 1384SOL    MW4 5609   3.138   1.692   2.265 -0.0966  0.6098 -0.0825
 1385SOL     OW 5610   3.149   1.956   2.314  0.2925 -0.6916  0.3237
 1385SOL    HW2 5611   3.146   1.956   2.410 -0.3324 -1.5866  0.3082
 1385SOL    HW3 5612   3.231   2.001   2.293 -0.7017  1.6321  1.2219
 1385SOL    MW4 5613   3.159   1.962   2.324  0.0792 -0.5031  0.4404
 1386SOL     OW 5614   3.424   2.078   2.250  0.4437 -0.2974  0.2357
 1386SOL    HW2 5615   3.494   2.037   2.301  1.4856  1.8509  0.5664
 1386SOL    HW3 5616   3.447   2.059   2.159  0.8339 -0.5799  0.3918
 1386SOL    MW4 5617   3.436   2.070   2.244  0.6325 -0.0513  0.2999
 1387SOL     OW 5618   3.422   2.363   2.300  0.0277  0.6569 -0.2027
 1387SOL    HW2 5619   3.339   2.400   2.271 -0.7788 -0.1804  0.9832
 1387SOL    HW3 5620   3.414   2.270   2.282  0.9620  0.6647 -0.6614
 1387SOL    MW4 5621   3.410   2.356   2.294  0.0443  0.5474 -0.1068
 1388SOL     OW 5622   3.188   2.450   2.187 -0.1919  0.1664 -0.5539
 1388SOL    HW2 5623   3.169   2.537   2.223 -0.5905 -0.1199 -0.0621
 1388SOL    HW3 5624   3.121   2.394   2.225 -0.2524 -0.2602 -1.2782
 1388SOL    MW4 5625   3.177   2.454   2.197 -0.2522  0.0722 -0.5846
 1389SOL     OW 5626   3.164   2.722   2.321  0.3036  0.0935  0.3372
 1389SOL    HW2 5627   3.170   2.722   2.417  0.1563  1.9666  0.3596
 1389SOL    HW3 5628   3.086   2.773   2.302  0.1193 -0.5946 -0.7846
 1389SOL    MW4 5629   3.155   2.728   2.331  0.2596  0.2499  0.1922
 1390SOL     OW 5630   3.400   2.837   2.232 -0.5288 -0.0495  0.1929
 1390SOL    HW2 5631   3.394   2.925   2.269 -0.7542 -0.1637  0.4292
 1390SOL    HW3 5632   3.319   2.794   2.259 -0.3879 -0.3515  0.1368
 1390SOL    MW4 5633   3.389   2.843   2.240 -0.5398 -0.1044  0.2167
 1391SOL     OW 5634   3.398   3.099   2.332 -0.1262  0.1776  0.8506
 1391SOL    HW2 5635   3.464   3.152   2.287 -0.1299 -2.0328 -1.9360
 1391SOL    HW3 5636   3.314   3.134   2.302 -0.1327 -0.8642 -0.3980
 1391SOL    MW4 5637   3.396   3.110   2.322 -0.1276 -0.2515  0.3181
 1392SOL     OW 5638   3.148   3.206   2.239 -0.0167  0.1675  0.1160
 1392SOL    HW2 5639   3.142   3.300   2.256  2.2133  0.0866  1.4940
 1392SOL    HW3 5640   3.143   3.199   2.144  0.5535  1.7551 -0.0497
 1392SOL    MW4 5641   3.146   3.217   2.229  0.3529  0.3664  0.2759
 1393SOL     OW 5642   3.123   3.476   2.323  0.1027  0.6272  0.1023
 1393SOL    HW2 5643   3.135   3.471   2.418 -0.7962 -1.2219  0.1275
 1393SOL    HW3 5644   3.196   3.530   2.293  1.7485 -0.7034  1.5864
 1393SOL    MW4 5645   3.134   3.483   2.331  0.2015  0.2077  0.3016
 1394SOL     OW 5646   3.351   3.636   2.302  0.5533 -0.5691 -0.0753
 1394SOL    HW2 5647   3.424   3.593   2.347 -0.1165 -2.5447 -0.8285
 1394SOL    HW3 5648   3.368   3.618   2.209 -1.2968 -1.6877 -0.2048
 1394SOL    MW4 5649   3.363   3.628   2.295  0.2208 -0.9773 -0.1917
 1395SOL     OW 5650   3.396   3.876   2.381 -0.3570 -0.5906 -0.1612
 1395SOL    HW2 5651   3.461   3.918   2.325 -0.9896 -0.5429 -0.8691
 1395SOL    HW3 5652   3.386   3.788   2.346 -0.8065 -0.5387 -0.1765
 1395SOL    MW4 5653   3.403   3.870   2.369 -0.4995 -0.5774 -0.2565
 1396SOL     OW 5654   3.178   3.987   2.251  0.6427 -0.0683 -0.1414
 1396SOL    HW2 5655   3.254   3.957   2.301 -0.0092 -0.1283  0.8075
 1396SOL    HW3 5656   3.102   3.957   2.301 -0.0184  0.0194 -1.0686
 1396SOL    MW4 5657   3.178   3.979   2.264  0.4694 -0.0646 -0.1385
 1397SOL     OW 5658   3.163   4.265   2.374 -0.8060 -0.0525 -0.0253
 1397SOL    HW2 5659   3.235   4.315   2.337  1.0541 -2.4802  0.2124
 1397SOL    HW3 5660   3.170   4.178   2.334 -2.3302 -0.9571  1.5854
 1397SOL    MW4 5661   3.173   4.260   2.364 -0.7615 -0.4921  0.2189
 1398SOL     OW 5662   3.412   4.361   2.288  0.0127 -0.4655 -0.0189
 1398SOL    HW2 5663   3.408   4.451   2.319  0.1887 -0.7778  0.9317
 1398SOL    HW3 5664   3.411   4.368   2.193  1.1234  0.5812  0.0450
 1398SOL    MW4 5665   3.411   4.374   2.280  0.1826 -0.3686  0.1147
 1399SOL     OW 5666   3.800   0.002   2.345 -0.1440 -0.0198  0.5319
 1399SOL    HW2 5667   3.806   0.015   2.439  1.1099 -1.2046  0.6335
 1399SOL    HW3 5668   3.874   0.050   2.309  0.3018 -0.8845  0.2888
 1399SOL    MW4 5669   3.810   0.010   2.353  0.0801 -0.2909  0.5133
 1400SOL     OW 5670   3.571   0.145   2.251 -0.1871  0.1889  0.0358
 1400SOL    HW2 5671   3.592   0.230   2.288 -1.7239  1.4416 -1.9048
 1400SOL    HW3 5672   3.638   0.086   2.285  0.9441  2.1894  1.2942
 1400SOL    MW4 5673   3.582   0.148   2.260 -0.2406  0.6181 -0.0544
 1401SOL     OW 5674   3.598   0.395   2.369 -0.5551 -0.0955  0.2623
 1401SOL    HW2 5675   3.595   0.399   2.465 -1.1190  0.3854  0.2288
 1401SOL    HW3 5676   3.690   0.410   2.348 -0.6974  1.5485  0.6687
 1401SOL    MW4 5677   3.610   0.398   2.379 -0.6485  0.1849  0.3114
 1402SOL     OW 5678   3.848   0.477   2.265 -0.0673  0.2089 -0.2483
 1402SOL    HW2 5679   3.833   0.569   2.289 -0.7714 -0.3640  1.5501
 1402SOL    HW3 5680   3.829   0.474   2.171  0.8279  2.0853 -0.5262
 1402SOL    MW4 5681   3.844   0.489   2.256 -0.0424  0.3809 -0.0477
 1403SOL     OW 5682   3.806   0.736   2.349  0.2016  0.2963  0.2453
 1403SOL    HW2 5683   3.794   0.741   2.444  0.5298  0.1836  0.2931
 1403SOL    HW3 5684   3.881   0.792   2.331 -0.8725  1.6240 -0.1544
 1403SOL    MW4 5685   3.815   0.744   2.359  0.1035  0.4566  0.1991
 1404SOL     OW 5686   3.608   0.915   2.267 -0.0945  0.6717 -0.0773
 1404SOL    HW2 5687   3.677   0.854   2.292  0.3719  0.5760 -1.5095
 1404SOL    HW3 5688   3.608   0.913   2.171 -2.5044  0.2213 -0.1096
 1404SOL    MW4 5689   3.617   0.907   2.257 -0.3510  0.5996 -0.2706
 1405SOL     OW 5690   3.579   1.171   2.368 -0.3643 -0.1039 -0.1230
 1405SOL    HW2 5691   3.594   1.176   2.462  0.8380  1.7004 -0.3795
 1405SOL    HW3 5692   3.579   1.077   2.348  1.2871 -0.4457  1.3954
 1405SOL    MW4 5693   3.581   1.159   2.378  0.0122  0.0889  0.0434
 1406SOL     OW 5694   3.813   1.276   2.233  0.4001 -0.3152 -0.1385
 1406SOL    HW2 5695   3.809   1.359   2.280 -0.2453 -0.2491 -0.3029
 1406SOL    HW3 5696   3.747   1.221   2.276  0.9629 -0.8076  0.0972
 1406SOL    MW4 5697   3.804   1.279   2.245  0.3891 -0.3713 -0.1292
 1407SOL     OW 5698   3.837   1.518   2.363 -0.2742  0.0312  0.9576
 1407SOL    HW2 5699   3.841   1.511   2.459 -1.4742  2.5514  1.2386
 1407SOL    HW3 5700   3.768   1.583   2.347  0.1499 -0.1076 -1.6227
 1407SOL    MW4 5701   3.828   1.526   2.374 -0.3767  0.3455  0.6545
 1408SOL     OW 5702   3.645   1.706   2.275  0.2551 -0.5420 -0.4002
 1408SOL    HW2 5703   3.564   1.655   2.267  0.2070 -0.4560 -0.4607
 1408SOL    HW3 5704   3.675   1.717   2.185 -0.5720  0.8880 -0.5173
 1408SOL    MW4 5705   3.638   1.700   2.262  0.1400 -0.3420 -0.4237
 1409SOL     OW 5706   3.640   1.956   2.381 -0.1242 -0.0556  0.0300
 1409SOL    HW2 5707   3.709   2.003   2.333 -0.3909  0.8103  0.4915
 1409SOL    HW3 5708   3.641   1.868   2.344  1.8742 -0.3276  0.6844
 1409SOL    MW4 5709   3.649   1.950   2.370  0.1044  0.0228  0.1774
 1410SOL     OW 5710   3.874   2.073   2.240 -0.2826  0.7621  0.1623
 1410SOL    HW2 5711   3.953   2.025   2.264 -1.1362 -1.3780 -1.1975
 1410SOL    HW3 5712   3.873   2.074   2.145 -2.0344  0.5258  0.1526
 1410SOL    MW4 5713   3.884   2.067   2.231 -0.6266  0.4487 -0.0181
 1411SOL     OW 5714   3.845   2.314   2.375  0.2803 -0.3926 -0.0998
 1411SOL    HW2 5715   3.771   2.368   2.345  1.8623  1.3717 -0.9565
 1411SOL    HW3 5716   3.837   2.232   2.326 -1.1490 -0.2425 -0.1266
 1411SOL    MW4 5717   3.834   2.311   2.364  0.3006 -0.1400 -0.2165
 1412SOL     OW 5718   3.666   2.468   2.219  0.2207  0.3816 -0.3732
 1412SOL    HW2 5719   3.583   2.420   2.230  1.6270 -1.9650  0.2587
 1412SOL    HW3 5720   3.664   2.496   2.127 -0.4528 -1.2770 -0.9001
 1412SOL    MW4 5721   3.655   2.465   2.208  0.3173 -0.1469 -0.3593
 1413SOL     OW 5722   3.630   2.712   2.346 -0.6681  0.0081  0.0906
 1413SOL    HW2 5723   3.635   2.632   2.293  1.5957  0.9880 -1.2556
 1413SOL    HW3 5724   3.546   2.752   2.322 -1.6583 -1.7588  0.5130
 1413SOL    MW4 5725   3.620   2.707   2.336 -0.5002 -0.0958 -0.0312
 1414SOL     OW 5726   3.829   2.846   2.233 -0.0582 -0.0016  0.3085
 1414SOL    HW2 5727   3.817   2.936   2.261  0.5768  0.0608  0.4060
 1414SOL    HW3 5728   3.750   2.800   2.261 -0.3278  0.4976  0.3619
 1414SOL    MW4 5729   3.817   2.852   2.240 -0.0098  0.0725  0.3283
 1415SOL     OW 5730   3.817   3.109   2.326  0.1158 -0.1056  0.0441
 1415SOL    HW2 5731   3.832   3.096   2.419  0.9808  1.2042  0.0966
 1415SOL    HW3 5732   3.897   3.151   2.294 -0.8934  1.1517 -0.9066
 1415SOL    MW4 5733   3.829   3.113   2.334  0.0966  0.2332 -0.0744
 1416SOL     OW 5734   3.591   3.250   2.212 -0.7711  0.1438 -0.0642
 1416SOL    HW2 5735   3.590   3.340   2.244  1.1951 -0.4632  1.7759
 1416SOL    HW3 5736   3.669   3.212   2.250 -0.7478 -1.9165 -2.0778
 1416SOL    MW4 5737   3.601   3.257   2.221 -0.5085 -0.2081 -0.0870
 1417SOL     OW 5738   3.589   3.499   2.336  0.0849 -0.3358 -0.1845
 1417SOL    HW2 5739   3.597   3.469   2.426 -0.3516 -1.4262 -0.5009
 1417SOL    HW3 5740   3.676   3.533   2.314  0.5322 -1.1892  0.2515
 1417SOL    MW4 5741   3.601   3.499   2.345  0.0865 -0.5922 -0.1686
 1418SOL     OW 5742   3.834   3.583   2.256 -0.6476 -0.1231 -0.3400
 1418SOL    HW2 5743   3.829   3.670   2.296 -0.7053  0.1161 -0.8688
 1418SOL    HW3 5744   3.838   3.599   2.162  1.4850 -0.6229 -0.3633
 1418SOL    MW4 5745   3.834   3.596   2.249 -0.3738 -0.1576 -0.4129
 1419SOL     OW 5746   3.815   3.841   2.325  0.0617 -0.1941  0.3971
 1419SOL    HW2 5747   3.823   3.832   2.420 -1.4791  2.1062  0.7912
 1419SOL    HW3 5748   3.889   3.895   2.300  0.4265 -0.7386  0.2972
 1419SOL    MW4 5749   3.826   3.847   2.334 -0.0935  0.0377  0.4358
 1420SOL     OW 5750   3.606   3.997   2.220 -0.3262  0.2493  0.1085
 1420SOL    HW2 5751   3.619   4.078   2.269 -0.0913 -0.3664  1.0917
 1420SOL    HW3 5752   3.681   3.943   2.245 -1.3075 -0.8602  0.6973
 1420SOL    MW4 5753   3.618   4.001   2.230 -0.4246  0.0219  0.3159
 1421SOL     OW 5754   3.650   4.252   2.361  0.0313  0.2043 -0.1160
 1421SOL    HW2 5755   3.719   4.295   2.310 -0.0804 -1.2641 -1.5144
 1421SOL    HW3 5756   3.568   4.286   2.324 -0.0568 -1.1512 -1.1974
 1421SOL    MW4 5757   3.648   4.262   2.350  0.0050 -0.1688 -0.4430
 1422SOL     OW 5758   3.840   4.422   2.236  0.0991  0.1265 -0.4405
 1422SOL    HW2 5759   3.915   4.383   2.281 -0.1003  0.1603 -0.0766
 1422SOL    HW3 5760   3.824   4.504   2.282 -0.3402 -0.0163 -0.3341
 1422SOL    MW4 5761   3.848   4.427   2.248  0.0148  0.1116 -0.3784
 1423SOL     OW 5762   4.272   4.630   2.339  0.4097  0.0603  0.3042
 1423SOL    HW2 5763   4.274   4.634   2.435  0.5907  0.3288  0.2905
 1423SOL    HW3 5764   4.351   4.677   2.312 -0.4943  1.4207 -0.0147
 1423SOL    MW4 5765   4.283   4.637   2.348  0.3142  0.2751  0.2606
 1424SOL     OW 5766   4.054   0.113   2.255  0.1278  0.0796 -0.0115
 1424SOL    HW2 5767   4.067   0.198   2.298  0.0840  0.6671 -1.1418
 1424SOL    HW3 5768   4.125   0.058   2.289  0.6084  0.7877  0.1492
 1424SOL    MW4 5769   4.065   0.117   2.265  0.1855  0.2505 -0.1395
 1425SOL     OW 5770   4.065   0.359   2.365  0.4174 -0.5079  0.2454
 1425SOL    HW2 5771   4.141   0.406   2.332 -0.3311  0.6407  0.1333
 1425SOL    HW3 5772   3.990   0.409   2.333 -0.3837 -1.5704  0.4405
 1425SOL    MW4 5773   4.065   0.372   2.356  0.2127 -0.4965  0.2563
 1426SOL     OW 5774   4.294   0.489   2.247  0.2826  0.0797  0.2343
 1426SOL    HW2 5775   4.269   0.572   2.286  0.0108 -0.6123  1.5450
 1426SOL    HW3 5776   4.372   0.462   2.294  0.7080 -0.1404 -0.5772
 1426SOL    MW4 5777   4.301   0.496   2.258  0.3033 -0.0407  0.3002
 1427SOL     OW 5778   4.235   0.707   2.389  0.5883 -0.0435  0.5078
 1427SOL    HW2 5779   4.165   0.759   2.350  1.4044 -0.9005 -2.2390
 1427SOL    HW3 5780   4.315   0.743   2.351  1.3906 -1.0850  1.2075
 1427SOL    MW4 5781   4.236   0.718   2.379  0.8016 -0.2940  0.2377
 1428SOL     OW 5782   4.036   0.861   2.254  0.1287  0.1750  0.1009
 1428SOL    HW2 5783   4.050   0.953   2.276  0.3046 -0.0341  0.8946
 1428SOL    HW3 5784   4.039   0.858   2.159 -0.5536  1.0988  0.0398
 1428SOL    MW4 5785   4.038   0.872   2.245  0.0615  0.2694  0.1976
 1429SOL     OW 5786   4.049   1.146   2.330 -0.1648 -0.4499 -0.0157
 1429SOL    HW2 5787   4.038   1.150   2.425  1.5999  2.2667  0.1435
 1429SOL    HW3 5788   3.974   1.194   2.295 -0.5725 -1.0602  0.0157
 1429SOL    MW4 5789   4.038   1.153   2.338  0.0143 -0.1720  0.0093
 1430SOL     OW 5790   4.249   1.329   2.263  0.4079 -0.2747 -0.4826
 1430SOL    HW2 5791   4.168   1.278   2.268  0.3660 -0.5145 -2.7892
 1430SOL    HW3 5792   4.313   1.277   2.310 -0.5625 -0.5441  0.5575
 1430SOL    MW4 5793   4.247   1.315   2.270  0.2737 -0.3419 -0.6495
 1431SOL     OW 5794   4.283   1.577   2.387  0.0562  0.4901  0.1106
 1431SOL    HW2 5795   4.270   1.492   2.346  0.8648  0.8498 -0.9131
 1431SOL    HW3 5796   4.356   1.616   2.339  0.4279  1.2939  1.3068
 1431SOL    MW4 5797   4.291   1.571   2.375  0.2127  0.6436  0.1335
 1432SOL     OW 5798   4.051   1.658   2.224 -0.0309  0.3123 -0.0892
 1432SOL    HW2 5799   4.116   1.617   2.281  0.5303  0.3691 -0.6901
 1432SOL    HW3 5800   3.967   1.637   2.266  0.3481 -0.0359  0.5107
 1432SOL    MW4 5801   4.048   1.650   2.237  0.0930  0.2739 -0.0896
 1433SOL     OW 5802   4.069   1.898   2.352 -0.2185 -0.1773  0.1281
 1433SOL    HW2 5803   4.054   1.894   2.446  2.2166  1.3081  0.6057
 1433SOL    HW3 5804   4.080   1.806   2.326  0.6705 -0.4899  1.5708
 1433SOL    MW4 5805   4.069   1.885   2.361  0.2203 -0.0226  0.3815
 1434SOL     OW 5806   4.301   2.049   2.301  0.0241 -0.3612 -0.0236
 1434SOL    HW2 5807   4.271   2.136   2.330 -0.2721  0.5171 -2.8128
 1434SOL    HW3 5808   4.221   1.996   2.301 -0.1771 -0.0625 -0.3116
 1434SOL    MW4 5809   4.286   2.054   2.305 -0.0415 -0.2058 -0.4296
 1435SOL     OW 5810   4.245   2.318   2.347 -0.4856 -0.2055  0.0175
 1435SOL    HW2 5811   4.175   2.358   2.295  0.7014  0.8444 -0.8177
 1435SOL    HW3 5812   4.325   2.361   2.316  0.6665 -2.2035  0.1427
 1435SOL    MW4 5813   4.246   2.329   2.336 -0.1769 -0.3307 -0.0763
 1436SOL     OW 5814   4.035   2.449   2.224  0.0679  0.1658 -0.5887
 1436SOL    HW2 5815   4.041   2.536   2.264  1.7237 -1.0508  1.9750
 1436SOL    HW3 5816   3.970   2.403   2.277  2.5625 -1.5927  1.0950
 1436SOL    MW4 5817   4.028   2.454   2.236  0.6151 -0.2270 -0.0284
 1437SOL     OW 5818   4.042   2.703   2.329 -0.2428  0.3834 -0.1084
 1437SOL    HW2 5819   4.045   2.702   2.425  1.1618 -1.6658 -0.1354
 1437SOL    HW3 5820   3.965   2.755   2.308 -0.9489  0.3134  2.1503
 1437SOL    MW4 5821   4.032   2.710   2.339 -0.1502  0.1040  0.1862
 1438SOL     OW 5822   4.294   2.800   2.204 -0.1747 -0.0931  0.1838
 1438SOL    HW2 5823   4.226   2.737   2.230  0.3439 -0.5014  0.5713
 1438SOL    HW3 5824   4.373   2.768   2.248 -0.1980  1.6013  1.4950
 1438SOL    MW4 5825   4.295   2.787   2.213 -0.1092  0.0768  0.4079
 1439SOL     OW 5826   4.246   3.052   2.311  0.7622 -0.1738  0.7197
 1439SOL    HW2 5827   4.252   2.964   2.273 -0.7483  0.1276 -0.2552
 1439SOL    HW3 5828   4.330   3.093   2.290  1.1963 -1.1394  0.5455
 1439SOL    MW4 5829   4.258   3.046   2.303  0.6204 -0.2611  0.5682
 1440SOL     OW 5830   4.046   3.195   2.199  0.8071 -0.8794 -0.2970
 1440SOL    HW2 5831   4.065   3.276   2.246 -0.5867 -0.7938  0.1373
 1440SOL    HW3 5832   4.109   3.131   2.234  0.0880 -0.6972  1.3730
 1440SOL    MW4 5833   4.057   3.197   2.209  0.5283 -0.8440 -0.0193
 1441SOL     OW 5834   4.062   3.451   2.346 -0.2962 -0.1123 -0.3308
 1441SOL    HW2 5835   4.129   3.515   2.322 -0.4656  1.0179  2.0455
 1441SOL    HW3 5836   3.980   3.489   2.316 -0.2671  0.2172  0.0123
 1441SOL    MW4 5837   4.060   3.464   2.339 -0.3147  0.0803  0.0281
 1442SOL     OW 5838   4.298   3.593   2.267 -0.0535  0.6604  0.3250
 1442SOL    HW2 5839   4.282   3.685   2.285 -2.2241  0.7531 -1.7089
 1442SOL    HW3 5840   4.290   3.585   2.172 -0.1389 -1.6482  0.4788
 1442SOL    MW4 5841   4.295   3.604   2.257 -0.3510  0.3679  0.0770
 1443SOL     OW 5842   4.251   3.879   2.356 -0.1464  0.0797  0.1659
 1443SOL    HW2 5843   4.253   3.887   2.451 -1.1557 -1.5869  0.3449
 1443SOL    HW3 5844   4.330   3.925   2.326 -1.6508  3.7514  1.5303
 1443SOL    MW4 5845   4.262   3.886   2.364 -0.4778  0.3443  0.3695
 1444SOL     OW 5846   4.017   4.009   2.247 -0.1123 -0.1821 -0.0302
 1444SOL    HW2 5847   4.085   3.951   2.280  0.5039  0.5480 -0.0050
 1444SOL    HW3 5848   4.023   4.001   2.152  0.3170  0.2362 -0.0377
 1444SOL    MW4 5849   4.027   4.000   2.239  0.0257 -0.0305 -0.0279
 1445SOL     OW 5850   4.030   4.269   2.358 -0.3412  0.0080 -0.4039
 1445SOL    HW2 5851   4.094   4.309   2.299 -0.4420 -0.6429 -0.9637
 1445SOL    HW3 5852   4.023   4.178   2.327 -1.8674  0.1994 -0.6406
 1445SOL    MW4 5853   4.038   4.262   2.346 -0.5555 -0.0525 -0.5090
 1446SOL     OW 5854   4.260   4.360   2.237 -0.2052 -0.4790  0.3018
 1446SOL    HW2 5855   4.258   4.447   2.276  0.1477 -0.0831 -0.5534
 1446SOL    HW3 5856   4.324   4.311   2.288 -1.1438 -0.5418  1.4217
 1446SOL    MW4 5857   4.268   4.365   2.249 -0.2828 -0.4349  0.3366
 1447SOL     OW 5858   0.212   4.658   2.607  0.0733  0.1853 -0.2253
 1447SOL    HW2 5859   0.235   4.573   2.644 -1.5571 -2.1187 -4.1631
 1447SOL    HW3 5860   0.126   4.678   2.643  0.3953  0.1011  0.5929
 1447SOL    MW4 5861   0.204   4.649   2.617 -0.0993 -0.1297 -0.6368
 1448SOL     OW 5862   4.462   0.092   2.774  0.0661  0.0553  0.1326
 1448SOL    HW2 5863   4.457   0.092   2.869  0.9243  1.5932  0.1927
 1448SOL    HW3 5864   4.468   0.184   2.750 -2.3622 -0.1872 -1.5603
 1448SOL    MW4 5865   4.462   0.104   2.783 -0.1416  0.2262 -0.0827
 1449SOL     OW 5866   0.015   0.351   2.696  0.3469 -0.0949 -0.2892
 1449SOL    HW2 5867   0.090   0.403   2.724  1.3588 -1.6448 -0.0818
 1449SOL    HW3 5868   0.011   0.364   2.601  1.1284 -0.3249 -0.3553
 1449SOL    MW4 5869   0.025   0.360   2.687  0.5832 -0.3297 -0.2704
 1450SOL     OW 5870   0.223   0.534   2.765  0.0816 -0.5949 -0.5686
 1450SOL    HW2 5871   0.229   0.535   2.860 -0.2331  1.4527 -0.5413
 1450SOL    HW3 5872   0.307   0.501   2.735  0.9905  0.8594  0.3714
 1450SOL    MW4 5873   0.235   0.530   2.773  0.1600 -0.1329 -0.4411
 1451SOL     OW 5874   0.197   0.791   2.663  0.1665 -0.0273 -0.2885
 1451SOL    HW2 5875   0.273   0.842   2.690 -0.9976  1.3726  0.4044
 1451SOL    HW3 5876   0.215   0.702   2.695  0.6271  0.7224  1.6059
 1451SOL    MW4 5877   0.209   0.786   2.671  0.0737  0.2562  0.0529
 1452SOL     OW 5878   4.440   0.893   2.757 -0.1704 -0.1265 -0.4674
 1452SOL    HW2 5879   4.370   0.839   2.721  0.1736 -0.8426 -0.0730
 1452SOL    HW3 5880   4.521   0.851   2.726  0.0861  0.6064 -0.7949
 1452SOL    MW4 5881   4.442   0.880   2.748 -0.0911 -0.1243 -0.4585
 1453SOL     OW 5882   4.449   1.155   2.654  0.2000  0.2306  0.1686
 1453SOL    HW2 5883   4.531   1.196   2.681 -0.4322 -0.0921  2.7407
 1453SOL    HW3 5884   4.451   1.068   2.695 -0.6607 -0.4532 -1.1906
 1453SOL    MW4 5885   4.460   1.149   2.663  0.0033  0.0978  0.3285
 1454SOL     OW 5886   0.177   1.281   2.745 -0.0112 -0.1828  0.0254
 1454SOL    HW2 5887   0.259   1.233   2.729  0.0994 -0.3705  1.0776
 1454SOL    HW3 5888   0.197   1.371   2.720  1.0733  0.1227  1.8135
 1454SOL    MW4 5889   0.191   1.286   2.740  0.1465 -0.1670  0.4003
 1455SOL     OW 5890   0.217   1.540   2.623  0.1722  0.1926  0.0428
 1455SOL    HW2 5891   0.283   1.588   2.673 -1.6911  0.4198  2.4163
 1455SOL    HW3 5892   0.136   1.587   2.640 -0.9762 -1.3462 -1.0251
 1455SOL    MW4 5893   0.215   1.553   2.632 -0.2252  0.0194  0.2151
 1456SOL     OW 5894   4.489   1.704   2.729  0.2359 -0.3484  0.4387
 1456SOL    HW2 5895   4.506   1.699   2.823 -0.2130 -0.9160  0.4911
 1456SOL    HW3 5896   4.459   1.794   2.715  1.4750  0.1101  0.6386
 1456SOL    MW4 5897   4.487   1.715   2.739  0.3402 -0.3628  0.4718
 1457SOL     OW 5898   4.489   1.968   2.660 -0.3339  0.4460 -0.5850
 1457SOL    HW2 5899   4.576   1.990   2.692 -0.3332  0.5128 -0.6330
 1457SOL    HW3 5900   4.500   1.958   2.566 -0.1111 -0.8484 -0.4303
 1457SOL    MW4 5901   4.502   1.970   2.652 -0.3044  0.2841 -0.5708
 1458SOL     OW 5902   0.245   2.070   2.729 -0.2138  0.2312  0.2231
 1458SOL    HW2 5903   0.324   2.033   2.690  1.1813  1.2296  2.0171
 1458SOL    HW3 5904   0.239   2.158   2.691  0.0407  0.4760  0.7434
 1458SOL    MW4 5905   0.255   2.077   2.719  0.0038  0.3948  0.5286
 1459SOL     OW 5906   0.239   2.334   2.600 -0.3235  0.1027 -0.1560
 1459SOL    HW2 5907   0.310   2.372   2.652  0.9208 -0.2505 -1.5733
 1459SOL    HW3 5908   0.161   2.383   2.627  0.7677  1.7473  0.0829
 1459SOL    MW4 5909   0.238   2.345   2.610 -0.0153  0.2730 -0.3114
 1460SOL     OW 5910   0.024   2.457   2.707 -0.0388  0.6228  0.1825
 1460SOL    HW2 5911   0.005   2.452   2.801  0.6943 -1.9406  0.2229
 1460SOL    HW3 5912  -0.060   2.438   2.665  0.1002 -0.3861  0.3432
 1460SOL    MW4 5913   0.010   2.454   2.714  0.0763  0.1514  0.2093
 1461SOL     OW 5914   0.048   2.720   2.657  0.5946  0.0419  0.5033
 1461SOL    HW2 5915  -0.034   2.765   2.677  0.6158  0.7123 -0.8303
 1461SOL    HW3 5916   0.032   2.629   2.680 -0.3281  0.2754  0.8018
 1461SOL    MW4 5917   0.035   2.714   2.663  0.4757  0.1612  0.3667
 1462SOL     OW 5918   0.252   2.861   2.777 -0.3912  0.1456 -0.3480
 1462SOL    HW2 5919   0.265   2.944   2.730  1.6878 -1.1750 -2.2470
 1462SOL    HW3 5920   0.178   2.820   2.732  0.6053 -0.4165 -1.5235
 1462SOL    MW4 5921   0.244   2.867   2.765  0.0146 -0.1028 -0.7536
 1463SOL     OW 5922   0.245   3.099   2.641  0.3172 -0.2193  0.0679
 1463SOL    HW2 5923   0.327   3.134   2.677  0.3414 -0.1106 -0.0920
 1463SOL    HW3 5924   0.256   3.105   2.546 -0.0387  0.1732  0.0485
 1463SOL    MW4 5925   0.257   3.105   2.633  0.2735 -0.1531  0.0443
 1464SOL     OW 5926   0.018   3.224   2.729  0.0147  0.1551  0.2978
 1464SOL    HW2 5927  -0.051   3.173   2.687 -0.1431  0.1589  0.5597
 1464SOL    HW3 5928   0.099   3.176   2.708 -0.1454 -0.2579  0.6375
 1464SOL    MW4 5929   0.020   3.211   2.721 -0.0267  0.1011  0.3772
 1465SOL     OW 5930   0.032   3.498   2.643 -0.5441  0.1924 -0.1641
 1465SOL    HW2 5931   0.111   3.532   2.687 -0.2113  0.3117 -0.8413
 1465SOL    HW3 5932   0.028   3.406   2.668 -0.0033  0.1065 -0.3872
 1465SOL    MW4 5933   0.042   3.491   2.652 -0.4288  0.1967 -0.2830
 1466SOL     OW 5934   0.247   3.583   2.773 -0.1466 -0.1095 -0.0327
 1466SOL    HW2 5935   0.244   3.578   2.869 -1.0735  0.1431 -0.0373
 1466SOL    HW3 5936   0.331   3.544   2.749  0.8333  1.3327  0.9791
 1466SOL    MW4 5937   0.258   3.577   2.783 -0.1396  0.1140  0.1004
 1467SOL     OW 5938   0.230   3.834   2.625  0.4209 -0.0564  0.3412
 1467SOL    HW2 5939   0.223   3.747   2.664 -1.4346 -0.0114  0.1349
 1467SOL    HW3 5940   0.256   3.817   2.534  1.4881 -0.3095  0.6809
 1467SOL    MW4 5941   0.232   3.820   2.618  0.3169 -0.0842  0.3591
 1468SOL     OW 5942   4.476   4.045   2.764  0.2755  0.1688  0.5128
 1468SOL    HW2 5943   4.480   4.133   2.725 -0.0509 -0.4725 -1.0050
 1468SOL    HW3 5944   4.545   3.996   2.720 -0.3047 -0.6635  0.5155
 1468SOL    MW4 5945   4.486   4.050   2.753  0.1554 -0.0253  0.3130
 1469SOL     OW 5946   4.483   4.307   2.641 -0.2340  0.4637  0.6000
 1469SOL    HW2 5947   4.407   4.332   2.694 -0.4334  0.7792  0.1745
 1469SOL    HW3 5948   4.558   4.347   2.686 -0.4458  1.0514  0.4328
 1469SOL    MW4 5949   4.483   4.316   2.654 -0.2885  0.5827  0.5217
 1470SOL     OW 5950   0.220   4.417   2.751  0.3726  0.2226 -0.1339
 1470SOL    HW2 5951   0.221   4.410   2.847 -0.7096 -0.9549 -0.1927
 1470SOL    HW3 5952   0.275   4.344   2.722  0.8843  0.7156 -0.4098
 1470SOL    MW4 5953   0.228   4.406   2.760  0.2973  0.1321 -0.1779
 1471SOL     OW 5954   0.670   4.646   2.634  0.4231 -0.1615  0.1955
 1471SOL    HW2 5955   0.741   4.690   2.681  1.1647  0.9756 -1.9084
 1471SOL    HW3 5956   0.594   4.701   2.649  0.8635  0.6980 -0.6224
 1471SOL    MW4 5957   0.670   4.659   2.642  0.5791  0.1016 -0.1895
 1472SOL     OW 5958   0.449   0.135   2.679 -0.1247  0.2755  0.3041
 1472SOL    HW2 5959   0.437   0.129   2.774  0.6064 -1.8451  0.2963
 1472SOL    HW3 5960   0.369   0.097   2.642 -0.1251  0.4976  0.0767
 1472SOL    MW4 5961   0.437   0.129   2.687 -0.0283  0.0250  0.2728
 1473SOL     OW 5962   0.467   0.416   2.602 -0.6735  0.2510 -0.5385
 1473SOL    HW2 5963   0.550   0.452   2.634 -1.8704  0.4477  2.5160
 1473SOL    HW3 5964   0.470   0.324   2.625 -0.4249 -0.2421 -2.4220
 1473SOL    MW4 5965   0.479   0.409   2.609 -0.7986  0.2119 -0.3841
 1474SOL     OW 5966   0.670   0.538   2.744 -0.2704 -0.0263 -0.1413
 1474SOL    HW2 5967   0.674   0.527   2.839  0.2528  1.8508  0.0829
 1474SOL    HW3 5968   0.736   0.478   2.710  0.5597  0.3432  0.7935
 1474SOL    MW4 5969   0.680   0.529   2.752 -0.0918  0.2701  0.0117
 1475SOL     OW 5970   0.660   0.820   2.656 -0.1599 -0.4026  0.7209
 1475SOL    HW2 5971   0.741   0.861   2.687  1.2246 -1.1357 -1.7191
 1475SOL    HW3 5972   0.666   0.730   2.687  0.9574 -0.9849 -1.0584
 1475SOL    MW4 5973   0.672   0.814   2.664  0.1702 -0.5761  0.1640
 1476SOL     OW 5974   0.419   0.932   2.763  0.0256  0.3188  0.6426
 1476SOL    HW2 5975   0.428   1.021   2.730 -2.0749 -0.5006 -2.3701
 1476SOL    HW3 5976   0.493   0.884   2.725  0.1993  0.3905  0.8878
 1476SOL    MW4 5977   0.430   0.937   2.754 -0.2286  0.2201  0.2775
 1477SOL     OW 5978   0.411   1.186   2.637  0.3211  0.1608  0.1134
 1477SOL    HW2 5979   0.492   1.235   2.649 -1.0062  2.3138  0.4205
 1477SOL    HW3 5980   0.395   1.186   2.543  1.0732 -0.9723 -0.0322
 1477SOL    MW4 5981   0.420   1.192   2.627  0.2452  0.2953  0.1347
 1478SOL     OW 5982   0.660   1.267   2.727 -0.0744 -0.9430 -0.1345
 1478SOL    HW2 5983   0.665   1.255   2.822 -0.4469 -0.6650 -0.0777
 1478SOL    HW3 5984   0.747   1.241   2.695 -0.1799 -1.7172  0.2010
 1478SOL    MW4 5985   0.672   1.262   2.735 -0.1374 -1.0084 -0.0830
 1479SOL     OW 5986   0.695   1.538   2.654  0.2097  0.3631 -0.1788
 1479SOL    HW2 5987   0.617   1.580   2.691  0.1349 -0.2266  0.3482
 1479SOL    HW3 5988   0.682   1.445   2.671  1.2617  0.3110  0.3720
 1479SOL    MW4 5989   0.683   1.532   2.661  0.3387  0.2784 -0.0367
 1480SOL     OW 5990   0.439   1.644   2.744 -0.1910 -0.1109  0.3240
 1480SOL    HW2 5991   0.441   1.659   2.839  0.3889  0.6176  0.2062
 1480SOL    HW3 5992   0.441   1.732   2.706 -0.9109 -0.3867 -0.3581
 1480SOL    MW4 5993   0.440   1.658   2.752 -0.2095 -0.0511  0.2186
 1481SOL     OW 5994   0.436   1.901   2.632 -0.1249  0.4141  0.3762
 1481SOL    HW2 5995   0.513   1.947   2.667  0.1617  0.2132  0.0098
 1481SOL    HW3 5996   0.456   1.888   2.539 -1.1788  1.5681 -0.0340
 1481SOL    MW4 5997   0.449   1.906   2.624 -0.2261  0.5399  0.2737
 1482SOL     OW 5998   0.638   2.038   2.739 -0.8720 -0.0390  0.1409
 1482SOL    HW2 5999   0.653   2.052   2.833 -0.9494 -1.4365  0.3632
 1482SOL    HW3 6000   0.721   2.005   2.706 -1.1731 -0.5996 -0.0648
 1482SOL    MW4 6001   0.651   2.036   2.747 -0.9219 -0.2973  0.1433
 1483SOL     OW 6002   0.672   2.278   2.594  0.1622 -0.2386  0.0460
 1483SOL    HW2 6003   0.735   2.314   2.656 -1.1159 -0.0091  1.2268
 1483SOL    HW3 6004   0.648   2.193   2.630  0.3458 -0.6572 -0.7950
 1483SOL    MW4 6005   0.678   2.272   2.607  0.0178 -0.2635  0.0911
 1484SOL     OW 6006   0.486   2.463   2.705 -0.3135  0.4218 -0.1573
 1484SOL    HW2 6007   0.471   2.536   2.644 -1.9365 -0.8144 -1.2751
 1484SOL    HW3 6008   0.553   2.410   2.662 -0.2593  0.4358 -0.0892
 1484SOL    MW4 6009   0.493   2.466   2.691 -0.5205  0.2606 -0.2959
 1485SOL     OW 6010   0.433   2.713   2.587 -0.2753 -0.6409 -0.1023
 1485SOL    HW2 6011   0.514   2.739   2.633 -0.0761 -1.3338 -0.0571
 1485SOL    HW3 6012   0.363   2.746   2.643 -0.0381  1.9474 -1.2649
 1485SOL    MW4 6013   0.435   2.721   2.601 -0.2177 -0.3912 -0.2499
 1486SOL     OW 6014   0.638   2.818   2.726  0.1190 -0.2045 -0.3204
 1486SOL    HW2 6015   0.635   2.820   2.821 -1.9596  0.2853 -0.3877
 1486SOL    HW3 6016   0.680   2.901   2.702 -1.0937  0.5428  0.1128
 1486SOL    MW4 6017   0.643   2.829   2.735 -0.3153 -0.0410 -0.2720
 1487SOL     OW 6018   0.704   3.078   2.658  0.2970 -0.2580 -0.6583
 1487SOL    HW2 6019   0.776   3.126   2.700 -0.7796 -0.0824  1.0240
 1487SOL    HW3 6020   0.715   3.096   2.565  1.9468  0.4436 -0.3507
 1487SOL    MW4 6021   0.715   3.087   2.651  0.3726 -0.1423 -0.3958
 1488SOL     OW 6022   0.464   3.192   2.763  0.3525  0.0557  0.2597
 1488SOL    HW2 6023   0.482   3.200   2.857  0.7489 -1.1497  0.2961
 1488SOL    HW3 6024   0.541   3.147   2.727 -0.3420 -0.5940 -0.4363
 1488SOL    MW4 6025   0.477   3.187   2.771  0.3131 -0.1891  0.1726
 1489SOL     OW 6026   0.466   3.452   2.683  0.2037 -0.2571 -0.1036
 1489SOL    HW2 6027   0.462   3.362   2.715 -2.0315 -0.3189 -0.4937
 1489SOL    HW3 6028   0.470   3.444   2.588  1.0471  0.0545 -0.1032
 1489SOL    MW4 6029   0.466   3.439   2.674  0.0200 -0.2239 -0.1550
 1490SOL     OW 6030   0.684   3.628   2.754  0.4725  0.0226  0.2767
 1490SOL    HW2 6031   0.677   3.640   2.849 -0.0816  0.8848  0.1280
 1490SOL    HW3 6032   0.609   3.573   2.731  1.0786 -0.8943  0.4528
 1490SOL    MW4 6033   0.674   3.622   2.764  0.4793  0.0155  0.2804
 1491SOL     OW 6034   0.649   3.869   2.619 -0.3964 -0.4856 -0.2363
 1491SOL    HW2 6035   0.576   3.910   2.664  1.7668  2.0923  1.0611
 1491SOL    HW3 6036   0.668   3.790   2.669 -0.3619  0.4350  1.2159
 1491SOL    MW4 6037   0.642   3.864   2.631 -0.1065 -0.0241  0.1264
 1492SOL     OW 6038   0.428   3.985   2.754  0.1420  0.3898 -0.6871
 1492SOL    HW2 6039   0.417   4.073   2.719 -1.6741 -0.6344 -2.7546
 1492SOL    HW3 6040   0.373   3.929   2.699  1.1754 -2.0357  0.6409
 1492SOL    MW4 6041   0.420   3.989   2.742  0.0387 -0.0651 -0.7846
 1493SOL     OW 6042   0.417   4.241   2.619 -0.5643 -0.1549 -0.2502
 1493SOL    HW2 6043   0.493   4.293   2.644  0.4640 -1.9131  0.3188
 1493SOL    HW3 6044   0.427   4.230   2.524 -0.2354 -0.2145 -0.2085
 1493SOL    MW4 6045   0.429   4.247   2.610 -0.3852 -0.3948 -0.1698
 1494SOL     OW 6046   0.633   4.385   2.736 -0.0324  0.5755  0.3388
 1494SOL    HW2 6047   0.720   4.347   2.724 -0.3778  0.0476 -0.5279
 1494SOL    HW3 6048   0.642   4.475   2.706 -0.0794  0.1785 -0.8852
 1494SOL    MW4 6049   0.646   4.392   2.731 -0.0842  0.4535  0.0632
 1495SOL     OW 6050   1.113   4.619   2.675 -0.4174 -0.2630 -0.2929
 1495SOL    HW2 6051   1.198   4.661   2.690 -0.8582  0.0084  1.5595
 1495SOL    HW3 6052   1.132   4.525   2.682 -0.2794 -0.2008  0.1934
 1495SOL    MW4 6053   1.127   4.612   2.678 -0.4574 -0.2189  0.0157
 1496SOL     OW 6054   0.891   0.117   2.729 -0.4660 -0.1214 -0.5140
 1496SOL    HW2 6055   0.896   0.131   2.824 -0.7381 -2.5884 -0.0907
 1496SOL    HW3 6056   0.969   0.066   2.708 -1.1783 -0.9130 -1.3255
 1496SOL    MW4 6057   0.902   0.112   2.739 -0.5958 -0.5514 -0.5653
 1497SOL     OW 6058   0.864   0.369   2.632  0.0088 -0.0192 -0.6173
 1497SOL    HW2 6059   0.868   0.277   2.658 -0.0981  0.3005  0.5770
 1497SOL    HW3 6060   0.878   0.368   2.537 -1.8676 -1.4124 -0.9043
 1497SOL    MW4 6061   0.866   0.357   2.623 -0.2528 -0.1609 -0.4978
 1498SOL     OW 6062   1.127   0.444   2.733  0.6870  0.0974 -0.6556
 1498SOL    HW2 6063   1.119   0.539   2.718 -0.2645 -0.1723 -2.0062
 1498SOL    HW3 6064   1.045   0.408   2.698  0.6785 -1.1425  0.6265
 1498SOL    MW4 6065   1.115   0.452   2.726  0.5603 -0.1018 -0.6645
 1499SOL     OW 6066   1.079   0.708   2.674 -0.4404  0.2739  0.1904
 1499SOL    HW2 6067   1.153   0.760   2.706 -0.5448  0.2130  0.5256
 1499SOL    HW3 6068   1.092   0.704   2.579 -0.6129  1.1978  0.1242
 1499SOL    MW4 6069   1.090   0.714   2.665 -0.4770  0.3878  0.2258
 1500SOL     OW 6070   0.913   0.918   2.729 -0.0177 -0.3339 -0.6312
 1500SOL    HW2 6071   0.907   0.908   2.824 -0.8536 -0.0991 -0.6549
 1500SOL    HW3 6072   0.976   0.851   2.702  1.5038  0.7139  0.2735
 1500SOL    MW4 6073   0.921   0.908   2.738  0.0728 -0.1647 -0.5150
 1501SOL     OW 6074   0.907   1.185   2.616 -0.1536  0.3907  0.4137
 1501SOL    HW2 6075   0.907   1.097   2.654 -1.3838  0.3980  0.4333
 1501SOL    HW3 6076   0.903   1.170   2.521 -0.3799  0.4217  0.4177
 1501SOL    MW4 6077   0.907   1.171   2.608 -0.3458  0.3958  0.4168
 1502SOL     OW 6078   1.103   1.326   2.734 -0.0980  0.7005  0.1861
 1502SOL    HW2 6079   1.114   1.401   2.676 -1.0303  0.7425  0.0487
 1502SOL    HW3 6080   1.041   1.269   2.688 -0.2157  0.3525  0.7687
 1502SOL    MW4 6081   1.096   1.328   2.720 -0.2365  0.6602  0.2449
 1503SOL     OW 6082   1.159   1.554   2.620  0.0664 -0.7749  0.3175
 1503SOL    HW2 6083   1.077   1.598   2.644 -0.4948 -2.0956  0.8624
 1503SOL    HW3 6084   1.159   1.553   2.524 -0.2001 -0.1044  0.3095
 1503SOL    MW4 6085   1.148   1.560   2.611 -0.0428 -0.8608  0.3884
 1504SOL     OW 6086   0.927   1.692   2.692  0.6661 -0.0780  0.5742
 1504SOL    HW2 6087   0.956   1.709   2.781  0.1585 -1.8140  1.0916
 1504SOL    HW3 6088   0.846   1.642   2.702  1.9304 -2.5286 -0.7941
 1504SOL    MW4 6089   0.920   1.688   2.705  0.7659 -0.6303  0.4618
 1505SOL     OW 6090   0.856   1.942   2.623  0.0831  0.5146  0.4394
 1505SOL    HW2 6091   0.937   1.990   2.641 -0.2859  0.6949  1.6564
 1505SOL    HW3 6092   0.872   1.853   2.654  0.2961  0.1764 -0.6038
 1505SOL    MW4 6093   0.869   1.937   2.629  0.0625  0.4938  0.4623
 1506SOL     OW 6094   1.083   2.056   2.719  0.2872  0.0951 -0.2373
 1506SOL    HW2 6095   1.160   2.022   2.674  0.5402  0.4418 -0.0563
 1506SOL    HW3 6096   1.089   2.151   2.710  0.1659  0.1476  0.2563
 1506SOL    MW4 6097   1.094   2.064   2.712  0.3046  0.1476 -0.1483
 1507SOL     OW 6098   1.112   2.344   2.678  0.2226 -0.0780  0.0932
 1507SOL    HW2 6099   1.195   2.384   2.702 -0.6924  2.3566 -0.6034
 1507SOL    HW3 6100   1.109   2.348   2.583 -1.1537  0.8822  0.1548
 1507SOL    MW4 6101   1.122   2.350   2.669 -0.0798  0.3698  0.0095
 1508SOL     OW 6102   0.848   2.420   2.757 -0.2347  0.1305 -0.0029
 1508SOL    HW2 6103   0.848   2.507   2.718 -2.0492 -0.5216 -1.5180
 1508SOL    HW3 6104   0.940   2.391   2.752  0.1913  1.5248 -0.4163
 1508SOL    MW4 6105   0.860   2.428   2.751 -0.4179  0.2282 -0.2575
 1509SOL     OW 6106   0.857   2.680   2.649 -0.0329 -0.3454  0.4552
 1509SOL    HW2 6107   0.931   2.735   2.673  0.3396 -1.4365  1.8499
 1509SOL    HW3 6108   0.780   2.725   2.685  0.2466 -0.6178  1.3983
 1509SOL    MW4 6109   0.856   2.693   2.657  0.0531 -0.5255  0.7637
 1510SOL     OW 6110   1.083   2.832   2.727  0.0000  0.0000  0.0310
 1510SOL    HW2 6111   1.106   2.825   2.819  0.0000  0.0000  0.0319
 1510SOL    HW3 6112   1.159   2.795   2.681  0.0000  0.0000  0.0345
 1510SOL    MW4 6113   1.096   2.826   2.733  0.0000  0.0000  0.0315
 1511SOL     OW 6114   1.148   3.096   2.634  0.0000  0.0000  0.2188
 1511SOL    HW2 6115   1.122   3.007   2.657  0.0000  0.0000  0.2184
 1511SOL    HW3 6116   1.136   3.101   2.540  0.0000  0.0000  0.2188
 1511SOL    MW4 6117   1.143   3.085   2.625  0.0000  0.0000  0.2186
 1512SOL     OW 6118   0.919   3.208   2.763  0.0000  0.0000  0.5692
 1512SOL    HW2 6119   0.903   3.287   2.711  0.0000  0.0000  0.5318
 1512SOL    HW3 6120   1.006   3.179   2.736  0.0000  0.0000  0.6090
 1512SOL    MW4 6121   0.928   3.215   2.752  0.0000  0.0000  0.5696
 1513SOL     OW 6122   0.887   3.462   2.639  0.0000  0.0000  0.1505
 1513SOL    HW2 6123   0.961   3.509   2.679  0.0000  0.0000  0.0993
 1513SOL    HW3 6124   0.810   3.512   2.667  0.0000  0.0000  0.1602
 1513SOL    MW4 6125   0.887   3.475   2.648  0.0000  0.0000  0.1452
 1514SOL     OW 6126   1.102   3.599   2.728  0.0000  0.0000 -0.5611
 1514SOL    HW2 6127   1.101   3.626   2.820  0.0000  0.0000 -0.5645
 1514SOL    HW3 6128   1.100   3.681   2.679  0.0000  0.0000 -0.5721
 1514SOL    MW4 6129   1.102   3.613   2.733  0.0000  0.0000 -0.5629
 1515SOL     OW 6130   1.098   3.851   2.625  0.0000  0.0000 -0.3490
 1515SOL    HW2 6131   1.178   3.889   2.663  0.0000  0.0000 -0.3573
 1515SOL    HW3 6132   1.110   3.859   2.530  0.0000  0.0000 -0.3503
 1515SOL    MW4 6133   1.110   3.857   2.617  0.0000  0.0000 -0.3500
 1516SOL     OW 6134   0.893   4.008   2.713  0.0000  0.0000  0.1590
 1516SOL    HW2 6135   0.957   3.963   2.658  0.0000  0.0000  0.1461
 1516SOL    HW3 6136   0.809   3.969   2.687  0.0000  0.0000  0.1521
 1516SOL    MW4 6137   0.890   3.997   2.702  0.0000  0.0000  0.1564
 1517SOL     OW 6138   0.888   4.266   2.684  0.0000  0.0000  0.0955
 1517SOL    HW2 6139   0.892   4.173   2.708  0.0000  0.0000  0.0958
 1517SOL    HW3 6140   0.884   4.265   2.588  0.0000  0.0000  0.0952
 1517SOL    MW4 6141   0.888   4.254   2.675  0.0000  0.0000  0.0954
 1518SOL     OW 6142   1.144   4.351   2.745  0.0000  0.0000 -0.9156
 1518SOL    HW2 6143   1.137   4.378   2.836  0.0000  0.0000 -0.9161
 1518SOL    HW3 6144   1.055   4.327   2.720  0.0000  0.0000 -0.9152
 1518SOL    MW4 6145   1.131   4.351   2.753  0.0000  0.0000 -0.9158
 1519SOL     OW 6146   1.578   4.639   2.665  0.0980  0.0373 -0.3546
 1519SOL    HW2 6147   1.563   4.545   2.680  0.4550 -0.0609 -0.6080
 1519SOL    HW3 6148   1.569   4.650   2.570  0.2282  0.2294 -0.3445
 1519SOL    MW4 6149   1.575   4.628   2.655  0.1624  0.0496 -0.3865
 1520SOL     OW 6150   1.343   0.109   2.731 -0.7491  0.3022 -0.1425
 1520SOL    HW2 6151   1.349   0.199   2.699 -1.9916 -0.2276 -1.9617
 1520SOL    HW3 6152   1.430   0.073   2.718  0.0159  1.5039  1.4786
 1520SOL    MW4 6153   1.355   0.116   2.725 -0.8121  0.3909 -0.1688
 1521SOL     OW 6154   1.365   0.360   2.617 -0.0664  0.4491 -0.2900
 1521SOL    HW2 6155   1.439   0.404   2.659  0.1039  1.0683 -1.2335
 1521SOL    HW3 6156   1.288   0.406   2.649  0.0277  0.5398 -0.1939
 1521SOL    MW4 6157   1.365   0.372   2.626 -0.0316  0.5428 -0.4017
 1522SOL     OW 6158   1.574   0.523   2.731  0.0141  0.0401  0.1436
 1522SOL    HW2 6159   1.650   0.482   2.690 -0.4614 -0.3047 -0.4122
 1522SOL    HW3 6160   1.581   0.615   2.709  0.5274  0.0866  0.5030
 1522SOL    MW4 6161   1.585   0.529   2.723  0.0191  0.0008  0.1175
 1523SOL     OW 6162   1.554   0.795   2.651 -0.0069 -0.3318  0.2576
 1523SOL    HW2 6163   1.475   0.832   2.690 -0.7427 -0.5788 -0.9710
 1523SOL    HW3 6164   1.534   0.790   2.558  2.3971  1.9336 -0.4136
 1523SOL    MW4 6165   1.541   0.799   2.644  0.2131 -0.0656  0.0072
 1524SOL     OW 6166   1.303   0.880   2.750  0.3133  0.4549 -0.8776
 1524SOL    HW2 6167   1.320   0.894   2.843 -0.3290  0.0608 -0.6935
 1524SOL    HW3 6168   1.290   0.967   2.715 -1.0016  0.5117 -0.2766
 1524SOL    MW4 6169   1.303   0.893   2.758  0.0551  0.4104 -0.7741
 1525SOL     OW 6170   1.296   1.139   2.655  0.4101 -0.0327  0.0813
 1525SOL    HW2 6171   1.387   1.170   2.660  0.2218  0.5450 -0.1072
 1525SOL    HW3 6172   1.246   1.204   2.703 -0.3229  1.2948 -2.3936
 1525SOL    MW4 6173   1.302   1.151   2.662  0.2886  0.2185 -0.2701
 1526SOL     OW 6174   1.538   1.262   2.717 -0.0985 -0.1042 -0.0151
 1526SOL    HW2 6175   1.536   1.260   2.813 -2.0024 -2.8100 -0.0497
 1526SOL    HW3 6176   1.623   1.225   2.694 -0.1585 -0.6308  0.6058
 1526SOL    MW4 6177   1.549   1.257   2.727 -0.3577 -0.5307  0.0620
 1527SOL     OW 6178   1.563   1.543   2.664  0.3552 -0.0140 -0.5251
 1527SOL    HW2 6179   1.556   1.450   2.683  2.8814 -0.5421 -1.9342
 1527SOL    HW3 6180   1.537   1.551   2.572 -1.1652  0.8797 -0.0285
 1527SOL    MW4 6181   1.559   1.532   2.654  0.4879  0.0343 -0.6456
 1528SOL     OW 6182   1.357   1.701   2.719  0.0323 -0.5838 -0.0095
 1528SOL    HW2 6183   1.424   1.633   2.716 -0.4791 -1.0817 -0.2725
 1528SOL    HW3 6184   1.277   1.658   2.690 -0.9100 -0.6108  2.4479
 1528SOL    MW4 6185   1.355   1.687   2.715 -0.1595 -0.6531  0.2799
 1529SOL     OW 6186   1.309   1.953   2.620 -0.0973  0.0111  0.0549
 1529SOL    HW2 6187   1.326   1.867   2.657 -0.1070 -0.1756 -0.3777
 1529SOL    HW3 6188   1.315   1.941   2.526  1.4330  0.8044  0.0302
 1529SOL    MW4 6189   1.312   1.940   2.613  0.1031  0.0911 -0.0052
 1530SOL     OW 6190   1.540   2.068   2.744 -0.0187 -0.1503  0.2879
 1530SOL    HW2 6191   1.618   2.026   2.708 -0.0471 -0.8168  1.0038
 1530SOL    HW3 6192   1.468   2.037   2.689  0.4404  2.0293 -1.6619
 1530SOL    MW4 6193   1.540   2.059   2.732  0.0383  0.0494  0.1249
 1531SOL     OW 6194   1.559   2.355   2.640 -0.4256  0.1594 -0.4438
 1531SOL    HW2 6195   1.638   2.393   2.679 -0.0512 -0.5460 -0.5044
 1531SOL    HW3 6196   1.556   2.266   2.675 -1.0514  0.0999 -0.6535
 1531SOL    MW4 6197   1.569   2.348   2.650 -0.4586  0.0584 -0.4795
 1532SOL     OW 6198   1.340   2.462   2.769 -0.1094 -0.6569  0.2893
 1532SOL    HW2 6199   1.328   2.550   2.734  0.6835 -0.4941  0.4349
 1532SOL    HW3 6200   1.419   2.429   2.727  0.4577 -0.7266  1.3802
 1532SOL    MW4 6201   1.349   2.469   2.759  0.0701 -0.6449  0.4523
 1533SOL     OW 6202   1.324   2.721   2.645  0.3591 -0.0385  0.0176
 1533SOL    HW2 6203   1.404   2.771   2.661  0.6487 -0.0420 -1.4042
 1533SOL    HW3 6204   1.321   2.709   2.550 -1.0518 -0.4959  0.1070
 1533SOL    MW4 6205   1.334   2.726   2.635  0.2111 -0.0992 -0.1581
 1534SOL     OW 6206   1.531   2.871   2.721 -0.4830  0.1209 -0.2323
 1534SOL    HW2 6207   1.529   2.859   2.815 -1.4841 -3.2665 -0.6323
 1534SOL    HW3 6208   1.616   2.835   2.693 -1.1228 -0.9614 -0.8384
 1534SOL    MW4 6209   1.542   2.865   2.729 -0.6995 -0.4687 -0.3653
 1535SOL     OW 6210   1.553   3.139   2.598  0.0738 -0.5293  0.0862
 1535SOL    HW2 6211   1.640   3.157   2.633  0.3119 -1.1232 -0.1966
 1535SOL    HW3 6212   1.525   3.059   2.642  0.2817 -1.1571 -0.9100
 1535SOL    MW4 6213   1.561   3.131   2.608  0.1328 -0.6905 -0.0823
 1536SOL     OW 6214   1.348   3.270   2.728  0.1372  0.3515  0.0416
 1536SOL    HW2 6215   1.424   3.232   2.685 -0.0145 -0.0190  0.0982
 1536SOL    HW3 6216   1.274   3.214   2.701  0.0280  0.1686  0.7059
 1536SOL    MW4 6217   1.348   3.257   2.719  0.1028  0.2782  0.1364
 1537SOL     OW 6218   1.355   3.528   2.628  0.0922  0.1142 -0.0213
 1537SOL    HW2 6219   1.350   3.447   2.679 -0.9462 -0.4000 -0.9162
 1537SOL    HW3 6220   1.282   3.581   2.661  1.3105  1.0726  1.1925
 1537SOL    MW4 6221   1.345   3.524   2.639  0.1160  0.1726  0.0203
 1538SOL     OW 6222   1.596   3.583   2.743  0.1787  0.2506 -0.0889
 1538SOL    HW2 6223   1.671   3.543   2.699  0.5564  0.3264  0.4828
 1538SOL    HW3 6224   1.521   3.555   2.691  0.6314  0.4761 -0.8899
 1538SOL    MW4 6225   1.596   3.574   2.730  0.2882  0.2902 -0.1190
 1539SOL     OW 6226   1.598   3.858   2.649 -0.2551  0.4192  0.1817
 1539SOL    HW2 6227   1.511   3.893   2.667  0.0725  1.1938  0.2928
 1539SOL    HW3 6228   1.599   3.772   2.691 -1.5044 -0.2802 -1.1821
 1539SOL    MW4 6229   1.587   3.851   2.657 -0.3767  0.4292  0.0162
 1540SOL     OW 6230   1.352   3.936   2.701  0.3473 -0.4187 -0.2261
 1540SOL    HW2 6231   1.366   3.937   2.796  0.1424 -0.7432 -0.1936
 1540SOL    HW3 6232   1.333   4.027   2.679  0.4235 -0.3371  0.0402
 1540SOL    MW4 6233   1.352   3.948   2.710  0.3304 -0.4506 -0.1869
 1541SOL     OW 6234   1.341   4.205   2.630  0.3746  0.2284 -0.3936
 1541SOL    HW2 6235   1.272   4.267   2.655 -0.8060 -1.3834  0.4273
 1541SOL    HW3 6236   1.363   4.228   2.540 -1.2874  0.7349 -0.6945
 1541SOL    MW4 6237   1.335   4.216   2.622 -0.0005  0.0830 -0.3250
 1542SOL     OW 6238   1.546   4.370   2.729 -0.0707 -0.0256  0.5820
 1542SOL    HW2 6239   1.547   4.367   2.825 -1.1098 -0.4208  0.5772
 1542SOL    HW3 6240   1.489   4.298   2.703 -0.3006  0.4799 -0.3203
 1542SOL    MW4 6241   1.539   4.360   2.739 -0.2381 -0.0114  0.4623
 1543SOL     OW 6242   2.019   4.633   2.627  0.2253  0.0402 -0.2940
 1543SOL    HW2 6243   2.087   4.693   2.656 -0.4353  1.1852 -1.0497
 1543SOL    HW3 6244   2.012   4.649   2.533 -0.5872 -0.5877 -0.3495
 1543SOL    MW4 6245   2.027   4.643   2.618  0.0308  0.1082 -0.4010
 1544SOL     OW 6246   1.792   0.109   2.710  0.0989 -0.3488  0.1975
 1544SOL    HW2 6247   1.870   0.054   2.702 -0.2543 -1.0533  1.4418
 1544SOL    HW3 6248   1.720   0.053   2.683 -0.2238 -0.4052  1.1453
 1544SOL    MW4 6249   1.793   0.095   2.706  0.0098 -0.4492  0.4871
 1545SOL     OW 6250   1.808   0.417   2.648 -0.0874 -0.0674 -0.2360
 1545SOL    HW2 6251   1.889   0.447   2.689 -0.3713 -0.6376  0.7794
 1545SOL    HW3 6252   1.806   0.323   2.664  0.0524 -0.3885 -2.0617
 1545SOL    MW4 6253   1.818   0.409   2.656 -0.1065 -0.1850 -0.3428
 1546SOL     OW 6254   2.045   0.503   2.745  0.1493  0.0264  0.0612
 1546SOL    HW2 6255   2.119   0.467   2.697  0.0751  0.2778 -0.2391
 1546SOL    HW3 6256   2.042   0.595   2.720 -0.2654  0.0183  0.0744
 1546SOL    MW4 6257   2.054   0.510   2.736  0.0846  0.0585  0.0234
 1547SOL     OW 6258   2.004   0.762   2.645 -0.1840  0.8702 -0.3035
 1547SOL    HW2 6259   1.927   0.798   2.689 -1.3340 -1.5355 -0.2235
 1547SOL    HW3 6260   2.003   0.802   2.559  0.2126  3.1479  0.7246
 1547SOL    MW4 6261   1.994   0.772   2.640 -0.2835  0.8533 -0.1574
 1548SOL     OW 6262   1.794   0.884   2.753  0.4132  0.3731 -0.1623
 1548SOL    HW2 6263   1.807   0.977   2.736  0.4574  0.3020 -0.5177
 1548SOL    HW3 6264   1.704   0.867   2.725  0.1934  0.4426  0.4817
 1548SOL    MW4 6265   1.784   0.894   2.747  0.3901  0.3729 -0.1242
 1549SOL     OW 6266   1.781   1.160   2.654  0.1475 -0.2297  0.1120
 1549SOL    HW2 6267   1.851   1.214   2.690 -0.2889 -0.1027  0.7681
 1549SOL    HW3 6268   1.799   1.158   2.560  1.6274 -1.0471  0.3923
 1549SOL    MW4 6269   1.793   1.167   2.646  0.2853 -0.3209  0.2353
 1550SOL     OW 6270   1.998   1.313   2.757  0.4498 -0.3730  0.7341
 1550SOL    HW2 6271   2.029   1.308   2.847  1.1786  1.0809  0.5867
 1550SOL    HW3 6272   2.071   1.279   2.705  0.9269  0.9152  0.5447
 1550SOL    MW4 6273   2.012   1.308   2.762  0.6092 -0.0112  0.6895
 1551SOL     OW 6274   2.006   1.577   2.675  0.2167  0.0297 -0.1305
 1551SOL    HW2 6275   1.919   1.610   2.699  0.4807  0.3384  0.4004
 1551SOL    HW3 6276   2.007   1.487   2.708  0.0521 -0.0166 -0.2506
 1551SOL    MW4 6277   1.994   1.570   2.682  0.2298  0.0644 -0.0768
 1552SOL     OW 6278   1.767   1.699   2.742 -0.2834 -0.5343 -0.2081
 1552SOL    HW2 6279   1.765   1.685   2.837 -0.3238  0.5382 -0.0534
 1552SOL    HW3 6280   1.691   1.651   2.709 -1.1234  0.3375  0.4568
 1552SOL    MW4 6281   1.757   1.691   2.750 -0.3995 -0.2778 -0.0999
 1553SOL     OW 6282   1.783   1.959   2.641 -0.3104 -0.0036 -0.0765
 1553SOL    HW2 6283   1.839   2.010   2.700  0.1622 -0.4872 -0.0992
 1553SOL    HW3 6284   1.786   1.870   2.676 -3.1487  0.4497  1.4358
 1553SOL    MW4 6285   1.791   1.954   2.653 -0.6226 -0.0075  0.1202
 1554SOL     OW 6286   1.984   2.119   2.732 -0.0017 -0.4967 -0.0935
 1554SOL    HW2 6287   1.998   2.108   2.826  2.8385 -0.5633 -0.4964
 1554SOL    HW3 6288   1.992   2.214   2.718  0.3901 -0.5729 -0.3846
 1554SOL    MW4 6289   1.987   2.130   2.743  0.4247 -0.5157 -0.1853
 1555SOL     OW 6290   2.007   2.379   2.635  0.1471 -0.2882 -0.3493
 1555SOL    HW2 6291   2.098   2.401   2.656 -0.0259  0.0019  0.1156
 1555SOL    HW3 6292   2.007   2.365   2.540  0.0427  2.9942 -0.9170
 1555SOL    MW4 6293   2.019   2.380   2.625  0.1104  0.1829 -0.3629
 1556SOL     OW 6294   1.783   2.499   2.750  0.0048 -0.0585  0.3756
 1556SOL    HW2 6295   1.782   2.483   2.845 -0.0243 -0.0531  0.3763
 1556SOL    HW3 6296   1.868   2.467   2.721 -0.1449 -0.4390  0.3404
 1556SOL    MW4 6297   1.794   2.492   2.759 -0.0187 -0.1080  0.3710
 1557SOL     OW 6298   1.782   2.765   2.613  0.0499  0.0354  0.1438
 1557SOL    HW2 6299   1.760   2.681   2.653 -0.1394 -0.2552 -0.5689
 1557SOL    HW3 6300   1.774   2.750   2.519 -2.5448  1.5559  0.0800
 1557SOL    MW4 6301   1.778   2.752   2.606 -0.3172  0.1974  0.0412
 1558SOL     OW 6302   2.035   2.833   2.705  0.0137 -0.1458  0.2674
 1558SOL    HW2 6303   2.100   2.778   2.661 -0.2776  0.3574 -0.8046
 1558SOL    HW3 6304   1.951   2.795   2.679 -0.1415 -0.3659  1.0828
 1558SOL    MW4 6305   2.032   2.821   2.696 -0.0451 -0.1087  0.2339
 1559SOL     OW 6306   2.044   3.098   2.648 -0.1265 -0.1707  0.1061
 1559SOL    HW2 6307   2.041   3.003   2.660  1.4026 -0.3944 -1.1927
 1559SOL    HW3 6308   2.025   3.111   2.555 -0.4535  0.7971  0.3107
 1559SOL    MW4 6309   2.041   3.087   2.637  0.0322 -0.0725 -0.0381
 1560SOL     OW 6310   1.806   3.213   2.704 -0.2112  0.1187 -0.2484
 1560SOL    HW2 6311   1.828   3.304   2.681 -0.5701  0.0704 -0.7869
 1560SOL    HW3 6312   1.887   3.165   2.689 -0.2361  0.2166 -0.7135
 1560SOL    MW4 6313   1.820   3.219   2.699 -0.2618  0.1256 -0.3805
 1561SOL     OW 6314   1.821   3.481   2.620 -0.3057  0.0279 -0.1704
 1561SOL    HW2 6315   1.898   3.525   2.656 -1.5168  1.3131  0.8990
 1561SOL    HW3 6316   1.835   3.483   2.525  1.9978 -1.6829  0.0798
 1561SOL    MW4 6317   1.833   3.487   2.612 -0.1616 -0.0284  0.0033
 1562SOL     OW 6318   2.019   3.623   2.717 -0.3657  0.0831 -0.1281
 1562SOL    HW2 6319   2.013   3.634   2.812 -1.1226 -0.9537 -0.0447
 1562SOL    HW3 6320   2.105   3.584   2.702 -0.1508  0.4605  0.1065
 1562SOL    MW4 6321   2.029   3.619   2.728 -0.4373 -0.0036 -0.0861
 1563SOL     OW 6322   2.001   3.872   2.586 -0.1620  0.3744  0.1154
 1563SOL    HW2 6323   1.940   3.915   2.646 -0.4528 -0.0078  0.0933
 1563SOL    HW3 6324   2.008   3.782   2.618  1.3894  0.7479  0.8880
 1563SOL    MW4 6325   1.994   3.866   2.598  0.0044  0.3734  0.2143
 1564SOL     OW 6326   1.815   4.006   2.756  0.2320 -0.1841  0.1774
 1564SOL    HW2 6327   1.795   4.090   2.715  0.3311  1.1017  2.6666
 1564SOL    HW3 6328   1.739   3.951   2.737 -0.7740  1.1455  0.3241
 1564SOL    MW4 6329   1.802   4.010   2.748  0.1123  0.1602  0.5248
 1565SOL     OW 6330   1.779   4.259   2.629 -0.3222 -0.2434 -0.0323
 1565SOL    HW2 6331   1.696   4.301   2.651 -0.1746  0.1742 -0.2742
 1565SOL    HW3 6332   1.779   4.254   2.533 -1.2816 -2.7050  0.0567
 1565SOL    MW4 6333   1.768   4.264   2.619 -0.4294 -0.5126 -0.0525
 1566SOL     OW 6334   2.014   4.355   2.715  0.1851  0.0883 -0.2769
 1566SOL    HW2 6335   1.940   4.321   2.664  0.2191  0.6265 -0.6838
 1566SOL    HW3 6336   2.012   4.450   2.701  0.4444  0.1965  0.3908
 1566SOL    MW4 6337   2.004   4.363   2.706  0.2239  0.1731 -0.2427
 1567SOL     OW 6338   2.437   4.657   2.644  0.8665  0.2716 -0.1480
 1567SOL    HW2 6339   2.523   4.693   2.664  0.9558  0.4662 -0.9100
 1567SOL    HW3 6340   2.436   4.646   2.549 -0.3762  1.3468 -0.2648
 1567SOL    MW4 6341   2.448   4.660   2.634  0.7143  0.4392 -0.2642
 1568SOL     OW 6342   2.225   0.135   2.717 -0.0393 -0.0787  0.1748
 1568SOL    HW2 6343   2.205   0.115   2.809 -0.5676 -0.6866 -0.0699
 1568SOL    HW3 6344   2.304   0.085   2.698 -0.4246 -0.6290  0.0416
 1568SOL    MW4 6345   2.233   0.126   2.727 -0.1602 -0.2315  0.1252
 1569SOL     OW 6346   2.265   0.403   2.620  0.3261  0.2827 -0.6432
 1569SOL    HW2 6347   2.278   0.314   2.653  0.2780 -0.0567 -1.5357
 1569SOL    HW3 6348   2.262   0.394   2.525 -1.7787  0.9782 -0.6569
 1569SOL    MW4 6349   2.266   0.390   2.612  0.0420  0.3297 -0.7627
 1570SOL     OW 6350   2.436   0.546   2.778  0.3798 -0.2813 -0.2442
 1570SOL    HW2 6351   2.445   0.624   2.723 -1.9228  1.2470  1.4627
 1570SOL    HW3 6352   2.388   0.483   2.723 -1.8146  1.1975 -0.0666
 1570SOL    MW4 6353   2.430   0.548   2.764 -0.2139  0.1154  0.0048
 1571SOL     OW 6354   2.466   0.779   2.628 -0.1679 -0.1773  0.2501
 1571SOL    HW2 6355   2.382   0.819   2.651  0.2877  0.8500  0.1294
 1571SOL    HW3 6356   2.469   0.782   2.533 -0.0369 -0.3008  0.2501
 1571SOL    MW4 6357   2.455   0.785   2.619 -0.0906 -0.0581  0.2341
 1572SOL     OW 6358   2.229   0.887   2.749  0.1072 -0.3265 -0.5611
 1572SOL    HW2 6359   2.252   0.884   2.842 -0.0876  0.7487 -0.4755
 1572SOL    HW3 6360   2.171   0.812   2.736 -0.6591  0.0996  0.3954
 1572SOL    MW4 6361   2.225   0.876   2.759 -0.0198 -0.1284 -0.4237
 1573SOL     OW 6362   2.221   1.161   2.657 -0.0752 -0.3066 -0.2843
 1573SOL    HW2 6363   2.195   1.071   2.672 -1.5772  0.1444 -0.1148
 1573SOL    HW3 6364   2.251   1.162   2.566  0.9346 -1.1800  0.0247
 1573SOL    MW4 6365   2.222   1.150   2.647 -0.1402 -0.3622 -0.2210
 1574SOL     OW 6366   2.436   1.302   2.760  0.0196  0.0928 -0.2493
 1574SOL    HW2 6367   2.513   1.251   2.738 -0.0098 -0.1032  0.0968
 1574SOL    HW3 6368   2.362   1.248   2.732 -0.0179 -0.1567  0.3220
 1574SOL    MW4 6369   2.436   1.288   2.754  0.0107  0.0340 -0.1283
 1575SOL     OW 6370   2.473   1.560   2.666  0.2704  0.4183  0.3853
 1575SOL    HW2 6371   2.402   1.618   2.695 -0.6058 -1.0406  1.1736
 1575SOL    HW3 6372   2.463   1.481   2.719  2.7928  0.3843  0.8626
 1575SOL    MW4 6373   2.462   1.558   2.677  0.4876  0.2213  0.5524
 1576SOL     OW 6374   2.253   1.710   2.712  0.5420  0.5496  0.1699
 1576SOL    HW2 6375   2.242   1.804   2.722 -0.6599  0.3194  1.1411
 1576SOL    HW3 6376   2.165   1.678   2.692  0.6626 -0.5384  1.3084
 1576SOL    MW4 6377   2.240   1.718   2.710  0.3994  0.3759  0.4480
 1577SOL     OW 6378   2.221   1.987   2.666 -0.3908 -0.0587 -0.5100
 1577SOL    HW2 6379   2.144   2.042   2.665 -0.4549 -0.1343 -0.0835
 1577SOL    HW3 6380   2.237   1.965   2.574 -0.2988  0.7562 -0.6891
 1577SOL    MW4 6381   2.213   1.991   2.654 -0.3870  0.0389 -0.4773
 1578SOL     OW 6382   2.470   2.059   2.772 -0.1274 -0.3167 -0.3720
 1578SOL    HW2 6383   2.483   2.145   2.731  1.5974  0.1737  1.0942
 1578SOL    HW3 6384   2.387   2.027   2.737 -0.0942  1.3231 -2.0227
 1578SOL    MW4 6385   2.461   2.066   2.762  0.1044 -0.0355 -0.3963
 1579SOL     OW 6386   2.512   2.297   2.653  0.2286  0.2459 -0.2327
 1579SOL    HW2 6387   2.587   2.355   2.669  1.4684 -1.1005 -0.9973
 1579SOL    HW3 6388   2.502   2.297   2.558  0.2287 -0.7634 -0.2398
 1579SOL    MW4 6389   2.521   2.305   2.643  0.3922 -0.0648 -0.3347
 1580SOL     OW 6390   2.266   2.423   2.737  0.1078 -0.6048  0.0766
 1580SOL    HW2 6391   2.270   2.438   2.831 -0.3618  1.1123 -0.1526
 1580SOL    HW3 6392   2.349   2.382   2.715  0.7341  0.1321  1.0602
 1580SOL    MW4 6393   2.277   2.420   2.746  0.1287 -0.2809  0.1762
 1581SOL     OW 6394   2.246   2.683   2.606 -0.4528 -0.0959  0.0992
 1581SOL    HW2 6395   2.319   2.736   2.637  1.1753 -1.6672 -0.9918
 1581SOL    HW3 6396   2.251   2.602   2.657 -0.5807 -0.7708 -0.9526
 1581SOL    MW4 6397   2.256   2.680   2.617 -0.2549 -0.3920 -0.1833
 1582SOL     OW 6398   2.463   2.849   2.688 -0.0075 -0.1370 -0.4078
 1582SOL    HW2 6399   2.547   2.808   2.667  1.3223  2.5240 -0.4114
 1582SOL    HW3 6400   2.475   2.941   2.666 -2.7523  0.3941  0.1642
 1582SOL    MW4 6401   2.476   2.855   2.682 -0.1941  0.2840 -0.3326
 1583SOL     OW 6402   2.495   3.129   2.609 -0.2193  0.1591  0.8630
 1583SOL    HW2 6403   2.422   3.168   2.656 -0.8266  0.2340 -0.1190
 1583SOL    HW3 6404   2.474   3.143   2.516  2.5158  2.8744  0.5868
 1583SOL    MW4 6405   2.482   3.136   2.603  0.0615  0.5274  0.6971
 1584SOL     OW 6406   2.275   3.233   2.745  0.1238  0.6020  0.2692
 1584SOL    HW2 6407   2.269   3.243   2.840 -0.8252 -1.1317  0.4128
 1584SOL    HW3 6408   2.203   3.173   2.723 -0.1407  1.6091 -1.6400
 1584SOL    MW4 6409   2.265   3.226   2.755 -0.0362  0.5062  0.0362
 1585SOL     OW 6410   2.272   3.496   2.643  0.0052  0.7199 -0.0965
 1585SOL    HW2 6411   2.358   3.530   2.666 -1.1601  1.2212  3.9304
 1585SOL    HW3 6412   2.263   3.415   2.692 -0.9323 -0.6279 -2.3746
 1585SOL    MW4 6413   2.282   3.490   2.652 -0.2720  0.6084  0.1340
 1586SOL     OW 6414   2.520   3.606   2.734  0.1962  0.2721 -0.1406
 1586SOL    HW2 6415   2.509   3.617   2.828  1.0936  1.2043 -0.1348
 1586SOL    HW3 6416   2.509   3.694   2.698 -0.1032 -0.0701 -0.9089
 1586SOL    MW4 6417   2.517   3.619   2.741  0.2754  0.3500 -0.2410
 1587SOL     OW 6418   2.474   3.843   2.590  0.3509 -0.1645  0.0603
 1587SOL    HW2 6419   2.552   3.887   2.626  0.8040  0.1393 -1.2505
 1587SOL    HW3 6420   2.400   3.892   2.628  0.8496  2.0430 -1.6955
 1587SOL    MW4 6421   2.475   3.855   2.600  0.4761  0.1667 -0.3443
 1588SOL     OW 6422   2.249   3.953   2.709 -0.0124  0.0838  0.4338
 1588SOL    HW2 6423   2.249   3.967   2.804  0.4764  2.0812  0.1682
 1588SOL    HW3 6424   2.164   3.914   2.690 -0.4429  0.4423  1.5849
 1588SOL    MW4 6425   2.238   3.950   2.719 -0.0048  0.3946  0.5505
 1589SOL     OW 6426   2.235   4.239   2.620 -0.1262 -0.2189  0.0136
 1589SOL    HW2 6427   2.235   4.148   2.648 -0.7828 -0.6711 -1.4256
 1589SOL    HW3 6428   2.153   4.275   2.654 -0.0435 -0.2624  0.2588
 1589SOL    MW4 6429   2.224   4.232   2.628 -0.2019 -0.2847 -0.1438
 1590SOL     OW 6430   2.431   4.405   2.735  0.1027 -0.3353 -0.3007
 1590SOL    HW2 6431   2.360   4.356   2.693  0.7086 -0.0901 -1.6650
 1590SOL    HW3 6432   2.422   4.494   2.700  1.9646 -0.6405 -1.6845
 1590SOL    MW4 6433   2.420   4.410   2.725  0.4282 -0.3438 -0.6633
 1591SOL     OW 6434   2.923   0.006   2.630  0.4030 -0.0157 -0.4237
 1591SOL    HW2 6435   3.008   0.025   2.671 -0.0970  1.2862  0.0312
 1591SOL    HW3 6436   2.942   0.001   2.536  0.9844  0.3174 -0.3267
 1591SOL    MW4 6437   2.937   0.008   2.623  0.4137  0.2000 -0.3510
 1592SOL     OW 6438   2.666   0.131   2.693 -0.1604  0.8062  0.1219
 1592SOL    HW2 6439   2.680   0.126   2.787  0.0749  0.4845  0.0686
 1592SOL    HW3 6440   2.746   0.095   2.654 -0.1735  1.1165 -0.2024
 1592SOL    MW4 6441   2.678   0.126   2.700 -0.1309  0.8047  0.0720
 1593SOL     OW 6442   2.682   0.406   2.644  0.1146  0.1460  0.2047
 1593SOL    HW2 6443   2.665   0.315   2.667  0.8202  0.3842  1.6804
 1593SOL    HW3 6444   2.616   0.456   2.691 -0.7684  0.3426 -1.2257
 1593SOL    MW4 6445   2.671   0.400   2.653  0.0911  0.2034  0.2105
 1594SOL     OW 6446   2.926   0.479   2.687  0.2335  0.2255  0.1138
 1594SOL    HW2 6447   2.927   0.574   2.684  1.3148  0.2499  0.8063
 1594SOL    HW3 6448   2.835   0.455   2.668  0.0231  1.3736 -0.3716
 1594SOL    MW4 6449   2.914   0.488   2.684  0.3481  0.3802  0.1414
 1595SOL     OW 6450   2.924   0.769   2.671 -0.3525  0.4226 -0.6913
 1595SOL    HW2 6451   2.984   0.828   2.718  0.1645 -1.2403  0.8109
 1595SOL    HW3 6452   2.841   0.816   2.670 -0.0278  1.0789  0.7302
 1595SOL    MW4 6453   2.921   0.783   2.677 -0.2415  0.2897 -0.3054
 1596SOL     OW 6454   2.688   0.916   2.731 -0.4500 -0.1913 -0.3135
 1596SOL    HW2 6455   2.679   0.916   2.826  1.9989 -1.0406 -0.0463
 1596SOL    HW3 6456   2.609   0.872   2.699 -0.5413 -1.3017  1.4057
 1596SOL    MW4 6457   2.676   0.910   2.739 -0.1388 -0.4498 -0.0513
 1597SOL     OW 6458   2.662   1.175   2.661 -1.1653 -0.5947 -0.0448
 1597SOL    HW2 6459   2.749   1.211   2.681 -0.5185 -0.7723 -2.3592
 1597SOL    HW3 6460   2.665   1.085   2.692 -1.1806 -0.0538  1.5638
 1597SOL    MW4 6461   2.674   1.168   2.668 -1.0819 -0.5468 -0.1380
 1598SOL     OW 6462   2.912   1.298   2.730 -0.6718 -0.2007  0.0633
 1598SOL    HW2 6463   2.911   1.298   2.826  0.3617  0.2660  0.0747
 1598SOL    HW3 6464   2.992   1.253   2.706 -0.5171  0.3969 -0.5749
 1598SOL    MW4 6465   2.922   1.292   2.739 -0.5152 -0.0601 -0.0193
 1599SOL     OW 6466   2.932   1.551   2.607 -0.1713  0.4686  0.2076
 1599SOL    HW2 6467   2.848   1.596   2.616 -0.3231 -0.0035  1.2504
 1599SOL    HW3 6468   2.918   1.467   2.650  0.5746  0.0361 -0.3906
 1599SOL    MW4 6469   2.919   1.546   2.614 -0.0930  0.3493  0.2663
 1600SOL     OW 6470   2.720   1.704   2.720  0.8079  0.0147 -0.2011
 1600SOL    HW2 6471   2.725   1.694   2.815 -0.2396 -0.4290 -0.1894
 1600SOL    HW3 6472   2.636   1.664   2.696  1.0551  0.1492 -1.3064
 1600SOL    MW4 6473   2.710   1.697   2.729  0.7024 -0.0261 -0.3455
 1601SOL     OW 6474   2.698   1.975   2.662  0.6451  0.1230 -0.0993
 1601SOL    HW2 6475   2.705   1.882   2.684 -0.6262  0.7139  3.1245
 1601SOL    HW3 6476   2.615   2.003   2.702 -0.3710  2.0516 -3.3416
 1601SOL    MW4 6477   2.688   1.967   2.671  0.3431  0.4553 -0.1018
 1602SOL     OW 6478   2.934   2.102   2.749  0.2486 -0.1255  0.0080
 1602SOL    HW2 6479   2.923   2.180   2.694  0.1409  0.2376  0.5399
 1602SOL    HW3 6480   2.852   2.055   2.740  1.0964 -1.2860 -2.0184
 1602SOL    MW4 6481   2.922   2.106   2.740  0.3462 -0.2308 -0.1891
 1603SOL     OW 6482   2.941   2.349   2.618  0.0432  0.2354  0.0887
 1603SOL    HW2 6483   3.013   2.384   2.671  0.7849 -1.1251 -0.0255
 1603SOL    HW3 6484   2.865   2.403   2.644  0.3861 -0.3883  2.5232
 1603SOL    MW4 6485   2.941   2.361   2.628  0.1862 -0.0265  0.3951
 1604SOL     OW 6486   2.721   2.474   2.734 -0.0871  0.0709 -0.3373
 1604SOL    HW2 6487   2.737   2.481   2.828 -1.3130 -0.3395 -0.0804
 1604SOL    HW3 6488   2.703   2.563   2.705 -1.1528  0.0115  0.1085
 1604SOL    MW4 6489   2.721   2.486   2.743 -0.3893  0.0091 -0.2446
 1605SOL     OW 6490   2.692   2.720   2.628 -0.1739  0.4384  0.0205
 1605SOL    HW2 6491   2.782   2.745   2.646 -0.0520  0.3111 -0.4039
 1605SOL    HW3 6492   2.693   2.690   2.537 -0.2244 -1.4931  0.6362
 1605SOL    MW4 6493   2.704   2.719   2.619 -0.1645  0.1667  0.0460
 1606SOL     OW 6494   2.935   2.819   2.703 -0.2523 -0.1627  0.0632
 1606SOL    HW2 6495   2.924   2.806   2.797 -0.1975  0.4230  0.1536
 1606SOL    HW3 6496   2.924   2.914   2.691 -2.3254 -0.4889 -0.7905
 1606SOL    MW4 6497   2.932   2.830   2.714 -0.5183 -0.1287 -0.0377
 1607SOL     OW 6498   2.920   3.091   2.663 -0.0630 -0.2380  0.2277
 1607SOL    HW2 6499   2.854   3.153   2.693  0.5117  0.6342 -0.2585
 1607SOL    HW3 6500   2.905   3.085   2.568  1.3991  1.0295 -0.1119
 1607SOL    MW4 6501   2.910   3.099   2.654  0.2058  0.0443  0.1187
 1608SOL     OW 6502   2.714   3.258   2.730 -0.0908  0.4122  0.3269
 1608SOL    HW2 6503   2.722   3.342   2.685  0.0941  0.6052  0.7163
 1608SOL    HW3 6504   2.633   3.220   2.695  0.5884  0.0971 -0.9204
 1608SOL    MW4 6505   2.704   3.264   2.719  0.0229  0.3963  0.2136
 1609SOL     OW 6506   2.749   3.507   2.616  0.3453  0.3063 -0.3992
 1609SOL    HW2 6507   2.669   3.540   2.655  0.6395  1.1429 -0.4851
 1609SOL    HW3 6508   2.727   3.491   2.524  0.6176  1.7827 -0.7348
 1609SOL    MW4 6509   2.736   3.509   2.609  0.4201  0.6115 -0.4549
 1610SOL     OW 6510   2.958   3.649   2.724 -0.1603  0.4588 -0.5312
 1610SOL    HW2 6511   2.948   3.628   2.817 -1.3786  0.7554 -0.5829
 1610SOL    HW3 6512   2.887   3.601   2.681  1.0846 -0.5890 -1.4504
 1610SOL    MW4 6513   2.947   3.640   2.731 -0.1571  0.3595 -0.6592
 1611SOL     OW 6514   2.908   3.902   2.609 -0.0257  0.1103  0.1130
 1611SOL    HW2 6515   2.975   3.953   2.654 -0.3236  0.5696  0.0419
 1611SOL    HW3 6516   2.923   3.812   2.638  0.5283  0.2309  0.2082
 1611SOL    MW4 6517   2.918   3.897   2.619  0.0081  0.1869  0.1161
 1612SOL     OW 6518   2.654   3.983   2.728 -0.1620 -0.2889  0.1518
 1612SOL    HW2 6519   2.667   4.078   2.719 -1.8243 -0.0571  0.0197
 1612SOL    HW3 6520   2.742   3.947   2.724  0.6161  1.3708  1.6386
 1612SOL    MW4 6521   2.667   3.991   2.726 -0.2787 -0.0396  0.3307
 1613SOL     OW 6522   2.662   4.262   2.663  0.3662  0.2439 -0.4078
 1613SOL    HW2 6523   2.734   4.322   2.685  0.7985 -0.1024 -0.8574
 1613SOL    HW3 6524   2.585   4.301   2.704  1.0990 -0.2546  1.5175
 1613SOL    MW4 6525   2.661   4.275   2.671  0.5200  0.1326 -0.2131
 1614SOL     OW 6526   2.873   4.418   2.731  0.3360 -0.2208  0.9491
 1614SOL    HW2 6527   2.884   4.429   2.826 -1.4669  0.1650  1.1229
 1614SOL    HW3 6528   2.874   4.508   2.697  2.3249 -0.4077  0.4177
 1614SOL    MW4 6529   2.875   4.432   2.739  0.3607 -0.1945  0.9019
 1615SOL     OW 6530   3.387   4.631   2.606 -0.2889  0.1974  0.4897
 1615SOL    HW2 6531   3.386   4.545   2.649 -0.4942  0.2672  0.6251
 1615SOL    HW3 6532   3.314   4.679   2.646 -1.0024 -0.0328 -0.5148
 1615SOL    MW4 6533   3.377   4.626   2.617 -0.4101  0.1760  0.3753
 1616SOL     OW 6534   3.169   0.095   2.705 -0.6055 -0.0770 -0.6207
 1616SOL    HW2 6535   3.159   0.114   2.798 -1.2973  2.0614 -1.1066
 1616SOL    HW3 6536   3.184   0.180   2.664  2.5740 -1.2523 -2.1468
 1616SOL    MW4 6537   3.170   0.109   2.712 -0.2775  0.0501 -0.8860
 1617SOL     OW 6538   3.194   0.369   2.618  0.2431 -0.1310 -0.0379
 1617SOL    HW2 6539   3.116   0.401   2.662  0.5310  0.3094  0.1569
 1617SOL    HW3 6540   3.176   0.380   2.525 -1.0527 -2.6409 -0.1246
 1617SOL    MW4 6541   3.181   0.375   2.611  0.1104 -0.4041 -0.0236
 1618SOL     OW 6542   3.384   0.526   2.765  0.3147  0.2831 -0.2221
 1618SOL    HW2 6543   3.399   0.616   2.736 -0.0182  0.4320  0.0649
 1618SOL    HW3 6544   3.319   0.491   2.704  1.4756 -0.2233 -1.2012
 1618SOL    MW4 6545   3.377   0.533   2.753  0.4239  0.2359 -0.3135
 1619SOL     OW 6546   3.403   0.770   2.655  0.2380  0.0108  0.0874
 1619SOL    HW2 6547   3.479   0.826   2.674  2.0390 -2.4778  0.4706
 1619SOL    HW3 6548   3.390   0.780   2.560  0.1635  1.5049  0.2359
 1619SOL    MW4 6549   3.412   0.779   2.645  0.4659 -0.1205  0.1574
 1620SOL     OW 6550   3.179   0.930   2.730  0.1363 -0.5065  0.3533
 1620SOL    HW2 6551   3.170   0.929   2.826 -0.1520  0.4471  0.3408
 1620SOL    HW3 6552   3.257   0.876   2.713  0.6031 -0.1053  1.1710
 1620SOL    MW4 6553   3.188   0.922   2.741  0.1597 -0.3278  0.4597
 1621SOL     OW 6554   3.143   1.178   2.627  0.5338  0.0355  0.4954
 1621SOL    HW2 6555   3.157   1.087   2.655  1.9812 -0.0381 -0.4230
 1621SOL    HW3 6556   3.139   1.173   2.532 -1.7563  0.6327  0.5450
 1621SOL    MW4 6557   3.144   1.165   2.618  0.4225  0.1045  0.3808
 1622SOL     OW 6558   3.385   1.305   2.733  0.3298 -0.5520  0.5893
 1622SOL    HW2 6559   3.360   1.326   2.823  0.9846  2.5736  0.1153
 1622SOL    HW3 6560   3.305   1.273   2.693 -0.3690 -0.4035  1.8361
 1622SOL    MW4 6561   3.371   1.304   2.740  0.3242 -0.1200  0.6912
 1623SOL     OW 6562   3.395   1.573   2.616  0.1369 -0.2040  0.6071
 1623SOL    HW2 6563   3.309   1.599   2.649 -0.0125 -0.7354  0.6500
 1623SOL    HW3 6564   3.406   1.482   2.647  0.6848 -0.1609  0.5529
 1623SOL    MW4 6565   3.385   1.564   2.625  0.1895 -0.2683  0.6056
 1624SOL     OW 6566   3.161   1.667   2.718 -0.3775 -0.1550 -0.0088
 1624SOL    HW2 6567   3.152   1.760   2.697 -1.9614  0.5307  3.2801
 1624SOL    HW3 6568   3.091   1.624   2.667  0.5858  0.3770 -1.8056
 1624SOL    MW4 6569   3.150   1.674   2.709 -0.4597  0.0056  0.1879
 1625SOL     OW 6570   3.138   1.933   2.603 -0.3398  0.3743 -0.4246
 1625SOL    HW2 6571   3.225   1.965   2.629 -0.8430  1.3536  0.0896
 1625SOL    HW3 6572   3.077   1.995   2.643 -1.4079 -1.9028  1.5942
 1625SOL    MW4 6573   3.141   1.946   2.612 -0.5469  0.2031 -0.0904
 1626SOL     OW 6574   3.359   2.064   2.691  0.2520  0.2748 -0.2591
 1626SOL    HW2 6575   3.346   2.092   2.781 -0.8597  0.3331 -0.4302
 1626SOL    HW3 6576   3.374   2.145   2.642 -1.7589  0.4914 -0.5532
 1626SOL    MW4 6577   3.360   2.078   2.696 -0.1602  0.3109 -0.3204
 1627SOL     OW 6578   3.385   2.345   2.608 -0.4374  0.3175  0.1292
 1627SOL    HW2 6579   3.455   2.392   2.652 -0.8185  0.4825  0.5594
 1627SOL    HW3 6580   3.395   2.368   2.516  0.6238 -0.3693  0.0649
 1627SOL    MW4 6581   3.396   2.354   2.602 -0.3479  0.2487  0.1774
 1628SOL     OW 6582   3.159   2.467   2.749  0.0873 -0.4958 -0.6642
 1628SOL    HW2 6583   3.167   2.555   2.713  1.9782  0.3636  1.7113
 1628SOL    HW3 6584   3.224   2.415   2.702 -0.2778 -0.3632 -1.3125
 1628SOL    MW4 6585   3.169   2.471   2.738  0.2885 -0.3648 -0.4361
 1629SOL     OW 6586   3.176   2.708   2.609 -0.3767 -0.2765  0.2642
 1629SOL    HW2 6587   3.243   2.769   2.640 -0.8068  0.7391 -0.7619
 1629SOL    HW3 6588   3.094   2.744   2.642 -0.7337  0.2592 -1.1491
 1629SOL    MW4 6589   3.174   2.721   2.617 -0.4809 -0.0718 -0.0575
 1630SOL     OW 6590   3.370   2.877   2.717  0.8070 -0.0775 -0.4816
 1630SOL    HW2 6591   3.365   2.874   2.812 -0.4540 -1.5765 -0.5668
 1630SOL    HW3 6592   3.449   2.829   2.694  0.9615  0.0469 -0.1999
 1630SOL    MW4 6593   3.380   2.871   2.726  0.6614 -0.2589 -0.4556
 1631SOL     OW 6594   3.352   3.129   2.614 -0.4345  0.0450 -0.4369
 1631SOL    HW2 6595   3.350   3.039   2.647 -1.0105  0.4142  0.5433
 1631SOL    HW3 6596   3.349   3.119   2.518  0.3963 -1.0001 -0.3630
 1631SOL    MW4 6597   3.351   3.116   2.605 -0.4008 -0.0441 -0.2978
 1632SOL     OW 6598   3.148   3.250   2.751  0.4616  0.2778 -0.4275
 1632SOL    HW2 6599   3.223   3.201   2.716  0.6066  0.0769  0.1473
 1632SOL    HW3 6600   3.073   3.195   2.730  0.4818  0.4417 -0.9387
 1632SOL    MW4 6601   3.148   3.236   2.744  0.4833  0.2728 -0.4191
 1633SOL     OW 6602   3.155   3.499   2.612 -0.0200  0.3923 -0.2061
 1633SOL    HW2 6603   3.142   3.419   2.661  0.4521  0.2163 -0.3673
 1633SOL    HW3 6604   3.087   3.558   2.644 -0.9044 -0.3536 -0.6868
 1633SOL    MW4 6605   3.144   3.497   2.622 -0.0744  0.2706 -0.2906
 1634SOL     OW 6606   3.399   3.614   2.727 -0.7983 -0.0662 -0.2419
 1634SOL    HW2 6607   3.413   3.584   2.817 -0.3052 -0.6984 -0.5261
 1634SOL    HW3 6608   3.324   3.564   2.696 -0.5599 -0.3268 -0.4013
 1634SOL    MW4 6609   3.391   3.604   2.735 -0.7019 -0.1841 -0.3006
 1635SOL     OW 6610   3.368   3.931   2.655 -0.4654  0.6019 -0.0339
 1635SOL    HW2 6611   3.354   3.839   2.677 -0.1363  0.7100  0.6288
 1635SOL    HW3 6612   3.380   3.931   2.560  1.7540 -0.3240  0.2168
 1635SOL    MW4 6613   3.368   3.919   2.645 -0.1290  0.4938  0.0865
 1636SOL     OW 6614   3.112   4.029   2.757 -0.0282  0.5638  0.2931
 1636SOL    HW2 6615   3.098   4.112   2.713  1.3540  1.0064  0.6835
 1636SOL    HW3 6616   3.198   3.999   2.727 -0.5773 -0.8101  0.0205
 1636SOL    MW4 6617   3.122   4.036   2.747  0.0818  0.4406  0.3088
 1637SOL     OW 6618   3.102   4.282   2.647 -0.0361 -0.0281  0.7726
 1637SOL    HW2 6619   3.028   4.342   2.657 -0.1984  0.1171 -1.0362
 1637SOL    HW3 6620   3.115   4.277   2.552  2.9185  0.7360  1.1058
 1637SOL    MW4 6621   3.094   4.289   2.636  0.3326  0.0920  0.5777
 1638SOL     OW 6622   3.377   4.359   2.709 -0.5378 -0.1128  0.0839
 1638SOL    HW2 6623   3.365   4.359   2.804 -1.5433  0.6430 -0.0460
 1638SOL    HW3 6624   3.292   4.333   2.674 -0.2031 -0.2670 -0.6153
 1638SOL    MW4 6625   3.364   4.356   2.717 -0.6263 -0.0339 -0.0250
 1639SOL     OW 6626   3.832   4.655   2.635 -0.5976  0.9688  0.1942
 1639SOL    HW2 6627   3.828   4.561   2.650 -0.5089  0.9589  0.1580
 1639SOL    HW3 6628   3.744   4.687   2.654 -0.3790  1.0205  1.1461
 1639SOL    MW4 6629   3.820   4.647   2.639 -0.5572  0.9742  0.3150
 1640SOL     OW 6630   3.604   0.106   2.717  0.4663 -0.2740  0.1439
 1640SOL    HW2 6631   3.600   0.198   2.691 -0.1971 -0.1035  0.8555
 1640SOL    HW3 6632   3.538   0.062   2.663 -0.5008 -0.0185  1.1072
 1640SOL    MW4 6633   3.595   0.112   2.706  0.2511 -0.2178  0.3650
 1641SOL     OW 6634   3.572   0.365   2.649 -0.0022 -0.6738 -0.4355
 1641SOL    HW2 6635   3.642   0.423   2.679 -0.0173 -0.3646 -1.0015
 1641SOL    HW3 6636   3.494   0.399   2.692  0.0854 -0.6326 -0.3065
 1641SOL    MW4 6637   3.571   0.377   2.659  0.0072 -0.6275 -0.4930
 1642SOL     OW 6638   3.800   0.485   2.736  0.0390  0.0933 -0.1495
 1642SOL    HW2 6639   3.793   0.480   2.832 -0.3237 -0.4991 -0.1987
 1642SOL    HW3 6640   3.893   0.476   2.718  0.1039  0.1728  0.1536
 1642SOL    MW4 6641   3.811   0.483   2.747 -0.0005  0.0256 -0.1159
 1643SOL     OW 6642   3.800   0.764   2.659 -0.1416 -0.0221 -0.2982
 1643SOL    HW2 6643   3.744   0.810   2.721 -1.0758 -0.2313 -0.9863
 1643SOL    HW3 6644   3.802   0.673   2.691 -0.0200  0.0298 -0.1568
 1643SOL    MW4 6645   3.793   0.758   2.671 -0.2487 -0.0429 -0.3705
 1644SOL     OW 6646   3.622   0.926   2.787 -0.1741  0.3482  0.5582
 1644SOL    HW2 6647   3.598   0.936   2.879  0.2840  0.4910  0.6626
 1644SOL    HW3 6648   3.651   1.013   2.760  0.5202  0.1061  0.5177
 1644SOL    MW4 6649   3.623   0.939   2.796 -0.0222  0.3350  0.5665
 1645SOL     OW 6650   3.629   1.166   2.642 -0.0604 -0.0739  0.3318
 1645SOL    HW2 6651   3.688   1.207   2.705 -0.3230 -1.2478  1.3800
 1645SOL    HW3 6652   3.542   1.180   2.680 -0.3143  0.2044 -0.3571
 1645SOL    MW4 6653   3.625   1.173   2.656 -0.1283 -0.1923  0.3791
 1646SOL     OW 6654   3.806   1.304   2.790  0.1215 -0.1507  0.5068
 1646SOL    HW2 6655   3.887   1.272   2.752  0.6300  0.9806  0.6023
 1646SOL    HW3 6656   3.794   1.391   2.751 -0.4521  0.1516  1.3325
 1646SOL    MW4 6657   3.815   1.312   2.780  0.1128  0.0384  0.6282
 1647SOL     OW 6658   3.809   1.554   2.647  0.4699 -0.2788  0.1718
 1647SOL    HW2 6659   3.883   1.605   2.679  0.3301  0.5156 -0.7511
 1647SOL    HW3 6660   3.732   1.601   2.680  0.3102  0.9258 -1.8543
 1647SOL    MW4 6661   3.808   1.567   2.656  0.4306 -0.0150 -0.2172
 1648SOL     OW 6662   3.604   1.693   2.770 -0.2608  0.0651  0.4679
 1648SOL    HW2 6663   3.631   1.778   2.734  1.1931 -1.2181 -1.5837
 1648SOL    HW3 6664   3.529   1.667   2.716  0.2834 -0.6663  0.0508
 1648SOL    MW4 6665   3.598   1.701   2.758  0.0029 -0.2006  0.1423
 1649SOL     OW 6666   3.619   1.945   2.659  0.0213 -0.2999  0.1444
 1649SOL    HW2 6667   3.540   1.995   2.677 -0.2098 -0.3379 -0.7372
 1649SOL    HW3 6668   3.625   1.942   2.563  2.1538  1.3792  0.1670
 1649SOL    MW4 6669   3.610   1.951   2.648  0.2720 -0.0833  0.0310
 1650SOL     OW 6670   3.855   2.057   2.758 -0.0115  0.4613  0.1514
 1650SOL    HW2 6671   3.921   2.010   2.708  1.1163  2.6328 -0.4859
 1650SOL    HW3 6672   3.772   2.019   2.730  0.6493  1.0642 -2.7939
 1650SOL    MW4 6673   3.853   2.046   2.748  0.2246  0.8276 -0.3216
 1651SOL     OW 6674   3.841   2.312   2.656 -0.0009  0.4324 -0.2192
 1651SOL    HW2 6675   3.840   2.219   2.678  0.5789  0.8608  1.6899
 1651SOL    HW3 6676   3.837   2.314   2.560 -1.0111 -1.5160 -0.2330
 1651SOL    MW4 6677   3.841   2.300   2.646 -0.0575  0.2320  0.0305
 1652SOL     OW 6678   3.611   2.479   2.716  0.2272 -0.0089  0.0321
 1652SOL    HW2 6679   3.618   2.473   2.811 -0.7635 -1.4479  0.0314
 1652SOL    HW3 6680   3.670   2.411   2.683  0.2700  0.2248 -0.3817
 1652SOL    MW4 6681   3.620   2.470   2.724  0.1023 -0.1681 -0.0226
 1653SOL     OW 6682   3.601   2.741   2.628  0.3581  0.0895  0.2358
 1653SOL    HW2 6683   3.607   2.654   2.666  0.5081  0.0154  0.0418
 1653SOL    HW3 6684   3.623   2.729   2.536 -1.5073  0.0129 -0.2173
 1653SOL    MW4 6685   3.604   2.728   2.621  0.1316  0.0691  0.1504
 1654SOL     OW 6686   3.847   2.845   2.741  0.0902 -0.3482 -0.6313
 1654SOL    HW2 6687   3.919   2.802   2.694 -0.0957 -0.8408 -0.4633
 1654SOL    HW3 6688   3.768   2.811   2.701 -0.0982 -1.8778  0.9992
 1654SOL    MW4 6689   3.846   2.835   2.730  0.0410 -0.6151 -0.3941
 1655SOL     OW 6690   3.824   3.115   2.633 -0.2843 -0.1232  0.2065
 1655SOL    HW2 6691   3.744   3.161   2.660 -1.0275 -0.8739 -0.7205
 1655SOL    HW3 6692   3.819   3.030   2.677 -0.0568 -0.2143  0.0547
 1655SOL    MW4 6693   3.813   3.110   2.642 -0.3521 -0.2341  0.0641
 1656SOL     OW 6694   3.580   3.248   2.732 -0.2426  0.0633 -0.3440
 1656SOL    HW2 6695   3.587   3.323   2.674  0.9304 -1.4314 -2.1775
 1656SOL    HW3 6696   3.503   3.200   2.700  0.4470 -0.8026 -0.7163
 1656SOL    MW4 6697   3.571   3.252   2.720  0.0031 -0.2482 -0.6349
 1657SOL     OW 6698   3.617   3.485   2.600  0.4836  0.2415 -0.2605
 1657SOL    HW2 6699   3.694   3.515   2.647  0.3603 -0.0389  0.1278
 1657SOL    HW3 6700   3.545   3.537   2.637  0.2188 -0.7452  0.6474
 1657SOL    MW4 6701   3.617   3.495   2.611  0.4323  0.0744 -0.0896
 1658SOL     OW 6702   3.862   3.565   2.749  0.2029  1.0915 -0.7233
 1658SOL    HW2 6703   3.924   3.514   2.697 -1.8428 -0.5323 -1.6484
 1658SOL    HW3 6704   3.877   3.656   2.724  2.0589  0.7045 -1.0626
 1658SOL    MW4 6705   3.872   3.570   2.739  0.1776  0.8259 -0.8900
 1659SOL     OW 6706   3.819   3.835   2.604  0.0430  0.4393  0.1801
 1659SOL    HW2 6707   3.891   3.887   2.641 -0.1501  0.4212  0.5841
 1659SOL    HW3 6708   3.740   3.886   2.624 -0.1485 -0.0274  0.6112
 1659SOL    MW4 6709   3.818   3.849   2.612 -0.0076  0.3753  0.2902
 1660SOL     OW 6710   3.626   3.992   2.753 -0.0681 -0.0441  0.2807
 1660SOL    HW2 6711   3.648   4.078   2.715  0.3060  0.1692  0.9664
 1660SOL    HW3 6712   3.540   3.971   2.717  0.9154 -0.5327 -1.8464
 1660SOL    MW4 6713   3.617   4.001   2.743  0.1111 -0.0806  0.0906
 1661SOL     OW 6714   3.628   4.245   2.640  0.2665  0.2510 -0.5037
 1661SOL    HW2 6715   3.555   4.302   2.665 -0.1384 -0.6724  0.4670
 1661SOL    HW3 6716   3.625   4.243   2.545 -0.8411  0.4205 -0.4815
 1661SOL    MW4 6717   3.618   4.252   2.631  0.0670  0.1516 -0.3726
 1662SOL     OW 6718   3.840   4.401   2.677 -0.3881  0.4087 -0.3648
 1662SOL    HW2 6719   3.913   4.342   2.659 -0.5079 -0.8797  2.9651
 1662SOL    HW3 6720   3.762   4.347   2.666 -0.6851  0.8712 -0.5624
 1662SOL    MW4 6721   3.839   4.386   2.673 -0.4432  0.2995  0.0484
 1663SOL     OW 6722   4.252   4.619   2.621  0.6741  0.1275  0.1127
 1663SOL    HW2 6723   4.182   4.677   2.651  0.5313 -0.1225  0.2596
 1663SOL    HW3 6724   4.333   4.663   2.647  0.5497 -0.1621  0.9936
 1663SOL    MW4 6725   4.254   4.633   2.628  0.6394  0.0567  0.2482
 1664SOL     OW 6726   4.059   0.115   2.717  0.2900  0.0330 -0.4093
 1664SOL    HW2 6727   4.040   0.107   2.810  1.1789  3.0988  0.0673
 1664SOL    HW3 6728   3.979   0.083   2.674 -1.2084  1.2118  1.4326
 1664SOL    MW4 6729   4.046   0.110   2.723  0.2098  0.5930 -0.1035
 1665SOL     OW 6730   4.051   0.399   2.651 -0.5514  0.1397  0.2290
 1665SOL    HW2 6731   4.044   0.308   2.679  1.1857 -0.2248 -0.4059
 1665SOL    HW3 6732   4.040   0.396   2.556 -0.9500  0.6557  0.2554
 1665SOL    MW4 6733   4.049   0.387   2.642 -0.3753  0.1597  0.1488
 1666SOL     OW 6734   4.275   0.483   2.802  0.0050  0.3359 -0.1253
 1666SOL    HW2 6735   4.207   0.430   2.759  1.6072 -1.2496 -0.7414
 1666SOL    HW3 6736   4.357   0.442   2.775  1.2637  2.9406 -0.3389
 1666SOL    MW4 6737   4.277   0.471   2.793  0.3819  0.4705 -0.2346
 1667SOL     OW 6738   4.220   0.745   2.657 -0.2737 -0.5562  0.2442
 1667SOL    HW2 6739   4.234   0.665   2.708  1.7229 -1.2054 -1.2637
 1667SOL    HW3 6740   4.211   0.714   2.566  1.8338  1.0207 -0.5169
 1667SOL    MW4 6741   4.220   0.730   2.652  0.2675 -0.4339 -0.0551
 1668SOL     OW 6742   4.024   0.931   2.745  0.1013 -0.4369  0.5746
 1668SOL    HW2 6743   4.102   0.881   2.722 -0.1540 -0.9718  0.8614
 1668SOL    HW3 6744   3.951   0.878   2.711 -0.0734  0.7925 -1.0442
 1668SOL    MW4 6745   4.025   0.917   2.737  0.0448 -0.3452  0.3991
 1669SOL     OW 6746   4.024   1.211   2.647 -0.6824 -0.2289 -0.5004
 1669SOL    HW2 6747   4.106   1.249   2.680 -1.1703  0.3585  0.0711
 1669SOL    HW3 6748   4.025   1.121   2.678  0.0901 -0.4326 -1.1215
 1669SOL    MW4 6749   4.035   1.204   2.656 -0.6447 -0.1783 -0.5069
 1670SOL     OW 6750   4.266   1.295   2.761 -0.0442  0.3758 -0.5807
 1670SOL    HW2 6751   4.265   1.379   2.714 -0.3651  0.3795 -0.5735
 1670SOL    HW3 6752   4.338   1.246   2.723 -0.0452  0.5396 -0.7940
 1670SOL    MW4 6753   4.275   1.300   2.750 -0.0863  0.3979 -0.6080
 1671SOL     OW 6754   4.261   1.553   2.661 -0.4493 -0.1504  0.0736
 1671SOL    HW2 6755   4.335   1.606   2.690 -0.3696 -0.4184  0.3485
 1671SOL    HW3 6756   4.266   1.556   2.565  0.8076 -1.4247  0.0820
 1671SOL    MW4 6757   4.271   1.561   2.652 -0.2732 -0.3539  0.1109
 1672SOL     OW 6758   4.017   1.684   2.763 -0.4408  0.5696 -0.0947
 1672SOL    HW2 6759   4.004   1.676   2.858 -0.1813 -0.6273 -0.1476
 1672SOL    HW3 6760   4.103   1.646   2.748 -0.6144  0.4785 -0.8532
 1672SOL    MW4 6761   4.027   1.678   2.774 -0.4296  0.3997 -0.2019
 1673SOL     OW 6762   4.052   1.921   2.631  0.0799  0.4032 -0.1360
 1673SOL    HW2 6763   4.116   1.976   2.676 -1.1042  0.7387  1.1547
 1673SOL    HW3 6764   4.049   1.840   2.682 -0.2388  0.2337 -0.4209
 1673SOL    MW4 6765   4.060   1.918   2.643 -0.1183  0.4251 -0.0033
 1674SOL     OW 6766   4.249   2.091   2.719 -0.4036  0.4108 -0.2861
 1674SOL    HW2 6767   4.256   2.173   2.670 -0.6505  1.1710  0.9394
 1674SOL    HW3 6768   4.324   2.039   2.689 -0.8341  0.6535 -1.8461
 1674SOL    MW4 6769   4.260   2.095   2.708 -0.4926  0.5431 -0.3302
 1675SOL     OW 6770   4.238   2.376   2.623  0.5510  0.1861 -0.1394
 1675SOL    HW2 6771   4.162   2.420   2.659  1.4179  0.8586  0.9204
 1675SOL    HW3 6772   4.223   2.373   2.528  0.3275  2.4696 -0.1882
 1675SOL    MW4 6773   4.226   2.381   2.615  0.6361  0.5760 -0.0062
 1676SOL     OW 6774   4.025   2.479   2.775 -0.2845 -0.3351 -0.0510
 1676SOL    HW2 6775   4.022   2.465   2.869  0.9615  0.5518  0.1264
 1676SOL    HW3 6776   3.963   2.415   2.739 -0.0564 -1.3062  1.2794
 1676SOL    MW4 6777   4.016   2.469   2.783 -0.0896 -0.3464  0.1478
 1677SOL     OW 6778   4.052   2.713   2.615  0.4426 -0.7191 -0.2647
 1677SOL    HW2 6779   4.121   2.766   2.654 -1.3884  1.9406 -0.5316
 1677SOL    HW3 6780   4.043   2.638   2.674  0.3373  1.2761  2.3412
 1677SOL    MW4 6781   4.060   2.710   2.628  0.1874 -0.1049  0.0439
 1678SOL     OW 6782   4.288   2.825   2.713 -0.1435 -0.0205 -0.3761
 1678SOL    HW2 6783   4.266   2.831   2.806 -2.2535 -0.5240 -0.8133
 1678SOL    HW3 6784   4.287   2.915   2.683 -0.5880  0.0503 -0.1567
 1678SOL    MW4 6785   4.285   2.837   2.722 -0.4807 -0.0777 -0.4051
 1679SOL     OW 6786   4.285   3.084   2.575  0.0927  0.0767 -0.4970
 1679SOL    HW2 6787   4.223   3.146   2.612 -0.8458 -1.0275 -0.1905
 1679SOL    HW3 6788   4.260   3.077   2.483  0.3610  0.3417 -0.5918
 1679SOL    MW4 6789   4.273   3.091   2.567  0.0038 -0.0339 -0.4694
 1680SOL     OW 6790   4.095   3.209   2.730  0.5349  0.0082  0.0679
 1680SOL    HW2 6791   4.099   3.295   2.687  0.4215 -0.1497 -0.2610
 1680SOL    HW3 6792   4.008   3.176   2.708  1.0440 -0.7429 -0.8720
 1680SOL    MW4 6793   4.084   3.216   2.721  0.5875 -0.1116 -0.0997
 1681SOL     OW 6794   4.101   3.465   2.621 -0.5583  0.7931 -0.2014
 1681SOL    HW2 6795   4.154   3.535   2.658 -0.8542  0.8984  0.0253
 1681SOL    HW3 6796   4.107   3.478   2.526  0.7777  0.0933 -0.2139
 1681SOL    MW4 6797   4.109   3.476   2.613 -0.4210  0.7145 -0.1729
 1682SOL     OW 6798   4.295   3.638   2.724  0.3155  0.1561  0.7144
 1682SOL    HW2 6799   4.300   3.653   2.818 -0.0616 -0.7010  0.8792
 1682SOL    HW3 6800   4.378   3.595   2.701 -0.2291 -1.0274  0.9300
 1682SOL    MW4 6801   4.307   3.634   2.733  0.1941 -0.1132  0.7644
 1683SOL     OW 6802   4.269   3.899   2.625 -0.3858  0.4293  0.6715
 1683SOL    HW2 6803   4.307   3.820   2.665 -0.2554  0.7568  1.2062
 1683SOL    HW3 6804   4.330   3.969   2.648 -0.4602  0.6753  0.1271
 1683SOL    MW4 6805   4.282   3.898   2.634 -0.3791  0.5050  0.6702
 1684SOL     OW 6806   4.034   3.954   2.739  0.0610 -0.1517 -0.1680
 1684SOL    HW2 6807   4.052   3.966   2.832  1.8882 -0.5266 -0.4407
 1684SOL    HW3 6808   4.117   3.922   2.703 -0.8416 -0.7388 -1.7890
 1684SOL    MW4 6809   4.047   3.951   2.746  0.1831 -0.2785 -0.4179
 1685SOL     OW 6810   4.047   4.231   2.655  0.0552  0.5575  0.1237
 1685SOL    HW2 6811   4.047   4.141   2.687  1.2311  0.6153  0.3125
 1685SOL    HW3 6812   4.025   4.224   2.562  2.1783 -0.1401 -0.3736
 1685SOL    MW4 6813   4.044   4.218   2.647  0.4902  0.4730  0.0830
 1686SOL     OW 6814   4.237   4.380   2.777  0.5684  0.1556 -0.6112
 1686SOL    HW2 6815   4.169   4.328   2.734  0.4339 -0.1442 -0.0492
 1686SOL    HW3 6816   4.235   4.464   2.733  0.8585 -0.3512 -1.6080
 1686SOL    MW4 6817   4.228   4.384   2.766  0.5889  0.0496 -0.6688
 1687SOL     OW 6818   0.206   0.019   3.133 -0.3675 -0.2059 -0.0026
 1687SOL    HW2 6819   0.198   0.018   3.229 -0.7593 -1.8262 -0.0498
 1687SOL    HW3 6820   0.121   0.050   3.102 -0.7823 -1.2298  0.1143
 1687SOL    MW4 6821   0.194   0.023   3.142 -0.4739 -0.5548  0.0062
 1688SOL     OW 6822   4.453   0.102   3.049  0.1117  0.3974 -0.0575
 1688SOL    HW2 6823   4.367   0.072   3.081  0.5247 -0.1093  0.5817
 1688SOL    HW3 6824   4.456   0.194   3.076 -0.4118  0.5359 -0.4587
 1688SOL    MW4 6825   4.442   0.110   3.057  0.0973  0.3488 -0.0262
 1689SOL     OW 6826   4.469   0.377   3.150 -0.0454 -0.4446  0.3677
 1689SOL    HW2 6827   4.459   0.365   3.244 -1.5096  0.6160  0.3551
 1689SOL    HW3 6828   4.385   0.413   3.121  1.4603  2.2057 -0.8486
 1689SOL    MW4 6829   4.457   0.380   3.159 -0.0401  0.0450  0.2058
 1690SOL     OW 6830   0.221   0.512   3.042 -0.1192  0.2801  0.3785
 1690SOL    HW2 6831   0.299   0.471   3.080  1.6170  1.8284 -1.3988
 1690SOL    HW3 6832   0.148   0.463   3.080  1.6849 -1.1091  2.2192
 1690SOL    MW4 6833   0.222   0.500   3.052  0.3479  0.3011  0.3870
 1691SOL     OW 6834   0.158   0.753   3.151  0.1729  0.3469 -0.2452
 1691SOL    HW2 6835   0.183   0.758   3.244 -0.0187 -0.6715 -0.1385
 1691SOL    HW3 6836   0.185   0.666   3.123 -0.2250  0.4697 -1.0171
 1691SOL    MW4 6837   0.165   0.742   3.160  0.0951  0.2287 -0.3326
 1692SOL     OW 6838   4.451   0.892   3.038  0.2140  0.0791  0.1004
 1692SOL    HW2 6839   4.530   0.840   3.052  0.5613  0.1785 -1.3733
 1692SOL    HW3 6840   4.438   0.890   2.943 -0.3666  1.7836  0.1289
 1692SOL    MW4 6841   4.460   0.885   3.027  0.1831  0.3172 -0.0904
 1693SOL     OW 6842   0.006   1.156   3.142 -0.2121 -0.1488  0.4000
 1693SOL    HW2 6843  -0.071   1.210   3.122  0.2848 -0.0067 -1.1546
 1693SOL    HW3 6844  -0.014   1.070   3.105 -0.0768 -0.4206  0.9518
 1693SOL    MW4 6845  -0.007   1.152   3.135 -0.1292 -0.1659  0.2675
 1694SOL     OW 6846   0.201   1.320   3.016  0.4313 -0.2149 -0.5734
 1694SOL    HW2 6847   0.136   1.263   3.056 -0.5983  0.9385 -0.5726
 1694SOL    HW3 6848   0.192   1.306   2.922  0.2068 -0.0766 -0.5715
 1694SOL    MW4 6849   0.192   1.311   3.009  0.2658 -0.0443 -0.5732
 1695SOL     OW 6850   0.239   1.584   3.131 -0.0696 -0.3084  0.0046
 1695SOL    HW2 6851   0.181   1.648   3.090 -0.6501 -1.3520 -0.8447
 1695SOL    HW3 6852   0.208   1.499   3.098  0.2096 -1.0903  1.6948
 1695SOL    MW4 6853   0.227   1.581   3.121 -0.1093 -0.5492  0.1156
 1696SOL     OW 6854   0.025   1.717   2.993 -0.1272  0.0680 -0.4424
 1696SOL    HW2 6855  -0.055   1.672   3.020  0.9591 -0.3309  2.3644
 1696SOL    HW3 6856   0.020   1.802   3.036  1.7306 -0.6189  1.2141
 1696SOL    MW4 6857   0.014   1.722   3.002  0.2612 -0.0752  0.1466
 1697SOL     OW 6858   0.007   1.942   3.135 -0.3198  0.7763  0.2331
 1697SOL    HW2 6859  -0.072   1.977   3.093  0.2160  0.9446 -0.6382
 1697SOL    HW3 6860   0.078   1.998   3.103  0.1607  0.6116  1.0006
 1697SOL    MW4 6861   0.006   1.954   3.125 -0.1864  0.7769  0.2196
 1698SOL     OW 6862   0.199   2.075   3.009  0.4018 -0.0473  0.3616
 1698SOL    HW2 6863   0.221   2.166   3.029 -0.0098  0.1606 -0.1133
 1698SOL    HW3 6864   0.214   2.067   2.915  1.0619 -0.6535  0.5082
 1698SOL    MW4 6865   0.204   2.086   2.999  0.4346 -0.1001  0.3181
 1699SOL     OW 6866   0.230   2.342   3.106 -0.2731 -0.2192  0.2537
 1699SOL    HW2 6867   0.252   2.345   3.199 -0.4105  1.7447  0.2270
 1699SOL    HW3 6868   0.306   2.378   3.062 -0.7591  0.1188 -0.3137
 1699SOL    MW4 6869   0.243   2.347   3.113 -0.3553  0.0846  0.1752
 1700SOL     OW 6870   4.484   2.468   2.976  0.1439 -0.1707  0.2545
 1700SOL    HW2 6871   4.490   2.554   3.017 -0.4506  0.0786 -0.1913
 1700SOL    HW3 6872   4.568   2.426   2.998  0.6706  0.7241  0.0025
 1700SOL    MW4 6873   4.496   2.474   2.984  0.1345 -0.0198  0.1626
 1701SOL     OW 6874   4.426   2.725   3.114  0.0314 -0.1899 -0.1383
 1701SOL    HW2 6875   4.435   2.703   3.207 -0.4952 -1.7163 -0.4285
 1701SOL    HW3 6876   4.494   2.790   3.098  0.5619 -0.4117  1.1561
 1701SOL    MW4 6877   4.436   2.731   3.124  0.0319 -0.4206 -0.0060
 1702SOL     OW 6878   0.210   2.845   3.053  0.4058  0.2682 -0.0593
 1702SOL    HW2 6879   0.295   2.817   3.089  0.4576 -0.1289 -0.4871
 1702SOL    HW3 6880   0.224   2.846   2.959  0.0254  0.5182 -0.1107
 1702SOL    MW4 6881   0.223   2.842   3.046  0.3625  0.2487 -0.1225
 1703SOL     OW 6882   0.218   3.100   3.163  0.6238  0.2501 -0.4164
 1703SOL    HW2 6883   0.139   3.146   3.136  0.3369 -0.7333 -1.2898
 1703SOL    HW3 6884   0.212   3.014   3.121  1.2160 -0.5471  1.0771
 1703SOL    MW4 6885   0.207   3.095   3.154  0.6641  0.0153 -0.3345
 1704SOL     OW 6886   4.488   3.240   3.043  0.2742  0.3262  0.2497
 1704SOL    HW2 6887   4.414   3.183   3.065  0.0920  0.6989  0.6208
 1704SOL    HW3 6888   4.482   3.252   2.949 -1.6774  2.4532  0.6141
 1704SOL    MW4 6889   4.478   3.234   3.034 -0.0076  0.6559  0.3467
 1705SOL     OW 6890   0.022   3.500   3.159  0.0620 -0.1579  0.3799
 1705SOL    HW2 6891  -0.043   3.557   3.118  0.8514  1.5629  1.4065
 1705SOL    HW3 6892   0.024   3.421   3.106 -0.6560  1.0337 -1.4429
 1705SOL    MW4 6893   0.014   3.497   3.147  0.0715  0.2263  0.2749
 1706SOL     OW 6894   0.229   3.621   3.047 -0.5014  0.2756  0.1534
 1706SOL    HW2 6895   0.235   3.710   3.083 -0.5288  0.4710 -0.3228
 1706SOL    HW3 6896   0.161   3.579   3.100  0.6515  0.0213  1.4490
 1706SOL    MW4 6897   0.221   3.627   3.059 -0.3529  0.2680  0.2615
 1707SOL     OW 6898   0.224   3.884   3.127 -0.1978  0.4183 -0.4315
 1707SOL    HW2 6899   0.230   3.891   3.223 -1.5819 -1.9222 -0.1399
 1707SOL    HW3 6900   0.305   3.924   3.095  0.5280  0.7601  1.7436
 1707SOL    MW4 6901   0.235   3.890   3.136 -0.2847  0.1545 -0.1063
 1708SOL     OW 6902   0.001   4.046   3.044 -0.2751 -0.0756  0.4897
 1708SOL    HW2 6903   0.073   3.990   3.071  0.6702  0.9557  0.1788
 1708SOL    HW3 6904   0.003   4.043   2.948 -0.7766 -0.2045  0.4802
 1708SOL    MW4 6905   0.010   4.038   3.035 -0.2166  0.0439  0.4475
 1709SOL     OW 6906   4.467   4.311   3.137 -0.2006 -0.4449  0.0541
 1709SOL    HW2 6907   4.474   4.312   3.233 -0.6501  0.9498  0.0864
 1709SOL    HW3 6908   4.481   4.220   3.113  0.5932 -0.6946  1.4018
 1709SOL    MW4 6909   4.470   4.300   3.147 -0.1552 -0.2937  0.2360
 1710SOL     OW 6910   0.219   4.408   3.040  0.1207 -0.6297 -0.3472
 1710SOL    HW2 6911   0.140   4.367   3.074 -0.6593 -0.3196 -1.7661
 1710SOL    HW3 6912   0.219   4.496   3.077 -0.3636 -0.5257 -0.5976
 1710SOL    MW4 6913   0.209   4.414   3.049 -0.0461 -0.5751 -0.5679
 1711SOL     OW 6914   0.642   0.015   3.096 -0.2438 -0.0828 -0.3254
 1711SOL    HW2 6915   0.633  -0.077   3.071  0.6014 -0.4497  0.6730
 1711SOL    HW3 6916   0.569   0.059   3.052 -0.8673 -1.2816 -0.5174
 1711SOL    MW4 6917   0.632   0.009   3.087 -0.2145 -0.2895 -0.2189
 1712SOL     OW 6918   0.436   0.134   2.964 -0.2025  0.0949 -0.2865
 1712SOL    HW2 6919   0.453   0.221   3.001 -0.4717  0.4103 -0.8897
 1712SOL    HW3 6920   0.357   0.105   3.008 -0.1670  0.1968 -0.1533
 1712SOL    MW4 6921   0.428   0.142   2.975 -0.2333  0.1500 -0.3486
 1713SOL     OW 6922   0.446   0.365   3.121 -0.2042  0.1005  0.1375
 1713SOL    HW2 6923   0.444   0.387   3.214 -0.7861 -0.2662  0.2146
 1713SOL    HW3 6924   0.511   0.425   3.084  0.1995  0.0956  0.8146
 1713SOL    MW4 6925   0.454   0.376   3.128 -0.2277  0.0515  0.2372
 1714SOL     OW 6926   0.640   0.538   3.017 -0.2729 -0.0196 -0.1879
 1714SOL    HW2 6927   0.722   0.509   3.055 -0.3894 -1.6294 -1.1313
 1714SOL    HW3 6928   0.632   0.630   3.044  1.8347  0.1618 -0.1060
 1714SOL    MW4 6929   0.650   0.547   3.026 -0.0103 -0.2081 -0.3016
 1715SOL     OW 6930   0.633   0.800   3.101  0.6746  0.1180 -0.1743
 1715SOL    HW2 6931   0.622   0.803   3.196  0.7600 -0.0846 -0.1579
 1715SOL    HW3 6932   0.553   0.840   3.066 -0.4920 -2.0177 -0.0728
 1715SOL    MW4 6933   0.621   0.806   3.109  0.5320 -0.1906 -0.1585
 1716SOL     OW 6934   0.382   0.898   3.032 -0.2187 -0.1240  0.4214
 1716SOL    HW2 6935   0.321   0.829   3.061  0.4839 -0.9000  0.0906
 1716SOL    HW3 6936   0.376   0.897   2.937  1.2477 -1.0996  0.3170
 1716SOL    MW4 6937   0.373   0.889   3.024  0.0675 -0.3552  0.3641
 1717SOL     OW 6938   0.400   1.160   3.114 -0.0104 -0.1800  0.2725
 1717SOL    HW2 6939   0.400   1.071   3.080  0.2050 -0.8345  1.9396
 1717SOL    HW3 6940   0.341   1.208   3.056 -0.2589 -1.4458 -0.5376
 1717SOL    MW4 6941   0.392   1.155   3.102 -0.0148 -0.4333  0.3855
 1718SOL     OW 6942   0.646   1.259   3.003  0.0077 -0.0657  0.2053
 1718SOL    HW2 6943   0.710   1.218   3.061  0.1522  0.2362  0.2600
 1718SOL    HW3 6944   0.562   1.226   3.035  0.0816  0.1403  0.6246
 1718SOL    MW4 6945   0.643   1.249   3.015  0.0365  0.0013  0.2677
 1719SOL     OW 6946   0.722   1.521   3.095  0.0926 -0.0667 -0.0176
 1719SOL    HW2 6947   0.695   1.517   3.187 -0.0967  1.6539  0.0185
 1719SOL    HW3 6948   0.678   1.447   3.054 -0.8863 -0.0776  1.0209
 1719SOL    MW4 6949   0.712   1.511   3.102 -0.0615  0.1587  0.1240
 1720SOL     OW 6950   0.497   1.668   3.029  0.1965 -0.3561 -0.0344
 1720SOL    HW2 6951   0.576   1.619   3.054  0.8192  0.0413 -1.2111
 1720SOL    HW3 6952   0.425   1.616   3.067  0.9352 -1.3940 -0.0091
 1720SOL    MW4 6953   0.498   1.654   3.037  0.3761 -0.4405 -0.1862
 1721SOL     OW 6954   0.417   1.922   3.118  0.3904  0.1119 -0.5020
 1721SOL    HW2 6955   0.441   1.833   3.091  0.7887 -0.1222  0.6167
 1721SOL    HW3 6956   0.333   1.937   3.075  0.2559 -0.8599 -0.6103
 1721SOL    MW4 6957   0.409   1.912   3.109  0.4252 -0.0472 -0.3686
 1722SOL     OW 6958   0.671   2.058   3.006  0.1415  0.1926  0.3401
 1722SOL    HW2 6959   0.747   2.009   3.037 -0.9849 -1.6763  0.1801
 1722SOL    HW3 6960   0.596   2.021   3.053 -0.6636  2.2562  0.7827
 1722SOL    MW4 6961   0.671   2.047   3.017 -0.1134  0.2182  0.3772
 1723SOL     OW 6962   0.648   2.301   3.115 -0.0475 -0.5118 -0.0791
 1723SOL    HW2 6963   0.644   2.283   3.209  0.8957  0.3364  0.1436
 1723SOL    HW3 6964   0.665   2.216   3.075 -0.3896 -0.8673  0.5265
 1723SOL    MW4 6965   0.650   2.287   3.122  0.0319 -0.4466  0.0303
 1724SOL     OW 6966   0.451   2.453   2.983 -0.0968  0.3460  0.1056
 1724SOL    HW2 6967   0.521   2.396   3.016 -0.4124  0.1764  0.4862
 1724SOL    HW3 6968   0.462   2.452   2.888  2.6428  3.1569  0.3109
 1724SOL    MW4 6969   0.462   2.445   2.975  0.2230  0.6945  0.1829
 1725SOL     OW 6970   0.442   2.702   3.124  0.0365  0.2007 -0.3139
 1725SOL    HW2 6971   0.525   2.735   3.090  0.5578  0.2624  1.0054
 1725SOL    HW3 6972   0.425   2.622   3.073  2.6507 -1.7453  1.7173
 1725SOL    MW4 6973   0.451   2.696   3.113  0.4502 -0.0479  0.1283
 1726SOL     OW 6974   0.655   2.839   3.005 -0.1662  0.1065  0.2227
 1726SOL    HW2 6975   0.726   2.790   3.046 -1.4014 -1.2449  0.8056
 1726SOL    HW3 6976   0.655   2.923   3.049 -0.4074 -0.7335  1.8523
 1726SOL    MW4 6977   0.664   2.843   3.016 -0.3610 -0.1824  0.5145
 1727SOL     OW 6978   0.655   3.091   3.129 -0.1968 -0.5752 -0.6476
 1727SOL    HW2 6979   0.641   3.068   3.221 -1.3120 -0.5323 -0.7993
 1727SOL    HW3 6980   0.577   3.142   3.104  0.7724  0.6933 -1.2016
 1727SOL    MW4 6981   0.643   3.095   3.138 -0.2160 -0.4022 -0.7408
 1728SOL     OW 6982   0.419   3.246   3.045 -0.2798 -0.2138  0.6918
 1728SOL    HW2 6983   0.418   3.332   3.088  1.0644  0.1986 -0.0591
 1728SOL    HW3 6984   0.341   3.202   3.077 -0.4963  0.9488  1.8000
 1728SOL    MW4 6985   0.409   3.251   3.055 -0.1310 -0.0062  0.7389
 1729SOL     OW 6986   0.449   3.504   3.154 -0.1741  0.5144 -0.4359
 1729SOL    HW2 6987   0.451   3.505   3.250  0.3005 -2.0098 -0.3738
 1729SOL    HW3 6988   0.364   3.540   3.131 -1.0204 -0.5299  1.0035
 1729SOL    MW4 6989   0.438   3.509   3.164 -0.2231  0.0436 -0.2377
 1730SOL     OW 6990   0.673   3.633   3.055 -0.3674  0.3280 -0.3345
 1730SOL    HW2 6991   0.757   3.591   3.075 -1.3561 -2.1933 -1.2039
 1730SOL    HW3 6992   0.608   3.584   3.106 -1.3504  2.2235  0.3047
 1730SOL    MW4 6993   0.675   3.621   3.064 -0.6276  0.2453 -0.3648
 1731SOL     OW 6994   0.681   3.899   3.118 -0.4011  0.0508 -0.4235
 1731SOL    HW2 6995   0.695   3.892   3.212  1.6598  0.0027 -0.7223
 1731SOL    HW3 6996   0.688   3.809   3.086  0.0605  0.2200 -0.7904
 1731SOL    MW4 6997   0.683   3.886   3.126 -0.0682  0.0672 -0.5114
 1732SOL     OW 6998   0.445   4.025   3.034 -0.7343  0.5018  0.4837
 1732SOL    HW2 6999   0.517   3.968   3.060  0.6967  1.7423 -0.6674
 1732SOL    HW3 7000   0.429   4.003   2.943 -0.5221  1.5590  0.1858
 1732SOL    MW4 7001   0.452   4.014   3.026 -0.5175  0.8044  0.2925
 1733SOL     OW 7002   0.422   4.274   3.179 -0.3171  0.0130 -0.2874
 1733SOL    HW2 7003   0.434   4.186   3.143 -1.0214 -0.7006  1.1700
 1733SOL    HW3 7004   0.348   4.309   3.130  0.0025 -0.1815 -0.9183
 1733SOL    MW4 7005   0.414   4.267   3.167 -0.3679 -0.1063 -0.1783
 1734SOL     OW 7006   0.652   4.404   3.046 -0.3886 -0.2230 -0.4052
 1734SOL    HW2 7007   0.571   4.366   3.078  0.0103 -0.8203 -0.0919
 1734SOL    HW3 7008   0.648   4.392   2.951 -1.1791  0.7813 -0.5099
 1734SOL    MW4 7009   0.641   4.397   3.037 -0.4404 -0.1688 -0.3777
 1735SOL     OW 7010   1.083   0.004   3.107  0.0658  0.4543  0.2190
 1735SOL    HW2 7011   1.172   0.027   3.080  0.3672  0.8358  1.5208
 1735SOL    HW3 7012   1.027   0.054   3.047  0.7099 -0.6400 -1.3267
 1735SOL    MW4 7013   1.088   0.014   3.096  0.1906  0.3603  0.1867
 1736SOL     OW 7014   0.859   0.160   2.991  0.0499  0.3216 -0.1024
 1736SOL    HW2 7015   0.865   0.243   3.038  0.0980 -0.5790  1.5241
 1736SOL    HW3 7016   0.788   0.113   3.036  0.5074 -0.7989 -0.5366
 1736SOL    MW4 7017   0.850   0.164   3.003  0.1166  0.0550  0.0551
 1737SOL     OW 7018   0.897   0.413   3.127 -0.4153 -0.1426  0.1093
 1737SOL    HW2 7019   0.899   0.419   3.223 -1.2979  0.4030  0.0989
 1737SOL    HW3 7020   0.983   0.445   3.099  1.2652 -3.7811  0.8763
 1737SOL    MW4 7021   0.909   0.418   3.136 -0.3100 -0.5507  0.2091
 1738SOL     OW 7022   1.126   0.500   3.003 -0.2027  0.1580  0.0319
 1738SOL    HW2 7023   1.200   0.452   3.041 -0.6329  0.2759  1.0279
 1738SOL    HW3 7024   1.137   0.490   2.908  1.5142  0.8090  0.1465
 1738SOL    MW4 7025   1.137   0.492   2.995 -0.0328  0.2595  0.1783
 1739SOL     OW 7026   1.109   0.756   3.114 -0.3315 -0.1650 -0.0845
 1739SOL    HW2 7027   1.110   0.741   3.209 -0.5031 -0.7387 -0.1661
 1739SOL    HW3 7028   1.107   0.668   3.077 -1.1922  0.0676 -0.6057
 1739SOL    MW4 7029   1.109   0.742   3.122 -0.4677 -0.2100 -0.1638
 1740SOL     OW 7030   0.891   0.897   3.010  0.0825  0.1987  0.1652
 1740SOL    HW2 7031   0.961   0.855   3.059  0.3767  1.7659  1.1202
 1740SOL    HW3 7032   0.810   0.861   3.048  0.3442 -0.9212 -0.3209
 1740SOL    MW4 7033   0.889   0.887   3.021  0.1557  0.2577  0.2272
 1741SOL     OW 7034   0.872   1.146   3.129  0.2068  0.1797  0.0709
 1741SOL    HW2 7035   0.944   1.197   3.091 -0.5871  0.7643 -0.6773
 1741SOL    HW3 7036   0.883   1.058   3.093  0.8789  0.1279  0.4035
 1741SOL    MW4 7037   0.883   1.141   3.119  0.1907  0.2499  0.0160
 1742SOL     OW 7038   1.093   1.296   3.012 -0.4279  0.1956 -0.0201
 1742SOL    HW2 7039   1.178   1.259   3.036 -0.7062 -0.1206  0.4920
 1742SOL    HW3 7040   1.094   1.299   2.916  0.3493  0.6483 -0.0012
 1742SOL    MW4 7041   1.105   1.292   3.002 -0.3620  0.2136  0.0498
 1743SOL     OW 7042   1.126   1.536   3.124 -0.1710 -0.3031  0.1773
 1743SOL    HW2 7043   1.204   1.570   3.080 -0.1722  0.5057  0.7855
 1743SOL    HW3 7044   1.114   1.448   3.088 -1.0895  0.9126 -2.6324
 1743SOL    MW4 7045   1.134   1.529   3.114 -0.2923 -0.0360 -0.1130
 1744SOL     OW 7046   0.937   1.655   2.972  0.3267 -0.6216  0.3755
 1744SOL    HW2 7047   1.011   1.613   3.018 -0.8706 -2.6359  0.5268
 1744SOL    HW3 7048   0.859   1.616   3.012 -0.8291  1.0995 -0.1495
 1744SOL    MW4 7049   0.937   1.644   2.983  0.0163 -0.6602  0.3262
 1745SOL     OW 7050   0.898   1.910   3.081  0.3323  0.4341 -0.1305
 1745SOL    HW2 7051   0.915   1.922   3.174 -2.2284  0.2845  0.4041
 1745SOL    HW3 7052   0.930   1.822   3.062  1.3406  0.6630  0.4733
 1745SOL    MW4 7053   0.904   1.900   3.091  0.1275  0.4448  0.0198
 1746SOL     OW 7054   1.116   2.054   3.000 -0.2340 -0.0207 -0.2998
 1746SOL    HW2 7055   1.037   2.006   3.028 -0.3159  0.7784  0.8955
 1746SOL    HW3 7056   1.112   2.054   2.905 -0.6078 -1.7706 -0.2988
 1746SOL    MW4 7057   1.105   2.048   2.991 -0.2940 -0.1464 -0.1419
 1747SOL     OW 7058   1.107   2.296   3.139 -0.1156 -0.0983 -0.0631
 1747SOL    HW2 7059   1.045   2.348   3.089  2.1761  1.1421 -1.7089
 1747SOL    HW3 7060   1.109   2.211   3.095 -0.7447 -0.1956  0.0956
 1747SOL    MW4 7061   1.099   2.291   3.127  0.1038  0.0527 -0.2594
 1748SOL     OW 7062   0.900   2.438   3.036  0.1376  0.2302  0.0858
 1748SOL    HW2 7063   0.820   2.403   3.076  0.3777 -0.1346  0.2539
 1748SOL    HW3 7064   0.878   2.448   2.943  0.6593 -2.1702 -0.3254
 1748SOL    MW4 7065   0.887   2.434   3.029  0.2381 -0.1347  0.0539
 1749SOL     OW 7066   0.887   2.691   3.125 -0.1125 -0.0499 -0.0162
 1749SOL    HW2 7067   0.877   2.692   3.220  0.9216  0.1766  0.1034
 1749SOL    HW3 7068   0.904   2.600   3.103  1.1884  0.1224  0.2083
 1749SOL    MW4 7069   0.888   2.679   3.134  0.1956  0.0026  0.0293
 1750SOL     OW 7070   1.094   2.833   2.998 -0.7540 -0.4757  0.3551
 1750SOL    HW2 7071   1.104   2.924   3.027  1.1613 -0.6358  0.2678
 1750SOL    HW3 7072   1.022   2.798   3.051 -0.7028  0.7404  1.2286
 1750SOL    MW4 7073   1.086   2.840   3.009 -0.4946 -0.3362  0.4587
 1751SOL     OW 7074   1.113   3.085   3.126  0.0049  0.1850 -0.5707
 1751SOL    HW2 7075   1.188   3.144   3.116 -0.3209  0.6989 -0.0257
 1751SOL    HW3 7076   1.037   3.141   3.115 -0.3021 -0.3462 -1.1564
 1751SOL    MW4 7077   1.113   3.100   3.123 -0.0786  0.1826 -0.5758
 1752SOL     OW 7078   0.889   3.229   3.048 -0.4097  0.0080 -0.3029
 1752SOL    HW2 7079   0.813   3.181   3.081 -1.7660  1.4743 -1.2321
 1752SOL    HW3 7080   0.882   3.222   2.953 -1.6179  3.4522 -0.5339
 1752SOL    MW4 7081   0.878   3.222   3.040 -0.7482  0.6559 -0.4559
 1753SOL     OW 7082   0.895   3.481   3.144  0.0355 -0.0936 -0.0810
 1753SOL    HW2 7083   0.967   3.535   3.113  0.8408 -1.2626 -0.2574
 1753SOL    HW3 7084   0.911   3.394   3.107 -1.8560 -0.1945 -0.7218
 1753SOL    MW4 7085   0.907   3.477   3.135 -0.1078 -0.2611 -0.1886
 1754SOL     OW 7086   1.115   3.620   3.019 -0.3996 -0.3152  0.3546
 1754SOL    HW2 7087   1.195   3.575   3.047 -0.9158 -0.9921  0.7611
 1754SOL    HW3 7088   1.133   3.713   3.033  0.1087 -0.5061  0.9821
 1754SOL    MW4 7089   1.128   3.626   3.025 -0.4007 -0.4301  0.4909
 1755SOL     OW 7090   1.129   3.881   3.123 -0.6037 -0.0745  0.4994
 1755SOL    HW2 7091   1.109   3.864   3.215 -0.1808  2.3652  1.1041
 1755SOL    HW3 7092   1.059   3.940   3.094 -0.8267 -0.9605 -0.7994
 1755SOL    MW4 7093   1.117   3.887   3.131 -0.5773  0.1304  0.4077
 1756SOL     OW 7094   0.908   4.036   3.019  0.0356  0.0057 -0.3318
 1756SOL    HW2 7095   0.831   3.992   3.055 -0.0293  0.0438 -0.4237
 1756SOL    HW3 7096   0.909   4.011   2.927  0.4321 -0.4193 -0.2122
 1756SOL    MW4 7097   0.898   4.027   3.011  0.0793 -0.0453 -0.3281
 1757SOL     OW 7098   0.895   4.274   3.165  0.4955  0.3391 -0.3884
 1757SOL    HW2 7099   0.893   4.197   3.108  1.6911  0.2454 -0.3038
 1757SOL    HW3 7100   0.821   4.328   3.135 -0.4693 -0.9193 -0.3224
 1757SOL    MW4 7101   0.885   4.271   3.153  0.5259  0.1612 -0.3684
 1758SOL     OW 7102   1.085   4.391   3.008 -0.1253 -0.3134  0.0960
 1758SOL    HW2 7103   1.013   4.356   3.061 -1.3598  0.0433 -1.3264
 1758SOL    HW3 7104   1.095   4.482   3.038  1.3061 -1.0276  1.9125
 1758SOL    MW4 7105   1.077   4.399   3.019 -0.0993 -0.3600  0.1483
 1759SOL     OW 7106   1.566   4.629   3.068  0.1978  0.2582 -0.1453
 1759SOL    HW2 7107   1.570   4.645   3.163  0.5389  0.1569 -0.1437
 1759SOL    HW3 7108   1.480   4.662   3.042 -1.0261 -2.1567  0.6802
 1759SOL    MW4 7109   1.555   4.635   3.077  0.0814 -0.0739 -0.0362
 1760SOL     OW 7110   1.329   0.107   3.013 -0.0618  0.2337 -0.2442
 1760SOL    HW2 7111   1.332   0.196   3.049  0.5597  1.2606 -2.6839
 1760SOL    HW3 7112   1.327   0.120   2.918 -2.2746 -2.3249 -0.6108
 1760SOL    MW4 7113   1.329   0.121   3.005 -0.2718  0.0316 -0.6146
 1761SOL     OW 7114   1.339   0.365   3.119 -0.0985  0.4951  0.2400
 1761SOL    HW2 7115   1.331   0.376   3.213  0.2070  0.0929  0.3145
 1761SOL    HW3 7116   1.426   0.400   3.098 -0.2138  0.6955  0.0904
 1761SOL    MW4 7117   1.349   0.371   3.129 -0.0734  0.4685  0.2303
 1762SOL     OW 7118   1.566   0.496   3.005  0.5787  0.3373  0.3310
 1762SOL    HW2 7119   1.547   0.584   3.038  0.2459  0.8874 -1.2671
 1762SOL    HW3 7120   1.564   0.506   2.910  0.5345 -1.4069  0.1442
 1762SOL    MW4 7121   1.563   0.509   2.997  0.5289  0.1798  0.0958
 1763SOL     OW 7122   1.538   0.735   3.127  0.1629 -0.2349 -0.4775
 1763SOL    HW2 7123   1.536   0.746   3.223  1.4399 -0.8646 -0.3677
 1763SOL    HW3 7124   1.462   0.784   3.096 -0.0659  0.2717  0.8363
 1763SOL    MW4 7125   1.528   0.743   3.136  0.3012 -0.2511 -0.2897
 1764SOL     OW 7126   1.348   0.892   3.033  0.0623  0.6418 -0.6001
 1764SOL    HW2 7127   1.357   0.984   3.055 -0.4454  0.4023  0.6292
 1764SOL    HW3 7128   1.265   0.865   3.072 -0.2080 -0.1368 -1.6700
 1764SOL    MW4 7129   1.339   0.900   3.041 -0.0403  0.5075 -0.5789
 1765SOL     OW 7130   1.337   1.165   3.096 -0.5015 -0.1354  0.5993
 1765SOL    HW2 7131   1.345   1.158   3.191 -0.1797 -0.9381  0.5105
 1765SOL    HW3 7132   1.391   1.241   3.074  0.2102 -0.5335  0.9500
 1765SOL    MW4 7133   1.345   1.174   3.106 -0.3650 -0.2939  0.6337
 1766SOL     OW 7134   1.574   1.287   2.997 -0.3318  0.4340 -0.1181
 1766SOL    HW2 7135   1.638   1.224   3.032 -0.6731  0.1086 -0.0808
 1766SOL    HW3 7136   1.596   1.369   3.041  0.2479  0.3923 -0.3183
 1766SOL    MW4 7137   1.585   1.289   3.008 -0.3003  0.3856 -0.1397
 1767SOL     OW 7138   1.573   1.530   3.093 -0.1561 -0.4038 -0.4502
 1767SOL    HW2 7139   1.647   1.574   3.051  0.0765 -1.2206 -0.9117
 1767SOL    HW3 7140   1.496   1.566   3.049 -0.0357  0.3374 -0.0743
 1767SOL    MW4 7141   1.573   1.541   3.081 -0.1094 -0.4138 -0.4616
 1768SOL     OW 7142   1.341   1.639   2.982 -0.1166  0.2297  0.0477
 1768SOL    HW2 7143   1.343   1.720   3.034 -1.2295 -0.1999  0.7758
 1768SOL    HW3 7144   1.350   1.669   2.891  2.7692  0.9297  0.5087
 1768SOL    MW4 7145   1.343   1.654   2.977  0.1173  0.2652  0.2046
 1769SOL     OW 7146   1.328   1.905   3.138  0.1858 -0.2230  0.1020
 1769SOL    HW2 7147   1.310   1.905   3.232 -2.8400  0.0231 -0.4247
 1769SOL    HW3 7148   1.261   1.963   3.101 -0.2902 -2.3164 -2.4784
 1769SOL    MW4 7149   1.317   1.913   3.146 -0.2762 -0.4667 -0.3080
 1770SOL     OW 7150   1.565   2.050   3.023 -0.8121  0.5296 -0.5437
 1770SOL    HW2 7151   1.489   2.004   3.057 -0.6894  0.1989 -0.7204
 1770SOL    HW3 7152   1.553   2.051   2.928 -1.7460  2.4831 -0.4288
 1770SOL    MW4 7153   1.553   2.044   3.015 -0.9190  0.7439 -0.5517
 1771SOL     OW 7154   1.590   2.315   3.077  0.1679 -0.3724 -0.1905
 1771SOL    HW2 7155   1.502   2.351   3.074 -0.0602 -0.4773  2.8673
 1771SOL    HW3 7156   1.579   2.222   3.059 -0.0331  0.0062 -2.0666
 1771SOL    MW4 7157   1.577   2.308   3.075  0.1111 -0.3362 -0.0346
 1772SOL     OW 7158   1.336   2.437   3.051 -0.5616 -0.7145  0.0709
 1772SOL    HW2 7159   1.254   2.395   3.076 -1.1875 -0.0528 -0.8433
 1772SOL    HW3 7160   1.333   2.442   2.955  1.2844 -2.1669 -0.0905
 1772SOL    MW4 7161   1.325   2.432   3.042 -0.4007 -0.8187 -0.0710
 1773SOL     OW 7162   1.325   2.715   3.115 -0.0420 -0.0723  0.3082
 1773SOL    HW2 7163   1.319   2.620   3.105  0.5231  0.0136 -0.9281
 1773SOL    HW3 7164   1.240   2.747   3.083  0.3882 -0.0526 -0.8298
 1773SOL    MW4 7165   1.313   2.706   3.109  0.0893 -0.0587 -0.0052
 1774SOL     OW 7166   1.537   2.865   3.007 -0.0307  0.2339  0.1989
 1774SOL    HW2 7167   1.621   2.836   3.043 -0.1887 -1.0752 -0.4481
 1774SOL    HW3 7168   1.473   2.802   3.040 -0.3806 -0.1910 -1.2517
 1774SOL    MW4 7169   1.540   2.853   3.016 -0.0976  0.0052 -0.0777
 1775SOL     OW 7170   1.555   3.137   3.083 -0.2558  0.0098 -0.4052
 1775SOL    HW2 7171   1.552   3.145   3.179 -0.1890  0.9971 -0.4764
 1775SOL    HW3 7172   1.539   3.044   3.066 -1.1647 -0.0137  0.5269
 1775SOL    MW4 7173   1.553   3.126   3.093 -0.3668  0.1369 -0.2916
 1776SOL     OW 7174   1.324   3.244   3.007  0.2378  0.0182  0.2166
 1776SOL    HW2 7175   1.394   3.184   3.033 -0.3322 -0.5938  0.3595
 1776SOL    HW3 7176   1.330   3.248   2.911  0.3760 -0.1495  0.2179
 1776SOL    MW4 7177   1.334   3.236   2.998  0.1810 -0.0849  0.2356
 1777SOL     OW 7178   1.362   3.494   3.096  0.3947 -0.4191  0.2347
 1777SOL    HW2 7179   1.359   3.482   3.191 -2.1208 -0.2017  0.2309
 1777SOL    HW3 7180   1.347   3.406   3.061 -0.8422 -0.1565  0.0768
 1777SOL    MW4 7181   1.360   3.481   3.104 -0.1004 -0.3555  0.2131
 1778SOL     OW 7182   1.594   3.602   3.019  0.0161  0.6822  0.0345
 1778SOL    HW2 7183   1.514   3.568   3.058  1.0857 -1.0667  0.7786
 1778SOL    HW3 7184   1.592   3.570   2.929  0.0915  0.2450  0.1855
 1778SOL    MW4 7185   1.583   3.593   3.012  0.1673  0.3936  0.1528
 1779SOL     OW 7186   1.577   3.877   3.080 -0.2559 -0.1630  0.4071
 1779SOL    HW2 7187   1.661   3.923   3.073 -1.0486  1.1493 -0.8133
 1779SOL    HW3 7188   1.594   3.791   3.042  0.3118  0.4265 -0.7061
 1779SOL    MW4 7189   1.590   3.872   3.074 -0.2856  0.0877  0.0994
 1780SOL     OW 7190   1.339   3.992   2.983  0.0558  0.4305 -0.4145
 1780SOL    HW2 7191   1.424   3.960   3.014 -0.1311  0.6986  0.3975
 1780SOL    HW3 7192   1.275   3.949   3.040 -0.3828 -0.1315 -1.3345
 1780SOL    MW4 7193   1.342   3.982   2.995 -0.0267  0.3920 -0.4289
 1781SOL     OW 7194   1.318   4.258   3.093  0.6220 -0.1505 -0.1518
 1781SOL    HW2 7195   1.333   4.172   3.055  1.3308 -0.8783  1.7246
 1781SOL    HW3 7196   1.227   4.278   3.072  0.2549 -1.6453 -0.0563
 1781SOL    MW4 7197   1.308   4.249   3.085  0.6671 -0.4439  0.1085
 1782SOL     OW 7198   1.554   4.351   3.004  0.0216 -0.3146 -0.1492
 1782SOL    HW2 7199   1.465   4.338   3.037 -0.2553  0.7540 -0.4260
 1782SOL    HW3 7200   1.573   4.443   3.023  0.0418  0.1971 -2.4354
 1782SOL    MW4 7201   1.545   4.361   3.011 -0.0123 -0.1063 -0.4873
 1783SOL     OW 7202   1.967   4.601   3.083  0.0548  0.2127  0.1383
 1783SOL    HW2 7203   1.983   4.629   3.173 -1.6339  1.7451 -0.0073
 1783SOL    HW3 7204   1.912   4.669   3.046  0.9944 -0.2281 -2.1795
 1783SOL    MW4 7205   1.962   4.613   3.090 -0.0440  0.3567 -0.1869
 1784SOL     OW 7206   1.777   0.130   3.004 -0.0893  0.5641 -0.2801
 1784SOL    HW2 7207   1.708   0.068   3.026 -0.8704  1.3928 -0.3621
 1784SOL    HW3 7208   1.789   0.120   2.909 -0.3144  0.6318 -0.3168
 1784SOL    MW4 7209   1.770   0.121   2.994 -0.2221  0.6824 -0.2959
 1785SOL     OW 7210   1.781   0.381   3.099 -0.2122 -0.1728  0.3864
 1785SOL    HW2 7211   1.782   0.290   3.071 -0.6805 -0.4079  1.1408
 1785SOL    HW3 7212   1.704   0.419   3.055  1.0035  0.3324 -1.3888
 1785SOL    MW4 7213   1.771   0.374   3.089 -0.1135 -0.1371  0.2520
 1786SOL     OW 7214   2.044   0.500   3.032  0.2626  0.1651 -0.0336
 1786SOL    HW2 7215   1.956   0.477   3.058 -0.0897  0.2135 -1.1540
 1786SOL    HW3 7216   2.045   0.492   2.936  1.9623 -1.5377  0.0950
 1786SOL    MW4 7217   2.033   0.496   3.023  0.4404 -0.0531 -0.1645
 1787SOL     OW 7218   2.005   0.775   3.120 -0.1268  0.3773  0.0337
 1787SOL    HW2 7219   1.920   0.799   3.083  0.9286  0.5277 -2.3438
 1787SOL    HW3 7220   2.025   0.690   3.081  1.1678  0.6989 -0.0319
 1787SOL    MW4 7221   1.996   0.767   3.110  0.1832  0.4396 -0.2887
 1788SOL     OW 7222   1.759   0.856   3.021  0.2591 -0.2775  0.0693
 1788SOL    HW2 7223   1.682   0.801   3.038 -0.6613  0.6710 -0.9680
 1788SOL    HW3 7224   1.762   0.864   2.926  0.8220  0.8532  0.1743
 1788SOL    MW4 7225   1.749   0.850   3.011  0.2120 -0.0032 -0.0536
 1789SOL     OW 7226   1.772   1.132   3.122  0.4979  0.3335 -0.2996
 1789SOL    HW2 7227   1.770   1.143   3.217  0.8722  0.4857 -0.3106
 1789SOL    HW3 7228   1.758   1.038   3.109 -0.4793  0.4422 -0.1344
 1789SOL    MW4 7229   1.770   1.121   3.133  0.4183  0.3679 -0.2794
 1790SOL     OW 7230   2.002   1.274   3.044 -0.2125  0.1496 -0.0964
 1790SOL    HW2 7231   2.078   1.220   3.066 -0.2154  0.8330  1.6726
 1790SOL    HW3 7232   1.927   1.216   3.056 -0.0304 -0.2647 -0.9577
 1790SOL    MW4 7233   2.002   1.259   3.049 -0.1888  0.1851  0.0231
 1791SOL     OW 7234   2.030   1.541   3.112 -0.5352  0.0234 -0.0922
 1791SOL    HW2 7235   2.016   1.546   3.207 -0.8813 -0.5201 -0.1121
 1791SOL    HW3 7236   2.041   1.448   3.095  0.2298  0.1879 -0.4910
 1791SOL    MW4 7237   2.030   1.530   3.123 -0.4797 -0.0265 -0.1476
 1792SOL     OW 7238   1.802   1.674   3.017  0.1654 -0.1172  0.2850
 1792SOL    HW2 7239   1.796   1.760   3.057  0.6798  0.2755 -0.4686
 1792SOL    HW3 7240   1.874   1.631   3.064 -1.1213 -0.7415  1.7457
 1792SOL    MW4 7241   1.811   1.679   3.029  0.0635 -0.1477  0.3784
 1793SOL     OW 7242   1.786   1.924   3.138  0.4603  0.3014 -0.1621
 1793SOL    HW2 7243   1.849   1.962   3.078 -0.1080 -0.3058 -1.1645
 1793SOL    HW3 7244   1.702   1.963   3.114  0.0286 -0.8470 -0.5849
 1793SOL    MW4 7245   1.783   1.934   3.127  0.3284  0.0697 -0.3502
 1794SOL     OW 7246   1.997   2.055   3.002 -0.1341 -0.0123 -1.0443
 1794SOL    HW2 7247   2.079   2.015   3.033 -0.2324 -0.3671 -1.2385
 1794SOL    HW3 7248   2.009   2.149   3.016 -0.6101 -0.2453  1.1294
 1794SOL    MW4 7249   2.009   2.062   3.008 -0.2096 -0.0901 -0.7832
 1795SOL     OW 7250   2.052   2.317   3.055  0.2199 -0.0699 -0.2274
 1795SOL    HW2 7251   2.131   2.368   3.040  0.4533 -0.5658 -0.7119
 1795SOL    HW3 7252   1.981   2.374   3.023  0.3312  0.5484  0.6064
 1795SOL    MW4 7253   2.053   2.331   3.049  0.2656 -0.0536 -0.1814
 1796SOL     OW 7254   1.810   2.449   3.006 -0.1591  0.6806 -0.1278
 1796SOL    HW2 7255   1.782   2.536   3.036  0.4899  0.1564  2.0648
 1796SOL    HW3 7256   1.739   2.391   3.031  0.0062  0.3769 -0.3663
 1796SOL    MW4 7257   1.797   2.453   3.013 -0.0515  0.5715  0.1299
 1797SOL     OW 7258   1.759   2.722   3.077  0.1294  0.0638  0.6481
 1797SOL    HW2 7259   1.775   2.710   3.170  1.1410 -2.5231  0.1802
 1797SOL    HW3 7260   1.843   2.750   3.041 -0.1776  0.7506  0.4554
 1797SOL    MW4 7261   1.772   2.724   3.085  0.2223 -0.1867  0.5608
 1798SOL     OW 7262   2.014   2.806   2.996  0.2135  0.0978 -0.2214
 1798SOL    HW2 7263   2.001   2.898   3.020 -1.5429 -0.0143 -0.6728
 1798SOL    HW3 7264   2.023   2.808   2.900 -2.4285 -0.4266 -0.5320
 1798SOL    MW4 7265   2.013   2.818   2.986 -0.3669  0.0138 -0.3219
 1799SOL     OW 7266   1.999   3.071   3.079 -0.3057  0.1772  0.1995
 1799SOL    HW2 7267   2.000   3.084   3.173  1.6921  0.5994  0.1412
 1799SOL    HW3 7268   1.920   3.116   3.049 -0.9897 -0.0255  1.6639
 1799SOL    MW4 7269   1.988   3.079   3.087 -0.1323  0.2060  0.3853
 1800SOL     OW 7270   1.792   3.233   2.977 -0.1494 -0.0822  0.3036
 1800SOL    HW2 7271   1.714   3.196   3.017  0.5625 -2.1508 -0.1613
 1800SOL    HW3 7272   1.781   3.219   2.883 -0.0591  1.2965  0.0771
 1800SOL    MW4 7273   1.781   3.226   2.970 -0.0436 -0.1733  0.2127
 1801SOL     OW 7274   1.809   3.478   3.143 -0.4801 -0.5026 -0.0422
 1801SOL    HW2 7275   1.817   3.390   3.105 -1.3770 -0.6238  0.0389
 1801SOL    HW3 7276   1.737   3.518   3.094 -1.4233 -0.5380  1.2919
 1801SOL    MW4 7277   1.800   3.471   3.132 -0.7228 -0.5233  0.1447
 1802SOL     OW 7278   2.018   3.587   2.997 -0.0323  0.1934  0.3834
 1802SOL    HW2 7279   2.018   3.678   3.026 -1.6679  0.2278  0.3346
 1802SOL    HW3 7280   1.950   3.545   3.051  0.1988 -0.8284 -0.1025
 1802SOL    MW4 7281   2.009   3.593   3.008 -0.2177  0.0629  0.3130
 1803SOL     OW 7282   2.018   3.838   3.107  0.5414  0.7125  0.1107
 1803SOL    HW2 7283   2.013   3.850   3.202 -0.3877  0.6286  0.0755
 1803SOL    HW3 7284   1.936   3.876   3.074 -0.0625 -1.0467 -0.4781
 1803SOL    MW4 7285   2.006   3.845   3.115  0.3393  0.4694  0.0286
 1804SOL     OW 7286   1.812   3.990   3.021  0.0311 -0.1600  0.5423
 1804SOL    HW2 7287   1.783   4.075   3.054 -1.0226 -1.0489  1.9489
 1804SOL    HW3 7288   1.799   3.995   2.926 -0.6712  0.9946  0.6987
 1804SOL    MW4 7289   1.807   4.002   3.013 -0.2005 -0.1249  0.7489
 1805SOL     OW 7290   1.761   4.229   3.126  0.3862 -0.1310  0.7515
 1805SOL    HW2 7291   1.837   4.271   3.085  0.8575 -1.4070  0.2927
 1805SOL    HW3 7292   1.685   4.273   3.086  0.8649  0.5587  0.5836
 1805SOL    MW4 7293   1.761   4.241   3.115  0.5115 -0.2084  0.6688
 1806SOL     OW 7294   1.973   4.350   3.007 -0.1103  0.4972  0.1619
 1806SOL    HW2 7295   1.979   4.443   3.031  0.6493  0.4964 -0.0314
 1806SOL    HW3 7296   1.980   4.349   2.912 -1.6537  0.3681  0.0386
 1806SOL    MW4 7297   1.975   4.362   2.998 -0.2137  0.4802  0.1202
 1807SOL     OW 7298   2.440   4.625   3.110 -0.3041 -0.3349 -0.6535
 1807SOL    HW2 7299   2.437   4.532   3.087  1.3450 -0.7929  0.8557
 1807SOL    HW3 7300   2.359   4.661   3.074 -1.8874 -2.7434  0.3497
 1807SOL    MW4 7301   2.429   4.617   3.103 -0.2956 -0.7133 -0.3221
 1808SOL     OW 7302   2.207   0.074   2.993 -0.1038  0.7122 -0.1307
 1808SOL    HW2 7303   2.228   0.148   3.049  0.5276 -1.1997  2.2417
 1808SOL    HW3 7304   2.131   0.034   3.033 -1.9734  1.4581 -2.7867
 1808SOL    MW4 7305   2.200   0.079   3.005 -0.2675  0.5583 -0.1683
 1809SOL     OW 7306   2.236   0.315   3.122  0.6586  0.7341  0.1057
 1809SOL    HW2 7307   2.248   0.338   3.214 -0.6181 -0.0536  0.4830
 1809SOL    HW3 7308   2.158   0.363   3.095  0.2000 -0.1282 -0.1528
 1809SOL    MW4 7309   2.227   0.324   3.131  0.4294  0.5164  0.1214
 1810SOL     OW 7310   2.438   0.503   3.059 -0.5273  0.0864 -0.0229
 1810SOL    HW2 7311   2.373   0.437   3.081 -1.3087  0.9205  0.1838
 1810SOL    HW3 7312   2.424   0.522   2.966 -1.0246  0.7503  0.1843
 1810SOL    MW4 7313   2.428   0.497   3.050 -0.6957  0.2840  0.0315
 1811SOL     OW 7314   2.471   0.763   3.157 -0.1331  0.9218  0.1930
 1811SOL    HW2 7315   2.533   0.795   3.091 -1.6303  0.6518 -1.3729
 1811SOL    HW3 7316   2.472   0.668   3.145 -2.1430  1.0282 -1.0631
 1811SOL    MW4 7317   2.479   0.755   3.147 -0.5958  0.9002 -0.1793
 1812SOL     OW 7318   2.256   0.876   3.030  0.0197  0.7916  0.1111
 1812SOL    HW2 7319   2.326   0.825   3.072  0.5362  0.1115 -1.5275
 1812SOL    HW3 7320   2.175   0.836   3.062  0.4150 -0.5652 -0.5278
 1812SOL    MW4 7321   2.254   0.864   3.040  0.1402  0.5229 -0.1893
 1813SOL     OW 7322   2.224   1.121   3.139 -0.5832  0.4714 -0.2875
 1813SOL    HW2 7323   2.238   1.130   3.233 -1.0135 -0.7994 -0.0783
 1813SOL    HW3 7324   2.225   1.026   3.124  0.4272  0.6905 -1.7162
 1813SOL    MW4 7325   2.226   1.109   3.149 -0.5066  0.3326 -0.4485
 1814SOL     OW 7326   2.464   1.259   3.032  0.0720  0.1437 -0.1724
 1814SOL    HW2 7327   2.385   1.217   3.066  0.4736 -0.8812 -0.4772
 1814SOL    HW3 7328   2.448   1.267   2.938  0.6911 -0.9321 -0.3916
 1814SOL    MW4 7329   2.452   1.254   3.024  0.2067 -0.1335 -0.2418
 1815SOL     OW 7330   2.466   1.533   3.083  0.0504 -0.6399  0.3742
 1815SOL    HW2 7331   2.385   1.565   3.044  0.9590 -0.8996 -1.7665
 1815SOL    HW3 7332   2.451   1.439   3.095 -0.1274 -0.6043  0.4466
 1815SOL    MW4 7333   2.453   1.525   3.080  0.1466 -0.6695  0.1013
 1816SOL     OW 7334   2.247   1.680   2.994 -0.4663  0.5615  0.3121
 1816SOL    HW2 7335   2.163   1.653   3.032  0.2874 -2.9067 -0.3153
 1816SOL    HW3 7336   2.232   1.680   2.900  0.2346 -0.1147  0.1975
 1816SOL    MW4 7337   2.234   1.676   2.987 -0.2742  0.0147  0.2143
 1817SOL     OW 7338   2.226   1.933   3.123 -0.4865 -0.5261 -0.4517
 1817SOL    HW2 7339   2.296   1.996   3.104  0.1221 -0.7756  0.8905
 1817SOL    HW3 7340   2.245   1.858   3.067 -0.6013  0.0631 -1.2751
 1817SOL    MW4 7341   2.238   1.931   3.113 -0.4210 -0.4812 -0.3834
 1818SOL     OW 7342   2.457   2.077   3.047 -0.0175 -0.2733  0.0123
 1818SOL    HW2 7343   2.528   2.027   3.088 -1.8900 -2.2693  0.8653
 1818SOL    HW3 7344   2.477   2.075   2.954  0.4543 -1.7860  0.1367
 1818SOL    MW4 7345   2.469   2.070   3.040 -0.2027 -0.7362  0.1414
 1819SOL     OW 7346   2.504   2.355   3.135  0.7587 -0.3079 -0.0885
 1819SOL    HW2 7347   2.502   2.345   3.230  0.5418  0.6602  0.0177
 1819SOL    HW3 7348   2.493   2.266   3.101  0.5011 -0.6164  0.7877
 1819SOL    MW4 7349   2.502   2.342   3.143  0.6959 -0.2210  0.0410
 1820SOL     OW 7350   2.277   2.477   3.005  0.4191 -0.3669  0.4276
 1820SOL    HW2 7351   2.256   2.566   3.033 -1.6177 -0.4948 -0.6083
 1820SOL    HW3 7352   2.360   2.458   3.048  0.6646  1.8633  1.0231
 1820SOL    MW4 7353   2.285   2.486   3.014  0.1826 -0.0894  0.3693
 1821SOL     OW 7354   2.244   2.716   3.119 -0.3795  0.5427  0.4485
 1821SOL    HW2 7355   2.309   2.747   3.056 -0.2920  0.7254  0.6280
 1821SOL    HW3 7356   2.164   2.761   3.094 -0.6011 -0.1858 -0.1849
 1821SOL    MW4 7357   2.242   2.726   3.107 -0.3970  0.4706  0.3886
 1822SOL     OW 7358   2.458   2.807   2.958 -0.1505 -0.1501 -0.3305
 1822SOL    HW2 7359   2.472   2.894   2.995  1.0608 -0.1544 -0.7610
 1822SOL    HW3 7360   2.439   2.822   2.866 -0.8336 -0.2896 -0.2142
 1822SOL    MW4 7361   2.457   2.820   2.951 -0.0808 -0.1690 -0.3717
 1823SOL     OW 7362   2.448   3.054   3.088 -0.0188  0.2807  0.4127
 1823SOL    HW2 7363   2.532   3.086   3.056 -0.2670 -0.0783 -0.6230
 1823SOL    HW3 7364   2.385   3.118   3.056 -0.5041 -1.1486 -1.5543
 1823SOL    MW4 7365   2.451   3.067   3.080 -0.1156  0.0448  0.0167
 1824SOL     OW 7366   2.236   3.210   3.021 -0.1974 -0.0958 -0.3000
 1824SOL    HW2 7367   2.218   3.298   3.055 -0.1165 -0.6262  1.1591
 1824SOL    HW3 7368   2.160   3.159   3.046 -0.1195 -0.5050 -0.9016
 1824SOL    MW4 7369   2.224   3.215   3.029 -0.1764 -0.2196 -0.1869
 1825SOL     OW 7370   2.231   3.470   3.101  0.1991 -0.2685  0.4928
 1825SOL    HW2 7371   2.303   3.532   3.092  0.1633 -0.1908  0.7554
 1825SOL    HW3 7372   2.160   3.508   3.049  0.7147 -0.9107 -0.7284
 1825SOL    MW4 7373   2.231   3.483   3.093  0.2623 -0.3431  0.3664
 1826SOL     OW 7374   2.456   3.622   3.021 -0.3903 -0.1402  0.1458
 1826SOL    HW2 7375   2.527   3.568   3.057 -0.0047  0.3754  0.1697
 1826SOL    HW3 7376   2.483   3.712   3.041 -0.5278  0.1118 -0.8052
 1826SOL    MW4 7377   2.469   3.627   3.028 -0.3574 -0.0391  0.0236
 1827SOL     OW 7378   2.460   3.882   3.095  0.0885  0.4164 -0.6376
 1827SOL    HW2 7379   2.468   3.863   3.188 -0.3260  1.1342 -0.4595
 1827SOL    HW3 7380   2.539   3.931   3.073  0.8247 -0.8863 -0.9508
 1827SOL    MW4 7381   2.472   3.886   3.104  0.1307  0.3393 -0.6559
 1828SOL     OW 7382   2.230   3.969   2.977  0.3383  0.1980  0.4092
 1828SOL    HW2 7383   2.306   3.931   3.022  0.7973  1.8853  1.0954
 1828SOL    HW3 7384   2.155   3.931   3.021  0.7889  1.3577  2.2310
 1828SOL    MW4 7385   2.230   3.959   2.989  0.4585  0.5732  0.7401
 1829SOL     OW 7386   2.218   4.223   3.092  0.3078  0.2453 -0.4491
 1829SOL    HW2 7387   2.222   4.140   3.044 -0.1096 -1.1961  1.9187
 1829SOL    HW3 7388   2.133   4.260   3.068 -1.6222 -2.3205  2.0177
 1829SOL    MW4 7389   2.208   4.217   3.083 -0.0021 -0.2837  0.1888
 1830SOL     OW 7390   2.423   4.372   3.010  0.0985 -0.3346 -0.4489
 1830SOL    HW2 7391   2.341   4.329   3.034 -1.4929  2.6449 -0.3123
 1830SOL    HW3 7392   2.419   4.379   2.915  0.8880 -1.4604 -0.5779
 1830SOL    MW4 7393   2.412   4.367   3.001 -0.0072 -0.0901 -0.4480
 1831SOL     OW 7394   2.878   4.657   3.108  0.5888 -0.1452  0.2747
 1831SOL    HW2 7395   2.949   4.702   3.062 -0.5415 -0.4890 -1.8891
 1831SOL    HW3 7396   2.886   4.566   3.081  0.6705 -0.6118  1.8132
 1831SOL    MW4 7397   2.889   4.651   3.098  0.4504 -0.2518  0.1919
 1832SOL     OW 7398   2.649   0.078   2.970  0.3436 -0.4319  0.0644
 1832SOL    HW2 7399   2.729   0.061   3.019 -0.2935 -1.4278  0.7641
 1832SOL    HW3 7400   2.581   0.029   3.016 -1.1256  2.2865  0.8881
 1832SOL    MW4 7401   2.651   0.070   2.982  0.0656 -0.2046  0.2654
 1833SOL     OW 7402   2.664   0.313   3.084  0.6032  0.2113 -0.1066
 1833SOL    HW2 7403   2.655   0.236   3.028  0.4426 -0.0327  0.2580
 1833SOL    HW3 7404   2.583   0.362   3.072  0.5890  0.1835 -0.1252
 1833SOL    MW4 7405   2.652   0.309   3.075  0.5798  0.1754 -0.0608
 1834SOL     OW 7406   2.868   0.503   2.985 -0.2671 -0.3906  0.1571
 1834SOL    HW2 7407   2.814   0.441   3.034 -0.0229 -0.5388  0.2402
 1834SOL    HW3 7408   2.853   0.481   2.893 -0.8391 -0.0167  0.1608
 1834SOL    MW4 7409   2.859   0.492   2.979 -0.3104 -0.3608  0.1686
 1835SOL     OW 7410   2.917   0.763   3.064  0.3244  0.1035 -0.1080
 1835SOL    HW2 7411   2.899   0.766   3.158 -1.2486 -0.3508 -0.3693
 1835SOL    HW3 7412   2.900   0.672   3.039  2.3997 -0.1892 -0.5338
 1835SOL    MW4 7413   2.912   0.751   3.073  0.3905  0.0049 -0.1988
 1836SOL     OW 7414   2.664   0.894   3.005 -0.2067 -0.0186  0.0302
 1836SOL    HW2 7415   2.673   0.982   3.041  0.2427  0.2039 -0.6338
 1836SOL    HW3 7416   2.745   0.850   3.030  0.2673  0.2520 -1.0407
 1836SOL    MW4 7417   2.676   0.900   3.013 -0.0849  0.0466 -0.1988
 1837SOL     OW 7418   2.692   1.143   3.132  0.1930  0.3714  0.0407
 1837SOL    HW2 7419   2.771   1.190   3.106  0.8842  0.2573  1.8545
 1837SOL    HW3 7420   2.621   1.187   3.086  1.1951  1.1754 -0.7513
 1837SOL    MW4 7421   2.693   1.155   3.123  0.4160  0.4623  0.1755
 1838SOL     OW 7422   2.900   1.294   3.027  0.4107  0.6560 -0.1236
 1838SOL    HW2 7423   2.985   1.256   3.051 -0.5769  0.1145  2.8164
 1838SOL    HW3 7424   2.902   1.382   3.065 -0.9799 -0.0062  1.5552
 1838SOL    MW4 7425   2.912   1.300   3.035  0.0968  0.4971  0.4857
 1839SOL     OW 7426   2.912   1.571   3.121 -0.3369 -0.0578  0.1750
 1839SOL    HW2 7427   2.946   1.551   3.208  0.8148 -1.3707 -0.5458
 1839SOL    HW3 7428   2.987   1.606   3.073 -1.0679  1.0531 -0.1670
 1839SOL    MW4 7429   2.927   1.573   3.126 -0.2813 -0.0843  0.0350
 1840SOL     OW 7430   2.699   1.701   3.005  0.1143 -0.2103 -0.0438
 1840SOL    HW2 7431   2.777   1.657   3.038 -0.5640 -0.0148  1.9097
 1840SOL    HW3 7432   2.626   1.646   3.035 -0.5605  0.3529 -0.6240
 1840SOL    MW4 7433   2.700   1.688   3.013 -0.0641 -0.1101  0.1373
 1841SOL     OW 7434   2.679   1.920   3.146 -0.3855 -0.1586 -0.2060
 1841SOL    HW2 7435   2.756   1.967   3.114 -0.2488 -0.1529  0.1248
 1841SOL    HW3 7436   2.675   1.840   3.094 -0.0573 -0.2394 -0.1071
 1841SOL    MW4 7437   2.689   1.916   3.135 -0.3242 -0.1684 -0.1493
 1842SOL     OW 7438   2.883   2.063   3.019  0.5556 -0.3918  0.0292
 1842SOL    HW2 7439   2.888   2.148   3.063  2.3077  0.0221 -0.9308
 1842SOL    HW3 7440   2.906   2.082   2.928  0.3729 -1.8032 -0.3131
 1842SOL    MW4 7441   2.886   2.077   3.013  0.7627 -0.5236 -0.1428
 1843SOL     OW 7442   2.901   2.313   3.122 -0.2275 -0.4341 -0.2184
 1843SOL    HW2 7443   2.980   2.344   3.078  0.7911 -1.8409  0.5356
 1843SOL    HW3 7444   2.829   2.363   3.083  1.1178  1.3866 -0.4025
 1843SOL    MW4 7445   2.902   2.324   3.111  0.0842 -0.3796 -0.1431
 1844SOL     OW 7446   2.720   2.484   3.015 -0.1323  0.5943  0.1621
 1844SOL    HW2 7447   2.707   2.577   3.035 -1.1064  1.0719 -2.5022
 1844SOL    HW3 7448   2.640   2.441   3.045  0.0336  0.7226  0.7834
 1844SOL    MW4 7449   2.708   2.490   3.021 -0.2391  0.6742 -0.1075
 1845SOL     OW 7450   2.703   2.752   3.089 -0.2841  0.1012 -0.1635
 1845SOL    HW2 7451   2.700   2.750   3.185 -0.9546  1.2296 -0.1612
 1845SOL    HW3 7452   2.612   2.756   3.062 -0.1516 -1.3238 -0.8985
 1845SOL    MW4 7453   2.691   2.752   3.098 -0.3550  0.0622 -0.2601
 1846SOL     OW 7454   2.947   2.826   2.974  0.0858 -0.2485 -0.0627
 1846SOL    HW2 7455   3.028   2.792   3.012  0.0367 -0.7791 -0.4451
 1846SOL    HW3 7456   2.877   2.790   3.029  0.0418 -0.6467 -0.3843
 1846SOL    MW4 7457   2.949   2.817   2.986  0.0737 -0.3712 -0.1557
 1847SOL     OW 7458   2.883   3.064   3.108  0.0734 -0.0602 -0.1275
 1847SOL    HW2 7459   2.804   3.099   3.066  0.1604 -0.1619 -0.3790
 1847SOL    HW3 7460   2.909   2.990   3.052  0.7840  0.4458 -0.4764
 1847SOL    MW4 7461   2.876   3.059   3.095  0.1786 -0.0067 -0.2067
 1848SOL     OW 7462   2.681   3.194   2.988 -0.1976 -0.1538 -0.5884
 1848SOL    HW2 7463   2.660   3.282   3.019  0.8702 -0.3693  0.8150
 1848SOL    HW3 7464   2.693   3.203   2.894 -0.6952  1.0764 -0.5442
 1848SOL    MW4 7465   2.680   3.206   2.980 -0.1223 -0.0198 -0.3972
 1849SOL     OW 7466   2.677   3.439   3.096  0.6186 -0.2570  0.0286
 1849SOL    HW2 7467   2.678   3.441   3.192  0.0716 -0.3631  0.0382
 1849SOL    HW3 7468   2.755   3.488   3.070  0.5770  0.0727  0.5236
 1849SOL    MW4 7469   2.687   3.446   3.105  0.5410 -0.2275  0.0954
 1850SOL     OW 7470   2.910   3.590   2.983 -0.0909 -0.1519  0.0827
 1850SOL    HW2 7471   2.977   3.560   3.044  0.2301  1.1637  0.4015
 1850SOL    HW3 7472   2.880   3.673   3.019 -0.2030  0.4319 -1.3004
 1850SOL    MW4 7473   2.915   3.597   2.996 -0.0634  0.0987 -0.0582
 1851SOL     OW 7474   2.858   3.815   3.116  0.3625  0.1167 -0.0992
 1851SOL    HW2 7475   2.862   3.824   3.211 -1.9458  0.2919 -0.0081
 1851SOL    HW3 7476   2.800   3.885   3.087  1.9025  0.7425 -1.7620
 1851SOL    MW4 7477   2.851   3.825   3.125  0.2613  0.2224 -0.3064
 1852SOL     OW 7478   2.685   3.999   3.000 -0.6267 -0.4752 -0.3716
 1852SOL    HW2 7479   2.669   4.086   3.037 -0.2593 -0.8780  0.7554
 1852SOL    HW3 7480   2.662   4.007   2.908  1.2665  1.3592 -0.7191
 1852SOL    MW4 7481   2.680   4.011   2.993 -0.3283 -0.2861 -0.2687
 1853SOL     OW 7482   2.646   4.255   3.112  0.1209 -0.0029 -0.0188
 1853SOL    HW2 7483   2.619   4.254   3.203  0.7577  3.8189  0.3023
 1853SOL    HW3 7484   2.567   4.276   3.063 -0.1405 -1.6730 -0.3411
 1853SOL    MW4 7485   2.632   4.258   3.117  0.1702  0.2813 -0.0191
 1854SOL     OW 7486   2.887   4.405   3.022  0.1415 -0.1616 -0.1257
 1854SOL    HW2 7487   2.957   4.341   3.014 -0.2409 -0.7481  1.0697
 1854SOL    HW3 7488   2.821   4.362   3.076 -1.2092  0.3247 -1.3645
 1854SOL    MW4 7489   2.887   4.391   3.028 -0.0873 -0.1750 -0.1311
 1855SOL     OW 7490   3.312   4.620   3.098 -0.3247  0.3952 -0.8755
 1855SOL    HW2 7491   3.391   4.652   3.054  0.9036 -0.3282  0.7587
 1855SOL    HW3 7492   3.301   4.531   3.064  0.1553  0.1261 -0.3229
 1855SOL    MW4 7493   3.321   4.612   3.087 -0.0992  0.2642 -0.5870
 1856SOL     OW 7494   3.113   0.102   2.986  0.2721  0.2585  0.1722
 1856SOL    HW2 7495   3.104   0.191   3.021  0.1659 -0.2368  1.4105
 1856SOL    HW3 7496   3.183   0.063   3.038 -0.5958 -0.8269  0.5343
 1856SOL    MW4 7497   3.121   0.109   2.998  0.1435  0.0499  0.3834
 1857SOL     OW 7498   3.090   0.351   3.072  0.2011 -0.3302  0.1223
 1857SOL    HW2 7499   3.176   0.387   3.048  0.0224 -0.1244 -0.2148
 1857SOL    HW3 7500   3.027   0.410   3.031 -0.0932 -1.1394 -0.6040
 1857SOL    MW4 7501   3.093   0.363   3.064  0.1388 -0.4098 -0.0181
 1858SOL     OW 7502   3.338   0.483   3.029  0.0314  0.2569  0.0361
 1858SOL    HW2 7503   3.420   0.455   3.070 -0.1989 -0.1920  0.1794
 1858SOL    HW3 7504   3.363   0.502   2.938  0.3213  0.2554  0.1144
 1858SOL    MW4 7505   3.352   0.482   3.022  0.0391  0.1975  0.0653
 1859SOL     OW 7506   3.344   0.752   3.132 -0.2190 -0.0471  0.5980
 1859SOL    HW2 7507   3.336   0.765   3.226 -1.9775  0.2224  0.4133
 1859SOL    HW3 7508   3.323   0.660   3.118  2.1152 -0.6275  0.6933
 1859SOL    MW4 7509   3.340   0.742   3.142 -0.1431 -0.0880  0.5860
 1860SOL     OW 7510   3.153   0.903   3.015 -0.0329  0.0173 -0.1837
 1860SOL    HW2 7511   3.218   0.849   3.060 -0.0502 -1.8894 -2.3642
 1860SOL    HW3 7512   3.069   0.864   3.040 -0.2027  0.6656  0.2880
 1860SOL    MW4 7513   3.150   0.891   3.024 -0.0575 -0.1488 -0.4089
 1861SOL     OW 7514   3.138   1.183   3.101 -0.1631  0.2592 -0.1417
 1861SOL    HW2 7515   3.217   1.225   3.069  0.0710 -0.1211 -0.0688
 1861SOL    HW3 7516   3.144   1.093   3.069  0.8981 -0.6117  2.3624
 1861SOL    MW4 7517   3.149   1.177   3.093  0.0079  0.0943  0.1984
 1862SOL     OW 7518   3.367   1.324   3.026  0.3062  0.0390  0.3472
 1862SOL    HW2 7519   3.442   1.276   3.061  0.0853  0.0600  0.8622
 1862SOL    HW3 7520   3.354   1.396   3.087  1.1291  1.2349 -0.8694
 1862SOL    MW4 7521   3.375   1.327   3.039  0.3858  0.1996  0.2549
 1863SOL     OW 7522   3.340   1.574   3.163  0.3001  0.1198  0.0381
 1863SOL    HW2 7523   3.351   1.556   3.256  0.0262 -0.4970 -0.0448
 1863SOL    HW3 7524   3.424   1.611   3.136  0.3274  0.4529  0.5616
 1863SOL    MW4 7525   3.352   1.576   3.172  0.2675  0.0824  0.0961
 1864SOL     OW 7526   3.122   1.674   3.001  0.1671 -0.1047  0.1331
 1864SOL    HW2 7527   3.200   1.638   3.045  0.1646 -0.5283 -0.2145
 1864SOL    HW3 7528   3.133   1.650   2.909  0.6044  1.5315 -0.2651
 1864SOL    MW4 7529   3.134   1.666   2.995  0.2246  0.0552  0.0348
 1865SOL     OW 7530   3.116   1.932   3.093  0.3295  0.1133  0.1325
 1865SOL    HW2 7531   3.117   1.842   3.059 -0.0471  0.0415  0.3147
 1865SOL    HW3 7532   3.030   1.966   3.071 -0.3231 -0.2987  1.9682
 1865SOL    MW4 7533   3.105   1.925   3.085  0.1938  0.0495  0.3991
 1866SOL     OW 7534   3.352   2.066   2.970  0.1025  0.0684 -0.4678
 1866SOL    HW2 7535   3.422   2.004   2.990  0.7243  1.1345  0.6595
 1866SOL    HW3 7536   3.276   2.032   3.018  0.6040  0.5253  0.6555
 1866SOL    MW4 7537   3.351   2.053   2.979  0.2508  0.2692 -0.1707
 1867SOL     OW 7538   3.384   2.342   3.067  0.3308 -0.2938 -0.0429
 1867SOL    HW2 7539   3.393   2.341   3.162 -1.4866  0.0128  0.1568
 1867SOL    HW3 7540   3.386   2.250   3.042 -0.0406 -0.4241  0.3959
 1867SOL    MW4 7541   3.385   2.330   3.076  0.0420 -0.2704  0.0412
 1868SOL     OW 7542   3.124   2.402   2.997 -0.0608 -0.0320  0.4569
 1868SOL    HW2 7543   3.201   2.349   3.016 -1.7172 -2.3589  0.9809
 1868SOL    HW3 7544   3.138   2.433   2.908  1.0184 -1.3167  0.1599
 1868SOL    MW4 7545   3.136   2.399   2.988 -0.1369 -0.5088  0.4871
 1869SOL     OW 7546   3.164   2.676   3.090  0.4179  0.4064  0.6093
 1869SOL    HW2 7547   3.140   2.667   3.182 -0.5817  0.6357  0.3836
 1869SOL    HW3 7548   3.155   2.587   3.054  0.8140  0.3161  0.7406
 1869SOL    MW4 7549   3.159   2.663   3.097  0.3381  0.4246  0.5965
 1870SOL     OW 7550   3.366   2.831   2.968 -0.3275 -0.2661 -0.3542
 1870SOL    HW2 7551   3.361   2.916   3.013 -0.3119 -1.6811  2.4648
 1870SOL    HW3 7552   3.297   2.779   3.009  0.6841 -2.1027 -0.9696
 1870SOL    MW4 7553   3.356   2.836   2.980 -0.1922 -0.6952 -0.0632
 1871SOL     OW 7554   3.352   3.085   3.076 -0.0975  0.0193 -0.0028
 1871SOL    HW2 7555   3.363   3.068   3.170  1.9112  0.9519 -0.0257
 1871SOL    HW3 7556   3.270   3.133   3.070 -0.2803 -0.1032  1.2847
 1871SOL    MW4 7557   3.343   3.089   3.088  0.1435  0.1266  0.1640
 1872SOL     OW 7558   3.121   3.204   3.019  0.4941  0.2749  0.3211
 1872SOL    HW2 7559   3.036   3.164   3.034  0.8798 -1.1353 -1.2017
 1872SOL    HW3 7560   3.129   3.212   2.924  1.7506  1.0796  0.4725
 1872SOL    MW4 7561   3.111   3.200   3.009  0.7110  0.1950  0.1404
 1873SOL     OW 7562   3.123   3.443   3.136 -0.1134 -0.1980  0.1112
 1873SOL    HW2 7563   3.199   3.495   3.109  0.3706 -0.2036  1.4031
 1873SOL    HW3 7564   3.137   3.357   3.097 -0.2435  0.2524 -0.9382
 1873SOL    MW4 7565   3.135   3.439   3.127 -0.0665 -0.1390  0.1433
 1874SOL     OW 7566   3.345   3.562   2.999 -0.4890 -0.0813 -0.3212
 1874SOL    HW2 7567   3.433   3.542   3.031 -0.5493  0.1038 -0.0394
 1874SOL    HW3 7568   3.336   3.656   3.011 -0.6495 -0.0681 -0.5445
 1874SOL    MW4 7569   3.356   3.571   3.004 -0.5183 -0.0551 -0.3135
 1875SOL     OW 7570   3.378   3.842   3.077  0.1684 -0.1127 -0.1625
 1875SOL    HW2 7571   3.385   3.824   3.171  2.2953 -0.7298 -0.4197
 1875SOL    HW3 7572   3.290   3.878   3.067 -0.5437 -1.1553  1.8885
 1875SOL    MW4 7573   3.367   3.844   3.088  0.3550 -0.3316  0.0744
 1876SOL     OW 7574   3.107   3.943   3.049 -0.0394 -0.0689 -0.2901
 1876SOL    HW2 7575   3.029   3.895   3.077 -0.3851 -0.0009 -1.1182
 1876SOL    HW3 7576   3.097   3.951   2.954  0.9781 -0.0575 -0.4002
 1876SOL    MW4 7577   3.096   3.938   3.040  0.0494 -0.0582 -0.4139
 1877SOL     OW 7578   3.116   4.245   3.078  0.0905 -0.3628 -0.4357
 1877SOL    HW2 7579   3.113   4.264   3.172  0.1067 -0.4822 -0.4107
 1877SOL    HW3 7580   3.111   4.149   3.073  1.3094 -0.4263 -0.5023
 1877SOL    MW4 7581   3.115   4.235   3.090  0.2534 -0.3877 -0.4413
 1878SOL     OW 7582   3.343   4.353   2.977 -0.3056 -0.2616  0.0336
 1878SOL    HW2 7583   3.422   4.322   3.022  0.3579  0.2141 -0.7887
 1878SOL    HW3 7584   3.272   4.305   3.019  0.4222 -0.7224  0.7683
 1878SOL    MW4 7585   3.344   4.342   2.988 -0.1218 -0.2604  0.0222
 1879SOL     OW 7586   3.796   4.644   3.083 -0.5117  0.5780  0.2066
 1879SOL    HW2 7587   3.804   4.559   3.040  0.9201  1.0219 -0.4305
 1879SOL    HW3 7588   3.708   4.674   3.061  0.0936  0.6684 -2.2010
 1879SOL    MW4 7589   3.786   4.636   3.074 -0.2429  0.6485 -0.1953
 1880SOL     OW 7590   3.552   0.083   2.978 -0.5679 -0.2737  0.0672
 1880SOL    HW2 7591   3.557   0.173   3.010  1.8284 -0.3003 -0.1909
 1880SOL    HW3 7592   3.568   0.090   2.884 -0.4473 -0.9729  0.0319
 1880SOL    MW4 7593   3.555   0.096   2.969 -0.2358 -0.3695  0.0281
 1881SOL     OW 7594   3.559   0.351   3.096  0.4223 -0.5892  0.1633
 1881SOL    HW2 7595   3.552   0.363   3.191 -0.2187  1.4939 -0.1154
 1881SOL    HW3 7596   3.642   0.392   3.073  0.6239 -1.1799 -0.1771
 1881SOL    MW4 7597   3.569   0.358   3.105  0.3643 -0.3923  0.0818
 1882SOL     OW 7598   3.797   0.495   3.039 -0.0678 -0.2267  0.0654
 1882SOL    HW2 7599   3.874   0.450   3.076 -0.7427 -1.1657  0.3566
 1882SOL    HW3 7600   3.804   0.584   3.071 -0.4398 -0.9369  2.1791
 1882SOL    MW4 7601   3.808   0.501   3.048 -0.2060 -0.4443  0.3827
 1883SOL     OW 7602   3.771   0.757   3.096  0.2761  0.1163  0.3332
 1883SOL    HW2 7603   3.765   0.759   3.192 -0.8668  0.8858  0.2540
 1883SOL    HW3 7604   3.849   0.809   3.077  0.1843  0.4495  0.8301
 1883SOL    MW4 7605   3.781   0.764   3.106  0.1130  0.2618  0.3884
 1884SOL     OW 7606   3.551   0.956   3.058  0.2398 -0.5443  0.0916
 1884SOL    HW2 7607   3.614   0.887   3.079 -1.0821 -1.7965 -0.0148
 1884SOL    HW3 7608   3.467   0.921   3.087 -0.5786  0.6510 -0.8180
 1884SOL    MW4 7609   3.548   0.943   3.065 -0.0427 -0.5518 -0.0427
 1885SOL     OW 7610   3.602   1.218   3.140 -0.4003 -0.0838 -0.1455
 1885SOL    HW2 7611   3.688   1.246   3.109  0.0362 -0.6286  0.5517
 1885SOL    HW3 7612   3.598   1.124   3.121 -0.9832  0.0085 -0.4969
 1885SOL    MW4 7613   3.612   1.209   3.134 -0.4196 -0.1435 -0.0997
 1886SOL     OW 7614   3.855   1.343   3.089 -0.1464  0.3590 -0.0109
 1886SOL    HW2 7615   3.857   1.432   3.123  2.2365 -0.0210  0.9233
 1886SOL    HW3 7616   3.851   1.354   2.994  1.4161  1.4685  0.0418
 1886SOL    MW4 7617   3.855   1.356   3.081  0.3741  0.4551  0.1194
 1887SOL     OW 7618   3.815   1.607   3.170  0.2958 -0.3161 -0.1140
 1887SOL    HW2 7619   3.808   1.602   3.265  0.2279 -1.6344 -0.1893
 1887SOL    HW3 7620   3.730   1.642   3.142  0.7683  1.3192  0.3877
 1887SOL    MW4 7621   3.803   1.611   3.179  0.3490 -0.2742 -0.0579
 1888SOL     OW 7622   3.576   1.665   3.043 -0.0793  0.2409  0.2537
 1888SOL    HW2 7623   3.568   1.757   3.070  0.2937  0.6237 -0.9299
 1888SOL    HW3 7624   3.589   1.669   2.949 -0.9955 -1.0750  0.0579
 1888SOL    MW4 7625   3.577   1.678   3.034 -0.1512  0.1179  0.0720
 1889SOL     OW 7626   3.589   1.950   3.100  0.3152  0.2274 -0.2877
 1889SOL    HW2 7627   3.586   1.938   3.195 -1.2640 -0.2876 -0.3918
 1889SOL    HW3 7628   3.680   1.973   3.081  0.4818  0.9842  1.4225
 1889SOL    MW4 7629   3.601   1.951   3.110  0.1287  0.2594 -0.0756
 1890SOL     OW 7630   3.829   2.044   3.036  0.2175 -0.4684  0.1020
 1890SOL    HW2 7631   3.812   2.133   3.066  0.7886 -0.2386 -0.2498
 1890SOL    HW3 7632   3.848   2.053   2.943 -2.4532 -1.2810 -0.5846
 1890SOL    MW4 7633   3.829   2.057   3.028 -0.0596 -0.5455 -0.0350
 1891SOL     OW 7634   3.841   2.315   3.109  0.0970 -0.1211  0.1657
 1891SOL    HW2 7635   3.833   2.334   3.203 -0.0682 -0.9359  0.3185
 1891SOL    HW3 7636   3.767   2.362   3.070  0.1390  0.1842  0.4479
 1891SOL    MW4 7637   3.830   2.324   3.116  0.0806 -0.1881  0.2232
 1892SOL     OW 7638   3.638   2.456   2.982  0.0854 -0.0338  0.5193
 1892SOL    HW2 7639   3.643   2.537   3.034  0.3005 -0.1131  0.6241
 1892SOL    HW3 7640   3.553   2.418   3.005 -0.1795  0.3572  0.1781
 1892SOL    MW4 7641   3.628   2.462   2.992  0.0787  0.0072  0.4880
 1893SOL     OW 7642   3.563   2.723   3.118  0.0307 -0.1410 -0.6028
 1893SOL    HW2 7643   3.635   2.782   3.098  1.0450 -0.8426  0.8190
 1893SOL    HW3 7644   3.488   2.759   3.072  0.6892  2.1001  0.0089
 1893SOL    MW4 7645   3.563   2.735   3.110  0.2518  0.0620 -0.3345
 1894SOL     OW 7646   3.789   2.877   3.039  0.7891 -0.4295  0.0027
 1894SOL    HW2 7647   3.789   2.970   3.059 -1.1419 -0.4673  0.2841
 1894SOL    HW3 7648   3.806   2.872   2.945 -1.2346  0.3500 -0.4419
 1894SOL    MW4 7649   3.791   2.888   3.029  0.2673 -0.3319 -0.0186
 1895SOL     OW 7650   3.832   3.135   3.148 -0.1983  0.5946  0.4416
 1895SOL    HW2 7651   3.902   3.172   3.095 -0.6444  0.4816 -0.2371
 1895SOL    HW3 7652   3.752   3.177   3.115 -0.5427  0.1034  0.6417
 1895SOL    MW4 7653   3.830   3.146   3.137 -0.3023  0.5147  0.3784
 1896SOL     OW 7654   3.602   3.228   3.029  0.2791 -0.3080  0.2255
 1896SOL    HW2 7655   3.518   3.184   3.038 -0.4008  1.3218  2.0948
 1896SOL    HW3 7656   3.612   3.241   2.934 -1.2813 -1.0092 -0.0475
 1896SOL    MW4 7657   3.592   3.224   3.017 -0.0167 -0.1855  0.4363
 1897SOL     OW 7658   3.591   3.481   3.126  0.1764 -0.0673 -0.0550
 1897SOL    HW2 7659   3.671   3.523   3.095  0.8057 -0.1470  1.4332
 1897SOL    HW3 7660   3.598   3.390   3.097 -0.3767  0.4015 -1.7554
 1897SOL    MW4 7661   3.602   3.475   3.118  0.1867 -0.0160 -0.0830
 1898SOL     OW 7662   3.841   3.572   3.030 -0.1341 -0.0489  0.1261
 1898SOL    HW2 7663   3.830   3.666   3.044 -2.0252 -0.2313 -0.0716
 1898SOL    HW3 7664   3.851   3.563   2.935  1.8149  0.1092  0.2976
 1898SOL    MW4 7665   3.841   3.584   3.019 -0.1264 -0.0522  0.1225
 1899SOL     OW 7666   3.811   3.843   3.088 -0.1911  0.1185  0.0285
 1899SOL    HW2 7667   3.808   3.856   3.183 -1.7380 -0.9166  0.1378
 1899SOL    HW3 7668   3.738   3.895   3.055  1.6001  2.1532 -0.8310
 1899SOL    MW4 7669   3.801   3.852   3.097 -0.1588  0.2501 -0.0708
 1900SOL     OW 7670   3.591   4.030   3.031  0.7004 -0.6986 -0.0959
 1900SOL    HW2 7671   3.518   3.969   3.042  0.6874 -0.6248  0.2247
 1900SOL    HW3 7672   3.596   4.044   2.936  1.7310 -2.4437 -0.3172
 1900SOL    MW4 7673   3.582   4.024   3.020  0.8345 -0.9189 -0.0827
 1901SOL     OW 7674   3.598   4.294   3.071  0.2566 -0.1865 -0.0702
 1901SOL    HW2 7675   3.679   4.324   3.030  0.2840 -0.9688 -0.6022
 1901SOL    HW3 7676   3.605   4.199   3.071  0.2846 -0.2118  1.8308
 1901SOL    MW4 7677   3.610   4.285   3.066  0.2642 -0.2933  0.1106
 1902SOL     OW 7678   3.832   4.399   2.955  0.1420  0.0457 -0.3459
 1902SOL    HW2 7679   3.905   4.346   2.988 -0.1785 -0.7790 -0.9605
 1902SOL    HW3 7680   3.851   4.411   2.862  0.0436  0.7310 -0.2753
 1902SOL    MW4 7681   3.844   4.393   2.947  0.0865  0.0277 -0.4179
 1903SOL     OW 7682   4.198   0.011   3.144  0.0053 -0.4067 -0.1693
 1903SOL    HW2 7683   4.183   0.013   3.238 -0.9664 -1.1418 -0.3015
 1903SOL    HW3 7684   4.200  -0.082   3.122 -1.8566 -0.2178 -1.1872
 1903SOL    MW4 7685   4.196  -0.001   3.153 -0.3681 -0.4787 -0.3211
 1904SOL     OW 7686   4.010   0.135   2.987  0.3985  0.1854  0.2935
 1904SOL    HW2 7687   4.081   0.104   3.044 -0.3915 -1.4198  0.4096
 1904SOL    HW3 7688   3.935   0.081   3.010 -0.4187  0.7362 -1.0369
 1904SOL    MW4 7689   4.010   0.124   2.998  0.1864  0.0463  0.1333
 1905SOL     OW 7690   4.009   0.361   3.166 -0.0913 -0.0929  0.2828
 1905SOL    HW2 7691   4.074   0.419   3.127 -0.8620  1.3696  1.1280
 1905SOL    HW3 7692   4.007   0.285   3.107 -1.3856  2.1423 -2.7178
 1905SOL    MW4 7693   4.017   0.359   3.153 -0.3633  0.3950 -0.0017
 1906SOL     OW 7694   4.216   0.491   3.060 -0.1411  0.5411 -0.6443
 1906SOL    HW2 7695   4.202   0.584   3.079  0.2630  0.3609  0.5627
 1906SOL    HW3 7696   4.232   0.488   2.966 -0.6140  1.6402 -0.7699
 1906SOL    MW4 7697   4.216   0.503   3.050 -0.1497  0.6623 -0.5019
 1907SOL     OW 7698   4.215   0.769   3.134 -0.4066  0.1183  0.0330
 1907SOL    HW2 7699   4.146   0.823   3.096 -0.8672 -0.7803 -0.4178
 1907SOL    HW3 7700   4.296   0.818   3.118 -0.9543  1.2440  0.6919
 1907SOL    MW4 7701   4.217   0.782   3.127 -0.5398  0.1482  0.0603
 1908SOL     OW 7702   4.013   0.910   3.033  0.7159 -0.0908 -0.2661
 1908SOL    HW2 7703   4.010   0.990   3.085 -0.8249  0.4908 -1.2244
 1908SOL    HW3 7704   4.026   0.940   2.943 -1.5597 -0.7811 -0.8667
 1908SOL    MW4 7705   4.014   0.925   3.028  0.2117 -0.1052 -0.4716
 1909SOL     OW 7706   4.042   1.148   3.180  0.1304  0.3002  0.2946
 1909SOL    HW2 7707   4.045   1.174   3.273 -0.3877  0.3541  0.2964
 1909SOL    HW3 7708   3.974   1.203   3.142  0.9746  0.9317 -0.3269
 1909SOL    MW4 7709   4.034   1.159   3.188  0.1736  0.3905  0.2129
 1910SOL     OW 7710   4.287   1.317   3.054  0.7152  0.2886  0.4623
 1910SOL    HW2 7711   4.203   1.285   3.088  0.9997 -0.6015  0.3339
 1910SOL    HW3 7712   4.283   1.297   2.961  1.6844 -1.1360  0.7063
 1910SOL    MW4 7713   4.275   1.310   3.046  0.8807 -0.0167  0.4776
 1911SOL     OW 7714   4.278   1.584   3.095  0.0391  0.5557  0.0285
 1911SOL    HW2 7715   4.197   1.629   3.070 -1.1185 -0.6782  1.4611
 1911SOL    HW3 7716   4.261   1.492   3.077  0.9361  0.2293  0.8223
 1911SOL    MW4 7717   4.265   1.578   3.089  0.0048  0.3499  0.3223
 1912SOL     OW 7718   4.046   1.699   3.038  0.1262  0.2795  0.2897
 1912SOL    HW2 7719   4.058   1.788   3.071  0.2893  0.6245 -0.6746
 1912SOL    HW3 7720   3.965   1.668   3.080 -0.6742  1.3808 -0.4072
 1912SOL    MW4 7721   4.037   1.707   3.048  0.0420  0.4705  0.0708
 1913SOL     OW 7722   4.065   1.944   3.149 -0.3897 -0.0453  0.5159
 1913SOL    HW2 7723   4.139   1.988   3.107  0.6636  0.5448  2.9067
 1913SOL    HW3 7724   3.991   2.003   3.135  0.0747  0.4259  0.0175
 1913SOL    MW4 7725   4.065   1.958   3.141 -0.1893  0.0947  0.7656
 1914SOL     OW 7726   4.279   2.067   3.005  0.2764  0.5053  0.0847
 1914SOL    HW2 7727   4.281   2.158   3.035  1.4778  0.5744 -0.1598
 1914SOL    HW3 7728   4.267   2.073   2.911 -0.8775  0.3668  0.2168
 1914SOL    MW4 7729   4.278   2.080   2.997  0.2828  0.4964  0.0699
 1915SOL     OW 7730   4.270   2.316   3.121 -0.1996 -0.0340  0.0394
 1915SOL    HW2 7731   4.199   2.373   3.092 -0.1853  0.5191  1.0906
 1915SOL    HW3 7732   4.349   2.356   3.087 -0.3220 -0.2194 -0.4622
 1915SOL    MW4 7733   4.271   2.328   3.113 -0.2141  0.0148  0.1118
 1916SOL     OW 7734   4.056   2.459   3.042 -0.2533  0.0325  0.4531
 1916SOL    HW2 7735   4.038   2.551   3.062  0.9516  0.4471 -0.2683
 1916SOL    HW3 7736   3.981   2.411   3.077 -0.6632  1.2437  1.2615
 1916SOL    MW4 7737   4.044   2.465   3.049 -0.1483  0.2470  0.4644
 1917SOL     OW 7738   3.975   2.701   3.122  0.0695 -0.3636  0.0327
 1917SOL    HW2 7739   3.999   2.700   3.214  0.5099  0.3025 -0.0733
 1917SOL    HW3 7740   3.912   2.772   3.114 -0.7174 -1.0485 -0.0021
 1917SOL    MW4 7741   3.970   2.710   3.133  0.0238 -0.3662  0.0141
 1918SOL     OW 7742   4.183   2.825   2.998 -0.1468 -0.2184 -0.3876
 1918SOL    HW2 7743   4.101   2.790   3.032 -0.3126  1.1662  0.6905
 1918SOL    HW3 7744   4.251   2.772   3.040 -0.4020  0.5573  1.0671
 1918SOL    MW4 7745   4.181   2.814   3.008 -0.2027  0.0665 -0.0534
 1919SOL     OW 7746   4.268   3.075   3.102  0.2736 -0.3511  0.1032
 1919SOL    HW2 7747   4.195   3.134   3.085  0.6890  0.2406  0.3537
 1919SOL    HW3 7748   4.236   2.989   3.074 -0.8639 -0.2685  1.1064
 1919SOL    MW4 7749   4.254   3.072   3.096  0.1783 -0.2623  0.2687
 1920SOL     OW 7750   4.053   3.241   3.014  0.1091  0.0309  0.2329
 1920SOL    HW2 7751   4.083   3.329   3.039  0.3553  0.1234 -0.3922
 1920SOL    HW3 7752   4.080   3.231   2.923  0.4405 -0.8494  0.4218
 1920SOL    MW4 7753   4.060   3.251   3.006  0.1855 -0.0730  0.1755
 1921SOL     OW 7754   4.107   3.501   3.107  0.6442  0.1956  0.1951
 1921SOL    HW2 7755   4.098   3.512   3.202 -1.2719  1.4433 -0.0903
 1921SOL    HW3 7756   4.022   3.527   3.072  1.1309 -0.8375 -1.8357
 1921SOL    MW4 7757   4.095   3.506   3.115  0.4559  0.2241 -0.1106
 1922SOL     OW 7758   4.334   3.641   3.006  0.0154 -0.1232 -0.0613
 1922SOL    HW2 7759   4.331   3.729   3.044  1.8952 -1.0366  2.2776
 1922SOL    HW3 7760   4.268   3.592   3.054 -0.2012 -0.3241 -0.5587
 1922SOL    MW4 7761   4.325   3.646   3.017  0.2351 -0.2704  0.1817
 1923SOL     OW 7762   4.279   3.890   3.118  0.3457  0.4579  0.0348
 1923SOL    HW2 7763   4.200   3.928   3.080  1.2447  0.2011 -2.1980
 1923SOL    HW3 7764   4.348   3.954   3.101  1.5077 -1.2708 -2.1452
 1923SOL    MW4 7765   4.278   3.903   3.110  0.6175  0.1957 -0.5476
 1924SOL     OW 7766   4.040   3.991   3.005 -0.3035  0.0671 -0.2793
 1924SOL    HW2 7767   4.037   4.083   3.031  0.6536 -0.3800  1.5372
 1924SOL    HW3 7768   3.966   3.950   3.050  1.1471 -0.6426  1.5459
 1924SOL    MW4 7769   4.030   3.997   3.014  0.0148 -0.0856  0.2012
 1925SOL     OW 7770   4.012   4.254   3.118 -0.0071  0.3359 -0.2280
 1925SOL    HW2 7771   4.003   4.232   3.211 -0.6953  1.0491 -0.1242
 1925SOL    HW3 7772   4.098   4.296   3.111 -0.0159  0.4118  0.1097
 1925SOL    MW4 7773   4.022   4.256   3.129 -0.0987  0.4401 -0.1695
 1926SOL     OW 7774   4.228   4.413   3.052 -0.4555  0.1845 -0.0326
 1926SOL    HW2 7775   4.310   4.379   3.088 -0.8585 -1.2682 -0.4630
 1926SOL    HW3 7776   4.234   4.397   2.958 -0.7818  1.0515 -0.2095
 1926SOL    MW4 7777   4.239   4.406   3.045 -0.5517  0.1073 -0.1130
 1927SOL     OW 7778   0.214   4.645   3.433  0.0081  0.3219  0.2487
 1927SOL    HW2 7779   0.301   4.684   3.441  0.4391 -0.0638 -2.2737
 1927SOL    HW3 7780   0.217   4.568   3.489  0.3898  1.7765  2.2922
 1927SOL    MW4 7781   0.226   4.640   3.442  0.1153  0.4630  0.1857
 1928SOL     OW 7782   4.482   0.130   3.517  0.1382 -0.2468 -0.5661
 1928SOL    HW2 7783   4.491   0.206   3.459 -0.4673 -0.3665 -0.8274
 1928SOL    HW3 7784   4.564   0.082   3.507  0.5825  0.4408 -0.2966
 1928SOL    MW4 7785   4.494   0.134   3.508  0.1168 -0.1719 -0.5651
 1929SOL     OW 7786   4.466   0.393   3.418 -0.1286 -0.1158 -0.1947
 1929SOL    HW2 7787   4.392   0.444   3.452  0.1188 -0.5764  1.0698
 1929SOL    HW3 7788   4.543   0.445   3.442  0.0145 -0.0683 -0.7449
 1929SOL    MW4 7789   4.466   0.407   3.426 -0.0777 -0.1703 -0.1001
 1930SOL     OW 7790   0.195   0.525   3.524  0.0085  0.2827 -0.1549
 1930SOL    HW2 7791   0.261   0.463   3.492 -1.8108 -0.6417 -2.2087
 1930SOL    HW3 7792   0.207   0.603   3.469  0.1089  0.5284  0.2128
 1930SOL    MW4 7793   0.205   0.527   3.512 -0.2183  0.1932 -0.3774
 1931SOL     OW 7794   0.232   0.759   3.400  0.3939  0.4774  0.1932
 1931SOL    HW2 7795   0.303   0.798   3.451  0.3807 -0.9182  1.2830
 1931SOL    HW3 7796   0.156   0.814   3.419  0.6428  0.6119  0.8022
 1931SOL    MW4 7797   0.231   0.772   3.409  0.4250  0.3110  0.4175
 1932SOL     OW 7798   4.485   0.885   3.493 -0.1705 -0.0138  0.1393
 1932SOL    HW2 7799   4.490   0.859   3.585 -0.8887  0.2149  0.2467
 1932SOL    HW3 7800   4.459   0.977   3.495  0.4380  0.1700 -0.2814
 1932SOL    MW4 7801   4.482   0.893   3.506 -0.1855  0.0405  0.0980
 1933SOL     OW 7802   0.010   1.160   3.442  0.4328  0.1086  0.4558
 1933SOL    HW2 7803   0.090   1.204   3.472  0.2002  0.0490  1.1743
 1933SOL    HW3 7804   0.013   1.167   3.346  0.4673  1.5929  0.5477
 1933SOL    MW4 7805   0.021   1.167   3.433  0.4063  0.2966  0.5629
 1934SOL     OW 7806   0.214   1.320   3.519  0.3106 -0.4327  0.3113
 1934SOL    HW2 7807   0.277   1.274   3.463  0.2377 -0.5121  0.2946
 1934SOL    HW3 7808   0.210   1.408   3.483 -0.5534 -0.7828 -0.4841
 1934SOL    MW4 7809   0.222   1.325   3.507  0.1869 -0.4894  0.2043
 1935SOL     OW 7810   0.218   1.578   3.400  0.0290  0.4736  0.5572
 1935SOL    HW2 7811   0.306   1.599   3.430  0.7852 -0.1890 -1.1537
 1935SOL    HW3 7812   0.227   1.566   3.306 -1.8377  0.0980  0.4099
 1935SOL    MW4 7813   0.231   1.579   3.392 -0.1175  0.3366  0.3116
 1936SOL     OW 7814   0.004   1.674   3.542 -0.0435  0.2258  0.5447
 1936SOL    HW2 7815  -0.070   1.630   3.498 -1.1918  1.7462  0.9307
 1936SOL    HW3 7816   0.081   1.643   3.494 -1.1031  0.2428 -1.2329
 1936SOL    MW4 7817   0.005   1.664   3.530 -0.3348  0.4287  0.3610
 1937SOL     OW 7818   4.449   1.921   3.414 -0.0318  0.1256 -0.4987
 1937SOL    HW2 7819   4.482   1.838   3.449  1.2461  0.5982 -0.5483
 1937SOL    HW3 7820   4.464   1.914   3.320 -0.6720  0.0830 -0.5960
 1937SOL    MW4 7821   4.456   1.909   3.406  0.0529  0.1824 -0.5183
 1938SOL     OW 7822   0.209   2.064   3.489  0.1368 -0.0874 -0.3275
 1938SOL    HW2 7823   0.213   2.063   3.585 -1.1937  0.0761 -0.2530
 1938SOL    HW3 7824   0.122   2.028   3.469  0.5377 -0.4207 -1.4831
 1938SOL    MW4 7825   0.198   2.059   3.499  0.0141 -0.1097 -0.4699
 1939SOL     OW 7826   0.221   2.329   3.391  0.4343  0.3387 -0.0093
 1939SOL    HW2 7827   0.138   2.373   3.406 -0.1985 -0.5412 -0.8642
 1939SOL    HW3 7828   0.212   2.244   3.435  1.0617  0.4319  0.3070
 1939SOL    MW4 7829   0.209   2.323   3.399  0.4336  0.2346 -0.0801
 1940SOL     OW 7830   4.475   2.436   3.459 -0.2278  0.5048  0.4239
 1940SOL    HW2 7831   4.480   2.457   3.553 -0.5421 -1.1173  0.8112
 1940SOL    HW3 7832   4.396   2.384   3.450 -0.2552  0.7414 -0.7810
 1940SOL    MW4 7833   4.466   2.432   3.470 -0.2732  0.3219  0.3161
 1941SOL     OW 7834   4.438   2.724   3.404 -0.1094  0.5229  0.4049
 1941SOL    HW2 7835   4.524   2.759   3.426 -0.5181  0.0962  2.7940
 1941SOL    HW3 7836   4.445   2.630   3.422 -1.0142  0.4470  0.3813
 1941SOL    MW4 7837   4.451   2.716   3.409 -0.2828  0.4568  0.7169
 1942SOL     OW 7838   0.206   2.808   3.481  0.2586  0.0758  0.3717
 1942SOL    HW2 7839   0.277   2.774   3.428  0.3156 -1.0333  1.1399
 1942SOL    HW3 7840   0.206   2.903   3.465 -0.5120 -0.3726 -2.5046
 1942SOL    MW4 7841   0.215   2.816   3.472  0.1644 -0.1297  0.0937
 1943SOL     OW 7842   0.200   3.089   3.455  0.0751 -0.0801 -0.4916
 1943SOL    HW2 7843   0.117   3.119   3.489 -0.3535  0.4475 -1.9753
 1943SOL    HW3 7844   0.193   3.100   3.360  1.9124  0.1943 -0.6187
 1943SOL    MW4 7845   0.188   3.094   3.447  0.2610  0.0255 -0.7043
 1944SOL     OW 7846   4.448   3.203   3.527  0.0841  0.1038  0.6232
 1944SOL    HW2 7847   4.378   3.165   3.473 -0.2879  0.1550  1.0628
 1944SOL    HW3 7848   4.460   3.291   3.491  1.3981 -0.6375 -0.8119
 1944SOL    MW4 7849   4.440   3.210   3.515  0.2089  0.0129  0.4919
 1945SOL     OW 7850   0.002   3.462   3.425  0.0447 -0.1220 -0.0093
 1945SOL    HW2 7851  -0.075   3.513   3.451  1.3387  1.8775  0.0171
 1945SOL    HW3 7852  -0.000   3.462   3.329 -0.1396 -0.3083 -0.0048
 1945SOL    MW4 7853  -0.008   3.469   3.416  0.1911  0.1173 -0.0050
 1946SOL     OW 7854   0.210   3.638   3.478 -0.4367 -0.4615 -0.4059
 1946SOL    HW2 7855   0.224   3.642   3.572  1.9910 -1.0798 -0.7083
 1946SOL    HW3 7856   0.138   3.576   3.466 -0.0856 -1.1378  0.9774
 1946SOL    MW4 7857   0.202   3.631   3.489 -0.0701 -0.6320 -0.2632
 1947SOL     OW 7858   0.238   3.910   3.396 -0.3997 -0.3380  0.4221
 1947SOL    HW2 7859   0.160   3.946   3.437 -0.5783 -0.8889  0.5724
 1947SOL    HW3 7860   0.236   3.817   3.419  0.1338 -0.4135  0.1674
 1947SOL    MW4 7861   0.228   3.902   3.405 -0.3529 -0.4208  0.4082
 1948SOL     OW 7862   0.002   4.007   3.473  0.0757  0.1627  0.2522
 1948SOL    HW2 7863   0.028   4.003   3.565 -2.0822  1.6004  0.9670
 1948SOL    HW3 7864  -0.010   4.100   3.456 -1.2880 -0.2285 -0.9722
 1948SOL    MW4 7865   0.004   4.019   3.483 -0.3889  0.3009  0.1850
 1949SOL     OW 7866   4.459   4.275   3.402 -0.3593  0.5966 -0.1489
 1949SOL    HW2 7867   4.387   4.317   3.449 -0.4875  0.2328 -0.0167
 1949SOL    HW3 7868   4.538   4.313   3.440 -0.4506 -0.1457  0.7985
 1949SOL    MW4 7869   4.460   4.286   3.413 -0.3881  0.4501 -0.0064
 1950SOL     OW 7870   0.163   4.378   3.542  0.1021  0.1950  0.5391
 1950SOL    HW2 7871   0.155   4.370   3.637  2.1875 -0.4920  0.6818
 1950SOL    HW3 7872   0.244   4.332   3.521 -1.3798 -1.4582 -1.8442
 1950SOL    MW4 7873   0.173   4.371   3.552  0.1817 -0.1140  0.2437
 1951SOL     OW 7874   0.669   4.660   3.373 -0.4506 -0.0694 -0.0988
 1951SOL    HW2 7875   0.746   4.709   3.403  0.6310 -1.0839 -1.1626
 1951SOL    HW3 7876   0.667   4.673   3.279 -2.2061  0.7961  0.0305
 1951SOL    MW4 7877   0.679   4.668   3.365 -0.5395 -0.0890 -0.2222
 1952SOL     OW 7878   0.444   0.128   3.490  0.0090 -0.0939  0.2705
 1952SOL    HW2 7879   0.460   0.124   3.585  1.1284  2.3472  0.2400
 1952SOL    HW3 7880   0.519   0.082   3.452 -0.1724 -0.6314  0.5623
 1952SOL    MW4 7881   0.456   0.122   3.498  0.1328  0.1572  0.3049
 1953SOL     OW 7882   0.405   0.388   3.418  0.6436 -0.2148  0.0169
 1953SOL    HW2 7883   0.486   0.426   3.452  1.3795 -0.2429 -1.6474
 1953SOL    HW3 7884   0.414   0.294   3.431  0.7843 -0.1997  0.0257
 1953SOL    MW4 7885   0.417   0.381   3.424  0.7593 -0.2165 -0.2017
 1954SOL     OW 7886   0.647   0.533   3.484 -0.0323  0.1078 -0.1117
 1954SOL    HW2 7887   0.641   0.541   3.579 -0.0459 -0.1844 -0.0867
 1954SOL    HW3 7888   0.725   0.480   3.469 -0.0964  0.0529 -0.2577
 1954SOL    MW4 7889   0.656   0.527   3.495 -0.0426  0.0620 -0.1278
 1955SOL     OW 7890   0.640   0.778   3.379  0.0914 -0.1636 -0.6054
 1955SOL    HW2 7891   0.567   0.815   3.429 -1.0636 -0.9711 -1.6529
 1955SOL    HW3 7892   0.660   0.696   3.424  1.6476  0.9643  0.8171
 1955SOL    MW4 7893   0.633   0.772   3.392  0.1444 -0.1213 -0.5560
 1956SOL     OW 7894   0.436   0.901   3.513  0.0811 -0.4722  0.0345
 1956SOL    HW2 7895   0.441   0.912   3.608  2.3827  0.4299 -0.1646
 1956SOL    HW3 7896   0.407   0.986   3.481  2.5611  0.2862 -0.2958
 1956SOL    MW4 7897   0.433   0.914   3.522  0.7120 -0.2531 -0.0355
 1957SOL     OW 7898   0.405   1.154   3.401  0.2104 -0.0094 -0.2280
 1957SOL    HW2 7899   0.482   1.207   3.422  0.4207 -0.0452 -0.9257
 1957SOL    HW3 7900   0.395   1.161   3.306 -0.0598 -0.8112 -0.2652
 1957SOL    MW4 7901   0.414   1.162   3.391  0.2024 -0.1199 -0.3250
 1958SOL     OW 7902   0.634   1.284   3.500  0.2759  0.3423  0.1785
 1958SOL    HW2 7903   0.713   1.232   3.485  0.5917  1.0207 -0.5377
 1958SOL    HW3 7904   0.657   1.372   3.470 -0.0725  1.0314  1.9091
 1958SOL    MW4 7905   0.648   1.288   3.494  0.2716  0.5227  0.3126
 1959SOL     OW 7906   0.665   1.536   3.386 -0.1056 -0.1389  0.1126
 1959SOL    HW2 7907   0.736   1.596   3.408  0.9748 -1.0174 -0.9233
 1959SOL    HW3 7908   0.589   1.571   3.432  0.5253  1.9810 -0.4181
 1959SOL    MW4 7909   0.664   1.549   3.395  0.1202  0.0248 -0.0939
 1960SOL     OW 7910   0.450   1.646   3.524 -0.3979 -0.2859  0.3540
 1960SOL    HW2 7911   0.451   1.648   3.619  1.1453  1.1150  0.3408
 1960SOL    HW3 7912   0.442   1.738   3.498  2.5094 -0.3080 -0.8316
 1960SOL    MW4 7913   0.449   1.658   3.533  0.1893 -0.1040  0.1957
 1961SOL     OW 7914   0.414   1.900   3.381 -0.1370  0.1492  0.4243
 1961SOL    HW2 7915   0.354   1.955   3.431  0.6425  1.1915  0.2339
 1961SOL    HW3 7916   0.398   1.924   3.289 -1.0086 -1.1945  0.1981
 1961SOL    MW4 7917   0.404   1.910   3.375 -0.1492  0.1094  0.3693
 1962SOL     OW 7918   0.678   1.974   3.446  0.4073  0.2732  0.3712
 1962SOL    HW2 7919   0.669   1.975   3.541 -0.8642  0.6372  0.2498
 1962SOL    HW3 7920   0.598   1.934   3.414 -0.0517  1.9463 -0.6448
 1962SOL    MW4 7921   0.667   1.969   3.455  0.1791  0.5419  0.2210
 1963SOL     OW 7922   0.663   2.244   3.390 -0.3283 -0.3368 -0.4068
 1963SOL    HW2 7923   0.742   2.280   3.429 -0.9464 -0.2968  0.8417
 1963SOL    HW3 7924   0.670   2.150   3.403 -0.5241 -0.3264 -0.2266
 1963SOL    MW4 7925   0.674   2.237   3.397 -0.4357 -0.3302 -0.2182
 1964SOL     OW 7926   0.477   2.405   3.516  0.1810  0.3788  0.2786
 1964SOL    HW2 7927   0.546   2.353   3.475  0.1135  0.3650  0.1812
 1964SOL    HW3 7928   0.396   2.374   3.474  0.0412 -0.1037  0.8959
 1964SOL    MW4 7929   0.475   2.394   3.505  0.1537  0.3133  0.3469
 1965SOL     OW 7930   0.457   2.670   3.408 -0.3013 -0.4918  0.2668
 1965SOL    HW2 7931   0.455   2.577   3.431 -0.0626 -1.0431 -1.8950
 1965SOL    HW3 7932   0.446   2.672   3.313 -0.7340  1.7167  0.3352
 1965SOL    MW4 7933   0.455   2.658   3.399 -0.3269 -0.2730 -0.0093
 1966SOL     OW 7934   0.664   2.827   3.486  0.5820 -0.1628  0.3036
 1966SOL    HW2 7935   0.739   2.779   3.450  0.5156  0.6966 -1.0308
 1966SOL    HW3 7936   0.588   2.773   3.462  0.7058 -0.6945  1.0759
 1966SOL    MW4 7937   0.664   2.813   3.478  0.5895 -0.1197  0.2294
 1967SOL     OW 7938   0.630   3.102   3.411 -0.2161 -0.3780 -0.0621
 1967SOL    HW2 7939   0.551   3.137   3.453  0.6061 -0.8738  1.9531
 1967SOL    HW3 7940   0.629   3.009   3.431  1.1158 -0.3068  0.4081
 1967SOL    MW4 7941   0.620   3.094   3.420  0.0681 -0.4339  0.2661
 1968SOL     OW 7942   0.422   3.234   3.514 -0.3524 -0.5493  0.2400
 1968SOL    HW2 7943   0.428   3.236   3.610  0.8239  0.2311  0.1625
 1968SOL    HW3 7944   0.341   3.188   3.496  0.8865 -3.3745  1.5899
 1968SOL    MW4 7945   0.412   3.228   3.524 -0.0337 -0.8190  0.4077
 1969SOL     OW 7946   0.457   3.500   3.417 -0.0509 -0.0468 -0.2857
 1969SOL    HW2 7947   0.448   3.412   3.455 -1.2540  0.1554 -0.0881
 1969SOL    HW3 7948   0.370   3.539   3.427  0.6770  1.4411  0.2953
 1969SOL    MW4 7949   0.444   3.494   3.423 -0.1136  0.1764 -0.1829
 1970SOL     OW 7950   0.672   3.650   3.531 -0.4057  0.0689 -0.1198
 1970SOL    HW2 7951   0.744   3.596   3.499 -0.3634 -0.6808  1.1910
 1970SOL    HW3 7952   0.593   3.599   3.510 -0.3354 -0.7749  1.5906
 1970SOL    MW4 7953   0.671   3.636   3.524 -0.3908 -0.1414  0.2789
 1971SOL     OW 7954   0.681   3.900   3.429 -0.4429 -0.1581  0.2535
 1971SOL    HW2 7955   0.601   3.941   3.461 -0.7247 -0.0526 -0.5732
 1971SOL    HW3 7956   0.676   3.810   3.461 -0.2431  0.2001  1.3288
 1971SOL    MW4 7957   0.670   3.894   3.438 -0.4537 -0.0968  0.2863
 1972SOL     OW 7958   0.457   4.010   3.547  0.3092  0.1438  0.5985
 1972SOL    HW2 7959   0.444   4.104   3.532 -1.1402 -0.1375  0.0269
 1972SOL    HW3 7960   0.387   3.968   3.497  0.2184 -1.1795  1.8209
 1972SOL    MW4 7961   0.446   4.017   3.539  0.1059 -0.0672  0.6843
 1973SOL     OW 7962   0.412   4.271   3.448  0.1143 -0.1703 -0.6034
 1973SOL    HW2 7963   0.472   4.344   3.461 -0.0625  0.0239 -0.8613
 1973SOL    HW3 7964   0.406   4.262   3.353  0.0387 -0.4386 -0.5737
 1973SOL    MW4 7965   0.419   4.279   3.437  0.0810 -0.1802 -0.6335
 1974SOL     OW 7966   0.625   4.424   3.513 -0.2266 -0.2341  0.1759
 1974SOL    HW2 7967   0.690   4.361   3.482 -0.0630  0.3688 -0.7257
 1974SOL    HW3 7968   0.642   4.503   3.462 -0.3553  0.5809  1.3832
 1974SOL    MW4 7969   0.636   4.426   3.502 -0.2220 -0.0467  0.2162
 1975SOL     OW 7970   1.094   4.651   3.398 -0.0571  0.3778  0.2233
 1975SOL    HW2 7971   1.162   4.713   3.424 -1.5162  1.5528  1.3364
 1975SOL    HW3 7972   1.083   4.665   3.304  0.8502  0.5521  0.1394
 1975SOL    MW4 7973   1.102   4.661   3.389 -0.1297  0.5560  0.3593
 1976SOL     OW 7974   0.869   0.129   3.487 -0.4118 -0.0301 -0.2017
 1976SOL    HW2 7975   0.871   0.118   3.582 -0.5223 -0.6243 -0.2679
 1976SOL    HW3 7976   0.947   0.082   3.456 -0.8660 -0.6109 -0.4793
 1976SOL    MW4 7977   0.880   0.121   3.495 -0.4864 -0.1852 -0.2472
 1977SOL     OW 7978   0.873   0.402   3.391 -0.3599  0.4578 -0.2833
 1977SOL    HW2 7979   0.955   0.426   3.436 -0.8706  2.1131 -0.1967
 1977SOL    HW3 7980   0.852   0.315   3.425  1.3877 -0.0108 -0.3445
 1977SOL    MW4 7981   0.881   0.394   3.402 -0.1967  0.6144 -0.2799
 1978SOL     OW 7982   1.103   0.500   3.518  0.0611 -0.3511  0.8159
 1978SOL    HW2 7983   1.089   0.518   3.611 -0.1787 -0.2821  0.7660
 1978SOL    HW3 7984   1.103   0.586   3.476  0.3867 -0.3678  0.7809
 1978SOL    MW4 7985   1.101   0.513   3.524  0.0724 -0.3442  0.8044
 1979SOL     OW 7986   1.106   0.753   3.417  0.2415  0.2640  0.8088
 1979SOL    HW2 7987   1.180   0.802   3.454  1.1515 -0.6967  0.2836
 1979SOL    HW3 7988   1.029   0.802   3.445  1.0818  1.3623  1.2535
 1979SOL    MW4 7989   1.106   0.766   3.425  0.4724  0.2822  0.7985
 1980SOL     OW 7990   0.874   0.884   3.490 -0.0823 -0.8327 -0.4825
 1980SOL    HW2 7991   0.887   0.973   3.457  2.5785 -1.0543 -0.1267
 1980SOL    HW3 7992   0.788   0.859   3.457 -0.4743  1.5284 -1.3572
 1980SOL    MW4 7993   0.864   0.893   3.481  0.2170 -0.5504 -0.5510
 1981SOL     OW 7994   0.865   1.159   3.422 -0.3451 -0.2889 -0.4734
 1981SOL    HW2 7995   0.939   1.220   3.419 -3.1030  3.1174 -1.8247
 1981SOL    HW3 7996   0.842   1.145   3.330 -0.9615 -1.8485 -0.0865
 1981SOL    MW4 7997   0.872   1.165   3.410 -0.7902 -0.0452 -0.6006
 1982SOL     OW 7998   1.109   1.293   3.456  0.1020  0.5016  0.6179
 1982SOL    HW2 7999   1.116   1.297   3.551 -1.4198 -0.4276  0.7926
 1982SOL    HW3 8000   1.105   1.385   3.428  3.3446  0.8518  1.1819
 1982SOL    MW4 8001   1.109   1.306   3.465  0.3291  0.4252  0.7153
 1983SOL     OW 8002   1.093   1.558   3.402 -0.1933  0.1476 -0.1612
 1983SOL    HW2 8003   1.182   1.585   3.427  0.0033  0.1993 -0.9028
 1983SOL    HW3 8004   1.099   1.541   3.308 -0.7947 -0.5639 -0.0715
 1983SOL    MW4 8005   1.106   1.559   3.393 -0.2468  0.0607 -0.2472
 1984SOL     OW 8006   0.881   1.705   3.475  0.7083  0.2985 -0.4336
 1984SOL    HW2 8007   0.901   1.786   3.428  1.5307 -0.0233 -0.6542
 1984SOL    HW3 8008   0.961   1.653   3.467  0.6061 -0.0470  0.7290
 1984SOL    MW4 8009   0.894   1.709   3.468  0.8034  0.2103 -0.3092
 1985SOL     OW 8010   0.938   1.938   3.353  0.2781 -0.5432  0.0555
 1985SOL    HW2 8011   0.991   1.995   3.408  1.4989  2.2066 -3.7395
 1985SOL    HW3 8012   0.848   1.957   3.379  0.8243  0.6740  1.1125
 1985SOL    MW4 8013   0.933   1.948   3.364  0.5112 -0.0199 -0.3061
 1986SOL     OW 8014   1.083   2.058   3.536  0.0472 -0.2044 -0.0718
 1986SOL    HW2 8015   1.150   2.001   3.497 -0.0028  1.4255 -2.6252
 1986SOL    HW3 8016   1.110   2.147   3.514 -0.8274  0.7061  2.3482
 1986SOL    MW4 8017   1.095   2.062   3.528 -0.0747  0.1309 -0.0894
 1987SOL     OW 8018   1.109   2.305   3.418  0.0585 -0.1997 -0.0343
 1987SOL    HW2 8019   1.192   2.353   3.422 -0.8471  1.5221 -1.3593
 1987SOL    HW3 8020   1.095   2.290   3.325 -0.9021 -0.8634  0.2173
 1987SOL    MW4 8021   1.118   2.310   3.406 -0.1876 -0.0598 -0.1760
 1988SOL     OW 8022   0.870   2.389   3.494  0.0057 -0.1714 -0.2737
 1988SOL    HW2 8023   0.885   2.424   3.582  0.6088 -2.6111  0.6382
 1988SOL    HW3 8024   0.957   2.362   3.465 -0.4571 -0.9973 -0.8991
 1988SOL    MW4 8025   0.884   2.390   3.502  0.0241 -0.6022 -0.2358
 1989SOL     OW 8026   0.873   2.669   3.408 -0.5158 -0.7452 -0.0973
 1989SOL    HW2 8027   0.953   2.709   3.440 -1.4188  0.7268  0.3976
 1989SOL    HW3 8028   0.878   2.578   3.434  1.2467 -0.7935 -0.5694
 1989SOL    MW4 8029   0.884   2.662   3.415 -0.4023 -0.5572 -0.0942
 1990SOL     OW 8030   1.099   2.782   3.485 -0.2581  0.0592  0.2855
 1990SOL    HW2 8031   1.077   2.787   3.578 -0.5631  1.4413  0.1520
 1990SOL    HW3 8032   1.192   2.760   3.483 -0.3241 -0.2833  0.9168
 1990SOL    MW4 8033   1.108   2.780   3.497 -0.3071  0.1965  0.3510
 1991SOL     OW 8034   1.102   3.059   3.431 -0.3858  0.4015 -0.5993
 1991SOL    HW2 8035   1.102   2.963   3.440  2.8400  0.2556 -1.7702
 1991SOL    HW3 8036   1.121   3.074   3.339  0.4637  2.2018 -0.1400
 1991SOL    MW4 8037   1.104   3.048   3.420  0.1518  0.6201 -0.6933
 1992SOL     OW 8038   0.882   3.219   3.518 -0.6288 -0.0309 -0.1650
 1992SOL    HW2 8039   0.965   3.181   3.488  0.3732  0.9788  1.2817
 1992SOL    HW3 8040   0.815   3.174   3.466  0.8077 -0.9414 -1.2688
 1992SOL    MW4 8041   0.884   3.208   3.507 -0.3070 -0.0176 -0.1199
 1993SOL     OW 8042   0.868   3.464   3.430 -0.0253  0.0030 -0.0086
 1993SOL    HW2 8043   0.857   3.380   3.474 -3.9145  1.4614  2.0414
 1993SOL    HW3 8044   0.854   3.445   3.337 -1.4952 -1.5366  0.5063
 1993SOL    MW4 8045   0.865   3.450   3.423 -0.7323 -0.0076  0.3300
 1994SOL     OW 8046   1.125   3.581   3.508 -0.1726 -0.0879  0.5495
 1994SOL    HW2 8047   1.144   3.573   3.601 -1.3588  1.5141  0.9472
 1994SOL    HW3 8048   1.037   3.547   3.498 -0.7426  1.4225  0.3306
 1994SOL    MW4 8049   1.116   3.576   3.519 -0.4044  0.3226  0.5729
 1995SOL     OW 8050   1.122   3.847   3.398 -0.0885  0.4578 -0.2583
 1995SOL    HW2 8051   1.200   3.895   3.426 -0.4633 -0.1283  1.9070
 1995SOL    HW3 8052   1.131   3.761   3.438 -1.0632 -0.1580 -1.3369
 1995SOL    MW4 8053   1.133   3.842   3.407 -0.2666  0.2990 -0.1149
 1996SOL     OW 8054   0.925   4.021   3.489 -0.2925 -0.0176 -0.6730
 1996SOL    HW2 8055   0.991   3.957   3.463 -0.8249 -0.9052  0.0763
 1996SOL    HW3 8056   0.841   3.980   3.465 -0.6608  0.2045  0.1849
 1996SOL    MW4 8057   0.922   4.007   3.482 -0.4113 -0.1054 -0.4609
 1997SOL     OW 8058   0.843   4.273   3.436  0.4668  0.5998 -0.2892
 1997SOL    HW2 8059   0.873   4.187   3.464 -0.6881 -0.1928 -1.4126
 1997SOL    HW3 8060   0.833   4.265   3.341 -1.3091  1.4258 -0.1935
 1997SOL    MW4 8061   0.846   4.261   3.427  0.0800  0.6042 -0.4249
 1998SOL     OW 8062   1.108   4.357   3.446  0.0288  0.1381 -0.1750
 1998SOL    HW2 8063   1.018   4.325   3.448 -0.1992  0.7753  0.2368
 1998SOL    HW3 8064   1.100   4.451   3.428  0.6063  0.2001 -0.1353
 1998SOL    MW4 8065   1.095   4.365   3.444  0.0749  0.2303 -0.1156
 1999SOL     OW 8066   1.577   4.653   3.355  0.5918 -0.1066 -0.3061
 1999SOL    HW2 8067   1.561   4.561   3.378  1.7775  0.0743  1.2584
 1999SOL    HW3 8068   1.502   4.700   3.392  0.7831 -0.2384  0.2463
 1999SOL    MW4 8069   1.565   4.647   3.363  0.7735 -0.1001 -0.0267
 2000SOL     OW 8070   1.351   0.120   3.485  0.1408  0.4227  0.2890
 2000SOL    HW2 8071   1.333   0.123   3.579  1.1843  0.2932  0.4951
 2000SOL    HW3 8072   1.360   0.212   3.460 -0.4665  0.4723  0.2503
 2000SOL    MW4 8073   1.350   0.133   3.494  0.1984  0.4122  0.3111
 2001SOL     OW 8074   1.334   0.376   3.409  0.5354 -0.1549 -0.5373
 2001SOL    HW2 8075   1.412   0.421   3.441 -0.1633  0.3792  0.4585
 2001SOL    HW3 8076   1.262   0.419   3.455 -0.3434 -0.6268 -1.4680
 2001SOL    MW4 8077   1.335   0.388   3.419  0.3272 -0.1467 -0.5288
 2002SOL     OW 8078   1.558   0.503   3.518 -0.2960  0.2512  0.3580
 2002SOL    HW2 8079   1.573   0.521   3.611  0.1739  0.7177  0.1909
 2002SOL    HW3 8080   1.641   0.468   3.487 -0.4902 -0.0130  0.1354
 2002SOL    MW4 8081   1.571   0.501   3.527 -0.2596  0.2779  0.3068
 2003SOL     OW 8082   1.516   0.753   3.394 -0.5518  0.2285  0.1149
 2003SOL    HW2 8083   1.459   0.814   3.440  0.9076  0.9842  0.9853
 2003SOL    HW3 8084   1.516   0.674   3.448 -2.1513 -0.4140 -0.8170
 2003SOL    MW4 8085   1.509   0.750   3.407 -0.5703  0.2435  0.1066
 2004SOL     OW 8086   1.307   0.914   3.512 -0.1409  0.4983  0.0042
 2004SOL    HW2 8087   1.305   0.926   3.607 -1.4452 -0.0813  0.0572
 2004SOL    HW3 8088   1.319   1.003   3.477 -0.6671  0.8414  0.6806
 2004SOL    MW4 8089   1.308   0.928   3.520 -0.3824  0.4671  0.1004
 2005SOL     OW 8090   1.349   1.166   3.383 -0.2391 -0.7673  0.1430
 2005SOL    HW2 8091   1.412   1.223   3.427  1.3814 -1.4314 -1.2856
 2005SOL    HW3 8092   1.264   1.197   3.415  0.8113 -0.5537  2.9150
 2005SOL    MW4 8093   1.346   1.178   3.393  0.1132 -0.8267  0.3207
 2006SOL     OW 8094   1.532   1.319   3.520  0.0936  0.3770  0.0440
 2006SOL    HW2 8095   1.549   1.326   3.614  1.3407  1.0311 -0.2112
 2006SOL    HW3 8096   1.610   1.275   3.485 -0.5017 -0.1553 -0.6476
 2006SOL    MW4 8097   1.545   1.314   3.528  0.1796  0.3930 -0.0811
 2007SOL     OW 8098   1.583   1.546   3.398  0.2802  0.4691 -0.2163
 2007SOL    HW2 8099   1.562   1.466   3.446  0.7759 -0.7155 -1.9200
 2007SOL    HW3 8100   1.561   1.526   3.307  0.2650  2.3327 -0.6481
 2007SOL    MW4 8101   1.577   1.533   3.392  0.3436  0.5587 -0.4983
 2008SOL     OW 8102   1.349   1.645   3.491 -0.5491 -0.1217 -0.1001
 2008SOL    HW2 8103   1.355   1.631   3.585 -0.6819  0.8975  0.0694
 2008SOL    HW3 8104   1.432   1.613   3.456 -0.4675 -0.4334  0.3756
 2008SOL    MW4 8105   1.361   1.639   3.499 -0.5558 -0.0284 -0.0148
 2009SOL     OW 8106   1.303   1.907   3.435  0.4574 -0.0136  0.3986
 2009SOL    HW2 8107   1.382   1.954   3.461  0.7122 -0.3369  0.2045
 2009SOL    HW3 8108   1.317   1.817   3.466 -0.4566  0.2664  1.6643
 2009SOL    MW4 8109   1.315   1.901   3.443  0.3706 -0.0193  0.5403
 2010SOL     OW 8110   1.549   2.048   3.485  0.4107  0.4117 -0.1405
 2010SOL    HW2 8111   1.617   1.985   3.462 -0.8046 -0.3770 -1.6685
 2010SOL    HW3 8112   1.568   2.125   3.432  0.4368  0.3939 -0.1571
 2010SOL    MW4 8113   1.560   2.049   3.475  0.2538  0.3052 -0.3445
 2011SOL     OW 8114   1.576   2.304   3.365  0.7156  0.5734 -0.2179
 2011SOL    HW2 8115   1.506   2.341   3.419  0.1296 -0.2821 -0.3788
 2011SOL    HW3 8116   1.551   2.325   3.275  1.4723  1.6259 -0.1887
 2011SOL    MW4 8117   1.564   2.311   3.360  0.7380  0.5994 -0.2351
 2012SOL     OW 8118   1.350   2.421   3.489 -0.5640  0.4376  0.0172
 2012SOL    HW2 8119   1.351   2.429   3.584 -1.1983 -1.3819  0.1954
 2012SOL    HW3 8120   1.346   2.511   3.457 -1.1374  1.0268  1.7204
 2012SOL    MW4 8121   1.350   2.434   3.497 -0.7234  0.2751  0.2656
 2013SOL     OW 8122   1.361   2.683   3.404 -0.2858 -0.2131 -0.1110
 2013SOL    HW2 8123   1.428   2.745   3.433  0.0210 -0.5526 -0.0937
 2013SOL    HW3 8124   1.348   2.703   3.311  0.1669 -0.4525 -0.2246
 2013SOL    MW4 8125   1.368   2.694   3.396 -0.1855 -0.2897 -0.1235
 2014SOL     OW 8126   1.573   2.851   3.469  0.6094 -0.2597 -0.6533
 2014SOL    HW2 8127   1.636   2.801   3.417  0.4535  0.3300 -1.4151
 2014SOL    HW3 8128   1.556   2.930   3.417  1.9917  1.3172  1.2453
 2014SOL    MW4 8129   1.579   2.854   3.455  0.7713  0.0257 -0.5031
 2015SOL     OW 8130   1.492   3.115   3.364 -0.2051  0.2369  0.1609
 2015SOL    HW2 8131   1.566   3.153   3.411 -0.3026  0.9947 -0.2933
 2015SOL    HW3 8132   1.415   3.136   3.418 -0.5529  2.7632 -1.2830
 2015SOL    MW4 8133   1.491   3.122   3.377 -0.2638  0.6702 -0.0896
 2016SOL     OW 8134   1.298   3.216   3.544 -0.1572 -0.6007  0.0680
 2016SOL    HW2 8135   1.311   3.238   3.636  0.2304  1.0645 -0.3825
 2016SOL    HW3 8136   1.220   3.160   3.544 -0.9532  0.4709  1.2644
 2016SOL    MW4 8137   1.289   3.211   3.556 -0.2110 -0.2396  0.1664
 2017SOL     OW 8138   1.348   3.469   3.389 -0.0114  0.1843 -0.3403
 2017SOL    HW2 8139   1.340   3.378   3.418 -0.2559  0.1444 -0.5276
 2017SOL    HW3 8140   1.273   3.513   3.428 -0.1274  0.2137 -0.5981
 2017SOL    MW4 8141   1.337   3.463   3.398 -0.0589  0.1831 -0.3991
 2018SOL     OW 8142   1.585   3.622   3.455  0.6730 -0.2051 -0.2293
 2018SOL    HW2 8143   1.577   3.627   3.550  2.2595  0.7257 -0.1045
 2018SOL    HW3 8144   1.514   3.565   3.426 -1.0591  1.1229  1.3224
 2018SOL    MW4 8145   1.575   3.615   3.463  0.6539  0.0930 -0.0083
 2019SOL     OW 8146   1.562   3.871   3.377  0.2812 -0.5162 -0.1859
 2019SOL    HW2 8147   1.571   3.780   3.405  1.7992 -0.0925  0.7590
 2019SOL    HW3 8148   1.549   3.866   3.282 -0.6523 -1.7558 -0.0099
 2019SOL    MW4 8149   1.561   3.858   3.368  0.3583 -0.6237 -0.0381
 2020SOL     OW 8150   1.347   3.976   3.507  0.1956  0.3014  0.3470
 2020SOL    HW2 8151   1.337   4.056   3.455 -0.8623 -1.0021 -1.4876
 2020SOL    HW3 8152   1.421   3.931   3.468 -0.5826 -0.6724 -0.0149
 2020SOL    MW4 8153   1.355   3.981   3.495 -0.0467  0.0010  0.0570
 2021SOL     OW 8154   1.296   4.190   3.361 -0.1939 -0.9172  0.5296
 2021SOL    HW2 8155   1.228   4.248   3.395  0.1170 -0.3556  0.1975
 2021SOL    HW3 8156   1.295   4.205   3.266  1.8483  0.6798  0.7396
 2021SOL    MW4 8157   1.287   4.200   3.353  0.1165 -0.6323  0.5136
 2022SOL     OW 8158   1.517   4.367   3.443 -0.6230  0.3116 -0.6420
 2022SOL    HW2 8159   1.595   4.312   3.428 -0.3480  0.1777  1.0996
 2022SOL    HW3 8160   1.444   4.314   3.411 -0.3010 -0.8636  0.4890
 2022SOL    MW4 8161   1.518   4.353   3.437 -0.5443  0.1388 -0.2630
 2023SOL     OW 8162   2.013   4.660   3.350  0.5334  0.1176 -0.1998
 2023SOL    HW2 8163   2.086   4.704   3.394  0.1882 -0.6884  1.2348
 2023SOL    HW3 8164   1.935   4.693   3.396  0.1294 -0.4112 -0.5029
 2023SOL    MW4 8165   2.012   4.670   3.362  0.4346 -0.0585 -0.0505
 2024SOL     OW 8166   1.784   0.135   3.456  0.2879  0.0200  0.2033
 2024SOL    HW2 8167   1.764   0.129   3.550  0.9083  1.2136  0.4122
 2024SOL    HW3 8168   1.721   0.075   3.415 -0.2823 -0.1768  1.3341
 2024SOL    MW4 8169   1.773   0.126   3.463  0.2944  0.1515  0.3800
 2025SOL     OW 8170   1.796   0.399   3.380 -0.2190 -0.2833  0.3158
 2025SOL    HW2 8171   1.789   0.310   3.414 -2.4901  0.3327  1.5626
 2025SOL    HW3 8172   1.776   0.391   3.287  0.1948 -1.1757  0.3037
 2025SOL    MW4 8173   1.792   0.386   3.372 -0.4641 -0.3197  0.4787
 2026SOL     OW 8174   2.017   0.504   3.497 -0.3277  0.0493  0.0728
 2026SOL    HW2 8175   2.004   0.595   3.470 -0.9000  0.3082  1.1735
 2026SOL    HW3 8176   1.943   0.456   3.458 -1.0262  0.3809  0.9644
 2026SOL    MW4 8177   2.005   0.509   3.488 -0.4957  0.1273  0.3355
 2027SOL     OW 8178   1.986   0.762   3.409  0.2181 -0.1137  0.2004
 2027SOL    HW2 8179   2.059   0.813   3.443 -0.2039  0.4266  0.3075
 2027SOL    HW3 8180   2.004   0.753   3.315  0.7909 -0.6140  0.3568
 2027SOL    MW4 8181   1.998   0.767   3.401  0.2379 -0.1085  0.2353
 2028SOL     OW 8182   1.759   0.908   3.469 -0.2833 -0.5340 -0.1803
 2028SOL    HW2 8183   1.846   0.884   3.437  0.3335  1.1770  0.1931
 2028SOL    HW3 8184   1.701   0.842   3.431  1.0282 -1.0910 -1.2558
 2028SOL    MW4 8185   1.763   0.896   3.460 -0.0288 -0.3817 -0.2730
 2029SOL     OW 8186   1.757   1.178   3.418 -0.7730  0.5322  0.1171
 2029SOL    HW2 8187   1.844   1.215   3.435 -0.7303  0.6616 -0.3753
 2029SOL    HW3 8188   1.770   1.084   3.420 -0.6415  0.5505  0.1432
 2029SOL    MW4 8189   1.771   1.171   3.421 -0.7501  0.5516  0.0556
 2030SOL     OW 8190   2.027   1.274   3.490  0.3618  0.4224 -0.2002
 2030SOL    HW2 8191   2.000   1.274   3.582  3.2376 -0.4747  0.7038
 2030SOL    HW3 8192   2.036   1.366   3.467 -2.2390  0.7035 -0.1866
 2030SOL    MW4 8193   2.025   1.286   3.499  0.3982  0.3412 -0.0789
 2031SOL     OW 8194   2.044   1.529   3.418  0.0927 -0.2006  0.7880
 2031SOL    HW2 8195   2.117   1.588   3.435 -0.1202  0.1491  0.4828
 2031SOL    HW3 8196   1.968   1.574   3.455 -0.0823 -0.2492  0.4864
 2031SOL    MW4 8197   2.043   1.543   3.425  0.0417 -0.1608  0.7079
 2032SOL     OW 8198   1.822   1.651   3.522  0.2654  0.0793  0.2871
 2032SOL    HW2 8199   1.829   1.740   3.489 -2.1174  0.4022  0.5898
 2032SOL    HW3 8200   1.744   1.615   3.480  0.1251 -1.2235  1.6141
 2032SOL    MW4 8201   1.813   1.658   3.512 -0.0674 -0.0501  0.5023
 2033SOL     OW 8202   1.785   1.912   3.438  0.1292 -0.1018  0.1663
 2033SOL    HW2 8203   1.840   1.976   3.484 -0.8116  0.6354  0.2947
 2033SOL    HW3 8204   1.805   1.925   3.346 -1.0673  1.3447  0.0973
 2033SOL    MW4 8205   1.795   1.922   3.432 -0.1528  0.1863  0.1740
 2034SOL     OW 8206   2.005   2.087   3.498 -0.3398 -0.0995 -0.1233
 2034SOL    HW2 8207   2.087   2.053   3.463 -0.3337  0.6406 -0.8409
 2034SOL    HW3 8208   1.989   2.168   3.448 -1.3547 -0.0929  0.2007
 2034SOL    MW4 8209   2.013   2.093   3.487 -0.4730 -0.0012 -0.1750
 2035SOL     OW 8210   2.010   2.314   3.323 -0.2614 -0.1334  0.0582
 2035SOL    HW2 8211   2.088   2.345   3.368 -0.3515 -1.5474  1.2378
 2035SOL    HW3 8212   2.034   2.312   3.231  0.6712  0.6296  0.2805
 2035SOL    MW4 8213   2.023   2.318   3.317 -0.1504 -0.2191  0.2432
 2036SOL     OW 8214   1.806   2.438   3.458 -0.2473  0.0723 -0.1363
 2036SOL    HW2 8215   1.877   2.393   3.413 -0.5500 -0.7028  0.1457
 2036SOL    HW3 8216   1.727   2.389   3.433 -0.0315 -2.5781  3.9828
 2036SOL    MW4 8217   1.805   2.426   3.449 -0.2587 -0.3796  0.4442
 2037SOL     OW 8218   1.797   2.677   3.335 -0.2749 -0.2904  0.0160
 2037SOL    HW2 8219   1.875   2.715   3.374 -1.3017  2.0505 -0.1691
 2037SOL    HW3 8220   1.792   2.589   3.374  2.0308 -0.2224  0.5533
 2037SOL    MW4 8221   1.806   2.670   3.345 -0.1062  0.0279  0.0627
 2038SOL     OW 8222   1.990   2.819   3.470  0.5367 -0.1886  0.1184
 2038SOL    HW2 8223   1.970   2.839   3.561  0.0082 -1.5049  0.3099
 2038SOL    HW3 8224   1.998   2.904   3.428 -0.7223  0.4334  1.0836
 2038SOL    MW4 8225   1.988   2.833   3.476  0.3008 -0.2801  0.2708
 2039SOL     OW 8226   1.993   3.085   3.360 -0.2395  0.2649  0.0723
 2039SOL    HW2 8227   2.065   3.130   3.404 -0.2797 -0.6021  1.0563
 2039SOL    HW3 8228   1.914   3.121   3.402 -0.3472  0.7109 -0.5172
 2039SOL    MW4 8229   1.992   3.096   3.372 -0.2588  0.2096  0.1245
 2040SOL     OW 8230   1.750   3.174   3.482  0.1208  0.0850 -0.4202
 2040SOL    HW2 8231   1.751   3.163   3.577  0.1481 -0.7874 -0.5206
 2040SOL    HW3 8232   1.757   3.268   3.469 -0.8652  0.2931  0.4669
 2040SOL    MW4 8233   1.751   3.185   3.492 -0.0056 -0.0026 -0.3164
 2041SOL     OW 8234   1.789   3.449   3.415 -0.2170 -0.0746 -0.0792
 2041SOL    HW2 8235   1.721   3.510   3.442 -0.8344 -1.1656  0.8869
 2041SOL    HW3 8236   1.796   3.462   3.320 -1.0268  0.7884 -0.0322
 2041SOL    MW4 8237   1.781   3.459   3.406 -0.4052 -0.1044  0.0546
 2042SOL     OW 8238   2.007   3.600   3.505 -0.3565 -0.2302 -0.1421
 2042SOL    HW2 8239   2.087   3.569   3.463 -0.0949 -2.0224  1.6101
 2042SOL    HW3 8240   1.940   3.537   3.477 -1.1780  1.2594 -1.5973
 2042SOL    MW4 8241   2.009   3.587   3.496 -0.4306 -0.2699 -0.1030
 2043SOL     OW 8242   1.998   3.844   3.380  0.1563 -0.0014  0.0038
 2043SOL    HW2 8243   1.925   3.894   3.417  0.2619 -0.2883  0.6161
 2043SOL    HW3 8244   1.991   3.758   3.422 -0.1845 -0.5943 -1.2322
 2043SOL    MW4 8245   1.987   3.839   3.391  0.1253 -0.1175 -0.0782
 2044SOL     OW 8246   1.790   4.008   3.485  0.1739  0.3674 -0.4326
 2044SOL    HW2 8247   1.781   3.999   3.580 -0.5736  0.0332 -0.5302
 2044SOL    HW3 8248   1.717   3.958   3.449  1.1511 -0.5191 -1.2202
 2044SOL    MW4 8249   1.779   4.000   3.493  0.2042  0.2060 -0.5491
 2045SOL     OW 8250   1.783   4.285   3.396 -0.3834  0.1342 -0.1176
 2045SOL    HW2 8251   1.785   4.202   3.442  0.3670 -0.4063 -1.1063
 2045SOL    HW3 8252   1.768   4.261   3.304 -1.3418  1.1516 -0.2437
 2045SOL    MW4 8253   1.781   4.271   3.390 -0.4110  0.1969 -0.2646
 2046SOL     OW 8254   2.033   4.389   3.473 -0.0401 -0.3889  0.2423
 2046SOL    HW2 8255   1.942   4.363   3.461  0.1759 -1.1624  0.2342
 2046SOL    HW3 8256   2.039   4.476   3.434 -0.8993 -0.1086  0.7165
 2046SOL    MW4 8257   2.022   4.397   3.466 -0.1252 -0.4544  0.3042
 2047SOL     OW 8258   2.459   4.654   3.378  0.0068  0.0409 -0.0878
 2047SOL    HW2 8259   2.451   4.564   3.409  0.4016  0.0410  0.0157
 2047SOL    HW3 8260   2.461   4.647   3.283 -0.7217  0.0026 -0.1032
 2047SOL    MW4 8261   2.458   4.641   3.369 -0.0372  0.0362 -0.0761
 2048SOL     OW 8262   2.239   0.119   3.487 -0.4044 -0.5247  0.2978
 2048SOL    HW2 8263   2.240   0.208   3.452  0.1781  0.0347  1.7163
 2048SOL    HW3 8264   2.317   0.077   3.449  0.0333 -0.0273  0.6425
 2048SOL    MW4 8265   2.250   0.125   3.477 -0.2701 -0.3853  0.5305
 2049SOL     OW 8266   2.253   0.385   3.402  0.3107  0.1817  0.4576
 2049SOL    HW2 8267   2.330   0.411   3.452 -0.3497  0.2613  1.4339
 2049SOL    HW3 8268   2.182   0.440   3.436  0.1208  1.1716 -1.4455
 2049SOL    MW4 8269   2.254   0.396   3.413  0.1986  0.3228  0.3355
 2050SOL     OW 8270   2.452   0.534   3.511  0.6695 -0.0190 -0.3202
 2050SOL    HW2 8271   2.527   0.498   3.464  0.1545 -0.5090 -0.7645
 2050SOL    HW3 8272   2.445   0.624   3.480  2.5611  0.8166  1.5089
 2050SOL    MW4 8273   2.461   0.541   3.501  0.8509  0.0266 -0.1376
 2051SOL     OW 8274   2.429   0.791   3.431 -0.0192 -0.0151 -0.2423
 2051SOL    HW2 8275   2.507   0.841   3.457 -1.2422  1.0849  1.3902
 2051SOL    HW3 8276   2.431   0.792   3.335  1.8748  0.1666 -0.2189
 2051SOL    MW4 8277   2.440   0.798   3.422  0.0691  0.1540 -0.0238
 2052SOL     OW 8278   2.187   0.899   3.536 -0.3280  0.1244  0.4262
 2052SOL    HW2 8279   2.190   0.993   3.517 -0.6810 -0.3376 -2.0680
 2052SOL    HW3 8280   2.273   0.866   3.509  0.0747 -0.1770  1.9964
 2052SOL    MW4 8281   2.199   0.907   3.530 -0.3216  0.0238  0.3042
 2053SOL     OW 8282   2.252   1.166   3.405 -0.0627 -0.2603  0.4551
 2053SOL    HW2 8283   2.322   1.218   3.443 -0.7060  0.1973  1.0391
 2053SOL    HW3 8284   2.172   1.205   3.440 -0.6479 -0.0998 -1.0424
 2053SOL    MW4 8285   2.250   1.178   3.415 -0.2248 -0.1787  0.3345
 2054SOL     OW 8286   2.457   1.348   3.492 -0.4998  0.3477 -0.3510
 2054SOL    HW2 8287   2.451   1.346   3.588 -1.9739 -1.2014 -0.4435
 2054SOL    HW3 8288   2.537   1.300   3.472 -1.3301 -1.2678  0.0563
 2054SOL    MW4 8289   2.466   1.341   3.502 -0.8039 -0.0697 -0.3097
 2055SOL     OW 8290   2.479   1.580   3.351 -0.1288  0.0206 -0.0506
 2055SOL    HW2 8291   2.446   1.500   3.392  0.4473 -0.5041 -0.6113
 2055SOL    HW3 8292   2.469   1.565   3.257  1.4233 -0.0331 -0.2213
 2055SOL    MW4 8293   2.473   1.567   3.344  0.1521 -0.0557 -0.1469
 2056SOL     OW 8294   2.240   1.708   3.481 -0.0580 -0.0129 -0.3340
 2056SOL    HW2 8295   2.246   1.706   3.576 -0.1876 -0.7426 -0.3320
 2056SOL    HW3 8296   2.328   1.685   3.451  0.1190  0.7559 -0.3902
 2056SOL    MW4 8297   2.252   1.704   3.489 -0.0520 -0.0079 -0.3412
 2057SOL     OW 8298   2.245   1.982   3.419 -0.2172  0.1522 -0.3692
 2057SOL    HW2 8299   2.240   1.891   3.449 -0.8356  0.7177  1.3174
 2057SOL    HW3 8300   2.245   1.976   3.324 -0.6619 -1.6034 -0.2756
 2057SOL    MW4 8301   2.244   1.969   3.411 -0.3574 -0.0049 -0.1342
 2058SOL     OW 8302   2.485   2.061   3.514 -0.4867  0.5734  0.3580
 2058SOL    HW2 8303   2.478   2.050   3.609  0.2203 -1.4729  0.2026
 2058SOL    HW3 8304   2.396   2.048   3.481 -0.6280  0.7237  0.6832
 2058SOL    MW4 8305   2.473   2.058   3.522 -0.4120  0.3233  0.3803
 2059SOL     OW 8306   2.501   2.325   3.412  0.3871 -0.0187 -0.0261
 2059SOL    HW2 8307   2.576   2.372   3.449 -0.0629  0.0695  0.7763
 2059SOL    HW3 8308   2.502   2.240   3.455  0.5478 -0.3462 -0.6715
 2059SOL    MW4 8309   2.511   2.320   3.422  0.3490 -0.0503 -0.0055
 2060SOL     OW 8310   2.222   2.417   3.443  0.5844 -0.0899 -0.8168
 2060SOL    HW2 8311   2.214   2.512   3.434  2.4694  0.1458 -0.2801
 2060SOL    HW3 8312   2.313   2.398   3.419  0.5793 -1.5977  0.2743
 2060SOL    MW4 8313   2.233   2.427   3.439  0.8323 -0.2577 -0.6020
 2061SOL     OW 8314   2.225   2.694   3.399 -0.3399  0.1879 -0.2050
 2061SOL    HW2 8315   2.141   2.735   3.421 -0.6150  0.4050 -1.5979
 2061SOL    HW3 8316   2.231   2.702   3.304  0.6364 -1.0431 -0.2605
 2061SOL    MW4 8317   2.214   2.700   3.389 -0.2475  0.0541 -0.3960
 2062SOL     OW 8318   2.468   2.822   3.478 -0.2666 -0.1856 -0.1351
 2062SOL    HW2 8319   2.442   2.907   3.443  0.1085 -0.1470 -0.3344
 2062SOL    HW3 8320   2.395   2.764   3.458 -0.0780 -0.1538 -0.9698
 2062SOL    MW4 8321   2.455   2.826   3.470 -0.1922 -0.1764 -0.2713
 2063SOL     OW 8322   2.432   3.082   3.363 -0.0294  0.2535  0.0185
 2063SOL    HW2 8323   2.512   3.129   3.387  0.6469  0.0062 -1.6573
 2063SOL    HW3 8324   2.441   3.067   3.269 -1.9991  0.0967 -0.1588
 2063SOL    MW4 8325   2.444   3.086   3.354 -0.2000  0.2003 -0.2260
 2064SOL     OW 8326   2.198   3.230   3.478  0.1084  0.0094 -0.1353
 2064SOL    HW2 8327   2.201   3.238   3.573 -0.0167  1.4696 -0.2545
 2064SOL    HW3 8328   2.274   3.175   3.456  2.0077  2.3106  0.5208
 2064SOL    MW4 8329   2.208   3.224   3.488  0.3424  0.5057 -0.0646
 2065SOL     OW 8330   2.256   3.486   3.396  0.0179  1.1703 -0.0206
 2065SOL    HW2 8331   2.251   3.393   3.418  1.7127  1.5379  2.0777
 2065SOL    HW3 8332   2.247   3.488   3.301  0.6179 -1.2075 -0.1695
 2065SOL    MW4 8333   2.254   3.474   3.387  0.3207  0.9048  0.2365
 2066SOL     OW 8334   2.475   3.609   3.488  0.6437 -0.2737  0.1734
 2066SOL    HW2 8335   2.477   3.685   3.431  1.3386 -0.2827  0.1825
 2066SOL    HW3 8336   2.398   3.559   3.460  0.6473  0.0226 -0.3614
 2066SOL    MW4 8337   2.465   3.612   3.477  0.7355 -0.2358  0.1040
 2067SOL     OW 8338   2.471   3.849   3.378 -0.0183 -0.4118  0.2467
 2067SOL    HW2 8339   2.534   3.909   3.417  0.5060 -1.0139  0.3313
 2067SOL    HW3 8340   2.387   3.874   3.416 -0.0836  1.3781 -0.9915
 2067SOL    MW4 8341   2.468   3.860   3.388  0.0422 -0.2551  0.0944
 2068SOL     OW 8342   2.215   3.949   3.494  0.1493  0.2508  0.0558
 2068SOL    HW2 8343   2.214   4.036   3.452 -0.6928  0.3719  0.3239
 2068SOL    HW3 8344   2.140   3.903   3.456 -0.9119  0.5275  1.7732
 2068SOL    MW4 8345   2.205   3.955   3.483 -0.1018  0.3033  0.3181
 2069SOL     OW 8346   2.225   4.220   3.388  0.2408 -0.5221  0.6188
 2069SOL    HW2 8347   2.154   4.277   3.417  1.2043  0.8796  0.3229
 2069SOL    HW3 8348   2.217   4.219   3.292  0.7184 -0.1954  0.5701
 2069SOL    MW4 8349   2.215   4.227   3.379  0.4311 -0.2942  0.5734
 2070SOL     OW 8350   2.416   4.412   3.476  0.1770 -0.2996 -0.3793
 2070SOL    HW2 8351   2.411   4.417   3.572 -0.0439  0.2065 -0.4179
 2070SOL    HW3 8352   2.341   4.358   3.451 -1.0515  1.3895 -0.4268
 2070SOL    MW4 8353   2.406   4.405   3.485 -0.0143 -0.0091 -0.3905
 2071SOL     OW 8354   2.870   4.651   3.387  0.1404  0.2181  0.2967
 2071SOL    HW2 8355   2.792   4.695   3.422 -0.7613 -0.8461 -0.3583
 2071SOL    HW3 8356   2.861   4.660   3.292  1.8555  1.8520  0.2591
 2071SOL    MW4 8357   2.858   4.658   3.379  0.2480  0.2933  0.2053
 2072SOL     OW 8358   2.661   0.128   3.494  0.2422  0.6130  0.1981
 2072SOL    HW2 8359   2.658   0.215   3.454  0.3791  0.9325  0.8764
 2072SOL    HW3 8360   2.591   0.080   3.452  0.0050  1.1341 -0.0048
 2072SOL    MW4 8361   2.652   0.133   3.483  0.2289  0.7239  0.2608
 2073SOL     OW 8362   2.636   0.364   3.373 -0.1434 -0.3405 -0.0031
 2073SOL    HW2 8363   2.715   0.417   3.385  0.2224 -0.7285 -0.7480
 2073SOL    HW3 8364   2.630   0.349   3.279 -1.9274  0.9524 -0.1413
 2073SOL    MW4 8365   2.645   0.369   3.363 -0.3307 -0.2211 -0.1192
 2074SOL     OW 8366   2.863   0.516   3.450 -0.3929  0.4560 -0.1616
 2074SOL    HW2 8367   2.868   0.509   3.545  1.8834 -1.5409 -0.3818
 2074SOL    HW3 8368   2.879   0.609   3.432  0.1411  0.6677  1.3504
 2074SOL    MW4 8369   2.866   0.527   3.460 -0.0219  0.2205  0.0086
 2075SOL     OW 8370   2.871   0.793   3.356  0.0815  0.0526 -0.5085
 2075SOL    HW2 8371   2.954   0.827   3.389  0.1385 -0.9490  0.4321
 2075SOL    HW3 8372   2.804   0.842   3.402  0.1571 -0.2433 -0.0854
 2075SOL    MW4 8373   2.873   0.804   3.366  0.0989 -0.1186 -0.3288
 2076SOL     OW 8374   2.663   0.923   3.500  0.1425  0.2293  0.2653
 2076SOL    HW2 8375   2.666   0.921   3.595 -1.2887  0.4382  0.3163
 2076SOL    HW3 8376   2.665   1.016   3.478 -0.0977  0.1970  0.1066
 2076SOL    MW4 8377   2.664   0.935   3.510 -0.0777  0.2525  0.2511
 2077SOL     OW 8378   2.667   1.182   3.413 -0.5218 -0.2112  0.1503
 2077SOL    HW2 8379   2.756   1.205   3.438 -0.4489 -1.6865  1.2962
 2077SOL    HW3 8380   2.674   1.157   3.321  0.1416  0.2123  0.0802
 2077SOL    MW4 8381   2.680   1.182   3.404 -0.4244 -0.3500  0.2923
 2078SOL     OW 8382   2.925   1.263   3.482 -0.0193 -0.2558 -0.0132
 2078SOL    HW2 8383   2.937   1.262   3.577 -0.0915  0.5911  0.0142
 2078SOL    HW3 8384   2.995   1.207   3.448  0.4654  0.0274  0.5019
 2078SOL    MW4 8385   2.936   1.256   3.490  0.0350 -0.1067  0.0587
 2079SOL     OW 8386   2.962   1.534   3.399  0.4304  0.4104  0.3693
 2079SOL    HW2 8387   2.886   1.587   3.422 -0.9185 -1.0715 -0.5789
 2079SOL    HW3 8388   2.943   1.447   3.434  0.6965 -0.5290 -1.7118
 2079SOL    MW4 8389   2.950   1.529   3.406  0.2875  0.0910 -0.0303
 2080SOL     OW 8390   2.727   1.654   3.476  0.0762  0.0575  0.0637
 2080SOL    HW2 8391   2.726   1.748   3.457 -0.4334 -0.5223 -2.8972
 2080SOL    HW3 8392   2.645   1.621   3.439  0.3890 -1.6195  0.8283
 2080SOL    MW4 8393   2.716   1.662   3.469  0.0501 -0.2403 -0.2263
 2081SOL     OW 8394   2.700   1.908   3.415 -0.6434  0.2617  0.4594
 2081SOL    HW2 8395   2.621   1.951   3.447  0.3787  2.4611  0.1002
 2081SOL    HW3 8396   2.691   1.909   3.319 -1.2684 -1.6476  0.4687
 2081SOL    MW4 8397   2.688   1.914   3.406 -0.5908  0.3000  0.4134
 2082SOL     OW 8398   2.911   2.061   3.484  0.1064  0.0553  0.0379
 2082SOL    HW2 8399   2.931   2.047   3.576  0.0416 -0.0642  0.0343
 2082SOL    HW3 8400   2.828   2.016   3.470  0.4929 -0.5671 -0.2578
 2082SOL    MW4 8401   2.902   2.053   3.494  0.1490 -0.0424 -0.0014
 2083SOL     OW 8402   2.925   2.315   3.394  0.2733  0.1283  0.0946
 2083SOL    HW2 8403   2.928   2.223   3.421  0.3137 -0.2290 -1.0718
 2083SOL    HW3 8404   2.911   2.311   3.299  0.7493  1.3157 -0.0315
 2083SOL    MW4 8405   2.924   2.302   3.385  0.3414  0.2377 -0.0758
 2084SOL     OW 8406   2.710   2.479   3.499 -0.1050 -0.0760  0.2844
 2084SOL    HW2 8407   2.708   2.488   3.594  1.7525 -0.5191  0.3853
 2084SOL    HW3 8408   2.787   2.425   3.481 -0.2240  0.2939 -1.4872
 2084SOL    MW4 8409   2.720   2.473   3.509  0.1245 -0.0861  0.0639
 2085SOL     OW 8410   2.710   2.726   3.365 -0.2221  0.0706  0.0016
 2085SOL    HW2 8411   2.720   2.641   3.408 -0.1928 -0.2180 -0.5749
 2085SOL    HW3 8412   2.629   2.762   3.400 -0.2160 -0.1800  0.2725
 2085SOL    MW4 8413   2.701   2.720   3.375 -0.2174 -0.0005 -0.0386
 2086SOL     OW 8414   2.935   2.827   3.503  0.2810 -0.3476  0.1209
 2086SOL    HW2 8415   2.941   2.826   3.598  0.4214  0.2000  0.1189
 2086SOL    HW3 8416   2.846   2.796   3.484  0.0682  0.0602  0.4486
 2086SOL    MW4 8417   2.924   2.823   3.513  0.2716 -0.2215  0.1640
 2087SOL     OW 8418   2.894   3.056   3.390 -0.6044 -0.0977  0.1665
 2087SOL    HW2 8419   2.919   2.970   3.425  0.1127  0.4860  1.0991
 2087SOL    HW3 8420   2.899   3.045   3.295  0.1955 -0.8816  0.2911
 2087SOL    MW4 8421   2.898   3.043   3.382 -0.4041 -0.1242  0.3061
 2088SOL     OW 8422   2.661   3.196   3.477 -0.4536  0.1252 -0.2875
 2088SOL    HW2 8423   2.659   3.214   3.571 -0.0867 -0.6411 -0.1272
 2088SOL    HW3 8424   2.740   3.144   3.464 -0.1397  0.8041 -1.1265
 2088SOL    MW4 8425   2.671   3.191   3.487 -0.3641  0.1137 -0.3769
 2089SOL     OW 8426   2.688   3.461   3.376  0.1432  0.0133 -0.1570
 2089SOL    HW2 8427   2.679   3.370   3.405  0.9265  0.6327  2.1758
 2089SOL    HW3 8428   2.612   3.506   3.413 -0.5147  0.2063 -1.7361
 2089SOL    MW4 8429   2.677   3.455   3.385  0.1595  0.1206 -0.0577
 2090SOL     OW 8430   2.903   3.582   3.509  0.0272  0.1252  0.1806
 2090SOL    HW2 8431   2.902   3.675   3.487  0.0537  0.6547  2.3359
 2090SOL    HW3 8432   2.826   3.546   3.465  0.7820  0.8712 -1.8091
 2090SOL    MW4 8433   2.893   3.590   3.500  0.1304  0.2933  0.2024
 2091SOL     OW 8434   2.912   3.835   3.402  0.1962  0.1862 -0.5117
 2091SOL    HW2 8435   2.991   3.889   3.406  0.0103  0.3494  1.2928
 2091SOL    HW3 8436   2.843   3.891   3.439 -0.5757 -0.2873 -1.2201
 2091SOL    MW4 8437   2.913   3.849   3.408  0.0699  0.1452 -0.3672
 2092SOL     OW 8438   2.690   3.984   3.480  0.2189  0.0005 -0.0936
 2092SOL    HW2 8439   2.679   3.996   3.575  0.0364  0.3900 -0.1597
 2092SOL    HW3 8440   2.663   4.068   3.443 -0.1800 -0.3178 -0.5229
 2092SOL    MW4 8441   2.685   3.997   3.488  0.1419  0.0098 -0.1588
 2093SOL     OW 8442   2.616   4.239   3.387 -0.2451  0.0494 -0.6722
 2093SOL    HW2 8443   2.696   4.288   3.406  0.3476 -1.2782  0.3863
 2093SOL    HW3 8444   2.545   4.295   3.420  0.3366  0.6406 -0.4078
 2093SOL    MW4 8445   2.617   4.253   3.394 -0.0901 -0.0482 -0.4978
 2094SOL     OW 8446   2.838   4.399   3.459 -0.3798  0.0946 -0.4578
 2094SOL    HW2 8447   2.829   4.414   3.554  0.5428 -0.0068 -0.3571
 2094SOL    HW3 8448   2.854   4.487   3.423  1.5233 -0.1746 -0.2652
 2094SOL    MW4 8449   2.839   4.413   3.467 -0.0069  0.0458 -0.4191
 2095SOL     OW 8450   3.351   4.644   3.385  0.0807 -0.0803  0.0050
 2095SOL    HW2 8451   3.265   4.678   3.409  0.0211  0.6963 -1.2381
 2095SOL    HW3 8452   3.352   4.648   3.289  1.8815  0.8856  0.0456
 2095SOL    MW4 8453   3.340   4.649   3.376  0.3107  0.1493 -0.1538
 2096SOL     OW 8454   3.114   0.087   3.460 -0.1796  0.2488 -0.7518
 2096SOL    HW2 8455   3.110   0.174   3.419 -0.6936  0.1520 -0.9061
 2096SOL    HW3 8456   3.033   0.044   3.434 -1.2169  0.7355  1.5798
 2096SOL    MW4 8457   3.103   0.093   3.451 -0.3841  0.3002 -0.4642
 2097SOL     OW 8458   3.100   0.329   3.352 -0.1033 -0.3867  0.5058
 2097SOL    HW2 8459   3.027   0.375   3.393  0.2171  0.6306 -0.0267
 2097SOL    HW3 8460   3.086   0.341   3.258 -0.5966 -2.3253  0.3229
 2097SOL    MW4 8461   3.089   0.337   3.345 -0.1259 -0.5083  0.4113
 2098SOL     OW 8462   3.328   0.486   3.448  0.3388 -0.1870  0.1727
 2098SOL    HW2 8463   3.330   0.463   3.541  0.6196 -0.4487  0.0983
 2098SOL    HW3 8464   3.256   0.434   3.412 -0.6676  0.9296  0.5223
 2098SOL    MW4 8465   3.319   0.476   3.456  0.2429 -0.0742  0.2091
 2099SOL     OW 8466   3.360   0.774   3.402 -0.5658  0.2208 -0.0426
 2099SOL    HW2 8467   3.430   0.816   3.452 -1.5549  0.1935  1.4055
 2099SOL    HW3 8468   3.378   0.680   3.411 -1.2202  0.1799  1.0295
 2099SOL    MW4 8469   3.372   0.767   3.410 -0.7827  0.2117  0.2899
 2100SOL     OW 8470   3.114   0.883   3.462  0.3989 -1.0463 -0.0138
 2100SOL    HW2 8471   3.128   0.970   3.425  1.2330 -0.5119  1.5240
 2100SOL    HW3 8472   3.188   0.831   3.431  0.0269 -1.1383 -0.7413
 2100SOL    MW4 8473   3.125   0.888   3.453  0.4599 -0.9879  0.0930
 2101SOL     OW 8474   3.147   1.144   3.373  0.5551  0.1142 -0.4636
 2101SOL    HW2 8475   3.205   1.206   3.416 -1.0215  0.9235  0.5452
 2101SOL    HW3 8476   3.138   1.176   3.284  0.7542  0.6234 -0.2981
 2101SOL    MW4 8477   3.153   1.156   3.367  0.3731  0.2880 -0.3085
 2102SOL     OW 8478   3.373   1.254   3.496 -0.4288  0.3788  0.4883
 2102SOL    HW2 8479   3.461   1.219   3.480 -0.8253 -0.2312 -0.3877
 2102SOL    HW3 8480   3.373   1.340   3.454 -0.2752  0.3469  0.4239
 2102SOL    MW4 8481   3.385   1.261   3.488 -0.4606  0.2941  0.3641
 2103SOL     OW 8482   3.392   1.526   3.420 -0.7729 -0.2384  0.1773
 2103SOL    HW2 8483   3.471   1.563   3.460 -0.6468 -0.0411 -0.2485
 2103SOL    HW3 8484   3.320   1.566   3.467 -0.6186 -0.3361  0.4974
 2103SOL    MW4 8485   3.393   1.536   3.431 -0.7360 -0.2253  0.1633
 2104SOL     OW 8486   3.188   1.682   3.519 -0.0888 -0.4150  0.1131
 2104SOL    HW2 8487   3.189   1.755   3.458 -0.1631 -0.4844  0.0289
 2104SOL    HW3 8488   3.112   1.629   3.493 -0.6039 -0.0138  0.7664
 2104SOL    MW4 8489   3.178   1.684   3.508 -0.1667 -0.3713  0.1884
 2105SOL     OW 8490   3.123   1.906   3.356 -0.6360  0.2156 -0.0892
 2105SOL    HW2 8491   3.044   1.952   3.385 -0.9699  0.6914 -1.6821
 2105SOL    HW3 8492   3.117   1.907   3.261  1.9535  1.4291 -0.2884
 2105SOL    MW4 8493   3.112   1.912   3.347 -0.3383  0.4386 -0.3257
 2106SOL     OW 8494   3.324   2.069   3.472 -0.1124 -0.0845 -0.1263
 2106SOL    HW2 8495   3.347   2.144   3.418 -0.3967  1.1893  1.4816
 2106SOL    HW3 8496   3.245   2.033   3.431  0.5694 -0.0907 -1.4467
 2106SOL    MW4 8497   3.316   2.074   3.460 -0.0601  0.0830 -0.0885
 2107SOL     OW 8498   3.378   2.312   3.350 -0.0056 -0.1944  0.7903
 2107SOL    HW2 8499   3.454   2.351   3.394 -0.0885 -1.0847  1.7571
 2107SOL    HW3 8500   3.303   2.361   3.384 -0.0196 -0.5304  1.2614
 2107SOL    MW4 8501   3.378   2.323   3.361 -0.0184 -0.3560  0.9799
 2108SOL     OW 8502   3.148   2.430   3.477 -0.2727  0.2649  0.0020
 2108SOL    HW2 8503   3.136   2.521   3.448  0.7732  0.1603 -0.8026
 2108SOL    HW3 8504   3.069   2.385   3.446 -0.8675  0.9265  0.5395
 2108SOL    MW4 8505   3.136   2.436   3.469 -0.2129  0.3386 -0.0334
 2109SOL     OW 8506   3.148   2.682   3.378  0.5339  0.5127  0.0478
 2109SOL    HW2 8507   3.221   2.729   3.419  0.7706  1.2196 -1.1524
 2109SOL    HW3 8508   3.069   2.721   3.417  0.7872 -0.3489  1.4482
 2109SOL    MW4 8509   3.147   2.693   3.388  0.5984  0.4921  0.0744
 2110SOL     OW 8510   3.358   2.830   3.500  0.3527  0.3053  0.3405
 2110SOL    HW2 8511   3.441   2.790   3.475  0.0354  0.0340 -0.2947
 2110SOL    HW3 8512   3.356   2.914   3.454  0.4909  0.5370  0.7472
 2110SOL    MW4 8513   3.369   2.836   3.491  0.3293  0.2999  0.3102
 2111SOL     OW 8514   3.340   3.073   3.358  0.0004 -0.4545  0.0685
 2111SOL    HW2 8515   3.401   3.133   3.403  0.0565  0.5921 -1.3837
 2111SOL    HW3 8516   3.254   3.096   3.393  0.0362  0.4117 -0.3912
 2111SOL    MW4 8517   3.337   3.084   3.369  0.0126 -0.2019 -0.1836
 2112SOL     OW 8518   3.115   3.176   3.496  0.3961  0.0092 -0.1108
 2112SOL    HW2 8519   3.119   3.270   3.477  0.5196 -0.0266 -0.2685
 2112SOL    HW3 8520   3.029   3.149   3.463 -0.1339  0.3016  1.0324
 2112SOL    MW4 8521   3.104   3.185   3.489  0.3424  0.0429  0.0191
 2113SOL     OW 8522   3.118   3.442   3.416  0.0278  0.3142  0.3085
 2113SOL    HW2 8523   3.037   3.492   3.427 -0.4661 -0.6402  1.0706
 2113SOL    HW3 8524   3.131   3.438   3.321 -0.4699  1.0166  0.2065
 2113SOL    MW4 8525   3.109   3.448   3.405 -0.1028  0.2811  0.3958
 2114SOL     OW 8526   3.350   3.580   3.467  0.0124  0.1591 -0.0039
 2114SOL    HW2 8527   3.343   3.672   3.440 -1.3004  0.6053  1.7288
 2114SOL    HW3 8528   3.263   3.543   3.450  0.5311 -0.7591 -0.6761
 2114SOL    MW4 8529   3.337   3.587   3.461 -0.0923  0.0968  0.1361
 2115SOL     OW 8530   3.326   3.840   3.372  0.4027  0.4928  0.5662
 2115SOL    HW2 8531   3.399   3.880   3.418 -0.5866 -0.1270  2.7494
 2115SOL    HW3 8532   3.253   3.901   3.384 -0.1245 -0.1534  0.7179
 2115SOL    MW4 8533   3.326   3.853   3.380  0.2027  0.3257  0.8743
 2116SOL     OW 8534   3.120   4.029   3.425 -0.0442 -0.2325  0.1133
 2116SOL    HW2 8535   3.104   4.020   3.519  0.8134 -0.7018  0.2162
 2116SOL    HW3 8536   3.096   4.120   3.405 -0.2036 -0.1268  0.7873
 2116SOL    MW4 8537   3.115   4.040   3.435  0.0479 -0.2809  0.2158
 2117SOL     OW 8538   3.077   4.285   3.352  0.2901 -0.1910 -0.4346
 2117SOL    HW2 8539   3.157   4.320   3.393 -0.0138 -0.3354  0.2990
 2117SOL    HW3 8540   3.006   4.330   3.398 -0.0244  1.3525 -2.3808
 2117SOL    MW4 8541   3.079   4.296   3.364  0.2084 -0.0062 -0.5946
 2118SOL     OW 8542   3.332   4.380   3.460 -0.2595  0.0892  0.1292
 2118SOL    HW2 8543   3.326   4.392   3.555 -2.0234  1.2369 -0.1088
 2118SOL    HW3 8544   3.353   4.467   3.426 -0.3049 -0.1717 -0.5754
 2118SOL    MW4 8545   3.334   4.393   3.468 -0.4983  0.2065  0.0048
 2119SOL     OW 8546   3.817   4.606   3.382  0.2595 -0.5499  0.0760
 2119SOL    HW2 8547   3.735   4.642   3.415  0.5486  0.1921 -0.0107
 2119SOL    HW3 8548   3.816   4.627   3.288  1.3245  0.9522  0.3945
 2119SOL    MW4 8549   3.806   4.613   3.374  0.4382 -0.2532  0.1066
 2120SOL     OW 8550   3.582   0.121   3.467  0.1683 -0.3419 -0.1534
 2120SOL    HW2 8551   3.574   0.212   3.440  1.2536  0.1101  1.0068
 2120SOL    HW3 8552   3.496   0.083   3.448 -0.0059  0.6686 -1.5112
 2120SOL    MW4 8553   3.570   0.128   3.461  0.2887 -0.1489 -0.1793
 2121SOL     OW 8554   3.567   0.379   3.374 -0.5964  0.4566  0.3416
 2121SOL    HW2 8555   3.635   0.426   3.422 -1.2341  0.6469  1.0605
 2121SOL    HW3 8556   3.485   0.408   3.413 -0.9819 -1.9656  1.4686
 2121SOL    MW4 8557   3.565   0.389   3.386 -0.7312  0.1621  0.5853
 2122SOL     OW 8558   3.766   0.522   3.497 -0.5188 -0.1889 -0.4565
 2122SOL    HW2 8559   3.748   0.507   3.589  0.7055  0.9114 -0.0165
 2122SOL    HW3 8560   3.841   0.464   3.477 -2.4098 -2.3756 -1.4515
 2122SOL    MW4 8561   3.774   0.512   3.506 -0.6070 -0.3322 -0.5298
 2123SOL     OW 8562   3.776   0.788   3.375 -0.0828 -0.2245 -0.7468
 2123SOL    HW2 8563   3.848   0.828   3.424 -0.0831  0.1627 -1.0578
 2123SOL    HW3 8564   3.763   0.703   3.416 -1.1052  0.7090  0.9407
 2123SOL    MW4 8565   3.783   0.782   3.387 -0.2174 -0.0503 -0.5653
 2124SOL     OW 8566   3.574   0.918   3.494  0.1572  0.0802 -0.0464
 2124SOL    HW2 8567   3.575   0.894   3.587 -1.1345 -0.3168 -0.1278
 2124SOL    HW3 8568   3.637   0.859   3.453  0.9544  0.4564  0.6188
 2124SOL    MW4 8569   3.583   0.907   3.501  0.0920  0.0775  0.0308
 2125SOL     OW 8570   3.647   1.197   3.406 -0.2322 -0.0381  0.0227
 2125SOL    HW2 8571   3.649   1.104   3.429  1.0108  0.0343  0.2530
 2125SOL    HW3 8572   3.620   1.199   3.314  1.1332 -0.7078 -0.3961
 2125SOL    MW4 8573   3.643   1.185   3.397  0.1118 -0.1169 -0.0021
 2126SOL     OW 8574   3.804   1.351   3.564 -0.0045 -0.5040  0.6224
 2126SOL    HW2 8575   3.770   1.325   3.650 -3.3169  1.2545 -0.0794
 2126SOL    HW3 8576   3.755   1.297   3.502  1.2458 -0.6376 -0.2793
 2126SOL    MW4 8577   3.793   1.340   3.567 -0.2766 -0.2896  0.4110
 2127SOL     OW 8578   3.832   1.590   3.436 -0.0725  0.2165 -0.0369
 2127SOL    HW2 8579   3.921   1.622   3.449 -0.1945  0.6058 -0.1276
 2127SOL    HW3 8580   3.827   1.509   3.486  0.1606  0.4866  0.4278
 2127SOL    MW4 8581   3.843   1.583   3.444 -0.0577  0.3034  0.0122
 2128SOL     OW 8582   3.592   1.680   3.575  0.2375  0.3501 -0.2891
 2128SOL    HW2 8583   3.575   1.752   3.514  2.2044  0.7885 -0.3237
 2128SOL    HW3 8584   3.679   1.648   3.551 -0.5118 -1.9020 -0.1208
 2128SOL    MW4 8585   3.601   1.686   3.563  0.3979  0.1107 -0.2713
 2129SOL     OW 8586   3.546   1.901   3.377  0.1292  0.2886  0.7230
 2129SOL    HW2 8587   3.633   1.937   3.392  0.3695 -0.0968  0.2680
 2129SOL    HW3 8588   3.486   1.968   3.411  0.5470  1.4956 -0.8224
 2129SOL    MW4 8589   3.549   1.915   3.383  0.2160  0.3970  0.4587
 2130SOL     OW 8590   3.784   2.043   3.437  0.1370 -0.4827  0.0280
 2130SOL    HW2 8591   3.770   2.062   3.530 -1.0508  1.6048 -0.5432
 2130SOL    HW3 8592   3.876   2.019   3.431  0.8061  1.6143  1.4094
 2130SOL    MW4 8593   3.794   2.042   3.448  0.0684  0.0696  0.1352
 2131SOL     OW 8594   3.812   2.319   3.384 -0.4046  0.1943  0.3752
 2131SOL    HW2 8595   3.882   2.356   3.438  0.8224  0.0713 -1.0783
 2131SOL    HW3 8596   3.812   2.226   3.406 -0.8314  0.3786  1.1613
 2131SOL    MW4 8597   3.822   2.311   3.394 -0.2987  0.2022  0.2871
 2132SOL     OW 8598   3.571   2.436   3.481  0.1612  0.0738  0.3137
 2132SOL    HW2 8599   3.553   2.522   3.443 -2.2490 -0.5566  0.0002
 2132SOL    HW3 8600   3.655   2.411   3.443 -0.1115  1.3776 -1.1931
 2132SOL    MW4 8601   3.580   2.444   3.471 -0.1926  0.1628  0.0734
 2133SOL     OW 8602   3.568   2.693   3.406 -0.3256  0.1096  0.4215
 2133SOL    HW2 8603   3.653   2.724   3.436 -1.2596  2.1628  1.0044
 2133SOL    HW3 8604   3.568   2.708   3.311 -0.7544  1.8810  0.6936
 2133SOL    MW4 8605   3.579   2.699   3.397 -0.5052  0.6142  0.5343
 2134SOL     OW 8606   3.816   2.811   3.512 -0.0379 -0.3216 -0.5104
 2134SOL    HW2 8607   3.800   2.824   3.606 -0.3307  0.6417 -0.6881
 2134SOL    HW3 8608   3.799   2.897   3.473 -0.3997 -0.8421 -1.5089
 2134SOL    MW4 8609   3.812   2.824   3.519 -0.1242 -0.2632 -0.6654
 2135SOL     OW 8610   3.797   3.079   3.433 -0.0413 -0.1094 -0.6710
 2135SOL    HW2 8611   3.877   3.123   3.460  1.6729 -2.3525 -1.9854
 2135SOL    HW3 8612   3.800   3.077   3.338 -2.1169  0.5847 -0.7840
 2135SOL    MW4 8613   3.808   3.084   3.424 -0.0889 -0.3135 -0.8593
 2136SOL     OW 8614   3.547   3.232   3.466  0.2246  0.1021 -0.2214
 2136SOL    HW2 8615   3.560   3.324   3.445 -0.2024  0.5182  1.2627
 2136SOL    HW3 8616   3.634   3.193   3.460  0.4262  0.6307 -0.7083
 2136SOL    MW4 8617   3.560   3.239   3.463  0.1948  0.2267 -0.0896
 2137SOL     OW 8618   3.590   3.484   3.413 -0.2075  0.2190 -0.3477
 2137SOL    HW2 8619   3.506   3.523   3.437  0.0767  0.0799  0.8928
 2137SOL    HW3 8620   3.590   3.486   3.317 -2.6558 -1.9631 -0.4319
 2137SOL    MW4 8621   3.579   3.490   3.403 -0.4930 -0.0873 -0.1955
 2138SOL     OW 8622   3.825   3.610   3.472  0.0689 -0.0182 -0.2264
 2138SOL    HW2 8623   3.808   3.621   3.565 -0.6883 -0.0868 -0.3529
 2138SOL    HW3 8624   3.745   3.571   3.437  1.3828 -2.6234 -0.4172
 2138SOL    MW4 8625   3.812   3.607   3.479  0.1426 -0.3710 -0.2682
 2139SOL     OW 8626   3.817   3.871   3.372 -0.6044 -0.2634  0.0387
 2139SOL    HW2 8627   3.733   3.905   3.402  0.5637  0.8310  2.1952
 2139SOL    HW3 8628   3.820   3.782   3.407 -1.1720 -0.5856 -0.7041
 2139SOL    MW4 8629   3.806   3.864   3.381 -0.5250 -0.1614  0.2253
 2140SOL     OW 8630   3.569   3.970   3.465 -0.0231 -0.2050  0.0045
 2140SOL    HW2 8631   3.558   3.991   3.558  0.3437  0.4850 -0.1005
 2140SOL    HW3 8632   3.574   4.056   3.422  0.2811 -0.5200 -0.5918
 2140SOL    MW4 8633   3.569   3.984   3.472  0.0653 -0.1552 -0.0880
 2141SOL     OW 8634   3.559   4.223   3.365 -0.0010  0.1182  0.1255
 2141SOL    HW2 8635   3.497   4.272   3.419  1.0155  1.9696 -0.3699
 2141SOL    HW3 8636   3.536   4.247   3.275  0.3226 -0.5626 -0.1458
 2141SOL    MW4 8637   3.548   4.232   3.360  0.1757  0.2723  0.0243
 2142SOL     OW 8638   3.793   4.359   3.495  0.1914  0.1398  0.5934
 2142SOL    HW2 8639   3.717   4.315   3.456  0.7546 -0.0582 -0.2784
 2142SOL    HW3 8640   3.808   4.435   3.440  0.2165  0.5484  1.1628
 2142SOL    MW4 8641   3.785   4.363   3.483  0.2689  0.1678  0.5534
 2143SOL     OW 8642   4.223   0.023   3.442  0.1590 -0.0309  0.1673
 2143SOL    HW2 8643   4.235  -0.070   3.458  2.1106  0.1748  0.0180
 2143SOL    HW3 8644   4.309   0.062   3.461 -0.3782  1.5956 -0.6694
 2143SOL    MW4 8645   4.236   0.016   3.447  0.3457  0.2108  0.0374
 2144SOL     OW 8646   3.982   0.125   3.522 -0.1050 -0.0315  0.4871
 2144SOL    HW2 8647   4.071   0.105   3.494 -0.6779 -2.3362  0.1864
 2144SOL    HW3 8648   3.926   0.068   3.469 -1.4801 -1.6663  3.5145
 2144SOL    MW4 8649   3.986   0.115   3.511 -0.3619 -0.5513  0.8471
 2145SOL     OW 8650   3.993   0.392   3.444 -0.4604 -0.5396 -0.1525
 2145SOL    HW2 8651   3.989   0.303   3.479  0.7549 -0.6668 -0.2859
 2145SOL    HW3 8652   4.016   0.380   3.352  1.5396 -0.0420  0.2566
 2145SOL    MW4 8653   3.996   0.378   3.437 -0.0362 -0.4908 -0.1161
 2146SOL     OW 8654   4.245   0.515   3.519 -0.0992  0.0132  0.0611
 2146SOL    HW2 8655   4.238   0.603   3.484  0.0688  0.1950  0.4845
 2146SOL    HW3 8656   4.162   0.473   3.495 -0.4207  0.4719  0.3771
 2146SOL    MW4 8657   4.233   0.521   3.511 -0.1192  0.0977  0.1585
 2147SOL     OW 8658   4.235   0.777   3.418  0.0205  0.0015 -0.5313
 2147SOL    HW2 8659   4.317   0.819   3.445 -0.3314  0.6204 -0.4010
 2147SOL    HW3 8660   4.237   0.783   3.322  0.5403 -0.7914 -0.5769
 2147SOL    MW4 8661   4.246   0.784   3.409  0.0424 -0.0215 -0.5205
 2148SOL     OW 8662   3.997   0.958   3.510  0.0339 -0.0011 -0.0370
 2148SOL    HW2 8663   3.998   1.049   3.478  1.6961 -0.8506 -2.5026
 2148SOL    HW3 8664   4.085   0.926   3.493 -0.6239 -2.1888  0.5972
 2148SOL    MW4 8665   4.009   0.966   3.504  0.1659 -0.4018 -0.2785
 2149SOL     OW 8666   4.027   1.219   3.447 -0.3686 -0.1430 -0.3430
 2149SOL    HW2 8667   4.112   1.254   3.474 -0.6217 -0.2911  0.6649
 2149SOL    HW3 8668   3.963   1.271   3.495 -0.9141  0.9264 -2.1953
 2149SOL    MW4 8669   4.030   1.231   3.457 -0.4740 -0.0215 -0.4542
 2150SOL     OW 8670   4.284   1.301   3.513  0.5906  0.3823 -0.3073
 2150SOL    HW2 8671   4.300   1.385   3.470  0.9700  0.7477  0.5393
 2150SOL    HW3 8672   4.358   1.246   3.486  0.9161  0.6625  0.0071
 2150SOL    MW4 8673   4.296   1.305   3.503  0.6838  0.4675 -0.1543
 2151SOL     OW 8674   4.302   1.528   3.369 -0.7245 -0.1905  0.1605
 2151SOL    HW2 8675   4.232   1.571   3.417  1.1890  2.3583  0.7870
 2151SOL    HW3 8676   4.288   1.552   3.278  0.7596  2.5598  0.5869
 2151SOL    MW4 8677   4.291   1.536   3.363 -0.2766  0.5087  0.2992
 2152SOL     OW 8678   4.095   1.672   3.485  0.1884  0.4315  0.2821
 2152SOL    HW2 8679   4.098   1.676   3.581  1.2486  1.2754  0.2200
 2152SOL    HW3 8680   4.088   1.763   3.457 -0.6380  0.1532 -0.4344
 2152SOL    MW4 8681   4.094   1.684   3.494  0.2193  0.5060  0.1793
 2153SOL     OW 8682   4.030   1.938   3.406  0.1131  0.3669  0.1611
 2153SOL    HW2 8683   4.103   1.973   3.458  0.2865 -0.1323  0.2555
 2153SOL    HW3 8684   4.064   1.935   3.316  0.1572  0.2800  0.1807
 2153SOL    MW4 8685   4.044   1.942   3.401  0.1416  0.2897  0.1762
 2154SOL     OW 8686   4.233   2.045   3.546  0.2321 -0.6067 -0.4501
 2154SOL    HW2 8687   4.236   2.127   3.496  1.4438  1.1558  2.3635
 2154SOL    HW3 8688   4.313   1.998   3.521  0.9259  0.3504 -0.0746
 2154SOL    MW4 8689   4.244   2.050   3.536  0.4835 -0.2477 -0.0293
 2155SOL     OW 8690   4.230   2.287   3.435 -0.1558  0.1428  0.4877
 2155SOL    HW2 8691   4.153   2.335   3.466  1.0860  1.6992  1.2303
 2155SOL    HW3 8692   4.231   2.301   3.341  0.0586  1.3964  0.6651
 2155SOL    MW4 8693   4.220   2.295   3.427  0.0362  0.5138  0.6089
 2156SOL     OW 8694   4.023   2.432   3.532 -0.2937  0.1438 -0.1228
 2156SOL    HW2 8695   4.027   2.466   3.621  0.4455 -2.2109  0.7659
 2156SOL    HW3 8696   4.026   2.510   3.477  0.3915  1.5746  1.8845
 2156SOL    MW4 8697   4.024   2.447   3.536 -0.1049  0.0219  0.2596
 2157SOL     OW 8698   3.998   2.663   3.385 -0.3160  0.1253  0.1247
 2157SOL    HW2 8699   4.077   2.715   3.399 -1.1397  1.7187 -1.0001
 2157SOL    HW3 8700   3.933   2.703   3.443 -0.5088 -0.6866  0.4722
 2157SOL    MW4 8701   4.000   2.675   3.395 -0.4499  0.2282  0.0222
 2158SOL     OW 8702   4.192   2.848   3.457  0.0514 -0.0578 -0.2258
 2158SOL    HW2 8703   4.203   2.858   3.551  0.1171 -2.1764  0.0206
 2158SOL    HW3 8704   4.277   2.818   3.426  0.1899  1.1680 -1.0442
 2158SOL    MW4 8705   4.204   2.845   3.465  0.0782 -0.1755 -0.3014
 2159SOL     OW 8706   4.239   3.107   3.377 -0.0678  0.9252  0.5176
 2159SOL    HW2 8707   4.212   3.019   3.401 -0.3940  0.9312  0.1685
 2159SOL    HW3 8708   4.245   3.106   3.281  1.7659  0.7437  0.6032
 2159SOL    MW4 8709   4.236   3.095   3.367  0.1316  0.9017  0.4828
 2160SOL     OW 8710   4.032   3.241   3.520 -0.2183  0.2327  0.4980
 2160SOL    HW2 8711   4.029   3.325   3.476 -0.6086  0.5089  1.0503
 2160SOL    HW3 8712   4.107   3.196   3.480 -1.3027 -0.0165 -1.3096
 2160SOL    MW4 8713   4.042   3.246   3.509 -0.4125  0.2360  0.3324
 2161SOL     OW 8714   4.059   3.491   3.384  0.0971 -0.5612  0.1354
 2161SOL    HW2 8715   4.136   3.533   3.422 -0.4372  1.8086 -1.2639
 2161SOL    HW3 8716   3.985   3.539   3.422 -0.7430 -3.1839  1.9097
 2161SOL    MW4 8717   4.059   3.503   3.394 -0.0839 -0.5944  0.1850
 2162SOL     OW 8718   4.273   3.607   3.510 -0.2445  0.0838 -0.4000
 2162SOL    HW2 8719   4.268   3.608   3.606  0.7348  0.6620 -0.3548
 2162SOL    HW3 8720   4.281   3.699   3.486 -1.0130 -0.0152 -1.0759
 2162SOL    MW4 8721   4.273   3.619   3.520 -0.2165  0.1473 -0.4833
 2163SOL     OW 8722   4.291   3.855   3.390 -0.5194  0.2120 -0.0333
 2163SOL    HW2 8723   4.369   3.903   3.419 -0.6902  0.5858 -0.1959
 2163SOL    HW3 8724   4.293   3.862   3.295 -0.2185 -0.6149 -0.0895
 2163SOL    MW4 8725   4.302   3.862   3.381 -0.5021  0.1523 -0.0620
 2164SOL     OW 8726   4.042   3.997   3.455 -0.1931 -0.2116  0.1679
 2164SOL    HW2 8727   4.117   3.950   3.420 -1.1331 -1.5803 -0.0634
 2164SOL    HW3 8728   3.966   3.954   3.416 -1.1420  0.3437  1.3448
 2164SOL    MW4 8729   4.042   3.985   3.445 -0.4425 -0.3192  0.2925
 2165SOL     OW 8730   4.038   4.259   3.398 -0.2206  0.3368 -0.0273
 2165SOL    HW2 8731   4.047   4.171   3.434 -0.7324 -0.2071 -1.2110
 2165SOL    HW3 8732   3.967   4.298   3.449  1.1488  0.6899  1.6672
 2165SOL    MW4 8733   4.030   4.253   3.409 -0.1073  0.3114  0.0401
 2166SOL     OW 8734   4.241   4.426   3.509  0.0935 -0.3330  0.1768
 2166SOL    HW2 8735   4.228   4.408   3.602 -0.0208 -1.6978 -0.0899
 2166SOL    HW3 8736   4.179   4.369   3.464 -1.0239  1.5061 -0.6971
 2166SOL    MW4 8737   4.231   4.416   3.515 -0.0691 -0.2704  0.0262
 2167SOL     OW 8738   0.206   4.652   3.814  0.0270  0.3585 -0.1209
 2167SOL    HW2 8739   0.221   4.664   3.908  0.2922  1.6671 -0.3173
 2167SOL    HW3 8740   0.124   4.698   3.796  0.4881  0.9744 -0.7004
 2167SOL    MW4 8741   0.198   4.660   3.824  0.1228  0.6123 -0.2232
 2168SOL     OW 8742   4.468   0.113   3.788  0.5604 -0.3529  0.0368
 2168SOL    HW2 8743   4.475   0.204   3.817 -0.7506 -0.4149  0.5680
 2168SOL    HW3 8744   4.457   0.119   3.694  2.3811 -0.0521 -0.1833
 2168SOL    MW4 8745   4.468   0.126   3.780  0.6280 -0.3214  0.0777
 2169SOL     OW 8746   4.444   0.375   3.875 -0.4804 -0.0855 -0.4035
 2169SOL    HW2 8747   4.361   0.422   3.865 -0.4996 -0.0208  0.0514
 2169SOL    HW3 8748   4.511   0.438   3.849 -0.4371  0.5245  1.1714
 2169SOL    MW4 8749   4.442   0.389   3.870 -0.4773  0.0035 -0.1357
 2170SOL     OW 8750   0.163   0.533   3.787  0.0222  0.3493  0.3372
 2170SOL    HW2 8751   0.200   0.609   3.831 -1.0453  0.7137  0.6175
 2170SOL    HW3 8752   0.185   0.545   3.695 -0.3092  1.0977  0.3514
 2170SOL    MW4 8753   0.171   0.544   3.781 -0.1624  0.4960  0.3760
 2171SOL     OW 8754   0.264   0.752   3.893  0.1511  0.1774  0.2580
 2171SOL    HW2 8755   0.239   0.739   3.984 -0.5289  0.4935  0.1186
 2171SOL    HW3 8756   0.186   0.789   3.852  1.0151  1.6530 -0.0750
 2171SOL    MW4 8757   0.250   0.755   3.899  0.1754  0.4137  0.1955
 2172SOL     OW 8758   0.035   0.869   3.777  0.1233  0.1661 -0.1087
 2172SOL    HW2 8759  -0.040   0.826   3.818  1.2740 -1.1598  0.6791
 2172SOL    HW3 8760   0.035   0.958   3.814 -0.8469  0.0643  0.1542
 2172SOL    MW4 8761   0.025   0.875   3.788  0.1469 -0.0222  0.0300
 2173SOL     OW 8762   0.026   1.134   3.903  0.3038  0.8335  0.3670
 2173SOL    HW2 8763  -0.043   1.197   3.881  0.5535  0.0526 -2.8135
 2173SOL    HW3 8764   0.107   1.176   3.875  0.7476  0.1954  0.6917
 2173SOL    MW4 8765   0.027   1.148   3.897  0.3953  0.6462 -0.0095
 2174SOL     OW 8766   0.238   1.269   3.798  0.0887 -0.0456  0.1646
 2174SOL    HW2 8767   0.232   1.355   3.840 -0.9764  0.2506 -0.5863
 2174SOL    HW3 8768   0.235   1.288   3.704  3.8313 -0.5969 -0.1391
 2174SOL    MW4 8769   0.237   1.283   3.791  0.4420 -0.0792  0.0253
 2175SOL     OW 8770   0.215   1.548   3.908  0.1718  0.0309  0.0187
 2175SOL    HW2 8771   0.213   1.526   4.001  0.9639  0.0338  0.0421
 2175SOL    HW3 8772   0.127   1.580   3.888  0.3300  1.0943  1.0228
 2175SOL    MW4 8773   0.203   1.549   3.917  0.2972  0.1714  0.1545
 2176SOL     OW 8774   0.003   1.711   3.819  0.1352 -0.0239 -0.0424
 2176SOL    HW2 8775   0.005   1.802   3.850  0.6566 -0.1205  0.2160
 2176SOL    HW3 8776   0.016   1.717   3.725 -0.6070  0.2199 -0.1329
 2176SOL    MW4 8777   0.005   1.723   3.811  0.1061 -0.0045 -0.0205
 2177SOL     OW 8778   0.002   1.973   3.923 -0.0228  0.0347  0.3725
 2177SOL    HW2 8779   0.002   1.951   4.016  1.8420  1.0182  0.6338
 2177SOL    HW3 8780  -0.089   1.996   3.903 -0.3197  0.4246  2.1033
 2177SOL    MW4 8781  -0.010   1.973   3.932  0.1841  0.2159  0.6356
 2178SOL     OW 8782   0.216   2.094   3.765  0.5323  0.1391 -0.0476
 2178SOL    HW2 8783   0.222   2.187   3.788  1.6379 -0.0509  0.5174
 2178SOL    HW3 8784   0.148   2.059   3.823  0.3442  0.5340 -0.0308
 2178SOL    MW4 8785   0.208   2.102   3.776  0.6533  0.1659  0.0291
 2179SOL     OW 8786   0.220   2.363   3.828 -0.0623  0.0931 -0.3317
 2179SOL    HW2 8787   0.203   2.347   3.920  0.3566 -1.5839 -0.5234
 2179SOL    HW3 8788   0.144   2.412   3.797 -0.3585  0.3532  0.8187
 2179SOL    MW4 8789   0.208   2.367   3.836 -0.0462 -0.0937 -0.2053
 2180SOL     OW 8790   4.467   2.498   3.735 -0.2938 -0.1629 -0.3954
 2180SOL    HW2 8791   4.398   2.440   3.769  0.0085 -0.4932 -0.3380
 2180SOL    HW3 8792   4.444   2.585   3.768 -0.0984 -0.4516  0.5175
 2180SOL    MW4 8793   4.455   2.502   3.744 -0.2284 -0.2449 -0.2675
 2181SOL     OW 8794   4.468   2.753   3.854  0.1567  0.1194  0.5363
 2181SOL    HW2 8795   4.477   2.746   3.949  1.4159 -0.1519  0.4009
 2181SOL    HW3 8796   4.550   2.791   3.824 -0.6823  1.2954 -0.3406
 2181SOL    MW4 8797   4.480   2.757   3.862  0.2117  0.2391  0.4029
 2182SOL     OW 8798   0.222   2.871   3.769  0.0217  0.1282 -0.1314
 2182SOL    HW2 8799   0.299   2.820   3.795 -0.2627 -0.3089 -0.1424
 2182SOL    HW3 8800   0.225   2.871   3.673  0.8701  1.4345 -0.1130
 2182SOL    MW4 8801   0.233   2.864   3.760  0.0961  0.2429 -0.1307
 2183SOL     OW 8802   0.229   3.128   3.907  0.4729  0.3691 -0.4190
 2183SOL    HW2 8803   0.217   3.124   4.002 -1.8683 -0.8842 -0.7461
 2183SOL    HW3 8804   0.211   3.039   3.877 -0.8546  1.2362 -2.2522
 2183SOL    MW4 8805   0.225   3.116   3.916 -0.0111  0.3183 -0.7041
 2184SOL     OW 8806   4.466   3.219   3.820  0.3437  0.1002 -0.2429
 2184SOL    HW2 8807   4.547   3.173   3.841  0.3519 -0.5809 -1.7401
 2184SOL    HW3 8808   4.463   3.221   3.724 -1.5300 -0.0883 -0.2071
 2184SOL    MW4 8809   4.477   3.213   3.810  0.0973 -0.0148 -0.4358
 2185SOL     OW 8810   0.000   3.488   3.833  0.4545 -0.5220 -0.4382
 2185SOL    HW2 8811   0.090   3.513   3.812  0.7627 -1.4565 -0.2420
 2185SOL    HW3 8812  -0.002   3.394   3.820 -0.0170 -0.7679  1.2793
 2185SOL    MW4 8813   0.012   3.479   3.828  0.4330 -0.6776 -0.1853
 2186SOL     OW 8814   0.249   3.603   3.754  0.4266  0.3620  0.3009
 2186SOL    HW2 8815   0.330   3.574   3.797 -0.3677 -2.3096  0.0596
 2186SOL    HW3 8816   0.223   3.680   3.803  2.4641  0.5487  1.1576
 2186SOL    MW4 8817   0.256   3.609   3.766  0.5907  0.0341  0.3819
 2187SOL     OW 8818   0.199   3.884   3.869 -0.2276 -0.4262  0.5530
 2187SOL    HW2 8819   0.188   3.888   3.964  0.5910 -1.7328  0.7104
 2187SOL    HW3 8820   0.280   3.931   3.852 -0.3808 -0.1811  0.4982
 2187SOL    MW4 8821   0.208   3.891   3.879 -0.1398 -0.5665  0.5667
 2188SOL     OW 8822   4.471   4.001   3.743 -0.1018 -0.1254 -0.1902
 2188SOL    HW2 8823   4.399   3.952   3.782  0.9775 -2.5524 -1.2063
 2188SOL    HW3 8824   4.546   3.982   3.800 -0.2294  2.5365  0.9753
 2188SOL    MW4 8825   4.471   3.992   3.756  0.0234 -0.0942 -0.1705
 2189SOL     OW 8826   4.438   4.237   3.865 -0.2492 -0.1455 -0.5595
 2189SOL    HW2 8827   4.520   4.284   3.849  0.2291 -1.3050 -1.5454
 2189SOL    HW3 8828   4.445   4.157   3.813 -1.3769 -0.9680  0.5266
 2189SOL    MW4 8829   4.449   4.233   3.856 -0.3347 -0.4067 -0.5462
 2190SOL     OW 8830   0.170   4.385   3.820  0.3367  0.2001  0.4007
 2190SOL    HW2 8831   0.256   4.345   3.822 -0.1801 -1.0056 -0.5614
 2190SOL    HW3 8832   0.186   4.480   3.823  1.6725 -0.0254  0.2621
 2190SOL    MW4 8833   0.183   4.393   3.820  0.4447  0.0114  0.2553
 2191SOL     OW 8834   0.662   0.001   3.942  0.1809  0.3709 -0.2241
 2191SOL    HW2 8835   0.685  -0.084   3.903 -0.4833 -1.3057  2.8725
 2191SOL    HW3 8836   0.585   0.030   3.893  0.0186 -1.1411 -0.8904
 2191SOL    MW4 8837   0.655  -0.007   3.930  0.0719 -0.0496  0.0968
 2192SOL     OW 8838   0.454   0.127   3.774  0.0939  0.2909 -0.3466
 2192SOL    HW2 8839   0.438   0.216   3.805 -0.8537 -0.1257  0.3743
 2192SOL    HW3 8840   0.369   0.083   3.783  1.1357 -1.3722  1.5632
 2192SOL    MW4 8841   0.441   0.133   3.779  0.1064  0.0165  0.0005
 2193SOL     OW 8842   0.385   0.385   3.878 -0.1085  0.0179  0.3226
 2193SOL    HW2 8843   0.446   0.446   3.837 -0.2971 -0.6353 -0.9485
 2193SOL    HW3 8844   0.299   0.411   3.845 -0.2202 -0.7420 -0.0025
 2193SOL    MW4 8845   0.382   0.397   3.868 -0.1481 -0.1686  0.1121
 2194SOL     OW 8846   0.616   0.522   3.793 -0.3095 -0.5275  0.3527
 2194SOL    HW2 8847   0.682   0.458   3.820  0.1463  0.4926  1.7265
 2194SOL    HW3 8848   0.644   0.604   3.834 -2.3262 -0.0240  0.7807
 2194SOL    MW4 8849   0.629   0.524   3.802 -0.5154 -0.3265  0.5903
 2195SOL     OW 8850   0.717   0.774   3.903  0.2133 -0.0991 -0.1584
 2195SOL    HW2 8851   0.796   0.817   3.871  0.7882  0.2960  1.7112
 2195SOL    HW3 8852   0.645   0.830   3.872  0.7746  0.5356 -0.3381
 2195SOL    MW4 8853   0.718   0.787   3.895  0.3633  0.0367  0.0646
 2196SOL     OW 8854   0.495   0.886   3.789 -0.2257  0.4110 -0.8307
 2196SOL    HW2 8855   0.494   0.968   3.838  1.9260  0.0322 -0.1043
 2196SOL    HW3 8856   0.410   0.845   3.807  0.2527  0.6018  2.0147
 2196SOL    MW4 8857   0.483   0.891   3.798  0.1213  0.3862 -0.3595
 2197SOL     OW 8858   0.473   1.140   3.910 -0.0000  0.2364  0.4168
 2197SOL    HW2 8859   0.540   1.193   3.866 -0.6071 -0.8407 -1.8457
 2197SOL    HW3 8860   0.392   1.190   3.898 -0.0890  0.1689  0.7386
 2197SOL    MW4 8861   0.471   1.154   3.903 -0.0919  0.0855  0.1607
 2198SOL     OW 8862   0.650   1.316   3.773  0.0028  0.2144  0.1991
 2198SOL    HW2 8863   0.729   1.272   3.804 -1.7674 -2.6236  0.9121
 2198SOL    HW3 8864   0.652   1.306   3.678  0.6751  0.4483  0.1894
 2198SOL    MW4 8865   0.661   1.309   3.765 -0.1420 -0.1292  0.2921
 2199SOL     OW 8866   0.629   1.573   3.884 -0.3913  0.2591 -0.3068
 2199SOL    HW2 8867   0.709   1.614   3.852 -0.3796 -0.2281 -0.9287
 2199SOL    HW3 8868   0.627   1.488   3.840 -0.8067 -0.0827  0.3701
 2199SOL    MW4 8869   0.639   1.567   3.874 -0.4446  0.1498 -0.2995
 2200SOL     OW 8870   0.413   1.687   3.798 -0.0784 -0.2908 -0.2278
 2200SOL    HW2 8871   0.492   1.645   3.835  0.1769 -0.1042 -0.5664
 2200SOL    HW3 8872   0.341   1.635   3.833  0.2683 -1.4857 -1.2349
 2200SOL    MW4 8873   0.414   1.675   3.808  0.0011 -0.4238 -0.4051
 2201SOL     OW 8874   0.425   1.935   3.879 -0.3465  0.2833 -0.4694
 2201SOL    HW2 8875   0.419   1.843   3.851  1.4722 -0.0391  0.1252
 2201SOL    HW3 8876   0.348   1.976   3.841 -1.4310 -1.5963 -0.3779
 2201SOL    MW4 8877   0.414   1.928   3.870 -0.2496 -0.0073 -0.3788
 2202SOL     OW 8878   0.636   2.035   3.718 -0.5057 -0.2596  0.0959
 2202SOL    HW2 8879   0.640   2.130   3.729 -1.7455  0.1466 -2.6455
 2202SOL    HW3 8880   0.560   2.009   3.769 -0.6571  0.3227  0.1769
 2202SOL    MW4 8881   0.627   2.044   3.726 -0.6892 -0.1292 -0.2551
 2203SOL     OW 8882   0.659   2.289   3.846  0.0923  0.1367 -0.5942
 2203SOL    HW2 8883   0.737   2.344   3.835 -1.1287  2.1713  0.6275
 2203SOL    HW3 8884   0.586   2.347   3.826 -1.2352 -1.0913  0.5669
 2203SOL    MW4 8885   0.660   2.304   3.842 -0.2440  0.2432 -0.2801
 2204SOL     OW 8886   0.453   2.466   3.772  0.7813 -0.2430 -0.0638
 2204SOL    HW2 8887   0.366   2.437   3.799  0.0079  1.0381 -1.0905
 2204SOL    HW3 8888   0.459   2.443   3.680  0.9223  1.0209 -0.3859
 2204SOL    MW4 8889   0.443   2.459   3.763  0.6979  0.0927 -0.2418
 2205SOL     OW 8890   0.446   2.735   3.840 -0.0150 -0.5683 -0.2059
 2205SOL    HW2 8891   0.526   2.776   3.806  0.0398  0.4419  1.1214
 2205SOL    HW3 8892   0.445   2.649   3.799  0.9857 -0.0403 -1.3887
 2205SOL    MW4 8893   0.457   2.729   3.830  0.1243 -0.3655 -0.1867
 2206SOL     OW 8894   0.687   2.850   3.782  0.2328  0.0578 -0.3293
 2206SOL    HW2 8895   0.758   2.796   3.815 -0.9678 -0.0597  2.1537
 2206SOL    HW3 8896   0.696   2.847   3.686  3.0899 -0.5292 -0.0588
 2206SOL    MW4 8897   0.697   2.843   3.773  0.4514 -0.0350  0.0339
 2207SOL     OW 8898   0.675   3.103   3.906  0.3083 -0.5719 -0.4195
 2207SOL    HW2 8899   0.655   3.116   3.999  0.2830 -0.7825 -0.3942
 2207SOL    HW3 8900   0.692   3.009   3.899 -0.9241 -0.7584 -0.8689
 2207SOL    MW4 8901   0.675   3.092   3.917  0.1424 -0.6242 -0.4752
 2208SOL     OW 8902   0.459   3.236   3.780  0.2314  0.2917 -0.1270
 2208SOL    HW2 8903   0.536   3.195   3.820  0.2047  2.4545  2.2180
 2208SOL    HW3 8904   0.385   3.204   3.832  0.0871  2.2168  0.9060
 2208SOL    MW4 8905   0.460   3.226   3.792  0.2089  0.8311  0.3185
 2209SOL     OW 8906   0.475   3.506   3.877  0.0284 -0.0647  0.4468
 2209SOL    HW2 8907   0.558   3.536   3.840  1.1231  0.0629  2.9148
 2209SOL    HW3 8908   0.475   3.411   3.863 -0.9969  0.3147 -2.5558
 2209SOL    MW4 8909   0.486   3.497   3.870  0.0375  0.0021  0.3765
 2210SOL     OW 8910   0.723   3.596   3.807 -0.4933  0.0712  0.0975
 2210SOL    HW2 8911   0.693   3.683   3.834  1.2306  0.7168 -0.0036
 2210SOL    HW3 8912   0.713   3.597   3.712  0.1150  0.4113  0.0294
 2210SOL    MW4 8913   0.718   3.608   3.798 -0.1856  0.2012  0.0753
 2211SOL     OW 8914   0.661   3.850   3.903  0.3385  0.8865  0.3762
 2211SOL    HW2 8915   0.655   3.863   3.998  0.8160  1.7316  0.2925
 2211SOL    HW3 8916   0.746   3.885   3.879  0.8985 -0.7719 -0.1459
 2211SOL    MW4 8917   0.671   3.856   3.912  0.4753  0.7792  0.2964
 2212SOL     OW 8918   0.432   4.006   3.822  0.6838  0.4608  0.1145
 2212SOL    HW2 8919   0.506   3.960   3.863 -0.2435 -1.7358 -0.6096
 2212SOL    HW3 8920   0.442   3.989   3.729  0.2387  1.6741 -0.1704
 2212SOL    MW4 8921   0.443   3.998   3.815  0.5027  0.3312 -0.0186
 2213SOL     OW 8922   0.425   4.286   3.819 -0.6245 -0.2814 -0.7707
 2213SOL    HW2 8923   0.506   4.334   3.800 -0.1682  0.4004  2.5941
 2213SOL    HW3 8924   0.449   4.194   3.809  0.6738 -0.0969  0.5047
 2213SOL    MW4 8925   0.439   4.280   3.815 -0.3930 -0.1669 -0.1588
 2214SOL     OW 8926   0.690   4.439   3.781 -0.1415 -0.0411 -0.0127
 2214SOL    HW2 8927   0.756   4.371   3.793  0.2542  0.4680  0.7715
 2214SOL    HW3 8928   0.676   4.443   3.686 -0.8964 -1.8926  0.0054
 2214SOL    MW4 8929   0.697   4.430   3.770 -0.1888 -0.2179  0.0932
 2215SOL     OW 8930   1.068   0.004   3.856  0.0506  0.3491 -0.3512
 2215SOL    HW2 8931   1.144   0.059   3.839 -0.9551  1.4839 -1.3102
 2215SOL    HW3 8932   1.092  -0.082   3.822  0.9358  0.6751 -0.5650
 2215SOL    MW4 8933   1.081  -0.000   3.849  0.0348  0.5417 -0.5057
 2216SOL     OW 8934   0.841   0.110   3.755 -0.2533 -0.3705  0.0082
 2216SOL    HW2 8935   0.916   0.066   3.795 -0.1558 -0.9000 -0.7247
 2216SOL    HW3 8936   0.767   0.090   3.812  0.0759 -0.2298  0.4863
 2216SOL    MW4 8937   0.841   0.102   3.768 -0.1970 -0.4218 -0.0253
 2217SOL     OW 8938   0.856   0.382   3.850 -0.1325  0.2437 -0.0978
 2217SOL    HW2 8939   0.873   0.393   3.943 -2.0399  1.4546  0.1269
 2217SOL    HW3 8940   0.879   0.291   3.831  0.6242  0.1105  1.4649
 2217SOL    MW4 8941   0.861   0.371   3.859 -0.2844  0.3859  0.1378
 2218SOL     OW 8942   1.054   0.546   3.774 -0.1028  0.1540 -0.0360
 2218SOL    HW2 8943   1.113   0.482   3.812  0.6260  0.8561  0.0391
 2218SOL    HW3 8944   0.967   0.517   3.798  0.2239 -0.7906  0.0139
 2218SOL    MW4 8945   1.050   0.534   3.782  0.0365  0.1220 -0.0193
 2219SOL     OW 8946   1.127   0.787   3.905 -0.1971  0.2089 -0.0215
 2219SOL    HW2 8947   1.133   0.787   4.000 -1.9313  2.1642  0.1159
 2219SOL    HW3 8948   1.109   0.696   3.882 -1.5799  0.0349  1.6633
 2219SOL    MW4 8949   1.125   0.775   3.914 -0.6082  0.4440  0.2189
 2220SOL     OW 8950   0.915   0.907   3.762 -0.0236 -0.4054 -0.1591
 2220SOL    HW2 8951   1.002   0.882   3.794  0.0204  0.1623  0.1789
 2220SOL    HW3 8952   0.919   0.896   3.667 -0.2419 -2.4044  0.0336
 2220SOL    MW4 8953   0.927   0.902   3.754 -0.0466 -0.5942 -0.0892
 2221SOL     OW 8954   0.909   1.179   3.831 -0.6010 -0.0371  0.2122
 2221SOL    HW2 8955   0.929   1.160   3.922 -0.8348 -0.3441  0.1999
 2221SOL    HW3 8956   0.887   1.094   3.793 -0.7603  0.1277 -0.0657
 2221SOL    MW4 8957   0.909   1.165   3.838 -0.6529 -0.0559  0.1740
 2222SOL     OW 8958   1.121   1.323   3.734  0.2398  0.8821 -0.0171
 2222SOL    HW2 8959   1.114   1.412   3.769 -0.9067  0.6226  0.4284
 2222SOL    HW3 8960   1.052   1.274   3.778  0.4778 -0.0882 -0.7073
 2222SOL    MW4 8961   1.111   1.328   3.744  0.1199  0.7199 -0.0494
 2223SOL     OW 8962   1.119   1.607   3.819  0.4179  0.0587 -0.5357
 2223SOL    HW2 8963   1.102   1.584   3.910 -1.5952  2.1936 -0.3149
 2223SOL    HW3 8964   1.213   1.622   3.815  0.2345  2.0821  1.7462
 2223SOL    MW4 8965   1.129   1.606   3.831  0.1280  0.6074 -0.2055
 2224SOL     OW 8966   0.855   1.694   3.755  0.5196  0.1246  0.1181
 2224SOL    HW2 8967   0.934   1.645   3.781  1.1918  1.5753  0.8344
 2224SOL    HW3 8968   0.869   1.712   3.662  1.1102  0.5274  0.2839
 2224SOL    MW4 8969   0.867   1.690   3.746  0.6863  0.3692  0.2341
 2225SOL     OW 8970   0.843   1.951   3.866  0.0582  0.4557 -0.3634
 2225SOL    HW2 8971   0.856   1.859   3.843  1.1374  0.7746 -1.0259
 2225SOL    HW3 8972   0.783   1.985   3.800 -1.1094 -0.0049  0.4349
 2225SOL    MW4 8973   0.837   1.943   3.854  0.0464  0.4370 -0.3455
 2226SOL     OW 8974   1.095   2.036   3.803  0.4761  0.0289 -0.4062
 2226SOL    HW2 8975   1.013   1.996   3.832  1.2455 -0.8924  0.5427
 2226SOL    HW3 8976   1.087   2.042   3.708 -0.0371 -1.5745 -0.4877
 2226SOL    MW4 8977   1.083   2.031   3.794  0.5100 -0.3045 -0.2918
 2227SOL     OW 8978   1.133   2.299   3.890 -0.3558 -0.1427 -0.0742
 2227SOL    HW2 8979   1.122   2.299   3.985 -1.4569  0.1955 -0.1984
 2227SOL    HW3 8980   1.101   2.213   3.862 -2.3278  0.6581 -0.3820
 2227SOL    MW4 8981   1.128   2.288   3.899 -0.7614  0.0074 -0.1314
 2228SOL     OW 8982   0.935   2.446   3.758  0.3721 -0.1003 -0.3216
 2228SOL    HW2 8983   0.920   2.530   3.801 -0.9797  0.0303 -1.0310
 2228SOL    HW3 8984   1.000   2.402   3.813 -0.7682  0.3687  1.4407
 2228SOL    MW4 8985   0.942   2.451   3.770  0.0433 -0.0210 -0.1829
 2229SOL     OW 8986   0.896   2.695   3.869  0.1790 -0.4082  0.3386
 2229SOL    HW2 8987   0.894   2.725   3.959 -0.6013 -0.1684  0.2462
 2229SOL    HW3 8988   0.963   2.749   3.827 -0.7643  0.7860  0.3293
 2229SOL    MW4 8989   0.905   2.706   3.875 -0.0484 -0.2191  0.3254
 2230SOL     OW 8990   1.096   2.854   3.749 -0.4859 -0.0147 -0.2284
 2230SOL    HW2 8991   1.178   2.809   3.772 -0.8446 -0.0830  0.9350
 2230SOL    HW3 8992   1.094   2.930   3.808 -1.2054  0.0536 -0.3467
 2230SOL    MW4 8993   1.107   2.858   3.760 -0.6282 -0.0145 -0.0904
 2231SOL     OW 8994   1.105   3.090   3.911  0.4144  0.0807  0.2641
 2231SOL    HW2 8995   1.179   3.145   3.885 -0.3609  0.8669 -0.3012
 2231SOL    HW3 8996   1.032   3.121   3.859 -0.5416 -0.0889  1.4727
 2231SOL    MW4 8997   1.105   3.101   3.901  0.1860  0.1619  0.3490
 2232SOL     OW 8998   0.893   3.192   3.790 -0.1806 -0.2332  0.6806
 2232SOL    HW2 8999   0.805   3.182   3.825 -1.0927  0.9671 -1.1665
 2232SOL    HW3 9000   0.880   3.200   3.695  1.8582  0.4813  0.4337
 2232SOL    MW4 9001   0.880   3.192   3.782 -0.0319  0.0196  0.4041
 2233SOL     OW 9002   0.917   3.447   3.921  0.3462  0.0807  0.0023
 2233SOL    HW2 9003   0.898   3.364   3.876  1.3310 -1.2572  1.9822
 2233SOL    HW3 9004   0.840   3.501   3.905 -0.2210 -1.1246 -1.5099
 2233SOL    MW4 9005   0.904   3.443   3.913  0.4013 -0.2549  0.0637
 2234SOL     OW 9006   1.136   3.561   3.777  0.1287 -0.1689  0.1742
 2234SOL    HW2 9007   1.112   3.654   3.783 -1.7049 -0.4162 -2.6961
 2234SOL    HW3 9008   1.073   3.516   3.834 -0.9647  0.0596 -0.8330
 2234SOL    MW4 9009   1.125   3.567   3.786 -0.2574 -0.1712 -0.3374
 2235SOL     OW 9010   1.093   3.830   3.833 -0.1969 -0.0327  0.0190
 2235SOL    HW2 9011   1.092   3.818   3.928 -1.0103  0.6311  0.1040
 2235SOL    HW3 9012   1.171   3.881   3.815  0.3824 -0.8364  0.2451
 2235SOL    MW4 9013   1.103   3.835   3.843 -0.2278 -0.0510  0.0598
 2236SOL     OW 9014   0.866   3.971   3.753  0.2693  0.0259  0.3738
 2236SOL    HW2 9015   0.942   3.926   3.789  0.8828  0.8154  0.0799
 2236SOL    HW3 9016   0.891   3.994   3.663 -0.6166 -0.4311  0.0023
 2236SOL    MW4 9017   0.880   3.968   3.746  0.2334  0.0699  0.2856
 2237SOL     OW 9018   0.884   4.246   3.833 -0.0368  0.3383 -0.2112
 2237SOL    HW2 9019   0.868   4.227   3.925 -0.2866 -0.0795 -0.3393
 2237SOL    HW3 9020   0.891   4.160   3.792  1.1995  0.5162 -0.3920
 2237SOL    MW4 9021   0.882   4.232   3.840  0.0933  0.3066 -0.2520
 2238SOL     OW 9022   1.117   4.412   3.738  0.0338  0.1698  0.3909
 2238SOL    HW2 9023   1.037   4.366   3.764  0.6510 -1.6242 -0.8326
 2238SOL    HW3 9024   1.136   4.381   3.650  0.9576  2.1349 -0.1309
 2238SOL    MW4 9025   1.109   4.402   3.730  0.2371  0.1926  0.1607
 2239SOL     OW 9026   1.551   0.012   3.842  0.1928 -0.1704  0.0761
 2239SOL    HW2 9027   1.577  -0.013   3.931  0.4391 -1.2219 -0.2861
 2239SOL    HW3 9028   1.522  -0.069   3.801  1.6917 -0.0038 -1.3577
 2239SOL    MW4 9029   1.551  -0.002   3.848  0.4231 -0.2875 -0.1609
 2240SOL     OW 9030   1.310   0.138   3.765  0.3438 -0.0497 -0.2434
 2240SOL    HW2 9031   1.303   0.227   3.798  0.4720  0.1198 -0.6624
 2240SOL    HW3 9032   1.397   0.108   3.793  1.0329  0.5960 -1.6136
 2240SOL    MW4 9033   1.321   0.145   3.773  0.4516  0.0579 -0.4795
 2241SOL     OW 9034   1.286   0.388   3.876  0.1536 -0.0471 -0.6659
 2241SOL    HW2 9035   1.288   0.372   3.970 -0.6947  0.5736 -0.5395
 2241SOL    HW3 9036   1.370   0.431   3.857  0.1890  0.1169 -0.1394
 2241SOL    MW4 9037   1.297   0.392   3.886  0.0464  0.0564 -0.5796
 2242SOL     OW 9038   1.546   0.497   3.797  0.4077  0.3283  0.3507
 2242SOL    HW2 9039   1.626   0.462   3.838  0.3264  0.2996  0.4868
 2242SOL    HW3 9040   1.549   0.591   3.815 -1.5877 -0.1913  3.8699
 2242SOL    MW4 9041   1.557   0.505   3.805  0.1338  0.2559  0.8330
 2243SOL     OW 9042   1.543   0.770   3.868  0.2109  0.5344  0.3327
 2243SOL    HW2 9043   1.618   0.824   3.841 -0.0083  1.5960  1.8057
 2243SOL    HW3 9044   1.467   0.827   3.854  0.0061  0.7492  2.2070
 2243SOL    MW4 9045   1.543   0.785   3.862  0.1550  0.7028  0.7741
 2244SOL     OW 9046   1.336   0.929   3.783  0.2670  0.1964 -0.2919
 2244SOL    HW2 9047   1.325   1.006   3.838 -0.3748 -0.2587  0.2218
 2244SOL    HW3 9048   1.268   0.869   3.811  1.0052 -0.7230 -0.4222
 2244SOL    MW4 9049   1.326   0.932   3.794  0.2795  0.0150 -0.2413
 2245SOL     OW 9050   1.308   1.198   3.889  0.2256  0.3823  0.0885
 2245SOL    HW2 9051   1.390   1.233   3.855  0.1288 -0.0027 -0.5589
 2245SOL    HW3 9052   1.241   1.234   3.831 -0.1693  1.5479  1.2608
 2245SOL    MW4 9053   1.310   1.207   3.877  0.1608  0.4853  0.1581
 2246SOL     OW 9054   1.553   1.310   3.810  0.0238  0.4912  0.1342
 2246SOL    HW2 9055   1.640   1.277   3.832 -0.1866 -0.1266  0.0770
 2246SOL    HW3 9056   1.553   1.401   3.838  0.8041  0.5860 -0.1902
 2246SOL    MW4 9057   1.564   1.317   3.817  0.0989  0.4222  0.0834
 2247SOL     OW 9058   1.591   1.544   3.942 -0.1342  0.3021 -0.4165
 2247SOL    HW2 9059   1.591   1.568   4.035  0.4887 -0.7463 -0.1352
 2247SOL    HW3 9060   1.670   1.586   3.907  0.4984 -0.6104 -0.1101
 2247SOL    MW4 9061   1.602   1.553   3.950  0.0315  0.0434 -0.3390
 2248SOL     OW 9062   1.396   1.652   3.766 -0.0407  0.0641  0.1291
 2248SOL    HW2 9063   1.393   1.747   3.780 -0.6724 -0.0858  1.0703
 2248SOL    HW3 9064   1.452   1.619   3.836  1.2843 -0.1138 -1.0155
 2248SOL    MW4 9065   1.403   1.660   3.777  0.0509  0.0209  0.1023
 2249SOL     OW 9066   1.342   1.904   3.835  0.0337 -0.1962 -0.3040
 2249SOL    HW2 9067   1.359   1.911   3.929  0.2413 -0.7733 -0.2908
 2249SOL    HW3 9068   1.258   1.947   3.822  0.1148  0.0885  0.1112
 2249SOL    MW4 9069   1.333   1.910   3.846  0.0719 -0.2350 -0.2475
 2250SOL     OW 9070   1.529   2.107   3.745 -0.4267  0.0732 -0.3168
 2250SOL    HW2 9071   1.458   2.054   3.780  0.1230 -0.3680  0.1469
 2250SOL    HW3 9072   1.549   2.068   3.660 -0.0003 -0.4962  0.0379
 2250SOL    MW4 9073   1.523   2.095   3.739 -0.2979 -0.0601 -0.2089
 2251SOL     OW 9074   1.590   2.354   3.859  0.1482 -0.3331 -0.3456
 2251SOL    HW2 9075   1.673   2.395   3.833  0.7719 -1.9369 -0.9417
 2251SOL    HW3 9076   1.585   2.274   3.806 -1.7711 -0.2722 -0.3015
 2251SOL    MW4 9077   1.600   2.349   3.848 -0.0226 -0.5367 -0.4187
 2252SOL     OW 9078   1.342   2.440   3.772 -0.1029  0.1350  0.0078
 2252SOL    HW2 9079   1.431   2.416   3.798 -0.1718 -0.5618 -0.3971
 2252SOL    HW3 9080   1.285   2.386   3.828 -0.2980  1.4763  1.1443
 2252SOL    MW4 9081   1.346   2.430   3.783 -0.1377  0.2198  0.1042
 2253SOL     OW 9082   1.326   2.709   3.812  1.2107 -0.0031  0.3710
 2253SOL    HW2 9083   1.329   2.714   3.907 -0.6684 -0.1309  0.4505
 2253SOL    HW3 9084   1.327   2.615   3.793 -1.7039 -0.0930  0.4287
 2253SOL    MW4 9085   1.326   2.697   3.822  0.5783 -0.0317  0.3893
 2254SOL     OW 9086   1.563   2.832   3.761  0.0067  0.3320  0.2573
 2254SOL    HW2 9087   1.477   2.791   3.773 -0.2786  0.6924 -0.5296
 2254SOL    HW3 9088   1.571   2.843   3.666 -0.5882  3.5509  0.5377
 2254SOL    MW4 9089   1.552   2.828   3.750 -0.1094  0.8042  0.1905
 2255SOL     OW 9090   1.553   3.086   3.890  0.3082  0.3002  0.0820
 2255SOL    HW2 9091   1.576   3.090   3.983  0.6385  0.6332 -0.0136
 2255SOL    HW3 9092   1.531   2.994   3.875  0.7420  0.1431  0.3767
 2255SOL    MW4 9093   1.553   3.074   3.900  0.4091  0.3233  0.1085
 2256SOL     OW 9094   1.323   3.253   3.827 -0.3845 -0.0100  0.3794
 2256SOL    HW2 9095   1.335   3.345   3.850  1.6273 -0.3069  0.5744
 2256SOL    HW3 9096   1.406   3.211   3.850 -1.7587 -2.1561  1.5717
 2256SOL    MW4 9097   1.336   3.260   3.833 -0.3003 -0.3326  0.5624
 2257SOL     OW 9098   1.391   3.512   3.902 -0.1120  0.0738  0.0441
 2257SOL    HW2 9099   1.447   3.522   3.825  0.9343  1.4992  0.9710
 2257SOL    HW3 9100   1.304   3.540   3.872  0.0146 -0.5644 -0.9458
 2257SOL    MW4 9101   1.387   3.517   3.888  0.0427  0.1776  0.0358
 2258SOL     OW 9102   1.583   3.589   3.727  0.3543 -0.2289  0.5148
 2258SOL    HW2 9103   1.654   3.544   3.774  0.0472 -0.3414  0.8719
 2258SOL    HW3 9104   1.573   3.672   3.773 -0.3193 -0.5737  0.9933
 2258SOL    MW4 9105   1.591   3.594   3.739  0.2249 -0.2892  0.6254
 2259SOL     OW 9106   1.560   3.842   3.836  0.7850  0.1849  0.4534
 2259SOL    HW2 9107   1.579   3.842   3.930  0.1106 -1.7057  0.6171
 2259SOL    HW3 9108   1.473   3.880   3.829 -0.2260 -1.9622  0.8739
 2259SOL    MW4 9109   1.551   3.847   3.848  0.5627 -0.3479  0.5305
 2260SOL     OW 9110   1.313   3.988   3.783 -0.2708 -0.0436 -0.0263
 2260SOL    HW2 9111   1.307   4.080   3.810 -0.8027  0.3405 -1.3903
 2260SOL    HW3 9112   1.336   3.992   3.690 -1.2913 -1.2779 -0.3433
 2260SOL    MW4 9113   1.315   4.001   3.774 -0.4755 -0.1559 -0.2480
 2261SOL     OW 9114   1.334   4.265   3.841  0.5805  0.2860  0.3535
 2261SOL    HW2 9115   1.402   4.319   3.801  0.3637  0.1569 -0.1896
 2261SOL    HW3 9116   1.252   4.298   3.804  0.4360 -0.3047  0.1438
 2261SOL    MW4 9117   1.332   4.276   3.831  0.5327  0.1912  0.2542
 2262SOL     OW 9118   1.527   4.420   3.712  0.3270  0.2375  0.0235
 2262SOL    HW2 9119   1.612   4.379   3.732 -0.7079 -2.3405 -0.5886
 2262SOL    HW3 9120   1.514   4.403   3.618 -0.7930  0.7295  0.0840
 2262SOL    MW4 9121   1.537   4.412   3.702  0.0428 -0.0372 -0.0491
 2263SOL     OW 9122   1.968   0.000   3.874  0.1832 -0.1319 -1.1122
 2263SOL    HW2 9123   2.042   0.042   3.830  0.3035 -1.2709 -2.0204
 2263SOL    HW3 9124   1.973  -0.091   3.847 -1.0487 -0.3932 -0.4819
 2263SOL    MW4 9125   1.978  -0.006   3.864  0.0365 -0.3166 -1.1492
 2264SOL     OW 9126   1.769   0.126   3.730 -0.6345 -0.9484 -0.7262
 2264SOL    HW2 9127   1.837   0.079   3.777 -2.0102 -1.4743  0.7941
 2264SOL    HW3 9128   1.687   0.095   3.769 -1.5935  3.2960  0.9218
 2264SOL    MW4 9129   1.767   0.116   3.741 -0.9426 -0.4578 -0.3080
 2265SOL     OW 9130   1.768   0.364   3.905  0.0933  0.3453  0.0072
 2265SOL    HW2 9131   1.775   0.344   3.998  1.6521 -1.8048 -0.5236
 2265SOL    HW3 9132   1.751   0.280   3.863 -1.3680  1.4059 -1.5862
 2265SOL    MW4 9133   1.767   0.351   3.912  0.1061  0.2016 -0.2732
 2266SOL     OW 9134   1.977   0.513   3.763  0.0345  0.0404  0.0462
 2266SOL    HW2 9135   1.900   0.461   3.788  0.4536 -0.4786  0.2634
 2266SOL    HW3 9136   1.988   0.495   3.670  0.9442 -1.2854  0.3908
 2266SOL    MW4 9137   1.968   0.503   3.754  0.2099 -0.2030  0.1202
 2267SOL     OW 9138   1.952   0.745   3.875  0.0000  0.5313  0.2660
 2267SOL    HW2 9139   1.976   0.722   3.965 -0.1162  1.6651  0.5941
 2267SOL    HW3 9140   1.949   0.661   3.829 -0.1126 -0.0764  1.3594
 2267SOL    MW4 9141   1.955   0.731   3.881 -0.0300  0.6007  0.4532
 2268SOL     OW 9142   1.765   0.904   3.769 -0.4196 -0.3463  0.3670
 2268SOL    HW2 9143   1.832   0.853   3.815 -0.3161  0.7078  1.4220
 2268SOL    HW3 9144   1.790   0.901   3.677  1.5566  0.7300  0.8513
 2268SOL    MW4 9145   1.777   0.897   3.763 -0.1452 -0.0653  0.5701
 2269SOL     OW 9146   1.761   1.167   3.902  0.4839 -0.5032  0.4727
 2269SOL    HW2 9147   1.768   1.133   3.991  2.6874 -0.6237  0.2637
 2269SOL    HW3 9148   1.746   1.090   3.848 -0.4686 -0.4716  0.6826
 2269SOL    MW4 9149   1.760   1.152   3.907  0.6491 -0.5150  0.4725
 2270SOL     OW 9150   1.987   1.271   3.766 -0.4917  0.1589 -0.1392
 2270SOL    HW2 9151   2.058   1.223   3.809  0.1985  1.1899 -0.1191
 2270SOL    HW3 9152   1.908   1.241   3.810  0.0252 -0.2528  0.5192
 2270SOL    MW4 9153   1.986   1.260   3.778 -0.3324  0.2406 -0.0498
 2271SOL     OW 9154   2.030   1.545   3.831 -0.0382 -0.3417 -0.1563
 2271SOL    HW2 9155   1.941   1.577   3.818 -0.3306 -0.8577  0.5968
 2271SOL    HW3 9156   2.029   1.456   3.794  0.3702 -0.0672 -0.8448
 2271SOL    MW4 9157   2.018   1.537   3.824 -0.0226 -0.3736 -0.1478
 2272SOL     OW 9158   1.785   1.662   3.785 -0.1037  0.4534 -0.4794
 2272SOL    HW2 9159   1.781   1.751   3.820 -0.4567 -0.1022  0.9366
 2272SOL    HW3 9160   1.790   1.674   3.690  1.0075  2.0066 -0.2487
 2272SOL    MW4 9161   1.785   1.675   3.777 -0.0037  0.5851 -0.2625
 2273SOL     OW 9162   1.755   1.949   3.832  0.2194  0.2068 -0.4562
 2273SOL    HW2 9163   1.750   1.954   3.927  0.5192 -0.1711 -0.4211
 2273SOL    HW3 9164   1.670   1.980   3.802  0.1209  0.3194 -0.0667
 2273SOL    MW4 9165   1.743   1.954   3.841  0.2459  0.1719 -0.4001
 2274SOL     OW 9166   1.991   2.063   3.784  0.7833 -0.3425  0.8168
 2274SOL    HW2 9167   1.904   2.025   3.793  0.1433  0.8050 -0.2880
 2274SOL    HW3 9168   2.003   2.071   3.689 -0.0440  4.2091  0.9769
 2274SOL    MW4 9169   1.981   2.059   3.772  0.5896  0.4094  0.6921
 2275SOL     OW 9170   2.040   2.319   3.801  0.1056  0.3039  0.0480
 2275SOL    HW2 9171   1.956   2.356   3.771 -0.3066 -0.3087  0.4309
 2275SOL    HW3 9172   2.029   2.224   3.791  1.3808  0.3088 -1.5168
 2275SOL    MW4 9173   2.027   2.311   3.796  0.2193  0.2239 -0.1078
 2276SOL     OW 9174   1.813   2.446   3.725  0.0009  0.3949  1.1905
 2276SOL    HW2 9175   1.819   2.537   3.756  0.6439  0.4156  0.9923
 2276SOL    HW3 9176   1.812   2.453   3.630  0.0556  0.1895  1.1758
 2276SOL    MW4 9177   1.813   2.459   3.717  0.0929  0.3703  1.1625
 2277SOL     OW 9178   1.796   2.699   3.838  0.1748  0.1007 -0.5126
 2277SOL    HW2 9179   1.774   2.671   3.927 -0.0152 -0.4704 -0.7328
 2277SOL    HW3 9180   1.719   2.745   3.807  0.6470  1.2468  0.0053
 2277SOL    MW4 9181   1.783   2.701   3.846  0.2121  0.1767 -0.4733
 2278SOL     OW 9182   1.999   2.861   3.744 -0.6783 -0.5716 -0.0291
 2278SOL    HW2 9183   2.066   2.794   3.756 -0.3953 -0.2662  0.1078
 2278SOL    HW3 9184   1.925   2.831   3.796  0.0656  0.0818  1.4376
 2278SOL    MW4 9185   1.998   2.849   3.752 -0.5429 -0.4451  0.1826
 2279SOL     OW 9186   2.018   3.065   3.911  0.0135  0.0890  0.3140
 2279SOL    HW2 9187   2.082   3.120   3.866  0.1958  0.3413  0.8656
 2279SOL    HW3 9188   2.018   2.983   3.863 -0.5700  0.7234 -0.7787
 2279SOL    MW4 9189   2.027   3.062   3.899 -0.0393  0.2062  0.2425
 2280SOL     OW 9190   1.777   3.175   3.754 -0.0545 -0.0211  0.4119
 2280SOL    HW2 9191   1.859   3.146   3.794 -0.2508 -0.8335  0.2326
 2280SOL    HW3 9192   1.709   3.144   3.814 -0.3368 -1.0055 -0.3966
 2280SOL    MW4 9193   1.779   3.167   3.767 -0.1177 -0.2580  0.2813
 2281SOL     OW 9194   1.780   3.473   3.879 -0.0490  0.2572  0.1986
 2281SOL    HW2 9195   1.856   3.522   3.847 -1.3735  1.0071 -1.9106
 2281SOL    HW3 9196   1.788   3.386   3.839  0.0392  0.1289  0.4939
 2281SOL    MW4 9197   1.791   3.468   3.869 -0.2122  0.3393 -0.0410
 2282SOL     OW 9198   1.998   3.623   3.779 -0.0520  0.3990 -0.3006
 2282SOL    HW2 9199   2.081   3.585   3.808 -0.6506 -1.7619 -1.3484
 2282SOL    HW3 9200   2.005   3.625   3.683 -2.0259 -1.7621 -0.5279
 2282SOL    MW4 9201   2.010   3.618   3.770 -0.3917 -0.1712 -0.4687
 2283SOL     OW 9202   2.001   3.851   3.929  0.2450  0.2592  0.0735
 2283SOL    HW2 9203   2.068   3.896   3.878  0.7754 -0.2214  0.3412
 2283SOL    HW3 9204   1.983   3.771   3.879 -0.1564  0.4031 -0.0154
 2283SOL    MW4 9205   2.007   3.846   3.915  0.2620  0.2148  0.0970
 2284SOL     OW 9206   1.807   3.980   3.777  0.6201  0.3973 -0.3052
 2284SOL    HW2 9207   1.865   3.936   3.838 -0.2161  0.9471  0.9021
 2284SOL    HW3 9208   1.721   3.942   3.793 -0.0483  2.1678  0.5088
 2284SOL    MW4 9209   1.803   3.969   3.787  0.4216  0.7036 -0.0384
 2285SOL     OW 9210   1.737   4.269   3.798 -0.0705 -0.2348 -0.2845
 2285SOL    HW2 9211   1.823   4.311   3.801 -0.3745  0.5509 -1.7931
 2285SOL    HW3 9212   1.756   4.177   3.779  0.3920  0.2047 -2.0590
 2285SOL    MW4 9213   1.751   4.262   3.796 -0.0496 -0.0730 -0.7174
 2286SOL     OW 9214   2.005   4.410   3.755  0.3839 -0.0554  0.5244
 2286SOL    HW2 9215   2.071   4.351   3.791  1.2801 -0.2290 -1.3739
 2286SOL    HW3 9216   2.012   4.399   3.660 -3.5760 -1.4567  0.2792
 2286SOL    MW4 9217   2.014   4.400   3.747 -0.0203 -0.2632  0.2415
 2287SOL     OW 9218   2.437   4.622   3.861  0.4144 -0.1950 -0.0710
 2287SOL    HW2 9219   2.461   4.617   3.954  0.2942 -1.4887 -0.0954
 2287SOL    HW3 9220   2.512   4.662   3.819  0.6611 -0.0225  0.5294
 2287SOL    MW4 9221   2.450   4.626   3.868  0.4308 -0.3429  0.0050
 2288SOL     OW 9222   2.208   0.106   3.776  0.2830 -0.1786 -0.0388
 2288SOL    HW2 9223   2.286   0.058   3.804 -0.6285 -1.7827 -0.1220
 2288SOL    HW3 9224   2.221   0.122   3.683  1.0545  0.6334  0.2101
 2288SOL    MW4 9225   2.220   0.102   3.767  0.2644 -0.2831 -0.0169
 2289SOL     OW 9226   2.203   0.382   3.863 -0.2688 -0.0502  0.0752
 2289SOL    HW2 9227   2.209   0.293   3.828  1.6962 -0.4946  1.4448
 2289SOL    HW3 9228   2.118   0.415   3.833 -0.8980 -2.2937 -0.6539
 2289SOL    MW4 9229   2.193   0.375   3.855 -0.0923 -0.4048  0.1597
 2290SOL     OW 9230   2.434   0.503   3.783  0.1064  0.2210 -0.2932
 2290SOL    HW2 9231   2.346   0.484   3.815  0.2850 -0.9436 -0.4704
 2290SOL    HW3 9232   2.421   0.530   3.692 -0.1583  0.9862 -0.0277
 2290SOL    MW4 9233   2.420   0.504   3.775  0.0949  0.1683 -0.2816
 2291SOL     OW 9234   2.424   0.782   3.884 -0.3728  0.5994 -0.2955
 2291SOL    HW2 9235   2.342   0.812   3.844  0.5331  0.6563 -2.1447
 2291SOL    HW3 9236   2.437   0.695   3.848 -1.1226 -0.6585  2.2956
 2291SOL    MW4 9237   2.415   0.774   3.874 -0.3521  0.4410 -0.1979
 2292SOL     OW 9238   2.183   0.880   3.813  0.2563 -0.0663 -0.1668
 2292SOL    HW2 9239   2.105   0.829   3.837 -0.5660  0.2776 -2.0172
 2292SOL    HW3 9240   2.181   0.883   3.718  1.8106  1.1148 -0.1791
 2292SOL    MW4 9241   2.172   0.873   3.804  0.3531  0.1349 -0.4127
 2293SOL     OW 9242   2.250   1.144   3.884 -0.1042  0.1662 -0.1069
 2293SOL    HW2 9243   2.232   1.151   3.978 -0.3463 -0.9015 -0.0600
 2293SOL    HW3 9244   2.221   1.055   3.861 -1.0369  0.8010 -1.4079
 2293SOL    MW4 9245   2.244   1.133   3.893 -0.2592  0.1091 -0.2720
 2294SOL     OW 9246   2.439   1.339   3.767 -0.1746  0.4208  0.2116
 2294SOL    HW2 9247   2.454   1.427   3.803  0.7768  0.1860  0.4078
 2294SOL    HW3 9248   2.379   1.298   3.829 -1.6604  1.3665 -0.5551
 2294SOL    MW4 9249   2.433   1.345   3.780 -0.2451  0.5145  0.1364
 2295SOL     OW 9250   2.455   1.610   3.882  0.9000  0.1320 -0.3862
 2295SOL    HW2 9251   2.443   1.651   3.967  1.3621 -0.4255 -0.0569
 2295SOL    HW3 9252   2.379   1.640   3.831 -1.3594 -2.4401  1.3275
 2295SOL    MW4 9253   2.443   1.620   3.886  0.6630 -0.2809 -0.1166
 2296SOL     OW 9254   2.227   1.703   3.750 -0.2712  0.0894  0.1854
 2296SOL    HW2 9255   2.219   1.782   3.803  1.5447  0.2141  0.2954
 2296SOL    HW3 9256   2.150   1.651   3.773 -0.8931  1.3171  0.9449
 2296SOL    MW4 9257   2.215   1.707   3.760 -0.1137  0.2680  0.3002
 2297SOL     OW 9258   2.226   1.951   3.906 -0.3194 -0.1366  0.3070
 2297SOL    HW2 9259   2.219   1.974   3.999 -0.6782  0.2163  0.1943
 2297SOL    HW3 9260   2.144   1.983   3.868  1.1103  2.4338 -0.7164
 2297SOL    MW4 9261   2.214   1.958   3.913 -0.1783  0.2491  0.1574
 2298SOL     OW 9262   2.461   2.034   3.797  0.0858 -0.0010 -0.1296
 2298SOL    HW2 9263   2.473   2.127   3.816 -0.0497  0.0926 -0.4997
 2298SOL    HW3 9264   2.379   2.011   3.839  0.3786 -0.0766  0.4011
 2298SOL    MW4 9265   2.452   2.044   3.805  0.1066  0.0014 -0.1085
 2299SOL     OW 9266   2.516   2.310   3.824  0.0012  0.1547 -0.4094
 2299SOL    HW2 9267   2.592   2.361   3.797  0.5423 -1.3215 -1.7486
 2299SOL    HW3 9268   2.442   2.353   3.782  0.2166  0.9692  0.0346
 2299SOL    MW4 9269   2.516   2.323   3.815  0.1011  0.0675 -0.5274
 2300SOL     OW 9270   2.281   2.404   3.712  0.2539 -0.3379 -0.0827
 2300SOL    HW2 9271   2.205   2.364   3.755 -0.9932  1.1006 -0.8883
 2300SOL    HW3 9272   2.262   2.398   3.619  0.4865  1.2696 -0.2409
 2300SOL    MW4 9273   2.268   2.398   3.706  0.1199  0.0639 -0.2100
 2301SOL     OW 9274   2.190   2.669   3.792  0.3428  0.3533  0.1913
 2301SOL    HW2 9275   2.167   2.675   3.885 -1.3906  0.1233 -0.1927
 2301SOL    HW3 9276   2.239   2.587   3.784  0.2718  0.2437  0.8650
 2301SOL    MW4 9277   2.193   2.659   3.803  0.1047  0.3085  0.2296
 2302SOL     OW 9278   2.443   2.784   3.771 -0.1036 -0.2938  0.2873
 2302SOL    HW2 9279   2.356   2.757   3.801 -0.9132  2.5126  0.6448
 2302SOL    HW3 9280   2.432   2.801   3.677  0.0947 -0.1255  0.2925
 2302SOL    MW4 9281   2.430   2.783   3.763 -0.1843  0.0987  0.3352
 2303SOL     OW 9282   2.427   3.054   3.832  0.2748  0.2174  0.2330
 2303SOL    HW2 9283   2.425   3.060   3.928  0.9161  0.1595  0.2499
 2303SOL    HW3 9284   2.438   2.961   3.814  0.2463  0.2396  0.1006
 2303SOL    MW4 9285   2.428   3.042   3.843  0.3557  0.2127  0.2182
 2304SOL     OW 9286   2.201   3.228   3.779  0.0906  0.0692  0.1321
 2304SOL    HW2 9287   2.204   3.311   3.825  0.9233  1.0078 -1.5757
 2304SOL    HW3 9288   2.285   3.186   3.800 -0.0614 -0.0690  0.4726
 2304SOL    MW4 9289   2.212   3.233   3.788  0.1802  0.1745 -0.0484
 2305SOL     OW 9290   2.231   3.498   3.869  0.1234  0.3012  0.2689
 2305SOL    HW2 9291   2.243   3.501   3.964  1.0357 -0.6389  0.1876
 2305SOL    HW3 9292   2.311   3.537   3.833  0.7437 -1.3400 -0.1634
 2305SOL    MW4 9293   2.243   3.504   3.876  0.3257 -0.0393  0.2010
 2306SOL     OW 9294   2.469   3.618   3.781  0.6006 -0.2531 -0.5705
 2306SOL    HW2 9295   2.546   3.577   3.818  0.1960 -0.6392 -0.1576
 2306SOL    HW3 9296   2.486   3.621   3.686 -0.1954 -3.1032 -0.8247
 2306SOL    MW4 9297   2.481   3.613   3.773  0.4418 -0.6800 -0.5493
 2307SOL     OW 9298   2.434   3.885   3.900  0.0007  0.1622  0.3761
 2307SOL    HW2 9299   2.502   3.945   3.870 -0.3134  0.3577  0.0557
 2307SOL    HW3 9300   2.440   3.810   3.841  0.9662 -0.5159  1.3058
 2307SOL    MW4 9301   2.444   3.883   3.889  0.0865  0.0987  0.4568
 2308SOL     OW 9302   2.186   3.970   3.776  0.1880 -0.3516  0.4104
 2308SOL    HW2 9303   2.271   3.940   3.809  0.5839 -0.5475 -0.7564
 2308SOL    HW3 9304   2.192   3.958   3.681 -2.0429 -2.6763  0.5110
 2308SOL    MW4 9305   2.198   3.964   3.768 -0.0541 -0.6843  0.2697
 2309SOL     OW 9306   2.203   4.235   3.878 -0.3047  0.2116 -0.4995
 2309SOL    HW2 9307   2.206   4.228   3.973 -0.0608 -0.2838 -0.5426
 2309SOL    HW3 9308   2.207   4.145   3.847 -0.5223  0.3609 -0.9769
 2309SOL    MW4 9309   2.204   4.222   3.886 -0.3011  0.1659 -0.5682
 2310SOL     OW 9310   2.430   4.363   3.763 -0.2884 -0.5540 -0.0930
 2310SOL    HW2 9311   2.366   4.304   3.801 -1.5680 -0.2087 -1.6463
 2310SOL    HW3 9312   2.414   4.447   3.806  0.5262 -0.9587  1.0215
 2310SOL    MW4 9313   2.420   4.366   3.774 -0.3500 -0.5617 -0.1509
 2311SOL     OW 9314   2.882   4.643   3.896 -0.3176 -0.1327 -0.2616
 2311SOL    HW2 9315   2.899   4.642   3.990  0.7990 -0.4331 -0.4500
 2311SOL    HW3 9316   2.956   4.692   3.859 -0.6989 -0.0963 -0.9852
 2311SOL    MW4 9317   2.894   4.650   3.903 -0.2205 -0.1676 -0.3822
 2312SOL     OW 9318   2.650   0.088   3.771 -0.2436 -0.0978 -0.3092
 2312SOL    HW2 9319   2.733   0.054   3.806 -0.2444  1.4702  1.2623
 2312SOL    HW3 9320   2.671   0.115   3.681  1.1109  0.8621  0.2760
 2312SOL    MW4 9321   2.664   0.087   3.764 -0.0651  0.2358 -0.0246
 2313SOL     OW 9322   2.648   0.352   3.887 -0.1076 -0.3365  0.0490
 2313SOL    HW2 9323   2.640   0.263   3.852 -0.3386 -0.4354  0.3571
 2313SOL    HW3 9324   2.571   0.398   3.855  0.5293  0.0469 -0.9733
 2313SOL    MW4 9325   2.637   0.346   3.878 -0.0544 -0.2990 -0.0451
 2314SOL     OW 9326   2.866   0.492   3.735  0.0485  0.2784  0.2141
 2314SOL    HW2 9327   2.939   0.435   3.759 -0.8577 -0.5833  0.9366
 2314SOL    HW3 9328   2.792   0.459   3.785 -1.1419  0.3820 -1.4603
 2314SOL    MW4 9329   2.866   0.480   3.745 -0.2277  0.1784  0.0887
 2315SOL     OW 9330   2.862   0.784   3.849  0.5710 -0.7218  0.0390
 2315SOL    HW2 9331   2.944   0.813   3.809  0.3238 -0.2726 -0.1504
 2315SOL    HW3 9332   2.847   0.697   3.814 -0.1208  0.0229 -1.5849
 2315SOL    MW4 9333   2.871   0.777   3.839  0.4470 -0.5643 -0.2000
 2316SOL     OW 9334   2.638   0.922   3.771  0.3833 -0.0513 -0.6237
 2316SOL    HW2 9335   2.716   0.873   3.795  0.4123  0.3914  0.2254
 2316SOL    HW3 9336   2.566   0.872   3.809  0.5288  1.3659  1.6406
 2316SOL    MW4 9337   2.639   0.909   3.779  0.4063  0.1941 -0.2131
 2317SOL     OW 9338   2.654   1.187   3.849 -0.3727  0.1926  0.1312
 2317SOL    HW2 9339   2.644   1.097   3.818  1.0912 -0.0516  0.3113
 2317SOL    HW3 9340   2.588   1.237   3.801  0.9898 -0.4070 -2.4145
 2317SOL    MW4 9341   2.644   1.181   3.839  0.0002  0.0812 -0.1812
 2318SOL     OW 9342   2.928   1.242   3.767  0.1465 -0.5021 -0.3312
 2318SOL    HW2 9343   2.937   1.325   3.815 -0.2306  0.9251 -2.6653
 2318SOL    HW3 9344   2.838   1.214   3.784  0.7562 -1.3431  1.7997
 2318SOL    MW4 9345   2.917   1.249   3.776  0.1774 -0.4249 -0.3581
 2319SOL     OW 9346   2.925   1.509   3.875  0.1917 -0.1015  0.1256
 2319SOL    HW2 9347   3.003   1.555   3.844 -0.4497  0.6566 -0.3684
 2319SOL    HW3 9348   2.854   1.543   3.821 -0.5643 -0.4480  0.8917
 2319SOL    MW4 9349   2.926   1.519   3.864  0.0074 -0.0470  0.1616
 2320SOL     OW 9350   2.717   1.639   3.748 -0.1484 -0.4598 -0.4949
 2320SOL    HW2 9351   2.709   1.634   3.653  1.2290  0.3568 -0.6612
 2320SOL    HW3 9352   2.632   1.609   3.781 -0.8078 -0.2614 -1.9888
 2320SOL    MW4 9353   2.705   1.635   3.740 -0.0539 -0.3258 -0.7138
 2321SOL     OW 9354   2.729   1.909   3.833  0.0779  0.3928  0.2118
 2321SOL    HW2 9355   2.713   1.815   3.828  0.3454  0.2884  1.2850
 2321SOL    HW3 9356   2.642   1.948   3.824 -0.0529  0.0438 -0.0686
 2321SOL    MW4 9357   2.715   1.902   3.831  0.0961  0.3331  0.3164
 2322SOL     OW 9358   2.959   2.024   3.740 -0.2063 -0.1308  0.5764
 2322SOL    HW2 9359   2.940   2.111   3.774  0.3101  0.3042 -0.2314
 2322SOL    HW3 9360   2.886   1.969   3.771 -0.9588  0.7646  0.4124
 2322SOL    MW4 9361   2.947   2.028   3.749 -0.2377  0.0446  0.4478
 2323SOL     OW 9362   2.962   2.282   3.844 -0.5016  0.1390  0.0337
 2323SOL    HW2 9363   2.937   2.301   3.935 -0.1771  1.1937 -0.0955
 2323SOL    HW3 9364   3.032   2.344   3.825 -0.3095 -0.3382 -0.8195
 2323SOL    MW4 9365   2.968   2.292   3.854 -0.4334  0.2148 -0.0961
 2324SOL     OW 9366   2.737   2.457   3.762  0.3830  0.2497  0.2935
 2324SOL    HW2 9367   2.743   2.542   3.806  1.0999  0.8141 -0.8585
 2324SOL    HW3 9368   2.808   2.405   3.801 -0.5992 -0.1138  1.6092
 2324SOL    MW4 9369   2.747   2.462   3.773  0.3481  0.2761  0.3152
 2325SOL     OW 9370   2.695   2.696   3.875 -0.0484  0.8008  0.4682
 2325SOL    HW2 9371   2.678   2.701   3.969 -1.2686  1.2076  0.2324
 2325SOL    HW3 9372   2.612   2.719   3.834  0.3158  0.0755 -0.7134
 2325SOL    MW4 9373   2.682   2.699   3.882 -0.1616  0.7589  0.2813
 2326SOL     OW 9374   2.899   2.838   3.772 -0.0265  0.2399 -0.1924
 2326SOL    HW2 9375   2.908   2.913   3.830  1.4083 -0.0895  0.0196
 2326SOL    HW3 9376   2.821   2.793   3.803 -0.2765  1.0435  0.3561
 2326SOL    MW4 9377   2.890   2.842   3.784  0.1297  0.3023 -0.0920
 2327SOL     OW 9378   2.908   3.073   3.922 -0.1267  0.0262 -0.0811
 2327SOL    HW2 9379   2.985   3.116   3.885 -0.3581 -0.2245 -0.8456
 2327SOL    HW3 9380   2.834   3.115   3.879 -0.3701 -0.8329 -0.4995
 2327SOL    MW4 9381   2.909   3.084   3.912 -0.1895 -0.1204 -0.2372
 2328SOL     OW 9382   2.671   3.182   3.773  0.3348 -0.2816 -0.2879
 2328SOL    HW2 9383   2.681   3.272   3.803  0.8042 -0.0884 -0.9892
 2328SOL    HW3 9384   2.579   3.161   3.789  0.2284  0.3160 -0.0938
 2328SOL    MW4 9385   2.660   3.191   3.779  0.3827 -0.1774 -0.3548
 2329SOL     OW 9386   2.657   3.432   3.892  0.5773 -0.0442 -0.0456
 2329SOL    HW2 9387   2.662   3.436   3.987 -0.4406 -0.9229  0.0641
 2329SOL    HW3 9388   2.728   3.488   3.861  1.3127 -0.2676  1.2247
 2329SOL    MW4 9389   2.667   3.440   3.900  0.5400 -0.1895  0.1361
 2330SOL     OW 9390   2.885   3.585   3.791  0.2665 -0.2499 -0.1549
 2330SOL    HW2 9391   2.959   3.540   3.832 -0.0598 -0.8590 -0.2326
 2330SOL    HW3 9392   2.893   3.566   3.698 -0.5807 -1.1855 -0.0412
 2330SOL    MW4 9393   2.896   3.577   3.784  0.1116 -0.4537 -0.1502
 2331SOL     OW 9394   2.843   3.856   3.845 -0.1798 -0.0552  0.0593
 2331SOL    HW2 9395   2.860   3.863   3.939 -0.2647 -0.3164  0.0940
 2331SOL    HW3 9396   2.872   3.767   3.822 -0.1222  0.0221 -0.1675
 2331SOL    MW4 9397   2.849   3.845   3.855 -0.1836 -0.0794  0.0341
 2332SOL     OW 9398   2.631   4.004   3.748 -0.5078  0.2437  0.0836
 2332SOL    HW2 9399   2.652   4.094   3.773 -1.8335  0.0147  2.1075
 2332SOL    HW3 9400   2.700   3.951   3.789 -0.5684  0.1974  0.1239
 2332SOL    MW4 9401   2.643   4.009   3.757 -0.6907  0.2079  0.3557
 2333SOL     OW 9402   2.673   4.256   3.851  0.3466 -0.1573 -0.1583
 2333SOL    HW2 9403   2.739   4.318   3.820 -0.7389  0.8207 -0.5659
 2333SOL    HW3 9404   2.590   4.291   3.817 -0.4653 -0.9208  1.0131
 2333SOL    MW4 9405   2.671   4.269   3.843  0.0963 -0.1292 -0.0577
 2334SOL     OW 9406   2.840   4.431   3.729  0.6118 -0.5750 -0.1092
 2334SOL    HW2 9407   2.923   4.384   3.730  0.3800 -0.9895  0.6904
 2334SOL    HW3 9408   2.852   4.503   3.790  0.2209 -0.9396  0.4035
 2334SOL    MW4 9409   2.852   4.434   3.737  0.5298 -0.6781  0.0637
 2335SOL     OW 9410   3.364   4.647   3.810 -0.2883  0.3439  0.0722
 2335SOL    HW2 9411   3.351   4.661   3.904  2.7514 -2.1832  0.9507
 2335SOL    HW3 9412   3.451   4.684   3.793 -0.5342  0.1645 -1.6114
 2335SOL    MW4 9413   3.374   4.654   3.820  0.0803 -0.0134 -0.0341
 2336SOL     OW 9414   3.118   0.067   3.748  0.0136  0.0764 -0.3285
 2336SOL    HW2 9415   3.208   0.042   3.766  0.1234  0.9162  0.3388
 2336SOL    HW3 9416   3.112   0.070   3.653  0.8685  0.6318 -0.3663
 2336SOL    MW4 9417   3.129   0.064   3.738  0.1409  0.2604 -0.2453
 2337SOL     OW 9418   3.080   0.337   3.848  0.4497  0.0894 -0.2274
 2337SOL    HW2 9419   3.106   0.348   3.940  0.4204 -1.5212  0.0018
 2337SOL    HW3 9420   3.087   0.242   3.833 -1.6837  0.0678 -1.2411
 2337SOL    MW4 9421   3.085   0.326   3.858  0.1643 -0.1259 -0.3309
 2338SOL     OW 9422   3.290   0.459   3.718  0.1263  0.0619 -0.4296
 2338SOL    HW2 9423   3.368   0.426   3.761 -0.4419  1.7133  1.9283
 2338SOL    HW3 9424   3.217   0.425   3.770 -0.5983  1.5923 -0.4199
 2338SOL    MW4 9425   3.291   0.450   3.730 -0.0446  0.4817 -0.1173
 2339SOL     OW 9426   3.344   0.726   3.833  0.7318 -0.1384  0.2412
 2339SOL    HW2 9427   3.359   0.726   3.927 -0.1916 -0.3253  0.3939
 2339SOL    HW3 9428   3.315   0.637   3.813  1.0397 -0.1326 -0.2349
 2339SOL    MW4 9429   3.342   0.715   3.843  0.6506 -0.1622  0.1986
 2340SOL     OW 9430   3.106   0.843   3.743  0.4019 -0.1503  0.0807
 2340SOL    HW2 9431   3.189   0.804   3.771 -0.1369 -1.2201  0.1848
 2340SOL    HW3 9432   3.113   0.848   3.648  0.1366 -1.2850 -0.0065
 2340SOL    MW4 9433   3.118   0.839   3.734  0.2959 -0.4412  0.0830
 2341SOL     OW 9434   3.164   1.104   3.852  0.5627 -0.9800  0.2311
 2341SOL    HW2 9435   3.155   1.011   3.835  1.0379 -1.1193  0.7505
 2341SOL    HW3 9436   3.079   1.141   3.825  0.2167 -1.6144  0.4392
 2341SOL    MW4 9437   3.151   1.097   3.846  0.5798 -1.0821  0.3269
 2342SOL     OW 9438   3.373   1.275   3.758 -0.2311  0.5241  0.0673
 2342SOL    HW2 9439   3.301   1.219   3.789 -0.0467  0.1539 -0.1635
 2342SOL    HW3 9440   3.373   1.261   3.663  0.5408  0.0509  0.1346
 2342SOL    MW4 9441   3.363   1.266   3.750 -0.1051  0.4128  0.0458
 2343SOL     OW 9442   3.388   1.529   3.877  0.0371 -0.1773 -0.1644
 2343SOL    HW2 9443   3.306   1.574   3.859  0.3881  0.1618 -0.9774
 2343SOL    HW3 9444   3.378   1.443   3.834  0.4608  0.2227 -1.0854
 2343SOL    MW4 9445   3.376   1.523   3.869  0.1392 -0.0799 -0.3934
 2344SOL     OW 9446   3.148   1.662   3.790 -0.2486  0.2629  0.0993
 2344SOL    HW2 9447   3.155   1.749   3.828 -0.3111  0.2513  0.1378
 2344SOL    HW3 9448   3.170   1.673   3.698 -1.0789  0.4588 -0.0733
 2344SOL    MW4 9449   3.152   1.675   3.783 -0.3664  0.2873  0.0820
 2345SOL     OW 9450   3.188   1.914   3.873 -0.0116 -0.0728 -0.5722
 2345SOL    HW2 9451   3.180   1.906   3.968 -2.0618 -1.6866 -0.8449
 2345SOL    HW3 9452   3.103   1.948   3.845  0.3337 -0.2943 -1.9028
 2345SOL    MW4 9453   3.176   1.917   3.882 -0.2367 -0.3150 -0.7837
 2346SOL     OW 9454   3.394   2.060   3.758 -0.3422 -0.2165 -0.3076
 2346SOL    HW2 9455   3.315   2.017   3.792 -1.3655  0.9632 -1.1332
 2346SOL    HW3 9456   3.390   2.046   3.664  0.0285  0.5053 -0.4355
 2346SOL    MW4 9457   3.383   2.053   3.750 -0.4282  0.0343 -0.4337
 2347SOL     OW 9458   3.406   2.329   3.890 -0.2094 -0.1005  0.1553
 2347SOL    HW2 9459   3.328   2.380   3.867 -1.2321 -1.3370  0.7929
 2347SOL    HW3 9460   3.390   2.242   3.852  0.5259 -0.5804  0.9159
 2347SOL    MW4 9461   3.394   2.324   3.882 -0.2475 -0.3271  0.3397
 2348SOL     OW 9462   3.176   2.441   3.745 -0.3153  0.2604 -0.1852
 2348SOL    HW2 9463   3.152   2.532   3.764  2.0169  0.7139  0.6694
 2348SOL    HW3 9464   3.177   2.436   3.650 -0.5584  1.1005 -0.2386
 2348SOL    MW4 9465   3.173   2.453   3.735 -0.0398  0.4311 -0.0794
 2349SOL     OW 9466   3.122   2.699   3.865 -0.4016 -0.2091  0.1735
 2349SOL    HW2 9467   3.131   2.696   3.961 -0.3468  1.8732  0.2501
 2349SOL    HW3 9468   3.045   2.753   3.851  1.5171  2.2740 -1.0299
 2349SOL    MW4 9469   3.113   2.706   3.876 -0.1411  0.3932  0.0246
 2350SOL     OW 9470   3.367   2.832   3.779  0.1469 -0.0988 -0.2759
 2350SOL    HW2 9471   3.285   2.790   3.805 -0.4406  1.1773 -0.0237
 2350SOL    HW3 9472   3.359   2.842   3.684  0.8203 -1.6568 -0.5094
 2350SOL    MW4 9473   3.355   2.828   3.770  0.1581 -0.1359 -0.2735
 2351SOL     OW 9474   3.415   3.071   3.910  0.4583 -0.0446 -0.2996
 2351SOL    HW2 9475   3.485   3.128   3.878  1.7944 -1.6929 -0.3716
 2351SOL    HW3 9476   3.415   2.997   3.850 -1.2915 -0.1372 -0.2247
 2351SOL    MW4 9477   3.424   3.069   3.898  0.4041 -0.2744 -0.2995
 2352SOL     OW 9478   3.137   3.170   3.789  0.6445  0.2514 -0.3444
 2352SOL    HW2 9479   3.227   3.143   3.811  0.4937  0.8466  1.0442
 2352SOL    HW3 9480   3.132   3.161   3.694  2.0383 -0.2176 -0.3862
 2352SOL    MW4 9481   3.149   3.165   3.780  0.8085  0.2682 -0.1669
 2353SOL     OW 9482   3.108   3.418   3.882 -0.6293 -0.1645  0.0073
 2353SOL    HW2 9483   3.186   3.468   3.860 -1.2408  0.2791 -1.1635
 2353SOL    HW3 9484   3.119   3.334   3.837 -1.4033  0.3654 -1.1935
 2353SOL    MW4 9485   3.119   3.413   3.873 -0.8121 -0.0362 -0.3059
 2354SOL     OW 9486   3.321   3.575   3.767 -0.1643  0.2929 -0.1924
 2354SOL    HW2 9487   3.289   3.658   3.803  1.1012  1.0579 -0.8268
 2354SOL    HW3 9488   3.320   3.588   3.672  1.6375  0.1928 -0.2419
 2354SOL    MW4 9489   3.316   3.588   3.759  0.2406  0.3808 -0.2830
 2355SOL     OW 9490   3.259   3.840   3.847 -0.0010 -0.0090 -0.0417
 2355SOL    HW2 9491   3.341   3.876   3.813  0.2661 -0.9180 -0.3553
 2355SOL    HW3 9492   3.190   3.889   3.802  0.3640  1.1375  0.6259
 2355SOL    MW4 9493   3.260   3.852   3.837  0.0825  0.0222  0.0048
 2356SOL     OW 9494   3.053   4.005   3.711 -0.2445  0.2610 -0.0048
 2356SOL    HW2 9495   3.051   4.089   3.756 -0.7238 -0.0729  0.6075
 2356SOL    HW3 9496   2.976   3.958   3.744  0.1753 -0.5249 -0.1189
 2356SOL    MW4 9497   3.042   4.010   3.721 -0.2525  0.1135  0.0610
 2357SOL     OW 9498   3.070   4.247   3.839  0.2857  0.5610  0.0974
 2357SOL    HW2 9499   3.077   4.254   3.935 -1.4846  0.9704  0.2169
 2357SOL    HW3 9500   3.150   4.287   3.806  0.7750  0.6794  1.4071
 2357SOL    MW4 9501   3.081   4.253   3.848  0.1168  0.6299  0.2859
 2358SOL     OW 9502   3.319   4.384   3.745 -0.0068  0.4757  0.2335
 2358SOL    HW2 9503   3.397   4.336   3.774 -0.0568 -0.5548 -1.3259
 2358SOL    HW3 9504   3.337   4.475   3.769  0.5683 -0.1229  2.2031
 2358SOL    MW4 9505   3.331   4.389   3.752  0.0627  0.2608  0.2878
 2359SOL     OW 9506   3.771   4.644   3.872 -0.5673 -0.4334 -0.4799
 2359SOL    HW2 9507   3.859   4.671   3.847 -0.4045 -1.2505 -0.7992
 2359SOL    HW3 9508   3.772   4.549   3.864 -1.1452 -0.5345  0.6199
 2359SOL    MW4 9509   3.783   4.635   3.868 -0.6220 -0.5546 -0.3772
 2360SOL     OW 9510   3.589   0.140   3.744 -0.4262 -0.5579  0.0269
 2360SOL    HW2 9511   3.645   0.085   3.798  0.2414  0.0901 -0.0031
 2360SOL    HW3 9512   3.610   0.115   3.654 -0.7254 -0.8385  0.0332
 2360SOL    MW4 9513   3.599   0.129   3.739 -0.3777 -0.5094  0.0236
 2361SOL     OW 9514   3.503   0.374   3.870 -0.0362  0.0683 -0.0474
 2361SOL    HW2 9515   3.584   0.418   3.844  2.1558 -2.1871  2.6560
 2361SOL    HW3 9516   3.511   0.286   3.833 -1.1668 -0.2345  0.4207
 2361SOL    MW4 9517   3.515   0.368   3.861  0.1040 -0.2692  0.3710
 2362SOL     OW 9518   3.748   0.503   3.781 -0.1408 -0.4358  0.1770
 2362SOL    HW2 9519   3.819   0.445   3.809  0.4910 -0.0490 -0.5860
 2362SOL    HW3 9520   3.773   0.589   3.813  0.2610 -0.1130 -0.9679
 2362SOL    MW4 9521   3.761   0.506   3.789 -0.0045 -0.3421 -0.0749
 2363SOL     OW 9522   3.824   0.798   3.872 -0.2317  0.1117  0.1638
 2363SOL    HW2 9523   3.896   0.844   3.827 -0.5730 -0.1789 -0.6840
 2363SOL    HW3 9524   3.745   0.840   3.838 -0.4938 -0.1260  0.4855
 2363SOL    MW4 9525   3.823   0.810   3.861 -0.3114  0.0420  0.0947
 2364SOL     OW 9526   3.581   0.869   3.769 -0.0089 -0.4554 -0.3811
 2364SOL    HW2 9527   3.570   0.960   3.794  0.2511  0.0203 -1.8960
 2364SOL    HW3 9528   3.498   0.827   3.790 -0.4334  0.3365 -0.4677
 2364SOL    MW4 9529   3.569   0.875   3.775 -0.0308 -0.2882 -0.5925
 2365SOL     OW 9530   3.601   1.159   3.864 -0.5393 -0.1341 -0.3661
 2365SOL    HW2 9531   3.674   1.220   3.859  0.1311 -0.8640  0.4335
 2365SOL    HW3 9532   3.525   1.210   3.834  0.3266  0.5566 -1.4041
 2365SOL    MW4 9533   3.601   1.174   3.859 -0.3366 -0.1394 -0.3977
 2366SOL     OW 9534   3.824   1.316   3.850  0.0155  0.1481  0.3555
 2366SOL    HW2 9535   3.914   1.288   3.829 -0.2827 -0.4539 -0.1331
 2366SOL    HW3 9536   3.834   1.406   3.881  0.7729  0.1457  0.1385
 2366SOL    MW4 9537   3.838   1.324   3.851  0.0758  0.0685  0.2623
 2367SOL     OW 9538   3.846   1.607   3.896  0.3866 -0.0469 -0.0567
 2367SOL    HW2 9539   3.849   1.591   3.991  1.2371  0.8680  0.0872
 2367SOL    HW3 9540   3.758   1.640   3.880 -0.4298 -2.0893  0.0846
 2367SOL    MW4 9541   3.835   1.609   3.907  0.3912 -0.1957 -0.0188
 2368SOL     OW 9542   3.589   1.713   3.859 -0.4335 -0.1027 -0.1337
 2368SOL    HW2 9543   3.520   1.656   3.893 -1.2376  0.5867 -0.5983
 2368SOL    HW3 9544   3.586   1.701   3.764  1.4655 -1.6372 -0.0336
 2368SOL    MW4 9545   3.579   1.704   3.851 -0.2890 -0.2142 -0.1819
 2369SOL     OW 9546   3.597   1.973   3.910 -0.0918  0.0797  0.0622
 2369SOL    HW2 9547   3.601   1.879   3.898  1.5373  0.2010 -0.4634
 2369SOL    HW3 9548   3.515   1.999   3.866  0.0612 -0.9291 -0.8520
 2369SOL    MW4 9549   3.586   1.964   3.902  0.1438 -0.0374 -0.1276
 2370SOL     OW 9550   3.768   2.094   3.726 -0.3921 -0.0875  0.0528
 2370SOL    HW2 9551   3.844   2.048   3.762 -0.9349 -0.2859  0.9564
 2370SOL    HW3 9552   3.693   2.057   3.773 -0.8645  1.5317  0.5998
 2370SOL    MW4 9553   3.768   2.083   3.737 -0.5260  0.1001  0.2441
 2371SOL     OW 9554   3.842   2.335   3.840 -0.1510 -0.4935 -0.2730
 2371SOL    HW2 9555   3.766   2.392   3.822 -0.7935 -0.6344  1.8574
 2371SOL    HW3 9556   3.821   2.254   3.795 -1.3489 -0.5739  0.3979
 2371SOL    MW4 9557   3.829   2.332   3.831 -0.3939 -0.5229  0.0966
 2372SOL     OW 9558   3.631   2.472   3.763  0.1632 -0.5485 -0.0569
 2372SOL    HW2 9559   3.563   2.418   3.803 -1.3046 -0.0540 -1.8671
 2372SOL    HW3 9560   3.618   2.463   3.669  2.5289 -0.3531 -0.4524
 2372SOL    MW4 9561   3.621   2.464   3.756  0.2816 -0.4575 -0.3481
 2373SOL     OW 9562   3.582   2.722   3.920  0.0053 -0.1458  0.0777
 2373SOL    HW2 9563   3.592   2.637   3.877 -0.0082 -0.6510  1.0802
 2373SOL    HW3 9564   3.507   2.762   3.876  1.0431  0.0593 -1.5563
 2373SOL    MW4 9565   3.574   2.716   3.908  0.1407 -0.1853 -0.0057
 2374SOL     OW 9566   3.779   2.876   3.803 -0.2299 -0.2683  0.2630
 2374SOL    HW2 9567   3.865   2.839   3.822 -0.5650 -2.2439 -1.8217
 2374SOL    HW3 9568   3.717   2.811   3.835 -0.8900 -0.0665 -0.5645
 2374SOL    MW4 9569   3.782   2.863   3.809 -0.3610 -0.5026 -0.1214
 2375SOL     OW 9570   3.793   3.139   3.872  0.1255  0.5343 -0.5849
 2375SOL    HW2 9571   3.723   3.177   3.819 -1.2965 -1.9578 -0.5472
 2375SOL    HW3 9572   3.791   3.046   3.852  1.5685  0.0065  1.5545
 2375SOL    MW4 9573   3.783   3.132   3.863  0.1283  0.1359 -0.2975
 2376SOL     OW 9574   3.590   3.235   3.737  0.4730 -0.0211  0.1449
 2376SOL    HW2 9575   3.584   3.325   3.768  0.7560 -0.2050  0.7336
 2376SOL    HW3 9576   3.581   3.242   3.641  0.3337  0.6095  0.2021
 2376SOL    MW4 9577   3.588   3.248   3.728  0.4919  0.0377  0.2301
 2377SOL     OW 9578   3.556   3.488   3.857  0.4288  0.0406 -0.2656
 2377SOL    HW2 9579   3.557   3.490   3.952  0.5767  0.8315 -0.2746
 2377SOL    HW3 9580   3.465   3.510   3.833  0.3251 -0.4310 -0.3011
 2377SOL    MW4 9581   3.544   3.491   3.866  0.4346  0.0827 -0.2718
 2378SOL     OW 9582   3.765   3.618   3.742 -0.1269 -0.0857  0.6746
 2378SOL    HW2 9583   3.758   3.711   3.763  1.9343  0.4299 -0.7081
 2378SOL    HW3 9584   3.696   3.576   3.793 -2.3294  2.4329 -0.1157
 2378SOL    MW4 9585   3.755   3.625   3.751 -0.1457  0.3145  0.3879
 2379SOL     OW 9586   3.758   3.879   3.828  0.1538 -0.2130 -0.6009
 2379SOL    HW2 9587   3.767   3.868   3.922 -1.4140  2.9196 -0.0111
 2379SOL    HW3 9588   3.839   3.922   3.801  1.0800 -2.1047 -0.8962
 2379SOL    MW4 9589   3.770   3.883   3.837  0.0694 -0.0491 -0.5622
 2380SOL     OW 9590   3.507   3.999   3.740 -0.1794 -0.4981  0.0993
 2380SOL    HW2 9591   3.522   4.090   3.768 -0.1772 -0.4720  0.0112
 2380SOL    HW3 9592   3.593   3.958   3.746 -0.2017 -0.5238  0.2477
 2380SOL    MW4 9593   3.521   4.006   3.745 -0.1819 -0.4983  0.1073
 2381SOL     OW 9594   3.539   4.263   3.843 -0.2074 -0.1823 -0.0178
 2381SOL    HW2 9595   3.529   4.275   3.937  0.0557 -0.7435  0.0842
 2381SOL    HW3 9596   3.616   4.315   3.820 -0.5896  0.3866 -0.0158
 2381SOL    MW4 9597   3.548   4.272   3.852 -0.2232 -0.1817 -0.0041
 2382SOL     OW 9598   3.791   4.376   3.775 -0.0198 -0.4932 -0.2685
 2382SOL    HW2 9599   3.873   4.331   3.798  0.6399  0.4952 -0.6148
 2382SOL    HW3 9600   3.787   4.370   3.679 -0.2143 -0.3230 -0.2711
 2382SOL    MW4 9601   3.802   4.369   3.765  0.0417 -0.3409 -0.3145
 2383SOL     OW 9602   4.264   4.638   3.891  0.3137  0.1453 -0.1770
 2383SOL    HW2 9603   4.269   4.648   3.986 -0.1486 -0.0784 -0.1253
 2383SOL    HW3 9604   4.338   4.688   3.858  0.5316  0.1513  0.3060
 2383SOL    MW4 9605   4.274   4.646   3.899  0.2813  0.1168 -0.1066
 2384SOL     OW 9606   4.039   0.094   3.804 -0.3754 -0.1323  0.2802
 2384SOL    HW2 9607   4.123   0.060   3.835  0.5392  2.4865  0.8544
 2384SOL    HW3 9608   4.045   0.092   3.709  0.0566 -0.5788  0.3154
 2384SOL    MW4 9609   4.051   0.089   3.796 -0.1974  0.1543  0.3605
 2385SOL     OW 9610   3.981   0.372   3.854  0.0720 -0.0234 -0.0199
 2385SOL    HW2 9611   3.993   0.373   3.949  0.9659 -0.8960 -0.1111
 2385SOL    HW3 9612   4.004   0.283   3.828 -1.6352 -0.2204 -0.8749
 2385SOL    MW4 9613   3.986   0.361   3.863 -0.0355 -0.1646 -0.1447
 2386SOL     OW 9614   4.215   0.509   3.814  0.1561  0.0944  0.1953
 2386SOL    HW2 9615   4.125   0.474   3.814  0.1497  0.0969  1.0018
 2386SOL    HW3 9616   4.243   0.503   3.723 -0.8311  0.5137 -0.1453
 2386SOL    MW4 9617   4.207   0.503   3.802  0.0253  0.1500  0.2568
 2387SOL     OW 9618   4.272   0.777   3.917 -0.6128  0.1910  0.1186
 2387SOL    HW2 9619   4.208   0.835   3.876 -0.8078  0.2585  0.5187
 2387SOL    HW3 9620   4.240   0.689   3.897 -0.0788  0.2178 -0.8648
 2387SOL    MW4 9621   4.259   0.773   3.909 -0.5684  0.2035  0.0415
 2388SOL     OW 9622   4.066   0.936   3.790 -0.3818  0.0052  0.2497
 2388SOL    HW2 9623   4.063   1.028   3.818  3.2835  0.4733 -0.6705
 2388SOL    HW3 9624   4.044   0.939   3.697 -0.5608 -0.0836  0.2896
 2388SOL    MW4 9625   4.062   0.948   3.781  0.0777  0.0553  0.1338
 2389SOL     OW 9626   4.091   1.230   3.851 -0.1069  0.2990  0.5033
 2389SOL    HW2 9627   4.087   1.193   3.939  1.8013 -0.8729  0.1238
 2389SOL    HW3 9628   4.184   1.243   3.834 -0.2550 -1.5451 -2.1685
 2389SOL    MW4 9629   4.102   1.227   3.860  0.1254 -0.0988  0.1009
 2390SOL     OW 9630   4.326   1.322   3.775  0.1620 -0.3817  0.2334
 2390SOL    HW2 9631   4.292   1.408   3.800  0.2277 -0.4710  0.6350
 2390SOL    HW3 9632   4.317   1.319   3.680 -1.1617 -0.4873  0.3519
 2390SOL    MW4 9633   4.320   1.333   3.766 -0.0043 -0.4073  0.3021
 2391SOL     OW 9634   4.259   1.560   3.888 -0.0027 -0.1564 -0.1666
 2391SOL    HW2 9635   4.187   1.609   3.849  0.4091  0.6228  0.0365
 2391SOL    HW3 9636   4.336   1.616   3.875  0.0648  0.3681  2.1760
 2391SOL    MW4 9637   4.260   1.574   3.882  0.0610  0.0155  0.1693
 2392SOL     OW 9638   4.065   1.711   3.748 -0.0888  0.3188  0.1862
 2392SOL    HW2 9639   4.056   1.797   3.789 -1.9224  0.7037 -1.0073
 2392SOL    HW3 9640   3.995   1.659   3.787  0.0526 -0.1840 -0.2341
 2392SOL    MW4 9641   4.055   1.716   3.759 -0.3123  0.3034 -0.0267
 2393SOL     OW 9642   4.022   1.963   3.851 -0.1451 -0.4249 -0.0511
 2393SOL    HW2 9643   3.970   1.979   3.930  0.0849 -0.0025  0.0155
 2393SOL    HW3 9644   4.100   2.016   3.863  0.4943 -1.3621  0.0375
 2393SOL    MW4 9645   4.025   1.972   3.863 -0.0305 -0.4928 -0.0303
 2394SOL     OW 9646   4.249   2.108   3.816  0.2779  0.9766  0.5490
 2394SOL    HW2 9647   4.241   2.203   3.828  0.9543  1.0972  0.0352
 2394SOL    HW3 9648   4.235   2.094   3.723  0.3982  0.5933  0.5889
 2394SOL    MW4 9649   4.246   2.119   3.805  0.3834  0.9420  0.4861
 2395SOL     OW 9650   4.249   2.387   3.876 -0.2629 -0.1629 -0.6830
 2395SOL    HW2 9651   4.247   2.380   3.971  2.0334 -0.7854 -0.6539
 2395SOL    HW3 9652   4.181   2.451   3.855  0.3828  1.2901  1.4937
 2395SOL    MW4 9653   4.240   2.394   3.886  0.1259 -0.0532 -0.3917
 2396SOL     OW 9654   4.032   2.531   3.791  0.1066 -0.2841  0.1022
 2396SOL    HW2 9655   4.021   2.614   3.837  0.2188 -0.3708  0.2857
 2396SOL    HW3 9656   3.968   2.473   3.831  0.0979 -0.3151  0.0436
 2396SOL    MW4 9657   4.023   2.535   3.802  0.1206 -0.2997  0.1185
 2397SOL     OW 9658   4.031   2.786   3.880  0.2951 -0.4378  0.2069
 2397SOL    HW2 9659   4.040   2.781   3.975 -1.6439 -0.9707  0.3885
 2397SOL    HW3 9660   4.119   2.808   3.849  1.5146 -2.7009  1.9286
 2397SOL    MW4 9661   4.044   2.789   3.889  0.2003 -0.8070  0.4578
 2398SOL     OW 9662   4.253   2.874   3.741  0.0711 -0.4646 -0.0349
 2398SOL    HW2 9663   4.248   2.956   3.791  0.0672 -0.5385  0.0881
 2398SOL    HW3 9664   4.337   2.837   3.766  0.9612  0.4518 -1.5884
 2398SOL    MW4 9665   4.263   2.880   3.751  0.1884 -0.3536 -0.2236
 2399SOL     OW 9666   4.233   3.096   3.885  0.2268 -0.4287 -0.3953
 2399SOL    HW2 9667   4.161   3.152   3.857  0.6761  0.6436  0.5296
 2399SOL    HW3 9668   4.312   3.144   3.862  0.6149 -0.3850  0.9487
 2399SOL    MW4 9669   4.234   3.110   3.879  0.3371 -0.2816 -0.0958
 2400SOL     OW 9670   4.008   3.267   3.787 -0.0616 -0.1266  0.1077
 2400SOL    HW2 9671   3.920   3.243   3.816  0.6134 -1.5624  1.0121
 2400SOL    HW3 9672   4.007   3.251   3.692 -0.8675  0.1896  0.0605
 2400SOL    MW4 9673   3.996   3.262   3.778 -0.0787 -0.2744  0.2210
 2401SOL     OW 9674   4.030   3.523   3.876 -0.3883 -0.0678  0.4460
 2401SOL    HW2 9675   4.025   3.434   3.840  0.8847 -0.2566  0.7221
 2401SOL    HW3 9676   3.959   3.570   3.832 -0.2103 -0.8597 -0.7189
 2401SOL    MW4 9677   4.020   3.517   3.866 -0.1969 -0.1969  0.3285
 2402SOL     OW 9678   4.258   3.649   3.770 -0.1027  0.4729  0.3609
 2402SOL    HW2 9679   4.179   3.607   3.805 -0.0865  0.4649  0.3871
 2402SOL    HW3 9680   4.331   3.599   3.806 -0.1211 -0.4459 -0.8647
 2402SOL    MW4 9681   4.257   3.637   3.780 -0.1035  0.3507  0.2029
 2403SOL     OW 9682   4.217   3.917   3.864 -0.3009  0.5015 -0.6595
 2403SOL    HW2 9683   4.133   3.934   3.821 -1.4649 -0.2052  1.3158
 2403SOL    HW3 9684   4.227   3.822   3.860  0.7291  0.6249 -1.4285
 2403SOL    MW4 9685   4.207   3.907   3.858 -0.3181  0.4246 -0.5004
 2404SOL     OW 9686   3.992   3.991   3.734  0.3523 -0.0337 -0.2202
 2404SOL    HW2 9687   4.012   4.080   3.763 -0.1495 -0.0627  0.2059
 2404SOL    HW3 9688   4.018   3.990   3.642 -1.2125  1.0510 -0.6869
 2404SOL    MW4 9689   3.998   4.003   3.726  0.0796  0.1054 -0.2260
 2405SOL     OW 9690   4.022   4.224   3.893 -0.2936 -0.3336  0.1491
 2405SOL    HW2 9691   4.021   4.230   3.989 -2.1658  0.6232  0.0928
 2405SOL    HW3 9692   4.090   4.286   3.866  1.1142 -1.5252  0.8972
 2405SOL    MW4 9693   4.031   4.233   3.902 -0.3552 -0.3643  0.2403
 2406SOL     OW 9694   4.225   4.391   3.790 -0.4872  0.3885 -0.5448
 2406SOL    HW2 9695   4.250   4.473   3.832  0.3557  0.5185 -1.2808
 2406SOL    HW3 9696   4.297   4.331   3.810  0.1383  0.5782 -2.1404
 2406SOL    MW4 9697   4.238   4.394   3.798 -0.2933  0.4311 -0.8523
 2407SOL     OW 9698   0.228   4.645   4.098 -0.1506  0.2323  0.4931
 2407SOL    HW2 9699   0.298   4.663   4.160 -1.1961  0.1825  1.6943
 2407SOL    HW3 9700   0.205   4.554   4.114 -1.5065  0.6830  1.1346
 2407SOL    MW4 9701   0.234   4.636   4.108 -0.4674  0.2851  0.7358
 2408SOL     OW 9702   0.013   0.091   4.230  0.0208 -0.4299 -0.2106
 2408SOL    HW2 9703   0.040   0.102   4.321 -2.0822 -1.1984  0.5287
 2408SOL    HW3 9704   0.087   0.047   4.188  0.8504 -0.4040  1.2020
 2408SOL    MW4 9705   0.027   0.087   4.237 -0.1472 -0.5279  0.0734
 2409SOL     OW 9706   0.010   0.385   4.155 -0.5409 -0.0462  0.2377
 2409SOL    HW2 9707  -0.011   0.301   4.197 -1.4714  0.6601  1.2074
 2409SOL    HW3 9708  -0.012   0.371   4.062 -0.7319 -0.8605  0.3996
 2409SOL    MW4 9709   0.004   0.372   4.148 -0.6889 -0.0605  0.3872
 2410SOL     OW 9710   0.277   0.476   4.123 -0.3133 -0.3227 -0.1871
 2410SOL    HW2 9711   0.316   0.441   4.043  0.4628 -1.1331  0.5476
 2410SOL    HW3 9712   0.186   0.448   4.119 -0.5124  0.4003 -1.2181
 2410SOL    MW4 9713   0.270   0.468   4.112 -0.2372 -0.3342 -0.2260
 2411SOL     OW 9714   0.230   0.746   4.160  0.4567  0.1516  0.4097
 2411SOL    HW2 9715   0.148   0.764   4.207 -0.6643 -1.1448 -0.9896
 2411SOL    HW3 9716   0.238   0.651   4.163  0.7342  0.1080 -1.3789
 2411SOL    MW4 9717   0.220   0.736   4.166  0.3454 -0.0252 -0.0110
 2412SOL     OW 9718   0.004   0.864   4.308 -0.5276 -0.4956  0.3335
 2412SOL    HW2 9719  -0.082   0.840   4.274 -1.2105  0.5006  1.3414
 2412SOL    HW3 9720   0.020   0.951   4.273 -0.0718 -0.5380  0.4330
 2412SOL    MW4 9721  -0.005   0.872   4.299 -0.5574 -0.3697  0.4797
 2413SOL     OW 9722   0.012   1.126   4.191  0.5021  0.2028 -0.3513
 2413SOL    HW2 9723   0.095   1.155   4.230 -0.1538  2.8100 -0.8222
 2413SOL    HW3 9724   0.025   1.136   4.097  0.3204 -1.2987 -0.5526
 2413SOL    MW4 9725   0.025   1.131   4.184  0.3916  0.3487 -0.4401
 2414SOL     OW 9726   0.263   1.200   4.269 -0.2626  0.0708 -0.2118
 2414SOL    HW2 9727   0.267   1.198   4.364 -0.1671  0.1655 -0.2139
 2414SOL    HW3 9728   0.348   1.166   4.240  0.0888  0.9728 -0.2581
 2414SOL    MW4 9729   0.275   1.195   4.277 -0.2036  0.2023 -0.2184
 2415SOL     OW 9730   0.126   1.519   4.507  0.0013  0.2618  0.0881
 2415SOL    HW2 9731   0.205   1.565   4.535 -0.2418  0.4177  0.5179
 2415SOL    HW3 9732   0.100   1.562   4.426  0.0591  0.5499  0.2242
 2415SOL    MW4 9733   0.133   1.530   4.500 -0.0232  0.3206  0.1631
 2416SOL     OW 9734   0.035   1.634   4.280 -0.0515 -0.5723  0.0169
 2416SOL    HW2 9735  -0.051   1.608   4.248 -0.1762 -0.9262  0.6147
 2416SOL    HW3 9736   0.041   1.728   4.261 -0.4066 -0.6325 -0.3860
 2416SOL    MW4 9737   0.025   1.643   4.274 -0.1148 -0.6269  0.0429
 2417SOL     OW 9738   0.221   2.055   4.290 -0.0229  0.1710  0.2003
 2417SOL    HW2 9739   0.230   2.003   4.369 -2.1619 -0.2419  0.1998
 2417SOL    HW3 9740   0.283   2.016   4.228  1.6308  0.4737  1.6197
 2417SOL    MW4 9741   0.230   2.043   4.292 -0.0869  0.1566  0.3867
 2418SOL     OW 9742   0.380   1.660   4.512 -0.6329  0.2161 -0.0199
 2418SOL    HW2 9743   0.356   1.752   4.523  2.4359  0.9695  0.7468
 2418SOL    HW3 9744   0.395   1.650   4.418 -2.2376  0.1401 -0.2838
 2418SOL    MW4 9745   0.378   1.671   4.501 -0.4398  0.3054  0.0467
 2419SOL     OW 9746   0.172   2.280   4.109 -0.1527  0.4967  0.2237
 2419SOL    HW2 9747   0.252   2.330   4.125 -0.6343  1.4887 -0.3780
 2419SOL    HW3 9748   0.187   2.196   4.151  1.9018  0.0291 -1.3679
 2419SOL    MW4 9749   0.184   2.275   4.117  0.0548  0.5658 -0.0658
 2420SOL     OW 9750   4.491   2.482   4.227 -0.0630 -0.2865 -0.1326
 2420SOL    HW2 9751   4.413   2.432   4.200 -0.1633 -0.2924  0.1645
 2420SOL    HW3 9752   4.565   2.431   4.193 -0.1642 -0.6377  0.1742
 2420SOL    MW4 9753   4.490   2.468   4.219 -0.0895 -0.3335 -0.0525
 2421SOL     OW 9754   0.005   2.746   4.151 -0.1956  0.0666 -0.0939
 2421SOL    HW2 9755   0.081   2.782   4.197  0.5137  0.2250 -1.3581
 2421SOL    HW3 9756   0.003   2.654   4.177  0.9309 -0.1364 -0.6918
 2421SOL    MW4 9757   0.015   2.738   4.161  0.0466  0.0610 -0.3395
 2422SOL     OW 9758   0.272   2.825   4.291  0.2549  0.2520  0.3087
 2422SOL    HW2 9759   0.312   2.776   4.219 -1.1684  0.0917 -0.3800
 2422SOL    HW3 9760   0.244   2.907   4.250 -1.7244 -0.3750  0.3936
 2422SOL    MW4 9761   0.274   2.830   4.276 -0.1940  0.1481  0.2294
 2423SOL     OW 9762   0.189   3.064   4.188  0.3077 -0.4639 -0.0412
 2423SOL    HW2 9763   0.264   3.111   4.226  1.3576  1.2206 -3.8399
 2423SOL    HW3 9764   0.112   3.106   4.226  1.2610 -0.7989  2.3328
 2423SOL    MW4 9765   0.189   3.076   4.198  0.5720 -0.2861 -0.2289
 2424SOL     OW 9766   4.468   3.240   4.260  0.0596  0.2430  0.2323
 2424SOL    HW2 9767   4.383   3.197   4.260  0.3259 -0.3623 -2.4346
 2424SOL    HW3 9768   4.459   3.312   4.198  1.2654  0.6073  0.4677
 2424SOL    MW4 9769   4.456   3.244   4.252  0.2546  0.2112 -0.0887
 2425SOL     OW 9770   4.469   3.469   4.113 -0.5491  0.2603 -0.4242
 2425SOL    HW2 9771   4.384   3.509   4.132 -0.6753 -0.0881 -0.2439
 2425SOL    HW3 9772   4.474   3.465   4.018 -0.6924  0.3673 -0.4354
 2425SOL    MW4 9773   4.459   3.474   4.103 -0.5841  0.2284 -0.4015
 2426SOL     OW 9774   0.190   3.562   4.249 -0.5729 -0.3191  0.4942
 2426SOL    HW2 9775   0.256   3.517   4.197 -0.4984  0.3623 -0.0079
 2426SOL    HW3 9776   0.106   3.533   4.212 -0.5449 -0.7279  0.7493
 2426SOL    MW4 9777   0.188   3.552   4.237 -0.5594 -0.2830  0.4616
 2427SOL     OW 9778   0.159   3.848   4.145  0.2274 -0.3159  0.4514
 2427SOL    HW2 9779   0.102   3.905   4.197 -0.8345 -0.8552 -0.1195
 2427SOL    HW3 9780   0.147   3.761   4.182  1.2831 -0.3060  0.8360
 2427SOL    MW4 9781   0.150   3.844   4.157  0.2266 -0.3858  0.4272
 2428SOL     OW 9782   0.011   4.019   4.295  0.2152  0.3182 -0.3550
 2428SOL    HW2 9783   0.015   4.066   4.378  0.4397  0.5222 -0.4802
 2428SOL    HW3 9784  -0.070   3.968   4.300  0.1703  0.4186 -0.0592
 2428SOL    MW4 9785   0.001   4.019   4.307  0.2394  0.3586 -0.3328
 2429SOL     OW 9786   4.446   4.251   4.157  0.1912 -0.3594 -0.6617
 2429SOL    HW2 9787   4.463   4.161   4.183  0.5154  0.0969  0.7544
 2429SOL    HW3 9788   4.417   4.245   4.066 -1.0071 -1.9962 -0.1953
 2429SOL    MW4 9789   4.445   4.239   4.148  0.0763 -0.5150 -0.4129
 2430SOL     OW 9790   0.191   4.378   4.178 -0.3273  0.4535 -0.1098
 2430SOL    HW2 9791   0.213   4.383   4.271  0.9723 -0.6301 -0.3395
 2430SOL    HW3 9792   0.107   4.333   4.175  0.7505 -1.6601  0.4408
 2430SOL    MW4 9793   0.183   4.372   4.189 -0.0136  0.0315 -0.0677
 2431SOL     OW 9794   0.589   4.574   4.208  0.5859  0.3645  0.2170
 2431SOL    HW2 9795   0.528   4.643   4.234  0.3046 -0.0910  0.7771
 2431SOL    HW3 9796   0.629   4.606   4.127  0.1410  0.9899  0.2449
 2431SOL    MW4 9797   0.586   4.587   4.201  0.4901  0.3867  0.2947
 2432SOL     OW 9798   0.451   0.121   4.298 -0.0953 -0.3357 -0.1036
 2432SOL    HW2 9799   0.410   0.099   4.381  1.5073  0.2264  0.8582
 2432SOL    HW3 9800   0.465   0.215   4.303 -0.2051 -0.2604 -1.1248
 2432SOL    MW4 9801   0.447   0.130   4.309  0.1017 -0.2516 -0.1116
 2433SOL     OW 9802   0.453   0.386   4.332  0.2927  0.5678 -0.0941
 2433SOL    HW2 9803   0.387   0.409   4.265  0.3231  0.2394 -0.2378
 2433SOL    HW3 9804   0.531   0.434   4.305 -0.2192  1.9159  0.7425
 2433SOL    MW4 9805   0.455   0.396   4.319  0.2292  0.7023 -0.0019
 2434SOL     OW 9806   0.722   0.489   4.308  0.1079  0.5959  0.2470
 2434SOL    HW2 9807   0.795   0.441   4.269 -1.3567 -0.9374 -0.7084
 2434SOL    HW3 9808   0.718   0.571   4.259  0.4701  0.1687 -0.5053
 2434SOL    MW4 9809   0.731   0.493   4.296 -0.0376  0.3372  0.0219
 2435SOL     OW 9810   0.717   0.713   4.171 -0.1033  0.4656  0.3488
 2435SOL    HW2 9811   0.631   0.736   4.208 -1.5711 -2.9028 -0.8389
 2435SOL    HW3 9812   0.707   0.727   4.077  0.6430 -0.0584  0.1913
 2435SOL    MW4 9813   0.704   0.718   4.164 -0.1985 -0.0479  0.1717
 2436SOL     OW 9814   0.461   0.827   4.272  0.3220 -0.3985 -0.0718
 2436SOL    HW2 9815   0.458   0.916   4.238  0.6575  0.3997  1.9533
 2436SOL    HW3 9816   0.377   0.788   4.245  0.9084 -0.0652 -2.4710
 2436SOL    MW4 9817   0.449   0.834   4.264  0.4437 -0.2492 -0.1211
 2437SOL     OW 9818   0.497   1.094   4.174 -0.1792  0.2877  0.1328
 2437SOL    HW2 9819   0.574   1.144   4.203  0.5639 -0.0935 -1.1723
 2437SOL    HW3 9820   0.495   1.106   4.079 -1.3018 -0.3268  0.0767
 2437SOL    MW4 9821   0.507   1.102   4.166 -0.2293  0.1563 -0.0463
 2438SOL     OW 9822   0.718   1.270   4.201 -0.1092  0.5903 -0.7132
 2438SOL    HW2 9823   0.722   1.274   4.296 -0.4688  0.2019 -0.6794
 2438SOL    HW3 9824   0.692   1.358   4.174  0.8370  0.9323 -0.5037
 2438SOL    MW4 9825   0.715   1.282   4.210 -0.0318  0.5842 -0.6819
 2439SOL     OW 9826   0.668   1.535   4.154  0.1510  0.1769  0.3897
 2439SOL    HW2 9827   0.741   1.591   4.178  0.1184  0.6605 -0.6293
 2439SOL    HW3 9828   0.653   1.552   4.061 -0.2521 -1.0626  0.2139
 2439SOL    MW4 9829   0.675   1.545   4.145  0.0935  0.0771  0.2322
 2440SOL     OW 9830   0.217   1.461   4.179  0.1809  0.0704  0.3595
 2440SOL    HW2 9831   0.214   1.374   4.219 -0.9012 -0.3219 -0.5393
 2440SOL    HW3 9832   0.155   1.513   4.231  1.8686  0.7181  1.7874
 2440SOL    MW4 9833   0.208   1.457   4.191  0.2608  0.1042  0.4296
 2441SOL     OW 9834   0.425   1.911   4.161  0.2780 -0.3362 -0.2008
 2441SOL    HW2 9835   0.427   1.821   4.194  0.4915 -0.5354 -0.7646
 2441SOL    HW3 9836   0.434   1.903   4.066 -0.4239  0.2408 -0.3206
 2441SOL    MW4 9837   0.427   1.898   4.153  0.2136 -0.2862 -0.2909
 2442SOL     OW 9838   0.681   2.031   4.286 -0.1000 -0.1505  0.0759
 2442SOL    HW2 9839   0.706   2.023   4.378  0.1150  0.0023  0.0316
 2442SOL    HW3 9840   0.592   1.995   4.282 -0.5126  0.8115  0.5338
 2442SOL    MW4 9841   0.673   2.025   4.298 -0.1261 -0.0036  0.1307
 2443SOL     OW 9842   0.641   2.271   4.126  0.4466  0.2112  0.5679
 2443SOL    HW2 9843   0.666   2.188   4.168  1.6154  0.2447 -0.0526
 2443SOL    HW3 9844   0.650   2.254   4.032 -1.8725  0.2339  0.2996
 2443SOL    MW4 9845   0.645   2.258   4.119  0.2948  0.2184  0.4506
 2444SOL     OW 9846   0.411   2.414   4.174 -0.4997  0.3585 -0.3256
 2444SOL    HW2 9847   0.421   2.501   4.137  0.4024 -0.1696 -1.3611
 2444SOL    HW3 9848   0.497   2.374   4.164 -1.0902 -0.8936 -0.4982
 2444SOL    MW4 9849   0.424   2.420   4.168 -0.4586  0.1237 -0.4849
 2445SOL     OW 9850   0.424   2.694   4.113  0.3268  0.2583  0.2546
 2445SOL    HW2 9851   0.504   2.730   4.150  0.0889  2.3539 -1.1444
 2445SOL    HW3 9852   0.430   2.713   4.019 -1.9548  0.8175  0.1728
 2445SOL    MW4 9853   0.435   2.702   4.105 -0.0056  0.6087  0.0596
 2446SOL     OW 9854   0.650   2.816   4.232 -0.4665  0.1281 -0.6857
 2446SOL    HW2 9855   0.634   2.815   4.326 -3.5959 -0.3501 -1.1646
 2446SOL    HW3 9856   0.641   2.909   4.208 -0.6232  0.1176 -0.6665
 2446SOL    MW4 9857   0.647   2.828   4.241 -0.9001  0.0639 -0.7463
 2447SOL     OW 9858   0.640   3.072   4.193  0.3416  0.0977 -0.3752
 2447SOL    HW2 9859   0.709   3.116   4.243 -0.7305 -0.8352  2.0046
 2447SOL    HW3 9860   0.558   3.108   4.226 -0.3889  0.3312 -2.3377
 2447SOL    MW4 9861   0.638   3.082   4.204  0.1037  0.0055 -0.3204
 2448SOL     OW 9862   0.413   3.244   4.269  0.2660  0.1922  0.1206
 2448SOL    HW2 9863   0.399   3.272   4.359 -0.5482  0.7257 -0.1666
 2448SOL    HW3 9864   0.431   3.324   4.221 -0.9469  0.1153 -0.4884
 2448SOL    MW4 9865   0.413   3.258   4.275 -0.0015  0.2522  0.0019
 2449SOL     OW 9866   0.424   3.484   4.136  0.2948 -0.4481  0.0156
 2449SOL    HW2 9867   0.481   3.543   4.184 -2.1061  2.2081 -0.2710
 2449SOL    HW3 9868   0.436   3.507   4.044 -0.1426 -0.9043 -0.1609
 2449SOL    MW4 9869   0.433   3.495   4.130 -0.0797 -0.1581 -0.0453
 2450SOL     OW 9870   0.646   3.607   4.274 -0.1478 -0.1741 -0.1977
 2450SOL    HW2 9871   0.632   3.596   4.368 -0.6388 -0.5369 -0.3166
 2450SOL    HW3 9872   0.719   3.548   4.254  1.6821  1.8061  0.4383
 2450SOL    MW4 9873   0.654   3.598   4.283  0.0289  0.0396 -0.1297
 2451SOL     OW 9874   0.615   3.855   4.184 -0.0376  0.1090  0.3532
 2451SOL    HW2 9875   0.533   3.902   4.200 -0.1494 -0.1786  0.6449
 2451SOL    HW3 9876   0.603   3.770   4.228  0.2919 -0.0585  0.1230
 2451SOL    MW4 9877   0.603   3.850   4.192 -0.0089  0.0491  0.3614
 2452SOL     OW 9878   0.386   3.978   4.246 -0.3504  0.0432 -0.1824
 2452SOL    HW2 9879   0.395   4.065   4.207 -1.9367  1.0517  1.5916
 2452SOL    HW3 9880   0.307   3.942   4.207 -0.5042  0.0065  0.1591
 2452SOL    MW4 9881   0.377   3.985   4.236 -0.5800  0.1717  0.0973
 2453SOL     OW 9882   0.412   4.238   4.111 -0.3640  0.4869 -0.2684
 2453SOL    HW2 9883   0.335   4.287   4.140 -0.1633  0.6426  0.0010
 2453SOL    HW3 9884   0.413   4.251   4.016 -0.0835  1.3452 -0.1526
 2453SOL    MW4 9885   0.402   4.246   4.102 -0.3005  0.6204 -0.2174
 2454SOL     OW 9886   0.599   4.310   4.299 -0.0742  0.2996 -0.4675
 2454SOL    HW2 9887   0.532   4.280   4.237 -0.4139 -0.0416  0.0584
 2454SOL    HW3 9888   0.618   4.400   4.272 -0.4256  0.2485 -0.8914
 2454SOL    MW4 9889   0.592   4.318   4.287 -0.1654  0.2470 -0.4535
 2455SOL     OW 9890   1.127   4.652   4.136  0.2468  0.1986  0.0170
 2455SOL    HW2 9891   1.116   4.559   4.156 -1.4424  0.5119  0.6336
 2455SOL    HW3 9892   1.105   4.659   4.043 -0.2472  0.0798  0.1231
 2455SOL    MW4 9893   1.122   4.641   4.126 -0.0411  0.2246  0.1116
 2456SOL     OW 9894   0.980   0.177   4.257 -0.0667 -0.2929  0.3098
 2456SOL    HW2 9895   1.020   0.098   4.220 -0.8286 -0.7121  0.3548
 2456SOL    HW3 9896   0.891   0.150   4.279  0.0183  0.2652  1.3913
 2456SOL    MW4 9897   0.973   0.163   4.255 -0.1560 -0.2746  0.4578
 2457SOL     OW 9898   0.939   0.401   4.130  0.3474  0.2426 -0.6352
 2457SOL    HW2 9899   1.004   0.460   4.169  0.3818 -0.7473  0.8532
 2457SOL    HW3 9900   0.959   0.315   4.168 -2.4496  0.1103  0.6512
 2457SOL    MW4 9901   0.950   0.397   4.141 -0.0170  0.0945 -0.2694
 2458SOL     OW 9902   1.135   0.518   4.273 -0.0721  0.1375 -0.5072
 2458SOL    HW2 9903   1.134   0.515   4.369  1.4644  0.7401 -0.4529
 2458SOL    HW3 9904   1.209   0.461   4.249 -0.0797  0.4587 -1.2981
 2458SOL    MW4 9905   1.145   0.510   4.283  0.1296  0.2595 -0.6042
 2459SOL     OW 9906   1.156   0.782   4.185  0.3090 -0.3243 -0.2765
 2459SOL    HW2 9907   1.237   0.809   4.228  0.8972 -0.6212 -1.1778
 2459SOL    HW3 9908   1.141   0.693   4.215 -0.6246  0.3314  1.2425
 2459SOL    MW4 9909   1.165   0.774   4.195  0.2633 -0.2770 -0.1955
 2460SOL     OW 9910   0.892   0.916   4.276  0.1370  0.2305 -0.0652
 2460SOL    HW2 9911   0.984   0.890   4.282  0.3469  0.8203 -0.6518
 2460SOL    HW3 9912   0.853   0.852   4.217  0.4366  0.6547 -0.7358
 2460SOL    MW4 9913   0.899   0.904   4.269  0.2041  0.3642 -0.2308
 2461SOL     OW 9914   0.942   1.137   4.105  0.1155  0.4155  0.6479
 2461SOL    HW2 9915   0.898   1.057   4.136 -0.8384  0.5860 -0.2647
 2461SOL    HW3 9916   0.881   1.207   4.126  0.7317  0.8640  0.9729
 2461SOL    MW4 9917   0.928   1.136   4.112  0.0709  0.4971  0.5703
 2462SOL     OW 9918   1.098   1.336   4.242 -0.2130  0.5071 -0.2047
 2462SOL    HW2 9919   1.116   1.351   4.334 -2.1758  2.2640 -0.0655
 2462SOL    HW3 9920   1.059   1.249   4.239 -1.5392  1.0401  0.8560
 2462SOL    MW4 9921   1.095   1.327   4.254 -0.6468  0.8092 -0.0463
 2463SOL     OW 9922   1.053   1.562   4.103  0.2554 -0.0484 -0.0008
 2463SOL    HW2 9923   0.995   1.614   4.160  0.0314  0.3346 -0.5761
 2463SOL    HW3 9924   1.057   1.476   4.145 -0.2528  0.1050  0.3693
 2463SOL    MW4 9925   1.046   1.558   4.116  0.1588  0.0225 -0.0281
 2464SOL     OW 9926   0.864   1.697   4.267  0.2608 -0.2213 -0.3268
 2464SOL    HW2 9927   0.878   1.722   4.358 -0.9689 -0.2243 -0.1320
 2464SOL    HW3 9928   0.876   1.779   4.218  1.2757 -0.2913 -0.2067
 2464SOL    MW4 9929   0.867   1.711   4.273  0.2324 -0.2309 -0.2851
 2465SOL     OW 9930   0.911   1.947   4.149 -0.6416 -0.1537 -0.0725
 2465SOL    HW2 9931   0.835   1.977   4.199 -0.5407  0.9245 -0.5480
 2465SOL    HW3 9932   0.887   1.961   4.058  0.9402  2.2378 -0.1626
 2465SOL    MW4 9933   0.898   1.953   4.144 -0.4196  0.3041 -0.1473
 2466SOL     OW 9934   1.152   2.065   4.271 -0.2244 -0.3383 -0.1545
 2466SOL    HW2 9935   1.156   2.043   4.364 -1.0258  0.0865 -0.0112
 2466SOL    HW3 9936   1.084   2.007   4.236 -2.9270  2.3758  0.3834
 2466SOL    MW4 9937   1.144   2.055   4.279 -0.6868  0.0761 -0.0648
 2467SOL     OW 9938   1.108   2.321   4.172 -0.1698  0.4937  0.4143
 2467SOL    HW2 9939   1.185   2.363   4.209 -1.7310  1.2496  2.9071
 2467SOL    HW3 9940   1.110   2.231   4.206  0.0403  0.2745 -0.1719
 2467SOL    MW4 9941   1.118   2.315   4.181 -0.3481  0.5643  0.6657
 2468SOL     OW 9942   0.857   2.434   4.249 -0.4153 -0.0964  0.4039
 2468SOL    HW2 9943   0.944   2.406   4.223 -0.3403 -0.2327  0.8007
 2468SOL    HW3 9944   0.799   2.406   4.177 -0.2336 -0.5922  0.4532
 2468SOL    MW4 9945   0.861   2.427   4.236 -0.3815 -0.1800  0.4625
 2469SOL     OW 9946   0.879   2.694   4.167  0.0652  0.0299  0.6388
 2469SOL    HW2 9947   0.867   2.606   4.201  0.6585 -0.7544 -1.1363
 2469SOL    HW3 9948   0.796   2.738   4.183 -1.3962 -1.8958 -1.5034
 2469SOL    MW4 9949   0.867   2.688   4.174 -0.0494 -0.3278  0.1216
 2470SOL     OW 9950   1.129   2.784   4.264  0.4006  0.6134  0.1846
 2470SOL    HW2 9951   1.124   2.879   4.248  0.8033  0.3198 -1.7754
 2470SOL    HW3 9952   1.048   2.750   4.225  0.5748  0.0763  0.2976
 2470SOL    MW4 9953   1.117   2.792   4.257  0.4765  0.5038 -0.0587
 2471SOL     OW 9954   1.091   3.060   4.206  0.2696  0.1179  0.1458
 2471SOL    HW2 9955   1.177   3.087   4.237  1.1190 -1.6802 -0.5781
 2471SOL    HW3 9956   1.096   3.071   4.111  0.2508 -1.4667 -0.0497
 2471SOL    MW4 9957   1.103   3.065   4.197  0.3792 -0.3285  0.0238
 2472SOL     OW 9958   0.870   3.180   4.290 -0.6999 -1.0075 -0.0844
 2472SOL    HW2 9959   0.888   3.174   4.384 -0.4986  0.5887  0.0002
 2472SOL    HW3 9960   0.940   3.130   4.249  1.3944  1.3676  0.4587
 2472SOL    MW4 9961   0.882   3.173   4.297 -0.3970 -0.4835 -0.0019
 2473SOL     OW 9962   0.896   3.450   4.211  0.4316 -0.4083  0.2605
 2473SOL    HW2 9963   0.896   3.363   4.252  2.1147  0.0681  1.3169
 2473SOL    HW3 9964   0.912   3.433   4.118  0.5129 -1.2440  0.4243
 2473SOL    MW4 9965   0.898   3.436   4.204  0.6645 -0.4556  0.4215
 2474SOL     OW 9966   1.167   3.599   4.300 -0.4545  0.7736  0.8870
 2474SOL    HW2 9967   1.156   3.662   4.228 -1.0762 -0.6123 -0.2411
 2474SOL    HW3 9968   1.093   3.539   4.291  0.8523 -0.9091  1.1409
 2474SOL    MW4 9969   1.156   3.600   4.289 -0.3642  0.3688  0.7720
 2475SOL     OW 9970   1.095   3.839   4.116 -0.3708 -0.0531 -0.2621
 2475SOL    HW2 9971   1.173   3.886   4.147 -0.6784 -0.2835  0.9145
 2475SOL    HW3 9972   1.022   3.884   4.160 -0.7451 -1.0116  0.0986
 2475SOL    MW4 9973   1.095   3.851   4.126 -0.4609 -0.2103 -0.0596
 2476SOL     OW 9974   0.868   3.965   4.262  0.2494 -0.3137  0.5526
 2476SOL    HW2 9975   0.856   4.042   4.206 -0.7608 -0.2169  0.8821
 2476SOL    HW3 9976   0.785   3.918   4.255  1.1715 -1.8280 -0.3141
 2476SOL    MW4 9977   0.855   3.969   4.254  0.2378 -0.5007  0.4816
 2477SOL     OW 9978   0.838   4.207   4.118 -0.1717  0.2925 -0.1774
 2477SOL    HW2 9979   0.921   4.250   4.139 -0.5895  1.5630 -1.0760
 2477SOL    HW3 9980   0.772   4.260   4.164 -0.5639 -0.2754 -0.0785
 2477SOL    MW4 9981   0.841   4.220   4.127 -0.2785  0.3853 -0.2832
 2478SOL     OW 9982   1.072   4.349   4.181  0.0094 -0.2513 -0.3694
 2478SOL    HW2 9983   1.092   4.342   4.274 -0.5306 -0.7078 -0.2903
 2478SOL    HW3 9984   1.149   4.311   4.137 -0.2430 -1.0898 -0.0859
 2478SOL    MW4 9985   1.085   4.343   4.187 -0.0951 -0.4220 -0.3214
 2479SOL     OW 9986   1.597   4.641   4.111 -0.4477  0.2307 -0.0527
 2479SOL    HW2 9987   1.672   4.664   4.166  0.5757  0.2487 -1.4343
 2479SOL    HW3 9988   1.527   4.699   4.140  0.7721  1.8826 -0.3791
 2479SOL    MW4 9989   1.598   4.651   4.122 -0.1518  0.4511 -0.2780
 2480SOL     OW 9990   1.362   0.101   4.233 -0.5912  0.5343  0.2066
 2480SOL    HW2 9991   1.357   0.085   4.327 -0.2939  0.9550  0.2967
 2480SOL    HW3 9992   1.280   0.066   4.198 -1.1887  1.3634  0.7638
 2480SOL    MW4 9993   1.350   0.094   4.241 -0.6307  0.6992  0.2918
 2481SOL     OW 9994   1.323   0.357   4.146 -0.3721  0.0509 -0.2416
 2481SOL    HW2 9995   1.405   0.394   4.180  0.8053 -1.1063 -1.8013
 2481SOL    HW3 9996   1.321   0.267   4.179 -1.6916  0.4668  0.8904
 2481SOL    MW4 9997   1.333   0.350   4.155 -0.3909 -0.0469 -0.2985
 2482SOL     OW 9998   1.572   0.453   4.269 -0.2667  0.6232 -0.4481
 2482SOL    HW2 9999   1.555   0.473   4.361 -0.4032  1.3646 -0.6287
 2482SOL    HW310000   1.570   0.538   4.225  1.7114  0.5060 -0.8232
 2482SOL    MW410001   1.570   0.467   4.275 -0.0238  0.7056 -0.5212
 2483SOL     OW10002   1.584   0.699   4.144  0.5298  0.2239  0.7071
 2483SOL    HW210003   1.668   0.735   4.172  0.3131  1.0318  0.3467
 2483SOL    HW310004   1.569   0.738   4.057  0.6784 -1.4007 -0.0617
 2483SOL    MW410005   1.593   0.709   4.136  0.5208  0.1161  0.5584
 2484SOL     OW10006   1.419   0.861   4.310  0.1201 -0.3510 -0.0772
 2484SOL    HW210007   1.446   0.951   4.293 -1.3617 -0.1249 -1.3518
 2484SOL    HW310008   1.486   0.807   4.269  0.8618  0.1717  0.4491
 2484SOL    MW410009   1.431   0.865   4.303  0.0225 -0.2522 -0.1760
 2485SOL     OW10010   1.344   1.323   4.126  0.1620  0.0481 -0.3879
 2485SOL    HW210011   1.260   1.324   4.171  0.1315 -0.8019 -0.4302
 2485SOL    HW310012   1.325   1.285   4.040  0.3058  1.2253 -0.9596
 2485SOL    MW410013   1.331   1.318   4.120  0.1769  0.0913 -0.4692
 2486SOL     OW10014   1.510   1.161   4.306 -0.2206 -0.1829  0.2360
 2486SOL    HW210015   1.470   1.137   4.389 -0.2435 -0.4915  0.1346
 2486SOL    HW310016   1.451   1.226   4.269  0.2489  0.6237  0.8782
 2486SOL    MW410017   1.497   1.166   4.312 -0.1615 -0.1172  0.3066
 2487SOL     OW10018   1.582   1.687   4.176  0.2958 -0.0274 -0.1075
 2487SOL    HW210019   1.488   1.675   4.187  0.2872  0.4203  0.3436
 2487SOL    HW310020   1.619   1.662   4.261  0.6054 -0.4351 -0.3616
 2487SOL    MW410021   1.574   1.682   4.189  0.3353 -0.0222 -0.0820
 2488SOL     OW10022   1.323   1.587   4.208 -0.0324  0.1862 -0.1757
 2488SOL    HW210023   1.348   1.496   4.194  2.0543  0.7099 -0.0794
 2488SOL    HW310024   1.239   1.596   4.163 -0.2187 -1.7482 -0.2647
 2488SOL    MW410025   1.315   1.576   4.200  0.2184  0.0001 -0.1740
 2489SOL     OW10026   1.403   1.983   4.084 -0.7706 -0.8687  0.1282
 2489SOL    HW210027   1.489   2.013   4.116 -0.3670 -1.8152 -0.0489
 2489SOL    HW310028   1.341   2.022   4.145 -0.2235 -0.1397  0.2403
 2489SOL    MW410029   1.406   1.992   4.096 -0.6450 -0.8974  0.1192
 2490SOL     OW10030   1.529   1.999   4.353  0.6176  0.0754 -0.0524
 2490SOL    HW210031   1.622   1.990   4.374  0.5214 -0.1036  0.3019
 2490SOL    HW310032   1.492   1.913   4.371  0.1489  0.4921  1.0010
 2490SOL    MW410033   1.537   1.987   4.358  0.5432  0.1068  0.1330
 2491SOL     OW10034   1.577   2.355   4.135 -0.3580  0.0072 -0.7559
 2491SOL    HW210035   1.644   2.296   4.170 -0.6068 -0.8380 -1.7058
 2491SOL    HW310036   1.582   2.344   4.040 -0.6313  1.2764 -0.9251
 2491SOL    MW410037   1.587   2.346   4.127 -0.4269  0.0629 -0.9036
 2492SOL     OW10038   1.332   2.483   4.238 -0.2796  0.3731 -0.1428
 2492SOL    HW210039   1.339   2.565   4.188 -0.3426  0.3930 -0.1185
 2492SOL    HW310040   1.402   2.428   4.202 -0.0346  0.5526  0.0535
 2492SOL    MW410041   1.342   2.487   4.227 -0.2557  0.3994 -0.1140
 2493SOL     OW10042   1.319   2.715   4.084 -0.0742 -0.5272  0.2666
 2493SOL    HW210043   1.393   2.764   4.120 -0.7657  0.8087 -0.0665
 2493SOL    HW310044   1.245   2.741   4.139 -0.4593 -1.1615  0.0476
 2493SOL    MW410045   1.319   2.725   4.096 -0.2164 -0.4349  0.1931
 2494SOL     OW10046   1.534   2.807   4.216  0.6236 -0.4091  0.1958
 2494SOL    HW210047   1.532   2.810   4.312 -0.9378  0.7430  0.1443
 2494SOL    HW310048   1.564   2.894   4.190 -1.7338  0.2716 -0.4018
 2494SOL    MW410049   1.538   2.819   4.225  0.1066 -0.1671  0.1106
 2495SOL     OW10050   1.615   3.072   4.159  0.0768  0.0036  0.7840
 2495SOL    HW210051   1.691   3.106   4.206 -0.1607 -0.5809  1.6158
 2495SOL    HW310052   1.540   3.103   4.210 -0.3455  2.0513 -0.9915
 2495SOL    MW410053   1.615   3.081   4.172 -0.0103  0.1965  0.6595
 2496SOL     OW10054   1.363   3.140   4.267 -0.5332  0.1215 -0.4226
 2496SOL    HW210055   1.386   3.138   4.360 -0.6064  0.6564 -0.3883
 2496SOL    HW310056   1.383   3.230   4.240  1.3770 -0.5663 -1.3935
 2496SOL    MW410057   1.369   3.152   4.276 -0.2909  0.1016 -0.5469
 2497SOL     OW10058   1.390   3.421   4.199  0.6366 -0.1905  0.3507
 2497SOL    HW210059   1.318   3.479   4.225  1.2276  0.5050  0.4496
 2497SOL    HW310060   1.415   3.452   4.112 -0.4230 -1.6354 -0.5075
 2497SOL    MW410061   1.384   3.433   4.191  0.5748 -0.2892  0.2508
 2498SOL     OW10062   1.613   3.633   4.248 -0.2045  0.2940 -0.2962
 2498SOL    HW210063   1.640   3.672   4.331 -0.0598  0.3244 -0.3582
 2498SOL    HW310064   1.538   3.578   4.271 -0.3660  0.5562 -0.1979
 2498SOL    MW410065   1.607   3.631   4.262 -0.2067  0.3324 -0.2913
 2499SOL     OW10066   1.562   3.852   4.105 -0.0618  0.0692  0.3601
 2499SOL    HW210067   1.487   3.903   4.135 -0.2618 -0.0758  0.1036
 2499SOL    HW310068   1.557   3.771   4.156  0.3259  0.3536  0.8573
 2499SOL    MW410069   1.552   3.848   4.116 -0.0370  0.0875  0.3920
 2500SOL     OW10070   1.315   3.984   4.188 -0.2190  0.1289  0.3244
 2500SOL    HW210071   1.317   3.992   4.284  0.5469 -0.7496  0.3964
 2500SOL    HW310072   1.328   4.073   4.156  1.3533  0.1841  1.0524
 2500SOL    MW410073   1.317   3.997   4.197  0.0894  0.0205  0.4301
 2501SOL     OW10074   1.324   4.248   4.118  0.6168 -0.4103 -0.2097
 2501SOL    HW210075   1.401   4.287   4.159 -0.2875  2.1671 -0.9106
 2501SOL    HW310076   1.333   4.268   4.025 -0.5918 -0.6327 -0.3851
 2501SOL    MW410077   1.335   4.256   4.112  0.3380 -0.0997 -0.3252
 2502SOL     OW10078   1.534   4.381   4.227 -0.2232  0.0668 -0.0229
 2502SOL    HW210079   1.563   4.465   4.191 -0.5028 -0.5445 -1.6817
 2502SOL    HW310080   1.607   4.321   4.209  0.1959  0.0439  1.6143
 2502SOL    MW410081   1.548   4.385   4.220 -0.2049 -0.0167 -0.0257
 2503SOL     OW10082   2.030   4.627   4.154  0.2688 -0.4060  0.4900
 2503SOL    HW210083   1.961   4.671   4.204  0.8188 -0.2014  1.0803
 2503SOL    HW310084   2.002   4.633   4.063  0.0704  0.6931  0.6197
 2503SOL    MW410085   2.017   4.634   4.149  0.3150 -0.2341  0.5851
 2504SOL     OW10086   1.790   0.075   4.288 -0.8069 -0.7691  0.1664
 2504SOL    HW210087   1.761   0.084   4.378 -0.0805 -0.7478  0.4002
 2504SOL    HW310088   1.796   0.165   4.255 -0.0157 -0.7194  0.4374
 2504SOL    MW410089   1.787   0.089   4.295 -0.6067 -0.7597  0.2332
 2505SOL     OW10090   1.788   0.316   4.167 -0.1534 -0.0257 -0.0183
 2505SOL    HW210091   1.869   0.363   4.188  0.0451  0.3678 -1.5360
 2505SOL    HW310092   1.720   0.362   4.217  0.2586  0.9832 -0.3607
 2505SOL    MW410093   1.790   0.328   4.176 -0.0728  0.1593 -0.2637
 2506SOL     OW10094   2.035   0.469   4.215  0.0879  0.0921 -0.0504
 2506SOL    HW210095   2.016   0.483   4.307 -2.1318  0.8829 -0.5831
 2506SOL    HW310096   2.121   0.428   4.213  0.4576  0.7277  2.3194
 2506SOL    MW410097   2.044   0.465   4.227 -0.1562  0.2804  0.1922
 2507SOL     OW10098   2.046   0.726   4.129  0.3733 -0.2055  0.1689
 2507SOL    HW210099   2.116   0.774   4.172  0.4970  0.6701 -1.0030
 2507SOL    HW310100   2.064   0.634   4.150  0.4473  0.1978  1.9399
 2507SOL    MW410101   2.057   0.720   4.138  0.3994 -0.0368  0.2475
 2508SOL     OW10102   1.815   0.824   4.262 -0.1521  0.2396 -0.5192
 2508SOL    HW210103   1.794   0.912   4.231  0.2180  0.3766 -0.3882
 2508SOL    HW310104   1.887   0.796   4.206  0.2942  0.3561 -0.0085
 2508SOL    MW410105   1.822   0.832   4.250 -0.0442  0.2731 -0.4349
 2509SOL     OW10106   1.734   1.071   4.172  0.3617 -0.2452  0.1286
 2509SOL    HW210107   1.810   1.122   4.201 -0.3254  0.7541  0.2083
 2509SOL    HW310108   1.659   1.111   4.217 -0.2417 -1.0730 -0.1210
 2509SOL    MW410109   1.734   1.083   4.182  0.1916 -0.2226  0.1063
 2510SOL     OW10110   1.934   1.503   4.299  0.2674  0.4474 -0.1349
 2510SOL    HW210111   1.983   1.545   4.228  2.3786 -1.7417 -0.0071
 2510SOL    HW310112   1.983   1.526   4.378 -0.4895  0.5199  0.3162
 2510SOL    MW410113   1.947   1.512   4.300  0.4461  0.1682 -0.0587
 2511SOL     OW10114   2.092   1.597   4.092 -0.3295 -0.6640 -0.1499
 2511SOL    HW210115   2.180   1.634   4.080 -0.9246  0.8089 -0.0366
 2511SOL    HW310116   2.065   1.570   4.005 -0.5875  0.7896 -0.5382
 2511SOL    MW410117   2.100   1.599   4.079 -0.4423 -0.2779 -0.1855
 2512SOL     OW10118   1.703   1.600   4.423 -0.1687  0.4144 -0.5637
 2512SOL    HW210119   1.744   1.684   4.445  1.4579 -0.5598  0.1503
 2512SOL    HW310120   1.766   1.557   4.366 -0.6225 -0.7061 -0.2235
 2512SOL    MW410121   1.716   1.606   4.418 -0.0141  0.1380 -0.4249
 2513SOL     OW10122   1.745   1.909   4.105 -0.1791 -0.1660  0.1942
 2513SOL    HW210123   1.832   1.883   4.135  0.0908  0.7276  0.1840
 2513SOL    HW310124   1.687   1.841   4.138  0.5955 -1.0632 -0.2665
 2513SOL    MW410125   1.748   1.896   4.113 -0.0412 -0.1665  0.1316
 2514SOL     OW10126   1.952   2.018   4.665  0.1635 -0.2828 -0.2783
 2514SOL    HW210127   1.895   2.044   4.737  0.7984  0.9349 -0.1964
 2514SOL    HW310128   2.021   1.967   4.707  1.0970  1.2957  0.1344
 2514SOL    MW410129   1.954   2.015   4.680  0.3704  0.0861 -0.2131
 2515SOL     OW10130   2.034   2.250   4.057  0.5852 -0.3965  0.0843
 2515SOL    HW210131   2.028   2.294   3.972 -2.7622  0.8700  0.9081
 2515SOL    HW310132   2.088   2.309   4.110 -0.0212  0.4113 -0.1959
 2515SOL    MW410133   2.041   2.264   4.053  0.0639 -0.1228  0.1564
 2516SOL     OW10134   1.806   2.207   4.202  0.1303  0.2344 -0.0386
 2516SOL    HW210135   1.780   2.115   4.198  2.1707 -0.4041  0.7172
 2516SOL    HW310136   1.889   2.210   4.155  0.0535  1.7219 -0.1088
 2516SOL    MW410137   1.813   2.195   4.195  0.3895  0.3462  0.0515
 2517SOL     OW10138   1.718   2.608   4.115 -0.1047 -0.1495  0.4082
 2517SOL    HW210139   1.688   2.518   4.128 -0.9117 -0.1359 -1.2315
 2517SOL    HW310140   1.652   2.662   4.157 -0.0438 -0.2950  0.6892
 2517SOL    MW410141   1.705   2.604   4.122 -0.2030 -0.1664  0.2284
 2518SOL     OW10142   1.956   2.627   4.256 -0.3563 -0.1842  0.1481
 2518SOL    HW210143   1.956   2.552   4.314  0.2600 -1.9180 -2.0127
 2518SOL    HW310144   1.875   2.620   4.206  0.4553 -0.3613 -1.1906
 2518SOL    MW410145   1.945   2.616   4.257 -0.1677 -0.4363 -0.3138
 2519SOL     OW10146   2.079   2.852   4.415  0.6338 -0.1708  0.1282
 2519SOL    HW210147   2.021   2.798   4.362  0.7223  0.5314 -0.6889
 2519SOL    HW310148   2.111   2.919   4.355  1.3580  0.1535  0.8725
 2519SOL    MW410149   2.075   2.854   4.400  0.7410 -0.0355  0.1187
 2520SOL     OW10150   1.849   3.149   4.278 -0.0874 -0.3067 -0.5411
 2520SOL    HW210151   1.870   3.238   4.251 -0.2638 -0.1613 -0.2041
 2520SOL    HW310152   1.927   3.098   4.258  0.9750  0.4245  1.6389
 2520SOL    MW410153   1.862   3.154   4.272  0.0294 -0.1915 -0.2089
 2521SOL     OW10154   1.795   3.447   4.171 -0.1795 -0.2828 -0.2780
 2521SOL    HW210155   1.733   3.510   4.207  0.8526 -0.1157  1.2529
 2521SOL    HW310156   1.782   3.451   4.076 -0.8162  1.4900 -0.1289
 2521SOL    MW410157   1.785   3.456   4.163 -0.1273 -0.0267 -0.0563
 2522SOL     OW10158   2.033   3.560   4.278 -0.0552 -0.4453 -0.0307
 2522SOL    HW210159   2.014   3.649   4.246 -2.1570 -0.8806 -0.0685
 2522SOL    HW310160   1.960   3.507   4.246  1.1229 -2.1823  0.0921
 2522SOL    MW410161   2.021   3.565   4.269 -0.1771 -0.7317 -0.0196
 2523SOL     OW10162   1.986   3.836   4.211  0.0277 -0.4613  0.2835
 2523SOL    HW210163   1.914   3.897   4.223  1.4119  1.2183  0.2399
 2523SOL    HW310164   1.993   3.825   4.116 -0.5752 -1.1564  0.3090
 2523SOL    MW410165   1.977   3.842   4.200  0.1308 -0.3314  0.2809
 2524SOL     OW10166   1.760   3.991   4.243  0.3596  0.0026 -0.0181
 2524SOL    HW210167   1.763   4.074   4.196 -0.2697  0.2096  0.3086
 2524SOL    HW310168   1.699   3.937   4.192 -0.3574  0.2419  0.5899
 2524SOL    MW410169   1.753   3.995   4.230  0.1818  0.0618  0.1049
 2525SOL     OW10170   1.769   4.236   4.128  0.1191  0.0502  0.0071
 2525SOL    HW210171   1.845   4.279   4.166  0.0271 -1.0611  1.4775
 2525SOL    HW310172   1.774   4.257   4.034  2.3932 -0.2757  0.0345
 2525SOL    MW410173   1.780   4.244   4.121  0.4071 -0.1397  0.2050
 2526SOL     OW10174   2.000   4.371   4.248 -0.0796  0.0691  0.5465
 2526SOL    HW210175   1.995   4.374   4.343  0.5188  0.3137  0.5744
 2526SOL    HW310176   2.020   4.461   4.222  0.3388 -0.1117  0.2300
 2526SOL    MW410177   2.002   4.383   4.257  0.0546  0.0772  0.5088
 2527SOL     OW10178   2.478   4.599   4.133 -0.0893  0.0975  0.3817
 2527SOL    HW210179   2.543   4.652   4.179 -0.0850  1.0556 -0.6949
 2527SOL    HW310180   2.478   4.515   4.178  1.2047  0.4243  0.9911
 2527SOL    MW410181   2.487   4.595   4.145  0.0818  0.2666  0.3195
 2528SOL     OW10182   2.266   0.086   4.205  0.4193 -0.0137 -0.5103
 2528SOL    HW210183   2.332   0.024   4.175  0.4114 -0.1473 -0.2514
 2528SOL    HW310184   2.182   0.042   4.188  0.3857  0.2809 -1.1210
 2528SOL    MW410185   2.263   0.072   4.199  0.4137  0.0075 -0.5574
 2529SOL     OW10186   2.271   0.360   4.155 -0.1965 -0.5880  0.3050
 2529SOL    HW210187   2.265   0.265   4.160 -2.2330 -0.4137  1.7278
 2529SOL    HW310188   2.255   0.380   4.062 -1.9154 -1.5027  0.3933
 2529SOL    MW410189   2.268   0.350   4.143 -0.6919 -0.6857  0.5050
 2530SOL     OW10190   2.478   0.509   4.252 -0.0099  0.0297 -0.1097
 2530SOL    HW210191   2.476   0.514   4.347  1.0006 -1.5407  0.0080
 2530SOL    HW310192   2.407   0.448   4.230  0.0786  0.0076 -0.3353
 2530SOL    MW410193   2.468   0.501   4.261  0.1349 -0.1804 -0.1235
 2531SOL     OW10194   2.442   0.786   4.151 -0.2746  0.6656 -0.0155
 2531SOL    HW210195   2.445   0.698   4.188  0.4121  0.8995  0.4953
 2531SOL    HW310196   2.444   0.772   4.056  0.1277  0.1470  0.0688
 2531SOL    MW410197   2.442   0.772   4.144 -0.1311  0.6281  0.0639
 2532SOL     OW10198   2.208   0.924   4.244  0.3598  0.2914 -0.3773
 2532SOL    HW210199   2.214   0.915   4.339  0.8140  0.0450 -0.4307
 2532SOL    HW310200   2.287   0.882   4.210 -0.5698 -1.0540 -0.9417
 2532SOL    MW410201   2.219   0.917   4.252  0.2966  0.0813 -0.4587
 2533SOL     OW10202   2.220   1.171   4.159 -0.1188 -0.0643 -0.0469
 2533SOL    HW210203   2.304   1.205   4.189 -0.3460  0.5169 -0.0550
 2533SOL    HW310204   2.213   1.084   4.198 -0.0868  0.3926  0.9867
 2533SOL    MW410205   2.230   1.164   4.168 -0.1445  0.0728  0.0882
 2534SOL     OW10206   2.413   1.240   4.534 -0.0476 -0.2005 -0.0378
 2534SOL    HW210207   2.441   1.248   4.442  1.1391  0.2871  0.3574
 2534SOL    HW310208   2.485   1.193   4.576  0.3032  1.3038  1.0574
 2534SOL    MW410209   2.426   1.235   4.527  0.1554  0.0623  0.1588
 2535SOL     OW10210   2.463   1.285   4.273 -0.4032  0.6696  0.1528
 2535SOL    HW210211   2.539   1.235   4.244 -1.5043  0.0939 -1.8431
 2535SOL    HW310212   2.484   1.376   4.252 -0.1656  0.5296 -0.2229
 2535SOL    MW410213   2.475   1.290   4.266 -0.5174  0.5751 -0.1602
 2536SOL     OW10214   2.364   1.714   4.125  0.0665 -0.4288  0.2660
 2536SOL    HW210215   2.416   1.794   4.127  0.5351 -0.6950 -1.2492
 2536SOL    HW310216   2.412   1.653   4.182 -0.2827  0.3429  1.4056
 2536SOL    MW410217   2.377   1.716   4.133  0.0820 -0.3622  0.2165
 2537SOL     OW10218   2.168   2.031   4.163 -0.1750 -0.0250  0.4819
 2537SOL    HW210219   2.138   2.114   4.125  0.4408  0.6137  1.3682
 2537SOL    HW310220   2.218   2.057   4.241 -1.5187 -1.3253  1.7990
 2537SOL    MW410221   2.171   2.046   4.168 -0.2713 -0.1125  0.7725
 2538SOL     OW10222   2.861   2.222   4.667 -0.4470 -0.0400 -0.2346
 2538SOL    HW210223   2.810   2.297   4.698 -0.9669 -0.5400  0.1289
 2538SOL    HW310224   2.805   2.180   4.602 -0.2533 -0.2563 -0.2628
 2538SOL    MW410225   2.847   2.227   4.663 -0.4897 -0.1347 -0.1903
 2539SOL     OW10226   2.431   2.236   4.112 -0.3791  0.1959 -0.0514
 2539SOL    HW210227   2.474   2.246   4.027  0.9868  0.6333  0.6863
 2539SOL    HW310228   2.458   2.150   4.143  0.9212  0.9504  0.9426
 2539SOL    MW410229   2.440   2.226   4.105 -0.0274  0.3531  0.1769
 2540SOL     OW10230   2.220   2.391   4.186 -0.1243 -0.2959  0.1518
 2540SOL    HW210231   2.300   2.341   4.170  0.9109  1.7568 -1.5311
 2540SOL    HW310232   2.229   2.424   4.275 -0.4562 -2.4199  0.9880
 2540SOL    MW410233   2.232   2.389   4.195 -0.0312 -0.3052  0.0401
 2541SOL     OW10234   2.169   2.645   4.075  0.2321  0.1957  0.0892
 2541SOL    HW210235   2.201   2.556   4.092  0.2011  0.1014 -0.3458
 2541SOL    HW310236   2.101   2.658   4.141  0.0652 -0.1973  0.0013
 2541SOL    MW410237   2.164   2.635   4.086  0.2058  0.1314  0.0196
 2542SOL     OW10238   2.386   2.801   4.175  0.2168  0.5692 -0.0234
 2542SOL    HW210239   2.367   2.798   4.269  1.4714  1.4994  0.2611
 2542SOL    HW310240   2.315   2.750   4.136  0.2261 -0.6721  1.5097
 2542SOL    MW410241   2.374   2.794   4.183  0.3834  0.5283  0.2160
 2543SOL     OW10242   2.440   3.066   4.105  0.5087  0.0232  0.5063
 2543SOL    HW210243   2.383   3.121   4.159 -1.3601 -0.6537 -0.7108
 2543SOL    HW310244   2.423   2.977   4.137  0.7413 -0.2031 -0.0082
 2543SOL    MW410245   2.430   3.061   4.117  0.2930 -0.0958  0.2785
 2544SOL     OW10246   2.094   3.040   4.180  0.2224  0.0229  0.2739
 2544SOL    HW210247   2.139   3.122   4.200 -0.0440  0.0850  0.6313
 2544SOL    HW310248   2.074   3.045   4.087  1.1566 -0.1066  0.0620
 2544SOL    MW410249   2.097   3.051   4.171  0.3104  0.0141  0.2928
 2545SOL     OW10250   2.250   3.492   4.136 -0.7573  0.1109  0.2973
 2545SOL    HW210251   2.317   3.539   4.186  0.8561 -1.1564 -0.6541
 2545SOL    HW310252   2.167   3.525   4.172  0.3494  1.3149  1.8423
 2545SOL    MW410253   2.248   3.503   4.147 -0.3986  0.1023  0.3753
 2546SOL     OW10254   2.452   3.615   4.294  0.4498 -0.3960 -0.3617
 2546SOL    HW210255   2.436   3.631   4.387 -0.9369  0.4678 -0.7314
 2546SOL    HW310256   2.458   3.702   4.256  2.5467 -0.7392 -0.8455
 2546SOL    MW410257   2.451   3.628   4.302  0.5436 -0.3273 -0.4749
 2547SOL     OW10258   2.438   3.855   4.171 -0.4695 -0.1505 -0.1797
 2547SOL    HW210259   2.508   3.913   4.202 -0.8594  0.2005  0.0371
 2547SOL    HW310260   2.449   3.854   4.076 -0.4348  0.2442 -0.1806
 2547SOL    MW410261   2.449   3.863   4.163 -0.5164 -0.0520 -0.1512
 2548SOL     OW10262   2.209   3.961   4.320  0.2220  0.6271  0.0026
 2548SOL    HW210263   2.282   3.920   4.273 -0.1034 -0.7111  0.6264
 2548SOL    HW310264   2.131   3.920   4.283 -0.0742  0.1732  1.1322
 2548SOL    MW410265   2.209   3.950   4.309  0.1400  0.3908  0.2341
 2549SOL     OW10266   2.233   4.227   4.153 -0.1263 -0.0044  0.1210
 2549SOL    HW210267   2.221   4.155   4.215  0.4901  0.6399  1.0003
 2549SOL    HW310268   2.172   4.295   4.184  0.1061  0.2765 -0.0357
 2549SOL    MW410269   2.223   4.226   4.165 -0.0143  0.1173  0.2160
 2550SOL     OW10270   2.453   4.355   4.264  0.0014  0.4079 -0.3941
 2550SOL    HW210271   2.526   4.309   4.221 -0.4070 -0.6072 -0.0116
 2550SOL    HW310272   2.374   4.313   4.229 -0.3792  0.9201 -0.1533
 2550SOL    MW410273   2.452   4.343   4.253 -0.1025  0.3419 -0.3119
 2551SOL     OW10274   2.924   4.605   4.158  0.4407 -0.5544 -0.3430
 2551SOL    HW210275   2.997   4.654   4.194  0.2690  0.7092 -1.6691
 2551SOL    HW310276   2.910   4.533   4.221  1.4977  0.3487  0.9585
 2551SOL    MW410277   2.932   4.602   4.171  0.5577 -0.2685 -0.3462
 2552SOL     OW10278   2.696   0.078   4.256  0.0855 -0.4937 -0.1492
 2552SOL    HW210279   2.714   0.166   4.221 -0.0309 -0.5762 -0.4181
 2552SOL    HW310280   2.772   0.026   4.232  0.8180 -0.1016  1.2860
 2552SOL    MW410281   2.708   0.083   4.248  0.1669 -0.4528  0.0043
 2553SOL     OW10282   2.726   0.390   4.154 -0.3999 -0.1978 -0.3422
 2553SOL    HW210283   2.647   0.427   4.193  0.0969  0.3844  0.1042
 2553SOL    HW310284   2.706   0.387   4.060 -0.5196  1.0241 -0.3635
 2553SOL    MW410285   2.713   0.395   4.146 -0.3500  0.0402 -0.2861
 2554SOL     OW10286   2.930   0.527   4.267 -0.5302 -0.1472  0.1727
 2554SOL    HW210287   2.926   0.596   4.201  1.7087 -1.0857 -1.0048
 2554SOL    HW310288   2.859   0.467   4.242 -1.2795  0.7629  0.0903
 2554SOL    MW410289   2.920   0.528   4.255 -0.3335 -0.1509  0.0072
 2555SOL     OW10290   2.911   0.798   4.139  0.0779  0.2375  0.1466
 2555SOL    HW210291   2.994   0.844   4.145  0.1150  0.1138  0.6115
 2555SOL    HW310292   2.882   0.812   4.049  0.4400  0.5576  0.0791
 2555SOL    MW410293   2.918   0.806   4.128  0.1311  0.2634  0.1993
 2556SOL     OW10294   2.669   0.903   4.263  0.1147 -0.0293  0.0324
 2556SOL    HW210295   2.751   0.855   4.252  0.5691  0.8667 -0.6395
 2556SOL    HW310296   2.603   0.848   4.220  0.3863 -0.6907  0.4562
 2556SOL    MW410297   2.671   0.889   4.256  0.2105  0.0017 -0.0005
 2557SOL     OW10298   2.676   1.163   4.155  0.5145 -0.3552  0.4159
 2557SOL    HW210299   2.674   1.069   4.175 -0.0405 -0.4076  0.1356
 2557SOL    HW310300   2.673   1.167   4.060  1.1048 -0.0624  0.4076
 2557SOL    MW410301   2.675   1.151   4.145  0.5190 -0.3235  0.3772
 2558SOL     OW10302   2.914   1.217   4.286  0.6508  0.3216  0.3418
 2558SOL    HW210303   2.982   1.225   4.219  0.8172 -1.3737  0.2791
 2558SOL    HW310304   2.832   1.215   4.236  0.7820 -1.0830  0.1417
 2558SOL    MW410305   2.913   1.217   4.270  0.6900 -0.0875  0.3076
 2559SOL     OW10306   2.922   1.507   4.328 -0.1351 -0.6416 -0.1893
 2559SOL    HW210307   2.939   1.414   4.312 -1.9242 -1.5420  2.6735
 2559SOL    HW310308   3.008   1.545   4.344  0.3994 -2.4383  1.4780
 2559SOL    MW410309   2.935   1.500   4.328 -0.3006 -0.9974  0.4086
 2560SOL     OW10310   2.793   1.628   4.095 -0.5903  0.2392  0.3096
 2560SOL    HW210311   2.860   1.614   4.161 -0.8641  1.8126  0.9574
 2560SOL    HW310312   2.830   1.591   4.014  0.3111 -0.4602  1.0362
 2560SOL    MW410313   2.806   1.622   4.093 -0.5071  0.3545  0.4907
 2561SOL     OW10314   2.780   1.923   4.119  0.0929 -0.0206  0.1570
 2561SOL    HW210315   2.770   1.828   4.134  0.3770  0.2555  2.2178
 2561SOL    HW310316   2.761   1.934   4.026 -2.1911 -1.8235  0.3508
 2561SOL    MW410317   2.776   1.912   4.109 -0.1709 -0.2221  0.4544
 2562SOL     OW10318   2.997   2.101   4.267  0.0696  0.1169 -0.3344
 2562SOL    HW210319   2.992   2.173   4.204 -1.6601  0.0216 -0.3299
 2562SOL    HW310320   2.909   2.062   4.266 -0.0043  0.1281  2.1499
 2562SOL    MW410321   2.984   2.105   4.259 -0.1683  0.1059 -0.0052
 2563SOL     OW10322   2.929   2.308   4.110 -0.5811 -0.2494  0.0510
 2563SOL    HW210323   3.007   2.355   4.139 -0.2635 -0.7194 -0.0476
 2563SOL    HW310324   2.856   2.352   4.155 -0.3672  0.8824 -0.6939
 2563SOL    MW410325   2.929   2.320   4.120 -0.5107 -0.1619 -0.0601
 2564SOL     OW10326   2.719   2.433   4.259  0.2518  0.0941  0.0755
 2564SOL    HW210327   2.744   2.461   4.348 -0.3610  1.2544 -0.1099
 2564SOL    HW310328   2.652   2.366   4.273 -0.8099  1.2381  0.4624
 2564SOL    MW410329   2.714   2.428   4.273  0.0308  0.3982  0.1025
 2565SOL     OW10330   2.640   2.700   4.153  0.6301  0.1517 -0.0833
 2565SOL    HW210331   2.658   2.615   4.193 -0.0871  0.2679  0.4958
 2565SOL    HW310332   2.550   2.720   4.179  0.8760  1.1952 -0.0300
 2565SOL    MW410333   2.630   2.691   4.162  0.5679  0.3049  0.0000
 2566SOL     OW10334   2.876   2.815   4.259  0.2863  0.1466 -0.3348
 2566SOL    HW210335   2.844   2.813   4.349  1.2813  0.5391  0.0401
 2566SOL    HW310336   2.806   2.775   4.207 -0.1605 -0.3663  0.6511
 2566SOL    MW410337   2.863   2.809   4.264  0.3586  0.1307 -0.1554
 2567SOL     OW10338   2.877   3.081   4.196  0.2398 -0.0524  0.3610
 2567SOL    HW210339   2.863   2.991   4.224  1.3069 -0.1529  0.6089
 2567SOL    HW310340   2.892   3.075   4.102  0.8410 -0.2065  0.4611
 2567SOL    MW410341   2.877   3.069   4.187  0.4594 -0.0861  0.4067
 2568SOL     OW10342   2.627   3.210   4.248  0.3232 -0.1547  0.6221
 2568SOL    HW210343   2.716   3.182   4.228 -0.3929 -1.6113 -0.5696
 2568SOL    HW310344   2.571   3.156   4.193 -1.3525  0.2400  1.8796
 2568SOL    MW410345   2.631   3.199   4.238  0.0079 -0.2949  0.6309
 2569SOL     OW10346   2.657   3.480   4.164  0.4235  0.2821 -0.3560
 2569SOL    HW210347   2.640   3.395   4.205  1.5198 -0.2632 -1.0339
 2569SOL    HW310348   2.589   3.537   4.200 -1.0737 -1.1666 -0.8243
 2569SOL    MW410349   2.646   3.477   4.174  0.3703  0.0191 -0.5074
 2570SOL     OW10350   2.887   3.607   4.268 -0.2559 -0.3554 -0.2142
 2570SOL    HW210351   2.891   3.616   4.363  0.6971  1.3447 -0.3941
 2570SOL    HW310352   2.808   3.555   4.252 -0.5678 -0.4364  1.4893
 2570SOL    MW410353   2.877   3.601   4.278 -0.1714 -0.1419 -0.0134
 2571SOL     OW10354   2.892   3.844   4.127 -0.1366  0.2945  0.2871
 2571SOL    HW210355   2.958   3.896   4.174  2.6444 -1.5359 -1.3934
 2571SOL    HW310356   2.887   3.762   4.175 -0.3702  0.0066 -0.2270
 2571SOL    MW410357   2.900   3.840   4.139  0.1996  0.0148 -0.0029
 2572SOL     OW10358   2.672   3.977   4.260  0.4684 -0.2469  0.3521
 2572SOL    HW210359   2.666   4.065   4.222 -1.2888 -0.8439 -0.8364
 2572SOL    HW310360   2.746   3.936   4.216 -0.5487 -0.3713 -1.2710
 2572SOL    MW410361   2.681   3.983   4.249  0.1025 -0.3419 -0.0186
 2573SOL     OW10362   2.673   4.248   4.149 -0.4819 -0.5468  0.6876
 2573SOL    HW210363   2.735   4.291   4.208 -1.7750  0.9112  1.0183
 2573SOL    HW310364   2.697   4.280   4.062  1.1835 -2.4034  0.4223
 2573SOL    MW410365   2.685   4.258   4.146 -0.4327 -0.5989  0.6967
 2574SOL     OW10366   2.871   4.367   4.290  0.6594 -0.3545  0.3892
 2574SOL    HW210367   2.921   4.377   4.371  0.3043 -1.6435  0.7675
 2574SOL    HW310368   2.931   4.325   4.229  0.9271  0.6167 -0.0289
 2574SOL    MW410369   2.885   4.363   4.292  0.6480 -0.3963  0.3843
 2575SOL     OW10370   3.323   4.665   4.081  0.2440 -0.0886 -0.2132
 2575SOL    HW210371   3.410   4.686   4.116  0.2081 -0.7184  0.2660
 2575SOL    HW310372   3.307   4.575   4.111 -0.8992  0.2912  0.3131
 2575SOL    MW410373   3.333   4.656   4.089  0.0887 -0.1216 -0.0811
 2576SOL     OW10374   3.143   0.110   4.239 -0.1014  0.3865  0.4167
 2576SOL    HW210375   3.183   0.098   4.325 -0.6793 -0.3469  0.5875
 2576SOL    HW310376   3.210   0.080   4.177  0.0383  0.2331  0.6416
 2576SOL    MW410377   3.157   0.105   4.242 -0.1593  0.2695  0.4687
 2577SOL     OW10378   3.111   0.377   4.139 -0.1227  0.2797  0.4421
 2577SOL    HW210379   3.094   0.297   4.189 -0.9468 -0.6160 -1.2399
 2577SOL    HW310380   3.054   0.443   4.180 -2.0611 -0.8609 -0.3742
 2577SOL    MW410381   3.101   0.375   4.151 -0.4873  0.0111  0.1125
 2578SOL     OW10382   3.327   0.512   4.254 -0.0485 -0.0304  0.3846
 2578SOL    HW210383   3.412   0.471   4.238  0.4451  1.0314  0.2373
 2578SOL    HW310384   3.267   0.468   4.193  0.4590 -0.5725  0.2745
 2578SOL    MW410385   3.330   0.501   4.244  0.0837  0.0381  0.3505
 2579SOL     OW10386   3.361   0.745   4.104  0.4097 -0.2211  0.0576
 2579SOL    HW210387   3.298   0.807   4.140  1.2244  0.7310 -0.0982
 2579SOL    HW310388   3.363   0.673   4.166  1.0571  0.9339  1.3999
 2579SOL    MW410389   3.353   0.744   4.117  0.6025  0.0569  0.2146
 2580SOL     OW10390   3.150   0.926   4.159 -0.1086 -0.8357 -0.2516
 2580SOL    HW210391   3.117   0.958   4.243  1.2189 -0.9540  0.3302
 2580SOL    HW310392   3.154   1.003   4.104  1.7945 -0.2109  0.7223
 2580SOL    MW410393   3.146   0.940   4.163  0.3176 -0.7688 -0.0467
 2581SOL     OW10394   3.109   1.218   4.094 -0.0789 -0.0541  0.8991
 2581SOL    HW210395   3.186   1.258   4.136  0.0710  0.6117 -0.0068
 2581SOL    HW310396   3.142   1.188   4.009 -0.6625 -0.3771  0.7898
 2581SOL    MW410397   3.124   1.219   4.088 -0.1361 -0.0088  0.7653
 2582SOL     OW10398   3.356   1.294   4.200 -0.6735  0.4952  0.1951
 2582SOL    HW210399   3.367   1.285   4.295  2.0840 -0.4313 -0.1470
 2582SOL    HW310400   3.351   1.388   4.185  1.0669  0.7519  1.0846
 2582SOL    MW410401   3.357   1.305   4.211 -0.0801  0.4069  0.2675
 2583SOL     OW10402   3.352   1.568   4.169  0.3425  0.4527 -0.5215
 2583SOL    HW210403   3.269   1.606   4.197  0.0790 -0.0427 -0.6328
 2583SOL    HW310404   3.347   1.568   4.073  0.6058  0.7260 -0.5353
 2583SOL    MW410405   3.340   1.573   4.160  0.3424  0.4234 -0.5379
 2584SOL     OW10406   3.149   1.678   4.308  0.0722 -0.6627 -0.3315
 2584SOL    HW210407   3.176   1.702   4.397  0.7611  1.3161 -1.0575
 2584SOL    HW310408   3.153   1.759   4.259  1.3466 -2.0670 -2.6223
 2584SOL    MW410409   3.153   1.692   4.313  0.3314 -0.5870 -0.7296
 2585SOL     OW10410   3.156   1.917   4.157  0.5771 -0.1028 -0.0946
 2585SOL    HW210411   3.242   1.947   4.187 -0.3202  0.5863  1.9206
 2585SOL    HW310412   3.094   1.972   4.205 -0.9922 -0.2190 -1.9285
 2585SOL    MW410413   3.159   1.928   4.168  0.2518 -0.0272 -0.0710
 2586SOL     OW10414   3.385   2.004   4.297  0.2830  0.1906  0.2215
 2586SOL    HW210415   3.474   1.973   4.280 -0.6349 -1.1436 -2.4483
 2586SOL    HW310416   3.385   2.094   4.265  0.7143  0.2545  0.3949
 2586SOL    MW410417   3.397   2.012   4.290  0.2186  0.0231 -0.1078
 2587SOL     OW10418   3.406   2.271   4.172  0.0453 -0.1704  0.7381
 2587SOL    HW210419   3.476   2.326   4.208  0.3025 -0.6309  0.9526
 2587SOL    HW310420   3.411   2.284   4.077  0.7451 -0.5733  0.7139
 2587SOL    MW410421   3.416   2.280   4.164  0.1714 -0.2844  0.7629
 2588SOL     OW10422   3.164   2.402   4.202 -0.0375  0.2048 -0.7021
 2588SOL    HW210423   3.252   2.368   4.191 -0.7174 -1.5258 -0.9702
 2588SOL    HW310424   3.175   2.497   4.206  1.8324  0.0017 -0.6355
 2588SOL    MW410425   3.177   2.410   4.201  0.1192 -0.0505 -0.7286
 2589SOL     OW10426   3.143   2.693   4.155 -0.3964 -0.3454 -0.5670
 2589SOL    HW210427   3.218   2.743   4.186 -0.3456 -0.3994 -0.6020
 2589SOL    HW310428   3.067   2.743   4.183 -0.3281  0.4334 -1.7537
 2589SOL    MW410429   3.143   2.706   4.163 -0.3808 -0.2501 -0.7286
 2590SOL     OW10430   3.346   2.844   4.257 -0.0668 -0.4943 -0.3209
 2590SOL    HW210431   3.434   2.820   4.227 -0.0872 -1.1892  0.1711
 2590SOL    HW310432   3.339   2.937   4.237  1.0205 -0.2890  0.2124
 2590SOL    MW410433   3.357   2.853   4.250  0.0741 -0.5591 -0.1855
 2591SOL     OW10434   3.316   3.112   4.184 -0.4009  0.1473 -0.2101
 2591SOL    HW210435   3.238   3.163   4.202 -1.7182 -1.2557 -1.7579
 2591SOL    HW310436   3.323   3.113   4.088  1.3306  0.0318 -0.0980
 2591SOL    MW410437   3.307   3.119   4.174 -0.3462 -0.0529 -0.3991
 2592SOL     OW10438   3.082   3.199   4.323  0.1442  0.0643 -0.1576
 2592SOL    HW210439   3.085   3.291   4.296  0.2510  0.2550  0.4905
 2592SOL    HW310440   3.006   3.164   4.278  1.0857  0.0273 -1.7774
 2592SOL    MW410441   3.073   3.207   4.314  0.2825  0.0844 -0.2861
 2593SOL     OW10442   3.086   3.444   4.179  0.3555 -0.1090  0.2820
 2593SOL    HW210443   3.012   3.502   4.193  0.1102 -0.2907 -0.2391
 2593SOL    HW310444   3.079   3.418   4.087  0.7440 -0.5655  0.3792
 2593SOL    MW410445   3.075   3.448   4.169  0.3743 -0.1931  0.2260
 2594SOL     OW10446   3.314   3.636   4.218  0.0543  0.2558  0.2337
 2594SOL    HW210447   3.336   3.614   4.308  0.2270 -0.0731  0.1135
 2594SOL    HW310448   3.238   3.581   4.198 -0.6023  1.0596  0.5042
 2594SOL    MW410449   3.307   3.626   4.227 -0.0098  0.3185  0.2537
 2595SOL     OW10450   3.311   3.899   4.127 -0.2179  0.1320 -0.4286
 2595SOL    HW210451   3.316   3.809   4.161 -0.1731 -0.3788 -1.7770
 2595SOL    HW310452   3.294   3.889   4.034  0.6033  1.5150 -0.7471
 2595SOL    MW410453   3.309   3.886   4.119 -0.1037  0.2472 -0.6485
 2596SOL     OW10454   3.097   4.018   4.231  0.0367  0.1811 -0.0890
 2596SOL    HW210455   3.113   4.021   4.326  0.3167  2.5587 -0.1834
 2596SOL    HW310456   3.172   3.972   4.196  1.3555  1.7483  0.5929
 2596SOL    MW410457   3.109   4.013   4.239  0.2477  0.7014 -0.0119
 2597SOL     OW10458   3.073   4.268   4.113 -0.5322  0.0548  0.4619
 2597SOL    HW210459   3.139   4.327   4.150 -0.3537  0.5755 -0.6797
 2597SOL    HW310460   3.095   4.182   4.150 -0.4492  0.5909  1.6823
 2597SOL    MW410461   3.085   4.264   4.123 -0.4976  0.1945  0.4721
 2598SOL     OW10462   3.295   4.435   4.195  0.1642  0.0209 -0.3339
 2598SOL    HW210463   3.287   4.465   4.285 -2.2748 -1.3333 -0.0563
 2598SOL    HW310464   3.376   4.385   4.192 -0.4385 -1.0930  1.4656
 2598SOL    MW410465   3.304   4.433   4.206 -0.2372 -0.3047 -0.0596
 2599SOL     OW10466   3.795   0.030   4.155 -0.2282  0.1334 -0.1141
 2599SOL    HW210467   3.884   0.053   4.183 -0.1713 -1.5264  1.1443
 2599SOL    HW310468   3.799   0.036   4.059  1.3135 -0.1129 -0.0914
 2599SOL    MW410469   3.807   0.034   4.146 -0.0172 -0.1181  0.0558
 2600SOL     OW10470   3.536   0.100   4.227 -0.3313 -0.7015 -0.2360
 2600SOL    HW210471   3.531   0.191   4.197  0.4855 -0.0988  1.4246
 2600SOL    HW310472   3.625   0.073   4.205 -0.4404 -0.9735 -0.3419
 2600SOL    MW410473   3.547   0.109   4.220 -0.2382 -0.6579 -0.0315
 2601SOL     OW10474   3.555   0.380   4.157  0.1603 -0.0974  0.2951
 2601SOL    HW210475   3.637   0.429   4.154 -0.0775  0.2773 -0.0479
 2601SOL    HW310476   3.526   0.375   4.066 -0.0406 -0.4969  0.3773
 2601SOL    MW410477   3.562   0.386   4.144  0.1028 -0.1006  0.2608
 2602SOL     OW10478   3.808   0.510   4.213 -0.4375 -0.0766  0.4906
 2602SOL    HW210479   3.820   0.503   4.307  0.2170  0.2038  0.4328
 2602SOL    HW310480   3.795   0.603   4.197 -2.1890 -0.3132  0.4818
 2602SOL    MW410481   3.808   0.521   4.223 -0.5820 -0.0708  0.4821
 2603SOL     OW10482   3.796   0.778   4.152 -0.3451  0.3990 -0.1376
 2603SOL    HW210483   3.718   0.831   4.167  0.0073  1.0778 -0.7056
 2603SOL    HW310484   3.836   0.815   4.073  1.5576  1.2273  1.1790
 2603SOL    MW410485   3.791   0.790   4.143 -0.0474  0.5978 -0.0386
 2604SOL     OW10486   3.569   0.910   4.215  0.1369 -0.0842  0.2826
 2604SOL    HW210487   3.567   1.002   4.191 -0.7821 -0.1506  0.0638
 2604SOL    HW310488   3.500   0.870   4.162 -0.0580 -0.7316  1.0109
 2604SOL    MW410489   3.559   0.917   4.205 -0.0103 -0.1783  0.3500
 2605SOL     OW10490   3.611   1.178   4.151 -0.3308  0.9859  0.1698
 2605SOL    HW210491   3.528   1.218   4.175  0.1453  2.2297 -0.2180
 2605SOL    HW310492   3.610   1.178   4.055  0.4226  1.6807  0.1562
 2605SOL    MW410493   3.600   1.183   4.141 -0.1688  1.2416  0.1168
 2606SOL     OW10494   3.855   1.268   4.228 -0.2823 -0.2932 -0.3182
 2606SOL    HW210495   3.775   1.231   4.190 -0.5768  0.4418 -0.4271
 2606SOL    HW310496   3.850   1.362   4.208 -0.7624  0.2459  2.0420
 2606SOL    MW410497   3.844   1.276   4.221 -0.3843 -0.1252 -0.0210
 2607SOL     OW10498   3.843   1.535   4.160 -0.1141  0.3415 -0.2256
 2607SOL    HW210499   3.911   1.575   4.215  0.2320  0.9320 -1.0810
 2607SOL    HW310500   3.763   1.582   4.183 -0.1019  0.1325  0.2593
 2607SOL    MW410501   3.842   1.546   4.170 -0.0665  0.3917 -0.2742
 2608SOL     OW10502   3.609   1.671   4.224 -0.3108  0.2656 -0.2458
 2608SOL    HW210503   3.529   1.623   4.205  1.5657 -2.8744 -0.5810
 2608SOL    HW310504   3.631   1.648   4.314  0.5513  0.6003 -0.3603
 2608SOL    MW410505   3.601   1.662   4.234  0.0505 -0.1044 -0.3047
 2609SOL     OW10506   3.640   1.940   4.199  0.1017 -0.0452  0.2532
 2609SOL    HW210507   3.637   1.845   4.213 -1.1539  0.2603  2.2475
 2609SOL    HW310508   3.600   1.952   4.113  1.6969 -1.4304 -0.7210
 2609SOL    MW410509   3.634   1.929   4.189  0.1466 -0.1876  0.3877
 2610SOL     OW10510   3.889   2.010   4.093 -0.0974  0.2836 -0.1307
 2610SOL    HW210511   3.959   1.967   4.142  0.6613  0.2910 -1.2054
 2610SOL    HW310512   3.809   1.981   4.137  0.4890 -0.9643  0.1520
 2610SOL    MW410513   3.887   2.000   4.105  0.0799  0.1197 -0.2356
 2611SOL     OW10514   3.831   2.307   4.128  0.3508 -0.7155  0.1405
 2611SOL    HW210515   3.844   2.213   4.144 -2.1598 -1.2412 -0.7790
 2611SOL    HW310516   3.841   2.316   4.033 -1.5714 -0.4349 -0.0472
 2611SOL    MW410517   3.834   2.296   4.117 -0.2341 -0.7479 -0.0062
 2612SOL     OW10518   3.608   2.450   4.254  0.4632 -0.4699 -0.2631
 2612SOL    HW210519   3.626   2.470   4.346  1.1389  0.0740 -0.5115
 2612SOL    HW310520   3.686   2.402   4.224  0.1316 -0.8764 -0.4823
 2612SOL    MW410521   3.621   2.446   4.262  0.5085 -0.4520 -0.3252
 2613SOL     OW10522   3.584   2.728   4.185  0.2435 -0.4851 -0.2691
 2613SOL    HW210523   3.571   2.636   4.208 -0.3612 -0.8009 -1.8213
 2613SOL    HW310524   3.562   2.732   4.092 -0.6001  1.4064 -0.0005
 2613SOL    MW410525   3.579   2.716   4.176  0.0525 -0.2775 -0.4387
 2614SOL     OW10526   3.804   2.865   4.248 -0.5092  0.1328 -0.0974
 2614SOL    HW210527   3.781   2.899   4.335  0.4123 -1.4740  0.7903
 2614SOL    HW310528   3.728   2.812   4.223 -1.1191  1.2391 -0.6421
 2614SOL    MW410529   3.791   2.862   4.256 -0.4680  0.0670 -0.0525
 2615SOL     OW10530   3.757   3.120   4.134 -0.4625  0.2935  0.3771
 2615SOL    HW210531   3.762   3.029   4.165 -0.3897  0.5959  1.2630
 2615SOL    HW310532   3.751   3.112   4.038 -0.9697 -0.6621  0.4766
 2615SOL    MW410533   3.757   3.107   4.125 -0.5198  0.2072  0.5069
 2616SOL     OW10534   3.544   3.238   4.287 -0.2958 -0.1184  0.2687
 2616SOL    HW210535   3.615   3.201   4.235 -0.5484  0.4445 -0.4719
 2616SOL    HW310536   3.470   3.179   4.272 -0.0746 -0.5484  0.8246
 2616SOL    MW410537   3.544   3.225   4.278 -0.2997 -0.1009  0.2446
 2617SOL     OW10538   3.535   3.490   4.129  0.1258 -0.0066 -0.1744
 2617SOL    HW210539   3.540   3.411   4.184  1.8514  1.2781  1.5718
 2617SOL    HW310540   3.450   3.528   4.150  0.1451 -0.3312  0.5170
 2617SOL    MW410541   3.524   3.484   4.139  0.3560  0.1199  0.1473
 2618SOL     OW10542   3.741   3.644   4.252  0.2816  0.1037  0.3344
 2618SOL    HW210543   3.825   3.601   4.237 -0.0318 -0.1096 -0.8628
 2618SOL    HW310544   3.677   3.587   4.209 -0.2752  1.1317 -0.2101
 2618SOL    MW410545   3.744   3.631   4.244  0.1664  0.2112  0.1049
 2619SOL     OW10546   3.784   3.901   4.129 -0.8282 -0.6258 -0.0281
 2619SOL    HW210547   3.709   3.956   4.151 -0.8925 -0.3795 -0.8469
 2619SOL    HW310548   3.767   3.819   4.176 -0.5555  0.1603  1.4707
 2619SOL    MW410549   3.772   3.897   4.138 -0.8011 -0.4897  0.0620
 2620SOL     OW10550   3.555   4.031   4.215 -0.1926 -0.3258  0.1374
 2620SOL    HW210551   3.536   4.038   4.309  1.5648  1.0372  0.4255
 2620SOL    HW310552   3.483   3.979   4.180 -1.4951  0.1133  2.0468
 2620SOL    MW410553   3.543   4.025   4.223 -0.1326 -0.0882  0.4282
 2621SOL     OW10554   3.525   4.289   4.138  0.0094 -0.2872 -0.1588
 2621SOL    HW210555   3.609   4.334   4.146 -1.3342  1.9640  1.5453
 2621SOL    HW310556   3.544   4.199   4.164  1.8600  0.2199  0.3128
 2621SOL    MW410557   3.539   4.283   4.142  0.0765  0.0768  0.1292
 2622SOL     OW10558   3.761   4.416   4.205 -0.1652 -0.3281  0.0244
 2622SOL    HW210559   3.842   4.368   4.194 -0.8367 -0.7416 -3.5947
 2622SOL    HW310560   3.785   4.508   4.192  0.2563 -0.1309  2.1054
 2622SOL    MW410561   3.775   4.422   4.202 -0.1981 -0.3572 -0.1783
 2623SOL     OW10562   4.261   4.658   4.172 -0.1098  0.3153 -0.6543
 2623SOL    HW210563   4.244   4.583   4.229 -0.6143  0.4543 -0.6233
 2623SOL    HW310564   4.343   4.695   4.206 -0.2469  0.2193 -0.2078
 2623SOL    MW410565   4.270   4.653   4.184 -0.1950  0.3209 -0.5918
 2624SOL     OW10566   4.031   0.153   4.257 -0.1994  0.0221  0.1612
 2624SOL    HW210567   4.022   0.230   4.202 -0.4281 -0.8690 -1.0777
 2624SOL    HW310568   4.109   0.108   4.223 -0.7434 -0.8924  0.1154
 2624SOL    MW410569   4.040   0.157   4.246 -0.3009 -0.2161 -0.0086
 2625SOL     OW10570   4.026   0.380   4.125  0.2913 -0.3885  0.5382
 2625SOL    HW210571   4.101   0.416   4.172 -0.2636  1.1814  0.2548
 2625SOL    HW310572   3.951   0.427   4.160 -0.1631  0.6510 -1.7414
 2625SOL    MW410573   4.026   0.391   4.136  0.1583 -0.0443  0.1998
 2626SOL     OW10574   4.251   0.499   4.231  0.2540 -0.2161  0.7908
 2626SOL    HW210575   4.242   0.594   4.224 -0.0591 -0.1938  1.4389
 2626SOL    HW310576   4.330   0.479   4.182 -0.4515  0.2118 -0.5361
 2626SOL    MW410577   4.260   0.509   4.224  0.1197 -0.1567  0.7014
 2627SOL     OW10578   4.244   0.765   4.204  0.1239  0.4930  0.3604
 2627SOL    HW210579   4.160   0.810   4.217  0.1356  0.7663 -0.4544
 2627SOL    HW310580   4.260   0.772   4.110 -0.5283 -2.3577 -0.0172
 2627SOL    MW410581   4.235   0.772   4.193  0.0391  0.1529  0.2031
 2628SOL     OW10582   4.007   0.910   4.262 -0.1355 -0.0092  0.3279
 2628SOL    HW210583   4.014   0.995   4.218 -1.3365  0.2485  0.6261
 2628SOL    HW310584   3.927   0.871   4.226  1.2950 -1.7544 -1.0583
 2628SOL    MW410585   3.997   0.916   4.251 -0.1051 -0.2055  0.1845
 2629SOL     OW10586   4.072   1.154   4.125 -0.0144 -0.2619  0.6810
 2629SOL    HW210587   4.145   1.199   4.168 -0.3505 -0.4265  1.4372
 2629SOL    HW310588   3.994   1.193   4.164 -0.3097 -1.5596  1.4288
 2629SOL    MW410589   4.072   1.165   4.136 -0.0978 -0.4549  0.8793
 2630SOL     OW10590   4.289   1.285   4.241  0.2828 -0.3241  0.1014
 2630SOL    HW210591   4.290   1.284   4.337 -1.3870 -0.7735  0.1248
 2630SOL    HW310592   4.360   1.226   4.216  1.0806  0.2226  1.0585
 2630SOL    MW410593   4.298   1.277   4.250  0.1678 -0.3113  0.2308
 2631SOL     OW10594   4.280   1.556   4.184 -0.4227  0.7727  0.3937
 2631SOL    HW210595   4.282   1.462   4.199 -0.4436  0.5372 -1.0465
 2631SOL    HW310596   4.251   1.566   4.093  2.1277  2.0719 -0.3325
 2631SOL    MW410597   4.276   1.545   4.174 -0.0892  0.9130  0.1078
 2632SOL     OW10598   4.050   1.667   4.311  0.0095  0.2226  0.5885
 2632SOL    HW210599   4.067   1.672   4.405  0.6724 -0.7005  0.5272
 2632SOL    HW310600   4.133   1.638   4.274 -0.5653 -0.4947 -0.1605
 2632SOL    MW410601   4.063   1.664   4.319  0.0215  0.0062  0.4821
 2633SOL     OW10602   4.073   1.948   4.298  0.3823  0.4923 -0.3895
 2633SOL    HW210603   4.067   1.853   4.307  0.8870  0.3193 -1.7882
 2633SOL    HW310604   4.016   1.982   4.367 -0.1957 -0.8333 -0.1983
 2633SOL    MW410605   4.064   1.940   4.308  0.3729  0.2946 -0.5488
 2634SOL     OW10606   0.014   1.903   4.205 -0.3694  0.4874 -0.0342
 2634SOL    HW210607   0.091   1.956   4.228 -0.0286 -0.5883  1.4260
 2634SOL    HW310608  -0.061   1.960   4.222  0.0735  1.4108 -1.0872
 2634SOL    MW410609   0.015   1.918   4.210 -0.2660  0.4673  0.0196
 2635SOL     OW10610   4.269   2.336   4.148  0.2231 -0.1257  0.4080
 2635SOL    HW210611   4.196   2.377   4.195 -1.2464 -2.4622  0.2801
 2635SOL    HW310612   4.264   2.244   4.174  2.4476 -0.5260 -0.5091
 2635SOL    MW410613   4.259   2.329   4.158  0.3233 -0.4869  0.2708
 2636SOL     OW10614   4.021   2.461   4.239  0.6146  0.3268  0.3301
 2636SOL    HW210615   4.008   2.441   4.332  1.1458 -2.1083 -0.1067
 2636SOL    HW310616   3.949   2.416   4.195  0.5500  1.2231 -0.4895
 2636SOL    MW410617   4.010   2.453   4.246  0.6762  0.1237  0.1640
 2637SOL     OW10618   4.048   2.725   4.168 -0.4537  0.1957  0.1827
 2637SOL    HW210619   4.041   2.637   4.205  2.1748  0.3515  1.1376
 2637SOL    HW310620   3.978   2.775   4.210 -0.7343 -0.9424  1.0857
 2637SOL    MW410621   4.037   2.720   4.178 -0.1435  0.0658  0.4282
 2638SOL     OW10622   4.266   2.854   4.265 -0.5105 -0.5804  0.4634
 2638SOL    HW210623   4.193   2.797   4.241 -0.2959 -1.6252  2.2457
 2638SOL    HW310624   4.342   2.815   4.222 -1.0116  0.6011 -1.5291
 2638SOL    MW410625   4.266   2.841   4.256 -0.5484 -0.5624  0.4358
 2639SOL     OW10626   4.221   3.119   4.172 -0.1434  0.2784  0.1820
 2639SOL    HW210627   4.230   3.032   4.209 -1.0945  0.1708  0.1530
 2639SOL    HW310628   4.207   3.105   4.078 -0.0787  0.4725  0.1409
 2639SOL    MW410629   4.221   3.106   4.164 -0.2604  0.2899  0.1726
 2640SOL     OW10630   3.975   3.245   4.257  0.1795 -0.3500 -0.4401
 2640SOL    HW210631   4.049   3.192   4.226  0.1251 -1.1827  0.8464
 2640SOL    HW310632   3.897   3.199   4.225  0.1389 -0.9160  0.4766
 2640SOL    MW410633   3.974   3.232   4.249  0.1667 -0.5345 -0.1497
 2641SOL     OW10634   3.989   3.503   4.157 -0.1178 -0.5437 -0.3998
 2641SOL    HW210635   3.963   3.413   4.177  1.7700 -1.0809 -0.2507
 2641SOL    HW310636   3.992   3.505   4.061  1.3222 -1.0862 -0.3702
 2641SOL    MW410637   3.986   3.491   4.147  0.3214 -0.6862 -0.3762
 2642SOL     OW10638   4.253   3.626   4.194  0.1831 -0.0173 -0.2312
 2642SOL    HW210639   4.230   3.714   4.164 -0.1869 -0.1045 -0.2019
 2642SOL    HW310640   4.169   3.582   4.207  0.3793 -0.8980 -1.8072
 2642SOL    MW410641   4.239   3.632   4.191  0.1607 -0.1447 -0.4349
 2643SOL     OW10642   4.260   3.907   4.148  0.3081  0.6085  0.6235
 2643SOL    HW210643   4.184   3.952   4.184  0.3682  0.9559  0.3116
 2643SOL    HW310644   4.259   3.928   4.055  0.8073  0.6471  0.6246
 2643SOL    MW410645   4.250   3.916   4.141  0.3815  0.6592  0.5822
 2644SOL     OW10646   4.021   3.992   4.238 -0.1588  0.2782  0.0467
 2644SOL    HW210647   3.993   3.979   4.329  0.3519  0.8451  0.2861
 2644SOL    HW310648   3.949   3.955   4.186 -0.7860  0.6034  0.6685
 2644SOL    MW410649   4.008   3.985   4.243 -0.1745  0.3958  0.1602
 2645SOL     OW10650   3.998   4.261   4.183  0.4813  0.3484 -0.8312
 2645SOL    HW210651   4.065   4.306   4.235  0.3749 -1.3067  0.7784
 2645SOL    HW310652   4.004   4.170   4.210 -0.0277 -0.4597 -3.2700
 2645SOL    MW410653   4.008   4.255   4.193  0.3996  0.0238 -0.9403
 2646SOL     OW10654   4.036   4.605   4.750  0.6020  0.1284 -0.3938
 2646SOL    HW210655   4.055   4.513   4.768 -0.1115  0.3584  1.7126
 2646SOL    HW310656   3.969   4.603   4.682 -0.1481 -0.9508  0.3582
 2646SOL    MW410657   4.030   4.592   4.743  0.4091  0.0162 -0.0167
 2647SOL     OW10658   0.039   0.132   4.530  0.2437 -0.1539 -0.1402
 2647SOL    HW210659   0.042   0.227   4.542 -1.7276  0.0966 -1.3694
 2647SOL    HW310660  -0.052   0.109   4.546  1.1268 -2.1678  2.2573
 2647SOL    MW410661   0.027   0.142   4.533  0.1001 -0.3866  0.0134
 2648SOL     OW10662   4.273   4.338   4.553  0.5476 -0.2264  0.1010
 2648SOL    HW210663   4.219   4.307   4.626 -0.0650  1.7825  0.5338
 2648SOL    HW310664   4.259   4.433   4.552  3.5264  0.2610 -0.2044
 2648SOL    MW410665   4.264   4.347   4.563  0.8597  0.1030  0.1178
 2649SOL     OW10666   3.833   4.655   4.547  0.0282  0.1376  0.1386
 2649SOL    HW210667   3.881   4.707   4.483  0.4384 -1.1788 -0.6457
 2649SOL    HW310668   3.744   4.690   4.545  0.2654  0.6967 -0.4911
 2649SOL    MW410669   3.827   4.666   4.538  0.1137  0.0377 -0.0482
 2650SOL     OW10670   3.996   1.191   4.867  0.4853  0.4748  0.1537
 2650SOL    HW210671   3.947   1.244   4.930  0.2530 -0.0595  0.4298
 2650SOL    HW310672   4.043   1.254   4.813 -0.1574  0.9825  0.1788
 2650SOL    MW410673   3.996   1.206   4.868  0.3698  0.4712  0.1936
 2651SOL     OW10674   0.286   4.655   4.488 -0.1444  0.0092  0.2263
 2651SOL    HW210675   0.211   4.693   4.533 -0.2289 -0.1228  0.1986
 2651SOL    HW310676   0.267   4.561   4.485  0.1955 -0.0701  0.5541
 2651SOL    MW410677   0.274   4.647   4.494 -0.1107 -0.0186  0.2661
 2652SOL     OW10678   0.501   0.850   4.554  0.0114 -0.4596 -0.1033
 2652SOL    HW210679   0.491   0.943   4.572  1.7312 -0.1916 -0.4657
 2652SOL    HW310680   0.481   0.841   4.460 -1.1306 -0.6322  0.1413
 2652SOL    MW410681   0.497   0.861   4.544  0.0876 -0.4471 -0.1187
 2653SOL     OW10682   4.289   0.769   4.620 -0.2116  0.1752  0.0308
 2653SOL    HW210683   4.283   0.675   4.607 -1.8009  0.0153  1.7779
 2653SOL    HW310684   4.383   0.788   4.616  0.3102 -1.8399  1.9766
 2653SOL    MW410685   4.301   0.759   4.618 -0.3524 -0.1118  0.5178
 2654SOL     OW10686   0.476   1.124   4.596 -0.7486 -0.4997  0.0194
 2654SOL    HW210687   0.387   1.159   4.592 -0.4608  0.1629 -0.6406
 2654SOL    HW310688   0.515   1.167   4.672 -0.3822  0.6787 -0.8144
 2654SOL    MW410689   0.470   1.134   4.606 -0.6623 -0.2568 -0.1779
 2655SOL     OW10690   0.641   1.735   4.534 -0.3698 -0.2125 -0.0362
 2655SOL    HW210691   0.649   1.830   4.541 -0.8311 -0.1252 -0.7492
 2655SOL    HW310692   0.547   1.718   4.534 -0.2922 -0.6528 -0.1772
 2655SOL    MW410693   0.630   1.745   4.535 -0.4204 -0.2590 -0.1488
 2656SOL     OW10694   4.237   1.186   4.527  0.1533  0.0882 -0.3819
 2656SOL    HW210695   4.175   1.114   4.515  1.1256 -0.5155 -1.9124
 2656SOL    HW310696   4.308   1.146   4.578 -0.0174  0.3741  0.0786
 2656SOL    MW410697   4.238   1.171   4.532  0.2594  0.0464 -0.5231
 2657SOL     OW10698   0.280   1.928   4.537 -0.3362 -0.1110 -0.1690
 2657SOL    HW210699   0.186   1.919   4.545 -0.1568  0.3380  3.2405
 2657SOL    HW310700   0.301   2.008   4.586  1.8675 -0.5030 -0.3841
 2657SOL    MW410701   0.271   1.938   4.544 -0.0218 -0.1036  0.2522
 2658SOL     OW10702   0.426   1.655   4.251 -0.3281  0.4437  0.4051
 2658SOL    HW210703   0.364   1.590   4.218  0.7586 -0.0816 -0.6097
 2658SOL    HW310704   0.512   1.620   4.228  0.3220  1.4470  1.3076
 2658SOL    MW410705   0.429   1.642   4.244 -0.0990  0.5069  0.3905
 2659SOL     OW10706   0.238   2.228   4.492 -0.2192  0.3658 -0.4825
 2659SOL    HW210707   0.312   2.288   4.492  0.6266 -0.6265  1.3205
 2659SOL    HW310708   0.241   2.185   4.406  1.3916  0.2120 -0.3568
 2659SOL    MW410709   0.248   2.231   4.481  0.1049  0.2146 -0.2279
 2660SOL     OW10710   4.444   2.199   4.841 -0.1823 -0.7716  0.2069
 2660SOL    HW210711   4.393   2.273   4.808  0.0066  0.2605  2.1392
 2660SOL    HW310712   4.535   2.228   4.835 -0.0167 -1.3826 -0.2910
 2660SOL    MW410713   4.449   2.213   4.836 -0.1354 -0.7157  0.3963
 2661SOL     OW10714   0.299   3.003   4.538  0.4301 -0.1272 -0.4574
 2661SOL    HW210715   0.324   2.934   4.476 -0.6479 -0.7777 -0.1746
 2661SOL    HW310716   0.300   2.959   4.623  1.7906  0.7305 -0.0183
 2661SOL    MW410717   0.303   2.988   4.541  0.4674 -0.0999 -0.3624
 2662SOL     OW10718   0.405   3.278   4.549 -0.2695  0.1057 -0.9971
 2662SOL    HW210719   0.337   3.340   4.573 -0.5181  0.1753 -1.8612
 2662SOL    HW310720   0.361   3.192   4.553  0.2462 -0.0883  0.8360
 2662SOL    MW410721   0.390   3.275   4.552 -0.2342  0.0894 -0.8693
 2663SOL     OW10722   4.374   2.451   4.742  0.0921 -0.1395  0.0947
 2663SOL    HW210723   4.429   2.456   4.664 -0.0648  0.4058  0.0116
 2663SOL    HW310724   4.314   2.526   4.733 -0.1595 -0.2859  0.5573
 2663SOL    MW410725   4.373   2.462   4.730  0.0381 -0.0870  0.1445
 2664SOL     OW10726   4.247   3.426   4.611 -0.2075  0.0631 -0.3379
 2664SOL    HW210727   4.324   3.370   4.612  0.0888  0.4737  0.2571
 2664SOL    HW310728   4.174   3.366   4.594  0.0709 -0.5490  0.5993
 2664SOL    MW410729   4.247   3.411   4.609 -0.1311  0.0365 -0.1354
 2665SOL     OW10730   4.484   3.309   4.536  0.1168  0.2283 -0.0230
 2665SOL    HW210731   4.469   3.294   4.443 -0.7733  1.0149 -0.0057
 2665SOL    HW310732   4.554   3.374   4.539  0.0807  0.2708 -0.1387
 2665SOL    MW410733   4.491   3.315   4.524 -0.0052  0.3378 -0.0358
 2666SOL     OW10734   4.203   3.859   4.636 -0.2774 -0.4688  0.2476
 2666SOL    HW210735   4.126   3.910   4.611 -0.8679 -1.2386  0.4412
 2666SOL    HW310736   4.228   3.812   4.556  0.6369  0.5912 -0.0896
 2666SOL    MW410737   4.196   3.859   4.622 -0.2346 -0.4308  0.2289
 2667SOL     OW10738   4.261   0.051   4.580  0.1000  0.1954  0.4022
 2667SOL    HW210739   4.204   0.114   4.534 -0.6335 -0.0384  0.9679
 2667SOL    HW310740   4.210   0.026   4.657  0.8149 -0.3307  0.7043
 2667SOL    MW410741   4.246   0.056   4.584  0.0973  0.0952  0.5169
 2668SOL     OW10742   3.861   0.469   4.473  0.0102 -0.2552  0.3178
 2668SOL    HW210743   3.801   0.410   4.519 -1.1289 -0.0377 -0.8643
 2668SOL    HW310744   3.861   0.549   4.525 -0.5040 -0.3487  0.4621
 2668SOL    MW410745   3.853   0.472   4.486 -0.2079 -0.2389  0.1812
 2669SOL     OW10746   3.839   3.587   4.821 -0.3378 -0.5575  0.3014
 2669SOL    HW210747   3.934   3.597   4.813 -0.3593  0.0121  0.6883
 2669SOL    HW310748   3.819   3.621   4.909 -1.1484  1.2295 -0.5481
 2669SOL    MW410749   3.849   3.593   4.832 -0.4478 -0.2465  0.2403
 2670SOL     OW10750   3.870   4.211   4.612  0.0876 -0.1360  0.3861
 2670SOL    HW210751   3.831   4.294   4.584  1.1889  0.5459  0.8237
 2670SOL    HW310752   3.796   4.159   4.644 -0.9469 -0.2461 -2.0530
 2670SOL    MW410753   3.855   4.215   4.612  0.0966 -0.0606  0.1216
 2671SOL     OW10754   0.508   4.591   4.645  0.1295  0.4155  0.4580
 2671SOL    HW210755   0.431   4.624   4.599  1.8487  0.1990 -2.6879
 2671SOL    HW310756   0.512   4.499   4.621  1.6845  0.5593  0.1346
 2671SOL    MW410757   0.498   4.583   4.636  0.5614  0.4058  0.0005
 2672SOL     OW10758   0.081   0.839   4.575 -0.3768  0.2035  0.0519
 2672SOL    HW210759   0.057   0.855   4.484  0.1002  2.1296  0.2489
 2672SOL    HW310760   0.150   0.773   4.570 -0.6814 -0.0455 -0.9555
 2672SOL    MW410761   0.087   0.832   4.562 -0.3541  0.4248 -0.0553
 2673SOL     OW10762   1.631   1.248   4.657 -0.3171 -0.3483 -0.3413
 2673SOL    HW210763   1.652   1.273   4.747 -1.7190 -1.6181  0.3585
 2673SOL    HW310764   1.716   1.240   4.614  0.3291  1.2046  0.6059
 2673SOL    MW410765   1.645   1.250   4.663 -0.4169 -0.3109 -0.1245
 2674SOL     OW10766   0.731   0.142   4.369  0.3997  0.2944 -0.0523
 2674SOL    HW210767   0.718   0.201   4.443 -1.2125 -1.0465  0.7721
 2674SOL    HW310768   0.645   0.136   4.328  1.2419  0.8987 -1.9794
 2674SOL    MW410769   0.718   0.149   4.373  0.2980  0.1973 -0.1979
 2675SOL     OW10770   1.168   1.102   4.638  0.1130 -0.2795  0.2456
 2675SOL    HW210771   1.159   1.018   4.594  0.1654  0.7971 -1.9475
 2675SOL    HW310772   1.079   1.126   4.664 -0.2537  0.0569 -1.2608
 2675SOL    MW410773   1.155   1.094   4.635  0.0715 -0.0931 -0.2422
 2676SOL     OW10774   0.313   0.643   4.556 -0.3241  0.4238 -0.4960
 2676SOL    HW210775   0.367   0.566   4.573 -0.2490  0.6049  0.1133
 2676SOL    HW310776   0.372   0.717   4.574 -0.5681  0.6232 -0.5154
 2676SOL    MW410777   0.328   0.643   4.560 -0.3464  0.4740 -0.4177
 2677SOL     OW10778   1.972   1.231   4.242 -0.2134 -0.3544 -0.1023
 2677SOL    HW210779   1.961   1.326   4.251  1.5952 -0.0574 -0.8830
 2677SOL    HW310780   2.064   1.219   4.219 -0.6323 -2.2519 -0.8953
 2677SOL    MW410781   1.983   1.242   4.240 -0.0300 -0.5654 -0.3104
 2678SOL     OW10782   0.772   1.495   4.625 -0.4688 -0.0930  0.2391
 2678SOL    HW210783   0.860   1.529   4.640 -0.8060  0.7084  0.4314
 2678SOL    HW310784   0.719   1.573   4.605 -0.8437 -0.7066 -1.2463
 2678SOL    MW410785   0.776   1.510   4.624 -0.5628 -0.0683  0.0687
 2679SOL     OW10786   1.209   1.366   4.505 -0.1134  0.4693 -0.0230
 2679SOL    HW210787   1.298   1.400   4.499 -0.7678  2.1139 -0.7220
 2679SOL    HW310788   1.218   1.285   4.555  1.8076  0.4651 -0.3182
 2679SOL    MW410789   1.222   1.360   4.510  0.0536  0.6857 -0.1540
 2680SOL     OW10790   0.765   1.999   4.543  0.4096 -0.1149 -0.3107
 2680SOL    HW210791   0.816   2.072   4.579  0.2414 -0.0176 -0.2738
 2680SOL    HW310792   0.827   1.926   4.542  0.1630 -0.3677  1.0479
 2680SOL    MW410793   0.780   1.999   4.548  0.3548 -0.1354 -0.1268
 2681SOL     OW10794   0.600   2.814   4.516  0.0607 -0.2304  0.8663
 2681SOL    HW210795   0.684   2.772   4.537  1.1833  1.6811  0.3332
 2681SOL    HW310796   0.620   2.908   4.517 -1.7032  0.1740 -0.9157
 2681SOL    MW410797   0.614   2.821   4.519 -0.0238  0.0751  0.5608
 2682SOL     OW10798   0.955   1.788   4.516 -0.3281  0.1530  0.4818
 2682SOL    HW210799   1.014   1.864   4.517 -0.3213  0.1647 -0.0982
 2682SOL    HW310800   1.006   1.718   4.557  0.6838 -0.2412 -1.3708
 2682SOL    MW410801   0.970   1.789   4.521 -0.1938  0.1026  0.1602
 2683SOL     OW10802   0.482   2.396   4.445  0.2506 -0.3742  0.0823
 2683SOL    HW210803   0.455   2.407   4.353 -1.1903 -0.8426  0.4328
 2683SOL    HW310804   0.458   2.478   4.487  0.3257 -0.3953  0.1637
 2683SOL    MW410805   0.475   2.408   4.438  0.0704 -0.4389  0.1397
 2684SOL     OW10806   1.105   2.707   4.539 -0.0393  0.2790  0.3023
 2684SOL    HW210807   1.123   2.733   4.449 -0.1817  2.8998  0.9957
 2684SOL    HW310808   1.161   2.631   4.554 -0.2842 -0.4214 -2.0942
 2684SOL    MW410809   1.114   2.700   4.529 -0.0904  0.5322  0.0782
 2685SOL     OW10810   0.381   2.649   4.503  0.1778 -0.3959 -0.2895
 2685SOL    HW210811   0.461   2.700   4.518  0.5036 -0.3918 -1.9625
 2685SOL    HW310812   0.340   2.690   4.427 -0.3246 -1.7202 -0.7488
 2685SOL    MW410813   0.386   2.661   4.495  0.1545 -0.5698 -0.5708
 2686SOL     OW10814   1.522   2.754   4.494  0.1014  0.1271 -0.1693
 2686SOL    HW210815   1.465   2.677   4.496  0.1647  0.1062  0.9870
 2686SOL    HW310816   1.579   2.744   4.570  0.1992  1.2477 -0.0863
 2686SOL    MW410817   1.522   2.742   4.504  0.1225  0.2723 -0.0057
 2687SOL     OW10818   0.547   3.640   4.541  0.0987  0.1116  0.2905
 2687SOL    HW210819   0.490   3.584   4.594 -0.2999 -0.5187 -0.7901
 2687SOL    HW310820   0.494   3.717   4.523 -0.0907 -0.0813  0.0283
 2687SOL    MW410821   0.532   3.642   4.546  0.0211  0.0031  0.1135
 2688SOL     OW10822   1.319   4.461   4.605  0.2340 -0.2739  0.5367
 2688SOL    HW210823   1.258   4.440   4.535  0.3913 -1.1569  0.6506
 2688SOL    HW310824   1.404   4.428   4.574  0.2386 -0.9740  1.2796
 2688SOL    MW410825   1.322   4.454   4.592  0.2553 -0.4830  0.6504
 2689SOL     OW10826   0.020   2.391   4.490  0.0073 -0.0352 -0.0946
 2689SOL    HW210827   0.082   2.319   4.497  0.5558  0.3750 -0.7157
 2689SOL    HW310828   0.032   2.426   4.402 -1.4828 -0.2847 -0.4175
 2689SOL    MW410829   0.030   2.386   4.480 -0.1169 -0.0138 -0.2193
 2690SOL     OW10830   4.319   3.684   4.459  0.4319 -0.0728 -0.0043
 2690SOL    HW210831   4.300   3.602   4.506  1.0915 -0.9130 -1.1811
 2690SOL    HW310832   4.288   3.669   4.370  1.3264  0.6428 -0.4486
 2690SOL    MW410833   4.312   3.671   4.454  0.6371 -0.0892 -0.2184
 2691SOL     OW10834   0.821   4.333   4.475  0.1541 -0.2264  0.4995
 2691SOL    HW210835   0.800   4.420   4.508 -1.1369 -0.3330 -0.0037
 2691SOL    HW310836   0.745   4.309   4.421  0.0705 -2.0376  1.3772
 2691SOL    MW410837   0.808   4.341   4.472 -0.0272 -0.4787  0.5493
 2692SOL     OW10838   0.017   4.205   4.524  0.0677  0.0486  0.6010
 2692SOL    HW210839  -0.006   4.152   4.600 -0.9376 -1.6541 -0.8585
 2692SOL    HW310840  -0.057   4.266   4.514 -0.1324 -0.1960  0.5773
 2692SOL    MW410841   0.004   4.206   4.533 -0.0916 -0.2084  0.4053
 2693SOL     OW10842   4.446   3.983   4.683 -0.2534  0.1266  0.3706
 2693SOL    HW210843   4.361   3.940   4.673 -1.0437  1.2447  2.0900
 2693SOL    HW310844   4.509   3.911   4.685 -1.1588 -0.7199 -0.8407
 2693SOL    MW410845   4.443   3.968   4.682 -0.4768  0.1626  0.4373
 2694SOL     OW10846   0.230   4.369   4.462  0.1185  0.4965  0.2055
 2694SOL    HW210847   0.307   4.337   4.509 -0.8516 -0.4214  1.2083
 2694SOL    HW310848   0.158   4.318   4.497 -0.6835 -0.0446 -2.1402
 2694SOL    MW410849   0.231   4.358   4.473 -0.1153  0.3037  0.0281
 2695SOL     OW10850   1.115   0.219   4.505 -0.0256 -0.1178  0.7020
 2695SOL    HW210851   1.037   0.247   4.553  0.1594  0.7122  0.5275
 2695SOL    HW310852   1.083   0.199   4.417 -0.3686 -1.6606  1.1519
 2695SOL    MW410853   1.101   0.220   4.500 -0.0465 -0.2119  0.7386
 2696SOL     OW10854   0.881   0.304   4.632 -0.3266 -0.2294  0.0678
 2696SOL    HW210855   0.858   0.397   4.629  0.0199 -0.1089  0.9379
 2696SOL    HW310856   0.797   0.260   4.642 -0.4128  0.0639  0.7297
 2696SOL    MW410857   0.867   0.311   4.633 -0.2923 -0.1748  0.2704
 2697SOL     OW10858   0.608   0.187   4.632 -0.4215 -0.1607 -0.2781
 2697SOL    HW210859   0.522   0.229   4.641 -0.5564 -0.2680 -0.9933
 2697SOL    HW310860   0.590   0.094   4.645 -0.4491 -0.2040 -0.6140
 2697SOL    MW410861   0.594   0.180   4.635 -0.4429 -0.1806 -0.4168
 2698SOL     OW10862   1.525   0.840   4.586 -0.2943 -0.8388  0.7487
 2698SOL    HW210863   1.498   0.835   4.494  1.3605 -0.2301  0.2086
 2698SOL    HW310864   1.481   0.918   4.620  0.5075 -0.0181 -0.0436
 2698SOL    MW410865   1.516   0.850   4.578  0.0297 -0.6502  0.5727
 2699SOL     OW10866   1.798   0.886   4.537  0.6021  0.1522  0.1243
 2699SOL    HW210867   1.711   0.876   4.575  0.8839 -1.6662  0.3069
 2699SOL    HW310868   1.792   0.849   4.449  0.8656  1.1656 -0.3269
 2699SOL    MW410869   1.786   0.880   4.531  0.6741  0.0460  0.0887
 2700SOL     OW10870   0.211   1.240   4.534  0.5773  0.8799 -0.7228
 2700SOL    HW210871   0.132   1.198   4.566  1.7268 -0.2039  0.7873
 2700SOL    HW310872   0.191   1.334   4.534 -0.7893  0.5912 -0.6368
 2700SOL    MW410873   0.198   1.247   4.538  0.5486  0.6989 -0.5126
 2701SOL     OW10874   0.701   1.274   4.464  0.5496 -0.1955  0.3444
 2701SOL    HW210875   0.729   1.347   4.519 -1.6705  0.7354  0.3193
 2701SOL    HW310876   0.619   1.245   4.504 -0.1412 -0.6975 -1.3927
 2701SOL    MW410877   0.694   1.280   4.476  0.1656 -0.1389  0.1116
 2702SOL     OW10878   0.791   0.847   4.554 -0.2081  0.3124  0.1311
 2702SOL    HW210879   0.696   0.844   4.566 -0.2433  3.5310  1.1059
 2702SOL    HW310880   0.803   0.877   4.464 -0.1256  0.2705  0.1283
 2702SOL    MW410881   0.780   0.851   4.543 -0.2019  0.7316  0.2594
 2703SOL     OW10882   1.423   1.093   4.562  0.1028  0.0650  0.3599
 2703SOL    HW210883   1.339   1.092   4.609  0.0382  0.7277  0.2588
 2703SOL    HW310884   1.479   1.149   4.616  0.6157 -0.7288  0.6578
 2703SOL    MW410885   1.419   1.100   4.576  0.1619  0.0477  0.3858
 2704SOL     OW10886   0.848   1.108   4.644 -0.1509  0.2318 -0.3366
 2704SOL    HW210887   0.807   1.021   4.641  0.0018  0.1651 -0.5104
 2704SOL    HW310888   0.815   1.151   4.565  0.1679  0.1548 -0.5119
 2704SOL    MW410889   0.838   1.102   4.633 -0.0887  0.2129 -0.3829
 2705SOL     OW10890   0.782   2.357   4.502 -0.2185 -0.3868  0.1206
 2705SOL    HW210891   0.689   2.380   4.509  0.0691  1.4733 -1.5310
 2705SOL    HW310892   0.803   2.370   4.409  1.8978  0.0508  0.6311
 2705SOL    MW410893   0.772   2.362   4.491  0.0986 -0.0837 -0.0300
 2706SOL     OW10894   1.127   1.989   4.546 -0.4463  0.4033  0.2652
 2706SOL    HW210895   1.089   2.073   4.572 -2.2483  0.6305 -2.8827
 2706SOL    HW310896   1.219   1.995   4.573 -0.4232  3.5854 -0.2945
 2706SOL    MW410897   1.134   2.001   4.553 -0.6812  0.8533 -0.2241
 2707SOL     OW10898   1.919   2.897   4.656 -0.1195 -0.3920 -0.4634
 2707SOL    HW210899   1.852   2.963   4.637  0.2084  0.0856  0.0063
 2707SOL    HW310900   1.969   2.890   4.575  0.9449  1.2470  0.0163
 2707SOL    MW410901   1.917   2.905   4.643  0.0643 -0.1128 -0.3381
 2708SOL     OW10902   1.521   3.566   4.680 -0.0617  0.2154 -0.0330
 2708SOL    HW210903   1.592   3.608   4.631  0.0933 -0.8555 -0.7529
 2708SOL    HW310904   1.567   3.512   4.746 -0.2552  1.1071  0.8408
 2708SOL    MW410905   1.537   3.564   4.682 -0.0668  0.1917 -0.0124
 2709SOL     OW10906   0.639   3.080   4.534 -0.1461 -0.3490  0.2422
 2709SOL    HW210907   0.571   3.147   4.536 -1.0811 -1.2926  0.9411
 2709SOL    HW310908   0.719   3.126   4.558 -0.6820  0.6090  0.2239
 2709SOL    MW410909   0.640   3.095   4.537 -0.3402 -0.3471  0.3319
 2710SOL     OW10910   0.566   4.063   4.648 -0.0942 -0.2559  0.5080
 2710SOL    HW210911   0.655   4.061   4.613 -0.5855 -1.0960 -0.6968
 2710SOL    HW310912   0.577   4.044   4.741  1.2081  1.8587  0.8379
 2710SOL    MW410913   0.579   4.061   4.656  0.0128 -0.0877  0.3924
 2711SOL     OW10914   1.164   3.001   4.580  0.1755  0.1946  0.2097
 2711SOL    HW210915   1.257   3.025   4.583  0.2522  0.0020 -0.4334
 2711SOL    HW310916   1.165   2.905   4.576  0.0459  0.2858 -2.7051
 2711SOL    MW410917   1.176   2.991   4.580  0.1686  0.1814 -0.2599
 2712SOL     OW10918   0.936   3.177   4.570  0.4323 -0.1122 -0.0695
 2712SOL    HW210919   1.010   3.120   4.588  0.0376 -0.3695  0.7801
 2712SOL    HW310920   0.962   3.262   4.606  0.4142 -0.1446  0.0215
 2712SOL    MW410921   0.949   3.181   4.578  0.3778 -0.1502  0.0539
 2713SOL     OW10922   1.705   3.705   4.511  0.1799  0.0484 -0.5170
 2713SOL    HW210923   1.732   3.795   4.527  0.9078 -0.2330 -0.1691
 2713SOL    HW310924   1.786   3.654   4.513 -0.4284 -0.9113  1.3570
 2713SOL    MW410925   1.719   3.710   4.514  0.1957 -0.1154 -0.2241
 2714SOL     OW10926   0.129   3.762   4.590  0.4154 -0.2749 -0.0016
 2714SOL    HW210927   0.205   3.808   4.556  0.4087 -0.1343  0.1704
 2714SOL    HW310928   0.064   3.766   4.520  1.2277 -2.0331 -0.8669
 2714SOL    MW410929   0.130   3.769   4.576  0.5217 -0.4883 -0.0925
 2715SOL     OW10930   0.488   4.324   4.560  0.3454 -0.3688 -0.4154
 2715SOL    HW210931   0.511   4.323   4.468  1.0629  0.0113 -0.2388
 2715SOL    HW310932   0.509   4.236   4.592 -1.2230 -0.9452 -0.9350
 2715SOL    MW410933   0.494   4.312   4.552  0.2331 -0.3948 -0.4606
 2716SOL     OW10934   0.832   4.060   4.517 -0.3305  0.2360 -0.1505
 2716SOL    HW210935   0.832   4.155   4.509 -0.3789  0.1499 -1.2211
 2716SOL    HW310936   0.832   4.028   4.427 -0.3982 -0.7789  0.2008
 2716SOL    MW410937   0.832   4.068   4.504 -0.3458  0.0901 -0.2456
 2717SOL     OW10938   0.777   4.611   4.543 -0.6186  0.1071  0.1170
 2717SOL    HW210939   0.766   4.681   4.479 -0.0978 -0.6967 -0.8761
 2717SOL    HW310940   0.696   4.613   4.594 -1.1183  0.6682 -0.6760
 2717SOL    MW410941   0.765   4.620   4.541 -0.6158  0.0753 -0.1187
 2718SOL     OW10942   1.490   4.158   4.879  0.0337  0.6309 -0.0168
 2718SOL    HW210943   1.493   4.144   4.974 -0.6789 -0.1284 -0.1004
 2718SOL    HW310944   1.404   4.194   4.863  0.1246  0.6862 -0.3833
 2718SOL    MW410945   1.479   4.161   4.890 -0.0484  0.5383 -0.0763
 2719SOL     OW10946   1.573   4.371   4.518 -0.0375 -0.4136 -0.2396
 2719SOL    HW210947   1.636   4.436   4.549  0.7784 -0.9156 -0.8424
 2719SOL    HW310948   1.572   4.383   4.423  0.9890 -2.0943 -0.4612
 2719SOL    MW410949   1.581   4.381   4.509  0.2055 -0.7014 -0.3486
 2720SOL     OW10950   1.093   4.343   4.450  0.7213 -0.1211 -0.6922
 2720SOL    HW210951   1.111   4.258   4.490 -0.5935  0.2549  0.7356
 2720SOL    HW310952   1.000   4.358   4.465  0.8550  1.3876 -1.2728
 2720SOL    MW410953   1.083   4.334   4.457  0.5654  0.1278 -0.5808
 2721SOL     OW10954   1.168   0.519   4.563 -0.1915  0.1205  0.4383
 2721SOL    HW210955   1.081   0.545   4.594  0.1588  1.5279  0.2756
 2721SOL    HW310956   1.166   0.423   4.564 -1.4254  0.1391  1.3219
 2721SOL    MW410957   1.156   0.510   4.567 -0.3083  0.3088  0.5341
 2722SOL     OW10958   1.631   0.102   4.510 -0.0429  0.1318  0.4283
 2722SOL    HW210959   1.537   0.083   4.517  0.4554 -2.1938  1.1427
 2722SOL    HW310960   1.673   0.035   4.563  2.1380 -0.0132 -1.4066
 2722SOL    MW410961   1.624   0.091   4.518  0.3105 -0.1941  0.2809
 2723SOL     OW10962   1.108   0.828   4.504 -0.1093 -0.4943  0.1899
 2723SOL    HW210963   1.158   0.747   4.495  0.5819 -0.0091 -0.5417
 2723SOL    HW310964   1.018   0.800   4.519  0.1687 -1.3962  0.2073
 2723SOL    MW410965   1.103   0.814   4.505  0.0186 -0.5492  0.0963
 2724SOL     OW10966   1.475   1.446   4.530  0.0522  0.1666 -0.2543
 2724SOL    HW210967   1.533   1.383   4.572 -1.6213  0.4593  2.5551
 2724SOL    HW310968   1.534   1.517   4.502  1.1624  0.2365  2.1134
 2724SOL    MW410969   1.491   1.447   4.532 -0.0222  0.2146  0.4282
 2725SOL     OW10970   0.884   0.561   4.539 -0.3227  0.1025  0.0854
 2725SOL    HW210971   0.850   0.648   4.561  0.1799  0.2714  0.2223
 2725SOL    HW310972   0.830   0.531   4.467 -1.2764  0.0267  0.8230
 2725SOL    MW410973   0.872   0.569   4.533 -0.3823  0.1147  0.2012
 2726SOL     OW10974   1.980   0.479   4.499 -0.0489 -0.5168  0.0700
 2726SOL    HW210975   2.036   0.417   4.545 -0.6306 -1.7701 -0.8590
 2726SOL    HW310976   1.891   0.448   4.517 -0.2938 -0.7811 -1.5224
 2726SOL    MW410977   1.975   0.467   4.508 -0.1581 -0.7170 -0.2623
 2727SOL     OW10978   1.502   1.743   4.885  0.0389  0.3346  0.6721
 2727SOL    HW210979   1.444   1.729   4.810  0.9426 -0.5097  0.1248
 2727SOL    HW310980   1.526   1.836   4.880  0.3395  0.2047 -0.2532
 2727SOL    MW410981   1.497   1.753   4.875  0.1980  0.2059  0.4783
 2728SOL     OW10982   1.360   1.759   4.426 -0.3396  0.4463 -0.1344
 2728SOL    HW210983   1.276   1.801   4.447 -0.7523 -0.1335 -0.6045
 2728SOL    HW310984   1.343   1.711   4.346  0.5276  0.5516 -0.3882
 2728SOL    MW410985   1.347   1.758   4.418 -0.2797  0.3839 -0.2303
 2729SOL     OW10986   1.814   2.448   4.680 -0.0567  0.5074  0.7578
 2729SOL    HW210987   1.827   2.422   4.589  0.7832 -0.1360  1.0480
 2729SOL    HW310988   1.897   2.426   4.723 -0.7463 -0.0136  1.8552
 2729SOL    MW410989   1.827   2.442   4.674 -0.0370  0.3536  0.9408
 2730SOL     OW10990   2.531   2.258   4.407 -0.1338  0.3550 -0.4173
 2730SOL    HW210991   2.537   2.294   4.495 -0.4251  0.2416 -0.3506
 2730SOL    HW310992   2.460   2.194   4.412 -1.0275  1.2969 -1.0652
 2730SOL    MW410993   2.523   2.254   4.419 -0.2902  0.4644 -0.4935
 2731SOL     OW10994   0.823   2.639   4.560 -0.2108  0.2115 -0.1422
 2731SOL    HW210995   0.820   2.548   4.529  0.8184  0.4131 -0.8685
 2731SOL    HW310996   0.912   2.668   4.539 -0.6853  1.5477 -0.3570
 2731SOL    MW410997   0.835   2.631   4.553 -0.1376  0.4144 -0.2670
 2732SOL     OW10998   1.341   3.976   4.470 -0.4804  0.5581  0.4098
 2732SOL    HW210999   1.355   3.882   4.479 -2.2372  0.3731  1.4116
 2732SOL    HW311000   1.420   4.016   4.506  1.0956 -0.5400 -1.7239
 2732SOL    MW411001   1.353   3.969   4.476 -0.5041  0.3886  0.2604
 2733SOL     OW11002   1.337   2.518   4.513  0.3764  0.5806 -0.4273
 2733SOL    HW211003   1.345   2.494   4.421 -0.0292 -1.6724  0.0774
 2733SOL    HW311004   1.354   2.436   4.560  0.7832  1.7373  1.5115
 2733SOL    MW411005   1.341   2.504   4.507  0.3765  0.4361 -0.1049
 2734SOL     OW11006   1.711   2.688   4.682 -0.1483  0.0610  0.7885
 2734SOL    HW211007   1.780   2.751   4.659 -1.7270  1.4899 -0.2251
 2734SOL    HW311008   1.756   2.604   4.687  1.8060  1.0735  0.9285
 2734SOL    MW411009   1.726   2.686   4.680 -0.0987  0.3831  0.6733
 2735SOL     OW11010   1.454   3.021   4.519  0.3123  0.5221 -0.0035
 2735SOL    HW211011   1.515   3.051   4.586 -0.5884 -0.3556  1.2429
 2735SOL    HW311012   1.481   2.931   4.501 -0.6957  0.0697  0.6836
 2735SOL    MW411013   1.465   3.013   4.526  0.0604  0.3467  0.2518
 2736SOL     OW11014   1.336   3.708   4.497  0.3173  0.1835  0.2495
 2736SOL    HW211015   1.260   3.665   4.457 -0.1471  0.2496  1.0380
 2736SOL    HW311016   1.364   3.647   4.566 -0.2460  1.0394  1.2659
 2736SOL    MW411017   1.329   3.695   4.501  0.1817  0.3052  0.4878
 2737SOL     OW11018   0.369   3.891   4.531  0.1734  0.2210  0.0607
 2737SOL    HW211019   0.390   3.923   4.444 -1.6572  0.5427 -0.2897
 2737SOL    HW311020   0.419   3.946   4.591  0.5872  0.7234 -0.7481
 2737SOL    MW411021   0.378   3.902   4.527 -0.0136  0.3297 -0.0925
 2738SOL     OW11022   2.267   3.344   4.517 -0.4148 -0.2961 -0.0720
 2738SOL    HW211023   2.220   3.303   4.589  0.7396 -1.8688 -0.2030
 2738SOL    HW311024   2.352   3.370   4.554 -0.7468  1.0775 -0.2437
 2738SOL    MW411025   2.272   3.342   4.531 -0.3061 -0.3223 -0.1125
 2739SOL     OW11026   1.739   3.086   4.567  0.0515  0.3574 -0.5250
 2739SOL    HW211027   1.776   3.164   4.609  2.1183 -1.5174  1.2725
 2739SOL    HW311028   1.770   3.091   4.477  1.7919  0.6717  0.0554
 2739SOL    MW411029   1.748   3.097   4.561  0.5538  0.1516 -0.2108
 2740SOL     OW11030   2.500   3.424   4.643 -0.1862  0.0004 -0.4358
 2740SOL    HW211031   2.540   3.360   4.584 -0.4896 -2.3003  1.7866
 2740SOL    HW311032   2.470   3.373   4.718 -2.2019  2.4836  0.5388
 2740SOL    MW411033   2.501   3.409   4.645 -0.4921  0.0246 -0.0138
 2741SOL     OW11034   1.122   4.101   4.582  0.1678  0.2601 -0.6745
 2741SOL    HW211035   1.033   4.066   4.573  0.0978  0.4969 -0.8951
 2741SOL    HW311036   1.178   4.031   4.549  0.0149  0.4291 -1.3042
 2741SOL    MW411037   1.118   4.087   4.576  0.1383  0.3142 -0.7868
 2742SOL     OW11038   1.717   4.337   4.789 -0.2685  0.0514  0.4534
 2742SOL    HW211039   1.668   4.263   4.825  0.4718 -0.0269  1.3335
 2742SOL    HW311040   1.807   4.304   4.783  0.0535  0.8765  0.8151
 2742SOL    MW411041   1.723   4.323   4.793 -0.1284  0.1507  0.6175
 2743SOL     OW11042   2.203   0.326   4.587  0.2378  0.2580 -0.4891
 2743SOL    HW211043   2.272   0.393   4.580  0.1507  0.2784 -1.1709
 2743SOL    HW311044   2.173   0.333   4.677  0.4249  0.9517 -0.4734
 2743SOL    MW411045   2.208   0.336   4.598  0.2511  0.3523 -0.5770
 2744SOL     OW11046   1.350   0.068   4.502 -0.3725 -0.2034  0.2919
 2744SOL    HW211047   1.265   0.111   4.515  0.0446  0.8018 -0.2216
 2744SOL    HW311048   1.339  -0.018   4.541 -1.5833 -0.0276  0.3795
 2744SOL    MW411049   1.337   0.062   4.509 -0.4773 -0.0475  0.2356
 2745SOL     OW11050   1.707   0.384   4.534  0.4128  0.0003  0.1952
 2745SOL    HW211051   1.691   0.290   4.523 -1.0600  0.4879 -1.9722
 2745SOL    HW311052   1.628   0.417   4.576  0.3692  0.5095 -0.2906
 2745SOL    MW411053   1.695   0.376   4.538  0.2128  0.1318 -0.1550
 2746SOL     OW11054   2.298   0.051   4.469  0.4153  0.0238  0.0579
 2746SOL    HW211055   2.294   0.073   4.377  2.5485  0.7533  0.1130
 2746SOL    HW311056   2.290   0.134   4.515  1.7855 -0.0443  0.4485
 2746SOL    MW411057   2.296   0.065   4.463  0.8774  0.1111  0.1168
 2747SOL     OW11058   2.014   0.726   4.606  0.4083 -0.6046 -0.4206
 2747SOL    HW211059   1.988   0.643   4.565 -0.1771 -1.0255  0.7636
 2747SOL    HW311060   1.937   0.782   4.596 -0.0437 -0.9904  0.8262
 2747SOL    MW411061   2.000   0.722   4.599  0.2713 -0.7111 -0.0997
 2748SOL     OW11062   1.465   0.560   4.523 -0.0684 -0.1921 -0.3088
 2748SOL    HW211063   1.479   0.648   4.559  0.5416  0.5663 -2.2831
 2748SOL    HW311064   1.371   0.548   4.525 -0.0304 -0.3405  1.8551
 2748SOL    MW411065   1.455   0.570   4.528  0.0172 -0.1116 -0.2837
 2749SOL     OW11066   1.795   1.853   4.434 -0.1613  0.6754 -0.1562
 2749SOL    HW211067   1.818   1.889   4.520  0.2167  1.7631 -0.7053
 2749SOL    HW311068   1.875   1.861   4.383 -0.1880 -0.6103 -0.4124
 2749SOL    MW411069   1.809   1.859   4.439 -0.1149  0.6493 -0.2623
 2750SOL     OW11070   0.975   2.199   4.627  0.3236 -0.2439  0.3061
 2750SOL    HW211071   0.970   2.206   4.723  1.3093 -0.4728  0.3743
 2750SOL    HW311072   0.919   2.270   4.596  0.4245  0.1708  1.0506
 2750SOL    MW411073   0.967   2.209   4.636  0.4669 -0.2196  0.4134
 2751SOL     OW11074   1.332   1.672   4.690 -0.3288 -0.1361  0.0011
 2751SOL    HW211075   1.359   1.582   4.708 -0.6368 -0.1386  0.4747
 2751SOL    HW311076   1.362   1.689   4.601  1.0120 -0.2080  0.4377
 2751SOL    MW411077   1.339   1.662   4.680 -0.1925 -0.1458  0.1206
 2752SOL     OW11078   1.384   2.055   4.583  0.5155 -0.0187 -0.1234
 2752SOL    HW211079   1.444   2.048   4.657  0.0791 -0.9456  0.1459
 2752SOL    HW311080   1.441   2.047   4.506  0.9003  0.4011  0.1131
 2752SOL    MW411081   1.400   2.053   4.583  0.5088 -0.0858 -0.0567
 2753SOL     OW11082   1.782   2.193   4.839  0.4827  0.3524 -0.1009
 2753SOL    HW211083   1.779   2.280   4.800 -0.6158  0.0556 -0.7125
 2753SOL    HW311084   1.829   2.205   4.922  0.7816  1.4203 -0.4126
 2753SOL    MW411085   1.788   2.206   4.845  0.3771  0.4542 -0.2232
 2754SOL     OW11086   2.073   2.383   4.712 -0.0519 -0.1046 -0.1867
 2754SOL    HW211087   2.161   2.413   4.735 -0.8218  1.5407  0.7101
 2754SOL    HW311088   2.088   2.310   4.651  1.9185  0.4019 -0.3547
 2754SOL    MW411089   2.087   2.377   4.707  0.1063  0.1793 -0.0911
 2755SOL     OW11090   1.589   1.993   4.773 -0.0283  0.5768  0.1428
 2755SOL    HW211091   1.652   1.926   4.745  0.4435  0.5615  1.2140
 2755SOL    HW311092   1.644   2.067   4.800 -0.5779  1.8170 -2.0529
 2755SOL    MW411093   1.605   1.994   4.773 -0.0386  0.7384 -0.0062
 2756SOL     OW11094   2.064   2.201   4.496  0.5256 -0.0317  0.2955
 2756SOL    HW211095   2.026   2.140   4.560 -1.7148 -0.0205 -0.9785
 2756SOL    HW311096   2.133   2.150   4.453 -0.8597 -1.4817 -0.2847
 2756SOL    MW411097   2.068   2.186   4.499  0.0474 -0.2215  0.0505
 2757SOL     OW11098   1.894   2.392   4.410 -0.3152  0.0784  0.2670
 2757SOL    HW211099   1.957   2.327   4.443  0.4440  0.6848  0.0299
 2757SOL    HW311100   1.854   2.350   4.334 -0.3734 -0.4096  0.5634
 2757SOL    MW411101   1.897   2.378   4.404 -0.2227  0.0939  0.2747
 2758SOL     OW11102   1.550   4.105   4.617 -0.0820 -0.6488 -0.2199
 2758SOL    HW211103   1.566   4.197   4.598  1.0816 -0.8477 -0.2434
 2758SOL    HW311104   1.532   4.103   4.711 -1.9029 -0.1783 -0.5416
 2758SOL    MW411105   1.549   4.117   4.627 -0.1687 -0.6132 -0.2651
 2759SOL     OW11106   2.803   3.256   4.767  0.5408 -0.2156 -0.1689
 2759SOL    HW211107   2.742   3.281   4.698  1.2534  0.2783 -0.6254
 2759SOL    HW311108   2.840   3.173   4.738 -0.5587 -0.9550  0.5282
 2759SOL    MW411109   2.800   3.249   4.754  0.4897 -0.2480 -0.1369
 2760SOL     OW11110   1.860   3.286   4.699 -0.1879 -0.3659 -0.0519
 2760SOL    HW211111   1.941   3.260   4.743 -0.2517  0.4402  0.5599
 2760SOL    HW311112   1.876   3.376   4.670 -0.2982 -0.7538 -1.3215
 2760SOL    MW411113   1.873   3.295   4.701 -0.2109 -0.3109 -0.1383
 2761SOL     OW11114   2.889   3.642   4.552  0.0069  0.3768 -0.1763
 2761SOL    HW211115   2.898   3.586   4.629  0.0456  0.0562 -0.4143
 2761SOL    HW311116   2.966   3.700   4.556  1.2152 -1.1324 -1.1881
 2761SOL    MW411117   2.901   3.643   4.563  0.1717  0.1352 -0.3414
 2762SOL     OW11118   2.139   3.763   4.633 -0.1713  0.3380 -0.1282
 2762SOL    HW211119   2.132   3.845   4.682 -0.8382  0.5638 -0.6031
 2762SOL    HW311120   2.123   3.787   4.542  0.1239 -0.2384 -0.3388
 2762SOL    MW411121   2.136   3.777   4.627 -0.2203  0.2918 -0.2193
 2763SOL     OW11122   2.643   4.055   4.522 -0.2587  0.2655  0.4113
 2763SOL    HW211123   2.631   3.972   4.568  2.5954 -0.2462  0.3060
 2763SOL    HW311124   2.652   4.030   4.430 -2.2759  0.9666  0.0096
 2763SOL    MW411125   2.642   4.041   4.516 -0.1483  0.2904  0.3438
 2764SOL     OW11126   1.778   3.985   4.511  0.1584 -0.2525  0.4302
 2764SOL    HW211127   1.704   4.034   4.545  0.1329  0.3346 -0.4457
 2764SOL    HW311128   1.771   3.994   4.416  0.1671 -1.9315  0.2650
 2764SOL    MW411129   1.767   3.993   4.503  0.1563 -0.3965  0.2928
 2765SOL     OW11130   1.950   4.159   4.683 -0.2798  0.1268  0.2432
 2765SOL    HW211131   2.040   4.145   4.653  0.2711  1.2561  1.3224
 2765SOL    HW311132   1.897   4.100   4.629  1.1124 -0.5990 -0.3539
 2765SOL    MW411133   1.955   4.149   4.672 -0.0235  0.1798  0.3071
 2766SOL     OW11134   1.757   4.564   4.643  0.0998  0.1987  0.6050
 2766SOL    HW211135   1.834   4.518   4.610  0.7571  1.0411  0.9260
 2766SOL    HW311136   1.728   4.512   4.718 -0.6968 -1.0745 -0.5819
 2766SOL    MW411137   1.763   4.551   4.649  0.0813  0.1416  0.4911
 2767SOL     OW11138   1.955   4.380   4.537 -0.1459  0.4108  0.5181
 2767SOL    HW211139   1.936   4.294   4.575  1.0524 -0.1632 -0.1630
 2767SOL    HW311140   2.048   4.394   4.555  0.2184  0.5455 -1.3572
 2767SOL    MW411141   1.965   4.370   4.545  0.0603  0.3533  0.1812
 2768SOL     OW11142   2.242   4.444   4.533  0.3114  0.5421 -0.5505
 2768SOL    HW211143   2.326   4.405   4.557  0.4128  1.8406  1.3084
 2768SOL    HW311144   2.263   4.534   4.506 -0.2974  0.3532 -1.7189
 2768SOL    MW411145   2.256   4.451   4.533  0.2444  0.6890 -0.4597
 2769SOL     OW11146   1.060   1.567   4.624  0.0096  0.2208  0.1171
 2769SOL    HW211147   1.089   1.490   4.575 -0.8265 -0.1645  0.2156
 2769SOL    HW311148   1.140   1.601   4.664  0.5799  0.1024 -0.8943
 2769SOL    MW411149   1.075   1.561   4.623 -0.0254  0.1544 -0.0038
 2770SOL     OW11150   2.571   0.085   4.504 -0.2604 -0.3932 -0.0628
 2770SOL    HW211151   2.482   0.053   4.490  0.0967 -1.1164 -0.7339
 2770SOL    HW311152   2.609   0.089   4.416  0.0178  0.9627  0.1102
 2770SOL    MW411153   2.565   0.081   4.491 -0.1764 -0.3097 -0.1278
 2771SOL     OW11154   2.465   0.731   4.627  0.0988 -0.1425 -0.0533
 2771SOL    HW211155   2.390   0.789   4.628  0.5988  0.5095  0.0253
 2771SOL    HW311156   2.537   0.784   4.592  0.5534 -0.7115  0.0009
 2771SOL    MW411157   2.465   0.745   4.623  0.2246 -0.1315 -0.0362
 2772SOL     OW11158   2.964   0.838   4.633  0.0180 -0.3410 -0.5210
 2772SOL    HW211159   2.974   0.894   4.556  0.3324  0.0433 -0.2037
 2772SOL    HW311160   2.978   0.749   4.600  0.3155 -0.1633 -0.8749
 2772SOL    MW411161   2.967   0.834   4.618  0.0989 -0.2668 -0.5260
 2773SOL     OW11162   2.166   1.159   4.663 -0.2331 -0.0201 -0.5442
 2773SOL    HW211163   2.087   1.164   4.610 -0.4169 -1.1950 -0.3923
 2773SOL    HW311164   2.235   1.195   4.607 -0.3910 -1.4280 -1.6688
 2773SOL    MW411165   2.165   1.164   4.648 -0.2782 -0.3610 -0.6723
 2774SOL     OW11166   2.407   1.200   4.886 -0.1623  0.2091  0.1800
 2774SOL    HW211167   2.342   1.192   4.816 -1.3962  0.2959  1.2777
 2774SOL    HW311168   2.487   1.162   4.850 -0.8492  0.0272 -1.1763
 2774SOL    MW411169   2.409   1.194   4.872 -0.4160  0.1966  0.1459
 2775SOL     OW11170   2.573   1.536   4.258  0.0165 -0.6152 -0.3633
 2775SOL    HW211171   2.592   1.595   4.330  0.5829 -0.4832 -0.6176
 2775SOL    HW311172   2.654   1.534   4.206 -0.2836 -0.9412 -0.8259
 2775SOL    MW411173   2.587   1.543   4.260  0.0517 -0.6409 -0.4573
 2776SOL     OW11174   2.503   1.963   4.151 -0.1370  0.2879 -0.1385
 2776SOL    HW211175   2.597   1.948   4.145 -0.1712  0.5004 -1.2972
 2776SOL    HW311176   2.483   1.955   4.244  0.8955 -0.5077  0.0171
 2776SOL    MW411177   2.513   1.960   4.162 -0.0055  0.2110 -0.2713
 2777SOL     OW11178   1.977   1.847   4.218  0.1639  0.0247 -0.0684
 2777SOL    HW211179   2.016   1.769   4.179  0.9290  0.4244 -0.1036
 2777SOL    HW311180   2.038   1.917   4.198 -0.0808  0.4715  0.7245
 2777SOL    MW411181   1.990   1.846   4.211  0.2325  0.1363  0.0310
 2778SOL     OW11182   2.663   1.736   4.444 -0.1419 -0.2757 -0.2665
 2778SOL    HW211183   2.583   1.787   4.427 -0.5526 -1.1065 -0.8718
 2778SOL    HW311184   2.670   1.734   4.539  0.0448  1.1556 -0.2365
 2778SOL    MW411185   2.653   1.742   4.454 -0.1714 -0.1966 -0.3428
 2779SOL     OW11186   3.054   2.615   4.565  0.1381  0.0227 -0.3057
 2779SOL    HW211187   3.090   2.536   4.524  0.7362  1.4681 -2.6448
 2779SOL    HW311188   2.959   2.604   4.558  0.1842 -1.1352  0.6845
 2779SOL    MW411189   3.046   2.603   4.559  0.2234  0.0606 -0.4840
 2780SOL     OW11190   2.522   2.900   4.584  0.2279  0.2262  0.5056
 2780SOL    HW211191   2.454   2.858   4.532 -1.9920  3.3643  0.7217
 2780SOL    HW311192   2.506   2.871   4.673  0.7175 -0.9496  0.2214
 2780SOL    MW411193   2.511   2.891   4.589 -0.0005  0.4852  0.4969
 2781SOL     OW11194   2.298   2.468   4.449 -0.1462 -0.5375  0.0176
 2781SOL    HW211195   2.292   2.456   4.544  0.1679  0.5929  0.1906
 2781SOL    HW311196   2.379   2.422   4.424  0.4549  0.2471  0.4940
 2781SOL    MW411197   2.308   2.461   4.458 -0.0255 -0.2849  0.1030
 2782SOL     OW11198   2.328   2.748   4.444  0.5510 -0.1254 -0.4029
 2782SOL    HW211199   2.330   2.653   4.447  1.0049 -0.1100 -0.2566
 2782SOL    HW311200   2.235   2.770   4.444  0.4567 -0.4851  1.7781
 2782SOL    MW411201   2.316   2.739   4.444  0.5982 -0.1707 -0.0954
 2783SOL     OW11202   2.273   3.242   4.260  0.0993  0.2450 -0.0262
 2783SOL    HW211203   2.268   3.323   4.209  0.1289  0.3000  0.0580
 2783SOL    HW311204   2.248   3.268   4.349 -0.1700  0.1050 -0.0604
 2783SOL    MW411205   2.269   3.256   4.265  0.0675  0.2339 -0.0196
 2784SOL     OW11206   1.235   4.264   4.808  0.2272 -0.3405  0.6201
 2784SOL    HW211207   1.234   4.346   4.759 -1.3579  1.2521  3.2199
 2784SOL    HW311208   1.202   4.199   4.746  0.9030  1.0675 -1.2703
 2784SOL    MW411209   1.231   4.266   4.793  0.1073  0.0558  0.7143
 2785SOL     OW11210   2.439   3.699   4.565  0.1218 -0.8462 -0.1951
 2785SOL    HW211211   2.460   3.619   4.613 -1.6259 -0.6223  0.9818
 2785SOL    HW311212   2.350   3.721   4.592  0.5738  1.5139 -0.4660
 2785SOL    MW411213   2.430   3.692   4.575 -0.0494 -0.5052 -0.0758
 2786SOL     OW11214   1.926   3.556   4.558  0.1572 -0.2749 -0.2894
 2786SOL    HW211215   1.958   3.525   4.473  0.1112  2.0928 -1.2352
 2786SOL    HW311216   2.004   3.590   4.601 -0.1171  0.2335 -0.1857
 2786SOL    MW411217   1.941   3.557   4.552  0.1148  0.1047 -0.4001
 2787SOL     OW11218   2.880   3.935   4.797  0.1739  0.2557 -0.3062
 2787SOL    HW211219   2.820   3.887   4.740 -0.3401  0.3956  0.1233
 2787SOL    HW311220   2.853   3.914   4.886 -0.3432  1.6901 -0.1141
 2787SOL    MW411221   2.869   3.926   4.801  0.0379  0.4630 -0.2241
 2788SOL     OW11222   3.155   4.003   4.521  0.1976  0.1188  0.0395
 2788SOL    HW211223   3.067   4.030   4.546  1.1387  1.0156  2.6722
 2788SOL    HW311224   3.166   3.916   4.560  1.6342  1.4621  2.7814
 2788SOL    MW411225   3.145   3.995   4.530  0.5114  0.4141  0.7486
 2789SOL     OW11226   2.214   4.086   4.574 -0.2615 -0.2871  0.2930
 2789SOL    HW211227   2.294   4.140   4.577 -0.6488  0.2196  1.8102
 2789SOL    HW311228   2.220   4.040   4.490  2.1465 -1.0593  0.8411
 2789SOL    MW411229   2.226   4.087   4.563  0.0052 -0.3223  0.5655
 2790SOL     OW11230   2.453   4.255   4.538 -0.5421 -0.4321 -0.1483
 2790SOL    HW211231   2.437   4.283   4.448 -2.4263  0.5540  0.4530
 2790SOL    HW311232   2.527   4.195   4.532 -1.1136 -0.9614 -2.4474
 2790SOL    MW411233   2.460   4.251   4.525 -0.8662 -0.3719 -0.3724
 2791SOL     OW11234   2.988   0.599   4.536  0.2676  0.5513  0.1528
 2791SOL    HW211235   2.963   0.586   4.445  1.2572  0.5235 -0.1174
 2791SOL    HW311236   3.081   0.575   4.540 -0.2000 -1.2232  1.5338
 2791SOL    MW411237   2.997   0.594   4.525  0.3362  0.3135  0.2990
 2792SOL     OW11238   2.733   4.514   4.597 -0.1549  0.2831  0.2467
 2792SOL    HW211239   2.671   4.452   4.558  0.5860  0.2960 -0.9646
 2792SOL    HW311240   2.696   4.600   4.579  0.1449  0.2863 -0.3678
 2792SOL    MW411241   2.720   4.517   4.590 -0.0176  0.2847  0.0062
 2793SOL     OW11242   2.888   0.369   4.659  0.0526  0.3144 -0.4132
 2793SOL    HW211243   2.915   0.451   4.618 -0.4617 -0.1430 -1.7080
 2793SOL    HW311244   2.969   0.326   4.684  0.4421 -0.0095 -2.1917
 2793SOL    MW411245   2.902   0.374   4.657  0.0362  0.2113 -0.8187
 2794SOL     OW11246   2.686   0.890   4.536 -0.0638 -0.2898 -0.1285
 2794SOL    HW211247   2.773   0.855   4.554 -0.1557 -0.5141 -0.1241
 2794SOL    HW311248   2.680   0.890   4.440 -0.3156 -0.8948 -0.1100
 2794SOL    MW411249   2.697   0.886   4.526 -0.1092 -0.3992 -0.1259
 2795SOL     OW11250   3.612   0.521   4.767  0.0957 -0.2795 -0.2421
 2795SOL    HW211251   3.528   0.556   4.738 -0.5581 -0.1408  1.7194
 2795SOL    HW311252   3.676   0.588   4.744 -0.5957  0.4297 -0.0925
 2795SOL    MW411253   3.609   0.534   4.760 -0.0818 -0.1676  0.0367
 2796SOL     OW11254   2.213   0.886   4.569 -0.1010  0.4251  0.4229
 2796SOL    HW211255   2.186   0.966   4.613 -0.5594  0.1795  0.5917
 2796SOL    HW311256   2.137   0.828   4.576 -0.3632  0.5737 -1.1668
 2796SOL    MW411257   2.200   0.889   4.576 -0.1962  0.4123  0.2356
 2797SOL     OW11258   2.611   1.109   4.692  0.0728 -0.2324 -0.2733
 2797SOL    HW211259   2.692   1.151   4.664  0.1609 -0.6119 -0.5766
 2797SOL    HW311260   2.614   1.022   4.653 -0.1363 -0.5053  0.3156
 2797SOL    MW411261   2.622   1.103   4.683  0.0567 -0.3185 -0.2356
 2798SOL     OW11262   2.974   1.261   4.718 -0.0099  0.0436  0.0037
 2798SOL    HW211263   2.938   1.338   4.672  0.1328 -0.5157 -1.0677
 2798SOL    HW311264   2.934   1.264   4.804  0.3123  1.5706  0.1296
 2798SOL    MW411265   2.964   1.272   4.723  0.0515  0.1713 -0.1206
 2799SOL     OW11266   2.841   1.443   4.574  0.3780  0.1720 -0.3650
 2799SOL    HW211267   2.745   1.437   4.578  0.4561 -1.3062 -0.2677
 2799SOL    HW311268   2.860   1.466   4.483  0.0147 -2.2974 -1.1075
 2799SOL    MW411269   2.831   1.445   4.563  0.3405 -0.3488 -0.4506
 2800SOL     OW11270   3.204   1.713   4.572 -0.0429 -0.6112 -0.0880
 2800SOL    HW211271   3.133   1.685   4.630 -0.1486  0.6302  0.4016
 2800SOL    HW311272   3.207   1.808   4.581  1.1354 -0.5656 -0.7490
 2800SOL    MW411273   3.195   1.722   4.581  0.0987 -0.4416 -0.1106
 2801SOL     OW11274   2.732   2.075   4.479 -0.1851 -0.0893 -0.6432
 2801SOL    HW211275   2.684   2.143   4.431 -0.6463 -0.0605 -0.1349
 2801SOL    HW311276   2.680   1.996   4.467 -0.6429  0.0566  0.3490
 2801SOL    MW411277   2.719   2.074   4.471 -0.3066 -0.0663 -0.4449
 2802SOL     OW11278   2.960   1.662   4.691 -0.1488  0.3721 -0.1812
 2802SOL    HW211279   2.907   1.596   4.646  0.1479  0.2953 -0.4162
 2802SOL    HW311280   2.896   1.724   4.726 -0.4669 -0.3493  0.5283
 2802SOL    MW411281   2.945   1.661   4.690 -0.1516  0.2668 -0.1183
 2803SOL     OW11282   3.219   2.383   4.476  0.1617 -0.2202  0.0779
 2803SOL    HW211283   3.173   2.313   4.523 -1.1051  0.0634 -0.7053
 2803SOL    HW311284   3.196   2.369   4.384 -0.4161  1.4344 -0.0484
 2803SOL    MW411285   3.210   2.372   4.470 -0.0818  0.0355 -0.0424
 2804SOL     OW11286   3.426   2.457   4.638 -0.3113 -0.1386 -0.1178
 2804SOL    HW211287   3.414   2.546   4.672  0.3960  0.1452 -0.6073
 2804SOL    HW311288   3.349   2.442   4.583  0.6133  0.9919 -1.7746
 2804SOL    MW411289   3.414   2.467   4.635 -0.0961  0.0482 -0.4005
 2805SOL     OW11290   3.032   2.747   4.799  0.4816 -0.0716 -0.0182
 2805SOL    HW211291   3.122   2.746   4.833  0.5154 -0.5243 -0.1272
 2805SOL    HW311292   3.036   2.695   4.719 -0.1383 -1.1383  0.6298
 2805SOL    MW411293   3.045   2.740   4.793  0.4044 -0.2723  0.0529
 2806SOL     OW11294   2.788   2.806   4.552 -0.2273  0.1207  0.6147
 2806SOL    HW211295   2.827   2.874   4.607 -0.3338  0.1827  0.6115
 2806SOL    HW311296   2.694   2.818   4.561 -0.2505  0.7865 -0.3764
 2806SOL    MW411297   2.781   2.817   4.560 -0.2444  0.2165  0.4835
 2807SOL     OW11298   2.608   3.169   4.550 -0.2494 -0.0875 -0.3089
 2807SOL    HW211299   2.622   3.154   4.456  0.3317  0.0054 -0.2372
 2807SOL    HW311300   2.578   3.084   4.584  0.2294 -0.3100 -0.4437
 2807SOL    MW411301   2.606   3.156   4.542 -0.1092 -0.1047 -0.3171
 2808SOL     OW11302   2.934   2.990   4.713 -0.3202 -0.1031  0.0445
 2808SOL    HW211303   3.011   3.035   4.680 -0.1055 -0.6722 -0.2394
 2808SOL    HW311304   2.968   2.917   4.764 -0.6495 -1.6526 -1.8649
 2808SOL    MW411305   2.948   2.986   4.715 -0.3352 -0.3827 -0.2441
 2809SOL     OW11306   2.892   3.499   4.799 -0.1112  0.2542  0.1345
 2809SOL    HW211307   2.866   3.407   4.801  0.5453  0.0791  0.8736
 2809SOL    HW311308   2.987   3.498   4.811 -0.3021  1.1082  1.9063
 2809SOL    MW411309   2.901   3.487   4.801 -0.0496  0.3440  0.4654
 2810SOL     OW11310   3.154   3.736   4.588 -0.2177 -0.0325  0.0977
 2810SOL    HW211311   3.196   3.678   4.524 -1.0862 -1.3189  0.6627
 2810SOL    HW311312   3.141   3.681   4.665 -0.3659  1.1406  0.9151
 2810SOL    MW411313   3.158   3.721   4.590 -0.3519 -0.0474  0.2804
 2811SOL     OW11314   3.779   3.792   4.615 -0.1451  0.4088  0.0530
 2811SOL    HW211315   3.801   3.740   4.692 -0.8350 -0.4878 -0.3591
 2811SOL    HW311316   3.727   3.734   4.560 -1.3677  1.6909 -0.1688
 2811SOL    MW411317   3.775   3.778   4.618 -0.3974  0.4594 -0.0305
 2812SOL     OW11318   3.180   3.499   4.774 -0.7182  0.1749 -0.1331
 2812SOL    HW211319   3.235   3.510   4.852 -1.2107  0.7305  0.1371
 2812SOL    HW311320   3.223   3.430   4.724  1.2427  1.8607 -0.8305
 2812SOL    MW411321   3.193   3.491   4.778 -0.5243  0.4706 -0.1893
 2813SOL     OW11322   2.897   4.143   4.621  0.3696  0.1103  0.1720
 2813SOL    HW211323   2.818   4.132   4.567  0.7824  0.8300 -0.5984
 2813SOL    HW311324   2.890   4.076   4.688  0.1679 -1.2318 -1.1658
 2813SOL    MW411325   2.885   4.133   4.623  0.3974  0.0281 -0.1059
 2814SOL     OW11326   2.998   4.393   4.563  0.1454 -0.0819 -0.0036
 2814SOL    HW211327   2.980   4.307   4.600 -1.3065 -0.0760 -0.6409
 2814SOL    HW311328   2.922   4.446   4.588  0.6515  0.7909 -0.2861
 2814SOL    MW411329   2.986   4.389   4.571  0.0210  0.0334 -0.1249
 2815SOL     OW11330   3.257   0.537   4.537 -0.2710 -0.4973 -0.0628
 2815SOL    HW211331   3.281   0.539   4.444 -0.2244  0.9629 -0.0221
 2815SOL    HW311332   3.323   0.590   4.580 -1.9978  1.3655  0.3962
 2815SOL    MW411333   3.269   0.544   4.530 -0.4928 -0.0589  0.0033
 2816SOL     OW11334   2.439   0.481   4.539  0.3009  0.0197 -0.2717
 2816SOL    HW211335   2.505   0.426   4.582  0.1738 -0.4658 -0.6780
 2816SOL    HW311336   2.447   0.566   4.581 -0.3703 -0.6597  1.2465
 2816SOL    MW411337   2.449   0.485   4.550  0.1957 -0.1340 -0.1254
 2817SOL     OW11338   1.892   1.163   4.529 -0.0952  0.4481  0.4236
 2817SOL    HW211339   1.872   1.070   4.540 -2.1723  0.7182 -0.8183
 2817SOL    HW311340   1.917   1.172   4.437  1.8404  0.8389  0.9673
 2817SOL    MW411341   1.893   1.152   4.518 -0.1140  0.5352  0.3314
 2818SOL     OW11342   2.611   0.319   4.659  0.1476  0.5126  0.0494
 2818SOL    HW211343   2.605   0.242   4.603 -1.8409  0.0653  0.8340
 2818SOL    HW311344   2.704   0.341   4.660  0.5793 -1.1758 -1.1121
 2818SOL    MW411345   2.622   0.312   4.652 -0.0579  0.2308 -0.0005
 2819SOL     OW11346   3.427   0.713   4.670  0.1785 -0.1135  0.0045
 2819SOL    HW211347   3.485   0.761   4.612  0.8991 -0.8036  0.1411
 2819SOL    HW311348   3.355   0.773   4.688  0.2404  0.3023 -1.1405
 2819SOL    MW411349   3.426   0.727   4.665  0.2820 -0.1496 -0.1283
 2820SOL     OW11350   3.417   1.228   4.463 -0.0787  0.2408 -0.2201
 2820SOL    HW211351   3.344   1.196   4.515 -0.4623  0.4527 -0.6280
 2820SOL    HW311352   3.492   1.175   4.492 -0.0186  1.1764  1.4207
 2820SOL    MW411353   3.417   1.217   4.474 -0.1214  0.3922 -0.0577
 2821SOL     OW11354   3.209   0.888   4.748 -0.2786 -0.1918  0.0017
 2821SOL    HW211355   3.129   0.846   4.715 -0.9809  0.6411  0.6287
 2821SOL    HW311356   3.199   0.885   4.843  0.9511 -1.0531  0.1177
 2821SOL    MW411357   3.197   0.882   4.756 -0.2093 -0.1956  0.0997
 2822SOL     OW11358   3.867   0.992   4.721  0.4959  0.2653 -0.0241
 2822SOL    HW211359   3.906   1.051   4.786 -1.2681  1.0972  0.3122
 2822SOL    HW311360   3.938   0.976   4.658  1.1126  2.5143  0.0334
 2822SOL    MW411361   3.882   0.998   4.721  0.3445  0.6718  0.0281
 2823SOL     OW11362   4.029   1.841   4.719 -0.0892  0.0522 -0.6668
 2823SOL    HW211363   4.104   1.876   4.766 -0.0389  1.8015 -1.9714
 2823SOL    HW311364   4.063   1.766   4.671  0.5394  0.0952 -0.2925
 2823SOL    MW411365   4.043   1.836   4.719  0.0005  0.2886 -0.7896
 2824SOL     OW11366   3.429   1.524   4.518 -0.1722 -0.1486  0.1459
 2824SOL    HW211367   3.343   1.561   4.538 -0.0558  0.4927 -0.4913
 2824SOL    HW311368   3.414   1.430   4.510 -0.9799  0.0527 -0.8025
 2824SOL    MW411369   3.416   1.517   4.519 -0.2637 -0.0374 -0.0629
 2825SOL     OW11370   3.337   2.008   4.563  0.6419 -0.3718 -0.0762
 2825SOL    HW211371   3.252   2.052   4.561  0.7521 -0.1222  0.4638
 2825SOL    HW311372   3.363   2.001   4.471 -0.9538 -2.4421 -0.3956
 2825SOL    MW411373   3.329   2.013   4.550  0.4461 -0.6120 -0.0472
 2826SOL     OW11374   3.767   1.748   4.731  0.0264 -0.3381 -0.2961
 2826SOL    HW211375   3.701   1.809   4.698  0.6073 -0.1164 -1.0656
 2826SOL    HW311376   3.849   1.797   4.727  0.4843 -1.1284 -0.8268
 2826SOL    MW411377   3.769   1.763   4.726  0.1636 -0.4131 -0.4673
 2827SOL     OW11378   2.798   2.530   4.497 -0.0570 -0.0729  0.2845
 2827SOL    HW211379   2.729   2.483   4.544  0.8512 -1.3365  0.3662
 2827SOL    HW311380   2.776   2.622   4.508 -3.2085 -0.4900 -1.8549
 2827SOL    MW411381   2.786   2.536   4.505 -0.3529 -0.2949  0.0129
 2828SOL     OW11382   3.519   2.187   4.718  0.1230  0.2510 -0.4391
 2828SOL    HW211383   3.457   2.138   4.664  1.0884  0.7190 -2.0230
 2828SOL    HW311384   3.489   2.278   4.714  0.4506  0.3559 -0.5629
 2828SOL    MW411385   3.507   2.192   4.710  0.2937  0.3264 -0.6647
 2829SOL     OW11386   3.092   2.126   4.526 -0.1682  0.4821 -0.2290
 2829SOL    HW211387   3.054   2.111   4.439 -1.3383  0.8992  0.1996
 2829SOL    HW311388   3.018   2.154   4.579  0.6872  0.9228  0.7298
 2829SOL    MW411389   3.077   2.128   4.521 -0.2098  0.5953 -0.0463
 2830SOL     OW11390   3.720   2.738   4.648  0.3418  0.3114  0.0388
 2830SOL    HW211391   3.756   2.799   4.584 -1.6116  0.0761 -1.3289
 2830SOL    HW311392   3.725   2.653   4.606 -2.0851  0.3215 -0.3234
 2830SOL    MW411393   3.725   2.735   4.634 -0.2360  0.2818 -0.1888
 2831SOL     OW11394   3.156   3.094   4.585  0.0323  0.2364  0.0460
 2831SOL    HW211395   3.179   3.004   4.564  0.0593  0.1561  0.4227
 2831SOL    HW311396   3.130   3.132   4.501 -0.8165 -0.3685  0.0196
 2831SOL    MW411397   3.155   3.087   4.571 -0.0761  0.1462  0.0930
 2832SOL     OW11398   3.258   2.820   4.521 -0.1498 -0.0868  0.0857
 2832SOL    HW211399   3.197   2.746   4.511 -0.1494 -0.1506  0.5555
 2832SOL    HW311400   3.292   2.835   4.433 -0.0793 -0.7082  0.0061
 2832SOL    MW411401   3.254   2.812   4.508 -0.1402 -0.1771  0.1369
 2833SOL     OW11402   4.156   2.636   4.695 -0.2861 -0.1914 -0.0565
 2833SOL    HW211403   4.092   2.679   4.751 -0.2364  0.2625 -0.3413
 2833SOL    HW311404   4.190   2.706   4.639  0.0342 -0.5390 -0.3046
 2833SOL    MW411405   4.152   2.651   4.695 -0.2379 -0.1774 -0.1273
 2834SOL     OW11406   3.606   3.211   4.557 -0.0163 -0.0221 -0.4269
 2834SOL    HW211407   3.663   3.286   4.574  0.0147 -0.2841  0.6159
 2834SOL    HW311408   3.593   3.213   4.462  0.6007  0.8542 -0.5032
 2834SOL    MW411409   3.612   3.221   4.547  0.0691  0.0587 -0.2995
 2835SOL     OW11410   3.416   4.090   4.457 -0.0087  0.3830 -0.1300
 2835SOL    HW211411   3.419   4.179   4.493 -0.0421 -0.0773  1.0522
 2835SOL    HW311412   3.325   4.062   4.470 -0.0522  0.2525 -0.7044
 2835SOL    MW411413   3.404   4.098   4.464 -0.0186  0.3052 -0.0501
 2836SOL     OW11414   2.687   3.812   4.651 -0.1026  0.1448 -0.3221
 2836SOL    HW211415   2.748   3.749   4.612  0.2367  0.0490  0.3540
 2836SOL    HW311416   2.601   3.781   4.623  0.0856 -0.3929 -0.3188
 2836SOL    MW411417   2.684   3.800   4.642 -0.0329  0.0613 -0.2327
 2837SOL     OW11418   3.246   4.499   4.473 -0.0660 -0.1527 -0.2073
 2837SOL    HW211419   3.318   4.462   4.523 -1.0738 -0.5423  0.9597
 2837SOL    HW311420   3.170   4.448   4.498 -0.7419  0.1565 -1.5463
 2837SOL    MW411421   3.246   4.488   4.483 -0.2882 -0.1636 -0.2298
 2838SOL     OW11422   3.466   4.354   4.582 -0.1348 -0.4189 -0.2094
 2838SOL    HW211423   3.467   4.337   4.676  0.5680 -1.0952 -0.3276
 2838SOL    HW311424   3.551   4.393   4.564  0.3181 -1.6474 -0.7930
 2838SOL    MW411425   3.477   4.357   4.592  0.0176 -0.6704 -0.3023
 2839SOL     OW11426   3.627   4.056   4.683 -0.0534 -0.1767  0.1272
 2839SOL    HW211427   3.560   4.076   4.618  0.3508 -1.8855 -0.8385
 2839SOL    HW311428   3.629   3.960   4.687 -0.0750 -0.1073  2.6641
 2839SOL    MW411429   3.619   4.046   4.675 -0.0031 -0.3924  0.3343
 2840SOL     OW11430   3.158   0.297   4.649  0.0442  0.4597  0.0120
 2840SOL    HW211431   3.165   0.229   4.582  1.0894  0.3328  0.2323
 2840SOL    HW311432   3.200   0.373   4.611  1.4985  0.1033  0.8672
 2840SOL    MW411433   3.165   0.298   4.635  0.3741  0.3959  0.1540
 2841SOL     OW11434   3.036   1.002   4.394 -0.2255 -0.2759  0.1219
 2841SOL    HW211435   2.977   1.069   4.361  0.5443 -0.0632 -0.8316
 2841SOL    HW311436   3.097   1.050   4.451  1.1565  0.0610 -1.6171
 2841SOL    MW411437   3.037   1.017   4.397  0.0584 -0.2035 -0.2332
 2842SOL     OW11438   3.196   1.126   4.583 -0.1759  0.4930  0.2011
 2842SOL    HW211439   3.217   1.046   4.631  0.6692 -0.2568 -1.3702
 2842SOL    HW311440   3.128   1.168   4.635 -1.4563 -1.8335  0.4713
 2842SOL    MW411441   3.190   1.121   4.596 -0.2332  0.0871  0.0291
 2843SOL     OW11442   4.063   1.362   4.630 -0.0852 -0.3289 -0.5646
 2843SOL    HW211443   4.120   1.302   4.582  0.5098  1.4197 -2.0818
 2843SOL    HW311444   3.974   1.340   4.602  0.0721 -0.9617 -0.5666
 2843SOL    MW411445   4.059   1.351   4.620  0.0138 -0.1818 -0.7648
 2844SOL     OW11446   3.662   1.102   4.534  0.3678  0.6648  0.0199
 2844SOL    HW211447   3.683   1.194   4.517  1.1721  0.6154  0.6893
 2844SOL    HW311448   3.730   1.073   4.595  0.4314 -0.5242 -0.6026
 2844SOL    MW411449   3.674   1.111   4.540  0.4823  0.5014  0.0257
 2845SOL     OW11450   4.089   0.952   4.530  0.0351  0.2537  0.1376
 2845SOL    HW211451   4.150   0.881   4.553 -0.6326 -0.5071 -0.4008
 2845SOL    HW311452   4.049   0.923   4.448 -1.8554  0.2104  1.0485
 2845SOL    MW411453   4.091   0.939   4.522 -0.3023  0.1476  0.1869
 2846SOL     OW11454   4.334   0.478   4.505  0.0346 -0.0618  0.0451
 2846SOL    HW211455   4.275   0.406   4.527  1.3193 -1.5031 -1.1237
 2846SOL    HW311456   4.319   0.494   4.412 -0.8988  1.8221  0.4995
 2846SOL    MW411457   4.324   0.470   4.496  0.0811 -0.0034 -0.0491
 2847SOL     OW11458   3.695   1.604   4.485  0.2003 -0.3191  0.3165
 2847SOL    HW211459   3.716   1.657   4.562  1.9347 -0.2822 -0.1677
 2847SOL    HW311460   3.604   1.578   4.498  0.6772 -0.8644  2.7147
 2847SOL    MW411461   3.686   1.608   4.497  0.4919 -0.3861  0.5693
 2848SOL     OW11462   0.011   1.877   4.535 -0.8072 -0.0508  0.1561
 2848SOL    HW211463  -0.023   1.799   4.579 -2.3326 -0.1518 -1.1672
 2848SOL    HW311464  -0.046   1.948   4.565 -0.6866  0.1999 -0.2012
 2848SOL    MW411465  -0.001   1.876   4.545 -0.9925 -0.0310 -0.0653
 2849SOL     OW11466   3.894   1.986   4.508  0.2852 -0.2810 -0.0970
 2849SOL    HW211467   3.809   1.942   4.510 -0.8444  1.8102 -0.4823
 2849SOL    HW311468   3.944   1.946   4.580 -1.1465 -1.2671  0.3652
 2849SOL    MW411469   3.889   1.975   4.518 -0.0527 -0.1353 -0.0873
 2850SOL     OW11470   4.302   2.038   4.672 -0.1483  0.4974  0.1333
 2850SOL    HW211471   4.366   2.073   4.735  0.0033  1.2659 -0.4380
 2850SOL    HW311472   4.270   2.116   4.625 -0.1885 -0.0785 -0.8011
 2850SOL    MW411473   4.306   2.053   4.674 -0.1335  0.5226 -0.0653
 2851SOL     OW11474   4.401   1.643   4.689 -0.0995  0.0299 -0.4420
 2851SOL    HW211475   4.460   1.593   4.632 -1.4592 -0.6110 -1.3039
 2851SOL    HW311476   4.433   1.624   4.777  0.1199 -1.4517 -0.8109
 2851SOL    MW411477   4.413   1.634   4.693 -0.2499 -0.2502 -0.6042
 2852SOL     OW11478   4.037   2.391   4.523 -0.1826  0.2322 -0.5100
 2852SOL    HW211479   3.974   2.351   4.583 -0.4082 -1.2455 -1.6960
 2852SOL    HW311480   4.069   2.469   4.569 -1.6331  0.0727  0.7881
 2852SOL    MW411481   4.033   2.396   4.537 -0.4039  0.0162 -0.4954
 2853SOL     OW11482   3.668   2.483   4.525 -0.4418  0.4687  0.0400
 2853SOL    HW211483   3.585   2.461   4.568 -0.5215 -1.2670 -0.9601
 2853SOL    HW311484   3.723   2.406   4.539  0.6585  1.2270 -0.1262
 2853SOL    MW411485   3.664   2.470   4.532 -0.3071  0.3397 -0.1140
 2854SOL     OW11486   3.771   2.961   4.498  0.3341  0.4698 -0.1817
 2854SOL    HW211487   3.864   2.970   4.521  0.2310 -0.1032  0.4756
 2854SOL    HW311488   3.729   3.037   4.537  0.5081  0.6553 -0.3560
 2854SOL    MW411489   3.778   2.972   4.506  0.3436  0.4189 -0.1183
 2855SOL     OW11490   4.033   2.967   4.597  0.4690  0.1557 -0.1777
 2855SOL    HW211491   4.007   2.929   4.681  1.6682 -0.3657 -0.0275
 2855SOL    HW311492   4.117   2.925   4.577 -0.3027 -0.4674 -2.1435
 2855SOL    MW411493   4.041   2.956   4.605  0.5245  0.0048 -0.4177
 2856SOL     OW11494   3.318   3.303   4.607 -0.9728 -0.0300  0.1144
 2856SOL    HW211495   3.274   3.219   4.593  0.0210 -0.3151 -1.4382
 2856SOL    HW311496   3.411   3.280   4.609 -0.7777  0.8246  1.3585
 2856SOL    MW411497   3.325   3.289   4.606 -0.8161  0.0451  0.0734
 2857SOL     OW11498   3.784   3.413   4.602  0.3721 -0.0576  0.2036
 2857SOL    HW211499   3.808   3.459   4.682  0.5794  0.2546 -0.0399
 2857SOL    HW311500   3.859   3.357   4.584  0.1285 -0.4838  0.4894
 2857SOL    MW411501   3.797   3.411   4.611  0.3676 -0.0727  0.2089
 2858SOL     OW11502   3.351   3.556   4.474 -0.3172  0.2397 -0.3605
 2858SOL    HW211503   3.325   3.468   4.502  1.4047 -0.4122 -0.7078
 2858SOL    HW311504   3.446   3.558   4.488 -0.5142  2.4902  0.8294
 2858SOL    MW411505   3.360   3.544   4.480 -0.1159  0.4508 -0.2489
 2859SOL     OW11506   3.616   3.598   4.490 -0.7021 -0.1430 -0.5771
 2859SOL    HW211507   3.644   3.622   4.402 -0.3162 -0.2186 -0.4777
 2859SOL    HW311508   3.684   3.538   4.521 -1.4094 -1.0099 -0.6547
 2859SOL    MW411509   3.629   3.593   4.483 -0.7443 -0.2673 -0.5741
 2860SOL     OW11510   0.024   3.032   4.531 -0.1700 -0.2200  0.3948
 2860SOL    HW211511   0.119   3.024   4.522 -0.2536 -1.5649  0.5404
 2860SOL    HW311512   0.009   3.125   4.547  1.0765  0.0884 -0.1644
 2860SOL    MW411513   0.034   3.043   4.532 -0.0165 -0.3567  0.3405
 2861SOL     OW11514   3.952   3.973   4.502  0.1192 -0.0643 -0.4444
 2861SOL    HW211515   3.911   4.057   4.520  1.8307  0.4317  1.3992
 2861SOL    HW311516   3.887   3.908   4.529 -0.9579  0.6579 -1.2661
 2861SOL    MW411517   3.938   3.976   4.508  0.2031  0.0966 -0.3095
 2862SOL     OW11518   3.725   4.412   4.495 -0.2213 -0.6304 -0.3029
 2862SOL    HW211519   3.730   4.408   4.400  1.5769 -1.7763 -0.1963
 2862SOL    HW311520   3.767   4.495   4.518  1.3330 -1.3683 -0.4164
 2862SOL    MW411521   3.731   4.423   4.486  0.2210 -0.8793 -0.3042
 2863SOL     OW11522   3.267   0.100   4.482  0.4890 -0.1396  0.3541
 2863SOL    HW211523   3.257   0.006   4.497 -0.9107  0.2565  1.9811
 2863SOL    HW311524   3.359   0.118   4.502  0.7598 -1.1490  0.0439
 2863SOL    MW411525   3.278   0.090   4.486  0.3400 -0.2205  0.5274
 2864SOL     OW11526   3.589   0.836   4.497  0.0592 -0.2534 -0.0589
 2864SOL    HW211527   3.600   0.926   4.528  0.4522 -0.4807  0.4557
 2864SOL    HW311528   3.599   0.842   4.402  1.2199  0.0650  0.0835
 2864SOL    MW411529   3.591   0.848   4.489  0.2642 -0.2415  0.0277
 2865SOL     OW11530   3.824   0.680   4.667  0.3769  0.0062  0.3822
 2865SOL    HW211531   3.888   0.718   4.727  0.5451  0.0285  0.1900
 2865SOL    HW311532   3.762   0.752   4.649  0.5315  0.1059  0.2466
 2865SOL    MW411533   3.824   0.695   4.672  0.4196  0.0222  0.3390
 2866SOL     OW11534   0.117   0.405   4.537 -0.3568  0.3712  0.1828
 2866SOL    HW211535   0.167   0.486   4.532 -1.0625  0.8784  1.1415
 2866SOL    HW311536   0.026   0.432   4.527 -0.5383 -0.3982 -0.2882
 2866SOL    MW411537   0.112   0.419   4.535 -0.4739  0.3366  0.2475
 2867SOL     OW11538   0.397   0.360   4.602  0.2436  0.5169  0.2598
 2867SOL    HW211539   0.413   0.368   4.508 -0.4030  0.5391  0.1490
 2867SOL    HW311540   0.302   0.361   4.610  0.3021  0.8453  0.9460
 2867SOL    MW411541   0.386   0.361   4.590  0.1659  0.5632  0.3352
 2868SOL     OW11542   4.129   0.276   4.488 -0.0686 -0.0694 -0.1971
 2868SOL    HW211543   4.104   0.238   4.404 -1.6050  0.0849  0.1838
 2868SOL    HW311544   4.075   0.355   4.496  0.8755  0.5287  0.4257
 2868SOL    MW411545   4.119   0.281   4.478 -0.1464  0.0299 -0.0644
 2869SOL     OW11546   3.817   1.344   4.490 -0.6279  0.3650  0.2829
 2869SOL    HW211547   3.837   1.323   4.398  1.9320  1.4521  0.5498
 2869SOL    HW311548   3.764   1.423   4.485  0.4033  1.0350 -0.2416
 2869SOL    MW411549   3.813   1.352   4.477 -0.1540  0.5968  0.2484
 2870SOL     OW11550   0.009   1.099   4.657  0.1431 -0.3045  0.3081
 2870SOL    HW211551   0.020   1.103   4.752 -1.0506 -0.7867  0.4624
 2870SOL    HW311552   0.025   1.008   4.634 -2.6488 -0.8637  0.4392
 2870SOL    MW411553   0.013   1.088   4.666 -0.3819 -0.4419  0.3457
 2871SOL     OW11554   0.656   1.276   4.788 -0.2685  0.4315  0.1249
 2871SOL    HW211555   0.675   1.360   4.744  1.0535  0.4663  0.7225
 2871SOL    HW311556   0.734   1.223   4.771 -0.7764 -0.4062  0.4046
 2871SOL    MW411557   0.669   1.280   4.780 -0.1611  0.3256  0.2403
 2872SOL     OW11558   4.135   1.620   4.577 -0.2623 -0.0238 -0.0069
 2872SOL    HW211559   4.107   1.536   4.612 -1.4117  0.2527 -0.2393
 2872SOL    HW311560   4.220   1.636   4.618 -0.1476 -1.1769  0.2282
 2872SOL    MW411561   4.142   1.611   4.587 -0.3991 -0.1392 -0.0067
 2873SOL     OW11562   3.447   2.728   4.728  0.3145  0.0969  0.0430
 2873SOL    HW211563   3.539   2.739   4.705  0.1008 -0.2631 -1.0272
 2873SOL    HW311564   3.399   2.775   4.660 -0.3210 -0.6833 -0.0585
 2873SOL    MW411565   3.453   2.735   4.716  0.2024 -0.0534 -0.1121
 2874SOL     OW11566   4.307   2.085   4.261 -0.0129 -0.0562 -0.1455
 2874SOL    HW211567   4.232   2.027   4.273  0.4479 -0.6346 -0.0406
 2874SOL    HW311568   4.306   2.140   4.339  0.3192 -0.8062  0.3981
 2874SOL    MW411569   4.297   2.085   4.273  0.0920 -0.2315 -0.0596
 2875SOL     OW11570   4.270   2.242   4.486 -0.2105  0.4243  0.1302
 2875SOL    HW211571   4.346   2.294   4.511  0.0313 -0.0626  0.3959
 2875SOL    HW311572   4.196   2.301   4.499  0.2203  1.3074 -1.2885
 2875SOL    MW411573   4.270   2.257   4.491 -0.1221  0.4766 -0.0215
 2876SOL     OW11574   3.806   2.256   4.619  0.2309  0.2645 -0.0045
 2876SOL    HW211575   3.841   2.174   4.584  1.2954 -0.2839  2.2459
 2876SOL    HW311576   3.719   2.232   4.653 -0.5230  0.6531 -1.5968
 2876SOL    MW411577   3.799   2.242   4.619  0.2718  0.2434  0.0820
 2877SOL     OW11578   3.550   1.846   4.600 -0.1579  0.3154  0.0581
 2877SOL    HW211579   3.514   1.761   4.574 -1.0990  1.6317 -3.2444
 2877SOL    HW311580   3.474   1.904   4.604  0.7016  1.4346  0.3342
 2877SOL    MW411581   3.535   1.842   4.597 -0.1686  0.6366 -0.3409
 2878SOL     OW11582   3.942   2.794   4.807  0.0006  0.4900  0.1751
 2878SOL    HW211583   3.943   2.779   4.902 -0.3249  1.7640  0.3864
 2878SOL    HW311584   3.858   2.759   4.778 -0.7212  1.8093  0.6523
 2878SOL    MW411585   3.931   2.787   4.816 -0.1376  0.8318  0.2661
 2879SOL     OW11586   4.277   2.870   4.530 -0.3628 -0.4353 -0.1251
 2879SOL    HW211587   4.358   2.910   4.560 -0.3578 -0.5590  0.0246
 2879SOL    HW311588   4.279   2.882   4.435  0.4261 -1.5319 -0.2613
 2879SOL    MW411589   4.288   2.877   4.521 -0.2584 -0.5963 -0.1230
 2880SOL     OW11590   4.030   3.262   4.535 -0.0791  0.3867  0.5561
 2880SOL    HW211591   4.014   3.249   4.441 -2.0655 -1.7177  1.1224
 2880SOL    HW311592   4.040   3.173   4.570 -1.4749  1.0097  2.6518
 2880SOL    MW411593   4.029   3.249   4.527 -0.5250  0.1912  0.9074
 2881SOL     OW11594   0.204   3.500   4.533 -0.0118  0.4638  0.3374
 2881SOL    HW211595   0.209   3.503   4.438 -2.3821 -0.7421  0.1335
 2881SOL    HW311596   0.174   3.587   4.559  0.1519  0.6348 -0.0586
 2881SOL    MW411597   0.200   3.512   4.524 -0.3029  0.3273  0.2580
 2882SOL     OW11598   4.105   4.308   4.757  0.4870 -0.2204  0.5879
 2882SOL    HW211599   4.086   4.277   4.846 -0.9216 -0.2894  0.2787
 2882SOL    HW311600   4.023   4.294   4.709  0.8559  0.9542 -0.4060
 2882SOL    MW411601   4.092   4.302   4.763  0.3500 -0.0744  0.4168
 2883SOL     OW11602   3.584   0.069   4.496 -0.0899 -0.3935  0.6254
 2883SOL    HW211603   3.590   0.162   4.519 -0.8491 -0.4856  1.2309
 2883SOL    HW311604   3.579   0.068   4.401 -0.9358  0.2350  0.6559
 2883SOL    MW411605   3.584   0.081   4.487 -0.3018 -0.3227  0.7091
 2884SOL     OW11606   4.111   3.622   4.756  0.0496 -0.2196 -0.3445
 2884SOL    HW211607   4.139   3.708   4.723  0.5579 -0.6771 -1.1457
 2884SOL    HW311608   4.158   3.560   4.700 -0.0461 -1.0147  0.4639
 2884SOL    MW411609   4.121   3.625   4.744  0.1044 -0.3850 -0.3438
 2885SOL     OW11610   3.693   0.291   4.615  0.0471 -0.6108  0.1598
 2885SOL    HW211611   3.669   0.365   4.671 -2.0121 -1.4646  0.4665
 2885SOL    HW311612   3.732   0.227   4.675 -1.6922 -1.3165  0.5707
 2885SOL    MW411613   3.695   0.292   4.631 -0.4539 -0.8166  0.2542
 2886SOL     OW11614   4.240   4.390   4.285 -0.2617  0.2048  0.5147
 2886SOL    HW211615   4.313   4.352   4.237 -1.3679 -0.4736 -0.6787
 2886SOL    HW311616   4.248   4.353   4.373  0.6391 -0.1207  0.3017
 2886SOL    MW411617   4.250   4.380   4.290 -0.2890  0.0720  0.3295
 2887NA      NA11618   4.222   0.875   0.683 -0.1049 -0.2255  0.4389
 2888NA      NA11619   2.289   4.246   0.461  0.0245 -0.3689  0.0161
   4.49070   4.66690  10.00000
