Gromacs Runs On Most of All Computer Systems in water
11585
    1C      O5'    1   1.761   2.112   4.513  0.2296  0.0257  0.1716
    1C      H5T    2   1.837   2.060   4.541  0.5998 -0.4907 -1.7035
    1C      C5'    3   1.700   2.190   4.616 -0.0075  0.4448 -0.0183
    1C     H5'1    4   1.698   2.140   4.713 -0.5798  1.3710  0.4581
    1C     H5'2    5   1.596   2.198   4.582 -0.7775 -2.7837  1.3710
    1C      C4'    6   1.768   2.326   4.630  0.1510 -0.0556  0.1846
    1C      H4'    7   1.702   2.393   4.686  1.4406  1.5731 -0.1804
    1C      O4'    8   1.898   2.320   4.694  0.2567  0.0536  0.4324
    1C      C1'    9   1.985   2.412   4.630 -0.5225 -0.2063  0.3005
    1C      H1'   10   1.965   2.513   4.664 -2.3558 -0.1707 -0.8433
    1C       N1   11   2.128   2.376   4.648 -0.6574 -0.5398 -0.1290
    1C       C6   12   2.170   2.246   4.675  0.6670 -0.3451 -0.0078
    1C       H6   13   2.095   2.168   4.680 -0.1785  0.5006  0.7349
    1C       C5   14   2.302   2.219   4.680 -0.4832  0.3610  0.0318
    1C       H5   15   2.335   2.119   4.704 -0.0282  0.2879 -0.8612
    1C       C4   16   2.394   2.330   4.665 -0.0412 -0.0818 -0.8897
    1C       N4   17   2.520   2.313   4.685 -0.2754 -0.1868  0.0221
    1C      H41   18   2.563   2.227   4.715  2.1459  0.9766 -0.0193
    1C      H42   19   2.576   2.394   4.663  1.0953 -0.3750  2.6753
    1C       N3   20   2.356   2.454   4.634 -0.0366 -0.0145 -0.2313
    1C       C2   21   2.223   2.478   4.636 -0.7945 -0.3349 -0.0115
    1C       O2   22   2.191   2.591   4.610 -0.1184 -0.0350 -0.1563
    1C      C3'   23   1.785   2.402   4.496 -0.4205  0.2429  0.2643
    1C      H3'   24   1.747   2.348   4.410  1.3005 -0.6131  0.0070
    1C      C2'   25   1.940   2.401   4.488 -0.1815  0.6346  0.1664
    1C     H2'1   26   1.970   2.305   4.446  0.8007  1.0227 -0.0338
    1C      O2'   27   1.985   2.505   4.412  0.1857  0.2201  0.2555
    1C     HO'2   28   1.919   2.574   4.410  0.5697  0.6421  1.5903
    1C      O3'   29   1.725   2.534   4.493 -0.2599  0.1329 -0.1095
    2G        P   30   1.587   2.558   4.426  0.4513 -0.0022 -0.1891
    2G      O1P   31   1.601   2.543   4.275  0.4454 -0.3727 -0.5860
    2G      O2P   32   1.527   2.676   4.484 -0.4248  0.0614 -0.0944
    2G      O5'   33   1.502   2.437   4.489  0.3713  0.1057 -0.2450
    2G      C5'   34   1.364   2.422   4.451  0.4402  0.4302  0.5188
    2G     H5'1   35   1.370   2.410   4.342 -1.8390 -1.3060  0.5704
    2G     H5'2   36   1.319   2.517   4.477  1.3461  1.5736 -1.9164
    2G      C4'   37   1.300   2.301   4.525  0.4966  0.1195 -0.0887
    2G      H4'   38   1.193   2.310   4.507  0.6972  1.0915 -0.8553
    2G      O4'   39   1.342   2.169   4.487 -0.2790  0.1864 -0.1888
    2G      C1'   40   1.266   2.086   4.580  0.0220  0.4010 -0.3953
    2G      H1'   41   1.163   2.078   4.544  0.0363  0.5307 -0.4693
    2G       N9   42   1.331   1.949   4.582 -0.0585  0.1756  0.1813
    2G       C8   43   1.464   1.926   4.571  0.3471 -0.2075  0.2689
    2G       H8   44   1.536   2.005   4.559 -0.7761  0.9886  1.1585
    2G       N7   45   1.502   1.801   4.578 -0.7892  0.4837  0.1414
    2G       C5   46   1.375   1.738   4.584  0.0370 -0.5896 -0.8926
    2G       C6   47   1.346   1.598   4.604 -0.0054  0.7381 -0.6680
    2G       O6   48   1.416   1.500   4.600 -0.0059  0.1076  0.2710
    2G       N1   49   1.212   1.574   4.606  0.1093 -0.0873 -0.3219
    2G       H1   50   1.181   1.478   4.601 -0.4054 -0.0034  1.1212
    2G       C2   51   1.122   1.673   4.598 -0.0838  0.2458 -0.3029
    2G       N2   52   1.001   1.635   4.609 -0.2111 -0.0821  0.5851
    2G      H21   53   0.974   1.538   4.610  2.6077 -0.9056  0.6451
    2G      H22   54   0.932   1.708   4.615  0.6200  0.5953  1.9856
    2G       N3   55   1.139   1.803   4.605 -0.4335  0.0578  0.1529
    2G       C4   56   1.273   1.830   4.594 -0.3573  0.0016  0.0575
    2G      C3'   57   1.324   2.302   4.675 -0.7264  0.2727  0.2178
    2G      H3'   58   1.429   2.314   4.701 -0.8479  1.3935  0.2236
    2G      C2'   59   1.277   2.163   4.717 -0.0185  0.3826  0.2728
    2G     H2'1   60   1.358   2.110   4.768 -0.7567 -2.0249 -0.9592
    2G      O2'   61   1.160   2.179   4.799 -0.2518 -0.0198 -0.0358
    2G     HO'2   62   1.118   2.260   4.768 -1.6865 -0.6261  0.3359
    2G      O3'   63   1.247   2.403   4.739 -0.2628  0.2491  0.2132
    2G      H3T   64   1.298   2.485   4.737 -0.1476  0.1685 -0.4358
    5SOL     OW   65   3.955   2.140   0.400  0.3404 -0.2834 -0.1239
    5SOL    HW2   66   3.955   2.220   0.453 -0.0368 -0.4283  0.0954
    5SOL    HW3   67   4.040   2.101   0.415  0.1540 -0.4339  0.5437
    5SOL    MW4   68   3.966   2.146   0.409  0.2658 -0.3223 -0.0069
    6SOL     OW   69   2.437   4.219   0.187 -0.1632  0.2974 -0.1655
    6SOL    HW2   70   2.345   4.190   0.185  0.0616 -0.3821 -1.5323
    6SOL    HW3   71   2.485   4.143   0.219  0.0327  0.2991 -0.4538
    6SOL    MW4   72   2.431   4.205   0.191 -0.1075  0.2084 -0.3839
    7SOL     OW   73   2.471   2.792   0.691 -0.2802  0.2859  0.3471
    7SOL    HW2   74   2.478   2.878   0.733 -0.4681  0.8563 -0.7639
    7SOL    HW3   75   2.401   2.748   0.738 -0.2684  0.7932  0.8447
    7SOL    MW4   76   2.463   2.798   0.703 -0.3035  0.4282  0.2662
    8SOL     OW   77   0.694   2.287   0.836  0.1779 -0.1309  0.0067
    8SOL    HW2   78   0.696   2.293   0.932 -0.4097 -0.8528  0.0669
    8SOL    HW3   79   0.622   2.345   0.810 -0.5797 -1.0214  0.0977
    8SOL    MW4   80   0.685   2.295   0.845  0.0004 -0.3438  0.0266
    9SOL     OW   81   1.574   0.461   0.731  0.2236 -1.4137  0.4909
    9SOL    HW2   82   1.574   0.429   0.641 -1.1801 -1.0911  0.3539
    9SOL    HW3   83   1.501   0.414   0.772 -1.7811  1.4371  0.3272
    9SOL    MW4   84   1.564   0.451   0.724 -0.2260 -0.9950  0.4511
   10SOL     OW   85   0.618   4.624   0.829  0.4046  0.1200 -0.1106
   10SOL    HW2   86   0.640   4.544   0.781  0.7131  0.0003  0.2236
   10SOL    HW3   87   0.627   4.599   0.921 -2.5625 -0.3590  0.0998
   10SOL    MW4   88   0.622   4.610   0.835  0.0539  0.0410 -0.0387
   11SOL     OW   89   4.302   2.059   0.712 -0.2765 -0.1511  0.4226
   11SOL    HW2   90   4.366   1.999   0.750  0.5818  0.3209 -0.2727
   11SOL    HW3   91   4.308   2.138   0.767  0.7170  0.4023 -0.4829
   11SOL    MW4   92   4.311   2.061   0.725 -0.0319 -0.0160  0.2114
   12SOL     OW   93   0.050   2.954   0.429  0.2593 -0.4204  0.0812
   12SOL    HW2   94   0.117   2.886   0.427  1.0826  0.3842 -1.3378
   12SOL    HW3   95   0.043   2.982   0.337 -1.2897  0.2140  0.3836
   12SOL    MW4   96   0.058   2.949   0.416  0.1636 -0.2306 -0.0661
   13SOL     OW   97   0.193   3.412   0.495  0.0965  0.3808  0.0717
   13SOL    HW2   98   0.179   3.484   0.434 -0.0518  0.7571  0.5432
   13SOL    HW3   99   0.228   3.455   0.574  0.2863 -0.0983  0.2458
   13SOL    MW4  100   0.196   3.428   0.497  0.1020  0.3672  0.1568
   14SOL     OW  101   3.826   0.498   0.762 -0.4912 -0.2104  0.2361
   14SOL    HW2  102   3.838   0.577   0.815  0.7586  0.5277 -1.1231
   14SOL    HW3  103   3.750   0.454   0.802  0.4194  0.3019  2.6423
   14SOL    MW4  104   3.817   0.503   0.775 -0.2062 -0.0454  0.3743
   15SOL     OW  105   1.812   4.299   0.429  0.0675 -0.5672 -0.4574
   15SOL    HW2  106   1.719   4.318   0.436  0.2718 -0.5824  2.8470
   15SOL    HW3  107   1.818   4.204   0.436  0.3708 -0.5370 -0.2976
   15SOL    MW4  108   1.801   4.289   0.431  0.1346 -0.5651 -0.0003
   16SOL     OW  109   3.717   2.502   0.505  0.3344  0.1425 -0.0688
   16SOL    HW2  110   3.689   2.433   0.444 -0.8286 -0.3572  1.0101
   16SOL    HW3  111   3.716   2.582   0.452 -1.2645 -0.1850 -0.5583
   16SOL    MW4  112   3.713   2.503   0.490 -0.0300  0.0334  0.0089
   17SOL     OW  113   2.988   3.815   0.308 -0.0115  0.1343  0.2260
   17SOL    HW2  114   2.967   3.907   0.320  0.1767  0.0470  1.2088
   17SOL    HW3  115   3.083   3.809   0.320  0.0434 -0.1097 -0.3089
   17SOL    MW4  116   2.998   3.826   0.311  0.0207  0.0904  0.2851
   18SOL     OW  117   3.153   2.680   0.802 -0.3201 -0.0833  0.2543
   18SOL    HW2  118   3.226   2.735   0.776 -0.7471 -0.1535 -1.2045
   18SOL    HW3  119   3.075   2.727   0.772 -0.8202 -0.3979  1.0360
   18SOL    MW4  120   3.152   2.693   0.794 -0.4423 -0.1340  0.1649
   19SOL     OW  121   3.224   3.941   0.487 -0.0321  0.2159 -0.1562
   19SOL    HW2  122   3.306   3.986   0.469  1.3297 -2.2079 -0.2735
   19SOL    HW3  123   3.219   3.938   0.583  0.5865 -0.5799 -0.1406
   19SOL    MW4  124   3.235   3.947   0.498  0.2291 -0.2089 -0.1697
   20SOL     OW  125   0.505   2.904   0.438 -0.2803  0.0323 -0.2271
   20SOL    HW2  126   0.423   2.856   0.446 -0.9429  0.9949 -1.1861
   20SOL    HW3  127   0.572   2.835   0.433 -1.2586 -0.8109 -2.0411
   20SOL    MW4  128   0.503   2.888   0.439 -0.4968  0.0479 -0.5930
   21SOL     OW  129   3.432   1.280   0.485  0.1329  0.3839 -0.2171
   21SOL    HW2  130   3.382   1.203   0.459 -0.3588  1.0315 -1.2274
   21SOL    HW3  131   3.387   1.353   0.442  1.2441  1.1046 -0.1656
   21SOL    MW4  132   3.419   1.280   0.476  0.2146  0.5643 -0.3436
   22SOL     OW  133   2.464   2.836   0.408 -0.3001  0.5432  0.0754
   22SOL    HW2  134   2.544   2.793   0.375 -0.4870  0.2573 -0.0120
   22SOL    HW3  135   2.468   2.825   0.503 -0.7127 -0.3194 -0.0016
   22SOL    MW4  136   2.475   2.829   0.416 -0.3791  0.3917  0.0537
   23SOL     OW  137   2.269   0.871   0.763 -0.2801  0.4101 -0.5270
   23SOL    HW2  138   2.265   0.886   0.669 -0.1909  0.3543 -0.5396
   23SOL    HW3  139   2.280   0.958   0.801  0.5193  0.3526 -0.6171
   23SOL    MW4  140   2.270   0.884   0.756 -0.1628  0.3952 -0.5406
   24SOL     OW  141   4.353   1.223   0.500 -0.0156 -0.2034 -0.1758
   24SOL    HW2  142   4.422   1.267   0.449  0.1023 -0.4469 -0.2294
   24SOL    HW3  143   4.272   1.249   0.457  0.2000 -1.9688 -1.7096
   24SOL    MW4  144   4.351   1.232   0.488  0.0286 -0.4685 -0.3852
   25SOL     OW  145   3.819   4.462   0.394  0.1109 -0.3595 -0.1267
   25SOL    HW2  146   3.812   4.425   0.482 -0.4647 -1.0630 -0.4676
   25SOL    HW3  147   3.883   4.533   0.403  0.1480 -0.5099  0.8304
   25SOL    MW4  148   3.827   4.467   0.407  0.0396 -0.4716 -0.0454
   26SOL     OW  149   1.602   1.248   0.790 -0.2730  0.1448  0.3055
   26SOL    HW2  150   1.683   1.198   0.778 -0.1860  0.4610 -0.4525
   26SOL    HW3  151   1.540   1.186   0.828 -0.1070 -0.4904 -0.4532
   26SOL    MW4  152   1.605   1.233   0.794 -0.2396  0.1026  0.1054
   27SOL     OW  153   1.427   2.019   0.286  0.5922 -0.0687 -0.0588
   27SOL    HW2  154   1.474   2.102   0.278  0.8167 -0.2892 -1.1222
   27SOL    HW3  155   1.426   1.983   0.197 -2.6128  0.4663 -0.2927
   27SOL    MW4  156   1.433   2.025   0.273  0.1990 -0.0269 -0.2300
   28SOL     OW  157   2.345   3.884   0.443  0.3609  0.6691  0.2322
   28SOL    HW2  158   2.274   3.882   0.378  0.9011 -1.9020 -0.3162
   28SOL    HW3  159   2.318   3.952   0.505 -1.8477  0.7871 -0.7927
   28SOL    MW4  160   2.332   3.893   0.442  0.1407  0.3452  0.0246
   29SOL     OW  161   1.583   4.633   0.891  0.2525  0.4010  0.2458
   29SOL    HW2  162   1.654   4.680   0.847  2.2314 -1.4387  1.4058
   29SOL    HW3  163   1.594   4.655   0.984  1.5357 -2.7364  0.8739
   29SOL    MW4  164   1.594   4.642   0.898  0.6828 -0.2556  0.4818
   30SOL     OW  165   3.744   0.425   0.521 -0.0182  0.1568  0.2526
   30SOL    HW2  166   3.758   0.459   0.610 -0.4066  0.2560  0.2781
   30SOL    HW3  167   3.655   0.454   0.499 -0.3701 -0.8815  0.2947
   30SOL    MW4  168   3.734   0.434   0.530 -0.1159  0.0329  0.2615
   31SOL     OW  169   1.603   1.509   0.852  0.1069 -0.2486  0.1102
   31SOL    HW2  170   1.590   1.506   0.947  0.2798 -0.4060  0.1278
   31SOL    HW3  171   1.597   1.417   0.825  0.8921 -0.2863  0.0748
   31SOL    MW4  172   1.600   1.496   0.861  0.2333 -0.2744  0.1078
   32SOL     OW  173   2.529   4.284   0.572 -0.0506 -0.9674  0.0057
   32SOL    HW2  174   2.530   4.349   0.502  1.5227 -1.7341 -0.7064
   32SOL    HW3  175   2.608   4.232   0.557 -0.2535 -1.7918  1.7381
   32SOL    MW4  176   2.540   4.286   0.561  0.1304 -1.1768  0.1404
   33SOL     OW  177   3.310   2.375   0.297  0.2592  0.1006  0.3751
   33SOL    HW2  178   3.402   2.376   0.322  0.1237 -1.2671  1.0272
   33SOL    HW3  179   3.265   2.425   0.365  0.2440 -1.2421  1.3801
   33SOL    MW4  180   3.316   2.381   0.309  0.2391 -0.2570  0.5937
   34SOL     OW  181   3.628   0.856   0.809  0.1359  0.2190  0.4324
   34SOL    HW2  182   3.629   0.946   0.842 -1.7818  0.7170 -0.7896
   34SOL    HW3  183   3.640   0.864   0.715 -0.0879 -0.7843  0.3076
   34SOL    MW4  184   3.629   0.869   0.801 -0.1466  0.1523  0.2547
   35SOL     OW  185   3.364   0.227   0.416  0.0100 -0.1366 -0.4173
   35SOL    HW2  186   3.372   0.170   0.340  1.4271 -0.5749  0.0361
   35SOL    HW3  187   3.275   0.213   0.448  0.5062 -2.5481 -0.0010
   35SOL    MW4  188   3.354   0.217   0.410  0.2625 -0.5126 -0.3026
   36SOL     OW  189   2.278   1.134   0.852 -0.0826 -0.1399 -0.0349
   36SOL    HW2  190   2.357   1.183   0.831  0.3243 -0.6166  0.3719
   36SOL    HW3  191   2.258   1.158   0.943  0.6846 -1.4927  0.4927
   36SOL    MW4  192   2.286   1.144   0.861  0.0720 -0.3812  0.0884
   37SOL     OW  193   4.034   1.594   0.468  0.0032 -0.0106 -0.2007
   37SOL    HW2  194   4.043   1.611   0.561 -0.0392  2.3980 -0.6116
   37SOL    HW3  195   3.939   1.593   0.452  0.0379  1.1604 -0.4907
   37SOL    MW4  196   4.023   1.596   0.478  0.0024  0.4617 -0.2932
   38SOL     OW  197   0.946   2.674   0.819  0.3370 -0.1967 -0.0688
   38SOL    HW2  198   0.927   2.586   0.788  1.2248 -0.3384 -0.2427
   38SOL    HW3  199   0.943   2.668   0.914 -3.0734  0.3937 -0.0984
   38SOL    MW4  200   0.943   2.662   0.827  0.0042 -0.1376 -0.0957
   39SOL     OW  201   4.264   0.486   0.732  0.7042  0.5985  0.1300
   39SOL    HW2  202   4.255   0.566   0.784  1.4488  1.0564 -0.4307
   39SOL    HW3  203   4.341   0.443   0.768 -1.1863 -1.1931  2.1525
   39SOL    MW4  204   4.273   0.491   0.744  0.5531  0.4225  0.3229
   40SOL     OW  205   3.585   3.224   0.513  0.7701 -0.1120 -0.3686
   40SOL    HW2  206   3.513   3.170   0.481  1.0440 -0.2402 -0.7569
   40SOL    HW3  207   3.565   3.312   0.479 -0.4190  0.3498  1.3984
   40SOL    MW4  208   3.573   3.229   0.505  0.6492 -0.0682 -0.1867
   41SOL     OW  209   1.997   2.734   0.490 -0.4861  0.2064 -0.2034
   41SOL    HW2  210   2.078   2.720   0.441 -0.8192  0.0892 -0.7204
   41SOL    HW3  211   2.026   2.754   0.579  0.1233  0.6615 -0.5032
   41SOL    MW4  212   2.012   2.735   0.495 -0.4497  0.2511 -0.3112
   42SOL     OW  213   3.644   1.871   0.354  0.1979  0.3110 -0.3926
   42SOL    HW2  214   3.554   1.894   0.378  0.1045 -1.1148  0.7111
   42SOL    HW3  215   3.659   1.915   0.270 -1.1373  1.4699 -0.0458
   42SOL    MW4  216   3.634   1.880   0.346  0.0093  0.2760 -0.2012
   43SOL     OW  217   4.291   2.287   0.866 -0.5284 -0.0657  0.0645
   43SOL    HW2  218   4.364   2.340   0.833  0.5829 -0.4225  1.8685
   43SOL    HW3  219   4.213   2.338   0.844  0.2644  0.4691 -1.6417
   43SOL    MW4  220   4.290   2.301   0.859 -0.2775 -0.0424  0.0774
   44SOL     OW  221   1.565   2.584   0.341 -0.1787  0.2617 -0.4959
   44SOL    HW2  222   1.522   2.623   0.417 -0.4155 -0.4785 -0.2440
   44SOL    HW3  223   1.654   2.566   0.371 -0.1061  0.5000 -0.5718
   44SOL    MW4  224   1.571   2.587   0.355 -0.2004  0.1955 -0.4726
   45SOL     OW  225   0.563   1.418   0.331  0.1384 -0.1650  0.7256
   45SOL    HW2  226   0.656   1.431   0.314  0.0209  0.4120  0.5121
   45SOL    HW3  227   0.558   1.335   0.377  0.7844 -0.0746  0.9543
   45SOL    MW4  228   0.575   1.409   0.335  0.2081 -0.0770  0.7276
   46SOL     OW  229   0.708   4.366   0.726 -0.1250 -0.1511  0.1394
   46SOL    HW2  230   0.636   4.313   0.762  1.2236 -0.7626  2.0640
   46SOL    HW3  231   0.729   4.324   0.643 -1.6005 -0.3252 -0.1571
   46SOL    MW4  232   0.701   4.353   0.720 -0.1417 -0.2546  0.3542
   47SOL     OW  233   2.258   1.661   0.789 -0.0539  0.1338  0.2850
   47SOL    HW2  234   2.247   1.634   0.698 -1.1100  0.1975  0.3919
   47SOL    HW3  235   2.193   1.610   0.838  0.9158 -0.3439  1.0899
   47SOL    MW4  236   2.248   1.651   0.783 -0.0653  0.0790  0.4054
   48SOL     OW  237   3.137   0.810   0.563 -0.1363  0.1471  0.0248
   48SOL    HW2  238   3.224   0.826   0.527 -0.4287  0.0606 -0.7295
   48SOL    HW3  239   3.086   0.887   0.539 -0.0640  0.5482  1.1363
   48SOL    MW4  240   3.142   0.822   0.555 -0.1655  0.1886  0.0719
   49SOL     OW  241   0.939   2.332   0.441 -0.0605 -0.3213  0.0235
   49SOL    HW2  242   0.972   2.243   0.432 -0.5030 -0.4963  0.1532
   49SOL    HW3  243   0.948   2.352   0.535  1.2740  0.2504 -0.2031
   49SOL    MW4  244   0.945   2.323   0.453  0.0572 -0.2692  0.0107
   50SOL     OW  245   2.010   3.607   0.724 -0.3282  0.0129  0.0646
   50SOL    HW2  246   1.995   3.600   0.629  0.0572 -0.5171  0.0418
   50SOL    HW3  247   1.929   3.575   0.764 -0.5798  0.4570 -0.0881
   50SOL    MW4  248   1.997   3.602   0.717 -0.3105  0.0019  0.0414
   51SOL     OW  249   0.414   0.073   0.696 -0.3137 -0.3841 -0.1415
   51SOL    HW2  250   0.330   0.040   0.726  0.0383  0.5627  1.9764
   51SOL    HW3  251   0.479   0.023   0.745  0.2733  1.2946  0.8485
   51SOL    MW4  252   0.412   0.062   0.706 -0.1898 -0.0377  0.2685
   52SOL     OW  253   2.693   2.427   0.750  0.6426  0.3651  0.7804
   52SOL    HW2  254   2.714   2.517   0.776 -0.2459  0.7791  0.1046
   52SOL    HW3  255   2.669   2.434   0.657  1.4717 -0.7149  0.4849
   52SOL    MW4  256   2.692   2.440   0.741  0.6344  0.2773  0.6523
   53SOL     OW  257   1.814   4.030   0.449 -0.2974 -0.0561 -0.0821
   53SOL    HW2  258   1.792   4.020   0.542 -0.6957 -0.4583 -0.2172
   53SOL    HW3  259   1.735   4.000   0.403 -0.1563  0.2864 -0.5475
   53SOL    MW4  260   1.800   4.025   0.455 -0.3313 -0.0639 -0.1613
   54SOL     OW  261   0.502   4.237   0.852 -0.4665 -0.2864 -0.4200
   54SOL    HW2  262   0.433   4.291   0.813 -0.0091 -0.3058 -1.2853
   54SOL    HW3  263   0.480   4.233   0.945 -1.2291  0.3034 -0.5657
   54SOL    MW4  264   0.490   4.243   0.859 -0.5068 -0.2108 -0.5534
   55SOL     OW  265   1.952   4.297   0.172 -0.0045  0.0159 -0.1261
   55SOL    HW2  266   1.884   4.319   0.109  0.5727  0.4176 -0.6076
   55SOL    HW3  267   1.908   4.304   0.257 -1.0150 -1.4062 -0.5218
   55SOL    MW4  268   1.937   4.301   0.175 -0.0616 -0.1183 -0.2418
   56SOL     OW  269   0.893   1.132   0.496 -0.5648 -0.1770  0.1709
   56SOL    HW2  270   0.836   1.160   0.568 -1.7098  2.0446 -1.5408
   56SOL    HW3  271   0.981   1.158   0.525 -1.0125  0.6898  0.7721
   56SOL    MW4  272   0.897   1.139   0.509 -0.7750  0.2306  0.0244
   57SOL     OW  273   0.480   2.465   0.790  0.5255  0.5707  0.6551
   57SOL    HW2  274   0.483   2.558   0.814 -0.3091  0.8721 -0.3509
   57SOL    HW3  275   0.493   2.464   0.695 -1.3152 -0.1690  0.3745
   57SOL    MW4  276   0.482   2.477   0.781  0.1725  0.5128  0.4853
   58SOL     OW  277   1.810   0.378   0.889 -0.0471  0.5446 -0.0156
   58SOL    HW2  278   1.886   0.415   0.844  0.1212 -1.6984 -1.6633
   58SOL    HW3  279   1.735   0.413   0.840  0.0646 -0.0235 -0.6087
   58SOL    MW4  280   1.810   0.387   0.877 -0.0101  0.1737 -0.3113
   59SOL     OW  281   4.480   0.854   0.796  0.1250 -0.1326 -0.0553
   59SOL    HW2  282   4.458   0.869   0.704 -0.3374 -0.2555  0.0302
   59SOL    HW3  283   4.473   0.940   0.836 -0.0543 -0.1439 -0.0607
   59SOL    MW4  284   4.476   0.867   0.789  0.0401 -0.1503 -0.0448
   60SOL     OW  285   0.475   3.410   0.401 -0.3100 -0.0205  0.1484
   60SOL    HW2  286   0.383   3.386   0.403 -0.3784  0.2805  0.5767
   60SOL    HW3  287   0.522   3.328   0.418 -0.4600 -0.4103 -1.2691
   60SOL    MW4  288   0.469   3.396   0.404 -0.3388 -0.0319  0.0179
   61SOL     OW  289   2.630   3.530   0.317  0.3663  0.1128  0.2570
   61SOL    HW2  290   2.713   3.538   0.363  0.0672 -0.1143  0.8277
   61SOL    HW3  291   2.640   3.587   0.240  0.7968  0.6250  0.6876
   61SOL    MW4  292   2.642   3.539   0.313  0.3836  0.1502  0.3891
   62SOL     OW  293   4.079   2.432   0.808 -0.1349 -0.2263 -0.0369
   62SOL    HW2  294   3.994   2.394   0.829  0.6408 -1.3589  1.1582
   62SOL    HW3  295   4.074   2.522   0.841 -0.4928 -0.6295  1.0317
   62SOL    MW4  296   4.067   2.439   0.815 -0.0796 -0.4289  0.2618
   63SOL     OW  297   4.080   1.121   0.855  0.1355  0.4118  0.2170
   63SOL    HW2  298   4.053   1.099   0.944 -1.0817  0.7173 -0.0666
   63SOL    HW3  299   4.005   1.168   0.818 -0.5417 -2.2781 -1.9654
   63SOL    MW4  300   4.066   1.125   0.862 -0.1140  0.0974 -0.1084
   64SOL     OW  301   1.589   0.742   0.787 -0.1490  0.0328 -0.1738
   64SOL    HW2  302   1.578   0.648   0.771 -0.9743  0.0753  0.1469
   64SOL    HW3  303   1.511   0.782   0.752  0.7289  0.7343 -1.3502
   64SOL    MW4  304   1.577   0.735   0.781 -0.1420  0.1309 -0.2867
   65SOL     OW  305   2.743   4.112   0.516 -0.0129  0.4943  0.4294
   65SOL    HW2  306   2.832   4.099   0.483 -1.0746 -2.2955 -1.5697
   65SOL    HW3  307   2.745   4.077   0.605  0.1915 -2.5384 -0.7061
   65SOL    MW4  308   2.755   4.105   0.523 -0.1261 -0.2737  0.0158
   66SOL     OW  309   1.398   1.085   0.883 -0.5017 -0.3555  0.1460
   66SOL    HW2  310   1.387   1.001   0.838 -1.3675  0.8769 -2.0175
   66SOL    HW3  311   1.308   1.118   0.893 -0.1620  0.3425  0.9237
   66SOL    MW4  312   1.385   1.078   0.879 -0.5711 -0.1009 -0.0368
   67SOL     OW  313   2.931   2.842   0.700  0.0128  0.4101  0.0010
   67SOL    HW2  314   2.860   2.806   0.753 -0.2839  0.7045 -0.1936
   67SOL    HW3  315   2.932   2.788   0.622 -0.8461  1.2081 -0.5737
   67SOL    MW4  316   2.922   2.830   0.697 -0.1395  0.5543 -0.1005
   68SOL     OW  317   1.621   0.287   0.469 -0.5703  0.5202 -0.0485
   68SOL    HW2  318   1.708   0.256   0.496 -0.6057  0.2328 -0.2689
   68SOL    HW3  319   1.637   0.332   0.386 -0.9106 -1.1060 -1.0147
   68SOL    MW4  320   1.635   0.289   0.462 -0.6199  0.2677 -0.2050
   69SOL     OW  321   0.584   3.171   0.482 -0.3590  0.1914 -0.6258
   69SOL    HW2  322   0.677   3.152   0.496 -0.0594  0.3201 -2.3545
   69SOL    HW3  323   0.544   3.085   0.469 -0.1635  0.2534 -1.6809
   69SOL    MW4  324   0.591   3.157   0.482 -0.2937  0.2167 -0.9931
   70SOL     OW  325   2.496   1.265   0.719  0.4239 -0.1368 -0.2952
   70SOL    HW2  326   2.506   1.358   0.737 -1.1118 -0.5032  2.8412
   70SOL    HW3  327   2.443   1.260   0.640 -0.5926  1.6580  0.2527
   70SOL    MW4  328   2.491   1.277   0.711  0.0873  0.0517  0.1909
   71SOL     OW  329   4.039   0.148   0.759 -0.3129 -0.2582  0.0102
   71SOL    HW2  330   4.017   0.173   0.670  0.0357  1.0952  0.2928
   71SOL    HW3  331   4.024   0.228   0.811  1.9918 -0.2584  0.7423
   71SOL    MW4  332   4.034   0.162   0.754  0.0372 -0.0796  0.1441
   72SOL     OW  333   1.086   3.752   0.481 -0.3608  0.2265 -0.1008
   72SOL    HW2  334   1.093   3.751   0.577 -0.7864  0.6295 -0.0622
   72SOL    HW3  335   1.006   3.703   0.462 -0.6081  0.6707 -0.2146
   72SOL    MW4  336   1.076   3.745   0.491 -0.4495  0.3381 -0.1107
   73SOL     OW  337   3.139   0.108   0.780  0.1515 -0.7089  0.4909
   73SOL    HW2  338   3.210   0.072   0.833 -0.3146  2.6113  3.5465
   73SOL    HW3  339   3.059   0.074   0.819 -0.1228 -0.0413  0.5196
   73SOL    MW4  340   3.138   0.099   0.792  0.0539 -0.1827  0.8978
   74SOL     OW  341   0.283   1.299   0.551  0.0158 -0.2904  0.3624
   74SOL    HW2  342   0.310   1.391   0.557  1.4113 -0.6687  0.2052
   74SOL    HW3  343   0.362   1.254   0.521 -0.7843 -1.4806  0.0205
   74SOL    MW4  344   0.297   1.306   0.548  0.0944 -0.4973  0.2966
   75SOL     OW  345   1.356   4.286   0.900 -0.3060 -0.1085  0.2413
   75SOL    HW2  346   1.287   4.337   0.857  0.6671  0.5749 -0.5158
   75SOL    HW3  347   1.437   4.318   0.862  0.3826 -1.5976  0.4147
   75SOL    MW4  348   1.357   4.297   0.889 -0.0869 -0.2146  0.1643
   76SOL     OW  349   4.275   4.577   0.555 -0.0932  0.2162 -0.5731
   76SOL    HW2  350   4.263   4.596   0.648 -0.4907  0.0659 -0.5939
   76SOL    HW3  351   4.323   4.494   0.554 -0.9522 -0.2925 -0.5040
   76SOL    MW4  352   4.280   4.568   0.567 -0.2589  0.1292 -0.5667
   77SOL     OW  353   2.045   3.885   0.825  0.5515 -0.1487 -0.1204
   77SOL    HW2  354   2.033   3.890   0.920  0.3096 -0.1691 -0.1505
   77SOL    HW3  355   2.029   3.793   0.804 -0.5696  0.0997 -0.3452
   77SOL    MW4  356   2.042   3.873   0.835  0.3717 -0.1187 -0.1541
   78SOL     OW  357   1.385   1.647   0.482  0.1936  0.2556 -0.0420
   78SOL    HW2  358   1.452   1.713   0.463 -0.5738  1.4349  1.2381
   78SOL    HW3  359   1.382   1.643   0.578  0.2359 -1.6735 -0.0965
   78SOL    MW4  360   1.394   1.655   0.492  0.0979  0.1566  0.1197
   79SOL     OW  361   0.565   3.656   0.503 -0.2480  0.4369 -0.3938
   79SOL    HW2  362   0.532   3.572   0.474 -1.6225  1.2422 -1.2204
   79SOL    HW3  363   0.638   3.675   0.444  1.1047 -0.8755  0.7981
   79SOL    MW4  364   0.570   3.648   0.492 -0.2508  0.3700 -0.3457
   80SOL     OW  365   3.624   2.738   0.352  0.3681  0.0031 -0.2649
   80SOL    HW2  366   3.617   2.809   0.288  1.3443 -0.2977 -0.7187
   80SOL    HW3  367   3.534   2.726   0.384  0.0832  0.9907 -0.6655
   80SOL    MW4  368   3.611   2.746   0.348  0.4592  0.0935 -0.3777
   81SOL     OW  369   1.035   1.844   0.518 -0.2622  0.0162 -0.2735
   81SOL    HW2  370   0.974   1.773   0.536  0.8505 -0.7937  0.3584
   81SOL    HW3  371   1.055   1.881   0.604 -0.5748  0.8863 -0.5677
   81SOL    MW4  372   1.029   1.839   0.531 -0.1566  0.0241 -0.2289
   82SOL     OW  373   3.394   0.743   0.930 -0.1179 -0.1682  0.0438
   82SOL    HW2  374   3.480   0.773   0.900  0.2539 -2.5799 -1.4066
   82SOL    HW3  375   3.332   0.807   0.895  0.6601 -1.0010 -2.9435
   82SOL    MW4  376   3.397   0.756   0.922  0.0339 -0.5963 -0.5417
   83SOL     OW  377   0.907   0.843   0.515  0.0608  0.1935 -0.1249
   83SOL    HW2  378   0.871   0.928   0.490 -0.2080 -0.1035 -0.7929
   83SOL    HW3  379   0.991   0.838   0.469 -0.7486 -0.6433 -1.5859
   83SOL    MW4  380   0.913   0.853   0.505 -0.0815  0.0439 -0.4059
   84SOL     OW  381   2.736   3.762   0.209 -0.3517  0.5454 -0.4713
   84SOL    HW2  382   2.691   3.846   0.218 -2.1041 -0.4337  0.2825
   84SOL    HW3  383   2.825   3.778   0.239 -1.3739  1.5389  2.1842
   84SOL    MW4  384   2.742   3.775   0.214 -0.7179  0.5472 -0.0215
   85SOL     OW  385   2.056   1.512   0.891  0.2661  0.1912  0.0443
   85SOL    HW2  386   1.984   1.546   0.838  0.6711 -1.0736 -1.3672
   85SOL    HW3  387   2.074   1.426   0.853  1.3687 -0.2332  1.4980
   85SOL    MW4  388   2.049   1.505   0.879  0.4647 -0.0317  0.0498
   86SOL     OW  389   0.211   0.046   0.439 -0.4303  0.2998  0.2255
   86SOL    HW2  390   0.168  -0.038   0.424 -0.9140  0.8947 -1.8996
   86SOL    HW3  391   0.144   0.101   0.480 -1.3361  0.8218 -1.8979
   86SOL    MW4  392   0.197   0.042   0.443 -0.6136  0.4471 -0.3350
   87SOL     OW  393   3.849   3.139   0.472  0.0277  0.0775  0.1503
   87SOL    HW2  394   3.769   3.186   0.496 -0.3018 -0.0220 -0.7048
   87SOL    HW3  395   3.832   3.048   0.499  0.4082  0.3223  1.2203
   87SOL    MW4  396   3.836   3.133   0.479  0.0343  0.0966  0.1787
   88SOL     OW  397   3.733   1.619   0.448 -0.2821 -0.2175 -0.1150
   88SOL    HW2  398   3.702   1.693   0.396  2.1054  1.0015  0.1143
   88SOL    HW3  399   3.694   1.633   0.535  0.0385  0.7029 -0.1081
   88SOL    MW4  400   3.724   1.631   0.453  0.0749  0.0648 -0.0839
   89SOL     OW  401   0.893   2.598   0.396 -0.4475  0.2964 -0.0762
   89SOL    HW2  402   0.918   2.507   0.384 -0.9697  0.2652 -0.9738
   89SOL    HW3  403   0.804   2.594   0.429 -0.1953  0.4710  0.6424
   89SOL    MW4  404   0.885   2.586   0.399 -0.4832  0.3152 -0.0999
   90SOL     OW  405   0.477   2.793   0.837  0.1016 -0.0642  0.1002
   90SOL    HW2  406   0.525   2.840   0.769  0.5835 -1.4003 -0.5086
   90SOL    HW3  407   0.385   2.801   0.811 -0.0584  2.4841  1.2587
   90SOL    MW4  408   0.471   2.800   0.824  0.1441  0.0958  0.1727
   91SOL     OW  409   3.778   1.149   0.488 -0.0214 -0.2187 -0.0836
   91SOL    HW2  410   3.750   1.219   0.429 -1.5229 -0.7455 -0.0043
   91SOL    HW3  411   3.776   1.188   0.575 -0.5939 -0.2817 -0.0693
   91SOL    MW4  412   3.774   1.163   0.492 -0.2952 -0.2966 -0.0713
   92SOL     OW  413   3.188   2.549   0.488  0.2933  0.3660  0.1281
   92SOL    HW2  414   3.106   2.597   0.474  0.4918  0.8683  0.6408
   92SOL    HW3  415   3.168   2.486   0.557  0.0868 -0.1555 -0.4042
   92SOL    MW4  416   3.175   2.547   0.495  0.2923  0.3633  0.1255
   93SOL     OW  417   4.215   1.775   0.378 -0.5459 -0.2474 -0.1895
   93SOL    HW2  418   4.141   1.718   0.400 -0.5993  0.4443  1.5050
   93SOL    HW3  419   4.292   1.719   0.387 -0.7477 -0.5905 -0.5683
   93SOL    MW4  420   4.216   1.760   0.382 -0.5798 -0.2012 -0.0159
   94SOL     OW  421   3.854   1.244   0.783  0.3069 -0.6040 -0.2826
   94SOL    HW2  422   3.769   1.207   0.807  0.4921 -1.2598 -0.6047
   94SOL    HW3  423   3.853   1.332   0.819 -1.0636 -0.0911 -1.4807
   94SOL    MW4  424   3.843   1.250   0.791  0.1502 -0.6227 -0.4832
   95SOL     OW  425   0.493   4.105   0.515 -0.3492  0.1334 -0.5288
   95SOL    HW2  426   0.441   4.185   0.514 -1.8043 -0.7668  1.2465
   95SOL    HW3  427   0.580   4.133   0.486 -0.8069  2.3749  0.1624
   95SOL    MW4  428   0.498   4.120   0.511 -0.6016  0.3109 -0.2034
   96SOL     OW  429   2.498   1.523   0.838 -0.0083 -0.3680  0.2377
   96SOL    HW2  430   2.428   1.587   0.827  1.1254  1.0495  1.0736
   96SOL    HW3  431   2.577   1.568   0.808  0.9338 -1.1077  1.5553
   96SOL    MW4  432   2.499   1.537   0.832  0.2656 -0.2786  0.5219
   97SOL     OW  433   1.860   3.260   0.560  0.3282  0.4201  0.0789
   97SOL    HW2  434   1.921   3.307   0.502 -0.6492  0.6070 -0.8148
   97SOL    HW3  435   1.854   3.172   0.522  0.5686  0.1967  0.5600
   97SOL    MW4  436   1.868   3.255   0.547  0.2308  0.4153  0.0246
   98SOL     OW  437   1.948   3.666   0.446  0.2130  0.1908  0.3249
   98SOL    HW2  438   1.984   3.747   0.411 -0.4301  0.7971  1.0640
   98SOL    HW3  439   1.856   3.686   0.463  0.3684 -0.2942  1.7715
   98SOL    MW4  440   1.940   3.679   0.443  0.1487  0.2067  0.6132
   99SOL     OW  441   0.249   3.109   0.828  0.4071  0.3334 -0.3606
   99SOL    HW2  442   0.255   3.104   0.924  0.3593  1.8139 -0.2752
   99SOL    HW3  443   0.339   3.119   0.799  0.5502 -1.3235 -0.5688
   99SOL    MW4  444   0.262   3.109   0.837  0.4197  0.3102 -0.3768
  100SOL     OW  445   3.405   4.390   0.506  0.4236  0.0281  0.0297
  100SOL    HW2  446   3.408   4.388   0.602  1.5139 -1.8809 -0.0101
  100SOL    HW3  447   3.468   4.457   0.481  2.7898 -1.9024  0.6018
  100SOL    MW4  448   3.413   4.398   0.515  0.8798 -0.4783  0.1000
  101SOL     OW  449   0.166   2.227   0.352 -0.0218 -0.2324  0.3416
  101SOL    HW2  450   0.076   2.203   0.333  0.2047  0.1244 -1.2438
  101SOL    HW3  451   0.206   2.146   0.386 -0.8797 -0.4261  0.9098
  101SOL    MW4  452   0.159   2.213   0.354 -0.1051 -0.2112  0.2074
  102SOL     OW  453   3.123   4.362   0.430 -0.2499 -0.6093 -0.1526
  102SOL    HW2  454   3.118   4.430   0.363 -0.6980  0.8479  1.3324
  102SOL    HW3  455   3.217   4.350   0.444 -0.1836  0.5416  0.4120
  102SOL    MW4  456   3.135   4.370   0.423 -0.3002 -0.2656  0.1178
  103SOL     OW  457   1.569   3.893   0.865 -0.1022 -0.3672  0.0131
  103SOL    HW2  458   1.572   3.800   0.843  1.4452 -0.4395  0.4428
  103SOL    HW3  459   1.645   3.931   0.821 -0.4545  0.6132  0.2292
  103SOL    MW4  460   1.579   3.886   0.856  0.0553 -0.2475  0.0983
  104SOL     OW  461   2.944   3.610   0.726  0.1009  0.8365 -0.5866
  104SOL    HW2  462   2.914   3.602   0.636 -0.5669 -0.4509 -0.2751
  104SOL    HW3  463   2.871   3.576   0.778  1.7493 -1.5235  0.2554
  104SOL    MW4  464   2.930   3.604   0.721  0.2303  0.3550 -0.4344
  105SOL     OW  465   0.894   1.586   0.789 -0.3321 -0.2368  0.1687
  105SOL    HW2  466   0.877   1.673   0.826 -2.1833 -0.6980  0.4292
  105SOL    HW3  467   0.822   1.532   0.821 -0.6261 -1.2359 -2.1468
  105SOL    MW4  468   0.882   1.590   0.798 -0.6151 -0.4295 -0.1024
  106SOL     OW  469   3.402   2.834   0.752 -0.0054 -0.4318 -0.0209
  106SOL    HW2  470   3.413   2.923   0.788 -0.0993 -0.6156  0.4640
  106SOL    HW3  471   3.478   2.786   0.785 -1.3352 -1.2539  1.9500
  106SOL    MW4  472   3.413   2.840   0.761 -0.1934 -0.5646  0.3030
  107SOL     OW  473   0.376   1.576   0.478 -0.0792  0.1941  0.1799
  107SOL    HW2  474   0.437   1.633   0.524 -0.5499  1.9271 -1.3064
  107SOL    HW3  475   0.427   1.537   0.407  0.4231 -1.7993  1.6145
  107SOL    MW4  476   0.390   1.578   0.475 -0.0750  0.1597  0.1730
  108SOL     OW  477   0.487   1.633   0.797 -0.0447 -0.6640  0.3792
  108SOL    HW2  478   0.470   1.718   0.839 -2.3473 -0.0119 -1.7879
  108SOL    HW3  479   0.541   1.654   0.721 -0.6572 -1.1543 -0.1898
  108SOL    MW4  480   0.492   1.647   0.793 -0.4292 -0.6425  0.0182
  109SOL     OW  481   3.205   3.971   0.781 -0.1921  0.2770  0.2677
  109SOL    HW2  482   3.189   4.060   0.811 -0.6954  0.4307 -0.4436
  109SOL    HW3  483   3.123   3.925   0.799 -0.5565  0.4177 -1.0290
  109SOL    MW4  484   3.192   3.977   0.787 -0.3066  0.3159  0.0028
  110SOL     OW  485   4.376   3.878   0.699 -0.1332 -0.2133  0.1219
  110SOL    HW2  486   4.469   3.900   0.687 -0.4603  0.8126 -0.6270
  110SOL    HW3  487   4.374   3.782   0.699  0.8628 -0.2423 -0.4013
  110SOL    MW4  488   4.388   3.868   0.697 -0.0448 -0.0818 -0.0460
  111SOL     OW  489   1.584   1.245   0.504  0.1156 -0.1376  0.2006
  111SOL    HW2  490   1.563   1.246   0.597 -1.4838  0.1128 -0.1533
  111SOL    HW3  491   1.510   1.290   0.462  1.3730  0.7916 -1.0783
  111SOL    MW4  492   1.571   1.251   0.510  0.0705  0.0181 -0.0148
  112SOL     OW  493   0.896   1.090   0.918  0.3021  0.1170 -0.1073
  112SOL    HW2  494   0.983   1.121   0.897  0.0554  0.5963 -0.4279
  112SOL    HW3  495   0.889   1.005   0.874  0.1614  0.6469 -1.1168
  112SOL    MW4  496   0.906   1.083   0.909  0.2511  0.2502 -0.2828
  113SOL     OW  497   3.815   2.859   0.539  0.2473 -0.0630  0.0104
  113SOL    HW2  498   3.755   2.838   0.467 -2.0547  2.4464  1.1304
  113SOL    HW3  499   3.902   2.855   0.499 -0.9163  0.4032 -2.7036
  113SOL    MW4  500   3.818   2.856   0.524 -0.2098  0.3297 -0.1999
  114SOL     OW  501   1.826   1.106   0.806 -0.2669 -0.0847 -0.6269
  114SOL    HW2  502   1.869   1.021   0.798 -0.8510 -0.3367 -1.1157
  114SOL    HW3  503   1.896   1.169   0.790 -0.0082 -0.4834 -1.0785
  114SOL    MW4  504   1.841   1.103   0.803 -0.3097 -0.1705 -0.7510
  115SOL     OW  505   3.963   4.221   0.301 -0.0095 -0.3571  0.1269
  115SOL    HW2  506   3.940   4.314   0.306  0.2361 -0.2468 -0.6478
  115SOL    HW3  507   3.885   4.176   0.331 -0.2113  0.1004  0.2985
  115SOL    MW4  508   3.950   4.227   0.305 -0.0038 -0.2823  0.0474
  116SOL     OW  509   1.147   1.474   0.855  0.0190 -0.1318  0.5184
  116SOL    HW2  510   1.206   1.507   0.788  0.7302 -0.6450  0.8812
  116SOL    HW3  511   1.062   1.513   0.834  0.3272  0.0452 -0.4233
  116SOL    MW4  512   1.143   1.484   0.843  0.1534 -0.1761  0.4420
  117SOL     OW  513   1.084   0.192   0.445 -0.3386  0.4682  0.3247
  117SOL    HW2  514   1.061   0.279   0.479 -0.1529  0.5048  0.3536
  117SOL    HW3  515   1.178   0.184   0.460 -0.3204  0.3427  0.1396
  117SOL    MW4  516   1.093   0.203   0.451 -0.3119  0.4565  0.3041
  118SOL     OW  517   4.060   2.697   0.891 -0.1134  0.0468  0.1789
  118SOL    HW2  518   4.131   2.759   0.873 -0.1468  0.3923  1.2153
  118SOL    HW3  519   3.980   2.744   0.868 -0.2607  1.0155  2.5477
  118SOL    MW4  520   4.059   2.711   0.886 -0.1378  0.2203  0.6282
  119SOL     OW  521   2.418   1.918   0.332  0.4213  0.1268  0.4272
  119SOL    HW2  522   2.435   1.825   0.348  0.4974  0.1052  0.2268
  119SOL    HW3  523   2.323   1.923   0.319  0.6032 -0.1535 -1.0558
  119SOL    MW4  524   2.408   1.906   0.332  0.4551  0.0870  0.2051
  120SOL     OW  525   0.475   3.425   0.850  0.0795  0.4000  0.0086
  120SOL    HW2  526   0.461   3.434   0.944  1.1066  1.5880  0.0564
  120SOL    HW3  527   0.401   3.471   0.811 -0.0644  0.3561  0.2241
  120SOL    MW4  528   0.463   3.432   0.857  0.1960  0.5507  0.0434
  121SOL     OW  529   0.292   2.009   0.487 -0.2485  0.0506 -0.0818
  121SOL    HW2  530   0.382   2.008   0.518  0.3222  0.2154 -1.6848
  121SOL    HW3  531   0.276   1.920   0.457 -0.6402  0.0013  0.2784
  121SOL    MW4  532   0.302   1.997   0.487 -0.2249  0.0658 -0.2457
  122SOL     OW  533   0.063   1.394   0.397  0.3581  0.2252  0.0831
  122SOL    HW2  534   0.089   1.402   0.305  0.1922 -1.7317 -0.1510
  122SOL    HW3  535   0.140   1.356   0.440 -0.2601 -0.7233  0.3657
  122SOL    MW4  536   0.076   1.390   0.391  0.2546 -0.1583  0.0895
  123SOL     OW  537   2.729   0.362   0.883 -0.2616  0.4811  0.4979
  123SOL    HW2  538   2.803   0.418   0.857 -0.2277 -0.5168 -1.6424
  123SOL    HW3  539   2.737   0.355   0.978  1.2337  2.0207  0.5103
  123SOL    MW4  540   2.740   0.368   0.892 -0.0598  0.5526  0.2171
  124SOL     OW  541   3.738   4.073   0.334  0.2093  0.1398  0.4262
  124SOL    HW2  542   3.725   4.082   0.240  1.0759  1.0532  0.3835
  124SOL    HW3  543   3.651   4.083   0.372 -0.4969 -2.3730 -0.3982
  124SOL    MW4  544   3.725   4.075   0.326  0.2301 -0.0710  0.3117
  125SOL     OW  545   0.916   2.395   0.718 -0.6082  0.0938  0.3967
  125SOL    HW2  546   0.977   2.332   0.756 -0.0157  0.4191 -0.0193
  125SOL    HW3  547   0.830   2.366   0.750 -0.2570 -0.4286  0.8907
  125SOL    MW4  548   0.912   2.383   0.728 -0.4836  0.0679  0.4070
  126SOL     OW  549   2.925   1.529   1.078 -0.1898  0.0326  0.0551
  126SOL    HW2  550   3.014   1.557   1.099  0.0824 -1.2823  0.6817
  126SOL    HW3  551   2.922   1.530   0.982  0.2110  0.9445  0.0447
  126SOL    MW4  552   2.937   1.533   1.068 -0.1011 -0.0205  0.1364
  127SOL     OW  553   2.492   4.643   0.879  0.4051  0.0665 -0.3178
  127SOL    HW2  554   2.463   4.554   0.860  0.1270  0.0799  0.0407
  127SOL    HW3  555   2.484   4.651   0.974  0.4821  0.4534 -0.3449
  127SOL    MW4  556   2.487   4.632   0.889  0.3788  0.1192 -0.2740
  128SOL     OW  557   2.717   1.149   0.834 -0.5877  0.1382 -0.0912
  128SOL    HW2  558   2.700   1.058   0.810 -1.8282  0.2902  0.1919
  128SOL    HW3  559   2.642   1.198   0.800 -0.6526  0.8451  1.0385
  128SOL    MW4  560   2.705   1.144   0.827 -0.7601  0.2517  0.0952
  129SOL     OW  561   2.027   2.313   0.761 -0.0505  0.3047  0.0855
  129SOL    HW2  562   2.111   2.355   0.741 -0.1102  0.3264 -0.1191
  129SOL    HW3  563   2.020   2.318   0.856  0.6665 -0.6246  0.1936
  129SOL    MW4  564   2.037   2.320   0.771  0.0360  0.1848  0.0728
  130SOL     OW  565   1.423   2.712   0.559 -0.1456 -0.3112 -0.0605
  130SOL    HW2  566   1.500   2.762   0.585 -0.8758  1.0864 -0.5519
  130SOL    HW3  567   1.398   2.664   0.638  0.8283 -0.2682  0.2819
  130SOL    MW4  568   1.430   2.712   0.573 -0.1134 -0.1214 -0.0802
  131SOL     OW  569   4.075   1.622   0.754 -0.7718 -0.1279  0.1487
  131SOL    HW2  570   4.142   1.574   0.802 -0.8756 -0.0075  0.4127
  131SOL    HW3  571   4.093   1.714   0.772 -0.7166 -0.0740 -0.1679
  131SOL    MW4  572   4.086   1.627   0.763 -0.7782 -0.1049  0.1417
  132SOL     OW  573   4.321   1.241   0.778  0.0934  0.4893 -0.3519
  132SOL    HW2  574   4.336   1.239   0.683 -0.1308 -0.6789 -0.3725
  132SOL    HW3  575   4.231   1.210   0.788  0.9361 -1.7555  0.4084
  132SOL    MW4  576   4.311   1.237   0.767  0.1755  0.0391 -0.2543
  133SOL     OW  577   3.351   0.012   0.207 -0.4214 -0.0774  0.2653
  133SOL    HW2  578   3.377   0.006   0.116  0.1406  1.1030  0.3303
  133SOL    HW3  579   3.416  -0.039   0.255 -1.7238 -2.1602 -0.1517
  133SOL    MW4  580   3.363   0.005   0.202 -0.5190 -0.1965  0.2189
  134SOL     OW  581   4.404   0.934   0.536  0.0731  0.3426 -0.1535
  134SOL    HW2  582   4.318   0.907   0.502 -0.2231 -0.0064  0.8550
  134SOL    HW3  583   4.398   1.030   0.541  0.5338  0.4907 -2.1657
  134SOL    MW4  584   4.392   0.943   0.532  0.0949  0.3161 -0.2860
  135SOL     OW  585   0.457   0.897   0.753 -0.0555  0.2327 -0.0465
  135SOL    HW2  586   0.462   0.972   0.811 -1.0246 -0.7235  1.3103
  135SOL    HW3  587   0.381   0.847   0.784  0.5159 -1.2559 -0.9749
  135SOL    MW4  588   0.447   0.900   0.764 -0.1080 -0.0899  0.0100
  136SOL     OW  589   2.948   0.488   0.766  0.0966 -0.0204  0.6448
  136SOL    HW2  590   2.953   0.580   0.792  0.1470  0.5109 -1.1605
  136SOL    HW3  591   3.032   0.451   0.792  0.1309  0.4703  1.2460
  136SOL    MW4  592   2.960   0.496   0.773  0.1078  0.1145  0.4859
  137SOL     OW  593   0.723   0.437   0.512 -0.3521 -0.1152  0.0589
  137SOL    HW2  594   0.685   0.464   0.596 -0.0104 -1.0853  0.5443
  137SOL    HW3  595   0.713   0.513   0.455 -2.4077 -0.1245  0.3643
  137SOL    MW4  596   0.717   0.450   0.516 -0.5782 -0.2444  0.1633
  138SOL     OW  597   1.056   4.432   0.510  0.0780 -0.2239  0.0068
  138SOL    HW2  598   1.006   4.514   0.506 -0.8960 -0.8394 -0.6965
  138SOL    HW3  599   1.143   4.457   0.478 -0.6810  0.2068 -1.7982
  138SOL    MW4  600   1.061   4.446   0.505 -0.1507 -0.2480 -0.3241
  139SOL     OW  601   1.363   1.599   0.746  0.1974 -0.3501 -0.3683
  139SOL    HW2  602   1.370   1.692   0.769  0.1084 -0.4484  0.0714
  139SOL    HW3  603   1.436   1.558   0.791  1.2923 -0.2412 -2.0002
  139SOL    MW4  604   1.374   1.606   0.755  0.3301 -0.3488 -0.5256
  140SOL     OW  605   3.429   3.565   0.748  0.4783  0.3827  0.2992
  140SOL    HW2  606   3.345   3.543   0.789 -0.6482  2.5144 -0.8028
  140SOL    HW3  607   3.446   3.655   0.774  1.8203  0.3793 -0.5171
  140SOL    MW4  608   3.420   3.574   0.757  0.5069  0.6635  0.0461
  141SOL     OW  609   3.146   3.184   0.775  0.1495  0.6044 -0.0753
  141SOL    HW2  610   3.215   3.131   0.814 -0.7933  0.2601  1.1445
  141SOL    HW3  611   3.065   3.136   0.792 -0.4405  1.1636 -1.2056
  141SOL    MW4  612   3.144   3.171   0.782 -0.0529  0.6328 -0.0635
  142SOL     OW  613   4.011   4.210   0.706  0.1730 -0.6036  0.4710
  142SOL    HW2  614   4.062   4.266   0.765 -0.4570 -0.5466  0.9667
  142SOL    HW3  615   4.071   4.190   0.634  0.6067  0.1768  0.6167
  142SOL    MW4  616   4.026   4.214   0.705  0.1473 -0.4926  0.5556
  143SOL     OW  617   4.386   2.180   0.306 -0.0209  0.1902  0.2334
  143SOL    HW2  618   4.402   2.110   0.243  0.2654  1.1483 -0.7704
  143SOL    HW3  619   4.325   2.142   0.369 -0.1669 -0.8330 -0.5169
  143SOL    MW4  620   4.380   2.166   0.306 -0.0024  0.1814  0.0020
  144SOL     OW  621   3.147   2.428   0.723  0.3621  0.2402  0.2015
  144SOL    HW2  622   3.160   2.515   0.761 -1.1287  0.3729  0.4218
  144SOL    HW3  623   3.069   2.394   0.766 -0.1860 -0.4168 -1.2876
  144SOL    MW4  624   3.139   2.435   0.734  0.0932  0.1712  0.0341
  145SOL     OW  625   4.132   4.367   0.901  0.0847 -0.0600  0.1571
  145SOL    HW2  626   4.149   4.453   0.863  0.5492  0.7655  2.1653
  145SOL    HW3  627   4.215   4.319   0.890 -0.1548 -0.2371 -0.9041
  145SOL    MW4  628   4.146   4.372   0.895  0.1149  0.0257  0.2820
  146SOL     OW  629   3.298   1.073   0.396 -0.3620  0.4381  0.0295
  146SOL    HW2  630   3.338   0.985   0.398  0.9005  1.0188  1.4047
  146SOL    HW3  631   3.211   1.060   0.433 -0.4032 -0.3509 -0.3267
  146SOL    MW4  632   3.292   1.060   0.402 -0.2007  0.4106  0.1639
  147SOL     OW  633   3.964   2.390   0.533 -0.5070  0.0986 -0.5315
  147SOL    HW2  634   4.020   2.428   0.601 -0.9925  0.5820 -0.4075
  147SOL    HW3  635   3.879   2.433   0.544 -0.4268  0.6027 -1.8125
  147SOL    MW4  636   3.960   2.400   0.543 -0.5608  0.2289 -0.6841
  148SOL     OW  637   1.347   0.860   0.728  0.2640 -0.5015 -0.1860
  148SOL    HW2  638   1.307   0.882   0.644 -0.4782 -0.2533  0.2269
  148SOL    HW3  639   1.276   0.821   0.779  0.1729  1.2254  1.0639
  148SOL    MW4  640   1.333   0.858   0.724  0.1541 -0.2409  0.0334
  149SOL     OW  641   1.346   0.098   0.772  0.0096  0.2366 -0.1426
  149SOL    HW2  642   1.419   0.051   0.812 -0.1701 -1.1344 -1.3722
  149SOL    HW3  643   1.268   0.055   0.807 -0.1841  0.7359  0.0402
  149SOL    MW4  644   1.345   0.086   0.782 -0.0396  0.1216 -0.2808
  150SOL     OW  645   3.335   3.653   0.451 -0.0103 -0.4527  0.1239
  150SOL    HW2  646   3.335   3.627   0.544  0.3946  0.8251  0.4955
  150SOL    HW3  647   3.315   3.747   0.453 -2.0601 -0.8452 -1.2192
  150SOL    MW4  648   3.332   3.662   0.464 -0.2272 -0.3357 -0.0043
  151SOL     OW  649   2.335   1.263   0.477 -0.6464 -0.2399 -0.7522
  151SOL    HW2  650   2.250   1.307   0.478 -0.6487 -0.2533 -0.2011
  151SOL    HW3  651   2.313   1.171   0.491 -0.3807  0.0305  1.5101
  151SOL    MW4  652   2.321   1.256   0.479 -0.6118 -0.2060 -0.3810
  152SOL     OW  653   0.313   3.781   0.877 -0.2202 -0.2411  0.1889
  152SOL    HW2  654   0.398   3.820   0.857 -0.5254  0.3482  0.0523
  152SOL    HW3  655   0.298   3.801   0.969 -0.3840 -0.0287  0.1150
  152SOL    MW4  656   0.322   3.789   0.887 -0.2821 -0.1354  0.1612
  153SOL     OW  657   2.706   2.768   0.138  0.3887 -0.2968  0.3686
  153SOL    HW2  658   2.670   2.827   0.072  0.5872  1.0523  1.4568
  153SOL    HW3  659   2.791   2.806   0.161 -0.8000  0.7195  3.2952
  153SOL    MW4  660   2.713   2.781   0.132  0.2580  0.0153  0.8983
  154SOL     OW  661   1.809   1.685   0.478 -0.0149 -0.1897  0.1393
  154SOL    HW2  662   1.734   1.743   0.466  0.0576 -0.3411 -1.1583
  154SOL    HW3  663   1.880   1.729   0.429  0.3449 -0.7875  0.1246
  154SOL    MW4  664   1.809   1.699   0.470  0.0421 -0.2887 -0.0339
  155SOL     OW  665   2.931   2.306   0.856  0.1808  0.1076 -0.3391
  155SOL    HW2  666   2.847   2.333   0.820 -0.1277 -0.5006 -0.0779
  155SOL    HW3  667   2.922   2.319   0.951  0.3929  0.0890 -0.3162
  155SOL    MW4  668   2.919   2.311   0.864  0.1681  0.0246 -0.3017
  156SOL     OW  669   3.852   2.282   0.890 -0.0866 -0.3142 -0.1977
  156SOL    HW2  670   3.845   2.288   0.985 -0.0138  0.6821 -0.2518
  156SOL    HW3  671   3.770   2.317   0.857 -0.1780 -0.8100 -0.4992
  156SOL    MW4  672   3.841   2.288   0.898 -0.0889 -0.2484 -0.2446
  157SOL     OW  673   1.545   3.077   0.805 -0.8478 -0.1085 -0.0983
  157SOL    HW2  674   1.486   3.149   0.781  0.6717  1.1456 -0.2058
  157SOL    HW3  675   1.550   3.082   0.900 -0.1748  0.4130 -0.1546
  157SOL    MW4  676   1.538   3.087   0.814 -0.5585  0.1256 -0.1199
  158SOL     OW  677   3.781   4.387   0.701 -0.2296  0.3488 -0.3543
  158SOL    HW2  678   3.778   4.457   0.766 -1.6919 -0.6834  0.7414
  158SOL    HW3  679   3.862   4.340   0.720 -1.0462 -0.4502  1.3019
  158SOL    MW4  680   3.791   4.390   0.712 -0.5302  0.1073  0.0089
  159SOL     OW  681   2.266   2.441   0.457 -0.6315  0.1172 -0.1490
  159SOL    HW2  682   2.271   2.530   0.423  0.9786 -0.1042 -0.5399
  159SOL    HW3  683   2.248   2.452   0.550  1.4960  0.9311  0.1959
  159SOL    MW4  684   2.264   2.454   0.465 -0.1385  0.1957 -0.1550
  160SOL     OW  685   3.002   4.089   0.392  0.0429 -0.0953 -0.1135
  160SOL    HW2  686   3.081   4.049   0.427 -0.7896  0.5709  2.6086
  160SOL    HW3  687   3.023   4.181   0.382  0.7537 -0.5144 -2.8633
  160SOL    MW4  688   3.015   4.096   0.395  0.0267 -0.0625 -0.1172
  161SOL     OW  689   3.674   1.358   0.345 -0.6242  0.1940  0.2272
  161SOL    HW2  690   3.705   1.445   0.372 -1.9023  1.5483 -2.4160
  161SOL    HW3  691   3.586   1.352   0.381 -0.4975 -0.0540  0.4968
  161SOL    MW4  692   3.667   1.369   0.353 -0.7761  0.3400 -0.0859
  162SOL     OW  693   3.644   1.632   0.697  0.1460  0.1937  0.2157
  162SOL    HW2  694   3.564   1.583   0.717  0.4439 -0.4540 -0.1660
  162SOL    HW3  695   3.632   1.716   0.741 -0.5550 -0.0625  0.5245
  162SOL    MW4  696   3.632   1.637   0.706  0.0930  0.0744  0.2061
  163SOL     OW  697   2.235   4.255   0.509 -0.2075  0.2196  0.0078
  163SOL    HW2  698   2.330   4.256   0.508 -0.1463 -2.5736 -0.6575
  163SOL    HW3  699   2.212   4.203   0.586 -1.1481 -0.2656 -0.5883
  163SOL    MW4  700   2.244   4.248   0.519 -0.3235 -0.2127 -0.1586
  164SOL     OW  701   3.609   0.156   0.521  0.6637  0.6311 -0.0023
  164SOL    HW2  702   3.524   0.191   0.495  0.0136  0.5814  1.9924
  164SOL    HW3  703   3.663   0.233   0.537  0.6449  0.6776 -0.1671
  164SOL    MW4  704   3.605   0.171   0.520  0.5753  0.6307  0.2391
  165SOL     OW  705   4.452   2.558   0.498  0.0705 -0.1583  0.0432
  165SOL    HW2  706   4.389   2.501   0.454  0.8606 -1.3614  0.4588
  165SOL    HW3  707   4.412   2.645   0.492 -0.4836 -0.5039 -1.8542
  165SOL    MW4  708   4.438   2.562   0.491  0.1016 -0.3626 -0.1523
  166SOL     OW  709   0.617   0.473   0.764  0.3513  0.1963  0.0546
  166SOL    HW2  710   0.546   0.421   0.801  1.1787 -0.9382  0.0708
  166SOL    HW3  711   0.695   0.443   0.810  0.7678  1.9015  0.5153
  166SOL    MW4  712   0.618   0.462   0.775  0.5155  0.2716  0.1175
  167SOL     OW  713   3.548   4.019   0.709 -0.4421 -0.6785 -0.4000
  167SOL    HW2  714   3.525   3.943   0.762 -1.1223 -1.3359 -1.6023
  167SOL    HW3  715   3.643   4.013   0.697 -0.1814 -0.1323  1.3071
  167SOL    MW4  716   3.558   4.008   0.714 -0.4973 -0.6933 -0.3334
  168SOL     OW  717   0.008   2.710   0.861 -0.4848  0.1006 -0.2918
  168SOL    HW2  718   0.001   2.722   0.956  1.7819  1.2378 -0.2334
  168SOL    HW3  719  -0.002   2.616   0.848  0.7596 -0.2575  1.2425
  168SOL    MW4  720   0.006   2.699   0.872 -0.0216  0.2036 -0.0817
  169SOL     OW  721   0.688   0.698   0.385 -0.4424 -0.5355 -0.2491
  169SOL    HW2  722   0.761   0.735   0.434 -0.8591 -0.7367  0.5197
  169SOL    HW3  723   0.615   0.758   0.400 -0.9417 -1.3182  0.4763
  169SOL    MW4  724   0.688   0.711   0.393 -0.5633 -0.6653 -0.0519
  170SOL     OW  725   0.194   3.642   0.340 -0.1949 -0.2213 -0.0647
  170SOL    HW2  726   0.242   3.634   0.257 -1.7196  0.4816 -1.0465
  170SOL    HW3  727   0.243   3.707   0.390 -0.9879  1.7177 -1.7251
  170SOL    MW4  728   0.206   3.649   0.335 -0.5007  0.1276 -0.4133
  171SOL     OW  729   3.585   4.600   0.345  0.2154  0.1912  0.3776
  171SOL    HW2  730   3.599   4.681   0.394  3.0006 -1.0987  1.8718
  171SOL    HW3  731   3.671   4.557   0.346 -1.0898 -2.5644 -0.7403
  171SOL    MW4  732   3.598   4.605   0.352  0.4110 -0.3419  0.4273
  172SOL     OW  733   1.188   2.824   0.808 -0.3418  0.2816  0.2592
  172SOL    HW2  734   1.103   2.779   0.805 -0.6288  0.7772  0.8646
  172SOL    HW3  735   1.206   2.847   0.717  0.3498 -2.0527 -0.2279
  172SOL    MW4  736   1.179   2.821   0.796 -0.2885  0.0393  0.2748
  173SOL     OW  737   2.750   1.935   0.831 -0.2938 -0.2437  0.2469
  173SOL    HW2  738   2.827   1.987   0.809 -1.1259  0.9256  0.0517
  173SOL    HW3  739   2.746   1.938   0.927 -1.6882  2.0829  0.1505
  173SOL    MW4  740   2.759   1.942   0.841 -0.5872  0.2176  0.2084
  174SOL     OW  741   1.231   3.509   0.547  0.6677  0.2329  0.2717
  174SOL    HW2  742   1.212   3.587   0.495 -0.0582 -0.0620  0.0955
  174SOL    HW3  743   1.207   3.533   0.636  0.8961  0.3701  0.2977
  174SOL    MW4  744   1.226   3.523   0.552  0.6021  0.2122  0.2518
  175SOL     OW  745   1.548   2.294   0.799 -0.3563 -0.0740 -0.2537
  175SOL    HW2  746   1.622   2.344   0.765 -0.1170  0.5488  1.1513
  175SOL    HW3  747   1.472   2.350   0.784  0.0682  1.3378  2.4675
  175SOL    MW4  748   1.548   2.308   0.792 -0.2687  0.1945  0.2907
  176SOL     OW  749   3.593   3.476   0.363  0.0949 -0.7193  0.4777
  176SOL    HW2  750   3.513   3.521   0.387  0.2290 -0.3026  0.1495
  176SOL    HW3  751   3.663   3.535   0.389  0.2260  0.0699 -1.5681
  176SOL    MW4  752   3.592   3.490   0.370  0.1297 -0.5605  0.1645
  177SOL     OW  753   2.684   0.932   0.451  0.0510  0.0262  0.3031
  177SOL    HW2  754   2.746   0.872   0.410 -0.2522  0.4825 -0.8362
  177SOL    HW3  755   2.714   1.019   0.425 -0.1137  0.3256  1.1039
  177SOL    MW4  756   2.696   0.935   0.442 -0.0107  0.1259  0.2585
  178SOL     OW  757   1.152   2.102   0.372  0.0408  0.4188  0.3383
  178SOL    HW2  758   1.108   2.029   0.415  0.2885  0.2694  0.3415
  178SOL    HW3  759   1.238   2.068   0.348  0.3701  0.8699  0.8418
  178SOL    MW4  760   1.158   2.088   0.375  0.1168  0.4585  0.4051
  179SOL     OW  761   0.011   3.229   0.770  0.1841 -0.2812  0.4269
  179SOL    HW2  762   0.007   3.225   0.674  1.3474  2.5110  0.2011
  179SOL    HW3  763   0.094   3.186   0.792 -0.0534 -0.8694  0.1749
  179SOL    MW4  764   0.022   3.223   0.760  0.3061  0.0098  0.3638
  180SOL     OW  765   3.654   0.333   0.904  0.2447 -0.0264 -0.1741
  180SOL    HW2  766   3.653   0.316   0.998 -0.9927 -0.6896 -0.2920
  180SOL    HW3  767   3.577   0.387   0.888  0.2183 -0.2534 -0.8551
  180SOL    MW4  768   3.643   0.338   0.915  0.0777 -0.1439 -0.2795
  181SOL     OW  769   1.199   3.981   0.377 -0.3788  0.3419  0.0101
  181SOL    HW2  770   1.123   4.037   0.393  0.2819  0.3763  3.3537
  181SOL    HW3  771   1.169   3.893   0.400  0.1551  0.1545  0.0064
  181SOL    MW4  772   1.185   3.977   0.382 -0.2211  0.3216  0.4508
  182SOL     OW  773   0.738   3.054   0.881 -0.1866  0.0710  0.0351
  182SOL    HW2  774   0.747   2.977   0.824 -1.0876  0.5344 -0.7353
  182SOL    HW3  775   0.668   3.105   0.841 -0.1596  0.8809  1.0251
  182SOL    MW4  776   0.730   3.050   0.868 -0.3019  0.2389  0.0641
  183SOL     OW  777   1.546   4.304   0.507  0.0333  0.1783  0.3282
  183SOL    HW2  778   1.492   4.225   0.504  0.8532 -0.4185  1.0430
  183SOL    HW3  779   1.547   4.328   0.600 -1.4658  1.9145 -0.0752
  183SOL    MW4  780   1.539   4.297   0.519 -0.0563  0.3281  0.3693
  184SOL     OW  781   2.176   0.650   0.417  0.2498 -0.0114 -0.0626
  184SOL    HW2  782   2.261   0.693   0.420  0.0826  0.6923 -3.6151
  184SOL    HW3  783   2.113   0.722   0.407 -0.5360 -0.7070 -0.2260
  184SOL    MW4  784   2.179   0.665   0.416  0.1240 -0.0103 -0.5528
  185SOL     OW  785   3.409   2.023   0.742 -0.0263 -0.2388  0.1460
  185SOL    HW2  786   3.395   2.115   0.763 -0.1853 -0.2901  0.2652
  185SOL    HW3  787   3.416   2.021   0.647 -0.3148 -0.1437  0.1232
  185SOL    MW4  788   3.408   2.035   0.732 -0.0854 -0.2329  0.1587
  186SOL     OW  789   2.940   1.276   0.725 -0.2556 -0.1196 -0.5731
  186SOL    HW2  790   2.870   1.225   0.765 -1.7143  1.3369 -1.1741
  186SOL    HW3  791   3.021   1.239   0.760 -1.2054 -3.3406 -1.6191
  186SOL    MW4  792   2.941   1.265   0.735 -0.5736 -0.3524 -0.7904
  187SOL     OW  793   2.705   1.676   0.743 -0.1872 -0.2157 -0.2424
  187SOL    HW2  794   2.781   1.623   0.768  0.2786  0.2483 -0.6281
  187SOL    HW3  795   2.726   1.764   0.775 -0.0993  0.1337 -1.2151
  187SOL    MW4  796   2.718   1.680   0.750 -0.1142 -0.1084 -0.4216
  188SOL     OW  797   1.160   1.682   0.325  0.2785  0.0819  0.1320
  188SOL    HW2  798   1.111   1.756   0.361  0.2157 -0.4721  1.1914
  188SOL    HW3  799   1.237   1.674   0.381 -0.4495 -1.5743  0.9527
  188SOL    MW4  800   1.164   1.691   0.337  0.1742 -0.2097  0.3800
  189SOL     OW  801   0.251   1.254   0.851  0.0429  0.0838  0.0991
  189SOL    HW2  802   0.177   1.201   0.878  0.0451  0.3411  0.6300
  189SOL    HW3  803   0.258   1.241   0.757 -0.1019 -0.6640  0.1928
  189SOL    MW4  804   0.242   1.246   0.842  0.0241  0.0192  0.1816
  190SOL     OW  805   3.701   3.268   0.194 -0.6038 -0.0002 -0.0191
  190SOL    HW2  806   3.778   3.228   0.234 -1.8089 -0.7535  1.5580
  190SOL    HW3  807   3.684   3.346   0.247 -0.6968  0.3745 -0.5981
  190SOL    MW4  808   3.709   3.273   0.206 -0.7753 -0.0503  0.1126
  191SOL     OW  809   1.768   2.433   0.722 -0.4536 -0.0563  0.7908
  191SOL    HW2  810   1.847   2.379   0.728 -0.1975  0.1125 -0.7895
  191SOL    HW3  811   1.768   2.466   0.632 -1.9637  0.5024  0.9744
  191SOL    MW4  812   1.778   2.430   0.711 -0.6191  0.0401  0.6066
  192SOL     OW  813   4.423   0.433   0.444  0.6349 -0.2382  0.0412
  192SOL    HW2  814   4.418   0.404   0.353  0.3458 -2.1491  0.6538
  192SOL    HW3  815   4.336   0.468   0.463  0.0093 -1.8988  0.2620
  192SOL    MW4  816   4.411   0.434   0.434  0.5145 -0.7094  0.1512
  193SOL     OW  817   2.249   4.021   0.681  0.2404 -0.1441  0.3746
  193SOL    HW2  818   2.317   3.977   0.731  0.0387  1.5689  2.2137
  193SOL    HW3  819   2.171   3.966   0.692  0.9158 -1.2966 -0.4865
  193SOL    MW4  820   2.247   4.008   0.689  0.3026 -0.0701  0.5036
  194SOL     OW  821   1.504   2.300   0.338  0.2403  0.0587 -0.3248
  194SOL    HW2  822   1.430   2.317   0.396  0.5035 -0.8683  0.3053
  194SOL    HW3  823   1.536   2.386   0.312 -0.0274  0.4771  0.7266
  194SOL    MW4  824   1.499   2.313   0.342  0.2397 -0.0086 -0.1030
  195SOL     OW  825   3.177   1.894   0.832  0.0392 -0.5489 -0.8501
  195SOL    HW2  826   3.168   1.914   0.926 -0.9989 -0.4271 -0.9716
  195SOL    HW3  827   3.261   1.934   0.808 -0.3491  0.6554 -0.2825
  195SOL    MW4  828   3.187   1.902   0.841 -0.1490 -0.3738 -0.7913
  196SOL     OW  829   0.935   2.877   0.494  0.2389  0.2100  0.0272
  196SOL    HW2  830   0.918   2.798   0.443 -0.5989  1.3491 -1.5303
  196SOL    HW3  831   1.030   2.882   0.501  0.3128 -0.5916 -0.4200
  196SOL    MW4  832   0.945   2.867   0.488  0.1382  0.2544 -0.2373
  197SOL     OW  833   3.033   1.056   0.501  0.8579  0.0867  0.0355
  197SOL    HW2  834   2.979   1.095   0.432 -0.2840 -0.9961  0.2940
  197SOL    HW3  835   2.993   1.087   0.583  1.5941  0.5617  0.2134
  197SOL    MW4  836   3.021   1.065   0.503  0.8044  0.0064  0.0931
  198SOL     OW  837   4.470   0.378   0.896 -0.2178  0.3759 -0.1938
  198SOL    HW2  838   4.482   0.392   0.990 -0.8353  1.3682 -0.2551
  198SOL    HW3  839   4.475   0.283   0.885  0.0429  0.2683  0.8107
  198SOL    MW4  840   4.472   0.367   0.907 -0.2651  0.4926 -0.0694
  199SOL     OW  841   2.904   1.419   0.474 -0.2062  0.0431  0.3768
  199SOL    HW2  842   2.918   1.399   0.566  1.0619  1.7108  0.5713
  199SOL    HW3  843   2.839   1.488   0.473 -1.6871 -1.3330 -0.0958
  199SOL    MW4  844   2.898   1.425   0.486 -0.2341  0.0815  0.3401
  200SOL     OW  845   4.191   4.195   0.473  0.4847  0.0324 -0.0705
  200SOL    HW2  846   4.192   4.100   0.464 -1.4148  0.0543 -0.6887
  200SOL    HW3  847   4.140   4.226   0.398  0.3303  1.4795  0.6163
  200SOL    MW4  848   4.184   4.187   0.462  0.2141  0.2260 -0.0614
  201SOL     OW  849   1.859   2.995   0.469  0.5232  0.1272 -0.4147
  201SOL    HW2  850   1.917   2.919   0.470 -0.4522 -0.6347 -0.7261
  201SOL    HW3  851   1.792   2.973   0.404 -0.1280  0.9838 -0.0444
  201SOL    MW4  852   1.858   2.982   0.461  0.3086  0.1397 -0.4070
  202SOL     OW  853   3.865   3.604   0.775 -0.1510 -0.0052  0.0338
  202SOL    HW2  854   3.806   3.560   0.837  0.6454 -1.4174 -0.1841
  202SOL    HW3  855   3.868   3.695   0.805 -0.6921 -0.4170  1.3676
  202SOL    MW4  856   3.858   3.610   0.787 -0.1171 -0.2460  0.1810
  203SOL     OW  857   3.435   0.488   0.812  0.2552  0.3216 -0.1531
  203SOL    HW2  858   3.412   0.575   0.846 -1.0029  0.4927 -1.3807
  203SOL    HW3  859   3.357   0.435   0.828  0.2901 -0.0521 -1.2080
  203SOL    MW4  860   3.422   0.493   0.819  0.0939  0.2949 -0.4543
  204SOL     OW  861   1.585   3.643   0.772  0.1634  0.0157  0.0520
  204SOL    HW2  862   1.650   3.584   0.812 -1.2827 -0.7649  1.3178
  204SOL    HW3  863   1.610   3.647   0.680  0.5976 -2.1763  0.0438
  204SOL    MW4  864   1.597   3.635   0.765  0.0300 -0.3767  0.2179
  205SOL     OW  865   1.802   3.419   0.176 -0.0780 -0.3242  0.0649
  205SOL    HW2  866   1.841   3.412   0.089  0.4269  0.5159  0.2182
  205SOL    HW3  867   1.877   3.423   0.235 -0.4019  0.9500  0.3865
  205SOL    MW4  868   1.817   3.418   0.172 -0.0540 -0.0453  0.1276
  206SOL     OW  869   4.068   0.867   0.761  0.3658 -0.0433  0.4184
  206SOL    HW2  870   4.062   0.958   0.789  0.4704  0.6826 -1.8834
  206SOL    HW3  871   3.986   0.828   0.792 -0.9923  1.5457 -1.0682
  206SOL    MW4  872   4.056   0.874   0.769  0.2003  0.2621 -0.0814
  207SOL     OW  873   4.403   3.735   0.391 -0.0796 -0.2463 -0.0383
  207SOL    HW2  874   4.497   3.720   0.380  0.0468  0.5607 -0.1037
  207SOL    HW3  875   4.366   3.648   0.405  0.5514 -0.6657 -0.9425
  207SOL    MW4  876   4.411   3.722   0.391  0.0210 -0.1953 -0.1663
  208SOL     OW  877   3.818   3.604   0.499  0.1792  0.0084 -0.0243
  208SOL    HW2  878   3.826   3.595   0.594  0.7134 -1.1641 -0.1661
  208SOL    HW3  879   3.840   3.695   0.481 -0.8860  0.4965  1.0706
  208SOL    MW4  880   3.822   3.615   0.509  0.1092 -0.0818  0.1015
  209SOL     OW  881   2.014   4.646   0.928 -0.3032 -0.2452  0.8767
  209SOL    HW2  882   2.094   4.686   0.892 -0.3545 -0.7213  0.2425
  209SOL    HW3  883   1.943   4.699   0.894 -0.4785 -1.7600 -1.1877
  209SOL    MW4  884   2.015   4.658   0.919 -0.3331 -0.5079  0.5206
  210SOL     OW  885   4.460   0.114   0.800  0.2200  0.5492 -0.1127
  210SOL    HW2  886   4.376   0.076   0.824 -0.3879  1.9390 -0.0086
  210SOL    HW3  887   4.450   0.139   0.708  1.1335 -0.9326 -0.6323
  210SOL    MW4  888   4.448   0.113   0.791  0.2604  0.5371 -0.1675
  211SOL     OW  889   3.606   1.854   0.840 -0.1449  0.2353  0.1841
  211SOL    HW2  890   3.675   1.920   0.833 -1.9729  2.0961 -0.7061
  211SOL    HW3  891   3.528   1.897   0.805 -1.1012 -2.8370 -1.6452
  211SOL    MW4  892   3.605   1.869   0.834 -0.5124  0.0755 -0.1747
  212SOL     OW  893   4.037   1.073   0.419  0.1303 -0.0086 -0.0102
  212SOL    HW2  894   4.063   1.164   0.404 -0.4283  0.2136  0.3671
  212SOL    HW3  895   3.944   1.078   0.439  0.0058 -0.7070 -0.3985
  212SOL    MW4  896   4.029   1.086   0.419  0.0401 -0.0714 -0.0117
  213SOL     OW  897   2.476   1.657   0.355 -0.1835 -0.4038 -0.1011
  213SOL    HW2  898   2.452   1.577   0.310  0.3426 -0.5559 -0.1113
  213SOL    HW3  899   2.561   1.638   0.396  0.2217  0.3249 -0.5799
  213SOL    MW4  900   2.484   1.644   0.355 -0.0606 -0.3277 -0.1656
  214SOL     OW  901   4.317   2.810   0.512  0.0445  0.2234 -0.4527
  214SOL    HW2  902   4.386   2.870   0.483 -0.0815  1.2992  1.3534
  214SOL    HW3  903   4.295   2.841   0.601 -2.0834 -0.6888 -0.6381
  214SOL    MW4  904   4.323   2.822   0.520 -0.2527  0.2451 -0.2388
  215SOL     OW  905   2.506   0.754   0.867  0.0299  0.1760 -0.1556
  215SOL    HW2  906   2.424   0.791   0.835 -0.9032 -1.3165  0.4868
  215SOL    HW3  907   2.573   0.793   0.811 -1.1503  1.1174 -0.9279
  215SOL    MW4  908   2.504   0.764   0.855 -0.2489  0.1033 -0.1728
  216SOL     OW  909   1.084   0.510   0.821 -0.2959  0.3647  0.1696
  216SOL    HW2  910   1.095   0.602   0.842 -0.5792  0.4550 -0.0878
  216SOL    HW3  911   1.173   0.477   0.810 -0.2437  0.8999 -1.0299
  216SOL    MW4  912   1.097   0.518   0.822 -0.3264  0.4472 -0.0226
  217SOL     OW  913   3.619   2.253   0.359 -0.0256 -0.0009  0.2028
  217SOL    HW2  914   3.660   2.199   0.291 -0.1461 -0.6278  0.6268
  217SOL    HW3  915   3.600   2.193   0.430 -1.2620  0.3625  0.2015
  217SOL    MW4  916   3.622   2.238   0.359 -0.2046 -0.0358  0.2585
  218SOL     OW  917   3.332   1.503   0.333 -0.0204 -0.4275  0.0870
  218SOL    HW2  918   3.241   1.525   0.313  0.7402  1.7446 -1.2063
  218SOL    HW3  919   3.373   1.490   0.248  0.8611 -1.5012  0.6701
  218SOL    MW4  920   3.325   1.504   0.319  0.1962 -0.2826 -0.0067
  219SOL     OW  921   4.287   3.619   0.737 -0.2970 -0.1699 -0.4991
  219SOL    HW2  922   4.224   3.572   0.790  0.4308 -0.4300  0.1521
  219SOL    HW3  923   4.276   3.585   0.648  0.4810 -1.8528  0.0330
  219SOL    MW4  924   4.277   3.608   0.732 -0.0978 -0.4263 -0.3430
  220SOL     OW  925   2.230   4.206   0.897  0.3067  0.2168  0.0113
  220SOL    HW2  926   2.165   4.273   0.873  1.8299  1.2148 -1.3866
  220SOL    HW3  927   2.215   4.135   0.834  1.7456  1.2059 -1.4623
  220SOL    MW4  928   2.219   4.206   0.886  0.6976  0.4787 -0.3676
  221SOL     OW  929   0.249   0.746   0.846 -0.2482  0.0981 -0.1558
  221SOL    HW2  930   0.266   0.742   0.941 -0.7591 -0.1454 -0.0748
  221SOL    HW3  931   0.161   0.783   0.839 -0.4258 -0.3901 -0.5200
  221SOL    MW4  932   0.240   0.751   0.858 -0.3390  0.0016 -0.1932
  222SOL     OW  933   0.665   1.450   0.880 -0.2779  0.3051 -0.1479
  222SOL    HW2  934   0.598   1.516   0.864  0.6910  0.8288 -2.2897
  222SOL    HW3  935   0.673   1.445   0.975 -2.5171  1.0584  0.1076
  222SOL    MW4  936   0.657   1.458   0.890 -0.4454  0.4736 -0.3968
  223SOL     OW  937   0.658   2.006   0.809  0.4683  0.1987 -0.1932
  223SOL    HW2  938   0.657   2.099   0.832  0.0940 -0.0321  0.7305
  223SOL    HW3  939   0.581   1.969   0.852  0.9077 -0.6435 -0.1179
  223SOL    MW4  940   0.648   2.013   0.818  0.4768  0.0572 -0.0613
  224SOL     OW  941   1.376   1.868   0.834 -0.2037 -0.0292 -0.1059
  224SOL    HW2  942   1.284   1.888   0.817 -0.3450 -0.3892  0.2360
  224SOL    HW3  943   1.388   1.888   0.927  0.2904  0.8743 -0.3481
  224SOL    MW4  944   1.366   1.874   0.844 -0.1572  0.0424 -0.0927
  225SOL     OW  945   1.294   2.382   0.740  0.2824  0.2114  0.1762
  225SOL    HW2  946   1.292   2.374   0.645  2.2418 -0.2654  0.1509
  225SOL    HW3  947   1.295   2.477   0.755 -1.9551  0.3113 -0.1986
  225SOL    MW4  948   1.294   2.394   0.729  0.2458  0.1616  0.1234
  226SOL     OW  949   3.079   4.598   0.271 -0.5147  0.5909 -0.0619
  226SOL    HW2  950   3.054   4.667   0.333  0.4243  1.1668 -0.3124
  226SOL    HW3  951   3.163   4.627   0.236  0.0473 -0.8468  0.0641
  226SOL    MW4  952   3.086   4.611   0.275 -0.3166  0.4773 -0.0784
  227SOL     OW  953   0.667   2.199   0.348 -0.5425  0.1569 -0.1235
  227SOL    HW2  954   0.660   2.152   0.265 -1.5691  0.8238 -0.4423
  227SOL    HW3  955   0.753   2.240   0.346 -0.1070 -0.7681 -0.3476
  227SOL    MW4  956   0.677   2.198   0.337 -0.6205  0.1228 -0.1951
  228SOL     OW  957   2.240   3.334   0.487 -0.0637 -0.1494  0.4308
  228SOL    HW2  958   2.286   3.266   0.439 -0.3936 -0.1338  0.0903
  228SOL    HW3  959   2.299   3.409   0.485  0.2273 -0.3683  0.6624
  228SOL    MW4  960   2.254   3.335   0.480 -0.0689 -0.1760  0.4164
  229SOL     OW  961   3.817   2.025   0.797 -0.1749 -0.0389 -0.0172
  229SOL    HW2  962   3.828   2.115   0.828  1.1545 -0.2979  0.3005
  229SOL    HW3  963   3.793   2.035   0.705  0.1768  0.6392 -0.0433
  229SOL    MW4  964   3.815   2.038   0.789  0.0470  0.0165  0.0213
  230SOL     OW  965   2.837   1.939   0.490  0.7754 -0.1747  0.3675
  230SOL    HW2  966   2.886   1.982   0.561  0.4945 -0.6054  0.8196
  230SOL    HW3  967   2.752   1.982   0.491  1.2830  0.8910 -0.7142
  230SOL    MW4  968   2.832   1.951   0.500  0.8056 -0.0908  0.2844
  231SOL     OW  969   2.029   1.790   0.352 -0.2197 -0.2831  0.2972
  231SOL    HW2  970   2.008   1.880   0.378 -0.1362 -0.6179  1.5375
  231SOL    HW3  971   2.047   1.796   0.258  0.9698  1.2150  0.6032
  231SOL    MW4  972   2.028   1.803   0.343 -0.0515 -0.1296  0.5012
  232SOL     OW  973   2.057   3.912   0.329 -0.3504 -0.2508 -0.0206
  232SOL    HW2  974   2.084   3.971   0.259 -0.2667 -1.4775 -1.0355
  232SOL    HW3  975   1.982   3.956   0.369 -0.7578  0.1973 -1.2550
  232SOL    MW4  976   2.050   3.926   0.325 -0.3932 -0.3536 -0.3174
  233SOL     OW  977   1.595   4.387   0.769  0.3450  0.1549 -0.0602
  233SOL    HW2  978   1.587   4.475   0.806 -1.0720 -0.4107  1.0156
  233SOL    HW3  979   1.669   4.349   0.816 -0.2936  0.0849  0.9211
  233SOL    MW4  980   1.604   4.394   0.780  0.0738  0.0706  0.2112
  234SOL     OW  981   2.003   3.412   0.382 -0.4917  0.1671 -0.0667
  234SOL    HW2  982   2.088   3.390   0.421  0.0524  0.4380 -1.0847
  234SOL    HW3  983   1.998   3.507   0.386 -0.4633  0.1933 -0.5781
  234SOL    MW4  984   2.014   3.421   0.388 -0.4165  0.2062 -0.2685
  235SOL     OW  985   3.156   1.148   0.856  0.1054 -0.3600  0.0491
  235SOL    HW2  986   3.166   1.151   0.951  0.0546 -1.9827  0.1273
  235SOL    HW3  987   3.242   1.173   0.822  0.1775  0.0371  0.5318
  235SOL    MW4  988   3.169   1.152   0.864  0.1082 -0.5217  0.1231
  236SOL     OW  989   1.361   0.137   0.488 -0.4782  0.1388  0.1160
  236SOL    HW2  990   1.449   0.173   0.482  0.5203 -2.1241  0.6017
  236SOL    HW3  991   1.344   0.130   0.582 -1.1701  0.5578  0.0262
  236SOL    MW4  992   1.370   0.141   0.500 -0.4377 -0.1045  0.1682
  237SOL     OW  993   3.822   2.842   0.826 -0.5251  0.4389 -0.2665
  237SOL    HW2  994   3.754   2.785   0.861  0.1420  0.0920  0.4878
  237SOL    HW3  995   3.816   2.831   0.731  0.6637 -2.1982 -0.1119
  237SOL    MW4  996   3.812   2.833   0.818 -0.2804  0.0451 -0.1466
  238SOL     OW  997   0.588   1.751   0.570 -0.2202 -0.2186  0.0834
  238SOL    HW2  998   0.581   1.844   0.549  1.8172  0.1179  0.7299
  238SOL    HW3  999   0.666   1.722   0.523 -0.3957 -1.4066  0.5228
  238SOL    MW4 1000   0.597   1.760   0.561  0.0255 -0.3309  0.2266
  239SOL     OW 1001   1.130   4.418   0.798  0.3588 -0.2090 -0.1554
  239SOL    HW2 1002   1.114   4.407   0.704 -1.3719  0.9607 -0.0179
  239SOL    HW3 1003   1.079   4.349   0.840  0.0226  0.1335 -0.0006
  239SOL    MW4 1004   1.121   4.408   0.791  0.0862 -0.0100 -0.1168
  240SOL     OW 1005   3.835   1.505   0.844 -0.1125  0.0722 -0.4272
  240SOL    HW2 1006   3.918   1.545   0.815 -0.2428 -0.1130 -1.0768
  240SOL    HW3 1007   3.769   1.549   0.791 -0.4010  0.0228 -0.1028
  240SOL    MW4 1008   3.838   1.516   0.833 -0.1681  0.0412 -0.4700
  241SOL     OW 1009   2.455   3.598   0.733  0.3142  0.1721  0.1296
  241SOL    HW2 1010   2.383   3.546   0.768  0.7611 -0.6472 -0.1588
  241SOL    HW3 1011   2.441   3.597   0.638 -0.2945  1.5021  0.1949
  241SOL    MW4 1012   2.444   3.591   0.725  0.2928  0.2394  0.1002
  242SOL     OW 1013   0.159   3.938   0.695 -0.1034  0.1233 -0.0850
  242SOL    HW2 1014   0.201   3.884   0.762 -1.6118 -1.1180 -0.1205
  242SOL    HW3 1015   0.195   3.906   0.613 -0.3883 -0.2861 -0.0514
  242SOL    MW4 1016   0.169   3.927   0.693 -0.3400 -0.0944 -0.0853
  243SOL     OW 1017   2.810   1.183   0.345  0.0908 -0.3373 -0.0979
  243SOL    HW2 1018   2.845   1.262   0.386  0.0561 -0.2528 -0.2280
  243SOL    HW3 1019   2.848   1.183   0.257 -0.2719 -0.2213 -0.2531
  243SOL    MW4 1020   2.820   1.193   0.339  0.0384 -0.3110 -0.1355
  244SOL     OW 1021   3.476   4.127   0.435 -0.2889 -0.2371 -0.4539
  244SOL    HW2 1022   3.453   4.220   0.441 -0.5113 -0.2546 -1.0515
  244SOL    HW3 1023   3.488   4.100   0.526 -0.4956  0.3082 -0.2603
  244SOL    MW4 1024   3.475   4.136   0.448 -0.3452 -0.1678 -0.5071
  245SOL     OW 1025   1.817   2.703   0.811 -0.5214 -0.0542  0.5743
  245SOL    HW2 1026   1.795   2.614   0.784 -0.0060  0.2523 -0.8835
  245SOL    HW3 1027   1.756   2.758   0.763  1.1280  0.5700 -0.8467
  245SOL    MW4 1028   1.806   2.698   0.801 -0.2358  0.0687  0.1944
  246SOL     OW 1029   2.237   0.995   0.501  0.0679  0.2933  0.1747
  246SOL    HW2 1030   2.306   0.936   0.471 -1.0614 -1.1544  0.3580
  246SOL    HW3 1031   2.164   0.980   0.441 -0.0820  1.8555 -0.0625
  246SOL    MW4 1032   2.236   0.985   0.489 -0.1009  0.3084  0.1676
  247SOL     OW 1033   4.222   4.644   0.853  0.0971  0.1613  0.2139
  247SOL    HW2 1034   4.160   4.711   0.827 -0.8409 -0.3903  1.0050
  247SOL    HW3 1035   4.224   4.649   0.949  0.7015 -0.3390  0.2344
  247SOL    MW4 1036   4.214   4.654   0.863  0.0534  0.0219  0.3210
  248SOL     OW 1037   0.774   4.486   0.356 -0.2477  0.3748 -0.3737
  248SOL    HW2 1038   0.820   4.493   0.273  0.8441 -0.4657  0.1461
  248SOL    HW3 1039   0.823   4.543   0.415  0.1419 -0.5205  0.1797
  248SOL    MW4 1040   0.787   4.494   0.353 -0.0523  0.1459 -0.2321
  249SOL     OW 1041   1.332   1.371   0.428  0.2959  0.2391 -0.0151
  249SOL    HW2 1042   1.278   1.372   0.349  0.1580  2.5087  0.0744
  249SOL    HW3 1043   1.359   1.462   0.440  0.1322 -0.0260  2.6864
  249SOL    MW4 1044   1.328   1.383   0.419  0.2561  0.5038  0.3531
  250SOL     OW 1045   1.579   2.034   0.698 -0.0254 -0.2090  0.1247
  250SOL    HW2 1046   1.568   2.115   0.747 -0.2798 -0.3942  0.3793
  250SOL    HW3 1047   1.506   1.979   0.726 -0.3659 -0.1932 -0.7204
  250SOL    MW4 1048   1.568   2.037   0.708 -0.1040 -0.2315  0.0468
  251SOL     OW 1049   0.201   0.504   0.758  0.0872  0.6271  0.0116
  251SOL    HW2 1050   0.226   0.586   0.802  0.3605  0.0026  1.0219
  251SOL    HW3 1051   0.133   0.467   0.813 -1.1513  0.9356 -1.2754
  251SOL    MW4 1052   0.196   0.510   0.771 -0.0401  0.5854 -0.0250
  252SOL     OW 1053   2.171   4.154   0.253 -0.0205  0.3742 -0.3437
  252SOL    HW2 1054   2.101   4.208   0.217 -1.3807 -1.2190 -0.1052
  252SOL    HW3 1055   2.179   4.184   0.344  0.3392  1.2671 -0.6592
  252SOL    MW4 1056   2.163   4.165   0.261 -0.1526  0.2818 -0.3539
  253SOL     OW 1057   0.006   1.651   0.764  0.0941 -0.0314  0.4618
  253SOL    HW2 1058   0.083   1.604   0.796 -0.0330 -1.0591 -0.6710
  253SOL    HW3 1059  -0.068   1.596   0.792 -0.1062 -0.0785 -0.1581
  253SOL    MW4 1060   0.006   1.637   0.772  0.0509 -0.1732  0.2306
  254SOL     OW 1061   3.315   1.745   0.473 -0.0488 -0.1214  0.0365
  254SOL    HW2 1062   3.227   1.766   0.442 -0.1373 -1.6555 -0.8161
  254SOL    HW3 1063   3.337   1.663   0.429  1.1907 -0.5694  1.4385
  254SOL    MW4 1064   3.306   1.737   0.463  0.1030 -0.3830  0.1090
  255SOL     OW 1065   0.005   1.936   0.869  0.1921 -0.0706 -0.2119
  255SOL    HW2 1066   0.009   1.843   0.845 -0.1011  0.3843 -2.0773
  255SOL    HW3 1067   0.085   1.973   0.831  1.0286  0.1895  1.7403
  255SOL    MW4 1068   0.016   1.928   0.861  0.2638  0.0237 -0.2005
  256SOL     OW 1069   0.524   3.972   0.779  0.2808  0.2295 -0.0778
  256SOL    HW2 1070   0.534   4.061   0.813 -0.9684  0.4568 -0.2795
  256SOL    HW3 1071   0.501   3.984   0.687  0.0693 -0.3071 -0.0962
  256SOL    MW4 1072   0.522   3.985   0.771  0.0881  0.1886 -0.1069
  257SOL     OW 1073   4.489   2.445   0.749  0.0089 -0.2867  0.3237
  257SOL    HW2 1074   4.473   2.477   0.661 -1.0009  2.3490  1.4151
  257SOL    HW3 1075   4.573   2.398   0.743 -0.4580 -0.8645 -2.1699
  257SOL    MW4 1076   4.498   2.443   0.737 -0.1860 -0.0153  0.1388
  258SOL     OW 1077   4.275   2.845   0.812  0.2338  0.5146  0.6987
  258SOL    HW2 1078   4.294   2.936   0.838 -0.4964  0.9905 -0.4091
  258SOL    HW3 1079   4.354   2.797   0.835  0.1927  1.2091  2.3910
  258SOL    MW4 1080   4.288   2.851   0.819  0.1321  0.6688  0.7758
  259SOL     OW 1081   2.390   3.603   0.461  0.1262 -0.3719 -0.0999
  259SOL    HW2 1082   2.380   3.698   0.457  0.9403 -0.2972 -0.2715
  259SOL    HW3 1083   2.469   3.585   0.412 -0.6591 -1.2475 -1.0602
  259SOL    MW4 1084   2.399   3.613   0.454  0.1299 -0.4776 -0.2492
  260SOL     OW 1085   0.239   2.839   0.739 -0.3531  0.7260 -0.3210
  260SOL    HW2 1086   0.240   2.931   0.766  0.5452  0.1900  1.5243
  260SOL    HW3 1087   0.160   2.803   0.779  0.2066  0.2875  0.4004
  260SOL    MW4 1088   0.229   2.846   0.748 -0.1607  0.5972  0.0176
  261SOL     OW 1089   0.742   4.222   0.461  0.0953  0.4208 -0.2465
  261SOL    HW2 1090   0.825   4.180   0.439  0.9370  0.8482  1.9880
  261SOL    HW3 1091   0.747   4.309   0.421  0.0916 -0.0623 -1.3341
  261SOL    MW4 1092   0.754   4.228   0.453  0.2058  0.4134 -0.0952
  262SOL     OW 1093   2.594   3.996   0.311  0.1103  0.1737 -0.4242
  262SOL    HW2 1094   2.644   4.024   0.388  0.2508 -0.8766 -0.1227
  262SOL    HW3 1095   2.511   3.965   0.347  0.2128 -0.4079 -0.6836
  262SOL    MW4 1096   2.590   3.996   0.326  0.1426 -0.0417 -0.4187
  263SOL     OW 1097   0.886   0.845   0.778  0.0768 -0.2079 -0.0647
  263SOL    HW2 1098   0.891   0.836   0.683  0.9512  0.0056 -0.0385
  263SOL    HW3 1099   0.804   0.802   0.801 -0.1825 -0.1860 -0.9260
  263SOL    MW4 1100   0.876   0.838   0.768  0.1580 -0.1768 -0.1749
  264SOL     OW 1101   4.476   3.486   0.873  0.1080  0.0181 -0.2352
  264SOL    HW2 1102   4.408   3.531   0.824  0.3115 -0.0150 -0.5511
  264SOL    HW3 1103   4.476   3.397   0.838  2.1984  0.7467 -2.2199
  264SOL    MW4 1104   4.467   3.480   0.862  0.4107  0.1101 -0.5387
  265SOL     OW 1105   4.372   4.218   0.896 -0.1834  0.0776  0.0921
  265SOL    HW2 1106   4.418   4.223   0.980  0.8541 -0.0604 -0.4653
  265SOL    HW3 1107   4.317   4.139   0.904  0.0328 -0.0298  0.5709
  265SOL    MW4 1108   4.371   4.208   0.908 -0.0181  0.0453  0.0817
  266SOL     OW 1109   3.465   0.481   0.510  0.0895  0.3912  0.1554
  266SOL    HW2 1110   3.440   0.472   0.602  1.3006 -0.0958  0.4388
  266SOL    HW3 1111   3.421   0.409   0.466  1.7597 -1.0744  0.8185
  266SOL    MW4 1112   3.456   0.470   0.516  0.4694  0.1336  0.2803
  267SOL     OW 1113   2.948   2.695   0.458 -0.0308  0.2378 -0.3302
  267SOL    HW2 1114   2.865   2.655   0.433  0.2702 -0.4520 -0.2359
  267SOL    HW3 1115   2.964   2.762   0.391  0.0071 -0.5408 -1.1084
  267SOL    MW4 1116   2.939   2.699   0.446  0.0138  0.0439 -0.4205
  268SOL     OW 1117   4.038   2.749   0.428 -0.0650  0.0832 -0.5237
  268SOL    HW2 1118   4.032   2.657   0.454  0.3419  0.1650 -0.1504
  268SOL    HW3 1119   4.130   2.772   0.441 -0.6588  1.2570  1.7905
  268SOL    MW4 1120   4.049   2.740   0.433 -0.0896  0.2489 -0.1692
  269SOL     OW 1121   2.519   0.475   0.521 -0.4647 -0.0508  0.6268
  269SOL    HW2 1122   2.519   0.475   0.617 -0.2012  2.5628  0.6601
  269SOL    HW3 1123   2.611   0.479   0.497 -0.5948  0.9554  0.2905
  269SOL    MW4 1124   2.531   0.475   0.531 -0.4470  0.4268  0.5869
  270SOL     OW 1125   3.203   2.115   0.272  0.4748  0.3304 -0.3629
  270SOL    HW2 1126   3.129   2.115   0.210  1.0308 -0.1819 -1.0360
  270SOL    HW3 1127   3.213   2.206   0.298 -0.1682  0.4577 -0.5463
  270SOL    MW4 1128   3.194   2.127   0.267  0.4635  0.2792 -0.4759
  271SOL     OW 1129   1.105   0.009   0.881 -0.2843  0.0558 -0.1752
  271SOL    HW2 1130   1.032   0.055   0.839 -0.7345 -0.3589  0.1479
  271SOL    HW3 1131   1.094  -0.082   0.854 -2.0726 -0.6997  2.8741
  271SOL    MW4 1132   1.094   0.003   0.872 -0.5797 -0.0982  0.2698
  272SOL     OW 1133   3.086   1.877   0.370  0.3092  0.1461 -0.2024
  272SOL    HW2 1134   3.011   1.896   0.427  0.4720  0.1876 -0.0020
  272SOL    HW3 1135   3.120   1.964   0.346 -0.3057  0.1488 -1.0897
  272SOL    MW4 1136   3.080   1.891   0.375  0.2496  0.1520 -0.2930
  273SOL     OW 1137   0.650   0.725   0.871  0.0720  0.2408 -0.2603
  273SOL    HW2 1138   0.632   0.641   0.829 -1.6955 -0.3457  1.5506
  273SOL    HW3 1139   0.576   0.781   0.845  0.6600  0.8826 -0.5586
  273SOL    MW4 1140   0.638   0.722   0.862 -0.0837  0.2482 -0.0608
  274SOL     OW 1141   0.861   1.629   0.516 -0.0749 -0.4228 -0.1840
  274SOL    HW2 1142   0.874   1.613   0.609  1.0300  0.9170 -0.0884
  274SOL    HW3 1143   0.870   1.542   0.475 -0.9587 -1.0759  0.9757
  274SOL    MW4 1144   0.864   1.615   0.523 -0.0457 -0.3322 -0.0184
  275SOL     OW 1145   2.243   0.079   0.776  0.3977  0.1488 -0.1953
  275SOL    HW2 1146   2.332   0.056   0.803  0.2326 -0.1579  0.0910
  275SOL    HW3 1147   2.230   0.030   0.694  0.5070  0.2195 -0.2539
  275SOL    MW4 1148   2.253   0.069   0.769  0.3903  0.1176 -0.1653
  276SOL     OW 1149   2.214   2.729   0.316  0.0514 -0.0060  0.0936
  276SOL    HW2 1150   2.196   2.740   0.223 -0.1168 -0.7327  0.0326
  276SOL    HW3 1151   2.292   2.782   0.332  0.0377  0.1766 -0.4461
  276SOL    MW4 1152   2.222   2.737   0.306  0.0274 -0.0780  0.0144
  277SOL     OW 1153   0.726   1.213   0.726  0.6075  0.6703 -0.1447
  277SOL    HW2 1154   0.696   1.300   0.753 -2.1514 -0.4252  0.5198
  277SOL    HW3 1155   0.784   1.184   0.796 -1.6832  0.3626  1.6943
  277SOL    MW4 1156   0.730   1.221   0.739 -0.0587  0.4854  0.1857
  278SOL     OW 1157   0.234   1.536   0.884  0.1160 -0.3032 -0.1324
  278SOL    HW2 1158   0.234   1.442   0.865 -0.1407 -0.5034  0.8208
  278SOL    HW3 1159   0.317   1.567   0.848  0.3038 -0.9416 -0.2623
  278SOL    MW4 1160   0.245   1.527   0.877  0.1069 -0.4137 -0.0238
  279SOL     OW 1161   0.418   1.877   0.887  0.4621  0.2213  0.1259
  279SOL    HW2 1162   0.419   1.908   0.977 -0.5183 -0.1232  0.2598
  279SOL    HW3 1163   0.351   1.931   0.844  0.8702  0.3316 -0.3702
  279SOL    MW4 1164   0.409   1.888   0.893  0.3866  0.1903  0.0781
  280SOL     OW 1165   2.978   2.061   0.706 -0.0958  0.3125  0.5308
  280SOL    HW2 1166   2.981   2.147   0.748 -0.5267  1.0151 -0.8469
  280SOL    HW3 1167   3.050   2.012   0.746  0.8820  1.6969  0.4955
  280SOL    MW4 1168   2.988   2.066   0.717 -0.0236  0.5877  0.3444
  281SOL     OW 1169   3.954   3.853   0.872  0.0681 -0.6196 -0.7530
  281SOL    HW2 1170   4.038   3.896   0.887 -1.2311  1.7580 -0.1453
  281SOL    HW3 1171   3.907   3.911   0.812 -2.1232 -0.6323  0.8947
  281SOL    MW4 1172   3.959   3.866   0.866 -0.3924 -0.3078 -0.4555
  282SOL     OW 1173   2.451   4.364   0.825  0.0587  0.4367  0.3539
  282SOL    HW2 1174   2.385   4.298   0.850  1.0154  0.1132  2.1448
  282SOL    HW3 1175   2.481   4.336   0.739 -1.5112  0.0879 -0.1072
  282SOL    MW4 1176   2.446   4.352   0.817 -0.0222  0.3481  0.5294
  283SOL     OW 1177   1.515   0.977   0.410  0.2382  0.0361  0.1923
  283SOL    HW2 1178   1.581   0.935   0.466  1.9724  1.9533 -0.3358
  283SOL    HW3 1179   1.527   1.071   0.425 -2.1967  0.4425 -0.1609
  283SOL    MW4 1180   1.525   0.984   0.419  0.1457  0.3427  0.0761
  284SOL     OW 1181   0.504   3.156   0.754 -0.5122  0.3440  0.0504
  284SOL    HW2 1182   0.529   3.159   0.661  0.4547  1.4238  0.3315
  284SOL    HW3 1183   0.494   3.248   0.779  0.2088  0.0960  1.2770
  284SOL    MW4 1184   0.506   3.169   0.745 -0.2894  0.4537  0.2493
  285SOL     OW 1185   3.564   3.031   0.211  0.2659  0.0182 -0.0112
  285SOL    HW2 1186   3.543   3.024   0.118 -3.4535  0.3725  0.7042
  285SOL    HW3 1187   3.591   3.122   0.224 -0.3957  0.2962 -0.5586
  285SOL    MW4 1188   3.565   3.042   0.201 -0.3121  0.1018  0.0110
  286SOL     OW 1189   3.166   0.878   0.824  0.0675 -0.0558 -0.5551
  286SOL    HW2 1190   3.161   0.973   0.827 -0.1497 -0.0891  0.1988
  286SOL    HW3 1191   3.164   0.857   0.731 -1.7026  0.5847 -0.6714
  286SOL    MW4 1192   3.165   0.887   0.812 -0.1945  0.0243 -0.4709
  287SOL     OW 1193   0.838   3.645   0.378  0.2932 -0.0731 -0.2562
  287SOL    HW2 1194   0.897   3.624   0.306  1.6855  0.2079  0.7770
  287SOL    HW3 1195   0.844   3.570   0.437 -1.5614 -0.7215 -0.8740
  287SOL    MW4 1196   0.847   3.632   0.377  0.2322 -0.1218 -0.2014
  288SOL     OW 1197   0.693   3.574   0.759 -0.4835 -0.4312 -0.0715
  288SOL    HW2 1198   0.657   3.588   0.671  0.8754 -0.7363 -0.7070
  288SOL    HW3 1199   0.624   3.528   0.807 -0.9475 -0.9639 -1.2321
  288SOL    MW4 1200   0.679   3.569   0.754 -0.3654 -0.5419 -0.3085
  289SOL     OW 1201   0.759   3.844   0.844  0.2672 -0.2783 -0.8773
  289SOL    HW2 1202   0.687   3.899   0.814  0.0920 -0.3414 -0.5752
  289SOL    HW3 1203   0.744   3.759   0.802  0.0525 -0.3506 -0.6540
  289SOL    MW4 1204   0.748   3.840   0.834  0.2158 -0.2961 -0.8080
  290SOL     OW 1205   2.381   3.099   0.444 -0.3287  0.4330  0.3159
  290SOL    HW2 1206   2.462   3.151   0.445 -1.2958  1.9569  0.3194
  290SOL    HW3 1207   2.410   3.012   0.417  1.3014  0.9907  0.1603
  290SOL    MW4 1208   2.396   3.095   0.441 -0.2415  0.7074  0.2958
  291SOL     OW 1209   3.400   1.218   0.777  0.6960 -0.8913 -0.1718
  291SOL    HW2 1210   3.410   1.207   0.682  1.2031 -0.6790 -0.1439
  291SOL    HW3 1211   3.413   1.312   0.791  1.5643 -1.0717  0.2260
  291SOL    MW4 1212   3.403   1.229   0.766  0.8776 -0.8872 -0.1156
  292SOL     OW 1213   0.906   4.664   0.536 -0.0034  0.0796 -0.1851
  292SOL    HW2 1214   0.967   4.732   0.505  0.9784 -0.4700  0.5016
  292SOL    HW3 1215   0.887   4.689   0.627  1.7080 -1.4746  0.6282
  292SOL    MW4 1216   0.912   4.676   0.544  0.3520 -0.1980  0.0128
  293SOL     OW 1217   1.641   3.413   0.419  0.0724  0.4427  0.3674
  293SOL    HW2 1218   1.652   3.415   0.324 -0.8257  1.3651  0.2731
  293SOL    HW3 1219   1.716   3.363   0.451 -0.3186 -1.0217 -0.9228
  293SOL    MW4 1220   1.652   3.406   0.410 -0.0976  0.3712  0.1847
  294SOL     OW 1221   2.294   4.666   0.510 -0.1368 -0.0511  0.6362
  294SOL    HW2 1222   2.357   4.627   0.449 -0.2346  0.4323  0.2304
  294SOL    HW3 1223   2.212   4.671   0.461 -0.0047  1.1120  0.5287
  294SOL    MW4 1224   2.292   4.661   0.495 -0.1321  0.1661  0.5685
  295SOL     OW 1225   2.263   3.201   0.732  0.1303 -0.2921 -0.1768
  295SOL    HW2 1226   2.343   3.150   0.738  0.9564  0.6722 -2.3844
  295SOL    HW3 1227   2.252   3.218   0.639 -1.9961  0.6145  0.2047
  295SOL    MW4 1228   2.272   3.197   0.721 -0.0412 -0.0453 -0.4178
  296SOL     OW 1229   0.198   4.622   0.824 -0.3918  0.2904  0.0836
  296SOL    HW2 1230   0.202   4.590   0.914 -0.2514  0.4552  0.1361
  296SOL    HW3 1231   0.112   4.664   0.817 -0.7254 -0.4146 -0.0929
  296SOL    MW4 1232   0.187   4.623   0.835 -0.4173  0.2193  0.0672
  297SOL     OW 1233   2.297   0.297   0.556  0.3171 -0.1952 -0.2731
  297SOL    HW2 1234   2.321   0.210   0.525  2.2818 -0.3340  1.5042
  297SOL    HW3 1235   2.373   0.351   0.537  0.7542  0.1724  2.2820
  297SOL    MW4 1236   2.310   0.292   0.549  0.6340 -0.1649  0.2985
  298SOL     OW 1237   4.068   3.207   0.750 -0.2967 -0.1287  0.3696
  298SOL    HW2 1238   4.064   3.213   0.655  0.9932  0.5577  0.3314
  298SOL    HW3 1239   4.089   3.297   0.778 -2.0703 -0.0145  1.4027
  298SOL    MW4 1240   4.071   3.220   0.741 -0.3605 -0.0231  0.5009
  299SOL     OW 1241   3.424   2.000   0.448  0.0016 -0.1433  0.1736
  299SOL    HW2 1242   3.376   1.917   0.440  1.1704 -0.6912 -1.1994
  299SOL    HW3 1243   3.370   2.063   0.401  0.1143 -0.5448 -0.5009
  299SOL    MW4 1244   3.411   1.997   0.441  0.1709 -0.2686 -0.0965
  300SOL     OW 1245   4.440   0.167   0.535  0.3807 -0.1838 -0.0885
  300SOL    HW2 1246   4.418   0.255   0.505  0.9456 -0.2239 -0.6321
  300SOL    HW3 1247   4.375   0.111   0.494  0.6333 -0.1370 -0.5601
  300SOL    MW4 1248   4.429   0.172   0.526  0.4888 -0.1829 -0.2224
  301SOL     OW 1249   1.975   2.028   0.435 -0.3650 -0.3602 -0.5602
  301SOL    HW2 1250   1.884   2.058   0.442 -0.2919 -0.1891 -0.3365
  301SOL    HW3 1251   2.003   2.016   0.525 -0.2625 -0.7163 -0.6390
  301SOL    MW4 1252   1.966   2.031   0.447 -0.3418 -0.3848 -0.5411
  302SOL     OW 1253   1.889   0.183   0.502  0.0117  0.5892  0.2327
  302SOL    HW2 1254   1.939   0.262   0.483  0.9134 -0.1085 -0.3655
  302SOL    HW3 1255   1.939   0.112   0.460 -0.8443 -0.2775  0.6452
  302SOL    MW4 1256   1.902   0.184   0.494  0.0178  0.3828  0.2082
  303SOL     OW 1257   0.875   1.831   0.897  0.2555 -0.0281 -0.0926
  303SOL    HW2 1258   0.800   1.883   0.869 -0.8531 -0.2490  2.3302
  303SOL    HW3 1259   0.886   1.852   0.990  3.0499 -0.1887 -0.3385
  303SOL    MW4 1260   0.867   1.840   0.906  0.4779 -0.0784  0.1947
  304SOL     OW 1261   4.160   0.546   0.486  0.3457  0.0915 -0.1040
  304SOL    HW2 1262   4.142   0.640   0.480 -0.5331 -0.0154  0.8778
  304SOL    HW3 1263   4.197   0.534   0.574  1.5949 -0.3047 -0.6653
  304SOL    MW4 1264   4.163   0.557   0.497  0.3943  0.0251 -0.0485
  305SOL     OW 1265   3.079   1.590   0.323  0.1440 -0.4031 -0.0250
  305SOL    HW2 1266   3.017   1.543   0.379  0.4483 -0.4721  0.2494
  305SOL    HW3 1267   3.054   1.682   0.332  0.1089 -0.4267  0.1209
  305SOL    MW4 1268   3.067   1.596   0.331  0.1795 -0.4153  0.0305
  306SOL     OW 1269   2.720   4.016   0.765 -0.1483 -0.5686 -0.1456
  306SOL    HW2 1270   2.733   4.094   0.819  0.3520 -0.2225 -0.7517
  306SOL    HW3 1271   2.802   3.967   0.774  0.0865 -0.3200 -0.8835
  306SOL    MW4 1272   2.732   4.020   0.773 -0.0513 -0.4902 -0.3229
  307SOL     OW 1273   2.948   4.410   0.812 -0.1659  0.3102 -0.3568
  307SOL    HW2 1274   2.920   4.432   0.723 -1.5110  0.3045  0.0695
  307SOL    HW3 1275   2.871   4.371   0.853  0.6519 -0.3303  0.5993
  307SOL    MW4 1276   2.934   4.408   0.806 -0.2356  0.2246 -0.1743
  308SOL     OW 1277   2.887   0.723   0.464  0.8014 -0.3708 -0.0922
  308SOL    HW2 1278   2.865   0.633   0.486  0.0666 -0.3311 -0.6170
  308SOL    HW3 1279   2.972   0.739   0.505  0.3247 -0.8838  1.0941
  308SOL    MW4 1280   2.895   0.714   0.472  0.6416 -0.4333 -0.0049
  309SOL     OW 1281   0.226   2.317   0.823  0.1018 -0.1689  0.2325
  309SOL    HW2 1282   0.244   2.303   0.916  1.1899 -1.9160 -0.2039
  309SOL    HW3 1283   0.292   2.380   0.795  1.4526 -1.5970  0.1002
  309SOL    MW4 1284   0.237   2.323   0.831  0.4236 -0.5879  0.1575
  310SOL     OW 1285   0.962   3.193   0.782 -0.0175 -0.1182 -0.6744
  310SOL    HW2 1286   1.039   3.156   0.826 -0.7790 -2.3337 -1.1412
  310SOL    HW3 1287   0.888   3.148   0.822 -0.9368  0.4427 -1.7248
  310SOL    MW4 1288   0.962   3.182   0.793 -0.2393 -0.3366 -0.8746
  311SOL     OW 1289   0.916   3.458   0.900 -0.3062 -0.0854  0.0705
  311SOL    HW2 1290   0.944   3.388   0.842 -1.0737  0.1918 -0.6483
  311SOL    HW3 1291   0.828   3.482   0.868 -0.4058  0.6048  0.8448
  311SOL    MW4 1292   0.908   3.452   0.888 -0.4206  0.0424  0.0778
  312SOL     OW 1293   2.752   0.177   0.462  0.0527  0.0885 -0.0801
  312SOL    HW2 1294   2.739   0.102   0.404 -1.3027  0.4939 -0.3087
  312SOL    HW3 1295   2.705   0.154   0.542  0.5041  0.2557  0.2364
  312SOL    MW4 1296   2.744   0.164   0.465 -0.0668  0.1641 -0.0685
  313SOL     OW 1297   4.444   1.627   0.485  0.4268  0.5445  0.4780
  313SOL    HW2 1298   4.457   1.645   0.578 -0.8898 -1.3274  1.0613
  313SOL    HW3 1299   4.477   1.538   0.473 -0.7510  0.2213 -0.5093
  313SOL    MW4 1300   4.450   1.618   0.496  0.0982  0.2549  0.4247
  314SOL     OW 1301   2.716   2.707   0.808  0.5512 -0.0721 -0.6247
  314SOL    HW2 1302   2.629   2.713   0.770  1.1401  0.2183 -1.9569
  314SOL    HW3 1303   2.701   2.692   0.901 -0.9192  0.4612 -0.7662
  314SOL    MW4 1304   2.703   2.706   0.815  0.4351  0.0365 -0.8192
  315SOL     OW 1305   3.351   2.781   0.468 -0.1592 -0.5262 -0.0234
  315SOL    HW2 1306   3.306   2.698   0.481  0.9702 -1.0976  0.2917
  315SOL    HW3 1307   3.391   2.801   0.553 -1.8714  1.2254  0.4049
  315SOL    MW4 1308   3.351   2.773   0.481 -0.2360 -0.3707  0.0747
  316SOL     OW 1309   1.263   2.352   0.467  0.1505 -0.4464 -0.0450
  316SOL    HW2 1310   1.229   2.265   0.445  0.2425 -0.2906 -0.7996
  316SOL    HW3 1311   1.209   2.412   0.416  0.8041 -0.1262 -0.3615
  316SOL    MW4 1312   1.251   2.349   0.458  0.2489 -0.3836 -0.1864
  317SOL     OW 1313   0.644   2.642   0.502 -0.2753  0.4089  0.2199
  317SOL    HW2 1314   0.580   2.571   0.514  0.0140 -0.1392 -1.3719
  317SOL    HW3 1315   0.663   2.672   0.591  0.2674 -2.1046  1.0050
  317SOL    MW4 1316   0.638   2.636   0.515 -0.1655  0.0048  0.1135
  318SOL     OW 1317   0.185   0.836   0.423 -0.0237  0.0513  0.3809
  318SOL    HW2 1318   0.098   0.867   0.450 -0.3133 -0.2868 -0.1579
  318SOL    HW3 1319   0.174   0.741   0.414 -0.0629  0.2052 -1.3849
  318SOL    MW4 1320   0.172   0.828   0.425 -0.0671  0.0270  0.0768
  319SOL     OW 1321   0.848   3.140   0.543 -0.4942 -0.2292  0.3351
  319SOL    HW2 1322   0.881   3.058   0.506  1.2777  0.9688 -0.8345
  319SOL    HW3 1323   0.892   3.148   0.627 -0.4170 -0.3256  0.3049
  319SOL    MW4 1324   0.858   3.130   0.549 -0.2502 -0.0837  0.1768
  320SOL     OW 1325   4.117   1.334   0.375 -0.1610 -0.5018 -0.1220
  320SOL    HW2 1326   4.093   1.339   0.283  0.9182  0.0646 -0.3711
  320SOL    HW3 1327   4.108   1.424   0.407 -0.8533 -0.7523  0.4174
  320SOL    MW4 1328   4.112   1.346   0.367 -0.1101 -0.4601 -0.0837
  321SOL     OW 1329   0.372   4.355   0.480 -0.3034 -0.1357  0.5905
  321SOL    HW2 1330   0.332   4.354   0.567 -1.6418  1.8245  0.0164
  321SOL    HW3 1331   0.298   4.355   0.420  0.6143 -0.9555 -0.5518
  321SOL    MW4 1332   0.357   4.355   0.484 -0.3588  0.0148  0.3640
  322SOL     OW 1333   4.255   0.706   0.890 -0.2823  0.0713 -0.3199
  322SOL    HW2 1334   4.184   0.754   0.847  0.1264  1.6498  0.7037
  322SOL    HW3 1335   4.334   0.756   0.869 -0.0214  0.5932  1.8340
  322SOL    MW4 1336   4.256   0.719   0.882 -0.1941  0.3484  0.0994
  323SOL     OW 1337   0.920   4.241   0.858  0.2524  0.0187  0.4472
  323SOL    HW2 1338   0.944   4.176   0.792  1.2488  0.3436  0.4807
  323SOL    HW3 1339   0.840   4.281   0.824  0.5310 -0.1019 -0.3645
  323SOL    MW4 1340   0.912   4.238   0.844  0.4206  0.0458  0.3446
  324SOL     OW 1341   1.103   2.229   0.854 -0.7230 -0.4503  0.1288
  324SOL    HW2 1342   1.168   2.274   0.800 -0.3578 -0.5338  0.4911
  324SOL    HW3 1343   1.131   2.247   0.944 -2.2173  1.0314  0.3299
  324SOL    MW4 1344   1.115   2.238   0.859 -0.8719 -0.2658  0.2031
  325SOL     OW 1345   2.594   2.087   0.482 -0.0644  0.1168  0.5798
  325SOL    HW2 1346   2.538   2.043   0.417 -0.8817  1.7838  0.1379
  325SOL    HW3 1347   2.553   2.068   0.566 -1.4629  1.5575  0.2344
  325SOL    MW4 1348   2.581   2.079   0.484 -0.3567  0.5267  0.4759
  326SOL     OW 1349   1.325   0.374   0.833 -0.1497 -0.2634  0.6969
  326SOL    HW2 1350   1.312   0.281   0.813 -0.4093 -0.3078  1.0744
  326SOL    HW3 1351   1.342   0.377   0.927 -2.1756  0.2649  1.0837
  326SOL    MW4 1352   1.326   0.362   0.843 -0.4512 -0.1996  0.7977
  327SOL     OW 1353   2.048   1.277   0.767 -0.4472  0.1177 -0.2563
  327SOL    HW2 1354   2.119   1.214   0.779  0.5025  1.2044 -0.1128
  327SOL    HW3 1355   2.066   1.317   0.682 -1.1318  0.0835 -0.4167
  327SOL    MW4 1356   2.060   1.274   0.758 -0.4122  0.2567 -0.2586
  328SOL     OW 1357   1.187   3.102   0.906 -0.3336 -0.4613  0.1558
  328SOL    HW2 1358   1.189   3.006   0.898 -2.5118 -0.6019  1.0038
  328SOL    HW3 1359   1.240   3.133   0.833 -0.2967 -2.3051 -0.6351
  328SOL    MW4 1360   1.194   3.093   0.895 -0.6161 -0.7231  0.1634
  329SOL     OW 1361   1.361   2.629   0.822 -0.5259  0.2739 -0.4218
  329SOL    HW2 1362   1.388   2.622   0.914  0.7566  1.1745 -0.7282
  329SOL    HW3 1363   1.293   2.696   0.822 -0.2044  0.6006 -0.2029
  329SOL    MW4 1364   1.355   2.637   0.835 -0.3144  0.4361 -0.4334
  330SOL     OW 1365   0.473   0.884   0.478  0.3564  0.1494  0.0123
  330SOL    HW2 1366   0.471   0.888   0.574 -0.0979 -0.6051  0.0400
  330SOL    HW3 1367   0.381   0.886   0.452  0.4410 -0.5390 -0.3638
  330SOL    MW4 1368   0.461   0.885   0.487  0.3076 -0.0410 -0.0336
  331SOL     OW 1369   2.947   2.890   0.248  0.0821  0.6127  0.5007
  331SOL    HW2 1370   3.027   2.901   0.197  0.2231  0.3310  0.6578
  331SOL    HW3 1371   2.922   2.979   0.274 -0.1357  0.7808 -0.2765
  331SOL    MW4 1372   2.954   2.903   0.244  0.0722  0.5977  0.4189
  332SOL     OW 1373   0.867   1.386   0.374 -0.2043 -0.7440 -0.4122
  332SOL    HW2 1374   0.865   1.294   0.400 -1.4511 -0.6095  0.0298
  332SOL    HW3 1375   0.946   1.395   0.320 -0.3875 -2.1967 -0.9417
  332SOL    MW4 1376   0.877   1.375   0.370 -0.3930 -0.9179 -0.4237
  333SOL     OW 1377   0.183   1.755   0.439  0.4917 -0.1391 -0.1346
  333SOL    HW2 1378   0.096   1.716   0.448  0.3145  0.4310  0.6045
  333SOL    HW3 1379   0.243   1.680   0.447  0.0665 -0.5757 -0.9589
  333SOL    MW4 1380   0.180   1.740   0.442  0.4122 -0.1214 -0.1458
  334SOL     OW 1381   3.648   3.471   0.878 -0.0424 -0.0837 -0.8189
  334SOL    HW2 1382   3.645   3.376   0.863  0.5185 -0.1837 -0.3229
  334SOL    HW3 1383   3.573   3.505   0.829  0.0858 -0.7192 -1.4792
  334SOL    MW4 1384   3.638   3.463   0.870  0.0486 -0.1807 -0.8406
  335SOL     OW 1385   1.003   4.146   0.483 -0.2730 -0.2030 -0.2948
  335SOL    HW2 1386   1.014   4.238   0.506 -0.8428  0.2089 -1.5982
  335SOL    HW3 1387   0.976   4.104   0.564 -1.8692  1.1323 -0.1044
  335SOL    MW4 1388   1.001   4.153   0.497 -0.5590  0.0277 -0.4417
  336SOL     OW 1389   4.424   4.336   0.515  0.2935  0.0114 -0.3029
  336SOL    HW2 1390   4.475   4.295   0.585 -1.6426  1.0611  1.7544
  336SOL    HW3 1391   4.351   4.276   0.501  0.2092  0.2382 -0.8491
  336SOL    MW4 1392   4.421   4.322   0.522  0.0267  0.1793 -0.1035
  337SOL     OW 1393   2.295   0.355   0.882 -0.0457  0.0813 -0.5459
  337SOL    HW2 1394   2.355   0.416   0.839 -1.0899  1.3192 -0.2817
  337SOL    HW3 1395   2.292   0.280   0.823  0.3196  0.7876 -1.4888
  337SOL    MW4 1396   2.303   0.353   0.868 -0.1352  0.3378 -0.6354
  338SOL     OW 1397   1.349   3.518   0.873  0.2804  0.5142 -0.1245
  338SOL    HW2 1398   1.265   3.555   0.844  0.5076  0.5532 -0.7360
  338SOL    HW3 1399   1.414   3.578   0.837  0.6021  0.1097 -0.2098
  338SOL    MW4 1400   1.346   3.531   0.864  0.3527  0.4661 -0.2165
  339SOL     OW 1401   4.216   3.983   0.901 -0.4764  0.0049  0.1799
  339SOL    HW2 1402   4.252   3.937   0.977  0.7071  0.1270 -0.2956
  339SOL    HW3 1403   4.258   3.941   0.825  0.0480  1.3490 -0.2962
  339SOL    MW4 1404   4.227   3.971   0.901 -0.2513  0.1981  0.0543
  340SOL     OW 1405   0.665   0.161   0.447 -0.5433 -0.5916  0.1565
  340SOL    HW2 1406   0.694   0.252   0.448  0.5713 -0.8699 -2.6120
  340SOL    HW3 1407   0.745   0.110   0.456 -0.9378 -1.3116 -0.3387
  340SOL    MW4 1408   0.679   0.166   0.448 -0.4483 -0.7233 -0.2741
  341SOL     OW 1409   1.564   3.884   0.358  0.1923  0.2659  0.3761
  341SOL    HW2 1410   1.520   3.943   0.419  0.6175  0.6860  0.2744
  341SOL    HW3 1411   1.493   3.851   0.302 -0.1057  0.3604  0.6941
  341SOL    MW4 1412   1.549   3.887   0.358  0.2091  0.3335  0.4047
  342SOL     OW 1413   0.858   0.113   0.795 -0.2266 -0.1563  0.1974
  342SOL    HW2 1414   0.785   0.066   0.836  0.2921 -0.8847  0.2863
  342SOL    HW3 1415   0.845   0.204   0.822 -1.0180 -0.3027  0.3363
  342SOL    MW4 1416   0.846   0.119   0.804 -0.2626 -0.2717  0.2275
  343SOL     OW 1417   1.816   1.004   0.486  0.6306 -0.0789 -0.2060
  343SOL    HW2 1418   1.825   0.951   0.565 -1.0626 -0.3268 -0.1585
  343SOL    HW3 1419   1.788   1.090   0.518 -0.4842 -0.3019 -0.5410
  343SOL    MW4 1420   1.813   1.009   0.501  0.2600 -0.1410 -0.2440
  344SOL     OW 1421   2.453   1.399   0.263  0.2351 -0.2801 -0.4427
  344SOL    HW2 1422   2.531   1.355   0.230  1.0092  0.7532 -0.0209
  344SOL    HW3 1423   2.421   1.342   0.334  0.9920 -0.3761 -0.1738
  344SOL    MW4 1424   2.459   1.386   0.268  0.4373 -0.1564 -0.3516
  345SOL     OW 1425   2.806   0.451   0.539  0.0565  0.2400 -0.1902
  345SOL    HW2 1426   2.804   0.363   0.501  1.3375 -0.3337  1.0277
  345SOL    HW3 1427   2.862   0.442   0.617  1.2978  2.4316 -0.8043
  345SOL    MW4 1428   2.813   0.438   0.544  0.3891  0.4535 -0.1105
  346SOL     OW 1429   1.814   4.018   0.735 -0.6676  0.2642  0.4325
  346SOL    HW2 1430   1.803   4.100   0.784 -1.0253 -1.0110  2.5445
  346SOL    HW3 1431   1.893   3.978   0.772  0.4569  0.3974 -1.7219
  346SOL    MW4 1432   1.823   4.024   0.746 -0.5664  0.1135  0.4269
  347SOL     OW 1433   0.492   1.134   0.900 -0.1411 -0.4768  0.8542
  347SOL    HW2 1434   0.561   1.189   0.864 -0.0728 -0.8039  0.4935
  347SOL    HW3 1435   0.411   1.175   0.871 -0.1043 -0.0102  1.3972
  347SOL    MW4 1436   0.490   1.146   0.892 -0.1272 -0.4584  0.8783
  348SOL     OW 1437   0.757   2.816   0.705 -0.0333 -0.1291  0.3040
  348SOL    HW2 1438   0.826   2.762   0.745  0.3312 -1.4971 -2.1053
  348SOL    HW3 1439   0.798   2.852   0.626 -1.0218  1.8361  0.6598
  348SOL    MW4 1440   0.772   2.813   0.700 -0.1157 -0.0503  0.0331
  349SOL     OW 1441   3.199   1.650   0.719  0.3483 -0.5966  0.3714
  349SOL    HW2 1442   3.200   1.729   0.774 -0.6127 -1.0444  1.0387
  349SOL    HW3 1443   3.240   1.678   0.637 -0.6877  0.8056  0.3148
  349SOL    MW4 1444   3.205   1.664   0.716  0.0849 -0.4708  0.4520
  350SOL     OW 1445   2.031   2.332   0.396  0.2067  0.1251 -0.2367
  350SOL    HW2 1446   2.120   2.365   0.398  0.4813 -0.6453  0.4342
  350SOL    HW3 1447   2.040   2.237   0.386 -0.5344  0.0722 -0.4432
  350SOL    MW4 1448   2.044   2.323   0.395  0.1452  0.0169 -0.1754
  351SOL     OW 1449   1.814   1.918   0.846  0.1631 -0.8263 -0.0706
  351SOL    HW2 1450   1.822   1.825   0.824  1.4773 -0.7597  0.0772
  351SOL    HW3 1451   1.726   1.942   0.818 -0.2594 -2.1737  0.0919
  351SOL    MW4 1452   1.804   1.909   0.839  0.2806 -0.9954 -0.0297
  352SOL     OW 1453   1.573   1.846   0.468 -0.4339 -0.1264  0.1814
  352SOL    HW2 1454   1.548   1.896   0.390  0.7756  0.0110 -0.1271
  352SOL    HW3 1455   1.586   1.913   0.536  1.7674  0.0839 -0.3847
  352SOL    MW4 1456   1.572   1.862   0.466  0.0162 -0.0805  0.0660
  353SOL     OW 1457   2.293   2.692   0.877 -0.4063  0.2651  0.5203
  353SOL    HW2 1458   2.225   2.757   0.857 -1.0460 -0.1863  1.2070
  353SOL    HW3 1459   2.291   2.685   0.973  0.5130  0.1484  0.5280
  353SOL    MW4 1460   2.284   2.700   0.887 -0.3691  0.1903  0.6120
  354SOL     OW 1461   2.750   1.651   0.464  0.3980  0.2552 -0.1767
  354SOL    HW2 1462   2.772   1.732   0.418 -0.0394  0.5330  0.0997
  354SOL    HW3 1463   2.725   1.680   0.551  1.7363 -0.3173  0.4087
  354SOL    MW4 1464   2.750   1.666   0.469  0.5167  0.2164 -0.0630
  355SOL     OW 1465   1.116   1.421   0.252 -0.5902  0.1003  0.0376
  355SOL    HW2 1466   1.109   1.507   0.293 -0.0831  0.5905 -0.9096
  355SOL    HW3 1467   1.105   1.437   0.159 -0.3161 -0.8421 -0.1610
  355SOL    MW4 1468   1.113   1.434   0.245 -0.4870  0.0405 -0.1136
  356SOL     OW 1469   2.043   3.081   0.857  0.3687  0.4006 -0.1788
  356SOL    HW2 1470   2.121   3.129   0.828  0.2082  0.5635 -0.3427
  356SOL    HW3 1471   1.970   3.141   0.840  0.1010 -0.1499 -0.9880
  356SOL    MW4 1472   2.044   3.095   0.851  0.3123  0.3498 -0.3071
  357SOL     OW 1473   2.237   3.461   0.838  0.5603 -0.3389 -0.6677
  357SOL    HW2 1474   2.170   3.503   0.783  1.0442  1.5159  0.1083
  357SOL    HW3 1475   2.246   3.373   0.802 -2.8548 -0.8947 -0.3447
  357SOL    MW4 1476   2.229   3.455   0.826  0.1736 -0.1678 -0.5227
  358SOL     OW 1477   3.638   0.895   0.539  0.0400  0.3277  0.4724
  358SOL    HW2 1478   3.667   0.980   0.506  1.0036 -0.4386 -0.6913
  358SOL    HW3 1479   3.702   0.833   0.505 -0.6564 -0.8663  1.3153
  358SOL    MW4 1480   3.650   0.898   0.530  0.0753  0.0691  0.4300
  359SOL     OW 1481   1.803   3.217   0.815 -0.2671 -0.4040 -0.0782
  359SOL    HW2 1482   1.806   3.249   0.725  0.4413 -0.1849  0.0279
  359SOL    HW3 1483   1.730   3.154   0.815 -1.0741  0.5177 -0.5007
  359SOL    MW4 1484   1.794   3.213   0.803 -0.2800 -0.2534 -0.1199
  360SOL     OW 1485   3.372   3.059   0.418 -0.0255  0.5723 -0.1537
  360SOL    HW2 1486   3.432   3.044   0.345  0.4561  0.2942  0.2990
  360SOL    HW3 1487   3.364   2.974   0.460 -0.4058  0.7053  0.0404
  360SOL    MW4 1488   3.379   3.046   0.414 -0.0119  0.5531 -0.0683
  361SOL     OW 1489   2.487   2.039   0.742  0.5466  0.2661  0.0637
  361SOL    HW2 1490   2.564   1.996   0.781  1.3072  1.6344  0.0797
  361SOL    HW3 1491   2.412   1.992   0.779  1.3658 -1.6391 -0.5836
  361SOL    MW4 1492   2.487   2.027   0.752  0.7551  0.1955 -0.0196
  362SOL     OW 1493   2.058   0.398   0.475  0.1319 -0.4962  0.2164
  362SOL    HW2 1494   2.137   0.348   0.494  0.3952 -0.5153 -0.8787
  362SOL    HW3 1495   2.090   0.477   0.431 -0.5336 -1.0669 -1.3119
  362SOL    MW4 1496   2.073   0.402   0.472  0.0789 -0.5740 -0.1297
  363SOL     OW 1497   1.801   4.251   0.895 -0.3716  0.2711  0.0729
  363SOL    HW2 1498   1.870   4.309   0.863  3.0232 -3.1821  0.7485
  363SOL    HW3 1499   1.809   4.257   0.991 -1.0559 -0.1341  0.1538
  363SOL    MW4 1500   1.811   4.260   0.904 -0.0141 -0.2375  0.1727
  364SOL     OW 1501   2.036   4.372   0.819 -0.7518 -0.0487 -0.5805
  364SOL    HW2 1502   2.030   4.451   0.873  0.5066 -0.7702  0.6669
  364SOL    HW3 1503   2.045   4.405   0.730 -2.5465  1.1757 -0.3488
  364SOL    MW4 1504   2.037   4.387   0.814 -0.8228  0.0176 -0.3853
  365SOL     OW 1505   1.837   1.648   0.756 -0.5584  0.1773  0.0063
  365SOL    HW2 1506   1.757   1.604   0.784 -0.4913  0.1305  0.1232
  365SOL    HW3 1507   1.836   1.640   0.660 -0.0526 -0.9216  0.0898
  365SOL    MW4 1508   1.826   1.641   0.747 -0.4829  0.0261  0.0327
  366SOL     OW 1509   4.032   3.403   0.493 -0.2423 -0.1411 -0.3595
  366SOL    HW2 1510   3.991   3.323   0.462  0.3069 -0.1088 -1.1876
  366SOL    HW3 1511   3.969   3.472   0.474 -2.4911 -0.8526  4.0516
  366SOL    MW4 1512   4.019   3.401   0.486 -0.4668 -0.2310  0.1132
  367SOL     OW 1513   3.026   0.105   0.506 -0.0741 -0.0960  0.2015
  367SOL    HW2 1514   2.934   0.130   0.508 -0.3047 -0.9641  1.4260
  367SOL    HW3 1515   3.055   0.112   0.597  0.5139 -1.7591  0.1720
  367SOL    MW4 1516   3.017   0.109   0.519 -0.0269 -0.4300  0.3591
  368SOL     OW 1517   2.678   0.105   0.734 -0.2520  0.1119 -0.2644
  368SOL    HW2 1518   2.616   0.047   0.777  1.2040 -0.5858  0.9733
  368SOL    HW3 1519   2.682   0.182   0.790  0.2080  0.0278 -0.1786
  368SOL    MW4 1520   2.671   0.108   0.747  0.0007  0.0087 -0.0898
  369SOL     OW 1521   3.601   0.087   0.810 -0.1552  0.3871  0.0417
  369SOL    HW2 1522   3.599   0.107   0.716  0.3897  1.3056  0.2208
  369SOL    HW3 1523   3.618   0.171   0.852 -1.3182  0.1502  1.0288
  369SOL    MW4 1524   3.603   0.101   0.803 -0.2367  0.4770  0.1956
  370SOL     OW 1525   2.507   0.505   0.791  0.0548  0.2077  0.0962
  370SOL    HW2 1526   2.589   0.459   0.812 -0.6489 -0.8030  0.6758
  370SOL    HW3 1527   2.513   0.588   0.838  1.0971  0.4814 -0.5082
  370SOL    MW4 1528   2.519   0.510   0.800  0.0997  0.1105  0.0929
  371SOL     OW 1529   2.927   0.755   0.837  0.3494  0.5756 -0.1389
  371SOL    HW2 1530   3.020   0.780   0.843  0.6766 -0.9431  1.6446
  371SOL    HW3 1531   2.899   0.748   0.928 -0.7357 -1.7783 -0.6249
  371SOL    MW4 1532   2.936   0.758   0.850  0.2491  0.0647  0.0322
  372SOL     OW 1533   0.390   0.327   0.849  0.2705  0.0402  0.0211
  372SOL    HW2 1534   0.326   0.377   0.798 -0.3991 -0.3622  0.4730
  372SOL    HW3 1535   0.407   0.249   0.796  0.9648  0.5127 -0.4615
  372SOL    MW4 1536   0.384   0.323   0.835  0.2737  0.0494  0.0171
  373SOL     OW 1537   3.822   4.015   0.687 -0.4284 -0.0288  0.3135
  373SOL    HW2 1538   3.844   3.959   0.612 -1.1483  2.2637 -1.6473
  373SOL    HW3 1539   3.891   4.082   0.687 -1.7831  1.3773  0.2164
  373SOL    MW4 1540   3.834   4.016   0.677 -0.7021  0.4587  0.0420
  374SOL     OW 1541   1.827   1.397   0.460 -0.1320 -0.0997  0.0725
  374SOL    HW2 1542   1.804   1.490   0.451 -1.4150 -0.5078 -0.9745
  374SOL    HW3 1543   1.743   1.354   0.479  0.4706 -1.0485  0.6189
  374SOL    MW4 1544   1.813   1.404   0.462 -0.2217 -0.2787  0.0064
  375SOL     OW 1545   1.357   3.262   0.730  0.1800 -0.6311 -0.5809
  375SOL    HW2 1546   1.364   3.275   0.636  1.9421  0.7482 -0.2935
  375SOL    HW3 1547   1.369   3.349   0.767 -0.4017 -1.1767  0.9223
  375SOL    MW4 1548   1.360   3.275   0.723  0.3357 -0.5209 -0.3446
  376SOL     OW 1549   0.249   2.055   0.755 -0.7930 -0.1357 -0.3193
  376SOL    HW2 1550   0.237   2.150   0.762  0.0101  0.0048 -0.8309
  376SOL    HW3 1551   0.237   2.036   0.662 -3.8561 -0.9573  0.1713
  376SOL    MW4 1552   0.246   2.065   0.743 -1.0912 -0.2258 -0.3222
  377SOL     OW 1553   1.141   1.198   0.830 -0.2495 -0.0996  0.5854
  377SOL    HW2 1554   1.150   1.290   0.855 -1.3408  0.0038  0.6200
  377SOL    HW3 1555   1.136   1.200   0.734 -1.0884 -0.0547  0.6327
  377SOL    MW4 1556   1.142   1.211   0.821 -0.5043 -0.0800  0.5963
  378SOL     OW 1557   2.454   2.305   0.844  0.1353  0.5130 -0.0841
  378SOL    HW2 1558   2.474   2.218   0.809 -0.9113  0.8975 -1.6667
  378SOL    HW3 1559   2.526   2.360   0.814  0.0680  0.5006 -0.2657
  378SOL    MW4 1560   2.466   2.301   0.835 -0.0117  0.5620 -0.3169
  379SOL     OW 1561   2.073   2.810   0.763  0.4537 -0.0829  0.3657
  379SOL    HW2 1562   1.988   2.772   0.785  0.6848  0.1066  1.6301
  379SOL    HW3 1563   2.065   2.902   0.787 -0.2091  0.8040 -2.9843
  379SOL    MW4 1564   2.061   2.817   0.769  0.3967  0.0591  0.0905
  380SOL     OW 1565   1.100   1.960   0.754 -0.0531 -0.4124 -0.1628
  380SOL    HW2 1566   1.103   2.049   0.789 -0.2896 -0.4308 -0.0924
  380SOL    HW3 1567   1.032   1.916   0.805 -0.7589 -0.2948 -0.9829
  380SOL    MW4 1568   1.091   1.966   0.765 -0.1774 -0.3991 -0.2617
  381SOL     OW 1569   2.491   3.048   0.795 -0.5262  0.0672  0.1083
  381SOL    HW2 1570   2.564   3.110   0.791  0.1659 -0.6603  0.8361
  381SOL    HW3 1571   2.483   3.027   0.889  1.0351 -2.9397 -0.3397
  381SOL    MW4 1572   2.500   3.053   0.807 -0.2286 -0.4253  0.1452
  382SOL     OW 1573   3.861   0.718   0.489 -0.0415 -0.5174  0.3429
  382SOL    HW2 1574   3.879   0.624   0.485 -0.7246 -0.7608  2.3426
  382SOL    HW3 1575   3.944   0.759   0.469 -0.0257 -1.5309 -1.8090
  382SOL    MW4 1576   3.874   0.711   0.486 -0.1295 -0.6832  0.3228
  383SOL     OW 1577   1.127   3.882   0.874 -0.0004  0.3884 -0.2880
  383SOL    HW2 1578   1.209   3.926   0.854 -0.1984  0.8495 -0.0893
  383SOL    HW3 1579   1.127   3.873   0.970 -0.1536  0.3389 -0.2922
  383SOL    MW4 1580   1.138   3.886   0.884 -0.0466  0.4427 -0.2623
  384SOL     OW 1581   2.706   3.496   0.824  0.1511  0.3876  0.0219
  384SOL    HW2 1582   2.626   3.536   0.790  0.5057  0.5358 -0.6482
  384SOL    HW3 1583   2.696   3.498   0.919  0.4598  2.6531  0.0292
  384SOL    MW4 1584   2.694   3.501   0.832  0.2384  0.7062 -0.0656
  385SOL     OW 1585   2.766   4.576   0.342  0.7355  0.1031  0.3804
  385SOL    HW2 1586   2.831   4.592   0.274  0.7673 -0.6455  0.2211
  385SOL    HW3 1587   2.818   4.547   0.418  0.6377  0.1584  0.4687
  385SOL    MW4 1588   2.782   4.574   0.343  0.7269  0.0114  0.3710
  386SOL     OW 1589   2.491   4.470   0.356  0.1289 -0.0635 -0.3525
  386SOL    HW2 1590   2.577   4.513   0.352 -0.0401  0.3263  0.1871
  386SOL    HW3 1591   2.497   4.399   0.292  0.0191  1.5180 -2.1591
  386SOL    MW4 1592   2.503   4.467   0.347  0.0918  0.1969 -0.5196
  387SOL     OW 1593   2.452   3.879   0.832 -0.7438 -0.0533 -0.2144
  387SOL    HW2 1594   2.454   3.788   0.803  0.6217  0.0986 -0.6567
  387SOL    HW3 1595   2.538   3.914   0.808 -0.7829  1.0028  1.0931
  387SOL    MW4 1596   2.464   3.872   0.825 -0.5686  0.1061 -0.1003
  388SOL     OW 1597   1.389   3.286   0.447  0.1328 -0.5916  0.3367
  388SOL    HW2 1598   1.478   3.317   0.462  0.2618 -1.1113  0.6618
  388SOL    HW3 1599   1.335   3.365   0.452  0.6465 -0.1777 -0.5188
  388SOL    MW4 1600   1.394   3.301   0.450  0.2176 -0.6058  0.2667
  389SOL     OW 1601   0.927   4.019   0.708 -0.1598  0.4496 -0.1722
  389SOL    HW2 1602   0.858   3.971   0.754  0.2295  0.7703  0.7600
  389SOL    HW3 1603   1.009   3.984   0.743  0.1312  1.5053  0.2352
  389SOL    MW4 1604   0.929   4.008   0.719 -0.0700  0.6313  0.0045
  390SOL     OW 1605   1.733   2.130   0.477  0.1068 -0.6490  0.3711
  390SOL    HW2 1606   1.704   2.108   0.565 -0.3050  1.2185  0.7246
  390SOL    HW3 1607   1.661   2.179   0.438  0.3898 -1.2135 -0.9152
  390SOL    MW4 1608   1.720   2.133   0.483  0.0899 -0.4768  0.2480
  391SOL     OW 1609   3.203   0.367   0.847 -0.7645 -0.0055  0.0022
  391SOL    HW2 1610   3.189   0.275   0.826  1.3440 -0.1221 -1.0339
  391SOL    HW3 1611   3.190   0.373   0.941 -0.7465 -1.3948  0.1023
  391SOL    MW4 1612   3.199   0.356   0.857 -0.4840 -0.2042 -0.1212
  392SOL     OW 1613   0.378   0.320   0.440 -0.3983  0.3121 -0.3289
  392SOL    HW2 1614   0.307   0.383   0.446  0.2236  0.8820  1.5085
  392SOL    HW3 1615   0.458   0.374   0.439  0.1204 -0.3889  0.9248
  392SOL    MW4 1616   0.379   0.335   0.441 -0.2478  0.2948  0.0789
  393SOL     OW 1617   1.816   0.130   0.775  0.0863 -0.0907 -0.0394
  393SOL    HW2 1618   1.824   0.217   0.815 -0.5076  0.0304 -0.1668
  393SOL    HW3 1619   1.858   0.139   0.689 -0.0994  0.1125 -0.1100
  393SOL    MW4 1620   1.822   0.143   0.769 -0.0167 -0.0479 -0.0655
  394SOL     OW 1621   2.216   1.611   0.505  0.1043  0.1088 -0.4777
  394SOL    HW2 1622   2.159   1.669   0.454  0.0081  1.2825  0.9243
  394SOL    HW3 1623   2.299   1.611   0.458 -0.0450  1.0363 -0.7528
  394SOL    MW4 1624   2.219   1.619   0.492  0.0718  0.3861 -0.3290
  395SOL     OW 1625   1.654   2.857   0.660  0.2806  0.1752 -0.1724
  395SOL    HW2 1626   1.721   2.900   0.607  0.6244 -0.0788  0.0604
  395SOL    HW3 1627   1.602   2.929   0.696  2.2131  0.4877  2.0354
  395SOL    MW4 1628   1.656   2.872   0.657  0.5809  0.1831  0.1496
  396SOL     OW 1629   1.112   3.625   0.783  0.2339  0.1730 -0.1442
  396SOL    HW2 1630   1.033   3.577   0.806  0.3901  0.1991  0.4584
  396SOL    HW3 1631   1.103   3.709   0.828  0.4034  0.3412 -0.4228
  396SOL    MW4 1632   1.101   3.630   0.792  0.2767  0.1986 -0.1014
  397SOL     OW 1633   1.333   4.501   0.477  0.1257 -0.0779 -0.0638
  397SOL    HW2 1634   1.423   4.469   0.487 -0.3118 -1.6353 -0.9076
  397SOL    HW3 1635   1.343   4.595   0.460  1.5573 -0.1169  0.5066
  397SOL    MW4 1636   1.346   4.509   0.476  0.2567 -0.2890 -0.0998
  398SOL     OW 1637   2.045   2.031   0.695  0.6221  0.0201  0.0310
  398SOL    HW2 1638   1.972   2.000   0.748 -0.9572 -0.5445 -2.3993
  398SOL    HW3 1639   2.038   2.126   0.699 -1.0296 -0.0342 -1.2094
  398SOL    MW4 1640   2.035   2.039   0.703  0.1957 -0.0618 -0.4534
  399SOL     OW 1641   2.240   1.927   0.867  0.1012 -0.3387 -0.1760
  399SOL    HW2 1642   2.258   1.836   0.842 -0.6712  0.0253 -2.1164
  399SOL    HW3 1643   2.180   1.959   0.800  1.7242  2.1373 -0.4917
  399SOL    MW4 1644   2.235   1.919   0.855  0.2134  0.0361 -0.4736
  400SOL     OW 1645   4.201   2.050   0.449  0.0802  0.1876  0.9637
  400SOL    HW2 1646   4.210   1.960   0.419 -1.7875  0.0481  0.7584
  400SOL    HW3 1647   4.242   2.051   0.535 -0.4730 -1.0264  1.2538
  400SOL    MW4 1648   4.208   2.038   0.457 -0.2394  0.0091  0.9749
  401SOL     OW 1649   1.636   2.891   0.332  0.0625 -0.1386  0.0114
  401SOL    HW2 1650   1.624   2.798   0.312  0.5938 -0.6675  2.0419
  401SOL    HW3 1651   1.548   2.924   0.348  0.1096 -0.9998  2.1749
  401SOL    MW4 1652   1.623   2.883   0.331  0.1388 -0.3221  0.5647
  402SOL     OW 1653   1.786   3.476   0.904 -0.1030 -0.5309 -0.2819
  402SOL    HW2 1654   1.767   3.483   0.998 -2.2858 -0.4495 -0.7129
  402SOL    HW3 1655   1.792   3.382   0.888  0.6781 -0.5369 -0.0009
  402SOL    MW4 1656   1.785   3.465   0.914 -0.2880 -0.5214 -0.3017
  403SOL     OW 1657   3.157   3.236   0.501  0.0130 -0.0509 -0.0216
  403SOL    HW2 1658   3.236   3.191   0.471  1.6021  2.2016  0.6773
  403SOL    HW3 1659   3.158   3.226   0.596 -0.1347  0.5975  0.0502
  403SOL    MW4 1660   3.168   3.229   0.509  0.2031  0.3316  0.0802
  404SOL     OW 1661   0.339   3.825   0.494  0.4212 -0.3412 -0.5424
  404SOL    HW2 1662   0.414   3.767   0.510  1.1382  0.9066  0.8124
  404SOL    HW3 1663   0.379   3.908   0.469 -0.4947  0.5289  0.8472
  404SOL    MW4 1664   0.354   3.828   0.493  0.3950 -0.0620 -0.1803
  405SOL     OW 1665   2.907   3.067   0.825 -0.2254  0.3242  0.7041
  405SOL    HW2 1666   2.838   3.123   0.789  0.4053  0.3560 -0.4636
  405SOL    HW3 1667   2.910   2.991   0.767  0.7585  0.3496  0.7181
  405SOL    MW4 1668   2.898   3.065   0.813 -0.0122  0.3316  0.5519
  406SOL     OW 1669   2.693   3.241   0.722 -0.1711 -0.3690  0.2784
  406SOL    HW2 1670   2.677   3.242   0.627 -0.7577 -2.4802  0.3285
  406SOL    HW3 1671   2.695   3.333   0.747 -0.9049  0.1940 -1.6423
  406SOL    MW4 1672   2.691   3.253   0.713 -0.3455 -0.5732  0.0317
  407SOL     OW 1673   4.229   2.398   0.392  0.6270  0.0136 -0.3093
  407SOL    HW2 1674   4.248   2.317   0.345 -0.1746 -0.9244  0.9421
  407SOL    HW3 1675   4.141   2.386   0.427  0.0066  1.9409 -1.1356
  407SOL    MW4 1676   4.220   2.386   0.391  0.4392  0.1440 -0.2532
  408SOL     OW 1677   1.263   3.065   0.344  0.2643  0.2493 -0.2219
  408SOL    HW2 1678   1.308   3.148   0.359 -0.4300  0.5235  0.3782
  408SOL    HW3 1679   1.210   3.081   0.266 -0.0544  0.4481  0.0341
  408SOL    MW4 1680   1.262   3.078   0.336  0.1308  0.3116 -0.1090
  409SOL     OW 1681   2.958   3.875   0.823  0.0949 -0.0936  0.4163
  409SOL    HW2 1682   2.954   3.870   0.919  0.2009 -2.0129  0.3381
  409SOL    HW3 1683   2.937   3.786   0.794  0.1513  0.4617 -1.3430
  409SOL    MW4 1684   2.955   3.862   0.832  0.1163 -0.2735  0.1738
  410SOL     OW 1685   3.363   4.654   0.909 -0.2073  0.7298  0.3178
  410SOL    HW2 1686   3.377   4.650   1.004  0.5899  1.4221  0.2380
  410SOL    HW3 1687   3.438   4.703   0.876 -0.2112  0.0335 -0.7407
  410SOL    MW4 1688   3.374   4.660   0.917 -0.1028  0.7291  0.1677
  411SOL     OW 1689   2.894   4.664   0.887  0.2439  0.3091 -0.5885
  411SOL    HW2 1690   2.815   4.682   0.836  0.3982 -0.5441 -1.1411
  411SOL    HW3 1691   2.921   4.577   0.859  1.1897  0.4553 -0.1465
  411SOL    MW4 1692   2.887   4.655   0.877  0.3889  0.2160 -0.6031
  412SOL     OW 1693   4.461   3.242   0.502  0.1588 -0.0350 -0.3527
  412SOL    HW2 1694   4.475   3.152   0.471  0.7456 -0.2037  0.4079
  412SOL    HW3 1695   4.537   3.290   0.472 -0.1053  0.1892 -0.6674
  412SOL    MW4 1696   4.473   3.236   0.494  0.2017 -0.0277 -0.2939
  413SOL     OW 1697   2.053   0.444   0.778 -0.2065 -0.1969  0.4339
  413SOL    HW2 1698   2.062   0.415   0.688 -0.9653 -0.7032  0.5142
  413SOL    HW3 1699   2.131   0.411   0.822 -0.5181 -1.1423  0.2732
  413SOL    MW4 1700   2.064   0.436   0.772 -0.3479 -0.3884  0.4233
  414SOL     OW 1701   2.723   4.286   0.888 -0.3502 -0.0686  0.0326
  414SOL    HW2 1702   2.637   4.328   0.887 -0.3604 -0.0882  0.0872
  414SOL    HW3 1703   2.731   4.249   0.975 -0.0155  0.4918  0.2444
  414SOL    MW4 1704   2.713   4.287   0.899 -0.3076  0.0029  0.0678
  415SOL     OW 1705   3.728   2.049   0.536  0.4315 -0.2266 -0.1975
  415SOL    HW2 1706   3.703   1.979   0.476  0.5635 -0.5343  0.1106
  415SOL    HW3 1707   3.816   2.075   0.507 -0.0674  0.5875 -1.0299
  415SOL    MW4 1708   3.737   2.043   0.524  0.3831 -0.1597 -0.2667
  416SOL     OW 1709   2.928   4.533   0.559  0.7092 -0.1718  0.3536
  416SOL    HW2 1710   2.958   4.623   0.559  1.6553 -0.4675 -0.6576
  416SOL    HW3 1711   3.006   4.482   0.536 -0.3604 -1.0244 -1.5694
  416SOL    MW4 1712   2.942   4.538   0.556  0.6926 -0.3238 -0.0336
  417SOL     OW 1713   3.863   0.731   0.892 -0.6588  0.0504 -0.3918
  417SOL    HW2 1714   3.863   0.746   0.987  1.0221  1.4670 -0.5806
  417SOL    HW3 1715   3.792   0.785   0.859  1.2566  2.7020 -0.3371
  417SOL    MW4 1716   3.854   0.740   0.901 -0.1843  0.5872 -0.4095
  418SOL     OW 1717   1.670   3.672   0.518 -0.2140  0.0558  0.2364
  418SOL    HW2 1718   1.661   3.591   0.468 -1.1244  0.6287 -0.5426
  418SOL    HW3 1719   1.621   3.737   0.468  0.1156  0.9877  1.0988
  418SOL    MW4 1720   1.663   3.670   0.504 -0.2908  0.2542  0.2474
  419SOL     OW 1721   1.842   0.826   0.699  0.2255  0.4131  0.2331
  419SOL    HW2 1722   1.895   0.756   0.738  0.0355 -1.0998 -2.0753
  419SOL    HW3 1723   1.752   0.806   0.724  0.0192 -0.9896 -1.5632
  419SOL    MW4 1724   1.837   0.814   0.707  0.1732  0.0285 -0.3085
  420SOL     OW 1725   1.413   4.065   0.512 -0.1945  0.0153  0.1589
  420SOL    HW2 1726   1.338   4.050   0.454  0.1939  1.2176 -0.6611
  420SOL    HW3 1727   1.376   4.057   0.601 -0.9091 -1.2395 -0.2257
  420SOL    MW4 1728   1.398   4.062   0.516 -0.2375  0.0086 -0.0001
  421SOL     OW 1729   3.624   1.119   0.885 -0.1334  0.1890  0.3107
  421SOL    HW2 1730   3.616   1.137   0.978 -0.3823  0.7620  0.1830
  421SOL    HW3 1731   3.545   1.155   0.846 -0.1220 -0.2184 -0.0998
  421SOL    MW4 1732   3.613   1.126   0.892 -0.1647  0.2108  0.2398
  422SOL     OW 1733   3.380   2.303   0.799 -0.3211 -0.1671  0.1840
  422SOL    HW2 1734   3.370   2.288   0.893 -1.0472 -0.4362  0.0689
  422SOL    HW3 1735   3.301   2.351   0.773  0.1186  0.3698 -0.1940
  422SOL    MW4 1736   3.368   2.308   0.808 -0.3588 -0.1316  0.1190
  423SOL     OW 1737   2.710   0.881   0.729 -0.1692  0.3736  0.0975
  423SOL    HW2 1738   2.789   0.829   0.743  0.7979  2.0544  1.0573
  423SOL    HW3 1739   2.701   0.886   0.633  0.9311  0.2091 -0.0211
  423SOL    MW4 1740   2.719   0.875   0.718  0.1037  0.5737  0.2085
  424SOL     OW 1741   2.270   2.465   0.727 -0.4010 -0.5509 -0.0939
  424SOL    HW2 1742   2.335   2.411   0.770 -2.2040 -0.9899  2.1917
  424SOL    HW3 1743   2.267   2.546   0.779 -1.4501 -0.4201 -0.3385
  424SOL    MW4 1744   2.278   2.469   0.739 -0.7772 -0.5915  0.1754
  425SOL     OW 1745   2.015   4.425   0.552 -0.1236  0.0364  0.3431
  425SOL    HW2 1746   2.092   4.375   0.524  0.4773 -0.1314  2.2153
  425SOL    HW3 1747   1.940   4.376   0.517  0.6189  0.7180 -2.3074
  425SOL    MW4 1748   2.015   4.412   0.544  0.0534  0.1044  0.2404
  426SOL     OW 1749   3.595   2.671   0.842  0.0382  0.2591 -0.0167
  426SOL    HW2 1750   3.619   2.586   0.804  0.1008  0.6882 -0.9719
  426SOL    HW3 1751   3.592   2.656   0.936  0.3125 -0.7395 -0.1619
  426SOL    MW4 1752   3.598   2.658   0.849  0.0825  0.1838 -0.1618
  427SOL     OW 1753   0.559   2.015   0.555  0.4588 -0.0579  0.1149
  427SOL    HW2 1754   0.602   2.023   0.641  1.1565 -0.7284 -0.1719
  427SOL    HW3 1755   0.607   2.076   0.499 -0.1263  0.5313  0.2361
  427SOL    MW4 1756   0.571   2.024   0.559  0.4737 -0.0687  0.0930
  428SOL     OW 1757   0.853   0.366   0.896 -0.4944  0.0532 -0.2669
  428SOL    HW2 1758   0.864   0.345   0.989 -1.5759 -0.3608 -0.2150
  428SOL    HW3 1759   0.925   0.425   0.876 -0.9520  1.1243  1.1473
  428SOL    MW4 1760   0.864   0.371   0.906 -0.6974  0.1399 -0.0734
  429SOL     OW 1761   3.396   3.064   0.879 -0.3337 -0.4975 -0.2015
  429SOL    HW2 1762   3.397   3.068   0.975 -0.0783 -0.6522 -0.1981
  429SOL    HW3 1763   3.446   3.141   0.851 -1.6946  0.4038 -0.2352
  429SOL    MW4 1764   3.402   3.075   0.888 -0.4797 -0.3991 -0.2055
  430SOL     OW 1765   3.176   3.469   0.825  0.1741  0.0052  0.2437
  430SOL    HW2 1766   3.161   3.376   0.808 -0.8522  0.0356  0.9190
  430SOL    HW3 1767   3.097   3.512   0.792  1.0036  0.7335 -0.8396
  430SOL    MW4 1768   3.164   3.462   0.819  0.1483  0.1054  0.1898
  431SOL     OW 1769   2.903   3.563   0.451  0.1802  0.1009  0.0933
  431SOL    HW2 1770   2.978   3.520   0.409 -0.5393 -1.2369  0.1630
  431SOL    HW3 1771   2.900   3.650   0.411  1.0903 -0.2319 -0.7138
  431SOL    MW4 1772   2.912   3.569   0.440  0.2055 -0.1194 -0.0040
  432SOL     OW 1773   3.425   3.824   0.867 -0.8264 -0.2870  0.1985
  432SOL    HW2 1774   3.358   3.886   0.841 -1.4000 -0.9473  0.0906
  432SOL    HW3 1775   3.424   3.826   0.963 -0.5316  0.2019  0.1911
  432SOL    MW4 1776   3.416   3.832   0.876 -0.8633 -0.3097  0.1834
  433SOL     OW 1777   3.418   1.509   0.820 -0.2566 -0.0963  0.4412
  433SOL    HW2 1778   3.401   1.531   0.912 -0.0420  0.0768  0.4395
  433SOL    HW3 1779   3.357   1.564   0.771 -0.0013  0.2043  0.4566
  433SOL    MW4 1780   3.408   1.519   0.825 -0.1948 -0.0337  0.4430
  434SOL     OW 1781   2.055   0.718   0.856 -0.6324  0.2377  0.2966
  434SOL    HW2 1782   2.074   0.629   0.827 -1.5526  0.0179  0.3684
  434SOL    HW3 1783   2.128   0.770   0.823 -1.0386 -0.2178 -1.3364
  434SOL    MW4 1784   2.067   0.713   0.848 -0.8073  0.1485  0.0907
  435SOL     OW 1785   3.389   4.379   0.799  0.7297  0.3125  0.2070
  435SOL    HW2 1786   3.477   4.349   0.822  0.7973  0.7264  0.4862
  435SOL    HW3 1787   3.383   4.466   0.837 -0.9309 -0.9252  2.8813
  435SOL    MW4 1788   3.400   4.386   0.807  0.5195  0.2046  0.5966
  436SOL     OW 1789   3.164   4.234   0.853  0.4880  0.0425  0.2155
  436SOL    HW2 1790   3.249   4.270   0.827  0.8658 -1.2040 -0.3555
  436SOL    HW3 1791   3.101   4.303   0.833  1.1003  0.1156 -1.5760
  436SOL    MW4 1792   3.167   4.248   0.847  0.6185 -0.1125 -0.0961
  437SOL     OW 1793   3.828   4.632   0.862 -0.7352 -0.1506  0.3377
  437SOL    HW2 1794   3.746   4.674   0.834 -0.1782 -0.1554 -1.3966
  437SOL    HW3 1795   3.897   4.683   0.819  0.0704 -1.3650  0.1568
  437SOL    MW4 1796   3.826   4.644   0.852 -0.5558 -0.3114  0.0850
  438SOL     OW 1797   2.059   4.649   0.388 -0.0665 -0.0822 -0.0939
  438SOL    HW2 1798   2.065   4.617   0.299  0.5354  0.0984 -0.1168
  438SOL    HW3 1799   2.043   4.571   0.441  1.3050 -0.4095 -0.1568
  438SOL    MW4 1800   2.057   4.635   0.383  0.1938 -0.1020 -0.1052
  439SOL     OW 1801   4.146   0.829   0.491 -0.4003  0.1371 -0.1192
  439SOL    HW2 1802   4.106   0.904   0.448  0.9667  0.0501 -1.5794
  439SOL    HW3 1803   4.122   0.839   0.583 -2.9130  0.6299 -0.7716
  439SOL    MW4 1804   4.137   0.840   0.497 -0.5512  0.1907 -0.3980
  440SOL     OW 1805   2.016   0.874   0.320  0.0103  0.3239 -0.1447
  440SOL    HW2 1806   1.934   0.904   0.359  0.3309 -0.0804  0.8676
  440SOL    HW3 1807   2.002   0.879   0.226 -1.3970 -0.3130  0.0209
  440SOL    MW4 1808   2.003   0.878   0.313 -0.1333  0.1866  0.0108
  441SOL     OW 1809   1.820   2.524   0.432 -0.0925  0.0606  0.2178
  441SOL    HW2 1810   1.867   2.444   0.408  0.0989  0.7183 -1.6492
  441SOL    HW3 1811   1.889   2.585   0.460 -0.2094 -0.3074  1.3284
  441SOL    MW4 1812   1.836   2.522   0.433 -0.0829  0.0989  0.1180
  442SOL     OW 1813   4.020   0.293   0.507 -0.2941 -0.4414 -0.1354
  442SOL    HW2 1814   3.935   0.332   0.487  0.1015  0.2292 -0.5097
  442SOL    HW3 1815   4.083   0.364   0.495  0.0976 -0.3423  2.3132
  442SOL    MW4 1816   4.017   0.307   0.503 -0.1903 -0.3399  0.1383
  443SOL     OW 1817   1.121   0.683   0.408 -0.1331 -0.0161 -0.0341
  443SOL    HW2 1818   1.124   0.636   0.325 -1.6275  0.6431 -0.4771
  443SOL    HW3 1819   1.078   0.622   0.468  0.5984 -0.3431  0.1636
  443SOL    MW4 1820   1.116   0.669   0.405 -0.2339  0.0277 -0.0665
  444SOL     OW 1821   1.202   2.883   0.536 -0.8257  0.2667  0.2747
  444SOL    HW2 1822   1.219   2.948   0.468 -0.0032  0.0214  0.2470
  444SOL    HW3 1823   1.266   2.814   0.520 -0.4392  0.3372  1.4613
  444SOL    MW4 1824   1.212   2.883   0.525 -0.6661  0.2434  0.4276
  445SOL     OW 1825   4.030   0.020   0.449 -0.5531 -0.4164 -0.6570
  445SOL    HW2 1826   4.048   0.114   0.446 -0.3490 -0.4550 -0.6618
  445SOL    HW3 1827   4.111  -0.018   0.483 -0.5142 -0.6245 -0.9812
  445SOL    MW4 1828   4.043   0.028   0.453 -0.5207 -0.4489 -0.7004
  446SOL     OW 1829   2.560   2.384   0.491 -0.1492 -0.3880  0.3833
  446SOL    HW2 1830   2.465   2.390   0.477 -0.1496 -0.9755  0.1317
  446SOL    HW3 1831   2.582   2.294   0.470  0.4678 -0.2597  0.4659
  446SOL    MW4 1832   2.550   2.373   0.487 -0.0679 -0.4487  0.3610
  447SOL     OW 1833   3.002   3.312   0.150  0.3845 -0.2536  0.5180
  447SOL    HW2 1834   3.023   3.346   0.063  0.3161 -0.8446  0.2654
  447SOL    HW3 1835   3.041   3.375   0.211  1.7663 -0.6615  0.0620
  447SOL    MW4 1836   3.010   3.325   0.146  0.5577 -0.3855  0.4245
  448SOL     OW 1837   0.534   1.179   0.499  0.0134  0.3519 -0.3119
  448SOL    HW2 1838   0.524   1.090   0.464 -0.3028  0.4717 -0.5286
  448SOL    HW3 1839   0.605   1.172   0.562  0.4458  0.0826 -0.8223
  448SOL    MW4 1840   0.542   1.166   0.503  0.0288  0.3321 -0.4078
  449SOL     OW 1841   0.269   2.777   0.469 -0.0941 -0.1462  0.1928
  449SOL    HW2 1842   0.255   2.793   0.562 -0.6180 -0.6079  0.1982
  449SOL    HW3 1843   0.264   2.682   0.461  3.3007 -0.3758  0.2375
  449SOL    MW4 1844   0.266   2.766   0.480  0.2847 -0.2375  0.1994
  450SOL     OW 1845   3.641   2.406   0.753  0.3062 -0.0941  0.4146
  450SOL    HW2 1846   3.651   2.434   0.662  1.2587  0.6308  0.7315
  450SOL    HW3 1847   3.551   2.371   0.758 -0.0248  0.5947 -0.5976
  450SOL    MW4 1848   3.630   2.405   0.742  0.3884  0.0923  0.3229
  451SOL     OW 1849   3.600   3.217   0.791 -0.0863  0.4407 -0.1204
  451SOL    HW2 1850   3.595   3.240   0.698 -0.5530 -1.7385 -0.6723
  451SOL    HW3 1851   3.689   3.182   0.802  0.5643  2.2652  0.6687
  451SOL    MW4 1852   3.611   3.215   0.780 -0.0618  0.3941 -0.0890
  452SOL     OW 1853   2.901   3.151   0.340 -0.1414  0.1253  0.4372
  452SOL    HW2 1854   2.960   3.172   0.413 -0.2617 -0.3714  0.6770
  452SOL    HW3 1855   2.941   3.193   0.264  0.8328 -0.6942  0.4866
  452SOL    MW4 1856   2.914   3.159   0.340 -0.0286 -0.0482  0.4753
  453SOL     OW 1857   0.511   4.563   0.378  0.1951 -0.0488 -0.7372
  453SOL    HW2 1858   0.598   4.525   0.365 -0.1135 -0.1208 -2.7030
  453SOL    HW3 1859   0.456   4.490   0.405  0.4372 -0.2727 -0.8496
  453SOL    MW4 1860   0.516   4.548   0.380  0.1864 -0.0882 -1.0113
  454SOL     OW 1861   3.911   3.880   0.457 -0.4704  0.2215  0.2351
  454SOL    HW2 1862   4.005   3.897   0.459 -0.4167 -0.0258 -0.2261
  454SOL    HW3 1863   3.874   3.951   0.406 -0.6027  0.6185  0.8699
  454SOL    MW4 1864   3.919   3.892   0.451 -0.4809  0.2413  0.2580
  455SOL     OW 1865   4.275   3.120   0.889  0.2654  0.2991  0.5677
  455SOL    HW2 1866   4.349   3.159   0.843  1.1842 -2.1881 -0.0890
  455SOL    HW3 1867   4.199   3.143   0.835  0.8177  0.9445  0.0507
  455SOL    MW4 1868   4.275   3.128   0.876  0.4597  0.0563  0.4128
  456SOL     OW 1869   4.297   3.493   0.491  0.1756  0.2319  0.2626
  456SOL    HW2 1870   4.204   3.468   0.490 -0.1198  1.3000 -0.0924
  456SOL    HW3 1871   4.344   3.410   0.491 -0.7802 -0.3287 -0.4504
  456SOL    MW4 1872   4.291   3.478   0.491  0.0100  0.2987  0.1217
  457SOL     OW 1873   0.096   4.208   0.693 -0.5974  0.2045 -0.1383
  457SOL    HW2 1874   0.116   4.115   0.692 -2.4633 -0.2094 -0.3174
  457SOL    HW3 1875   0.044   4.221   0.773  0.2323  1.2366  0.2630
  457SOL    MW4 1876   0.092   4.198   0.704 -0.7341  0.2856 -0.1090
  458SOL     OW 1877   0.996   0.470   0.554 -0.5513  0.0244 -0.1316
  458SOL    HW2 1878   0.903   0.448   0.544  0.1170 -2.5541 -1.1176
  458SOL    HW3 1879   1.015   0.455   0.647 -0.7947 -0.8430 -0.2185
  458SOL    MW4 1880   0.986   0.465   0.565 -0.4952 -0.4303 -0.2732
  459SOL     OW 1881   3.631   4.230   0.886  0.2335 -1.0500  0.4532
  459SOL    HW2 1882   3.693   4.270   0.825  1.7047 -2.4521  1.0006
  459SOL    HW3 1883   3.594   4.156   0.838  1.8011 -2.4912  1.4123
  459SOL    MW4 1884   3.634   4.226   0.872  0.6344 -1.4253  0.6520
  460SOL     OW 1885   3.132   3.465   0.334  0.5612 -0.2932 -0.0662
  460SOL    HW2 1886   3.146   3.394   0.397 -1.1338  0.7240  1.5237
  460SOL    HW3 1887   3.192   3.534   0.362  0.6978 -0.2981 -0.3399
  460SOL    MW4 1888   3.142   3.465   0.346  0.3557 -0.1593  0.1074
  461SOL     OW 1889   0.228   2.482   0.430 -0.0547  0.3844  0.0076
  461SOL    HW2 1890   0.208   2.394   0.399 -0.2151  0.9469 -1.4999
  461SOL    HW3 1891   0.144   2.515   0.464 -0.4174  0.6409 -1.1258
  461SOL    MW4 1892   0.214   2.474   0.430 -0.1237  0.4926 -0.3408
  462SOL     OW 1893   2.093   1.377   0.511 -0.0097  0.1348  0.1714
  462SOL    HW2 1894   2.130   1.465   0.499 -0.2013  0.2140  0.1519
  462SOL    HW3 1895   2.005   1.383   0.473  1.3070 -1.1089 -3.2987
  462SOL    MW4 1896   2.086   1.390   0.504  0.1388 -0.0186 -0.2891
  463SOL     OW 1897   4.050   0.403   0.889  0.0456 -0.1386 -0.5154
  463SOL    HW2 1898   3.973   0.434   0.843 -0.4251  0.3893  0.6072
  463SOL    HW3 1899   4.124   0.437   0.838 -0.4618  2.0588  0.1685
  463SOL    MW4 1900   4.050   0.412   0.877 -0.0834  0.2210 -0.2770
  464SOL     OW 1901   1.351   4.018   0.779 -0.3758 -0.0278 -0.4259
  464SOL    HW2 1902   1.365   4.107   0.811  2.1313  0.1407 -1.8792
  464SOL    HW3 1903   1.426   3.968   0.812 -0.7762 -1.1654 -1.2100
  464SOL    MW4 1904   1.363   4.023   0.788 -0.0979 -0.1564 -0.7211
  465SOL     OW 1905   1.130   0.768   0.874 -0.0148  0.4414 -0.1190
  465SOL    HW2 1906   1.046   0.805   0.847 -0.0766  0.9032  0.6899
  465SOL    HW3 1907   1.118   0.743   0.965  0.4855 -0.2207 -0.2275
  465SOL    MW4 1908   1.118   0.770   0.882  0.0430  0.4150 -0.0266
  466SOL     OW 1909   1.239   0.923   0.474 -0.4785  0.6655 -0.5640
  466SOL    HW2 1910   1.207   0.837   0.448 -0.9582  0.2703  1.2144
  466SOL    HW3 1911   1.320   0.935   0.424  0.4991 -1.5764  0.4110
  466SOL    MW4 1912   1.246   0.913   0.464 -0.4129  0.3176 -0.2007
  467SOL     OW 1913   0.026   1.103   0.901  0.3368 -0.0542 -0.4205
  467SOL    HW2 1914   0.013   1.116   0.995  1.6703 -0.3491 -0.1850
  467SOL    HW3 1915  -0.049   1.146   0.860  0.7647  1.7889  0.6835
  467SOL    MW4 1916   0.015   1.110   0.908  0.5691  0.1501 -0.2437
  468SOL     OW 1917   2.687   2.623   0.406 -0.1452 -0.1739  0.0803
  468SOL    HW2 1918   2.694   2.657   0.317 -1.1391  0.7073  0.3303
  468SOL    HW3 1919   2.617   2.558   0.402 -1.4436  1.1730  0.5968
  468SOL    MW4 1920   2.679   2.619   0.394 -0.4478  0.1197  0.1815
  469SOL     OW 1921   2.423   0.793   0.459  0.3576 -0.0582 -0.2365
  469SOL    HW2 1922   2.453   0.703   0.468 -0.0819 -0.1224  0.6501
  469SOL    HW3 1923   2.501   0.841   0.431  1.1628 -0.3275  1.4881
  469SOL    MW4 1924   2.438   0.788   0.456  0.4058 -0.1022  0.1080
  470SOL     OW 1925   4.301   1.513   0.896 -0.4955  0.2106  0.3687
  470SOL    HW2 1926   4.275   1.516   0.988  1.3953 -0.5292  0.9474
  470SOL    HW3 1927   4.306   1.420   0.875 -0.3319  0.3725 -0.3066
  470SOL    MW4 1928   4.298   1.501   0.906 -0.2246  0.1342  0.3560
  471SOL     OW 1929   4.085   1.899   0.848 -0.1702  0.0724  0.3612
  471SOL    HW2 1930   3.998   1.940   0.849 -0.3128 -0.2150 -0.2482
  471SOL    HW3 1931   4.141   1.962   0.802 -0.5574 -0.7443 -1.2571
  471SOL    MW4 1932   4.081   1.913   0.842 -0.2398 -0.0732  0.0672
  472SOL     OW 1933   0.181   0.547   0.481 -0.0130  0.3143 -0.0710
  472SOL    HW2 1934   0.091   0.514   0.474  0.1221 -0.1710  0.4141
  472SOL    HW3 1935   0.199   0.547   0.575  0.5038  0.3907 -0.1695
  472SOL    MW4 1936   0.171   0.543   0.493  0.0730  0.2604 -0.0200
  473SOL     OW 1937   2.643   3.240   0.431 -0.0944 -0.0825  0.0682
  473SOL    HW2 1938   2.729   3.216   0.397 -0.7057 -1.1843 -0.7345
  473SOL    HW3 1939   2.628   3.328   0.398  0.8645  0.2480  0.4845
  473SOL    MW4 1940   2.652   3.248   0.422 -0.0486 -0.1843  0.0172
  474SOL     OW 1941   1.155   1.194   0.557 -0.0078 -0.3419 -0.7279
  474SOL    HW2 1942   1.208   1.263   0.517  0.3842  0.1113  0.5541
  474SOL    HW3 1943   1.195   1.113   0.525  1.5038 -0.0110  0.2309
  474SOL    MW4 1944   1.167   1.192   0.548  0.2434 -0.2384 -0.4323
  475SOL     OW 1945   4.203   3.921   0.471 -0.0543 -0.6051  0.3250
  475SOL    HW2 1946   4.241   3.903   0.556 -0.3904 -0.3100  0.5407
  475SOL    HW3 1947   4.262   3.880   0.408 -0.3970 -1.8024  0.7630
  475SOL    MW4 1948   4.216   3.913   0.474 -0.1435 -0.7241  0.4113
  476SOL     OW 1949   0.152   4.451   0.345 -0.1076  0.1425  0.2505
  476SOL    HW2 1950   0.094   4.400   0.402  0.8855  0.4125  1.5133
  476SOL    HW3 1951   0.115   4.440   0.258 -1.4069 -0.6200  0.8840
  476SOL    MW4 1952   0.139   4.443   0.341 -0.1480  0.0777  0.5007
  477SOL     OW 1953   3.856   3.103   0.891 -0.2238  0.3227 -0.0537
  477SOL    HW2 1954   3.850   3.010   0.873 -1.3830 -0.0245  1.8862
  477SOL    HW3 1955   3.934   3.133   0.845 -0.0212 -1.5421 -0.9305
  477SOL    MW4 1956   3.865   3.095   0.883 -0.3500  0.0310  0.0865
  478SOL     OW 1957   0.486   2.407   0.525 -0.0052  0.3042  0.3629
  478SOL    HW2 1958   0.518   2.341   0.464 -0.0597  0.1624  0.4894
  478SOL    HW3 1959   0.403   2.437   0.488  0.0938  0.4112  0.2258
  478SOL    MW4 1960   0.480   2.402   0.512  0.0007  0.2992  0.3616
  479SOL     OW 1961   4.101   3.455   0.845  0.2198  0.5548 -0.0491
  479SOL    HW2 1962   4.104   3.451   0.941  1.0527 -2.0645 -0.1494
  479SOL    HW3 1963   4.016   3.494   0.826 -0.8045 -0.7099  1.7489
  479SOL    MW4 1964   4.090   3.460   0.855  0.1945  0.0424  0.1748
  480SOL     OW 1965   0.950   3.436   0.529 -0.0342 -0.0680 -0.0804
  480SOL    HW2 1966   0.915   3.347   0.538  0.0150  0.0367  1.2867
  480SOL    HW3 1967   1.045   3.424   0.527 -0.0244 -0.0407  0.2015
  480SOL    MW4 1968   0.958   3.422   0.530 -0.0264 -0.0505  0.1372
  481SOL     OW 1969   3.793   2.083   0.186  0.1923 -0.2682 -0.4662
  481SOL    HW2 1970   3.856   2.094   0.257  0.3495  0.3950 -0.7046
  481SOL    HW3 1971   3.847   2.080   0.107  0.0875 -1.9709 -0.4735
  481SOL    MW4 1972   3.808   2.084   0.185  0.1991 -0.4053 -0.4986
  482SOL     OW 1973   3.404   0.815   0.446  0.1650  0.2636  0.0655
  482SOL    HW2 1974   3.384   0.722   0.435 -0.9843  0.5784 -0.5793
  482SOL    HW3 1975   3.496   0.817   0.471  0.3243 -1.0275 -0.3874
  482SOL    MW4 1976   3.413   0.803   0.448  0.0346  0.1348 -0.0793
  483SOL     OW 1977   0.310   4.384   0.745 -0.0799 -0.0817  0.2321
  483SOL    HW2 1978   0.231   4.331   0.735  0.3609 -1.1035  1.8729
  483SOL    HW3 1979   0.278   4.473   0.758 -0.8323  0.1535 -2.7992
  483SOL    MW4 1980   0.295   4.388   0.745 -0.1210 -0.1855  0.0486
  484SOL     OW 1981   0.239   3.543   0.744 -0.6775 -0.6297 -0.0545
  484SOL    HW2 1982   0.155   3.524   0.786 -1.0750 -0.0497 -0.5789
  484SOL    HW3 1983   0.266   3.626   0.782  0.5424 -1.6713  1.4447
  484SOL    MW4 1984   0.232   3.551   0.755 -0.5690 -0.6905  0.0741
  485SOL     OW 1985   0.260   4.602   1.098 -0.0004 -0.0751  0.1621
  485SOL    HW2 1986   0.334   4.648   1.139  1.5322 -0.8706 -1.6106
  485SOL    HW3 1987   0.255   4.519   1.145  1.6554 -0.9273 -1.1196
  485SOL    MW4 1988   0.269   4.597   1.110  0.4203 -0.2928 -0.2409
  486SOL     OW 1989   0.034   0.065   1.210 -0.2381  0.3008 -0.5755
  486SOL    HW2 1990  -0.046   0.016   1.197  0.0014 -0.1507 -0.3562
  486SOL    HW3 1991   0.097   0.028   1.148  0.7261 -1.4685  1.3723
  486SOL    MW4 1992   0.032   0.054   1.200 -0.0793  0.0078 -0.2894
  487SOL     OW 1993   0.007   0.338   1.171  0.4351 -0.5084 -0.4286
  487SOL    HW2 1994  -0.069   0.381   1.210  0.2556 -1.9795  0.9106
  487SOL    HW3 1995  -0.009   0.245   1.185  1.8570 -0.9026 -1.3194
  487SOL    MW4 1996  -0.005   0.331   1.178  0.5990 -0.7545 -0.3693
  488SOL     OW 1997   0.227   0.483   1.246 -0.0945  0.1683 -0.1750
  488SOL    HW2 1998   0.223   0.575   1.219  0.0958  0.7132  1.5838
  488SOL    HW3 1999   0.146   0.445   1.211 -0.2457  1.0310 -0.8019
  488SOL    MW4 2000   0.216   0.490   1.238 -0.0894  0.3540 -0.0255
  489SOL     OW 2001   0.230   0.738   1.131  0.4636 -0.2856 -0.6339
  489SOL    HW2 2002   0.299   0.777   1.184 -0.2537 -1.3467  1.1296
  489SOL    HW3 2003   0.150   0.782   1.159  0.1269 -0.6127 -1.0728
  489SOL    MW4 2004   0.228   0.749   1.142  0.3245 -0.4687 -0.4591
  490SOL     OW 2005   0.005   0.865   1.229  0.0420 -0.1515  0.2973
  490SOL    HW2 2006   0.005   0.843   1.322 -1.5669  1.9281  0.8186
  490SOL    HW3 2007  -0.079   0.832   1.196 -0.0036  0.3614 -0.1082
  490SOL    MW4 2008  -0.006   0.858   1.237 -0.1763  0.1906  0.3127
  491SOL     OW 2009   0.001   1.136   1.168  0.0637 -0.1905 -0.4054
  491SOL    HW2 2010  -0.085   1.172   1.192  0.6514  1.2774 -0.4428
  491SOL    HW3 2011   0.002   1.049   1.208 -1.0669  0.1475  0.4147
  491SOL    MW4 2012  -0.010   1.129   1.177 -0.0076  0.0479 -0.3021
  492SOL     OW 2013   0.210   1.292   1.242  0.5280 -0.1193 -0.2969
  492SOL    HW2 2014   0.281   1.245   1.198  0.8318 -1.5364  1.6448
  492SOL    HW3 2015   0.130   1.247   1.214  0.4233  1.1371 -2.0595
  492SOL    MW4 2016   0.209   1.280   1.233  0.5543 -0.1407 -0.2732
  493SOL     OW 2017   0.223   1.549   1.179 -0.1302  0.5820 -0.3313
  493SOL    HW2 2018   0.220   1.455   1.197 -2.5009  0.8409  0.8727
  493SOL    HW3 2019   0.236   1.554   1.084 -0.5526 -0.9688 -0.4970
  493SOL    MW4 2020   0.224   1.537   1.168 -0.4987  0.4115 -0.1942
  494SOL     OW 2021   4.438   1.667   1.243 -0.0994  0.5278  0.0076
  494SOL    HW2 2022   4.464   1.753   1.211 -0.9008  1.2103  1.1423
  494SOL    HW3 2023   4.517   1.613   1.234  1.0225  1.9286  1.1845
  494SOL    MW4 2024   4.452   1.671   1.238 -0.0572  0.8026  0.3126
  495SOL     OW 2025   0.029   1.920   1.139 -0.3694  0.2003  0.0216
  495SOL    HW2 2026  -0.044   1.973   1.172 -0.1667  0.8220 -0.5238
  495SOL    HW3 2027   0.020   1.923   1.044  0.3698  0.2910 -0.0491
  495SOL    MW4 2028   0.018   1.927   1.131 -0.2451  0.2944 -0.0598
  496SOL     OW 2029   0.247   2.056   1.231  0.1299 -0.5081  0.3282
  496SOL    HW2 2030   0.258   2.133   1.175 -0.8750 -0.1301  0.6443
  496SOL    HW3 2031   0.180   2.003   1.187  1.2142 -1.4804 -0.1778
  496SOL    MW4 2032   0.240   2.059   1.218  0.1404 -0.5863  0.3031
  497SOL     OW 2033   0.263   2.290   1.098 -0.3173  0.1050  0.0999
  497SOL    HW2 2034   0.320   2.351   1.146 -0.7285 -0.5247  1.4068
  497SOL    HW3 2035   0.175   2.323   1.112 -0.3837  0.4155 -0.9725
  497SOL    MW4 2036   0.259   2.302   1.106 -0.3803  0.0627  0.1308
  498SOL     OW 2037   0.036   2.403   1.241 -0.5695 -0.7492  0.0897
  498SOL    HW2 2038   0.050   2.412   1.335  1.1147 -1.5514 -0.0514
  498SOL    HW3 2039  -0.047   2.357   1.232 -2.0656  1.6752  1.1083
  498SOL    MW4 2040   0.027   2.398   1.252 -0.5446 -0.5350  0.2056
  499SOL     OW 2041   0.014   2.691   1.161  0.0635 -0.1570  0.7026
  499SOL    HW2 2042  -0.057   2.740   1.203  0.1126 -0.4144  1.0820
  499SOL    HW3 2043   0.003   2.602   1.193  1.6488  0.1526  2.1570
  499SOL    MW4 2044   0.003   2.686   1.171  0.2792 -0.1500  0.9445
  500SOL     OW 2045   0.230   2.858   1.199  0.1846  0.3028 -0.3223
  500SOL    HW2 2046   0.236   2.856   1.294 -0.3381  0.6646 -0.2774
  500SOL    HW3 2047   0.163   2.793   1.178 -0.2147  0.7332 -0.3925
  500SOL    MW4 2048   0.222   2.849   1.209  0.0629  0.4072 -0.3257
  501SOL     OW 2049   0.231   3.118   1.116  0.5539  0.1177 -0.1844
  501SOL    HW2 2050   0.300   3.168   1.159  0.4605  1.6302 -1.7636
  501SOL    HW3 2051   0.249   3.027   1.141  0.8546  0.8869  2.5146
  501SOL    MW4 2052   0.243   3.112   1.125  0.5813  0.4189 -0.0367
  502SOL     OW 2053   0.042   3.224   1.286 -0.3742  0.1719  0.2906
  502SOL    HW2 2054  -0.035   3.166   1.287 -1.9196  2.1468  0.4171
  502SOL    HW3 2055   0.104   3.181   1.228 -1.2903 -1.8215  0.7306
  502SOL    MW4 2056   0.040   3.211   1.279 -0.6990  0.1693  0.3654
  503SOL     OW 2057   4.483   3.469   1.158 -0.0260  0.2534 -0.1542
  503SOL    HW2 2058   4.489   3.380   1.193 -0.2208  0.1449 -0.3936
  503SOL    HW3 2059   4.486   3.457   1.063 -1.3942  0.3975 -0.2259
  503SOL    MW4 2060   4.485   3.455   1.150 -0.2322  0.2580 -0.1954
  504SOL     OW 2061   0.226   3.576   1.260  0.1690  0.0029 -0.4567
  504SOL    HW2 2062   0.213   3.580   1.355  0.5903 -0.2081 -0.3873
  504SOL    HW3 2063   0.153   3.522   1.228 -0.3120  0.5694 -0.3275
  504SOL    MW4 2064   0.214   3.569   1.268  0.1611  0.0498 -0.4305
  505SOL     OW 2065   0.244   3.836   1.138 -0.0306  0.2058 -0.6245
  505SOL    HW2 2066   0.180   3.895   1.177  1.1573  1.4122 -0.4413
  505SOL    HW3 2067   0.233   3.754   1.184 -0.7560  0.7099  0.0999
  505SOL    MW4 2068   0.234   3.833   1.149  0.0304  0.4315 -0.5047
  506SOL     OW 2069   0.025   4.023   1.254 -0.2992 -0.3819  0.0025
  506SOL    HW2 2070   0.011   4.023   1.349  0.8849 -0.3793  0.1821
  506SOL    HW3 2071  -0.052   3.979   1.218 -0.5998 -0.6657  0.9889
  506SOL    MW4 2072   0.013   4.018   1.262 -0.1827 -0.4187  0.1563
  507SOL     OW 2073   0.031   4.254   1.123 -0.0055 -0.5048  0.2004
  507SOL    HW2 2074   0.112   4.296   1.154 -1.3515  0.5678  2.4297
  507SOL    HW3 2075   0.025   4.173   1.175 -0.4712 -0.4534  0.2327
  507SOL    MW4 2076   0.041   4.249   1.134 -0.2445 -0.3562  0.4987
  508SOL     OW 2077   0.262   4.356   1.221  0.4017 -0.0078 -0.4134
  508SOL    HW2 2078   0.337   4.304   1.192  0.4765  0.0395 -0.3109
  508SOL    HW3 2079   0.267   4.353   1.317  0.8418  0.7852 -0.3972
  508SOL    MW4 2080   0.273   4.349   1.230  0.4697  0.1035 -0.3978
  509SOL     OW 2081   0.680   4.604   1.108  0.2489 -0.2420 -0.1479
  509SOL    HW2 2082   0.768   4.637   1.124  0.3673 -0.8957  0.6163
  509SOL    HW3 2083   0.681   4.515   1.145 -0.3541 -0.7190 -1.2617
  509SOL    MW4 2084   0.691   4.597   1.115  0.1850 -0.3915 -0.1941
  510SOL     OW 2085   0.468   0.087   1.224  0.5183  0.4292 -0.0637
  510SOL    HW2 2086   0.467   0.181   1.204  1.0255  0.5259  0.3329
  510SOL    HW3 2087   0.538   0.051   1.169  0.0184  0.2071 -0.5486
  510SOL    MW4 2088   0.477   0.095   1.214  0.5193  0.4127 -0.0753
  511SOL     OW 2089   0.440   0.342   1.147 -0.0900  0.1113  0.2269
  511SOL    HW2 2090   0.362   0.389   1.176  0.0991  0.8179 -0.4246
  511SOL    HW3 2091   0.429   0.330   1.053 -0.0189 -0.9301  0.3362
  511SOL    MW4 2092   0.428   0.346   1.138 -0.0557  0.0671  0.1553
  512SOL     OW 2093   0.683   0.462   1.236 -0.1914  0.3018  0.2593
  512SOL    HW2 2094   0.677   0.553   1.207 -0.5116  0.2253  0.0731
  512SOL    HW3 2095   0.601   0.423   1.207  0.7196 -0.5062 -1.2609
  512SOL    MW4 2096   0.671   0.469   1.229 -0.1135  0.1851  0.0341
  513SOL     OW 2097   0.666   0.714   1.143 -0.3133 -0.3004  0.3171
  513SOL    HW2 2098   0.591   0.773   1.153 -0.8235 -0.8491 -0.2472
  513SOL    HW3 2099   0.679   0.707   1.048 -0.5672 -1.4917  0.3667
  513SOL    MW4 2100   0.658   0.721   1.132 -0.4141 -0.5300  0.2490
  514SOL     OW 2101   0.450   0.863   1.224 -0.4825 -0.5367 -0.0044
  514SOL    HW2 2102   0.458   0.876   1.319  1.5848 -0.0482 -0.2129
  514SOL    HW3 2103   0.424   0.949   1.191 -1.4937 -0.7815  0.1403
  514SOL    MW4 2104   0.448   0.876   1.232 -0.3431 -0.5045 -0.0129
  515SOL     OW 2105   0.410   1.120   1.154  0.2839  0.0169  0.2176
  515SOL    HW2 2106   0.482   1.153   1.208  0.1401  1.3343 -0.3859
  515SOL    HW3 2107   0.437   1.137   1.064 -0.5768  0.1133 -0.0320
  515SOL    MW4 2108   0.423   1.126   1.149  0.1514  0.2033  0.1051
  516SOL     OW 2109   0.610   1.225   1.296 -0.0005 -0.3796 -0.3489
  516SOL    HW2 2110   0.684   1.171   1.269  1.5573  0.2466  2.4717
  516SOL    HW3 2111   0.625   1.310   1.255 -0.1038 -0.7629 -1.1934
  516SOL    MW4 2112   0.622   1.229   1.287  0.1913 -0.3475 -0.0881
  517SOL     OW 2113   0.661   1.486   1.184  0.1898 -0.7628  0.4575
  517SOL    HW2 2114   0.743   1.525   1.214  0.4949  0.7774 -2.2261
  517SOL    HW3 2115   0.597   1.557   1.190 -0.1244 -0.9270 -0.8506
  517SOL    MW4 2116   0.663   1.500   1.189  0.1886 -0.5813 -0.0690
  518SOL     OW 2117   0.469   1.680   1.245  0.2515 -0.6917 -0.4902
  518SOL    HW2 2118   0.485   1.688   1.339  0.3926 -1.0387 -0.4840
  518SOL    HW3 2119   0.381   1.641   1.239  0.1462 -0.4569 -0.5071
  518SOL    MW4 2120   0.459   1.676   1.257  0.2562 -0.7066 -0.4915
  519SOL     OW 2121   0.476   1.941   1.142 -0.9158  0.4249 -0.6578
  519SOL    HW2 2122   0.480   1.848   1.166 -2.1836  0.5218 -0.0338
  519SOL    HW3 2123   0.397   1.974   1.185 -0.5323  1.7762 -0.9547
  519SOL    MW4 2124   0.466   1.933   1.150 -1.0325  0.6161 -0.6145
  520SOL     OW 2125   0.701   2.076   1.226  0.2158 -0.1441  0.0835
  520SOL    HW2 2126   0.687   2.062   1.319  1.1516  0.8407  0.3900
  520SOL    HW3 2127   0.617   2.057   1.185 -0.5455  0.6272  1.2697
  520SOL    MW4 2128   0.688   2.072   1.233  0.2388  0.0875  0.2805
  521SOL     OW 2129   0.676   2.309   1.109  0.1781 -0.4434  0.1201
  521SOL    HW2 2130   0.591   2.334   1.147  1.0377 -0.5195  2.1812
  521SOL    HW3 2131   0.703   2.232   1.160  1.5486 -0.3280 -0.4137
  521SOL    MW4 2132   0.668   2.302   1.121  0.4724 -0.4382  0.3216
  522SOL     OW 2133   0.466   2.445   1.229  0.2627  0.7014 -0.4953
  522SOL    HW2 2134   0.477   2.449   1.325  0.8268 -0.1291 -0.5173
  522SOL    HW3 2135   0.457   2.536   1.203 -0.4943  0.9021  0.4189
  522SOL    MW4 2136   0.466   2.457   1.238  0.2373  0.6185 -0.3775
  523SOL     OW 2137   0.459   2.712   1.124 -0.2206 -0.0917 -0.9761
  523SOL    HW2 2138   0.388   2.762   1.165  1.1888  1.1204 -0.0003
  523SOL    HW3 2139   0.465   2.748   1.035  0.9345  1.6358 -0.2102
  523SOL    MW4 2140   0.450   2.723   1.118  0.1178  0.2961 -0.7461
  524SOL     OW 2141   0.708   2.790   1.203 -0.0942  0.2627 -0.3053
  524SOL    HW2 2142   0.691   2.883   1.190 -0.1292  0.1842 -0.8480
  524SOL    HW3 2143   0.626   2.747   1.178  0.9934 -0.1561 -3.4317
  524SOL    MW4 2144   0.695   2.797   1.198  0.0447  0.1969 -0.7893
  525SOL     OW 2145   0.690   3.080   1.164  0.0574 -0.1641 -0.0449
  525SOL    HW2 2146   0.778   3.107   1.191  1.0283 -2.6990 -0.5327
  525SOL    HW3 2147   0.698   3.060   1.071 -0.8678 -1.0547  0.0522
  525SOL    MW4 2148   0.702   3.081   1.156  0.0635 -0.6161 -0.0966
  526SOL     OW 2149   0.463   3.237   1.239  0.1567 -0.0200 -0.0304
  526SOL    HW2 2150   0.458   3.318   1.188 -0.6191 -0.9484 -1.4734
  526SOL    HW3 2151   0.544   3.195   1.212  0.8320  0.5121  1.1153
  526SOL    MW4 2152   0.473   3.242   1.229  0.1435 -0.0725 -0.0695
  527SOL     OW 2153   0.447   3.479   1.113 -0.0015  0.2642  0.0761
  527SOL    HW2 2154   0.520   3.527   1.151  0.1786 -0.3920  0.5533
  527SOL    HW3 2155   0.369   3.518   1.154  0.1427  0.1468  0.4583
  527SOL    MW4 2156   0.446   3.491   1.123  0.0413  0.1619  0.1895
  528SOL     OW 2157   0.657   3.578   1.251 -0.0383 -0.3315  0.1801
  528SOL    HW2 2158   0.656   3.570   1.346  0.2347 -1.7580  0.0843
  528SOL    HW3 2159   0.693   3.665   1.234 -0.0181 -0.1008  1.3772
  528SOL    MW4 2160   0.662   3.588   1.261  0.0004 -0.4895  0.3254
  529SOL     OW 2161   0.775   3.813   1.153  0.6253 -0.2071  0.3813
  529SOL    HW2 2162   0.703   3.864   1.191  0.5495 -0.9884  1.3100
  529SOL    HW3 2163   0.757   3.811   1.059 -0.4878 -0.2691  0.5882
  529SOL    MW4 2164   0.763   3.820   1.146  0.4685 -0.3183  0.5312
  530SOL     OW 2165   0.523   3.921   1.215  0.0116 -0.2216  0.2718
  530SOL    HW2 2166   0.448   3.877   1.176  0.0115  0.2284 -0.2475
  530SOL    HW3 2167   0.489   3.957   1.297 -0.7217  1.1739 -0.6155
  530SOL    MW4 2168   0.508   3.920   1.221 -0.0852  0.0217  0.0861
  531SOL     OW 2169   0.485   4.191   1.124  0.3393  0.2248  0.3981
  531SOL    HW2 2170   0.548   4.240   1.176  1.0491 -0.6591  0.3744
  531SOL    HW3 2171   0.503   4.099   1.143  0.0419 -0.0818 -0.7343
  531SOL    MW4 2172   0.495   4.186   1.133  0.3937  0.0677  0.2455
  532SOL     OW 2173   0.682   4.351   1.243 -0.1920  0.0261  0.1201
  532SOL    HW2 2174   0.766   4.309   1.223  1.2356  2.7908 -0.0673
  532SOL    HW3 2175   0.673   4.341   1.338 -0.8447 -2.3417 -0.1709
  532SOL    MW4 2176   0.692   4.345   1.253 -0.0898  0.0782  0.0570
  533SOL     OW 2177   1.172   4.663   1.163  0.1902  0.1121  0.4496
  533SOL    HW2 2178   1.168   4.571   1.191  1.6423 -0.0119  0.2822
  533SOL    HW3 2179   1.154   4.660   1.069 -1.1723  0.1516  0.7072
  533SOL    MW4 2180   1.169   4.650   1.154  0.2021  0.1016  0.4615
  534SOL     OW 2181   0.915   0.044   1.221  0.4152  0.3069 -0.2655
  534SOL    HW2 2182   0.916   0.037   1.316  0.3557 -2.4124 -0.4065
  534SOL    HW3 2183   1.007   0.039   1.195  0.4498  1.2943 -0.3419
  534SOL    MW4 2184   0.927   0.042   1.230  0.4120  0.0784 -0.2942
  535SOL     OW 2185   0.905   0.317   1.162 -0.3624 -0.4042 -0.2762
  535SOL    HW2 2186   0.906   0.226   1.191 -1.1221 -0.1266  0.6573
  535SOL    HW3 2187   0.822   0.352   1.195 -0.5449  0.3529 -1.4859
  535SOL    MW4 2188   0.894   0.310   1.170 -0.4867 -0.2677 -0.3126
  536SOL     OW 2189   1.139   0.458   1.231 -0.3675 -0.3919  0.1245
  536SOL    HW2 2190   1.132   0.470   1.326 -0.3597 -0.8928  0.1920
  536SOL    HW3 2191   1.065   0.402   1.209 -1.0593  0.7025 -0.3480
  536SOL    MW4 2192   1.128   0.452   1.241 -0.4578 -0.3136  0.0709
  537SOL     OW 2193   1.093   0.727   1.148  0.1839  0.2586 -0.0160
  537SOL    HW2 2194   1.027   0.772   1.201  1.3663  1.0183  0.8724
  537SOL    HW3 2195   1.095   0.638   1.183 -0.0902  0.3449  0.2262
  537SOL    MW4 2196   1.085   0.721   1.160  0.3036  0.3702  0.1332
  538SOL     OW 2197   0.884   0.857   1.264 -0.0084  0.0985  0.2688
  538SOL    HW2 2198   0.877   0.949   1.240 -1.3864  0.2853  1.3374
  538SOL    HW3 2199   0.810   0.815   1.220 -0.0249 -0.3046  0.6811
  538SOL    MW4 2200   0.873   0.863   1.255 -0.1924  0.0700  0.4641
  539SOL     OW 2201   0.879   1.124   1.206 -0.1262 -0.0252 -0.2764
  539SOL    HW2 2202   0.940   1.197   1.218  1.0494 -0.9044 -0.8248
  539SOL    HW3 2203   0.877   1.109   1.112 -0.2685 -0.7715 -0.1616
  539SOL    MW4 2204   0.886   1.132   1.196  0.0102 -0.2396 -0.3335
  540SOL     OW 2205   1.141   1.272   1.209 -0.0582  0.1325  0.0631
  540SOL    HW2 2206   1.144   1.261   1.304 -2.1773  0.1108  0.1427
  540SOL    HW3 2207   1.216   1.221   1.177 -0.3029 -1.2435  1.6068
  540SOL    MW4 2208   1.152   1.264   1.217 -0.3700 -0.0520  0.2773
  541SOL     OW 2209   1.107   1.526   1.127 -0.3668 -0.2297  0.3247
  541SOL    HW2 2210   1.128   1.531   1.033 -2.6627 -1.3969 -0.2939
  541SOL    HW3 2211   1.125   1.435   1.150  0.4917  0.1352  1.0969
  541SOL    MW4 2212   1.112   1.515   1.117 -0.5565 -0.3356  0.3449
  542SOL     OW 2213   0.905   1.638   1.269  0.1359  0.2096  0.0249
  542SOL    HW2 2214   0.897   1.728   1.237 -1.1683  0.0781 -0.0288
  542SOL    HW3 2215   0.965   1.596   1.207 -0.0751  0.7478 -0.5494
  542SOL    MW4 2216   0.912   1.644   1.256 -0.0641  0.2633 -0.0581
  543SOL     OW 2217   0.896   1.892   1.189  0.6362 -0.1057 -0.0156
  543SOL    HW2 2218   0.983   1.919   1.219 -0.0648 -0.1400  2.0685
  543SOL    HW3 2219   0.840   1.967   1.207  0.1610 -0.1940 -1.0944
  543SOL    MW4 2220   0.900   1.905   1.195  0.4811 -0.1218  0.1169
  544SOL     OW 2221   1.167   2.062   1.273 -0.3036 -0.0375  0.0698
  544SOL    HW2 2222   1.140   2.078   1.364  0.8814 -1.4752  0.6941
  544SOL    HW3 2223   1.165   2.149   1.232  2.0958  1.1367  2.2844
  544SOL    MW4 2224   1.163   2.076   1.280  0.1694 -0.0722  0.4444
  545SOL     OW 2225   1.206   2.298   1.112  0.4498  0.1284 -0.4278
  545SOL    HW2 2226   1.285   2.348   1.127  0.3441  0.3669 -0.6758
  545SOL    HW3 2227   1.134   2.358   1.134  0.3379 -0.1262 -0.0783
  545SOL    MW4 2228   1.207   2.312   1.117  0.4212  0.1264 -0.4144
  546SOL     OW 2229   0.948   2.407   1.195 -0.0291  0.4823 -0.1359
  546SOL    HW2 2230   0.945   2.406   1.291  1.7828  0.4602 -0.0651
  546SOL    HW3 2231   0.860   2.381   1.168 -0.7045  0.9612  1.5207
  546SOL    MW4 2232   0.936   2.404   1.204  0.1209  0.5426  0.0920
  547SOL     OW 2233   0.937   2.662   1.082  0.0440 -0.3549 -0.0528
  547SOL    HW2 2234   0.947   2.579   1.129  0.2327 -0.8808 -1.0177
  547SOL    HW3 2235   0.858   2.701   1.119  1.0009 -0.0597  1.7626
  547SOL    MW4 2236   0.928   2.656   1.093  0.1952 -0.3850  0.0594
  548SOL     OW 2237   1.148   2.792   1.193  0.3116  0.0892 -0.2479
  548SOL    HW2 2238   1.126   2.793   1.287 -0.8021 -0.5949 -0.4922
  548SOL    HW3 2239   1.071   2.755   1.151  0.8525  0.2978 -1.4361
  548SOL    MW4 2240   1.135   2.787   1.200  0.2359  0.0265 -0.4369
  549SOL     OW 2241   1.144   3.076   1.183 -0.3840 -0.3496  0.1306
  549SOL    HW2 2242   1.146   2.981   1.196  0.8446 -0.2279  0.9403
  549SOL    HW3 2243   1.157   3.088   1.089  2.4149 -0.9138  0.3992
  549SOL    MW4 2244   1.146   3.065   1.172  0.1475 -0.4077  0.2729
  550SOL     OW 2245   0.919   3.202   1.280 -0.0702 -0.6211 -0.2872
  550SOL    HW2 2246   0.918   3.286   1.235 -1.0378 -0.6408 -0.3089
  550SOL    HW3 2247   0.995   3.156   1.245 -0.5015 -0.4141 -1.5036
  550SOL    MW4 2248   0.929   3.207   1.270 -0.2548 -0.5965 -0.4506
  551SOL     OW 2249   0.902   3.463   1.178 -0.1998 -0.7200  0.0384
  551SOL    HW2 2250   0.817   3.498   1.204 -0.3695 -1.4056  0.3889
  551SOL    HW3 2251   0.895   3.452   1.083 -0.0482  0.4682 -0.1165
  551SOL    MW4 2252   0.890   3.466   1.169 -0.2022 -0.6537  0.0643
  552SOL     OW 2253   1.142   3.611   1.254 -0.4384  0.0474 -0.7024
  552SOL    HW2 2254   1.209   3.557   1.214 -0.8627 -0.8966 -0.1607
  552SOL    HW3 2255   1.059   3.572   1.226 -0.7555  0.6225 -0.5864
  552SOL    MW4 2256   1.140   3.599   1.245 -0.5363 -0.0012 -0.6157
  553SOL     OW 2257   1.147   3.863   1.145  0.5318  0.9399  0.2185
  553SOL    HW2 2258   1.090   3.917   1.200  0.6166  0.3172  0.9195
  553SOL    HW3 2259   1.145   3.777   1.186 -0.2139  0.2102 -1.3211
  553SOL    MW4 2260   1.139   3.859   1.158  0.4447  0.7613  0.1078
  554SOL     OW 2261   0.939   4.008   1.288  0.6345  0.1095 -0.0431
  554SOL    HW2 2262   0.916   4.008   1.381  0.4558  0.7980 -0.0879
  554SOL    HW3 2263   0.874   3.950   1.247  0.4874  0.1004  0.2029
  554SOL    MW4 2264   0.928   4.000   1.295  0.5915  0.1988 -0.0166
  555SOL     OW 2265   0.949   4.276   1.141 -0.1030 -0.1430 -0.3333
  555SOL    HW2 2266   0.919   4.260   1.051  0.2224  0.1322 -0.4941
  555SOL    HW3 2267   0.957   4.189   1.179  0.1091 -0.2799 -0.6882
  555SOL    MW4 2268   0.946   4.263   1.134 -0.0320 -0.1245 -0.4014
  556SOL     OW 2269   1.165   4.394   1.254 -0.1735  0.0133 -0.2741
  556SOL    HW2 2270   1.150   4.388   1.349 -1.4894  0.8327 -0.4218
  556SOL    HW3 2271   1.092   4.346   1.215  0.1223  0.0581 -0.8854
  556SOL    MW4 2272   1.154   4.387   1.262 -0.3080  0.1278 -0.3743
  557SOL     OW 2273   1.611   4.666   1.157 -0.6290 -0.2130 -0.2263
  557SOL    HW2 2274   1.669   4.714   1.216 -1.0345 -1.0227  0.8643
  557SOL    HW3 2275   1.617   4.575   1.188 -1.7810 -0.4451 -0.6658
  557SOL    MW4 2276   1.619   4.660   1.169 -0.8346 -0.3505 -0.1403
  558SOL     OW 2277   1.384   0.134   1.254  0.0988 -0.2522 -0.2834
  558SOL    HW2 2278   1.458   0.077   1.231 -0.1577 -0.7998  0.2323
  558SOL    HW3 2279   1.307   0.086   1.224  0.0869  1.3277 -2.8181
  558SOL    MW4 2280   1.384   0.120   1.247  0.0634 -0.1160 -0.5497
  559SOL     OW 2281   1.378   0.372   1.107  0.1350  0.1474 -0.3930
  559SOL    HW2 2282   1.393   0.292   1.157 -0.1436 -0.4454 -1.2583
  559SOL    HW3 2283   1.296   0.407   1.142 -0.5624 -0.7764 -1.0914
  559SOL    MW4 2284   1.369   0.366   1.118  0.0062 -0.0527 -0.5994
  560SOL     OW 2285   1.584   0.516   1.239 -0.3030 -0.5506  0.1911
  560SOL    HW2 2286   1.570   0.598   1.191 -0.7721 -0.4625  0.4785
  560SOL    HW3 2287   1.517   0.456   1.205 -0.1537 -0.7217  0.1962
  560SOL    MW4 2288   1.573   0.519   1.228 -0.3452 -0.5617  0.2297
  561SOL     OW 2289   1.550   0.757   1.086  0.2367 -0.6543 -0.2946
  561SOL    HW2 2290   1.557   0.766   0.991  1.0082 -0.7986 -0.2489
  561SOL    HW3 2291   1.633   0.790   1.120 -1.1463  2.1961  0.5048
  561SOL    MW4 2292   1.562   0.763   1.078  0.1559 -0.2972 -0.1832
  562SOL     OW 2293   1.331   0.846   1.236  0.2952 -0.2632 -0.5888
  562SOL    HW2 2294   1.397   0.817   1.173 -0.2928  0.8887 -1.7581
  562SOL    HW3 2295   1.249   0.809   1.204  0.1468 -0.5199  0.0778
  562SOL    MW4 2296   1.329   0.837   1.223  0.1981 -0.1450 -0.6551
  563SOL     OW 2297   1.366   1.111   1.163  0.0497  0.1047  0.3124
  563SOL    HW2 2298   1.370   1.026   1.206  1.3857  0.0986  0.1678
  563SOL    HW3 2299   1.397   1.096   1.074  0.0304  0.6967  0.2004
  563SOL    MW4 2300   1.370   1.098   1.157  0.2234  0.1820  0.2786
  564SOL     OW 2301   1.586   1.254   1.229  0.3279 -0.1417 -0.1902
  564SOL    HW2 2302   1.656   1.210   1.181  0.6265 -0.6554  0.7202
  564SOL    HW3 2303   1.506   1.213   1.197  0.5555 -0.8046  0.0947
  564SOL    MW4 2304   1.585   1.243   1.218  0.3972 -0.2971 -0.0324
  565SOL     OW 2305   1.564   1.523   1.130  0.3860  0.1934 -0.3341
  565SOL    HW2 2306   1.646   1.563   1.158  0.3351  0.5697 -0.7123
  565SOL    HW3 2307   1.563   1.437   1.173 -0.2692  1.2299  1.7940
  565SOL    MW4 2308   1.575   1.517   1.139  0.2928  0.3799 -0.1032
  566SOL     OW 2309   1.317   1.658   1.259  0.3242  0.1208  0.0881
  566SOL    HW2 2310   1.398   1.612   1.237  0.7891  0.6988  0.5976
  566SOL    HW3 2311   1.249   1.608   1.214  0.7620 -1.3724  1.0176
  566SOL    MW4 2312   1.319   1.645   1.250  0.4432  0.0000  0.2780
  567SOL     OW 2313   1.333   1.905   1.112  0.0564  0.3420 -0.0186
  567SOL    HW2 2314   1.318   1.817   1.146  1.1550  0.4300  0.7355
  567SOL    HW3 2315   1.278   1.962   1.165  0.1144  0.2169  0.1787
  567SOL    MW4 2316   1.324   1.901   1.123  0.2091  0.3371  0.1068
  568SOL     OW 2317   1.552   2.046   1.215 -0.1960 -0.3810 -0.1508
  568SOL    HW2 2318   1.465   2.017   1.187 -0.4994  1.4927 -1.1948
  568SOL    HW3 2319   1.576   2.114   1.152  1.4363  0.0967  0.9651
  568SOL    MW4 2320   1.544   2.051   1.203 -0.0207 -0.0708 -0.1414
  569SOL     OW 2321   1.578   2.273   1.067  0.1816 -0.6161 -0.1564
  569SOL    HW2 2322   1.519   2.339   1.103 -0.1381 -0.7813 -0.3724
  569SOL    HW3 2323   1.566   2.278   0.973  1.2997  0.0680 -0.2670
  569SOL    MW4 2324   1.568   2.282   1.060  0.2868 -0.5476 -0.1994
  570SOL     OW 2325   1.429   2.434   1.214  0.1544  0.3086 -0.2383
  570SOL    HW2 2326   1.396   2.442   1.303  1.4751  0.0084  0.2857
  570SOL    HW3 2327   1.412   2.520   1.174 -0.5243  0.4091  0.2720
  570SOL    MW4 2328   1.423   2.447   1.220  0.2391  0.2823 -0.1018
  571SOL     OW 2329   1.390   2.676   1.102  0.0009 -0.5885  0.0626
  571SOL    HW2 2330   1.457   2.727   1.147  0.0047 -0.6375  0.1121
  571SOL    HW3 2331   1.307   2.713   1.133  0.0061  0.4945 -1.1461
  571SOL    MW4 2332   1.387   2.688   1.112  0.0020 -0.4520 -0.0902
  572SOL     OW 2333   1.597   2.840   1.208  0.4684 -0.0265  0.5399
  572SOL    HW2 2334   1.680   2.799   1.181  0.0626 -0.3318 -0.2815
  572SOL    HW3 2335   1.588   2.915   1.149  0.6948  0.6494  1.3571
  572SOL    MW4 2336   1.607   2.844   1.196  0.4448  0.0224  0.5393
  573SOL     OW 2337   1.596   3.097   1.078  0.3370  0.0415 -0.1744
  573SOL    HW2 2338   1.672   3.125   1.127  0.5383 -1.8032  0.5941
  573SOL    HW3 2339   1.521   3.127   1.129  0.5505 -0.4406  0.4217
  573SOL    MW4 2340   1.596   3.105   1.091  0.3917 -0.2651  0.0056
  574SOL     OW 2341   1.380   3.212   1.243 -0.0374  1.0817  0.3460
  574SOL    HW2 2342   1.384   3.204   1.339 -0.3575  0.0086  0.2673
  574SOL    HW3 2343   1.301   3.165   1.218  0.0234  1.4020 -0.4523
  574SOL    MW4 2344   1.370   3.205   1.253 -0.0715  0.9825  0.2303
  575SOL     OW 2345   1.346   3.472   1.144 -0.8021 -0.3309 -0.1785
  575SOL    HW2 2346   1.367   3.382   1.168 -0.8468 -0.3597 -0.2504
  575SOL    HW3 2347   1.352   3.474   1.049 -1.5887 -0.4544 -0.2346
  575SOL    MW4 2348   1.350   3.461   1.135 -0.9120 -0.3507 -0.1954
  576SOL     OW 2349   1.573   3.613   1.258  0.6962  0.0684  0.2711
  576SOL    HW2 2350   1.577   3.696   1.209  1.4386  0.5326  1.1163
  576SOL    HW3 2351   1.500   3.566   1.218 -1.2847  2.1328  1.3450
  576SOL    MW4 2352   1.564   3.618   1.246  0.5327  0.4017  0.5243
  577SOL     OW 2353   1.631   3.861   1.146 -0.0135 -0.1542  0.5955
  577SOL    HW2 2354   1.559   3.901   1.195  1.6845  1.0461  2.1775
  577SOL    HW3 2355   1.620   3.894   1.056 -0.8354  0.8379  1.0481
  577SOL    MW4 2356   1.620   3.871   1.140  0.1022  0.1352  0.8639
  578SOL     OW 2357   1.401   3.967   1.238  0.0605  0.3965 -0.1897
  578SOL    HW2 2358   1.391   4.061   1.222 -1.6273  0.2718  0.0880
  578SOL    HW3 2359   1.323   3.927   1.200 -0.1207 -0.7123  1.2930
  578SOL    MW4 2360   1.389   3.974   1.231 -0.1861  0.2339  0.0426
  579SOL     OW 2361   1.384   4.249   1.165 -0.2863 -0.2460  0.2277
  579SOL    HW2 2362   1.315   4.299   1.209  0.5813  2.1175 -1.0437
  579SOL    HW3 2363   1.379   4.277   1.074  1.4798 -1.0817 -0.1352
  579SOL    MW4 2364   1.374   4.259   1.159  0.0613 -0.0443  0.0120
  580SOL     OW 2365   1.608   4.408   1.252  0.4108 -0.5173  0.2812
  580SOL    HW2 2366   1.595   4.410   1.346 -0.0656 -1.3747  0.2332
  580SOL    HW3 2367   1.541   4.349   1.219 -0.2302  0.7415 -0.7320
  580SOL    MW4 2368   1.597   4.401   1.260  0.2635 -0.4649  0.1413
  581SOL     OW 2369   2.021   0.013   1.197 -0.2449  0.4528  0.2141
  581SOL    HW2 2370   2.028  -0.082   1.209 -1.2882  0.5768  1.9350
  581SOL    HW3 2371   2.025   0.025   1.102  0.5109 -1.2538 -0.0017
  581SOL    MW4 2372   2.023   0.002   1.186 -0.2830  0.2437  0.4126
  582SOL     OW 2373   1.801   0.132   1.307  0.3355 -0.3337 -0.2484
  582SOL    HW2 2374   1.815   0.222   1.276 -1.3235 -0.0157 -0.1401
  582SOL    HW3 2375   1.873   0.082   1.270  2.2940  1.3789  1.1210
  582SOL    MW4 2376   1.812   0.137   1.298  0.3750 -0.0658 -0.0536
  583SOL     OW 2377   1.811   0.380   1.169  0.4634  0.2404 -0.1908
  583SOL    HW2 2378   1.784   0.369   1.078 -0.3117 -0.4787  0.1170
  583SOL    HW3 2379   1.741   0.431   1.209  0.5427  0.1087  0.1227
  583SOL    MW4 2380   1.798   0.385   1.163  0.3717  0.1281 -0.1088
  584SOL     OW 2381   2.029   0.522   1.252  0.1979 -0.2232 -0.1466
  584SOL    HW2 2382   2.029   0.512   1.348  1.5233 -0.8758 -0.2164
  584SOL    HW3 2383   1.951   0.475   1.224  0.1540 -0.5917  0.5594
  584SOL    MW4 2384   2.019   0.515   1.261  0.3674 -0.3579 -0.0628
  585SOL     OW 2385   2.031   0.784   1.134  0.1701  0.1554  0.1118
  585SOL    HW2 2386   2.039   0.699   1.178  0.3293 -0.1120 -0.4323
  585SOL    HW3 2387   2.039   0.764   1.041  0.0356  0.7476 -0.0302
  585SOL    MW4 2388   2.033   0.770   1.128  0.1733  0.1982  0.0213
  586SOL     OW 2389   1.779   0.881   1.192  0.1685 -0.1533  0.2607
  586SOL    HW2 2390   1.790   0.882   1.288  0.4581  1.2436  0.2171
  586SOL    HW3 2391   1.858   0.838   1.160  0.0494 -0.6742  0.6447
  586SOL    MW4 2392   1.791   0.875   1.201  0.1910 -0.0377  0.3058
  587SOL     OW 2393   1.797   1.135   1.094  0.6509 -0.0817  0.1743
  587SOL    HW2 2394   1.794   1.047   1.130 -0.6754 -0.1563 -0.0893
  587SOL    HW3 2395   1.798   1.122   0.999  1.4154  0.1628  0.1519
  587SOL    MW4 2396   1.797   1.122   1.086  0.5769 -0.0592  0.1366
  588SOL     OW 2397   1.997   1.229   1.246 -0.2658 -0.0258  0.2529
  588SOL    HW2 2398   2.081   1.202   1.209 -0.4215  1.1398 -0.9982
  588SOL    HW3 2399   1.932   1.199   1.183 -0.8430 -1.4586  1.5198
  588SOL    MW4 2400   1.999   1.222   1.233 -0.3623 -0.0610  0.2549
  589SOL     OW 2401   2.024   1.496   1.171  0.1747 -0.3155  0.1888
  589SOL    HW2 2402   2.000   1.411   1.209 -0.7900 -0.2926 -0.3729
  589SOL    HW3 2403   2.013   1.483   1.077 -1.2960  0.8527  0.1905
  589SOL    MW4 2404   2.020   1.483   1.164 -0.1466 -0.1583  0.1150
  590SOL     OW 2405   1.803   1.640   1.251  0.1558  0.0153 -0.0287
  590SOL    HW2 2406   1.802   1.728   1.215  0.4126 -0.6025 -1.5847
  590SOL    HW3 2407   1.891   1.607   1.232 -0.2087 -0.8823 -0.2153
  590SOL    MW4 2408   1.815   1.647   1.244  0.1415 -0.1848 -0.2587
  591SOL     OW 2409   1.776   1.891   1.128 -0.4096  0.1657  0.0894
  591SOL    HW2 2410   1.691   1.926   1.156 -0.2890  0.9140 -0.4558
  591SOL    HW3 2411   1.785   1.921   1.037  1.1080  1.3379  0.6052
  591SOL    MW4 2412   1.766   1.899   1.120 -0.1935  0.4190  0.0855
  592SOL     OW 2413   2.011   2.057   1.211  0.0562  0.2364  0.0361
  592SOL    HW2 2414   1.996   2.070   1.305 -0.6819  1.9362 -0.3000
  592SOL    HW3 2415   1.929   2.021   1.178  0.2447 -0.1654  0.0040
  592SOL    MW4 2416   1.998   2.054   1.219 -0.0165  0.4077 -0.0124
  593SOL     OW 2417   2.026   2.308   1.072 -0.2983  0.6417  0.6439
  593SOL    HW2 2418   2.097   2.346   1.126  0.3208 -0.1853  0.4203
  593SOL    HW3 2419   2.016   2.219   1.106 -0.5528  0.4302  0.0098
  593SOL    MW4 2420   2.034   2.302   1.084 -0.2499  0.5047  0.5307
  594SOL     OW 2421   1.785   2.406   1.174 -0.2360  0.6030 -0.3845
  594SOL    HW2 2422   1.863   2.371   1.129 -0.7424 -1.0274 -0.0225
  594SOL    HW3 2423   1.712   2.360   1.133 -0.8346  0.4340  0.8818
  594SOL    MW4 2424   1.786   2.395   1.162 -0.3818  0.3655 -0.1696
  595SOL     OW 2425   1.819   2.688   1.112  0.3472  0.5454  0.2407
  595SOL    HW2 2426   1.822   2.593   1.125  2.1670  0.6250  0.6007
  595SOL    HW3 2427   1.815   2.700   1.017  0.8445  0.0996  0.1578
  595SOL    MW4 2428   1.819   2.677   1.101  0.6529  0.4971  0.2774
  596SOL     OW 2429   2.053   2.811   1.223  0.3900  0.1665 -0.1415
  596SOL    HW2 2430   2.041   2.902   1.194 -1.0773 -0.2039 -0.7296
  596SOL    HW3 2431   1.979   2.764   1.187  0.9492 -1.2166  0.4637
  596SOL    MW4 2432   2.042   2.817   1.215  0.2704 -0.0648 -0.1392
  597SOL     OW 2433   2.045   3.069   1.140  0.0243  0.0569  0.2799
  597SOL    HW2 2434   1.972   3.124   1.167 -1.4971 -1.0461 -1.4488
  597SOL    HW3 2435   2.042   3.070   1.044  1.3010 -1.2824  0.2010
  597SOL    MW4 2436   2.035   3.077   1.131 -0.0079 -0.2654  0.0414
  598SOL     OW 2437   1.818   3.192   1.217  0.1964  0.0920 -0.2799
  598SOL    HW2 2438   1.820   3.175   1.311 -0.4024 -0.8693 -0.4223
  598SOL    HW3 2439   1.796   3.285   1.210 -0.1824  0.0723  0.5273
  598SOL    MW4 2440   1.815   3.202   1.229  0.0672 -0.0374 -0.1922
  599SOL     OW 2441   1.777   3.456   1.182 -0.1737 -0.3455 -0.0860
  599SOL    HW2 2442   1.861   3.502   1.193 -0.2383 -0.0796 -0.6496
  599SOL    HW3 2443   1.711   3.519   1.211 -0.2192 -0.3047 -0.2732
  599SOL    MW4 2444   1.780   3.471   1.187 -0.1882 -0.3052 -0.1849
  600SOL     OW 2445   2.035   3.581   1.169  0.2191 -0.3902 -0.3084
  600SOL    HW2 2446   2.022   3.569   1.263  1.1530 -0.2997 -0.1650
  600SOL    HW3 2447   2.104   3.519   1.147 -0.2534 -0.6740 -1.0078
  600SOL    MW4 2448   2.042   3.571   1.179  0.2797 -0.4158 -0.3818
  601SOL     OW 2449   2.047   3.851   1.104 -0.0902 -0.3863 -0.0237
  601SOL    HW2 2450   1.987   3.894   1.165  0.0064  0.2486 -0.3771
  601SOL    HW3 2451   2.048   3.760   1.132 -1.1646 -0.3881  0.0385
  601SOL    MW4 2452   2.039   3.845   1.116 -0.2196 -0.3028 -0.0620
  602SOL     OW 2453   1.865   4.008   1.264  0.4832  0.2120 -0.2817
  602SOL    HW2 2454   1.859   3.982   1.356  1.7275 -0.7847 -0.4737
  602SOL    HW3 2455   1.790   3.966   1.222  0.3183  0.0878  0.1357
  602SOL    MW4 2456   1.854   3.999   1.271  0.6256  0.0641 -0.2519
  603SOL     OW 2457   1.836   4.263   1.162  0.6059  0.7297  0.1038
  603SOL    HW2 2458   1.852   4.184   1.215  0.6565  0.4343 -0.3491
  603SOL    HW3 2459   1.755   4.299   1.197  0.8688  0.7816  0.6778
  603SOL    MW4 2460   1.827   4.257   1.174  0.6473  0.6981  0.1197
  604SOL     OW 2461   2.055   4.401   1.252 -0.2340  0.0353 -0.0466
  604SOL    HW2 2462   2.053   4.379   1.345 -0.2884 -0.3627 -0.1383
  604SOL    HW3 2463   1.974   4.362   1.218 -0.1206  0.0217 -0.2950
  604SOL    MW4 2464   2.044   4.393   1.260 -0.2265 -0.0191 -0.0913
  605SOL     OW 2465   2.449   4.624   1.181 -0.6853  0.5453 -0.1946
  605SOL    HW2 2466   2.531   4.672   1.194 -0.0586 -0.3758 -0.7625
  605SOL    HW3 2467   2.381   4.689   1.201  0.1806  0.6391  2.7602
  605SOL    MW4 2468   2.451   4.639   1.185 -0.4885  0.4358  0.1202
  606SOL     OW 2469   2.262   0.140   1.246 -0.5798 -0.2238  0.2322
  606SOL    HW2 2470   2.255   0.219   1.193 -0.1085  0.2555  0.8713
  606SOL    HW3 2471   2.179   0.094   1.233 -0.6712  0.1518 -0.5021
  606SOL    MW4 2472   2.250   0.144   1.237 -0.5298 -0.1110  0.2198
  607SOL     OW 2473   2.270   0.393   1.155  0.2228  0.4491 -0.0424
  607SOL    HW2 2474   2.193   0.449   1.168 -0.4564 -0.6116  0.5609
  607SOL    HW3 2475   2.284   0.393   1.060 -0.4385  0.7511 -0.1420
  607SOL    MW4 2476   2.262   0.400   1.144  0.0460  0.3490  0.0240
  608SOL     OW 2477   2.511   0.517   1.233  0.7056  0.3064  0.3437
  608SOL    HW2 2478   2.507   0.535   1.327  0.5933  1.2728  0.1610
  608SOL    HW3 2479   2.426   0.477   1.213  2.3109 -3.8393  1.4189
  608SOL    MW4 2480   2.499   0.514   1.242  0.9024 -0.1131  0.4615
  609SOL     OW 2481   2.480   0.781   1.139  0.1103 -0.1129 -0.1010
  609SOL    HW2 2482   2.498   0.691   1.166 -0.3315 -0.0684  0.3533
  609SOL    HW3 2483   2.487   0.779   1.044 -1.6654 -1.0363 -0.2369
  609SOL    MW4 2484   2.483   0.769   1.130 -0.1822 -0.2289 -0.0590
  610SOL     OW 2485   2.255   0.915   1.239 -0.9175 -0.0282  0.0250
  610SOL    HW2 2486   2.327   0.862   1.205 -1.1067  0.9401 -1.9538
  610SOL    HW3 2487   2.178   0.884   1.192 -1.1842  1.3349 -0.4661
  610SOL    MW4 2488   2.255   0.904   1.228 -0.9778  0.2794 -0.3008
  611SOL     OW 2489   2.232   1.171   1.133  0.3494  0.0811  0.3247
  611SOL    HW2 2490   2.251   1.084   1.169 -0.1872 -0.2603 -0.1933
  611SOL    HW3 2491   2.282   1.231   1.187  0.1627 -0.4910  1.1493
  611SOL    MW4 2492   2.241   1.167   1.145  0.2539 -0.0395  0.3650
  612SOL     OW 2493   2.478   1.293   1.221  0.0117  0.6420 -0.2018
  612SOL    HW2 2494   2.554   1.241   1.194  0.3232  0.6335  0.6871
  612SOL    HW3 2495   2.498   1.382   1.193 -0.7809  0.2119 -2.2671
  612SOL    MW4 2496   2.490   1.298   1.214 -0.0517  0.5842 -0.3569
  613SOL     OW 2497   2.506   1.543   1.117 -0.0938 -0.2787 -0.5170
  613SOL    HW2 2498   2.415   1.566   1.136 -0.3629 -1.5064 -0.2898
  613SOL    HW3 2499   2.506   1.522   1.024  0.4632  2.0557 -1.0832
  613SOL    MW4 2500   2.494   1.544   1.107 -0.0560 -0.1327 -0.5618
  614SOL     OW 2501   2.262   1.629   1.196  0.3563 -0.0873  0.2204
  614SOL    HW2 2502   2.253   1.719   1.164  2.7734  0.6083  1.3790
  614SOL    HW3 2503   2.181   1.586   1.169 -0.5978  2.2801 -0.8489
  614SOL    MW4 2504   2.250   1.635   1.188  0.5496  0.3170  0.2321
  615SOL     OW 2505   2.243   1.913   1.140 -0.0528 -0.0098  0.7146
  615SOL    HW2 2506   2.161   1.958   1.159  0.8975  1.4744  1.4035
  615SOL    HW3 2507   2.249   1.913   1.045 -0.8810 -0.2208  0.6540
  615SOL    MW4 2508   2.233   1.919   1.130 -0.0370  0.1581  0.7976
  616SOL     OW 2509   2.475   2.050   1.212 -0.3689  0.2400  0.2194
  616SOL    HW2 2510   2.556   2.016   1.175 -1.2096  0.6531 -2.0332
  616SOL    HW3 2511   2.407   1.991   1.180 -1.1120  0.5227  1.2245
  616SOL    MW4 2512   2.477   2.037   1.203 -0.5779  0.3316  0.0547
  617SOL     OW 2513   2.474   2.315   1.123  0.2477  0.7601 -0.3625
  617SOL    HW2 2514   2.447   2.232   1.163 -1.0279  0.8921 -0.9128
  617SOL    HW3 2515   2.462   2.301   1.029  1.2123  1.1593 -0.5492
  617SOL    MW4 2516   2.469   2.302   1.115  0.2067  0.8302 -0.4597
  618SOL     OW 2517   2.227   2.436   1.200  0.1652  0.0338  0.0884
  618SOL    HW2 2518   2.220   2.426   1.295  0.9018 -0.6654  0.0784
  618SOL    HW3 2519   2.313   2.398   1.178 -0.2834 -0.4171 -0.9353
  618SOL    MW4 2520   2.238   2.429   1.209  0.2034 -0.1178 -0.0479
  619SOL     OW 2521   2.276   2.699   1.142  0.6642  0.1354  0.4927
  619SOL    HW2 2522   2.251   2.614   1.178  0.2245 -0.4273 -1.1016
  619SOL    HW3 2523   2.202   2.757   1.163 -0.0234 -0.4295 -0.3294
  619SOL    MW4 2524   2.263   2.696   1.150  0.5157 -0.0136  0.1739
  620SOL     OW 2525   2.513   2.812   1.215  0.3085  0.4002 -0.2452
  620SOL    HW2 2526   2.503   2.835   1.308 -0.1577 -0.9127  0.0364
  620SOL    HW3 2527   2.430   2.771   1.192  0.5547  0.4209 -1.1616
  620SOL    MW4 2528   2.500   2.810   1.224  0.2792  0.2294 -0.3290
  621SOL     OW 2529   2.489   3.041   1.075  0.2333 -0.3848 -0.1490
  621SOL    HW2 2530   2.415   3.080   1.122  0.6436  0.8044 -0.4783
  621SOL    HW3 2531   2.496   2.953   1.111 -0.8255 -0.2230  0.4780
  621SOL    MW4 2532   2.480   3.035   1.086  0.1478 -0.2065 -0.1097
  622SOL     OW 2533   2.296   3.171   1.226  0.1515  0.3012 -0.0932
  622SOL    HW2 2534   2.281   3.254   1.181 -0.6530  0.6482  0.8142
  622SOL    HW3 2535   2.218   3.119   1.208  0.3501 -0.0046 -0.0810
  622SOL    MW4 2536   2.284   3.175   1.218  0.0715  0.3066  0.0283
  623SOL     OW 2537   2.264   3.421   1.114  0.1888 -0.1450  0.1119
  623SOL    HW2 2538   2.330   3.486   1.135 -1.2882  0.5878  2.7735
  623SOL    HW3 2539   2.248   3.431   1.021  2.4304  0.9561 -0.1732
  623SOL    MW4 2540   2.270   3.431   1.105  0.2894  0.0968  0.4255
  624SOL     OW 2541   2.468   3.597   1.223  0.1345  0.0737 -0.4852
  624SOL    HW2 2542   2.476   3.590   1.318 -1.5108 -0.6011 -0.3786
  624SOL    HW3 2543   2.451   3.689   1.207  0.3489  0.1777 -0.1325
  624SOL    MW4 2544   2.467   3.608   1.233 -0.0541 -0.0014 -0.4246
  625SOL     OW 2545   2.472   3.863   1.112 -0.7790 -0.4813  0.6162
  625SOL    HW2 2546   2.402   3.920   1.145 -1.6649 -0.9134 -0.4816
  625SOL    HW3 2547   2.457   3.859   1.018  1.2777  0.1347  0.2401
  625SOL    MW4 2548   2.460   3.870   1.104 -0.6249 -0.4568  0.4218
  626SOL     OW 2549   2.252   3.965   1.241  0.6608  0.3638  0.4499
  626SOL    HW2 2550   2.250   4.057   1.218  0.0222  0.2121 -0.1142
  626SOL    HW3 2551   2.174   3.928   1.199  0.5489 -0.2950  1.2187
  626SOL    MW4 2552   2.242   3.972   1.233  0.5615  0.2570  0.4768
  627SOL     OW 2553   2.263   4.225   1.172  0.2095 -0.0554  0.0746
  627SOL    HW2 2554   2.187   4.274   1.202 -0.8074 -0.9165 -1.0424
  627SOL    HW3 2555   2.252   4.218   1.078  0.9155 -1.4519  0.0767
  627SOL    MW4 2556   2.252   4.230   1.164  0.1686 -0.3529 -0.0725
  628SOL     OW 2557   2.496   4.361   1.290 -0.2448 -0.1526  0.3450
  628SOL    HW2 2558   2.425   4.301   1.266 -0.8743 -0.2135  2.2215
  628SOL    HW3 2559   2.465   4.447   1.262  0.1208 -0.5457 -1.2619
  628SOL    MW4 2560   2.482   4.364   1.283 -0.2797 -0.2127  0.3806
  629SOL     OW 2561   2.958   4.642   1.154 -0.2781  0.1280 -0.1430
  629SOL    HW2 2562   2.960   4.552   1.184 -1.6301 -0.0044 -0.4137
  629SOL    HW3 2563   2.938   4.636   1.061  0.4661  0.6772 -0.3435
  629SOL    MW4 2564   2.956   4.630   1.146 -0.3581  0.1831 -0.2054
  630SOL     OW 2565   2.695   0.047   1.256  0.0460 -0.4811 -0.0986
  630SOL    HW2 2566   2.702   0.079   1.346 -0.0695 -0.7798  0.0179
  630SOL    HW3 2567   2.782   0.013   1.236  0.3461  0.4848 -0.4463
  630SOL    MW4 2568   2.707   0.047   1.266  0.0703 -0.3931 -0.1291
  631SOL     OW 2569   2.716   0.330   1.149 -0.3434  0.0011  0.1207
  631SOL    HW2 2570   2.688   0.240   1.161 -1.1292 -0.1131 -2.3980
  631SOL    HW3 2571   2.647   0.383   1.190 -0.3588 -0.4830  0.7311
  631SOL    MW4 2572   2.703   0.325   1.156 -0.4494 -0.0778 -0.1311
  632SOL     OW 2573   2.950   0.482   1.211 -0.3804 -0.2425  0.2076
  632SOL    HW2 2574   2.924   0.572   1.193 -0.9502  0.1056  2.6871
  632SOL    HW3 2575   2.872   0.430   1.193 -0.2618 -0.1793 -0.5207
  632SOL    MW4 2576   2.936   0.487   1.206 -0.4399 -0.1882  0.4386
  633SOL     OW 2577   2.874   0.739   1.132  0.1426  0.1630  0.3870
  633SOL    HW2 2578   2.955   0.777   1.166  1.1430 -2.7221  1.3638
  633SOL    HW3 2579   2.804   0.796   1.165  1.6757  1.8253  0.7860
  633SOL    MW4 2580   2.875   0.751   1.141  0.4771  0.0016  0.5685
  634SOL     OW 2581   2.699   0.935   1.237 -0.2072 -0.4583  0.1883
  634SOL    HW2 2582   2.699   1.020   1.193 -0.7687 -0.4738  0.1540
  634SOL    HW3 2583   2.630   0.885   1.194  1.3335 -1.5959 -1.0309
  634SOL    MW4 2584   2.690   0.940   1.226 -0.0782 -0.6104  0.0229
  635SOL     OW 2585   2.703   1.164   1.109 -0.0230  0.1192 -0.5747
  635SOL    HW2 2586   2.784   1.196   1.149 -0.6851  0.1666  0.7279
  635SOL    HW3 2587   2.722   1.163   1.015  0.9317  1.6931 -0.4082
  635SOL    MW4 2588   2.717   1.168   1.102  0.0155  0.3331 -0.3810
  636SOL     OW 2589   2.932   1.255   1.220 -0.2293 -0.1778 -0.3298
  636SOL    HW2 2590   2.908   1.278   1.310 -1.6059  0.1573 -0.7823
  636SOL    HW3 2591   2.945   1.339   1.176  1.1650 -0.3478 -0.2578
  636SOL    MW4 2592   2.931   1.269   1.226 -0.2270 -0.1562 -0.3799
  637SOL     OW 2593   2.940   1.534   0.815  0.3004 -0.7070 -0.1795
  637SOL    HW2 2594   3.022   1.568   0.778 -0.2256 -0.6997 -1.3388
  637SOL    HW3 2595   2.940   1.441   0.792 -1.0498 -0.2541 -2.0774
  637SOL    MW4 2596   2.951   1.526   0.807  0.0529 -0.6462 -0.5829
  638SOL     OW 2597   2.725   1.689   1.205 -0.1613  0.2963  0.1235
  638SOL    HW2 2598   2.802   1.639   1.181 -0.3625  0.3271 -0.6044
  638SOL    HW3 2599   2.652   1.640   1.167 -0.4266  0.7123  0.0950
  638SOL    MW4 2600   2.725   1.676   1.197 -0.2227  0.3552  0.0236
  639SOL     OW 2601   2.721   1.954   1.106 -0.1487 -0.4705  0.0186
  639SOL    HW2 2602   2.723   1.860   1.122  1.0734 -0.1207  1.9934
  639SOL    HW3 2603   2.786   1.991   1.165 -3.8524  2.1060  2.7456
  639SOL    MW4 2604   2.730   1.947   1.116 -0.4761 -0.0845  0.6390
  640SOL     OW 2605   2.944   2.059   1.261 -0.0039  0.4000 -0.7345
  640SOL    HW2 2606   2.952   2.079   1.354 -0.9591  1.1818 -0.8144
  640SOL    HW3 2607   2.946   2.145   1.218 -1.2722  0.1468 -1.3083
  640SOL    MW4 2608   2.946   2.073   1.268 -0.2973  0.4699 -0.8208
  641SOL     OW 2609   2.939   2.298   1.140  0.0417 -0.4042  0.7317
  641SOL    HW2 2610   3.013   2.350   1.170  0.4237  0.3955 -1.5002
  641SOL    HW3 2611   2.863   2.338   1.181  0.5946  0.2929  1.0769
  641SOL    MW4 2612   2.939   2.310   1.149  0.1647 -0.2065  0.4827
  642SOL     OW 2613   2.702   2.428   1.208  0.5695 -0.4076 -0.1719
  642SOL    HW2 2614   2.692   2.444   1.301 -0.3017  1.2829 -0.5314
  642SOL    HW3 2615   2.626   2.375   1.184 -0.2527  0.7770 -0.2608
  642SOL    MW4 2616   2.691   2.423   1.217  0.3462 -0.0281 -0.2311
  643SOL     OW 2617   2.696   2.684   1.069 -0.0372  0.7425 -0.1150
  643SOL    HW2 2618   2.709   2.599   1.112  0.1921  1.4542  1.2301
  643SOL    HW3 2619   2.626   2.726   1.120 -0.7711  1.0069 -1.3119
  643SOL    MW4 2620   2.688   2.678   1.082 -0.1040  0.8714 -0.0955
  644SOL     OW 2621   2.917   2.785   1.202 -0.0858 -0.1487  0.4767
  644SOL    HW2 2622   2.906   2.770   1.296  0.7030 -0.5968  0.5049
  644SOL    HW3 2623   2.834   2.757   1.163 -0.2856 -0.2883  1.0037
  644SOL    MW4 2624   2.904   2.779   1.209 -0.0081 -0.2263  0.5500
  645SOL     OW 2625   2.941   3.064   1.130  0.2292 -0.3622 -0.1172
  645SOL    HW2 2626   2.930   2.978   1.171 -0.5729 -0.5706 -0.7521
  645SOL    HW3 2627   2.930   3.047   1.036 -2.2479  0.7933 -0.0734
  645SOL    MW4 2628   2.939   3.051   1.123 -0.2036 -0.2377 -0.1954
  646SOL     OW 2629   2.701   3.200   1.228  0.0572 -0.2605 -0.2209
  646SOL    HW2 2630   2.783   3.164   1.193  0.4069  0.5460 -0.2590
  646SOL    HW3 2631   2.633   3.143   1.194  0.5861 -0.7647 -0.4365
  646SOL    MW4 2632   2.703   3.188   1.219  0.1733 -0.2203 -0.2545
  647SOL     OW 2633   2.696   3.472   1.093  0.3233  0.0716  0.3530
  647SOL    HW2 2634   2.698   3.389   1.141 -2.3113 -0.6515 -0.7409
  647SOL    HW3 2635   2.621   3.519   1.129 -0.1036  0.6335 -1.2486
  647SOL    MW4 2636   2.687   3.467   1.104 -0.0806  0.0501 -0.0025
  648SOL     OW 2637   2.906   3.611   1.197 -0.4221 -0.4207  0.3400
  648SOL    HW2 2638   2.982   3.556   1.177 -0.3844  0.1270 -1.0797
  648SOL    HW3 2639   2.831   3.560   1.166 -0.3179  0.6842 -1.8371
  648SOL    MW4 2640   2.906   3.597   1.190 -0.4032 -0.2024 -0.1346
  649SOL     OW 2641   2.935   3.873   1.113 -0.1924  0.1115 -0.0805
  649SOL    HW2 2642   3.014   3.912   1.151 -0.5407  0.3412  0.4055
  649SOL    HW3 2643   2.936   3.783   1.143  0.2515 -0.0715 -0.6420
  649SOL    MW4 2644   2.946   3.867   1.122 -0.1798  0.1178 -0.0904
  650SOL     OW 2645   2.705   3.977   1.207 -0.6397 -0.0120 -0.1282
  650SOL    HW2 2646   2.780   3.932   1.168 -0.6827 -0.3198  0.1411
  650SOL    HW3 2647   2.628   3.932   1.172 -0.6922  0.0791 -0.1324
  650SOL    MW4 2648   2.704   3.965   1.197 -0.6521 -0.0405 -0.0932
  651SOL     OW 2649   2.716   4.256   1.173  0.4814 -0.0630 -0.2235
  651SOL    HW2 2650   2.706   4.169   1.212 -0.0380  0.0497 -0.1020
  651SOL    HW3 2651   2.643   4.306   1.207  0.1444  0.1059 -1.1754
  651SOL    MW4 2652   2.705   4.251   1.183  0.3684 -0.0257 -0.3330
  652SOL     OW 2653   2.939   4.385   1.241 -0.6394 -0.0515 -0.2137
  652SOL    HW2 2654   2.996   4.318   1.202 -0.7277  0.5295 -1.3683
  652SOL    HW3 2655   2.852   4.345   1.239 -0.9348  0.6173 -2.2246
  652SOL    MW4 2656   2.935   4.371   1.235 -0.6902  0.1130 -0.6312
  653SOL     OW 2657   3.404   4.648   1.188  0.0921 -0.1974  0.3106
  653SOL    HW2 2658   3.486   4.683   1.222  0.0226 -0.8970  1.2098
  653SOL    HW3 2659   3.336   4.692   1.239  0.0077 -1.7015  1.5467
  653SOL    MW4 2660   3.405   4.658   1.199  0.0718 -0.4883  0.5924
  654SOL     OW 2661   3.167   0.112   1.291 -0.0184 -0.4031  0.5519
  654SOL    HW2 2662   3.149   0.112   1.385  1.6237  1.2851  0.8875
  654SOL    HW3 2663   3.088   0.073   1.252 -1.6705  0.9448  2.4384
  654SOL    MW4 2664   3.154   0.107   1.298 -0.0196 -0.0025  0.8452
  655SOL     OW 2665   3.174   0.356   1.124  0.3449 -0.2888 -0.2272
  655SOL    HW2 2666   3.178   0.270   1.167  0.2256 -0.0246  0.3095
  655SOL    HW3 2667   3.095   0.397   1.160 -0.1975 -0.3805 -1.2803
  655SOL    MW4 2668   3.164   0.350   1.134  0.2577 -0.2661 -0.2954
  656SOL     OW 2669   3.419   0.446   1.236 -0.3095 -0.1177  0.2885
  656SOL    HW2 2670   3.405   0.541   1.243 -0.9509 -0.1721 -0.2653
  656SOL    HW3 2671   3.339   0.412   1.197 -0.2222 -0.9429  0.8061
  656SOL    MW4 2672   3.407   0.454   1.232 -0.3827 -0.2338  0.2837
  657SOL     OW 2673   3.371   0.722   1.196  0.1506  0.2754 -0.1923
  657SOL    HW2 2674   3.297   0.772   1.233 -1.0772 -0.1841 -1.9871
  657SOL    HW3 2675   3.371   0.744   1.103  1.3415 -0.9331 -0.4873
  657SOL    MW4 2676   3.361   0.732   1.189  0.1457  0.0553 -0.4680
  658SOL     OW 2677   3.123   0.858   1.224  0.3682 -0.0816  0.0627
  658SOL    HW2 2678   3.126   0.871   1.319  2.2649  0.5607 -0.0707
  658SOL    HW3 2679   3.142   0.944   1.187 -0.4502 -0.3132 -0.9017
  658SOL    MW4 2680   3.126   0.871   1.232  0.5102 -0.0274 -0.0821
  659SOL     OW 2681   3.160   1.116   1.137  0.1951 -0.1636  0.2099
  659SOL    HW2 2682   3.227   1.175   1.171 -0.1120 -0.7341  1.8599
  659SOL    HW3 2683   3.078   1.152   1.170  0.0030 -1.4743  1.1823
  659SOL    MW4 2684   3.158   1.129   1.146  0.1292 -0.4119  0.5558
  660SOL     OW 2685   3.385   1.260   1.246 -0.1771 -0.4837 -0.0440
  660SOL    HW2 2686   3.369   1.280   1.338 -1.7583  0.1434 -0.4263
  660SOL    HW3 2687   3.395   1.346   1.204  0.2679 -0.7552 -0.5021
  660SOL    MW4 2688   3.384   1.274   1.252 -0.3271 -0.4368 -0.1549
  661SOL     OW 2689   3.381   1.520   1.127  0.3076 -0.4468  0.3580
  661SOL    HW2 2690   3.458   1.568   1.158  0.6717 -0.2250 -0.8570
  661SOL    HW3 2691   3.307   1.567   1.164  0.6834  0.6826 -0.3132
  661SOL    MW4 2692   3.382   1.532   1.136  0.4053 -0.2686  0.1092
  662SOL     OW 2693   3.151   1.639   1.208 -0.1782  0.3885 -0.1150
  662SOL    HW2 2694   3.132   1.643   1.302 -0.3333 -0.1032 -0.1249
  662SOL    HW3 2695   3.135   1.728   1.176 -0.2646  0.5201  0.2961
  662SOL    MW4 2696   3.147   1.651   1.216 -0.2100  0.3409 -0.0621
  663SOL     OW 2697   3.117   1.913   1.095  0.0012 -0.3046  0.0133
  663SOL    HW2 2698   3.204   1.938   1.125  0.2785  1.0256 -1.8500
  663SOL    HW3 2699   3.057   1.955   1.157  0.6284  0.4245  0.1261
  663SOL    MW4 2700   3.121   1.922   1.107  0.1204 -0.0329 -0.2178
  664SOL     OW 2701   3.368   1.987   1.186 -0.1000 -0.3543  0.4929
  664SOL    HW2 2702   3.458   1.959   1.169 -0.0204 -0.2122  0.6753
  664SOL    HW3 2703   3.370   2.082   1.177 -0.6665 -0.5148 -1.4972
  664SOL    MW4 2704   3.380   1.996   1.183 -0.1640 -0.3567  0.2544
  665SOL     OW 2705   3.357   2.278   1.103 -0.0864 -0.7097 -0.6484
  665SOL    HW2 2706   3.438   2.309   1.143  0.4976 -2.3150 -0.5551
  665SOL    HW3 2707   3.289   2.334   1.141  0.5766 -1.4873  1.7667
  665SOL    MW4 2708   3.359   2.290   1.113  0.0782 -1.0245 -0.3175
  666SOL     OW 2709   3.166   2.448   1.209  0.0674  0.1994  0.5582
  666SOL    HW2 2710   3.161   2.459   1.304 -0.3142  0.8821  0.4636
  666SOL    HW3 2711   3.155   2.536   1.174 -0.8947 -0.1897 -0.1509
  666SOL    MW4 2712   3.164   2.461   1.217 -0.1101  0.2379  0.4523
  667SOL     OW 2713   3.152   2.701   1.082  0.3375  0.6445  0.6716
  667SOL    HW2 2714   3.063   2.732   1.097 -0.2409 -0.3626 -0.5802
  667SOL    HW3 2715   3.159   2.690   0.987  1.4125 -0.3486  0.8441
  667SOL    MW4 2716   3.141   2.703   1.072  0.4029  0.3805  0.5292
  668SOL     OW 2717   3.381   2.802   1.230  0.0904 -0.2662 -0.2240
  668SOL    HW2 2718   3.360   2.892   1.207 -1.3870 -0.1598  1.4255
  668SOL    HW3 2719   3.314   2.749   1.187  0.6129 -0.5516 -0.7074
  668SOL    MW4 2720   3.370   2.807   1.221 -0.0358 -0.2899 -0.0702
  669SOL     OW 2721   3.363   3.079   1.176  0.1426 -0.1213 -0.1818
  669SOL    HW2 2722   3.440   3.126   1.207 -0.0326  0.0192  0.0436
  669SOL    HW3 2723   3.291   3.143   1.183 -0.1880 -0.5631  0.5860
  669SOL    MW4 2724   3.363   3.094   1.181  0.0761 -0.1612 -0.0507
  670SOL     OW 2725   3.136   3.235   1.210  0.0400 -0.0196  0.0267
  670SOL    HW2 2726   3.121   3.321   1.172 -0.7573 -1.0299 -2.0845
  670SOL    HW3 2727   3.069   3.179   1.170 -0.4566 -1.2888  2.5585
  670SOL    MW4 2728   3.125   3.239   1.199 -0.1309 -0.3207  0.0823
  671SOL     OW 2729   3.133   3.487   1.111  0.0554 -0.4702 -0.2051
  671SOL    HW2 2730   3.211   3.530   1.145 -0.0400  0.9951 -1.8271
  671SOL    HW3 2731   3.145   3.484   1.016 -1.6615 -0.5965 -0.4471
  671SOL    MW4 2732   3.145   3.492   1.103 -0.1836 -0.2935 -0.4508
  672SOL     OW 2733   3.370   3.597   1.218  0.0486  0.5803 -0.4391
  672SOL    HW2 2734   3.382   3.610   1.312 -0.3844  1.3097 -0.4790
  672SOL    HW3 2735   3.447   3.547   1.190  1.1868  2.0724 -0.0443
  672SOL    MW4 2736   3.382   3.592   1.226  0.1414  0.8733 -0.3924
  673SOL     OW 2737   3.411   3.867   1.170 -0.1747 -0.4884 -0.6475
  673SOL    HW2 2738   3.330   3.904   1.204  0.3943 -1.6614  2.0868
  673SOL    HW3 2739   3.407   3.774   1.194  1.8494 -0.6134 -0.7157
  673SOL    MW4 2740   3.400   3.859   1.178  0.1676 -0.6595 -0.2956
  674SOL     OW 2741   3.170   3.984   1.226  0.3556 -0.0654  0.3076
  674SOL    HW2 2742   3.161   3.989   1.321 -1.0772  0.4475  0.1654
  674SOL    HW3 2743   3.179   4.075   1.198 -0.4152 -0.1162 -0.1325
  674SOL    MW4 2744   3.170   3.996   1.235  0.0648 -0.0043  0.2309
  675SOL     OW 2745   3.172   4.239   1.143  0.1043 -0.0368 -0.1738
  675SOL    HW2 2746   3.257   4.279   1.161  0.6422 -1.3818  0.3853
  675SOL    HW3 2747   3.173   4.221   1.049 -0.2542  1.4942 -0.4772
  675SOL    MW4 2748   3.183   4.242   1.133  0.1280 -0.0129 -0.1402
  676SOL     OW 2749   3.384   4.380   1.251 -0.4059 -0.1463  0.1126
  676SOL    HW2 2750   3.465   4.344   1.214  0.5410  1.3099  0.6943
  676SOL    HW3 2751   3.385   4.472   1.224 -0.0822  0.7626  3.0657
  676SOL    MW4 2752   3.395   4.388   1.242 -0.2382  0.1655  0.5790
  677SOL     OW 2753   3.817   4.612   1.139 -0.4339 -0.0959  0.8231
  677SOL    HW2 2754   3.849   4.526   1.167 -1.1935 -0.8955 -0.6966
  677SOL    HW3 2755   3.825   4.611   1.044 -1.2616  1.1970  0.7198
  677SOL    MW4 2756   3.822   4.601   1.130 -0.6435 -0.0305  0.6089
  678SOL     OW 2757   3.632   0.063   1.305 -0.2036  0.2345 -0.1329
  678SOL    HW2 2758   3.634   0.151   1.267 -0.0162  0.1036 -0.4229
  678SOL    HW3 2759   3.686   0.010   1.247 -0.0509 -0.0038  0.2223
  678SOL    MW4 2760   3.639   0.067   1.293 -0.1585  0.1858 -0.1242
  679SOL     OW 2761   3.641   0.293   1.187  0.0669 -0.2379  1.1519
  679SOL    HW2 2762   3.717   0.350   1.199  0.0916  0.0829 -0.3765
  679SOL    HW3 2763   3.566   0.351   1.199  0.0715 -0.2512  1.2488
  679SOL    MW4 2764   3.642   0.308   1.190  0.0706 -0.1974  0.9630
  680SOL     OW 2765   3.850   0.503   1.283  0.3992  0.0168 -0.3096
  680SOL    HW2 2766   3.933   0.472   1.246 -0.0848  0.2848 -1.6791
  680SOL    HW3 2767   3.836   0.588   1.241 -0.7112 -0.1604 -0.3139
  680SOL    MW4 2768   3.859   0.511   1.272  0.1886  0.0288 -0.4909
  681SOL     OW 2769   3.834   0.754   1.159 -0.1038  0.6017 -0.2646
  681SOL    HW2 2770   3.890   0.825   1.189 -0.3415  0.3558  0.7819
  681SOL    HW3 2771   3.745   0.783   1.180 -0.2008 -0.0138  0.2136
  681SOL    MW4 2772   3.830   0.767   1.166 -0.1478  0.4880 -0.0635
  682SOL     OW 2773   3.597   0.860   1.260  0.2618 -0.4318  0.1527
  682SOL    HW2 2774   3.591   0.949   1.225  0.7366 -0.6465 -0.4807
  682SOL    HW3 2775   3.511   0.822   1.245 -0.0423  0.0261  0.7168
  682SOL    MW4 2776   3.585   0.867   1.253  0.2840 -0.3998  0.1435
  683SOL     OW 2777   3.602   1.120   1.167  0.1755  0.2830 -0.5213
  683SOL    HW2 2778   3.674   1.169   1.208 -1.0078  0.8736  0.8505
  683SOL    HW3 2779   3.523   1.163   1.198 -0.8887 -2.2872  0.4184
  683SOL    MW4 2780   3.601   1.133   1.176 -0.1211  0.0219 -0.2164
  684SOL     OW 2781   3.826   1.259   1.259 -0.0188  0.6408  0.3251
  684SOL    HW2 2782   3.848   1.268   1.352  2.2916  0.4545 -0.1743
  684SOL    HW3 2783   3.828   1.349   1.225 -2.5946  0.9100  0.7949
  684SOL    MW4 2784   3.829   1.272   1.267 -0.0539  0.6518  0.3213
  685SOL     OW 2785   3.805   1.514   1.135 -0.5461 -0.5358 -0.0645
  685SOL    HW2 2786   3.824   1.524   1.042  1.0194  0.0848  0.3095
  685SOL    HW3 2787   3.873   1.565   1.179 -1.3984 -0.6533  1.4138
  685SOL    MW4 2788   3.816   1.522   1.129 -0.4518 -0.4694  0.1799
  686SOL     OW 2789   3.594   1.650   1.248  0.0579 -0.4362 -0.1521
  686SOL    HW2 2790   3.603   1.735   1.205 -0.7564  1.0510  2.5539
  686SOL    HW3 2791   3.670   1.600   1.217  1.2929  1.7139 -0.7094
  686SOL    MW4 2792   3.605   1.655   1.238  0.1132  0.0437  0.1314
  687SOL     OW 2793   3.609   1.887   1.121 -0.4217 -0.4972  0.0614
  687SOL    HW2 2794   3.687   1.941   1.129 -1.0843  0.4197  0.3488
  687SOL    HW3 2795   3.613   1.852   1.032 -0.2118  0.3644 -0.2718
  687SOL    MW4 2796   3.620   1.889   1.110 -0.4816 -0.2626  0.0554
  688SOL     OW 2797   3.837   2.036   1.202 -0.1078 -0.3244  0.1523
  688SOL    HW2 2798   3.837   2.035   1.297 -0.3571 -0.8325  0.1532
  688SOL    HW3 2799   3.916   1.987   1.178 -0.0225 -0.1600  0.0963
  688SOL    MW4 2800   3.847   2.029   1.211 -0.1297 -0.3698  0.1450
  689SOL     OW 2801   3.824   2.307   1.167  0.0676  0.1762 -0.0922
  689SOL    HW2 2802   3.901   2.353   1.201  0.1721  1.4862 -2.0312
  689SOL    HW3 2803   3.839   2.216   1.191  2.0922  0.4473 -0.1917
  689SOL    MW4 2804   3.836   2.301   1.175  0.3483  0.3850 -0.3612
  690SOL     OW 2805   3.588   2.414   1.240 -0.5685 -0.0752 -0.0962
  690SOL    HW2 2806   3.576   2.425   1.334 -0.5321 -1.8390  0.1286
  690SOL    HW3 2807   3.672   2.368   1.231  0.1121  1.3412 -1.0628
  690SOL    MW4 2808   3.597   2.409   1.251 -0.4740 -0.1209 -0.1941
  691SOL     OW 2809   3.583   2.668   1.122 -0.2894 -0.3616 -0.0225
  691SOL    HW2 2810   3.584   2.589   1.176  1.3643  0.7612  1.6428
  691SOL    HW3 2811   3.505   2.716   1.150 -0.8098 -0.9716 -0.4153
  691SOL    MW4 2812   3.573   2.664   1.133 -0.1397 -0.2937  0.1454
  692SOL     OW 2813   3.811   2.812   1.220 -0.1511 -0.1154 -0.0845
  692SOL    HW2 2814   3.786   2.803   1.312 -2.0078  1.2007 -0.4367
  692SOL    HW3 2815   3.744   2.763   1.172  0.5971 -0.4880 -0.7735
  692SOL    MW4 2816   3.799   2.804   1.225 -0.2975  0.0088 -0.2220
  693SOL     OW 2817   3.816   3.082   1.166  0.0652 -0.2130 -1.0156
  693SOL    HW2 2818   3.826   2.987   1.176 -1.8597 -0.3393 -0.1542
  693SOL    HW3 2819   3.784   3.093   1.076 -1.7781 -0.5587 -0.4206
  693SOL    MW4 2820   3.813   3.071   1.155 -0.4320 -0.2756 -0.8234
  694SOL     OW 2821   3.592   3.187   1.272 -0.1427  0.1800 -0.0346
  694SOL    HW2 2822   3.601   3.277   1.239  0.0567  0.2952  0.3365
  694SOL    HW3 2823   3.675   3.145   1.248  0.3705  0.5240  1.1389
  694SOL    MW4 2824   3.604   3.193   1.264 -0.0486  0.2406  0.1692
  695SOL     OW 2825   3.613   3.454   1.159  0.0339  0.6378  0.0085
  695SOL    HW2 2826   3.688   3.495   1.202  0.6838 -2.2755  1.8125
  695SOL    HW3 2827   3.631   3.462   1.066  2.3598  0.4399  0.4162
  695SOL    MW4 2828   3.625   3.460   1.152  0.4265  0.2272  0.3004
  696SOL     OW 2829   3.814   3.584   1.297  0.0473  0.3510  0.2017
  696SOL    HW2 2830   3.816   3.589   1.393  0.0736 -0.4679  0.2453
  696SOL    HW3 2831   3.830   3.674   1.269  0.6847  0.4826  0.9583
  696SOL    MW4 2832   3.816   3.597   1.306  0.1349  0.2601  0.3074
  697SOL     OW 2833   3.859   3.822   1.134 -0.0860 -0.3574 -0.0020
  697SOL    HW2 2834   3.895   3.832   1.046 -0.3709 -1.1113 -0.2097
  697SOL    HW3 2835   3.785   3.882   1.137  0.3857  0.2223 -0.0234
  697SOL    MW4 2836   3.854   3.831   1.123 -0.0615 -0.3803 -0.0321
  698SOL     OW 2837   3.654   3.985   1.218 -0.0683  0.0956 -0.5006
  698SOL    HW2 2838   3.671   3.966   1.310 -0.6667  0.3683 -0.3304
  698SOL    HW3 2839   3.568   3.947   1.202  1.1310 -2.2502 -1.6391
  698SOL    MW4 2840   3.645   3.977   1.228  0.0110 -0.1779 -0.6284
  699SOL     OW 2841   3.627   4.262   1.167  0.0396 -0.6114 -0.1518
  699SOL    HW2 2842   3.634   4.169   1.189 -1.2167 -0.7460 -0.2819
  699SOL    HW3 2843   3.639   4.265   1.072 -0.0376 -0.6503 -0.1626
  699SOL    MW4 2844   3.630   4.250   1.157 -0.1364 -0.6342 -0.1704
  700SOL     OW 2845   3.869   4.359   1.262 -0.1780 -0.3393  0.0952
  700SOL    HW2 2846   3.864   4.365   1.358  0.2635 -0.7382  0.1480
  700SOL    HW3 2847   3.782   4.328   1.236  0.1182 -1.5466  0.4889
  700SOL    MW4 2848   3.857   4.355   1.271 -0.0808 -0.5512  0.1541
  701SOL     OW 2849   4.257   4.633   1.156 -0.2179 -0.4571 -0.0443
  701SOL    HW2 2850   4.257   4.545   1.194 -1.6869 -0.2818  0.3733
  701SOL    HW3 2851   4.183   4.677   1.197  0.9037  1.1999  0.2533
  701SOL    MW4 2852   4.247   4.627   1.167 -0.2637 -0.2155  0.0502
  702SOL     OW 2853   4.025   0.111   1.227 -0.2052  0.2415 -0.2039
  702SOL    HW2 2854   4.022   0.118   1.322 -0.7725  0.5378 -0.2438
  702SOL    HW3 2855   3.949   0.057   1.204  1.1765 -1.7378 -0.3157
  702SOL    MW4 2856   4.015   0.105   1.236 -0.0978  0.0195 -0.2239
  703SOL     OW 2857   4.081   0.364   1.162  0.3590  0.0044 -0.1484
  703SOL    HW2 2858   4.068   0.270   1.170  1.0442 -0.0713  0.1419
  703SOL    HW3 2859   4.068   0.383   1.069  0.0538 -0.3456 -0.1779
  703SOL    MW4 2860   4.077   0.354   1.151  0.4086 -0.0518 -0.1140
  704SOL     OW 2861   4.287   0.480   1.294 -0.2855 -0.0892  0.4762
  704SOL    HW2 2862   4.276   0.487   1.389 -1.4514  0.0842  0.3365
  704SOL    HW3 2863   4.204   0.444   1.263 -0.2571  0.7457 -0.5791
  704SOL    MW4 2864   4.274   0.476   1.302 -0.4358  0.0439  0.3184
  705SOL     OW 2865   4.249   0.728   1.163 -0.4010 -0.3516  0.1244
  705SOL    HW2 2866   4.271   0.645   1.205  0.1225  0.1998  0.9450
  705SOL    HW3 2867   4.269   0.714   1.070 -0.0602 -1.0538  0.3038
  705SOL    MW4 2868   4.255   0.715   1.156 -0.2866 -0.3715  0.2563
  706SOL     OW 2869   4.059   0.888   1.280 -0.2178 -0.4011 -0.0773
  706SOL    HW2 2870   4.066   0.879   1.375  0.0981 -1.5998 -0.2057
  706SOL    HW3 2871   4.114   0.818   1.245  1.0919  1.1002 -1.1546
  706SOL    MW4 2872   4.067   0.878   1.288 -0.0038 -0.3611 -0.2364
  707SOL     OW 2873   4.018   1.107   1.123  0.2981 -0.2020 -0.2247
  707SOL    HW2 2874   4.042   1.038   1.185  0.1930  0.3091  0.3854
  707SOL    HW3 2875   3.946   1.154   1.166  0.1459  0.0788 -0.7820
  707SOL    MW4 2876   4.012   1.104   1.137  0.2642 -0.0976 -0.2178
  708SOL     OW 2877   4.252   1.247   1.224 -0.3269  0.1210 -0.0107
  708SOL    HW2 2878   4.243   1.257   1.319  0.9837 -1.1764  0.2808
  708SOL    HW3 2879   4.178   1.193   1.198  0.0418 -0.6443  0.5000
  708SOL    MW4 2880   4.241   1.242   1.233 -0.1054 -0.1512  0.0952
  709SOL     OW 2881   4.218   1.526   1.156  0.1343  0.0254 -0.0036
  709SOL    HW2 2882   4.214   1.433   1.178 -1.1696 -0.0265 -0.3951
  709SOL    HW3 2883   4.306   1.554   1.182  0.4986 -1.2924  0.2007
  709SOL    MW4 2884   4.229   1.518   1.162  0.0100 -0.1553 -0.0283
  710SOL     OW 2885   4.006   1.671   1.232 -0.3194  0.3187 -0.2038
  710SOL    HW2 2886   4.015   1.689   1.326  0.1878  0.6415 -0.3094
  710SOL    HW3 2887   4.083   1.618   1.211 -0.7786 -0.3042 -0.3008
  710SOL    MW4 2888   4.018   1.667   1.242 -0.3128  0.2792 -0.2306
  711SOL     OW 2889   4.075   1.922   1.137 -0.1328 -0.3989  0.2514
  711SOL    HW2 2890   4.057   1.832   1.162 -0.9215  0.0845  1.5007
  711SOL    HW3 2891   4.096   1.918   1.044 -2.0686 -1.6185 -0.1486
  711SOL    MW4 2892   4.076   1.910   1.128 -0.4921 -0.4960  0.3633
  712SOL     OW 2893   4.292   2.054   1.236  0.5070 -0.5008 -0.1654
  712SOL    HW2 2894   4.261   2.140   1.206 -0.3313 -0.2249  1.4328
  712SOL    HW3 2895   4.228   1.992   1.204  0.2188 -0.3342  0.0841
  712SOL    MW4 2896   4.280   2.057   1.228  0.3586 -0.4427  0.0784
  713SOL     OW 2897   4.271   2.320   1.159  0.0888 -0.0254 -0.0665
  713SOL    HW2 2898   4.199   2.380   1.179  0.0082 -0.2879  0.4241
  713SOL    HW3 2899   4.281   2.326   1.063 -1.6794 -1.2401 -0.3538
  713SOL    MW4 2900   4.263   2.329   1.149 -0.1554 -0.2203 -0.0396
  714SOL     OW 2901   4.041   2.450   1.259  0.3117  0.6789 -0.2044
  714SOL    HW2 2902   4.057   2.440   1.353 -0.9346  0.1945 -0.0364
  714SOL    HW3 2903   4.054   2.544   1.243  0.9475  0.6950  0.3645
  714SOL    MW4 2904   4.045   2.461   1.269  0.2308  0.6170 -0.1072
  715SOL     OW 2905   4.064   2.717   1.166 -0.0033  0.2267  0.1036
  715SOL    HW2 2906   3.982   2.761   1.186 -1.2892 -2.2551  0.4235
  715SOL    HW3 2907   4.067   2.715   1.070 -1.8038 -2.2435  0.0387
  715SOL    MW4 2908   4.054   2.722   1.156 -0.4106 -0.4263  0.1372
  716SOL     OW 2909   4.290   2.846   1.266 -0.0696  0.3270 -0.0204
  716SOL    HW2 2910   4.297   2.936   1.234  0.6387 -0.3208 -1.7692
  716SOL    HW3 2911   4.212   2.811   1.222 -0.0212 -0.0773  0.2132
  716SOL    MW4 2912   4.281   2.853   1.256  0.0300  0.1881 -0.2204
  717SOL     OW 2913   4.284   3.113   1.180 -0.3590  0.0971  0.3810
  717SOL    HW2 2914   4.196   3.135   1.209 -1.3883 -1.7215 -1.1978
  717SOL    HW3 2915   4.284   3.135   1.087  0.6031 -0.5817  0.2154
  717SOL    MW4 2916   4.272   3.119   1.171 -0.3681 -0.2325  0.1507
  718SOL     OW 2917   4.043   3.236   1.238 -0.0998 -0.5614 -0.3064
  718SOL    HW2 2918   4.032   3.220   1.332 -0.2731 -0.7605 -0.3597
  718SOL    HW3 2919   3.989   3.169   1.196 -0.5589 -0.0486 -0.5380
  718SOL    MW4 2920   4.034   3.225   1.245 -0.1831 -0.5200 -0.3439
  719SOL     OW 2921   4.025   3.477   1.133  0.1477 -0.5091  0.0615
  719SOL    HW2 2922   4.028   3.391   1.175  1.2118 -0.5061  0.0165
  719SOL    HW3 2923   3.975   3.532   1.194  1.9359 -0.4177  1.5293
  719SOL    MW4 2924   4.019   3.473   1.147  0.5236 -0.4966  0.2490
  720SOL     OW 2925   4.256   3.607   1.266 -0.0821  0.1544 -0.5482
  720SOL    HW2 2926   4.173   3.567   1.241  0.2294 -1.9822  1.6754
  720SOL    HW3 2927   4.322   3.561   1.213 -0.1232  0.6243 -1.0150
  720SOL    MW4 2928   4.254   3.596   1.256 -0.0463 -0.0653 -0.3165
  721SOL     OW 2929   4.291   3.874   1.157 -0.0536 -0.4509 -0.2224
  721SOL    HW2 2930   4.210   3.904   1.199  0.2828 -0.3495  0.3600
  721SOL    HW3 2931   4.300   3.783   1.187 -0.0052 -0.4956 -0.3737
  721SOL    MW4 2932   4.281   3.866   1.167 -0.0029 -0.4435 -0.1657
  722SOL     OW 2933   4.038   3.983   1.260  0.1013 -0.0865  0.2257
  722SOL    HW2 2934   4.038   4.067   1.215 -1.3878  0.1673  0.6756
  722SOL    HW3 2935   3.967   3.934   1.219 -0.8092 -0.1135  1.7920
  722SOL    MW4 2936   4.028   3.987   1.249 -0.2151 -0.0563  0.4916
  723SOL     OW 2937   4.076   4.222   1.117 -0.3249  0.0927 -0.3289
  723SOL    HW2 2938   4.006   4.267   1.165  1.0375  1.7402  0.1754
  723SOL    HW3 2939   4.086   4.273   1.036  0.8239  0.3535 -0.0326
  723SOL    MW4 2940   4.068   4.235   1.112  0.0062  0.3448 -0.2233
  724SOL     OW 2941   4.271   4.354   1.240  0.4508  0.5786  0.1879
  724SOL    HW2 2942   4.202   4.302   1.199  0.0837  1.5369 -0.4447
  724SOL    HW3 2943   4.352   4.324   1.199  0.1147  1.3411 -1.0892
  724SOL    MW4 2944   4.273   4.343   1.229  0.3576  0.8059 -0.0640
  725SOL     OW 2945   0.254   4.615   1.635 -0.5947 -0.1810 -0.4415
  725SOL    HW2 2946   0.323   4.669   1.596 -1.4005  1.1894  0.0092
  725SOL    HW3 2947   0.174   4.666   1.625 -1.0139 -0.2924  1.9333
  725SOL    MW4 2948   0.253   4.629   1.629 -0.7563 -0.0153 -0.0685
  726SOL     OW 2949   0.007   0.113   1.533  0.2707  0.2804  0.3455
  726SOL    HW2 2950  -0.082   0.086   1.555  0.9217  0.1868  3.0205
  726SOL    HW3 2951   0.022   0.077   1.445 -1.7666 -1.0235  0.5023
  726SOL    MW4 2952  -0.003   0.105   1.524  0.0877  0.0960  0.7191
  727SOL     OW 2953   0.000   0.366   1.616 -0.4704  0.2599  0.1919
  727SOL    HW2 2954   0.005   0.355   1.711  1.2155 -0.0947  0.0862
  727SOL    HW3 2955   0.003   0.276   1.582 -0.1009  0.4326 -0.2322
  727SOL    MW4 2956   0.001   0.352   1.624 -0.1992  0.2359  0.1220
  728SOL     OW 2957   0.245   0.468   1.538  0.3578 -0.0381 -0.0760
  728SOL    HW2 2958   0.161   0.427   1.556 -0.2257  0.7790 -0.8974
  728SOL    HW3 2959   0.251   0.470   1.443  0.3226  1.8674 -0.0552
  728SOL    MW4 2960   0.235   0.463   1.528  0.2762  0.3211 -0.1816
  729SOL     OW 2961   0.225   0.730   1.640  0.2005  0.5263  0.2349
  729SOL    HW2 2962   0.290   0.781   1.592  0.9050  0.2362  0.8669
  729SOL    HW3 2963   0.232   0.642   1.603  0.0981  0.5213  0.2285
  729SOL    MW4 2964   0.235   0.725   1.629  0.2799  0.4874  0.3175
  730SOL     OW 2965   0.026   0.874   1.529 -0.3170 -0.2589  0.1981
  730SOL    HW2 2966   0.022   0.965   1.560 -1.3307 -0.7308  1.4628
  730SOL    HW3 2967   0.103   0.837   1.573 -0.1646 -0.1487  0.0265
  730SOL    MW4 2968   0.036   0.881   1.539 -0.4307 -0.3066  0.3424
  731SOL     OW 2969   4.481   1.139   1.606  0.1344 -0.4428  0.1957
  731SOL    HW2 2970   4.476   1.161   1.699  0.2052 -1.0723  0.3535
  731SOL    HW3 2971   4.558   1.186   1.574 -0.0555  0.0006  0.3885
  731SOL    MW4 2972   4.490   1.148   1.614  0.1187 -0.4673  0.2420
  732SOL     OW 2973   0.223   1.279   1.518  0.0771 -0.1375 -0.1162
  732SOL    HW2 2974   0.225   1.372   1.542 -0.1035 -0.3008  0.5260
  732SOL    HW3 2975   0.225   1.280   1.422  1.7220  0.4863 -0.1001
  732SOL    MW4 2976   0.224   1.292   1.509  0.2703 -0.0769 -0.0293
  733SOL     OW 2977   0.233   1.554   1.600  0.2030  0.1938  0.2113
  733SOL    HW2 2978   0.234   1.535   1.694  0.3054  0.1407  0.1993
  733SOL    HW3 2979   0.155   1.608   1.587  1.4265  2.1729  0.7254
  733SOL    MW4 2980   0.223   1.559   1.611  0.3780  0.4479  0.2775
  734SOL     OW 2981   4.463   1.672   1.542 -0.3100  0.2870  0.1543
  734SOL    HW2 2982   4.457   1.766   1.560  0.1206  0.0902  1.3636
  734SOL    HW3 2983   4.459   1.666   1.446  2.7067  1.7902 -0.1292
  734SOL    MW4 2984   4.462   1.684   1.532  0.1450  0.4594  0.2766
  735SOL     OW 2985   4.481   1.940   1.627 -0.6467  0.1492  0.0181
  735SOL    HW2 2986   4.482   1.959   1.720 -0.4334  0.0446  0.0370
  735SOL    HW3 2987   4.407   1.991   1.593  0.3700  1.5863 -0.0543
  735SOL    MW4 2988   4.471   1.949   1.634 -0.4845  0.3250  0.0111
  736SOL     OW 2989   0.229   2.036   1.508 -0.1449  0.1836 -0.4818
  736SOL    HW2 2990   0.155   1.978   1.525  0.6792 -0.7944 -0.1508
  736SOL    HW3 2991   0.218   2.062   1.416 -0.5956 -0.3897 -0.5936
  736SOL    MW4 2992   0.218   2.032   1.498 -0.0956 -0.0210 -0.4529
  737SOL     OW 2993   0.263   2.307   1.584 -0.2326  0.0771 -0.4025
  737SOL    HW2 2994   0.240   2.291   1.675 -0.6805  0.0103 -0.5263
  737SOL    HW3 2995   0.261   2.220   1.543  1.7266 -0.1410 -0.0810
  737SOL    MW4 2996   0.259   2.293   1.590 -0.0332  0.0396 -0.3763
  738SOL     OW 2997   0.036   2.451   1.525 -0.1931  0.1228  0.4359
  738SOL    HW2 2998  -0.030   2.400   1.572  0.7351  0.7962  2.5412
  738SOL    HW3 2999   0.117   2.401   1.536  0.4552  1.3587  1.3932
  738SOL    MW4 3000   0.038   2.438   1.532  0.0149  0.3750  0.8401
  739SOL     OW 3001   0.032   2.720   1.610 -0.0431  0.0176  0.0739
  739SOL    HW2 3002  -0.055   2.756   1.593 -0.1324 -0.7223 -1.0763
  739SOL    HW3 3003   0.023   2.626   1.594  1.0134 -0.0296 -0.2841
  739SOL    MW4 3004   0.020   2.712   1.606  0.0844 -0.0863 -0.1251
  740SOL     OW 3005   0.241   2.854   1.475 -0.1569 -0.1154  0.1066
  740SOL    HW2 3006   0.165   2.819   1.520  0.7254 -0.4746  1.3575
  740SOL    HW3 3007   0.316   2.813   1.518  0.7807  0.8538 -0.5479
  740SOL    MW4 3008   0.241   2.844   1.486  0.0832 -0.0348  0.1854
  741SOL     OW 3009   0.274   3.101   1.601 -0.1909 -0.5051 -0.0288
  741SOL    HW2 3010   0.256   3.014   1.566 -0.9776 -0.9382  1.4330
  741SOL    HW3 3011   0.194   3.150   1.585 -0.3544 -0.5441  0.6678
  741SOL    MW4 3012   0.261   3.096   1.594 -0.3162 -0.5674  0.2559
  742SOL     OW 3013   0.056   3.226   1.558  0.0305  0.5312  0.6715
  742SOL    HW2 3014   0.044   3.318   1.582 -0.4723  0.3653  1.0742
  742SOL    HW3 3015   0.056   3.226   1.462  0.6706  1.0284  0.6675
  742SOL    MW4 3016   0.054   3.238   1.549  0.0486  0.5748  0.7242
  743SOL     OW 3017   0.000   3.472   1.650  0.2078 -0.3129  0.5850
  743SOL    HW2 3018  -0.015   3.466   1.744  1.2962  0.4124  0.8204
  743SOL    HW3 3019  -0.062   3.538   1.619  0.0407 -0.3484  0.8487
  743SOL    MW4 3020  -0.010   3.480   1.659  0.3295 -0.2220  0.6509
  744SOL     OW 3021   0.221   3.605   1.537 -0.1257  0.0535  0.1263
  744SOL    HW2 3022   0.148   3.571   1.588  0.5592  0.2983  1.3057
  744SOL    HW3 3023   0.298   3.561   1.572  0.2016 -0.8858 -1.7306
  744SOL    MW4 3024   0.222   3.595   1.548  0.0078 -0.0381  0.0368
  745SOL     OW 3025   0.228   3.865   1.586 -0.0128 -0.2533  0.2929
  745SOL    HW2 3026   0.213   3.867   1.680 -0.6777 -0.6322  0.2013
  745SOL    HW3 3027   0.217   3.773   1.562 -1.1069  0.0259 -0.3431
  745SOL    MW4 3028   0.225   3.853   1.595 -0.2449 -0.2666  0.1969
  746SOL     OW 3029   0.007   4.006   1.525 -0.0543  0.7819 -0.1210
  746SOL    HW2 3030   0.017   4.095   1.559 -0.3963  0.1152  1.7910
  746SOL    HW3 3031   0.091   3.964   1.542 -0.2061  0.4576 -0.1756
  746SOL    MW4 3032   0.019   4.013   1.532 -0.1194  0.6514  0.1241
  747SOL     OW 3033   0.011   4.256   1.601  0.0250  0.0134 -0.0106
  747SOL    HW2 3034   0.003   4.256   1.696 -0.2767 -1.0896 -0.0249
  747SOL    HW3 3035  -0.068   4.301   1.570 -0.0397  0.0729  0.2456
  747SOL    MW4 3036  -0.001   4.262   1.609 -0.0234 -0.1240  0.0212
  748SOL     OW 3037   0.256   4.368   1.494  0.5129  0.1218 -0.2317
  748SOL    HW2 3038   0.169   4.339   1.523  0.4939  0.2945 -0.1120
  748SOL    HW3 3039   0.267   4.453   1.536  1.4924 -0.7000  1.1839
  748SOL    MW4 3040   0.246   4.376   1.503  0.6397  0.0362 -0.0291
  749SOL     OW 3041   0.710   4.622   1.564  0.2641  0.4009  0.1484
  749SOL    HW2 3042   0.789   4.673   1.546  0.0201  1.4406  1.9452
  749SOL    HW3 3043   0.638   4.679   1.538  0.0469 -0.0201 -0.1942
  749SOL    MW4 3044   0.711   4.636   1.558  0.2033  0.4821  0.3405
  750SOL     OW 3045   0.459   0.082   1.503  0.0403  0.4282 -0.0209
  750SOL    HW2 3046   0.468   0.171   1.535  1.6757  0.8594 -1.6280
  750SOL    HW3 3047   0.465   0.089   1.408 -2.1748 -1.1363 -0.3244
  750SOL    MW4 3048   0.461   0.094   1.495 -0.0362  0.2787 -0.2729
  751SOL     OW 3049   0.472   0.333   1.605  0.1030 -0.0897  0.0965
  751SOL    HW2 3050   0.548   0.382   1.576 -0.4483  0.8713  0.2661
  751SOL    HW3 3051   0.398   0.391   1.589 -0.4752 -0.5597  1.0175
  751SOL    MW4 3052   0.472   0.347   1.599 -0.0460 -0.0249  0.2404
  752SOL     OW 3053   0.687   0.502   1.525 -0.1475 -0.2025 -0.0021
  752SOL    HW2 3054   0.663   0.590   1.553  0.7052  0.3369 -0.9444
  752SOL    HW3 3055   0.682   0.505   1.430  0.1649 -1.0959 -0.0519
  752SOL    MW4 3056   0.683   0.514   1.516  0.0063 -0.2492 -0.1329
  753SOL     OW 3057   0.663   0.778   1.600 -0.1064  0.1129 -0.1875
  753SOL    HW2 3058   0.666   0.763   1.695 -1.5387 -0.1576 -0.1704
  753SOL    HW3 3059   0.744   0.825   1.580 -0.3599  1.2200  1.3503
  753SOL    MW4 3060   0.674   0.782   1.610 -0.3288  0.2233  0.0175
  754SOL     OW 3061   0.427   0.880   1.504  0.0812  0.0834 -0.3553
  754SOL    HW2 3062   0.417   0.966   1.545 -0.9785 -0.8858  1.4911
  754SOL    HW3 3063   0.514   0.851   1.532 -0.8962 -0.8522  1.8101
  754SOL    MW4 3064   0.437   0.888   1.513 -0.1876 -0.1679  0.1742
  755SOL     OW 3065   0.449   1.131   1.622  0.6345  0.3869  0.1628
  755SOL    HW2 3066   0.526   1.182   1.595  0.0573  0.2155 -1.8881
  755SOL    HW3 3067   0.375   1.185   1.594  0.0150 -0.5467  0.0090
  755SOL    MW4 3068   0.449   1.145   1.614  0.4766  0.2412 -0.1280
  756SOL     OW 3069   0.678   1.264   1.548  0.0330 -0.5526 -0.4220
  756SOL    HW2 3070   0.692   1.356   1.569  1.8242 -0.7965 -0.4612
  756SOL    HW3 3071   0.664   1.263   1.454  1.8076 -0.4930 -0.7039
  756SOL    MW4 3072   0.678   1.276   1.539  0.5035 -0.5769 -0.4646
  757SOL     OW 3073   0.696   1.532   1.606 -0.0573  0.3623  0.0765
  757SOL    HW2 3074   0.778   1.562   1.567 -0.2456  0.2229 -0.4269
  757SOL    HW3 3075   0.633   1.601   1.587  0.3867  1.3565  2.1008
  757SOL    MW4 3076   0.698   1.545   1.598 -0.0235  0.4750  0.2772
  758SOL     OW 3077   0.478   1.681   1.520 -0.3098 -0.0084  0.2736
  758SOL    HW2 3078   0.484   1.765   1.566 -0.8229  0.1842 -0.0112
  758SOL    HW3 3079   0.394   1.645   1.548  0.3807 -0.9083  1.2067
  758SOL    MW4 3080   0.468   1.688   1.530 -0.2864 -0.1017  0.3592
  759SOL     OW 3081   0.456   1.933   1.650  0.1250 -0.2037 -0.2095
  759SOL    HW2 3082   0.435   1.940   1.744 -1.1240 -1.4045 -0.3797
  759SOL    HW3 3083   0.379   1.970   1.606  0.9602  0.8969 -0.7665
  759SOL    MW4 3084   0.443   1.939   1.657  0.0704 -0.2170 -0.3057
  760SOL     OW 3085   0.667   2.028   1.499  0.0307 -0.3148 -0.2315
  760SOL    HW2 3086   0.749   2.006   1.543  0.4954  1.2759 -0.2919
  760SOL    HW3 3087   0.599   2.001   1.561  0.6096 -0.6100  0.2844
  760SOL    MW4 3088   0.669   2.021   1.513  0.1684 -0.1440 -0.1715
  761SOL     OW 3089   0.726   2.301   1.553  0.0077  0.2424  0.0606
  761SOL    HW2 3090   0.640   2.339   1.536  0.1379 -0.2238 -1.7562
  761SOL    HW3 3091   0.713   2.206   1.544  0.5415  0.1209  0.5174
  761SOL    MW4 3092   0.713   2.293   1.549  0.0953  0.1650 -0.1189
  762SOL     OW 3093   0.493   2.444   1.506  0.2905  0.0263  0.2251
  762SOL    HW2 3094   0.492   2.536   1.535 -0.5208  0.3876 -0.9367
  762SOL    HW3 3095   0.411   2.408   1.538 -0.5038  0.3637 -1.3651
  762SOL    MW4 3096   0.482   2.452   1.514  0.0787  0.1185 -0.1382
  763SOL     OW 3097   0.471   2.709   1.597  0.0979 -0.2719  0.4673
  763SOL    HW2 3098   0.491   2.705   1.690  0.0899 -1.1613  0.4401
  763SOL    HW3 3099   0.546   2.753   1.558 -0.1449  0.5979  0.9554
  763SOL    MW4 3100   0.483   2.714   1.604  0.0648 -0.2747  0.5281
  764SOL     OW 3101   0.701   2.803   1.490  0.6274  0.1844  0.0742
  764SOL    HW2 3102   0.693   2.894   1.518 -0.9720  0.2637 -0.6274
  764SOL    HW3 3103   0.708   2.807   1.394  0.3834 -0.4336  0.0226
  764SOL    MW4 3104   0.701   2.815   1.481  0.3842  0.1132 -0.0252
  765SOL     OW 3105   0.706   3.073   1.595  0.3383 -0.2766 -0.0450
  765SOL    HW2 3106   0.779   3.130   1.570 -0.7014  1.3398  0.5026
  765SOL    HW3 3107   0.628   3.120   1.566 -0.5725 -1.2224  0.8133
  765SOL    MW4 3108   0.705   3.087   1.588  0.0809 -0.1881  0.1405
  766SOL     OW 3109   0.496   3.233   1.502 -0.2728 -0.3180  0.6458
  766SOL    HW2 3110   0.489   3.254   1.409 -1.1776 -0.1323  0.7535
  766SOL    HW3 3111   0.418   3.181   1.521  0.5101 -1.3687  1.0349
  766SOL    MW4 3112   0.485   3.229   1.492 -0.2889 -0.4320  0.7113
  767SOL     OW 3113   0.459   3.468   1.635 -0.6519 -0.0419  0.0318
  767SOL    HW2 3114   0.445   3.444   1.726 -0.0796  1.0900  0.4227
  767SOL    HW3 3115   0.464   3.384   1.589  1.5504 -0.7004  1.4100
  767SOL    MW4 3116   0.458   3.454   1.641 -0.2858  0.0203  0.2654
  768SOL     OW 3117   0.655   3.612   1.531  0.1239  0.3764 -0.1138
  768SOL    HW2 3118   0.738   3.571   1.553  0.8535  1.4134 -0.8509
  768SOL    HW3 3119   0.588   3.554   1.567  1.1604 -0.6667  0.1374
  768SOL    MW4 3120   0.657   3.599   1.539  0.3569  0.3753 -0.1780
  769SOL     OW 3121   0.668   3.879   1.636  0.7011  0.5467 -0.3404
  769SOL    HW2 3122   0.745   3.919   1.596  1.2167 -0.0089  0.0773
  769SOL    HW3 3123   0.672   3.787   1.609  0.0384  0.5698 -0.5317
  769SOL    MW4 3124   0.678   3.872   1.627  0.6817  0.4766 -0.3105
  770SOL     OW 3125   0.457   3.993   1.493  0.0788 -0.0460  0.0085
  770SOL    HW2 3126   0.537   3.951   1.526  0.1342 -0.9466 -1.2244
  770SOL    HW3 3127   0.386   3.940   1.529  0.1365 -0.9708 -1.1975
  770SOL    MW4 3128   0.458   3.980   1.502  0.0937 -0.2871 -0.3132
  771SOL     OW 3129   0.456   4.232   1.629 -0.0653 -0.9162  0.2211
  771SOL    HW2 3130   0.451   4.147   1.585  0.5455 -1.0232  0.3441
  771SOL    HW3 3131   0.383   4.282   1.593 -0.0351 -1.2684 -0.3454
  771SOL    MW4 3132   0.446   4.227   1.618  0.0193 -0.9766  0.1626
  772SOL     OW 3133   0.684   4.341   1.510 -0.7865  0.3325  0.2098
  772SOL    HW2 3134   0.613   4.305   1.563 -2.6440  1.7254 -1.2476
  772SOL    HW3 3135   0.677   4.436   1.524  0.4863  0.5085 -0.3398
  772SOL    MW4 3136   0.673   4.349   1.519 -0.8636  0.5393 -0.0551
  773SOL     OW 3137   1.154   4.634   1.631  0.2479 -0.3939 -0.1447
  773SOL    HW2 3138   1.139   4.650   1.724 -0.1944 -0.7410 -0.1543
  773SOL    HW3 3139   1.232   4.685   1.610  0.1897 -0.0980  0.3529
  773SOL    MW4 3140   1.162   4.643   1.641  0.1819 -0.4005 -0.0803
  774SOL     OW 3141   0.933   0.087   1.499 -0.2391 -0.3437  0.0933
  774SOL    HW2 3142   0.923   0.177   1.531 -2.0449 -1.0381  1.5550
  774SOL    HW3 3143   1.021   0.062   1.524 -0.3295  0.4385  1.2174
  774SOL    MW4 3144   0.943   0.096   1.506 -0.4893 -0.3321  0.4344
  775SOL     OW 3145   0.908   0.345   1.606 -0.1342  0.0254 -0.1390
  775SOL    HW2 3146   0.921   0.342   1.701 -2.2487 -1.2541  0.1447
  775SOL    HW3 3147   0.837   0.407   1.593 -0.5959 -0.6229 -0.7844
  775SOL    MW4 3148   0.900   0.353   1.617 -0.4740 -0.2289 -0.1868
  776SOL     OW 3149   1.143   0.474   1.502  0.1748  0.4252 -0.1936
  776SOL    HW2 3150   1.138   0.554   1.554  0.5808  0.2365  0.1392
  776SOL    HW3 3151   1.064   0.425   1.525  0.0010  0.6608 -0.2862
  776SOL    MW4 3152   1.132   0.478   1.512  0.2054  0.4314 -0.1620
  777SOL     OW 3153   1.123   0.728   1.616 -0.0068 -0.2591 -0.3486
  777SOL    HW2 3154   1.125   0.742   1.710 -1.2239 -0.5596 -0.2650
  777SOL    HW3 3155   1.194   0.783   1.582 -0.7050  1.2474  0.5792
  777SOL    MW4 3156   1.132   0.737   1.624 -0.2594 -0.1000 -0.2151
  778SOL     OW 3157   0.913   0.884   1.548 -0.1336  0.3157  0.2110
  778SOL    HW2 3158   0.985   0.825   1.572 -0.4111 -0.1471 -0.0901
  778SOL    HW3 3159   0.896   0.865   1.456  0.1054  1.2236 -0.0262
  778SOL    MW4 3160   0.920   0.873   1.539 -0.1387  0.3744  0.1400
  779SOL     OW 3161   0.930   1.145   1.618 -0.1309  0.0965  0.0146
  779SOL    HW2 3162   0.933   1.052   1.594 -2.3266 -0.0005  0.0223
  779SOL    HW3 3163   0.841   1.173   1.595  0.6854  2.3534 -0.5280
  779SOL    MW4 3164   0.919   1.137   1.612 -0.3129  0.3815 -0.0558
  780SOL     OW 3165   1.138   1.296   1.490  0.2105  0.5858 -0.2284
  780SOL    HW2 3166   1.217   1.257   1.528 -0.5842 -0.7030  0.0969
  780SOL    HW3 3167   1.066   1.246   1.527 -0.7202  1.1962 -1.2082
  780SOL    MW4 3168   1.139   1.284   1.500 -0.0172  0.4963 -0.3148
  781SOL     OW 3169   1.114   1.527   1.638  0.0690 -0.2228 -0.4760
  781SOL    HW2 3170   1.191   1.583   1.625 -0.4558  0.3589 -1.1332
  781SOL    HW3 3171   1.134   1.447   1.589  0.5800 -0.3846 -0.0077
  781SOL    MW4 3172   1.127   1.524   1.630  0.0672 -0.1674 -0.5010
  782SOL     OW 3173   0.911   1.692   1.533  0.4222 -0.2297  0.3839
  782SOL    HW2 3174   0.983   1.644   1.574 -0.2453 -0.6724  1.0609
  782SOL    HW3 3175   0.929   1.688   1.440  0.9861 -0.8149  0.5155
  782SOL    MW4 3176   0.923   1.685   1.526  0.4085 -0.3654  0.4907
  783SOL     OW 3177   0.892   1.946   1.629  0.3262  0.4893 -0.4882
  783SOL    HW2 3178   0.979   1.986   1.623  0.6900 -0.2795 -0.3897
  783SOL    HW3 3179   0.903   1.860   1.589 -0.0039 -0.2287  0.9527
  783SOL    MW4 3180   0.905   1.940   1.623  0.3307  0.2933 -0.2850
  784SOL     OW 3181   1.123   2.089   1.535 -0.3256  0.0383  0.0206
  784SOL    HW2 3182   1.206   2.046   1.554 -0.7549 -0.2155  1.3542
  784SOL    HW3 3183   1.133   2.177   1.570 -0.0879  0.4694 -1.1295
  784SOL    MW4 3184   1.135   2.095   1.542 -0.3508  0.0618  0.0448
  785SOL     OW 3185   1.139   2.341   1.657  0.5080 -0.1820  0.2606
  785SOL    HW2 3186   1.218   2.357   1.606  0.8957  1.1987  1.2691
  785SOL    HW3 3187   1.067   2.368   1.599  0.9597  1.5995  0.4989
  785SOL    MW4 3188   1.140   2.347   1.643  0.6187  0.2351  0.4250
  786SOL     OW 3189   0.949   2.431   1.465  0.5643 -0.0195 -0.1720
  786SOL    HW2 3190   0.924   2.518   1.497  0.3700  0.5304 -1.7682
  786SOL    HW3 3191   0.876   2.374   1.491  0.2888  0.4605  0.1246
  786SOL    MW4 3192   0.936   2.435   1.473  0.5023  0.1166 -0.3433
  787SOL     OW 3193   0.920   2.687   1.598  0.1794  0.2296  0.2762
  787SOL    HW2 3194   0.921   2.693   1.693 -0.3190 -0.5980  0.3301
  787SOL    HW3 3195   0.835   2.722   1.573 -0.8054 -2.0557  0.3065
  787SOL    MW4 3196   0.909   2.693   1.607 -0.0163 -0.1812  0.2874
  788SOL     OW 3197   1.120   2.808   1.469 -0.4073  0.1095 -0.0137
  788SOL    HW2 3198   1.118   2.893   1.514 -1.0997  0.0541  0.0549
  788SOL    HW3 3199   1.048   2.759   1.508  1.6767 -1.5185  1.9642
  788SOL    MW4 3200   1.111   2.813   1.480 -0.2238 -0.1128  0.2564
  789SOL     OW 3201   1.134   3.050   1.601  0.2764  0.2513 -0.3543
  789SOL    HW2 3202   1.149   3.053   1.695  2.2009  0.9789 -0.6620
  789SOL    HW3 3203   1.208   3.097   1.563 -1.2999  1.3613 -2.1583
  789SOL    MW4 3204   1.146   3.056   1.608  0.3222  0.4935 -0.6329
  790SOL     OW 3205   0.935   3.247   1.545 -0.4786  0.5295 -0.3393
  790SOL    HW2 3206   1.007   3.192   1.577 -0.0952  0.9639 -0.4408
  790SOL    HW3 3207   0.943   3.243   1.449 -0.7125  0.4197 -0.3541
  790SOL    MW4 3208   0.946   3.239   1.536 -0.4589  0.5722 -0.3546
  791SOL     OW 3209   0.877   3.490   1.640  0.5120  0.1544 -0.1666
  791SOL    HW2 3210   0.948   3.552   1.622  1.9291 -0.6273  2.6042
  791SOL    HW3 3211   0.907   3.407   1.603  1.3258 -0.3094  1.4880
  791SOL    MW4 3212   0.890   3.487   1.633  0.8064 -0.0100  0.4174
  792SOL     OW 3213   1.139   3.586   1.536  0.0898 -0.5653 -0.6647
  792SOL    HW2 3214   1.210   3.522   1.545  0.9778  0.6620  1.6286
  792SOL    HW3 3215   1.135   3.605   1.442  1.1686 -2.4657 -1.1082
  792SOL    MW4 3216   1.148   3.580   1.524  0.3493 -0.6540 -0.4205
  793SOL     OW 3217   1.157   3.848   1.617 -0.1880 -0.4970  0.3801
  793SOL    HW2 3218   1.241   3.879   1.584 -0.5028  1.6999  1.5447
  793SOL    HW3 3219   1.153   3.757   1.590  1.3683  0.0959 -2.0334
  793SOL    MW4 3220   1.167   3.840   1.609 -0.0242 -0.1287  0.2154
  794SOL     OW 3221   0.911   3.970   1.560 -0.0702  0.3798  0.0935
  794SOL    HW2 3222   0.936   4.058   1.589  0.3623  1.1727 -2.6089
  794SOL    HW3 3223   0.991   3.918   1.571  0.0376  0.6116  0.4499
  794SOL    MW4 3224   0.925   3.975   1.566  0.0011  0.5147 -0.2160
  795SOL     OW 3225   0.904   4.223   1.619  0.4327  0.0100 -0.2930
  795SOL    HW2 3226   0.909   4.253   1.710 -0.4904 -0.8364  0.0438
  795SOL    HW3 3227   0.824   4.264   1.585  0.9758  0.6299 -0.8458
  795SOL    MW4 3228   0.894   4.232   1.627  0.3826 -0.0200 -0.3216
  796SOL     OW 3229   1.149   4.370   1.530  0.3327  0.6795  0.4299
  796SOL    HW2 3230   1.068   4.322   1.550  0.2540  0.3472 -0.6673
  796SOL    HW3 3231   1.138   4.455   1.573 -0.7951  0.7999 -0.0768
  796SOL    MW4 3232   1.137   4.375   1.538  0.1736  0.6518  0.2183
  797SOL     OW 3233   1.565   4.651   1.620  0.4464  0.0550 -0.0118
  797SOL    HW2 3234   1.542   4.643   1.713  0.1544  0.0333 -0.0869
  797SOL    HW3 3235   1.494   4.703   1.582  1.1905  1.1081  0.0210
  797SOL    MW4 3236   1.553   4.657   1.627  0.5062  0.1912 -0.0175
  798SOL     OW 3237   1.359   0.131   1.537  0.1205  0.0287  0.2569
  798SOL    HW2 3238   1.361   0.218   1.577 -0.1394  0.3882 -0.5123
  798SOL    HW3 3239   1.353   0.148   1.443 -0.6776 -0.8260  0.1474
  798SOL    MW4 3240   1.359   0.145   1.530 -0.0191 -0.0367  0.1409
  799SOL     OW 3241   1.356   0.374   1.654 -0.4205 -0.1092 -0.0568
  799SOL    HW2 3242   1.422   0.427   1.609  0.1719  0.3832  1.3635
  799SOL    HW3 3243   1.276   0.386   1.603  0.2304  0.4761 -0.9388
  799SOL    MW4 3244   1.354   0.382   1.641 -0.2563  0.0329  0.0142
  800SOL     OW 3245   1.570   0.526   1.540 -0.4220  0.2336 -0.1703
  800SOL    HW2 3246   1.645   0.478   1.576 -1.8961 -1.3854  0.8575
  800SOL    HW3 3247   1.569   0.503   1.447 -1.6762 -2.5829  0.4917
  800SOL    MW4 3248   1.580   0.517   1.532 -0.7819 -0.3516  0.0527
  801SOL     OW 3249   1.566   0.790   1.613 -0.2145 -0.1307 -0.1263
  801SOL    HW2 3250   1.540   0.787   1.705  1.3482  0.0512  0.3241
  801SOL    HW3 3251   1.548   0.702   1.580 -0.4841 -0.2852  0.4274
  801SOL    MW4 3252   1.560   0.778   1.621 -0.0439 -0.1271  0.0061
  802SOL     OW 3253   1.323   0.888   1.515  0.4657  0.0432  0.4648
  802SOL    HW2 3254   1.408   0.854   1.544  0.0047  0.4308  2.3589
  802SOL    HW3 3255   1.315   0.859   1.425  2.2072 -0.7918  0.5560
  802SOL    MW4 3256   1.333   0.879   1.507  0.6346 -0.0159  0.7267
  803SOL     OW 3257   1.338   1.164   1.596 -0.5675  0.1371  0.0368
  803SOL    HW2 3258   1.315   1.161   1.689  0.7909  0.5781  0.3883
  803SOL    HW3 3259   1.335   1.073   1.568 -0.0307 -0.1077  0.7493
  803SOL    MW4 3260   1.334   1.152   1.605 -0.3175  0.1630  0.1770
  804SOL     OW 3261   1.585   1.299   1.500  0.1911  0.4977  0.2127
  804SOL    HW2 3262   1.506   1.258   1.535  0.3748  0.4389  0.5642
  804SOL    HW3 3263   1.588   1.271   1.408  0.8678 -1.1436  0.7138
  804SOL    MW4 3264   1.575   1.290   1.492  0.3046  0.2733  0.3252
  805SOL     OW 3265   1.527   1.558   1.617  0.0206 -0.3584  0.0224
  805SOL    HW2 3266   1.552   1.546   1.709 -0.4929 -1.4392  0.0285
  805SOL    HW3 3267   1.545   1.474   1.576 -0.9356 -0.2593 -0.6024
  805SOL    MW4 3268   1.533   1.546   1.624 -0.1732 -0.4879 -0.0591
  806SOL     OW 3269   1.314   1.712   1.535 -0.0751  0.6253 -0.6332
  806SOL    HW2 3270   1.391   1.659   1.556 -0.3930  0.0167 -1.0075
  806SOL    HW3 3271   1.301   1.699   1.441 -0.3432  1.1132 -0.6642
  806SOL    MW4 3272   1.322   1.703   1.525 -0.1525  0.6094 -0.6866
  807SOL     OW 3273   1.359   1.975   1.610 -0.6792  0.0303 -0.9121
  807SOL    HW2 3274   1.365   1.954   1.703  0.1785  1.6812 -0.5850
  807SOL    HW3 3275   1.359   1.890   1.566  2.2761 -0.7011  0.4024
  807SOL    MW4 3276   1.360   1.961   1.616 -0.1762  0.1518 -0.6955
  808SOL     OW 3277   1.588   2.061   1.498 -0.0828  0.8700  0.5964
  808SOL    HW2 3278   1.505   2.024   1.526  0.5700 -1.0682  0.0885
  808SOL    HW3 3279   1.584   2.059   1.402  0.5419  0.7600  0.5662
  808SOL    MW4 3280   1.577   2.056   1.489  0.0859  0.5999  0.5254
  809SOL     OW 3281   1.575   2.329   1.573  0.1350  0.2009 -0.4798
  809SOL    HW2 3282   1.654   2.367   1.533  2.1923 -2.1433  1.1376
  809SOL    HW3 3283   1.579   2.236   1.548 -0.1077 -0.7125  2.6230
  809SOL    MW4 3284   1.586   2.321   1.564  0.3744 -0.2291  0.1429
  810SOL     OW 3285   1.342   2.439   1.478 -0.3172  0.1293  0.4246
  810SOL    HW2 3286   1.325   2.521   1.525 -0.5659  0.1185  0.3561
  810SOL    HW3 3287   1.428   2.410   1.509 -0.7699 -0.2252  1.3605
  810SOL    MW4 3288   1.351   2.446   1.488 -0.4098  0.0811  0.5391
  811SOL     OW 3289   1.349   2.697   1.602  0.0237  0.1820  0.6784
  811SOL    HW2 3290   1.421   2.735   1.553 -0.0661 -0.3738  0.1144
  811SOL    HW3 3291   1.271   2.744   1.571 -0.0757 -0.3937  0.0464
  811SOL    MW4 3292   1.348   2.709   1.592 -0.0012  0.0327  0.5207
  812SOL     OW 3293   1.590   2.792   1.494  0.1511  0.3313 -0.2624
  812SOL    HW2 3294   1.661   2.743   1.536  0.1955  0.6490  0.0275
  812SOL    HW3 3295   1.622   2.810   1.406  0.6624  0.9787  0.0578
  812SOL    MW4 3296   1.603   2.788   1.488  0.2244  0.4590 -0.1820
  813SOL     OW 3297   1.614   3.035   1.636  0.0451  0.4163 -0.2342
  813SOL    HW2 3298   1.690   3.075   1.593  0.9049 -0.4660  0.4517
  813SOL    HW3 3299   1.595   2.957   1.583 -0.5373  0.7569 -0.5377
  813SOL    MW4 3300   1.622   3.030   1.623  0.0818  0.3448 -0.1837
  814SOL     OW 3301   1.400   3.182   1.514  0.3824 -0.2438 -0.3260
  814SOL    HW2 3302   1.396   3.269   1.553  1.3322 -1.0076  1.5269
  814SOL    HW3 3303   1.476   3.140   1.555 -0.1204 -1.9782 -1.0994
  814SOL    MW4 3304   1.409   3.188   1.525  0.4414 -0.5732 -0.1836
  815SOL     OW 3305   1.360   3.432   1.617 -0.2329 -0.2624 -0.0517
  815SOL    HW2 3306   1.357   3.424   1.712 -0.4662 -0.0212 -0.0393
  815SOL    HW3 3307   1.446   3.470   1.600 -0.2074 -0.2660  0.0653
  815SOL    MW4 3308   1.371   3.436   1.627 -0.2602 -0.2313 -0.0347
  816SOL     OW 3309   1.589   3.578   1.530  0.4431  0.1099  0.2911
  816SOL    HW2 3310   1.602   3.668   1.561  0.3681  0.2627 -0.1248
  816SOL    HW3 3311   1.563   3.587   1.439 -1.8275 -0.2262  0.8751
  816SOL    MW4 3312   1.587   3.591   1.522  0.1336  0.0858  0.3133
  817SOL     OW 3313   1.620   3.858   1.599 -0.2986 -0.4621 -0.2973
  817SOL    HW2 3314   1.606   3.852   1.694 -0.1885  1.3469 -0.1441
  817SOL    HW3 3315   1.546   3.910   1.567 -0.6572 -1.5708 -1.3003
  817SOL    MW4 3316   1.608   3.864   1.607 -0.3314 -0.3695 -0.4094
  818SOL     OW 3317   1.368   3.976   1.523  0.4914 -0.0542 -0.2302
  818SOL    HW2 3318   1.359   4.069   1.543  1.2819  0.3985 -1.9179
  818SOL    HW3 3319   1.386   3.973   1.429 -1.1648 -2.0140 -0.5096
  818SOL    MW4 3320   1.369   3.988   1.514  0.3772 -0.2530 -0.4898
  819SOL     OW 3321   1.360   4.240   1.624 -0.1490  0.3380 -0.4153
  819SOL    HW2 3322   1.429   4.291   1.582 -0.0583  1.7057  1.3387
  819SOL    HW3 3323   1.279   4.286   1.601 -0.5604 -1.4775 -2.7852
  819SOL    MW4 3324   1.358   4.253   1.616 -0.1911  0.2789 -0.4964
  820SOL     OW 3325   1.568   4.378   1.523  0.5374 -0.3620  0.3590
  820SOL    HW2 3326   1.651   4.343   1.557 -0.0107 -0.1748  1.9294
  820SOL    HW3 3327   1.570   4.470   1.548  0.5333  0.0062 -0.9645
  820SOL    MW4 3328   1.579   4.386   1.531  0.4646 -0.2885  0.3916
  821SOL     OW 3329   2.074   4.628   1.608  0.3646 -0.0656  0.2288
  821SOL    HW2 3330   2.091   4.621   1.702 -0.7626 -3.1982  0.2628
  821SOL    HW3 3331   1.984   4.661   1.602  0.7007  0.8560  0.2356
  821SOL    MW4 3332   2.064   4.631   1.620  0.2604 -0.3572  0.2341
  822SOL     OW 3333   1.829   0.062   1.571  0.3321  0.7789 -0.2025
  822SOL    HW2 3334   1.740   0.050   1.603  0.2867 -1.7355 -1.1149
  822SOL    HW3 3335   1.819   0.096   1.483  0.1873 -1.0646 -0.9272
  822SOL    MW4 3336   1.816   0.065   1.564  0.3067  0.2040 -0.4185
  823SOL     OW 3337   1.781   0.354   1.641  0.3406 -0.5137  0.3800
  823SOL    HW2 3338   1.851   0.415   1.619  0.8356 -1.2013  0.0327
  823SOL    HW3 3339   1.816   0.268   1.618 -0.7515 -0.8337 -0.1171
  823SOL    MW4 3340   1.795   0.351   1.635  0.2618 -0.6466  0.2685
  824SOL     OW 3341   2.001   0.494   1.527  0.1316  0.4715  0.7235
  824SOL    HW2 3342   2.090   0.470   1.551  0.8925  1.2130 -1.1963
  824SOL    HW3 3343   1.994   0.587   1.551  0.0257  0.5191  0.5139
  824SOL    MW4 3344   2.012   0.503   1.533  0.2182  0.5756  0.4425
  825SOL     OW 3345   1.998   0.762   1.605  0.2259  0.1923 -0.0793
  825SOL    HW2 3346   2.073   0.816   1.581  1.3383 -1.3943 -0.2393
  825SOL    HW3 3347   1.922   0.814   1.578  1.1840  2.4465  1.4005
  825SOL    MW4 3348   1.998   0.776   1.598  0.4991  0.2804  0.0949
  826SOL     OW 3349   1.792   0.900   1.489  0.6540  0.1164 -0.4512
  826SOL    HW2 3350   1.799   0.986   1.530 -1.7426  0.1771 -0.1405
  826SOL    HW3 3351   1.721   0.856   1.536  0.9780 -1.5485 -1.4676
  826SOL    MW4 3352   1.784   0.905   1.501  0.3806 -0.0952 -0.5442
  827SOL     OW 3353   1.800   1.156   1.609  0.0857 -0.6966  0.1573
  827SOL    HW2 3354   1.874   1.204   1.573 -0.1695 -0.0168  0.5200
  827SOL    HW3 3355   1.723   1.197   1.569 -0.1353 -0.8231  0.4483
  827SOL    MW4 3356   1.799   1.168   1.599  0.0228 -0.6235  0.2435
  828SOL     OW 3357   2.040   1.252   1.518  0.4380 -0.3134 -0.3631
  828SOL    HW2 3358   2.030   1.347   1.518  1.0204 -0.2463  0.5359
  828SOL    HW3 3359   2.022   1.226   1.427  0.0827  0.6268 -0.5697
  828SOL    MW4 3360   2.036   1.261   1.506  0.4680 -0.1805 -0.2718
  829SOL     OW 3361   1.998   1.532   1.581  0.2819 -0.0602 -0.5323
  829SOL    HW2 3362   2.073   1.576   1.542  1.0834 -1.5664 -0.7125
  829SOL    HW3 3363   1.927   1.596   1.575  1.4423  1.2329 -0.7082
  829SOL    MW4 3364   1.999   1.546   1.575  0.5407 -0.0882 -0.5792
  830SOL     OW 3365   1.764   1.672   1.533  0.0707  0.2802 -0.2630
  830SOL    HW2 3366   1.682   1.638   1.568  0.1488  0.6338  0.2591
  830SOL    HW3 3367   1.761   1.650   1.440 -1.0346  1.1131 -0.4321
  830SOL    MW4 3368   1.753   1.664   1.525 -0.0647  0.4368 -0.2164
  831SOL     OW 3369   1.800   1.934   1.616 -0.1324  0.2843 -0.0501
  831SOL    HW2 3370   1.806   1.845   1.583 -0.9218 -0.0678  0.7568
  831SOL    HW3 3371   1.725   1.972   1.569 -0.0736  0.3871 -0.0619
  831SOL    MW4 3372   1.791   1.927   1.605 -0.2288  0.2514  0.0547
  832SOL     OW 3373   2.007   2.059   1.471 -0.3077  0.1359 -0.2943
  832SOL    HW2 3374   1.940   2.014   1.522 -0.1371 -1.0501 -1.0995
  832SOL    HW3 3375   2.090   2.027   1.507 -0.1527  1.6380  0.7353
  832SOL    MW4 3376   2.009   2.049   1.482 -0.2646  0.1776 -0.2648
  833SOL     OW 3377   2.012   2.310   1.584 -0.2844 -0.2851  0.1169
  833SOL    HW2 3378   2.006   2.290   1.677  1.7108 -0.7529  0.1764
  833SOL    HW3 3379   2.018   2.224   1.542  3.2838 -0.0281 -0.0439
  833SOL    MW4 3380   2.012   2.296   1.591  0.4497 -0.3128  0.1035
  834SOL     OW 3381   1.789   2.431   1.470 -0.2119 -0.2034  0.0699
  834SOL    HW2 3382   1.877   2.403   1.496 -0.2712 -1.5744 -1.1221
  834SOL    HW3 3383   1.781   2.405   1.378 -2.1584 -0.8500  0.3842
  834SOL    MW4 3384   1.799   2.424   1.461 -0.4766 -0.4694 -0.0460
  835SOL     OW 3385   1.812   2.672   1.610  0.0609  0.2457 -0.1580
  835SOL    HW2 3386   1.892   2.711   1.574 -0.1224 -0.2814 -1.1815
  835SOL    HW3 3387   1.803   2.590   1.562 -1.2867  0.4657 -0.2920
  835SOL    MW4 3388   1.821   2.666   1.599 -0.1411  0.2048 -0.3108
  836SOL     OW 3389   2.019   2.804   1.514 -0.5886 -0.0968 -0.1922
  836SOL    HW2 3390   2.023   2.895   1.545 -2.1880 -0.1395  0.1960
  836SOL    HW3 3391   2.024   2.811   1.419 -0.3203  0.3663 -0.1461
  836SOL    MW4 3392   2.020   2.817   1.506 -0.7644 -0.0415 -0.1348
  837SOL     OW 3393   2.057   3.072   1.599 -0.0308  0.3993  0.4769
  837SOL    HW2 3394   2.045   3.082   1.693  1.4228  0.5962  0.6472
  837SOL    HW3 3395   2.134   3.125   1.579  0.2175 -0.3926 -0.6717
  837SOL    MW4 3396   2.065   3.080   1.609  0.1941  0.3209  0.3477
  838SOL     OW 3397   1.827   3.140   1.482  0.5780 -0.2734 -0.2270
  838SOL    HW2 3398   1.803   3.227   1.512  0.4251 -0.5870  0.5734
  838SOL    HW3 3399   1.916   3.127   1.516  0.2886 -0.7493  0.3510
  838SOL    MW4 3400   1.836   3.150   1.491  0.5198 -0.3777 -0.0452
  839SOL     OW 3401   1.799   3.396   1.590 -0.3295  0.0468  0.3294
  839SOL    HW2 3402   1.811   3.419   1.682 -0.2949  0.2641  0.2730
  839SOL    HW3 3403   1.742   3.466   1.556  0.1662  0.3072  0.0384
  839SOL    MW4 3404   1.793   3.409   1.598 -0.2596  0.1097  0.2835
  840SOL     OW 3405   2.004   3.542   1.450  0.2148  0.1218  0.3008
  840SOL    HW2 3406   2.096   3.526   1.471  0.0493 -2.4940 -0.7346
  840SOL    HW3 3407   1.958   3.464   1.483 -1.7369  1.6876  1.3859
  840SOL    MW4 3408   2.010   3.529   1.457 -0.0646 -0.0165  0.3073
  841SOL     OW 3409   2.034   3.794   1.622 -0.1253 -0.4955  0.0357
  841SOL    HW2 3410   2.115   3.833   1.590 -0.8109  0.3350 -0.7192
  841SOL    HW3 3411   2.031   3.708   1.580  0.0506 -0.2703 -0.4423
  841SOL    MW4 3412   2.045   3.788   1.612 -0.1926 -0.3562 -0.1272
  842SOL     OW 3413   1.858   3.991   1.575 -0.2110  0.1642 -0.3974
  842SOL    HW2 3414   1.930   3.930   1.591  1.0074  1.5363 -0.5984
  842SOL    HW3 3415   1.779   3.941   1.597  0.9235 -0.6920  1.8553
  842SOL    MW4 3416   1.857   3.976   1.580  0.0993  0.2320 -0.1268
  843SOL     OW 3417   1.811   4.272   1.624 -0.2679  0.3570  0.1383
  843SOL    HW2 3418   1.898   4.300   1.594 -0.2163  1.7064  1.4654
  843SOL    HW3 3419   1.813   4.176   1.617  0.6870  0.4817 -1.5165
  843SOL    MW4 3420   1.823   4.263   1.619 -0.1352  0.5512  0.0949
  844SOL     OW 3421   2.063   4.348   1.514  0.1225  0.0014  0.0297
  844SOL    HW2 3422   2.131   4.292   1.552 -0.4706 -0.7159  0.0506
  844SOL    HW3 3423   2.093   4.437   1.531  1.3204 -0.2948 -0.4151
  844SOL    MW4 3424   2.076   4.352   1.521  0.2024 -0.1321 -0.0262
  845SOL     OW 3425   2.480   4.601   1.613 -0.5035  0.0177 -0.3782
  845SOL    HW2 3426   2.461   4.631   1.702 -0.2939  0.3850 -0.4585
  845SOL    HW3 3427   2.422   4.652   1.557  0.3923  0.8134 -0.5843
  845SOL    MW4 3428   2.470   4.611   1.617 -0.3576  0.1712 -0.4160
  846SOL     OW 3429   2.283   0.107   1.524  0.1232 -0.5199  0.5787
  846SOL    HW2 3430   2.204   0.058   1.544 -0.4397 -0.2937 -1.0281
  846SOL    HW3 3431   2.270   0.139   1.435  1.4113  0.7147  0.8088
  846SOL    MW4 3432   2.271   0.105   1.515  0.2186 -0.3272  0.3971
  847SOL     OW 3433   2.230   0.374   1.629 -0.0592  0.0037  0.3323
  847SOL    HW2 3434   2.242   0.366   1.724 -2.7455  0.6304  0.7640
  847SOL    HW3 3435   2.244   0.285   1.596 -0.8368 -0.6006  1.5583
  847SOL    MW4 3436   2.233   0.361   1.638 -0.5162  0.0066  0.5510
  848SOL     OW 3437   2.451   0.509   1.526 -0.2046 -0.3022 -0.3711
  848SOL    HW2 3438   2.525   0.454   1.551 -0.2355 -1.5026 -2.7303
  848SOL    HW3 3439   2.374   0.463   1.560 -0.0739 -0.6266 -0.5102
  848SOL    MW4 3440   2.451   0.496   1.534 -0.1915 -0.5034 -0.7007
  849SOL     OW 3441   2.496   0.774   1.602 -0.1342  0.3350  0.1544
  849SOL    HW2 3442   2.410   0.814   1.590 -0.8159 -0.8186  1.0230
  849SOL    HW3 3443   2.483   0.682   1.577  1.0385  0.3265 -0.4610
  849SOL    MW4 3444   2.483   0.767   1.597 -0.0696  0.1817  0.1878
  850SOL     OW 3445   2.224   0.905   1.520 -0.6420  0.2992 -0.6703
  850SOL    HW2 3446   2.250   0.993   1.547  0.4691  0.0625 -0.9360
  850SOL    HW3 3447   2.239   0.904   1.426 -0.6937 -0.1642 -0.6718
  850SOL    MW4 3448   2.230   0.917   1.511 -0.5021  0.2068 -0.7055
  851SOL     OW 3449   2.285   1.161   1.569 -0.1070 -0.3487 -0.5467
  851SOL    HW2 3450   2.282   1.136   1.661 -1.0871  0.0540 -0.4620
  851SOL    HW3 3451   2.203   1.208   1.554  0.6159  0.6943 -1.3091
  851SOL    MW4 3452   2.274   1.164   1.579 -0.1409 -0.1580 -0.6362
  852SOL     OW 3453   2.501   1.309   1.492  0.1135  0.4577 -0.3613
  852SOL    HW2 3454   2.423   1.258   1.512  1.6404 -2.2068 -0.9761
  852SOL    HW3 3455   2.501   1.318   1.396  0.9992 -0.3485 -0.4530
  852SOL    MW4 3456   2.491   1.304   1.482  0.4318 -0.0004 -0.4545
  853SOL     OW 3457   2.476   1.555   1.605 -0.0856 -0.1066 -0.2512
  853SOL    HW2 3458   2.560   1.581   1.568  0.3620  0.8030  1.3605
  853SOL    HW3 3459   2.467   1.462   1.584  0.9436 -0.0146 -1.1116
  853SOL    MW4 3460   2.486   1.547   1.597  0.1094  0.0256 -0.1520
  854SOL     OW 3461   2.229   1.652   1.485  0.0459 -0.5409 -0.7739
  854SOL    HW2 3462   2.312   1.632   1.529  0.8863  1.2796 -1.4869
  854SOL    HW3 3463   2.247   1.641   1.392 -0.6001 -0.4697 -0.9122
  854SOL    MW4 3464   2.242   1.648   1.479  0.0715 -0.2913 -0.8862
  855SOL     OW 3465   2.229   1.940   1.555 -0.0777  0.0935  0.0303
  855SOL    HW2 3466   2.247   1.956   1.648  1.3649 -1.5665  0.0648
  855SOL    HW3 3467   2.238   1.845   1.545 -0.4956  0.2205 -1.7624
  855SOL    MW4 3468   2.232   1.930   1.566  0.0572 -0.1086 -0.2018
  856SOL     OW 3469   2.471   2.056   1.494 -0.2956 -0.1981 -0.0401
  856SOL    HW2 3470   2.384   2.019   1.508 -0.7600  0.5319 -0.8545
  856SOL    HW3 3471   2.481   2.057   1.398  0.4965 -0.0372  0.0402
  856SOL    MW4 3472   2.460   2.052   1.483 -0.2522 -0.0806 -0.1370
  857SOL     OW 3473   2.465   2.325   1.557  0.1379  0.0842  0.2480
  857SOL    HW2 3474   2.473   2.324   1.653 -1.1854 -0.0991  0.3779
  857SOL    HW3 3475   2.460   2.232   1.533 -2.0490  0.1684  0.2678
  857SOL    MW4 3476   2.465   2.312   1.567 -0.3252  0.0710  0.2679
  858SOL     OW 3477   2.233   2.461   1.482 -0.2094  0.6465  0.6087
  858SOL    HW2 3478   2.313   2.412   1.502 -0.4439  0.9878  2.4342
  858SOL    HW3 3479   2.163   2.414   1.527 -0.7807  1.3237  0.4447
  858SOL    MW4 3480   2.234   2.449   1.490 -0.3157  0.7811  0.8279
  859SOL     OW 3481   2.267   2.722   1.585  0.1284 -0.3887  0.1392
  859SOL    HW2 3482   2.273   2.632   1.553  1.0007 -0.0720 -0.5891
  859SOL    HW3 3483   2.179   2.751   1.561  0.5081 -0.4182 -1.2829
  859SOL    MW4 3484   2.256   2.714   1.578  0.2937 -0.3507 -0.1446
  860SOL     OW 3485   2.496   2.844   1.469 -0.1266  0.1244  0.0199
  860SOL    HW2 3486   2.504   2.920   1.526 -0.4189  0.5878 -0.5486
  860SOL    HW3 3487   2.411   2.806   1.492  0.2422 -0.3191  0.6517
  860SOL    MW4 3488   2.486   2.849   1.480 -0.1166  0.1268  0.0283
  861SOL     OW 3489   2.510   3.073   1.620 -0.1428 -0.0208  0.1180
  861SOL    HW2 3490   2.585   3.113   1.576 -0.6979  0.5597 -0.3064
  861SOL    HW3 3491   2.434   3.116   1.582 -0.7249 -1.0456  0.1105
  861SOL    MW4 3492   2.510   3.084   1.609 -0.2928 -0.0792  0.0610
  862SOL     OW 3493   2.283   3.205   1.499  0.1906 -0.2633 -0.2412
  862SOL    HW2 3494   2.273   3.298   1.518 -1.2546 -0.4591  0.0554
  862SOL    HW3 3495   2.310   3.201   1.407 -1.1526  0.4140 -0.6787
  862SOL    MW4 3496   2.285   3.216   1.489 -0.1774 -0.2000 -0.2599
  863SOL     OW 3497   2.251   3.471   1.566  0.0673 -0.5520 -0.0029
  863SOL    HW2 3498   2.241   3.468   1.662 -0.8472  1.1296 -0.0301
  863SOL    HW3 3499   2.339   3.506   1.553  0.0586 -0.4458  0.2164
  863SOL    MW4 3500   2.261   3.475   1.577 -0.0546 -0.3159  0.0224
  864SOL     OW 3501   2.509   3.575   1.492 -0.8563 -0.4697  0.7781
  864SOL    HW2 3502   2.594   3.543   1.524 -0.6965  0.4272  1.2733
  864SOL    HW3 3503   2.508   3.668   1.516 -1.6759 -0.3049  0.1268
  864SOL    MW4 3504   2.520   3.583   1.499 -0.9434 -0.3295  0.7575
  865SOL     OW 3505   2.520   3.828   1.594  0.5402 -0.5370  0.5361
  865SOL    HW2 3506   2.516   3.852   1.687 -0.5384  1.7057 -0.0574
  865SOL    HW3 3507   2.594   3.878   1.560 -0.8628  0.9529 -0.4120
  865SOL    MW4 3508   2.529   3.838   1.602  0.2124 -0.0441  0.3328
  866SOL     OW 3509   2.257   3.904   1.522  0.2255  0.6851  0.3286
  866SOL    HW2 3510   2.348   3.876   1.534 -0.1666 -1.1614 -0.8262
  866SOL    HW3 3511   2.249   3.919   1.428 -0.3762  1.9209  0.5737
  866SOL    MW4 3512   2.268   3.902   1.511  0.0944  0.6044  0.2085
  867SOL     OW 3513   2.259   4.173   1.625  0.0107 -0.0605 -0.2930
  867SOL    HW2 3514   2.351   4.193   1.612  0.1243 -0.4980 -0.1558
  867SOL    HW3 3515   2.250   4.081   1.602 -0.1524 -0.3408  0.8640
  867SOL    MW4 3516   2.270   4.164   1.620  0.0041 -0.1550 -0.1222
  868SOL     OW 3517   2.483   4.330   1.563  0.0742  0.0861 -0.1598
  868SOL    HW2 3518   2.477   4.415   1.606 -0.9152 -0.6518  1.1838
  868SOL    HW3 3519   2.483   4.350   1.470  0.0631  1.5647  0.1498
  868SOL    MW4 3520   2.482   4.343   1.556 -0.0577  0.1836  0.0583
  869SOL     OW 3521   2.934   4.628   1.625 -0.1054  0.0021 -0.1154
  869SOL    HW2 3522   2.926   4.641   1.720 -0.1632 -0.1832 -0.0945
  869SOL    HW3 3523   2.853   4.665   1.589 -0.5070 -0.7528 -0.0110
  869SOL    MW4 3524   2.922   4.635   1.633 -0.1659 -0.1221 -0.0991
  870SOL     OW 3525   2.712   0.094   1.542 -0.0541 -0.7534  0.3177
  870SOL    HW2 3526   2.679   0.180   1.567  0.0729 -0.6196  0.0298
  870SOL    HW3 3527   2.648   0.032   1.577  0.0378 -0.5625  0.8269
  870SOL    MW4 3528   2.699   0.097   1.550 -0.0250 -0.7105  0.3470
  871SOL     OW 3529   2.667   0.357   1.614 -0.1202 -0.2539  0.0790
  871SOL    HW2 3530   2.666   0.367   1.710  1.1312  1.2539 -0.0332
  871SOL    HW3 3531   2.753   0.392   1.588  0.0569 -1.8008 -1.4786
  871SOL    MW4 3532   2.678   0.363   1.624  0.0682 -0.2591 -0.1413
  872SOL     OW 3533   2.887   0.476   1.487  0.1230  0.1559  0.1612
  872SOL    HW2 3534   2.911   0.565   1.513 -1.9178  0.6864  0.3160
  872SOL    HW3 3535   2.904   0.473   1.393  0.2532  0.6808  0.1681
  872SOL    MW4 3536   2.893   0.487   1.478 -0.1290  0.2952  0.1825
  873SOL     OW 3537   2.888   0.743   1.610  0.2084 -0.1444  0.4374
  873SOL    HW2 3538   2.881   0.743   1.706  0.3976 -2.4711  0.4916
  873SOL    HW3 3539   2.833   0.816   1.582  1.3227  1.5040  2.3800
  873SOL    MW4 3540   2.879   0.752   1.619  0.3800 -0.2338  0.7010
  874SOL     OW 3541   2.708   0.933   1.522  0.1849 -0.0817 -0.8443
  874SOL    HW2 3542   2.628   0.883   1.540  1.5921 -1.7174  1.1230
  874SOL    HW3 3543   2.714   0.935   1.426 -1.2687 -1.5002 -0.9810
  874SOL    MW4 3544   2.698   0.926   1.512  0.1786 -0.4846 -0.6027
  875SOL     OW 3545   2.683   1.172   1.653 -0.1366  0.0250  0.2308
  875SOL    HW2 3546   2.695   1.083   1.620 -0.0743  0.0552  0.1714
  875SOL    HW3 3547   2.622   1.213   1.592  0.0523  0.1098  0.1007
  875SOL    MW4 3548   2.677   1.166   1.641 -0.1035  0.0403  0.2059
  876SOL     OW 3549   2.881   1.280   1.486  0.2951 -0.4611 -0.1248
  876SOL    HW2 3550   2.966   1.260   1.525  0.1801  0.7442  0.7577
  876SOL    HW3 3551   2.818   1.254   1.553  0.0800  1.2593  0.3609
  876SOL    MW4 3552   2.884   1.274   1.500  0.2518 -0.0751  0.0557
  877SOL     OW 3553   2.910   1.533   1.599  0.1952 -0.2307  0.2684
  877SOL    HW2 3554   2.834   1.576   1.559  0.6954  0.4445  0.0274
  877SOL    HW3 3555   2.901   1.442   1.572 -0.7540 -0.2424  0.5880
  877SOL    MW4 3556   2.898   1.527   1.590  0.1359 -0.1431  0.2788
  878SOL     OW 3557   2.698   1.658   1.476 -0.1907  1.2685 -0.0133
  878SOL    HW2 3558   2.697   1.741   1.522  0.0558  1.7708 -0.9045
  878SOL    HW3 3559   2.707   1.681   1.383  0.7957  0.2317 -0.1919
  878SOL    MW4 3560   2.699   1.672   1.470 -0.0279  1.1978 -0.1543
  879SOL     OW 3561   2.688   1.903   1.601 -0.1846 -0.4158  0.2205
  879SOL    HW2 3562   2.673   1.890   1.694  0.9530 -2.2651  0.1810
  879SOL    HW3 3563   2.603   1.929   1.565 -0.4503  1.0461  1.8844
  879SOL    MW4 3564   2.675   1.905   1.608 -0.0699 -0.4669  0.4349
  880SOL     OW 3565   2.898   2.072   1.535  0.1038  0.1904  0.5657
  880SOL    HW2 3566   2.893   2.166   1.555  0.9594 -0.1474  2.4892
  880SOL    HW3 3567   2.809   2.040   1.551 -0.1803  0.6654 -0.0538
  880SOL    MW4 3568   2.885   2.080   1.540  0.1793  0.2086  0.7377
  881SOL     OW 3569   2.935   2.340   1.610 -0.0734 -0.0075  0.3649
  881SOL    HW2 3570   2.931   2.351   1.705 -2.3768  0.2211  0.2687
  881SOL    HW3 3571   2.861   2.390   1.577  0.9701  0.2844 -1.6079
  881SOL    MW4 3572   2.925   2.348   1.618 -0.2401  0.0608  0.0919
  882SOL     OW 3573   2.713   2.453   1.471  0.0332 -0.0203 -0.4756
  882SOL    HW2 3574   2.717   2.535   1.520  0.7525 -0.2031 -0.2153
  882SOL    HW3 3575   2.637   2.407   1.506  0.3261  0.0150  0.2113
  882SOL    MW4 3576   2.704   2.458   1.482  0.1669 -0.0398 -0.3506
  883SOL     OW 3577   2.708   2.722   1.608 -0.3276  0.5015 -0.1302
  883SOL    HW2 3578   2.784   2.745   1.555  0.0952 -1.0205 -0.1894
  883SOL    HW3 3579   2.635   2.767   1.564  0.3647  1.0955 -0.6883
  883SOL    MW4 3580   2.708   2.731   1.595 -0.1805  0.3788 -0.2117
  884SOL     OW 3581   2.952   2.809   1.488 -0.0930  0.4431  0.1233
  884SOL    HW2 3582   3.013   2.755   1.538 -2.1550 -0.4053  1.8370
  884SOL    HW3 3583   2.957   2.895   1.529 -0.4680  0.2248  0.6251
  884SOL    MW4 3584   2.961   2.813   1.500 -0.4146  0.3023  0.4157
  885SOL     OW 3585   2.941   3.057   1.614  0.2745 -0.5380  0.3432
  885SOL    HW2 3586   2.936   3.061   1.710 -0.9686  2.0580  0.2024
  885SOL    HW3 3587   3.019   3.107   1.591 -1.1150  1.4961 -0.1162
  885SOL    MW4 3588   2.951   3.064   1.624 -0.0730  0.0732  0.2640
  886SOL     OW 3589   2.736   3.213   1.520 -0.5215 -0.4318  0.1329
  886SOL    HW2 3590   2.810   3.152   1.534 -1.1109 -1.1897 -0.0107
  886SOL    HW3 3591   2.739   3.233   1.427 -0.1909 -0.0638  0.2224
  886SOL    MW4 3592   2.747   3.207   1.509 -0.5553 -0.4830  0.1258
  887SOL     OW 3593   2.721   3.453   1.622  0.2282  0.3578  0.3094
  887SOL    HW2 3594   2.710   3.445   1.717  1.1106  2.7991  0.6693
  887SOL    HW3 3595   2.728   3.363   1.591  0.2952 -0.4701  2.6128
  887SOL    MW4 3596   2.721   3.440   1.631  0.3533  0.5708  0.6608
  888SOL     OW 3597   2.930   3.598   1.506  0.2248 -0.3831  0.7091
  888SOL    HW2 3598   2.862   3.541   1.543 -1.6855  1.5869  0.3441
  888SOL    HW3 3599   2.920   3.588   1.411  0.5447 -0.1976  0.6560
  888SOL    MW4 3600   2.920   3.589   1.498  0.0150 -0.0989  0.6539
  889SOL     OW 3601   2.969   3.852   1.619  0.1779  0.0257 -0.3012
  889SOL    HW2 3602   2.885   3.879   1.584 -0.4248 -1.1069  0.2351
  889SOL    HW3 3603   2.977   3.760   1.594  1.1324  0.0525 -0.1178
  889SOL    MW4 3604   2.959   3.843   1.611  0.2244 -0.1202 -0.2062
  890SOL     OW 3605   2.733   3.963   1.500 -0.0493 -0.3292 -0.3027
  890SOL    HW2 3606   2.726   4.053   1.533  0.2583 -0.3417 -0.2047
  890SOL    HW3 3607   2.739   3.973   1.405  2.1699 -0.1169 -0.1688
  890SOL    MW4 3608   2.733   3.976   1.492  0.2840 -0.3028 -0.2722
  891SOL     OW 3609   2.708   4.198   1.609  0.0376  0.2995 -0.1509
  891SOL    HW2 3610   2.778   4.257   1.583  0.2082  0.3366  0.3767
  891SOL    HW3 3611   2.627   4.247   1.594  0.1460  0.4097 -0.3671
  891SOL    MW4 3612   2.706   4.212   1.604  0.0744  0.3185 -0.1098
  892SOL     OW 3613   2.912   4.371   1.534 -0.0469 -0.2494 -0.3963
  892SOL    HW2 3614   2.930   4.459   1.566 -0.1245 -0.6625  0.8071
  892SOL    HW3 3615   2.951   4.369   1.446  1.3866  0.4607  0.2009
  892SOL    MW4 3616   2.920   4.383   1.527  0.1321 -0.2103 -0.1588
  893SOL     OW 3617   3.381   4.658   1.673 -0.1722 -0.1197  0.3559
  893SOL    HW2 3618   3.447   4.713   1.630 -0.5903  1.2379  1.3894
  893SOL    HW3 3619   3.396   4.570   1.639  1.2130  0.4488 -0.5339
  893SOL    MW4 3620   3.392   4.654   1.663 -0.0448  0.1340  0.3748
  894SOL     OW 3621   3.151   0.100   1.572 -0.3427 -0.0327 -0.1871
  894SOL    HW2 3622   3.224   0.052   1.610 -1.1609 -0.2989  1.0830
  894SOL    HW3 3623   3.073   0.050   1.597 -1.0943  1.2103  0.0044
  894SOL    MW4 3624   3.150   0.087   1.580 -0.5500  0.0962  0.0057
  895SOL     OW 3625   3.136   0.372   1.619 -0.3617  0.5602  0.2437
  895SOL    HW2 3626   3.139   0.278   1.604 -1.1284  0.2810  1.7164
  895SOL    HW3 3627   3.054   0.400   1.579  1.2408  1.1400 -2.8266
  895SOL    MW4 3628   3.126   0.364   1.612 -0.2518  0.5999  0.0329
  896SOL     OW 3629   3.364   0.490   1.499 -0.3924 -0.1440  0.1475
  896SOL    HW2 3630   3.286   0.443   1.527 -1.2335  0.8160 -0.5539
  896SOL    HW3 3631   3.375   0.465   1.407  0.7447 -1.0935  0.5197
  896SOL    MW4 3632   3.355   0.480   1.490 -0.3533 -0.1427  0.1041
  897SOL     OW 3633   3.349   0.744   1.593 -0.4162 -0.0925 -0.1921
  897SOL    HW2 3634   3.353   0.744   1.689 -1.4975 -0.3235 -0.1313
  897SOL    HW3 3635   3.341   0.652   1.569 -1.3934  0.0434 -0.4255
  897SOL    MW4 3636   3.348   0.732   1.603 -0.6878 -0.1050 -0.2149
  898SOL     OW 3637   3.141   0.904   1.510  0.4013  0.1702  0.6394
  898SOL    HW2 3638   3.214   0.858   1.550  0.8223  0.0875 -0.2021
  898SOL    HW3 3639   3.063   0.863   1.548  0.7825 -0.5522  0.6605
  898SOL    MW4 3640   3.140   0.892   1.520  0.5071  0.0640  0.5312
  899SOL     OW 3641   3.130   1.167   1.623  0.4990  0.1678  0.2767
  899SOL    HW2 3642   3.129   1.167   1.719  1.3531  0.9628  0.2957
  899SOL    HW3 3643   3.129   1.074   1.599  2.6197 -0.0989  1.1060
  899SOL    MW4 3644   3.130   1.154   1.632  0.8917  0.2375  0.3887
  900SOL     OW 3645   3.355   1.287   1.513  0.1366  0.1328 -0.3498
  900SOL    HW2 3646   3.431   1.244   1.550  0.0945 -0.2336 -0.6855
  900SOL    HW3 3647   3.280   1.238   1.547  0.0145  0.9008  0.5166
  900SOL    MW4 3648   3.355   1.275   1.522  0.1149  0.1857 -0.2798
  901SOL     OW 3649   3.339   1.558   1.620  0.1924  0.3122 -0.0147
  901SOL    HW2 3650   3.355   1.550   1.714  1.8689 -0.3501 -0.3465
  901SOL    HW3 3651   3.325   1.469   1.590  1.5128  0.3199 -0.6974
  901SOL    MW4 3652   3.339   1.546   1.629  0.5879  0.2259 -0.1485
  902SOL     OW 3653   3.129   1.667   1.473  0.4760  0.1971  0.0026
  902SOL    HW2 3654   3.200   1.638   1.530  0.6649 -1.1022 -0.8650
  902SOL    HW3 3655   3.050   1.632   1.514  0.5548 -0.2142 -0.1866
  902SOL    MW4 3656   3.128   1.658   1.486  0.5112 -0.0286 -0.1367
  903SOL     OW 3657   3.131   1.926   1.579 -0.4802  0.4526 -0.6392
  903SOL    HW2 3658   3.120   1.839   1.541 -0.6799  0.3315 -0.3053
  903SOL    HW3 3659   3.047   1.969   1.567 -0.4111  0.5654 -0.7184
  903SOL    MW4 3660   3.119   1.920   1.572 -0.4973  0.4517 -0.6057
  904SOL     OW 3661   3.363   2.066   1.459 -0.4926  0.1697 -0.2080
  904SOL    HW2 3662   3.288   2.015   1.492  0.1400 -0.4381  0.3130
  904SOL    HW3 3663   3.382   2.028   1.374 -1.2669  0.8482 -0.7027
  904SOL    MW4 3664   3.355   2.054   1.452 -0.5112  0.1791 -0.2047
  905SOL     OW 3665   3.361   2.322   1.593 -0.2222  0.0601 -0.0790
  905SOL    HW2 3666   3.441   2.367   1.565 -0.2903  0.2603  0.0430
  905SOL    HW3 3667   3.360   2.241   1.543 -0.3188  0.3963 -0.6289
  905SOL    MW4 3668   3.371   2.317   1.583 -0.2437  0.1307 -0.1354
  906SOL     OW 3669   3.146   2.449   1.472  0.1416 -0.1932 -0.3884
  906SOL    HW2 3670   3.220   2.400   1.509  0.0299  0.5629  0.8351
  906SOL    HW3 3671   3.069   2.402   1.502  0.0714 -0.1021 -0.4262
  906SOL    MW4 3672   3.146   2.436   1.481  0.1178 -0.0813 -0.2319
  907SOL     OW 3673   3.149   2.654   1.639 -0.2428  0.1919 -0.0238
  907SOL    HW2 3674   3.218   2.706   1.597  0.3072 -0.5562 -0.0531
  907SOL    HW3 3675   3.142   2.575   1.586 -0.5441 -0.1176  0.4645
  907SOL    MW4 3676   3.157   2.651   1.627 -0.2098  0.0522  0.0368
  908SOL     OW 3677   3.355   2.832   1.515 -0.2958  0.1456 -0.0792
  908SOL    HW2 3678   3.355   2.927   1.527  0.2094  0.0495  0.7278
  908SOL    HW3 3679   3.363   2.820   1.420  1.3371  0.8997 -0.0593
  908SOL    MW4 3680   3.356   2.843   1.504 -0.0136  0.2327  0.0299
  909SOL     OW 3681   3.366   3.092   1.592  0.3371 -0.1683 -0.5844
  909SOL    HW2 3682   3.357   3.097   1.687 -0.0787 -1.3998 -0.5477
  909SOL    HW3 3683   3.441   3.148   1.571 -0.1606  0.8626  0.3636
  909SOL    MW4 3684   3.374   3.100   1.602  0.2165 -0.1948 -0.4544
  910SOL     OW 3685   3.128   3.203   1.488 -0.3699 -0.2881  0.6257
  910SOL    HW2 3686   3.208   3.154   1.506 -0.2159 -0.0565  0.5804
  910SOL    HW3 3687   3.123   3.206   1.393 -0.3171 -0.1180  0.6280
  910SOL    MW4 3688   3.138   3.197   1.478 -0.3426 -0.2353  0.6201
  911SOL     OW 3689   3.158   3.468   1.569  0.0277  0.0528  0.2228
  911SOL    HW2 3690   3.156   3.381   1.530  0.4385 -0.0693  0.4715
  911SOL    HW3 3691   3.085   3.514   1.528  0.9258  0.1851 -1.2861
  911SOL    MW4 3692   3.148   3.463   1.558  0.2003  0.0541  0.0566
  912SOL     OW 3693   3.391   3.606   1.491  0.0504  0.3226  0.0067
  912SOL    HW2 3694   3.465   3.565   1.536  0.3588 -0.7458 -1.4033
  912SOL    HW3 3695   3.315   3.556   1.520  0.1799 -0.0395 -0.2773
  912SOL    MW4 3696   3.391   3.594   1.501  0.1080  0.1338 -0.2168
  913SOL     OW 3697   3.415   3.890   1.580 -0.0836 -0.5116 -0.0405
  913SOL    HW2 3698   3.349   3.949   1.543  0.9345  0.2917 -0.5905
  913SOL    HW3 3699   3.395   3.805   1.540 -1.0193 -0.3617  0.0852
  913SOL    MW4 3700   3.404   3.887   1.570 -0.0730 -0.3860 -0.0966
  914SOL     OW 3701   3.172   4.019   1.503 -0.1958 -0.0631 -0.1972
  914SOL    HW2 3702   3.177   4.100   1.553 -0.5392 -0.1393 -0.0380
  914SOL    HW3 3703   3.104   3.968   1.546  0.2520 -0.5777 -0.0980
  914SOL    MW4 3704   3.164   4.023   1.515 -0.1822 -0.1411 -0.1631
  915SOL     OW 3705   3.154   4.277   1.629  0.0297 -0.4037 -0.0820
  915SOL    HW2 3706   3.141   4.251   1.721  0.9883  0.7814  0.3982
  915SOL    HW3 3707   3.069   4.312   1.603 -0.3645 -1.1129  0.2285
  915SOL    MW4 3708   3.141   4.278   1.638  0.1040 -0.3409  0.0223
  916SOL     OW 3709   3.414   4.399   1.546 -0.2602  0.7371 -0.4791
  916SOL    HW2 3710   3.321   4.384   1.561  0.0699 -1.1920 -0.1957
  916SOL    HW3 3711   3.420   4.419   1.453 -1.0768  1.9683 -0.2796
  916SOL    MW4 3712   3.402   4.399   1.536 -0.3245  0.6452 -0.4153
  917SOL     OW 3713   3.828   4.642   1.649 -0.2241 -0.0714 -0.2375
  917SOL    HW2 3714   3.844   4.645   1.744  0.6573 -0.7644 -0.3615
  917SOL    HW3 3715   3.902   4.689   1.611 -0.4803  0.0446 -0.5980
  917SOL    MW4 3716   3.840   4.649   1.657 -0.1414 -0.1478 -0.3015
  918SOL     OW 3717   3.607   0.118   1.572  0.6996  0.2419 -0.1310
  918SOL    HW2 3718   3.682   0.076   1.614  0.0699  0.1196  0.8950
  918SOL    HW3 3719   3.614   0.093   1.480  1.0056 -1.1160  0.2464
  918SOL    MW4 3720   3.618   0.109   1.565  0.6566  0.0466  0.0541
  919SOL     OW 3721   3.583   0.388   1.646 -0.2467  0.4086 -0.0767
  919SOL    HW2 3722   3.578   0.301   1.606  0.7714 -0.1141  0.9226
  919SOL    HW3 3723   3.514   0.439   1.602 -0.7622 -0.8621 -0.7470
  919SOL    MW4 3724   3.573   0.383   1.635 -0.1802  0.1720 -0.0333
  920SOL     OW 3725   3.827   0.497   1.580  0.3813  0.6716  0.6397
  920SOL    HW2 3726   3.746   0.449   1.596 -0.5052  1.8664 -0.1433
  920SOL    HW3 3727   3.833   0.502   1.484  1.7371 -0.0069  0.6894
  920SOL    MW4 3728   3.817   0.492   1.569  0.4432  0.7396  0.5429
  921SOL     OW 3729   3.809   0.749   1.677 -0.1386 -0.2211  0.2822
  921SOL    HW2 3730   3.735   0.790   1.632 -0.3338  0.1284  0.9232
  921SOL    HW3 3731   3.801   0.656   1.655 -0.4968 -0.1198 -0.0314
  921SOL    MW4 3732   3.798   0.742   1.668 -0.2120 -0.1615  0.3256
  922SOL     OW 3733   3.580   0.856   1.521 -0.3165  0.4851  0.1417
  922SOL    HW2 3734   3.494   0.818   1.539  0.4884 -1.6732 -0.4342
  922SOL    HW3 3735   3.593   0.843   1.427  0.5983  0.8678  0.2097
  922SOL    MW4 3736   3.571   0.849   1.511 -0.0896  0.2508  0.0747
  923SOL     OW 3737   3.578   1.141   1.604 -0.3514  0.1659  0.0901
  923SOL    HW2 3738   3.656   1.189   1.576 -0.5674  1.1385  1.1219
  923SOL    HW3 3739   3.587   1.055   1.564  0.3721  0.8438 -1.2419
  923SOL    MW4 3740   3.589   1.136   1.595 -0.2844  0.3836  0.0505
  924SOL     OW 3741   3.810   1.268   1.535  0.2178  0.0279 -0.3288
  924SOL    HW2 3742   3.885   1.234   1.584 -0.1905  0.3292  0.5185
  924SOL    HW3 3743   3.799   1.358   1.567 -1.6681 -0.6325  0.9571
  924SOL    MW4 3744   3.818   1.276   1.545 -0.0851 -0.0197 -0.0474
  925SOL     OW 3745   3.792   1.526   1.641 -0.1484 -0.1673  0.4196
  925SOL    HW2 3746   3.801   1.537   1.736 -0.1698  2.2585  0.1832
  925SOL    HW3 3747   3.728   1.593   1.615 -1.2288 -1.7433 -1.1297
  925SOL    MW4 3748   3.785   1.536   1.650 -0.2937 -0.0553  0.1839
  926SOL     OW 3749   3.565   1.688   1.514 -0.0445 -0.2077 -0.1654
  926SOL    HW2 3750   3.487   1.637   1.533  0.4149 -0.9108 -0.1424
  926SOL    HW3 3751   3.576   1.681   1.419  0.3405 -0.6202 -0.0900
  926SOL    MW4 3752   3.556   1.681   1.504  0.0670 -0.3548 -0.1523
  927SOL     OW 3753   3.564   1.936   1.620 -0.3655  0.5629 -0.1653
  927SOL    HW2 3754   3.551   1.846   1.590 -0.5906  0.2778  0.7791
  927SOL    HW3 3755   3.493   1.986   1.579 -1.0465  0.0620  0.4217
  927SOL    MW4 3756   3.553   1.931   1.610 -0.4849  0.4592  0.0367
  928SOL     OW 3757   3.802   2.033   1.481  0.0584  0.1756  0.3269
  928SOL    HW2 3758   3.812   2.120   1.521  0.8349  0.0135  0.5106
  928SOL    HW3 3759   3.716   2.003   1.509 -0.6593  1.3238 -0.5976
  928SOL    MW4 3760   3.792   2.041   1.490  0.0663  0.3057  0.2291
  929SOL     OW 3761   3.803   2.294   1.607  0.0524  0.1085  0.1441
  929SOL    HW2 3762   3.798   2.304   1.702  0.3186 -0.9705  0.2781
  929SOL    HW3 3763   3.888   2.331   1.584 -0.8469  2.1783  0.0694
  929SOL    MW4 3764   3.814   2.300   1.617 -0.0310  0.2391  0.1519
  930SOL     OW 3765   3.590   2.447   1.514 -0.0466  0.2137 -0.2596
  930SOL    HW2 3766   3.609   2.534   1.550  0.1210 -0.2243  0.7144
  930SOL    HW3 3767   3.658   2.391   1.550 -0.9333 -0.5914  0.1704
  930SOL    MW4 3768   3.601   2.451   1.523 -0.1414  0.0494 -0.0744
  931SOL     OW 3769   3.579   2.719   1.606  0.2429 -0.0716 -0.3488
  931SOL    HW2 3770   3.570   2.718   1.701  0.3526  0.2903 -0.3373
  931SOL    HW3 3771   3.498   2.759   1.574  0.3431  0.0914 -0.3957
  931SOL    MW4 3772   3.567   2.724   1.614  0.2701 -0.0021 -0.3535
  932SOL     OW 3773   3.802   2.827   1.495 -0.0908 -0.0577 -0.0374
  932SOL    HW2 3774   3.864   2.761   1.525 -0.2321 -0.3230 -0.3203
  932SOL    HW3 3775   3.716   2.790   1.515 -0.2033 -0.4990 -1.2755
  932SOL    MW4 3776   3.798   2.813   1.501 -0.1242 -0.1509 -0.2382
  933SOL     OW 3777   3.817   3.073   1.642  0.0532 -0.0414 -0.0414
  933SOL    HW2 3778   3.898   3.100   1.599 -0.2674  0.2727 -0.4539
  933SOL    HW3 3779   3.802   2.984   1.611  0.0501  0.0283 -0.2374
  933SOL    MW4 3780   3.826   3.064   1.633  0.0107  0.0093 -0.1216
  934SOL     OW 3781   3.601   3.238   1.552 -0.1265 -0.2807  0.7795
  934SOL    HW2 3782   3.667   3.180   1.588  1.1536  1.2678  0.9960
  934SOL    HW3 3783   3.600   3.219   1.459  0.6629 -0.2797  0.7699
  934SOL    MW4 3784   3.610   3.228   1.545  0.1466 -0.0763  0.8069
  935SOL     OW 3785   3.606   3.497   1.627 -0.4566 -0.0019  0.2398
  935SOL    HW2 3786   3.699   3.518   1.623 -0.0489 -1.4185  1.7827
  935SOL    HW3 3787   3.601   3.405   1.600 -1.3585 -0.0520  0.5504
  935SOL    MW4 3788   3.617   3.488   1.623 -0.5219 -0.1955  0.4843
  936SOL     OW 3789   3.868   3.569   1.609  0.3171  0.5367  0.7379
  936SOL    HW2 3790   3.950   3.521   1.623  0.6035  0.7040 -0.3024
  936SOL    HW3 3791   3.889   3.660   1.632  0.7034  0.7587 -0.4813
  936SOL    MW4 3792   3.882   3.575   1.614  0.4060  0.5877  0.4396
  937SOL     OW 3793   3.876   3.842   1.599  0.3982 -0.3279  0.2537
  937SOL    HW2 3794   3.957   3.884   1.571  0.5564 -1.7113 -1.4745
  937SOL    HW3 3795   3.808   3.880   1.543  0.1577 -0.5501  0.3903
  937SOL    MW4 3796   3.878   3.852   1.588  0.3874 -0.5395  0.0436
  938SOL     OW 3797   3.656   4.000   1.492  0.2961 -0.6343 -0.7197
  938SOL    HW2 3798   3.657   4.088   1.530  0.2680 -0.8427 -0.2389
  938SOL    HW3 3799   3.576   3.960   1.526  0.3118 -0.8493 -0.9339
  938SOL    MW4 3800   3.646   4.006   1.502  0.2944 -0.6900 -0.6846
  939SOL     OW 3801   3.614   4.234   1.648  0.0627 -0.2683  0.0628
  939SOL    HW2 3802   3.620   4.240   1.743  1.0872  0.0301 -0.0184
  939SOL    HW3 3803   3.535   4.284   1.626  0.9191  1.3539  0.5885
  939SOL    MW4 3804   3.604   4.241   1.657  0.3109 -0.0157  0.1215
  940SOL     OW 3805   3.830   4.391   1.537  0.3219  0.0811 -0.3214
  940SOL    HW2 3806   3.761   4.342   1.582 -0.2461  0.7401 -0.4600
  940SOL    HW3 3807   3.832   4.475   1.583  2.5657 -0.7204  1.1352
  940SOL    MW4 3808   3.821   4.396   1.549  0.5431  0.0625 -0.1475
  941SOL     OW 3809   4.260   4.661   1.607 -0.2493  0.0079  0.1956
  941SOL    HW2 3810   4.258   4.630   1.697  0.2351 -0.5492  0.0193
  941SOL    HW3 3811   4.287   4.584   1.556 -0.4630  0.3336 -0.4157
  941SOL    MW4 3812   4.263   4.647   1.612 -0.2136 -0.0224  0.0917
  942SOL     OW 3813   4.019   0.103   1.518 -0.6362 -0.0800  0.0843
  942SOL    HW2 3814   4.035   0.192   1.549  0.7760 -0.0236 -0.8038
  942SOL    HW3 3815   4.097   0.054   1.543 -1.2131 -0.9754  0.1695
  942SOL    MW4 3816   4.031   0.108   1.526 -0.5260 -0.1907 -0.0217
  943SOL     OW 3817   4.041   0.347   1.656 -0.3979 -0.3283  0.2525
  943SOL    HW2 3818   4.064   0.349   1.749 -0.2472 -1.9799  0.2689
  943SOL    HW3 3819   3.966   0.406   1.649  0.5791  1.0442  1.1367
  943SOL    MW4 3820   4.034   0.355   1.668 -0.2494 -0.3651  0.3715
  944SOL     OW 3821   4.271   0.523   1.573 -0.1381 -0.0225 -0.0689
  944SOL    HW2 3822   4.206   0.456   1.595 -0.0477 -0.3716 -0.8768
  944SOL    HW3 3823   4.355   0.480   1.587 -0.0803 -0.1278 -0.7457
  944SOL    MW4 3824   4.274   0.508   1.578 -0.1187 -0.0826 -0.2648
  945SOL     OW 3825   4.297   0.790   1.656 -0.0652 -0.1457  0.1512
  945SOL    HW2 3826   4.281   0.702   1.621  0.4551 -0.1983  0.0376
  945SOL    HW3 3827   4.379   0.818   1.614  0.5261 -0.1817  1.2774
  945SOL    MW4 3828   4.305   0.782   1.646  0.0820 -0.1574  0.2848
  946SOL     OW 3829   4.051   0.870   1.561  0.0189 -0.0608 -0.3680
  946SOL    HW2 3830   4.128   0.847   1.613  1.0014 -2.7773 -2.9159
  946SOL    HW3 3831   3.979   0.822   1.602 -0.1357  1.4771  1.2368
  946SOL    MW4 3832   4.051   0.861   1.574  0.1283 -0.2163 -0.4925
  947SOL     OW 3833   4.038   1.139   1.628 -0.2731 -0.2591 -0.2477
  947SOL    HW2 3834   4.046   1.153   1.722  2.2141 -1.2270 -0.2652
  947SOL    HW3 3835   4.043   1.044   1.617 -1.4838 -0.2184 -1.2947
  947SOL    MW4 3836   4.040   1.128   1.639 -0.1049 -0.3816 -0.3881
  948SOL     OW 3837   4.248   1.267   1.515  0.5162  0.3138  0.4628
  948SOL    HW2 3838   4.174   1.222   1.555  0.9890 -1.0222 -0.1086
  948SOL    HW3 3839   4.324   1.216   1.543  0.8378 -0.7525 -2.2581
  948SOL    MW4 3840   4.249   1.254   1.524  0.6208 -0.0032  0.0283
  949SOL     OW 3841   4.246   1.531   1.639  0.4406 -0.1849  0.1423
  949SOL    HW2 3842   4.258   1.446   1.598 -0.1379  0.2716 -1.0056
  949SOL    HW3 3843   4.323   1.582   1.613 -0.3463  0.3847 -1.1305
  949SOL    MW4 3844   4.258   1.527   1.630  0.2604 -0.0495 -0.1770
  950SOL     OW 3845   4.034   1.656   1.512  0.0196  0.1022 -0.1010
  950SOL    HW2 3846   4.104   1.613   1.560  0.6192  0.5212 -0.5849
  950SOL    HW3 3847   3.953   1.622   1.550  0.4733 -1.9831 -0.9458
  950SOL    MW4 3848   4.033   1.646   1.523  0.1588 -0.1177 -0.2764
  951SOL     OW 3849   4.015   1.923   1.614 -0.6966  0.0037  0.2552
  951SOL    HW2 3850   4.004   1.829   1.602  0.6049 -0.0187 -0.8360
  951SOL    HW3 3851   3.940   1.962   1.570 -2.1195 -0.5646  2.0950
  951SOL    MW4 3852   4.004   1.916   1.607 -0.7129 -0.0743  0.3538
  952SOL     OW 3853   4.248   2.073   1.520  0.2155 -0.2778  0.2006
  952SOL    HW2 3854   4.175   2.021   1.554  0.5967 -0.8183  0.2165
  952SOL    HW3 3855   4.249   2.054   1.426 -0.6970  1.0368 -0.0751
  952SOL    MW4 3856   4.239   2.063   1.512  0.1454 -0.1760  0.1664
  953SOL     OW 3857   4.314   2.319   1.630 -0.2731  0.5216 -0.1800
  953SOL    HW2 3858   4.294   2.325   1.723  2.3491 -0.5126  0.4910
  953SOL    HW3 3859   4.294   2.228   1.607  0.7873  0.2787 -0.1795
  953SOL    MW4 3860   4.309   2.307   1.639  0.2127  0.3533 -0.0916
  954SOL     OW 3861   4.047   2.421   1.535  0.2386  0.4066  0.0779
  954SOL    HW2 3862   4.038   2.506   1.580 -0.9740  1.0846 -1.3822
  954SOL    HW3 3863   4.136   2.392   1.555 -0.3177  0.6151  3.0130
  954SOL    MW4 3864   4.058   2.429   1.543  0.0052  0.5233  0.2724
  955SOL     OW 3865   4.032   2.686   1.610  0.0403  0.0114 -0.2935
  955SOL    HW2 3866   4.040   2.692   1.705  2.1785 -2.4542 -0.2190
  955SOL    HW3 3867   4.112   2.728   1.577 -0.0689 -0.2788 -0.9332
  955SOL    MW4 3868   4.044   2.692   1.618  0.3080 -0.3524 -0.3681
  956SOL     OW 3869   4.277   2.810   1.537  0.1313  0.3570  0.8045
  956SOL    HW2 3870   4.255   2.898   1.567 -0.7032 -0.0632  1.4581
  956SOL    HW3 3871   4.290   2.819   1.443 -1.8170  0.8280  0.5725
  956SOL    MW4 3872   4.276   2.823   1.529 -0.2360  0.3638  0.8600
  957SOL     OW 3873   4.294   3.082   1.604 -0.1217 -0.2957  0.1992
  957SOL    HW2 3874   4.274   3.079   1.698  0.3360 -1.5250  0.2605
  957SOL    HW3 3875   4.384   3.114   1.600  0.0031 -0.6487  0.1934
  957SOL    MW4 3876   4.303   3.086   1.616 -0.0448 -0.5045  0.2066
  958SOL     OW 3877   4.044   3.186   1.522 -0.1765 -0.0594  0.2829
  958SOL    HW2 3878   4.061   3.275   1.552 -0.5651 -0.4192  1.6225
  958SOL    HW3 3879   4.127   3.140   1.536  0.1839  0.2260 -0.9155
  958SOL    MW4 3880   4.057   3.192   1.528 -0.1807 -0.0691  0.3015
  959SOL     OW 3881   4.116   3.450   1.660 -0.0613 -0.4400 -0.0557
  959SOL    HW2 3882   4.120   3.453   1.756 -1.6400  0.4137 -0.0071
  959SOL    HW3 3883   4.174   3.521   1.631  2.1425 -2.0810  0.1998
  959SOL    MW4 3884   4.124   3.460   1.669  0.0210 -0.5441 -0.0157
  960SOL     OW 3885   4.288   3.635   1.574  0.1626 -0.2043  0.5072
  960SOL    HW2 3886   4.312   3.725   1.597 -0.2801 -0.1271  0.6705
  960SOL    HW3 3887   4.282   3.635   1.479 -2.1029  0.5277  0.6186
  960SOL    MW4 3888   4.290   3.647   1.565 -0.1950 -0.0975  0.5437
  961SOL     OW 3889   4.300   3.893   1.675 -0.2462  0.4225 -0.3409
  961SOL    HW2 3890   4.220   3.923   1.632  0.0969  1.2902 -0.3771
  961SOL    HW3 3891   4.369   3.945   1.635  0.5500 -1.4662 -1.5019
  961SOL    MW4 3892   4.298   3.904   1.664 -0.0954  0.2880 -0.4989
  962SOL     OW 3893   4.087   4.012   1.530 -0.4098  0.8390 -0.0813
  962SOL    HW2 3894   4.067   4.102   1.557  0.5836  1.0606 -0.0790
  962SOL    HW3 3895   4.062   4.009   1.437 -1.7851  0.7000  0.2838
  962SOL    MW4 3896   4.081   4.023   1.521 -0.4601  0.8502 -0.0329
  963SOL     OW 3897   4.074   4.278   1.605  0.3378 -0.1968  0.4873
  963SOL    HW2 3898   4.073   4.288   1.700  0.0386  2.1822  0.2694
  963SOL    HW3 3899   3.995   4.323   1.575  1.4041  0.7428 -1.0134
  963SOL    MW4 3900   4.063   4.285   1.613  0.4387  0.2413  0.2606
  964SOL     OW 3901   4.298   4.416   1.500  0.5560 -0.3167  0.7243
  964SOL    HW2 3902   4.218   4.377   1.536  0.7413  0.0326  1.5036
  964SOL    HW3 3903   4.293   4.397   1.406 -0.2913 -0.5619  0.8176
  964SOL    MW4 3904   4.287   4.408   1.492  0.4687 -0.3028  0.8394
  965SOL     OW 3905   0.253   4.618   1.924  0.2400  0.1666  0.1090
  965SOL    HW2 3906   0.327   4.675   1.944 -0.0214  0.1077  1.3324
  965SOL    HW3 3907   0.248   4.616   1.829  1.3576  0.7555  0.0365
  965SOL    MW4 3908   0.262   4.626   1.914  0.3530  0.2365  0.2607
  966SOL     OW 3909   0.010   0.082   1.998 -0.0467 -0.0728 -0.0010
  966SOL    HW2 3910   0.007   0.168   1.957  1.2296  0.5785  1.1892
  966SOL    HW3 3911   0.093   0.044   1.969 -0.3944 -0.7080 -0.1671
  966SOL    MW4 3912   0.021   0.088   1.989  0.0758 -0.0707  0.1341
  967SOL     OW 3913   0.006   0.335   1.886  0.2228 -0.4643 -0.3434
  967SOL    HW2 3914  -0.061   0.388   1.927 -0.4149 -0.0557 -1.9043
  967SOL    HW3 3915   0.086   0.356   1.934 -0.0050  1.9384 -0.9538
  967SOL    MW4 3916   0.008   0.345   1.897  0.1086 -0.0934 -0.6298
  968SOL     OW 3917   0.236   0.481   2.020  0.2124 -0.0285 -0.3227
  968SOL    HW2 3918   0.312   0.460   1.965 -0.8071  1.3523 -2.3102
  968SOL    HW3 3919   0.211   0.570   1.994 -1.2262  0.0726  1.3190
  968SOL    MW4 3920   0.243   0.490   2.010 -0.1119  0.1670 -0.3684
  969SOL     OW 3921   0.189   0.746   1.931 -0.1699  0.3919  0.4963
  969SOL    HW2 3922   0.269   0.792   1.955  0.5137  0.5928 -2.0010
  969SOL    HW3 3923   0.201   0.724   1.838 -2.5885 -0.4467  0.3424
  969SOL    MW4 3924   0.201   0.749   1.922 -0.3988  0.3079  0.1465
  970SOL     OW 3925   4.456   0.897   2.006 -0.2294  0.3375 -0.3571
  970SOL    HW2 3926   4.382   0.843   1.978  0.7535 -0.4691 -1.4642
  970SOL    HW3 3927   4.533   0.852   1.970  0.7424  1.5203  0.2183
  970SOL    MW4 3928   4.457   0.884   1.998  0.0281  0.3871 -0.4272
  971SOL     OW 3929   4.464   1.161   1.897 -0.3841 -0.4956 -0.4721
  971SOL    HW2 3930   4.385   1.202   1.935 -0.6630 -0.1888 -1.3830
  971SOL    HW3 3931   4.462   1.071   1.931 -0.3684 -0.0928  0.6416
  971SOL    MW4 3932   4.453   1.155   1.907 -0.4187 -0.4020 -0.4454
  972SOL     OW 3933   0.217   1.281   2.003 -0.2778 -0.3090  0.7360
  972SOL    HW2 3934   0.216   1.367   1.961 -1.1269 -0.1832  0.9999
  972SOL    HW3 3935   0.133   1.242   1.980 -0.7133 -0.2801  2.2234
  972SOL    MW4 3936   0.206   1.287   1.995 -0.4473 -0.2885  0.9670
  973SOL     OW 3937   0.223   1.544   1.881  0.4333 -0.0419  0.0761
  973SOL    HW2 3938   0.311   1.575   1.901  0.1929  0.6485  0.0914
  973SOL    HW3 3939   0.166   1.600   1.933  0.0330 -1.1612  0.8530
  973SOL    MW4 3940   0.227   1.556   1.891  0.3488 -0.0985  0.1806
  974SOL     OW 3941   0.009   1.686   2.010  0.5724  0.0974 -0.1431
  974SOL    HW2 3942  -0.007   1.694   2.104  1.7360 -2.9018  0.3673
  974SOL    HW3 3943  -0.068   1.638   1.977  0.6468  0.2414 -0.5220
  974SOL    MW4 3944  -0.003   1.680   2.018  0.7353 -0.2792 -0.1256
  975SOL     OW 3945   4.489   1.951   1.904  0.2659 -0.0611 -0.2208
  975SOL    HW2 3946   4.403   1.986   1.928 -0.1708  0.3067 -2.2257
  975SOL    HW3 3947   4.481   1.856   1.914 -0.0335  0.0445  0.5907
  975SOL    MW4 3948   4.477   1.943   1.909  0.1683  0.0014 -0.3783
  976SOL     OW 3949   0.209   2.070   2.035  0.0411 -0.0078  0.4575
  976SOL    HW2 3950   0.223   2.145   1.978 -0.4162  0.3124  0.7680
  976SOL    HW3 3951   0.133   2.025   1.998  0.0366 -0.0654  0.5348
  976SOL    MW4 3952   0.200   2.074   2.023 -0.0198  0.0267  0.5085
  977SOL     OW 3953   0.230   2.270   1.858 -0.0628 -0.0693 -0.2377
  977SOL    HW2 3954   0.303   2.319   1.896  0.2842 -0.8727  0.1461
  977SOL    HW3 3955   0.152   2.316   1.888  0.3080  1.5600 -1.7006
  977SOL    MW4 3956   0.229   2.282   1.867  0.0319  0.0393 -0.3800
  978SOL     OW 3957   0.014   2.451   1.995 -0.4512  0.3500 -0.0850
  978SOL    HW2 3958   0.010   2.465   2.090  0.5623  0.7628 -0.0988
  978SOL    HW3 3959   0.006   2.539   1.958 -3.0408 -0.0047 -0.4651
  978SOL    MW4 3960   0.012   2.465   2.003 -0.6592  0.3574 -0.1369
  979SOL     OW 3961   0.010   2.698   1.883 -0.0682  0.1926  0.2684
  979SOL    HW2 3962  -0.067   2.748   1.911  1.3095  1.9796  0.9821
  979SOL    HW3 3963   0.018   2.719   1.789  0.0318  0.6766  0.3826
  979SOL    MW4 3964   0.001   2.708   1.874  0.1264  0.4921  0.3777
  980SOL     OW 3965   0.221   2.839   1.995 -0.4097  0.3165 -0.1263
  980SOL    HW2 3966   0.218   2.918   1.941  0.7576  0.5265  0.0904
  980SOL    HW3 3967   0.141   2.792   1.973 -1.2765  1.6972 -0.0443
  980SOL    MW4 3968   0.210   2.843   1.985 -0.3701  0.5264 -0.0868
  981SOL     OW 3969   0.197   3.088   1.867 -0.3163  0.6424 -0.1925
  981SOL    HW2 3970   0.269   3.138   1.905  0.8266 -0.3174 -1.1005
  981SOL    HW3 3971   0.210   3.095   1.772 -1.9221  1.2087 -0.3917
  981SOL    MW4 3972   0.208   3.096   1.859 -0.3773  0.5903 -0.3384
  982SOL     OW 3973   4.463   3.188   2.002 -0.2495 -0.6261  0.7196
  982SOL    HW2 3974   4.390   3.146   1.957 -0.2478  1.1114 -0.9273
  982SOL    HW3 3975   4.540   3.140   1.972 -0.2662  0.4136 -1.0014
  982SOL    MW4 3976   4.464   3.176   1.992 -0.2513 -0.2594  0.2754
  983SOL     OW 3977   4.482   3.460   1.933  0.0709 -0.3274  0.5896
  983SOL    HW2 3978   4.398   3.488   1.969 -0.5458 -0.1394 -0.9742
  983SOL    HW3 3979   4.483   3.365   1.945 -0.3985 -0.3404  0.5192
  983SOL    MW4 3980   4.471   3.451   1.939 -0.0730 -0.3042  0.3740
  984SOL     OW 3981   0.204   3.609   1.966 -0.1040  0.8230 -0.0374
  984SOL    HW2 3982   0.226   3.605   2.059  0.9385 -1.2734 -0.3480
  984SOL    HW3 3983   0.124   3.557   1.959  0.0648  0.6117 -0.3849
  984SOL    MW4 3984   0.196   3.601   1.978  0.0559  0.5186 -0.1243
  985SOL     OW 3985   0.243   3.869   1.877  0.0188 -0.3680  0.1727
  985SOL    HW2 3986   0.325   3.894   1.920 -0.0334  0.4632 -0.2080
  985SOL    HW3 3987   0.235   3.775   1.894  2.0458 -0.8679 -1.4518
  985SOL    MW4 3988   0.253   3.859   1.885  0.2794 -0.3242 -0.0920
  986SOL     OW 3989   0.022   3.995   1.994 -0.0352  0.3954 -0.3055
  986SOL    HW2 3990   0.043   4.082   1.962  2.0803 -0.0843 -0.2772
  986SOL    HW3 3991   0.095   3.940   1.966 -0.7465 -1.1187  0.7092
  986SOL    MW4 3992   0.035   3.999   1.986  0.1501  0.1323 -0.1678
  987SOL     OW 3993   0.039   4.241   1.871  0.1292 -0.2071  0.0055
  987SOL    HW2 3994  -0.032   4.279   1.923  0.4524 -0.0712  0.3461
  987SOL    HW3 3995   0.119   4.281   1.906  0.3099  0.2476 -0.9023
  987SOL    MW4 3996   0.040   4.251   1.882  0.1957 -0.1292 -0.0695
  988SOL     OW 3997   0.264   4.363   1.997 -0.0587  0.2899  0.1023
  988SOL    HW2 3998   0.264   4.371   2.092  1.6191 -0.2796  0.1628
  988SOL    HW3 3999   0.262   4.453   1.965 -0.3080  0.4895  0.6770
  988SOL    MW4 4000   0.263   4.376   2.005  0.1297  0.2408  0.1860
  989SOL     OW 4001   0.670   4.654   1.840 -0.2037 -0.3114  0.3261
  989SOL    HW2 4002   0.685   4.571   1.885  0.5021 -0.5014 -0.2537
  989SOL    HW3 4003   0.685   4.634   1.747 -1.6788  0.0601 -0.0108
  989SOL    MW4 4004   0.674   4.640   1.834 -0.3052 -0.2875  0.2052
  990SOL     OW 4005   0.465   0.112   1.993 -0.2978  0.4849  0.5270
  990SOL    HW2 4006   0.445   0.196   1.951 -1.3884  0.3166  0.6889
  990SOL    HW3 4007   0.532   0.073   1.937 -0.7283  0.8813 -0.2876
  990SOL    MW4 4008   0.471   0.118   1.980 -0.4985  0.5150  0.4411
  991SOL     OW 4009   0.450   0.375   1.873  0.2663  0.4544  0.7086
  991SOL    HW2 4010   0.530   0.401   1.918  0.3251  0.6657  0.4776
  991SOL    HW3 4011   0.475   0.368   1.781 -0.4457  2.4307  0.3400
  991SOL    MW4 4012   0.464   0.377   1.867  0.1801  0.7430  0.6297
  992SOL     OW 4013   0.705   0.446   1.971  0.1043 -0.1060 -0.4024
  992SOL    HW2 4014   0.717   0.470   2.063 -0.5511  0.9338 -0.5900
  992SOL    HW3 4015   0.792   0.417   1.942  0.5103  0.4297  0.2843
  992SOL    MW4 4016   0.718   0.445   1.979  0.0713  0.1018 -0.3365
  993SOL     OW 4017   0.652   0.728   1.877 -0.1342  0.3436 -0.3477
  993SOL    HW2 4018   0.726   0.774   1.916 -0.6278  1.6674 -0.9317
  993SOL    HW3 4019   0.672   0.635   1.890  1.0956  0.7049  0.4580
  993SOL    MW4 4020   0.664   0.721   1.884 -0.0371  0.5659 -0.3186
  994SOL     OW 4021   0.412   0.865   2.018  0.1211  0.1520 -0.6977
  994SOL    HW2 4022   0.421   0.951   1.978 -0.0943 -0.3254 -1.7868
  994SOL    HW3 4023   0.467   0.807   1.964  0.0813 -0.4425 -0.1168
  994SOL    MW4 4024   0.421   0.869   2.006  0.0874  0.0106 -0.7648
  995SOL     OW 4025   0.420   1.114   1.885 -0.5053  0.1664  0.4729
  995SOL    HW2 4026   0.356   1.179   1.911 -1.1487  0.1281 -0.9600
  995SOL    HW3 4027   0.421   1.118   1.789  1.0648 -0.3735  0.4470
  995SOL    MW4 4028   0.412   1.123   1.876 -0.3830  0.0901  0.2804
  996SOL     OW 4029   0.632   1.272   1.946 -0.0063 -0.6681 -0.2333
  996SOL    HW2 4030   0.638   1.259   2.041 -0.4683 -1.0215 -0.2520
  996SOL    HW3 4031   0.557   1.219   1.919 -0.2534 -0.0816 -0.7071
  996SOL    MW4 4032   0.623   1.263   1.955 -0.1000 -0.6373 -0.2983
  997SOL     OW 4033   0.726   1.532   1.888 -0.1300  0.0932 -0.6069
  997SOL    HW2 4034   0.695   1.446   1.917 -0.5886  0.1590 -0.9045
  997SOL    HW3 4035   0.731   1.525   1.793  1.3958 -0.1320 -0.5361
  997SOL    MW4 4036   0.723   1.520   1.880  0.0108  0.0722 -0.6367
  998SOL     OW 4037   0.458   1.664   1.958  0.6260 -0.4050 -0.1527
  998SOL    HW2 4038   0.448   1.648   2.052 -0.0647  0.1096 -0.1348
  998SOL    HW3 4039   0.546   1.632   1.937  1.0088  0.0362  0.7804
  998SOL    MW4 4040   0.468   1.657   1.967  0.5854 -0.2788 -0.0273
  999SOL     OW 4041   0.416   1.948   1.919 -0.4627  0.1445  0.2022
  999SOL    HW2 4042   0.426   1.857   1.947  0.8755  0.0186 -0.6567
  999SOL    HW3 4043   0.345   1.982   1.974  0.8231 -0.6444  2.4236
  999SOL    MW4 4044   0.408   1.940   1.930 -0.1165  0.0238  0.3819
 1000SOL     OW 4045   0.655   2.065   1.982  0.2620 -0.5179 -0.1154
 1000SOL    HW2 4046   0.666   2.054   2.077  1.0058  1.1506  0.0030
 1000SOL    HW3 4047   0.568   2.029   1.964 -0.1325 -0.3029  1.2981
 1000SOL    MW4 4048   0.645   2.059   1.992  0.3082 -0.2697  0.0868
 1001SOL     OW 4049   0.685   2.295   1.825 -0.4132 -0.2050 -0.1020
 1001SOL    HW2 4050   0.672   2.204   1.854 -1.8666 -0.2024 -0.7105
 1001SOL    HW3 4051   0.698   2.288   1.730 -0.8346  0.2527 -0.1922
 1001SOL    MW4 4052   0.685   2.282   1.816 -0.6606 -0.1440 -0.1942
 1002SOL     OW 4053   0.446   2.415   1.966 -0.7350 -0.1405  0.2122
 1002SOL    HW2 4054   0.475   2.439   2.054  0.4622 -3.2339  0.7388
 1002SOL    HW3 4055   0.527   2.392   1.920 -1.3913  1.0096 -1.5996
 1002SOL    MW4 4056   0.461   2.415   1.972 -0.6636 -0.3970  0.0426
 1003SOL     OW 4057   0.450   2.691   1.896  0.7282 -0.8457  0.2641
 1003SOL    HW2 4058   0.438   2.598   1.911 -2.8408 -0.6975 -1.1237
 1003SOL    HW3 4059   0.381   2.733   1.947  2.4435  1.0808  1.0770
 1003SOL    MW4 4060   0.439   2.685   1.904  0.4836 -0.5720  0.1882
 1004SOL     OW 4061   0.684   2.814   1.965  0.2087  0.1264 -0.1379
 1004SOL    HW2 4062   0.675   2.825   2.059  0.1848 -0.1879 -0.1019
 1004SOL    HW3 4063   0.607   2.765   1.939 -0.3978  1.2709 -0.5143
 1004SOL    MW4 4064   0.673   2.809   1.974  0.1255  0.2358 -0.1830
 1005SOL     OW 4065   0.626   3.089   1.881 -0.1892 -0.0653 -0.6800
 1005SOL    HW2 4066   0.632   2.999   1.913  1.1477 -0.1681 -1.1794
 1005SOL    HW3 4067   0.651   3.084   1.789  0.1844  0.8650 -0.6404
 1005SOL    MW4 4068   0.630   3.077   1.873  0.0365  0.0439 -0.7406
 1006SOL     OW 4069   0.405   3.200   2.007  0.0064 -0.4186 -0.1532
 1006SOL    HW2 4070   0.407   3.291   1.977 -0.0947 -0.7377 -1.1233
 1006SOL    HW3 4071   0.474   3.157   1.957  0.6930 -0.6807  0.9801
 1006SOL    MW4 4072   0.415   3.206   1.997  0.0837 -0.4954 -0.1316
 1007SOL     OW 4073   0.423   3.457   1.903  0.4167  0.2128 -0.7402
 1007SOL    HW2 4074   0.502   3.500   1.934  0.3499 -0.0424 -0.2068
 1007SOL    HW3 4075   0.352   3.517   1.925  0.3617 -0.0008 -0.3197
 1007SOL    MW4 4076   0.424   3.471   1.910  0.4006  0.1512 -0.6143
 1008SOL     OW 4077   0.639   3.594   1.999  0.0039 -0.3037 -0.0231
 1008SOL    HW2 4078   0.719   3.549   1.969 -0.6004 -0.0301 -2.1152
 1008SOL    HW3 4079   0.658   3.687   1.986 -0.2472 -0.1710  0.5490
 1008SOL    MW4 4080   0.652   3.600   1.993 -0.1090 -0.2501 -0.2236
 1009SOL     OW 4081   0.694   3.852   1.913 -0.1130  0.2685  0.5508
 1009SOL    HW2 4082   0.784   3.869   1.940 -0.5219  2.5598  0.5388
 1009SOL    HW3 4083   0.694   3.866   1.819 -0.2958 -0.6724  0.3988
 1009SOL    MW4 4084   0.706   3.856   1.904 -0.1911  0.4468  0.5292
 1010SOL     OW 4085   0.466   3.969   2.046 -0.2074 -0.7246  0.2123
 1010SOL    HW2 4086   0.453   4.051   1.998  0.4678 -0.4260  0.5413
 1010SOL    HW3 4087   0.551   3.936   2.015  0.2052 -0.5617  1.1582
 1010SOL    MW4 4088   0.476   3.975   2.035 -0.0639 -0.6638  0.3808
 1011SOL     OW 4089   0.488   4.236   1.917 -0.3531  0.1989 -0.1069
 1011SOL    HW2 4090   0.411   4.280   1.953 -0.4813 -0.0090 -0.1310
 1011SOL    HW3 4091   0.465   4.216   1.827  0.1483  1.1559 -0.4591
 1011SOL    MW4 4092   0.475   4.239   1.910 -0.3039  0.2980 -0.1565
 1012SOL     OW 4093   0.701   4.409   1.973 -0.2254  0.0406 -0.2961
 1012SOL    HW2 4094   0.774   4.357   1.940  0.3603  1.7660 -1.7898
 1012SOL    HW3 4095   0.624   4.356   1.954  0.4398 -0.7372 -0.8893
 1012SOL    MW4 4096   0.700   4.395   1.966 -0.0603  0.1650 -0.5715
 1013SOL     OW 4097   1.096   0.017   1.910  0.2328  0.2241 -0.2333
 1013SOL    HW2 4098   1.180   0.055   1.937 -0.0738 -0.4051  1.6820
 1013SOL    HW3 4099   1.092  -0.067   1.955 -1.7810  0.6086  0.3737
 1013SOL    MW4 4100   1.106   0.011   1.920 -0.0733  0.1917  0.0997
 1014SOL     OW 4101   0.857   0.094   2.008  0.3080  0.3745  0.4547
 1014SOL    HW2 4102   0.946   0.065   1.984 -0.4984 -1.9799  0.1410
 1014SOL    HW3 4103   0.802   0.063   1.935 -0.7073  2.2612  0.4032
 1014SOL    MW4 4104   0.862   0.086   1.995  0.0676  0.3128  0.4066
 1015SOL     OW 4105   0.940   0.344   1.879  0.0375 -0.3114 -0.7256
 1015SOL    HW2 4106   1.002   0.394   1.931  0.6402 -1.6391 -0.1531
 1015SOL    HW3 4107   0.934   0.259   1.923 -0.7651 -0.8405 -1.8311
 1015SOL    MW4 4108   0.947   0.339   1.891  0.0111 -0.5564 -0.7960
 1016SOL     OW 4109   1.135   0.514   2.009  0.3737  0.1849  0.0701
 1016SOL    HW2 4110   1.211   0.468   1.974  0.9998  1.4116 -0.2071
 1016SOL    HW3 4111   1.136   0.599   1.966  0.2112  1.1160  1.8334
 1016SOL    MW4 4112   1.145   0.519   1.999  0.4349  0.4696  0.2661
 1017SOL     OW 4113   1.111   0.751   1.885  0.4561  0.2330 -0.2110
 1017SOL    HW2 4114   1.187   0.807   1.900  0.0085  0.5019  1.1371
 1017SOL    HW3 4115   1.037   0.802   1.917 -0.0284 -0.9157  0.5303
 1017SOL    MW4 4116   1.111   0.765   1.891  0.3332  0.1169  0.0646
 1018SOL     OW 4117   0.881   0.877   1.996 -0.4372 -0.3681 -0.3717
 1018SOL    HW2 4118   0.906   0.872   2.089  1.3545 -1.0720 -0.8701
 1018SOL    HW3 4119   0.902   0.966   1.970 -0.7927 -0.2181 -0.1518
 1018SOL    MW4 4120   0.887   0.888   2.005 -0.2477 -0.4412 -0.4084
 1019SOL     OW 4121   0.893   1.147   1.888  0.3028 -0.1082  0.1401
 1019SOL    HW2 4122   0.802   1.175   1.896 -0.5055 -2.6150 -0.0841
 1019SOL    HW3 4123   0.910   1.144   1.794  0.3150 -0.6418  0.1617
 1019SOL    MW4 4124   0.884   1.150   1.877  0.1978 -0.5094  0.1134
 1020SOL     OW 4125   1.121   1.277   2.003 -0.0623  0.2488 -0.1758
 1020SOL    HW2 4126   1.118   1.371   1.987 -1.2295  0.5361  1.5629
 1020SOL    HW3 4127   1.040   1.244   1.964 -0.1000  0.1013  0.0298
 1020SOL    MW4 4128   1.110   1.285   1.996 -0.2213  0.2673  0.0808
 1021SOL     OW 4129   1.148   1.544   1.912  0.2590 -0.1285 -0.0541
 1021SOL    HW2 4130   1.084   1.611   1.940  0.9947  1.2542 -1.5945
 1021SOL    HW3 4131   1.131   1.533   1.818  0.0058 -2.3014  0.2314
 1021SOL    MW4 4132   1.137   1.552   1.903  0.3227 -0.2326 -0.2196
 1022SOL     OW 4133   0.920   1.702   1.991 -0.0608 -0.0418  0.1539
 1022SOL    HW2 4134   0.893   1.786   1.955 -0.5794  0.1238  0.9036
 1022SOL    HW3 4135   0.858   1.639   1.954  0.4270 -0.1200 -0.5331
 1022SOL    MW4 4136   0.908   1.705   1.982 -0.0648 -0.0304  0.1622
 1023SOL     OW 4137   0.885   1.963   1.911 -0.2017 -0.1088  0.3937
 1023SOL    HW2 4138   0.799   1.991   1.942 -0.1963  1.5346 -0.9995
 1023SOL    HW3 4139   0.882   1.977   1.816  1.4195 -0.5229  0.2643
 1023SOL    MW4 4140   0.874   1.968   1.902  0.0129  0.0535  0.1928
 1024SOL     OW 4141   1.134   2.041   2.014  0.8353  0.3863 -0.6120
 1024SOL    HW2 4142   1.151   2.131   1.988  3.6070  0.3074  0.7378
 1024SOL    HW3 4143   1.046   2.022   1.981 -0.5931  4.1893  0.7202
 1024SOL    MW4 4144   1.124   2.050   2.006  1.0126  0.8776 -0.2582
 1025SOL     OW 4145   1.117   2.321   1.934  0.1547  0.2549 -0.3505
 1025SOL    HW2 4146   1.187   2.378   1.967 -0.4170  1.0443 -0.4895
 1025SOL    HW3 4147   1.127   2.324   1.839  0.6102 -0.5127 -0.3371
 1025SOL    MW4 4148   1.128   2.329   1.926  0.1394  0.2575 -0.3670
 1026SOL     OW 4149   0.864   2.415   2.009  0.0859  0.0235  0.2880
 1026SOL    HW2 4150   0.946   2.395   1.964  0.1763 -0.3567  0.6180
 1026SOL    HW3 4151   0.796   2.371   1.958  0.1016  0.2387  0.0823
 1026SOL    MW4 4152   0.866   2.407   1.996  0.0999  0.0017  0.3043
 1027SOL     OW 4153   0.894   2.653   1.884  0.2788  0.1972 -0.6537
 1027SOL    HW2 4154   0.866   2.574   1.930  0.0633  0.0210 -1.0855
 1027SOL    HW3 4155   0.832   2.720   1.911  0.9970  0.4491  0.4221
 1027SOL    MW4 4156   0.882   2.651   1.894  0.3451  0.2069 -0.5687
 1028SOL     OW 4157   1.119   2.792   1.950  0.1337  0.4923 -0.3674
 1028SOL    HW2 4158   1.104   2.805   2.044  0.5637  1.3861 -0.4194
 1028SOL    HW3 4159   1.047   2.735   1.922  0.6120 -0.6709  0.7142
 1028SOL    MW4 4160   1.107   2.786   1.959  0.2536  0.4566 -0.2316
 1029SOL     OW 4161   1.117   3.055   1.880 -0.1343  0.2326  0.1843
 1029SOL    HW2 4162   1.045   3.105   1.918 -0.0165 -0.5487  1.4738
 1029SOL    HW3 4163   1.103   2.965   1.911  0.9031 -0.0932 -0.2661
 1029SOL    MW4 4164   1.106   3.050   1.889  0.0181  0.0868  0.2950
 1030SOL     OW 4165   0.874   3.198   1.934  0.1117  0.1770  0.0000
 1030SOL    HW2 4166   0.862   3.197   2.029  0.7127 -1.1344  0.0743
 1030SOL    HW3 4167   0.796   3.155   1.899  0.1475  0.1582 -0.0571
 1030SOL    MW4 4168   0.862   3.192   1.942  0.1958  0.0014  0.0023
 1031SOL     OW 4169   0.855   3.471   1.911  0.0884  0.4743 -0.0264
 1031SOL    HW2 4170   0.866   3.379   1.932  1.0634  0.5390 -0.2217
 1031SOL    HW3 4171   0.846   3.473   1.815  0.0155  0.5732 -0.0181
 1031SOL    MW4 4172   0.855   3.459   1.901  0.2075  0.4961 -0.0511
 1032SOL     OW 4173   1.112   3.551   1.995  0.0088  0.5694  0.6185
 1032SOL    HW2 4174   1.115   3.531   2.088 -0.0335  0.9540  0.7052
 1032SOL    HW3 4175   1.022   3.533   1.969  0.4714 -1.2886  0.2467
 1032SOL    MW4 4176   1.101   3.546   2.003  0.0643  0.3750  0.5810
 1033SOL     OW 4177   1.120   3.833   1.889 -0.0657  0.2633 -0.2366
 1033SOL    HW2 4178   1.113   3.746   1.927 -0.1960  0.7472  0.8631
 1033SOL    HW3 4179   1.148   3.818   1.798 -1.3747 -0.9727 -0.4352
 1033SOL    MW4 4180   1.123   3.820   1.882 -0.2556  0.1640 -0.1175
 1034SOL     OW 4181   0.919   3.991   2.012  0.2078  0.3910 -0.4292
 1034SOL    HW2 4182   0.929   3.986   2.107  1.6343  0.8957 -0.5395
 1034SOL    HW3 4183   0.995   3.945   1.978  0.6567  1.7796 -1.3362
 1034SOL    MW4 4184   0.930   3.984   2.020  0.4553  0.6409 -0.5634
 1035SOL     OW 4185   0.914   4.258   1.905  0.2520  0.1982 -0.2760
 1035SOL    HW2 4186   0.996   4.283   1.949 -1.1001  2.4819  1.0390
 1035SOL    HW3 4187   0.896   4.170   1.937  2.0090 -0.2135 -0.3354
 1035SOL    MW4 4188   0.923   4.250   1.915  0.3054  0.4449 -0.1103
 1036SOL     OW 4189   1.118   4.410   2.002  0.1079  0.2330 -0.0411
 1036SOL    HW2 4190   1.116   4.386   2.094 -0.2386 -0.0049 -0.1102
 1036SOL    HW3 4191   1.199   4.372   1.969  0.0134 -0.0616  0.0626
 1036SOL    MW4 4192   1.128   4.402   2.010  0.0498  0.1626 -0.0365
 1037SOL     OW 4193   1.544   4.636   1.922 -0.0279  0.0406 -0.5095
 1037SOL    HW2 4194   1.627   4.675   1.950 -0.5293  1.1982 -0.5882
 1037SOL    HW3 4195   1.545   4.547   1.957 -0.0685  1.0112  2.0710
 1037SOL    MW4 4196   1.555   4.630   1.930 -0.0993  0.3219 -0.1794
 1038SOL     OW 4197   1.349   0.123   1.985 -0.0720 -0.0652  0.6294
 1038SOL    HW2 4198   1.335   0.115   2.080  1.5762  0.0211  0.8884
 1038SOL    HW3 4199   1.424   0.067   1.967  0.4186  0.9114 -0.4132
 1038SOL    MW4 4200   1.357   0.115   1.995  0.2102  0.0750  0.5261
 1039SOL     OW 4201   1.348   0.390   1.915 -0.4730 -0.2759  0.2577
 1039SOL    HW2 4202   1.356   0.300   1.947 -0.1633 -0.3280  0.0369
 1039SOL    HW3 4203   1.349   0.382   1.820 -0.8533 -0.0725  0.2356
 1039SOL    MW4 4204   1.349   0.377   1.907 -0.4823 -0.2559  0.2258
 1040SOL     OW 4205   1.596   0.500   2.009  0.2077  0.2037  0.2835
 1040SOL    HW2 4206   1.658   0.442   1.963 -0.1809 -1.0558  1.3130
 1040SOL    HW3 4207   1.510   0.467   1.985 -0.0305  0.6295  0.5438
 1040SOL    MW4 4208   1.593   0.488   2.000  0.1251  0.0937  0.4537
 1041SOL     OW 4209   1.567   0.746   1.894  0.3802 -0.1857 -0.5009
 1041SOL    HW2 4210   1.636   0.802   1.930 -0.1259  0.0455  0.1297
 1041SOL    HW3 4211   1.589   0.658   1.925  0.1350 -0.0388  0.0903
 1041SOL    MW4 4212   1.579   0.742   1.903  0.2810 -0.1358 -0.3397
 1042SOL     OW 4213   1.343   0.884   1.977  0.1316 -0.6603  0.1608
 1042SOL    HW2 4214   1.343   0.873   2.073 -0.6785 -0.9534  0.1245
 1042SOL    HW3 4215   1.419   0.833   1.948  1.2362  0.5743  0.7743
 1042SOL    MW4 4216   1.353   0.876   1.986  0.1704 -0.5361  0.2370
 1043SOL     OW 4217   1.311   1.147   1.861 -0.4445 -0.1720 -0.2339
 1043SOL    HW2 4218   1.319   1.059   1.899 -1.5493 -0.2542 -0.1515
 1043SOL    HW3 4219   1.251   1.193   1.920  2.3090  1.5631  1.2773
 1043SOL    MW4 4220   1.304   1.141   1.874 -0.2270  0.0461 -0.0236
 1044SOL     OW 4221   1.548   1.281   1.941  0.0691  0.1461 -0.3622
 1044SOL    HW2 4222   1.564   1.373   1.919 -0.9084 -0.1414 -2.3395
 1044SOL    HW3 4223   1.455   1.269   1.926 -0.1158 -0.8030  1.3651
 1044SOL    MW4 4224   1.538   1.292   1.936 -0.0842 -0.0172 -0.3952
 1045SOL     OW 4225   1.609   1.549   1.884 -0.0856  0.4550  0.0812
 1045SOL    HW2 4226   1.680   1.586   1.935 -1.0183  0.9772  1.0209
 1045SOL    HW3 4227   1.530   1.593   1.916 -0.6775  0.8498 -1.8508
 1045SOL    MW4 4228   1.608   1.559   1.895 -0.2867  0.5759 -0.0497
 1046SOL     OW 4229   1.377   1.664   1.979  0.3153  0.0864  0.0151
 1046SOL    HW2 4230   1.366   1.698   2.067  1.0441  1.0593 -0.2507
 1046SOL    HW3 4231   1.294   1.623   1.957 -0.2882  0.9579  0.6767
 1046SOL    MW4 4232   1.365   1.663   1.987  0.3319  0.3299  0.0672
 1047SOL     OW 4233   1.368   1.919   1.891  0.1566 -0.0137 -0.1671
 1047SOL    HW2 4234   1.373   1.824   1.900 -0.6678 -0.0813 -0.4429
 1047SOL    HW3 4235   1.295   1.945   1.946  0.3614  0.4643 -0.1152
 1047SOL    MW4 4236   1.359   1.910   1.899  0.0750  0.0405 -0.1966
 1048SOL     OW 4237   1.585   2.057   1.972  0.6492 -0.0621  0.2348
 1048SOL    HW2 4238   1.569   2.147   1.944  1.6314 -0.3976 -1.4531
 1048SOL    HW3 4239   1.512   2.007   1.934  0.0991  0.0058  1.1793
 1048SOL    MW4 4240   1.573   2.062   1.963  0.7062 -0.0973  0.1367
 1049SOL     OW 4241   1.545   2.305   1.870  0.0809 -0.2870 -0.1264
 1049SOL    HW2 4242   1.622   2.361   1.878  0.5087 -0.7285 -1.1272
 1049SOL    HW3 4243   1.521   2.310   1.777 -1.2254  0.0237  0.2047
 1049SOL    MW4 4244   1.552   2.313   1.858 -0.0349 -0.3045 -0.2147
 1050SOL     OW 4245   1.362   2.470   1.999 -0.1027 -0.4018  0.1626
 1050SOL    HW2 4246   1.373   2.559   1.967 -0.0234 -1.2048 -2.1426
 1050SOL    HW3 4247   1.427   2.419   1.951  0.2572 -1.6102  1.8956
 1050SOL    MW4 4248   1.372   2.475   1.989 -0.0449 -0.6671  0.0870
 1051SOL     OW 4249   1.387   2.734   1.872  0.1077 -0.3297  0.1793
 1051SOL    HW2 4250   1.306   2.779   1.899 -0.1327 -1.3667  1.2228
 1051SOL    HW3 4251   1.380   2.729   1.777 -1.2685 -0.7478  0.2773
 1051SOL    MW4 4252   1.375   2.739   1.863 -0.1056 -0.5217  0.3299
 1052SOL     OW 4253   1.610   2.846   1.994 -0.7073  0.2407 -0.2527
 1052SOL    HW2 4254   1.681   2.801   1.949 -0.4608  0.7403 -0.3669
 1052SOL    HW3 4255   1.530   2.815   1.952 -0.6389 -1.3585  0.7770
 1052SOL    MW4 4256   1.609   2.836   1.983 -0.6655  0.0956 -0.1320
 1053SOL     OW 4257   1.580   3.100   1.895  0.6401 -0.1441  0.2229
 1053SOL    HW2 4258   1.606   3.018   1.937  0.3843 -0.3583 -0.0326
 1053SOL    HW3 4259   1.584   3.081   1.801  0.0894 -0.0185  0.1746
 1053SOL    MW4 4260   1.584   3.087   1.888  0.5337 -0.1559  0.1829
 1054SOL     OW 4261   1.330   3.181   1.998 -0.3366  0.0806  0.1304
 1054SOL    HW2 4262   1.408   3.151   1.952 -0.2281  2.0941 -1.0580
 1054SOL    HW3 4263   1.257   3.138   1.954 -0.0318 -0.3433  0.0375
 1054SOL    MW4 4264   1.331   3.171   1.986 -0.2820  0.2906 -0.0389
 1055SOL     OW 4265   1.351   3.438   1.889  0.1016  0.1925 -0.0517
 1055SOL    HW2 4266   1.353   3.364   1.950 -0.3162  1.3122  1.3304
 1055SOL    HW3 4267   1.265   3.478   1.902  0.3156  0.9186 -0.8138
 1055SOL    MW4 4268   1.340   3.433   1.898  0.0747  0.4361  0.0300
 1056SOL     OW 4269   1.577   3.592   1.969 -0.0554 -0.0213 -0.0398
 1056SOL    HW2 4270   1.574   3.579   2.063 -0.8050 -1.3504 -0.2242
 1056SOL    HW3 4271   1.494   3.556   1.937  0.9404 -1.2316 -1.3732
 1056SOL    MW4 4272   1.565   3.586   1.977 -0.0229 -0.3562 -0.2400
 1057SOL     OW 4273   1.567   3.854   1.869  0.6447  0.3919 -0.0717
 1057SOL    HW2 4274   1.648   3.887   1.908  0.0821  0.7252  0.8243
 1057SOL    HW3 4275   1.557   3.766   1.905  1.4759 -0.3036 -1.4805
 1057SOL    MW4 4276   1.577   3.847   1.879  0.6801  0.3443 -0.1392
 1058SOL     OW 4277   1.340   3.981   1.959  0.2911 -0.1333 -0.1066
 1058SOL    HW2 4278   1.419   3.934   1.931 -0.6812 -1.0487 -1.3705
 1058SOL    HW3 4279   1.268   3.924   1.932 -0.9663  2.4442 -2.3645
 1058SOL    MW4 4280   1.341   3.967   1.952 -0.0030  0.0861 -0.5713
 1059SOL     OW 4281   1.347   4.259   1.905  0.4197  0.3356 -0.2713
 1059SOL    HW2 4282   1.343   4.167   1.933  0.6559  0.2751 -0.4306
 1059SOL    HW3 4283   1.355   4.254   1.810 -0.5903  0.5493 -0.3621
 1059SOL    MW4 4284   1.348   4.246   1.896  0.3175  0.3562 -0.3041
 1060SOL     OW 4285   1.578   4.379   2.003  0.0168  0.1354  0.0763
 1060SOL    HW2 4286   1.591   4.377   2.098  0.3694 -0.2112  0.0228
 1060SOL    HW3 4287   1.493   4.338   1.989  0.5363 -0.9743  0.1419
 1060SOL    MW4 4288   1.569   4.373   2.014  0.1317 -0.0567  0.0777
 1061SOL     OW 4289   2.076   4.633   1.881 -0.3396 -0.4089  0.1285
 1061SOL    HW2 4290   2.142   4.681   1.930 -0.2989 -1.1315  0.7849
 1061SOL    HW3 4291   2.068   4.550   1.927 -1.3380 -0.5222 -0.2482
 1061SOL    MW4 4292   2.084   4.629   1.893 -0.4661 -0.5188  0.1655
 1062SOL     OW 4293   1.825   0.079   1.970  0.2102  0.0269  0.0989
 1062SOL    HW2 4294   1.823   0.083   2.066 -0.8483 -0.7334  0.1209
 1062SOL    HW3 4295   1.907   0.033   1.950 -0.9080 -2.3868  0.7743
 1062SOL    MW4 4296   1.835   0.073   1.980 -0.0771 -0.3919  0.1909
 1063SOL     OW 4297   1.808   0.355   1.914 -0.2393 -0.0248 -0.2665
 1063SOL    HW2 4298   1.803   0.261   1.930 -1.7431 -0.0190 -0.5750
 1063SOL    HW3 4299   1.796   0.363   1.819 -1.6530  0.5505 -0.0596
 1063SOL    MW4 4300   1.806   0.344   1.903 -0.6242  0.0519 -0.2799
 1064SOL     OW 4301   2.022   0.521   2.016 -0.0658 -0.1374 -0.0789
 1064SOL    HW2 4302   2.012   0.607   1.976  0.6095 -0.9136 -1.9586
 1064SOL    HW3 4303   1.959   0.466   1.970  1.6053 -1.3393 -0.9650
 1064SOL    MW4 4304   2.012   0.525   2.005  0.2437 -0.3985 -0.4437
 1065SOL     OW 4305   2.008   0.763   1.877  0.1109 -0.1411  0.0482
 1065SOL    HW2 4306   2.083   0.821   1.885  1.2108 -1.6953  1.2737
 1065SOL    HW3 4307   1.991   0.758   1.782  0.6594  1.3132 -0.1358
 1065SOL    MW4 4308   2.016   0.770   1.865  0.3283 -0.1543  0.1855
 1066SOL     OW 4309   1.764   0.899   1.986  0.0348 -0.1547  0.3466
 1066SOL    HW2 4310   1.762   0.984   1.941 -0.0345 -0.5127 -0.3241
 1066SOL    HW3 4311   1.847   0.859   1.959  0.0039 -0.3632  0.5575
 1066SOL    MW4 4312   1.775   0.905   1.977  0.0216 -0.2294  0.2859
 1067SOL     OW 4313   1.811   1.175   1.876  0.0101  0.2334 -0.8499
 1067SOL    HW2 4314   1.725   1.208   1.901 -0.7246 -2.6425  0.6638
 1067SOL    HW3 4315   1.808   1.169   1.780 -1.7076 -0.4127 -0.7728
 1067SOL    MW4 4316   1.799   1.179   1.866 -0.3134 -0.2313 -0.6399
 1068SOL     OW 4317   2.036   1.316   1.961 -0.1836 -0.5819 -0.0792
 1068SOL    HW2 4318   2.110   1.268   1.923 -1.2973 -1.9505 -0.5803
 1068SOL    HW3 4319   1.959   1.273   1.924 -1.2357  0.4502  0.8921
 1068SOL    MW4 4320   2.036   1.304   1.951 -0.4692 -0.6263 -0.0173
 1069SOL     OW 4321   2.032   1.571   1.864 -0.2780  0.0833  0.2144
 1069SOL    HW2 4322   2.035   1.480   1.893  1.4610 -0.3984 -1.4211
 1069SOL    HW3 4323   2.019   1.566   1.770 -0.7571  1.5535  0.1921
 1069SOL    MW4 4324   2.031   1.559   1.856 -0.1118  0.2136 -0.0044
 1070SOL     OW 4325   1.813   1.676   2.019 -0.1782 -0.1267  0.2139
 1070SOL    HW2 4326   1.814   1.766   1.987 -0.5100  0.1049  0.8546
 1070SOL    HW3 4327   1.891   1.636   1.980 -1.5257 -0.3589 -2.3345
 1070SOL    MW4 4328   1.824   1.683   2.010 -0.3996 -0.1267 -0.0379
 1071SOL     OW 4329   1.833   1.920   1.891  0.0894 -0.0653 -0.2457
 1071SOL    HW2 4330   1.756   1.962   1.928  0.0809  0.8399 -1.2654
 1071SOL    HW3 4331   1.827   1.938   1.797  1.4666 -0.0991 -0.3467
 1071SOL    MW4 4332   1.822   1.928   1.884  0.2700  0.0498 -0.3936
 1072SOL     OW 4333   2.067   2.027   2.012 -0.1108 -0.3012  0.1025
 1072SOL    HW2 4334   2.139   2.005   1.953  0.1040  0.1268  0.2067
 1072SOL    HW3 4335   1.990   1.989   1.970 -0.0782  0.6750 -0.8571
 1072SOL    MW4 4336   2.066   2.019   1.999 -0.0782 -0.1159 -0.0103
 1073SOL     OW 4337   2.016   2.275   1.870  0.1741 -0.1394 -0.2257
 1073SOL    HW2 4338   2.101   2.317   1.879 -0.3630  0.5182  2.1959
 1073SOL    HW3 4339   2.024   2.193   1.918 -0.5062 -0.1491 -0.1251
 1073SOL    MW4 4340   2.028   2.270   1.878  0.0136 -0.0541  0.1070
 1074SOL     OW 4341   1.769   2.437   1.942 -0.2217 -0.1212  0.4670
 1074SOL    HW2 4342   1.786   2.443   2.036 -1.1135 -0.7364  0.6813
 1074SOL    HW3 4343   1.840   2.382   1.908  0.0691  0.0533  0.7905
 1074SOL    MW4 4344   1.780   2.430   1.950 -0.3010 -0.1791  0.5379
 1075SOL     OW 4345   1.808   2.691   1.891 -0.0571 -0.1704  0.1196
 1075SOL    HW2 4346   1.785   2.602   1.917 -1.2605  0.1696  0.2318
 1075SOL    HW3 4347   1.816   2.686   1.796  2.5801 -1.0020  0.3274
 1075SOL    MW4 4348   1.806   2.678   1.882  0.1321 -0.2353  0.1618
 1076SOL     OW 4349   2.049   2.787   1.995  0.1145  0.1330 -0.0819
 1076SOL    HW2 4350   2.045   2.781   2.091  0.2395 -1.1400 -0.1462
 1076SOL    HW3 4351   1.968   2.745   1.966  0.3870 -0.0518 -0.5614
 1076SOL    MW4 4352   2.037   2.781   2.004  0.1669 -0.0594 -0.1538
 1077SOL     OW 4353   2.042   3.071   1.882  0.0787  0.0878 -0.0026
 1077SOL    HW2 4354   1.962   3.113   1.914  0.9023 -0.5606  3.0427
 1077SOL    HW3 4355   2.043   2.986   1.925  2.8077  0.4073  0.6676
 1077SOL    MW4 4356   2.031   3.065   1.892  0.5474  0.0443  0.4877
 1078SOL     OW 4357   1.819   3.195   1.978 -0.1022  0.5078 -0.4625
 1078SOL    HW2 4358   1.792   3.220   2.067  1.1575 -0.7176  0.2917
 1078SOL    HW3 4359   1.740   3.158   1.939 -0.6496  0.9734  0.1789
 1078SOL    MW4 4360   1.805   3.193   1.985 -0.0082  0.4075 -0.2784
 1079SOL     OW 4361   1.799   3.452   1.860 -0.5071 -0.1400  0.6017
 1079SOL    HW2 4362   1.797   3.361   1.888 -0.4511 -0.1597  0.5433
 1079SOL    HW3 4363   1.722   3.492   1.900 -0.7815 -0.3219  0.2507
 1079SOL    MW4 4364   1.789   3.445   1.869 -0.5358 -0.1667  0.5478
 1080SOL     OW 4365   2.001   3.586   1.994  0.0061 -0.2018 -0.0713
 1080SOL    HW2 4366   2.008   3.674   1.957  1.0870 -0.9138 -1.6052
 1080SOL    HW3 4367   1.928   3.545   1.947 -0.2358 -0.2795  0.3608
 1080SOL    MW4 4368   1.992   3.592   1.983  0.1168 -0.3061 -0.2167
 1081SOL     OW 4369   2.029   3.850   1.908  0.3448 -0.3867 -0.1636
 1081SOL    HW2 4370   2.090   3.918   1.937  0.3503  0.1173 -1.3472
 1081SOL    HW3 4371   2.042   3.844   1.814 -0.4863 -1.2188 -0.2313
 1081SOL    MW4 4372   2.038   3.858   1.900  0.2360 -0.4301 -0.3288
 1082SOL     OW 4373   1.792   3.980   1.955 -0.0978 -0.0649 -0.2439
 1082SOL    HW2 4374   1.802   4.075   1.945  0.9750 -0.1368  0.0151
 1082SOL    HW3 4375   1.880   3.946   1.936 -0.5177 -1.0154 -0.4802
 1082SOL    MW4 4376   1.805   3.988   1.951 -0.0117 -0.2000 -0.2409
 1083SOL     OW 4377   1.809   4.252   1.901 -0.2159 -0.2904  0.0820
 1083SOL    HW2 4378   1.733   4.295   1.939  0.4923 -0.0715  1.2739
 1083SOL    HW3 4379   1.804   4.271   1.807 -1.0095  0.6616  0.3165
 1083SOL    MW4 4380   1.799   4.260   1.894 -0.2271 -0.1359  0.2702
 1084SOL     OW 4381   2.037   4.386   2.001 -0.0907  0.4075 -0.1656
 1084SOL    HW2 4382   2.109   4.334   1.964 -0.6875  0.9009 -2.0493
 1084SOL    HW3 4383   1.958   4.342   1.971 -0.5966  0.6835  0.7366
 1084SOL    MW4 4384   2.036   4.373   1.992 -0.2360  0.5093 -0.2950
 1085SOL     OW 4385   2.455   4.659   1.892 -0.3983 -0.2218  1.0039
 1085SOL    HW2 4386   2.533   4.693   1.936  0.8195 -0.3389 -1.0186
 1085SOL    HW3 4387   2.446   4.570   1.925  1.6223 -0.9657 -0.4235
 1085SOL    MW4 4388   2.464   4.652   1.902  0.0291 -0.3352  0.5487
 1086SOL     OW 4389   2.264   0.155   2.014  0.5444 -0.0512 -0.3090
 1086SOL    HW2 4390   2.270   0.134   2.107  1.2365  0.6740 -0.1884
 1086SOL    HW3 4391   2.345   0.120   1.976  0.5544  0.2199 -0.5341
 1086SOL    MW4 4392   2.276   0.147   2.021  0.6371  0.0803 -0.3223
 1087SOL     OW 4393   2.235   0.403   1.918 -0.0757 -0.5344 -0.0577
 1087SOL    HW2 4394   2.236   0.317   1.961 -1.5233  0.8950  2.9410
 1087SOL    HW3 4395   2.154   0.444   1.947  0.3747  1.6924 -1.8191
 1087SOL    MW4 4396   2.225   0.397   1.927 -0.2072 -0.0520  0.1055
 1088SOL     OW 4397   2.469   0.528   2.008  0.0885 -0.2034  0.0688
 1088SOL    HW2 4398   2.535   0.465   1.978  0.6842  0.3709  0.1524
 1088SOL    HW3 4399   2.386   0.491   1.980  0.5580 -0.2402 -1.3050
 1088SOL    MW4 4400   2.467   0.515   2.000  0.2291 -0.1325 -0.1013
 1089SOL     OW 4401   2.446   0.773   1.873  0.1469  0.1146  0.3695
 1089SOL    HW2 4402   2.453   0.689   1.919 -1.4291 -0.7100 -0.8492
 1089SOL    HW3 4403   2.458   0.751   1.781 -0.0167  1.2719  0.0613
 1089SOL    MW4 4404   2.449   0.759   1.867 -0.0825  0.1585  0.1681
 1090SOL     OW 4405   2.225   0.920   1.964 -0.2533 -0.0950 -0.5635
 1090SOL    HW2 4406   2.215   0.901   2.058 -0.9145 -1.0781 -0.8226
 1090SOL    HW3 4407   2.299   0.866   1.937  0.4267  0.7723 -0.4490
 1090SOL    MW4 4408   2.233   0.910   1.973 -0.2508 -0.1103 -0.5827
 1091SOL     OW 4409   2.250   1.176   1.861 -0.1806 -0.3642 -0.4635
 1091SOL    HW2 4410   2.322   1.223   1.902 -1.4383  0.3543  1.0054
 1091SOL    HW3 4411   2.241   1.096   1.912  0.8849 -1.4231 -1.9243
 1091SOL    MW4 4412   2.258   1.172   1.873 -0.2058 -0.4091 -0.4625
 1092SOL     OW 4413   2.466   1.290   2.004  0.0897 -0.3112  0.0687
 1092SOL    HW2 4414   2.457   1.300   2.099  0.5969 -0.7024  0.1593
 1092SOL    HW3 4415   2.485   1.378   1.973  1.1091 -0.3861  0.4697
 1092SOL    MW4 4416   2.467   1.303   2.013  0.2911 -0.3728  0.1335
 1093SOL     OW 4417   2.492   1.550   1.876 -0.1266 -0.1348 -0.3046
 1093SOL    HW2 4418   2.412   1.597   1.898 -0.7187 -1.0628 -0.4453
 1093SOL    HW3 4419   2.489   1.540   1.781  0.2082 -0.0968 -0.3214
 1093SOL    MW4 4420   2.481   1.555   1.866 -0.1607 -0.2522 -0.3252
 1094SOL     OW 4421   2.273   1.710   1.967  0.3099  0.2038  0.2042
 1094SOL    HW2 4422   2.281   1.688   2.060  2.1047 -1.6780 -0.3654
 1094SOL    HW3 4423   2.199   1.657   1.936  0.1363  0.3353  0.3870
 1094SOL    MW4 4424   2.264   1.700   1.975  0.5238 -0.0272  0.1532
 1095SOL     OW 4425   2.269   1.968   1.846  0.2906  0.1991 -0.0618
 1095SOL    HW2 4426   2.348   2.007   1.881 -0.0024  0.7134  0.0291
 1095SOL    HW3 4427   2.271   1.877   1.876 -0.0161  0.6656  1.3721
 1095SOL    MW4 4428   2.280   1.961   1.854  0.2115  0.3285  0.1394
 1096SOL     OW 4429   2.469   2.083   1.990 -0.5767 -0.1091  0.0114
 1096SOL    HW2 4430   2.532   2.021   1.954 -1.1068  0.0816 -1.2853
 1096SOL    HW3 4431   2.487   2.166   1.944 -0.5370  0.4298  0.9899
 1096SOL    MW4 4432   2.479   2.086   1.979 -0.6411 -0.0129 -0.0305
 1097SOL     OW 4433   2.494   2.324   1.838  0.3140  0.1514  0.6652
 1097SOL    HW2 4434   2.566   2.376   1.875  0.8436 -0.4855  0.5431
 1097SOL    HW3 4435   2.416   2.376   1.855  0.7906  0.7969  0.9109
 1097SOL    MW4 4436   2.493   2.338   1.845  0.4468  0.1523  0.6815
 1098SOL     OW 4437   2.249   2.442   1.934 -0.1796 -0.2033  0.0974
 1098SOL    HW2 4438   2.240   2.431   2.029 -0.4826  0.1459  0.1100
 1098SOL    HW3 4439   2.234   2.535   1.919  1.2883  0.0043 -0.1374
 1098SOL    MW4 4440   2.245   2.453   1.945 -0.0262 -0.1302  0.0682
 1099SOL     OW 4441   2.298   2.706   1.867  0.2626  0.1126  0.1826
 1099SOL    HW2 4442   2.217   2.726   1.913 -0.1713 -1.5360  0.1686
 1099SOL    HW3 4443   2.280   2.731   1.776 -0.2472 -0.2832  0.1706
 1099SOL    MW4 4444   2.285   2.712   1.861  0.1380 -0.1571  0.1792
 1100SOL     OW 4445   2.497   2.812   2.015 -0.3448 -0.3563  0.3538
 1100SOL    HW2 4446   2.503   2.899   1.977 -0.1621 -0.6061 -0.1957
 1100SOL    HW3 4447   2.428   2.769   1.965  0.4588 -0.9621 -0.2552
 1100SOL    MW4 4448   2.489   2.818   2.003 -0.2146 -0.4692  0.2010
 1101SOL     OW 4449   2.482   3.065   1.901 -0.4690  0.1391  0.3769
 1101SOL    HW2 4450   2.411   3.123   1.928 -1.6688 -0.9549 -0.3434
 1101SOL    HW3 4451   2.491   3.081   1.807  0.9415  1.0011  0.6399
 1101SOL    MW4 4452   2.474   3.075   1.892 -0.4411  0.1087  0.3165
 1102SOL     OW 4453   2.259   3.230   1.971  0.4135 -0.0503  0.0154
 1102SOL    HW2 4454   2.238   3.231   2.064  0.9339 -2.2452  0.1990
 1102SOL    HW3 4455   2.192   3.174   1.932 -0.0909  1.2515 -1.0247
 1102SOL    MW4 4456   2.247   3.222   1.978  0.4156 -0.1681 -0.0978
 1103SOL     OW 4457   2.224   3.481   1.852 -0.2391  0.0752 -0.2986
 1103SOL    HW2 4458   2.240   3.396   1.893 -1.6732 -0.8734 -1.6807
 1103SOL    HW3 4459   2.145   3.514   1.896  0.2061  0.6343  0.1015
 1103SOL    MW4 4460   2.215   3.474   1.864 -0.3695  0.0236 -0.4282
 1104SOL     OW 4461   2.465   3.632   1.946 -0.5069 -0.1256 -0.0989
 1104SOL    HW2 4462   2.447   3.628   2.040 -1.1417  0.1368 -0.2102
 1104SOL    HW3 4463   2.388   3.593   1.905 -1.0113  1.3788 -0.5881
 1104SOL    MW4 4464   2.453   3.626   1.953 -0.6571  0.1078 -0.1781
 1105SOL     OW 4465   2.489   3.896   1.884 -0.2054  0.3090  0.0919
 1105SOL    HW2 4466   2.402   3.928   1.909  0.4313  1.7821  0.4317
 1105SOL    HW3 4467   2.487   3.803   1.906 -0.2047  1.2027  4.2324
 1105SOL    MW4 4468   2.477   3.888   1.890 -0.1214  0.6211  0.6829
 1106SOL     OW 4469   2.249   4.009   1.998  0.3747 -0.0624  0.1856
 1106SOL    HW2 4470   2.274   4.000   2.090  0.6535  0.6631  0.1818
 1106SOL    HW3 4471   2.254   4.103   1.980 -1.1727 -0.0322 -0.1568
 1106SOL    MW4 4472   2.253   4.020   2.007  0.2077  0.0372  0.1397
 1107SOL     OW 4473   2.272   4.277   1.891  0.1363 -0.3276 -0.1057
 1107SOL    HW2 4474   2.359   4.307   1.916 -0.0310 -0.9287  1.2283
 1107SOL    HW3 4475   2.282   4.244   1.802  0.9247  1.0572 -0.5529
 1107SOL    MW4 4476   2.285   4.277   1.883  0.2182 -0.2246  0.0113
 1108SOL     OW 4477   2.501   4.387   2.004 -0.0776  0.2659  0.1309
 1108SOL    HW2 4478   2.507   4.395   2.099 -0.7405  2.1870  0.0345
 1108SOL    HW3 4479   2.589   4.360   1.977  0.1171 -0.2795  1.2831
 1108SOL    MW4 4480   2.513   4.384   2.013 -0.1397  0.4468  0.2701
 1109SOL     OW 4481   2.919   4.646   1.899 -0.2464 -0.3721 -0.3743
 1109SOL    HW2 4482   2.986   4.704   1.936 -1.2079 -0.2944  1.2644
 1109SOL    HW3 4483   2.950   4.558   1.920 -0.4309 -0.3468  0.0182
 1109SOL    MW4 4484   2.932   4.642   1.907 -0.3977 -0.3584 -0.1065
 1110SOL     OW 4485   2.684   0.099   1.998  0.5970 -0.5030 -0.0981
 1110SOL    HW2 4486   2.704   0.111   2.090  2.0206 -1.3094 -0.2886
 1110SOL    HW3 4487   2.751   0.038   1.966 -1.1203 -1.8860 -1.1783
 1110SOL    MW4 4488   2.695   0.093   2.006  0.5584 -0.7918 -0.2656
 1111SOL     OW 4489   2.678   0.362   1.885 -0.2609 -0.4985 -0.1125
 1111SOL    HW2 4490   2.758   0.412   1.901 -0.6907 -0.0558  0.6285
 1111SOL    HW3 4491   2.686   0.285   1.941 -0.3065 -0.5068 -0.1170
 1111SOL    MW4 4492   2.690   0.359   1.894 -0.3235 -0.4412 -0.0153
 1112SOL     OW 4493   2.909   0.476   1.961  0.5399  0.6467 -0.0774
 1112SOL    HW2 4494   2.998   0.441   1.951  0.9151  0.7016  2.8506
 1112SOL    HW3 4495   2.918   0.568   1.937  0.9682  0.3362 -1.1531
 1112SOL    MW4 4496   2.922   0.484   1.956  0.6461  0.6129  0.1670
 1113SOL     OW 4497   2.893   0.731   1.896  0.0962 -0.3092 -0.2616
 1113SOL    HW2 4498   2.958   0.777   1.949 -0.6878 -0.0009  0.4569
 1113SOL    HW3 4499   2.809   0.769   1.924 -0.4473 -1.2394 -0.6113
 1113SOL    MW4 4500   2.891   0.742   1.907 -0.0789 -0.3914 -0.2129
 1114SOL     OW 4501   2.662   0.907   1.985  0.0931  0.0022 -0.0977
 1114SOL    HW2 4502   2.667   0.992   1.940  0.5213  0.1383  0.2076
 1114SOL    HW3 4503   2.594   0.859   1.938 -0.4004  0.6524 -0.0458
 1114SOL    MW4 4504   2.654   0.912   1.973  0.0844  0.1060 -0.0505
 1115SOL     OW 4505   2.721   1.176   1.932 -0.0710 -0.2356  0.2376
 1115SOL    HW2 4506   2.657   1.226   1.982  0.8429 -0.2634  1.4707
 1115SOL    HW3 4507   2.695   1.188   1.840 -1.4459  0.2611  0.6809
 1115SOL    MW4 4508   2.709   1.184   1.926 -0.1316 -0.1738  0.4588
 1116SOL     OW 4509   2.955   1.318   2.009 -0.0562  0.1339 -0.4950
 1116SOL    HW2 4510   2.935   1.400   1.963 -0.7025  0.0651 -0.3292
 1116SOL    HW3 4511   2.879   1.262   1.994 -0.5508  0.3346  1.1904
 1116SOL    MW4 4512   2.942   1.322   2.001 -0.2069  0.1513 -0.2508
 1117SOL     OW 4513   2.903   1.548   1.872 -0.0637 -0.0521 -0.0245
 1117SOL    HW2 4514   2.982   1.591   1.905 -0.8318  1.2187  0.2239
 1117SOL    HW3 4515   2.918   1.539   1.778  0.0652  0.9174 -0.1073
 1117SOL    MW4 4516   2.916   1.553   1.864 -0.1483  0.2433 -0.0026
 1118SOL     OW 4517   2.702   1.658   2.021 -0.0761  0.2607  0.3394
 1118SOL    HW2 4518   2.779   1.620   1.980 -0.9462 -1.7904  0.5324
 1118SOL    HW3 4519   2.628   1.616   1.978 -1.0897  1.7032  0.6172
 1118SOL    MW4 4520   2.702   1.648   2.010 -0.3247  0.1802  0.4015
 1119SOL     OW 4521   2.652   1.898   1.889 -0.1992  0.1063 -0.0724
 1119SOL    HW2 4522   2.732   1.949   1.895 -1.3969  1.9398  1.0683
 1119SOL    HW3 4523   2.673   1.814   1.930  1.4242  0.1662 -0.7526
 1119SOL    MW4 4524   2.665   1.894   1.895 -0.1428  0.3561 -0.0118
 1120SOL     OW 4525   2.874   2.042   1.981  0.1432  0.8401 -0.2639
 1120SOL    HW2 4526   2.872   2.031   2.076 -0.4601 -0.7713 -0.4531
 1120SOL    HW3 4527   2.967   2.032   1.958 -0.0473 -1.4432 -0.1274
 1120SOL    MW4 4528   2.886   2.039   1.990  0.0386  0.3264 -0.2707
 1121SOL     OW 4529   2.916   2.313   1.890  0.0300  0.2638  0.0278
 1121SOL    HW2 4530   3.000   2.341   1.927  0.7803 -0.9422 -0.7508
 1121SOL    HW3 4531   2.902   2.226   1.926 -0.0382 -0.2434 -1.2143
 1121SOL    MW4 4532   2.925   2.305   1.899  0.1199  0.0379 -0.2389
 1122SOL     OW 4533   2.694   2.445   1.991  0.5121  0.3883 -0.0939
 1122SOL    HW2 4534   2.707   2.540   1.981  1.2606  0.0256 -3.0448
 1122SOL    HW3 4535   2.776   2.407   1.961  0.2325 -1.2137  1.1348
 1122SOL    MW4 4536   2.706   2.453   1.985  0.5741  0.1295 -0.3210
 1123SOL     OW 4537   2.718   2.705   1.889  0.1555  0.2354 -0.1550
 1123SOL    HW2 4538   2.637   2.748   1.918  0.3418  1.5097 -1.4513
 1123SOL    HW3 4539   2.717   2.715   1.793  1.2801 -0.7477 -0.2730
 1123SOL    MW4 4540   2.707   2.712   1.880  0.3283  0.2737 -0.3417
 1124SOL     OW 4541   2.921   2.832   2.007 -0.0167  0.0467 -0.2210
 1124SOL    HW2 4542   2.917   2.919   1.967 -0.2397  0.6867  1.1510
 1124SOL    HW3 4543   2.843   2.787   1.975 -0.5725  0.8023  0.0568
 1124SOL    MW4 4544   2.911   2.837   1.997 -0.1192  0.2308 -0.0030
 1125SOL     OW 4545   2.922   3.098   1.891 -0.3234  0.4918  0.0215
 1125SOL    HW2 4546   3.002   3.145   1.914  1.5987 -2.8827  0.5653
 1125SOL    HW3 4547   2.855   3.136   1.948  1.5067  1.3768  1.6437
 1125SOL    MW4 4548   2.924   3.110   1.902  0.1717  0.1636  0.3073
 1126SOL     OW 4549   2.689   3.215   2.019  0.4022 -0.1702  0.2121
 1126SOL    HW2 4550   2.680   3.304   1.985 -0.5386 -0.1396  0.5442
 1126SOL    HW3 4551   2.617   3.166   1.979  0.2275 -0.5101  0.9299
 1126SOL    MW4 4552   2.679   3.220   2.009  0.2549 -0.2110  0.3507
 1127SOL     OW 4553   2.698   3.472   1.914  0.3596 -0.0658 -0.0383
 1127SOL    HW2 4554   2.778   3.512   1.949  0.2683  0.6465 -0.6435
 1127SOL    HW3 4555   2.628   3.533   1.937 -0.0181 -0.6739  0.4684
 1127SOL    MW4 4556   2.699   3.485   1.922  0.2978 -0.0525 -0.0513
 1128SOL     OW 4557   2.945   3.600   1.981 -0.2487  0.1144 -0.4892
 1128SOL    HW2 4558   2.966   3.599   2.074 -0.7811  1.8101 -0.3402
 1128SOL    HW3 4559   3.008   3.539   1.941  1.5673  1.2045  0.6369
 1128SOL    MW4 4560   2.956   3.592   1.988 -0.0794  0.4821 -0.3210
 1129SOL     OW 4561   2.919   3.857   1.901 -0.0850 -0.3637 -0.8035
 1129SOL    HW2 4562   2.938   3.766   1.926 -0.3496 -0.4756 -1.0066
 1129SOL    HW3 4563   2.930   3.858   1.806  4.5139  0.8968 -0.3910
 1129SOL    MW4 4564   2.923   3.845   1.892  0.4869 -0.2122 -0.7759
 1130SOL     OW 4565   2.695   3.979   2.039 -0.0015  0.3568 -0.3169
 1130SOL    HW2 4566   2.763   3.925   1.998 -0.7235 -2.3270  1.8902
 1130SOL    HW3 4567   2.614   3.952   1.995 -0.5702 -1.4771  1.7791
 1130SOL    MW4 4568   2.693   3.968   2.028 -0.1717 -0.2394  0.2508
 1131SOL     OW 4569   2.742   4.250   1.896  0.0614 -0.4672 -0.3324
 1131SOL    HW2 4570   2.729   4.163   1.934  0.9766 -0.4474  0.0217
 1131SOL    HW3 4571   2.735   4.236   1.801 -0.7304 -0.7593 -0.2370
 1131SOL    MW4 4572   2.739   4.237   1.888  0.0775 -0.5031 -0.2731
 1132SOL     OW 4573   2.965   4.386   1.987  0.4081 -0.3477 -0.2780
 1132SOL    HW2 4574   2.953   4.390   2.082 -0.5625  2.5194 -0.4853
 1132SOL    HW3 4575   2.882   4.351   1.954  0.4945 -0.6907 -0.1382
 1132SOL    MW4 4576   2.953   4.382   1.996  0.2916 -0.0148 -0.2871
 1133SOL     OW 4577   3.370   4.622   1.939  0.1770 -0.0544 -0.0075
 1133SOL    HW2 4578   3.380   4.528   1.956  0.1618  0.0325  0.4946
 1133SOL    HW3 4579   3.373   4.629   1.844 -2.0933 -0.8290 -0.1822
 1133SOL    MW4 4580   3.372   4.610   1.929 -0.1249 -0.1454  0.0356
 1134SOL     OW 4581   3.133   0.127   1.993 -0.5704 -0.3977 -0.0467
 1134SOL    HW2 4582   3.132   0.144   2.087 -0.7039 -1.8754  0.2379
 1134SOL    HW3 4583   3.207   0.069   1.979  0.9888  1.8187 -1.2570
 1134SOL    MW4 4584   3.142   0.121   2.003 -0.3822 -0.3002 -0.1688
 1135SOL     OW 4585   3.164   0.382   1.901 -0.1385  0.6011 -0.1544
 1135SOL    HW2 4586   3.171   0.288   1.917 -0.0661  0.4417 -1.0847
 1135SOL    HW3 4587   3.149   0.389   1.807 -0.5475  1.5061 -0.0241
 1135SOL    MW4 4588   3.163   0.371   1.890 -0.1829  0.6995 -0.2599
 1136SOL     OW 4589   3.374   0.524   2.014  0.3403  0.2456 -0.8566
 1136SOL    HW2 4590   3.442   0.464   1.985  0.2822 -0.2022 -0.0766
 1136SOL    HW3 4591   3.293   0.490   1.974  0.4753  0.4536 -1.3179
 1136SOL    MW4 4592   3.372   0.512   2.005  0.3505  0.2140 -0.8144
 1137SOL     OW 4593   3.346   0.750   1.877  0.4849  0.2307  0.1699
 1137SOL    HW2 4594   3.266   0.793   1.906  0.4548  0.3947 -0.1538
 1137SOL    HW3 4595   3.348   0.667   1.925 -1.0826 -0.8593 -1.6013
 1137SOL    MW4 4596   3.336   0.745   1.887  0.2742  0.1085 -0.1065
 1138SOL     OW 4597   3.115   0.867   1.993  0.0631 -0.3336  0.2385
 1138SOL    HW2 4598   3.137   0.882   2.085 -0.0153  0.1942  0.1702
 1138SOL    HW3 4599   3.114   0.954   1.954  0.7308 -0.6073 -0.4082
 1138SOL    MW4 4600   3.118   0.880   2.000  0.1407 -0.3000  0.1439
 1139SOL     OW 4601   3.152   1.140   1.897  0.1413 -0.1548 -0.4185
 1139SOL    HW2 4602   3.235   1.186   1.904 -0.3930  1.0005 -1.5021
 1139SOL    HW3 4603   3.087   1.205   1.926 -0.4813 -0.6949 -0.6108
 1139SOL    MW4 4604   3.154   1.155   1.902 -0.0114 -0.0737 -0.5867
 1140SOL     OW 4605   3.349   1.315   1.986 -0.2540  0.2710 -0.2632
 1140SOL    HW2 4606   3.350   1.305   2.081 -1.3355 -0.1227 -0.2874
 1140SOL    HW3 4607   3.352   1.410   1.971  1.4560  0.2952  0.1271
 1140SOL    MW4 4608   3.349   1.326   1.996 -0.1712  0.2222 -0.2149
 1141SOL     OW 4609   3.358   1.582   1.892  0.1727  0.3737 -0.1907
 1141SOL    HW2 4610   3.439   1.616   1.930  0.0864  0.2296  0.1199
 1141SOL    HW3 4611   3.289   1.640   1.924  0.1978  0.7247 -0.7596
 1141SOL    MW4 4612   3.360   1.594   1.901  0.1647  0.4011 -0.2248
 1142SOL     OW 4613   3.104   1.704   1.985 -0.0419 -0.2271 -0.1453
 1142SOL    HW2 4614   3.120   1.714   2.079 -0.8512  1.2830 -0.1492
 1142SOL    HW3 4615   3.112   1.793   1.951 -1.2601 -0.5478 -1.2730
 1142SOL    MW4 4616   3.108   1.717   1.993 -0.3092 -0.0701 -0.2947
 1143SOL     OW 4617   3.121   1.949   1.879 -0.3189 -0.4125 -0.0622
 1143SOL    HW2 4618   3.194   2.004   1.906 -0.6782  0.0111  0.0626
 1143SOL    HW3 4619   3.128   1.944   1.784  0.8371 -1.7519  0.0708
 1143SOL    MW4 4620   3.131   1.955   1.870 -0.2139 -0.5332 -0.0283
 1144SOL     OW 4621   3.336   2.080   1.983 -0.0772  0.0042  0.2813
 1144SOL    HW2 4622   3.416   2.032   1.961 -0.5424 -0.2292 -0.9903
 1144SOL    HW3 4623   3.354   2.170   1.956  0.2358  0.2284  1.2315
 1144SOL    MW4 4624   3.349   2.086   1.976 -0.0970  0.0029  0.2388
 1145SOL     OW 4625   3.372   2.328   1.872 -0.1179  0.2633 -0.5812
 1145SOL    HW2 4626   3.300   2.383   1.902  0.0202  0.0416  0.1536
 1145SOL    HW3 4627   3.360   2.323   1.777 -0.3937  1.1823 -0.5958
 1145SOL    MW4 4628   3.360   2.334   1.863 -0.1364  0.3555 -0.4863
 1146SOL     OW 4629   3.151   2.422   2.025  0.0471  0.0701 -0.1167
 1146SOL    HW2 4630   3.149   2.422   2.121 -1.8507 -0.7043 -0.1340
 1146SOL    HW3 4631   3.145   2.515   2.001  0.2414  0.2481  0.5059
 1146SOL    MW4 4632   3.150   2.435   2.034 -0.1776 -0.0088 -0.0370
 1147SOL     OW 4633   3.141   2.677   1.920  0.1417 -0.7103  0.2286
 1147SOL    HW2 4634   3.064   2.723   1.951  1.0073  0.2547  0.9485
 1147SOL    HW3 4635   3.131   2.676   1.824 -0.8925 -0.8441  0.3316
 1147SOL    MW4 4636   3.129   2.683   1.911  0.1194 -0.6006  0.3370
 1148SOL     OW 4637   3.380   2.794   1.978  0.2187  0.7406 -0.1385
 1148SOL    HW2 4638   3.380   2.795   2.074 -1.2240  1.2435 -0.1397
 1148SOL    HW3 4639   3.305   2.740   1.955  0.5863  0.5903 -0.9955
 1148SOL    MW4 4640   3.370   2.787   1.988  0.0770  0.7873 -0.2517
 1149SOL     OW 4641   3.386   3.056   1.877  0.4214  0.1550 -0.0794
 1149SOL    HW2 4642   3.457   3.102   1.922 -0.6911 -0.1538  2.0094
 1149SOL    HW3 4643   3.391   2.966   1.909 -0.8183  0.0958 -0.0211
 1149SOL    MW4 4644   3.396   3.050   1.887  0.1109  0.1066  0.2038
 1150SOL     OW 4645   3.160   3.217   1.975  0.1999 -0.2523 -0.0789
 1150SOL    HW2 4646   3.184   3.301   1.936  1.1984 -0.2898  0.4176
 1150SOL    HW3 4647   3.243   3.168   1.979 -0.4463 -1.4193 -0.7469
 1150SOL    MW4 4648   3.174   3.221   1.971  0.2463 -0.4115 -0.1016
 1151SOL     OW 4649   3.165   3.467   1.849 -0.2479  0.2727 -0.2470
 1151SOL    HW2 4650   3.246   3.512   1.873 -0.0285 -0.6150  0.6960
 1151SOL    HW3 4651   3.160   3.475   1.754  1.7907 -1.1138 -0.4817
 1151SOL    MW4 4652   3.175   3.474   1.839  0.0498 -0.0274 -0.1537
 1152SOL     OW 4653   3.599   3.498   1.898  0.1173  0.0310  0.0010
 1152SOL    HW2 4654   3.616   3.503   1.803 -0.3259 -0.0722 -0.0809
 1152SOL    HW3 4655   3.680   3.530   1.937  0.3154  0.0486 -0.4143
 1152SOL    MW4 4656   3.612   3.503   1.891  0.0851  0.0196 -0.0645
 1153SOL     OW 4657   3.438   3.862   1.852 -0.4391 -0.0760 -0.2274
 1153SOL    HW2 4658   3.369   3.907   1.900 -0.9752 -0.1862 -0.8886
 1153SOL    HW3 4659   3.408   3.862   1.761  0.6320  0.2688 -0.5957
 1153SOL    MW4 4660   3.425   3.868   1.847 -0.3684 -0.0451 -0.3632
 1154SOL     OW 4661   3.192   3.940   1.979  0.1417  0.6466 -0.3037
 1154SOL    HW2 4662   3.185   3.945   2.074  0.5243 -0.5135 -0.1984
 1154SOL    HW3 4663   3.105   3.914   1.949  0.1582  0.5014 -0.2251
 1154SOL    MW4 4664   3.180   3.937   1.988  0.1945  0.4747 -0.2795
 1155SOL     OW 4665   3.158   4.205   1.904 -0.0838  0.2951  0.0861
 1155SOL    HW2 4666   3.153   4.116   1.938 -0.8554 -0.4191 -1.8242
 1155SOL    HW3 4667   3.096   4.255   1.957  0.2073 -0.3539  1.0346
 1155SOL    MW4 4668   3.149   4.200   1.915 -0.1471  0.1149 -0.0409
 1156SOL     OW 4669   3.376   4.357   2.017  0.3262 -0.2128  0.4165
 1156SOL    HW2 4670   3.457   4.309   1.996 -0.4028 -1.6831  0.8920
 1156SOL    HW3 4671   3.306   4.304   1.978 -0.5237  0.2714  1.2680
 1156SOL    MW4 4672   3.378   4.343   2.009  0.1175 -0.3433  0.5915
 1157SOL     OW 4673   3.837   4.642   1.935 -0.0498 -0.2136 -0.4157
 1157SOL    HW2 4674   3.831   4.550   1.959  0.5377 -0.0806  0.2466
 1157SOL    HW3 4675   3.763   4.684   1.979 -0.1185 -0.3065 -0.4429
 1157SOL    MW4 4676   3.827   4.635   1.944  0.0188 -0.2084 -0.3318
 1158SOL     OW 4677   3.595   0.099   2.018  0.0509 -0.1228 -0.3385
 1158SOL    HW2 4678   3.600   0.092   2.113 -0.1131 -0.4954 -0.3549
 1158SOL    HW3 4679   3.531   0.033   1.992 -1.8077  1.7022 -0.4911
 1158SOL    MW4 4680   3.588   0.089   2.027 -0.2160  0.0688 -0.3607
 1159SOL     OW 4681   3.598   0.365   1.933 -0.5243 -0.4369  0.5013
 1159SOL    HW2 4682   3.596   0.272   1.954  1.0770 -0.5903  0.0631
 1159SOL    HW3 4683   3.614   0.367   1.839 -1.7845  0.2802  0.2954
 1159SOL    MW4 4684   3.600   0.353   1.923 -0.4797 -0.3625  0.4163
 1160SOL     OW 4685   3.828   0.479   2.034 -0.3077  0.2061  0.1000
 1160SOL    HW2 4686   3.804   0.568   2.008 -0.8623  0.3279  0.9941
 1160SOL    HW3 4687   3.753   0.426   2.007 -1.3938  0.5013  2.3922
 1160SOL    MW4 4688   3.815   0.484   2.027 -0.5243  0.2611  0.5205
 1161SOL     OW 4689   3.776   0.723   1.953  0.0916  0.5014  0.4472
 1161SOL    HW2 4690   3.701   0.779   1.973 -0.5736  0.1163 -0.8794
 1161SOL    HW3 4691   3.772   0.712   1.858  0.2570 -1.7158  0.6730
 1161SOL    MW4 4692   3.765   0.729   1.943  0.0253  0.1580  0.3020
 1162SOL     OW 4693   3.561   0.899   2.011  0.0467 -0.5189  0.0167
 1162SOL    HW2 4694   3.555   0.985   1.969  1.3013 -0.6168 -0.4023
 1162SOL    HW3 4695   3.489   0.849   1.973  1.0332 -0.5413 -1.9162
 1162SOL    MW4 4696   3.551   0.904   2.000  0.3421 -0.5348 -0.2935
 1163SOL     OW 4697   3.585   1.166   1.901 -0.2950  0.0401  0.0702
 1163SOL    HW2 4698   3.518   1.231   1.922  0.0585  0.2861  0.4455
 1163SOL    HW3 4699   3.601   1.178   1.807 -2.1285 -1.2935 -0.4537
 1163SOL    MW4 4700   3.578   1.176   1.891 -0.4904 -0.1035  0.0507
 1164SOL     OW 4701   3.818   1.280   2.019 -0.1892 -0.4511 -0.1946
 1164SOL    HW2 4702   3.808   1.277   2.114  0.4007 -0.4631 -0.1303
 1164SOL    HW3 4703   3.745   1.229   1.985 -1.3137  0.8834  0.1966
 1164SOL    MW4 4704   3.807   1.273   2.027 -0.2596 -0.2767 -0.1347
 1165SOL     OW 4705   3.805   1.544   1.925  0.7271 -0.2912 -0.4787
 1165SOL    HW2 4706   3.880   1.591   1.961  1.6471 -0.5874 -1.9837
 1165SOL    HW3 4707   3.804   1.461   1.973  0.5866  0.2193  0.4240
 1165SOL    MW4 4708   3.815   1.539   1.936  0.8297 -0.2630 -0.5581
 1166SOL     OW 4709   3.578   1.699   2.013 -0.5287 -0.3331 -0.1787
 1166SOL    HW2 4710   3.588   1.784   1.970 -0.1025 -0.1313  0.3074
 1166SOL    HW3 4711   3.663   1.657   2.002 -0.4425 -0.3098  0.3912
 1166SOL    MW4 4712   3.591   1.705   2.006 -0.4611 -0.3033 -0.0393
 1167SOL     OW 4713   3.572   1.955   1.918 -0.5701 -0.1184 -0.4774
 1167SOL    HW2 4714   3.658   1.984   1.950 -0.1984 -1.1116 -0.5386
 1167SOL    HW3 4715   3.580   1.958   1.822  0.0944 -2.1103 -0.5173
 1167SOL    MW4 4716   3.585   1.959   1.909 -0.4332 -0.5122 -0.4908
 1168SOL     OW 4717   3.819   2.038   2.034  0.2832 -0.1659  0.6410
 1168SOL    HW2 4718   3.899   1.999   1.999 -0.0994 -0.0801 -0.3478
 1168SOL    HW3 4719   3.817   2.126   1.998  0.1235  0.0855  1.2643
 1168SOL    MW4 4720   3.829   2.044   2.024  0.2117 -0.1216  0.5927
 1169SOL     OW 4721   3.808   2.282   1.890  0.3084  0.2481 -0.1125
 1169SOL    HW2 4722   3.890   2.312   1.929  0.9454 -1.7742  0.2087
 1169SOL    HW3 4723   3.741   2.335   1.932  1.2920  0.5583  1.1163
 1169SOL    MW4 4724   3.810   2.293   1.901  0.5224  0.0224  0.0919
 1170SOL     OW 4725   3.596   2.414   2.000 -0.4469 -0.7195  0.1532
 1170SOL    HW2 4726   3.585   2.502   1.964 -0.5440 -0.6611  0.3191
 1170SOL    HW3 4727   3.534   2.360   1.951 -0.0576 -0.7868 -0.2600
 1170SOL    MW4 4728   3.586   2.418   1.989 -0.4086 -0.7207  0.1208
 1171SOL     OW 4729   3.609   2.685   1.883 -0.4178  0.2953  0.3845
 1171SOL    HW2 4730   3.690   2.725   1.913 -0.4581  1.7152 -1.2898
 1171SOL    HW3 4731   3.541   2.725   1.937 -0.2159  0.7874  0.2799
 1171SOL    MW4 4732   3.611   2.696   1.894 -0.3965  0.5474  0.1496
 1172SOL     OW 4733   3.830   2.815   2.000  0.4069 -0.0467 -0.2764
 1172SOL    HW2 4734   3.833   2.823   2.095 -0.5537 -0.9776 -0.1623
 1172SOL    HW3 4735   3.843   2.904   1.968  1.8337  0.1108  0.6944
 1172SOL    MW4 4736   3.832   2.828   2.008  0.4685 -0.1490 -0.1335
 1173SOL     OW 4737   3.806   3.082   1.925  0.1167 -0.6368  0.1130
 1173SOL    HW2 4738   3.720   3.112   1.955  0.3497  1.1945 -1.0055
 1173SOL    HW3 4739   3.805   3.097   1.831  1.3844 -1.3548 -0.0202
 1173SOL    MW4 4740   3.794   3.088   1.917  0.3150 -0.4900 -0.0521
 1174SOL     OW 4741   3.575   3.237   2.034 -0.1759  0.3349  0.4245
 1174SOL    HW2 4742   3.573   3.257   2.127 -1.4073  2.0804  0.0354
 1174SOL    HW3 4743   3.595   3.320   1.992 -3.1460  0.3143 -1.1014
 1174SOL    MW4 4744   3.578   3.250   2.040 -0.7305  0.5624  0.1719
 1175SOL     OW 4745   3.840   3.596   2.002 -0.0531  0.1453 -0.0782
 1175SOL    HW2 4746   3.899   3.530   1.964 -0.4070 -0.4899  0.4741
 1175SOL    HW3 4747   3.879   3.680   1.976  0.0686 -0.2728 -1.3094
 1175SOL    MW4 4748   3.853   3.598   1.993 -0.0832  0.0062 -0.1678
 1176SOL     OW 4749   3.363   3.613   1.956 -0.6309 -0.1631  0.0601
 1176SOL    HW2 4750   3.445   3.565   1.945 -0.2349  0.4862  0.1852
 1176SOL    HW3 4751   3.381   3.699   1.919 -0.7472  0.5205  1.5625
 1176SOL    MW4 4752   3.376   3.618   1.949 -0.5941  0.0126  0.2748
 1177SOL     OW 4753   3.870   3.853   1.904 -0.0416  0.1609 -0.4253
 1177SOL    HW2 4754   3.774   3.859   1.912 -0.1688 -1.5208 -0.6503
 1177SOL    HW3 4755   3.886   3.859   1.810  0.1662  1.5529 -0.3122
 1177SOL    MW4 4756   3.859   3.855   1.893 -0.0308  0.1228 -0.4401
 1178SOL     OW 4757   3.647   4.013   1.981 -0.1998 -0.2421  0.4439
 1178SOL    HW2 4758   3.620   3.994   2.071  1.5011 -0.1810  0.9911
 1178SOL    HW3 4759   3.577   3.979   1.927 -0.7747 -1.1776  1.7596
 1178SOL    MW4 4760   3.634   4.006   1.986 -0.0510 -0.3572  0.6896
 1179SOL     OW 4761   3.625   4.267   1.917  0.5798  0.5416  0.1935
 1179SOL    HW2 4762   3.693   4.328   1.947  0.8645  0.1583  0.3418
 1179SOL    HW3 4763   3.654   4.182   1.949 -0.7791  0.5930  1.6088
 1179SOL    MW4 4764   3.638   4.264   1.925  0.4377  0.4978  0.3997
 1180SOL     OW 4765   3.847   4.382   2.016  0.4516 -0.5048  0.3329
 1180SOL    HW2 4766   3.861   4.349   2.104  1.7563 -1.5003 -0.2280
 1180SOL    HW3 4767   3.924   4.354   1.967  0.2334  0.9376 -0.8661
 1180SOL    MW4 4768   3.859   4.374   2.021  0.5951 -0.4454  0.1009
 1181SOL     OW 4769   4.279   4.614   1.892 -0.1072  0.2081  0.6550
 1181SOL    HW2 4770   4.211   4.658   1.943 -2.2866  0.2274 -2.1909
 1181SOL    HW3 4771   4.357   4.669   1.904 -1.3923  1.9186  1.4314
 1181SOL    MW4 4772   4.281   4.627   1.901 -0.5641  0.4363  0.3818
 1182SOL     OW 4773   4.080   0.081   2.016  0.0412  0.1459  0.1798
 1182SOL    HW2 4774   4.087   0.088   2.111 -0.2362 -1.1418  0.2964
 1182SOL    HW3 4775   3.989   0.059   2.000  0.7511 -2.6234 -0.2020
 1182SOL    MW4 4776   4.069   0.079   2.026  0.0987 -0.3894  0.1447
 1183SOL     OW 4777   4.057   0.354   1.922  0.1282  0.1985  0.5245
 1183SOL    HW2 4778   4.062   0.269   1.965  1.5775  0.3865  0.7667
 1183SOL    HW3 4779   3.972   0.390   1.948 -0.4629 -1.1351  0.4715
 1183SOL    MW4 4780   4.047   0.348   1.931  0.2413  0.0474  0.5494
 1184SOL     OW 4781   4.282   0.491   1.992  0.0976 -0.7172  0.0785
 1184SOL    HW2 4782   4.280   0.501   2.087 -0.4125 -2.1872  0.2474
 1184SOL    HW3 4783   4.208   0.433   1.973 -0.4555  0.4330 -1.3300
 1184SOL    MW4 4784   4.272   0.485   2.002 -0.0424 -0.7594 -0.0854
 1185SOL     OW 4785   4.221   0.749   1.941  0.4376 -0.0925  0.0456
 1185SOL    HW2 4786   4.232   0.655   1.958 -1.3703 -0.5700 -1.2576
 1185SOL    HW3 4787   4.241   0.758   1.848 -1.2452  0.4768 -0.2728
 1185SOL    MW4 4788   4.225   0.737   1.931 -0.0229 -0.0804 -0.1683
 1186SOL     OW 4789   4.000   0.895   1.991  0.4092  0.0341  0.1872
 1186SOL    HW2 4790   4.072   0.836   1.967  1.1981  0.6265  1.0793
 1186SOL    HW3 4791   3.921   0.846   1.968  1.1020  0.2957 -3.0180
 1186SOL    MW4 4792   3.999   0.881   1.984  0.6049  0.1469 -0.1180
 1187SOL     OW 4793   4.033   1.157   1.902  0.3294 -0.0939 -0.1179
 1187SOL    HW2 4794   4.023   1.067   1.932  0.7225 -0.1316 -0.1024
 1187SOL    HW3 4795   3.958   1.203   1.941  1.2475  0.0221  1.5452
 1187SOL    MW4 4796   4.022   1.151   1.911  0.5021 -0.0834  0.1036
 1188SOL     OW 4797   4.242   1.291   2.016  0.1340  0.0176  0.2791
 1188SOL    HW2 4798   4.205   1.282   2.104  0.0374  1.0305  0.3459
 1188SOL    HW3 4799   4.179   1.246   1.959 -0.8656  1.1486  0.4755
 1188SOL    MW4 4800   4.229   1.284   2.020 -0.0110  0.3004  0.3138
 1189SOL     OW 4801   4.270   1.547   1.938  0.0512  0.0504 -0.2053
 1189SOL    HW2 4802   4.267   1.457   1.971  1.4227 -0.0621 -0.3609
 1189SOL    HW3 4803   4.262   1.538   1.843  0.0624  0.1085 -0.2115
 1189SOL    MW4 4804   4.269   1.534   1.930  0.2337  0.0433 -0.2265
 1190SOL     OW 4805   4.022   1.681   2.025 -0.0239  0.0785  0.6479
 1190SOL    HW2 4806   4.037   1.707   2.116  0.3023 -0.6993  0.8205
 1190SOL    HW3 4807   4.096   1.625   2.004 -1.5848 -2.1429  0.8611
 1190SOL    MW4 4808   4.034   1.677   2.034 -0.1869 -0.3172  0.6988
 1191SOL     OW 4809   4.043   1.943   1.890 -0.2006 -0.2943 -0.4657
 1191SOL    HW2 4810   4.037   1.859   1.935  1.6175 -0.6648 -0.8453
 1191SOL    HW3 4811   4.038   1.921   1.797 -1.0691  0.1692 -0.5347
 1191SOL    MW4 4812   4.042   1.929   1.884 -0.0753 -0.2820 -0.5248
 1192SOL     OW 4813   4.272   2.083   1.993 -0.2008  0.1079 -0.1960
 1192SOL    HW2 4814   4.255   2.079   2.087  0.2169 -0.6823 -0.1516
 1192SOL    HW3 4815   4.194   2.044   1.953 -0.5475  0.7940 -0.1992
 1192SOL    MW4 4816   4.260   2.077   2.000 -0.1912  0.0942 -0.1907
 1193SOL     OW 4817   4.273   2.338   1.910 -0.0426  0.3861  0.2547
 1193SOL    HW2 4818   4.282   2.246   1.936  0.6247  0.4430  0.2377
 1193SOL    HW3 4819   4.352   2.380   1.944 -0.3344  0.9495  0.2373
 1193SOL    MW4 4820   4.285   2.331   1.918  0.0072  0.4678  0.2501
 1194SOL     OW 4821   4.015   2.407   2.004 -0.5460  0.6095 -0.7282
 1194SOL    HW2 4822   4.024   2.435   2.096  0.7127 -2.4856  0.1617
 1194SOL    HW3 4823   4.105   2.392   1.976 -0.9602  1.1353 -2.3622
 1194SOL    MW4 4824   4.028   2.409   2.013 -0.4339  0.2704 -0.8264
 1195SOL     OW 4825   4.043   2.664   1.888 -0.0838 -0.5838 -0.1199
 1195SOL    HW2 4826   4.033   2.573   1.914 -0.8751 -0.6955 -0.7960
 1195SOL    HW3 4827   3.969   2.709   1.930 -0.5312 -0.5124 -0.9710
 1195SOL    MW4 4828   4.032   2.658   1.897 -0.2475 -0.5891 -0.3215
 1196SOL     OW 4829   4.271   2.826   1.986  0.4931 -0.3669 -0.3567
 1196SOL    HW2 4830   4.266   2.833   2.081 -0.2868 -0.5692 -0.3841
 1196SOL    HW3 4831   4.200   2.766   1.962  0.2935  0.1758 -1.1295
 1196SOL    MW4 4832   4.261   2.819   1.995  0.3638 -0.3216 -0.4623
 1197SOL     OW 4833   4.240   3.082   1.871  0.1399  0.2282  0.0916
 1197SOL    HW2 4834   4.171   3.131   1.917  1.9759  1.5661  1.5253
 1197SOL    HW3 4835   4.233   2.993   1.906 -0.6165  0.4432  0.5060
 1197SOL    MW4 4836   4.230   3.077   1.882  0.2823  0.4330  0.3355
 1198SOL     OW 4837   4.042   3.183   2.033 -0.0229  0.2425 -0.6985
 1198SOL    HW2 4838   4.036   3.183   2.128 -0.4529 -2.3251 -0.6984
 1198SOL    HW3 4839   3.960   3.143   2.003 -0.0189  1.2725 -2.1702
 1198SOL    MW4 4840   4.030   3.177   2.042 -0.0787  0.0396 -0.8929
 1199SOL     OW 4841   4.053   3.438   1.939 -0.2121 -0.0884 -0.2837
 1199SOL    HW2 4842   4.120   3.488   1.986 -0.9988  0.5392  0.1729
 1199SOL    HW3 4843   4.048   3.355   1.985  1.6090 -0.9075 -1.4654
 1199SOL    MW4 4844   4.061   3.434   1.951 -0.0753 -0.1137 -0.3793
 1200SOL     OW 4845   4.262   3.585   2.041  0.2332  0.3722 -0.2521
 1200SOL    HW2 4846   4.256   3.675   2.009  0.0932 -0.2521 -2.0662
 1200SOL    HW3 4847   4.259   3.593   2.136  1.2865  2.3508 -0.3604
 1200SOL    MW4 4848   4.261   3.598   2.049  0.3533  0.5505 -0.5057
 1201SOL     OW 4849   4.276   3.854   1.943 -0.1846  0.9983  0.1761
 1201SOL    HW2 4850   4.360   3.896   1.962  1.0463 -0.6289 -1.4912
 1201SOL    HW3 4851   4.267   3.861   1.848 -1.1408 -0.2784  0.1659
 1201SOL    MW4 4852   4.286   3.861   1.933 -0.1483  0.6149 -0.0452
 1202SOL     OW 4853   4.054   4.022   2.035 -0.1253 -0.3553 -0.0364
 1202SOL    HW2 4854   4.129   3.966   2.013 -0.3909 -0.3252 -1.0727
 1202SOL    HW3 4855   3.978   3.969   2.012 -0.3954  0.0239 -0.0186
 1202SOL    MW4 4856   4.054   4.008   2.029 -0.1965 -0.3014 -0.1707
 1203SOL     OW 4857   4.076   4.251   1.888 -0.2017  0.0585  0.3419
 1203SOL    HW2 4858   4.162   4.279   1.918 -0.3345  0.5117  0.3179
 1203SOL    HW3 4859   4.066   4.162   1.920 -0.2552  0.4558  1.4712
 1203SOL    MW4 4860   4.086   4.243   1.896 -0.2265  0.1702  0.4876
 1204SOL     OW 4861   4.311   4.354   1.985  0.0475 -0.5601 -0.0582
 1204SOL    HW2 4862   4.307   4.359   2.080  2.7858 -1.5946  0.1541
 1204SOL    HW3 4863   4.316   4.445   1.956  0.8685 -0.2856  0.9098
 1204SOL    MW4 4864   4.311   4.366   1.994  0.5169 -0.6604  0.0976
 1205SOL     OW 4865   0.241   4.636   2.365  0.3666  0.7142 -0.4547
 1205SOL    HW2 4866   0.241   4.650   2.459  0.4055  1.3529 -0.5474
 1205SOL    HW3 4867   0.321   4.680   2.334  1.0164 -0.5545 -0.6298
 1205SOL    MW4 4868   0.252   4.644   2.373  0.4575  0.6313 -0.4900
 1206SOL     OW 4869   0.016   0.114   2.277  0.2181 -0.1720  0.5902
 1206SOL    HW2 4870   0.100   0.075   2.301  1.2865  1.3056 -0.7061
 1206SOL    HW3 4871   0.010   0.105   2.182 -0.6797  0.5230  0.5632
 1206SOL    MW4 4872   0.026   0.108   2.268  0.2403  0.1146  0.4156
 1207SOL     OW 4873   0.011   0.376   2.372  0.1607 -0.3299  0.1745
 1207SOL    HW2 4874   0.098   0.411   2.352  1.0665 -1.1322  2.4488
 1207SOL    HW3 4875   0.015   0.285   2.342 -0.1736 -0.1322 -0.4642
 1207SOL    MW4 4876   0.023   0.368   2.365  0.2361 -0.4097  0.3903
 1208SOL     OW 4877   0.235   0.510   2.297 -0.0173 -0.0322 -0.4108
 1208SOL    HW2 4878   0.318   0.467   2.316 -0.8686 -1.4886  0.0935
 1208SOL    HW3 4879   0.233   0.518   2.202  0.1183 -1.1986 -0.5162
 1208SOL    MW4 4880   0.246   0.505   2.287 -0.1117 -0.3783 -0.3581
 1209SOL     OW 4881   0.231   0.774   2.396  0.1520 -0.5289 -0.3607
 1209SOL    HW2 4882   0.193   0.776   2.484 -1.1872  1.8600 -0.9238
 1209SOL    HW3 4883   0.242   0.682   2.376 -1.2911 -1.1544  1.5771
 1209SOL    MW4 4884   0.227   0.762   2.405 -0.2151 -0.2962 -0.1793
 1210SOL     OW 4885   4.490   0.907   2.285 -0.2348 -0.5178 -0.0103
 1210SOL    HW2 4886   4.576   0.868   2.299  1.1545  2.4102  0.0569
 1210SOL    HW3 4887   4.474   0.895   2.191  0.7596 -0.1215 -0.2430
 1210SOL    MW4 4888   4.499   0.900   2.274  0.0796 -0.0792 -0.0319
 1211SOL     OW 4889   4.481   1.172   2.385  0.2861  0.3882  0.1724
 1211SOL    HW2 4890   4.492   1.148   2.477  1.2120  0.1645  0.0080
 1211SOL    HW3 4891   4.479   1.089   2.338  0.8067  0.5265 -0.1062
 1211SOL    MW4 4892   4.482   1.158   2.391  0.4773  0.3769  0.1140
 1212SOL     OW 4893   0.239   1.268   2.275 -0.3128  0.2633  0.8248
 1212SOL    HW2 4894   0.150   1.241   2.297 -1.2405  2.1333 -0.4862
 1212SOL    HW3 4895   0.236   1.286   2.181  1.1489  1.4372  0.9772
 1212SOL    MW4 4896   0.227   1.267   2.265 -0.2423  0.6648  0.6721
 1213SOL     OW 4897   0.236   1.528   2.356 -0.1597  0.1216 -0.2883
 1213SOL    HW2 4898   0.214   1.529   2.450 -0.2981 -0.1680 -0.3160
 1213SOL    HW3 4899   0.248   1.435   2.336 -3.2779 -0.1305 -1.2796
 1213SOL    MW4 4900   0.235   1.516   2.366 -0.5894  0.0501 -0.4227
 1214SOL     OW 4901   4.479   1.680   2.283 -0.1148 -0.3174  0.4070
 1214SOL    HW2 4902   4.492   1.769   2.316 -1.2942 -0.5750  1.6701
 1214SOL    HW3 4903   4.558   1.633   2.309 -1.0065 -0.5052  2.9689
 1214SOL    MW4 4904   4.491   1.685   2.291 -0.3881 -0.3762  0.9117
 1215SOL     OW 4905   4.444   1.966   2.338 -0.5326 -0.4579 -0.0834
 1215SOL    HW2 4906   4.364   2.012   2.312 -0.3158  0.7638  1.3248
 1215SOL    HW3 4907   4.512   2.033   2.335  0.4287 -1.4592 -1.1325
 1215SOL    MW4 4908   4.442   1.981   2.334 -0.3772 -0.4288 -0.0360
 1216SOL     OW 4909   0.173   2.123   2.313 -0.2314  0.3263  0.1211
 1216SOL    HW2 4910   0.256   2.082   2.340 -1.2810 -2.0514 -0.1089
 1216SOL    HW3 4911   0.171   2.111   2.218  0.0460  2.1062 -0.1129
 1216SOL    MW4 4912   0.184   2.116   2.304 -0.3333  0.2475  0.0598
 1217SOL     OW 4913   0.242   2.383   2.346 -0.0670 -0.0559 -0.2609
 1217SOL    HW2 4914   0.239   2.399   2.440  1.1829  1.1660 -0.4155
 1217SOL    HW3 4915   0.205   2.295   2.335  0.0085 -0.3005  1.3888
 1217SOL    MW4 4916   0.237   2.374   2.357  0.1079  0.0730 -0.0637
 1218SOL     OW 4917   0.009   2.506   2.262 -0.1920 -0.0291  0.2437
 1218SOL    HW2 4918   0.011   2.593   2.301  0.7632  0.9517 -1.9281
 1218SOL    HW3 4919   0.093   2.467   2.286  0.2364  0.4287 -0.5086
 1218SOL    MW4 4920   0.020   2.512   2.270 -0.0095  0.1607 -0.1423
 1219SOL     OW 4921   0.021   2.741   2.405  0.1488  0.0475 -0.0272
 1219SOL    HW2 4922   0.018   2.737   2.501  2.3768  0.2721  0.0912
 1219SOL    HW3 4923   0.103   2.786   2.387 -0.2884  0.0456 -2.0566
 1219SOL    MW4 4924   0.032   2.747   2.416  0.3851  0.0770 -0.2792
 1220SOL     OW 4925   0.250   2.845   2.275  0.0420  0.2199  0.0221
 1220SOL    HW2 4926   0.335   2.813   2.305  0.0695  0.2387 -0.0357
 1220SOL    HW3 4927   0.251   2.831   2.180 -0.2797 -0.3887  0.1057
 1220SOL    MW4 4928   0.262   2.839   2.267  0.0032  0.1423  0.0255
 1221SOL     OW 4929   0.254   3.122   2.396  0.2083 -0.1687  0.1131
 1221SOL    HW2 4930   0.181   3.162   2.350 -0.1730 -0.2282  0.6635
 1221SOL    HW3 4931   0.256   3.031   2.363  1.9143  0.6265 -2.1454
 1221SOL    MW4 4932   0.245   3.115   2.385  0.3831 -0.0715 -0.1123
 1222SOL     OW 4933   0.001   3.189   2.291 -0.2372  0.1630 -0.5813
 1222SOL    HW2 4934   0.007   3.279   2.324  0.9463 -0.1108 -0.0017
 1222SOL    HW3 4935  -0.002   3.199   2.196 -0.3786  0.8282 -0.5114
 1222SOL    MW4 4936   0.002   3.202   2.283 -0.0997  0.2146 -0.4957
 1223SOL     OW 4937   0.009   3.436   2.395  0.6883  0.1992  0.0479
 1223SOL    HW2 4938   0.013   3.457   2.488 -0.9498 -1.7135  0.5968
 1223SOL    HW3 4939  -0.073   3.477   2.364  0.2153 -0.8171 -0.0762
 1223SOL    MW4 4940  -0.002   3.444   2.403  0.4096 -0.1872  0.1037
 1224SOL     OW 4941   0.237   3.562   2.258 -0.0291  0.0137 -0.0942
 1224SOL    HW2 4942   0.310   3.522   2.306 -0.4072  0.7139  1.0951
 1224SOL    HW3 4943   0.159   3.523   2.296 -0.2526 -1.4977 -2.0816
 1224SOL    MW4 4944   0.237   3.552   2.270 -0.1085 -0.0935 -0.1996
 1225SOL     OW 4945   0.225   3.803   2.388  0.2536 -0.3277  0.2204
 1225SOL    HW2 4946   0.151   3.850   2.350  1.0778  1.8983  1.3076
 1225SOL    HW3 4947   0.218   3.715   2.351 -3.3502 -0.3960  0.8489
 1225SOL    MW4 4948   0.214   3.797   2.378 -0.1131 -0.0429  0.4466
 1226SOL     OW 4949   0.024   3.972   2.264 -0.5752 -0.2548 -0.2016
 1226SOL    HW2 4950   0.013   4.062   2.296 -1.4159 -0.1572 -0.7659
 1226SOL    HW3 4951   0.045   3.982   2.171 -0.1175 -0.6187 -0.1363
 1226SOL    MW4 4952   0.025   3.986   2.256 -0.6257 -0.2899 -0.2675
 1227SOL     OW 4953   0.011   4.235   2.344  0.1562  0.0460 -0.1920
 1227SOL    HW2 4954   0.000   4.241   2.439 -2.2253 -1.3226 -0.3476
 1227SOL    HW3 4955   0.097   4.273   2.327  0.2328  1.0916  2.4190
 1227SOL    MW4 4956   0.021   4.241   2.354 -0.1479  0.0038  0.1321
 1228SOL     OW 4957   0.250   4.358   2.280 -0.1979 -0.3656 -0.1105
 1228SOL    HW2 4958   0.327   4.306   2.304  1.0696  0.7600 -1.6304
 1228SOL    HW3 4959   0.257   4.437   2.333 -1.3387 -1.0507  1.1114
 1228SOL    MW4 4960   0.261   4.361   2.290 -0.1812 -0.3071 -0.1500
 1229SOL     OW 4961   0.616   4.636   2.385 -0.4314 -0.1626  0.0149
 1229SOL    HW2 4962   0.629   4.638   2.480 -0.3218 -0.5086  0.0054
 1229SOL    HW3 4963   0.697   4.670   2.349 -0.5154  0.0755  0.0489
 1229SOL    MW4 4964   0.628   4.641   2.393 -0.4280 -0.1768  0.0181
 1230SOL     OW 4965   0.438   0.134   2.268  0.4894  0.1271 -0.4266
 1230SOL    HW2 4966   0.507   0.074   2.298  3.9527  3.2140 -1.9122
 1230SOL    HW3 4967   0.437   0.124   2.173 -1.9802 -0.7176 -0.3365
 1230SOL    MW4 4968   0.447   0.125   2.260  0.6205  0.4230 -0.6106
 1231SOL     OW 4969   0.464   0.386   2.361  0.0741  0.3327 -0.1209
 1231SOL    HW2 4970   0.466   0.380   2.457 -0.6698 -0.6143 -0.1567
 1231SOL    HW3 4971   0.474   0.296   2.331  1.2604  0.7319 -0.9659
 1231SOL    MW4 4972   0.465   0.374   2.370  0.1325  0.2604 -0.2372
 1232SOL     OW 4973   0.705   0.507   2.256  0.6765 -0.4414  0.1893
 1232SOL    HW2 4974   0.718   0.594   2.294  0.0853 -0.4522  0.4276
 1232SOL    HW3 4975   0.623   0.476   2.295  1.2989 -1.4434  0.7213
 1232SOL    MW4 4976   0.696   0.515   2.266  0.6806 -0.5751  0.2909
 1233SOL     OW 4977   0.734   0.755   2.367  0.4932  0.4538  0.1749
 1233SOL    HW2 4978   0.738   0.771   2.461  0.7259  1.9542 -0.0845
 1233SOL    HW3 4979   0.659   0.807   2.337 -0.0334 -0.5985 -0.3625
 1233SOL    MW4 4980   0.725   0.764   2.375  0.4545  0.5130  0.0701
 1234SOL     OW 4981   0.485   0.878   2.292 -0.1062  0.2445 -0.2578
 1234SOL    HW2 4982   0.398   0.858   2.327 -0.5641  1.7651 -0.4772
 1234SOL    HW3 4983   0.479   0.858   2.199 -0.6985  1.7504 -0.5623
 1234SOL    MW4 4984   0.473   0.873   2.284 -0.2448  0.6438 -0.3271
 1235SOL     OW 4985   0.473   1.142   2.375  0.6816  0.0705 -0.0758
 1235SOL    HW2 4986   0.466   1.046   2.373 -0.4650  0.1595 -1.6054
 1235SOL    HW3 4987   0.385   1.172   2.352  1.0913  1.4950  0.2003
 1235SOL    MW4 4988   0.460   1.133   2.372  0.5844  0.2702 -0.2410
 1236SOL     OW 4989   0.667   1.260   2.225 -0.3514 -0.1290  0.3719
 1236SOL    HW2 4990   0.643   1.350   2.248 -1.4161  0.0994 -1.5635
 1236SOL    HW3 4991   0.595   1.206   2.259 -0.0997 -0.1820  0.8308
 1236SOL    MW4 4992   0.654   1.265   2.233 -0.4587 -0.1059  0.1774
 1237SOL     OW 4993   0.664   1.540   2.308  0.0689 -0.0406 -0.0201
 1237SOL    HW2 4994   0.651   1.533   2.402 -0.4037 -0.9743 -0.1538
 1237SOL    HW3 4995   0.754   1.570   2.298  0.3091 -0.5187  0.7122
 1237SOL    MW4 4996   0.674   1.543   2.319  0.0383 -0.2267  0.0587
 1238SOL     OW 4997   0.444   1.686   2.238 -0.0191  0.1233  0.0350
 1238SOL    HW2 4998   0.524   1.647   2.273 -0.4615  0.6291  1.6519
 1238SOL    HW3 4999   0.373   1.638   2.281 -0.5695  1.3730  0.5378
 1238SOL    MW4 5000   0.445   1.675   2.248 -0.1501  0.3550  0.3147
 1239SOL     OW 5001   0.400   1.945   2.364 -0.1611  0.4948 -0.1849
 1239SOL    HW2 5002   0.483   1.976   2.327 -0.7162  1.3300 -0.7433
 1239SOL    HW3 5003   0.386   1.859   2.322 -1.0784  1.6783 -2.4052
 1239SOL    MW4 5004   0.409   1.938   2.353 -0.3553  0.7613 -0.5515
 1240SOL     OW 5005   0.639   2.044   2.256  0.0816  0.2837 -0.4435
 1240SOL    HW2 5006   0.719   2.006   2.292  0.6599  0.2544 -1.7555
 1240SOL    HW3 5007   0.645   2.138   2.278  0.6729  0.3541 -0.9164
 1240SOL    MW4 5008   0.650   2.052   2.264  0.2359  0.2892 -0.6790
 1241SOL     OW 5009   0.669   2.293   2.340 -0.6264  0.4629  0.4168
 1241SOL    HW2 5010   0.658   2.311   2.434  0.3310  0.1494  0.5935
 1241SOL    HW3 5011   0.751   2.337   2.317 -0.7059  0.2848 -0.2129
 1241SOL    MW4 5012   0.679   2.301   2.349 -0.5106  0.3982  0.3569
 1242SOL     OW 5013   0.476   2.479   2.231 -0.1478  0.3349  0.6379
 1242SOL    HW2 5014   0.547   2.419   2.252  0.0862  0.8055  1.2088
 1242SOL    HW3 5015   0.398   2.438   2.268  0.0675  0.5589  1.3404
 1242SOL    MW4 5016   0.475   2.466   2.239 -0.0885  0.4265  0.8059
 1243SOL     OW 5017   0.498   2.721   2.360 -0.4590 -0.2867  0.2999
 1243SOL    HW2 5018   0.490   2.708   2.455 -1.9956  0.5453  0.2887
 1243SOL    HW3 5019   0.500   2.632   2.324 -1.2622 -0.5907  0.9969
 1243SOL    MW4 5020   0.497   2.708   2.368 -0.7677 -0.2170  0.3905
 1244SOL     OW 5021   0.696   2.869   2.229  0.3246  0.1456 -0.3716
 1244SOL    HW2 5022   0.779   2.835   2.260  0.2572  0.7983  0.5497
 1244SOL    HW3 5023   0.630   2.822   2.280  0.1905  0.7771  0.0400
 1244SOL    MW4 5024   0.698   2.858   2.240  0.2980  0.3152 -0.1957
 1245SOL     OW 5025   0.678   3.082   2.395  0.3336 -0.1565  0.2224
 1245SOL    HW2 5026   0.609   3.135   2.354  1.0504  1.3984  1.0008
 1245SOL    HW3 5027   0.695   3.012   2.331 -0.0229  1.0301 -1.2093
 1245SOL    MW4 5028   0.671   3.080   2.381  0.3812  0.2048  0.1359
 1246SOL     OW 5029   0.485   3.217   2.265  0.3336 -0.0664 -0.0423
 1246SOL    HW2 5030   0.405   3.172   2.291 -1.0181  2.1062 -0.2781
 1246SOL    HW3 5031   0.476   3.228   2.170  1.3688 -0.6849 -0.2115
 1246SOL    MW4 5032   0.473   3.212   2.256  0.2918  0.1385 -0.0956
 1247SOL     OW 5033   0.443   3.463   2.394  0.0785 -0.4906 -0.1543
 1247SOL    HW2 5034   0.528   3.500   2.372 -0.0339  0.4617  0.9355
 1247SOL    HW3 5035   0.448   3.371   2.367  0.6002  0.1446 -2.2555
 1247SOL    MW4 5036   0.455   3.455   2.388  0.1325 -0.2813 -0.2878
 1248SOL     OW 5037   0.673   3.585   2.287 -0.1905 -0.1270 -0.0782
 1248SOL    HW2 5038   0.688   3.673   2.322  2.0838 -1.0879  1.5280
 1248SOL    HW3 5039   0.661   3.597   2.193  2.4401  1.6979 -0.2252
 1248SOL    MW4 5040   0.673   3.598   2.280  0.4566 -0.0131  0.1142
 1249SOL     OW 5041   0.680   3.844   2.396 -0.3448 -0.1630  0.8167
 1249SOL    HW2 5042   0.693   3.830   2.490  0.3090 -0.7539  0.6339
 1249SOL    HW3 5043   0.595   3.888   2.391 -0.6112 -0.5724  1.6469
 1249SOL    MW4 5044   0.670   3.848   2.408 -0.2937 -0.2949  0.9022
 1250SOL     OW 5045   0.443   3.967   2.322  0.6076 -0.2798 -0.2239
 1250SOL    HW2 5046   0.374   3.902   2.334  1.1351 -0.9255 -0.6463
 1250SOL    HW3 5047   0.451   3.976   2.227 -0.4603  1.4788 -0.1660
 1250SOL    MW4 5048   0.435   3.960   2.311  0.5363 -0.1330 -0.2720
 1251SOL     OW 5049   0.477   4.235   2.373 -0.3748 -0.7225  0.2990
 1251SOL    HW2 5050   0.539   4.274   2.311 -0.1593 -0.5320  0.6329
 1251SOL    HW3 5051   0.458   4.148   2.337 -2.2784  0.3759 -1.4311
 1251SOL    MW4 5052   0.483   4.229   2.360 -0.5975 -0.5522  0.1147
 1252SOL     OW 5053   0.679   4.385   2.243 -0.0183 -0.8497  0.0543
 1252SOL    HW2 5054   0.657   4.472   2.278 -1.1792 -1.2834  0.4245
 1252SOL    HW3 5055   0.709   4.402   2.154  1.2158  0.0850  0.6228
 1252SOL    MW4 5056   0.680   4.399   2.236 -0.0086 -0.7839  0.1779
 1253SOL     OW 5057   1.081   4.632   2.364 -0.0666 -0.3921 -0.2025
 1253SOL    HW2 5058   1.105   4.621   2.456 -1.1456 -0.3910  0.0820
 1253SOL    HW3 5059   0.998   4.680   2.366  0.7582  1.1170 -1.2209
 1253SOL    MW4 5060   1.073   4.637   2.376 -0.1000 -0.1926 -0.2995
 1254SOL     OW 5061   0.838   0.088   2.300 -0.8845 -0.2562 -0.3430
 1254SOL    HW2 5062   0.857   0.177   2.330 -0.6247 -0.1347 -0.8728
 1254SOL    HW3 5063   0.830   0.095   2.205 -1.2283 -0.7338 -0.3533
 1254SOL    MW4 5064   0.839   0.101   2.292 -0.8956 -0.3031 -0.4141
 1255SOL     OW 5065   0.888   0.353   2.393  0.1404 -0.0917 -0.1904
 1255SOL    HW2 5066   0.965   0.378   2.342  0.8043  0.5174  1.0773
 1255SOL    HW3 5067   0.815   0.398   2.350  0.9279  1.7632  0.3741
 1255SOL    MW4 5068   0.888   0.362   2.381  0.3319  0.2334  0.0513
 1256SOL     OW 5069   1.125   0.488   2.278  0.0270  0.1424  0.2336
 1256SOL    HW2 5070   1.204   0.437   2.294  0.8536  1.5651  0.7125
 1256SOL    HW3 5071   1.120   0.495   2.183  0.2222 -0.3355  0.1865
 1256SOL    MW4 5072   1.135   0.482   2.268  0.1616  0.2671  0.2906
 1257SOL     OW 5073   1.137   0.737   2.403  0.4880 -0.2516 -0.0094
 1257SOL    HW2 5074   1.073   0.790   2.356  1.0353  0.9618  0.5631
 1257SOL    HW3 5075   1.131   0.650   2.364  0.1117  0.4350 -1.4968
 1257SOL    MW4 5076   1.128   0.733   2.392  0.5107 -0.0008 -0.1299
 1258SOL     OW 5077   0.945   0.881   2.270 -0.4538 -0.3886  0.0690
 1258SOL    HW2 5078   0.934   0.973   2.294 -0.1461 -0.0124 -1.1584
 1258SOL    HW3 5079   0.865   0.838   2.299 -1.0322  0.4629 -0.2436
 1258SOL    MW4 5080   0.933   0.888   2.277 -0.4895 -0.2267 -0.1342
 1259SOL     OW 5081   0.884   1.134   2.357  0.0662  0.1460 -0.2359
 1259SOL    HW2 5082   0.962   1.178   2.325  0.2661  1.1651  1.6103
 1259SOL    HW3 5083   0.812   1.175   2.308  0.5522  0.1020 -1.0052
 1259SOL    MW4 5084   0.885   1.145   2.346  0.1566  0.2745 -0.0939
 1260SOL     OW 5085   1.129   1.264   2.285 -0.1593 -0.3617 -0.1920
 1260SOL    HW2 5086   1.218   1.231   2.296 -0.0559 -0.3259 -0.8836
 1260SOL    HW3 5087   1.113   1.258   2.191 -1.6777 -2.3794  0.1562
 1260SOL    MW4 5088   1.138   1.259   2.274 -0.3459 -0.6233 -0.2372
 1261SOL     OW 5089   1.129   1.522   2.374  0.2095  0.9772  0.0312
 1261SOL    HW2 5090   1.041   1.548   2.344 -0.6926 -1.2908  0.6019
 1261SOL    HW3 5091   1.136   1.430   2.348  1.6640  0.6082  1.7182
 1261SOL    MW4 5092   1.118   1.513   2.367  0.2823  0.6294  0.3290
 1262SOL     OW 5093   0.903   1.670   2.292  0.2990 -0.1797 -0.3685
 1262SOL    HW2 5094   0.886   1.761   2.317 -0.0521 -0.5411  0.7511
 1262SOL    HW3 5095   0.911   1.672   2.197  2.0089  1.2845 -0.2013
 1262SOL    MW4 5096   0.902   1.682   2.283  0.4783 -0.0342 -0.1988
 1263SOL     OW 5097   0.855   1.927   2.382  0.1885 -0.3645  0.0303
 1263SOL    HW2 5098   0.852   1.928   2.477  1.3929  0.1286  0.0736
 1263SOL    HW3 5099   0.934   1.975   2.360 -0.8714  0.8569 -1.2555
 1263SOL    MW4 5100   0.865   1.934   2.392  0.2075 -0.1383 -0.1338
 1264SOL     OW 5101   1.092   2.067   2.300  0.1841  0.2104 -0.1403
 1264SOL    HW2 5102   1.168   2.030   2.346  0.6879 -1.3325 -2.1083
 1264SOL    HW3 5103   1.116   2.062   2.207 -1.6477  1.2770 -0.6919
 1264SOL    MW4 5104   1.105   2.061   2.294  0.0089  0.1476 -0.4728
 1265SOL     OW 5105   1.124   2.328   2.373 -0.1187 -0.0013  0.2821
 1265SOL    HW2 5106   1.209   2.362   2.346 -0.2892  0.0074 -0.2460
 1265SOL    HW3 5107   1.109   2.253   2.315 -0.8417  0.4933 -0.1739
 1265SOL    MW4 5108   1.133   2.322   2.362 -0.2366  0.0651  0.1523
 1266SOL     OW 5109   0.886   2.444   2.276 -0.4400 -0.0755 -0.6210
 1266SOL    HW2 5110   0.971   2.405   2.293  0.7071  2.5248 -0.2034
 1266SOL    HW3 5111   0.876   2.439   2.181  0.3316 -0.1235 -0.7027
 1266SOL    MW4 5112   0.896   2.438   2.265 -0.1869  0.2611 -0.5767
 1267SOL     OW 5113   0.895   2.721   2.355  0.0503 -0.3209  0.6154
 1267SOL    HW2 5114   0.889   2.715   2.451  2.1229 -1.7097  0.7112
 1267SOL    HW3 5115   0.890   2.630   2.325  2.2193 -0.1530 -0.3561
 1267SOL    MW4 5116   0.894   2.708   2.364  0.6099 -0.4821  0.5000
 1268SOL     OW 5117   1.107   2.854   2.252 -0.2613  0.3472  0.4149
 1268SOL    HW2 5118   1.184   2.818   2.295 -0.2638  0.6631  0.6886
 1268SOL    HW3 5119   1.033   2.806   2.290 -0.1503 -0.4440 -0.3577
 1268SOL    MW4 5120   1.107   2.843   2.263 -0.2471  0.2842  0.3495
 1269SOL     OW 5121   1.086   3.095   2.375  0.3435  0.5593 -0.7571
 1269SOL    HW2 5122   1.015   3.136   2.326 -0.4988 -0.1966 -0.1779
 1269SOL    HW3 5123   1.095   3.008   2.337 -0.0117  0.1327  0.1034
 1269SOL    MW4 5124   1.078   3.089   2.364  0.1855  0.4036 -0.5674
 1270SOL     OW 5125   0.837   3.225   2.204 -0.2168  0.2328  0.1283
 1270SOL    HW2 5126   0.862   3.302   2.255  1.3597 -1.4543  2.0524
 1270SOL    HW3 5127   0.784   3.173   2.264  1.7032 -1.8127  0.1420
 1270SOL    MW4 5128   0.834   3.228   2.218  0.2446 -0.2594  0.3841
 1271SOL     OW 5129   0.899   3.436   2.362  0.5192  0.0098  0.1260
 1271SOL    HW2 5130   0.909   3.440   2.457 -0.4450  0.4546  0.2152
 1271SOL    HW3 5131   0.811   3.470   2.345  0.4410 -0.6596 -0.8791
 1271SOL    MW4 5132   0.889   3.441   2.372  0.3816 -0.0198  0.0052
 1272SOL     OW 5133   1.131   3.573   2.291 -0.2248 -0.0868 -0.0458
 1272SOL    HW2 5134   1.211   3.531   2.323 -0.5414  0.8398  2.1159
 1272SOL    HW3 5135   1.062   3.509   2.308 -0.1559 -0.2951 -0.5367
 1272SOL    MW4 5136   1.133   3.559   2.298 -0.2575  0.0081  0.1745
 1273SOL     OW 5137   1.142   3.828   2.371  0.3976 -0.2702  0.1086
 1273SOL    HW2 5138   1.216   3.872   2.329 -1.1160  0.8269 -1.4535
 1273SOL    HW3 5139   1.139   3.741   2.331 -0.1815  0.2802 -1.0601
 1273SOL    MW4 5140   1.152   3.822   2.361  0.1215 -0.0527 -0.2518
 1274SOL     OW 5141   0.913   3.995   2.299 -0.3285 -0.5107  0.0020
 1274SOL    HW2 5142   0.987   3.940   2.325 -0.4751 -0.6620  0.0949
 1274SOL    HW3 5143   0.836   3.950   2.332 -0.4426 -0.2021  0.1580
 1274SOL    MW4 5144   0.913   3.982   2.307 -0.3629 -0.4897  0.0346
 1275SOL     OW 5145   0.894   4.252   2.404  0.0306 -0.9636  0.0035
 1275SOL    HW2 5146   0.903   4.166   2.365 -1.4537 -1.9385  1.7453
 1275SOL    HW3 5147   0.823   4.294   2.356  1.2052 -0.4189 -1.2977
 1275SOL    MW4 5148   0.886   4.246   2.393 -0.0103 -1.0209  0.0615
 1276SOL     OW 5149   1.105   4.379   2.273  0.6393  0.0416  0.6184
 1276SOL    HW2 5150   1.037   4.331   2.320 -0.5504  1.3058  0.1869
 1276SOL    HW3 5151   1.094   4.470   2.299  0.0311  0.7527 -1.9971
 1276SOL    MW4 5152   1.095   4.384   2.283  0.4022  0.3018  0.2167
 1277SOL     OW 5153   1.568   4.655   2.383  0.0136 -0.0564 -0.0641
 1277SOL    HW2 5154   1.628   4.698   2.321 -0.3208  0.8424  0.2228
 1277SOL    HW3 5155   1.481   4.686   2.357 -0.1988 -0.3026  0.3599
 1277SOL    MW4 5156   1.565   4.665   2.371 -0.0585  0.0300  0.0296
 1278SOL     OW 5157   1.326   0.082   2.251 -0.0926 -0.6131 -0.3688
 1278SOL    HW2 5158   1.333   0.175   2.270  1.4874 -1.0626  1.4694
 1278SOL    HW3 5159   1.249   0.053   2.301 -0.2579 -0.3979 -0.4982
 1278SOL    MW4 5160   1.317   0.090   2.260  0.0939 -0.6440 -0.1433
 1279SOL     OW 5161   1.351   0.330   2.347  0.3490  0.3172  0.0023
 1279SOL    HW2 5162   1.357   0.309   2.441  0.2180  1.5062  0.2801
 1279SOL    HW3 5163   1.424   0.389   2.331 -0.0646  0.6957 -0.4848
 1279SOL    MW4 5164   1.361   0.335   2.358  0.2770  0.5240 -0.0255
 1280SOL     OW 5165   1.582   0.479   2.301  0.0636  0.2312  0.0761
 1280SOL    HW2 5166   1.652   0.419   2.326 -0.1264 -0.0756 -0.1187
 1280SOL    HW3 5167   1.589   0.485   2.206 -0.3217  0.0106  0.0313
 1280SOL    MW4 5168   1.592   0.472   2.292 -0.0124  0.1616  0.0446
 1281SOL     OW 5169   1.566   0.750   2.379  0.1533 -0.1961 -0.0375
 1281SOL    HW2 5170   1.630   0.808   2.339 -0.7137 -0.5743 -2.0262
 1281SOL    HW3 5171   1.587   0.663   2.344 -1.1778 -0.3887 -0.3844
 1281SOL    MW4 5172   1.577   0.746   2.369 -0.1366 -0.2715 -0.3457
 1282SOL     OW 5173   1.338   0.854   2.250 -0.0175  0.4155 -0.1087
 1282SOL    HW2 5174   1.415   0.842   2.305 -0.4761  0.2022  0.5094
 1282SOL    HW3 5175   1.267   0.815   2.301 -0.7729  1.8458 -0.0268
 1282SOL    MW4 5176   1.338   0.847   2.264 -0.1776  0.5761 -0.0162
 1283SOL     OW 5177   1.377   1.110   2.329  0.0236 -0.0597 -0.1231
 1283SOL    HW2 5178   1.356   1.109   2.423  0.0486 -0.1323 -0.1180
 1283SOL    HW3 5179   1.360   1.021   2.300  0.4252 -0.1475 -0.0950
 1283SOL    MW4 5180   1.372   1.098   2.338  0.0799 -0.0807 -0.1187
 1284SOL     OW 5181   1.557   1.293   2.225 -0.1166  0.6629  0.3181
 1284SOL    HW2 5182   1.500   1.226   2.264 -1.4112  0.7274 -1.4308
 1284SOL    HW3 5183   1.561   1.271   2.133  2.2275  1.0353  0.3158
 1284SOL    MW4 5184   1.550   1.281   2.218  0.0219  0.7206  0.0873
 1285SOL     OW 5185   1.515   1.547   2.330 -0.2815  0.2024 -0.0680
 1285SOL    HW2 5186   1.604   1.581   2.323 -0.2588  0.0152 -0.6982
 1285SOL    HW3 5187   1.518   1.463   2.285 -0.9211  0.4601 -0.5922
 1285SOL    MW4 5188   1.527   1.541   2.323 -0.3629  0.2116 -0.2201
 1286SOL     OW 5189   1.305   1.727   2.264 -0.0413  0.0381 -0.3258
 1286SOL    HW2 5190   1.375   1.666   2.285 -0.7987 -0.6396  0.2722
 1286SOL    HW3 5191   1.224   1.681   2.288 -0.6628  0.9992 -0.5146
 1286SOL    MW4 5192   1.303   1.713   2.270 -0.2233  0.0756 -0.2718
 1287SOL     OW 5193   1.340   1.959   2.399 -0.7354  0.0606 -0.0202
 1287SOL    HW2 5194   1.422   1.993   2.364 -1.8724  2.0445 -0.8567
 1287SOL    HW3 5195   1.328   1.875   2.356 -1.2777  1.7192 -3.2810
 1287SOL    MW4 5196   1.349   1.953   2.389 -0.9569  0.5412 -0.5605
 1288SOL     OW 5197   1.565   2.080   2.273  0.1786 -0.1900  0.6389
 1288SOL    HW2 5198   1.629   2.020   2.311  0.8934  0.4565  0.4470
 1288SOL    HW3 5199   1.585   2.081   2.180  0.7721  1.0793  0.7760
 1288SOL    MW4 5200   1.576   2.072   2.266  0.3512  0.0627  0.6313
 1289SOL     OW 5201   1.582   2.336   2.363  0.0258  0.0435 -0.1360
 1289SOL    HW2 5202   1.589   2.329   2.458  0.4908  0.0586 -0.1662
 1289SOL    HW3 5203   1.582   2.246   2.332 -1.6447 -0.0056 -0.0253
 1289SOL    MW4 5204   1.583   2.323   2.371 -0.1333  0.0391 -0.1254
 1290SOL     OW 5205   1.353   2.474   2.280  0.0345  0.3707  0.3038
 1290SOL    HW2 5206   1.424   2.416   2.309 -1.3153 -1.4157  0.0521
 1290SOL    HW3 5207   1.350   2.463   2.185 -1.6139 -0.7933  0.4667
 1290SOL    MW4 5208   1.362   2.465   2.271 -0.3608 -0.0188  0.2923
 1291SOL     OW 5209   1.333   2.730   2.372  0.0586  0.1846  0.0539
 1291SOL    HW2 5210   1.418   2.769   2.351  1.2331 -0.4679  3.1690
 1291SOL    HW3 5211   1.342   2.638   2.346 -0.1441  0.3840 -0.7320
 1291SOL    MW4 5212   1.346   2.723   2.366  0.1869  0.1249  0.3614
 1292SOL     OW 5213   1.581   2.846   2.277  0.3463 -0.5859  0.4576
 1292SOL    HW2 5214   1.593   2.929   2.324  0.2987 -0.5141  0.3435
 1292SOL    HW3 5215   1.599   2.868   2.186 -2.2930 -0.0893  0.0232
 1292SOL    MW4 5216   1.585   2.860   2.271 -0.0082 -0.5112  0.3850
 1293SOL     OW 5217   1.596   3.120   2.378 -0.1344  0.4574  0.2617
 1293SOL    HW2 5218   1.591   3.121   2.474 -1.1681  0.8735  0.2019
 1293SOL    HW3 5219   1.509   3.147   2.349 -0.1783 -0.7874 -0.8045
 1293SOL    MW4 5220   1.584   3.124   2.387 -0.2764  0.3483  0.1132
 1294SOL     OW 5221   1.333   3.211   2.278  0.0210 -0.0148  0.0556
 1294SOL    HW2 5222   1.248   3.193   2.318  0.0550 -1.6011 -0.5529
 1294SOL    HW3 5223   1.320   3.193   2.185 -0.0236  3.5172 -0.7002
 1294SOL    MW4 5224   1.320   3.206   2.271  0.0197  0.2422 -0.1245
 1295SOL     OW 5225   1.372   3.462   2.398  0.1902  0.6067  0.3522
 1295SOL    HW2 5226   1.374   3.459   2.494  1.6799  0.5491  0.3247
 1295SOL    HW3 5227   1.367   3.371   2.371  0.5002  0.5905  0.3551
 1295SOL    MW4 5228   1.371   3.450   2.407  0.4277  0.5968  0.3488
 1296SOL     OW 5229   1.558   3.575   2.237  0.0188 -0.4981  0.1995
 1296SOL    HW2 5230   1.563   3.670   2.247 -1.6296 -0.2243 -1.2842
 1296SOL    HW3 5231   1.484   3.549   2.293 -0.7202 -0.6432 -0.8224
 1296SOL    MW4 5232   1.549   3.585   2.246 -0.2961 -0.4814 -0.1314
 1297SOL     OW 5233   1.597   3.840   2.348  0.3865 -0.2181  0.2822
 1297SOL    HW2 5234   1.591   3.848   2.443 -1.4472  1.9648  0.0459
 1297SOL    HW3 5235   1.684   3.875   2.327  1.3319 -1.9273  1.2313
 1297SOL    MW4 5236   1.608   3.846   2.358  0.2692 -0.1557  0.3762
 1298SOL     OW 5237   1.353   3.973   2.236  0.7262 -0.3917  0.3147
 1298SOL    HW2 5238   1.424   3.921   2.274  0.6863 -0.5103  0.2251
 1298SOL    HW3 5239   1.366   3.967   2.142 -0.0794 -1.3707  0.2501
 1298SOL    MW4 5240   1.364   3.965   2.229  0.6146 -0.5369  0.2944
 1299SOL     OW 5241   1.330   4.219   2.346 -0.1701 -0.3391 -0.0768
 1299SOL    HW2 5242   1.350   4.144   2.290 -2.3542 -0.8805 -0.2113
 1299SOL    HW3 5243   1.250   4.256   2.307  1.5831  2.8534 -0.7846
 1299SOL    MW4 5244   1.322   4.214   2.333 -0.2269  0.0105 -0.1876
 1300SOL     OW 5245   1.569   4.383   2.281  0.0158  0.1495  0.0147
 1300SOL    HW2 5246   1.482   4.346   2.297  0.7413 -1.5702  0.1548
 1300SOL    HW3 5247   1.566   4.470   2.318 -1.7094  0.1732 -0.1349
 1300SOL    MW4 5248   1.557   4.389   2.288 -0.1161 -0.0744  0.0136
 1301SOL     OW 5249   2.034   4.618   2.360 -0.1325  0.3087  0.2359
 1301SOL    HW2 5250   2.114   4.661   2.329 -1.0618  0.7739 -1.5614
 1301SOL    HW3 5251   2.047   4.526   2.337 -0.1935  0.4198 -0.2602
 1301SOL    MW4 5252   2.047   4.611   2.353 -0.2632  0.3848 -0.0663
 1302SOL     OW 5253   1.796   0.099   2.239  0.2709  0.0384 -0.2824
 1302SOL    HW2 5254   1.797   0.187   2.276  0.0361 -0.5871  1.2451
 1302SOL    HW3 5255   1.862   0.051   2.288  1.0017 -0.4222 -1.6876
 1302SOL    MW4 5256   1.805   0.104   2.250  0.3363 -0.1049 -0.2661
 1303SOL     OW 5257   1.814   0.342   2.361 -0.0320 -0.2881 -0.4684
 1303SOL    HW2 5258   1.824   0.334   2.456 -0.1400 -0.8267 -0.4986
 1303SOL    HW3 5259   1.893   0.388   2.332  0.6276 -1.2840 -0.2674
 1303SOL    MW4 5260   1.826   0.347   2.369  0.0408 -0.4906 -0.4461
 1304SOL     OW 5261   2.035   0.514   2.294 -0.2285  0.7605 -0.2823
 1304SOL    HW2 5262   2.019   0.599   2.335  0.4124  0.4162  0.6926
 1304SOL    HW3 5263   2.024   0.531   2.200 -1.9969  1.4755  0.0299
 1304SOL    MW4 5264   2.032   0.528   2.287 -0.3774  0.8093 -0.1123
 1305SOL     OW 5265   1.992   0.768   2.381 -0.0184 -0.0910 -0.2893
 1305SOL    HW2 5266   2.052   0.802   2.315  1.1296  0.1967  0.8704
 1305SOL    HW3 5267   1.905   0.781   2.344  0.5501  1.2188 -1.2146
 1305SOL    MW4 5268   1.989   0.774   2.368  0.2080  0.1197 -0.2587
 1306SOL     OW 5269   1.753   0.926   2.268  0.5983  0.0163 -0.5053
 1306SOL    HW2 5270   1.768   1.017   2.292  0.7144  0.0024 -0.5231
 1306SOL    HW3 5271   1.742   0.928   2.173 -1.5832  0.2983 -0.2712
 1306SOL    MW4 5272   1.753   0.938   2.259  0.3259  0.0516 -0.4768
 1307SOL     OW 5273   1.799   1.193   2.351  0.0757 -0.5208  0.3261
 1307SOL    HW2 5274   1.884   1.214   2.314  0.0017 -0.2876  0.2877
 1307SOL    HW3 5275   1.737   1.245   2.300 -0.0356 -0.2631  0.7200
 1307SOL    MW4 5276   1.802   1.202   2.340  0.0513 -0.4561  0.3726
 1308SOL     OW 5277   2.042   1.257   2.222  0.4119 -0.3885  0.2729
 1308SOL    HW2 5278   2.044   1.347   2.255 -1.8726 -0.1321 -0.1911
 1308SOL    HW3 5279   2.043   1.267   2.127  3.7439 -1.0173  0.1759
 1308SOL    MW4 5280   2.042   1.270   2.214  0.5500 -0.4376  0.1988
 1309SOL     OW 5281   2.013   1.526   2.316  0.6392  0.5311  0.6666
 1309SOL    HW2 5282   2.005   1.535   2.411 -1.6667 -0.2608  0.5988
 1309SOL    HW3 5283   1.950   1.588   2.281  1.9665  1.3028 -0.3839
 1309SOL    MW4 5284   2.004   1.535   2.324  0.5102  0.5285  0.5190
 1310SOL     OW 5285   1.760   1.679   2.280 -0.2061 -0.2685 -0.4392
 1310SOL    HW2 5286   1.777   1.766   2.315 -0.1204 -0.3135 -0.3683
 1310SOL    HW3 5287   1.782   1.686   2.187  1.1481 -0.5851 -0.1506
 1310SOL    MW4 5288   1.765   1.691   2.272 -0.0162 -0.3163 -0.3917
 1311SOL     OW 5289   1.797   1.927   2.364 -0.1327  0.1197  0.0223
 1311SOL    HW2 5290   1.796   1.932   2.460  0.5859  1.4615 -0.0344
 1311SOL    HW3 5291   1.881   1.965   2.338 -0.2166 -0.4614 -1.1290
 1311SOL    MW4 5292   1.808   1.933   2.373 -0.0489  0.2201 -0.1373
 1312SOL     OW 5293   2.023   2.059   2.274 -0.0262  0.1272  0.3478
 1312SOL    HW2 5294   2.089   2.000   2.310 -1.2538 -1.3785  0.1544
 1312SOL    HW3 5295   2.027   2.043   2.179 -1.5258 -0.8632  0.4524
 1312SOL    MW4 5296   2.033   2.049   2.266 -0.3862 -0.2019  0.3357
 1313SOL     OW 5297   2.016   2.328   2.388  0.1256  0.1955 -0.5308
 1313SOL    HW2 5298   2.091   2.365   2.339 -0.7685  1.6501 -0.8306
 1313SOL    HW3 5299   2.001   2.243   2.347  2.1321 -0.4923  0.0675
 1313SOL    MW4 5300   2.024   2.322   2.376  0.2725  0.2966 -0.4914
 1314SOL     OW 5301   1.815   2.466   2.238 -0.0975 -0.2493  0.3380
 1314SOL    HW2 5302   1.877   2.412   2.287  0.4380  0.3416  0.2995
 1314SOL    HW3 5303   1.730   2.445   2.278  0.1288 -0.9895  0.4446
 1314SOL    MW4 5304   1.812   2.456   2.250  0.0031 -0.2687  0.3471
 1315SOL     OW 5305   1.801   2.710   2.390 -0.1409  0.2287 -0.3777
 1315SOL    HW2 5306   1.799   2.626   2.345  0.7554  0.4124 -0.7823
 1315SOL    HW3 5307   1.738   2.765   2.342  0.5703  0.3252 -1.2252
 1315SOL    MW4 5308   1.793   2.706   2.378  0.0712  0.2658 -0.5431
 1316SOL     OW 5309   2.024   2.797   2.273 -0.1638 -0.4090  0.3834
 1316SOL    HW2 5310   2.097   2.750   2.312 -0.2074 -0.8305 -0.0491
 1316SOL    HW3 5311   1.946   2.759   2.313 -0.3265 -2.3177 -1.6806
 1316SOL    MW4 5312   2.023   2.786   2.283 -0.1910 -0.7164  0.0539
 1317SOL     OW 5313   1.998   3.075   2.342 -0.1122  0.1809  0.0888
 1317SOL    HW2 5314   2.074   3.129   2.323  0.1877  0.0550  0.9124
 1317SOL    HW3 5315   2.023   2.987   2.317 -0.9509  0.5533 -2.1996
 1317SOL    MW4 5316   2.011   3.071   2.336 -0.1833  0.2136 -0.1044
 1318SOL     OW 5317   1.787   3.244   2.246 -0.2536  0.4072 -0.1058
 1318SOL    HW2 5318   1.867   3.195   2.264  0.2624  1.7500  1.3442
 1318SOL    HW3 5319   1.719   3.198   2.295 -0.0430  0.3054  0.0896
 1318SOL    MW4 5320   1.789   3.232   2.255 -0.1577  0.5710  0.1111
 1319SOL     OW 5321   1.745   3.477   2.379 -0.2142  0.1755 -0.2849
 1319SOL    HW2 5322   1.776   3.402   2.329  1.9523  0.1789  0.9896
 1319SOL    HW3 5323   1.677   3.516   2.325 -1.2981 -2.6268 -1.0208
 1319SOL    MW4 5324   1.740   3.472   2.366 -0.0713 -0.1938 -0.2139
 1320SOL     OW 5325   1.989   3.613   2.265  0.1782  0.1400  0.1657
 1320SOL    HW2 5326   1.919   3.560   2.304 -0.4593  0.9970  0.1970
 1320SOL    HW3 5327   1.982   3.596   2.171  0.3491 -0.2745  0.2242
 1320SOL    MW4 5328   1.978   3.603   2.258  0.1166  0.1986  0.1776
 1321SOL     OW 5329   2.063   3.879   2.368  0.2453 -0.1082  0.1644
 1321SOL    HW2 5330   2.046   3.878   2.463 -1.1542 -0.3795 -0.0788
 1321SOL    HW3 5331   2.048   3.789   2.340 -0.1070  0.1316 -0.4305
 1321SOL    MW4 5332   2.058   3.867   2.377  0.0141 -0.1125  0.0539
 1322SOL     OW 5333   1.835   3.973   2.245  0.3095 -0.3708  0.2469
 1322SOL    HW2 5334   1.917   3.945   2.286  0.4416 -0.0317  0.2170
 1322SOL    HW3 5335   1.838   3.934   2.157  0.3110 -0.5853  0.3413
 1322SOL    MW4 5336   1.847   3.964   2.239  0.3272 -0.3543  0.2556
 1323SOL     OW 5337   1.808   4.236   2.323  0.3833 -0.2781 -0.0621
 1323SOL    HW2 5338   1.798   4.143   2.304  1.3234 -0.3033 -0.4835
 1323SOL    HW3 5339   1.721   4.273   2.314  0.0767 -1.0555 -0.2614
 1323SOL    MW4 5340   1.795   4.229   2.319  0.4668 -0.3843 -0.1442
 1324SOL     OW 5341   2.072   4.358   2.267  0.1417  0.1764  0.2421
 1324SOL    HW2 5342   1.994   4.314   2.299  0.6932 -0.6563  0.4627
 1324SOL    HW3 5343   2.053   4.376   2.175 -0.2868 -0.0764  0.2804
 1324SOL    MW4 5344   2.059   4.355   2.259  0.1581  0.0334  0.2763
 1325SOL     OW 5345   2.503   4.652   2.364 -0.1503 -0.2264 -0.1049
 1325SOL    HW2 5346   2.586   4.698   2.346 -0.5420  0.1835 -0.8885
 1325SOL    HW3 5347   2.511   4.569   2.318  0.2386 -0.6168  0.6624
 1325SOL    MW4 5348   2.515   4.647   2.355 -0.1507 -0.2236 -0.1073
 1326SOL     OW 5349   2.266   0.097   2.276  0.1064 -0.3227 -0.1802
 1326SOL    HW2 5350   2.260   0.186   2.309  0.1387 -0.5424  0.4251
 1326SOL    HW3 5351   2.346   0.061   2.315  0.2420 -0.5279 -0.6360
 1326SOL    MW4 5352   2.276   0.104   2.285  0.1283 -0.3788 -0.1602
 1327SOL     OW 5353   2.249   0.362   2.373 -0.1121  0.6975  0.3439
 1327SOL    HW2 5354   2.327   0.407   2.340  0.8638 -0.5578  0.9170
 1327SOL    HW3 5355   2.176   0.419   2.347  1.0379  2.2385  0.4228
 1327SOL    MW4 5356   2.250   0.376   2.365  0.1683  0.7352  0.4299
 1328SOL     OW 5357   2.482   0.506   2.298  0.5600 -0.8255  0.2005
 1328SOL    HW2 5358   2.572   0.472   2.302  1.3096  1.0044 -0.3248
 1328SOL    HW3 5359   2.470   0.529   2.206  0.5663  1.4866  0.7356
 1328SOL    MW4 5360   2.492   0.505   2.287  0.6597 -0.2791  0.2019
 1329SOL     OW 5361   2.456   0.787   2.390  0.1410 -0.6534  0.4178
 1329SOL    HW2 5362   2.537   0.833   2.368  0.9358 -1.9393  0.6046
 1329SOL    HW3 5363   2.472   0.696   2.364 -1.2360 -0.9285  0.4700
 1329SOL    MW4 5364   2.469   0.781   2.383  0.0641 -0.8593  0.4494
 1330SOL     OW 5365   2.228   0.864   2.235  0.1598 -0.3630 -0.1983
 1330SOL    HW2 5366   2.230   0.946   2.285  0.6579 -0.6183  0.2113
 1330SOL    HW3 5367   2.301   0.813   2.271 -0.5938 -1.2771  0.0350
 1330SOL    MW4 5368   2.238   0.868   2.246  0.1264 -0.5173 -0.1132
 1331SOL     OW 5369   2.224   1.113   2.373 -0.2350 -0.2500 -0.1112
 1331SOL    HW2 5370   2.303   1.162   2.350  0.3753 -1.4210 -0.5871
 1331SOL    HW3 5371   2.152   1.162   2.332  0.2496  0.7826  0.2636
 1331SOL    MW4 5372   2.225   1.126   2.365 -0.0906 -0.2682 -0.1247
 1332SOL     OW 5373   2.438   1.263   2.286  0.2176 -0.1242  0.5046
 1332SOL    HW2 5374   2.522   1.227   2.314  0.4810  0.5787  0.6359
 1332SOL    HW3 5375   2.432   1.347   2.332 -0.0447  0.3419 -0.3786
 1332SOL    MW4 5376   2.448   1.269   2.296  0.2174  0.0300  0.4053
 1333SOL     OW 5377   2.455   1.516   2.374  0.0425 -0.0363  0.2171
 1333SOL    HW2 5378   2.478   1.524   2.467  0.3401 -0.4146  0.1758
 1333SOL    HW3 5379   2.533   1.545   2.327 -0.5538  1.3839  0.0868
 1333SOL    MW4 5380   2.468   1.521   2.380  0.0031  0.1012  0.1943
 1334SOL     OW 5381   2.248   1.639   2.224 -0.3027  0.1935 -0.2639
 1334SOL    HW2 5382   2.309   1.596   2.285  1.0864  0.6956 -1.2794
 1334SOL    HW3 5383   2.161   1.616   2.257  0.4315 -0.7578  1.0537
 1334SOL    MW4 5384   2.245   1.630   2.237 -0.0226  0.1341 -0.2241
 1335SOL     OW 5385   2.220   1.882   2.354 -0.2459  0.1165 -0.1086
 1335SOL    HW2 5386   2.277   1.937   2.299 -1.5905  1.1934 -0.4383
 1335SOL    HW3 5387   2.220   1.797   2.310  0.8432  0.1941 -0.2832
 1335SOL    MW4 5388   2.228   1.878   2.341 -0.2797  0.2687 -0.1750
 1336SOL     OW 5389   2.423   2.048   2.263 -0.0873 -0.0550 -0.0412
 1336SOL    HW2 5390   2.497   2.002   2.302 -0.5148  1.8223  3.0943
 1336SOL    HW3 5391   2.446   2.056   2.170  2.6603 -1.3374  0.4914
 1336SOL    MW4 5392   2.435   2.043   2.256  0.2186  0.0238  0.4427
 1337SOL     OW 5393   2.409   2.313   2.377  0.4255 -0.1328  0.3378
 1337SOL    HW2 5394   2.491   2.351   2.347  0.4374  0.3245  0.9421
 1337SOL    HW3 5395   2.412   2.222   2.347  1.2788 -0.1962  0.6049
 1337SOL    MW4 5396   2.420   2.306   2.369  0.5395 -0.0808  0.4528
 1338SOL     OW 5397   2.242   2.428   2.206  0.2783 -0.0617  0.2720
 1338SOL    HW2 5398   2.240   2.516   2.244  0.3272  0.1581 -0.2405
 1338SOL    HW3 5399   2.321   2.388   2.243 -0.0928 -0.1148  1.0100
 1338SOL    MW4 5400   2.252   2.434   2.216  0.2360 -0.0393  0.3016
 1339SOL     OW 5401   2.266   2.661   2.359  0.1498  0.0786 -0.1797
 1339SOL    HW2 5402   2.257   2.651   2.454  0.0641  2.1084  0.0610
 1339SOL    HW3 5403   2.349   2.707   2.348  0.3524 -0.5159 -1.1122
 1339SOL    MW4 5404   2.275   2.666   2.370  0.1652  0.2680 -0.2711
 1340SOL     OW 5405   2.474   2.822   2.285  0.2667 -0.2873 -0.5168
 1340SOL    HW2 5406   2.549   2.788   2.333 -0.8722 -3.0750 -0.5644
 1340SOL    HW3 5407   2.500   2.816   2.193  1.3533  2.2792 -0.3947
 1340SOL    MW4 5408   2.487   2.816   2.279  0.2594 -0.3164 -0.5069
 1341SOL     OW 5409   2.458   3.090   2.364 -0.6473  0.0130 -0.0348
 1341SOL    HW2 5410   2.543   3.122   2.334 -0.5540  0.6849  0.9132
 1341SOL    HW3 5411   2.460   2.996   2.347  0.2986  0.0160  0.0207
 1341SOL    MW4 5412   2.470   3.082   2.358 -0.5102  0.1020  0.0978
 1342SOL     OW 5413   2.232   3.230   2.263 -0.1860 -0.1490 -0.0484
 1342SOL    HW2 5414   2.228   3.317   2.303  0.6313  0.2646 -0.8515
 1342SOL    HW3 5415   2.311   3.190   2.300 -0.1885 -0.2979 -0.2010
 1342SOL    MW4 5416   2.242   3.236   2.273 -0.0784 -0.1142 -0.1740
 1343SOL     OW 5417   2.207   3.474   2.351 -0.6489 -0.3777  0.0209
 1343SOL    HW2 5418   2.209   3.469   2.447  0.0349  0.7973  0.0679
 1343SOL    HW3 5419   2.127   3.523   2.331  0.0811  0.8331  0.0520
 1343SOL    MW4 5420   2.197   3.479   2.361 -0.4625 -0.0629  0.0310
 1344SOL     OW 5421   2.454   3.611   2.237  0.2405  0.1200  0.0330
 1344SOL    HW2 5422   2.487   3.681   2.293  1.8488 -0.7908  0.2783
 1344SOL    HW3 5423   2.374   3.581   2.280  0.6400  0.4590  1.0303
 1344SOL    MW4 5424   2.448   3.616   2.250  0.5054  0.0446  0.1969
 1345SOL     OW 5425   2.519   3.844   2.380 -0.0826  0.1730  0.3900
 1345SOL    HW2 5426   2.501   3.834   2.474 -0.0961 -0.0206  0.3652
 1345SOL    HW3 5427   2.452   3.905   2.350 -0.6343 -0.4656  0.3169
 1345SOL    MW4 5428   2.508   3.851   2.389 -0.1574  0.0634  0.3772
 1346SOL     OW 5429   2.306   3.991   2.269  0.0807  0.0829 -0.2865
 1346SOL    HW2 5430   2.311   4.073   2.319  0.1744  0.0000 -0.1596
 1346SOL    HW3 5431   2.232   3.944   2.308  0.0563  0.0864 -0.3288
 1346SOL    MW4 5432   2.297   3.996   2.281  0.0899  0.0725 -0.2756
 1347SOL     OW 5433   2.310   4.236   2.373  0.7110 -0.5131  0.4413
 1347SOL    HW2 5434   2.288   4.232   2.466 -0.3938 -0.3255  0.1908
 1347SOL    HW3 5435   2.235   4.280   2.332  2.1231  1.3574 -0.2324
 1347SOL    MW4 5436   2.297   4.241   2.380  0.7517 -0.2413  0.3195
 1348SOL     OW 5437   2.516   4.394   2.271 -0.1932  0.0445  0.0925
 1348SOL    HW2 5438   2.597   4.343   2.278  0.8019  1.5248 -0.5584
 1348SOL    HW3 5439   2.448   4.334   2.303  1.1515 -1.1967  0.6997
 1348SOL    MW4 5440   2.517   4.379   2.276  0.1154  0.0763  0.0865
 1349SOL     OW 5441   2.957   4.653   2.395  0.5484 -0.2950  0.3618
 1349SOL    HW2 5442   3.027   4.697   2.348 -1.0525  1.5632 -0.3717
 1349SOL    HW3 5443   2.961   4.562   2.364  2.0740 -0.0193 -0.2943
 1349SOL    MW4 5444   2.966   4.646   2.385  0.5386 -0.0134  0.1783
 1350SOL     OW 5445   2.736   0.122   2.296 -0.1364  0.2939 -0.4219
 1350SOL    HW2 5446   2.732   0.202   2.348  0.8984  1.2331 -1.7471
 1350SOL    HW3 5447   2.810   0.074   2.331  0.0644  0.5454 -0.4998
 1350SOL    MW4 5448   2.745   0.126   2.307  0.0267  0.4509 -0.6068
 1351SOL     OW 5449   2.710   0.368   2.412  0.0058  0.0408  0.1469
 1351SOL    HW2 5450   2.710   0.386   2.506  0.0893  0.1432  0.1271
 1351SOL    HW3 5451   2.796   0.397   2.382  0.2203 -0.5772  0.1524
 1351SOL    MW4 5452   2.721   0.374   2.421  0.0451 -0.0272  0.1450
 1352SOL     OW 5453   2.938   0.490   2.264  0.1873 -0.0642  0.1800
 1352SOL    HW2 5454   2.919   0.578   2.296  0.4846  0.6526 -1.5572
 1352SOL    HW3 5455   2.939   0.499   2.168 -0.2483 -2.0461 -0.0328
 1352SOL    MW4 5456   2.935   0.503   2.255  0.1693 -0.2311 -0.0772
 1353SOL     OW 5457   2.891   0.758   2.334  0.1947  0.3765  0.2698
 1353SOL    HW2 5458   2.893   0.755   2.430  0.4516  0.9429  0.2808
 1353SOL    HW3 5459   2.819   0.818   2.313  0.1990  0.3256  0.1088
 1353SOL    MW4 5460   2.882   0.765   2.344  0.2291  0.4445  0.2501
 1354SOL     OW 5461   2.683   0.920   2.277 -0.2533 -0.2653  0.3715
 1354SOL    HW2 5462   2.691   1.012   2.303  0.1391 -0.2027  0.0349
 1354SOL    HW3 5463   2.666   0.923   2.183  0.5248 -0.5643  0.2240
 1354SOL    MW4 5464   2.682   0.932   2.268 -0.0989 -0.2965  0.3076
 1355SOL     OW 5465   2.691   1.192   2.375  0.3948 -0.0591  0.2956
 1355SOL    HW2 5466   2.695   1.202   2.470  1.1909  0.6304  0.2004
 1355SOL    HW3 5467   2.764   1.245   2.343 -1.1806  1.5050 -0.8169
 1355SOL    MW4 5468   2.701   1.201   2.383  0.2921  0.2382  0.1359
 1356SOL     OW 5469   2.937   1.302   2.285 -0.1748  0.0748 -0.0208
 1356SOL    HW2 5470   3.009   1.251   2.321 -0.4307 -0.1511  0.1687
 1356SOL    HW3 5471   2.959   1.313   2.193 -0.4395 -0.9212 -0.2047
 1356SOL    MW4 5472   2.949   1.297   2.278 -0.2437 -0.0864 -0.0200
 1357SOL     OW 5473   2.958   1.543   2.385 -0.3053  0.3389 -0.3109
 1357SOL    HW2 5474   2.964   1.540   2.481 -1.4155  0.0075 -0.2456
 1357SOL    HW3 5475   2.948   1.452   2.359  0.4743  0.3857 -0.7876
 1357SOL    MW4 5476   2.958   1.531   2.395 -0.3488  0.3014 -0.3650
 1358SOL     OW 5477   2.682   1.646   2.298  0.3630 -0.1925  0.2489
 1358SOL    HW2 5478   2.769   1.626   2.332  0.3873 -0.9508 -0.2339
 1358SOL    HW3 5479   2.692   1.641   2.203 -0.2854 -0.6423  0.1967
 1358SOL    MW4 5480   2.694   1.642   2.290  0.2804 -0.3519  0.1783
 1359SOL     OW 5481   2.647   1.916   2.369 -0.3058  0.3000  0.3036
 1359SOL    HW2 5482   2.677   1.918   2.460 -0.1385  1.1319  0.2378
 1359SOL    HW3 5483   2.653   1.824   2.344 -1.1669 -0.0707  1.3989
 1359SOL    MW4 5484   2.652   1.905   2.378 -0.3972  0.3610  0.4392
 1360SOL     OW 5485   2.883   2.040   2.259  0.0037  0.2080  0.1863
 1360SOL    HW2 5486   2.947   2.008   2.323 -1.5723 -0.1885  1.5809
 1360SOL    HW3 5487   2.798   2.023   2.299 -0.9639  1.8808 -1.1196
 1360SOL    MW4 5488   2.881   2.033   2.273 -0.3316  0.3765  0.1979
 1361SOL     OW 5489   2.908   2.315   2.350 -0.2275  0.4133 -0.2857
 1361SOL    HW2 5490   2.910   2.306   2.446 -1.6945  0.9930 -0.1930
 1361SOL    HW3 5491   2.914   2.226   2.317 -2.1191  0.0123  0.4017
 1361SOL    MW4 5492   2.909   2.302   2.358 -0.6707  0.4373 -0.1826
 1362SOL     OW 5493   2.653   2.417   2.288 -0.2974 -0.1391  0.0470
 1362SOL    HW2 5494   2.738   2.380   2.312 -0.0875 -0.2420 -0.8477
 1362SOL    HW3 5495   2.664   2.448   2.199 -1.9624 -2.5703 -1.0642
 1362SOL    MW4 5496   2.666   2.416   2.280 -0.4895 -0.4733 -0.2177
 1363SOL     OW 5497   2.678   2.690   2.407 -0.1014  0.1519  0.2297
 1363SOL    HW2 5498   2.758   2.717   2.361 -0.0099  1.3988  1.0859
 1363SOL    HW3 5499   2.667   2.598   2.384  1.8172 -0.1542  0.4387
 1363SOL    MW4 5500   2.687   2.682   2.398  0.1636  0.2761  0.3703
 1364SOL     OW 5501   2.929   2.825   2.281 -0.0030 -0.2484 -0.2483
 1364SOL    HW2 5502   2.935   2.915   2.313  0.7121 -0.4735  0.2785
 1364SOL    HW3 5503   2.930   2.833   2.186  1.7569  0.2103 -0.2110
 1364SOL    MW4 5504   2.930   2.838   2.273  0.3231 -0.2174 -0.1738
 1365SOL     OW 5505   2.942   3.074   2.403 -0.2528 -0.3909 -0.2050
 1365SOL    HW2 5506   3.011   3.130   2.368  0.3624 -1.0487 -0.0558
 1365SOL    HW3 5507   2.861   3.121   2.384  0.3101  0.9549  0.6672
 1365SOL    MW4 5508   2.940   3.088   2.396 -0.0970 -0.3002 -0.0701
 1366SOL     OW 5509   2.711   3.216   2.290 -0.2159 -0.3069 -0.0045
 1366SOL    HW2 5510   2.689   3.307   2.308 -0.5575 -0.0757 -1.5649
 1366SOL    HW3 5511   2.690   3.203   2.198  0.5791 -1.7468 -0.0075
 1366SOL    MW4 5512   2.705   3.226   2.281 -0.1562 -0.4663 -0.2108
 1367SOL     OW 5513   2.678   3.484   2.304  0.3464  0.2150  0.1634
 1367SOL    HW2 5514   2.751   3.539   2.278  0.7405  0.0380  0.8754
 1367SOL    HW3 5515   2.603   3.518   2.256  0.6516  1.1737  0.3678
 1367SOL    MW4 5516   2.678   3.496   2.294  0.4387  0.3183  0.2844
 1368SOL     OW 5517   2.919   3.620   2.263 -0.5329  0.2744  0.2974
 1368SOL    HW2 5518   2.981   3.560   2.305 -1.8053 -0.3543  1.3354
 1368SOL    HW3 5519   2.920   3.698   2.317 -0.2967  0.4529  0.0377
 1368SOL    MW4 5520   2.928   3.622   2.275 -0.6695  0.2148  0.4003
 1369SOL     OW 5521   2.970   3.855   2.388 -0.3476  0.2356 -0.3902
 1369SOL    HW2 5522   2.976   3.869   2.483 -0.1443  0.1138 -0.3861
 1369SOL    HW3 5523   2.896   3.910   2.361 -1.8324 -1.4209  0.1828
 1369SOL    MW4 5524   2.961   3.864   2.397 -0.5167  0.0007 -0.3140
 1370SOL     OW 5525   2.750   4.006   2.313 -0.1083 -0.1579  0.5948
 1370SOL    HW2 5526   2.686   3.950   2.358 -0.9791  1.4450  1.3776
 1370SOL    HW3 5527   2.735   3.990   2.220 -0.1117 -1.4696  0.7989
 1370SOL    MW4 5528   2.740   3.996   2.307 -0.2236 -0.1197  0.7250
 1371SOL     OW 5529   2.749   4.272   2.357 -0.3335 -0.4777  0.1440
 1371SOL    HW2 5530   2.736   4.280   2.452 -0.9727 -0.5857  0.0683
 1371SOL    HW3 5531   2.742   4.178   2.340  0.0237 -0.4821  0.0226
 1371SOL    MW4 5532   2.747   4.261   2.367 -0.3707 -0.4926  0.1180
 1372SOL     OW 5533   2.990   4.386   2.266 -0.2945 -0.2033 -0.3274
 1372SOL    HW2 5534   3.062   4.334   2.300  0.0024 -0.1103 -0.8063
 1372SOL    HW3 5535   2.912   4.336   2.288 -0.2282  0.5765  1.7917
 1372SOL    MW4 5536   2.989   4.373   2.273 -0.2465 -0.0882 -0.1111
 1373SOL     OW 5537   3.370   4.665   2.363 -0.2107 -0.2805 -0.1422
 1373SOL    HW2 5538   3.371   4.651   2.457  1.5403 -1.8634 -0.3659
 1373SOL    HW3 5539   3.453   4.708   2.343 -0.8406  0.6172 -0.8852
 1373SOL    MW4 5540   3.381   4.669   2.372 -0.0629 -0.3709 -0.2699
 1374SOL     OW 5541   3.149   0.145   2.270  0.0291 -0.4964  0.0928
 1374SOL    HW2 5542   3.159   0.223   2.324 -0.4381 -0.3522 -0.0290
 1374SOL    HW3 5543   3.232   0.098   2.280  0.5066  0.2592 -0.2285
 1374SOL    MW4 5544   3.161   0.149   2.278  0.0303 -0.3777  0.0341
 1375SOL     OW 5545   3.168   0.383   2.413  0.6374 -0.5056 -0.0129
 1375SOL    HW2 5546   3.238   0.428   2.366  1.0431 -0.4553  0.6333
 1375SOL    HW3 5547   3.087   0.413   2.370  1.0444 -1.2023 -1.3072
 1375SOL    MW4 5548   3.166   0.393   2.401  0.7446 -0.5909 -0.0989
 1376SOL     OW 5549   3.396   0.489   2.289 -0.4694  0.0818 -0.2933
 1376SOL    HW2 5550   3.477   0.439   2.301 -0.7386 -0.3077 -0.1112
 1376SOL    HW3 5551   3.376   0.480   2.196 -0.3266  0.1424 -0.3295
 1376SOL    MW4 5552   3.404   0.481   2.278 -0.4861  0.0384 -0.2739
 1377SOL     OW 5553   3.357   0.737   2.419  0.1435  0.1288 -0.4611
 1377SOL    HW2 5554   3.428   0.796   2.395 -0.4218  0.4778 -1.3292
 1377SOL    HW3 5555   3.368   0.661   2.361  0.1092 -0.0376 -0.2503
 1377SOL    MW4 5556   3.368   0.735   2.408  0.0641  0.1528 -0.5479
 1378SOL     OW 5557   3.154   0.883   2.265  0.5138  0.1644 -0.2683
 1378SOL    HW2 5558   3.212   0.823   2.311 -0.9139 -1.8118 -0.9730
 1378SOL    HW3 5559   3.066   0.847   2.278 -0.4629  2.4430 -0.1912
 1378SOL    MW4 5560   3.150   0.871   2.273  0.1965  0.2043 -0.3512
 1379SOL     OW 5561   3.157   1.157   2.373  0.0579 -0.4508 -0.1488
 1379SOL    HW2 5562   3.227   1.200   2.323  0.6269 -0.2315  0.8246
 1379SOL    HW3 5563   3.162   1.065   2.347  0.8969 -0.4876  0.1225
 1379SOL    MW4 5564   3.167   1.150   2.363  0.2439 -0.4267  0.0155
 1380SOL     OW 5565   3.377   1.283   2.264 -0.6781  0.0546  0.0997
 1380SOL    HW2 5566   3.447   1.246   2.318 -0.4533 -1.1990 -1.0432
 1380SOL    HW3 5567   3.377   1.376   2.287  0.0720 -0.2794  1.5300
 1380SOL    MW4 5568   3.386   1.290   2.274 -0.5496 -0.1549  0.1376
 1381SOL     OW 5569   3.393   1.544   2.362  0.2871  0.0475 -0.0474
 1381SOL    HW2 5570   3.401   1.523   2.455  0.2355 -2.3217 -0.5363
 1381SOL    HW3 5571   3.310   1.591   2.355  0.3795  0.4019  1.1195
 1381SOL    MW4 5572   3.383   1.547   2.374  0.2923 -0.2183  0.0422
 1382SOL     OW 5573   3.169   1.704   2.287  0.0514  0.1278  0.0983
 1382SOL    HW2 5574   3.148   1.794   2.310 -0.6299 -0.1460  0.5557
 1382SOL    HW3 5575   3.089   1.655   2.307  0.8239 -0.7787  1.0302
 1382SOL    MW4 5576   3.156   1.709   2.293  0.0632 -0.0280  0.2813
 1383SOL     OW 5577   3.110   1.945   2.389 -0.2120 -0.0265  0.1553
 1383SOL    HW2 5578   3.113   1.951   2.485  0.4805  2.0275  0.0363
 1383SOL    HW3 5579   3.187   1.995   2.360 -1.5013  1.0214 -1.5194
 1383SOL    MW4 5580   3.121   1.952   2.398 -0.2906  0.3828 -0.0815
 1384SOL     OW 5581   3.307   2.077   2.271 -0.5773 -0.3801  0.1149
 1384SOL    HW2 5582   3.393   2.038   2.288 -0.2756 -0.2493 -1.0313
 1384SOL    HW3 5583   3.300   2.077   2.175 -2.0632 -0.8188  0.2232
 1384SOL    MW4 5584   3.318   2.072   2.260 -0.7339 -0.4208 -0.0219
 1385SOL     OW 5585   3.363   2.335   2.360  0.0263  0.1860  0.1223
 1385SOL    HW2 5586   3.293   2.399   2.345  0.6936  0.6928 -0.8685
 1385SOL    HW3 5587   3.333   2.256   2.316  0.7354  0.8486 -1.5928
 1385SOL    MW4 5588   3.349   2.333   2.352  0.2077  0.3405 -0.2346
 1386SOL     OW 5589   3.136   2.484   2.305 -0.0629 -0.1965  0.5355
 1386SOL    HW2 5590   3.130   2.576   2.329 -0.2100 -0.2761  0.8083
 1386SOL    HW3 5591   3.047   2.451   2.310 -0.1666 -0.0936 -0.6332
 1386SOL    MW4 5592   3.124   2.492   2.309 -0.0958 -0.1934  0.4172
 1387SOL     OW 5593   3.169   2.750   2.391 -0.0252  0.0011 -0.4806
 1387SOL    HW2 5594   3.158   2.726   2.483  0.1966  0.6324 -0.2840
 1387SOL    HW3 5595   3.084   2.789   2.367 -0.5975 -1.5346 -0.9780
 1387SOL    MW4 5596   3.156   2.752   2.400 -0.0713 -0.1180 -0.5202
 1388SOL     OW 5597   3.405   2.823   2.259 -0.1331 -0.2093 -0.2474
 1388SOL    HW2 5598   3.405   2.918   2.266 -1.0754 -0.1164 -1.2821
 1388SOL    HW3 5599   3.324   2.795   2.303  0.1237 -0.5298  0.0278
 1388SOL    MW4 5600   3.394   2.832   2.265 -0.2234 -0.2394 -0.3479
 1389SOL     OW 5601   3.369   3.099   2.343 -0.0580 -0.1724 -0.2637
 1389SOL    HW2 5602   3.420   3.176   2.318  0.6075 -0.9234 -1.2549
 1389SOL    HW3 5603   3.280   3.120   2.317  0.0238  0.4876 -0.0240
 1389SOL    MW4 5604   3.364   3.112   2.336  0.0405 -0.1845 -0.3631
 1390SOL     OW 5605   3.134   3.221   2.257  0.1357  0.3075 -0.0687
 1390SOL    HW2 5606   3.148   3.309   2.291  0.6456  0.5913 -1.0099
 1390SOL    HW3 5607   3.127   3.232   2.163 -0.5683 -0.5688 -0.1247
 1390SOL    MW4 5608   3.135   3.234   2.249  0.1099  0.2294 -0.2003
 1391SOL     OW 5609   3.150   3.482   2.351 -0.2454 -0.2770  0.3104
 1391SOL    HW2 5610   3.160   3.490   2.446  0.8230  0.4265  0.1512
 1391SOL    HW3 5611   3.220   3.536   2.315 -0.8061 -0.3289 -0.8861
 1391SOL    MW4 5612   3.161   3.490   2.359 -0.1786 -0.1907  0.1314
 1392SOL     OW 5613   3.349   3.656   2.243 -0.4864  0.2611  0.3873
 1392SOL    HW2 5614   3.426   3.614   2.279 -0.4162  0.1965  0.1618
 1392SOL    HW3 5615   3.364   3.658   2.148 -0.2850  1.1861  0.4248
 1392SOL    MW4 5616   3.361   3.651   2.235 -0.4501  0.3746  0.3624
 1393SOL     OW 5617   3.393   3.878   2.399 -0.3899  0.4451  0.0405
 1393SOL    HW2 5618   3.467   3.925   2.362 -1.3120  1.3504 -0.6529
 1393SOL    HW3 5619   3.385   3.799   2.345 -0.5993  0.8674 -0.5401
 1393SOL    MW4 5620   3.401   3.874   2.387 -0.5393  0.6204 -0.1273
 1394SOL     OW 5621   3.183   3.994   2.264  0.2752 -0.2776  0.3664
 1394SOL    HW2 5622   3.264   3.958   2.301 -0.3649 -2.5430 -0.3895
 1394SOL    HW3 5623   3.114   3.956   2.318 -0.4461 -0.4806 -0.7096
 1394SOL    MW4 5624   3.185   3.985   2.276  0.0954 -0.6032  0.1245
 1395SOL     OW 5625   3.200   4.254   2.383  0.1091  0.3577  0.4634
 1395SOL    HW2 5626   3.282   4.289   2.348  0.6534 -0.1432  1.2146
 1395SOL    HW3 5627   3.193   4.166   2.346  0.0765  0.2791  0.6555
 1395SOL    MW4 5628   3.210   4.247   2.374  0.1767  0.2809  0.5882
 1396SOL     OW 5629   3.416   4.409   2.294  0.0501 -0.2079 -0.5448
 1396SOL    HW2 5630   3.384   4.499   2.304  1.3916  0.1829  0.3401
 1396SOL    HW3 5631   3.411   4.393   2.199  0.7350  1.1453 -0.8264
 1396SOL    MW4 5632   3.411   4.419   2.283  0.3173  0.0229 -0.4652
 1397SOL     OW 5633   3.843   4.591   2.420  0.1764 -0.0975 -0.2679
 1397SOL    HW2 5634   3.852   4.602   2.515  0.4623  1.2663 -0.4502
 1397SOL    HW3 5635   3.903   4.655   2.382 -1.8015  1.1582 -1.3741
 1397SOL    MW4 5636   3.852   4.601   2.427 -0.0467  0.2475 -0.4380
 1398SOL     OW 5637   3.634   0.072   2.295  0.1451  0.2110  0.2233
 1398SOL    HW2 5638   3.663   0.162   2.309  2.0203 -0.2364 -0.5416
 1398SOL    HW3 5639   3.701   0.019   2.338 -0.3587 -0.8322 -0.2697
 1398SOL    MW4 5640   3.647   0.077   2.303  0.3262  0.0143  0.0575
 1399SOL     OW 5641   3.624   0.350   2.349 -0.2997  0.0750 -0.3414
 1399SOL    HW2 5642   3.601   0.360   2.441  0.7689 -1.4541  0.1137
 1399SOL    HW3 5643   3.698   0.408   2.335 -0.5772  0.4429 -0.2857
 1399SOL    MW4 5644   3.630   0.359   2.359 -0.1950 -0.0782 -0.2739
 1400SOL     OW 5645   3.874   0.496   2.304  0.3247  0.3915  0.4020
 1400SOL    HW2 5646   3.842   0.582   2.331 -1.9365 -0.2012 -0.2648
 1400SOL    HW3 5647   3.872   0.499   2.209 -1.2245 -0.9086  0.3809
 1400SOL    MW4 5648   3.869   0.508   2.295 -0.1783  0.1417  0.3111
 1401SOL     OW 5649   3.784   0.747   2.378 -0.0065 -0.4686 -0.1178
 1401SOL    HW2 5650   3.806   0.740   2.471  0.8733 -0.3110 -0.3159
 1401SOL    HW3 5651   3.863   0.779   2.337 -0.6489  0.2368 -0.8139
 1401SOL    MW4 5652   3.797   0.750   2.385  0.0248 -0.3547 -0.2356
 1402SOL     OW 5653   3.559   0.914   2.323  0.1248 -0.1020  0.3519
 1402SOL    HW2 5654   3.634   0.858   2.345 -0.7686 -1.2761  0.4966
 1402SOL    HW3 5655   3.550   0.905   2.228 -0.0274 -0.2257  0.3770
 1402SOL    MW4 5656   3.568   0.905   2.313 -0.0134 -0.2732  0.3743
 1403SOL     OW 5657   3.569   1.182   2.422  1.1400 -0.4675 -0.1724
 1403SOL    HW2 5658   3.563   1.170   2.517 -0.9141  0.1653 -0.1952
 1403SOL    HW3 5659   3.567   1.093   2.387 -3.3812 -0.5960  0.1636
 1403SOL    MW4 5660   3.568   1.168   2.430  0.2728 -0.4010 -0.1309
 1404SOL     OW 5661   3.808   1.260   2.295 -0.3259  0.0754 -0.0334
 1404SOL    HW2 5662   3.825   1.352   2.318 -0.0948 -0.3495  1.5507
 1404SOL    HW3 5663   3.723   1.241   2.334 -0.5436 -0.2705 -0.6882
 1404SOL    MW4 5664   3.799   1.270   2.304 -0.3242 -0.0263  0.0892
 1405SOL     OW 5665   3.838   1.539   2.369  0.1057  0.0602  0.2646
 1405SOL    HW2 5666   3.828   1.541   2.464 -1.8706 -1.2917  0.1207
 1405SOL    HW3 5667   3.766   1.593   2.336  0.8278  0.5898 -0.4677
 1405SOL    MW4 5668   3.827   1.546   2.377 -0.0594 -0.0483  0.1493
 1406SOL     OW 5669   3.616   1.686   2.272 -0.0934 -0.5380 -0.1462
 1406SOL    HW2 5670   3.538   1.650   2.315  0.0730 -0.2345  0.4214
 1406SOL    HW3 5671   3.594   1.688   2.179 -0.4408 -1.2701 -0.0893
 1406SOL    MW4 5672   3.603   1.681   2.266 -0.1175 -0.5945 -0.0639
 1407SOL     OW 5673   3.537   1.948   2.366 -0.0336 -0.3055 -0.0469
 1407SOL    HW2 5674   3.622   1.989   2.352  0.2440 -0.8258  0.1285
 1407SOL    HW3 5675   3.548   1.858   2.337 -0.2562 -0.6265  0.8272
 1407SOL    MW4 5676   3.549   1.942   2.361 -0.0265 -0.4165  0.0916
 1408SOL     OW 5677   3.783   2.061   2.325 -0.0243 -0.1204 -0.4556
 1408SOL    HW2 5678   3.856   2.016   2.367 -0.2431 -0.1492 -0.1050
 1408SOL    HW3 5679   3.803   2.056   2.231 -0.3227 -1.4233 -0.4500
 1408SOL    MW4 5680   3.795   2.054   2.318 -0.0925 -0.2961 -0.4086
 1409SOL     OW 5681   3.861   2.320   2.377  0.0068 -0.0936  0.4142
 1409SOL    HW2 5682   3.785   2.358   2.334  1.8823  1.5855 -1.5517
 1409SOL    HW3 5683   3.851   2.226   2.365 -1.7327  0.1026  0.1860
 1409SOL    MW4 5684   3.850   2.313   2.370  0.0246  0.1538  0.1249
 1410SOL     OW 5685   3.608   2.447   2.266 -0.1933 -0.0807 -0.3911
 1410SOL    HW2 5686   3.529   2.413   2.308  1.6928 -2.7224  1.1455
 1410SOL    HW3 5687   3.588   2.445   2.172 -2.6296  1.1678  0.0532
 1410SOL    MW4 5688   3.595   2.443   2.259 -0.2658 -0.2644 -0.1299
 1411SOL     OW 5689   3.623   2.705   2.393  0.2443 -0.1578  0.1461
 1411SOL    HW2 5690   3.618   2.619   2.351 -0.4506 -0.1955  0.2866
 1411SOL    HW3 5691   3.551   2.754   2.353 -0.9617 -0.4663  1.9030
 1411SOL    MW4 5692   3.612   2.700   2.382 -0.0067 -0.2036  0.3965
 1412SOL     OW 5693   3.822   2.857   2.277  0.4395  0.4234 -0.4930
 1412SOL    HW2 5694   3.816   2.945   2.313 -0.4358 -0.3024  1.1636
 1412SOL    HW3 5695   3.752   2.808   2.319  1.1205 -1.1686 -1.1421
 1412SOL    MW4 5696   3.812   2.862   2.287  0.4137  0.1178 -0.3605
 1413SOL     OW 5697   3.792   3.120   2.368 -0.6146 -0.0236  0.1377
 1413SOL    HW2 5698   3.778   3.112   2.462 -0.9197 -0.5872  0.0489
 1413SOL    HW3 5699   3.886   3.133   2.358 -0.5577 -0.1671  0.5085
 1413SOL    MW4 5700   3.803   3.120   2.379 -0.6475 -0.1171  0.1748
 1414SOL     OW 5701   3.579   3.295   2.318  0.0940  0.1787  0.2636
 1414SOL    HW2 5702   3.585   3.390   2.331 -1.8420  0.4699 -0.8888
 1414SOL    HW3 5703   3.666   3.263   2.341  0.8037  2.2451  0.5799
 1414SOL    MW4 5704   3.592   3.303   2.323 -0.0679  0.4900  0.1533
 1415SOL     OW 5705   3.576   3.558   2.350  0.2564  0.1109  0.0044
 1415SOL    HW2 5706   3.563   3.548   2.444  1.6040  1.6166  0.3770
 1415SOL    HW3 5707   3.671   3.565   2.340  0.2604 -1.7431 -1.6637
 1415SOL    MW4 5708   3.587   3.557   2.361  0.4351  0.0648 -0.1664
 1416SOL     OW 5709   3.849   3.608   2.288  0.3502  0.4733  0.1666
 1416SOL    HW2 5710   3.833   3.696   2.323  1.4008  1.0637 -0.8095
 1416SOL    HW3 5711   3.851   3.619   2.193  1.9832 -0.3241  0.0862
 1416SOL    MW4 5712   3.847   3.621   2.280  0.7038  0.4463  0.0272
 1417SOL     OW 5713   3.806   3.858   2.397 -0.0594  0.1067  0.1416
 1417SOL    HW2 5714   3.816   3.845   2.491  0.3426  0.4605  0.1466
 1417SOL    HW3 5715   3.890   3.893   2.368  0.9315 -2.9348 -0.8751
 1417SOL    MW4 5716   3.818   3.861   2.406  0.1242 -0.2480  0.0083
 1418SOL     OW 5717   3.603   3.987   2.264  0.1705 -0.3455 -0.3117
 1418SOL    HW2 5718   3.611   4.075   2.302 -2.5583 -1.2707  2.5860
 1418SOL    HW3 5719   3.668   3.935   2.311  0.3361 -0.3563 -0.5517
 1418SOL    MW4 5720   3.613   3.992   2.275 -0.1678 -0.4690  0.0393
 1419SOL     OW 5721   3.628   4.229   2.388 -0.6012  0.9451  0.6159
 1419SOL    HW2 5722   3.700   4.271   2.341 -1.3703 -0.6282 -2.0780
 1419SOL    HW3 5723   3.557   4.293   2.385 -0.3162  1.2628  0.5623
 1419SOL    MW4 5724   3.628   4.243   2.382 -0.6649  0.7796  0.2534
 1420SOL     OW 5725   3.858   4.348   2.291 -0.2697  0.1382 -0.4053
 1420SOL    HW2 5726   3.928   4.297   2.332 -1.3103 -1.4800 -0.5918
 1420SOL    HW3 5727   3.850   4.426   2.346  0.4578 -0.5239  0.6566
 1420SOL    MW4 5728   3.866   4.352   2.304 -0.3111 -0.1626 -0.2899
 1421SOL     OW 5729   4.286   4.623   2.407 -0.1580  0.1750  0.1211
 1421SOL    HW2 5730   4.292   4.618   2.502 -0.2450 -0.3476  0.0985
 1421SOL    HW3 5731   4.366   4.669   2.381 -0.4402  0.8736  0.4925
 1421SOL    MW4 5732   4.298   4.628   2.416 -0.2065  0.1984  0.1674
 1422SOL     OW 5733   4.052   0.098   2.324 -0.3567  0.1393 -0.3429
 1422SOL    HW2 5734   4.065   0.188   2.353 -0.7217  0.7800 -2.0945
 1422SOL    HW3 5735   4.134   0.053   2.345  0.3353  1.2278 -0.7011
 1422SOL    MW4 5736   4.065   0.104   2.330 -0.3138  0.3674 -0.6213
 1423SOL     OW 5737   4.092   0.369   2.418  0.4458  0.3968  0.1690
 1423SOL    HW2 5738   4.160   0.421   2.375  0.6686 -0.8263 -1.0251
 1423SOL    HW3 5739   4.010   0.398   2.378  0.5764 -0.2004 -0.5437
 1423SOL    MW4 5740   4.090   0.380   2.407  0.4921  0.1566 -0.0825
 1424SOL     OW 5741   4.286   0.528   2.271  0.0072 -0.1515 -0.2587
 1424SOL    HW2 5742   4.298   0.618   2.299  0.7168  0.2219 -1.7124
 1424SOL    HW3 5743   4.365   0.482   2.301 -1.2596 -0.7651  2.2607
 1424SOL    MW4 5744   4.298   0.534   2.279 -0.0663 -0.1832 -0.1178
 1425SOL     OW 5745   4.272   0.774   2.398  0.2867  0.3966  0.4840
 1425SOL    HW2 5746   4.191   0.808   2.361  0.7363  0.6701 -0.2664
 1425SOL    HW3 5747   4.340   0.833   2.365  0.9904 -0.8332 -0.2877
 1425SOL    MW4 5748   4.271   0.786   2.389  0.4387  0.2705  0.2835
 1426SOL     OW 5749   4.016   0.850   2.280  0.0595 -0.1989  0.4317
 1426SOL    HW2 5750   4.004   0.934   2.324 -2.8180 -0.3918  0.0890
 1426SOL    HW3 5751   4.014   0.871   2.187  1.2197 -0.4230  0.3516
 1426SOL    MW4 5752   4.014   0.864   2.274 -0.1674 -0.2539  0.3760
 1427SOL     OW 5753   4.010   1.106   2.386  0.3834  0.0198  0.2755
 1427SOL    HW2 5754   4.003   1.094   2.481 -0.4217 -0.1387  0.2018
 1427SOL    HW3 5755   3.934   1.160   2.363  0.2771 -0.3806 -0.3438
 1427SOL    MW4 5756   3.999   1.111   2.396  0.2630 -0.0539  0.1841
 1428SOL     OW 5757   4.235   1.274   2.303 -0.2057 -0.2714  0.1294
 1428SOL    HW2 5758   4.171   1.216   2.344 -0.6423  0.6550  0.7793
 1428SOL    HW3 5759   4.320   1.241   2.333 -0.3873 -1.3264 -0.5062
 1428SOL    MW4 5760   4.238   1.262   2.312 -0.2871 -0.2885  0.1314
 1429SOL     OW 5761   4.250   1.538   2.378 -0.3012  0.1213 -0.3036
 1429SOL    HW2 5762   4.243   1.449   2.344 -0.5714  0.3718 -0.8896
 1429SOL    HW3 5763   4.329   1.573   2.337 -0.8220  0.5440 -0.9411
 1429SOL    MW4 5764   4.260   1.531   2.368 -0.4053  0.2100 -0.4649
 1430SOL     OW 5765   4.034   1.708   2.311 -0.0821  0.1829 -0.3934
 1430SOL    HW2 5766   4.118   1.663   2.321  0.1694  1.1274  2.1280
 1430SOL    HW3 5767   3.968   1.642   2.333  0.0193 -0.3648 -1.7041
 1430SOL    MW4 5768   4.036   1.693   2.315 -0.0353  0.2351 -0.2334
 1431SOL     OW 5769   4.038   1.965   2.390  0.0495 -0.2904  0.0364
 1431SOL    HW2 5770   4.033   1.956   2.485 -2.4275  0.3208 -0.0028
 1431SOL    HW3 5771   4.032   1.875   2.357 -1.0668 -0.3541  0.4015
 1431SOL    MW4 5772   4.037   1.952   2.398 -0.4253 -0.2182  0.0792
 1432SOL     OW 5773   4.238   2.128   2.269 -0.1778 -0.4222 -0.1680
 1432SOL    HW2 5774   4.261   2.211   2.311 -0.1429 -0.8571  0.7028
 1432SOL    HW3 5775   4.167   2.093   2.323 -1.4944 -0.0527 -1.6607
 1432SOL    MW4 5776   4.232   2.134   2.282 -0.3467 -0.4308 -0.2501
 1433SOL     OW 5777   4.288   2.365   2.404 -0.2624 -0.5014 -0.3120
 1433SOL    HW2 5778   4.212   2.392   2.351 -0.2037  2.1945  0.8765
 1433SOL    HW3 5779   4.364   2.399   2.356  0.0331 -1.2119 -0.3450
 1433SOL    MW4 5780   4.288   2.373   2.391 -0.2155 -0.2394 -0.1595
 1434SOL     OW 5781   4.068   2.462   2.277  0.1903 -0.3271 -0.0437
 1434SOL    HW2 5782   4.069   2.548   2.320 -0.0346 -0.1298 -0.4248
 1434SOL    HW3 5783   3.999   2.414   2.321 -0.6799  0.2055 -0.8059
 1434SOL    MW4 5784   4.059   2.467   2.288  0.0458 -0.2306 -0.1945
 1435SOL     OW 5785   4.055   2.719   2.380 -0.0426 -0.7132  0.6191
 1435SOL    HW2 5786   4.051   2.744   2.472 -0.1508 -1.0716  0.7130
 1435SOL    HW3 5787   3.984   2.769   2.339 -0.4878 -1.1379  0.8700
 1435SOL    MW4 5788   4.045   2.729   2.387 -0.1154 -0.8163  0.6645
 1436SOL     OW 5789   4.278   2.830   2.261 -0.3944  0.0366 -0.3341
 1436SOL    HW2 5790   4.210   2.781   2.307  0.0524 -0.4756 -0.2044
 1436SOL    HW3 5791   4.360   2.797   2.298 -0.0316 -0.3119 -1.4233
 1436SOL    MW4 5792   4.280   2.819   2.272 -0.2875 -0.0770 -0.4606
 1437SOL     OW 5793   4.255   3.074   2.412 -0.6801  0.3894 -0.0816
 1437SOL    HW2 5794   4.265   2.983   2.382 -0.3148 -0.1989  1.7374
 1437SOL    HW3 5795   4.328   3.120   2.371  0.0261 -0.4750  0.1739
 1437SOL    MW4 5796   4.266   3.068   2.403 -0.5388  0.1976  0.1919
 1438SOL     OW 5797   4.038   3.201   2.306 -0.1271 -0.2200 -0.6070
 1438SOL    HW2 5798   4.027   3.284   2.354  2.3357 -0.3613  0.2959
 1438SOL    HW3 5799   4.115   3.161   2.346 -0.6388 -2.4524 -1.7827
 1438SOL    MW4 5800   4.047   3.207   2.318  0.1307 -0.5329 -0.6430
 1439SOL     OW 5801   4.020   3.436   2.437 -0.0888  0.3431  0.1148
 1439SOL    HW2 5802   4.012   3.458   2.530  1.0216  1.1358  0.0263
 1439SOL    HW3 5803   3.954   3.489   2.394  0.3300  1.0107  0.2936
 1439SOL    MW4 5804   4.010   3.446   2.444  0.1135  0.5357  0.1268
 1440SOL     OW 5805   4.270   3.564   2.323 -0.5097  0.1258  0.0050
 1440SOL    HW2 5806   4.274   3.657   2.344  0.7363  0.0199  0.2865
 1440SOL    HW3 5807   4.193   3.531   2.370  0.0255  0.6684  1.2596
 1440SOL    MW4 5808   4.260   3.572   2.332 -0.2751  0.1831  0.2079
 1441SOL     OW 5809   4.295   3.828   2.369 -0.4644 -0.6547  0.3633
 1441SOL    HW2 5810   4.292   3.861   2.458 -0.9101  0.0981  0.0774
 1441SOL    HW3 5811   4.365   3.877   2.327 -1.0792 -0.1197 -0.0436
 1441SOL    MW4 5812   4.304   3.839   2.375 -0.6042 -0.4849  0.2718
 1442SOL     OW 5813   4.055   3.981   2.315 -0.2913  0.6483 -0.2346
 1442SOL    HW2 5814   4.128   3.920   2.323  0.6108  1.6657 -0.5049
 1442SOL    HW3 5815   4.047   3.996   2.220 -0.5506  0.8945 -0.1749
 1442SOL    MW4 5816   4.063   3.975   2.303 -0.2069  0.8152 -0.2623
 1443SOL     OW 5817   4.070   4.241   2.428 -0.0858  0.2547  0.0773
 1443SOL    HW2 5818   4.142   4.289   2.387 -0.3657 -0.6846 -1.5385
 1443SOL    HW3 5819   4.076   4.152   2.393 -1.1969 -0.2069  0.9886
 1443SOL    MW4 5820   4.080   4.235   2.418 -0.2694  0.0691 -0.0157
 1444SOL     OW 5821   4.271   4.371   2.260  0.0811  0.0362 -0.1029
 1444SOL    HW2 5822   4.281   4.462   2.288  2.2628  0.4948 -2.2135
 1444SOL    HW3 5823   4.351   4.328   2.290 -0.9201 -1.2190  0.8508
 1444SOL    MW4 5824   4.283   4.377   2.268  0.2365 -0.0687 -0.2558
 1445SOL     OW 5825   0.237   0.012   2.650  0.2960  0.2136  0.1755
 1445SOL    HW2 5826   0.232  -0.079   2.680 -0.3188  0.2130  0.0798
 1445SOL    HW3 5827   0.160   0.054   2.687 -0.5438  0.1836 -1.4847
 1445SOL    MW4 5828   0.227   0.006   2.659  0.1041  0.2093 -0.0563
 1446SOL     OW 5829   0.009   0.114   2.734 -0.0115  0.0914 -0.0911
 1446SOL    HW2 5830   0.004   0.114   2.830 -0.9889  0.3737 -0.1408
 1446SOL    HW3 5831   0.003   0.207   2.711  0.5516  0.0507 -0.4173
 1446SOL    MW4 5832   0.008   0.127   2.744 -0.0662  0.1233 -0.1409
 1447SOL     OW 5833   4.477   0.378   2.642 -0.0967 -0.0524 -0.2169
 1447SOL    HW2 5834   4.549   0.429   2.680 -0.5315  0.2395  0.2271
 1447SOL    HW3 5835   4.489   0.385   2.548 -0.1257  0.8444 -0.1582
 1447SOL    MW4 5836   4.488   0.385   2.635 -0.1583  0.1044 -0.1507
 1448SOL     OW 5837   0.206   0.513   2.729 -0.1637  0.0842  0.4672
 1448SOL    HW2 5838   0.226   0.511   2.822  1.3348 -0.4723  0.1416
 1448SOL    HW3 5839   0.284   0.478   2.686 -0.5151  1.0881 -1.0560
 1448SOL    MW4 5840   0.219   0.508   2.736 -0.0123  0.1432  0.2234
 1449SOL     OW 5841   0.204   0.767   2.682  0.2312  0.1127  0.0037
 1449SOL    HW2 5842   0.297   0.788   2.692  0.0826  0.7840  0.0052
 1449SOL    HW3 5843   0.199   0.673   2.695  0.7611  0.2296  1.0667
 1449SOL    MW4 5844   0.215   0.757   2.685  0.2815  0.2167  0.1440
 1450SOL     OW 5845   0.001   0.917   2.810  0.0214  0.2951  0.0595
 1450SOL    HW2 5846  -0.074   0.870   2.775  0.8266  0.0676 -1.4206
 1450SOL    HW3 5847   0.077   0.868   2.779  0.8332  1.5967 -0.0776
 1450SOL    MW4 5848   0.001   0.905   2.801  0.2351  0.4368 -0.1540
 1451SOL     OW 5849   4.476   1.147   2.663  0.3071  0.0924 -0.2040
 1451SOL    HW2 5850   4.551   1.189   2.705  0.8060 -0.9983  0.0202
 1451SOL    HW3 5851   4.481   1.055   2.691 -0.8408 -0.0971 -0.5686
 1451SOL    MW4 5852   4.486   1.141   2.673  0.2217 -0.0765 -0.2227
 1452SOL     OW 5853   0.209   1.257   2.780 -0.2291  0.5164  0.3266
 1452SOL    HW2 5854   0.291   1.216   2.754 -1.1381 -1.0336 -0.1722
 1452SOL    HW3 5855   0.209   1.342   2.735 -0.2808 -0.7476 -2.0973
 1452SOL    MW4 5856   0.220   1.263   2.771 -0.3558  0.1452 -0.0591
 1453SOL     OW 5857   0.207   1.525   2.634 -0.0489 -0.3484  0.1720
 1453SOL    HW2 5858   0.282   1.581   2.659  0.3522 -0.7118 -0.2070
 1453SOL    HW3 5859   0.131   1.581   2.647  0.2300 -0.2098  1.2771
 1453SOL    MW4 5860   0.207   1.540   2.639  0.0408 -0.3780  0.2677
 1454SOL     OW 5861   4.475   1.661   2.730 -0.1950 -0.2868  0.1120
 1454SOL    HW2 5862   4.467   1.665   2.825 -2.4481  0.0771 -0.0654
 1454SOL    HW3 5863   4.461   1.751   2.701  0.9137 -0.3222 -0.5453
 1454SOL    MW4 5864   4.472   1.673   2.739 -0.3460 -0.2433  0.0019
 1455SOL     OW 5865   4.436   1.936   2.650 -0.5887  0.3156  0.4339
 1455SOL    HW2 5866   4.518   1.984   2.655 -0.0531 -0.7156  2.0791
 1455SOL    HW3 5867   4.407   1.947   2.559  0.7978  1.5937  0.1234
 1455SOL    MW4 5868   4.443   1.943   2.639 -0.3347  0.3483  0.6099
 1456SOL     OW 5869   0.180   2.082   2.708 -0.5198 -0.2298  0.1105
 1456SOL    HW2 5870   0.255   2.028   2.680 -0.0567  0.0295  0.8337
 1456SOL    HW3 5871   0.199   2.169   2.673 -0.5419 -0.1933  0.1891
 1456SOL    MW4 5872   0.193   2.086   2.700 -0.4617 -0.1905  0.2160
 1457SOL     OW 5873   0.202   2.348   2.639  0.1088  0.1425 -0.7324
 1457SOL    HW2 5874   0.281   2.385   2.679  0.0821 -1.4599  0.8487
 1457SOL    HW3 5875   0.130   2.384   2.690  0.0067 -0.8883 -0.1273
 1457SOL    MW4 5876   0.203   2.358   2.651  0.0918 -0.2048 -0.4442
 1458SOL     OW 5877   4.469   2.474   2.766 -0.1658 -0.3499 -0.4806
 1458SOL    HW2 5878   4.460   2.478   2.861 -0.5167  1.0092 -0.5578
 1458SOL    HW3 5879   4.399   2.417   2.737 -0.4549 -0.2543  0.0304
 1458SOL    MW4 5880   4.459   2.467   2.775 -0.2503 -0.1581 -0.4234
 1459SOL     OW 5881   4.481   2.741   2.698  0.2335 -0.1232 -0.3824
 1459SOL    HW2 5882   4.400   2.782   2.728  0.3890 -1.0221  1.2959
 1459SOL    HW3 5883   4.474   2.650   2.726  2.1288 -0.0479  0.3820
 1459SOL    MW4 5884   4.470   2.735   2.705  0.5035 -0.2317 -0.0601
 1460SOL     OW 5885   0.229   2.851   2.767 -0.1880  0.1090  0.0450
 1460SOL    HW2 5886   0.228   2.937   2.725 -0.6579 -0.2757 -0.7439
 1460SOL    HW3 5887   0.145   2.811   2.742 -0.4615 -0.1371  1.3344
 1460SOL    MW4 5888   0.218   2.857   2.758 -0.2861  0.0260  0.1109
 1461SOL     OW 5889   0.178   3.128   2.680  0.0669 -0.2539  0.0915
 1461SOL    HW2 5890   0.262   3.155   2.718  0.8727 -2.2462 -0.2312
 1461SOL    HW3 5891   0.193   3.133   2.585 -0.4388  0.1046  0.0253
 1461SOL    MW4 5892   0.191   3.132   2.672  0.1065 -0.4697  0.0398
 1462SOL     OW 5893   4.475   3.279   2.813  0.3390 -0.6057  0.5863
 1462SOL    HW2 5894   4.399   3.228   2.785  0.7294 -0.4172 -0.8930
 1462SOL    HW3 5895   4.549   3.238   2.769  0.9702 -0.2211  1.2816
 1462SOL    MW4 5896   4.474   3.267   2.803  0.4740 -0.5300  0.4828
 1463SOL     OW 5897   4.438   3.512   2.656  0.3555  0.3605 -0.3534
 1463SOL    HW2 5898   4.524   3.543   2.684 -0.1996  1.2608  0.3922
 1463SOL    HW3 5899   4.430   3.425   2.695  1.0041  0.2041 -0.5706
 1463SOL    MW4 5900   4.448   3.505   2.665  0.3672  0.4587 -0.2840
 1464SOL     OW 5901   0.189   3.599   2.743 -0.4555  0.0744  0.5799
 1464SOL    HW2 5902   0.187   3.564   2.832 -2.8575 -1.9568 -0.2246
 1464SOL    HW3 5903   0.266   3.557   2.703 -0.8977 -1.0656  0.9045
 1464SOL    MW4 5904   0.199   3.589   2.749 -0.8308 -0.3438  0.5164
 1465SOL     OW 5905   0.223   3.857   2.655 -0.3637 -0.4427  0.5023
 1465SOL    HW2 5906   0.211   3.777   2.705 -2.1133 -0.4365  0.1144
 1465SOL    HW3 5907   0.228   3.828   2.564 -0.7636 -0.1289  0.3794
 1465SOL    MW4 5908   0.222   3.843   2.649 -0.6473 -0.4005  0.4349
 1466SOL     OW 5909   0.021   4.008   2.761 -0.1484 -0.2697 -0.0433
 1466SOL    HW2 5910   0.037   4.098   2.734  0.4325 -0.3906 -0.1081
 1466SOL    HW3 5911   0.088   3.957   2.716 -0.6936 -0.7821 -0.2862
 1466SOL    MW4 5912   0.032   4.013   2.752 -0.1437 -0.3533 -0.0839
 1467SOL     OW 5913   0.039   4.284   2.642 -0.0441  0.1575 -0.1146
 1467SOL    HW2 5914  -0.037   4.295   2.699 -0.6603  0.7356 -1.0409
 1467SOL    HW3 5915   0.103   4.346   2.677  0.9237 -2.0428  2.1800
 1467SOL    MW4 5916   0.037   4.294   2.654  0.0023 -0.0567  0.0663
 1468SOL     OW 5917   0.257   4.419   2.755 -0.1436 -0.0610 -0.0299
 1468SOL    HW2 5918   0.231   4.414   2.847  0.1961 -1.2993  0.0147
 1468SOL    HW3 5919   0.324   4.351   2.746  0.8717  1.0362 -0.8585
 1468SOL    MW4 5920   0.262   4.409   2.766  0.0352 -0.0796 -0.1333
 1469SOL     OW 5921   0.654   0.011   2.665 -0.5790 -0.3020 -0.6761
 1469SOL    HW2 5922   0.737   0.053   2.690 -0.4873 -0.0119 -1.4720
 1469SOL    HW3 5923   0.587   0.064   2.708 -0.3177 -0.9529  0.5509
 1469SOL    MW4 5924   0.656   0.024   2.674 -0.5323 -0.3495 -0.6189
 1470SOL     OW 5925   0.451   0.152   2.758 -0.5339  0.3486 -0.2323
 1470SOL    HW2 5926   0.438   0.135   2.852  1.0345 -0.0669 -0.0789
 1470SOL    HW3 5927   0.378   0.108   2.715 -1.2786  0.5541  0.7924
 1470SOL    MW4 5928   0.440   0.144   2.765 -0.4252  0.3209 -0.0770
 1471SOL     OW 5929   0.461   0.419   2.660  0.0631  0.3548 -0.5452
 1471SOL    HW2 5930   0.540   0.454   2.702 -0.9691 -0.2737  2.0229
 1471SOL    HW3 5931   0.454   0.329   2.694 -1.7815  0.4259 -0.6891
 1471SOL    MW4 5932   0.471   0.411   2.670 -0.3165  0.2812 -0.2255
 1472SOL     OW 5933   0.699   0.524   2.760 -0.0069 -0.5835  0.2318
 1472SOL    HW2 5934   0.684   0.513   2.854  0.2955 -1.0336  0.2272
 1472SOL    HW3 5935   0.767   0.460   2.738  0.4260  0.0077 -0.1601
 1472SOL    MW4 5936   0.706   0.514   2.769  0.0901 -0.5648  0.1793
 1473SOL     OW 5937   0.727   0.763   2.632  0.3487  0.6673 -0.0308
 1473SOL    HW2 5938   0.807   0.803   2.664  1.2511 -0.8206 -0.4070
 1473SOL    HW3 5939   0.730   0.673   2.664 -0.5126  0.2168 -1.1822
 1473SOL    MW4 5940   0.738   0.756   2.640  0.3541  0.4115 -0.2322
 1474SOL     OW 5941   0.474   0.882   2.677 -0.4191 -0.1179  0.1810
 1474SOL    HW2 5942   0.489   0.976   2.662  0.1034 -0.1114  0.7197
 1474SOL    HW3 5943   0.562   0.844   2.680 -0.6692 -0.9796 -2.1911
 1474SOL    MW4 5944   0.488   0.890   2.676 -0.3831 -0.2307 -0.0608
 1475SOL     OW 5945   0.484   1.166   2.655  0.4876  0.2338 -0.0358
 1475SOL    HW2 5946   0.548   1.220   2.702  1.3305 -1.1712  0.4549
 1475SOL    HW3 5947   0.487   1.199   2.565  0.5416  1.4018  0.3828
 1475SOL    MW4 5948   0.493   1.177   2.649  0.6059  0.2025  0.0839
 1476SOL     OW 5949   0.704   1.307   2.770  0.8326  0.0657  0.5554
 1476SOL    HW2 5950   0.714   1.316   2.864 -0.2673  1.2432  0.5764
 1476SOL    HW3 5951   0.771   1.244   2.744  2.1409  0.8778  1.9126
 1476SOL    MW4 5952   0.714   1.300   2.779  0.8602  0.3281  0.7372
 1477SOL     OW 5953   0.666   1.524   2.598  0.0970  0.3792  0.0743
 1477SOL    HW2 5954   0.601   1.582   2.638  0.0377  0.3723 -0.0102
 1477SOL    HW3 5955   0.676   1.452   2.660  0.6789  0.8230  0.5009
 1477SOL    MW4 5956   0.659   1.522   2.611  0.1659  0.4368  0.1194
 1478SOL     OW 5957   0.451   1.649   2.721  0.4501  0.3035  0.0765
 1478SOL    HW2 5958   0.419   1.651   2.811 -0.3509  0.9377 -0.2205
 1478SOL    HW3 5959   0.435   1.737   2.688 -0.2177 -0.2294 -1.0241
 1478SOL    MW4 5960   0.445   1.661   2.729  0.2563  0.3169 -0.1080
 1479SOL     OW 5961   0.400   1.912   2.634 -0.0596 -0.0545 -0.6729
 1479SOL    HW2 5962   0.475   1.952   2.677  0.1257 -0.6675 -0.4266
 1479SOL    HW3 5963   0.421   1.917   2.540  0.5511 -0.7601 -0.5721
 1479SOL    MW4 5964   0.412   1.918   2.627  0.0454 -0.2284 -0.6270
 1480SOL     OW 5965   0.610   2.079   2.749  0.1271  0.6156  0.6291
 1480SOL    HW2 5966   0.618   2.098   2.843 -0.8029 -0.3967  0.9232
 1480SOL    HW3 5967   0.683   2.020   2.731 -1.0801 -1.0998  1.2533
 1480SOL    MW4 5968   0.621   2.074   2.759 -0.1549  0.2561  0.7503
 1481SOL     OW 5969   0.616   2.335   2.625 -0.5330 -0.0052 -0.5012
 1481SOL    HW2 5970   0.699   2.369   2.659 -1.3652  1.5583  0.0203
 1481SOL    HW3 5971   0.603   2.252   2.671  0.7175 -0.2453 -0.5638
 1481SOL    MW4 5972   0.625   2.329   2.636 -0.4778  0.1695 -0.4408
 1482SOL     OW 5973   0.422   2.499   2.720  0.0161 -0.2849  0.2444
 1482SOL    HW2 5974   0.426   2.590   2.690  1.7420 -0.3154  0.3227
 1482SOL    HW3 5975   0.493   2.455   2.672  0.1265 -1.2542  1.2744
 1482SOL    MW4 5976   0.432   2.505   2.710  0.2584 -0.4165  0.3905
 1483SOL     OW 5977   0.452   2.758   2.642  0.1801  0.1210 -0.3335
 1483SOL    HW2 5978   0.528   2.793   2.689  0.8915 -0.9771 -0.6522
 1483SOL    HW3 5979   0.378   2.776   2.700  0.7984  0.4984  0.3430
 1483SOL    MW4 5980   0.453   2.765   2.656  0.3555  0.0260 -0.2863
 1484SOL     OW 5981   0.688   2.831   2.796  0.3290  0.2108 -0.4456
 1484SOL    HW2 5982   0.674   2.824   2.891  3.1418 -0.7861 -0.0579
 1484SOL    HW3 5983   0.701   2.924   2.781  0.4832  0.3071  0.2527
 1484SOL    MW4 5984   0.687   2.842   2.807  0.7204  0.0920 -0.3026
 1485SOL     OW 5985   0.690   3.076   2.689 -0.3517  0.2738 -0.1489
 1485SOL    HW2 5986   0.768   3.124   2.719 -0.0346 -0.7078  0.5991
 1485SOL    HW3 5987   0.693   3.085   2.593  0.9653 -0.1974 -0.1669
 1485SOL    MW4 5988   0.701   3.084   2.680 -0.1361  0.0823 -0.0527
 1486SOL     OW 5989   0.439   3.213   2.752 -0.2443 -0.7483 -0.2532
 1486SOL    HW2 5990   0.441   3.212   2.848  0.5350  1.1355 -0.2185
 1486SOL    HW3 5991   0.514   3.158   2.727 -1.0606 -2.0872  0.1932
 1486SOL    MW4 5992   0.449   3.206   2.762 -0.2492 -0.6766 -0.1898
 1487SOL     OW 5993   0.408   3.465   2.671 -0.1549  0.1627 -0.0511
 1487SOL    HW2 5994   0.412   3.372   2.694 -0.4868  0.0325 -0.5348
 1487SOL    HW3 5995   0.412   3.467   2.576  1.6821  0.7354  0.0062
 1487SOL    MW4 5996   0.409   3.453   2.662  0.0437  0.2210 -0.1073
 1488SOL     OW 5997   0.667   3.580   2.762  0.3324  0.1529 -0.0871
 1488SOL    HW2 5998   0.687   3.567   2.854  0.6174 -1.3821 -0.3543
 1488SOL    HW3 5999   0.577   3.548   2.751 -0.4445  2.1963  0.0485
 1488SOL    MW4 6000   0.658   3.574   2.772  0.2675  0.2201 -0.1044
 1489SOL     OW 6001   0.694   3.847   2.676 -0.3996 -0.0399  0.2798
 1489SOL    HW2 6002   0.615   3.899   2.691 -1.4267 -0.5040 -3.1102
 1489SOL    HW3 6003   0.673   3.761   2.711 -1.1250  0.0325  0.0309
 1489SOL    MW4 6004   0.681   3.843   2.683 -0.6308 -0.0913 -0.2005
 1490SOL     OW 6005   0.462   3.983   2.755 -0.5538 -0.0148 -0.8611
 1490SOL    HW2 6006   0.458   4.071   2.715 -0.7250 -1.2170 -3.6221
 1490SOL    HW3 6007   0.379   3.942   2.732 -0.8073 -0.6592  1.1010
 1490SOL    MW4 6008   0.451   3.989   2.747 -0.6098 -0.2582 -0.9665
 1491SOL     OW 6009   0.496   4.254   2.656 -0.0949  0.1279 -0.2111
 1491SOL    HW2 6010   0.552   4.324   2.690 -1.2051  1.3329 -0.8039
 1491SOL    HW3 6011   0.502   4.263   2.560  0.1446 -0.9154 -0.3008
 1491SOL    MW4 6012   0.504   4.264   2.648 -0.2097  0.1493 -0.3011
 1492SOL     OW 6013   0.682   4.439   2.777  0.1618  0.2326  0.0815
 1492SOL    HW2 6014   0.758   4.393   2.739 -0.2818  1.1661 -2.0173
 1492SOL    HW3 6015   0.683   4.525   2.735 -0.7041  1.1030  1.8143
 1492SOL    MW4 6016   0.692   4.444   2.766 -0.0110  0.4706  0.0334
 1493SOL     OW 6017   1.124   4.626   2.634 -0.1197  0.2839 -0.5710
 1493SOL    HW2 6018   1.198   4.669   2.676  1.5402  0.0439 -3.1382
 1493SOL    HW3 6019   1.125   4.536   2.668 -0.3721  0.7777  0.7695
 1493SOL    MW4 6020   1.134   4.620   2.644  0.0662  0.3176 -0.7329
 1494SOL     OW 6021   0.916   0.075   2.745 -0.2282  0.3725  0.1253
 1494SOL    HW2 6022   0.929   0.078   2.840  1.8527  1.0006 -0.1651
 1494SOL    HW3 6023   0.989   0.024   2.712 -1.1297 -0.1232 -1.1297
 1494SOL    MW4 6024   0.927   0.069   2.754 -0.0727  0.3899 -0.0784
 1495SOL     OW 6025   0.886   0.337   2.657  0.0199  0.3651 -0.4758
 1495SOL    HW2 6026   0.888   0.243   2.677 -1.3249  0.5060  0.3524
 1495SOL    HW3 6027   0.884   0.341   2.562 -0.9209 -0.4769 -0.5072
 1495SOL    MW4 6028   0.886   0.325   2.647 -0.2816  0.2726 -0.3705
 1496SOL     OW 6029   1.144   0.454   2.753 -0.1910  0.5808  0.1229
 1496SOL    HW2 6030   1.145   0.547   2.727 -0.9935  0.4062 -0.5463
 1496SOL    HW3 6031   1.063   0.420   2.716  0.4536 -0.5711 -0.2493
 1496SOL    MW4 6032   1.134   0.462   2.745 -0.2117  0.4058 -0.0143
 1497SOL     OW 6033   1.130   0.717   2.682 -0.3393  0.1992  0.1583
 1497SOL    HW2 6034   1.200   0.771   2.719 -0.5858  0.2891  0.5036
 1497SOL    HW3 6035   1.135   0.732   2.588 -1.4210  2.0762  0.3785
 1497SOL    MW4 6036   1.140   0.726   2.675 -0.5145  0.4587  0.2329
 1498SOL     OW 6037   0.952   0.913   2.733 -0.3429  0.1768 -0.0949
 1498SOL    HW2 6038   0.940   0.909   2.828  2.2073  0.5797  0.2811
 1498SOL    HW3 6039   1.009   0.839   2.713  0.8758  1.3468 -1.0237
 1498SOL    MW4 6040   0.958   0.903   2.743  0.1544  0.3843 -0.1678
 1499SOL     OW 6041   0.912   1.161   2.666 -0.0490 -0.1364 -0.0183
 1499SOL    HW2 6042   0.944   1.074   2.690  0.0320 -0.1439 -0.1483
 1499SOL    HW3 6043   0.907   1.158   2.570 -0.3115 -0.0899 -0.0050
 1499SOL    MW4 6044   0.916   1.149   2.656 -0.0730 -0.1312 -0.0336
 1500SOL     OW 6045   1.138   1.289   2.753  0.3874 -0.2605 -0.4914
 1500SOL    HW2 6046   1.130   1.380   2.727 -0.5642  0.0915  1.0121
 1500SOL    HW3 6047   1.056   1.248   2.723  0.1241 -0.2744  0.2510
 1500SOL    MW4 6048   1.126   1.295   2.746  0.2272 -0.2158 -0.1950
 1501SOL     OW 6049   1.151   1.551   2.654 -0.5578  0.1042 -0.0934
 1501SOL    HW2 6050   1.063   1.590   2.655 -0.2784  0.7425  0.2186
 1501SOL    HW3 6051   1.164   1.522   2.564 -1.0334  0.1314 -0.1718
 1501SOL    MW4 6052   1.141   1.552   2.643 -0.5838  0.1919 -0.0622
 1502SOL     OW 6053   0.913   1.669   2.726 -0.3526  0.1562 -0.2744
 1502SOL    HW2 6054   0.913   1.642   2.818 -1.5376  0.1512 -0.2684
 1502SOL    HW3 6055   0.844   1.617   2.686 -0.8902  1.2874 -0.8366
 1502SOL    MW4 6056   0.904   1.658   2.733 -0.5798  0.3048 -0.3476
 1503SOL     OW 6057   0.838   1.925   2.670 -0.4421  0.1611  0.4620
 1503SOL    HW2 6058   0.905   1.984   2.706 -0.7397  0.4970  0.4698
 1503SOL    HW3 6059   0.864   1.838   2.700  0.0844  0.2703  0.3266
 1503SOL    MW4 6060   0.851   1.921   2.679 -0.4120  0.2197  0.4451
 1504SOL     OW 6061   1.091   2.025   2.741  0.3431  0.1096 -0.2197
 1504SOL    HW2 6062   1.178   1.992   2.717  0.4151  0.1767 -0.0505
 1504SOL    HW3 6063   1.090   2.115   2.711  1.1791  0.8343  1.8428
 1504SOL    MW4 6064   1.103   2.032   2.734  0.4629  0.2139  0.0746
 1505SOL     OW 6065   1.090   2.273   2.644  0.5855 -0.1956  0.5957
 1505SOL    HW2 6066   1.168   2.311   2.685  0.8925 -1.2055  0.9510
 1505SOL    HW3 6067   1.112   2.267   2.551  0.4217  0.7723  0.4900
 1505SOL    MW4 6068   1.103   2.278   2.637  0.6044 -0.2010  0.6285
 1506SOL     OW 6069   0.869   2.431   2.738  0.0964 -0.0284 -0.1586
 1506SOL    HW2 6070   0.886   2.517   2.699 -0.9399 -0.4276 -1.5265
 1506SOL    HW3 6071   0.941   2.376   2.708 -1.3219 -0.6446 -2.5391
 1506SOL    MW4 6072   0.881   2.435   2.729 -0.2274 -0.1626 -0.6533
 1507SOL     OW 6073   0.882   2.699   2.629  0.2236  0.5988 -0.0710
 1507SOL    HW2 6074   0.958   2.748   2.658 -0.0735  1.1835 -0.2775
 1507SOL    HW3 6075   0.808   2.739   2.676  0.0199  0.1357  0.0117
 1507SOL    MW4 6076   0.882   2.710   2.639  0.1575  0.6149 -0.0875
 1508SOL     OW 6077   1.106   2.824   2.735 -0.9388 -0.1164 -0.1835
 1508SOL    HW2 6078   1.113   2.829   2.830 -1.8955  0.8406 -0.1629
 1508SOL    HW3 6079   1.179   2.768   2.709 -1.9263 -2.1686  1.3034
 1508SOL    MW4 6080   1.116   2.817   2.744 -1.1952 -0.2608  0.0157
 1509SOL     OW 6081   1.148   3.096   2.642  0.0000  0.0000  0.0741
 1509SOL    HW2 6082   1.122   3.007   2.665  0.0000  0.0000  0.0672
 1509SOL    HW3 6083   1.136   3.101   2.548  0.0000  0.0000  0.0744
 1509SOL    MW4 6084   1.143   3.085   2.633  0.0000  0.0000  0.0732
 1510SOL     OW 6085   0.919   3.208   2.767  0.0000  0.0000  0.2724
 1510SOL    HW2 6086   0.903   3.287   2.715  0.0000  0.0000  0.2743
 1510SOL    HW3 6087   1.006   3.179   2.739  0.0000  0.0000  0.2670
 1510SOL    MW4 6088   0.928   3.215   2.756  0.0000  0.0000  0.2718
 1511SOL     OW 6089   0.887   3.462   2.637  0.0000  0.0000 -0.2990
 1511SOL    HW2 6090   0.961   3.509   2.677  0.0000  0.0000 -0.2999
 1511SOL    HW3 6091   0.810   3.512   2.665  0.0000  0.0000 -0.2890
 1511SOL    MW4 6092   0.887   3.475   2.646  0.0000  0.0000 -0.2980
 1512SOL     OW 6093   1.102   3.599   2.745  0.0000  0.0000 -0.0607
 1512SOL    HW2 6094   1.101   3.626   2.837  0.0000  0.0000 -0.0609
 1512SOL    HW3 6095   1.100   3.681   2.696  0.0000  0.0000 -0.0619
 1512SOL    MW4 6096   1.102   3.613   2.750  0.0000  0.0000 -0.0606
 1513SOL     OW 6097   1.098   3.851   2.653  0.0000  0.0000  0.2521
 1513SOL    HW2 6098   1.178   3.889   2.691  0.0000  0.0000  0.2496
 1513SOL    HW3 6099   1.110   3.859   2.558  0.0000  0.0000  0.2518
 1513SOL    MW4 6100   1.110   3.857   2.646  0.0000  0.0000  0.2518
 1514SOL     OW 6101   0.893   4.008   2.768  0.0000  0.0000 -0.1112
 1514SOL    HW2 6102   0.957   3.963   2.714  0.0000  0.0000 -0.1308
 1514SOL    HW3 6103   0.809   3.969   2.743  0.0000  0.0000 -0.0539
 1514SOL    MW4 6104   0.890   3.997   2.758  0.0000  0.0000 -0.1059
 1515SOL     OW 6105   0.888   4.266   2.686  0.0000  0.0000 -0.2792
 1515SOL    HW2 6106   0.892   4.173   2.710  0.0000  0.0000 -0.2756
 1515SOL    HW3 6107   0.884   4.265   2.590  0.0000  0.0000 -0.2792
 1515SOL    MW4 6108   0.888   4.254   2.676  0.0000  0.0000 -0.2789
 1516SOL     OW 6109   1.144   4.351   2.723  0.0000  0.0000  0.0517
 1516SOL    HW2 6110   1.137   4.378   2.815  0.0000  0.0000  0.0504
 1516SOL    HW3 6111   1.055   4.327   2.699  0.0000  0.0000  0.0475
 1516SOL    MW4 6112   1.131   4.351   2.732  0.0000  0.0000  0.0510
 1517SOL     OW 6113   1.593   4.643   2.657  0.0000  0.0000  0.3663
 1517SOL    HW2 6114   1.588   4.549   2.673  0.0000  0.0000  0.3835
 1517SOL    HW3 6115   1.581   4.652   2.563  0.0000  0.0000  0.3650
 1517SOL    MW4 6116   1.591   4.632   2.647  0.0000  0.0000  0.3681
 1518SOL     OW 6117   1.359   0.075   2.776 -0.2018  0.2741 -0.2118
 1518SOL    HW2 6118   1.374   0.163   2.739  0.3496  0.6755  0.9539
 1518SOL    HW3 6119   1.437   0.026   2.751 -0.3336  0.2227 -0.5295
 1518SOL    MW4 6120   1.372   0.080   2.768 -0.1464  0.3202 -0.0999
 1519SOL     OW 6121   1.362   0.324   2.643  0.3296 -0.4705  0.3867
 1519SOL    HW2 6122   1.432   0.382   2.673 -0.2117  0.7324 -0.6262
 1519SOL    HW3 6123   1.282   0.362   2.680 -0.3185  0.8928 -2.3276
 1519SOL    MW4 6124   1.360   0.337   2.652  0.1725 -0.1319 -0.1051
 1520SOL     OW 6125   1.596   0.478   2.726 -0.1604  0.6589  0.3586
 1520SOL    HW2 6126   1.674   0.454   2.676 -0.5233  0.7255 -0.2432
 1520SOL    HW3 6127   1.578   0.569   2.701 -1.5591  0.0268 -0.9842
 1520SOL    MW4 6128   1.604   0.487   2.716 -0.3927  0.5843  0.1020
 1521SOL     OW 6129   1.558   0.736   2.664  0.2635  0.7928 -0.4164
 1521SOL    HW2 6130   1.484   0.783   2.702  0.3295  0.3433  0.2848
 1521SOL    HW3 6131   1.552   0.753   2.570 -1.3082 -0.0535 -0.4891
 1521SOL    MW4 6132   1.548   0.744   2.657  0.0650  0.6218 -0.3335
 1522SOL     OW 6133   1.349   0.887   2.753  0.0697  0.2098 -0.4928
 1522SOL    HW2 6134   1.348   0.905   2.847 -1.8690 -0.4463 -0.3586
 1522SOL    HW3 6135   1.330   0.971   2.712 -0.7137  0.1718 -0.2181
 1522SOL    MW4 6136   1.346   0.901   2.760 -0.2893  0.1181 -0.4389
 1523SOL     OW 6137   1.327   1.140   2.609 -0.0846 -0.1321 -0.0482
 1523SOL    HW2 6138   1.400   1.182   2.654  0.2136  0.1365 -0.7772
 1523SOL    HW3 6139   1.249   1.172   2.654  0.2542 -0.7255  0.9920
 1523SOL    MW4 6140   1.327   1.150   2.621 -0.0006 -0.1748 -0.0072
 1524SOL     OW 6141   1.545   1.259   2.739 -0.4843 -0.4890  0.0800
 1524SOL    HW2 6142   1.570   1.302   2.821  0.3131  0.9720 -0.9090
 1524SOL    HW3 6143   1.625   1.214   2.711  0.0998  1.3753 -1.3404
 1524SOL    MW4 6144   1.559   1.259   2.746 -0.3021 -0.0503 -0.2382
 1525SOL     OW 6145   1.585   1.511   2.594 -0.0492 -0.4734  0.8566
 1525SOL    HW2 6146   1.586   1.419   2.619  0.5334 -0.6876  0.0651
 1525SOL    HW3 6147   1.553   1.511   2.504 -1.1110  0.1933  1.2306
 1525SOL    MW4 6148   1.581   1.499   2.585 -0.1124 -0.4137  0.8016
 1526SOL     OW 6149   1.378   1.655   2.756  0.0969  0.1493 -0.5441
 1526SOL    HW2 6150   1.446   1.622   2.697 -0.2105  0.1330 -0.8894
 1526SOL    HW3 6151   1.296   1.618   2.723  0.0698 -0.8674  0.6384
 1526SOL    MW4 6152   1.376   1.646   2.744  0.0528  0.0131 -0.4337
 1527SOL     OW 6153   1.330   1.915   2.683 -0.0760  0.0114 -0.1065
 1527SOL    HW2 6154   1.331   1.822   2.705  0.3048 -0.1616 -0.8373
 1527SOL    HW3 6155   1.324   1.917   2.587  1.0673  0.7315 -0.1748
 1527SOL    MW4 6156   1.329   1.903   2.673  0.1251  0.0836 -0.2117
 1528SOL     OW 6157   1.576   2.056   2.742 -0.2130 -0.1798 -0.2609
 1528SOL    HW2 6158   1.630   1.992   2.696  0.2412 -1.0875  1.4721
 1528SOL    HW3 6159   1.488   2.018   2.739  0.0870 -0.9969  0.9171
 1528SOL    MW4 6160   1.571   2.042   2.736 -0.1135 -0.4072  0.1233
 1529SOL     OW 6161   1.569   2.302   2.642  0.3703  0.0752 -0.0953
 1529SOL    HW2 6162   1.642   2.353   2.676 -0.8939  0.4932  2.0812
 1529SOL    HW3 6163   1.585   2.213   2.675  0.3023 -0.0125 -0.2957
 1529SOL    MW4 6164   1.581   2.297   2.651  0.1944  0.1187  0.1655
 1530SOL     OW 6165   1.320   2.404   2.737 -0.1227  0.0915 -0.0502
 1530SOL    HW2 6166   1.328   2.491   2.698  0.7192 -0.0592 -0.2229
 1530SOL    HW3 6167   1.402   2.360   2.715 -0.7722 -0.9502 -0.4658
 1530SOL    MW4 6168   1.332   2.409   2.729 -0.0974 -0.0656 -0.1278
 1531SOL     OW 6169   1.301   2.655   2.643  0.2857 -0.1532  0.4205
 1531SOL    HW2 6170   1.375   2.707   2.677  1.3903 -1.3349 -0.1342
 1531SOL    HW3 6171   1.305   2.669   2.548 -0.2252 -0.1884  0.3963
 1531SOL    MW4 6172   1.312   2.664   2.635  0.3641 -0.3138  0.3443
 1532SOL     OW 6173   1.536   2.811   2.730  0.2691  0.1736  0.4232
 1532SOL    HW2 6174   1.543   2.825   2.824  0.0491  0.2913  0.4215
 1532SOL    HW3 6175   1.623   2.779   2.704  0.0505 -0.7332  0.8157
 1532SOL    MW4 6176   1.549   2.809   2.739  0.2111  0.0694  0.4749
 1533SOL     OW 6177   1.577   3.087   2.663  0.4874 -0.0313  0.2563
 1533SOL    HW2 6178   1.645   3.113   2.725  1.9166  0.1390 -1.3402
 1533SOL    HW3 6179   1.559   2.995   2.684 -0.6323  0.6350  2.3287
 1533SOL    MW4 6180   1.583   3.078   2.674  0.5283  0.0789  0.3190
 1534SOL     OW 6181   1.364   3.177   2.807 -0.1339  0.0359 -0.1162
 1534SOL    HW2 6182   1.441   3.146   2.759 -0.4684 -3.4612  1.4722
 1534SOL    HW3 6183   1.290   3.149   2.754 -0.4097 -0.7661  0.6791
 1534SOL    MW4 6184   1.365   3.170   2.794 -0.2146 -0.5312  0.1986
 1535SOL     OW 6185   1.347   3.456   2.667  0.3422  0.1093  0.4392
 1535SOL    HW2 6186   1.352   3.376   2.720  0.5729  0.4655  0.9546
 1535SOL    HW3 6187   1.265   3.497   2.694 -0.1728 -0.3553 -0.4002
 1535SOL    MW4 6188   1.337   3.451   2.678  0.3047  0.0949  0.3965
 1536SOL     OW 6189   1.585   3.602   2.723 -0.2163  0.1958  0.4463
 1536SOL    HW2 6190   1.654   3.543   2.692  0.3112  1.2176 -0.3377
 1536SOL    HW3 6191   1.504   3.556   2.701  0.1945 -1.2509  1.8459
 1536SOL    MW4 6192   1.583   3.588   2.716 -0.0926  0.1397  0.5276
 1537SOL     OW 6193   1.562   3.860   2.620 -0.3731  0.0376  0.2340
 1537SOL    HW2 6194   1.493   3.903   2.671 -0.1025 -0.3559  0.9326
 1537SOL    HW3 6195   1.565   3.771   2.653 -0.4750 -0.3349 -0.7625
 1537SOL    MW4 6196   1.553   3.854   2.631 -0.3508 -0.0634  0.1945
 1538SOL     OW 6197   1.339   3.975   2.770 -0.3142 -0.1040 -0.7956
 1538SOL    HW2 6198   1.348   3.984   2.865 -1.6524  0.3414 -0.7123
 1538SOL    HW3 6199   1.346   4.064   2.737 -0.6689 -0.1739 -1.0531
 1538SOL    MW4 6200   1.341   3.988   2.778 -0.5376 -0.0546 -0.8185
 1539SOL     OW 6201   1.364   4.230   2.614 -0.0230 -0.0306 -0.1156
 1539SOL    HW2 6202   1.283   4.263   2.653 -0.0492 -0.4405  0.1767
 1539SOL    HW3 6203   1.344   4.221   2.521 -0.9058 -1.9568  0.2535
 1539SOL    MW4 6204   1.351   4.233   2.607 -0.1428 -0.3390 -0.0281
 1540SOL     OW 6205   1.600   4.368   2.684 -0.4902 -0.2936  0.5018
 1540SOL    HW2 6206   1.610   4.373   2.779  0.8004 -2.1831  0.4916
 1540SOL    HW3 6207   1.519   4.317   2.671  0.6040 -2.1181  0.6239
 1540SOL    MW4 6208   1.591   4.362   2.694 -0.1757 -0.7839  0.5169
 1541SOL     OW 6209   2.036   0.006   2.652 -0.0070  0.2572 -0.6997
 1541SOL    HW2 6210   2.128   0.027   2.669 -0.1226  0.3899 -0.2165
 1541SOL    HW3 6211   2.032  -0.012   2.558  0.5085  0.2660 -0.7243
 1541SOL    MW4 6212   2.048   0.007   2.642  0.0458  0.2761 -0.6394
 1542SOL     OW 6213   1.802   0.122   2.744 -0.0421 -0.3252 -0.1327
 1542SOL    HW2 6214   1.882   0.078   2.715  0.0227  0.1263 -0.6489
 1542SOL    HW3 6215   1.731   0.065   2.714 -0.0016  0.5033 -1.8288
 1542SOL    MW4 6216   1.803   0.109   2.736 -0.0281 -0.1564 -0.4246
 1543SOL     OW 6217   1.828   0.365   2.635  0.3755 -0.0556 -0.4655
 1543SOL    HW2 6218   1.906   0.398   2.680  0.0940  1.4792 -1.0533
 1543SOL    HW3 6219   1.815   0.277   2.670  1.7962  0.0489  0.3613
 1543SOL    MW4 6220   1.836   0.358   2.645  0.5257  0.1607 -0.4342
 1544SOL     OW 6221   2.035   0.459   2.785 -0.5009  0.4446 -0.1690
 1544SOL    HW2 6222   2.120   0.439   2.747 -0.7599  0.4268 -0.7442
 1544SOL    HW3 6223   2.021   0.552   2.766 -1.0014  0.2307 -0.8439
 1544SOL    MW4 6224   2.044   0.469   2.778 -0.6013  0.4140 -0.3343
 1545SOL     OW 6225   2.008   0.739   2.682  0.3782  0.1267 -0.3739
 1545SOL    HW2 6226   1.925   0.778   2.709  0.6159 -0.4999  1.2785
 1545SOL    HW3 6227   2.008   0.747   2.586 -0.7285  1.8466 -0.2492
 1545SOL    MW4 6228   1.997   0.746   2.673  0.2636  0.2709 -0.1395
 1546SOL     OW 6229   1.771   0.880   2.739 -0.4383 -0.1146 -0.3040
 1546SOL    HW2 6230   1.764   0.962   2.690 -1.2481 -0.9495 -1.6308
 1546SOL    HW3 6231   1.703   0.824   2.702  0.3372 -1.5122  0.3270
 1546SOL    MW4 6232   1.761   0.883   2.727 -0.4426 -0.4091 -0.3958
 1547SOL     OW 6233   1.765   1.140   2.627  0.3336 -0.3102  0.1657
 1547SOL    HW2 6234   1.851   1.170   2.656 -0.1595  0.5229  0.7736
 1547SOL    HW3 6235   1.759   1.167   2.536  0.3339  0.4752  0.3961
 1547SOL    MW4 6236   1.775   1.147   2.619  0.2686 -0.0967  0.2761
 1548SOL     OW 6237   2.031   1.259   2.708  0.0095 -0.0429  0.1244
 1548SOL    HW2 6238   2.025   1.252   2.804 -0.1244  0.5923  0.1644
 1548SOL    HW3 6239   2.109   1.207   2.686 -0.0084 -0.2665  0.5656
 1548SOL    MW4 6240   2.041   1.251   2.718 -0.0105  0.0114  0.1879
 1549SOL     OW 6241   1.993   1.524   2.588 -0.2250  0.2578 -0.3776
 1549SOL    HW2 6242   1.918   1.566   2.631 -0.0084 -0.5876  0.8619
 1549SOL    HW3 6243   1.981   1.430   2.604  0.2896 -0.0139 -1.4990
 1549SOL    MW4 6244   1.982   1.517   2.596 -0.1286  0.1105 -0.3622
 1550SOL     OW 6245   1.786   1.651   2.707 -0.0379  0.4225 -0.0992
 1550SOL    HW2 6246   1.767   1.657   2.801  0.3125 -2.3628  0.2021
 1550SOL    HW3 6247   1.715   1.598   2.671 -0.6026  2.1435 -1.5781
 1550SOL    MW4 6248   1.774   1.645   2.715 -0.0662  0.2820 -0.2546
 1551SOL     OW 6249   1.784   1.916   2.644  0.0716 -0.4238  0.1026
 1551SOL    HW2 6250   1.870   1.948   2.672  0.0870  0.9244 -1.3764
 1551SOL    HW3 6251   1.782   1.824   2.669  1.9496 -0.4528  0.1642
 1551SOL    MW4 6252   1.795   1.908   2.651  0.3214 -0.2497 -0.0844
 1552SOL     OW 6253   2.027   2.016   2.730 -0.2820 -0.2178  0.3634
 1552SOL    HW2 6254   2.011   1.996   2.822 -2.8327 -0.0816 -0.0159
 1552SOL    HW3 6255   2.041   2.111   2.728 -1.8108  0.0308  0.4463
 1552SOL    MW4 6256   2.026   2.026   2.742 -0.8202 -0.1671  0.3242
 1553SOL     OW 6257   2.044   2.305   2.671  0.1197  0.0993 -0.4396
 1553SOL    HW2 6258   2.106   2.371   2.702  0.3572 -1.3215  2.2313
 1553SOL    HW3 6259   2.038   2.320   2.576  1.3176  2.9430 -0.1075
 1553SOL    MW4 6260   2.051   2.316   2.662  0.3092  0.2871 -0.0434
 1554SOL     OW 6261   1.794   2.421   2.735  0.4943 -0.2069 -0.4496
 1554SOL    HW2 6262   1.783   2.414   2.829  2.3439  0.6507 -0.1386
 1554SOL    HW3 6263   1.876   2.374   2.717  0.1365 -0.3878 -1.6127
 1554SOL    MW4 6264   1.804   2.414   2.745  0.6912 -0.1173 -0.5620
 1555SOL     OW 6265   1.779   2.700   2.670 -0.3119  0.2587  0.1354
 1555SOL    HW2 6266   1.788   2.605   2.685 -0.3827  0.2052 -0.1578
 1555SOL    HW3 6267   1.786   2.710   2.575  1.4698  0.7378  0.2859
 1555SOL    MW4 6268   1.781   2.688   2.659 -0.0861  0.3147  0.1166
 1556SOL     OW 6269   2.007   2.824   2.736  0.4552  0.0594  0.4847
 1556SOL    HW2 6270   2.072   2.765   2.697  1.6872  1.3149  0.5765
 1556SOL    HW3 6271   1.923   2.781   2.721  1.4183 -2.2665  1.5823
 1556SOL    MW4 6272   2.004   2.811   2.729  0.7448 -0.0820  0.6413
 1557SOL     OW 6273   2.023   3.083   2.631 -0.1271 -0.4523 -0.5216
 1557SOL    HW2 6274   2.039   2.991   2.651 -1.2892 -0.6299 -0.3851
 1557SOL    HW3 6275   2.017   3.087   2.536  0.8490 -0.3570 -0.5856
 1557SOL    MW4 6276   2.024   3.072   2.621 -0.1516 -0.4632 -0.5121
 1558SOL     OW 6277   1.824   3.202   2.801  0.2702 -0.3056 -0.0096
 1558SOL    HW2 6278   1.811   3.283   2.752  1.3896 -0.5620 -0.7600
 1558SOL    HW3 6279   1.892   3.155   2.752 -1.0000 -2.1142 -0.0811
 1558SOL    MW4 6280   1.831   3.206   2.788  0.2503 -0.5779 -0.1180
 1559SOL     OW 6281   1.782   3.428   2.657  0.8815 -0.1550 -0.1983
 1559SOL    HW2 6282   1.866   3.474   2.659  0.7319  0.1752 -1.2633
 1559SOL    HW3 6283   1.765   3.414   2.564 -0.0304 -0.6203  0.0361
 1559SOL    MW4 6284   1.791   3.432   2.645  0.7415 -0.1726 -0.3080
 1560SOL     OW 6285   2.012   3.562   2.731  0.0308 -0.4455  0.5758
 1560SOL    HW2 6286   1.996   3.574   2.825  1.1358  1.3072  0.5553
 1560SOL    HW3 6287   2.101   3.527   2.727  0.0668 -0.2954  0.1600
 1560SOL    MW4 6288   2.021   3.559   2.743  0.1812 -0.1945  0.5183
 1561SOL     OW 6289   2.012   3.837   2.657 -0.1097  0.1942 -0.0441
 1561SOL    HW2 6290   1.924   3.872   2.667 -0.4366 -0.2814 -1.1902
 1561SOL    HW3 6291   2.007   3.748   2.692 -0.2799 -0.0992 -0.8053
 1561SOL    MW4 6292   2.000   3.830   2.663 -0.1752  0.0927 -0.2956
 1562SOL     OW 6293   1.779   3.984   2.728 -0.3475 -0.1407  0.0072
 1562SOL    HW2 6294   1.792   4.071   2.689 -0.9558  0.0855  0.3100
 1562SOL    HW3 6295   1.689   3.961   2.706 -0.9132  0.2623  1.7923
 1562SOL    MW4 6296   1.769   3.993   2.720 -0.5025 -0.0577  0.2828
 1563SOL     OW 6297   1.833   4.238   2.620 -0.7034  0.3887  0.1928
 1563SOL    HW2 6298   1.753   4.286   2.641 -1.5208 -1.2559  0.8570
 1563SOL    HW3 6299   1.831   4.227   2.525 -2.4015 -1.6150  0.4410
 1563SOL    MW4 6300   1.822   4.243   2.610 -1.0353 -0.0925  0.3130
 1564SOL     OW 6301   2.048   4.393   2.727 -0.1598 -0.0261 -0.3616
 1564SOL    HW2 6302   1.970   4.351   2.691  0.7963 -2.0570 -0.1355
 1564SOL    HW3 6303   2.040   4.484   2.701 -2.8910 -0.0737  0.1256
 1564SOL    MW4 6304   2.036   4.399   2.719 -0.3943 -0.2999 -0.2677
 1565SOL     OW 6305   2.527   4.613   2.636  0.4379 -0.4229  0.3515
 1565SOL    HW2 6306   2.589   4.677   2.671 -0.4982  0.5010  0.3318
 1565SOL    HW3 6307   2.524   4.630   2.542  0.0989 -0.4141  0.3629
 1565SOL    MW4 6308   2.535   4.624   2.628  0.2697 -0.3004  0.3505
 1566SOL     OW 6309   2.303   0.086   2.730  0.3949  0.4860  0.1305
 1566SOL    HW2 6310   2.295   0.107   2.823  0.2938  0.2395  0.1793
 1566SOL    HW3 6311   2.380   0.029   2.725 -0.5760 -0.8802  0.3086
 1566SOL    MW4 6312   2.312   0.081   2.742  0.2534  0.2732  0.1605
 1567SOL     OW 6313   2.265   0.348   2.663  0.4092  0.1594 -0.4132
 1567SOL    HW2 6314   2.267   0.257   2.693  0.2465  0.1654 -0.3848
 1567SOL    HW3 6315   2.277   0.341   2.568 -0.3555  0.0588 -0.5078
 1567SOL    MW4 6316   2.267   0.335   2.654  0.2871  0.1469 -0.4220
 1568SOL     OW 6317   2.470   0.529   2.753 -0.2437 -0.2335 -0.2024
 1568SOL    HW2 6318   2.472   0.622   2.733  0.4177 -0.0795  0.5557
 1568SOL    HW3 6319   2.384   0.500   2.724 -0.1519  0.4478 -1.1673
 1568SOL    MW4 6320   2.459   0.537   2.747 -0.1447 -0.1233 -0.2296
 1569SOL     OW 6321   2.501   0.787   2.662 -0.0139 -0.7710  0.1937
 1569SOL    HW2 6322   2.417   0.814   2.700  0.8177  0.0914  1.4908
 1569SOL    HW3 6323   2.486   0.788   2.568 -0.4707  2.9468  0.2210
 1569SOL    MW4 6324   2.488   0.791   2.655  0.0355 -0.1667  0.3686
 1570SOL     OW 6325   2.249   0.854   2.741 -0.2088  0.0692 -0.4743
 1570SOL    HW2 6326   2.242   0.883   2.831  0.6073 -0.2684 -0.2966
 1570SOL    HW3 6327   2.162   0.817   2.721 -0.2752 -0.2076  0.2945
 1570SOL    MW4 6328   2.236   0.853   2.750 -0.1099 -0.0119 -0.3498
 1571SOL     OW 6329   2.255   1.119   2.665 -0.0757 -0.0748 -0.5858
 1571SOL    HW2 6330   2.252   1.028   2.695  1.4033 -0.3296 -1.1515
 1571SOL    HW3 6331   2.232   1.114   2.572 -2.5430  0.4589 -0.0383
 1571SOL    MW4 6332   2.252   1.106   2.657 -0.2062 -0.0381 -0.5882
 1572SOL     OW 6333   2.445   1.283   2.768 -0.5704 -0.0951  0.2544
 1572SOL    HW2 6334   2.524   1.257   2.722  0.8545 -0.3003  2.7498
 1572SOL    HW3 6335   2.378   1.221   2.737  0.2795 -0.0415 -1.7099
 1572SOL    MW4 6336   2.446   1.271   2.758 -0.2704 -0.1150  0.3242
 1573SOL     OW 6337   2.467   1.529   2.647 -0.0607 -0.0159  0.3201
 1573SOL    HW2 6338   2.383   1.568   2.672  0.1107  0.2182  0.5385
 1573SOL    HW3 6339   2.467   1.444   2.690  0.0791  0.2404  0.8385
 1573SOL    MW4 6340   2.456   1.523   2.656 -0.0198  0.0488  0.4172
 1574SOL     OW 6341   2.206   1.622   2.738  0.6417  0.2167 -0.2216
 1574SOL    HW2 6342   2.222   1.707   2.697  0.2357 -0.6740 -2.2603
 1574SOL    HW3 6343   2.130   1.587   2.693  0.1225 -0.7647  1.3704
 1574SOL    MW4 6344   2.198   1.629   2.727  0.5195 -0.0303 -0.2804
 1575SOL     OW 6345   2.240   1.868   2.636 -0.1353  0.0562 -0.1243
 1575SOL    HW2 6346   2.169   1.922   2.670 -0.8120 -0.4888 -0.6522
 1575SOL    HW3 6347   2.227   1.868   2.541  0.8553  0.3413 -0.2659
 1575SOL    MW4 6348   2.229   1.875   2.628 -0.0939  0.0219 -0.2124
 1576SOL     OW 6349   2.465   2.006   2.720 -0.2486  0.1751  0.1160
 1576SOL    HW2 6350   2.463   2.095   2.685 -0.0360  0.2698  0.3470
 1576SOL    HW3 6351   2.394   1.961   2.674 -0.8185  0.6546  0.5086
 1576SOL    MW4 6352   2.455   2.012   2.710 -0.2961  0.2506  0.1986
 1577SOL     OW 6353   2.462   2.293   2.656  0.0144  0.1782 -0.0099
 1577SOL    HW2 6354   2.536   2.343   2.690 -0.2816  0.4552  0.2215
 1577SOL    HW3 6355   2.460   2.314   2.562  1.1058 -0.9351 -0.3011
 1577SOL    MW4 6356   2.471   2.302   2.648  0.1194  0.0682 -0.0179
 1578SOL     OW 6357   2.255   2.442   2.772 -0.4878 -0.0447 -0.2123
 1578SOL    HW2 6358   2.238   2.425   2.865  0.6303  1.1176  0.2230
 1578SOL    HW3 6359   2.320   2.376   2.748 -1.7649 -1.1958 -0.5255
 1578SOL    MW4 6360   2.262   2.431   2.781 -0.5088 -0.0432 -0.1960
 1579SOL     OW 6361   2.220   2.675   2.626  0.4987 -0.0195  0.0544
 1579SOL    HW2 6362   2.283   2.736   2.663 -0.0569  0.2306  0.6026
 1579SOL    HW3 6363   2.225   2.598   2.682 -0.4844  0.4352  0.8021
 1579SOL    MW4 6364   2.229   2.673   2.638  0.2956  0.0734  0.2253
 1580SOL     OW 6365   2.413   2.826   2.761  0.0511 -0.0115 -0.2376
 1580SOL    HW2 6366   2.498   2.788   2.740 -0.4031 -0.1401 -1.8401
 1580SOL    HW3 6367   2.425   2.920   2.746 -0.0423 -0.0038 -0.2621
 1580SOL    MW4 6368   2.426   2.834   2.756 -0.0215 -0.0274 -0.4523
 1581SOL     OW 6369   2.458   3.080   2.662 -0.4027 -0.0266  0.1116
 1581SOL    HW2 6370   2.375   3.113   2.697  0.2626  1.5078  0.2329
 1581SOL    HW3 6371   2.443   3.077   2.567 -1.4306 -2.1059  0.2885
 1581SOL    MW4 6372   2.445   3.084   2.654 -0.4506 -0.0982  0.1512
 1582SOL     OW 6373   2.228   3.201   2.768  0.4088  0.0970 -0.3036
 1582SOL    HW2 6374   2.224   3.173   2.859  0.6828  0.8292 -0.0588
 1582SOL    HW3 6375   2.144   3.172   2.731 -0.4160  1.2292  0.6122
 1582SOL    MW4 6376   2.216   3.194   2.775  0.3359  0.3426 -0.1504
 1583SOL     OW 6377   2.253   3.436   2.620  0.1026  0.1256  0.2913
 1583SOL    HW2 6378   2.340   3.456   2.654  0.5388 -0.9523 -0.1657
 1583SOL    HW3 6379   2.230   3.353   2.662 -1.5192  1.3428  1.8914
 1583SOL    MW4 6380   2.262   3.428   2.630 -0.0541  0.1440  0.4420
 1584SOL     OW 6381   2.485   3.569   2.741 -0.3558 -0.3070 -0.3872
 1584SOL    HW2 6382   2.479   3.558   2.836 -0.6226  0.9962 -0.2408
 1584SOL    HW3 6383   2.477   3.663   2.728 -0.1055 -0.4642 -1.6926
 1584SOL    MW4 6384   2.483   3.580   2.752 -0.3581 -0.1557 -0.5403
 1585SOL     OW 6385   2.459   3.834   2.670 -0.2080  0.0971 -0.7599
 1585SOL    HW2 6386   2.537   3.883   2.698 -0.2756 -0.4446  0.3881
 1585SOL    HW3 6387   2.386   3.893   2.688 -0.2624 -0.2900  0.3477
 1585SOL    MW4 6388   2.460   3.849   2.676 -0.2239 -0.0253 -0.4623
 1586SOL     OW 6389   2.249   3.991   2.748  0.0954 -0.1838 -0.0003
 1586SOL    HW2 6390   2.255   4.008   2.843 -0.0562  1.4603 -0.2604
 1586SOL    HW3 6391   2.169   3.940   2.738  0.0731 -0.3171  0.7570
 1586SOL    MW4 6392   2.240   3.987   2.759  0.0725  0.0155  0.0658
 1587SOL     OW 6393   2.258   4.237   2.634 -0.4032 -0.4082 -0.2961
 1587SOL    HW2 6394   2.253   4.145   2.662  0.6536 -0.5473 -0.5441
 1587SOL    HW3 6395   2.181   4.278   2.674  0.1558 -0.9814  1.4369
 1587SOL    MW4 6396   2.247   4.230   2.643 -0.1898 -0.5021 -0.0999
 1588SOL     OW 6397   2.482   4.359   2.742 -0.1889 -0.0811  0.1786
 1588SOL    HW2 6398   2.410   4.317   2.695  0.1158 -0.0711 -0.3029
 1588SOL    HW3 6399   2.505   4.435   2.689  1.8537 -1.4897 -1.0508
 1588SOL    MW4 6400   2.476   4.363   2.729  0.1206 -0.2656 -0.0472
 1589SOL     OW 6401   2.950   4.666   2.684 -0.4276 -0.2503  0.2444
 1589SOL    HW2 6402   3.031   4.704   2.718 -0.5886 -0.3834  0.7779
 1589SOL    HW3 6403   2.964   4.661   2.590  0.8357 -1.7478  0.4847
 1589SOL    MW4 6404   2.963   4.670   2.676 -0.2820 -0.4654  0.3464
 1590SOL     OW 6405   2.731   0.136   2.740  0.3693 -0.9658 -0.1428
 1590SOL    HW2 6406   2.717   0.124   2.834 -1.3837 -0.0351 -0.2813
 1590SOL    HW3 6407   2.815   0.092   2.724  1.0111 -0.5979  1.9590
 1590SOL    MW4 6408   2.741   0.129   2.750  0.2232 -0.7945  0.1163
 1591SOL     OW 6409   2.715   0.414   2.689  0.1456  0.2445 -0.7792
 1591SOL    HW2 6410   2.711   0.321   2.711 -0.1693  0.2015 -1.0200
 1591SOL    HW3 6411   2.632   0.449   2.719 -0.0658  0.2907 -1.4160
 1591SOL    MW4 6412   2.704   0.406   2.696  0.0763  0.2449 -0.8948
 1592SOL     OW 6413   2.948   0.565   2.746  0.1252  0.2939  0.1932
 1592SOL    HW2 6414   2.929   0.656   2.723 -0.4991 -0.1298 -0.9934
 1592SOL    HW3 6415   2.867   0.518   2.728  0.7363 -0.6634 -0.0769
 1592SOL    MW4 6416   2.935   0.571   2.741  0.1237  0.1117  0.0010
 1593SOL     OW 6417   2.898   0.807   2.616 -0.0856  0.2218  0.0050
 1593SOL    HW2 6418   2.972   0.854   2.655  0.2208 -0.6611  0.4946
 1593SOL    HW3 6419   2.821   0.850   2.653  0.1892  0.5202  0.2400
 1593SOL    MW4 6420   2.898   0.819   2.626 -0.0088  0.1447  0.1006
 1594SOL     OW 6421   2.703   0.944   2.746 -0.2646  0.1373 -0.1249
 1594SOL    HW2 6422   2.712   0.922   2.839 -1.7305  0.5827  0.1534
 1594SOL    HW3 6423   2.618   0.906   2.721  0.2991 -0.3078 -1.3833
 1594SOL    MW4 6424   2.693   0.936   2.755 -0.3836  0.1373 -0.2542
 1595SOL     OW 6425   2.685   1.209   2.664  0.3340 -0.1988  0.4470
 1595SOL    HW2 6426   2.765   1.247   2.700  0.5625 -0.4804  0.2415
 1595SOL    HW3 6427   2.684   1.119   2.698 -0.5354  0.1767  1.4685
 1595SOL    MW4 6428   2.695   1.202   2.674  0.2499 -0.1864  0.5550
 1596SOL     OW 6429   2.925   1.295   2.767  0.4188  0.2040 -0.4672
 1596SOL    HW2 6430   2.938   1.286   2.862 -0.2762 -2.2489 -0.5776
 1596SOL    HW3 6431   2.996   1.244   2.728 -0.9097 -1.0946 -1.2166
 1596SOL    MW4 6432   2.936   1.287   2.775  0.1519 -0.2911 -0.5805
 1597SOL     OW 6433   2.953   1.542   2.649  0.0896  0.4511  0.6423
 1597SOL    HW2 6434   2.872   1.585   2.676  0.2379  0.5864  0.8818
 1597SOL    HW3 6435   2.956   1.462   2.702  0.1371  0.4729  0.6729
 1597SOL    MW4 6436   2.943   1.537   2.660  0.1156  0.4717  0.6778
 1598SOL     OW 6437   2.703   1.649   2.718 -0.2445 -0.2578  0.4751
 1598SOL    HW2 6438   2.705   1.657   2.814 -1.5184  2.2841  0.3493
 1598SOL    HW3 6439   2.618   1.611   2.699 -1.0021  1.4886  0.2680
 1598SOL    MW4 6440   2.692   1.645   2.728 -0.5126  0.3080  0.4313
 1599SOL     OW 6441   2.715   1.913   2.644  0.0144 -0.0969  0.7101
 1599SOL    HW2 6442   2.723   1.822   2.673 -2.5684 -0.3922  0.5533
 1599SOL    HW3 6443   2.633   1.944   2.683 -1.5424  0.7079 -3.0585
 1599SOL    MW4 6444   2.705   1.905   2.653 -0.5319 -0.0297  0.1924
 1600SOL     OW 6445   2.885   2.078   2.792  0.3223  0.2067  0.0925
 1600SOL    HW2 6446   2.911   2.147   2.731 -0.2493  0.0403 -0.3473
 1600SOL    HW3 6447   2.817   2.029   2.745  0.1783 -0.1805  0.6999
 1600SOL    MW4 6448   2.880   2.081   2.777  0.2284  0.1333  0.1144
 1601SOL     OW 6449   2.933   2.312   2.628 -0.0102  0.1858 -0.2613
 1601SOL    HW2 6450   3.005   2.355   2.675 -0.5460  0.3313  0.4372
 1601SOL    HW3 6451   2.854   2.350   2.665 -0.5072 -1.6051  0.5684
 1601SOL    MW4 6452   2.932   2.323   2.639 -0.1466 -0.0312 -0.0596
 1602SOL     OW 6453   2.721   2.423   2.750 -0.5615  0.0508  0.3893
 1602SOL    HW2 6454   2.724   2.436   2.845 -0.7878  1.7961  0.1685
 1602SOL    HW3 6455   2.703   2.510   2.714  1.1711 -0.2641 -1.3403
 1602SOL    MW4 6456   2.719   2.436   2.758 -0.3626  0.2396  0.1321
 1603SOL     OW 6457   2.670   2.688   2.689 -0.1354  0.0103  0.0633
 1603SOL    HW2 6458   2.748   2.730   2.726 -0.0802 -0.7702  0.8551
 1603SOL    HW3 6459   2.681   2.696   2.594  0.7363  0.2142  0.1776
 1603SOL    MW4 6460   2.682   2.694   2.681 -0.0131 -0.0658  0.1829
 1604SOL     OW 6461   2.905   2.809   2.809  0.4658  0.5413 -0.1307
 1604SOL    HW2 6462   2.897   2.819   2.904 -1.2246  0.4971 -0.2559
 1604SOL    HW3 6463   2.919   2.898   2.777 -0.5991  0.7665  0.0197
 1604SOL    MW4 6464   2.906   2.822   2.817  0.1023  0.5651 -0.1273
 1605SOL     OW 6465   2.928   3.075   2.708  0.3203  0.3516 -0.3885
 1605SOL    HW2 6466   2.840   3.109   2.726 -0.4829 -1.8507  0.0465
 1605SOL    HW3 6467   2.928   3.059   2.613  0.1385  0.0917 -0.3469
 1605SOL    MW4 6468   2.916   3.077   2.698  0.1905  0.0265 -0.3257
 1606SOL     OW 6469   2.682   3.230   2.720  0.6834 -0.0916  0.0514
 1606SOL    HW2 6470   2.683   3.319   2.684 -0.3888 -0.0211  0.1737
 1606SOL    HW3 6471   2.599   3.193   2.691  0.4748 -0.5525  1.2121
 1606SOL    MW4 6472   2.671   3.237   2.712  0.5143 -0.1433  0.2205
 1607SOL     OW 6473   2.699   3.479   2.587 -0.5572  0.4859 -0.7680
 1607SOL    HW2 6474   2.620   3.526   2.613 -0.8630 -0.5404  0.2312
 1607SOL    HW3 6475   2.695   3.476   2.491 -1.2499  1.2474 -0.7692
 1607SOL    MW4 6476   2.688   3.485   2.578 -0.6888  0.4506 -0.6361
 1608SOL     OW 6477   2.913   3.620   2.719  0.0094 -0.5243 -0.5738
 1608SOL    HW2 6478   2.914   3.598   2.812 -1.5129 -0.1809 -0.4538
 1608SOL    HW3 6479   2.840   3.570   2.683 -0.4738  0.6309 -1.2368
 1608SOL    MW4 6480   2.903   3.611   2.727 -0.2551 -0.3266 -0.6454
 1609SOL     OW 6481   2.933   3.895   2.643  0.2604 -0.2544 -0.0407
 1609SOL    HW2 6482   3.014   3.925   2.684  0.3977 -0.5266 -0.1140
 1609SOL    HW3 6483   2.934   3.800   2.655  0.3767 -0.3519 -0.8191
 1609SOL    MW4 6484   2.944   3.887   2.650  0.2940 -0.3030 -0.1528
 1610SOL     OW 6485   2.686   3.989   2.720 -0.3606  0.2509  0.2301
 1610SOL    HW2 6486   2.677   4.083   2.703  1.2499  0.5312  0.8351
 1610SOL    HW3 6487   2.776   3.969   2.695 -0.5190 -1.0136  0.6621
 1610SOL    MW4 6488   2.697   3.999   2.714 -0.1688  0.1206  0.3669
 1611SOL     OW 6489   2.708   4.261   2.650  0.1385 -0.1911 -0.4629
 1611SOL    HW2 6490   2.776   4.311   2.696  0.9437 -0.0622 -1.7429
 1611SOL    HW3 6491   2.626   4.300   2.678  0.7287  1.4382 -0.9172
 1611SOL    MW4 6492   2.706   4.273   2.659  0.3226  0.0405 -0.6917
 1612SOL     OW 6493   2.930   4.388   2.760  0.6343 -0.1345 -0.0195
 1612SOL    HW2 6494   2.927   4.382   2.856 -0.8989  1.1321  0.0504
 1612SOL    HW3 6495   2.944   4.481   2.743 -0.1423 -0.1905 -1.0181
 1612SOL    MW4 6496   2.931   4.399   2.770  0.3295  0.0253 -0.1419
 1613SOL     OW 6497   3.398   4.667   2.639  0.4265  0.0300 -0.6247
 1613SOL    HW2 6498   3.391   4.580   2.679  0.5955  0.4099  0.2302
 1613SOL    HW3 6499   3.329   4.718   2.680  0.2731  0.2879 -1.1896
 1613SOL    MW4 6500   3.388   4.662   2.649  0.4284  0.1140 -0.5865
 1614SOL     OW 6501   3.189   0.104   2.783 -0.3703  0.5141 -0.3450
 1614SOL    HW2 6502   3.178   0.099   2.878  1.7126  0.0541 -0.0984
 1614SOL    HW3 6503   3.174   0.196   2.762 -2.3816  0.3378  0.1959
 1614SOL    MW4 6504   3.186   0.115   2.793 -0.3610  0.4301 -0.2410
 1615SOL     OW 6505   3.130   0.349   2.694  0.0323 -0.1255  0.0021
 1615SOL    HW2 6506   3.056   0.407   2.711 -1.2184 -1.4692 -0.7145
 1615SOL    HW3 6507   3.157   0.371   2.604  0.8250  0.6802  0.4220
 1615SOL    MW4 6508   3.124   0.360   2.684 -0.0279 -0.1965 -0.0372
 1616SOL     OW 6509   3.342   0.494   2.823  0.0487 -0.3819  0.1239
 1616SOL    HW2 6510   3.315   0.575   2.779 -1.4466 -0.3489  1.0430
 1616SOL    HW3 6511   3.272   0.432   2.801  0.2524 -0.8897  0.9231
 1616SOL    MW4 6512   3.329   0.496   2.814 -0.1214 -0.4445  0.3505
 1617SOL     OW 6513   3.366   0.772   2.693  0.3030  0.2165  0.4014
 1617SOL    HW2 6514   3.453   0.800   2.720  1.1372 -2.6539  0.8720
 1617SOL    HW3 6515   3.372   0.758   2.599  0.5145 -0.5122  0.5209
 1617SOL    MW4 6516   3.378   0.774   2.684  0.4408 -0.2583  0.4795
 1618SOL     OW 6517   3.130   0.890   2.742 -0.0639  0.2414  0.2351
 1618SOL    HW2 6518   3.143   0.889   2.837  0.3346  2.6421  0.2557
 1618SOL    HW3 6519   3.212   0.858   2.706  0.4359  0.9996  0.6818
 1618SOL    MW4 6520   3.143   0.886   2.750  0.0546  0.6582  0.2968
 1619SOL     OW 6521   3.135   1.158   2.678  0.4004 -0.0474 -0.2389
 1619SOL    HW2 6522   3.137   1.063   2.691  2.2477  0.0566  0.4370
 1619SOL    HW3 6523   3.127   1.169   2.583 -1.7853 -0.8582 -0.1722
 1619SOL    MW4 6524   3.134   1.147   2.667  0.3560 -0.1407 -0.1409
 1620SOL     OW 6525   3.387   1.267   2.805  0.6192  0.1882  0.3232
 1620SOL    HW2 6526   3.379   1.270   2.901  0.6318  1.2787  0.2945
 1620SOL    HW3 6527   3.307   1.222   2.777  1.1757 -1.1973  0.9109
 1620SOL    MW4 6528   3.375   1.261   2.814  0.6943  0.1491  0.3970
 1621SOL     OW 6529   3.400   1.498   2.653  0.3633 -0.2844  0.0618
 1621SOL    HW2 6530   3.327   1.541   2.697  0.5294 -1.4331  1.4737
 1621SOL    HW3 6531   3.417   1.420   2.704  2.4086 -0.1861 -0.4142
 1621SOL    MW4 6532   3.393   1.494   2.665  0.6549 -0.4230  0.1850
 1622SOL     OW 6533   3.198   1.674   2.715  0.0401  0.2479 -0.0412
 1622SOL    HW2 6534   3.178   1.763   2.685 -0.6817  0.4506  0.9980
 1622SOL    HW3 6535   3.119   1.624   2.693 -0.9732  0.6594  2.5235
 1622SOL    MW4 6536   3.185   1.679   2.708 -0.1888  0.3289  0.4344
 1623SOL     OW 6537   3.120   1.931   2.682 -0.1568  0.1682 -0.4366
 1623SOL    HW2 6538   3.187   1.995   2.708 -0.4918  0.8393 -1.2052
 1623SOL    HW3 6539   3.038   1.969   2.713 -0.1222 -0.9828  1.1171
 1623SOL    MW4 6540   3.118   1.945   2.689 -0.1965  0.1050 -0.3328
 1624SOL     OW 6541   3.332   2.079   2.752  0.3382 -0.5199  0.3841
 1624SOL    HW2 6542   3.326   2.101   2.845 -1.6652 -0.2458  0.2117
 1624SOL    HW3 6543   3.342   2.164   2.709 -1.3874 -0.4043  0.1714
 1624SOL    MW4 6544   3.332   2.093   2.759 -0.1538 -0.4683  0.3335
 1625SOL     OW 6545   3.367   2.342   2.653 -0.1390 -0.1338  0.0736
 1625SOL    HW2 6546   3.445   2.396   2.671 -0.4676  0.6145 -0.7013
 1625SOL    HW3 6547   3.369   2.328   2.558  0.2657 -2.0056  0.3441
 1625SOL    MW4 6548   3.378   2.348   2.643 -0.1292 -0.2818  0.0069
 1626SOL     OW 6549   3.142   2.455   2.775 -0.0866  0.2643  0.2185
 1626SOL    HW2 6550   3.153   2.544   2.741 -1.3366 -0.8694 -3.3693
 1626SOL    HW3 6551   3.216   2.406   2.738 -1.8434 -1.1589 -1.4760
 1626SOL    MW4 6552   3.153   2.460   2.765 -0.4833 -0.0730 -0.4780
 1627SOL     OW 6553   3.125   2.725   2.675  0.3733 -0.0465 -0.0281
 1627SOL    HW2 6554   3.194   2.782   2.709 -0.9682  1.0764  0.8735
 1627SOL    HW3 6555   3.047   2.752   2.722 -0.2379 -2.8721  0.6529
 1627SOL    MW4 6556   3.124   2.736   2.685  0.1154 -0.2713  0.1805
 1628SOL     OW 6557   3.347   2.867   2.768  0.1170  0.6699 -0.0081
 1628SOL    HW2 6558   3.366   2.862   2.861 -0.3271 -0.0333  0.0545
 1628SOL    HW3 6559   3.422   2.825   2.726  0.0266  0.4291  0.0709
 1628SOL    MW4 6560   3.360   2.861   2.775  0.0463  0.5455  0.0105
 1629SOL     OW 6561   3.360   3.118   2.635  0.0109  0.2413  0.0085
 1629SOL    HW2 6562   3.370   3.031   2.673 -0.9504  0.7403  1.4562
 1629SOL    HW3 6563   3.361   3.103   2.541  0.2272 -1.2957  0.2368
 1629SOL    MW4 6564   3.362   3.105   2.628 -0.0873  0.1044  0.2296
 1630SOL     OW 6565   3.136   3.246   2.740  0.2215  0.1940 -0.3056
 1630SOL    HW2 6566   3.214   3.205   2.702 -0.2038 -1.5372  0.6156
 1630SOL    HW3 6567   3.067   3.181   2.729 -1.0793  1.6836 -1.0314
 1630SOL    MW4 6568   3.137   3.232   2.734 -0.0060  0.1621 -0.2797
 1631SOL     OW 6569   3.145   3.504   2.619 -0.1317 -0.1503  0.3583
 1631SOL    HW2 6570   3.149   3.424   2.672  0.3035 -0.7465 -0.5588
 1631SOL    HW3 6571   3.065   3.548   2.648 -0.7647 -1.2810  0.3786
 1631SOL    MW4 6572   3.135   3.499   2.630 -0.1578 -0.3779  0.2401
 1632SOL     OW 6573   3.365   3.607   2.752  0.4444 -0.0692 -0.0840
 1632SOL    HW2 6574   3.354   3.604   2.847 -0.0413 -0.0017 -0.1384
 1632SOL    HW3 6575   3.290   3.557   2.718 -0.8148  2.0906 -0.5408
 1632SOL    MW4 6576   3.354   3.600   2.760  0.2141  0.2248 -0.1512
 1633SOL     OW 6577   3.410   3.875   2.676 -0.0565  0.3324  0.4491
 1633SOL    HW2 6578   3.387   3.785   2.697 -1.7402  0.5492 -0.3978
 1633SOL    HW3 6579   3.396   3.882   2.582 -0.5861  1.6621  0.6215
 1633SOL    MW4 6580   3.405   3.864   2.666 -0.3486  0.5364  0.3600
 1634SOL     OW 6581   3.157   4.010   2.763  0.4260 -0.3100 -0.6988
 1634SOL    HW2 6582   3.157   4.095   2.718 -0.3314 -0.7685 -1.5890
 1634SOL    HW3 6583   3.248   3.982   2.761  0.6576  0.4111 -0.5322
 1634SOL    MW4 6584   3.169   4.017   2.757  0.3564 -0.2756 -0.7939
 1635SOL     OW 6585   3.153   4.263   2.661  0.4581 -0.1481  0.2313
 1635SOL    HW2 6586   3.069   4.304   2.680  0.7967  0.5989  0.1185
 1635SOL    HW3 6587   3.165   4.273   2.567  0.1164 -1.3162  0.0614
 1635SOL    MW4 6588   3.144   4.270   2.651  0.4578 -0.2031  0.1941
 1636SOL     OW 6589   3.377   4.404   2.745  0.0086  0.0797  0.3921
 1636SOL    HW2 6590   3.360   4.419   2.838  1.2160 -0.6115  0.7374
 1636SOL    HW3 6591   3.301   4.356   2.713 -1.2406  1.8505  0.5983
 1636SOL    MW4 6592   3.365   4.400   2.753  0.0029  0.2222  0.4649
 1637SOL     OW 6593   3.823   4.627   2.684  0.0641 -0.2729 -0.1455
 1637SOL    HW2 6594   3.810   4.544   2.730 -0.8452 -0.5819 -0.9518
 1637SOL    HW3 6595   3.756   4.685   2.719 -1.0608 -0.7111 -1.5593
 1637SOL    MW4 6596   3.813   4.624   2.694 -0.2043 -0.3715 -0.4385
 1638SOL     OW 6597   3.609   0.147   2.758 -0.0190 -0.0525  0.4572
 1638SOL    HW2 6598   3.587   0.239   2.743 -0.2186  0.1128  1.6511
 1638SOL    HW3 6599   3.542   0.097   2.712 -1.5860  0.4317  2.1290
 1638SOL    MW4 6600   3.598   0.152   2.750 -0.2520  0.0332  0.8354
 1639SOL     OW 6601   3.532   0.410   2.628  0.4720 -0.2871 -0.1488
 1639SOL    HW2 6602   3.610   0.454   2.661 -1.0322  1.8084  0.7203
 1639SOL    HW3 6603   3.460   0.444   2.681 -1.3135 -0.7137 -2.1905
 1639SOL    MW4 6604   3.533   0.420   2.639  0.0379 -0.0670 -0.3037
 1640SOL     OW 6605   3.775   0.466   2.760  0.3352  0.2555 -0.1774
 1640SOL    HW2 6606   3.773   0.485   2.854 -0.7378 -0.2142 -0.0996
 1640SOL    HW3 6607   3.860   0.425   2.746  0.3879  0.0678  0.6453
 1640SOL    MW4 6608   3.786   0.463   2.771  0.2005  0.1688 -0.0587
 1641SOL     OW 6609   3.839   0.713   2.657 -0.0375  0.0044  0.1655
 1641SOL    HW2 6610   3.769   0.769   2.690  0.2628 -0.6409  1.9310
 1641SOL    HW3 6611   3.833   0.633   2.709  1.3386 -0.4801 -0.3945
 1641SOL    MW4 6612   3.829   0.710   2.668  0.1838 -0.1446  0.3245
 1642SOL     OW 6613   3.637   0.846   2.781  0.0577  0.1640 -0.1409
 1642SOL    HW2 6614   3.640   0.852   2.876  1.1391 -0.5065 -0.1203
 1642SOL    HW3 6615   3.628   0.937   2.751  0.0426  0.4030  0.5833
 1642SOL    MW4 6616   3.636   0.859   2.789  0.1986  0.1070 -0.0427
 1643SOL     OW 6617   3.581   1.122   2.701  0.0412  0.3290  0.1832
 1643SOL    HW2 6618   3.653   1.174   2.736 -0.1244  0.4480  0.3482
 1643SOL    HW3 6619   3.503   1.154   2.747  0.0181 -0.4463  0.6994
 1643SOL    MW4 6620   3.580   1.133   2.711  0.0165  0.2425  0.2735
 1644SOL     OW 6621   3.819   1.277   2.777 -0.3404 -0.0695  0.1794
 1644SOL    HW2 6622   3.888   1.220   2.743 -0.8182 -0.4967 -0.0652
 1644SOL    HW3 6623   3.830   1.359   2.729 -0.2594 -0.2727 -0.1492
 1644SOL    MW4 6624   3.830   1.281   2.766 -0.3927 -0.1526  0.1037
 1645SOL     OW 6625   3.832   1.545   2.635  0.2627  0.3341 -0.1486
 1645SOL    HW2 6626   3.908   1.588   2.673 -0.8744  1.9303  0.3716
 1645SOL    HW3 6627   3.757   1.590   2.674 -0.9447 -0.9437 -0.9578
 1645SOL    MW4 6628   3.832   1.556   2.645 -0.0467  0.3762 -0.1867
 1646SOL     OW 6629   3.609   1.673   2.726  0.3196 -0.1825 -0.4474
 1646SOL    HW2 6630   3.600   1.760   2.686 -0.1559  0.1214  0.3127
 1646SOL    HW3 6631   3.536   1.623   2.692  0.7319 -0.3593 -1.0754
 1646SOL    MW4 6632   3.598   1.678   2.716  0.3114 -0.1657 -0.4299
 1647SOL     OW 6633   3.545   1.933   2.662 -0.3897  0.3723 -0.4121
 1647SOL    HW2 6634   3.477   1.972   2.717  1.4187  1.8575  0.8709
 1647SOL    HW3 6635   3.527   1.967   2.574 -2.2484 -0.5668 -0.4077
 1647SOL    MW4 6636   3.534   1.943   2.658 -0.3963  0.4444 -0.2425
 1648SOL     OW 6637   3.796   2.058   2.766  0.0859  0.4040 -0.4530
 1648SOL    HW2 6638   3.871   2.008   2.735  0.1847 -0.5076  1.1989
 1648SOL    HW3 6639   3.722   1.998   2.760 -0.3085  0.9432 -1.0374
 1648SOL    MW4 6640   3.796   2.043   2.761  0.0470  0.3548 -0.3119
 1649SOL     OW 6641   3.838   2.333   2.661  0.0890  0.1418 -0.1553
 1649SOL    HW2 6642   3.814   2.246   2.692  1.6008 -0.0973  0.3961
 1649SOL    HW3 6643   3.830   2.328   2.566 -1.3262 -0.1295 -0.0228
 1649SOL    MW4 6644   3.834   2.321   2.653  0.1018  0.0746 -0.0651
 1650SOL     OW 6645   3.602   2.461   2.737 -0.1620 -0.0483  0.2497
 1650SOL    HW2 6646   3.616   2.480   2.830 -0.0171 -1.0290  0.4313
 1650SOL    HW3 6647   3.683   2.420   2.707  0.0132  0.8064 -0.4627
 1650SOL    MW4 6648   3.614   2.458   2.745 -0.1199 -0.0648  0.1800
 1651SOL     OW 6649   3.597   2.732   2.675  0.1599 -0.1651 -0.3006
 1651SOL    HW2 6650   3.602   2.640   2.702 -0.4556  0.1090  0.7802
 1651SOL    HW3 6651   3.597   2.729   2.579 -2.7998 -1.4900 -0.3176
 1651SOL    MW4 6652   3.598   2.719   2.666 -0.3116 -0.3035 -0.1602
 1652SOL     OW 6653   3.809   2.882   2.771 -0.3799  0.0208 -0.1019
 1652SOL    HW2 6654   3.878   2.841   2.720 -1.0619 -1.8840  0.4460
 1652SOL    HW3 6655   3.728   2.848   2.733 -0.9119 -0.5612  1.5251
 1652SOL    MW4 6656   3.807   2.872   2.759 -0.5403 -0.3076  0.1853
 1653SOL     OW 6657   3.794   3.109   2.633  0.1194  0.4099 -0.4286
 1653SOL    HW2 6658   3.708   3.147   2.652 -0.4110 -0.9252 -0.1059
 1653SOL    HW3 6659   3.789   3.020   2.668  1.4313  0.1246 -0.9467
 1653SOL    MW4 6660   3.782   3.102   2.640  0.2224  0.1962 -0.4547
 1654SOL     OW 6661   3.586   3.252   2.732 -0.2731  0.5750  0.1047
 1654SOL    HW2 6662   3.583   3.337   2.689 -2.2933  1.0588  1.1190
 1654SOL    HW3 6663   3.507   3.207   2.700 -1.1444  0.4808  2.3282
 1654SOL    MW4 6664   3.575   3.257   2.722 -0.6549  0.6263  0.5317
 1655SOL     OW 6665   3.586   3.515   2.618  0.1573 -0.0593  0.0553
 1655SOL    HW2 6666   3.660   3.546   2.670 -0.1400  1.1124 -0.1950
 1655SOL    HW3 6667   3.509   3.547   2.665 -0.0855  3.3016 -2.3868
 1655SOL    MW4 6668   3.586   3.524   2.631  0.0861  0.5391 -0.3002
 1656SOL     OW 6669   3.797   3.595   2.763 -0.1073 -0.1865  0.2168
 1656SOL    HW2 6670   3.791   3.606   2.858 -0.3742 -0.8791  0.2842
 1656SOL    HW3 6671   3.796   3.684   2.729  0.1187  0.0722  0.8739
 1656SOL    MW4 6672   3.796   3.608   2.771 -0.1128 -0.2439  0.3123
 1657SOL     OW 6673   3.837   3.854   2.665  0.0570 -0.0054 -0.5091
 1657SOL    HW2 6674   3.917   3.889   2.705 -0.5416 -0.3795  1.0211
 1657SOL    HW3 6675   3.765   3.895   2.713 -0.6591 -1.3861 -0.3813
 1657SOL    MW4 6676   3.838   3.864   2.676 -0.1163 -0.2370 -0.2904
 1658SOL     OW 6677   3.643   3.979   2.817  0.2461 -0.3435 -0.1619
 1658SOL    HW2 6678   3.653   4.068   2.782  0.1390 -0.5071 -0.6175
 1658SOL    HW3 6679   3.562   3.947   2.775  0.5347 -0.8191 -0.3528
 1658SOL    MW4 6680   3.633   3.987   2.807  0.2699 -0.4280 -0.2472
 1659SOL     OW 6681   3.611   4.244   2.705  0.1207  0.3278 -0.1390
 1659SOL    HW2 6682   3.533   4.298   2.719 -0.8618 -1.4576  1.7111
 1659SOL    HW3 6683   3.616   4.232   2.611 -2.2379 -0.0595 -0.2426
 1659SOL    MW4 6684   3.601   4.250   2.695 -0.3200  0.0410  0.0916
 1660SOL     OW 6685   3.819   4.391   2.817 -0.7084 -0.0369 -0.4911
 1660SOL    HW2 6686   3.901   4.353   2.785 -0.3303 -0.5861  1.0705
 1660SOL    HW3 6687   3.751   4.344   2.769 -0.1762 -1.2863 -0.0357
 1660SOL    MW4 6688   3.821   4.380   2.806 -0.5882 -0.2742 -0.2251
 1661SOL     OW 6689   4.298   4.606   2.680 -0.0334  0.2102  0.1671
 1661SOL    HW2 6690   4.222   4.664   2.682  0.1223  0.4323 -0.2632
 1661SOL    HW3 6691   4.374   4.665   2.680  0.1184  0.0312 -0.9914
 1661SOL    MW4 6692   4.298   4.622   2.680  0.0072  0.2165 -0.0424
 1662SOL     OW 6693   4.064   0.090   2.739  0.3053  0.0660 -0.2179
 1662SOL    HW2 6694   4.062   0.101   2.834 -0.5539  1.1760 -0.3499
 1662SOL    HW3 6695   3.979   0.050   2.718  0.5943 -0.4029 -0.4940
 1662SOL    MW4 6696   4.052   0.086   2.749  0.2303  0.1506 -0.2718
 1663SOL     OW 6697   4.017   0.346   2.685 -0.0942  0.1116 -0.2673
 1663SOL    HW2 6698   4.035   0.252   2.697  0.9226  0.3739  0.2438
 1663SOL    HW3 6699   4.039   0.363   2.593  0.9314  0.1270 -0.0183
 1663SOL    MW4 6700   4.022   0.336   2.674  0.1755  0.1482 -0.1671
 1664SOL     OW 6701   4.269   0.489   2.776  0.3110  0.3116  0.1006
 1664SOL    HW2 6702   4.187   0.445   2.752 -0.7811  2.8328 -0.8986
 1664SOL    HW3 6703   4.337   0.432   2.740 -0.9729 -1.5730  0.5217
 1664SOL    MW4 6704   4.267   0.476   2.768 -0.0029  0.3956  0.0243
 1665SOL     OW 6705   4.283   0.755   2.710 -0.2033  0.3242 -0.0982
 1665SOL    HW2 6706   4.294   0.664   2.735 -0.9176  0.7018  1.6797
 1665SOL    HW3 6707   4.273   0.753   2.615 -0.6113 -1.4824 -0.0279
 1665SOL    MW4 6708   4.283   0.743   2.701 -0.3514  0.1357  0.1457
 1666SOL     OW 6709   4.044   0.865   2.819  0.4270  0.6032  0.2106
 1666SOL    HW2 6710   4.116   0.812   2.784  0.3054  1.0783 -0.7766
 1666SOL    HW3 6711   3.965   0.817   2.794  0.3822  0.2773  0.9661
 1666SOL    MW4 6712   4.043   0.852   2.811  0.4053  0.6229  0.1802
 1667SOL     OW 6713   4.030   1.097   2.678  0.3064  0.5314 -0.0203
 1667SOL    HW2 6714   4.095   1.151   2.724 -0.7427  0.4263  1.6548
 1667SOL    HW3 6715   4.038   1.011   2.718 -0.3170  0.3116 -0.3566
 1667SOL    MW4 6716   4.039   1.093   2.690  0.0858  0.4886  0.1562
 1668SOL     OW 6717   4.249   1.263   2.769  0.2382 -0.8561 -0.3957
 1668SOL    HW2 6718   4.229   1.347   2.726  2.5605  2.3641  4.4359
 1668SOL    HW3 6719   4.333   1.237   2.732  0.0999 -0.4576 -1.0002
 1668SOL    MW4 6720   4.257   1.271   2.758  0.5264 -0.3786  0.1621
 1669SOL     OW 6721   4.243   1.510   2.652  0.0887 -0.1158  0.2843
 1669SOL    HW2 6722   4.327   1.552   2.665 -0.1938  0.5223  0.0393
 1669SOL    HW3 6723   4.222   1.524   2.560 -0.3565 -0.1405  0.3775
 1669SOL    MW4 6724   4.251   1.517   2.642 -0.0072 -0.0348  0.2644
 1670SOL     OW 6725   4.050   1.671   2.746 -0.5676  0.1471  0.3115
 1670SOL    HW2 6726   4.043   1.663   2.841  0.1456 -2.3469  0.1840
 1670SOL    HW3 6727   4.122   1.613   2.722 -0.7795  0.7098 -1.7667
 1670SOL    MW4 6728   4.058   1.663   2.755 -0.5016 -0.1075  0.0205
 1671SOL     OW 6729   4.032   1.939   2.670 -0.4165  0.2202  0.0315
 1671SOL    HW2 6730   4.098   1.987   2.720  0.4212  0.6356 -1.4320
 1671SOL    HW3 6731   4.055   1.847   2.684  0.0526  0.3415  0.0946
 1671SOL    MW4 6732   4.044   1.933   2.679 -0.2437  0.2910 -0.1533
 1672SOL     OW 6733   4.241   2.068   2.789  0.4924  0.0180 -0.1227
 1672SOL    HW2 6734   4.250   2.158   2.757  0.1419 -0.1815 -0.7877
 1672SOL    HW3 6735   4.313   2.021   2.749 -0.8637 -0.5810 -1.8807
 1672SOL    MW4 6736   4.252   2.074   2.780  0.2670 -0.0873 -0.4423
 1673SOL     OW 6737   4.249   2.332   2.684 -0.2925 -0.0355 -0.0499
 1673SOL    HW2 6738   4.170   2.382   2.707  0.6727  1.2075  0.6412
 1673SOL    HW3 6739   4.261   2.350   2.590  0.7220  2.0414  0.4461
 1673SOL    MW4 6740   4.240   2.341   2.674 -0.0315  0.4025  0.1068
 1674SOL     OW 6741   4.038   2.489   2.746 -0.3632  0.3829  0.2738
 1674SOL    HW2 6742   4.055   2.491   2.840  0.8925 -0.3361  0.0675
 1674SOL    HW3 6743   3.959   2.435   2.737 -0.3041  0.1927  0.8783
 1674SOL    MW4 6744   4.030   2.482   2.757 -0.1898  0.2630  0.3262
 1675SOL     OW 6745   4.019   2.765   2.651  0.1936  0.2270 -0.4102
 1675SOL    HW2 6746   4.089   2.799   2.708  0.1504  1.5007 -1.0994
 1675SOL    HW3 6747   4.015   2.672   2.671  1.1375  0.4079  0.6621
 1675SOL    MW4 6748   4.028   2.758   2.661  0.3123  0.4189 -0.3598
 1676SOL     OW 6749   4.247   2.846   2.795 -0.0740  0.0953 -0.4139
 1676SOL    HW2 6750   4.269   2.830   2.887  0.7903  0.4085 -0.5607
 1676SOL    HW3 6751   4.263   2.940   2.783 -1.3530  0.2927 -0.5681
 1676SOL    MW4 6752   4.252   2.856   2.805 -0.1283  0.1626 -0.4539
 1677SOL     OW 6753   4.263   3.095   2.710 -0.0235 -0.6076  0.1464
 1677SOL    HW2 6754   4.174   3.124   2.729 -0.0897 -0.1901 -0.7726
 1677SOL    HW3 6755   4.264   3.080   2.615  0.0317 -3.5026  0.5455
 1677SOL    MW4 6756   4.251   3.097   2.700 -0.0253 -0.9346  0.0777
 1678SOL     OW 6757   4.003   3.228   2.757 -0.4880  0.0260  0.8160
 1678SOL    HW2 6758   3.995   3.322   2.739  0.0358  0.0167  0.5388
 1678SOL    HW3 6759   3.926   3.189   2.715 -0.0130  0.1733 -0.1880
 1678SOL    MW4 6760   3.992   3.235   2.749 -0.3564  0.0441  0.6471
 1679SOL     OW 6761   4.049   3.500   2.707  0.2777  0.1013 -0.4414
 1679SOL    HW2 6762   4.117   3.565   2.723  0.6877 -0.7982  1.6209
 1679SOL    HW3 6763   3.970   3.539   2.743  0.3242 -0.1197 -0.0961
 1679SOL    MW4 6764   4.047   3.514   2.714  0.3381 -0.0465 -0.1240
 1680SOL     OW 6765   4.247   3.677   2.761  0.6028 -0.0236  0.5281
 1680SOL    HW2 6766   4.255   3.670   2.856 -0.2723 -1.7041  0.4955
 1680SOL    HW3 6767   4.310   3.612   2.728  0.4157  0.0818 -0.0290
 1680SOL    MW4 6768   4.256   3.667   2.769  0.4625 -0.2313  0.4504
 1681SOL     OW 6769   4.285   3.909   2.631  0.1878 -0.8187  0.2238
 1681SOL    HW2 6770   4.268   3.820   2.662  1.1355 -0.8689  0.5964
 1681SOL    HW3 6771   4.353   3.943   2.689 -1.2893  0.7341  1.0988
 1681SOL    MW4 6772   4.291   3.902   2.643  0.1178 -0.6204  0.3881
 1682SOL     OW 6773   4.055   4.013   2.778 -0.2560  0.0595 -0.1451
 1682SOL    HW2 6774   4.071   4.012   2.873 -1.3782  2.0108  0.0806
 1682SOL    HW3 6775   4.134   3.975   2.740 -0.1980 -1.6722  1.6215
 1682SOL    MW4 6776   4.068   4.008   2.786 -0.3967  0.0887  0.1178
 1683SOL     OW 6777   4.053   4.280   2.710 -0.4657 -0.1960 -0.2213
 1683SOL    HW2 6778   4.039   4.189   2.736  1.0701 -0.6531 -0.9287
 1683SOL    HW3 6779   4.054   4.278   2.615 -0.0950  0.4911 -0.2352
 1683SOL    MW4 6780   4.052   4.267   2.701 -0.2141 -0.1655 -0.3164
 1684SOL     OW 6781   4.306   4.347   2.807 -0.2784  0.2892 -0.3300
 1684SOL    HW2 6782   4.223   4.313   2.773 -0.8240  1.1948  0.0977
 1684SOL    HW3 6783   4.306   4.440   2.785  0.2559  0.4719  0.4046
 1684SOL    MW4 6784   4.295   4.354   2.800 -0.2799  0.4330 -0.1769
 1685SOL     OW 6785   0.220   4.651   3.134 -0.0459 -0.2497 -0.0431
 1685SOL    HW2 6786   0.203   4.649   3.228  0.1153 -0.2997 -0.0146
 1685SOL    HW3 6787   0.153   4.709   3.098  0.4358  0.4837  0.2164
 1685SOL    MW4 6788   0.209   4.659   3.142  0.0389 -0.1597 -0.0050
 1686SOL     OW 6789   0.028   0.137   3.011  0.5244 -0.1995  0.1060
 1686SOL    HW2 6790  -0.055   0.100   3.041 -0.5953  1.3568 -0.9823
 1686SOL    HW3 6791   0.031   0.225   3.050  1.7515 -0.3165  0.2925
 1686SOL    MW4 6792   0.017   0.144   3.020  0.5388 -0.0096 -0.0129
 1687SOL     OW 6793   0.012   0.363   3.131 -0.0764 -0.0857 -0.1290
 1687SOL    HW2 6794   0.011   0.367   3.227 -1.3766  0.7092 -0.1608
 1687SOL    HW3 6795  -0.074   0.396   3.105  0.7116  0.8529 -1.6229
 1687SOL    MW4 6796   0.000   0.368   3.141 -0.1445  0.1430 -0.3302
 1688SOL     OW 6797   0.221   0.514   3.008  0.4003 -0.1625  0.1501
 1688SOL    HW2 6798   0.301   0.501   3.060  0.8695  0.2050 -0.4750
 1688SOL    HW3 6799   0.156   0.459   3.051  0.6653  0.4918  1.4121
 1688SOL    MW4 6800   0.223   0.505   3.021  0.4972 -0.0277  0.2339
 1689SOL     OW 6801   0.260   0.795   3.074  0.1107 -0.1903  0.3504
 1689SOL    HW2 6802   0.268   0.787   3.169 -0.2124 -1.4216  0.2769
 1689SOL    HW3 6803   0.223   0.712   3.046 -1.2785  0.7755 -0.6955
 1689SOL    MW4 6804   0.256   0.783   3.083 -0.1152 -0.2254  0.2027
 1690SOL     OW 6805   0.005   0.906   3.079 -0.4596  0.4597 -0.1460
 1690SOL    HW2 6806   0.096   0.875   3.082  0.0774  1.8528 -1.6659
 1690SOL    HW3 6807  -0.018   0.904   2.987 -1.5430  1.3536  0.1010
 1690SOL    MW4 6808   0.014   0.901   3.067 -0.5317  0.7614 -0.3140
 1691SOL     OW 6809   4.472   1.173   3.145  0.2876 -0.0036 -0.0469
 1691SOL    HW2 6810   4.403   1.212   3.092  0.0869  0.5920  0.6540
 1691SOL    HW3 6811   4.473   1.081   3.119  0.2978  0.3209 -1.1981
 1691SOL    MW4 6812   4.463   1.166   3.135  0.2623  0.1178 -0.1063
 1692SOL     OW 6813   0.218   1.244   3.050  0.0063 -0.1754  0.1532
 1692SOL    HW2 6814   0.136   1.204   3.078 -0.5441  0.3796 -0.6308
 1692SOL    HW3 6815   0.214   1.243   2.954  1.3119 -0.9621  0.0903
 1692SOL    MW4 6816   0.207   1.239   3.041  0.1059 -0.2059  0.0415
 1693SOL     OW 6817   0.229   1.521   3.123 -0.3139  0.3300 -0.2534
 1693SOL    HW2 6818   0.138   1.544   3.107 -0.4401 -0.3858 -0.5884
 1693SOL    HW3 6819   0.235   1.428   3.101  0.3967  0.2632  0.1810
 1693SOL    MW4 6820   0.218   1.511   3.118 -0.2368  0.2269 -0.2401
 1694SOL     OW 6821   4.479   1.659   3.011  0.1140 -0.0213  0.5306
 1694SOL    HW2 6822   4.394   1.637   3.049  0.4197  0.1623  1.3288
 1694SOL    HW3 6823   4.499   1.746   3.047  1.1204 -0.5173  1.1929
 1694SOL    MW4 6824   4.470   1.668   3.021  0.2875 -0.0626  0.7234
 1695SOL     OW 6825   4.487   1.931   3.116  0.0982  0.0739  0.4290
 1695SOL    HW2 6826   4.401   1.963   3.089 -0.1710 -0.2370  0.9191
 1695SOL    HW3 6827   4.549   1.986   3.068 -0.3685 -0.9767 -1.4492
 1695SOL    MW4 6828   4.484   1.942   3.106  0.0014 -0.1057  0.2463
 1696SOL     OW 6829   0.188   2.082   2.984  0.5451  0.0747  0.1179
 1696SOL    HW2 6830   0.196   2.166   3.028 -0.0981 -0.0558  0.4988
 1696SOL    HW3 6831   0.176   2.105   2.892  1.7582  0.3504  0.0198
 1696SOL    MW4 6832   0.187   2.096   2.978  0.6203  0.0939  0.1552
 1697SOL     OW 6833   0.194   2.325   3.100  0.3677  0.1843  0.3443
 1697SOL    HW2 6834   0.185   2.340   3.194  1.2324  0.2512  0.4171
 1697SOL    HW3 6835   0.282   2.354   3.079  0.1820  0.1590 -0.4896
 1697SOL    MW4 6836   0.204   2.330   3.110  0.4573  0.1898  0.2441
 1698SOL     OW 6837   4.468   2.467   3.042  0.0591  0.3021  0.1242
 1698SOL    HW2 6838   4.458   2.554   3.080  0.3373  0.4113 -0.0457
 1698SOL    HW3 6839   4.552   2.435   3.076 -0.1221  0.0327  0.3186
 1698SOL    MW4 6840   4.478   2.474   3.051  0.0715  0.2811  0.1273
 1699SOL     OW 6841   4.479   2.717   3.163  0.4552  0.3075 -0.0770
 1699SOL    HW2 6842   4.491   2.733   3.257  0.9997 -0.6965  0.0294
 1699SOL    HW3 6843   4.555   2.757   3.122  1.0239 -0.6345  0.0521
 1699SOL    MW4 6844   4.490   2.724   3.170  0.6021  0.0508 -0.0460
 1700SOL     OW 6845   0.213   2.852   3.049 -0.2766 -0.0944  0.1064
 1700SOL    HW2 6846   0.282   2.796   3.084 -0.0929  0.1280  0.1003
 1700SOL    HW3 6847   0.217   2.838   2.954 -0.4033 -0.2705  0.1271
 1700SOL    MW4 6848   0.223   2.843   3.041 -0.2691 -0.0885  0.1080
 1701SOL     OW 6849   0.241   3.106   3.167  0.0137  0.0995 -0.2512
 1701SOL    HW2 6850   0.160   3.147   3.139 -0.5236 -0.7617  0.0358
 1701SOL    HW3 6851   0.242   3.021   3.124  1.2807  0.5305 -1.1086
 1701SOL    MW4 6852   0.231   3.100   3.158  0.1099  0.0427 -0.3266
 1702SOL     OW 6853   0.004   3.232   3.084 -0.5179 -0.3630  0.2428
 1702SOL    HW2 6854  -0.087   3.209   3.101 -0.4729 -0.8089 -0.1279
 1702SOL    HW3 6855   0.010   3.242   2.989 -0.3089  0.2053  0.3153
 1702SOL    MW4 6856  -0.007   3.230   3.074 -0.4845 -0.3469  0.2034
 1703SOL     OW 6857   4.486   3.497   3.181 -0.3944  0.5979 -0.2956
 1703SOL    HW2 6858   4.412   3.538   3.136 -3.0224 -2.1252  1.3723
 1703SOL    HW3 6859   4.493   3.410   3.140  1.4118  0.5208  0.1228
 1703SOL    MW4 6860   4.478   3.491   3.169 -0.5026  0.2284 -0.0203
 1704SOL     OW 6861   0.208   3.557   3.017  0.1642 -0.3019 -0.6034
 1704SOL    HW2 6862   0.210   3.648   3.048 -0.5628 -0.2527 -0.6954
 1704SOL    HW3 6863   0.133   3.518   3.062  1.1771 -1.1889  0.3350
 1704SOL    MW4 6864   0.198   3.564   3.027  0.2019 -0.4127 -0.4916
 1705SOL     OW 6865   0.242   3.814   3.142 -0.2507 -0.0357  0.1576
 1705SOL    HW2 6866   0.237   3.822   3.237  0.0911  1.3358  0.0746
 1705SOL    HW3 6867   0.315   3.872   3.117  0.1404 -0.9521 -0.8644
 1705SOL    MW4 6868   0.251   3.823   3.151 -0.1540  0.0243  0.0119
 1706SOL     OW 6869   0.047   3.984   3.061  0.5244 -0.0736  0.0419
 1706SOL    HW2 6870   0.116   3.921   3.078 -0.2316 -0.5780  1.3570
 1706SOL    HW3 6871   0.040   3.988   2.966  1.3170 -1.1520 -0.0610
 1706SOL    MW4 6872   0.055   3.977   3.051  0.5293 -0.2823  0.2017
 1707SOL     OW 6873   0.037   4.255   3.160 -0.0490  0.1245  0.3143
 1707SOL    HW2 6874   0.049   4.249   3.255  2.0314  0.1712  0.0736
 1707SOL    HW3 6875   0.038   4.164   3.130 -1.1536  0.0862  0.3784
 1707SOL    MW4 6876   0.039   4.242   3.169  0.0797  0.1259  0.2909
 1708SOL     OW 6877   0.236   4.399   3.041  0.5037  0.3101  0.5483
 1708SOL    HW2 6878   0.162   4.351   3.080  0.2236  0.8630  0.7121
 1708SOL    HW3 6879   0.222   4.490   3.068  1.3646  0.3842  0.7551
 1708SOL    MW4 6880   0.224   4.404   3.050  0.5803  0.3929  0.5972
 1709SOL     OW 6881   0.680   0.045   3.132 -0.0567  0.0288  0.1880
 1709SOL    HW2 6882   0.677  -0.036   3.081 -1.8302  0.7225 -0.8773
 1709SOL    HW3 6883   0.596   0.087   3.114  0.8680  2.1432  0.6468
 1709SOL    MW4 6884   0.669   0.040   3.123 -0.1687  0.3991  0.1078
 1710SOL     OW 6885   0.434   0.133   3.034  0.0071  0.0228 -0.0668
 1710SOL    HW2 6886   0.425   0.220   3.073 -0.8911  0.6724 -1.6647
 1710SOL    HW3 6887   0.355   0.086   3.063 -1.1684  0.8322 -1.8655
 1710SOL    MW4 6888   0.422   0.138   3.043 -0.2666  0.2153 -0.5150
 1711SOL     OW 6889   0.438   0.383   3.152  0.3273 -0.6762  0.1117
 1711SOL    HW2 6890   0.437   0.387   3.248 -0.0578 -0.7032  0.1121
 1711SOL    HW3 6891   0.521   0.424   3.127  0.0123  0.1709  0.4253
 1711SOL    MW4 6892   0.449   0.389   3.162  0.2349 -0.5680  0.1531
 1712SOL     OW 6893   0.659   0.518   3.024 -0.4779 -0.3864  0.3015
 1712SOL    HW2 6894   0.746   0.489   3.050 -1.0716 -1.0059  1.5801
 1712SOL    HW3 6895   0.660   0.612   3.041  0.7643  0.0595 -1.9943
 1712SOL    MW4 6896   0.671   0.527   3.029 -0.3923 -0.4094  0.1671
 1713SOL     OW 6897   0.680   0.783   3.077 -0.6780 -1.0310 -0.1370
 1713SOL    HW2 6898   0.667   0.807   3.168  0.6045 -1.8211  0.2730
 1713SOL    HW3 6899   0.610   0.828   3.029 -0.7146  0.2243  1.0953
 1713SOL    MW4 6900   0.669   0.792   3.082 -0.5137 -0.9697  0.0796
 1714SOL     OW 6901   0.481   0.900   2.937  0.2347 -0.5101  0.2379
 1714SOL    HW2 6902   0.396   0.878   2.977 -0.3348 -0.1619 -0.7505
 1714SOL    HW3 6903   0.465   0.892   2.843  1.4939 -1.0896  0.0729
 1714SOL    MW4 6904   0.467   0.896   2.930  0.3257 -0.5406  0.0858
 1715SOL     OW 6905   0.477   1.146   3.104  0.2632  0.1602  0.0461
 1715SOL    HW2 6906   0.478   1.067   3.049 -1.5552 -0.5775  1.0034
 1715SOL    HW3 6907   0.393   1.188   3.083 -0.0252  0.3623  1.5548
 1715SOL    MW4 6908   0.466   1.141   3.094 -0.0148  0.0896  0.3712
 1716SOL     OW 6909   0.697   1.294   3.044 -0.2840  0.3955  0.3348
 1716SOL    HW2 6910   0.773   1.248   3.081  0.2033 -0.4256 -1.6147
 1716SOL    HW3 6911   0.622   1.240   3.069 -0.1419  0.6834  1.4274
 1716SOL    MW4 6912   0.697   1.281   3.052 -0.2010  0.3252  0.2217
 1717SOL     OW 6913   0.665   1.570   3.119  0.4123 -0.0618 -0.3580
 1717SOL    HW2 6914   0.642   1.588   3.210  1.5304 -0.1998 -0.0442
 1717SOL    HW3 6915   0.657   1.475   3.111  0.1006 -0.0265 -0.4626
 1717SOL    MW4 6916   0.661   1.560   3.130  0.5187 -0.0753 -0.3304
 1718SOL     OW 6917   0.435   1.687   3.019 -0.0058  0.3700  0.0238
 1718SOL    HW2 6918   0.519   1.655   3.053  0.1220  0.1860 -0.4517
 1718SOL    HW3 6919   0.370   1.627   3.054  0.0610  0.5013  0.3787
 1718SOL    MW4 6920   0.438   1.675   3.028  0.0198  0.3631  0.0076
 1719SOL     OW 6921   0.379   1.938   3.138 -0.4719  0.4166 -0.2821
 1719SOL    HW2 6922   0.391   1.846   3.115  1.8136  1.0353 -1.7220
 1719SOL    HW3 6923   0.321   1.973   3.070  0.1733  0.4782 -0.8012
 1719SOL    MW4 6924   0.373   1.930   3.126 -0.0852  0.5064 -0.5407
 1720SOL     OW 6925   0.620   2.095   3.060  0.2414 -0.5497 -0.5351
 1720SOL    HW2 6926   0.699   2.045   3.082  0.6852 -0.5703 -2.1302
 1720SOL    HW3 6927   0.551   2.055   3.113  1.3268 -0.3596  1.0904
 1720SOL    MW4 6928   0.621   2.083   3.070  0.4432 -0.5271 -0.5310
 1721SOL     OW 6929   0.653   2.357   3.133  0.3688 -0.3540  1.0214
 1721SOL    HW2 6930   0.643   2.373   3.227 -0.8253 -0.2940  0.8830
 1721SOL    HW3 6931   0.646   2.262   3.124  1.2855 -0.4333  1.0848
 1721SOL    MW4 6932   0.651   2.347   3.144  0.3322 -0.3564  1.0116
 1722SOL     OW 6933   0.424   2.459   3.004 -0.1378  0.7284 -0.4861
 1722SOL    HW2 6934   0.506   2.428   3.042 -1.1043 -0.2253  0.8829
 1722SOL    HW3 6935   0.444   2.472   2.912  1.1232 -1.0840 -0.5026
 1722SOL    MW4 6936   0.437   2.457   2.997 -0.0989  0.3636 -0.3076
 1723SOL     OW 6937   0.438   2.702   3.152  0.1430  0.2078  0.2341
 1723SOL    HW2 6938   0.517   2.746   3.122 -1.9227  3.1435 -1.1935
 1723SOL    HW3 6939   0.438   2.618   3.105  2.7812 -0.1870  0.8905
 1723SOL    MW4 6940   0.448   2.696   3.142  0.2185  0.5431  0.1323
 1724SOL     OW 6941   0.658   2.828   3.068 -0.2781  0.2345  0.1467
 1724SOL    HW2 6942   0.738   2.790   3.103  0.1404  0.9348 -0.0415
 1724SOL    HW3 6943   0.664   2.921   3.090 -1.3957  0.1592  0.8044
 1724SOL    MW4 6944   0.669   2.835   3.075 -0.3703  0.3171  0.2086
 1725SOL     OW 6945   0.677   3.105   3.114  0.0267 -0.8870  0.3077
 1725SOL    HW2 6946   0.661   3.105   3.208  2.7217  1.3728  0.8343
 1725SOL    HW3 6947   0.598   3.144   3.076 -0.1024  0.4079  1.8509
 1725SOL    MW4 6948   0.664   3.110   3.121  0.3653 -0.4179  0.5808
 1726SOL     OW 6949   0.447   3.253   3.025  0.1588  0.0094  0.3133
 1726SOL    HW2 6950   0.455   3.338   3.067 -0.6954  0.2016  0.0957
 1726SOL    HW3 6951   0.384   3.205   3.079  1.6346 -0.9610  1.1863
 1726SOL    MW4 6952   0.440   3.258   3.038  0.2408 -0.0932  0.3998
 1727SOL     OW 6953   0.446   3.491   3.170  0.2407  0.6305  0.1924
 1727SOL    HW2 6954   0.435   3.509   3.264 -2.1054  0.9277 -0.1029
 1727SOL    HW3 6955   0.367   3.527   3.130  1.6933  1.4032 -2.0413
 1727SOL    MW4 6956   0.434   3.498   3.177  0.1228  0.7718 -0.1414
 1728SOL     OW 6957   0.681   3.579   3.033  0.3536  0.5472  0.0444
 1728SOL    HW2 6958   0.752   3.526   3.068 -0.1425  0.2776  0.6689
 1728SOL    HW3 6959   0.604   3.550   3.082 -0.3839  0.0496 -1.3902
 1728SOL    MW4 6960   0.680   3.568   3.044  0.1909  0.4456 -0.0625
 1729SOL     OW 6961   0.675   3.851   3.129 -0.2955  0.0333 -0.3154
 1729SOL    HW2 6962   0.677   3.848   3.225 -0.3754 -1.6216 -0.3552
 1729SOL    HW3 6963   0.673   3.760   3.102 -1.0189  0.4970 -1.8906
 1729SOL    MW4 6964   0.675   3.839   3.138 -0.4014 -0.1237 -0.5286
 1730SOL     OW 6965   0.445   3.981   3.040  0.4119  0.2364 -0.3898
 1730SOL    HW2 6966   0.530   3.942   3.057  0.1776 -0.4494 -0.7797
 1730SOL    HW3 6967   0.438   3.983   2.944 -0.1309  0.0243 -0.3549
 1730SOL    MW4 6968   0.455   3.976   3.030  0.3093  0.1178 -0.4363
 1731SOL     OW 6969   0.482   4.260   3.093  0.0703  0.7156  0.3502
 1731SOL    HW2 6970   0.460   4.168   3.077 -0.3436  0.6078  1.4474
 1731SOL    HW3 6971   0.402   4.308   3.070  0.7437  0.9549 -1.5668
 1731SOL    MW4 6972   0.468   4.254   3.088  0.1045  0.7339  0.2422
 1732SOL     OW 6973   0.703   4.439   3.063  0.3212 -0.3786  0.4216
 1732SOL    HW2 6974   0.624   4.387   3.072  0.0621 -0.1421 -0.4427
 1732SOL    HW3 6975   0.717   4.445   2.969 -1.5791  3.9720  0.3106
 1732SOL    MW4 6976   0.695   4.433   3.052  0.0363  0.2265  0.2930
 1733SOL     OW 6977   1.108   4.636   3.133 -0.0266 -0.2264  0.2446
 1733SOL    HW2 6978   1.194   4.675   3.116  0.0874 -0.1542  0.9404
 1733SOL    HW3 6979   1.045   4.699   3.098  0.1965 -0.0951  0.0816
 1733SOL    MW4 6980   1.111   4.650   3.127  0.0178 -0.1998  0.3150
 1734SOL     OW 6981   0.909   0.133   3.010  0.1472  0.4045  0.1387
 1734SOL    HW2 6982   0.920   0.221   3.046 -0.4484  0.2874  0.6275
 1734SOL    HW3 6983   0.829   0.100   3.052 -1.2338  0.7062 -2.1694
 1734SOL    MW4 6984   0.900   0.140   3.020 -0.1136  0.4288 -0.1011
 1735SOL     OW 6985   0.901   0.410   3.090  0.1237  0.0477  0.2097
 1735SOL    HW2 6986   0.918   0.413   3.184  0.3200 -0.2535  0.1856
 1735SOL    HW3 6987   0.980   0.444   3.050 -0.2313  0.8385  0.1764
 1735SOL    MW4 6988   0.913   0.415   3.097  0.1028  0.1123  0.2019
 1736SOL     OW 6989   1.164   0.491   3.023  0.3102  0.4813  0.1691
 1736SOL    HW2 6990   1.218   0.422   3.063  0.8004 -0.1939 -1.6145
 1736SOL    HW3 6991   1.167   0.472   2.929 -0.9148  1.9751 -0.1812
 1736SOL    MW4 6992   1.172   0.480   3.016  0.2134  0.5893 -0.1125
 1737SOL     OW 6993   1.121   0.769   3.117  0.2330 -0.6368 -0.0698
 1737SOL    HW2 6994   1.105   0.764   3.211 -0.7538 -0.6191 -0.2284
 1737SOL    HW3 6995   1.148   0.680   3.093  1.5590 -0.3675  0.4132
 1737SOL    MW4 6996   1.122   0.757   3.126  0.2779 -0.5990 -0.0267
 1738SOL     OW 6997   0.916   0.912   3.008 -0.2458  0.3866  0.1701
 1738SOL    HW2 6998   0.833   0.877   3.039 -1.0789  1.7841 -0.4365
 1738SOL    HW3 6999   0.982   0.853   3.045 -1.3897  0.1813  1.9493
 1738SOL    MW4 7000   0.914   0.900   3.017 -0.5066  0.5439  0.3250
 1739SOL     OW 7001   0.914   1.168   3.159 -0.1230 -0.2168 -0.1795
 1739SOL    HW2 7002   0.981   1.225   3.123 -0.3429 -0.3181 -0.7563
 1739SOL    HW3 7003   0.926   1.085   3.112  0.0029 -0.5469  0.4401
 1739SOL    MW4 7004   0.924   1.164   3.148 -0.1354 -0.2736 -0.1736
 1740SOL     OW 7005   1.108   1.296   3.033  0.3392 -0.0650 -0.0073
 1740SOL    HW2 7006   1.187   1.246   3.054  0.6544 -0.5637 -2.2783
 1740SOL    HW3 7007   1.098   1.287   2.939 -2.2469  0.2884  0.1881
 1740SOL    MW4 7008   1.117   1.288   3.024  0.0396 -0.0843 -0.2811
 1741SOL     OW 7009   1.112   1.561   3.102  0.2870 -0.0216 -0.2545
 1741SOL    HW2 7010   1.187   1.611   3.069  1.5480 -1.1884  0.7929
 1741SOL    HW3 7011   1.129   1.471   3.074 -0.0690 -0.5182  1.0872
 1741SOL    MW4 7012   1.124   1.556   3.094  0.4064 -0.2412  0.0603
 1742SOL     OW 7013   0.892   1.691   3.009 -0.0422  0.5229  0.0454
 1742SOL    HW2 7014   0.968   1.637   3.031  0.1875  0.1609 -1.5188
 1742SOL    HW3 7015   0.817   1.642   3.042  0.1004 -1.2192 -2.0988
 1742SOL    MW4 7016   0.892   1.677   3.016  0.0069  0.2452 -0.4437
 1743SOL     OW 7017   0.851   1.955   3.121 -0.2488  0.1065 -0.4536
 1743SOL    HW2 7018   0.852   1.933   3.215  2.0603  1.1453 -0.1929
 1743SOL    HW3 7019   0.858   1.870   3.077  0.8248 -0.2406  0.3603
 1743SOL    MW4 7020   0.852   1.941   3.128  0.1975  0.1976 -0.3121
 1744SOL     OW 7021   1.117   2.042   3.010 -0.3548 -0.0615  0.1284
 1744SOL    HW2 7022   1.047   1.993   3.052 -0.0130  0.0290  0.8219
 1744SOL    HW3 7023   1.109   2.022   2.917 -1.5242  0.2495  0.1666
 1744SOL    MW4 7024   1.107   2.033   3.004 -0.4641 -0.0086  0.2246
 1745SOL     OW 7025   1.108   2.292   3.121  0.2972 -0.8260 -0.0649
 1745SOL    HW2 7026   1.035   2.338   3.078 -0.3128 -1.2868  0.4667
 1745SOL    HW3 7027   1.107   2.204   3.083  0.4913 -0.8773  0.0481
 1745SOL    MW4 7028   1.098   2.287   3.110  0.2422 -0.8938  0.0200
 1746SOL     OW 7029   0.878   2.438   3.012  0.4108 -0.3840  0.5802
 1746SOL    HW2 7030   0.795   2.403   3.043 -1.2101  2.0084 -0.9386
 1746SOL    HW3 7031   0.881   2.416   2.919  2.6348 -2.5430  1.0882
 1746SOL    MW4 7032   0.868   2.431   3.004  0.4904 -0.3533  0.4470
 1747SOL     OW 7033   0.902   2.685   3.132  0.3301 -0.2164  0.2215
 1747SOL    HW2 7034   0.875   2.665   3.222  0.6750  0.8627  0.5792
 1747SOL    HW3 7035   0.900   2.601   3.087  0.1776 -0.7769  1.2514
 1747SOL    MW4 7036   0.898   2.671   3.138  0.3555 -0.1478  0.4046
 1748SOL     OW 7037   1.134   2.835   3.019  0.1571 -0.4234 -0.3158
 1748SOL    HW2 7038   1.134   2.913   3.075  0.1002  1.1297 -2.4081
 1748SOL    HW3 7039   1.062   2.781   3.053 -0.7675  1.1374  0.2412
 1748SOL    MW4 7040   1.124   2.838   3.031  0.0275 -0.0126 -0.5183
 1749SOL     OW 7041   1.109   3.075   3.151  0.3224 -0.5642 -0.1850
 1749SOL    HW2 7042   1.195   3.108   3.125  0.0508 -0.4976 -1.0068
 1749SOL    HW3 7043   1.048   3.119   3.094 -0.5764  1.7306  2.4362
 1749SOL    MW4 7044   1.113   3.085   3.140  0.1680 -0.2530  0.0522
 1750SOL     OW 7045   0.911   3.255   3.054  0.0383  0.2737 -0.2072
 1750SOL    HW2 7046   0.832   3.208   3.083  0.0742  0.0930 -0.3935
 1750SOL    HW3 7047   0.917   3.233   2.961  0.2871  0.3198 -0.2000
 1750SOL    MW4 7048   0.901   3.246   3.045  0.0758  0.2558 -0.2308
 1751SOL     OW 7049   0.906   3.492   3.192 -0.0762  0.6160  0.5859
 1751SOL    HW2 7050   0.963   3.547   3.138  0.4796  1.1391  1.7043
 1751SOL    HW3 7051   0.913   3.405   3.152  0.7197  0.8907  0.1160
 1751SOL    MW4 7052   0.914   3.488   3.179  0.1021  0.7212  0.6714
 1752SOL     OW 7053   1.095   3.608   3.027  0.3718 -0.0133  0.0653
 1752SOL    HW2 7054   1.176   3.559   3.043 -0.2172 -0.9881  0.0913
 1752SOL    HW3 7055   1.115   3.697   3.056  2.8153  0.8156 -3.7883
 1752SOL    MW4 7056   1.108   3.613   3.033  0.6164 -0.0327 -0.4394
 1753SOL     OW 7057   1.129   3.860   3.111 -0.3851 -0.6960  0.0887
 1753SOL    HW2 7058   1.123   3.855   3.206 -1.5850 -0.3048  0.0437
 1753SOL    HW3 7059   1.049   3.906   3.084  0.0479 -0.5999 -1.0883
 1753SOL    MW4 7060   1.117   3.866   3.120 -0.4863 -0.6316 -0.0727
 1754SOL     OW 7061   0.899   4.017   3.055 -0.0910 -0.2746  0.5222
 1754SOL    HW2 7062   0.830   3.959   3.087 -0.7427 -0.4187 -1.1180
 1754SOL    HW3 7063   0.891   4.015   2.960  0.4480  1.8314  0.4048
 1754SOL    MW4 7064   0.889   4.009   3.047 -0.1059 -0.0153  0.2906
 1755SOL     OW 7065   0.915   4.273   3.171 -0.7010 -0.4268 -0.6221
 1755SOL    HW2 7066   0.909   4.200   3.110  1.4224 -1.0141 -0.1829
 1755SOL    HW3 7067   0.835   4.323   3.157 -0.6508 -1.0008 -3.3162
 1755SOL    MW4 7068   0.904   4.270   3.161 -0.4143 -0.5798 -0.9196
 1756SOL     OW 7069   1.094   4.391   2.991 -0.0823  0.2185  0.6529
 1756SOL    HW2 7070   1.026   4.340   3.036  0.0338 -0.4735  0.0461
 1756SOL    HW3 7071   1.105   4.469   3.046 -1.0238  0.1066  1.0153
 1756SOL    MW4 7072   1.086   4.394   3.004 -0.1912  0.1121  0.6206
 1757SOL     OW 7073   1.608   4.604   3.139  0.2267  0.0135 -0.1851
 1757SOL    HW2 7074   1.615   4.612   3.234  0.3990 -1.2431 -0.0870
 1757SOL    HW3 7075   1.519   4.633   3.119 -0.2238 -0.8658  0.4957
 1757SOL    MW4 7076   1.597   4.609   3.149  0.1899 -0.2689 -0.0823
 1758SOL     OW 7077   1.367   0.047   3.064 -0.1993  0.2834 -0.2723
 1758SOL    HW2 7078   1.382   0.137   3.095  1.9449 -0.2887  0.4246
 1758SOL    HW3 7079   1.352   0.057   2.970  0.7139  1.2992 -0.3173
 1758SOL    MW4 7080   1.367   0.060   3.056  0.2042  0.3419 -0.1862
 1759SOL     OW 7081   1.368   0.310   3.146  0.4710 -0.2008 -0.0011
 1759SOL    HW2 7082   1.379   0.318   3.241  0.5473  0.2990 -0.0524
 1759SOL    HW3 7083   1.440   0.361   3.109 -0.2917  0.6466 -0.3278
 1759SOL    MW4 7084   1.379   0.318   3.154  0.3804 -0.0231 -0.0510
 1760SOL     OW 7085   1.549   0.479   3.008  0.6904  0.2299 -0.1993
 1760SOL    HW2 7086   1.546   0.571   3.037 -0.5382  0.4990 -1.1668
 1760SOL    HW3 7087   1.557   0.484   2.913  0.1011 -0.6771 -0.2988
 1760SOL    MW4 7088   1.550   0.492   2.999  0.4505  0.1457 -0.3402
 1761SOL     OW 7089   1.536   0.743   3.114 -0.0784  0.1066 -0.5723
 1761SOL    HW2 7090   1.562   0.757   3.204  1.7093 -1.9195 -0.7363
 1761SOL    HW3 7091   1.462   0.803   3.100  0.9179  1.8724  1.5933
 1761SOL    MW4 7092   1.529   0.753   3.124  0.2890  0.0722 -0.3083
 1762SOL     OW 7093   1.336   0.919   3.027 -0.0345 -0.0927  0.3419
 1762SOL    HW2 7094   1.335   1.007   3.064 -1.7453  0.1661 -0.2728
 1762SOL    HW3 7095   1.261   0.876   3.066 -1.2666 -0.1388 -2.0245
 1762SOL    MW4 7096   1.326   0.925   3.037 -0.4226 -0.0646 -0.0513
 1763SOL     OW 7097   1.336   1.162   3.132  0.0750  0.4723 -0.2822
 1763SOL    HW2 7098   1.348   1.166   3.227  0.0296 -0.2092 -0.2460
 1763SOL    HW3 7099   1.421   1.189   3.096  0.4479 -0.3446 -0.0393
 1763SOL    MW4 7100   1.349   1.166   3.140  0.1183  0.2745 -0.2456
 1764SOL     OW 7101   1.566   1.289   3.045 -0.1087  0.2545  0.3600
 1764SOL    HW2 7102   1.657   1.261   3.059  0.5490  1.5388 -1.1677
 1764SOL    HW3 7103   1.562   1.377   3.083 -0.4927  0.5279 -0.3089
 1764SOL    MW4 7104   1.578   1.297   3.052 -0.0726  0.4599  0.0701
 1765SOL     OW 7105   1.554   1.553   3.142 -0.2300  0.0792  0.2066
 1765SOL    HW2 7106   1.632   1.586   3.097  0.7433 -1.7628  0.5080
 1765SOL    HW3 7107   1.481   1.598   3.100  0.8058 -0.0555 -1.7679
 1765SOL    MW4 7108   1.555   1.563   3.131  0.0349 -0.1817 -0.0141
 1766SOL     OW 7109   1.348   1.694   3.021 -0.1235  0.4680  0.5545
 1766SOL    HW2 7110   1.339   1.785   3.050  0.3209  0.9958 -0.8773
 1766SOL    HW3 7111   1.368   1.701   2.927 -1.0056 -1.1339  0.2170
 1766SOL    MW4 7112   1.349   1.707   3.012 -0.1814  0.3263  0.3211
 1767SOL     OW 7113   1.355   1.966   3.123 -0.0915  0.2570  0.2396
 1767SOL    HW2 7114   1.342   1.942   3.215 -0.0132  1.8723  0.6796
 1767SOL    HW3 7115   1.270   1.996   3.093 -0.1400 -0.3586 -0.2638
 1767SOL    MW4 7116   1.342   1.967   3.131 -0.0874  0.3890  0.2315
 1768SOL     OW 7117   1.602   2.095   3.023 -0.1879  0.0324  0.4222
 1768SOL    HW2 7118   1.518   2.066   3.061 -0.0017  0.1581  0.9389
 1768SOL    HW3 7119   1.588   2.093   2.929 -0.1332 -1.9273  0.4329
 1768SOL    MW4 7120   1.589   2.091   3.016 -0.1562 -0.2096  0.4916
 1769SOL     OW 7121   1.574   2.345   3.113  0.1311  0.1351 -0.7784
 1769SOL    HW2 7122   1.489   2.367   3.074  0.7454  0.3326 -2.0564
 1769SOL    HW3 7123   1.587   2.253   3.092 -1.0750 -0.7219  1.9750
 1769SOL    MW4 7124   1.564   2.336   3.105  0.0532  0.0482 -0.5836
 1770SOL     OW 7125   1.328   2.441   3.021 -0.3679 -0.1143  0.2596
 1770SOL    HW2 7126   1.254   2.387   3.047  0.1620 -1.1675 -0.4075
 1770SOL    HW3 7127   1.330   2.436   2.926  0.4348  0.0808  0.2649
 1770SOL    MW4 7128   1.319   2.434   3.012 -0.1920 -0.2277  0.1721
 1771SOL     OW 7129   1.367   2.709   3.109 -0.1036 -0.4825 -0.1544
 1771SOL    HW2 7130   1.358   2.617   3.086 -0.6284 -0.8004  1.2299
 1771SOL    HW3 7131   1.292   2.752   3.067  0.7937 -0.4684 -1.7813
 1771SOL    MW4 7132   1.356   2.703   3.101 -0.0544 -0.5224 -0.1862
 1772SOL     OW 7133   1.576   2.855   3.015  0.5539  0.2923  0.4936
 1772SOL    HW2 7134   1.657   2.807   3.035  1.0000 -0.2398 -2.2442
 1772SOL    HW3 7135   1.506   2.798   3.044  1.1286 -1.1937 -0.9110
 1772SOL    MW4 7136   1.578   2.841   3.021  0.6884  0.0260 -0.0529
 1773SOL     OW 7137   1.573   3.098   3.170 -0.2682 -0.2679  0.1467
 1773SOL    HW2 7138   1.566   3.067   3.260 -0.1025 -0.0130  0.2484
 1773SOL    HW3 7139   1.578   3.018   3.118 -1.3943 -0.4244  0.2749
 1773SOL    MW4 7140   1.573   3.083   3.175 -0.3951 -0.2546  0.1769
 1774SOL     OW 7141   1.340   3.210   3.070  0.6286  0.1477 -0.0985
 1774SOL    HW2 7142   1.413   3.183   3.125  0.8331 -0.5560 -0.7070
 1774SOL    HW3 7143   1.362   3.176   2.983 -0.9590 -1.0374 -0.0556
 1774SOL    MW4 7144   1.352   3.202   3.066  0.4461 -0.1016 -0.1731
 1775SOL     OW 7145   1.327   3.474   3.111 -0.2263 -0.1924  0.1261
 1775SOL    HW2 7146   1.342   3.467   3.205  0.1101 -1.7984 -0.0223
 1775SOL    HW3 7147   1.315   3.383   3.082  0.6011  0.1992 -1.5232
 1775SOL    MW4 7148   1.328   3.461   3.119 -0.0727 -0.3526 -0.1109
 1776SOL     OW 7149   1.555   3.587   3.009 -0.1355  0.1646  0.0327
 1776SOL    HW2 7150   1.468   3.577   3.049 -0.6723  3.3101 -0.2043
 1776SOL    HW3 7151   1.537   3.602   2.916  0.7878 -1.0511 -0.3501
 1776SOL    MW4 7152   1.541   3.588   3.002 -0.0844  0.4196 -0.0491
 1777SOL     OW 7153   1.561   3.830   3.135  0.1528  0.4822 -0.4193
 1777SOL    HW2 7154   1.643   3.871   3.108  0.1315  0.3310 -0.7184
 1777SOL    HW3 7155   1.565   3.742   3.100  0.3261  0.1304  0.4699
 1777SOL    MW4 7156   1.572   3.824   3.127  0.1730  0.4158 -0.3414
 1778SOL     OW 7157   1.352   3.997   3.039 -0.3374 -0.3026  0.3352
 1778SOL    HW2 7158   1.426   3.947   3.072 -0.5071 -0.8431 -0.0948
 1778SOL    HW3 7159   1.275   3.944   3.062 -0.5389 -0.0957  0.1431
 1778SOL    MW4 7160   1.351   3.984   3.047 -0.3864 -0.3469  0.2530
 1779SOL     OW 7161   1.343   4.280   3.060 -0.1272 -0.2228  0.0614
 1779SOL    HW2 7162   1.331   4.185   3.051 -0.6719 -0.3795  2.0396
 1779SOL    HW3 7163   1.261   4.317   3.028  0.6328 -0.3084 -2.0725
 1779SOL    MW4 7164   1.331   4.272   3.055 -0.0988 -0.2546  0.0408
 1780SOL     OW 7165   1.589   4.354   2.971  0.2875  0.1196 -0.0052
 1780SOL    HW2 7166   1.499   4.324   2.986  0.7997 -1.4835  0.0060
 1780SOL    HW3 7167   1.593   4.440   3.012 -0.8467 -0.3877  1.2018
 1780SOL    MW4 7168   1.578   4.361   2.978  0.2055 -0.1593  0.1554
 1781SOL     OW 7169   2.054   4.648   3.099  0.0826  0.5885 -0.1371
 1781SOL    HW2 7170   2.052   4.648   3.194  1.0444 -0.0110 -0.1108
 1781SOL    HW3 7171   1.973   4.692   3.073 -0.7112 -0.2137  0.9465
 1781SOL    MW4 7172   2.043   4.653   3.108  0.1047  0.4034  0.0088
 1782SOL     OW 7173   1.808   0.099   3.032  0.0773  0.2867  0.5415
 1782SOL    HW2 7174   1.740   0.041   3.065 -0.1126 -0.4664 -1.1236
 1782SOL    HW3 7175   1.792   0.105   2.938 -0.0377  3.2322  0.6874
 1782SOL    MW4 7176   1.797   0.092   3.024  0.0371  0.5760  0.3412
 1783SOL     OW 7177   1.780   0.374   3.121  0.2527  0.3539 -0.4796
 1783SOL    HW2 7178   1.790   0.295   3.068 -0.7909 -0.3937  0.3953
 1783SOL    HW3 7179   1.703   0.419   3.084 -0.7670 -0.4109  0.6522
 1783SOL    MW4 7180   1.771   0.370   3.109 -0.0194  0.1544 -0.2146
 1784SOL     OW 7181   2.044   0.488   3.064 -0.0290  0.1292  0.3320
 1784SOL    HW2 7182   1.962   0.446   3.091  0.0760  0.1205  0.6387
 1784SOL    HW3 7183   2.050   0.471   2.971  0.9932 -2.2261  0.7948
 1784SOL    MW4 7184   2.034   0.480   3.056  0.1197 -0.1827  0.4334
 1785SOL     OW 7185   2.050   0.773   3.083 -0.0059  0.1863  0.6581
 1785SOL    HW2 7186   1.972   0.807   3.040 -0.0017 -0.4013  0.1826
 1785SOL    HW3 7187   2.040   0.678   3.082  0.1541  0.1566  1.6676
 1785SOL    MW4 7188   2.039   0.765   3.077  0.0157  0.1049  0.7286
 1786SOL     OW 7189   1.754   0.891   3.010  0.5300 -0.3032  0.1188
 1786SOL    HW2 7190   1.671   0.844   3.022  0.1467  0.5530  0.8913
 1786SOL    HW3 7191   1.765   0.898   2.915  0.0610 -1.0190  0.0108
 1786SOL    MW4 7192   1.744   0.885   2.999  0.4175 -0.2847  0.2065
 1787SOL     OW 7193   1.783   1.130   3.120  0.2501  0.0563 -0.3443
 1787SOL    HW2 7194   1.799   1.120   3.214 -0.8825 -0.5574 -0.2123
 1787SOL    HW3 7195   1.769   1.041   3.089  0.7074  0.2527 -1.1107
 1787SOL    MW4 7196   1.783   1.117   3.128  0.1611  0.0012 -0.4282
 1788SOL     OW 7197   2.006   1.258   2.984 -0.0275 -0.2453 -0.1188
 1788SOL    HW2 7198   2.094   1.242   3.019 -0.1911  0.5403  0.6696
 1788SOL    HW3 7199   1.948   1.234   3.056 -0.3781  1.1006  0.0646
 1788SOL    MW4 7200   2.010   1.253   2.998 -0.0954  0.0359  0.0093
 1789SOL     OW 7201   1.980   1.529   3.074  0.0742 -0.1351 -0.5559
 1789SOL    HW2 7202   1.988   1.528   3.170 -2.2772  1.4317 -0.2872
 1789SOL    HW3 7203   1.990   1.437   3.049 -0.7491 -0.7985  1.3799
 1789SOL    MW4 7204   1.982   1.516   3.084 -0.3449 -0.0160 -0.2649
 1790SOL     OW 7205   1.741   1.665   2.978  0.4988  0.1687  0.0500
 1790SOL    HW2 7206   1.740   1.749   3.024 -0.4156  0.0488  0.2543
 1790SOL    HW3 7207   1.825   1.626   3.002  0.3710  0.4508  1.0078
 1790SOL    MW4 7208   1.752   1.671   2.988  0.3612  0.1903  0.2034
 1791SOL     OW 7209   1.768   1.902   3.139 -0.0595  0.1149 -0.2483
 1791SOL    HW2 7210   1.851   1.915   3.094  0.5021  1.1904  1.0406
 1791SOL    HW3 7211   1.710   1.971   3.104 -0.4581 -0.7350 -1.2607
 1791SOL    MW4 7212   1.771   1.913   3.129 -0.0379  0.1446 -0.2120
 1792SOL     OW 7213   2.003   1.994   2.998  0.0839 -0.2546  0.0128
 1792SOL    HW2 7214   2.082   1.980   3.050 -0.4055 -0.2480  0.7701
 1792SOL    HW3 7215   1.976   2.084   3.018  0.2296 -0.0442 -0.7210
 1792SOL    MW4 7216   2.010   2.004   3.007  0.0386 -0.2258  0.0160
 1793SOL     OW 7217   2.002   2.252   3.109  0.0513  0.2683 -0.0283
 1793SOL    HW2 7218   2.085   2.293   3.081 -0.0408 -0.3784 -1.3000
 1793SOL    HW3 7219   1.939   2.323   3.105  0.3481  0.5362 -0.0318
 1793SOL    MW4 7220   2.005   2.267   3.105  0.0782  0.2184 -0.1965
 1794SOL     OW 7221   1.798   2.469   3.031  0.2843  0.2500  0.4143
 1794SOL    HW2 7222   1.803   2.554   3.073 -0.0445  0.7262 -0.4970
 1794SOL    HW3 7223   1.710   2.437   3.050  0.1499  0.4468  0.1174
 1794SOL    MW4 7224   1.787   2.476   3.039  0.2232  0.3388  0.2551
 1795SOL     OW 7225   1.801   2.733   3.113  0.0617 -0.1875 -0.7178
 1795SOL    HW2 7226   1.814   2.718   3.207  0.7018 -2.3635 -1.1338
 1795SOL    HW3 7227   1.882   2.773   3.083 -0.2771  0.8401 -0.2906
 1795SOL    MW4 7228   1.813   2.736   3.122  0.1014 -0.3390 -0.7164
 1796SOL     OW 7229   2.047   2.811   3.009 -0.6833 -0.2853 -0.1405
 1796SOL    HW2 7230   2.030   2.902   3.034  1.0264  0.2243 -0.7588
 1796SOL    HW3 7231   2.028   2.809   2.915  2.1708  0.2280 -0.7906
 1796SOL    MW4 7232   2.042   2.823   3.000 -0.0811 -0.1504 -0.3078
 1797SOL     OW 7233   1.991   3.051   3.149  0.3676  0.6179  0.3181
 1797SOL    HW2 7234   2.007   3.047   3.244 -0.7473  0.0544  0.4916
 1797SOL    HW3 7235   1.926   3.120   3.138  0.1069  0.3290  0.0230
 1797SOL    MW4 7236   1.985   3.059   3.160  0.1861  0.5054  0.3023
 1798SOL     OW 7237   1.813   3.249   3.096 -0.1527  0.5782  0.2084
 1798SOL    HW2 7238   1.733   3.205   3.123 -0.7167  1.5118  0.0591
 1798SOL    HW3 7239   1.818   3.235   3.002 -0.3551  0.8579  0.1542
 1798SOL    MW4 7240   1.803   3.241   3.087 -0.2539  0.7381  0.1817
 1799SOL     OW 7241   1.779   3.514   3.183  0.4760 -0.2328 -0.1177
 1799SOL    HW2 7242   1.782   3.420   3.166  1.8694 -0.2507  0.2101
 1799SOL    HW3 7243   1.700   3.544   3.137 -0.0195 -1.5619 -0.1628
 1799SOL    MW4 7244   1.769   3.505   3.175  0.5946 -0.4106 -0.0803
 1800SOL     OW 7245   1.990   3.584   3.018 -0.4727 -0.2921 -0.0435
 1800SOL    HW2 7246   2.010   3.675   3.041  0.4945 -0.5177  0.0282
 1800SOL    HW3 7247   1.910   3.563   3.068 -0.3381  0.3116  0.4290
 1800SOL    MW4 7248   1.982   3.593   3.028 -0.3272 -0.2422  0.0284
 1801SOL     OW 7249   1.999   3.855   3.099  0.1877  0.6717  0.2004
 1801SOL    HW2 7250   2.004   3.871   3.193  1.4973  0.9661  0.0848
 1801SOL    HW3 7251   1.911   3.882   3.074 -0.3436  0.0919  1.4369
 1801SOL    MW4 7252   1.988   3.860   3.108  0.2904  0.6342  0.3483
 1802SOL     OW 7253   1.763   3.963   3.020 -0.0876 -0.0994  0.1272
 1802SOL    HW2 7254   1.781   4.051   3.051  0.2823  0.4805 -1.6864
 1802SOL    HW3 7255   1.760   3.971   2.925 -0.2705 -2.0022 -0.0479
 1802SOL    MW4 7256   1.765   3.975   3.012 -0.0629 -0.2742 -0.1352
 1803SOL     OW 7257   1.810   4.244   3.106 -0.2236 -0.5471 -0.1205
 1803SOL    HW2 7258   1.885   4.292   3.072  1.1376 -1.5846  1.3132
 1803SOL    HW3 7259   1.734   4.287   3.066  1.0442  1.4143 -0.5324
 1803SOL    MW4 7260   1.810   4.256   3.097  0.1233 -0.4249  0.0143
 1804SOL     OW 7261   2.022   4.382   2.996  0.2396  0.5614 -0.1910
 1804SOL    HW2 7262   2.023   4.472   3.027  0.6302  1.1677 -1.8870
 1804SOL    HW3 7263   2.025   4.390   2.900 -2.7978 -1.1738 -0.5044
 1804SOL    MW4 7264   2.022   4.395   2.987 -0.1099  0.4125 -0.4563
 1805SOL     OW 7265   2.459   4.645   3.166 -0.0822  0.1660  0.7542
 1805SOL    HW2 7266   2.466   4.560   3.122  0.9762  0.7190 -0.1668
 1805SOL    HW3 7267   2.387   4.690   3.121  0.4793  0.4205  0.1074
 1805SOL    MW4 7268   2.450   4.640   3.154  0.1318  0.2732  0.5472
 1806SOL     OW 7269   2.278   0.132   3.002 -0.1302  0.2462 -0.0389
 1806SOL    HW2 7270   2.278   0.223   3.034  1.0830 -0.4372  1.9844
 1806SOL    HW3 7271   2.203   0.092   3.045  0.0154 -0.0092 -0.0223
 1806SOL    MW4 7272   2.268   0.139   3.012  0.0491  0.1224  0.2303
 1807SOL     OW 7273   2.277   0.371   3.155 -0.1111 -0.5142 -0.3985
 1807SOL    HW2 7274   2.282   0.385   3.249  1.2107  1.8724 -0.7736
 1807SOL    HW3 7275   2.187   0.397   3.132 -0.5484 -1.4441  0.2433
 1807SOL    MW4 7276   2.265   0.377   3.164  0.0057 -0.3220 -0.3636
 1808SOL     OW 7277   2.484   0.547   3.021  0.3606 -0.2171  0.3188
 1808SOL    HW2 7278   2.413   0.496   3.061  0.4136 -0.4079  0.1700
 1808SOL    HW3 7279   2.471   0.538   2.927  1.2030 -1.1371  0.2785
 1808SOL    MW4 7280   2.473   0.539   3.014  0.4787 -0.3636  0.2935
 1809SOL     OW 7281   2.497   0.798   3.133 -0.2848 -0.1021 -0.5087
 1809SOL    HW2 7282   2.579   0.832   3.099 -1.0495  0.4194 -1.8499
 1809SOL    HW3 7283   2.493   0.708   3.102 -0.6946  0.1861 -1.3011
 1809SOL    MW4 7284   2.507   0.790   3.125 -0.4396  0.0047 -0.7901
 1810SOL     OW 7285   2.283   0.933   3.013  0.2620 -0.3316  0.4691
 1810SOL    HW2 7286   2.367   0.907   3.050 -0.3660 -1.5648  1.0989
 1810SOL    HW3 7287   2.221   0.867   3.047 -1.0850  1.0258  0.6924
 1810SOL    MW4 7288   2.286   0.921   3.023  0.0012 -0.3152  0.5817
 1811SOL     OW 7289   2.253   1.191   3.110  0.3429  0.2131 -0.1898
 1811SOL    HW2 7290   2.247   1.186   3.206 -0.1958 -0.5028 -0.2616
 1811SOL    HW3 7291   2.236   1.102   3.080 -0.7639  0.7020 -1.0247
 1811SOL    MW4 7292   2.250   1.178   3.119  0.1259  0.1831 -0.3090
 1812SOL     OW 7293   2.490   1.310   3.048  0.4416  0.1986  0.2710
 1812SOL    HW2 7294   2.408   1.285   3.091 -0.8486  1.1612 -1.5528
 1812SOL    HW3 7295   2.470   1.306   2.955  2.5458  0.2873 -0.2043
 1812SOL    MW4 7296   2.476   1.306   3.042  0.5488  0.3375 -0.0322
 1813SOL     OW 7297   2.476   1.572   3.111 -0.1764  0.4674 -0.1476
 1813SOL    HW2 7298   2.390   1.593   3.073 -0.5225 -0.6799 -0.0328
 1813SOL    HW3 7299   2.489   1.480   3.089 -0.1098 -0.0595  1.9701
 1813SOL    MW4 7300   2.466   1.563   3.103 -0.2134  0.2466  0.1469
 1814SOL     OW 7301   2.226   1.670   3.004 -0.0778 -0.1334 -0.5895
 1814SOL    HW2 7302   2.150   1.620   3.036 -0.0529 -0.5639 -1.1905
 1814SOL    HW3 7303   2.217   1.668   2.909  1.1424 -0.8892 -0.6950
 1814SOL    MW4 7304   2.215   1.663   2.996  0.0865 -0.2899 -0.6828
 1815SOL     OW 7305   2.244   1.924   3.119 -0.1586 -0.3857 -0.0589
 1815SOL    HW2 7306   2.310   1.976   3.073 -0.2957  0.4987  0.7243
 1815SOL    HW3 7307   2.239   1.842   3.070 -0.4972  0.6386 -1.7846
 1815SOL    MW4 7308   2.252   1.920   3.106 -0.2213 -0.1339 -0.1833
 1816SOL     OW 7309   2.443   2.075   2.995 -0.1027 -0.2345  0.5465
 1816SOL    HW2 7310   2.521   2.038   3.035  1.6821  1.6997 -0.9908
 1816SOL    HW3 7311   2.449   2.049   2.903 -0.2409  1.5512  0.0173
 1816SOL    MW4 7312   2.454   2.067   2.988  0.1147  0.2563  0.2739
 1817SOL     OW 7313   2.460   2.327   3.119 -0.0166  0.0739  0.0544
 1817SOL    HW2 7314   2.471   2.311   3.213  0.7458  0.8352  0.0968
 1817SOL    HW3 7315   2.474   2.242   3.078 -1.9068 -0.6090  0.7507
 1817SOL    MW4 7316   2.463   2.314   3.126 -0.1655  0.0842  0.1519
 1818SOL     OW 7317   2.211   2.402   3.031 -0.1741  0.0155  0.2542
 1818SOL    HW2 7318   2.211   2.489   3.071  0.3144  0.5599 -0.8817
 1818SOL    HW3 7319   2.296   2.364   3.053  0.1843  0.4037 -0.4228
 1818SOL    MW4 7320   2.222   2.409   3.039 -0.0625  0.1385  0.0150
 1819SOL     OW 7321   2.209   2.658   3.169 -0.6349  0.2210 -0.1366
 1819SOL    HW2 7322   2.288   2.709   3.152  0.1026 -1.1754 -0.9221
 1819SOL    HW3 7323   2.142   2.700   3.114  0.1581 -0.1191 -1.3944
 1819SOL    MW4 7324   2.210   2.670   3.159 -0.4332 -0.0081 -0.4063
 1820SOL     OW 7325   2.422   2.804   3.053 -0.1728 -0.0026  0.0558
 1820SOL    HW2 7326   2.440   2.894   3.081 -0.4009  0.2914 -0.7338
 1820SOL    HW3 7327   2.409   2.810   2.959  0.4294 -0.9618 -0.0949
 1820SOL    MW4 7328   2.423   2.817   3.045 -0.1237 -0.0904 -0.0682
 1821SOL     OW 7329   2.441   3.063   3.122 -0.2322 -0.2497 -0.4553
 1821SOL    HW2 7330   2.518   3.106   3.083 -0.4210  0.8219  0.3404
 1821SOL    HW3 7331   2.367   3.115   3.091 -0.3458  0.9533  1.7371
 1821SOL    MW4 7332   2.442   3.076   3.112 -0.2720  0.0503 -0.0613
 1822SOL     OW 7333   2.213   3.184   3.045 -0.6569 -0.1287  0.6139
 1822SOL    HW2 7334   2.206   3.274   3.075 -0.7987 -0.4237  1.4638
 1822SOL    HW3 7335   2.131   3.143   3.072 -0.4701 -0.5932  0.4847
 1822SOL    MW4 7336   2.201   3.191   3.052 -0.6511 -0.2291  0.7091
 1823SOL     OW 7337   2.209   3.448   3.116 -0.5784  0.0583  0.1437
 1823SOL    HW2 7338   2.283   3.503   3.091 -1.0861  0.4396 -0.5713
 1823SOL    HW3 7339   2.132   3.496   3.084 -1.1733 -0.0673  1.3440
 1823SOL    MW4 7340   2.208   3.462   3.108 -0.7238  0.0923  0.2074
 1824SOL     OW 7341   2.442   3.585   3.033  0.2481  0.5724 -0.4350
 1824SOL    HW2 7342   2.520   3.533   3.052 -0.4985 -0.8522 -1.2140
 1824SOL    HW3 7343   2.461   3.671   3.071  1.1173 -0.5192  1.7025
 1824SOL    MW4 7344   2.455   3.589   3.040  0.2642  0.2403 -0.2558
 1825SOL     OW 7345   2.436   3.848   3.126 -0.3627 -0.0845  0.2982
 1825SOL    HW2 7346   2.438   3.871   3.219 -0.0247  0.3379  0.1884
 1825SOL    HW3 7347   2.511   3.894   3.089  0.4755 -1.5970  0.1198
 1825SOL    MW4 7348   2.446   3.857   3.134 -0.2077 -0.2284  0.2604
 1826SOL     OW 7349   2.234   4.004   3.022  0.1651  0.1691 -0.5113
 1826SOL    HW2 7350   2.302   3.947   3.057  0.9944  1.1802 -0.4332
 1826SOL    HW3 7351   2.154   3.952   3.024  1.2724 -1.6536 -2.2588
 1826SOL    MW4 7352   2.232   3.990   3.027  0.4206  0.0622 -0.7317
 1827SOL     OW 7353   2.251   4.267   3.113  0.2110  0.5173 -0.3259
 1827SOL    HW2 7354   2.231   4.177   3.089 -1.2102  0.9407 -0.7915
 1827SOL    HW3 7355   2.179   4.318   3.076  0.2360  1.6733  1.1511
 1827SOL    MW4 7356   2.239   4.262   3.105  0.0267  0.7257 -0.1926
 1828SOL     OW 7357   2.451   4.416   3.009 -0.1528  0.0456 -0.1756
 1828SOL    HW2 7358   2.385   4.357   3.044 -1.9886  2.1657  0.0279
 1828SOL    HW3 7359   2.455   4.395   2.915 -0.4931 -0.6662 -0.0318
 1828SOL    MW4 7360   2.443   4.406   3.001 -0.4401  0.2317 -0.1297
 1829SOL     OW 7361   2.901   0.002   3.136 -0.0154  0.0948  0.1593
 1829SOL    HW2 7362   2.989   0.027   3.110 -0.0893  0.5842  0.3822
 1829SOL    HW3 7363   2.891  -0.088   3.103  0.2031  0.3938 -0.7309
 1829SOL    MW4 7364   2.911  -0.007   3.129  0.0038  0.1988  0.0708
 1830SOL     OW 7365   2.684   0.130   3.009 -0.4341  0.2081 -0.0504
 1830SOL    HW2 7366   2.758   0.078   3.040 -0.5155 -0.4379 -0.9082
 1830SOL    HW3 7367   2.607   0.090   3.051 -0.4144  0.1483 -0.0720
 1830SOL    MW4 7368   2.683   0.118   3.018 -0.4423  0.1150 -0.1667
 1831SOL     OW 7369   2.707   0.386   3.115 -0.1448 -0.0924  0.5919
 1831SOL    HW2 7370   2.697   0.299   3.074  0.9791 -0.0839  0.2782
 1831SOL    HW3 7371   2.632   0.436   3.083 -0.4417 -0.7528  0.2428
 1831SOL    MW4 7372   2.696   0.381   3.105 -0.0355 -0.1784  0.5043
 1832SOL     OW 7373   2.955   0.506   3.028 -0.2299  0.5542 -0.1977
 1832SOL    HW2 7374   2.867   0.470   3.044  0.1134 -0.4171 -0.4708
 1832SOL    HW3 7375   2.959   0.516   2.933  0.1967 -0.0495 -0.2482
 1832SOL    MW4 7376   2.944   0.502   3.018 -0.1283  0.3464 -0.2406
 1833SOL     OW 7377   2.944   0.763   3.141 -0.3226 -0.2642 -0.3267
 1833SOL    HW2 7378   2.949   0.766   3.236  0.2474 -0.2965 -0.3558
 1833SOL    HW3 7379   2.948   0.670   3.120  1.3714 -0.1673 -0.4779
 1833SOL    MW4 7380   2.945   0.751   3.151 -0.0241 -0.2556 -0.3505
 1834SOL     OW 7381   2.718   0.881   3.015  0.0307 -0.5025  0.1694
 1834SOL    HW2 7382   2.723   0.959   3.070  0.3235 -0.0035 -0.5612
 1834SOL    HW3 7383   2.787   0.824   3.049 -0.7275 -0.7956  1.2398
 1834SOL    MW4 7384   2.728   0.884   3.027 -0.0308 -0.4753  0.2141
 1835SOL     OW 7385   2.688   1.134   3.135 -0.0747  0.1433  0.6793
 1835SOL    HW2 7386   2.760   1.189   3.105 -0.0506 -0.3307 -0.1589
 1835SOL    HW3 7387   2.609   1.175   3.100 -0.2040  0.6231  1.5377
 1835SOL    MW4 7388   2.687   1.147   3.127 -0.0887  0.1440  0.6819
 1836SOL     OW 7389   2.929   1.299   3.049  0.1049 -0.0254 -0.0239
 1836SOL    HW2 7390   3.008   1.258   3.084 -0.7246 -0.0240  1.9049
 1836SOL    HW3 7391   2.936   1.391   3.074 -0.3236  0.0542 -0.1855
 1836SOL    MW4 7392   2.940   1.305   3.057 -0.0610 -0.0148  0.2091
 1837SOL     OW 7393   2.937   1.571   3.087  0.2920 -0.2464  0.0092
 1837SOL    HW2 7394   2.946   1.578   3.182 -2.3748  1.0592  0.2251
 1837SOL    HW3 7395   3.016   1.610   3.052 -0.3012  2.5931  1.6758
 1837SOL    MW4 7396   2.948   1.577   3.095 -0.1383  0.3004  0.2577
 1838SOL     OW 7397   2.706   1.704   2.995 -0.4425  0.2586 -0.1842
 1838SOL    HW2 7398   2.790   1.671   3.026 -0.7381 -0.5765 -0.2597
 1838SOL    HW3 7399   2.642   1.643   3.031 -0.9273  0.2665 -1.0358
 1838SOL    MW4 7400   2.709   1.692   3.004 -0.5453  0.1495 -0.3066
 1839SOL     OW 7401   2.637   1.932   3.139  0.2047 -0.2961 -0.0994
 1839SOL    HW2 7402   2.722   1.977   3.139  0.5874 -1.0253 -0.0285
 1839SOL    HW3 7403   2.656   1.843   3.111 -0.3048 -0.8878  1.3776
 1839SOL    MW4 7404   2.651   1.926   3.136  0.1879 -0.4704  0.1047
 1840SOL     OW 7405   2.890   2.050   3.075 -0.1336  0.7225  0.3268
 1840SOL    HW2 7406   2.921   2.138   3.096 -0.0398  0.6507  0.4936
 1840SOL    HW3 7407   2.885   2.048   2.980 -0.4512  1.0135  0.3382
 1840SOL    MW4 7408   2.894   2.061   3.065 -0.1633  0.7517  0.3505
 1841SOL     OW 7409   2.916   2.307   3.142 -0.2490 -0.5154  0.0649
 1841SOL    HW2 7410   2.988   2.359   3.107 -0.1272 -0.8348 -0.1559
 1841SOL    HW3 7411   2.837   2.356   3.118 -0.1337 -0.4298 -0.1382
 1841SOL    MW4 7412   2.915   2.320   3.134 -0.2177 -0.5462  0.0091
 1842SOL     OW 7413   2.703   2.445   3.027  0.3620 -0.4994  0.1014
 1842SOL    HW2 7414   2.699   2.537   3.052 -0.8521 -0.1000 -1.4358
 1842SOL    HW3 7415   2.617   2.409   3.051  0.7920 -1.1988  0.6030
 1842SOL    MW4 7416   2.691   2.452   3.033  0.2584 -0.5388 -0.0350
 1843SOL     OW 7417   2.667   2.699   3.134  0.0857 -0.4491  0.9383
 1843SOL    HW2 7418   2.659   2.686   3.228  0.9368 -0.9920  0.9441
 1843SOL    HW3 7419   2.579   2.725   3.105 -0.0557  0.2014  1.9499
 1843SOL    MW4 7420   2.654   2.701   3.142  0.1791 -0.4349  1.0726
 1844SOL     OW 7421   2.882   2.858   3.098  0.1513 -0.2456 -0.2874
 1844SOL    HW2 7422   2.959   2.805   3.120 -0.1763 -0.6182 -0.0383
 1844SOL    HW3 7423   2.808   2.798   3.106 -0.0678 -0.1646 -1.5705
 1844SOL    MW4 7424   2.882   2.843   3.102  0.0789 -0.2842 -0.4237
 1845SOL     OW 7425   2.895   3.119   3.093  0.2400  0.4849 -0.1164
 1845SOL    HW2 7426   2.813   3.149   3.054 -0.1063 -0.1355  0.1364
 1845SOL    HW3 7427   2.888   3.024   3.095  0.5050  0.4800  0.9076
 1845SOL    MW4 7428   2.884   3.111   3.088  0.2296  0.4025  0.0522
 1846SOL     OW 7429   2.645   3.196   3.010  0.4568 -0.3322  0.4473
 1846SOL    HW2 7430   2.660   3.284   3.046 -0.2389  0.1138 -0.3314
 1846SOL    HW3 7431   2.644   3.209   2.915 -0.0619 -1.1186  0.3432
 1846SOL    MW4 7432   2.647   3.209   3.002  0.2966 -0.3772  0.3307
 1847SOL     OW 7433   2.675   3.471   3.085 -0.1426  0.7349  0.2178
 1847SOL    HW2 7434   2.662   3.477   3.180  0.7356 -1.2069  0.4860
 1847SOL    HW3 7435   2.760   3.513   3.070 -0.5767  1.6133  0.2013
 1847SOL    MW4 7436   2.685   3.477   3.096 -0.0842  0.5946  0.2511
 1848SOL     OW 7437   2.913   3.577   3.033 -0.1153 -0.0367 -0.1445
 1848SOL    HW2 7438   2.979   3.548   3.097 -1.6716  0.6020  1.8255
 1848SOL    HW3 7439   2.894   3.667   3.059 -0.7365  0.2452 -1.5822
 1848SOL    MW4 7440   2.919   3.585   3.045 -0.4027  0.0849 -0.0741
 1849SOL     OW 7441   2.921   3.866   3.097  0.1495  0.0904  0.2584
 1849SOL    HW2 7442   2.914   3.865   3.193 -0.6018 -1.9319  0.2063
 1849SOL    HW3 7443   2.834   3.891   3.067  0.2686  0.3065  0.0954
 1849SOL    MW4 7444   2.908   3.869   3.106  0.0663 -0.1481  0.2301
 1850SOL     OW 7445   2.677   3.992   3.013 -0.2181 -0.2416  0.1798
 1850SOL    HW2 7446   2.679   4.086   3.032  0.3852 -0.3877  0.8751
 1850SOL    HW3 7447   2.665   3.987   2.918 -3.2133  0.5187  0.4494
 1850SOL    MW4 7448   2.675   4.004   3.003 -0.5338 -0.1612  0.3073
 1851SOL     OW 7449   2.681   4.256   3.079 -0.0375 -0.4015  0.4222
 1851SOL    HW2 7450   2.677   4.255   3.174 -0.4575 -0.3808  0.4069
 1851SOL    HW3 7451   2.615   4.320   3.053  1.3205  0.9494  0.1835
 1851SOL    MW4 7452   2.672   4.265   3.088  0.0863 -0.2208  0.3884
 1852SOL     OW 7453   2.893   4.417   3.029  0.4700 -0.1350 -0.0855
 1852SOL    HW2 7454   2.966   4.373   3.074  0.5061  0.1199  0.1090
 1852SOL    HW3 7455   2.821   4.354   3.033  0.4594 -0.1003  0.3761
 1852SOL    MW4 7456   2.893   4.403   3.035  0.4733 -0.0963  0.0007
 1853SOL     OW 7457   3.378   4.666   3.173 -0.1566  0.5521  0.4834
 1853SOL    HW2 7458   3.459   4.692   3.130  0.0621  1.3303  1.3454
 1853SOL    HW3 7459   3.360   4.578   3.139  1.0523  0.3658  0.2820
 1853SOL    MW4 7460   3.387   4.658   3.163  0.0317  0.6299  0.5705
 1854SOL     OW 7461   3.157   0.104   3.064 -0.1505  0.1399  0.5578
 1854SOL    HW2 7462   3.141   0.194   3.094 -1.8831 -0.5181  1.6322
 1854SOL    HW3 7463   3.239   0.079   3.108  1.4202  1.8683 -1.3059
 1854SOL    MW4 7464   3.166   0.113   3.074 -0.1719  0.2811  0.4539
 1855SOL     OW 7465   3.139   0.352   3.174  0.0948 -0.1938 -0.3735
 1855SOL    HW2 7466   3.221   0.395   3.148 -0.0622  0.0480 -0.4756
 1855SOL    HW3 7467   3.071   0.404   3.132 -0.1014 -0.5256 -0.4689
 1855SOL    MW4 7468   3.141   0.365   3.165  0.0479 -0.2057 -0.3994
 1856SOL     OW 7469   3.368   0.483   3.104  0.3629 -0.1569 -0.4114
 1856SOL    HW2 7470   3.449   0.433   3.110  0.9056  0.5191 -1.7802
 1856SOL    HW3 7471   3.351   0.490   3.010 -1.4796 -0.6003 -0.1212
 1856SOL    MW4 7472   3.376   0.478   3.093  0.1915 -0.1262 -0.5538
 1857SOL     OW 7473   3.379   0.762   3.159 -0.4382  0.6281 -0.3614
 1857SOL    HW2 7474   3.399   0.775   3.252 -0.7323  1.2024 -0.3807
 1857SOL    HW3 7475   3.364   0.667   3.152 -0.0901  0.5319  0.1092
 1857SOL    MW4 7476   3.380   0.751   3.170 -0.4311  0.6912 -0.3018
 1858SOL     OW 7477   3.177   0.882   3.047  0.3386 -0.2767  0.0548
 1858SOL    HW2 7478   3.250   0.843   3.096 -0.6437 -0.4726  1.3762
 1858SOL    HW3 7479   3.102   0.826   3.067 -0.0017 -0.5938 -2.0050
 1858SOL    MW4 7480   3.177   0.869   3.056  0.1640 -0.3444 -0.0429
 1859SOL     OW 7481   3.142   1.134   3.151 -0.0386  0.4280  0.3401
 1859SOL    HW2 7482   3.136   1.121   3.246 -1.0447  0.6873  0.3164
 1859SOL    HW3 7483   3.147   1.045   3.115 -0.7545  0.2896  0.5727
 1859SOL    MW4 7484   3.142   1.121   3.159 -0.2656  0.4438  0.3676
 1860SOL     OW 7485   3.377   1.267   3.084  0.0664  0.3724 -0.4968
 1860SOL    HW2 7486   3.451   1.224   3.127 -0.4797 -1.3030 -1.1786
 1860SOL    HW3 7487   3.300   1.229   3.126 -0.4403  0.0426 -1.7093
 1860SOL    MW4 7488   3.377   1.256   3.095 -0.0727  0.1078 -0.7467
 1861SOL     OW 7489   3.362   1.539   3.121  0.4968  0.4241 -0.0221
 1861SOL    HW2 7490   3.378   1.555   3.214 -0.5212  0.6696  0.1226
 1861SOL    HW3 7491   3.351   1.444   3.115 -0.8398  0.5394  0.3572
 1861SOL    MW4 7492   3.362   1.528   3.133  0.1864  0.4717  0.0472
 1862SOL     OW 7493   3.166   1.692   2.995  0.5146  0.3814  0.0898
 1862SOL    HW2 7494   3.223   1.630   3.040 -0.3273 -1.0877 -0.7884
 1862SOL    HW3 7495   3.195   1.690   2.904 -0.0705  0.6243 -0.1069
 1862SOL    MW4 7496   3.177   1.683   2.989  0.3264  0.2196 -0.0520
 1863SOL     OW 7497   3.123   1.918   3.156  0.7664  0.3374  0.1687
 1863SOL    HW2 7498   3.146   1.850   3.093  1.0780  0.4023  0.2072
 1863SOL    HW3 7499   3.047   1.962   3.118  1.1136  0.5460 -0.2906
 1863SOL    MW4 7500   3.116   1.915   3.143  0.8531  0.3734  0.1132
 1864SOL     OW 7501   3.313   2.110   3.040 -0.4145  0.1731  0.1913
 1864SOL    HW2 7502   3.395   2.065   3.055 -0.0962  0.2694 -1.1981
 1864SOL    HW3 7503   3.246   2.054   3.080  0.1823 -0.5462  0.1752
 1864SOL    MW4 7504   3.315   2.097   3.048 -0.2937  0.0908  0.0060
 1865SOL     OW 7505   3.370   2.385   3.130  0.0929  0.0753 -0.0626
 1865SOL    HW2 7506   3.401   2.379   3.220  0.6092  0.6403 -0.1983
 1865SOL    HW3 7507   3.343   2.296   3.107  0.4048 -0.1611  0.4896
 1865SOL    MW4 7508   3.370   2.373   3.138  0.2019  0.1185 -0.0074
 1866SOL     OW 7509   3.123   2.466   3.055 -0.0187  0.3947  0.0516
 1866SOL    HW2 7510   3.208   2.436   3.086 -0.2035 -0.0057  0.1778
 1866SOL    HW3 7511   3.127   2.457   2.960  0.6427  1.8694 -0.0715
 1866SOL    MW4 7512   3.135   2.461   3.046  0.0441  0.5362  0.0520
 1867SOL     OW 7513   3.150   2.735   3.145  0.2244  0.5777  0.1630
 1867SOL    HW2 7514   3.146   2.740   3.241 -0.6234  1.3097  0.0945
 1867SOL    HW3 7515   3.158   2.642   3.126 -0.8458  0.3329  0.9033
 1867SOL    MW4 7516   3.151   2.724   3.155 -0.0286  0.6418  0.2518
 1868SOL     OW 7517   3.393   2.868   3.062 -0.1440  0.0628 -0.0084
 1868SOL    HW2 7518   3.384   2.962   3.082 -1.5712 -0.2665  0.9638
 1868SOL    HW3 7519   3.309   2.830   3.089  1.0978 -1.7975  1.3277
 1868SOL    MW4 7520   3.380   2.876   3.069 -0.1681 -0.2263  0.2959
 1869SOL     OW 7521   3.368   3.117   3.121 -0.0085  0.2294  0.0841
 1869SOL    HW2 7522   3.361   3.114   3.216 -0.7891 -1.1552 -0.0016
 1869SOL    HW3 7523   3.296   3.172   3.093 -0.0039  0.3308  0.2698
 1869SOL    MW4 7524   3.358   3.124   3.130 -0.1109  0.0603  0.0970
 1870SOL     OW 7525   3.122   3.238   3.022 -0.3687  0.5019 -0.3070
 1870SOL    HW2 7526   3.041   3.191   3.045 -0.4238  0.9114  0.3426
 1870SOL    HW3 7527   3.128   3.230   2.927 -1.5088  1.0180 -0.4221
 1870SOL    MW4 7528   3.112   3.230   3.013 -0.5264  0.6242 -0.2363
 1871SOL     OW 7529   3.110   3.473   3.181 -0.4837  0.1602  0.1306
 1871SOL    HW2 7530   3.193   3.508   3.148 -0.0061  1.5953  2.7034
 1871SOL    HW3 7531   3.099   3.390   3.135  1.3836  0.8714 -1.6952
 1871SOL    MW4 7532   3.119   3.467   3.171 -0.1740  0.4432  0.2294
 1872SOL     OW 7533   3.332   3.586   3.036  0.5209  0.3031 -0.1477
 1872SOL    HW2 7534   3.410   3.544   3.071 -0.0821 -0.8068 -0.1156
 1872SOL    HW3 7535   3.327   3.670   3.082  1.3182  0.0918  0.3324
 1872SOL    MW4 7536   3.342   3.591   3.047  0.5465  0.1285 -0.0799
 1873SOL     OW 7537   3.354   3.843   3.143  0.1234 -0.1539  0.0150
 1873SOL    HW2 7538   3.357   3.857   3.238  1.1819  0.7494 -0.1459
 1873SOL    HW3 7539   3.289   3.905   3.111 -0.1355 -0.3651  0.1302
 1873SOL    MW4 7540   3.346   3.853   3.151  0.2286 -0.0627  0.0088
 1874SOL     OW 7541   3.155   4.037   3.026 -0.0136 -0.3962  0.6696
 1874SOL    HW2 7542   3.079   3.984   3.052  1.2646 -1.4713  2.2935
 1874SOL    HW3 7543   3.151   4.039   2.930  0.6665 -4.5864  0.4795
 1874SOL    MW4 7544   3.144   4.030   3.017  0.2446 -1.0900  0.8588
 1875SOL     OW 7545   3.125   4.301   3.136  0.4253 -0.0263 -0.3389
 1875SOL    HW2 7546   3.127   4.284   3.230  0.6599  1.9555  0.0353
 1875SOL    HW3 7547   3.132   4.214   3.096 -1.3393 -1.0390  1.4618
 1875SOL    MW4 7548   3.126   4.287   3.143  0.2234  0.1016 -0.0520
 1876SOL     OW 7549   3.344   4.424   3.038  0.2295  0.0177  0.0775
 1876SOL    HW2 7550   3.416   4.366   3.063  0.2879  0.1400  0.1984
 1876SOL    HW3 7551   3.266   4.382   3.072  0.1424 -0.5901 -0.8769
 1876SOL    MW4 7552   3.343   4.411   3.046  0.2255 -0.0463 -0.0324
 1877SOL     OW 7553   3.843   4.628   3.147  0.5730  0.4366 -0.1620
 1877SOL    HW2 7554   3.828   4.533   3.140  0.0056  0.5700 -0.7714
 1877SOL    HW3 7555   3.767   4.667   3.104  0.2273  1.1906  1.1029
 1877SOL    MW4 7556   3.831   4.621   3.141  0.4523  0.5541 -0.0756
 1878SOL     OW 7557   3.614   0.082   3.042  0.0588  0.5065  0.0672
 1878SOL    HW2 7558   3.620   0.173   3.071  0.5208  0.7315 -0.7189
 1878SOL    HW3 7559   3.614   0.086   2.947 -0.7238 -0.2746  0.0238
 1878SOL    MW4 7560   3.615   0.094   3.034  0.0165  0.4331 -0.0422
 1879SOL     OW 7561   3.612   0.342   3.143  0.4040  0.1612  0.6329
 1879SOL    HW2 7562   3.612   0.356   3.238 -0.4163  0.1397  0.6325
 1879SOL    HW3 7563   3.681   0.401   3.111  0.4074  0.4695  1.1918
 1879SOL    MW4 7564   3.621   0.352   3.151  0.2964  0.1990  0.7067
 1880SOL     OW 7565   3.814   0.502   3.036  0.2817 -0.0066  1.0519
 1880SOL    HW2 7566   3.882   0.445   3.070 -0.4175 -0.3248  1.9284
 1880SOL    HW3 7567   3.817   0.580   3.092  0.9343  0.6301  0.1418
 1880SOL    MW4 7568   3.823   0.505   3.048  0.2754  0.0354  1.0474
 1881SOL     OW 7569   3.810   0.737   3.181 -0.3024 -0.2448  0.7011
 1881SOL    HW2 7570   3.821   0.731   3.276 -0.7827  1.0153  0.8508
 1881SOL    HW3 7571   3.877   0.800   3.153  0.5040 -1.3691  0.0594
 1881SOL    MW4 7572   3.820   0.745   3.190 -0.2596 -0.2269  0.6361
 1882SOL     OW 7573   3.621   0.868   3.058  0.4393  0.1692 -0.5362
 1882SOL    HW2 7574   3.683   0.810   3.101  0.4538  1.3701  1.1172
 1882SOL    HW3 7575   3.535   0.835   3.085  0.4616  1.9972  1.9797
 1882SOL    MW4 7576   3.618   0.856   3.067  0.4444  0.5689  0.0138
 1883SOL     OW 7577   3.603   1.127   3.183  0.0989 -0.6565 -0.5795
 1883SOL    HW2 7578   3.676   1.181   3.153  0.4243 -0.1239  1.0953
 1883SOL    HW3 7579   3.613   1.045   3.136  0.8054  0.0069 -1.6107
 1883SOL    MW4 7580   3.614   1.124   3.173  0.2351 -0.4987 -0.4945
 1884SOL     OW 7581   3.807   1.289   3.051 -0.1275  0.1792  0.3156
 1884SOL    HW2 7582   3.792   1.379   3.078 -0.8290  0.0324  0.4146
 1884SOL    HW3 7583   3.802   1.291   2.956 -1.0176  0.0897  0.3574
 1884SOL    MW4 7584   3.805   1.301   3.042 -0.3376  0.1481  0.3343
 1885SOL     OW 7585   3.794   1.562   3.107  0.3779 -0.1517  0.1763
 1885SOL    HW2 7586   3.815   1.577   3.199  0.2925 -1.6335  0.4471
 1885SOL    HW3 7587   3.717   1.616   3.091  0.4370  0.1737  0.9513
 1885SOL    MW4 7588   3.787   1.571   3.117  0.3746 -0.3042  0.3142
 1886SOL     OW 7589   3.552   1.706   3.002  0.4562 -0.1803  0.7299
 1886SOL    HW2 7590   3.481   1.650   3.034 -0.1187  1.1193  1.7777
 1886SOL    HW3 7591   3.551   1.694   2.907 -1.3741  0.0263  0.6980
 1886SOL    MW4 7592   3.542   1.697   2.993  0.1385  0.0184  0.8640
 1887SOL     OW 7593   3.535   1.961   3.100 -0.4688 -0.3731 -0.6218
 1887SOL    HW2 7594   3.545   1.949   3.195 -0.5824  0.2947 -0.5255
 1887SOL    HW3 7595   3.536   1.872   3.065 -0.6023 -0.6361  0.0258
 1887SOL    MW4 7596   3.536   1.948   3.108 -0.5014 -0.3197 -0.5238
 1888SOL     OW 7597   3.801   2.033   3.045 -0.1181 -0.8369  0.3218
 1888SOL    HW2 7598   3.711   2.002   3.056  0.3827 -2.5689 -0.2406
 1888SOL    HW3 7599   3.807   2.057   2.953 -0.4315  0.7078  0.7039
 1888SOL    MW4 7600   3.790   2.032   3.035 -0.0930 -0.8616  0.2980
 1889SOL     OW 7601   3.824   2.301   3.105  0.3910  0.1006  0.0167
 1889SOL    HW2 7602   3.819   2.320   3.199 -0.1257 -2.6053  0.5667
 1889SOL    HW3 7603   3.808   2.207   3.099  1.0216  0.1508 -2.7483
 1889SOL    MW4 7604   3.821   2.291   3.117  0.4058 -0.2501 -0.2756
 1890SOL     OW 7605   3.617   2.478   3.044 -0.0848 -0.2052 -0.2004
 1890SOL    HW2 7606   3.685   2.424   3.083  0.1219 -0.9819 -1.6110
 1890SOL    HW3 7607   3.535   2.435   3.068 -0.0248  0.0268  0.4298
 1890SOL    MW4 7608   3.615   2.465   3.052 -0.0496 -0.2768 -0.3033
 1891SOL     OW 7609   3.607   2.736   3.166 -0.6549  0.0516 -0.3548
 1891SOL    HW2 7610   3.606   2.653   3.118 -0.2715  0.2934 -0.7880
 1891SOL    HW3 7611   3.535   2.786   3.127  0.1843  0.5702 -1.2646
 1891SOL    MW4 7612   3.597   2.732   3.154 -0.4935  0.1519 -0.5322
 1892SOL     OW 7613   3.826   2.850   3.061 -0.0411 -0.4260 -0.0472
 1892SOL    HW2 7614   3.742   2.817   3.092 -0.9239  2.1661  0.4151
 1892SOL    HW3 7615   3.816   2.856   2.966 -0.1167 -0.8241 -0.0648
 1892SOL    MW4 7616   3.814   2.846   3.052 -0.1676 -0.1369  0.0114
 1893SOL     OW 7617   3.781   3.109   3.165 -0.0771  0.5655  0.2185
 1893SOL    HW2 7618   3.792   3.017   3.142 -1.1838 -0.0443  1.9779
 1893SOL    HW3 7619   3.719   3.143   3.100 -1.6435 -0.6104  1.0546
 1893SOL    MW4 7620   3.774   3.101   3.153 -0.4299  0.3297  0.5608
 1894SOL     OW 7621   3.598   3.241   3.010 -0.6382  0.5273 -0.1723
 1894SOL    HW2 7622   3.517   3.199   3.038 -0.7387 -0.3551 -1.7233
 1894SOL    HW3 7623   3.591   3.246   2.915  0.5354  1.6805 -0.2200
 1894SOL    MW4 7624   3.587   3.237   3.001 -0.4966  0.5631 -0.3831
 1895SOL     OW 7625   3.572   3.493   3.133  0.7878  0.2395 -0.0277
 1895SOL    HW2 7626   3.627   3.560   3.094 -0.2844  0.1029 -1.8153
 1895SOL    HW3 7627   3.604   3.410   3.097  0.8034 -0.0293  0.5960
 1895SOL    MW4 7628   3.583   3.490   3.123  0.6487  0.1860 -0.1814
 1896SOL     OW 7629   3.807   3.613   3.041 -0.3131  0.0018 -0.1978
 1896SOL    HW2 7630   3.886   3.573   3.078 -0.2021  0.9153  0.5494
 1896SOL    HW3 7631   3.800   3.698   3.083 -1.2125  0.2983 -0.9181
 1896SOL    MW4 7632   3.816   3.619   3.051 -0.4170  0.1614 -0.1941
 1897SOL     OW 7633   3.849   3.870   3.145 -0.3841 -0.3908  0.2939
 1897SOL    HW2 7634   3.857   3.865   3.241 -0.1071 -0.5022  0.2637
 1897SOL    HW3 7635   3.764   3.913   3.131 -0.8038 -1.1115  0.5775
 1897SOL    MW4 7636   3.838   3.875   3.156 -0.4029 -0.5007  0.3273
 1898SOL     OW 7637   3.598   3.976   3.101 -0.0285  0.3430 -0.3595
 1898SOL    HW2 7638   3.525   3.917   3.121  0.1435  0.1487 -0.3114
 1898SOL    HW3 7639   3.602   3.979   3.006  1.2745 -1.3311 -0.3726
 1898SOL    MW4 7640   3.589   3.969   3.091  0.1662  0.0963 -0.3548
 1899SOL     OW 7641   3.547   4.258   3.159  0.3535 -0.3271 -0.0572
 1899SOL    HW2 7642   3.628   4.304   3.138 -0.1688  0.3209 -0.6765
 1899SOL    HW3 7643   3.564   4.167   3.134  1.7233 -0.6837  2.0740
 1899SOL    MW4 7644   3.560   4.252   3.153  0.4654 -0.2890  0.1421
 1900SOL     OW 7645   3.785   4.364   3.100 -0.3831 -0.0834  0.0226
 1900SOL    HW2 7646   3.873   4.338   3.126 -0.4577  0.7524  1.1471
 1900SOL    HW3 7647   3.788   4.368   3.005  0.5300 -0.9756  0.0120
 1900SOL    MW4 7648   3.797   4.361   3.091 -0.2723 -0.0906  0.1698
 1901SOL     OW 7649   4.314   4.661   3.136 -0.0199 -0.1547 -0.0307
 1901SOL    HW2 7650   4.316   4.673   3.231  1.8266  0.1510 -0.0870
 1901SOL    HW3 7651   4.320   4.566   3.124  0.9376 -0.1186  0.1424
 1901SOL    MW4 7652   4.315   4.650   3.147  0.3500 -0.1101 -0.0150
 1902SOL     OW 7653   4.040   0.107   3.038  0.4453  0.5282 -0.2646
 1902SOL    HW2 7654   4.128   0.082   3.066  0.8343  3.1145  1.0398
 1902SOL    HW3 7655   3.982   0.047   3.085  1.4662 -0.5035 -0.3075
 1902SOL    MW4 7656   4.044   0.096   3.048  0.6313  0.7333 -0.0980
 1903SOL     OW 7657   4.011   0.366   3.138 -0.3333  0.0599 -0.3133
 1903SOL    HW2 7658   4.091   0.415   3.120 -1.1133  1.4032 -0.1915
 1903SOL    HW3 7659   4.027   0.279   3.102  1.8453 -0.2202  1.2140
 1903SOL    MW4 7660   4.024   0.361   3.131 -0.1488  0.2002 -0.0956
 1904SOL     OW 7661   4.252   0.466   3.062  0.3094 -0.5048  0.3056
 1904SOL    HW2 7662   4.274   0.554   3.094 -1.0727 -0.3566  0.8754
 1904SOL    HW3 7663   4.265   0.471   2.968  0.6390  0.1927  0.3815
 1904SOL    MW4 7664   4.257   0.478   3.054  0.1702 -0.3932  0.3910
 1905SOL     OW 7665   4.291   0.711   3.142 -0.5115 -0.2293  0.3113
 1905SOL    HW2 7666   4.211   0.760   3.125 -0.2113  0.1773  0.0563
 1905SOL    HW3 7667   4.362   0.772   3.121 -0.1111  0.4197  3.3211
 1905SOL    MW4 7668   4.290   0.725   3.137 -0.4196 -0.0900  0.6747
 1906SOL     OW 7669   4.048   0.896   3.107  0.4699 -0.0916 -0.1261
 1906SOL    HW2 7670   4.042   0.990   3.124  1.4688 -0.1158  0.4000
 1906SOL    HW3 7671   4.045   0.889   3.012 -1.1336  0.3515 -0.1187
 1906SOL    MW4 7672   4.047   0.908   3.097  0.3905 -0.0364 -0.0558
 1907SOL     OW 7673   4.032   1.169   3.141 -0.4850  0.2942 -0.3242
 1907SOL    HW2 7674   4.016   1.183   3.234 -1.3115  1.5664 -0.6469
 1907SOL    HW3 7675   3.953   1.202   3.098 -0.0031 -0.0447 -1.4922
 1907SOL    MW4 7676   4.019   1.175   3.147 -0.5302  0.4174 -0.5212
 1908SOL     OW 7677   4.252   1.301   3.031 -0.3565 -0.0855  0.0597
 1908SOL    HW2 7678   4.177   1.246   3.051  0.1688 -0.6557  0.4738
 1908SOL    HW3 7679   4.267   1.289   2.937 -0.8790  0.1538 -0.0549
 1908SOL    MW4 7680   4.244   1.292   3.021 -0.3557 -0.1291  0.0994
 1909SOL     OW 7681   4.246   1.548   3.138  0.5615 -0.3957  0.3774
 1909SOL    HW2 7682   4.170   1.600   3.114  0.7263 -0.1559  0.3665
 1909SOL    HW3 7683   4.231   1.463   3.098  0.7258 -0.0702 -0.3910
 1909SOL    MW4 7684   4.234   1.544   3.129  0.6046 -0.3210  0.2744
 1910SOL     OW 7685   4.032   1.664   3.010  0.7923  0.0489  0.2450
 1910SOL    HW2 7686   4.033   1.747   3.058  0.8611  0.8038 -1.0454
 1910SOL    HW3 7687   3.947   1.625   3.030  0.0404  1.2522 -0.5130
 1910SOL    MW4 7688   4.021   1.670   3.019  0.7019  0.3072 -0.0253
 1911SOL     OW 7689   4.022   1.909   3.147  0.0465  0.1758  0.8356
 1911SOL    HW2 7690   4.096   1.962   3.118  0.8971 -2.5631 -2.1889
 1911SOL    HW3 7691   3.947   1.947   3.102  0.1087  0.8565  1.2921
 1911SOL    MW4 7692   4.022   1.921   3.138  0.1669 -0.0956  0.4966
 1912SOL     OW 7693   4.232   2.057   3.066  0.0206 -0.2107 -0.0963
 1912SOL    HW2 7694   4.261   2.140   3.102 -1.9141  0.4195  0.0231
 1912SOL    HW3 7695   4.247   2.066   2.971 -1.3541  0.7702 -0.2369
 1912SOL    MW4 7696   4.238   2.069   3.058 -0.4163  0.0017 -0.0992
 1913SOL     OW 7697   4.254   2.316   3.134  0.5166  0.8205  0.5430
 1913SOL    HW2 7698   4.178   2.357   3.093  0.6433  1.1639  0.6455
 1913SOL    HW3 7699   4.328   2.369   3.104  0.8467 -0.2308 -0.5234
 1913SOL    MW4 7700   4.254   2.328   3.125  0.5770  0.7272  0.4158
 1914SOL     OW 7701   4.032   2.498   3.016  0.3457  0.1478 -0.2530
 1914SOL    HW2 7702   4.035   2.573   3.075  0.3415 -0.0921  0.0552
 1914SOL    HW3 7703   3.954   2.449   3.044 -0.0416  0.3920 -0.8965
 1914SOL    MW4 7704   4.022   2.501   3.027  0.2942  0.1483 -0.2971
 1915SOL     OW 7705   4.024   2.708   3.189  0.1736 -0.2522  0.6882
 1915SOL    HW2 7706   4.011   2.688   3.282 -0.7920  0.5981  0.7416
 1915SOL    HW3 7707   3.946   2.757   3.164  1.1958  0.9788 -0.1439
 1915SOL    MW4 7708   4.012   2.712   3.198  0.1812  0.0224  0.5853
 1916SOL     OW 7709   4.253   2.846   3.068 -0.5683 -0.3233  0.4847
 1916SOL    HW2 7710   4.176   2.790   3.076 -0.7067 -0.1461  0.3917
 1916SOL    HW3 7711   4.323   2.797   3.112 -0.8133 -0.3299  0.8717
 1916SOL    MW4 7712   4.252   2.832   3.075 -0.6185 -0.3006  0.5238
 1917SOL     OW 7713   4.251   3.114   3.111 -0.1332  0.1361 -0.0641
 1917SOL    HW2 7714   4.183   3.155   3.059  1.8892  1.3230 -1.8622
 1917SOL    HW3 7715   4.254   3.024   3.080 -1.1104 -0.0074  0.2576
 1917SOL    MW4 7716   4.242   3.108   3.100  0.0052  0.2737 -0.2589
 1918SOL     OW 7717   4.008   3.243   3.023  0.2098  0.2483  0.2644
 1918SOL    HW2 7718   3.935   3.198   3.065  0.3580  0.2511  0.5284
 1918SOL    HW3 7719   3.991   3.234   2.929  1.4519 -2.3542  0.2526
 1918SOL    MW4 7720   3.996   3.236   3.016  0.3932 -0.0949  0.2978
 1919SOL     OW 7721   4.037   3.520   3.133 -0.4834 -0.0444  0.6125
 1919SOL    HW2 7722   4.035   3.431   3.097 -1.1279  0.5141 -0.7672
 1919SOL    HW3 7723   4.040   3.508   3.228  2.4362 -1.5886  0.3906
 1919SOL    MW4 7724   4.037   3.507   3.140 -0.1836 -0.1743  0.4013
 1920SOL     OW 7725   4.276   3.605   3.050 -0.0830 -0.0976 -0.0859
 1920SOL    HW2 7726   4.289   3.692   3.087  0.7432 -0.2382 -0.0500
 1920SOL    HW3 7727   4.191   3.578   3.085  0.0726  0.3214  0.6380
 1920SOL    MW4 7728   4.266   3.613   3.060  0.0463 -0.0606  0.0143
 1921SOL     OW 7729   4.296   3.866   3.137  0.0272  0.2007  0.7805
 1921SOL    HW2 7730   4.225   3.921   3.104 -0.2607 -1.1004 -0.7868
 1921SOL    HW3 7731   4.376   3.915   3.115 -0.1215 -0.9301 -2.4574
 1921SOL    MW4 7732   4.297   3.880   3.130 -0.0300 -0.1202  0.1466
 1922SOL     OW 7733   4.080   4.013   3.047  0.6690  0.4108  0.3444
 1922SOL    HW2 7734   4.078   4.096   3.094 -0.2934  1.0450 -0.8205
 1922SOL    HW3 7735   3.999   3.969   3.071  1.3158 -0.3518  1.2051
 1922SOL    MW4 7736   4.069   4.018   3.057  0.6275  0.3939  0.3045
 1923SOL     OW 7737   4.055   4.242   3.178 -0.2652  0.4512  0.2015
 1923SOL    HW2 7738   4.046   4.237   3.274 -0.1202  0.5482  0.2192
 1923SOL    HW3 7739   4.138   4.287   3.164  0.2713 -0.5638  0.0333
 1923SOL    MW4 7740   4.064   4.247   3.189 -0.1750  0.3304  0.1817
 1924SOL     OW 7741   4.287   4.362   3.079  0.0206 -0.2786  0.8775
 1924SOL    HW2 7742   4.366   4.314   3.101  0.5871  0.3304  0.2064
 1924SOL    HW3 7743   4.288   4.367   2.983  0.2291  1.4914  0.9509
 1924SOL    MW4 7744   4.297   4.356   3.069  0.1230  0.0353  0.7985
 1925SOL     OW 7745   0.211   4.638   3.406 -0.1994  0.3532  1.0405
 1925SOL    HW2 7746   0.297   4.671   3.430 -0.0521  0.7159  0.0645
 1925SOL    HW3 7747   0.207   4.550   3.443  1.3086 -0.3591 -0.4110
 1925SOL    MW4 7748   0.222   4.630   3.414  0.0190  0.3066  0.7205
 1926SOL     OW 7749   0.029   0.109   3.557 -0.4054  0.2502  0.0430
 1926SOL    HW2 7750   0.038   0.194   3.514  0.8276  0.4582  0.6765
 1926SOL    HW3 7751   0.068   0.047   3.496  0.3189  0.3924  0.3526
 1926SOL    MW4 7752   0.036   0.112   3.544 -0.1472  0.2964  0.1676
 1927SOL     OW 7753   0.038   0.347   3.423  0.7160  0.2248  0.0969
 1927SOL    HW2 7754  -0.040   0.395   3.450  0.8081 -0.0757  0.8833
 1927SOL    HW3 7755   0.111   0.403   3.448  0.8219 -0.2966  0.9651
 1927SOL    MW4 7756   0.037   0.360   3.430  0.7421  0.1163  0.3150
 1928SOL     OW 7757   0.238   0.527   3.522 -0.0925 -0.3633  0.2589
 1928SOL    HW2 7758   0.317   0.477   3.505  0.2456 -0.0657  0.9196
 1928SOL    HW3 7759   0.250   0.608   3.471 -0.0963 -0.4387  0.1386
 1928SOL    MW4 7760   0.250   0.531   3.513 -0.0484 -0.3339  0.3300
 1929SOL     OW 7761   0.238   0.758   3.363 -0.3223 -0.1161  0.0379
 1929SOL    HW2 7762   0.317   0.803   3.396  0.4185 -1.0288 -0.4692
 1929SOL    HW3 7763   0.166   0.804   3.405  0.3395  2.5334 -1.6239
 1929SOL    MW4 7764   0.239   0.770   3.373 -0.1373  0.1131 -0.2482
 1930SOL     OW 7765   0.042   0.898   3.503 -0.0796  0.1049 -0.1524
 1930SOL    HW2 7766   0.047   0.897   3.599 -0.6970 -0.4986 -0.1267
 1930SOL    HW3 7767   0.029   0.991   3.481  0.3428  0.2816  0.3334
 1930SOL    MW4 7768   0.041   0.910   3.513 -0.1053  0.0486 -0.0849
 1931SOL     OW 7769   4.481   1.173   3.429  0.7399 -0.2968 -0.1569
 1931SOL    HW2 7770   4.566   1.209   3.454  0.1718  1.1822 -0.3289
 1931SOL    HW3 7771   4.486   1.165   3.334  0.3295  0.7571 -0.2766
 1931SOL    MW4 7772   4.493   1.177   3.420  0.6108  0.0373 -0.1953
 1932SOL     OW 7773   0.224   1.301   3.516 -0.1431 -0.4545 -0.0742
 1932SOL    HW2 7774   0.302   1.267   3.472 -0.2695  0.1057 -0.7261
 1932SOL    HW3 7775   0.208   1.386   3.476 -1.9210 -1.1682 -0.9614
 1932SOL    MW4 7776   0.232   1.308   3.505 -0.3943 -0.4748 -0.2775
 1933SOL     OW 7777   0.226   1.550   3.399 -0.4143  0.1053  0.2165
 1933SOL    HW2 7778   0.314   1.581   3.421 -0.1734 -0.4274  0.0117
 1933SOL    HW3 7779   0.224   1.549   3.304 -0.4957 -0.2881  0.2215
 1933SOL    MW4 7780   0.238   1.554   3.390 -0.3932 -0.0169  0.1903
 1934SOL     OW 7781   0.009   1.707   3.502 -0.1893  0.1138 -0.1940
 1934SOL    HW2 7782  -0.064   1.650   3.478 -0.9366  1.1481 -0.3968
 1934SOL    HW3 7783   0.087   1.657   3.479 -0.8549 -0.1481 -1.9543
 1934SOL    MW4 7784   0.009   1.693   3.496 -0.3757  0.2158 -0.4532
 1935SOL     OW 7785   0.004   1.965   3.390  0.0221  0.3920  0.1837
 1935SOL    HW2 7786   0.024   1.876   3.419 -1.5124  0.0109  0.0972
 1935SOL    HW3 7787   0.004   1.960   3.295  0.0780  0.5202  0.1760
 1935SOL    MW4 7788   0.007   1.953   3.381 -0.1726  0.3585  0.1712
 1936SOL     OW 7789   0.199   2.129   3.510 -0.2804 -0.4333 -0.3943
 1936SOL    HW2 7790   0.194   2.135   3.606 -0.1004  0.1490 -0.4197
 1936SOL    HW3 7791   0.121   2.080   3.485  1.1357 -3.1174  0.2867
 1936SOL    MW4 7792   0.188   2.123   3.520 -0.0698 -0.7102 -0.3078
 1937SOL     OW 7793   0.194   2.358   3.368  0.5421 -0.2785  0.1996
 1937SOL    HW2 7794   0.125   2.405   3.414  1.2841  0.9579  0.0581
 1937SOL    HW3 7795   0.199   2.273   3.412 -1.7242 -0.7417 -0.4031
 1937SOL    MW4 7796   0.186   2.353   3.380  0.3410 -0.1764  0.1013
 1938SOL     OW 7797   4.479   2.482   3.546 -0.0869  0.2662  0.0468
 1938SOL    HW2 7798   4.471   2.446   3.635 -1.1640 -0.4464 -0.3432
 1938SOL    HW3 7799   4.423   2.427   3.492 -0.8690  1.8278 -0.7586
 1938SOL    MW4 7800   4.471   2.470   3.551 -0.3319  0.3781 -0.1109
 1939SOL     OW 7801   4.476   2.739   3.443  0.0775  0.3158 -0.7964
 1939SOL    HW2 7802   4.559   2.778   3.470  0.0114 -0.1753  0.1503
 1939SOL    HW3 7803   4.475   2.654   3.487 -0.7062  0.1193 -1.1955
 1939SOL    MW4 7804   4.487   2.733   3.452 -0.0348  0.2251 -0.7243
 1940SOL     OW 7805   0.241   2.860   3.519  0.0291  0.5048  0.3472
 1940SOL    HW2 7806   0.315   2.812   3.482 -0.0851 -0.2269  1.0454
 1940SOL    HW3 7807   0.253   2.950   3.490 -0.1625 -0.0850 -1.6358
 1940SOL    MW4 7808   0.252   2.865   3.510 -0.0112  0.3304  0.1776
 1941SOL     OW 7809   0.238   3.115   3.435  0.4562 -0.2482 -0.0697
 1941SOL    HW2 7810   0.157   3.161   3.457  1.0338  1.1324 -0.7613
 1941SOL    HW3 7811   0.230   3.096   3.342  0.4484 -1.1168  0.1037
 1941SOL    MW4 7812   0.226   3.119   3.426  0.5314 -0.1805 -0.1380
 1942SOL     OW 7813   4.483   3.225   3.527 -0.2523  0.0206  0.1921
 1942SOL    HW2 7814   4.397   3.187   3.507  0.0282 -0.8534  0.6122
 1942SOL    HW3 7815   4.482   3.310   3.483 -0.8820 -0.4836 -0.8053
 1942SOL    MW4 7816   4.471   3.231   3.518 -0.2985 -0.1612  0.1159
 1943SOL     OW 7817   4.488   3.498   3.458  0.1179 -0.1335  0.6916
 1943SOL    HW2 7818   4.406   3.539   3.486 -0.7498 -2.2403  1.3047
 1943SOL    HW3 7819   4.492   3.517   3.364 -1.1166 -0.0925  0.6296
 1943SOL    MW4 7820   4.478   3.506   3.449 -0.1593 -0.4060  0.7641
 1944SOL     OW 7821   0.223   3.619   3.570 -0.6171 -0.3042 -0.0230
 1944SOL    HW2 7822   0.214   3.617   3.665 -1.2644  0.3975 -0.0612
 1944SOL    HW3 7823   0.147   3.571   3.538  0.5892 -2.1660 -0.1515
 1944SOL    MW4 7824   0.212   3.612   3.578 -0.5434 -0.4573 -0.0448
 1945SOL     OW 7825   0.268   3.879   3.441  0.0271 -0.3745 -0.2837
 1945SOL    HW2 7826   0.188   3.923   3.469  0.3023  0.2822 -0.5158
 1945SOL    HW3 7827   0.263   3.793   3.482 -0.6356 -0.2205 -0.0221
 1945SOL    MW4 7828   0.256   3.873   3.450 -0.0240 -0.2675 -0.2799
 1946SOL     OW 7829   0.032   4.014   3.507 -0.2788 -0.2400 -0.0352
 1946SOL    HW2 7830   0.022   4.011   3.602 -1.2175 -1.4135 -0.1537
 1946SOL    HW3 7831   0.016   4.106   3.484  1.0061  0.2676  1.0308
 1946SOL    MW4 7832   0.028   4.026   3.517 -0.2331 -0.3281  0.0899
 1947SOL     OW 7833   4.468   4.272   3.445  0.1232 -0.1425  0.1263
 1947SOL    HW2 7834   4.403   4.337   3.470 -1.0543 -0.9021 -0.9136
 1947SOL    HW3 7835   4.550   4.303   3.484 -0.2019  2.5291 -1.2296
 1947SOL    MW4 7836   4.470   4.284   3.453 -0.0749  0.1097 -0.1895
 1948SOL     OW 7837   0.218   4.381   3.529  0.1503 -0.2123  0.4397
 1948SOL    HW2 7838   0.244   4.409   3.617  0.3283 -0.4951  0.4762
 1948SOL    HW3 7839   0.301   4.360   3.485  0.1064  0.4642  0.0205
 1948SOL    MW4 7840   0.233   4.382   3.535  0.1680 -0.1602  0.3891
 1949SOL     OW 7841   0.705   4.662   3.417 -0.2116  0.0534 -0.4798
 1949SOL    HW2 7842   0.777   4.717   3.448 -2.5330  2.4803  0.8137
 1949SOL    HW3 7843   0.714   4.665   3.321 -0.3376  2.8405 -0.4578
 1949SOL    MW4 7844   0.716   4.670   3.408 -0.5346  0.7415 -0.3061
 1950SOL     OW 7845   0.455   0.090   3.482 -0.1152  0.3181  0.0320
 1950SOL    HW2 7846   0.452   0.094   3.577 -0.1657 -1.8874  0.1356
 1950SOL    HW3 7847   0.544   0.065   3.461 -0.2245  0.3477 -0.4855
 1950SOL    MW4 7848   0.466   0.087   3.492 -0.1363  0.0310 -0.0229
 1951SOL     OW 7849   0.442   0.391   3.439 -0.4883 -0.3178 -0.2073
 1951SOL    HW2 7850   0.528   0.434   3.443 -0.6545 -0.0885  0.8456
 1951SOL    HW3 7851   0.459   0.301   3.464 -0.6162 -0.1760  0.4032
 1951SOL    MW4 7852   0.456   0.385   3.443 -0.5271 -0.2688  0.0124
 1952SOL     OW 7853   0.679   0.537   3.448 -0.0543 -0.1914 -0.3955
 1952SOL    HW2 7854   0.671   0.531   3.543  0.2782  0.8274 -0.2992
 1952SOL    HW3 7855   0.759   0.488   3.427 -0.0653 -0.3199 -0.1374
 1952SOL    MW4 7856   0.688   0.530   3.457 -0.0119 -0.0740 -0.3486
 1953SOL     OW 7857   0.673   0.806   3.358  0.3544  0.2068  0.1934
 1953SOL    HW2 7858   0.611   0.849   3.417  0.7086  0.6266  0.2648
 1953SOL    HW3 7859   0.673   0.714   3.386 -0.7941  0.0466 -0.3007
 1953SOL    MW4 7860   0.665   0.799   3.370  0.2496  0.2410  0.1376
 1954SOL     OW 7861   0.449   0.896   3.498  0.2780  0.1230 -0.1391
 1954SOL    HW2 7862   0.440   0.902   3.593 -1.0576  1.2416 -0.3238
 1954SOL    HW3 7863   0.422   0.982   3.466  3.0691  0.5895 -1.3793
 1954SOL    MW4 7864   0.445   0.909   3.506  0.4701  0.3321 -0.3269
 1955SOL     OW 7865   0.436   1.158   3.396  0.0788  0.1422  0.1386
 1955SOL    HW2 7866   0.516   1.194   3.435  0.0471  1.5474 -1.0452
 1955SOL    HW3 7867   0.450   1.164   3.302 -1.0006 -0.5954 -0.0830
 1955SOL    MW4 7868   0.449   1.163   3.389 -0.0678  0.2303 -0.0467
 1956SOL     OW 7869   0.654   1.282   3.508  0.5814 -0.0899  0.0872
 1956SOL    HW2 7870   0.741   1.247   3.490  0.9192  1.1737 -0.7731
 1956SOL    HW3 7871   0.647   1.360   3.453 -1.6312 -0.9467 -0.8794
 1956SOL    MW4 7872   0.665   1.288   3.499  0.3340 -0.0362 -0.1538
 1957SOL     OW 7873   0.652   1.543   3.376  0.5075 -0.1133  0.1598
 1957SOL    HW2 7874   0.736   1.584   3.399 -0.2968  1.6792 -0.0314
 1957SOL    HW3 7875   0.586   1.599   3.417 -0.6756 -0.2199 -1.5672
 1957SOL    MW4 7876   0.655   1.556   3.384  0.2453  0.1091 -0.0932
 1958SOL     OW 7877   0.451   1.684   3.507 -0.2556 -0.2437  0.3465
 1958SOL    HW2 7878   0.438   1.677   3.601  0.0846 -0.2866  0.3884
 1958SOL    HW3 7879   0.426   1.774   3.486 -0.3587 -0.2431  0.4700
 1958SOL    MW4 7880   0.446   1.695   3.516 -0.2243 -0.2491  0.3681
 1959SOL     OW 7881   0.390   1.947   3.425 -0.6464  0.0709  0.3290
 1959SOL    HW2 7882   0.334   2.010   3.469 -0.0585  0.3201  0.7339
 1959SOL    HW3 7883   0.372   1.959   3.332 -1.0446  0.3516  0.4419
 1959SOL    MW4 7884   0.381   1.957   3.419 -0.6214  0.1408  0.3974
 1960SOL     OW 7885   0.634   2.079   3.459  0.4807 -0.2714 -0.1073
 1960SOL    HW2 7886   0.629   2.074   3.554 -0.4093 -0.6932 -0.1651
 1960SOL    HW3 7887   0.553   2.038   3.429 -0.1824  1.6233 -1.0043
 1960SOL    MW4 7888   0.623   2.073   3.467  0.2757 -0.0772 -0.2329
 1961SOL     OW 7889   0.650   2.344   3.408  0.0255 -0.3847  0.4662
 1961SOL    HW2 7890   0.732   2.379   3.443 -0.3505  1.0052  0.0021
 1961SOL    HW3 7891   0.661   2.249   3.411  0.9351 -0.2455  2.0924
 1961SOL    MW4 7892   0.662   2.336   3.413  0.0960 -0.1829  0.6192
 1962SOL     OW 7893   0.413   2.425   3.539 -0.1400 -0.4305  0.0643
 1962SOL    HW2 7894   0.493   2.391   3.500 -0.0936 -0.1723 -0.0613
 1962SOL    HW3 7895   0.343   2.388   3.485 -0.0956 -0.4533  0.0222
 1962SOL    MW4 7896   0.414   2.415   3.527 -0.1280 -0.3996  0.0422
 1963SOL     OW 7897   0.444   2.685   3.451 -0.6022  0.1011 -0.2777
 1963SOL    HW2 7898   0.434   2.603   3.501 -0.3619  0.1282 -0.1831
 1963SOL    HW3 7899   0.419   2.662   3.362 -1.9706  0.2841  0.0491
 1963SOL    MW4 7900   0.439   2.671   3.446 -0.7510  0.1287 -0.2224
 1964SOL     OW 7901   0.657   2.854   3.509 -0.0804 -1.1070  0.1628
 1964SOL    HW2 7902   0.731   2.797   3.485 -0.5874 -1.3867 -0.7701
 1964SOL    HW3 7903   0.579   2.805   3.482 -0.6312 -0.9535  1.4402
 1964SOL    MW4 7904   0.657   2.840   3.502 -0.2199 -1.1239  0.2084
 1965SOL     OW 7905   0.694   3.104   3.391 -0.5590  0.1490  0.4142
 1965SOL    HW2 7906   0.622   3.152   3.431 -0.5170 -0.0245  0.7003
 1965SOL    HW3 7907   0.678   3.012   3.415 -0.2440  0.1106  0.4776
 1965SOL    MW4 7908   0.683   3.098   3.399 -0.5119  0.1209  0.4604
 1966SOL     OW 7909   0.471   3.224   3.521 -0.1623 -0.4251  0.0034
 1966SOL    HW2 7910   0.479   3.237   3.615 -0.5459  2.7737 -0.3488
 1966SOL    HW3 7911   0.387   3.180   3.509 -1.5201  1.8119  0.9981
 1966SOL    MW4 7912   0.461   3.220   3.532 -0.3920  0.2921  0.0880
 1967SOL     OW 7913   0.436   3.524   3.448  0.1732  0.0882  0.3771
 1967SOL    HW2 7914   0.446   3.433   3.475 -0.0211 -0.2281 -0.5978
 1967SOL    HW3 7915   0.353   3.551   3.487  0.0091 -0.2889  0.2922
 1967SOL    MW4 7916   0.426   3.516   3.457  0.1259 -0.0033  0.2372
 1968SOL     OW 7917   0.670   3.636   3.519 -0.0652 -0.0713 -0.4940
 1968SOL    HW2 7918   0.740   3.574   3.498 -0.3566 -1.1185  1.5006
 1968SOL    HW3 7919   0.589   3.590   3.497 -0.2363 -0.0507  0.0662
 1968SOL    MW4 7920   0.669   3.622   3.514 -0.1262 -0.2069 -0.1569
 1969SOL     OW 7921   0.670   3.877   3.397 -0.2064 -0.4305  0.0094
 1969SOL    HW2 7922   0.589   3.921   3.424 -0.0534 -0.0119 -0.2126
 1969SOL    HW3 7923   0.669   3.794   3.445  0.0529  0.2944  1.2799
 1969SOL    MW4 7924   0.659   3.872   3.407 -0.1521 -0.2794  0.1478
 1970SOL     OW 7925   0.481   4.050   3.500 -0.2619 -0.4128 -0.1579
 1970SOL    HW2 7926   0.472   4.135   3.458  0.7456 -0.4184 -0.4086
 1970SOL    HW3 7927   0.401   4.003   3.478 -1.3609  0.8958  0.9867
 1970SOL    MW4 7928   0.470   4.055   3.492 -0.2739 -0.2418 -0.0398
 1971SOL     OW 7929   0.430   4.314   3.377 -0.0885 -0.1886 -0.1443
 1971SOL    HW2 7930   0.514   4.355   3.400 -1.1985  1.8198  0.4199
 1971SOL    HW3 7931   0.438   4.296   3.283  1.0159 -0.1286 -0.0751
 1971SOL    MW4 7932   0.442   4.317   3.368 -0.0893  0.0839 -0.0608
 1972SOL     OW 7933   0.662   4.400   3.510  0.5319 -0.0448 -0.0034
 1972SOL    HW2 7934   0.739   4.348   3.486  0.0479 -0.6486 -0.2812
 1972SOL    HW3 7935   0.685   4.490   3.487  1.2229 -0.1953  0.0925
 1972SOL    MW4 7936   0.675   4.405   3.504  0.5592 -0.1445 -0.0274
 1973SOL     OW 7937   1.107   4.653   3.409 -0.0470  0.1587  0.1101
 1973SOL    HW2 7938   1.191   4.685   3.442 -0.0826 -1.0186  1.3950
 1973SOL    HW3 7939   1.122   4.640   3.315  0.1622  3.2322 -0.3307
 1973SOL    MW4 7940   1.120   4.656   3.401 -0.0241  0.4091  0.2215
 1974SOL     OW 7941   0.930   0.153   3.496  0.1289 -0.3741  0.1444
 1974SOL    HW2 7942   0.953   0.169   3.587 -0.1805 -2.0423  0.5399
 1974SOL    HW3 7943   0.995   0.090   3.465 -0.3469 -0.5546 -0.4993
 1974SOL    MW4 7944   0.941   0.147   3.504  0.0253 -0.6180  0.1116
 1975SOL     OW 7945   0.907   0.401   3.380 -0.0243  0.2472 -0.8226
 1975SOL    HW2 7946   0.987   0.437   3.418  0.2403 -0.0872 -1.0551
 1975SOL    HW3 7947   0.898   0.314   3.421  0.2000 -0.0662 -1.4417
 1975SOL    MW4 7948   0.916   0.394   3.391  0.0402  0.1617 -0.9351
 1976SOL     OW 7949   1.141   0.494   3.492 -0.0670  0.5090 -0.2624
 1976SOL    HW2 7950   1.156   0.510   3.585  1.5840  1.7419 -0.7248
 1976SOL    HW3 7951   1.133   0.581   3.453 -1.8565 -0.0135 -1.1143
 1976SOL    MW4 7952   1.142   0.508   3.499 -0.0852  0.6027 -0.4358
 1977SOL     OW 7953   1.111   0.748   3.412 -0.4942 -0.5794 -0.5089
 1977SOL    HW2 7954   1.188   0.803   3.430  0.0520 -1.7645  0.8569
 1977SOL    HW3 7955   1.039   0.792   3.457 -0.6971  0.6776 -2.0094
 1977SOL    MW4 7956   1.112   0.761   3.420 -0.4491 -0.5699 -0.5267
 1978SOL     OW 7957   0.908   0.900   3.522  0.1707 -0.1005 -0.1087
 1978SOL    HW2 7958   0.910   0.988   3.485  0.7070 -0.5047 -1.0694
 1978SOL    HW3 7959   0.827   0.862   3.488 -0.4232  0.2649  0.8887
 1978SOL    MW4 7960   0.898   0.907   3.512  0.1631 -0.1057 -0.1040
 1979SOL     OW 7961   0.902   1.171   3.442 -0.1781 -0.4487 -0.3756
 1979SOL    HW2 7962   0.985   1.214   3.463 -0.2808 -0.1058 -0.6515
 1979SOL    HW3 7963   0.904   1.163   3.346 -0.7369  0.1338 -0.4407
 1979SOL    MW4 7964   0.913   1.176   3.432 -0.2654 -0.3268 -0.4208
 1980SOL     OW 7965   1.149   1.291   3.494  0.6150 -0.8143  0.4257
 1980SOL    HW2 7966   1.135   1.311   3.587 -1.1730 -0.9781  0.2072
 1980SOL    HW3 7967   1.141   1.376   3.450  0.7191 -0.8507  0.3357
 1980SOL    MW4 7968   1.146   1.305   3.500  0.3928 -0.8407  0.3853
 1981SOL     OW 7969   1.094   1.536   3.391 -0.1896  0.0386  0.6148
 1981SOL    HW2 7970   1.169   1.582   3.430  1.1396 -0.9106 -0.7732
 1981SOL    HW3 7971   1.102   1.552   3.297 -0.3316 -2.0892  0.2189
 1981SOL    MW4 7972   1.105   1.544   3.384 -0.0330 -0.3673  0.3793
 1982SOL     OW 7973   0.873   1.679   3.472  0.0271 -0.1761 -0.1115
 1982SOL    HW2 7974   0.882   1.774   3.461  1.8348 -0.4839 -1.7348
 1982SOL    HW3 7975   0.956   1.644   3.439  0.5241 -2.1662  3.0985
 1982SOL    MW4 7976   0.885   1.687   3.466  0.3312 -0.4791  0.0980
 1983SOL     OW 7977   0.884   1.948   3.415 -0.2556  0.3810  0.2613
 1983SOL    HW2 7978   0.962   1.987   3.454 -0.8793  0.5223  1.3891
 1983SOL    HW3 7979   0.813   2.007   3.439 -0.4262  1.3601 -2.5034
 1983SOL    MW4 7980   0.885   1.961   3.423 -0.3604  0.5288  0.0453
 1984SOL     OW 7981   1.135   2.050   3.518  0.4892  0.2584  0.1318
 1984SOL    HW2 7982   1.207   2.001   3.479  0.2968 -0.7721  1.0513
 1984SOL    HW3 7983   1.149   2.140   3.489  1.5160 -0.1256 -0.5984
 1984SOL    MW4 7984   1.146   2.055   3.509  0.5993  0.0720  0.1566
 1985SOL     OW 7985   1.128   2.302   3.408  0.4628  0.0351  0.3672
 1985SOL    HW2 7986   1.209   2.346   3.434 -0.2598  1.2172  0.6626
 1985SOL    HW3 7987   1.126   2.311   3.312  1.1312 -0.7945  0.2735
 1985SOL    MW4 7988   1.138   2.309   3.399  0.4557  0.0818  0.3941
 1986SOL     OW 7989   0.904   2.441   3.494 -0.3695  0.2955  0.3638
 1986SOL    HW2 7990   0.903   2.439   3.590  0.1056 -0.8009  0.3624
 1986SOL    HW3 7991   0.990   2.405   3.471 -0.9713 -0.6298 -0.4808
 1986SOL    MW4 7992   0.915   2.436   3.504 -0.3862  0.0288  0.2522
 1987SOL     OW 7993   0.851   2.683   3.391  0.1418  0.2768  0.0161
 1987SOL    HW2 7994   0.921   2.746   3.412  0.9422 -0.7962  0.6399
 1987SOL    HW3 7995   0.885   2.599   3.423 -0.6987 -0.5577 -1.2732
 1987SOL    MW4 7996   0.865   2.680   3.398  0.1366  0.0253 -0.0715
 1988SOL     OW 7997   1.079   2.787   3.500 -0.0255  0.2181 -0.1397
 1988SOL    HW2 7998   1.103   2.785   3.592  0.6348  2.4165 -0.2223
 1988SOL    HW3 7999   1.143   2.729   3.457 -0.2398 -0.6785  0.7561
 1988SOL    MW4 8000   1.091   2.780   3.506  0.0334  0.3898 -0.0324
 1989SOL     OW 8001   1.119   3.066   3.432  0.0687 -0.3026 -0.3119
 1989SOL    HW2 8002   1.094   2.980   3.466 -0.1090 -0.9885 -2.1102
 1989SOL    HW3 8003   1.109   3.057   3.337  1.1442  1.3555 -0.5872
 1989SOL    MW4 8004   1.114   3.053   3.424  0.1872 -0.1745 -0.5856
 1990SOL     OW 8005   0.908   3.198   3.537  0.5061  0.0421 -0.4522
 1990SOL    HW2 8006   0.987   3.163   3.494  0.2861  0.5076 -1.2526
 1990SOL    HW3 8007   0.836   3.152   3.495  0.2982  0.3573 -0.4380
 1990SOL    MW4 8008   0.909   3.187   3.525  0.4497  0.1454 -0.5560
 1991SOL     OW 8009   0.882   3.464   3.469  0.9505  0.0333  0.1798
 1991SOL    HW2 8010   0.888   3.371   3.491 -0.5734 -0.1059  0.0400
 1991SOL    HW3 8011   0.897   3.468   3.375  0.4580 -0.1389  0.0917
 1991SOL    MW4 8012   0.885   3.452   3.460  0.6844 -0.0081  0.1497
 1992SOL     OW 8013   1.131   3.601   3.511  0.1602  0.1801 -0.5412
 1992SOL    HW2 8014   1.129   3.619   3.606  0.1080 -1.9636 -0.1250
 1992SOL    HW3 8015   1.051   3.553   3.494  1.8605 -2.5592 -1.0295
 1992SOL    MW4 8016   1.120   3.597   3.522  0.3775 -0.4640 -0.5505
 1993SOL     OW 8017   1.137   3.848   3.404 -0.5465  0.1438  0.0143
 1993SOL    HW2 8018   1.217   3.891   3.433 -0.9002 -0.5534  2.0949
 1993SOL    HW3 8019   1.145   3.758   3.437 -0.9550 -0.7036 -2.0940
 1993SOL    MW4 8020   1.149   3.842   3.412 -0.6469 -0.0598  0.0105
 1994SOL     OW 8021   0.917   3.956   3.544  0.1163  0.0306 -0.1016
 1994SOL    HW2 8022   0.996   3.921   3.502  0.1082 -0.5125  0.3262
 1994SOL    HW3 8023   0.846   3.931   3.485  0.1738 -0.1926 -0.0772
 1994SOL    MW4 8024   0.918   3.948   3.531  0.1228 -0.0703 -0.0417
 1995SOL     OW 8025   0.886   4.237   3.440 -0.3237  0.1501  0.3564
 1995SOL    HW2 8026   0.887   4.144   3.463 -0.5029  0.0845  0.1163
 1995SOL    HW3 8027   0.890   4.237   3.344  1.6421  0.4496  0.4279
 1995SOL    MW4 8028   0.886   4.225   3.430 -0.0879  0.1807  0.3343
 1996SOL     OW 8029   1.130   4.358   3.520  0.5461  0.1091  0.1756
 1996SOL    HW2 8030   1.051   4.306   3.504  1.0078  0.1676 -2.5046
 1996SOL    HW3 8031   1.108   4.445   3.489  0.9297  0.6770  1.4796
 1996SOL    MW4 8032   1.117   4.362   3.514  0.6576  0.1917 -0.0060
 1997SOL     OW 8033   1.558   4.608   3.419  0.1141  0.3794  0.2846
 1997SOL    HW2 8034   1.552   4.519   3.452  0.3349  0.4201  0.4366
 1997SOL    HW3 8035   1.478   4.651   3.450 -0.6223 -0.1327 -0.9025
 1997SOL    MW4 8036   1.546   4.602   3.428  0.0461  0.3166  0.1481
 1998SOL     OW 8037   1.338   0.092   3.502 -0.6009  0.3120 -0.1868
 1998SOL    HW2 8038   1.340   0.079   3.597 -1.3622 -0.2498 -0.2461
 1998SOL    HW3 8039   1.353   0.186   3.491 -1.4280  0.5327  0.5252
 1998SOL    MW4 8040   1.340   0.103   3.513 -0.8107  0.2670 -0.1009
 1999SOL     OW 8041   1.370   0.371   3.417 -0.3910  0.3832  0.2633
 1999SOL    HW2 8042   1.444   0.425   3.446 -0.5346  1.1458 -0.7729
 1999SOL    HW3 8043   1.293   0.424   3.438 -0.4972  0.9473 -1.4733
 1999SOL    MW4 8044   1.370   0.385   3.424 -0.4239  0.5583 -0.1025
 2000SOL     OW 8045   1.603   0.520   3.514  0.5546  0.2584 -0.1756
 2000SOL    HW2 8046   1.588   0.517   3.609 -1.0675 -0.6059 -0.4530
 2000SOL    HW3 8047   1.686   0.473   3.502  0.2420 -0.5366  0.7014
 2000SOL    MW4 8048   1.612   0.514   3.525  0.2993  0.0395 -0.0963
 2001SOL     OW 8049   1.574   0.771   3.392  0.3597  0.0860  0.4927
 2001SOL    HW2 8050   1.496   0.804   3.436  1.0388  1.7375  0.5108
 2001SOL    HW3 8051   1.582   0.680   3.421 -1.3635  0.0041  0.7404
 2001SOL    MW4 8052   1.565   0.764   3.402  0.2218  0.2930  0.5276
 2002SOL     OW 8053   1.346   0.880   3.500  0.3863 -0.1047  0.3104
 2002SOL    HW2 8054   1.351   0.897   3.594 -1.1001  1.9853  0.0337
 2002SOL    HW3 8055   1.348   0.966   3.459 -1.5331 -0.8598 -1.4558
 2002SOL    MW4 8056   1.347   0.893   3.507 -0.0631  0.0714  0.0408
 2003SOL     OW 8057   1.360   1.136   3.399 -0.3097 -0.2602 -0.0365
 2003SOL    HW2 8058   1.439   1.174   3.438 -0.8189 -0.7973  1.5632
 2003SOL    HW3 8059   1.290   1.193   3.430 -0.7055 -0.6009 -0.3129
 2003SOL    MW4 8060   1.361   1.149   3.408 -0.4290 -0.3759  0.1380
 2004SOL     OW 8061   1.592   1.257   3.506 -0.2516  0.0914  0.4547
 2004SOL    HW2 8062   1.583   1.281   3.598 -1.2372 -1.3702  0.7699
 2004SOL    HW3 8063   1.672   1.205   3.503  0.8279  1.7348  0.1201
 2004SOL    MW4 8064   1.601   1.253   3.518 -0.2393  0.1154  0.4523
 2005SOL     OW 8065   1.539   1.522   3.411 -0.6205  0.0566  0.1359
 2005SOL    HW2 8066   1.554   1.429   3.428  0.0802  0.3559  1.2102
 2005SOL    HW3 8067   1.553   1.531   3.317  0.1099 -0.7802  0.1527
 2005SOL    MW4 8068   1.543   1.511   3.401 -0.4315 -0.0143  0.2797
 2006SOL     OW 8069   1.309   1.657   3.514  0.1457  0.2101  0.2192
 2006SOL    HW2 8070   1.333   1.679   3.604  0.5604 -0.0318  0.1685
 2006SOL    HW3 8071   1.384   1.608   3.480 -0.5173 -0.7712  0.1396
 2006SOL    MW4 8072   1.322   1.653   3.521  0.1129  0.0486  0.2022
 2007SOL     OW 8073   1.350   1.895   3.397 -0.4005  0.2181  0.1237
 2007SOL    HW2 8074   1.419   1.930   3.454 -0.0497  0.4070 -0.4137
 2007SOL    HW3 8075   1.335   1.806   3.429  1.2669 -0.4162 -0.8134
 2007SOL    MW4 8076   1.357   1.888   3.409 -0.1341  0.1594 -0.0708
 2008SOL     OW 8077   1.544   2.033   3.512 -0.2801  0.1692  0.1256
 2008SOL    HW2 8078   1.618   1.986   3.472  0.4307  1.3312  0.0500
 2008SOL    HW3 8079   1.549   2.121   3.475 -0.5366  0.8155  1.5878
 2008SOL    MW4 8080   1.555   2.038   3.502 -0.2202  0.4079  0.3085
 2009SOL     OW 8081   1.589   2.293   3.379 -0.1269  0.0523  0.3839
 2009SOL    HW2 8082   1.666   2.339   3.413  1.6591 -1.0729 -2.0246
 2009SOL    HW3 8083   1.597   2.299   3.284 -3.3621  0.4289  0.0897
 2009SOL    MW4 8084   1.600   2.300   3.371 -0.3182 -0.0465  0.0272
 2010SOL     OW 8085   1.373   2.417   3.494  0.2819 -0.3731 -0.0744
 2010SOL    HW2 8086   1.446   2.369   3.455  1.2232  0.3304  0.7805
 2010SOL    HW3 8087   1.364   2.496   3.440 -0.3520 -0.8218 -0.6352
 2010SOL    MW4 8088   1.381   2.421   3.482  0.3223 -0.3395 -0.0353
 2011SOL     OW 8089   1.308   2.659   3.378 -0.1768  0.1236 -0.3551
 2011SOL    HW2 8090   1.389   2.695   3.416  1.1104 -2.0710 -0.9344
 2011SOL    HW3 8091   1.312   2.684   3.286  0.2610 -0.6924 -0.5605
 2011SOL    MW4 8092   1.319   2.667   3.371  0.0509 -0.2737 -0.4585
 2012SOL     OW 8093   1.541   2.785   3.478 -0.1123  0.3518  0.1853
 2012SOL    HW2 8094   1.633   2.764   3.460 -0.0265  0.1540  0.8587
 2012SOL    HW3 8095   1.534   2.879   3.461  0.4872  0.5981  1.2685
 2012SOL    MW4 8096   1.553   2.794   3.473 -0.0218  0.3581  0.4168
 2013SOL     OW 8097   1.549   3.056   3.440 -0.7910 -0.1644 -0.0179
 2013SOL    HW2 8098   1.630   3.106   3.443  0.4408 -2.0864 -0.1968
 2013SOL    HW3 8099   1.484   3.113   3.481  0.9323  0.8878  1.3344
 2013SOL    MW4 8100   1.551   3.070   3.446 -0.4013 -0.2792  0.1371
 2014SOL     OW 8101   1.347   3.235   3.527 -0.0489 -0.2491 -0.4170
 2014SOL    HW2 8102   1.343   3.235   3.622  0.0796  0.0909 -0.4105
 2014SOL    HW3 8103   1.281   3.171   3.500  0.6248 -1.0969 -0.0732
 2014SOL    MW4 8104   1.338   3.227   3.536  0.0571 -0.3159 -0.3707
 2015SOL     OW 8105   1.346   3.479   3.401 -0.0286 -0.6364 -0.3046
 2015SOL    HW2 8106   1.354   3.398   3.451  0.5040 -0.9354 -0.8617
 2015SOL    HW3 8107   1.267   3.521   3.435 -0.0132 -1.1342  0.3490
 2015SOL    MW4 8108   1.336   3.474   3.412  0.0436 -0.7415 -0.2918
 2016SOL     OW 8109   1.546   3.621   3.532 -0.5989 -0.4034  1.0740
 2016SOL    HW2 8110   1.536   3.606   3.625 -2.7573 -0.1631  0.8888
 2016SOL    HW3 8111   1.487   3.559   3.490 -0.4416  0.2190 -0.1031
 2016SOL    MW4 8112   1.537   3.611   3.539 -0.8630 -0.2894  0.8945
 2017SOL     OW 8113   1.569   3.866   3.416 -0.3133  0.1539 -0.0933
 2017SOL    HW2 8114   1.564   3.781   3.459  0.5394  0.8841  1.4974
 2017SOL    HW3 8115   1.549   3.848   3.324 -0.6248 -1.6769  0.3172
 2017SOL    MW4 8116   1.566   3.852   3.410 -0.2420  0.0088  0.1707
 2018SOL     OW 8117   1.351   4.008   3.519 -0.1580  0.1205  0.2551
 2018SOL    HW2 8118   1.344   4.091   3.470  0.1814 -0.1626 -0.2842
 2018SOL    HW3 8119   1.438   3.975   3.496 -1.2292 -1.6031 -1.4953
 2018SOL    MW4 8120   1.362   4.015   3.509 -0.2544 -0.1445 -0.0472
 2019SOL     OW 8121   1.333   4.251   3.357  0.3536 -0.0634 -0.0546
 2019SOL    HW2 8122   1.262   4.302   3.395 -0.3748 -0.3088 -1.0941
 2019SOL    HW3 8123   1.330   4.270   3.264  1.0650 -0.8000 -0.2338
 2019SOL    MW4 8124   1.323   4.260   3.350  0.3515 -0.1922 -0.2153
 2020SOL     OW 8125   1.541   4.345   3.522  0.1172 -0.3558  0.5125
 2020SOL    HW2 8126   1.621   4.307   3.487  0.1350  0.6225 -0.5562
 2020SOL    HW3 8127   1.475   4.328   3.455  0.0374  1.1134  0.1942
 2020SOL    MW4 8128   1.543   4.338   3.508  0.1091 -0.0329  0.3295
 2021SOL     OW 8129   2.044   4.664   3.397  0.1564  0.7951  0.4708
 2021SOL    HW2 8130   2.113   4.711   3.444 -1.5797  1.2323  2.6539
 2021SOL    HW3 8131   1.962   4.699   3.433 -1.1924 -1.1448 -0.6354
 2021SOL    MW4 8132   2.042   4.675   3.408 -0.2506  0.5970  0.6132
 2022SOL     OW 8133   1.798   0.090   3.498 -0.4570 -0.4767 -0.3133
 2022SOL    HW2 8134   1.788   0.109   3.591 -0.9430 -0.0131 -0.4581
 2022SOL    HW3 8135   1.726   0.031   3.477 -0.8050  0.0364 -0.5667
 2022SOL    MW4 8136   1.787   0.085   3.507 -0.5670 -0.3479 -0.3662
 2023SOL     OW 8137   1.818   0.357   3.408  0.6109  0.2953 -0.0813
 2023SOL    HW2 8138   1.804   0.266   3.433  0.4107  0.7455  1.5144
 2023SOL    HW3 8139   1.799   0.360   3.315 -2.3318 -0.6926  0.4472
 2023SOL    MW4 8140   1.814   0.346   3.399  0.1962  0.2244  0.1988
 2024SOL     OW 8141   2.018   0.509   3.523 -0.4412 -0.3034  0.1119
 2024SOL    HW2 8142   2.019   0.588   3.469  1.3582 -0.7183 -0.5090
 2024SOL    HW3 8143   1.952   0.453   3.483 -1.7461  0.8710  0.5614
 2024SOL    MW4 8144   2.010   0.512   3.511 -0.3760 -0.2032  0.0889
 2025SOL     OW 8145   2.039   0.743   3.373  0.2177  0.2329 -0.0651
 2025SOL    HW2 8146   2.105   0.803   3.407  1.2969  0.0261 -1.7801
 2025SOL    HW3 8147   2.031   0.765   3.281  1.6846 -3.1791 -1.0981
 2025SOL    MW4 8148   2.046   0.754   3.366  0.5536 -0.2446 -0.4275
 2026SOL     OW 8149   1.813   0.872   3.514 -0.5502 -0.4069 -0.2979
 2026SOL    HW2 8150   1.876   0.804   3.491  0.1406 -0.4039  1.5021
 2026SOL    HW3 8151   1.729   0.838   3.483 -0.2283 -2.1377  0.6700
 2026SOL    MW4 8152   1.810   0.859   3.507 -0.4166 -0.6349  0.0670
 2027SOL     OW 8153   1.817   1.132   3.384  0.0349 -0.0303 -0.0353
 2027SOL    HW2 8154   1.887   1.191   3.411  0.7932  0.0881 -2.1341
 2027SOL    HW3 8155   1.827   1.055   3.440  1.6129  0.1508 -0.0453
 2027SOL    MW4 8156   1.828   1.129   3.395  0.3433  0.0093 -0.3138
 2028SOL     OW 8157   2.016   1.283   3.461  0.3663 -0.1300  0.0403
 2028SOL    HW2 8158   2.009   1.295   3.556  1.1570  0.5326  0.0208
 2028SOL    HW3 8159   2.004   1.371   3.425  1.4650 -0.1522 -0.3943
 2028SOL    MW4 8160   2.013   1.296   3.469  0.6154 -0.0457 -0.0196
 2029SOL     OW 8161   2.003   1.532   3.356  0.0485  0.5759  0.0759
 2029SOL    HW2 8162   2.081   1.567   3.401 -1.4325  2.1674  1.4805
 2029SOL    HW3 8163   1.929   1.562   3.409 -1.5957 -0.0118 -1.8140
 2029SOL    MW4 8164   2.004   1.541   3.369 -0.3641  0.7082  0.0117
 2030SOL     OW 8165   1.778   1.614   3.522 -0.0191 -0.1736 -0.2011
 2030SOL    HW2 8166   1.785   1.701   3.483 -2.9598  0.5925  0.8415
 2030SOL    HW3 8167   1.697   1.578   3.486 -1.1772 -0.6674  2.7606
 2030SOL    MW4 8168   1.769   1.621   3.512 -0.5599 -0.1377  0.3273
 2031SOL     OW 8169   1.753   1.879   3.413 -0.4944  0.0681  0.1550
 2031SOL    HW2 8170   1.820   1.940   3.441  0.9932 -1.6342  0.4069
 2031SOL    HW3 8171   1.760   1.878   3.317 -1.0295  0.8370  0.1033
 2031SOL    MW4 8172   1.763   1.887   3.404 -0.3688 -0.0552  0.1814
 2032SOL     OW 8173   1.979   2.011   3.490 -0.4106 -0.1770 -0.1060
 2032SOL    HW2 8174   2.054   1.978   3.442 -0.8228 -0.4360 -0.5845
 2032SOL    HW3 8175   1.977   2.105   3.470  0.9014  0.1980  1.4524
 2032SOL    MW4 8176   1.988   2.019   3.481 -0.2919 -0.1619  0.0365
 2033SOL     OW 8177   2.045   2.266   3.392  0.1971  0.0646  0.4428
 2033SOL    HW2 8178   2.108   2.330   3.426 -1.1064  1.4787  0.2093
 2033SOL    HW3 8179   2.052   2.273   3.297 -0.7413  0.6394  0.4169
 2033SOL    MW4 8180   2.054   2.275   3.384 -0.0987  0.3269  0.4084
 2034SOL     OW 8181   1.830   2.432   3.458 -0.1695 -0.0522 -0.2915
 2034SOL    HW2 8182   1.842   2.435   3.553  1.6564  0.7719 -0.5274
 2034SOL    HW3 8183   1.891   2.364   3.428 -1.5089 -1.0511 -0.7715
 2034SOL    MW4 8184   1.840   2.424   3.466 -0.1053 -0.0751 -0.3858
 2035SOL     OW 8185   1.794   2.704   3.398 -0.2682  0.4814  0.3478
 2035SOL    HW2 8186   1.864   2.743   3.450  0.3068 -0.1642  0.0720
 2035SOL    HW3 8187   1.801   2.610   3.415 -1.8551  0.5270  1.2679
 2035SOL    MW4 8188   1.804   2.697   3.407 -0.4019  0.4020  0.4330
 2036SOL     OW 8189   1.996   2.832   3.565  0.0641  0.2065 -0.1785
 2036SOL    HW2 8190   2.001   2.835   3.660 -0.8843 -1.0590 -0.0826
 2036SOL    HW3 8191   2.008   2.923   3.537  0.2355  0.5930  1.1396
 2036SOL    MW4 8192   1.998   2.844   3.574 -0.0384  0.0908  0.0079
 2037SOL     OW 8193   1.988   3.073   3.454 -0.8502 -0.3378  0.4410
 2037SOL    HW2 8194   2.054   3.141   3.466  0.5974 -1.4233 -1.0435
 2037SOL    HW3 8195   1.906   3.113   3.482  0.3804  1.1684  1.9640
 2037SOL    MW4 8196   1.986   3.087   3.459 -0.4969 -0.2820  0.4463
 2038SOL     OW 8197   1.779   3.217   3.551  0.3591  0.1125 -0.0478
 2038SOL    HW2 8198   1.775   3.223   3.646  1.7059 -1.9875  0.1700
 2038SOL    HW3 8199   1.783   3.308   3.521  0.4424  0.7703  1.9101
 2038SOL    MW4 8200   1.779   3.230   3.559  0.5478 -0.0780  0.2396
 2039SOL     OW 8201   1.789   3.488   3.473  0.2422 -0.1009 -0.3853
 2039SOL    HW2 8202   1.713   3.537   3.503 -0.6243 -0.9846 -1.1041
 2039SOL    HW3 8203   1.784   3.491   3.377  0.9516 -0.4143 -0.4413
 2039SOL    MW4 8204   1.779   3.495   3.464  0.2215 -0.2589 -0.4876
 2040SOL     OW 8205   2.030   3.632   3.522 -0.8895  0.4123 -0.1508
 2040SOL    HW2 8206   2.105   3.588   3.483 -0.2505 -0.2612  1.7583
 2040SOL    HW3 8207   1.955   3.576   3.501 -0.8429  0.9711 -1.8745
 2040SOL    MW4 8208   2.030   3.619   3.514 -0.7987  0.3972 -0.1261
 2041SOL     OW 8209   2.035   3.858   3.387 -0.0462  0.6025 -0.2085
 2041SOL    HW2 8210   1.960   3.890   3.437 -0.5316 -0.5014 -0.2179
 2041SOL    HW3 8211   2.053   3.772   3.423  0.8443  0.6054 -0.6231
 2041SOL    MW4 8212   2.027   3.851   3.398  0.0072  0.4575 -0.2646
 2042SOL     OW 8213   1.816   4.001   3.496 -0.1297  0.1761 -0.4107
 2042SOL    HW2 8214   1.814   4.003   3.592 -0.3863  1.0084 -0.4280
 2042SOL    HW3 8215   1.735   3.957   3.471 -0.7809  1.2747 -0.2741
 2042SOL    MW4 8216   1.805   3.995   3.505 -0.2495  0.4306 -0.3948
 2043SOL     OW 8217   1.784   4.255   3.394  0.6521  0.1965 -0.0631
 2043SOL    HW2 8218   1.796   4.168   3.432  0.9753  0.1094 -0.3592
 2043SOL    HW3 8219   1.796   4.242   3.300  2.8845  0.9467  0.0897
 2043SOL    MW4 8220   1.787   4.242   3.387  0.9892  0.2837 -0.0820
 2044SOL     OW 8221   2.009   4.409   3.488  0.0582  0.0800 -0.1008
 2044SOL    HW2 8222   1.927   4.383   3.446  0.4597 -0.3112 -0.6547
 2044SOL    HW3 8223   2.027   4.496   3.452 -1.2278  1.0968  1.6681
 2044SOL    MW4 8224   2.000   4.417   3.477 -0.0587  0.1626  0.0594
 2045SOL     OW 8225   2.512   0.018   3.447  0.2113  0.8587  0.3657
 2045SOL    HW2 8226   2.496  -0.075   3.464 -0.0164  1.1352  1.7819
 2045SOL    HW3 8227   2.527   0.023   3.353  1.2138 -0.7575  0.4093
 2045SOL    MW4 8228   2.512   0.006   3.437  0.3135  0.6814  0.5581
 2046SOL     OW 8229   2.264   0.117   3.520 -0.0543  0.2428 -0.2046
 2046SOL    HW2 8230   2.248   0.208   3.494  0.9608  0.0856 -1.4363
 2046SOL    HW3 8231   2.348   0.095   3.479  0.0843 -1.0127  0.7139
 2046SOL    MW4 8232   2.273   0.126   3.512  0.0980  0.0564 -0.2460
 2047SOL     OW 8233   2.232   0.379   3.421  0.1821  0.2484  0.4797
 2047SOL    HW2 8234   2.302   0.420   3.471  0.0900  1.5808 -0.4683
 2047SOL    HW3 8235   2.151   0.418   3.455  0.1231  1.2308 -0.7424
 2047SOL    MW4 8236   2.230   0.389   3.432  0.1624  0.5538  0.1934
 2048SOL     OW 8237   2.454   0.533   3.501  0.1947  0.1875 -0.1887
 2048SOL    HW2 8238   2.539   0.498   3.473 -0.2137 -0.8847 -0.1287
 2048SOL    HW3 8239   2.457   0.625   3.477  1.2057  0.0615 -0.5887
 2048SOL    MW4 8240   2.466   0.540   3.494  0.2744  0.0294 -0.2334
 2049SOL     OW 8241   2.486   0.797   3.407  0.0960 -0.3826 -0.1398
 2049SOL    HW2 8242   2.574   0.832   3.424  0.4295 -2.1493  2.1479
 2049SOL    HW3 8243   2.480   0.792   3.312  2.2182  0.4188 -0.3484
 2049SOL    MW4 8244   2.497   0.801   3.397  0.4201 -0.5100  0.1345
 2050SOL     OW 8245   2.231   0.900   3.487  0.4132  0.9249 -0.4735
 2050SOL    HW2 8246   2.241   0.990   3.456  3.6364  1.1055  0.9673
 2050SOL    HW3 8247   2.319   0.863   3.484 -0.6577 -1.7859  0.1748
 2050SOL    MW4 8248   2.244   0.907   3.483  0.6974  0.5911 -0.1979
 2051SOL     OW 8249   2.251   1.159   3.387 -0.4039  0.3630 -0.0146
 2051SOL    HW2 8250   2.316   1.209   3.436 -0.0784  1.2617 -1.3495
 2051SOL    HW3 8251   2.168   1.200   3.408 -0.5144 -0.5325  1.3735
 2051SOL    MW4 8252   2.249   1.171   3.396 -0.3757  0.3633 -0.0079
 2052SOL     OW 8253   2.458   1.297   3.498 -0.2657 -0.2243 -0.0206
 2052SOL    HW2 8254   2.454   1.285   3.593 -0.7525  0.0346 -0.0051
 2052SOL    HW3 8255   2.528   1.238   3.470  0.8766  0.7756  0.6607
 2052SOL    MW4 8256   2.467   1.287   3.507 -0.1788 -0.0583  0.0718
 2053SOL     OW 8257   2.492   1.562   3.401 -0.1532 -0.1010 -0.3049
 2053SOL    HW2 8258   2.486   1.476   3.441 -1.3265  0.2465  0.3027
 2053SOL    HW3 8259   2.473   1.547   3.308 -0.6441 -0.4614 -0.1493
 2053SOL    MW4 8260   2.489   1.549   3.394 -0.3729 -0.1026 -0.2043
 2054SOL     OW 8261   2.220   1.637   3.503 -0.1856 -0.4227  0.3080
 2054SOL    HW2 8262   2.215   1.637   3.598  0.3299  0.7283  0.3328
 2054SOL    HW3 8263   2.308   1.607   3.483 -0.0137  0.1608  0.2005
 2054SOL    MW4 8264   2.231   1.633   3.513 -0.0949 -0.1940  0.2968
 2055SOL     OW 8265   2.208   1.899   3.395  0.3499  0.5621 -0.3511
 2055SOL    HW2 8266   2.223   1.808   3.420 -1.7388  0.3445  0.2328
 2055SOL    HW3 8267   2.227   1.901   3.301 -0.8960 -0.8024 -0.6568
 2055SOL    MW4 8268   2.212   1.887   3.386 -0.0901  0.3535 -0.3145
 2056SOL     OW 8269   2.414   2.063   3.512 -0.1227  0.1442 -0.0161
 2056SOL    HW2 8270   2.417   2.079   3.607 -1.4076 -1.8672  0.4169
 2056SOL    HW3 8271   2.329   2.020   3.499  0.8037 -1.2038 -1.7961
 2056SOL    MW4 8272   2.403   2.059   3.523 -0.1702 -0.2987 -0.1936
 2057SOL     OW 8273   2.437   2.324   3.415  0.1134  0.5696 -0.2265
 2057SOL    HW2 8274   2.516   2.365   3.451  0.2116  0.5356 -0.4025
 2057SOL    HW3 8275   2.428   2.242   3.464  0.6541  0.1779 -0.7699
 2057SOL    MW4 8276   2.446   2.318   3.426  0.1979  0.5133 -0.3216
 2058SOL     OW 8277   2.217   2.450   3.539 -0.1471 -0.1195 -0.2420
 2058SOL    HW2 8278   2.205   2.538   3.504  0.0994  0.1685  0.3825
 2058SOL    HW3 8279   2.298   2.418   3.499  0.2342  0.2810  0.2079
 2058SOL    MW4 8280   2.226   2.457   3.529 -0.0644 -0.0286 -0.1001
 2059SOL     OW 8281   2.217   2.699   3.437  0.1443 -0.0417  0.1617
 2059SOL    HW2 8282   2.138   2.747   3.461  0.9897  0.9874  0.9161
 2059SOL    HW3 8283   2.203   2.674   3.345 -0.8910  0.4438  0.1848
 2059SOL    MW4 8284   2.204   2.702   3.428  0.1192  0.1583  0.2642
 2060SOL     OW 8285   2.433   2.854   3.502 -0.1169  0.9501  0.0939
 2060SOL    HW2 8286   2.424   2.932   3.447 -0.4066  1.1893  0.4776
 2060SOL    HW3 8287   2.359   2.799   3.479  0.9565  0.0651 -1.3265
 2060SOL    MW4 8288   2.422   2.857   3.492 -0.0136  0.8652 -0.0429
 2061SOL     OW 8289   2.435   3.115   3.405 -0.1027 -0.0614  0.0169
 2061SOL    HW2 8290   2.508   3.174   3.420 -0.7875  0.2969  2.1642
 2061SOL    HW3 8291   2.438   3.096   3.311  0.7013  2.5888 -0.5381
 2061SOL    MW4 8292   2.445   3.120   3.395 -0.0870  0.3355  0.2270
 2062SOL     OW 8293   2.212   3.229   3.489  0.2580 -0.3589 -0.1855
 2062SOL    HW2 8294   2.197   3.225   3.583 -0.4962 -2.4315 -0.3638
 2062SOL    HW3 8295   2.289   3.174   3.475  1.1187  0.9415 -0.6513
 2062SOL    MW4 8296   2.220   3.221   3.499  0.2716 -0.4609 -0.2708
 2063SOL     OW 8297   2.231   3.500   3.393 -0.3007  0.8070 -0.3929
 2063SOL    HW2 8298   2.227   3.414   3.435  0.5290  1.8009  1.7963
 2063SOL    HW3 8299   2.229   3.481   3.299 -1.2651 -1.5317  0.0645
 2063SOL    MW4 8300   2.230   3.486   3.386 -0.3185  0.6297 -0.0439
 2064SOL     OW 8301   2.466   3.648   3.471  0.4272  0.3536 -0.5458
 2064SOL    HW2 8302   2.461   3.739   3.442 -0.2553  0.0996 -1.2221
 2064SOL    HW3 8303   2.383   3.609   3.445 -0.0824  0.0225  1.4402
 2064SOL    MW4 8304   2.455   3.655   3.464  0.2699  0.2763 -0.3729
 2065SOL     OW 8305   2.452   3.904   3.387  0.4429  0.1648 -0.0670
 2065SOL    HW2 8306   2.531   3.937   3.430  0.1709  2.2122 -1.0615
 2065SOL    HW3 8307   2.380   3.955   3.425 -0.0669  0.2398 -1.0912
 2065SOL    MW4 8308   2.453   3.915   3.397  0.3397  0.4451 -0.3333
 2066SOL     OW 8309   2.226   3.989   3.516  0.1997 -0.1426  0.1062
 2066SOL    HW2 8310   2.216   4.076   3.477  0.8985 -0.9398 -1.9104
 2066SOL    HW3 8311   2.156   3.937   3.476  0.5444 -0.8166  0.3738
 2066SOL    MW4 8312   2.215   3.994   3.505  0.3374 -0.3364 -0.1247
 2067SOL     OW 8313   2.211   4.235   3.388 -0.2495  0.3343  0.1455
 2067SOL    HW2 8314   2.132   4.282   3.415 -1.0565 -0.5003 -0.6959
 2067SOL    HW3 8315   2.221   4.258   3.295  0.9118  1.0001  0.4254
 2067SOL    MW4 8316   2.202   4.244   3.379 -0.2024  0.3123  0.0715
 2068SOL     OW 8317   2.456   4.395   3.472  0.0445  0.6436 -0.3471
 2068SOL    HW2 8318   2.456   4.398   3.568 -0.8784  1.4268 -0.3663
 2068SOL    HW3 8319   2.397   4.323   3.450  0.4282  0.3232 -0.3189
 2068SOL    MW4 8320   2.448   4.386   3.482 -0.0265  0.7043 -0.3455
 2069SOL     OW 8321   2.905   0.026   3.419 -0.0613 -0.1565  0.0456
 2069SOL    HW2 8322   2.830   0.076   3.453 -2.5149 -2.6635 -1.4353
 2069SOL    HW3 8323   2.899   0.036   3.324  1.7326 -0.0899 -0.0723
 2069SOL    MW4 8324   2.894   0.034   3.411 -0.1485 -0.4785 -0.1652
 2070SOL     OW 8325   2.701   0.187   3.546  0.1437 -0.3654  0.0877
 2070SOL    HW2 8326   2.693   0.274   3.507  0.0637  0.2070  1.3562
 2070SOL    HW3 8327   2.623   0.140   3.517  0.1977 -0.0115 -0.6195
 2070SOL    MW4 8328   2.689   0.192   3.537  0.1402 -0.2432  0.1616
 2071SOL     OW 8329   2.684   0.405   3.405  0.5441 -0.5910 -0.1217
 2071SOL    HW2 8330   2.763   0.448   3.438 -0.5531  1.2331  0.1751
 2071SOL    HW3 8331   2.704   0.388   3.312  1.5386 -0.7586  0.1174
 2071SOL    MW4 8332   2.697   0.409   3.397  0.5302 -0.3725 -0.0513
 2072SOL     OW 8333   2.916   0.509   3.539  0.3221  0.2949  0.3960
 2072SOL    HW2 8334   2.915   0.516   3.634 -0.5216 -0.8028  0.4916
 2072SOL    HW3 8335   2.904   0.598   3.508  0.1551  0.6070  1.3326
 2072SOL    MW4 8336   2.914   0.521   3.547  0.1888  0.1913  0.5322
 2073SOL     OW 8337   2.945   0.773   3.419 -0.2555 -0.1430 -0.0250
 2073SOL    HW2 8338   3.028   0.813   3.444 -0.1254 -0.6794  0.4176
 2073SOL    HW3 8339   2.878   0.831   3.456 -0.0861  0.5520 -0.8040
 2073SOL    MW4 8340   2.947   0.786   3.427 -0.2160 -0.1220 -0.0691
 2074SOL     OW 8341   2.738   0.915   3.513  0.1425 -0.2000  0.5114
 2074SOL    HW2 8342   2.720   0.922   3.607 -1.2280 -1.0452  0.3278
 2074SOL    HW3 8343   2.713   1.001   3.478  1.2831  0.3444  1.0012
 2074SOL    MW4 8344   2.732   0.928   3.520  0.1123 -0.2397  0.5517
 2075SOL     OW 8345   2.701   1.168   3.407  0.3142 -0.0404  0.1688
 2075SOL    HW2 8346   2.781   1.215   3.426 -1.1084  2.6585 -0.3569
 2075SOL    HW3 8347   2.701   1.156   3.312  0.5154 -0.8364  0.2645
 2075SOL    MW4 8348   2.711   1.172   3.397  0.1533  0.2106  0.1121
 2076SOL     OW 8349   2.919   1.319   3.459  0.0244  0.6412 -0.0834
 2076SOL    HW2 8350   2.907   1.310   3.554 -0.7966 -2.8885 -0.4597
 2076SOL    HW3 8351   2.993   1.261   3.438 -0.9831 -0.0513 -1.8328
 2076SOL    MW4 8352   2.927   1.310   3.469 -0.2167  0.0842 -0.3638
 2077SOL     OW 8353   2.917   1.587   3.378 -0.0284  0.0910 -0.4707
 2077SOL    HW2 8354   2.841   1.626   3.422  1.2133  1.7092  0.2929
 2077SOL    HW3 8355   2.917   1.496   3.408 -1.9254 -0.0678 -0.8488
 2077SOL    MW4 8356   2.907   1.580   3.388 -0.1149  0.2835 -0.4201
 2078SOL     OW 8357   2.714   1.688   3.524 -0.0964  0.0407 -0.7363
 2078SOL    HW2 8358   2.695   1.768   3.476 -0.7135 -0.1936 -0.8954
 2078SOL    HW3 8359   2.650   1.624   3.491  0.5441 -0.5820 -0.7831
 2078SOL    MW4 8360   2.703   1.690   3.513 -0.0932 -0.0724 -0.7634
 2079SOL     OW 8361   2.661   1.937   3.413 -0.3941  0.6059  0.3932
 2079SOL    HW2 8362   2.581   1.971   3.453 -1.5028 -1.0646 -0.3529
 2079SOL    HW3 8363   2.642   1.934   3.319  0.4676  0.0535  0.2273
 2079SOL    MW4 8364   2.648   1.941   3.406 -0.4268  0.3126  0.2732
 2080SOL     OW 8365   2.879   2.080   3.507 -0.0106 -0.4202  0.1581
 2080SOL    HW2 8366   2.865   2.060   3.600 -0.5966 -0.1395  0.1361
 2080SOL    HW3 8367   2.807   2.036   3.462 -0.3496  0.3397 -0.0537
 2080SOL    MW4 8368   2.867   2.071   3.514 -0.1328 -0.2828  0.1273
 2081SOL     OW 8369   2.934   2.343   3.412  0.3140 -0.2597 -0.3239
 2081SOL    HW2 8370   2.939   2.250   3.434 -0.4782 -0.6031 -1.5389
 2081SOL    HW3 8371   2.923   2.344   3.317  0.9498  1.0983 -0.3834
 2081SOL    MW4 8372   2.933   2.331   3.402  0.2937 -0.1256 -0.4921
 2082SOL     OW 8373   2.692   2.419   3.512  0.0886  0.2696 -0.4976
 2082SOL    HW2 8374   2.685   2.389   3.603 -0.0061 -1.9602 -1.2031
 2082SOL    HW3 8375   2.776   2.385   3.482 -0.5307 -0.2377 -1.6718
 2082SOL    MW4 8376   2.702   2.410   3.520 -0.0055 -0.0916 -0.7458
 2083SOL     OW 8377   2.643   2.703   3.405 -0.0890 -0.1977  0.0630
 2083SOL    HW2 8378   2.645   2.621   3.453 -0.7091 -0.8396 -0.9820
 2083SOL    HW3 8379   2.573   2.753   3.447 -1.0763 -1.0201 -0.5813
 2083SOL    MW4 8380   2.634   2.699   3.417 -0.3011 -0.3910 -0.1597
 2084SOL     OW 8381   2.860   2.857   3.482  0.0549 -0.4503  0.2195
 2084SOL    HW2 8382   2.839   2.852   3.576 -0.1452  0.0309  0.1989
 2084SOL    HW3 8383   2.790   2.806   3.440 -0.0361 -0.3954  0.3027
 2084SOL    MW4 8384   2.848   2.849   3.489  0.0165 -0.3798  0.2279
 2085SOL     OW 8385   2.912   3.107   3.391  0.0627 -0.2744 -0.1590
 2085SOL    HW2 8386   2.899   3.017   3.421 -1.5027  0.2692  0.8591
 2085SOL    HW3 8387   2.923   3.099   3.296  0.7112 -1.5993  0.0158
 2085SOL    MW4 8388   2.912   3.094   3.383 -0.0584 -0.3777 -0.0012
 2086SOL     OW 8389   2.687   3.259   3.462  0.3526  0.0384  0.2096
 2086SOL    HW2 8390   2.700   3.260   3.557  1.6298 -0.2046  0.0467
 2086SOL    HW3 8391   2.757   3.204   3.429 -0.7684 -0.8164 -0.7899
 2086SOL    MW4 8392   2.698   3.252   3.471  0.3736 -0.1066  0.0565
 2087SOL     OW 8393   2.686   3.518   3.367 -0.3746  0.1988 -0.2958
 2087SOL    HW2 8394   2.675   3.435   3.414 -0.3479 -0.1060 -0.8170
 2087SOL    HW3 8395   2.619   3.576   3.403 -2.5533 -1.0465 -2.1552
 2087SOL    MW4 8396   2.676   3.514   3.378 -0.6588 -0.0055 -0.6099
 2088SOL     OW 8397   2.905   3.630   3.479  0.1219  0.1202 -0.4429
 2088SOL    HW2 8398   2.915   3.708   3.424 -0.0727  0.9150  0.6352
 2088SOL    HW3 8399   2.832   3.582   3.440  0.5177  0.2447 -1.3660
 2088SOL    MW4 8400   2.897   3.634   3.466  0.1485  0.2413 -0.4222
 2089SOL     OW 8401   2.899   3.885   3.367 -0.3604 -0.1124  0.1384
 2089SOL    HW2 8402   2.975   3.911   3.419 -0.7309  1.1445  0.0676
 2089SOL    HW3 8403   2.826   3.929   3.409 -0.9426 -0.6964 -0.2637
 2089SOL    MW4 8404   2.900   3.894   3.380 -0.4861 -0.0238  0.0761
 2090SOL     OW 8405   2.669   4.021   3.482 -0.3064  0.4431 -0.1226
 2090SOL    HW2 8406   2.679   4.017   3.577  2.0759  0.7370 -0.3212
 2090SOL    HW3 8407   2.679   4.114   3.460  0.0533  0.2729 -0.7172
 2090SOL    MW4 8408   2.672   4.033   3.491  0.0553  0.4597 -0.2272
 2091SOL     OW 8409   2.677   4.271   3.364 -0.2640  0.1938 -0.2235
 2091SOL    HW2 8410   2.754   4.311   3.404 -0.1773  0.6629 -0.8458
 2091SOL    HW3 8411   2.603   4.312   3.407 -0.1712  0.4613 -0.3154
 2091SOL    MW4 8412   2.678   4.281   3.375 -0.2403  0.2904 -0.3178
 2092SOL     OW 8413   2.889   4.413   3.477  0.0425 -0.3085  0.0503
 2092SOL    HW2 8414   2.883   4.417   3.572  2.2287  0.5312  0.1668
 2092SOL    HW3 8415   2.901   4.504   3.450  0.4591 -0.6563 -0.9564
 2092SOL    MW4 8416   2.890   4.426   3.486  0.3860 -0.2437 -0.0670
 2093SOL     OW 8417   3.363   4.657   3.451  0.5258  0.4513 -0.4219
 2093SOL    HW2 8418   3.281   4.691   3.487  0.0910 -0.7732 -0.2391
 2093SOL    HW3 8419   3.354   4.669   3.356  1.2249  2.6830 -0.2328
 2093SOL    MW4 8420   3.351   4.663   3.443  0.5605  0.5841 -0.3731
 2094SOL     OW 8421   3.138   0.112   3.550  0.2637 -0.1931 -0.2504
 2094SOL    HW2 8422   3.140   0.205   3.524  0.9756  0.1179  0.8769
 2094SOL    HW3 8423   3.053   0.081   3.519 -0.8378  1.3684  1.0842
 2094SOL    MW4 8424   3.127   0.120   3.542  0.2122  0.0539  0.0741
 2095SOL     OW 8425   3.138   0.377   3.450  0.5658  0.2619 -0.4252
 2095SOL    HW2 8426   3.054   0.418   3.472  0.2424 -0.8739  0.5167
 2095SOL    HW3 8427   3.137   0.371   3.354 -0.8281 -0.5107 -0.3903
 2095SOL    MW4 8428   3.127   0.381   3.440  0.3393  0.0101 -0.2964
 2096SOL     OW 8429   3.375   0.509   3.525  0.4243 -0.2274 -0.4451
 2096SOL    HW2 8430   3.363   0.480   3.616  0.4400  1.9208  0.2532
 2096SOL    HW3 8431   3.296   0.478   3.480 -0.5319  0.4199  0.7444
 2096SOL    MW4 8432   3.363   0.501   3.531  0.3004  0.1414 -0.1960
 2097SOL     OW 8433   3.401   0.785   3.434  0.3728 -0.4311 -0.0903
 2097SOL    HW2 8434   3.462   0.839   3.484 -1.4898  2.1979 -0.5169
 2097SOL    HW3 8435   3.413   0.697   3.468  2.4135  0.5171  1.7569
 2097SOL    MW4 8436   3.411   0.781   3.445  0.3963  0.0409  0.0973
 2098SOL     OW 8437   3.166   0.887   3.534 -0.1142  0.2345  0.0325
 2098SOL    HW2 8438   3.174   0.872   3.628 -1.4437 -0.0661  0.0980
 2098SOL    HW3 8439   3.250   0.857   3.498  0.0839 -0.4191  1.0195
 2098SOL    MW4 8440   3.178   0.881   3.541 -0.2635  0.1086  0.1714
 2099SOL     OW 8441   3.139   1.143   3.424 -0.1309 -0.0271  0.0123
 2099SOL    HW2 8442   3.148   1.058   3.467  0.0300 -0.2250 -0.4035
 2099SOL    HW3 8443   3.207   1.197   3.463 -0.4761  0.0223  0.5448
 2099SOL    MW4 8444   3.149   1.139   3.435 -0.1552 -0.0466  0.0277
 2100SOL     OW 8445   3.374   1.274   3.541 -0.3910 -0.2599 -0.4370
 2100SOL    HW2 8446   3.453   1.229   3.510 -0.4093  0.6667 -1.8915
 2100SOL    HW3 8447   3.380   1.362   3.503 -0.7532  0.7160  1.6992
 2100SOL    MW4 8448   3.385   1.280   3.532 -0.4411 -0.0089 -0.3469
 2101SOL     OW 8449   3.369   1.537   3.423 -0.0961  0.2925 -0.0229
 2101SOL    HW2 8450   3.444   1.590   3.452 -0.5443  1.1918 -0.5158
 2101SOL    HW3 8451   3.293   1.582   3.458 -0.5487  0.5734 -1.3395
 2101SOL    MW4 8452   3.369   1.550   3.432 -0.2151  0.4481 -0.2615
 2102SOL     OW 8453   3.154   1.696   3.503  0.3154  0.2100  0.1031
 2102SOL    HW2 8454   3.144   1.789   3.485  0.3154  0.0328 -0.8606
 2102SOL    HW3 8455   3.076   1.656   3.463  0.3357 -0.2012  0.4742
 2102SOL    MW4 8456   3.142   1.703   3.495  0.3178  0.1324  0.0250
 2103SOL     OW 8457   3.116   1.969   3.437 -0.3691 -0.2651 -0.2060
 2103SOL    HW2 8458   3.031   2.010   3.453 -0.3087  0.0474 -0.6822
 2103SOL    HW3 8459   3.120   1.960   3.342  0.2089 -0.1097 -0.1953
 2103SOL    MW4 8460   3.105   1.973   3.426 -0.2849 -0.2034 -0.2675
 2104SOL     OW 8461   3.337   2.110   3.489  0.2249 -0.0309  0.0050
 2104SOL    HW2 8462   3.336   2.198   3.452  0.4895 -0.9000 -2.1453
 2104SOL    HW3 8463   3.247   2.080   3.482  0.7240 -1.1320 -2.3543
 2104SOL    MW4 8464   3.325   2.117   3.483  0.3254 -0.2906 -0.5901
 2105SOL     OW 8465   3.370   2.387   3.414 -0.3408 -0.4736  0.2016
 2105SOL    HW2 8466   3.449   2.409   3.463  0.4182 -1.5866 -0.4904
 2105SOL    HW3 8467   3.299   2.427   3.463  0.7145  1.1134  0.4793
 2105SOL    MW4 8468   3.371   2.395   3.427 -0.1016 -0.4110  0.1469
 2106SOL     OW 8469   3.134   2.475   3.532  0.1988  0.3915  0.3857
 2106SOL    HW2 8470   3.125   2.563   3.495  0.8938  1.4988  2.7670
 2106SOL    HW3 8471   3.059   2.426   3.496 -0.5268  2.1088 -0.4844
 2106SOL    MW4 8472   3.123   2.480   3.522  0.1950  0.7641  0.5853
 2107SOL     OW 8473   3.092   2.735   3.424  0.3489 -0.1067 -0.5350
 2107SOL    HW2 8474   3.158   2.800   3.449  0.6642 -0.7753  0.4178
 2107SOL    HW3 8475   3.008   2.776   3.444  0.5516 -0.0223  0.1635
 2107SOL    MW4 8476   3.090   2.749   3.430  0.4172 -0.1836 -0.3173
 2108SOL     OW 8477   3.320   2.864   3.520 -0.0708 -0.1453 -0.3323
 2108SOL    HW2 8478   3.395   2.810   3.494 -0.2025 -0.1972 -0.6058
 2108SOL    HW3 8479   3.333   2.947   3.474  0.3457  0.2029  0.4069
 2108SOL    MW4 8480   3.332   2.868   3.510 -0.0334 -0.1063 -0.2706
 2109SOL     OW 8481   3.343   3.096   3.390 -0.1765  0.3821  0.2219
 2109SOL    HW2 8482   3.422   3.131   3.432  0.5621  1.0517 -1.6988
 2109SOL    HW3 8483   3.271   3.143   3.433  0.4883  0.2291  1.5337
 2109SOL    MW4 8484   3.344   3.107   3.401  0.0088  0.4501  0.1416
 2110SOL     OW 8485   3.126   3.227   3.506  0.0672  0.5929  0.5559
 2110SOL    HW2 8486   3.146   3.313   3.468 -1.0405  0.2861 -0.7509
 2110SOL    HW3 8487   3.039   3.206   3.473  0.0279 -0.7101  1.4628
 2110SOL    MW4 8488   3.118   3.236   3.496 -0.0842  0.3805  0.5031
 2111SOL     OW 8489   3.146   3.527   3.439  0.0903 -0.1190 -0.0070
 2111SOL    HW2 8490   3.059   3.559   3.464 -0.3580 -1.1022 -0.2854
 2111SOL    HW3 8491   3.137   3.503   3.347 -0.0361 -2.5285  0.6007
 2111SOL    MW4 8492   3.133   3.528   3.430  0.0143 -0.5670  0.0362
 2112SOL     OW 8493   3.375   3.615   3.534  0.2007 -0.1961  0.4428
 2112SOL    HW2 8494   3.376   3.704   3.501 -0.0227 -0.8566 -1.4290
 2112SOL    HW3 8495   3.296   3.576   3.495  0.4023 -1.2530  1.0768
 2112SOL    MW4 8496   3.365   3.621   3.525  0.1979 -0.4225  0.2797
 2113SOL     OW 8497   3.341   3.867   3.416  0.0545  0.1563 -0.0523
 2113SOL    HW2 8498   3.416   3.909   3.458 -0.3606 -0.4252  1.2986
 2113SOL    HW3 8499   3.266   3.921   3.439 -0.2656 -0.5004  0.4967
 2113SOL    MW4 8500   3.341   3.879   3.425 -0.0427 -0.0072  0.1984
 2114SOL     OW 8501   3.120   4.011   3.507  0.0747 -0.4072 -0.3857
 2114SOL    HW2 8502   3.112   4.018   3.603 -1.5604  0.0991 -0.5472
 2114SOL    HW3 8503   3.104   4.100   3.476  0.6925 -0.5555 -1.1374
 2114SOL    MW4 8504   3.117   4.024   3.516 -0.0594 -0.3600 -0.5059
 2115SOL     OW 8505   3.115   4.278   3.419 -0.3660  0.2686 -0.0693
 2115SOL    HW2 8506   3.195   4.317   3.453 -0.0354  0.7637 -1.3659
 2115SOL    HW3 8507   3.047   4.344   3.430  0.0755  1.0393 -1.7563
 2115SOL    MW4 8508   3.116   4.292   3.425 -0.2642  0.4354 -0.4632
 2116SOL     OW 8509   3.344   4.392   3.527  0.2476 -0.4537 -0.1585
 2116SOL    HW2 8510   3.326   4.389   3.621  0.0781  1.0786 -0.1285
 2116SOL    HW3 8511   3.351   4.485   3.507 -0.5258 -0.7293 -1.8211
 2116SOL    MW4 8512   3.342   4.404   3.537  0.1230 -0.2880 -0.3738
 2117SOL     OW 8513   3.858   4.651   3.452 -0.1830 -0.4932  0.1542
 2117SOL    HW2 8514   3.769   4.686   3.464 -0.3574 -0.7015 -0.5057
 2117SOL    HW3 8515   3.867   4.641   3.357  1.0670  0.8764  0.1125
 2117SOL    MW4 8516   3.847   4.654   3.441 -0.0408 -0.3399  0.0615
 2118SOL     OW 8517   3.610   0.097   3.523  0.0741  0.0903 -0.1305
 2118SOL    HW2 8518   3.602   0.182   3.480 -0.2849 -0.5097 -1.2861
 2118SOL    HW3 8519   3.524   0.056   3.512  0.2642 -0.4518  0.3407
 2118SOL    MW4 8520   3.597   0.103   3.515  0.0520 -0.0604 -0.2213
 2119SOL     OW 8521   3.593   0.355   3.418  0.0517  0.0125 -0.5142
 2119SOL    HW2 8522   3.658   0.413   3.457 -0.4629  0.6563 -0.6022
 2119SOL    HW3 8523   3.510   0.404   3.424 -0.5746 -1.1303  0.3471
 2119SOL    MW4 8524   3.590   0.369   3.424 -0.0989 -0.0533 -0.4122
 2120SOL     OW 8525   3.781   0.509   3.539 -0.1913  0.4829  0.3948
 2120SOL    HW2 8526   3.796   0.493   3.632 -0.0481  0.4723  0.3686
 2120SOL    HW3 8527   3.859   0.476   3.495 -0.8434 -0.7439  0.1471
 2120SOL    MW4 8528   3.793   0.503   3.545 -0.2584  0.3197  0.3586
 2121SOL     OW 8529   3.818   0.764   3.442  0.2407 -0.6273  0.3184
 2121SOL    HW2 8530   3.903   0.791   3.475 -1.1824  0.6041  3.1277
 2121SOL    HW3 8531   3.799   0.682   3.488 -0.8060 -0.0273  0.9823
 2121SOL    MW4 8532   3.826   0.756   3.452 -0.0856 -0.3857  0.7768
 2122SOL     OW 8533   3.612   0.911   3.556  0.3593  0.1904  0.1105
 2122SOL    HW2 8534   3.626   0.894   3.649 -0.9166 -0.2152  0.2336
 2122SOL    HW3 8535   3.689   0.872   3.513  0.7549  0.0249  0.9579
 2122SOL    MW4 8536   3.624   0.903   3.563  0.2432  0.1150  0.2387
 2123SOL     OW 8537   3.610   1.168   3.454  0.1926 -0.1877 -0.4080
 2123SOL    HW2 8538   3.627   1.081   3.491  1.4215 -0.1229 -0.8254
 2123SOL    HW3 8539   3.607   1.154   3.359  0.3643  0.2248 -0.4766
 2123SOL    MW4 8540   3.612   1.155   3.446  0.3777 -0.1247 -0.4721
 2124SOL     OW 8541   3.825   1.334   3.509  0.1865 -0.1475  0.2353
 2124SOL    HW2 8542   3.798   1.350   3.599  0.6271 -1.5704  0.6438
 2124SOL    HW3 8543   3.759   1.274   3.474 -0.3830  0.9611 -0.6358
 2124SOL    MW4 8544   3.813   1.328   3.516  0.1693 -0.1888  0.1743
 2125SOL     OW 8545   3.846   1.586   3.374 -0.3172 -0.4246  0.0680
 2125SOL    HW2 8546   3.922   1.622   3.419 -2.1239  1.0177  2.0998
 2125SOL    HW3 8547   3.830   1.502   3.417 -1.4372  0.4969  1.5192
 2125SOL    MW4 8548   3.854   1.580   3.386 -0.7033 -0.1127  0.5274
 2126SOL     OW 8549   3.601   1.679   3.482 -0.4995 -0.6561  0.2331
 2126SOL    HW2 8550   3.579   1.760   3.436 -2.5634 -1.0665  0.4512
 2126SOL    HW3 8551   3.685   1.653   3.445 -0.3618  0.9719 -0.6671
 2126SOL    MW4 8552   3.609   1.687   3.471 -0.7539 -0.4954  0.1433
 2127SOL     OW 8553   3.518   1.915   3.392  0.1992 -0.4098 -0.0113
 2127SOL    HW2 8554   3.591   1.962   3.433 -0.0342  0.2991 -0.3860
 2127SOL    HW3 8555   3.440   1.962   3.421 -0.1248 -1.3085  0.5794
 2127SOL    MW4 8556   3.517   1.928   3.401  0.1254 -0.4348  0.0174
 2128SOL     OW 8557   3.736   2.078   3.490  0.0749 -0.2156 -0.1257
 2128SOL    HW2 8558   3.735   2.086   3.585  2.0354  2.0973 -0.2576
 2128SOL    HW3 8559   3.812   2.023   3.472 -0.6810 -1.2007 -0.3350
 2128SOL    MW4 8560   3.746   2.072   3.500  0.2339 -0.0403 -0.1707
 2129SOL     OW 8561   3.790   2.332   3.390 -0.3502  0.2787 -0.1589
 2129SOL    HW2 8562   3.863   2.365   3.443 -0.2507  1.0319 -0.7656
 2129SOL    HW3 8563   3.785   2.239   3.414  0.5342  0.3120  0.2112
 2129SOL    MW4 8564   3.799   2.324   3.400 -0.2205  0.3824 -0.1900
 2130SOL     OW 8565   3.593   2.460   3.548 -0.0164 -0.1032 -0.2973
 2130SOL    HW2 8566   3.594   2.533   3.486 -0.7485  0.0469 -0.1378
 2130SOL    HW3 8567   3.650   2.395   3.509 -0.1728  0.1442 -0.9470
 2130SOL    MW4 8568   3.601   2.461   3.535 -0.1335 -0.0508 -0.3619
 2131SOL     OW 8569   3.548   2.718   3.435  0.3456 -0.5936  0.1386
 2131SOL    HW2 8570   3.629   2.760   3.463  1.6146 -1.4441 -2.1276
 2131SOL    HW3 8571   3.559   2.707   3.341 -1.6478 -2.3852  0.1025
 2131SOL    MW4 8572   3.560   2.722   3.426  0.2501 -0.9422 -0.1650
 2132SOL     OW 8573   3.784   2.839   3.535 -0.0627 -0.3964  0.1239
 2132SOL    HW2 8574   3.805   2.848   3.627  1.0454 -1.6088  0.0068
 2132SOL    HW3 8575   3.786   2.928   3.500 -0.2937  0.0373  1.2278
 2132SOL    MW4 8576   3.787   2.852   3.542  0.0534 -0.4992  0.2539
 2133SOL     OW 8577   3.788   3.118   3.447 -0.5257 -0.5235  0.2033
 2133SOL    HW2 8578   3.873   3.158   3.468 -0.4180 -1.4313  1.5464
 2133SOL    HW3 8579   3.778   3.131   3.353  1.4159 -1.0054 -0.0864
 2133SOL    MW4 8580   3.798   3.125   3.437 -0.2553 -0.7069  0.3424
 2134SOL     OW 8581   3.546   3.202   3.543 -0.1872  0.6075 -0.2975
 2134SOL    HW2 8582   3.553   3.293   3.515 -0.2834  0.3183 -1.2626
 2134SOL    HW3 8583   3.633   3.166   3.531 -0.1904  0.5247 -0.0772
 2134SOL    MW4 8584   3.558   3.210   3.538 -0.2003  0.5584 -0.3955
 2135SOL     OW 8585   3.567   3.450   3.423  0.7882  0.0748 -0.7337
 2135SOL    HW2 8586   3.508   3.521   3.451 -1.8407 -1.3706 -2.4695
 2135SOL    HW3 8587   3.577   3.463   3.329  1.3186 -1.1173 -0.8477
 2135SOL    MW4 8588   3.561   3.461   3.415  0.5114 -0.2732 -0.9775
 2136SOL     OW 8589   3.828   3.586   3.502  0.1840  0.5292  0.6695
 2136SOL    HW2 8590   3.823   3.587   3.597 -0.7830 -1.8686  0.6829
 2136SOL    HW3 8591   3.750   3.538   3.474  1.1658 -0.0053 -1.2572
 2136SOL    MW4 8592   3.817   3.580   3.511  0.1857  0.1423  0.4172
 2137SOL     OW 8593   3.845   3.851   3.424  0.0464  0.4604 -0.1082
 2137SOL    HW2 8594   3.776   3.900   3.468  0.4250  0.3082  0.6655
 2137SOL    HW3 8595   3.840   3.763   3.461  0.0704  0.2119 -0.7002
 2137SOL    MW4 8596   3.835   3.846   3.435  0.0997  0.4077 -0.0842
 2138SOL     OW 8597   3.619   3.990   3.519 -0.0863 -0.0206 -0.1680
 2138SOL    HW2 8598   3.590   4.001   3.609 -0.5706 -0.6640 -0.2422
 2138SOL    HW3 8599   3.620   4.079   3.483  2.6167  0.5340  1.2232
 2138SOL    MW4 8600   3.615   4.003   3.526  0.2062 -0.0319  0.0060
 2139SOL     OW 8601   3.586   4.270   3.440 -0.1042 -0.0428 -0.0317
 2139SOL    HW2 8602   3.513   4.319   3.477 -1.6729 -3.1210  1.1902
 2139SOL    HW3 8603   3.569   4.269   3.346 -1.4427 -0.4036  0.2013
 2139SOL    MW4 8604   3.574   4.276   3.432 -0.4880 -0.4964  0.1602
 2140SOL     OW 8605   3.818   4.380   3.567 -0.2934 -0.0593 -0.1392
 2140SOL    HW2 8606   3.733   4.360   3.528  0.4534 -0.9003 -1.3346
 2140SOL    HW3 8607   3.844   4.463   3.527 -1.3650  1.1254  1.5634
 2140SOL    MW4 8608   3.810   4.388   3.557 -0.3364 -0.0138 -0.0722
 2141SOL     OW 8609   4.288   0.024   3.409  0.1383  0.4260  0.0043
 2141SOL    HW2 8610   4.267  -0.060   3.449  1.6945  0.0851  0.1312
 2141SOL    HW3 8611   4.357   0.061   3.465  0.0967  1.3800 -0.5518
 2141SOL    MW4 8612   4.294   0.018   3.422  0.3386  0.5069 -0.0522
 2142SOL     OW 8613   4.081   0.143   3.529 -0.2242 -0.4679  0.0896
 2142SOL    HW2 8614   4.156   0.106   3.482 -0.7519  0.8478 -1.8341
 2142SOL    HW3 8615   4.007   0.089   3.501 -0.6118  0.5836 -0.9201
 2142SOL    MW4 8616   4.081   0.131   3.519 -0.3448 -0.1556 -0.2975
 2143SOL     OW 8617   4.007   0.400   3.415 -0.0989 -0.3918 -0.2689
 2143SOL    HW2 8618   4.038   0.317   3.453  0.2489 -0.0254  0.2507
 2143SOL    HW3 8619   3.992   0.379   3.322  0.1013 -1.0076 -0.1665
 2143SOL    MW4 8620   4.009   0.386   3.407 -0.0267 -0.4247 -0.1864
 2144SOL     OW 8621   4.254   0.476   3.478  0.2619  0.4811 -0.1850
 2144SOL    HW2 8622   4.244   0.571   3.474  0.2636  0.4804 -0.2064
 2144SOL    HW3 8623   4.169   0.442   3.449  0.2400  0.4760 -0.1135
 2144SOL    MW4 8624   4.241   0.484   3.474  0.2589  0.4803 -0.1786
 2145SOL     OW 8625   4.300   0.775   3.409  0.1395  0.3459 -0.0661
 2145SOL    HW2 8626   4.385   0.803   3.442  0.3274 -0.4289  0.1130
 2145SOL    HW3 8627   4.314   0.761   3.315  0.2962 -0.1285  0.0297
 2145SOL    MW4 8628   4.313   0.777   3.401  0.1845  0.1811 -0.0300
 2146SOL     OW 8629   4.044   0.873   3.518  0.7603 -0.0505 -0.3657
 2146SOL    HW2 8630   4.040   0.966   3.496 -0.2138 -0.2930 -1.2609
 2146SOL    HW3 8631   4.131   0.845   3.489  0.7855  0.4191 -0.7616
 2146SOL    MW4 8632   4.055   0.881   3.511  0.6351 -0.0206 -0.5360
 2147SOL     OW 8633   4.026   1.163   3.420 -0.6446 -0.0048  0.0985
 2147SOL    HW2 8634   4.101   1.208   3.458 -0.9225 -0.5891  1.3558
 2147SOL    HW3 8635   3.950   1.205   3.459 -0.9003 -1.8671  1.6636
 2147SOL    MW4 8636   4.026   1.174   3.430 -0.7153 -0.3276  0.4709
 2148SOL     OW 8637   4.249   1.291   3.525  0.2519 -0.2761  0.2598
 2148SOL    HW2 8638   4.246   1.379   3.487 -2.3801 -0.6101 -0.4589
 2148SOL    HW3 8639   4.322   1.248   3.480  0.7449  1.1281 -0.3126
 2148SOL    MW4 8640   4.258   1.297   3.514 -0.0305 -0.1347  0.0894
 2149SOL     OW 8641   4.268   1.546   3.420  0.2002  0.2993 -0.1721
 2149SOL    HW2 8642   4.193   1.603   3.437  0.5957  1.0501 -0.8661
 2149SOL    HW3 8643   4.272   1.540   3.324 -1.3856 -3.0128 -0.0812
 2149SOL    MW4 8644   4.259   1.553   3.409  0.0429 -0.0385 -0.2518
 2150SOL     OW 8645   4.050   1.705   3.498 -0.2961 -0.3386  0.1609
 2150SOL    HW2 8646   4.025   1.702   3.590  0.3032  0.5580  0.3624
 2150SOL    HW3 8647   4.035   1.796   3.472  1.3556 -0.1167 -0.0938
 2150SOL    MW4 8648   4.045   1.716   3.506  0.0010 -0.1910  0.1540
 2151SOL     OW 8649   3.982   1.954   3.432 -0.0296  0.0796 -0.4577
 2151SOL    HW2 8650   4.059   2.005   3.458 -0.0777  0.1110 -0.3740
 2151SOL    HW3 8651   3.992   1.941   3.338  0.6342 -0.8594 -0.2637
 2151SOL    MW4 8652   3.993   1.959   3.423  0.0513 -0.0402 -0.4210
 2152SOL     OW 8653   4.251   2.098   3.508  0.4944 -0.1337  0.0140
 2152SOL    HW2 8654   4.260   2.179   3.457 -0.2811 -0.0933 -0.0602
 2152SOL    HW3 8655   4.315   2.038   3.469  0.9644  0.3968 -0.0257
 2152SOL    MW4 8656   4.261   2.101   3.496  0.4539 -0.0584 -0.0007
 2153SOL     OW 8657   4.282   2.355   3.406 -0.0437 -0.4544 -0.1871
 2153SOL    HW2 8658   4.194   2.364   3.443  0.4279  0.9206  0.6254
 2153SOL    HW3 8659   4.268   2.341   3.312 -1.1172 -0.3244 -0.0475
 2153SOL    MW4 8660   4.269   2.354   3.399 -0.1230 -0.2558 -0.0615
 2154SOL     OW 8661   4.016   2.413   3.517 -0.3408 -0.3082  0.0289
 2154SOL    HW2 8662   4.015   2.400   3.612 -1.5545  0.1454  0.0859
 2154SOL    HW3 8663   4.014   2.508   3.505  2.3793 -0.2782 -0.4461
 2154SOL    MW4 8664   4.015   2.424   3.528 -0.1421 -0.2441 -0.0265
 2155SOL     OW 8665   3.999   2.680   3.460  0.0339  0.2102 -0.1719
 2155SOL    HW2 8666   4.078   2.732   3.479 -1.2477  1.6790  1.3064
 2155SOL    HW3 8667   3.926   2.739   3.482 -1.4666 -1.3207 -1.0050
 2155SOL    MW4 8668   4.000   2.695   3.466 -0.3338  0.2019 -0.0868
 2156SOL     OW 8669   4.219   2.847   3.528  0.3829 -0.0137  0.1050
 2156SOL    HW2 8670   4.223   2.856   3.623  0.0194 -1.3808  0.2536
 2156SOL    HW3 8671   4.307   2.820   3.503  0.0209 -1.3815  0.2551
 2156SOL    MW4 8672   4.231   2.845   3.537  0.2871 -0.3748  0.1445
 2157SOL     OW 8673   4.251   3.109   3.417  0.1118 -0.4685  0.1455
 2157SOL    HW2 8674   4.252   3.024   3.462  1.7757 -0.2999  0.4382
 2157SOL    HW3 8675   4.240   3.087   3.325 -0.2523 -0.9553  0.2997
 2157SOL    MW4 8676   4.250   3.095   3.411  0.2832 -0.5105  0.2043
 2158SOL     OW 8677   4.024   3.243   3.534  0.4425  0.1918  0.0572
 2158SOL    HW2 8678   4.026   3.326   3.487 -0.1390  0.4711  0.5129
 2158SOL    HW3 8679   4.096   3.192   3.497 -1.8243 -0.7479 -3.2566
 2158SOL    MW4 8680   4.034   3.247   3.523  0.0672  0.1047 -0.3200
 2159SOL     OW 8681   4.057   3.478   3.406  0.0673 -0.2007  0.0936
 2159SOL    HW2 8682   4.128   3.528   3.448 -0.4061  1.2884 -0.8292
 2159SOL    HW3 8683   3.977   3.511   3.449 -0.0641 -1.9997  1.2595
 2159SOL    MW4 8684   4.055   3.489   3.417 -0.0124 -0.2415  0.1256
 2160SOL     OW 8685   4.251   3.626   3.531  0.2682 -0.2252  0.6749
 2160SOL    HW2 8686   4.232   3.634   3.624 -1.1555  1.7525  0.2482
 2160SOL    HW3 8687   4.251   3.716   3.498  0.0609 -0.9294 -1.3491
 2160SOL    MW4 8688   4.249   3.639   3.539  0.0529 -0.0572  0.3517
 2161SOL     OW 8689   4.272   3.889   3.414  0.3518 -0.3442 -0.3822
 2161SOL    HW2 8690   4.352   3.937   3.436  0.1080  0.1173 -0.4828
 2161SOL    HW3 8691   4.269   3.891   3.319  0.1796 -0.2881 -0.3756
 2161SOL    MW4 8692   4.282   3.896   3.405  0.2961 -0.2759 -0.3948
 2162SOL     OW 8693   4.055   3.995   3.548 -0.2504  0.1880  0.4953
 2162SOL    HW2 8694   4.135   3.956   3.513  1.3700  2.6080  1.3728
 2162SOL    HW3 8695   3.986   3.932   3.527  1.4703 -0.7656 -2.4911
 2162SOL    MW4 8696   4.057   3.982   3.541  0.1903  0.3815  0.2172
 2163SOL     OW 8697   4.049   4.259   3.469 -0.3420 -0.2280  0.3170
 2163SOL    HW2 8698   4.057   4.172   3.508 -0.4275 -0.2662  0.2467
 2163SOL    HW3 8699   3.965   4.292   3.501 -0.5168 -0.3506 -0.0198
 2163SOL    MW4 8700   4.039   4.252   3.479 -0.3767 -0.2489  0.2632
 2164SOL     OW 8701   4.260   4.445   3.518  0.0531  0.3120 -0.1447
 2164SOL    HW2 8702   4.268   4.444   3.614 -2.4018  1.5608  0.1230
 2164SOL    HW3 8703   4.196   4.377   3.499 -2.3130  2.5383 -0.5107
 2164SOL    MW4 8704   4.252   4.436   3.528 -0.5832  0.7706 -0.1576
 2165SOL     OW 8705   0.265   4.661   3.948  0.0979 -0.1792 -0.1109
 2165SOL    HW2 8706   0.282   4.668   4.041  1.1267 -0.7890 -0.2555
 2165SOL    HW3 8707   0.184   4.711   3.935 -0.3352 -0.5242  1.1824
 2165SOL    MW4 8708   0.256   4.669   3.958  0.1765 -0.3052  0.0405
 2166SOL     OW 8709   0.009   0.110   3.857  0.1980 -0.4615  0.1980
 2166SOL    HW2 8710   0.015   0.202   3.883 -0.6686 -0.3951  0.1745
 2166SOL    HW3 8711   0.025   0.110   3.763 -1.4056 -0.1368 -0.0859
 2166SOL    MW4 8712   0.012   0.122   3.848 -0.1279 -0.4099  0.1574
 2167SOL     OW 8713   4.483   0.391   3.905 -0.2632  0.5802  0.2921
 2167SOL    HW2 8714   4.410   0.441   3.870 -0.3578  0.5592  0.4584
 2167SOL    HW3 8715   4.561   0.430   3.865 -0.2656  1.4373  1.1134
 2167SOL    MW4 8716   4.484   0.403   3.895 -0.2760  0.6905  0.4222
 2168SOL     OW 8717   0.230   0.503   3.814  0.0580  0.3276  0.3089
 2168SOL    HW2 8718   0.244   0.594   3.839 -0.4633  0.8324 -1.1351
 2168SOL    HW3 8719   0.222   0.506   3.718 -0.8166 -1.1073  0.3201
 2168SOL    MW4 8720   0.231   0.516   3.804 -0.1262  0.2048  0.1199
 2169SOL     OW 8721   0.209   0.774   3.892 -0.3449 -0.1593  0.3053
 2169SOL    HW2 8722   0.196   0.785   3.986 -0.0279  0.6674  0.2576
 2169SOL    HW3 8723   0.136   0.821   3.852  1.1867  2.1311  0.0938
 2169SOL    MW4 8724   0.198   0.782   3.899 -0.1010  0.2519  0.2711
 2170SOL     OW 8725   0.002   0.926   3.788  0.3481 -0.5566  0.2122
 2170SOL    HW2 8726  -0.077   0.875   3.804  0.0603  0.3016  1.5836
 2170SOL    HW3 8727  -0.005   1.001   3.846  1.9235 -0.1873 -0.0350
 2170SOL    MW4 8728  -0.009   0.929   3.797  0.5178 -0.3946  0.3605
 2171SOL     OW 8729   0.015   1.175   3.908  0.1244  0.6094 -0.2093
 2171SOL    HW2 8730  -0.063   1.225   3.882 -0.0572  0.4580  0.0426
 2171SOL    HW3 8731   0.083   1.205   3.849 -0.3769 -0.0017 -1.1096
 2171SOL    MW4 8732   0.014   1.186   3.897  0.0348  0.5088 -0.2947
 2172SOL     OW 8733   0.246   1.291   3.787 -0.5273  0.5948 -0.0948
 2172SOL    HW2 8734   0.256   1.378   3.826  0.3588  0.8782 -0.9522
 2172SOL    HW3 8735   0.239   1.307   3.693  2.0534 -0.4265 -0.4889
 2172SOL    MW4 8736   0.246   1.305   3.780 -0.0699  0.4975 -0.2599
 2173SOL     OW 8737   0.211   1.554   3.893 -0.3411  0.4719 -0.2806
 2173SOL    HW2 8738   0.216   1.565   3.988 -1.1724  0.3563 -0.2250
 2173SOL    HW3 8739   0.119   1.566   3.872 -0.3031 -0.4139 -0.9630
 2173SOL    MW4 8740   0.200   1.557   3.903 -0.4458  0.3397 -0.3631
 2174SOL     OW 8741   4.464   1.668   3.786  0.4667  0.1715  0.2467
 2174SOL    HW2 8742   4.475   1.758   3.818 -1.2231  0.3723  0.2750
 2174SOL    HW3 8743   4.474   1.676   3.691 -0.6668  0.5483  0.1563
 2174SOL    MW4 8744   4.467   1.681   3.778  0.0944  0.2478  0.2384
 2175SOL     OW 8745   4.468   1.931   3.885 -0.4724 -0.2049  0.3614
 2175SOL    HW2 8746   4.481   1.939   3.979 -0.7526  0.6952  0.3300
 2175SOL    HW3 8747   4.393   1.987   3.866 -0.7771 -0.8274 -0.3114
 2175SOL    MW4 8748   4.460   1.940   3.895 -0.5493 -0.1682  0.2687
 2176SOL     OW 8749   0.202   2.091   3.788  0.3357  0.8044 -0.2942
 2176SOL    HW2 8750   0.201   2.178   3.829 -1.1358  0.3573  0.6368
 2176SOL    HW3 8751   0.116   2.054   3.808  1.2475 -1.2093  0.0274
 2176SOL    MW4 8752   0.191   2.098   3.796  0.2618  0.4795 -0.1287
 2177SOL     OW 8753   0.231   2.336   3.911  0.4602 -0.5174 -0.6899
 2177SOL    HW2 8754   0.229   2.346   4.006  1.9511  0.5314 -0.7435
 2177SOL    HW3 8755   0.144   2.362   3.881 -0.1371 -1.2163  0.4016
 2177SOL    MW4 8756   0.219   2.340   3.919  0.5781 -0.4714 -0.5531
 2178SOL     OW 8757   4.460   2.401   3.809  0.1874  0.0118 -0.3849
 2178SOL    HW2 8758   4.397   2.362   3.869 -0.5610  0.9192 -0.5732
 2178SOL    HW3 8759   4.464   2.493   3.835  1.1118  0.0521 -0.6534
 2178SOL    MW4 8760   4.452   2.408   3.821  0.2108  0.1369 -0.4454
 2179SOL     OW 8761   4.463   2.681   3.891 -0.6008  0.2651  0.6825
 2179SOL    HW2 8762   4.457   2.666   3.985 -2.1400  1.3288  0.7737
 2179SOL    HW3 8763   4.540   2.736   3.880  1.1834 -2.0600  1.0088
 2179SOL    MW4 8764   4.472   2.686   3.902 -0.5684  0.0985  0.7377
 2180SOL     OW 8765   0.180   2.836   3.792 -0.3888 -0.3028 -0.4268
 2180SOL    HW2 8766   0.264   2.797   3.816  0.4068  2.3861  1.3072
 2180SOL    HW3 8767   0.189   2.857   3.699  0.3558 -1.1883 -0.5727
 2180SOL    MW4 8768   0.192   2.834   3.783 -0.1856 -0.0646 -0.2172
 2181SOL     OW 8769   0.243   3.074   3.926 -0.2316 -0.5403 -0.9615
 2181SOL    HW2 8770   0.241   3.069   4.021  2.1445  0.2749 -0.8198
 2181SOL    HW3 8771   0.207   2.990   3.896 -1.9990 -0.3657  0.6128
 2181SOL    MW4 8772   0.238   3.062   3.934 -0.1513 -0.4098 -0.7350
 2182SOL     OW 8773   0.012   3.224   3.811 -0.4534 -0.1097 -0.4048
 2182SOL    HW2 8774   0.081   3.161   3.833 -1.0542 -0.3510  0.8313
 2182SOL    HW3 8775   0.007   3.222   3.716 -0.3326 -1.8136 -0.3943
 2182SOL    MW4 8776   0.020   3.215   3.801 -0.5167 -0.3664 -0.2401
 2183SOL     OW 8777   4.455   3.484   3.863 -0.0192 -0.1647 -0.1989
 2183SOL    HW2 8778   4.537   3.533   3.849  0.2254 -0.2603  0.8753
 2183SOL    HW3 8779   4.478   3.393   3.843  0.0964 -0.1651 -0.0658
 2183SOL    MW4 8780   4.469   3.478   3.859  0.0281 -0.1774 -0.0393
 2184SOL     OW 8781   0.208   3.623   3.838  0.1325 -0.3572  0.2861
 2184SOL    HW2 8782   0.287   3.575   3.863  0.9017  0.1294 -1.1393
 2184SOL    HW3 8783   0.236   3.714   3.832 -0.5131 -0.1945 -0.3292
 2184SOL    MW4 8784   0.222   3.629   3.840  0.1488 -0.2718  0.0169
 2185SOL     OW 8785   0.254   3.916   3.870  0.0235 -0.2338  0.0938
 2185SOL    HW2 8786   0.266   3.909   3.964 -2.0884  1.8438  0.5613
 2185SOL    HW3 8787   0.326   3.972   3.840 -1.3209  2.0502  1.0346
 2185SOL    MW4 8788   0.265   3.923   3.878 -0.4325  0.3419  0.2797
 2186SOL     OW 8789   0.016   4.034   3.788 -0.7119  0.4268 -0.2444
 2186SOL    HW2 8790  -0.059   3.981   3.813  0.0171 -0.3853  0.2318
 2186SOL    HW3 8791   0.091   3.988   3.825  0.0001  1.3417 -0.5473
 2186SOL    MW4 8792   0.016   4.021   3.796 -0.5217  0.4401 -0.2215
 2187SOL     OW 8793   0.027   4.301   3.921  0.0946  0.6905 -0.1719
 2187SOL    HW2 8794   0.095   4.342   3.868  0.5520  0.9081  0.5701
 2187SOL    HW3 8795   0.015   4.214   3.882 -0.0779  1.1095 -1.0519
 2187SOL    MW4 8796   0.035   4.295   3.909  0.1322  0.7744 -0.1900
 2188SOL     OW 8797   0.252   4.430   3.807 -0.0826 -0.0729 -0.5088
 2188SOL    HW2 8798   0.318   4.367   3.837 -0.4795 -0.6723 -0.8918
 2188SOL    HW3 8799   0.262   4.504   3.866  0.2726 -0.5662  0.0600
 2188SOL    MW4 8800   0.262   4.431   3.819 -0.0881 -0.2165 -0.4842
 2189SOL     OW 8801   0.716   0.007   3.852 -0.1971  0.1254  0.4748
 2189SOL    HW2 8802   0.705  -0.086   3.833  0.7082  0.1980 -0.4003
 2189SOL    HW3 8803   0.637   0.048   3.817 -0.9538 -0.3962  1.5278
 2189SOL    MW4 8804   0.704   0.000   3.845 -0.1774  0.0662  0.4983
 2190SOL     OW 8805   0.466   0.096   3.781 -0.0057  0.1160 -0.0331
 2190SOL    HW2 8806   0.446   0.183   3.817 -0.3501 -0.0297  0.1311
 2190SOL    HW3 8807   0.415   0.036   3.835  0.6469 -0.2378  0.1977
 2190SOL    MW4 8808   0.457   0.100   3.793  0.0349  0.0501  0.0188
 2191SOL     OW 8809   0.471   0.348   3.883  0.1697 -0.1123  0.1592
 2191SOL    HW2 8810   0.537   0.398   3.833  0.7026 -0.1184  0.8573
 2191SOL    HW3 8811   0.391   0.400   3.874  0.0555 -0.5330 -1.3985
 2191SOL    MW4 8812   0.469   0.362   3.875  0.2249 -0.1687  0.0458
 2192SOL     OW 8813   0.651   0.498   3.721  1.0209 -0.2788 -0.4224
 2192SOL    HW2 8814   0.732   0.465   3.761  0.9238  0.5565  0.4705
 2192SOL    HW3 8815   0.640   0.586   3.758 -0.8890 -0.8039  0.3300
 2192SOL    MW4 8816   0.661   0.505   3.731  0.7561 -0.2379 -0.2053
 2193SOL     OW 8817   0.650   0.745   3.814  0.0772  0.3950  0.1440
 2193SOL    HW2 8818   0.731   0.796   3.814  0.1594  0.2622  0.4617
 2193SOL    HW3 8819   0.581   0.809   3.794 -0.1537  1.1542  3.1495
 2193SOL    MW4 8820   0.651   0.761   3.811  0.0576  0.4776  0.5825
 2194SOL     OW 8821   0.431   0.902   3.780  0.1762  0.0571 -0.0913
 2194SOL    HW2 8822   0.441   0.990   3.817  0.1921  0.9006 -2.0336
 2194SOL    HW3 8823   0.359   0.863   3.829 -0.0419  1.2894  0.5661
 2194SOL    MW4 8824   0.423   0.908   3.791  0.1495  0.3309 -0.2608
 2195SOL     OW 8825   0.440   1.148   3.913 -0.2708  0.1097 -0.0496
 2195SOL    HW2 8826   0.510   1.202   3.876  0.4700 -1.0643 -0.3882
 2195SOL    HW3 8827   0.360   1.184   3.874  0.2596  0.6498 -0.6632
 2195SOL    MW4 8828   0.439   1.160   3.903 -0.1031  0.0260 -0.1752
 2196SOL     OW 8829   0.650   1.304   3.810  0.0129 -0.6275 -0.1615
 2196SOL    HW2 8830   0.726   1.256   3.845  1.4979  1.6483 -0.1288
 2196SOL    HW3 8831   0.660   1.297   3.715  1.2822  1.1420 -0.1814
 2196SOL    MW4 8832   0.662   1.297   3.802  0.3762 -0.0937 -0.1597
 2197SOL     OW 8833   0.673   1.568   3.893  0.1168 -0.3234  0.2283
 2197SOL    HW2 8834   0.750   1.599   3.846 -0.6347  0.4057 -0.5369
 2197SOL    HW3 8835   0.667   1.475   3.868 -0.0269 -0.0519 -0.7805
 2197SOL    MW4 8836   0.682   1.560   3.883 -0.0013 -0.1915 -0.0057
 2198SOL     OW 8837   0.437   1.692   3.788  0.2346 -0.0557  0.0230
 2198SOL    HW2 8838   0.520   1.664   3.828 -0.0580  1.6033  1.9219
 2198SOL    HW3 8839   0.370   1.642   3.834 -0.0915  1.7171  1.5492
 2198SOL    MW4 8840   0.439   1.682   3.799  0.1529  0.3971  0.4747
 2199SOL     OW 8841   0.410   1.944   3.896 -0.2591  0.4407  0.0309
 2199SOL    HW2 8842   0.404   1.855   3.862  0.3181  0.3962  0.0322
 2199SOL    HW3 8843   0.336   1.990   3.857  0.5965  0.4828 -1.5960
 2199SOL    MW4 8844   0.400   1.939   3.886 -0.0700  0.4404 -0.1833
 2200SOL     OW 8845   0.645   2.030   3.732  0.2469  0.6171 -0.3428
 2200SOL    HW2 8846   0.665   2.104   3.788 -1.3708  2.6055 -2.3113
 2200SOL    HW3 8847   0.561   1.997   3.764 -0.4786  1.4999 -1.3161
 2200SOL    MW4 8848   0.636   2.035   3.744 -0.0623  0.9961 -0.7312
 2201SOL     OW 8849   0.675   2.256   3.883  0.1120  0.0925  0.0502
 2201SOL    HW2 8850   0.600   2.311   3.860  0.4217  0.8311  0.7706
 2201SOL    HW3 8851   0.751   2.301   3.847  0.1688 -0.9425 -1.1603
 2201SOL    MW4 8852   0.675   2.269   3.875  0.1604  0.0532 -0.0145
 2202SOL     OW 8853   0.461   2.426   3.805  0.5165  0.2979 -0.1222
 2202SOL    HW2 8854   0.388   2.383   3.849  0.1398 -0.0165 -1.0261
 2202SOL    HW3 8855   0.437   2.424   3.712  1.9222 -0.2886 -0.4864
 2202SOL    MW4 8856   0.448   2.420   3.798  0.6523  0.1791 -0.2894
 2203SOL     OW 8857   0.404   2.693   3.869  0.0343 -0.0427  0.1716
 2203SOL    HW2 8858   0.482   2.742   3.844 -1.5286  1.5104 -1.8294
 2203SOL    HW3 8859   0.428   2.601   3.857  0.9806  0.4862 -2.1868
 2203SOL    MW4 8860   0.418   2.688   3.864 -0.0471  0.2317 -0.4036
 2204SOL     OW 8861   0.639   2.817   3.791  0.2825 -0.1761  0.0287
 2204SOL    HW2 8862   0.727   2.789   3.818 -0.5702 -1.4794  1.5378
 2204SOL    HW3 8863   0.646   2.829   3.696  1.8013 -1.4157 -0.0431
 2204SOL    MW4 8864   0.652   2.815   3.782  0.3704 -0.5116  0.2186
 2205SOL     OW 8865   0.683   3.071   3.889 -0.4758 -0.1711  0.0485
 2205SOL    HW2 8866   0.665   3.061   3.983 -1.0914  0.3819 -0.0128
 2205SOL    HW3 8867   0.676   2.982   3.854  0.8026 -0.5450  0.7090
 2205SOL    MW4 8868   0.680   3.058   3.897 -0.3883 -0.1476  0.1276
 2206SOL     OW 8869   0.465   3.228   3.825  0.1475  0.7081 -0.0554
 2206SOL    HW2 8870   0.540   3.179   3.858  0.1088  0.3950 -0.4304
 2206SOL    HW3 8871   0.389   3.171   3.843 -0.0760  1.2812  0.8699
 2206SOL    MW4 8872   0.465   3.214   3.832  0.1129  0.7424  0.0174
 2207SOL     OW 8873   0.454   3.502   3.876 -0.1420  0.2139  0.2588
 2207SOL    HW2 8874   0.529   3.544   3.833 -1.0282  1.0769 -0.4649
 2207SOL    HW3 8875   0.454   3.413   3.841 -0.2835  0.6250 -0.8137
 2207SOL    MW4 8876   0.464   3.496   3.866 -0.2776  0.3819  0.0219
 2208SOL     OW 8877   0.687   3.624   3.808 -0.1594 -0.4297 -0.0336
 2208SOL    HW2 8878   0.690   3.716   3.834 -0.0381 -0.6735  0.8224
 2208SOL    HW3 8879   0.694   3.626   3.713  0.1006  0.4381  0.0003
 2208SOL    MW4 8880   0.689   3.637   3.799 -0.1090 -0.3476  0.0839
 2209SOL     OW 8881   0.664   3.893   3.874  0.4887 -0.7151 -0.6481
 2209SOL    HW2 8882   0.650   3.893   3.969 -1.1117 -0.7669 -0.8755
 2209SOL    HW3 8883   0.742   3.948   3.862 -0.5911  1.1265  0.5155
 2209SOL    MW4 8884   0.673   3.900   3.885  0.1350 -0.4787 -0.5248
 2210SOL     OW 8885   0.465   4.064   3.791 -0.0953  0.6121  0.3307
 2210SOL    HW2 8886   0.528   3.997   3.818  0.5173  1.6518  1.5068
 2210SOL    HW3 8887   0.481   4.075   3.697 -0.7167 -1.4136 -0.0461
 2210SOL    MW4 8888   0.475   4.057   3.782 -0.0964  0.4821  0.4365
 2211SOL     OW 8889   0.461   4.314   3.923  0.2749 -0.2991 -0.4168
 2211SOL    HW2 8890   0.524   4.365   3.873 -1.1615 -0.7932 -2.7889
 2211SOL    HW3 8891   0.459   4.228   3.880 -1.6435 -0.4522 -0.1018
 2211SOL    MW4 8892   0.469   4.309   3.911 -0.1677 -0.3843 -0.6881
 2212SOL     OW 8893   0.678   4.422   3.782 -0.2492 -0.2746  0.0990
 2212SOL    HW2 8894   0.754   4.368   3.803 -0.7950 -0.9209  0.4054
 2212SOL    HW3 8895   0.670   4.416   3.687 -0.3655 -0.8008  0.1446
 2212SOL    MW4 8896   0.687   4.414   3.772 -0.3366 -0.4287  0.1454
 2213SOL     OW 8897   1.148   0.017   3.925 -0.5970  0.2602 -0.1760
 2213SOL    HW2 8898   1.224   0.060   3.887 -1.0537  1.5736  0.3694
 2213SOL    HW3 8899   1.144  -0.068   3.881 -0.1092  1.0588 -1.7872
 2213SOL    MW4 8900   1.157   0.011   3.914 -0.5928  0.5388 -0.3166
 2214SOL     OW 8901   0.939   0.144   3.766 -0.5955 -0.6437 -0.2114
 2214SOL    HW2 8902   1.000   0.112   3.832 -0.5351  1.0786  0.5914
 2214SOL    HW3 8903   0.859   0.093   3.779 -1.1285  0.7708  2.2579
 2214SOL    MW4 8904   0.936   0.133   3.776 -0.6579 -0.2299  0.2205
 2215SOL     OW 8905   0.890   0.407   3.845  0.4434  0.0586  0.0948
 2215SOL    HW2 8906   0.877   0.406   3.940 -0.5000 -1.9422 -0.0407
 2215SOL    HW3 8907   0.918   0.318   3.824  0.8535  0.5534 -1.4896
 2215SOL    MW4 8908   0.892   0.395   3.855  0.3731 -0.1401 -0.1323
 2216SOL     OW 8909   1.142   0.506   3.761  0.0262 -0.4487  0.2572
 2216SOL    HW2 8910   1.206   0.452   3.806  0.1978 -0.2188  0.2910
 2216SOL    HW3 8911   1.057   0.479   3.797  0.2163  0.2141  1.2233
 2216SOL    MW4 8912   1.139   0.495   3.771  0.0740 -0.3309  0.3891
 2217SOL     OW 8913   1.119   0.791   3.877  0.0355 -0.0016  0.1492
 2217SOL    HW2 8914   1.128   0.795   3.972  0.8532 -0.1873  0.0758
 2217SOL    HW3 8915   1.125   0.698   3.856  1.2560  0.1642 -0.2302
 2217SOL    MW4 8916   1.121   0.779   3.887  0.3045 -0.0042  0.0894
 2218SOL     OW 8917   0.879   0.906   3.804  0.3445 -0.2933 -0.4272
 2218SOL    HW2 8918   0.963   0.876   3.840 -0.3092 -0.8126  0.7036
 2218SOL    HW3 8919   0.894   0.912   3.710  1.6836 -0.2847 -0.2276
 2218SOL    MW4 8920   0.892   0.903   3.796  0.4349 -0.3607 -0.2515
 2219SOL     OW 8921   0.872   1.173   3.878 -0.3358 -0.4968 -0.2755
 2219SOL    HW2 8922   0.891   1.190   3.970  0.9200  0.1513 -0.6368
 2219SOL    HW3 8923   0.859   1.078   3.873 -1.2003 -0.4407  0.6952
 2219SOL    MW4 8924   0.873   1.163   3.889 -0.2841 -0.4040 -0.1950
 2220SOL     OW 8925   1.104   1.314   3.773  0.5382  0.2743  0.1376
 2220SOL    HW2 8926   1.109   1.397   3.822 -1.2241  0.6271 -0.2475
 2220SOL    HW3 8927   1.032   1.267   3.813  1.7516 -1.2404  0.5616
 2220SOL    MW4 8928   1.095   1.319   3.784  0.4659  0.1210  0.1426
 2221SOL     OW 8929   1.117   1.568   3.871 -0.3060 -0.4387 -0.1504
 2221SOL    HW2 8930   1.103   1.597   3.961 -0.1925  2.2501 -0.9721
 2221SOL    HW3 8931   1.206   1.594   3.850 -0.4871 -0.6444 -1.2130
 2221SOL    MW4 8932   1.127   1.575   3.880 -0.3148 -0.1109 -0.3991
 2222SOL     OW 8933   0.879   1.660   3.734  0.0095  0.0470  0.1101
 2222SOL    HW2 8934   0.967   1.627   3.752 -0.0066  1.1736  2.4707
 2222SOL    HW3 8935   0.875   1.668   3.639  1.2695 -3.2003 -0.2672
 2222SOL    MW4 8936   0.890   1.657   3.724  0.1736 -0.2328  0.3717
 2223SOL     OW 8937   0.882   1.943   3.850 -0.0489  0.4631 -1.0331
 2223SOL    HW2 8938   0.897   1.851   3.831 -0.4750  0.2739 -0.4980
 2223SOL    HW3 8939   0.799   1.964   3.805 -0.0292  0.5437 -1.0326
 2223SOL    MW4 8940   0.873   1.934   3.842 -0.1025  0.4487 -0.9623
 2224SOL     OW 8941   1.128   2.053   3.793  0.2800 -0.0261  0.0721
 2224SOL    HW2 8942   1.048   2.005   3.811  0.6529 -0.4212  0.6828
 2224SOL    HW3 8943   1.135   2.053   3.698 -0.2040 -0.3834  0.0355
 2224SOL    MW4 8944   1.119   2.047   3.783  0.2654 -0.1256  0.1478
 2225SOL     OW 8945   1.127   2.323   3.877 -0.0859 -0.1822  0.3115
 2225SOL    HW2 8946   1.210   2.361   3.848  0.6090 -1.3320  0.7655
 2225SOL    HW3 8947   1.132   2.231   3.852 -0.9346 -0.4226  0.9894
 2225SOL    MW4 8948   1.138   2.316   3.870 -0.1061 -0.3657  0.4609
 2226SOL     OW 8949   0.892   2.437   3.784 -0.0201  0.5874  0.2879
 2226SOL    HW2 8950   0.905   2.528   3.811  1.0597  0.3239  0.6506
 2226SOL    HW3 8951   0.973   2.392   3.808 -0.4032 -0.3979 -0.2205
 2226SOL    MW4 8952   0.904   2.443   3.791  0.0719  0.4225  0.2689
 2227SOL     OW 8953   0.874   2.702   3.894  0.4076 -0.3591 -0.4258
 2227SOL    HW2 8954   0.860   2.702   3.989 -1.1127  0.3168 -0.6411
 2227SOL    HW3 8955   0.955   2.751   3.881 -0.1758  0.8397  0.4100
 2227SOL    MW4 8956   0.883   2.708   3.905  0.1299 -0.1118 -0.3440
 2228SOL     OW 8957   1.094   2.818   3.772 -0.3660  0.1353  0.1565
 2228SOL    HW2 8958   1.171   2.777   3.811  0.1389  0.8836 -0.0530
 2228SOL    HW3 8959   1.093   2.906   3.808  0.0043  0.7828 -1.3988
 2228SOL    MW4 8960   1.104   2.824   3.782 -0.2505  0.3195 -0.0763
 2229SOL     OW 8961   1.113   3.081   3.910  0.3702 -0.3176  0.2381
 2229SOL    HW2 8962   1.189   3.125   3.872 -0.2702 -0.3010 -1.0437
 2229SOL    HW3 8963   1.037   3.130   3.878 -0.1936 -0.4433  1.3585
 2229SOL    MW4 8964   1.113   3.093   3.901  0.2112 -0.3321  0.2170
 2230SOL     OW 8965   0.907   3.241   3.804 -0.2951  0.0820 -0.0134
 2230SOL    HW2 8966   0.828   3.201   3.840 -0.9634  0.6262 -0.8814
 2230SOL    HW3 8967   0.905   3.220   3.711  0.8355 -0.3119  0.0452
 2230SOL    MW4 8968   0.897   3.233   3.797 -0.2340  0.1023 -0.1204
 2231SOL     OW 8969   0.914   3.492   3.899  0.6134  0.4103  0.1338
 2231SOL    HW2 8970   0.909   3.409   3.852  1.1024 -0.5872  1.8063
 2231SOL    HW3 8971   0.834   3.539   3.873 -0.6982 -1.4475  0.7626
 2231SOL    MW4 8972   0.902   3.488   3.889  0.5049  0.0339  0.4375
 2232SOL     OW 8973   1.137   3.613   3.807 -0.3585  0.4023 -0.6253
 2232SOL    HW2 8974   1.141   3.698   3.849  1.0240 -0.6443  1.4147
 2232SOL    HW3 8975   1.064   3.568   3.850  0.6912 -0.4591  0.2761
 2232SOL    MW4 8976   1.128   3.618   3.818 -0.0377  0.1504 -0.2372
 2233SOL     OW 8977   1.118   3.859   3.940 -0.6426 -0.4042 -0.4853
 2233SOL    HW2 8978   1.127   3.872   4.034 -0.9136 -1.4156 -0.3149
 2233SOL    HW3 8979   1.193   3.904   3.902 -0.9260  0.6363  0.1577
 2233SOL    MW4 8980   1.129   3.867   3.947 -0.7157 -0.4005 -0.3779
 2234SOL     OW 8981   0.939   4.019   3.811 -0.4680 -1.2976 -0.1073
 2234SOL    HW2 8982   1.005   3.971   3.861  1.0365  0.3330 -0.4550
 2234SOL    HW3 8983   0.951   3.990   3.721  0.8521  0.0836 -0.4170
 2234SOL    MW4 8984   0.949   4.009   3.806 -0.0953 -0.9007 -0.1941
 2235SOL     OW 8985   0.891   4.274   3.888 -0.3495 -0.1679 -0.0147
 2235SOL    HW2 8986   0.889   4.266   3.984 -0.8647 -0.6309 -0.0623
 2235SOL    HW3 8987   0.907   4.185   3.857 -1.0631 -0.1690 -0.3901
 2235SOL    MW4 8988   0.893   4.261   3.897 -0.5116 -0.2294 -0.0703
 2236SOL     OW 8989   1.127   4.428   3.810  0.1519  0.5040 -0.9491
 2236SOL    HW2 8990   1.049   4.380   3.837  1.5645 -0.9921  0.5705
 2236SOL    HW3 8991   1.133   4.413   3.716 -0.0265 -1.4268 -0.6766
 2236SOL    MW4 8992   1.117   4.420   3.801  0.3147  0.0525 -0.7126
 2237SOL     OW 8993   1.573   4.578   3.885 -0.0238 -0.1402 -0.1944
 2237SOL    HW2 8994   1.566   4.580   3.981  0.6617  0.8102 -0.1515
 2237SOL    HW3 8995   1.562   4.486   3.862 -1.7256 -0.1670  0.6761
 2237SOL    MW4 8996   1.571   4.566   3.895 -0.1578 -0.0181 -0.0741
 2238SOL     OW 8997   1.368   0.090   3.783  0.1097  0.0306  0.1246
 2238SOL    HW2 8998   1.376   0.183   3.804 -1.4244  0.3084 -0.4934
 2238SOL    HW3 8999   1.440   0.049   3.830  1.6545  1.7048 -0.7223
 2238SOL    MW4 9000   1.378   0.097   3.792  0.1111  0.2881 -0.0687
 2239SOL     OW 9001   1.342   0.344   3.867  0.1794  0.0867 -0.1268
 2239SOL    HW2 9002   1.327   0.341   3.961 -2.3597 -0.9700 -0.5326
 2239SOL    HW3 9003   1.419   0.400   3.856  0.6920 -0.0604  2.5820
 2239SOL    MW4 9004   1.350   0.351   3.878 -0.0880 -0.0721  0.1769
 2240SOL     OW 9005   1.560   0.508   3.789 -0.0620 -0.0955 -0.0307
 2240SOL    HW2 9006   1.643   0.468   3.817 -0.1501 -1.5084 -1.7182
 2240SOL    HW3 9007   1.574   0.602   3.797  1.7035 -0.3318 -0.2881
 2240SOL    MW4 9008   1.573   0.515   3.794  0.1595 -0.3130 -0.2873
 2241SOL     OW 9009   1.578   0.778   3.862 -0.2979  0.4424  0.4049
 2241SOL    HW2 9010   1.650   0.830   3.825  0.2682 -0.5766  0.0536
 2241SOL    HW3 9011   1.499   0.821   3.830  0.1750  0.3121 -0.9912
 2241SOL    MW4 9012   1.577   0.791   3.853 -0.1608  0.2908  0.1748
 2242SOL     OW 9013   1.354   0.911   3.784 -0.1348 -0.3896  0.0766
 2242SOL    HW2 9014   1.336   1.001   3.812  0.7864  0.2903 -1.4749
 2242SOL    HW3 9015   1.270   0.866   3.791 -0.7839  0.8141  0.0410
 2242SOL    MW4 9016   1.341   0.917   3.789 -0.0991 -0.1410 -0.1328
 2243SOL     OW 9017   1.308   1.184   3.881  0.1349  0.1881  0.0365
 2243SOL    HW2 9018   1.388   1.208   3.835  0.8885 -1.2536  0.5601
 2243SOL    HW3 9019   1.240   1.237   3.840  1.5505  2.4522  0.4947
 2243SOL    MW4 9020   1.309   1.194   3.870  0.4210  0.2966  0.1659
 2244SOL     OW 9021   1.540   1.308   3.770  0.4708 -0.1612 -0.2394
 2244SOL    HW2 9022   1.615   1.274   3.818  0.7845 -0.0204 -0.6272
 2244SOL    HW3 9023   1.513   1.386   3.819 -0.4419 -1.1331  0.8233
 2244SOL    MW4 9024   1.546   1.314   3.783  0.3917 -0.2708 -0.1502
 2245SOL     OW 9025   1.537   1.548   3.912  0.2381  0.1150  0.2963
 2245SOL    HW2 9026   1.537   1.553   4.007 -0.3582  0.6431  0.2665
 2245SOL    HW3 9027   1.622   1.584   3.886  0.0369  0.8025  0.5860
 2245SOL    MW4 9028   1.549   1.554   3.921  0.1328  0.2755  0.3304
 2246SOL     OW 9029   1.362   1.711   3.784  0.0090  0.1556  0.1302
 2246SOL    HW2 9030   1.381   1.799   3.818 -0.8448 -0.1142  1.3239
 2246SOL    HW3 9031   1.429   1.655   3.823 -0.0035  0.1154  0.0943
 2246SOL    MW4 9032   1.374   1.716   3.794 -0.1054  0.1147  0.2830
 2247SOL     OW 9033   1.374   1.967   3.916  0.2413  0.2868  0.3499
 2247SOL    HW2 9034   1.366   1.975   4.011  0.0289  1.1129  0.2595
 2247SOL    HW3 9035   1.289   1.992   3.882 -0.1469 -1.4083  0.0153
 2247SOL    MW4 9036   1.362   1.971   3.924  0.1619  0.1721  0.2940
 2248SOL     OW 9037   1.592   2.095   3.772  0.3772 -0.0575  0.4536
 2248SOL    HW2 9038   1.524   2.050   3.821 -0.8662  1.1363 -0.1655
 2248SOL    HW3 9039   1.571   2.079   3.680  1.3261 -0.2751  0.2683
 2248SOL    MW4 9040   1.581   2.087   3.767  0.3383  0.0713  0.3476
 2249SOL     OW 9041   1.588   2.354   3.856 -0.3937  0.1232 -0.0911
 2249SOL    HW2 9042   1.596   2.265   3.820  0.6815 -0.1916  0.8913
 2249SOL    HW3 9043   1.665   2.400   3.823 -0.8170  0.6166 -0.3848
 2249SOL    MW4 9044   1.599   2.348   3.847 -0.3078  0.1466 -0.0002
 2250SOL     OW 9045   1.357   2.456   3.770 -0.0304 -0.0240 -0.4207
 2250SOL    HW2 9046   1.441   2.425   3.804  0.4223  0.8096 -0.7715
 2250SOL    HW3 9047   1.354   2.425   3.680 -0.4185 -0.6524 -0.2000
 2250SOL    MW4 9048   1.367   2.448   3.763 -0.0219  0.0036 -0.4377
 2251SOL     OW 9049   1.341   2.712   3.870 -0.3758  0.2085 -0.2991
 2251SOL    HW2 9050   1.349   2.693   3.964 -0.9690  1.1723 -0.0495
 2251SOL    HW3 9051   1.337   2.625   3.829 -1.1312 -0.2299  0.6649
 2251SOL    MW4 9052   1.341   2.698   3.877 -0.5537  0.2780 -0.1390
 2252SOL     OW 9053   1.566   2.855   3.755 -0.2987  0.1214  0.3671
 2252SOL    HW2 9054   1.484   2.814   3.780  1.2229 -2.3583  1.5445
 2252SOL    HW3 9055   1.569   2.847   3.659 -1.3132  0.0411  0.3394
 2252SOL    MW4 9056   1.556   2.848   3.745 -0.2317 -0.2162  0.5188
 2253SOL     OW 9057   1.571   3.090   3.928 -0.0580 -0.1422  0.2470
 2253SOL    HW2 9058   1.567   3.072   4.022  0.5157 -2.4989 -0.1413
 2253SOL    HW3 9059   1.589   3.005   3.888 -0.3618  0.8162 -2.0116
 2253SOL    MW4 9060   1.573   3.076   3.935 -0.0224 -0.3269 -0.1023
 2254SOL     OW 9061   1.332   3.205   3.804  0.6536  0.1732 -0.1006
 2254SOL    HW2 9062   1.325   3.287   3.854  1.6951  0.5641 -0.5832
 2254SOL    HW3 9063   1.405   3.158   3.846 -0.0653 -0.5943  0.2960
 2254SOL    MW4 9064   1.341   3.209   3.816  0.6962  0.1233 -0.1121
 2255SOL     OW 9065   1.367   3.468   3.919 -0.4344 -0.2252 -0.3352
 2255SOL    HW2 9066   1.439   3.516   3.877 -0.0180 -0.7209 -0.1992
 2255SOL    HW3 9067   1.288   3.510   3.886 -0.0692  0.9571  0.2572
 2255SOL    MW4 9068   1.366   3.480   3.909 -0.3315 -0.1349 -0.2391
 2256SOL     OW 9069   1.571   3.624   3.817  0.3781  0.4733 -0.3703
 2256SOL    HW2 9070   1.651   3.592   3.859 -0.1065 -0.0165  0.1975
 2256SOL    HW3 9071   1.574   3.719   3.829 -0.2729  0.2556  1.7512
 2256SOL    MW4 9072   1.582   3.632   3.824  0.2283  0.3800 -0.0155
 2257SOL     OW 9073   1.573   3.911   3.847 -0.1101 -0.1615 -0.0834
 2257SOL    HW2 9074   1.559   3.901   3.941  0.3493  0.7752  0.0902
 2257SOL    HW3 9075   1.490   3.946   3.814 -0.0101  0.2415  0.0939
 2257SOL    MW4 9076   1.560   3.914   3.855 -0.0364  0.0150 -0.0370
 2258SOL     OW 9077   1.310   3.980   3.805  0.0559  0.0901  0.4433
 2258SOL    HW2 9078   1.296   4.069   3.837 -0.3721  0.1472  0.0929
 2258SOL    HW3 9079   1.287   3.984   3.712 -1.7187 -0.8224  0.8369
 2258SOL    MW4 9080   1.305   3.992   3.797 -0.2346 -0.0229  0.4492
 2259SOL     OW 9081   1.298   4.231   3.874 -0.2039  0.1347 -0.4279
 2259SOL    HW2 9082   1.230   4.292   3.847 -0.6711 -0.4738 -0.6273
 2259SOL    HW3 9083   1.380   4.276   3.853 -0.5577  0.1223 -1.8405
 2259SOL    MW4 9084   1.300   4.245   3.868 -0.3122  0.0525 -0.6406
 2260SOL     OW 9085   1.545   4.318   3.800  0.5112  0.2455 -0.1864
 2260SOL    HW2 9086   1.631   4.284   3.826  0.5284 -0.1384 -0.7454
 2260SOL    HW3 9087   1.551   4.326   3.705  0.3490  1.3668 -0.1111
 2260SOL    MW4 9088   1.557   4.315   3.791  0.4919  0.3424 -0.2501
 2261SOL     OW 9089   2.035   0.001   3.888 -0.1518 -0.3571  0.2962
 2261SOL    HW2 9090   2.119   0.032   3.854  0.7983 -1.3688  1.6602
 2261SOL    HW3 9091   2.025  -0.087   3.852  0.3104 -0.9904  1.7192
 2261SOL    MW4 9092   2.044  -0.006   3.879  0.0346 -0.5741  0.6638
 2262SOL     OW 9093   1.796   0.110   3.788 -0.1805 -0.1290 -0.4878
 2262SOL    HW2 9094   1.884   0.088   3.819  0.6191 -0.0442 -2.6142
 2262SOL    HW3 9095   1.745   0.031   3.803  0.1847 -0.0881  1.0150
 2262SOL    MW4 9096   1.801   0.097   3.794 -0.0267 -0.1124 -0.5698
 2263SOL     OW 9097   1.775   0.377   3.896  0.0689 -0.5514  0.5599
 2263SOL    HW2 9098   1.757   0.376   3.990 -0.8971 -0.9489  0.3728
 2263SOL    HW3 9099   1.773   0.284   3.871  1.3842 -0.5331  0.3449
 2263SOL    MW4 9100   1.773   0.364   3.905  0.1148 -0.6014  0.5066
 2264SOL     OW 9101   2.020   0.494   3.826  0.1024 -0.7704  0.2600
 2264SOL    HW2 9102   1.939   0.459   3.863 -0.5920 -1.0171 -1.4189
 2264SOL    HW3 9103   2.006   0.489   3.731  1.3985  0.8166 -0.0272
 2264SOL    MW4 9104   2.007   0.489   3.818  0.1817 -0.5936  0.0005
 2265SOL     OW 9105   1.998   0.761   3.906 -0.0618  0.3029  0.0444
 2265SOL    HW2 9106   1.999   0.768   4.001 -2.1720  1.0206  0.0337
 2265SOL    HW3 9107   2.005   0.667   3.889 -1.1980  0.0360  0.9662
 2265SOL    MW4 9108   1.999   0.749   3.916 -0.4902  0.3623  0.1643
 2266SOL     OW 9109   1.796   0.929   3.791  0.1209 -0.0598  0.2999
 2266SOL    HW2 9110   1.863   0.874   3.832 -0.7742 -0.9957  0.5062
 2266SOL    HW3 9111   1.815   0.924   3.697  0.3600 -0.2769  0.3588
 2266SOL    MW4 9112   1.808   0.921   3.784  0.0342 -0.2120  0.3347
 2267SOL     OW 9113   1.770   1.222   3.880 -0.1081  0.1334 -0.1087
 2267SOL    HW2 9114   1.775   1.217   3.976  2.5231  0.5111 -0.1700
 2267SOL    HW3 9115   1.767   1.131   3.851  0.9972 -0.0354  0.2838
 2267SOL    MW4 9116   1.770   1.210   3.889  0.3848  0.1609 -0.0651
 2268SOL     OW 9117   1.986   1.307   3.734 -0.2200  0.0294  0.1721
 2268SOL    HW2 9118   2.057   1.267   3.783 -0.5160 -1.3583 -0.5005
 2268SOL    HW3 9119   1.907   1.283   3.783 -0.2147  1.9475  1.1734
 2268SOL    MW4 9120   1.985   1.298   3.747 -0.2583  0.0993  0.2155
 2269SOL     OW 9121   2.009   1.536   3.872  0.0814 -0.3840 -0.1243
 2269SOL    HW2 9122   1.929   1.586   3.855  0.7233  0.3438 -1.0856
 2269SOL    HW3 9123   1.991   1.449   3.836 -0.1258 -0.0961 -0.7222
 2269SOL    MW4 9124   1.996   1.531   3.865  0.1388 -0.2500 -0.3302
 2270SOL     OW 9125   1.764   1.646   3.794 -0.1621  0.3244  0.1462
 2270SOL    HW2 9126   1.769   1.741   3.809 -1.9547  0.4759 -0.0759
 2270SOL    HW3 9127   1.770   1.637   3.699 -1.3476  0.3191  0.0712
 2270SOL    MW4 9128   1.766   1.657   3.783 -0.5552  0.3437  0.1070
 2271SOL     OW 9129   1.786   1.922   3.864 -0.6436 -0.5868 -0.0787
 2271SOL    HW2 9130   1.760   1.916   3.956 -1.7040 -0.1207 -0.3361
 2271SOL    HW3 9131   1.727   1.988   3.827 -0.1726 -0.7172 -1.0734
 2271SOL    MW4 9132   1.775   1.930   3.871 -0.7215 -0.5425 -0.2439
 2272SOL     OW 9133   2.002   2.062   3.771 -0.4379 -0.1637 -0.5898
 2272SOL    HW2 9134   1.927   2.016   3.808 -0.3173 -0.7109 -1.0133
 2272SOL    HW3 9135   2.003   2.037   3.679 -0.3415  0.6574 -0.8211
 2272SOL    MW4 9136   1.992   2.053   3.764 -0.4095 -0.1276 -0.6764
 2273SOL     OW 9137   2.030   2.316   3.898  0.3989 -0.0062 -0.2938
 2273SOL    HW2 9138   2.016   2.297   3.991 -2.0221 -0.3334 -0.7104
 2273SOL    HW3 9139   2.020   2.232   3.854 -0.6567  0.5299 -1.0889
 2273SOL    MW4 9140   2.027   2.302   3.905 -0.0598  0.0212 -0.4535
 2274SOL     OW 9141   1.818   2.449   3.745 -0.4732  0.2753 -0.1720
 2274SOL    HW2 9142   1.895   2.414   3.789 -1.8451 -0.8990  1.3906
 2274SOL    HW3 9143   1.800   2.532   3.789 -0.4954  0.2156 -0.0677
 2274SOL    MW4 9144   1.826   2.455   3.757 -0.6571  0.1123  0.0482
 2275SOL     OW 9145   1.774   2.699   3.859  0.6555  0.1988  0.2785
 2275SOL    HW2 9146   1.700   2.746   3.820  1.7624  1.7426 -0.0299
 2275SOL    HW3 9147   1.763   2.711   3.953  0.7741  0.8566  0.2144
 2275SOL    MW4 9148   1.763   2.707   3.866  0.8172  0.4890  0.2291
 2276SOL     OW 9149   2.002   2.868   3.845  0.1196 -0.1841 -0.0755
 2276SOL    HW2 9150   2.081   2.823   3.874  0.2438  0.1410  0.0934
 2276SOL    HW3 9151   1.932   2.802   3.853  0.5402 -0.7804 -1.1713
 2276SOL    MW4 9152   2.003   2.853   3.850  0.1917 -0.2201 -0.1979
 2277SOL     OW 9153   2.020   3.121   3.973  0.1360 -0.0426  0.4354
 2277SOL    HW2 9154   2.076   3.163   3.907 -1.4736  1.4474 -0.0047
 2277SOL    HW3 9155   2.015   3.029   3.945 -0.1543  0.4735 -1.2525
 2277SOL    MW4 9156   2.027   3.114   3.960 -0.1144  0.2220  0.1547
 2278SOL     OW 9157   1.786   3.224   3.840 -0.0206  0.0191 -0.2097
 2278SOL    HW2 9158   1.864   3.192   3.886 -0.2414  2.1754  1.7443
 2278SOL    HW3 9159   1.714   3.171   3.874  0.3536 -1.0061 -0.9705
 2278SOL    MW4 9160   1.787   3.213   3.850 -0.0004  0.1686 -0.0525
 2279SOL     OW 9161   1.797   3.495   3.943 -0.1817  0.3061 -0.2291
 2279SOL    HW2 9162   1.772   3.416   3.895  1.2833 -0.4349  0.1938
 2279SOL    HW3 9163   1.875   3.526   3.897  0.9590 -0.1437  1.3699
 2279SOL    MW4 9164   1.804   3.489   3.930  0.1621  0.1490  0.0377
 2280SOL     OW 9165   2.020   3.601   3.802 -0.0707  0.5066  0.1549
 2280SOL    HW2 9166   2.104   3.560   3.822 -0.6344 -1.1140 -0.7015
 2280SOL    HW3 9167   2.024   3.619   3.708 -1.2435 -0.9407 -0.1874
 2280SOL    MW4 9168   2.032   3.598   3.792 -0.2997  0.1018 -0.0031
 2281SOL     OW 9169   2.020   3.846   3.921  0.2035  0.3907 -0.1378
 2281SOL    HW2 9170   2.087   3.896   3.875 -0.0563  0.5626 -0.3337
 2281SOL    HW3 9171   2.020   3.761   3.877  0.3345  0.3693 -0.0974
 2281SOL    MW4 9172   2.029   3.841   3.909  0.1864  0.4103 -0.1585
 2282SOL     OW 9173   1.818   3.994   3.779  0.2664  0.3100 -0.4488
 2282SOL    HW2 9174   1.870   3.951   3.846  0.1588 -0.8430 -1.0880
 2282SOL    HW3 9175   1.728   3.968   3.798  0.2037  0.2161 -0.8654
 2282SOL    MW4 9176   1.813   3.985   3.790  0.2439  0.1454 -0.5879
 2283SOL     OW 9177   1.797   4.265   3.877 -0.3383  0.1184 -0.2153
 2283SOL    HW2 9178   1.871   4.320   3.850  1.1942 -0.8922  1.8209
 2283SOL    HW3 9179   1.806   4.186   3.824 -0.9576  0.6842 -1.1796
 2283SOL    MW4 9180   1.808   4.262   3.866 -0.2180  0.0596 -0.0737
 2284SOL     OW 9181   2.018   4.415   3.764 -0.4406 -0.9918 -0.1156
 2284SOL    HW2 9182   2.099   4.372   3.792  1.1006  1.0136 -1.2896
 2284SOL    HW3 9183   2.023   4.414   3.668 -1.0996  0.3892 -0.1794
 2284SOL    MW4 9184   2.029   4.410   3.755 -0.3242 -0.5445 -0.2787
 2285SOL     OW 9185   2.511   4.625   3.891  0.0070  0.7540  0.0876
 2285SOL    HW2 9186   2.502   4.623   3.986  0.5766  1.7303  0.1598
 2285SOL    HW3 9187   2.557   4.706   3.872  1.1763 -0.1101 -0.9139
 2285SOL    MW4 9188   2.516   4.635   3.901  0.2365  0.7687 -0.0350
 2286SOL     OW 9189   2.280   0.100   3.809 -0.0927 -0.2994  0.1700
 2286SOL    HW2 9190   2.353   0.045   3.838  0.6580  0.9967  0.7923
 2286SOL    HW3 9191   2.280   0.091   3.713  0.4599 -0.8413  0.2161
 2286SOL    MW4 9192   2.290   0.091   3.800  0.0792 -0.1999  0.2582
 2287SOL     OW 9193   2.286   0.370   3.886  0.0821  0.0128 -0.3140
 2287SOL    HW2 9194   2.270   0.280   3.858  0.3684  0.2635 -1.2968
 2287SOL    HW3 9195   2.209   0.418   3.858 -0.2157  0.0219  0.4976
 2287SOL    MW4 9196   2.274   0.364   3.879  0.0803  0.0471 -0.3366
 2288SOL     OW 9197   2.469   0.553   3.775 -0.0740  0.0088  0.3755
 2288SOL    HW2 9198   2.399   0.500   3.812 -0.2544  0.4198  0.6277
 2288SOL    HW3 9199   2.464   0.537   3.680 -1.2531  0.9207  0.2681
 2288SOL    MW4 9200   2.459   0.544   3.767 -0.2532  0.1834  0.3946
 2289SOL     OW 9201   2.436   0.781   3.918 -0.2324  0.6742  0.1660
 2289SOL    HW2 9202   2.382   0.825   3.853 -1.3045 -0.1167  0.5204
 2289SOL    HW3 9203   2.461   0.698   3.876  2.0068  1.6965 -0.6087
 2289SOL    MW4 9204   2.432   0.776   3.904 -0.0784  0.7048  0.1104
 2290SOL     OW 9205   2.207   0.909   3.781 -0.4940  0.0553  0.3282
 2290SOL    HW2 9206   2.132   0.864   3.820  0.8315 -2.6507 -0.0509
 2290SOL    HW3 9207   2.198   0.893   3.687  0.2154  0.2353  0.2272
 2290SOL    MW4 9208   2.196   0.901   3.774 -0.2255 -0.2779  0.2649
 2291SOL     OW 9209   2.172   1.178   3.885 -0.2016 -0.5275 -0.1120
 2291SOL    HW2 9210   2.156   1.187   3.979  0.5013 -1.2352  0.0797
 2291SOL    HW3 9211   2.182   1.084   3.871  0.1326 -0.3909 -0.8264
 2291SOL    MW4 9212   2.171   1.167   3.895 -0.0646 -0.6030 -0.1810
 2292SOL     OW 9213   2.436   1.284   3.772 -0.0829  0.0429 -0.0977
 2292SOL    HW2 9214   2.463   1.375   3.779 -3.1767  1.1414 -1.6411
 2292SOL    HW3 9215   2.358   1.277   3.827  0.4929 -1.8507  0.5351
 2292SOL    MW4 9216   2.429   1.295   3.780 -0.4151 -0.0619 -0.2174
 2293SOL     OW 9217   2.479   1.540   3.810 -0.1688 -0.0896 -0.0191
 2293SOL    HW2 9218   2.548   1.605   3.797 -0.4787  0.1637 -0.4283
 2293SOL    HW3 9219   2.398   1.589   3.796 -0.4235 -0.4377  0.2224
 2293SOL    MW4 9220   2.477   1.555   3.806 -0.2432 -0.1022 -0.0412
 2294SOL     OW 9221   2.235   1.659   3.770 -0.6494 -0.0988  0.2101
 2294SOL    HW2 9222   2.230   1.749   3.802 -1.3716 -0.2128  0.4284
 2294SOL    HW3 9223   2.169   1.612   3.821 -0.2464 -0.7599  0.1228
 2294SOL    MW4 9224   2.226   1.665   3.781 -0.6914 -0.2010  0.2272
 2295SOL     OW 9225   2.194   1.912   3.888 -0.3435  0.2121  0.7245
 2295SOL    HW2 9226   2.204   1.943   3.978 -0.4961  0.9518  0.4924
 2295SOL    HW3 9227   2.128   1.971   3.850 -0.5388 -0.3203  0.2368
 2295SOL    MW4 9228   2.186   1.924   3.895 -0.3893  0.2393  0.6294
 2296SOL     OW 9229   2.425   2.067   3.799  0.1435  0.3433 -0.0879
 2296SOL    HW2 9230   2.441   2.142   3.855 -0.2377  0.8301 -0.6220
 2296SOL    HW3 9231   2.342   2.030   3.831 -0.9980  1.6629 -1.4225
 2296SOL    MW4 9232   2.416   2.072   3.810 -0.0575  0.5817 -0.3343
 2297SOL     OW 9233   2.459   2.294   3.965 -0.4284  0.2721  0.6036
 2297SOL    HW2 9234   2.535   2.326   3.917 -0.8670  0.5691  0.1023
 2297SOL    HW3 9235   2.387   2.350   3.936 -0.6104  0.7635  1.9639
 2297SOL    MW4 9236   2.459   2.306   3.955 -0.5100  0.3762  0.7169
 2298SOL     OW 9237   2.265   2.434   3.827 -0.3938 -0.6286 -0.0051
 2298SOL    HW2 9238   2.177   2.406   3.854 -1.0181  1.7689  0.5050
 2298SOL    HW3 9239   2.260   2.437   3.731 -0.5328 -1.4854 -0.0358
 2298SOL    MW4 9240   2.253   2.430   3.818 -0.4945 -0.4253  0.0579
 2299SOL     OW 9241   2.214   2.691   3.902  0.2002  0.2224 -0.1896
 2299SOL    HW2 9242   2.224   2.689   3.997 -1.7609 -1.6304  0.0133
 2299SOL    HW3 9243   2.249   2.607   3.872 -2.1063 -0.6052 -0.7368
 2299SOL    MW4 9244   2.220   2.680   3.910 -0.3631 -0.1314 -0.2351
 2300SOL     OW 9245   2.422   2.851   3.796  0.2724 -0.0508  0.5495
 2300SOL    HW2 9246   2.343   2.804   3.821  1.4307 -2.1237  0.4231
 2300SOL    HW3 9247   2.420   2.853   3.700 -1.3577  2.9859  0.5994
 2300SOL    MW4 9248   2.412   2.845   3.787  0.2100  0.0763  0.5395
 2301SOL     OW 9249   2.455   3.132   3.859 -0.1213 -0.3275  0.4391
 2301SOL    HW2 9250   2.458   3.139   3.954 -1.2951  0.0241  0.4505
 2301SOL    HW3 9251   2.468   3.039   3.842 -2.4420 -0.8018  1.0674
 2301SOL    MW4 9252   2.457   3.121   3.869 -0.5822 -0.3438  0.5236
 2302SOL     OW 9253   2.205   3.223   3.779  0.0276  0.3024 -0.1829
 2302SOL    HW2 9254   2.224   3.310   3.813  0.4000  0.3688 -0.5542
 2302SOL    HW3 9255   2.278   3.169   3.809 -0.2987  0.0798  0.2015
 2302SOL    MW4 9256   2.217   3.228   3.787  0.0336  0.2818 -0.1810
 2303SOL     OW 9257   2.264   3.470   3.880  0.2272 -0.4782  0.4185
 2303SOL    HW2 9258   2.288   3.478   3.973  1.0294 -1.7797  0.3269
 2303SOL    HW3 9259   2.340   3.502   3.833 -0.0745 -0.0871  0.1887
 2303SOL    MW4 9260   2.277   3.475   3.886  0.2933 -0.5982  0.3762
 2304SOL     OW 9261   2.466   3.617   3.749 -0.0828  0.2239 -0.1277
 2304SOL    HW2 9262   2.539   3.565   3.781  0.1816  0.7246  0.0915
 2304SOL    HW3 9263   2.475   3.616   3.653  0.7916  1.1021 -0.0690
 2304SOL    MW4 9264   2.477   3.610   3.740  0.0675  0.4058 -0.0911
 2305SOL     OW 9265   2.443   3.867   3.866  0.5499 -0.6164  0.5915
 2305SOL    HW2 9266   2.506   3.917   3.814 -0.6865 -0.0405 -0.3771
 2305SOL    HW3 9267   2.438   3.782   3.824 -1.8013  0.4400 -1.3720
 2305SOL    MW4 9268   2.451   3.863   3.854  0.0765 -0.4010  0.2046
 2306SOL     OW 9269   2.205   4.001   3.801 -0.1547 -0.3669 -0.7872
 2306SOL    HW2 9270   2.282   3.968   3.847 -0.2041  0.5899  0.0242
 2306SOL    HW3 9271   2.222   3.984   3.709  1.1281  0.0288 -0.6320
 2306SOL    MW4 9272   2.218   3.995   3.795  0.0081 -0.1886 -0.6597
 2307SOL     OW 9273   2.253   4.267   3.860 -0.4294  0.0676 -0.0482
 2307SOL    HW2 9274   2.220   4.263   3.950 -0.7791  0.3853 -0.1590
 2307SOL    HW3 9275   2.226   4.184   3.821  0.2503 -0.3230  0.3184
 2307SOL    MW4 9276   2.245   4.256   3.866 -0.3858  0.0577 -0.0145
 2308SOL     OW 9277   2.469   4.386   3.733  0.1395 -0.2802  0.0380
 2308SOL    HW2 9278   2.395   4.347   3.780 -0.6561  1.6517  0.4173
 2308SOL    HW3 9279   2.493   4.463   3.784  2.8336 -1.2078  0.2465
 2308SOL    MW4 9280   2.462   4.391   3.746  0.3901 -0.1478  0.1154
 2309SOL     OW 9281   2.922   0.034   3.868 -0.1081  0.0927 -0.0752
 2309SOL    HW2 9282   2.916   0.014   3.962 -0.3750  2.3277  0.3940
 2309SOL    HW3 9283   3.004   0.080   3.858 -0.1648  0.0125 -0.9310
 2309SOL    MW4 9284   2.932   0.037   3.879 -0.1507  0.3770 -0.1264
 2310SOL     OW 9285   2.682   0.157   3.816 -0.1212  0.4055 -0.1115
 2310SOL    HW2 9286   2.759   0.102   3.830  0.0741  0.3693 -1.3240
 2310SOL    HW3 9287   2.680   0.172   3.722 -0.8086  1.5591  0.0849
 2310SOL    MW4 9288   2.692   0.152   3.806 -0.1862  0.5530 -0.2453
 2311SOL     OW 9289   2.678   0.411   3.884 -0.1088  0.0236 -0.6290
 2311SOL    HW2 9290   2.676   0.318   3.862  0.5469 -0.3857  0.9611
 2311SOL    HW3 9291   2.597   0.446   3.848  0.1336 -0.9306 -2.1850
 2311SOL    MW4 9292   2.667   0.403   3.876  0.0095 -0.1563 -0.6244
 2312SOL     OW 9293   2.904   0.567   3.828  0.2040  0.4701 -0.1768
 2312SOL    HW2 9294   2.961   0.502   3.869 -0.1401 -0.5571 -1.2995
 2312SOL    HW3 9295   2.815   0.532   3.840  0.0276  0.6735 -0.8996
 2312SOL    MW4 9296   2.900   0.554   3.835  0.1349  0.3614 -0.4201
 2313SOL     OW 9297   2.903   0.834   3.917  0.5378 -0.2237  0.4067
 2313SOL    HW2 9298   2.891   0.826   4.012 -0.1062  0.3856  0.3816
 2313SOL    HW3 9299   2.906   0.743   3.886 -0.8656 -0.4202  0.8153
 2313SOL    MW4 9300   2.902   0.821   3.926  0.2677 -0.1693  0.4573
 2314SOL     OW 9301   2.667   0.906   3.784 -0.2587 -0.4718  0.0990
 2314SOL    HW2 9302   2.753   0.887   3.823 -0.0136  0.3899 -0.0164
 2314SOL    HW3 9303   2.605   0.881   3.853  0.1885  1.4207  1.2343
 2314SOL    MW4 9304   2.670   0.900   3.798 -0.1674 -0.1084  0.2341
 2315SOL     OW 9305   2.679   1.180   3.857 -0.2591  0.3575  0.2027
 2315SOL    HW2 9306   2.669   1.092   3.821  0.3618  0.0254  0.8340
 2315SOL    HW3 9307   2.595   1.222   3.840 -0.7023 -0.4873  0.2667
 2315SOL    MW4 9308   2.667   1.174   3.850 -0.2356  0.2021  0.2944
 2316SOL     OW 9309   2.911   1.299   3.740  0.3086 -0.0829 -0.1751
 2316SOL    HW2 9310   2.905   1.380   3.790  0.1761 -0.4973  0.4942
 2316SOL    HW3 9311   2.831   1.252   3.762 -0.7953  0.6754 -2.4841
 2316SOL    MW4 9312   2.900   1.303   3.750  0.1454 -0.0376 -0.3915
 2317SOL     OW 9313   2.890   1.548   3.891 -0.4799  0.0956 -0.0345
 2317SOL    HW2 9314   2.892   1.562   3.985 -1.5703  0.8740 -0.1278
 2317SOL    HW3 9315   2.968   1.593   3.858  0.1032 -0.4824  0.5146
 2317SOL    MW4 9316   2.901   1.556   3.899 -0.5472  0.1221  0.0257
 2318SOL     OW 9317   2.698   1.712   3.783  0.0584 -0.5164 -0.3604
 2318SOL    HW2 9318   2.763   1.649   3.813  0.6790 -0.2023 -1.0363
 2318SOL    HW3 9319   2.705   1.710   3.688  0.1863  0.6901 -0.3749
 2318SOL    MW4 9320   2.707   1.703   3.775  0.1571 -0.3158 -0.4513
 2319SOL     OW 9321   2.645   1.933   3.929 -0.1452  0.0544 -0.0488
 2319SOL    HW2 9322   2.664   1.850   3.887  0.1048  1.1487 -2.1550
 2319SOL    HW3 9323   2.568   1.967   3.883  0.1521  1.3058  0.3431
 2319SOL    MW4 9324   2.637   1.927   3.918 -0.0730  0.3638 -0.2754
 2320SOL     OW 9325   2.846   2.040   3.782 -0.0052  0.3604 -0.0637
 2320SOL    HW2 9326   2.847   2.127   3.824 -0.8110  0.1664  0.3696
 2320SOL    HW3 9327   2.778   1.992   3.829 -0.9218  0.1287 -1.6041
 2320SOL    MW4 9328   2.837   2.045   3.794 -0.2327  0.3040 -0.2096
 2321SOL     OW 9329   2.904   2.298   3.897 -0.1484  0.4230 -0.2525
 2321SOL    HW2 9330   2.909   2.294   3.993 -1.1287 -0.1034 -0.2102
 2321SOL    HW3 9331   2.970   2.362   3.872  1.3266 -0.6899  0.6600
 2321SOL    MW4 9332   2.913   2.306   3.906 -0.0832  0.2067 -0.1266
 2322SOL     OW 9333   2.653   2.417   3.823  0.2202 -0.0156  0.1851
 2322SOL    HW2 9334   2.660   2.511   3.840 -1.4798 -0.1991  2.1270
 2322SOL    HW3 9335   2.739   2.382   3.845  0.6225  0.9663  0.2190
 2322SOL    MW4 9336   2.665   2.425   3.828  0.0491  0.0896  0.4458
 2323SOL     OW 9337   2.642   2.710   3.856 -0.3201 -0.1818  0.3068
 2323SOL    HW2 9338   2.648   2.700   3.951  0.2951 -0.3515  0.2517
 2323SOL    HW3 9339   2.558   2.753   3.842 -0.1180  0.4416  0.9686
 2323SOL    MW4 9340   2.631   2.714   3.867 -0.2122 -0.1221  0.3867
 2324SOL     OW 9341   2.873   2.820   3.762 -0.0778 -0.1964 -0.2599
 2324SOL    HW2 9342   2.879   2.909   3.797 -0.1890  0.0364 -0.8275
 2324SOL    HW3 9343   2.794   2.784   3.803  0.0855 -0.1119  0.1363
 2324SOL    MW4 9344   2.863   2.827   3.772 -0.0708 -0.1545 -0.2828
 2325SOL     OW 9345   2.898   3.083   3.862  0.4112  0.4051  0.0232
 2325SOL    HW2 9346   2.975   3.136   3.843 -0.5350  2.4821  1.8269
 2325SOL    HW3 9347   2.825   3.129   3.819 -0.3509  0.3573  1.2377
 2325SOL    MW4 9348   2.898   3.096   3.854  0.1860  0.6726  0.4218
 2326SOL     OW 9349   2.708   3.226   3.746  0.1985 -0.1339  0.1776
 2326SOL    HW2 9350   2.705   3.315   3.783  0.3678 -0.1999  0.3465
 2326SOL    HW3 9351   2.626   3.186   3.775  0.2420 -0.1208  0.3156
 2326SOL    MW4 9352   2.696   3.233   3.755  0.2267 -0.1411  0.2182
 2327SOL     OW 9353   2.713   3.511   3.851 -0.1435  0.0181  0.0680
 2327SOL    HW2 9354   2.722   3.500   3.945  0.3880  0.3864  0.0657
 2327SOL    HW3 9355   2.794   3.555   3.824 -0.1319 -0.4116 -0.6137
 2327SOL    MW4 9356   2.724   3.516   3.860 -0.0720  0.0100 -0.0222
 2328SOL     OW 9357   2.943   3.642   3.775  0.0603 -0.0930 -0.3972
 2328SOL    HW2 9358   3.009   3.586   3.816 -0.3901  0.1970  0.7312
 2328SOL    HW3 9359   2.952   3.625   3.681  0.8920 -0.9865 -0.1588
 2328SOL    MW4 9360   2.953   3.633   3.768  0.1106 -0.1726 -0.2172
 2329SOL     OW 9361   2.877   3.887   3.864 -0.6093  0.0892 -0.2614
 2329SOL    HW2 9362   2.891   3.891   3.959 -1.0516  0.2662 -0.2048
 2329SOL    HW3 9363   2.895   3.796   3.841  0.1516  0.1939 -0.1099
 2329SOL    MW4 9364   2.882   3.876   3.874 -0.5672  0.1264 -0.2341
 2330SOL     OW 9365   2.656   4.009   3.748  0.2062  0.3097 -0.1592
 2330SOL    HW2 9366   2.654   4.098   3.783 -0.5090 -0.2348  1.2620
 2330SOL    HW3 9367   2.726   3.966   3.797 -0.5850 -0.3755  0.3869
 2330SOL    MW4 9368   2.665   4.015   3.759  0.0076  0.1473  0.1004
 2331SOL     OW 9369   2.679   4.268   3.851 -0.2150  0.0558 -0.0633
 2331SOL    HW2 9370   2.754   4.325   3.835 -0.1307 -0.3166 -1.0713
 2331SOL    HW3 9371   2.610   4.304   3.796  0.0767 -1.2710 -1.3454
 2331SOL    MW4 9372   2.680   4.280   3.841 -0.1652 -0.1683 -0.3653
 2332SOL     OW 9373   2.901   4.419   3.755 -0.3762 -0.0725 -0.1952
 2332SOL    HW2 9374   2.983   4.380   3.786 -0.3117 -0.0214 -0.2990
 2332SOL    HW3 9375   2.911   4.512   3.776 -0.7258 -0.1876  0.4726
 2332SOL    MW4 9376   2.913   4.426   3.762 -0.4137 -0.0815 -0.1206
 2333SOL     OW 9377   3.347   4.623   3.917 -0.0866 -0.2603 -0.2226
 2333SOL    HW2 9378   3.351   4.625   4.012 -0.8658  0.6135 -0.2001
 2333SOL    HW3 9379   3.433   4.654   3.888 -0.6637  1.7759  0.2038
 2333SOL    MW4 9380   3.359   4.627   3.926 -0.2654  0.1235 -0.1638
 2334SOL     OW 9381   3.174   0.139   3.830 -0.3602 -0.1019 -0.1021
 2334SOL    HW2 9382   3.222   0.064   3.867 -0.4182 -0.7386 -1.2732
 2334SOL    HW3 9383   3.184   0.128   3.735  0.0037  1.6353 -0.2727
 2334SOL    MW4 9384   3.182   0.127   3.822 -0.3200  0.0433 -0.2789
 2335SOL     OW 9385   3.109   0.397   3.905  0.2423 -0.0513 -0.1209
 2335SOL    HW2 9386   3.145   0.383   3.992  2.0679  0.6754 -0.7331
 2335SOL    HW3 9387   3.118   0.312   3.861 -1.3899 -0.6335  0.6157
 2335SOL    MW4 9388   3.115   0.384   3.911  0.2680 -0.0322 -0.1044
 2336SOL     OW 9389   3.346   0.467   3.797 -0.2685 -0.1711 -0.0523
 2336SOL    HW2 9390   3.420   0.413   3.827  0.7537  1.7034  0.8935
 2336SOL    HW3 9391   3.271   0.432   3.845  0.5306 -0.2461  1.1757
 2336SOL    MW4 9392   3.346   0.455   3.808 -0.0281  0.0663  0.2344
 2337SOL     OW 9393   3.380   0.744   3.894 -0.2944 -0.2870  0.2644
 2337SOL    HW2 9394   3.375   0.754   3.989 -2.2372 -0.5898  0.2158
 2337SOL    HW3 9395   3.374   0.650   3.879  3.7159 -0.6138 -0.0246
 2337SOL    MW4 9396   3.379   0.733   3.904 -0.0217 -0.3700  0.2198
 2338SOL     OW 9397   3.173   0.912   3.821 -0.0385  0.0227 -0.0982
 2338SOL    HW2 9398   3.249   0.860   3.846  0.3499  0.0002 -1.2902
 2338SOL    HW3 9399   3.100   0.871   3.868  0.9104  1.0379  2.2906
 2338SOL    MW4 9400   3.173   0.899   3.830  0.1378  0.1537  0.0594
 2339SOL     OW 9401   3.123   1.173   3.903  0.1015  0.1445 -0.5235
 2339SOL    HW2 9402   3.140   1.085   3.870 -0.8263 -0.4447  0.5563
 2339SOL    HW3 9403   3.071   1.215   3.834 -0.3156 -0.4848 -0.5935
 2339SOL    MW4 9404   3.118   1.167   3.889 -0.0761 -0.0162 -0.3901
 2340SOL     OW 9405   3.351   1.318   3.809  0.2476 -0.2211 -0.2998
 2340SOL    HW2 9406   3.276   1.267   3.842 -0.0303  0.1075 -0.4203
 2340SOL    HW3 9407   3.354   1.298   3.716 -1.9587  2.5778 -1.0491
 2340SOL    MW4 9408   3.341   1.308   3.801 -0.0799  0.1916 -0.4148
 2341SOL     OW 9409   3.356   1.579   3.878  0.2123 -0.5835  0.3558
 2341SOL    HW2 9410   3.269   1.612   3.855  0.7821 -0.0731 -1.1536
 2341SOL    HW3 9411   3.357   1.489   3.844  0.4064 -0.4537  0.0123
 2341SOL    MW4 9412   3.344   1.571   3.870  0.3128 -0.4989  0.1116
 2342SOL     OW 9413   3.115   1.678   3.799 -0.0214  0.2109 -0.1538
 2342SOL    HW2 9414   3.125   1.772   3.811 -0.8340  0.2229  0.4175
 2342SOL    HW3 9415   3.118   1.666   3.704 -1.1808  0.9653 -0.2952
 2342SOL    MW4 9416   3.117   1.689   3.788 -0.2816  0.3120 -0.0970
 2343SOL     OW 9417   3.105   1.970   3.857  0.2721  0.0640 -0.1152
 2343SOL    HW2 9418   3.103   1.955   3.951 -0.0853 -1.6477 -0.3785
 2343SOL    HW3 9419   3.016   1.997   3.835  0.4222  0.7244  0.0667
 2343SOL    MW4 9420   3.093   1.972   3.866  0.2446 -0.0746 -0.1259
 2344SOL     OW 9421   3.338   2.094   3.756  0.3364 -0.1517 -0.6123
 2344SOL    HW2 9422   3.249   2.067   3.780 -0.0994 -0.2377 -2.2799
 2344SOL    HW3 9423   3.335   2.106   3.661  1.3195  2.7589 -0.3478
 2344SOL    MW4 9424   3.326   2.092   3.747  0.4089  0.2208 -0.7975
 2345SOL     OW 9425   3.360   2.350   3.883 -0.2903  0.5764 -0.0764
 2345SOL    HW2 9426   3.277   2.396   3.870 -0.8861 -0.5081 -0.2133
 2345SOL    HW3 9427   3.346   2.264   3.843  1.6120  1.0957 -1.9362
 2345SOL    MW4 9428   3.347   2.344   3.876 -0.1178  0.5021 -0.3400
 2346SOL     OW 9429   3.105   2.461   3.796 -0.0504  0.8655 -0.1658
 2346SOL    HW2 9430   3.104   2.553   3.823  2.1656  0.9017 -0.0927
 2346SOL    HW3 9431   3.119   2.464   3.702 -0.6590  0.6084 -0.2634
 2346SOL    MW4 9432   3.107   2.474   3.787  0.1616  0.8364 -0.1693
 2347SOL     OW 9433   3.113   2.719   3.868  0.0436  0.2774  0.4072
 2347SOL    HW2 9434   3.074   2.715   3.955  0.1792  0.2866  0.4682
 2347SOL    HW3 9435   3.045   2.757   3.813  0.5228  1.7710  0.8286
 2347SOL    MW4 9436   3.099   2.723   3.872  0.1249  0.4756  0.4709
 2348SOL     OW 9437   3.363   2.832   3.798  0.0456 -0.0780  0.2360
 2348SOL    HW2 9438   3.288   2.789   3.837 -0.7981  2.4069  1.4954
 2348SOL    HW3 9439   3.340   2.844   3.706 -1.1854  0.7771  0.6469
 2348SOL    MW4 9440   3.350   2.828   3.791 -0.2277  0.3626  0.4563
 2349SOL     OW 9441   3.309   3.092   3.907 -0.4248  0.6272 -0.0559
 2349SOL    HW2 9442   3.400   3.122   3.897 -0.4806  1.0946  0.8434
 2349SOL    HW3 9443   3.310   3.002   3.874  0.6035  0.2582  0.9463
 2349SOL    MW4 9444   3.321   3.084   3.901 -0.2964  0.6402  0.1948
 2350SOL     OW 9445   3.102   3.246   3.782 -0.0872  0.0446 -0.5458
 2350SOL    HW2 9446   3.167   3.187   3.820  0.3186  0.7640 -0.1176
 2350SOL    HW3 9447   3.116   3.239   3.687 -1.4188 -2.1068 -0.6066
 2350SOL    MW4 9448   3.112   3.237   3.774 -0.2096 -0.1445 -0.4976
 2351SOL     OW 9449   3.131   3.497   3.864 -0.5997 -0.0880  0.2670
 2351SOL    HW2 9450   3.213   3.540   3.839 -0.6838  0.9597  1.6646
 2351SOL    HW3 9451   3.130   3.416   3.814  1.9679 -0.7874  1.2328
 2351SOL    MW4 9452   3.142   3.492   3.854 -0.2718 -0.0422  0.5786
 2352SOL     OW 9453   3.369   3.642   3.816 -0.0922  0.0968 -0.1443
 2352SOL    HW2 9454   3.376   3.733   3.843 -0.2466  0.0553  0.0319
 2352SOL    HW3 9455   3.400   3.642   3.725  2.7852 -0.1671  0.7708
 2352SOL    MW4 9456   3.374   3.654   3.807  0.2668  0.0563 -0.0002
 2353SOL     OW 9457   3.367   3.899   3.919  0.0636  0.0978 -0.1247
 2353SOL    HW2 9458   3.443   3.946   3.887  0.4704  0.4008  1.2420
 2353SOL    HW3 9459   3.292   3.942   3.878  0.6750 -1.2875 -2.8433
 2353SOL    MW4 9460   3.367   3.911   3.909  0.1979 -0.0451 -0.3030
 2354SOL     OW 9461   3.127   3.994   3.777 -0.0453  0.1615 -0.1108
 2354SOL    HW2 9462   3.114   4.085   3.801 -0.2396 -0.2036  1.2002
 2354SOL    HW3 9463   3.047   3.949   3.806  0.4271 -0.5740  0.0831
 2354SOL    MW4 9464   3.115   4.000   3.784 -0.0086  0.0165  0.0877
 2355SOL     OW 9465   3.112   4.273   3.847  0.3319 -0.1431  0.3508
 2355SOL    HW2 9466   3.110   4.286   3.942  1.0554 -0.0180  0.3506
 2355SOL    HW3 9467   3.203   4.290   3.822 -0.0605  0.7600 -0.4953
 2355SOL    MW4 9468   3.123   4.277   3.856  0.3755 -0.0076  0.2391
 2356SOL     OW 9469   3.360   4.367   3.804 -0.1279  0.1558  0.3809
 2356SOL    HW2 9470   3.435   4.325   3.844 -0.8861  0.3634  2.0508
 2356SOL    HW3 9471   3.354   4.452   3.847 -1.2600  0.1741  0.2032
 2356SOL    MW4 9472   3.369   4.373   3.815 -0.3769  0.1860  0.5777
 2357SOL     OW 9473   3.863   4.655   3.914 -0.1065  0.5355 -0.4476
 2357SOL    HW2 9474   3.934   4.699   3.868 -1.0210  0.7983 -1.6448
 2357SOL    HW3 9475   3.858   4.568   3.875 -0.0834  0.3183  0.0205
 2357SOL    MW4 9476   3.872   4.649   3.903 -0.2241  0.5407 -0.5441
 2358SOL     OW 9477   3.611   0.073   3.812  0.1972  0.1378  0.0217
 2358SOL    HW2 9478   3.695   0.055   3.855  0.0424  1.1669  0.7826
 2358SOL    HW3 9479   3.634   0.088   3.720  0.8894  0.6599  0.2695
 2358SOL    MW4 9480   3.625   0.073   3.805  0.2680  0.3425  0.1545
 2359SOL     OW 9481   3.584   0.355   3.876  0.4401 -0.1677  0.1588
 2359SOL    HW2 9482   3.676   0.382   3.870  0.6583 -1.0315 -0.4273
 2359SOL    HW3 9483   3.586   0.260   3.866 -0.5967 -0.1072 -0.6435
 2359SOL    MW4 9484   3.596   0.346   3.874  0.3321 -0.2737 -0.0243
 2360SOL     OW 9485   3.828   0.487   3.829  0.4717 -0.4464  0.1444
 2360SOL    HW2 9486   3.919   0.459   3.844  0.1568 -0.8407  1.3370
 2360SOL    HW3 9487   3.823   0.573   3.870  0.2204 -0.5460  0.3167
 2360SOL    MW4 9488   3.840   0.495   3.836  0.3970 -0.5116  0.3245
 2361SOL     OW 9489   3.847   0.744   3.918  0.4042  0.1886  0.2313
 2361SOL    HW2 9490   3.863   0.747   4.013 -2.1771 -1.6676  0.7755
 2361SOL    HW3 9491   3.765   0.792   3.906 -0.0081 -0.7803 -0.8927
 2361SOL    MW4 9492   3.839   0.751   3.929  0.0093 -0.1841  0.1545
 2362SOL     OW 9493   3.633   0.900   3.833  0.3988  0.0079  0.3967
 2362SOL    HW2 9494   3.618   0.992   3.853  0.5246  0.1283 -0.0496
 2362SOL    HW3 9495   3.553   0.856   3.860 -0.4874  0.5389 -1.2987
 2362SOL    MW4 9496   3.621   0.906   3.839  0.2983  0.0939  0.1140
 2363SOL     OW 9497   3.581   1.169   3.879 -0.1558 -0.9397  0.4104
 2363SOL    HW2 9498   3.656   1.214   3.841  0.3243 -0.6030  1.7315
 2363SOL    HW3 9499   3.505   1.221   3.852  0.0128 -1.6066 -1.4068
 2363SOL    MW4 9500   3.581   1.182   3.870 -0.0701 -0.9832  0.3450
 2364SOL     OW 9501   3.789   1.339   3.804  0.2074 -0.4032  0.0270
 2364SOL    HW2 9502   3.875   1.301   3.824  0.6335 -0.5526 -1.9577
 2364SOL    HW3 9503   3.796   1.430   3.834  0.0652 -1.1879  2.4670
 2364SOL    MW4 9504   3.801   1.346   3.810  0.2446 -0.5264  0.0873
 2365SOL     OW 9505   3.804   1.606   3.901  0.5084 -0.0774  0.1331
 2365SOL    HW2 9506   3.791   1.592   3.995  0.4828 -0.1568  0.1182
 2365SOL    HW3 9507   3.718   1.632   3.868  0.6078  0.3371  0.2004
 2365SOL    MW4 9508   3.791   1.608   3.909  0.5183 -0.0331  0.1402
 2366SOL     OW 9509   3.588   1.694   3.768  0.1915  0.0678  0.1616
 2366SOL    HW2 9510   3.506   1.648   3.785  1.0961 -1.3861  0.6899
 2366SOL    HW3 9511   3.601   1.685   3.674  0.7451 -1.4511  0.3673
 2366SOL    MW4 9512   3.579   1.686   3.758  0.3839 -0.3245  0.2580
 2367SOL     OW 9513   3.540   1.947   3.888  0.0959  0.1683 -0.0233
 2367SOL    HW2 9514   3.560   1.862   3.849  0.2830  0.2422 -0.0889
 2367SOL    HW3 9515   3.467   1.981   3.837 -0.1005 -0.0362  0.1199
 2367SOL    MW4 9516   3.533   1.940   3.876  0.0947  0.1509 -0.0129
 2368SOL     OW 9517   3.759   2.072   3.783  0.2042  0.2263 -0.3893
 2368SOL    HW2 9518   3.844   2.042   3.816 -0.1999  0.5417  0.9724
 2368SOL    HW3 9519   3.695   2.021   3.832 -0.4060  0.3268 -1.0796
 2368SOL    MW4 9520   3.762   2.061   3.794  0.0703  0.2811 -0.3006
 2369SOL     OW 9521   3.815   2.319   3.933  0.4046 -0.0341  0.2615
 2369SOL    HW2 9522   3.751   2.385   3.906 -0.6329 -0.5096  1.5461
 2369SOL    HW3 9523   3.788   2.239   3.887  1.5308  0.3600 -1.1198
 2369SOL    MW4 9524   3.803   2.317   3.923  0.4163 -0.0448  0.2489
 2370SOL     OW 9525   3.600   2.460   3.835  0.1450  0.2497  0.0205
 2370SOL    HW2 9526   3.510   2.431   3.848  0.1248  0.1039 -0.4337
 2370SOL    HW3 9527   3.608   2.472   3.740  0.7662 -0.2745  0.0012
 2370SOL    MW4 9528   3.590   2.458   3.824  0.2246  0.1614 -0.0422
 2371SOL     OW 9529   3.564   2.709   3.924 -0.0799  0.2996  0.2456
 2371SOL    HW2 9530   3.576   2.619   3.895  0.3780  0.4648 -0.0978
 2371SOL    HW3 9531   3.497   2.745   3.866  1.6728  0.9813 -1.4253
 2371SOL    MW4 9532   3.557   2.702   3.913  0.2117  0.4113 -0.0200
 2372SOL     OW 9533   3.785   2.843   3.824  0.4812 -0.3265  0.0580
 2372SOL    HW2 9534   3.853   2.780   3.851 -0.3718 -1.0312  0.6112
 2372SOL    HW3 9535   3.704   2.807   3.861 -0.3093  0.1028 -1.2390
 2372SOL    MW4 9536   3.783   2.830   3.832  0.2642 -0.3629 -0.0401
 2373SOL     OW 9537   3.856   3.090   3.913 -0.1384  0.1430 -0.0159
 2373SOL    HW2 9538   3.768   3.121   3.891 -0.4867 -0.7684  0.0801
 2373SOL    HW3 9539   3.858   3.000   3.882  0.0170 -0.5405  1.9138
 2373SOL    MW4 9540   3.844   3.082   3.906 -0.1638 -0.0675  0.2513
 2374SOL     OW 9541   3.587   3.177   3.835  0.6113 -0.2393 -0.4351
 2374SOL    HW2 9542   3.581   3.266   3.871  1.2969 -0.4346  0.1634
 2374SOL    HW3 9543   3.567   3.188   3.742  0.6281  0.5306 -0.3556
 2374SOL    MW4 9544   3.583   3.191   3.827  0.7041 -0.1636 -0.3455
 2375SOL     OW 9545   3.563   3.457   3.892 -0.3069  0.5347  0.6821
 2375SOL    HW2 9546   3.570   3.468   3.987  1.1971  0.1743  0.6368
 2375SOL    HW3 9547   3.497   3.521   3.865 -0.9151  0.4843  1.9959
 2375SOL    MW4 9548   3.555   3.467   3.901 -0.1886  0.4807  0.8495
 2376SOL     OW 9549   3.790   3.591   3.795  0.0024 -0.0032 -0.5342
 2376SOL    HW2 9550   3.769   3.681   3.818 -0.5800 -0.2385 -0.1227
 2376SOL    HW3 9551   3.717   3.539   3.831  0.8209 -0.7425  0.0982
 2376SOL    MW4 9552   3.778   3.596   3.803  0.0336 -0.1318 -0.3965
 2377SOL     OW 9553   3.789   3.857   3.888  0.0652  0.2697  0.4426
 2377SOL    HW2 9554   3.790   3.839   3.982  0.6923 -0.2564  0.3390
 2377SOL    HW3 9555   3.872   3.900   3.871  0.9333 -1.6040 -0.2318
 2377SOL    MW4 9556   3.800   3.860   3.898  0.2623 -0.0470  0.3397
 2378SOL     OW 9557   3.584   4.021   3.809 -0.3309  0.3780  0.5793
 2378SOL    HW2 9558   3.599   4.107   3.849 -1.2331  0.0881  1.5751
 2378SOL    HW3 9559   3.657   3.968   3.840  0.7833  1.0463 -0.8542
 2378SOL    MW4 9560   3.596   4.025   3.819 -0.3030  0.4277  0.5212
 2379SOL     OW 9561   3.596   4.271   3.922  0.5195  0.0332  0.1473
 2379SOL    HW2 9562   3.598   4.279   4.017 -1.2416 -0.7486  0.2775
 2379SOL    HW3 9563   3.680   4.306   3.893  0.3215  2.0175  1.8523
 2379SOL    MW4 9564   3.607   4.277   3.931  0.2611  0.1917  0.3893
 2380SOL     OW 9565   3.842   4.360   3.842  0.3636 -0.1498  0.3445
 2380SOL    HW2 9566   3.912   4.298   3.859  1.0330 -0.0146 -1.8658
 2380SOL    HW3 9567   3.836   4.366   3.747 -1.9173  0.6675  0.4910
 2380SOL    MW4 9568   3.850   4.353   3.832  0.1507 -0.0243  0.0720
 2381SOL     OW 9569   4.286   4.625   3.952  0.3417 -0.5237  0.5168
 2381SOL    HW2 9570   4.273   4.639   4.045  1.9176 -0.3236  0.7185
 2381SOL    HW3 9571   4.360   4.681   3.929 -0.0015 -0.6084 -0.8368
 2381SOL    MW4 9572   4.294   4.634   3.961  0.5045 -0.5084  0.3648
 2382SOL     OW 9573   4.089   0.118   3.822  0.6096  0.1498 -0.2882
 2382SOL    HW2 9574   4.163   0.072   3.861  0.6952  1.1896  0.8195
 2382SOL    HW3 9575   4.102   0.111   3.728  1.1760 -1.1715 -0.1219
 2382SOL    MW4 9576   4.100   0.111   3.815  0.6962  0.1127 -0.1199
 2383SOL     OW 9577   4.063   0.367   3.919  0.2817 -0.1741  0.2537
 2383SOL    HW2 9578   4.046   0.363   4.013 -0.1339 -0.2901  0.1763
 2383SOL    HW3 9579   4.064   0.275   3.891 -1.2516 -0.0934 -0.1395
 2383SOL    MW4 9580   4.061   0.354   3.928  0.0243 -0.1788  0.1917
 2384SOL     OW 9581   4.254   0.491   3.769 -0.6072  0.0831  0.2089
 2384SOL    HW2 9582   4.185   0.442   3.814 -0.3821 -0.6883 -0.2615
 2384SOL    HW3 9583   4.243   0.467   3.677 -0.6551  1.1309 -0.0699
 2384SOL    MW4 9584   4.243   0.481   3.762 -0.5841  0.1196  0.1101
 2385SOL     OW 9585   4.265   0.745   3.859  0.6708 -0.2159 -0.1785
 2385SOL    HW2 9586   4.193   0.802   3.831  0.8714  0.8268  1.3838
 2385SOL    HW3 9587   4.251   0.663   3.812 -1.0505  0.2799 -0.5380
 2385SOL    MW4 9588   4.254   0.742   3.849  0.4711 -0.0129 -0.0196
 2386SOL     OW 9589   4.040   0.892   3.794 -0.5796  0.2992 -0.1964
 2386SOL    HW2 9590   3.972   0.834   3.827 -1.5866  1.4799 -0.1790
 2386SOL    HW3 9591   4.037   0.882   3.699 -0.0651 -0.4317 -0.1403
 2386SOL    MW4 9592   4.031   0.883   3.786 -0.6447  0.3586 -0.1867
 2387SOL     OW 9593   4.005   1.179   3.897 -0.0873  0.2300  0.3042
 2387SOL    HW2 9594   4.089   1.218   3.873  0.4106  0.0078  1.6286
 2387SOL    HW3 9595   4.010   1.089   3.867  0.8006 -0.2398  1.8274
 2387SOL    MW4 9596   4.017   1.172   3.890  0.0954  0.1388  0.6800
 2388SOL     OW 9597   4.231   1.308   3.809  0.3687  0.1132  0.0353
 2388SOL    HW2 9598   4.213   1.402   3.812  1.4751  0.3751 -0.8305
 2388SOL    HW3 9599   4.230   1.287   3.716  2.7304 -0.1739  0.0317
 2388SOL    MW4 9600   4.229   1.318   3.797  0.8264  0.1098 -0.0794
 2389SOL     OW 9601   4.218   1.571   3.852 -0.0992  0.2061 -0.0676
 2389SOL    HW2 9602   4.153   1.633   3.820  1.1127  1.6875  0.3032
 2389SOL    HW3 9603   4.302   1.610   3.829  0.7453 -0.0064  2.5010
 2389SOL    MW4 9604   4.221   1.584   3.845  0.1726  0.3735  0.3202
 2390SOL     OW 9605   4.010   1.736   3.774  0.0808 -0.4652 -0.2409
 2390SOL    HW2 9606   4.009   1.827   3.806  0.5217  0.0838 -1.7428
 2390SOL    HW3 9607   3.931   1.697   3.812  1.0370 -0.0827  2.1685
 2390SOL    MW4 9608   3.999   1.743   3.783  0.2654 -0.3422 -0.1209
 2391SOL     OW 9609   3.996   1.983   3.892 -0.0595  0.2268  0.0629
 2391SOL    HW2 9610   3.996   1.985   3.988  0.5716 -1.7119  0.1229
 2391SOL    HW3 9611   4.085   2.007   3.868 -0.3947  1.3536 -0.0609
 2391SOL    MW4 9612   4.008   1.986   3.902 -0.0210  0.1197  0.0546
 2392SOL     OW 9613   4.255   2.072   3.800 -0.4322 -0.1854  0.0192
 2392SOL    HW2 9614   4.240   2.158   3.839 -1.1967 -0.8476  1.2353
 2392SOL    HW3 9615   4.227   2.082   3.709 -1.6773  0.5324  0.4668
 2392SOL    MW4 9616   4.249   2.085   3.793 -0.6971 -0.1781  0.2389
 2393SOL     OW 9617   4.237   2.315   3.936 -0.3463 -0.2637  0.2377
 2393SOL    HW2 9618   4.238   2.353   4.023 -2.0381  0.2883  0.0426
 2393SOL    HW3 9619   4.173   2.368   3.887  1.2208 -0.0030 -1.5909
 2393SOL    MW4 9620   4.228   2.327   3.941 -0.3629 -0.1564 -0.0293
 2394SOL     OW 9621   4.021   2.427   3.790  0.2339  0.0225  0.1603
 2394SOL    HW2 9622   4.031   2.514   3.830  0.9624 -0.7333  1.6933
 2394SOL    HW3 9623   3.965   2.380   3.851  0.0886 -0.6791 -0.5158
 2394SOL    MW4 9624   4.015   2.432   3.804  0.3109 -0.1695  0.2735
 2395SOL     OW 9625   4.012   2.689   3.902 -0.0287 -0.4500  0.0576
 2395SOL    HW2 9626   4.007   2.689   3.998 -0.0842  0.1241  0.0526
 2395SOL    HW3 9627   4.085   2.748   3.882  0.7271 -1.4566 -0.2134
 2395SOL    MW4 9628   4.021   2.697   3.912  0.0634 -0.5071  0.0212
 2396SOL     OW 9629   4.234   2.850   3.812 -0.5095 -0.3517  0.3385
 2396SOL    HW2 9630   4.247   2.937   3.850  1.1600  0.3166 -1.7018
 2396SOL    HW3 9631   4.309   2.800   3.841  0.8129  0.1818 -2.0642
 2396SOL    MW4 9632   4.245   2.855   3.821 -0.1149 -0.1931 -0.2477
 2397SOL     OW 9633   4.268   3.110   3.911 -0.1156  0.0049  0.0373
 2397SOL    HW2 9634   4.205   3.167   3.868 -0.1059  1.9790  2.5375
 2397SOL    HW3 9635   4.353   3.147   3.888  0.0003 -0.5100 -0.3804
 2397SOL    MW4 9636   4.271   3.123   3.902 -0.0987  0.1974  0.3121
 2398SOL     OW 9637   4.044   3.269   3.812 -0.0652 -0.1855 -0.4810
 2398SOL    HW2 9638   3.981   3.204   3.842 -1.1211  0.9401 -0.2297
 2398SOL    HW3 9639   4.036   3.269   3.717  0.3892 -0.8558 -0.5281
 2398SOL    MW4 9640   4.035   3.260   3.804 -0.1445 -0.1254 -0.4542
 2399SOL     OW 9641   4.016   3.525   3.930  0.1017  0.0000 -0.3214
 2399SOL    HW2 9642   4.029   3.433   3.905 -0.2969 -0.2329  0.3041
 2399SOL    HW3 9643   3.932   3.548   3.892  0.8847  0.5628 -1.7388
 2399SOL    MW4 9644   4.007   3.516   3.922  0.1526  0.0434 -0.4261
 2400SOL     OW 9645   4.230   3.630   3.801 -0.4174  0.4450 -0.5518
 2400SOL    HW2 9646   4.159   3.581   3.844  0.0502  2.8023  3.1123
 2400SOL    HW3 9647   4.308   3.578   3.818 -0.7890 -0.5297 -1.8057
 2400SOL    MW4 9648   4.231   3.617   3.809 -0.4053  0.6273 -0.2337
 2401SOL     OW 9649   4.282   3.906   3.868  0.1398  0.2844 -0.6178
 2401SOL    HW2 9650   4.194   3.942   3.857  0.0864 -0.2109 -1.9234
 2401SOL    HW3 9651   4.273   3.813   3.846  0.9849  0.2211 -0.7313
 2401SOL    MW4 9652   4.269   3.898   3.864  0.2446  0.2105 -0.8049
 2402SOL     OW 9653   4.019   3.980   3.813  0.3944  0.3337 -0.0668
 2402SOL    HW2 9654   4.027   4.068   3.850  0.9977  0.3017 -0.1193
 2402SOL    HW3 9655   4.040   3.991   3.721  0.9874  0.0443  0.0325
 2402SOL    MW4 9656   4.023   3.993   3.806  0.5517  0.2913 -0.0606
 2403SOL     OW 9657   4.081   4.237   3.887  0.0704 -0.0577  0.1835
 2403SOL    HW2 9658   4.067   4.246   3.981  1.4252 -0.5850  0.4364
 2403SOL    HW3 9659   4.129   4.316   3.862  0.0677 -0.1141 -0.0027
 2403SOL    MW4 9660   4.085   4.249   3.896  0.2494 -0.1345  0.1924
 2404SOL     OW 9661   4.297   4.413   3.790  0.2039 -0.0875  0.6856
 2404SOL    HW2 9662   4.287   4.492   3.844  3.2646  0.9630 -0.1887
 2404SOL    HW3 9663   4.360   4.359   3.837 -0.3272 -1.0819  0.2598
 2404SOL    MW4 9664   4.304   4.416   3.803  0.5374 -0.0806  0.5140
 2405SOL     OW 9665   0.421   1.945   4.164 -0.1675  0.1986  0.2148
 2405SOL    HW2 9666   0.418   1.949   4.069 -2.4246 -0.6134  0.2372
 2405SOL    HW3 9667   0.496   2.001   4.188  1.9309 -1.5042 -2.1143
 2405SOL    MW4 9668   0.431   1.953   4.155 -0.1884 -0.1332 -0.0892
 2406SOL     OW 9669   1.629   3.885   4.765 -0.0670  0.0415 -0.3807
 2406SOL    HW2 9670   1.682   3.941   4.821 -0.2874  0.2605 -0.3899
 2406SOL    HW3 9671   1.573   3.945   4.716 -0.5838 -0.2036 -0.1020
 2406SOL    MW4 9672   1.628   3.900   4.766 -0.1643  0.0381 -0.3452
 2407SOL     OW 9673   0.748   2.057   4.574 -0.7067 -0.5178 -0.0156
 2407SOL    HW2 9674   0.669   2.102   4.604 -0.2634 -0.0837  0.4974
 2407SOL    HW3 9675   0.794   2.034   4.654  1.5271  2.4712 -0.3691
 2407SOL    MW4 9676   0.744   2.060   4.588 -0.3535 -0.0663  0.0057
 2408SOL     OW 9677   2.714   0.691   4.613 -0.2184 -0.3529  0.4622
 2408SOL    HW2 9678   2.647   0.624   4.601 -0.9122  0.3034  0.6686
 2408SOL    HW3 9679   2.665   0.772   4.627  0.5993  0.5527 -1.7546
 2408SOL    MW4 9680   2.699   0.693   4.613 -0.2019 -0.1467  0.1965
 2409SOL     OW 9681   3.796   4.449   4.556 -0.1456 -0.0810 -0.2976
 2409SOL    HW2 9682   3.785   4.357   4.581 -2.0691  0.3506  0.5039
 2409SOL    HW3 9683   3.889   4.467   4.570  0.4906 -2.2145 -1.5567
 2409SOL    MW4 9684   3.807   4.439   4.561 -0.3157 -0.3057 -0.3576
 2410SOL     OW 9685   1.745   3.975   4.461 -0.3142 -0.0926  0.5246
 2410SOL    HW2 9686   1.650   3.990   4.461 -0.2299  0.4934 -0.1108
 2410SOL    HW3 9687   1.758   3.905   4.524 -1.0773  0.3899  1.2286
 2410SOL    MW4 9688   1.734   3.968   4.469 -0.4038  0.0484  0.5331
 2411SOL     OW 9689   0.724   0.129   4.626  0.5194 -0.0384 -0.0517
 2411SOL    HW2 9690   0.811   0.165   4.611  0.7236  0.6016  2.5402
 2411SOL    HW3 9691   0.664   0.199   4.602  0.7720  0.1584 -0.1093
 2411SOL    MW4 9692   0.728   0.143   4.621  0.5797  0.0720  0.2828
 2412SOL     OW 9693   4.410   3.244   4.936 -0.1024 -0.3641  0.0148
 2412SOL    HW2 9694   4.337   3.236   4.875  0.9737 -0.1076 -1.3196
 2412SOL    HW3 9695   4.464   3.166   4.920 -0.5567 -1.0330  1.6414
 2412SOL    MW4 9696   4.408   3.233   4.926 -0.0200 -0.4184  0.0534
 2413SOL     OW 9697   4.292   3.065   4.194  0.2987  0.1588  0.2091
 2413SOL    HW2 9698   4.365   3.117   4.226 -0.5314  1.0262  0.7083
 2413SOL    HW3 9699   4.287   3.085   4.100  0.8648 -0.1130  0.1198
 2413SOL    MW4 9700   4.301   3.074   4.186  0.2646  0.2375  0.2627
 2414SOL     OW 9701   0.176   1.574   4.169  0.2129  0.5049  0.5788
 2414SOL    HW2 9702   0.170   1.480   4.188  0.6521  0.0986 -1.1831
 2414SOL    HW3 9703   0.265   1.597   4.196  0.3913  0.2172  0.2533
 2414SOL    MW4 9704   0.187   1.564   4.175  0.2944  0.4134  0.3037
 2415SOL     OW 9705   0.894   0.834   4.492  0.4529  0.5984  0.2578
 2415SOL    HW2 9706   0.905   0.751   4.539  0.9631  0.1428 -0.6529
 2415SOL    HW3 9707   0.844   0.889   4.552 -0.9129 -0.7769  0.3960
 2415SOL    MW4 9708   0.889   0.830   4.506  0.3400  0.3569  0.1559
 2416SOL     OW 9709   0.219   4.354   4.626  0.6245 -0.1149  0.1234
 2416SOL    HW2 9710   0.312   4.349   4.649  0.2600 -1.7017  1.3274
 2416SOL    HW3 9711   0.180   4.277   4.667 -0.9893 -0.2128 -1.5278
 2416SOL    MW4 9712   0.226   4.343   4.635  0.3635 -0.3371  0.0644
 2417SOL     OW 9713   4.462   2.692   4.176  0.7668 -0.0253  0.8055
 2417SOL    HW2 9714   4.380   2.728   4.210  0.0377  1.0066 -1.8575
 2417SOL    HW3 9715   4.530   2.749   4.210 -0.0239  1.5332 -0.1604
 2417SOL    MW4 9716   4.460   2.704   4.185  0.5665  0.3164  0.3271
 2418SOL     OW 9717   4.224   3.695   4.536 -0.1579 -0.0088 -0.2984
 2418SOL    HW2 9718   4.173   3.776   4.533 -1.0786 -0.5894 -0.7619
 2418SOL    HW3 9719   4.230   3.668   4.444  0.4764 -0.2623 -0.1834
 2418SOL    MW4 9720   4.218   3.702   4.523 -0.1955 -0.1187 -0.3443
 2419SOL     OW 9721   4.213   2.807   4.318 -0.2903 -0.2423  0.0689
 2419SOL    HW2 9722   4.237   2.891   4.279  1.3820 -0.3335  0.8530
 2419SOL    HW3 9723   4.130   2.785   4.277 -0.7484  1.7865 -0.1637
 2419SOL    MW4 9724   4.205   2.815   4.307 -0.1297  0.0134  0.1411
 2420SOL     OW 9725   0.001   0.375   4.181 -0.0072  0.6848 -0.5612
 2420SOL    HW2 9726  -0.073   0.426   4.213 -0.8967 -0.5317 -0.6470
 2420SOL    HW3 9727  -0.008   0.377   4.085  0.2634  0.8064 -0.5856
 2420SOL    MW4 9728  -0.010   0.382   4.172 -0.0896  0.5403 -0.5755
 2421SOL     OW 9729   0.721   4.505   4.594 -0.1306  0.8412 -0.5862
 2421SOL    HW2 9730   0.726   4.500   4.499  1.1270 -0.6134 -0.4635
 2421SOL    HW3 9731   0.714   4.599   4.613  1.7643  1.2864 -2.0200
 2421SOL    MW4 9732   0.721   4.517   4.584  0.2854  0.7081 -0.7591
 2422SOL     OW 9733   0.354   3.915   4.655 -0.6704 -0.2896  0.5303
 2422SOL    HW2 9734   0.432   3.956   4.619 -0.4425 -0.4779  0.8012
 2422SOL    HW3 9735   0.319   3.861   4.584 -0.2099 -0.6794  0.5971
 2422SOL    MW4 9736   0.359   3.913   4.641 -0.5796 -0.3657  0.5751
 2423SOL     OW 9737   3.960   2.693   4.687  0.6713 -0.3925  0.1452
 2423SOL    HW2 9738   3.997   2.724   4.769  1.3833  0.7787 -0.5957
 2423SOL    HW3 9739   3.989   2.602   4.680  1.2776 -0.2495  0.7935
 2423SOL    MW4 9740   3.969   2.685   4.697  0.8454 -0.2191  0.1330
 2424SOL     OW 9741   0.192   3.633   4.227  0.2891 -0.6353  0.2030
 2424SOL    HW2 9742   0.190   3.709   4.168  1.8168 -0.3362  0.5135
 2424SOL    HW3 9743   0.108   3.589   4.213  0.2905 -0.0900 -1.5664
 2424SOL    MW4 9744   0.181   3.637   4.218  0.4908 -0.5238  0.0100
 2425SOL     OW 9745   2.881   2.742   4.515  0.1284 -0.5909  0.2148
 2425SOL    HW2 9746   2.974   2.718   4.519  0.1845 -0.1580  2.1889
 2425SOL    HW3 9747   2.834   2.659   4.530  0.1626 -0.9999 -1.8492
 2425SOL    MW4 9748   2.887   2.728   4.518  0.1402 -0.5877  0.2027
 2426SOL     OW 9749   4.022   1.191   4.630 -0.2093 -0.0940 -0.2865
 2426SOL    HW2 9750   4.101   1.243   4.617 -0.4312 -0.0955 -1.6655
 2426SOL    HW3 9751   4.052   1.100   4.627 -0.2551 -0.0934 -0.7282
 2426SOL    MW4 9752   4.036   1.186   4.628 -0.2446 -0.0942 -0.5264
 2427SOL     OW 9753   0.086   4.291   4.192  0.1458  0.0524 -0.0258
 2427SOL    HW2 9754   0.058   4.203   4.220 -2.0197  1.0604  1.1534
 2427SOL    HW3 9755   0.073   4.291   4.097  0.3838 -0.9900 -0.0658
 2427SOL    MW4 9756   0.080   4.279   4.183 -0.1085  0.0477  0.1245
 2428SOL     OW 9757   4.182   1.312   4.283 -0.6544 -0.1853 -0.7627
 2428SOL    HW2 9758   4.117   1.249   4.251  0.2515 -1.6628  0.2409
 2428SOL    HW3 9759   4.266   1.267   4.272 -0.0022  0.8062  0.0720
 2428SOL    MW4 9760   4.184   1.298   4.277 -0.4492 -0.2495 -0.5202
 2429SOL     OW 9761   0.701   0.032   4.116  0.3780 -0.1504  0.1999
 2429SOL    HW2 9762   0.736  -0.054   4.138 -0.9523 -0.8366 -0.2951
 2429SOL    HW3 9763   0.706   0.036   4.021 -0.8117 -0.2455  0.1198
 2429SOL    MW4 9764   0.706   0.021   4.106  0.0455 -0.2535  0.1240
 2430SOL     OW 9765   0.210   0.790   4.191  0.5696  0.5064 -0.1012
 2430SOL    HW2 9766   0.296   0.823   4.215  0.5439  1.4186 -1.2098
 2430SOL    HW3 9767   0.214   0.696   4.209  1.7353  0.5728  0.0066
 2430SOL    MW4 9768   0.222   0.782   4.197  0.7200  0.6355 -0.2332
 2431SOL     OW 9769   0.604   2.835   4.273 -0.1213 -0.4731 -0.1709
 2431SOL    HW2 9770   0.622   2.910   4.217  0.8715  0.0366  0.8146
 2431SOL    HW3 9771   0.681   2.779   4.262  0.5013  0.0635  1.3807
 2431SOL    MW4 9772   0.617   2.837   4.264  0.0919 -0.3352  0.1631
 2432SOL     OW 9773   0.676   0.816   4.094  0.0155 -0.3345  0.0515
 2432SOL    HW2 9774   0.652   0.786   4.006 -3.1727  0.5793  0.5501
 2432SOL    HW3 9775   0.672   0.736   4.148 -1.6502 -0.2878  0.0366
 2432SOL    MW4 9776   0.672   0.801   4.090 -0.6249 -0.2078  0.1149
 2433SOL     OW 9777   0.843   1.362   4.699 -0.4000  0.1787  0.3066
 2433SOL    HW2 9778   0.761   1.335   4.657 -1.5927  2.9000  0.8082
 2433SOL    HW3 9779   0.819   1.382   4.789  0.9534  0.3376  0.6393
 2433SOL    MW4 9780   0.829   1.361   4.705 -0.3788  0.5586  0.4168
 2434SOL     OW 9781   0.704   1.800   4.524 -0.6302 -0.0050 -0.0704
 2434SOL    HW2 9782   0.705   1.895   4.540 -0.8966  0.1692 -1.1003
 2434SOL    HW3 9783   0.614   1.774   4.544  0.0299 -0.4715  2.6096
 2434SOL    MW4 9784   0.692   1.809   4.529 -0.5783 -0.0435  0.1473
 2435SOL     OW 9785   4.439   1.713   4.249  0.0632 -0.8618 -0.1563
 2435SOL    HW2 9786   4.519   1.672   4.216  0.0444 -0.0104 -1.2614
 2435SOL    HW3 9787   4.368   1.656   4.219  0.1207 -0.6355 -0.7225
 2435SOL    MW4 9788   4.441   1.700   4.241  0.0682 -0.7195 -0.3767
 2436SOL     OW 9789   4.041   2.460   4.378 -0.0702  0.1855  0.7269
 2436SOL    HW2 9790   4.116   2.447   4.320 -1.2080 -0.1287 -0.7032
 2436SOL    HW3 9791   3.967   2.419   4.332 -1.1164  0.4173  2.1399
 2436SOL    MW4 9792   4.041   2.453   4.364 -0.3581  0.1748  0.7243
 2437SOL     OW 9793   0.648   2.062   4.289 -0.0050 -0.4206  0.0871
 2437SOL    HW2 9794   0.724   2.034   4.238  0.5949 -0.5171  1.0353
 2437SOL    HW3 9795   0.678   2.062   4.380 -0.7888  0.6833  0.3538
 2437SOL    MW4 9796   0.662   2.058   4.294 -0.0293 -0.2878  0.2470
 2438SOL     OW 9797   0.436   1.665   4.211  0.2266 -0.1790  0.2439
 2438SOL    HW2 9798   0.437   1.759   4.193 -1.5075 -0.4748 -1.6054
 2438SOL    HW3 9799   0.517   1.632   4.171 -0.6390  0.0972 -1.8162
 2438SOL    MW4 9800   0.447   1.673   4.203 -0.1163 -0.1817 -0.2723
 2439SOL     OW 9801   0.632   2.902   4.561 -0.5545 -0.0802  0.0949
 2439SOL    HW2 9802   0.624   2.888   4.466  0.4570  0.4318 -0.0828
 2439SOL    HW3 9803   0.722   2.935   4.572 -0.1133 -1.6849  1.4128
 2439SOL    MW4 9804   0.643   2.905   4.550 -0.3629 -0.2244  0.2446
 2440SOL     OW 9805   0.855   1.730   4.266 -0.4099  0.8195  0.4813
 2440SOL    HW2 9806   0.805   1.744   4.347  0.4559 -0.2932  1.2170
 2440SOL    HW3 9807   0.875   1.818   4.235 -1.2689  1.2627  1.1565
 2440SOL    MW4 9808   0.851   1.744   4.273 -0.4089  0.7312  0.6676
 2441SOL     OW 9809   4.071   0.915   4.542 -0.0205  0.4465 -0.1064
 2441SOL    HW2 9810   4.081   0.932   4.448 -0.1001  0.4086 -0.1217
 2441SOL    HW3 9811   3.976   0.917   4.556  0.0117  0.9297  0.0603
 2441SOL    MW4 9812   4.060   0.918   4.532 -0.0267  0.5052 -0.0858
 2442SOL     OW 9813   0.205   2.329   4.185  0.0453 -0.2525  0.5288
 2442SOL    HW2 9814   0.201   2.239   4.219  0.9060 -0.4767  0.0517
 2442SOL    HW3 9815   0.297   2.353   4.191  0.2766 -0.4145 -1.9452
 2442SOL    MW4 9816   0.217   2.320   4.190  0.1894 -0.3033  0.1397
 2443SOL     OW 9817   0.921   2.504   4.546  0.7107  0.3311  0.1395
 2443SOL    HW2 9818   0.848   2.549   4.588 -0.4573 -0.4711 -0.9858
 2443SOL    HW3 9819   0.998   2.556   4.568 -0.3681  1.8633  0.3316
 2443SOL    MW4 9820   0.921   2.517   4.554  0.4143  0.4275  0.0162
 2444SOL     OW 9821   2.215   1.764   4.490  0.4187  0.4156  0.0314
 2444SOL    HW2 9822   2.292   1.784   4.542  0.2118 -0.5095  0.7175
 2444SOL    HW3 9823   2.248   1.745   4.403  1.0277 -0.5585  0.4704
 2444SOL    MW4 9824   2.229   1.764   4.486  0.4718  0.1650  0.1798
 2445SOL     OW 9825   2.939   1.320   4.521  0.0125 -0.0386  0.3356
 2445SOL    HW2 9826   2.930   1.323   4.425 -1.4894 -0.7319  0.4350
 2445SOL    HW3 9827   3.027   1.353   4.538  0.0593  0.7100 -1.2496
 2445SOL    MW4 9828   2.949   1.324   4.510 -0.1793 -0.0314  0.1388
 2446SOL     OW 9829   3.509   3.221   4.530  0.1419  0.1034 -0.0253
 2446SOL    HW2 9830   3.529   3.201   4.439 -0.0038  0.3201 -0.1036
 2446SOL    HW3 9831   3.595   3.227   4.572  0.2370  0.8586 -0.3244
 2446SOL    MW4 9832   3.523   3.219   4.524  0.1347  0.2315 -0.0753
 2447SOL     OW 9833   4.427   1.249   4.645  0.0822  0.3872 -0.0040
 2447SOL    HW2 9834   4.345   1.278   4.606 -0.1538  1.3271  1.1538
 2447SOL    HW3 9835   4.444   1.164   4.606 -0.6102  0.9048 -1.4579
 2447SOL    MW4 9836   4.419   1.242   4.635 -0.0405  0.5796 -0.0429
 2448SOL     OW 9837   0.195   3.676   4.914 -0.0806  0.0035 -0.5976
 2448SOL    HW2 9838   0.168   3.598   4.866  1.4027 -0.4836 -0.6895
 2448SOL    HW3 9839   0.147   3.748   4.874 -0.3635 -0.6698 -1.4846
 2448SOL    MW4 9840   0.185   3.675   4.903  0.0778 -0.1497 -0.7267
 2449SOL     OW 9841   3.574   2.253   4.660 -0.5032  0.6592 -0.4541
 2449SOL    HW2 9842   3.657   2.250   4.706 -1.1843  0.1134  0.7622
 2449SOL    HW3 9843   3.573   2.339   4.617  0.5934  0.7377 -0.3140
 2449SOL    MW4 9844   3.585   2.264   4.660 -0.4485  0.5977 -0.2756
 2450SOL     OW 9845   0.064   3.012   4.864 -0.3003 -0.4737  0.2184
 2450SOL    HW2 9846   0.021   2.969   4.790  0.3101  1.4925 -1.3382
 2450SOL    HW3 9847   0.157   3.015   4.840 -0.1339  0.4105  0.9383
 2450SOL    MW4 9848   0.071   3.007   4.851 -0.1978 -0.0975  0.1082
 2451SOL     OW 9849   2.464   1.085   4.533  0.3144 -0.1084 -0.4182
 2451SOL    HW2 9850   2.530   1.043   4.589  0.4113  1.1539  0.4424
 2451SOL    HW3 9851   2.381   1.069   4.577  0.3930  0.9100  0.1069
 2451SOL    MW4 9852   2.462   1.077   4.546  0.3378  0.1925 -0.2356
 2452SOL     OW 9853   0.302   2.979   4.697 -0.7218  0.2116  0.2108
 2452SOL    HW2 9854   0.256   2.901   4.664  0.2915 -0.1476 -0.3632
 2452SOL    HW3 9855   0.395   2.959   4.686 -0.4085  0.8768  1.5204
 2452SOL    MW4 9856   0.308   2.966   4.691 -0.5468  0.2518  0.3080
 2453SOL     OW 9857   0.767   4.497   4.305  0.4625 -0.0473 -0.4571
 2453SOL    HW2 9858   0.852   4.454   4.309  1.2820  1.0976 -3.9606
 2453SOL    HW3 9859   0.709   4.434   4.263 -0.2404 -0.5264  1.2050
 2453SOL    MW4 9860   0.770   4.483   4.300  0.4779  0.0401 -0.7000
 2454SOL     OW 9861   1.332   0.135   4.302 -0.9115 -0.6161 -0.0047
 2454SOL    HW2 9862   1.374   0.109   4.384 -0.1501  1.3299  0.2552
 2454SOL    HW3 9863   1.258   0.075   4.292  0.6810 -2.7034  0.6184
 2454SOL    MW4 9864   1.328   0.124   4.311 -0.6011 -0.6347  0.1121
 2455SOL     OW 9865   1.122   0.435   4.490 -0.4245 -0.3054  0.1022
 2455SOL    HW2 9866   1.117   0.469   4.401 -2.4102  1.3996  0.8266
 2455SOL    HW3 9867   1.078   0.350   4.485  0.7446 -0.8654 -0.8284
 2455SOL    MW4 9868   1.115   0.428   4.478 -0.5323 -0.1543  0.0749
 2456SOL     OW 9869   0.197   2.496   4.542 -0.5928 -0.2610  0.6427
 2456SOL    HW2 9870   0.172   2.434   4.611 -0.6282  1.0578  1.8485
 2456SOL    HW3 9871   0.144   2.470   4.466  0.3678 -2.5099  0.7179
 2456SOL    MW4 9872   0.186   2.485   4.541 -0.4708 -0.3836  0.8116
 2457SOL     OW 9873   1.142   0.821   4.188 -0.4234  0.1688  0.2800
 2457SOL    HW2 9874   1.065   0.876   4.207 -0.1305  0.0203  1.9485
 2457SOL    HW3 9875   1.215   0.869   4.225  0.1903 -0.1127 -0.5513
 2457SOL    MW4 9876   1.141   0.835   4.195 -0.3037  0.1121  0.3896
 2458SOL     OW 9877   0.902   0.924   4.231  0.0076  0.0921 -0.0511
 2458SOL    HW2 9878   0.839   0.875   4.178 -0.5483  1.4183 -0.6365
 2458SOL    HW3 9879   0.891   0.888   4.319 -1.9432  0.6236 -0.0365
 2458SOL    MW4 9880   0.892   0.913   4.235 -0.3231  0.3371 -0.1268
 2459SOL     OW 9881   1.101   1.300   4.274 -0.3088  0.1698 -0.1257
 2459SOL    HW2 9882   1.026   1.248   4.246  0.8475 -2.0738  0.8277
 2459SOL    HW3 9883   1.098   1.296   4.370  1.2157 -0.1860 -0.0968
 2459SOL    MW4 9884   1.090   1.293   4.283  0.0449 -0.1732  0.0038
 2460SOL     OW 9885   1.370   1.697   4.227 -0.0989 -0.1055 -0.0394
 2460SOL    HW2 9886   1.368   1.792   4.216  0.6801 -0.0239  0.4924
 2460SOL    HW3 9887   1.280   1.669   4.211  0.1921  0.4264 -2.7386
 2460SOL    MW4 9888   1.358   1.705   4.224  0.0422 -0.0246 -0.3252
 2461SOL     OW 9889   3.312   2.190   4.588  0.1629 -0.0433  0.1746
 2461SOL    HW2 9890   3.397   2.215   4.624 -0.2364 -1.2326  1.9636
 2461SOL    HW3 9891   3.265   2.273   4.579  1.8533  0.7555 -1.8409
 2461SOL    MW4 9892   3.317   2.205   4.592  0.3333 -0.0947  0.1450
 2462SOL     OW 9893   0.461   2.424   4.213  0.1016 -0.2552  0.2595
 2462SOL    HW2 9894   0.456   2.519   4.212 -1.4238 -0.3133  1.1604
 2462SOL    HW3 9895   0.554   2.405   4.203  0.3285  1.3026 -0.7274
 2462SOL    MW4 9896   0.473   2.434   4.212 -0.0697 -0.0575  0.2480
 2463SOL     OW 9897   1.350   1.985   4.204  0.1675  0.0913 -0.0830
 2463SOL    HW2 9898   1.264   2.018   4.229 -0.1875 -0.6052 -0.3683
 2463SOL    HW3 9899   1.411   2.051   4.236 -0.4440  0.3857  0.4888
 2463SOL    MW4 9900   1.347   1.998   4.211  0.0399  0.0383 -0.0448
 2464SOL     OW 9901   1.199   2.386   4.143 -0.1644  0.1678 -0.3155
 2464SOL    HW2 9902   1.120   2.412   4.191 -1.2911 -1.1113 -1.4380
 2464SOL    HW3 9903   1.167   2.361   4.056  1.1497 -2.5015 -0.0747
 2464SOL    MW4 9904   1.184   2.386   4.138 -0.1396 -0.3529 -0.4315
 2465SOL     OW 9905   3.361   4.655   4.201  0.3795 -0.2272 -0.3585
 2465SOL    HW2 9906   3.365   4.561   4.221  0.9676 -0.5972 -2.1634
 2465SOL    HW3 9907   3.282   4.685   4.245  1.1660 -1.1723  1.8183
 2465SOL    MW4 9908   3.351   4.646   4.209  0.5608 -0.4007 -0.3095
 2466SOL     OW 9909   4.273   0.316   4.665 -0.1983  0.8082  0.0574
 2466SOL    HW2 9910   4.222   0.236   4.652 -0.1734  0.5712  1.3737
 2466SOL    HW3 9911   4.208   0.382   4.690  0.0301  0.6786  1.0310
 2466SOL    MW4 9912   4.258   0.314   4.667 -0.1645  0.7598  0.3595
 2467SOL     OW 9913   3.603   2.481   4.253  0.1784  0.1112  0.0265
 2467SOL    HW2 9914   3.601   2.565   4.209  0.2624  0.4693  0.7000
 2467SOL    HW3 9915   3.536   2.429   4.209  0.3329  0.4266 -0.5874
 2467SOL    MW4 9916   3.594   2.485   4.241  0.2100  0.2000  0.0343
 2468SOL     OW 9917   3.628   0.910   4.208  0.2523  0.1809  0.3466
 2468SOL    HW2 9918   3.612   0.996   4.167 -0.8525 -0.5810 -0.8545
 2468SOL    HW3 9919   3.608   0.924   4.300 -1.7155  0.7596 -0.1494
 2468SOL    MW4 9920   3.624   0.923   4.214 -0.1533  0.1568  0.1230
 2469SOL     OW 9921   1.342   3.208   4.284 -0.5537 -0.2110  0.0396
 2469SOL    HW2 9922   1.259   3.180   4.245 -0.1171  0.1090 -1.1354
 2469SOL    HW3 9923   1.396   3.128   4.284 -0.9271 -0.4624  0.9739
 2469SOL    MW4 9924   1.339   3.193   4.278 -0.5454 -0.2019  0.0081
 2470SOL     OW 9925   0.517   0.834   4.515 -0.2653  0.0834 -0.0727
 2470SOL    HW2 9926   0.498   0.874   4.430 -1.1065  1.2618  0.6589
 2470SOL    HW3 9927   0.588   0.887   4.551 -0.7678  0.3663  0.5085
 2470SOL    MW4 9928   0.524   0.846   4.509 -0.4426  0.2762  0.1006
 2471SOL     OW 9929   1.082   3.612   4.323  0.1937  0.1762 -0.1549
 2471SOL    HW2 9930   1.005   3.587   4.272  0.3212 -0.8430  0.1591
 2471SOL    HW3 9931   1.154   3.561   4.285  0.4088 -0.1159  0.6499
 2471SOL    MW4 9932   1.081   3.602   4.311  0.2389  0.0033 -0.0072
 2472SOL     OW 9933   1.276   3.451   4.196  0.4993  0.2542  0.3403
 2472SOL    HW2 9934   1.305   3.445   4.105  0.3356 -0.5803  0.3357
 2472SOL    HW3 9935   1.304   3.369   4.236  1.4933  1.0497  1.3233
 2472SOL    MW4 9936   1.284   3.440   4.189  0.6090  0.2489  0.4692
 2473SOL     OW 9937   0.013   3.883   4.819 -0.2643 -0.0083  0.0082
 2473SOL    HW2 9938  -0.013   3.829   4.744  0.5301 -0.0389 -0.2576
 2473SOL    HW3 9939  -0.060   3.877   4.880 -1.6033  1.3002 -1.4358
 2473SOL    MW4 9940  -0.000   3.875   4.817 -0.3362  0.1602 -0.2170
 2474SOL     OW 9941   3.364   0.315   4.631 -0.1088 -0.0552 -0.5564
 2474SOL    HW2 9942   3.417   0.256   4.578  0.6912 -0.8904  1.1530
 2474SOL    HW3 9943   3.341   0.264   4.709  0.7811  1.9332  1.0500
 2474SOL    MW4 9944   3.368   0.301   4.634  0.1140  0.0969 -0.1192
 2475SOL     OW 9945   2.807   0.906   4.409  0.2777 -0.2243  0.0188
 2475SOL    HW2 9946   2.850   0.961   4.474 -2.0817  0.2485  1.1925
 2475SOL    HW3 9947   2.771   0.832   4.459 -1.1046 -0.1213 -0.8032
 2475SOL    MW4 9948   2.808   0.903   4.424 -0.2160 -0.1484  0.0653
 2476SOL     OW 9949   0.874   1.978   4.137 -0.0918  0.0385  0.0503
 2476SOL    HW2 9950   0.960   2.014   4.160 -0.1511 -0.9376  1.9189
 2476SOL    HW3 9951   0.878   1.965   4.042  1.7639  0.1880  0.0878
 2476SOL    MW4 9952   0.886   1.981   4.127  0.1452 -0.0706  0.3018
 2477SOL     OW 9953   3.947   1.663   4.527 -0.3972 -0.6653 -0.3319
 2477SOL    HW2 9954   3.879   1.709   4.576  0.1560 -1.0801  0.8425
 2477SOL    HW3 9955   3.935   1.571   4.550  0.8635 -0.6950  0.2993
 2477SOL    MW4 9956   3.937   1.657   4.537 -0.1578 -0.7240 -0.0935
 2478SOL     OW 9957   1.553   4.621   4.182 -0.0192 -0.2933 -0.3798
 2478SOL    HW2 9958   1.480   4.663   4.228  1.2395 -0.3794  1.7371
 2478SOL    HW3 9959   1.549   4.529   4.209 -0.5763 -0.8088 -2.1718
 2478SOL    MW4 9960   1.543   4.615   4.192  0.0733 -0.3729 -0.3371
 2479SOL     OW 9961   1.319   0.387   4.148 -0.3896  0.0999  0.4333
 2479SOL    HW2 9962   1.241   0.434   4.177 -0.4154  0.8742 -0.8532
 2479SOL    HW3 9963   1.319   0.306   4.199 -1.0936  0.8715  1.6722
 2479SOL    MW4 9964   1.309   0.383   4.159 -0.4858  0.3038  0.4268
 2480SOL     OW 9965   1.562   0.532   4.243  0.2154 -0.2541  0.3767
 2480SOL    HW2 9966   1.484   0.479   4.229 -0.3553  0.2033  1.7842
 2480SOL    HW3 9967   1.539   0.619   4.210  0.7630 -0.5664 -0.8740
 2480SOL    MW4 9968   1.549   0.536   4.237  0.2124 -0.2349  0.3977
 2481SOL     OW 9969   1.552   0.784   4.124  0.1366 -0.1919 -0.2884
 2481SOL    HW2 9970   1.618   0.848   4.151 -2.4301  2.2841  0.2978
 2481SOL    HW3 9971   1.561   0.777   4.029  1.5211 -0.2311 -0.1605
 2481SOL    MW4 9972   1.562   0.791   4.115 -0.0193  0.1296 -0.1945
 2482SOL     OW 9973   1.371   0.921   4.281  0.1572 -0.4423  0.0851
 2482SOL    HW2 9974   1.430   0.879   4.219 -0.9635 -0.6503 -0.8645
 2482SOL    HW3 9975   1.354   1.007   4.243  0.8484  0.1223  1.0065
 2482SOL    MW4 9976   1.377   0.927   4.268  0.1005 -0.3953  0.0815
 2483SOL     OW 9977   1.327   1.175   4.167  0.0966  0.6910  0.0659
 2483SOL    HW2 9978   1.327   1.185   4.071  0.6464 -0.7741 -0.1037
 2483SOL    HW3 9979   1.248   1.220   4.196 -0.6997  0.1205 -1.1982
 2483SOL    MW4 9980   1.317   1.182   4.158  0.0640  0.4224 -0.1235
 2484SOL     OW 9981   1.468   1.221   4.584  0.5072 -0.1225  0.2323
 2484SOL    HW2 9982   1.562   1.223   4.603  0.3403  0.8857  0.9602
 2484SOL    HW3 9983   1.438   1.310   4.600 -0.6562 -0.5322  0.3853
 2484SOL    MW4 9984   1.477   1.233   4.588  0.3316 -0.0435  0.3486
 2485SOL     OW 9985   1.590   1.563   4.193  0.1436  0.1564  0.0996
 2485SOL    HW2 9986   1.579   1.480   4.241 -0.8811  0.0105 -0.3738
 2485SOL    HW3 9987   1.506   1.607   4.203  0.3713  0.7127 -0.4704
 2485SOL    MW4 9988   1.577   1.558   4.201  0.0385  0.2104 -0.0381
 2486SOL     OW 9989   1.091   3.695   4.597 -0.3292  0.0805  0.0168
 2486SOL    HW2 9990   1.181   3.697   4.631 -0.4324 -0.5441  0.3298
 2486SOL    HW3 9991   1.102   3.681   4.502 -0.0988 -0.2778  0.0937
 2486SOL    MW4 9992   1.104   3.693   4.589 -0.3124 -0.0491  0.0687
 2487SOL     OW 9993   1.797   1.713   4.268  1.0226 -0.0667  0.0150
 2487SOL    HW2 9994   1.724   1.659   4.240  0.5833  0.5002  0.0505
 2487SOL    HW3 9995   1.875   1.664   4.242  0.6852 -2.0202  2.4512
 2487SOL    MW4 9996   1.798   1.699   4.261  0.9201 -0.2496  0.3414
 2488SOL     OW 9997   2.665   4.214   4.462  0.3387 -0.1558  0.2223
 2488SOL    HW2 9998   2.671   4.137   4.405  0.1855  1.2501 -1.7228
 2488SOL    HW3 9999   2.753   4.251   4.461  0.0078  0.6137 -0.1326
 2488SOL    MW410000   2.678   4.208   4.454  0.2749  0.1316 -0.0811
 2489SOL     OW10001   3.707   2.767   4.557  0.0774  0.0596  0.0623
 2489SOL    HW210002   3.785   2.745   4.607 -0.8207  0.0422  1.4809
 2489SOL    HW310003   3.740   2.793   4.471  1.6736  0.4375  0.7700
 2489SOL    MW410004   3.722   2.768   4.552  0.1693  0.1073  0.3424
 2490SOL     OW10005   2.675   3.243   4.442 -0.1446 -0.0320  0.0509
 2490SOL    HW210006   2.694   3.249   4.348 -1.1435  1.5473 -0.0590
 2490SOL    HW310007   2.716   3.161   4.469  0.7450 -0.1619 -1.6254
 2490SOL    MW410008   2.683   3.233   4.433 -0.1590  0.1593 -0.1850
 2491SOL     OW10009   1.097   2.125   4.242  0.0312 -0.0636 -0.7935
 2491SOL    HW210010   1.143   2.207   4.222  0.4244 -0.3968 -1.2515
 2491SOL    HW310011   1.049   2.144   4.323  1.2489  0.1784 -0.1093
 2491SOL    MW410012   1.097   2.138   4.250  0.2438 -0.0758 -0.7634
 2492SOL     OW10013   2.531   3.603   4.279  0.3585 -0.1085  0.1579
 2492SOL    HW210014   2.603   3.572   4.224  1.4624  0.4665  1.2586
 2492SOL    HW310015   2.502   3.684   4.238  1.1510  0.2972  0.3863
 2492SOL    MW410016   2.537   3.610   4.267  0.6087  0.0210  0.3338
 2493SOL     OW10017   2.690   1.937   4.217  0.6721 -0.3464  0.3338
 2493SOL    HW210018   2.675   1.846   4.243 -0.2366 -0.4119 -0.3887
 2493SOL    HW310019   2.671   1.938   4.124  3.0867  0.0601 -0.1898
 2493SOL    MW410020   2.686   1.925   4.208  0.8709 -0.3014  0.1693
 2494SOL     OW10021   1.567   3.026   4.207  0.2570 -0.4112 -0.5589
 2494SOL    HW210022   1.629   3.088   4.244  1.1031 -0.6654 -1.5491
 2494SOL    HW310023   1.525   2.986   4.284  0.6594  0.4068  0.0955
 2494SOL    MW410024   1.570   3.029   4.222  0.4218 -0.3366 -0.6032
 2495SOL     OW10025   1.367   3.735   4.689  0.5589  0.2010 -0.4704
 2495SOL    HW210026   1.379   3.820   4.647 -0.2669 -0.1336 -1.3960
 2495SOL    HW310027   1.386   3.751   4.781  1.5368  1.1360 -0.8141
 2495SOL    MW410028   1.371   3.748   4.695  0.5790  0.2804 -0.6375
 2496SOL     OW10029   1.498   0.068   4.546  0.7253 -0.2942  0.3147
 2496SOL    HW210030   1.487   0.161   4.567 -0.0579  0.4007 -2.9649
 2496SOL    HW310031   1.593   0.055   4.546  0.9216  1.0129 -1.2038
 2496SOL    MW410032   1.509   0.079   4.549  0.6478 -0.0301 -0.3190
 2497SOL     OW10033   0.270   3.260   4.671 -0.3995 -0.1775 -0.5020
 2497SOL    HW210034   0.285   3.165   4.669  0.7879 -0.0826  2.4055
 2497SOL    HW310035   0.349   3.297   4.633 -0.2229 -0.3050 -0.2633
 2497SOL    MW410036   0.282   3.252   4.666 -0.2195 -0.1819 -0.0868
 2498SOL     OW10037   1.539   3.831   4.101 -0.1088  0.4123 -0.6235
 2498SOL    HW210038   1.537   3.747   4.146 -0.9701  0.2672 -0.9244
 2498SOL    HW310039   1.626   3.866   4.119  0.7190 -1.1210 -1.5691
 2498SOL    MW410040   1.550   3.825   4.109 -0.1132  0.1905 -0.7877
 2499SOL     OW10041   4.271   3.886   4.152 -0.1691 -0.2141 -0.0171
 2499SOL    HW210042   4.269   3.888   4.056 -0.8729  0.9893  0.0083
 2499SOL    HW310043   4.184   3.918   4.178  0.3073  0.2419  1.0288
 2499SOL    MW410044   4.259   3.891   4.143 -0.1988  0.0050  0.1240
 2500SOL     OW10045   0.270   2.081   4.573  0.0474 -0.0761 -0.1175
 2500SOL    HW210046   0.242   1.996   4.606 -0.2853  0.4631  1.0216
 2500SOL    HW310047   0.210   2.143   4.614  1.3293  0.8645  0.3622
 2500SOL    MW410048   0.258   2.078   4.583  0.1727  0.1192  0.0954
 2501SOL     OW10049   2.038   4.640   4.165  0.1034 -0.2106 -0.2856
 2501SOL    HW210050   2.045   4.639   4.069 -0.8043 -0.2244 -0.3550
 2501SOL    HW310051   1.958   4.689   4.183 -0.6983 -1.7089  0.4002
 2501SOL    MW410052   2.028   4.646   4.155 -0.1223 -0.4101 -0.2050
 2502SOL     OW10053   0.212   2.066   4.301 -0.4803 -0.0399 -0.0880
 2502SOL    HW210054   0.229   2.063   4.395 -0.7122 -1.0687 -0.0692
 2502SOL    HW310055   0.289   2.024   4.262 -0.3281  0.4961 -0.3646
 2502SOL    MW410056   0.224   2.060   4.308 -0.4908 -0.1051 -0.1221
 2503SOL     OW10057   1.766   0.355   4.185 -0.3430 -0.1014  0.5416
 2503SOL    HW210058   1.697   0.418   4.207 -0.5803 -0.6575  1.3856
 2503SOL    HW310059   1.847   0.396   4.216 -0.2938  0.5081 -0.3595
 2503SOL    MW410060   1.768   0.369   4.192 -0.3679 -0.0944  0.5345
 2504SOL     OW10061   2.419   0.528   4.245  0.0738 -0.4088  0.1407
 2504SOL    HW210062   2.401   0.618   4.217  0.1854 -0.5707 -0.4674
 2504SOL    HW310063   2.345   0.478   4.209  0.2837 -0.6382  0.0309
 2504SOL    MW410064   2.407   0.533   4.236  0.1166 -0.4604  0.0458
 2505SOL     OW10065   1.987   0.764   4.182 -0.6118  0.0822  0.0313
 2505SOL    HW210066   2.064   0.813   4.211 -0.4726  0.4971 -1.0156
 2505SOL    HW310067   1.916   0.828   4.183 -0.6163  0.0888 -0.4798
 2505SOL    MW410068   1.988   0.779   4.186 -0.5940  0.1377 -0.1745
 2506SOL     OW10069   2.036   0.551   4.531  0.2071  0.3287 -0.3120
 2506SOL    HW210070   2.031   0.531   4.438  0.6867  0.2373 -0.3161
 2506SOL    HW310071   2.052   0.646   4.535  0.6979  0.2461 -0.3288
 2506SOL    MW410072   2.037   0.561   4.520  0.3350  0.3057 -0.3152
 2507SOL     OW10073   1.764   1.231   4.153 -0.2951 -0.2295 -0.4543
 2507SOL    HW210074   1.841   1.251   4.206  0.2457 -2.0310 -0.5362
 2507SOL    HW310075   1.692   1.275   4.198  0.4818 -0.0746  0.6553
 2507SOL    MW410076   1.765   1.239   4.166 -0.1212 -0.4467 -0.3185
 2508SOL     OW10077   1.529   1.324   4.319  0.5788 -0.9088 -0.0663
 2508SOL    HW210078   1.512   1.308   4.412 -0.0049 -0.9041 -0.1734
 2508SOL    HW310079   1.452   1.290   4.274  0.3154  0.1851 -0.4555
 2508SOL    MW410080   1.517   1.318   4.325  0.4668 -0.7639 -0.1321
 2509SOL     OW10081   1.959   1.891   4.521  0.3923  0.1813 -0.2978
 2509SOL    HW210082   1.904   1.815   4.542  2.3767 -1.5500 -1.2430
 2509SOL    HW310083   2.048   1.859   4.528  1.2469  1.9542 -2.5381
 2509SOL    MW410084   1.963   1.877   4.525  0.7669  0.1868 -0.7181
 2510SOL     OW10085   1.773   4.188   4.625 -0.1310 -0.0207 -0.6137
 2510SOL    HW210086   1.858   4.228   4.606  0.0205  0.2960  0.7091
 2510SOL    HW310087   1.770   4.111   4.568  0.3227  0.8869 -1.9042
 2510SOL    MW410088   1.784   4.183   4.615 -0.0511  0.1402 -0.6089
 2511SOL     OW10089   3.822   2.275   4.783  0.2265 -0.2526  0.2130
 2511SOL    HW210090   3.883   2.315   4.722 -0.1456 -1.9936 -1.3443
 2511SOL    HW310091   3.866   2.195   4.812 -0.9983 -1.1605 -0.3842
 2511SOL    MW410092   3.836   2.270   4.779  0.0157 -0.6020 -0.0715
 2512SOL     OW10093   2.246   1.991   4.159  0.1416  0.1035 -0.6099
 2512SOL    HW210094   2.159   1.989   4.201 -0.0724 -1.2129 -1.0961
 2512SOL    HW310095   2.304   2.025   4.228 -1.0006  2.5468 -0.7808
 2512SOL    MW410096   2.242   1.995   4.174 -0.0374  0.2521 -0.6967
 2513SOL     OW10097   2.493   4.429   4.483  0.3204  0.0251  0.0346
 2513SOL    HW210098   2.465   4.434   4.391  2.0909 -2.0687 -0.6728
 2513SOL    HW310099   2.552   4.354   4.485  0.3405  0.0816  2.9026
 2513SOL    MW410100   2.497   4.420   4.471  0.5567 -0.2432  0.3200
 2514SOL     OW10101   3.568   0.186   4.484 -0.1506  0.0310  0.2805
 2514SOL    HW210102   3.567   0.153   4.394  0.1663 -0.3497  0.4184
 2514SOL    HW310103   3.564   0.108   4.539  1.8963  0.1436  0.6139
 2514SOL    MW410104   3.567   0.172   4.480  0.1612 -0.0043  0.3428
 2515SOL     OW10105   1.109   3.875   4.230 -0.4739  0.1782 -0.4768
 2515SOL    HW210106   1.192   3.918   4.250 -1.7783  1.5244  2.3406
 2515SOL    HW310107   1.123   3.783   4.254 -0.5791  0.9144  2.5788
 2515SOL    MW410108   1.122   3.868   4.236 -0.6597  0.4528  0.2985
 2516SOL     OW10109   1.442   3.983   4.568 -0.0836 -0.0004  0.0774
 2516SOL    HW210110   1.422   3.971   4.475 -0.3872 -0.5159  0.2098
 2516SOL    HW310111   1.385   4.055   4.596 -0.0146  0.1336 -0.1228
 2516SOL    MW410112   1.432   3.991   4.559 -0.1146 -0.0505  0.0687
 2517SOL     OW10113   2.190   2.665   4.187 -0.2001 -0.1403  0.4568
 2517SOL    HW210114   2.185   2.570   4.194  1.2111 -0.2918 -0.4246
 2517SOL    HW310115   2.259   2.690   4.249 -1.0554  0.3835  1.2068
 2517SOL    MW410116   2.199   2.656   4.196 -0.1271 -0.0911  0.4396
 2518SOL     OW10117   0.840   2.705   4.196 -0.1686  0.3871 -0.2958
 2518SOL    HW210118   0.876   2.619   4.216 -0.6336  0.5847  1.4940
 2518SOL    HW310119   0.907   2.767   4.227 -0.2737  0.6976 -0.6766
 2518SOL    MW410120   0.854   2.702   4.203 -0.2438  0.4539 -0.1101
 2519SOL     OW10121   1.958   3.678   4.403 -0.6357 -0.0429 -0.1366
 2519SOL    HW210122   2.042   3.704   4.441  0.4186 -2.3855 -0.7839
 2519SOL    HW310123   1.897   3.682   4.477  0.5808 -0.8140  0.9330
 2519SOL    MW410124   1.961   3.682   4.418 -0.3359 -0.4537 -0.0811
 2520SOL     OW10125   3.151   1.960   4.564  0.0091  0.2006  0.6002
 2520SOL    HW210126   3.203   2.036   4.591  0.9356  0.0625 -0.7448
 2520SOL    HW310127   3.068   1.997   4.534  1.0437  0.8540 -1.5419
 2520SOL    MW410128   3.147   1.975   4.564  0.2680  0.2687  0.1402
 2521SOL     OW10129   2.036   3.865   4.191 -0.0526 -0.1316 -0.1106
 2521SOL    HW210130   2.011   3.790   4.245  2.3235 -0.2050  0.9785
 2521SOL    HW310131   2.024   3.834   4.101 -1.1928 -1.0507  0.3442
 2521SOL    MW410132   2.031   3.851   4.186  0.1104 -0.2625  0.0930
 2522SOL     OW10133   0.001   3.658   4.636 -0.3874  0.0924  0.2062
 2522SOL    HW210134  -0.093   3.662   4.620 -0.7206  0.1319  2.0818
 2522SOL    HW310135   0.014   3.573   4.678  0.1131  0.9375  1.7835
 2522SOL    MW410136  -0.010   3.647   4.639 -0.3653  0.2093  0.6614
 2523SOL     OW10137   1.780   4.217   4.138  0.2874 -0.4191 -0.1032
 2523SOL    HW210138   1.786   4.122   4.154  0.3296 -0.0614  2.1404
 2523SOL    HW310139   1.772   4.224   4.043 -1.3052 -2.7558 -0.1896
 2523SOL    MW410140   1.780   4.205   4.128  0.0830 -0.6804  0.1817
 2524SOL     OW10141   2.262   0.399   4.611 -0.3608 -0.2280 -0.3609
 2524SOL    HW210142   2.348   0.434   4.590  0.3847 -2.5080 -1.2369
 2524SOL    HW310143   2.200   0.463   4.575  0.9425  1.4708  0.3778
 2524SOL    MW410144   2.265   0.412   4.603 -0.0908 -0.3047 -0.3791
 2525SOL     OW10145   2.898   0.306   4.657 -0.2865  0.0579 -0.4451
 2525SOL    HW210146   2.911   0.398   4.635  0.3788  0.0160 -0.2247
 2525SOL    HW310147   2.818   0.282   4.610 -1.2884  1.1324  0.6960
 2525SOL    MW410148   2.889   0.315   4.648 -0.3309  0.1941 -0.2656
 2526SOL     OW10149   2.244   0.359   4.166  0.6522  0.0234 -0.2184
 2526SOL    HW210150   2.231   0.272   4.203  3.4468 -0.6285 -0.6247
 2526SOL    HW310151   2.259   0.343   4.072  0.2185  1.0262 -0.4607
 2526SOL    MW410152   2.244   0.345   4.158  0.9634  0.0697 -0.3037
 2527SOL     OW10153   1.587   0.776   4.642  0.1539  0.0883 -0.1953
 2527SOL    HW210154   1.580   0.682   4.629 -0.3399  0.3210 -1.6276
 2527SOL    HW310155   1.497   0.808   4.641  0.3130  0.5857  0.3325
 2527SOL    MW410156   1.574   0.768   4.640  0.1097  0.1846 -0.3152
 2528SOL     OW10157   2.670   0.400   4.186  0.8916  0.4326  0.2259
 2528SOL    HW210158   2.654   0.397   4.092  1.5899 -0.3682  0.1241
 2528SOL    HW310159   2.597   0.451   4.221  0.4111  0.3938 -0.6990
 2528SOL    MW410160   2.658   0.406   4.178  0.9203  0.3218  0.0906
 2529SOL     OW10161   2.401   0.801   4.185 -0.1649  0.4122 -0.1338
 2529SOL    HW210162   2.478   0.842   4.223  0.1884 -0.8962  0.5961
 2529SOL    HW310163   2.418   0.799   4.091  0.8701 -0.2335  0.0619
 2529SOL    MW410164   2.413   0.806   4.178  0.0181  0.1544 -0.0114
 2530SOL     OW10165   2.163   1.173   4.149  0.3552  0.1469 -0.4794
 2530SOL    HW210166   2.116   1.218   4.220 -0.1901 -0.1875 -0.6289
 2530SOL    HW310167   2.251   1.212   4.151  0.5812 -0.3891  0.8659
 2530SOL    MW410168   2.168   1.184   4.159  0.3130  0.0322 -0.3214
 2531SOL     OW10169   2.410   1.314   4.226 -0.3452  0.4186 -0.0139
 2531SOL    HW210170   2.395   1.330   4.319 -0.5862  1.9701 -0.3040
 2531SOL    HW310171   2.499   1.280   4.221 -0.4039  0.1505  0.8026
 2531SOL    MW410172   2.420   1.312   4.237 -0.3848  0.5881  0.0553
 2532SOL     OW10173   1.994   1.325   4.305  0.1213 -0.5431  0.1241
 2532SOL    HW210174   1.948   1.349   4.386 -0.3790 -2.2968  0.3900
 2532SOL    HW310175   2.008   1.408   4.260 -0.7315  0.3286  1.4177
 2532SOL    MW410176   1.989   1.339   4.310 -0.0573 -0.6596  0.3300
 2533SOL     OW10177   2.480   1.752   4.614 -1.1357  0.9675  0.4033
 2533SOL    HW210178   2.497   1.710   4.698 -0.2910  0.7792  0.1506
 2533SOL    HW310179   2.519   1.692   4.549  0.7079  2.4451  0.0884
 2533SOL    MW410180   2.488   1.738   4.616 -0.7813  1.1376  0.3285
 2534SOL     OW10181   2.249   1.723   4.203  0.1778  0.0013  0.2802
 2534SOL    HW210182   2.304   1.666   4.150 -0.0118 -0.6929  0.8128
 2534SOL    HW310183   2.263   1.811   4.168  0.1643 -0.4272 -0.8091
 2534SOL    MW410184   2.258   1.727   4.192  0.1509 -0.1469  0.2079
 2535SOL     OW10185   1.600   0.491   4.514 -0.0689 -0.4718  0.3228
 2535SOL    HW210186   1.691   0.475   4.540 -0.0260 -0.0136  0.4521
 2535SOL    HW310187   1.605   0.507   4.420  0.3593  2.4641  0.8159
 2535SOL    MW410188   1.613   0.491   4.505 -0.0066 -0.0239  0.4053
 2536SOL     OW10189   2.665   1.648   4.270 -0.0965 -0.0978  0.3230
 2536SOL    HW210190   2.585   1.612   4.233  0.3040 -0.6508  0.0009
 2536SOL    HW310191   2.735   1.612   4.216  0.3753  0.3100  0.6651
 2536SOL    MW410192   2.664   1.639   4.258  0.0186 -0.1168  0.3247
 2537SOL     OW10193   1.955   2.271   4.168  0.4138  0.1261  0.1906
 2537SOL    HW210194   1.949   2.179   4.193 -0.7410 -0.3626 -1.7483
 2537SOL    HW310195   1.866   2.296   4.146  1.0711  1.0194 -1.5903
 2537SOL    MW410196   1.943   2.262   4.168  0.3481  0.1795 -0.3004
 2538SOL     OW10197   0.169   1.822   4.612 -0.0934  0.0975  0.3813
 2538SOL    HW210198   0.106   1.766   4.567  0.6236  0.3868 -1.0130
 2538SOL    HW310199   0.255   1.787   4.586  0.3321  0.8415  0.7763
 2538SOL    MW410200   0.172   1.810   4.602  0.0573  0.2338  0.2494
 2539SOL     OW10201   2.476   2.348   4.228 -0.2975 -0.2224 -0.0508
 2539SOL    HW210202   2.386   2.374   4.245  0.3316  1.4359  0.9751
 2539SOL    HW310203   2.478   2.324   4.135 -1.7416 -0.0740 -0.1221
 2539SOL    MW410204   2.465   2.349   4.218 -0.4051  0.0162  0.0753
 2540SOL     OW10205   1.511   3.533   4.565  0.2942  0.5097  0.6404
 2540SOL    HW210206   1.457   3.604   4.600 -0.5448  0.5426 -0.6625
 2540SOL    HW310207   1.508   3.546   4.470  2.2473  0.2436  0.5383
 2540SOL    MW410208   1.503   3.544   4.557  0.4413  0.4790  0.4549
 2541SOL     OW10209   2.728   3.242   4.183  0.6577 -0.2657  0.7993
 2541SOL    HW210210   2.640   3.219   4.153 -0.0610  2.2389  0.8863
 2541SOL    HW310211   2.779   3.162   4.171 -0.4710 -0.4617 -3.6481
 2541SOL    MW410212   2.723   3.228   4.178  0.4139  0.0389  0.2241
 2542SOL     OW10213   0.860   4.002   4.315 -0.0398 -0.0074 -0.3117
 2542SOL    HW210214   0.942   3.953   4.309  0.6470  1.1314 -0.2323
 2542SOL    HW310215   0.805   3.964   4.246  0.8631 -0.1860 -0.9394
 2542SOL    MW410216   0.863   3.990   4.305  0.1700  0.1192 -0.3843
 2543SOL     OW10217   1.509   3.588   4.273  0.2289 -0.0013 -0.6075
 2543SOL    HW210218   1.430   3.538   4.250 -0.5099  0.6013  0.6213
 2543SOL    HW310219   1.581   3.527   4.255 -0.6438 -1.3854  0.4939
 2543SOL    MW410220   1.509   3.573   4.268  0.0163 -0.1044 -0.3004
 2544SOL     OW10221   2.358   3.455   4.128 -0.2936 -0.4033  0.0578
 2544SOL    HW210222   2.285   3.426   4.181 -0.2820 -0.6352 -0.0515
 2544SOL    HW310223   2.411   3.509   4.186 -1.9935  2.0684 -0.6063
 2544SOL    MW410224   2.356   3.458   4.142 -0.5162 -0.1078 -0.0448
 2545SOL     OW10225   2.649   4.242   4.113  0.1056  0.2837 -0.1393
 2545SOL    HW210226   2.664   4.239   4.019  0.4355 -1.1554 -0.0591
 2545SOL    HW310227   2.721   4.296   4.147  0.4669  0.1103 -0.6221
 2545SOL    MW410228   2.661   4.249   4.105  0.1967  0.0710 -0.1926
 2546SOL     OW10229   2.258   4.011   4.277  0.1296  0.0007 -0.1999
 2546SOL    HW210230   2.185   3.950   4.264  0.2996 -0.5392  1.3011
 2546SOL    HW310231   2.272   4.013   4.371  0.1295  2.3838 -0.2028
 2546SOL    MW410232   2.250   4.003   4.288  0.1519  0.2441 -0.0019
 2547SOL     OW10233   2.202   4.238   4.137  0.1233 -0.6295 -0.4555
 2547SOL    HW210234   2.133   4.282   4.186 -1.1904 -0.4438 -2.4104
 2547SOL    HW310235   2.221   4.160   4.188 -1.8460 -0.9020 -0.0891
 2547SOL    MW410236   2.195   4.234   4.150 -0.3097 -0.6409 -0.6652
 2548SOL     OW10237   1.136   2.695   4.599 -0.2257 -0.0562  0.0134
 2548SOL    HW210238   1.216   2.674   4.646 -0.5876 -1.7690 -0.1214
 2548SOL    HW310239   1.162   2.695   4.506 -0.0087  1.1393  0.0590
 2548SOL    MW410240   1.150   2.692   4.593 -0.2447 -0.1247  0.0014
 2549SOL     OW10241   2.911   0.020   4.149  0.0209  0.2229  0.0760
 2549SOL    HW210242   2.994   0.053   4.184  0.2267  0.6609 -0.8033
 2549SOL    HW310243   2.845   0.080   4.184  0.2777  0.9436 -0.6478
 2549SOL    MW410244   2.914   0.032   4.158  0.0820  0.3757 -0.1359
 2550SOL     OW10245   2.689   0.137   4.272 -0.6093 -0.6187 -0.0838
 2550SOL    HW210246   2.677   0.228   4.245 -1.1093 -1.0332 -1.2949
 2550SOL    HW310247   2.606   0.095   4.248  0.3759 -1.8362 -1.4228
 2550SOL    MW410248   2.676   0.144   4.265 -0.5453 -0.8340 -0.4201
 2551SOL     OW10249   3.388   0.523   4.292 -0.3113  0.2007 -0.3997
 2551SOL    HW210250   3.471   0.478   4.276 -0.3320  0.1879 -0.4722
 2551SOL    HW310251   3.384   0.532   4.387 -0.1907  0.2688 -0.3996
 2551SOL    MW410252   3.399   0.518   4.302 -0.2983  0.2080 -0.4096
 2552SOL     OW10253   2.536   4.662   4.638 -0.5755  0.0309 -0.1797
 2552SOL    HW210254   2.529   4.578   4.594 -0.2620 -0.2303  0.2687
 2552SOL    HW310255   2.615   4.655   4.691 -0.7624  0.4671  0.1581
 2552SOL    MW410256   2.545   4.650   4.639 -0.5589  0.0540 -0.0763
 2553SOL     OW10257   0.966   0.205   4.523 -0.0867  0.0121  0.2268
 2553SOL    HW210258   1.028   0.135   4.544 -0.6097 -0.1216  1.3574
 2553SOL    HW310259   0.922   0.175   4.444  0.9887 -0.0898 -0.3346
 2553SOL    MW410260   0.968   0.192   4.516 -0.0138 -0.0190  0.3018
 2554SOL     OW10261   0.023   3.220   4.274 -0.2426 -0.2654 -0.5648
 2554SOL    HW210262   0.010   3.219   4.369 -0.5080  0.8359 -0.5821
 2554SOL    HW310263  -0.006   3.308   4.247  1.6583  0.1358 -1.4011
 2554SOL    MW410264   0.018   3.232   4.283 -0.0277 -0.0675 -0.6781
 2555SOL     OW10265   2.669   1.207   4.152 -0.1543 -0.7090  0.4232
 2555SOL    HW210266   2.654   1.120   4.189 -0.0709 -1.0569 -0.3610
 2555SOL    HW310267   2.670   1.193   4.057 -0.5629  0.2119  0.2819
 2555SOL    MW410268   2.667   1.194   4.144 -0.1969 -0.6335  0.3014
 2556SOL     OW10269   2.928   1.315   4.245  0.5943  0.5191 -0.6017
 2556SOL    HW210270   2.985   1.247   4.208 -0.3063 -1.0610  0.8213
 2556SOL    HW310271   2.840   1.283   4.227  0.1635  0.7864  1.0263
 2556SOL    MW410272   2.924   1.302   4.238  0.4189  0.3458 -0.1993
 2557SOL     OW10273   0.684   2.626   4.615  0.1200 -0.0562  0.3503
 2557SOL    HW210274   0.655   2.716   4.603  0.6590  0.0838  0.0460
 2557SOL    HW310275   0.610   2.572   4.588 -0.2535  0.2971  0.6670
 2557SOL    MW410276   0.671   2.631   4.610  0.1419  0.0086  0.3514
 2558SOL     OW10277   1.416   2.924   4.423  0.2430 -0.3949 -0.6114
 2558SOL    HW210278   1.393   2.960   4.509  0.1707  0.5840 -1.0324
 2558SOL    HW310279   1.454   2.838   4.442  0.1918 -0.1997  0.3937
 2558SOL    MW410280   1.418   2.917   4.437  0.2267 -0.2401 -0.5350
 2559SOL     OW10281   2.499   0.475   4.511  0.0890 -0.3024  0.1245
 2559SOL    HW210282   2.460   0.493   4.425 -0.3482 -0.2059  0.3473
 2559SOL    HW310283   2.555   0.399   4.495  0.8206  0.3474 -0.4848
 2559SOL    MW410284   2.501   0.467   4.497  0.1283 -0.2039  0.0734
 2560SOL     OW10285   3.331   4.455   4.569  0.2504 -0.3665 -0.1566
 2560SOL    HW210286   3.345   4.420   4.481 -0.5237 -0.7678 -0.1212
 2560SOL    HW310287   3.322   4.378   4.625  2.4613 -0.1389  0.5686
 2560SOL    MW410288   3.332   4.441   4.565  0.4401 -0.3896 -0.0563
 2561SOL     OW10289   2.904   2.350   4.173  0.5614  0.2856 -0.1274
 2561SOL    HW210290   2.909   2.262   4.210 -1.0392  0.8067  1.3782
 2561SOL    HW310291   2.988   2.391   4.197  0.3469 -0.0439  1.2229
 2561SOL    MW410292   2.916   2.344   4.181  0.3219  0.3109  0.2494
 2562SOL     OW10293   3.860   1.408   4.585 -0.1780 -0.1286 -0.0060
 2562SOL    HW210294   3.771   1.397   4.619  0.5300  0.6408  2.1587
 2562SOL    HW310295   3.901   1.323   4.600 -0.8677 -0.8835 -2.1266
 2562SOL    MW410296   3.853   1.395   4.591 -0.1757 -0.1266 -0.0005
 2563SOL     OW10297   2.690   2.505   4.272  0.5179 -0.1401  0.0599
 2563SOL    HW210298   2.768   2.469   4.230 -0.1175  0.1344 -1.4230
 2563SOL    HW310299   2.624   2.437   4.262  0.5159 -0.3114  1.1755
 2563SOL    MW410300   2.692   2.491   4.265  0.4337 -0.1264  0.0114
 2564SOL     OW10301   0.553   3.363   4.553  0.3565  0.1533 -0.0663
 2564SOL    HW210302   0.560   3.459   4.548 -0.6834  0.2545  0.3794
 2564SOL    HW310303   0.644   3.333   4.558  0.7274  1.0663 -1.1128
 2564SOL    MW410304   0.566   3.372   4.553  0.2682  0.2871 -0.1459
 2565SOL     OW10305   2.945   3.038   4.149  0.4451  0.3137 -0.1999
 2565SOL    HW210306   2.921   2.951   4.181 -0.0564  1.0596  1.5276
 2565SOL    HW310307   2.930   3.034   4.055 -1.6927 -0.7983  0.1556
 2565SOL    MW410308   2.940   3.026   4.141  0.0966  0.2656  0.0744
 2566SOL     OW10309   4.281   4.088   4.605 -0.3165 -0.0780 -0.4942
 2566SOL    HW210310   4.283   4.178   4.573  0.5215 -0.6898 -2.2220
 2566SOL    HW310311   4.361   4.048   4.570 -0.3570 -1.3220  0.7731
 2566SOL    MW410312   4.292   4.094   4.596 -0.2112 -0.3233 -0.5550
 2567SOL     OW10313   2.920   3.895   4.138 -0.3910 -0.3926  0.2056
 2567SOL    HW210314   2.924   3.807   4.175 -1.0135 -0.3660  0.3486
 2567SOL    HW310315   2.845   3.936   4.182  0.3763  0.4751  0.7065
 2567SOL    MW410316   2.910   3.889   4.148 -0.3717 -0.2747  0.2904
 2568SOL     OW10317   2.907   2.350   4.638 -0.2465  0.0090 -0.5408
 2568SOL    HW210318   2.854   2.418   4.595 -0.6601 -0.3725 -0.6382
 2568SOL    HW310319   2.997   2.372   4.613 -0.5189 -0.5335 -2.1033
 2568SOL    MW410320   2.912   2.362   4.629 -0.3369 -0.1130 -0.7596
 2569SOL     OW10321   2.965   3.651   4.266 -0.5802  0.1827  0.3883
 2569SOL    HW210322   2.976   3.638   4.360  0.5643  1.1844  0.4054
 2569SOL    HW310323   3.027   3.591   4.226  0.2810  1.0976  0.3274
 2569SOL    MW410324   2.975   3.642   4.273 -0.3154  0.4358  0.3829
 2570SOL     OW10325   2.474   3.857   4.147  0.4579 -0.3649  0.3675
 2570SOL    HW210326   2.460   3.859   4.052  1.3546  0.4961  0.2533
 2570SOL    HW310327   2.402   3.910   4.182  0.5901 -0.0054  0.1071
 2570SOL    MW410328   2.462   3.864   4.139  0.5937 -0.2038  0.3181
 2571SOL     OW10329   2.484   4.666   4.160 -0.1755  0.0220  0.1798
 2571SOL    HW210330   2.470   4.573   4.176 -0.3616 -0.3089 -1.7767
 2571SOL    HW310331   2.409   4.709   4.203 -1.0861 -0.8818 -0.4712
 2571SOL    MW410332   2.472   4.659   4.168 -0.3202 -0.1409 -0.1640
 2572SOL     OW10333   2.681   1.477   4.523  0.2134 -0.1664  0.0789
 2572SOL    HW210334   2.768   1.441   4.542 -0.7277 -3.0469 -0.7445
 2572SOL    HW310335   2.697   1.543   4.456  1.6931 -1.2029 -0.6279
 2572SOL    MW410336   2.695   1.481   4.517  0.2847 -0.6833 -0.1221
 2573SOL     OW10337   2.400   1.370   4.531  0.0056 -0.2706  0.1094
 2573SOL    HW210338   2.490   1.402   4.544 -0.2428  0.2960  0.4303
 2573SOL    HW310339   2.410   1.274   4.528  0.7124 -0.1823 -0.5874
 2573SOL    MW410340   2.413   1.361   4.532  0.0660 -0.1843  0.0601
 2574SOL     OW10341   3.142   0.119   4.282 -0.2394 -0.5243 -0.2753
 2574SOL    HW210342   3.173   0.197   4.236 -1.1139 -0.4821 -0.8008
 2574SOL    HW310343   3.130   0.148   4.373 -1.6982  0.2792 -0.7071
 2574SOL    MW410344   3.145   0.133   4.288 -0.5472 -0.4128 -0.4020
 2575SOL     OW10345   3.185   0.361   4.170  0.1748  0.0741 -0.1198
 2575SOL    HW210346   3.105   0.394   4.211  0.3466  0.2815  0.0463
 2575SOL    HW310347   3.255   0.417   4.205  0.4920 -0.6040  0.3305
 2575SOL    MW410348   3.183   0.373   4.180  0.2394  0.0120 -0.0391
 2576SOL     OW10349   0.077   3.435   4.792  0.3222 -0.2913 -0.7108
 2576SOL    HW210350   0.028   3.381   4.854  0.7008  0.5997  0.4005
 2576SOL    HW310351   0.133   3.373   4.745  1.2004 -0.8177  0.9729
 2576SOL    MW410352   0.078   3.420   4.794  0.4881 -0.2434 -0.3424
 2577SOL     OW10353   3.508   4.052   4.563 -0.4346 -0.2962 -0.3055
 2577SOL    HW210354   3.529   4.022   4.475 -1.0505 -0.5453 -0.3629
 2577SOL    HW310355   3.532   3.979   4.620 -0.4585 -0.3004 -0.3005
 2577SOL    MW410356   3.514   4.039   4.559 -0.5188 -0.3300 -0.3123
 2578SOL     OW10357   1.720   2.754   4.142  0.7066  0.4551  0.1141
 2578SOL    HW210358   1.678   2.682   4.189  2.2688 -1.0512 -0.7051
 2578SOL    HW310359   1.667   2.831   4.163 -3.0073 -1.4859 -1.5788
 2578SOL    MW410360   1.707   2.754   4.151  0.4226  0.0005 -0.2174
 2579SOL     OW10361   3.110   1.124   4.178  0.0003 -0.1787  0.1037
 2579SOL    HW210362   3.174   1.183   4.215 -0.2167  0.1120  0.0185
 2579SOL    HW310363   3.120   1.134   4.083 -0.5608  0.2980  0.0897
 2579SOL    MW410364   3.119   1.133   4.170 -0.1023 -0.0774  0.0911
 2580SOL     OW10365   3.870   0.776   4.190 -0.2218 -0.0033  0.1989
 2580SOL    HW210366   3.854   0.685   4.218  1.3958  0.1549  1.6985
 2580SOL    HW310367   3.787   0.821   4.209 -0.1613 -0.5876  2.0061
 2580SOL    MW410368   3.857   0.770   4.196 -0.0005 -0.0595  0.6351
 2581SOL     OW10369   3.325   1.564   4.156  0.0103 -0.2458  0.0126
 2581SOL    HW210370   3.404   1.611   4.185 -0.6944  1.4102 -0.7133
 2581SOL    HW310371   3.330   1.566   4.061 -0.6037 -0.6851 -0.0266
 2581SOL    MW410372   3.336   1.570   4.147 -0.1636 -0.0852 -0.0882
 2582SOL     OW10373   2.925   1.574   4.155  0.6951 -0.0503 -0.8667
 2582SOL    HW210374   2.940   1.483   4.181  1.5432  0.1346 -0.6700
 2582SOL    HW310375   2.992   1.623   4.203 -0.8919  0.8951  0.4198
 2582SOL    MW410376   2.936   1.569   4.165  0.5975  0.0988 -0.6704
 2583SOL     OW10377   3.364   1.167   4.577 -0.2497 -0.3021 -0.3110
 2583SOL    HW210378   3.314   1.244   4.551  0.3823  0.6988  1.3141
 2583SOL    HW310379   3.299   1.104   4.606 -0.7604 -0.3038 -1.4483
 2583SOL    MW410380   3.349   1.169   4.577 -0.2339 -0.1702 -0.2465
 2584SOL     OW10381   2.970   3.912   4.587 -0.2752  0.3271 -0.5398
 2584SOL    HW210382   2.986   3.822   4.561 -0.4813  0.0987  0.1164
 2584SOL    HW310383   3.009   3.919   4.674 -0.6668  0.7390 -0.3948
 2584SOL    MW410384   2.977   3.901   4.595 -0.3541  0.3514 -0.4349
 2585SOL     OW10385   3.387   2.342   4.158 -0.0466  0.5115 -0.2210
 2585SOL    HW210386   3.383   2.253   4.193 -0.8111  0.5871 -0.1117
 2585SOL    HW310387   3.377   2.331   4.063  0.2233  0.4537 -0.2437
 2585SOL    MW410388   3.385   2.329   4.150 -0.1118  0.5140 -0.2098
 2586SOL     OW10389   3.158   2.448   4.281  0.0016  0.3471  0.0800
 2586SOL    HW210390   3.236   2.408   4.244  0.3622  1.1143  0.0113
 2586SOL    HW310391   3.145   2.528   4.231 -0.2740  0.7145  0.7303
 2586SOL    MW410392   3.166   2.453   4.270  0.0131  0.4969  0.1569
 2587SOL     OW10393   3.088   2.666   4.131  0.0233  0.2185 -0.5289
 2587SOL    HW210394   3.167   2.701   4.172  0.2223 -2.7117  1.6781
 2587SOL    HW310395   3.016   2.703   4.182  0.1105 -0.1552 -0.1359
 2587SOL    MW410396   3.089   2.676   4.143  0.0613 -0.2174 -0.1860
 2588SOL     OW10397   3.294   2.787   4.280  0.0858  0.2135 -0.4378
 2588SOL    HW210398   3.261   2.808   4.367  3.1479  0.8797  0.6187
 2588SOL    HW310399   3.311   2.872   4.239 -0.5514 -0.1036 -1.3712
 2588SOL    MW410400   3.292   2.801   4.286  0.4060  0.2596 -0.4210
 2589SOL     OW10401   3.321   3.058   4.194  0.5782  0.3719  0.1451
 2589SOL    HW210402   3.248   3.098   4.242  0.3173 -0.0242  0.0883
 2589SOL    HW310403   3.299   3.073   4.102 -0.3167 -1.2527  0.0768
 2589SOL    MW410404   3.308   3.065   4.188  0.4256  0.1049  0.1283
 2590SOL     OW10405   3.101   3.208   4.293  0.0312  0.2579  0.0119
 2590SOL    HW210406   3.048   3.141   4.251 -0.6065  0.1124  1.0234
 2590SOL    HW310407   3.081   3.200   4.386  1.7479  0.2773  0.4094
 2590SOL    MW410408   3.091   3.198   4.300  0.1736  0.2413  0.1969
 2591SOL     OW10409   3.135   3.461   4.161 -0.3038  0.0585  0.1732
 2591SOL    HW210410   3.127   3.378   4.209 -0.8492 -0.0441 -0.0960
 2591SOL    HW310411   3.118   3.438   4.070  1.7225  0.0841 -0.2239
 2591SOL    MW410412   3.132   3.447   4.156 -0.1085  0.0484  0.0854
 2592SOL     OW10413   0.631   3.083   4.154  0.1819  0.3514  0.3625
 2592SOL    HW210414   0.708   3.125   4.193 -0.0875  1.2226 -0.0249
 2592SOL    HW310415   0.557   3.131   4.191 -0.1819 -0.5766  0.8420
 2592SOL    MW410416   0.632   3.095   4.164  0.0984  0.3443  0.3743
 2593SOL     OW10417   3.129   4.319   4.118 -0.2483 -0.0602  0.2819
 2593SOL    HW210418   3.129   4.223   4.125  0.0935  0.0610  2.3513
 2593SOL    HW310419   3.040   4.344   4.143  0.1081  0.2348  1.2811
 2593SOL    MW410420   3.117   4.309   4.122 -0.1564 -0.0052  0.6866
 2594SOL     OW10421   4.485   0.945   4.282 -0.5973  0.1573  0.2014
 2594SOL    HW210422   4.566   0.904   4.253  0.2600  2.1046 -0.2401
 2594SOL    HW310423   4.493   0.950   4.377 -1.0220 -1.3256  0.3212
 2594SOL    MW410424   4.497   0.940   4.290 -0.5402  0.2185  0.1588
 2595SOL     OW10425   2.682   4.026   4.264  0.0598  0.1944  0.0606
 2595SOL    HW210426   2.668   4.093   4.197 -0.6616  0.1708  0.1791
 2595SOL    HW310427   2.611   3.963   4.249 -0.7955  0.7823  1.5621
 2595SOL    MW410428   2.671   4.026   4.253 -0.1481  0.2694  0.2737
 2596SOL     OW10429   2.407   2.816   4.294  0.3139 -0.1096 -0.1228
 2596SOL    HW210430   2.354   2.895   4.300  0.4061  0.0302 -1.0248
 2596SOL    HW310431   2.444   2.805   4.381 -2.6344 -1.2129  1.0588
 2596SOL    MW410432   2.405   2.825   4.306 -0.0629 -0.2365 -0.0858
 2597SOL     OW10433   4.067   0.380   4.189  0.3661 -0.2620 -0.1299
 2597SOL    HW210434   4.072   0.299   4.240  3.3526  1.5625  2.6669
 2597SOL    HW310435   4.136   0.435   4.226 -0.9275  3.1692 -2.6640
 2597SOL    MW410436   4.077   0.376   4.201  0.5894  0.4314 -0.0954
 2598SOL     OW10437   3.187   3.307   4.788 -0.4376  0.4002 -0.0563
 2598SOL    HW210438   3.251   3.265   4.845 -1.2378 -0.8645 -0.0771
 2598SOL    HW310439   3.103   3.297   4.835 -0.8073  0.9757 -0.5912
 2598SOL    MW410440   3.184   3.300   4.802 -0.5920  0.3092 -0.1302
 2599SOL     OW10441   4.477   3.480   4.143 -0.6355 -0.1151  0.1422
 2599SOL    HW210442   4.403   3.537   4.166  0.3237  1.2965 -0.2149
 2599SOL    HW310443   4.476   3.478   4.048  0.5000  0.8528  0.1118
 2599SOL    MW410444   4.467   3.487   4.134 -0.3591  0.1991  0.0906
 2600SOL     OW10445   1.393   0.328   4.573 -0.3189 -0.3411  0.1206
 2600SOL    HW210446   1.311   0.369   4.546  0.0745  0.0440 -0.5042
 2600SOL    HW310447   1.460   0.391   4.549  0.2509 -1.1283 -0.3813
 2600SOL    MW410448   1.391   0.341   4.567 -0.1919 -0.3941 -0.0281
 2601SOL     OW10449   4.290   0.799   4.661  0.4942 -0.5504 -0.5157
 2601SOL    HW210450   4.314   0.718   4.616  0.0197  0.5057 -2.7677
 2601SOL    HW310451   4.212   0.830   4.615 -0.0783  0.5280  1.1448
 2601SOL    MW410452   4.283   0.793   4.649  0.3562 -0.2688 -0.5941
 2602SOL     OW10453   2.391   3.254   4.533  0.1249  0.3127  0.3053
 2602SOL    HW210454   2.392   3.350   4.538  1.5208  0.3281 -0.2026
 2602SOL    HW310455   2.468   3.231   4.481  0.6974 -1.1606  1.7503
 2602SOL    MW410456   2.401   3.264   4.527  0.3848  0.1206  0.4287
 2603SOL     OW10457   1.386   2.645   4.710 -0.0519  0.1282  0.0386
 2603SOL    HW210458   1.430   2.641   4.624 -0.6354  0.2192 -0.2649
 2603SOL    HW310459   1.446   2.695   4.765  0.0905  0.5042 -0.4566
 2603SOL    MW410460   1.400   2.651   4.706 -0.1101  0.1898 -0.0668
 2604SOL     OW10461   3.555   1.173   4.157 -0.1904  0.1473  0.2641
 2604SOL    HW210462   3.628   1.225   4.190  0.7949 -0.7574 -0.4769
 2604SOL    HW310463   3.561   1.181   4.062 -0.5104 -0.6639  0.1715
 2604SOL    MW410464   3.565   1.181   4.149 -0.1025 -0.0792  0.1540
 2605SOL     OW10465   3.583   1.360   4.597  0.6326  0.1546 -0.2527
 2605SOL    HW210466   3.514   1.298   4.622  0.9909  0.0820  0.5918
 2605SOL    HW310467   3.536   1.440   4.573  0.2689  0.3012  0.8945
 2605SOL    MW410468   3.568   1.363   4.597  0.6318  0.1645  0.0100
 2606SOL     OW10469   0.232   3.076   4.211  0.7761 -0.1192  0.5098
 2606SOL    HW210470   0.307   3.130   4.239  0.2671  0.1930  1.2943
 2606SOL    HW310471   0.156   3.133   4.222  0.4090 -0.4747 -0.1784
 2606SOL    MW410472   0.232   3.091   4.216  0.6605 -0.1247  0.5226
 2607SOL     OW10473   2.900   4.337   4.456  0.1235 -0.0456 -0.1945
 2607SOL    HW210474   2.971   4.273   4.467 -0.7970 -1.0562 -0.0836
 2607SOL    HW310475   2.935   4.418   4.493  0.9644 -0.7239  0.5284
 2607SOL    MW410476   2.914   4.339   4.463  0.1132 -0.2680 -0.0844
 2608SOL     OW10477   4.284   4.639   4.235  0.2523 -0.1900 -0.0682
 2608SOL    HW210478   4.359   4.674   4.282 -0.7575  0.7432  0.8667
 2608SOL    HW310479   4.213   4.700   4.253 -0.4026 -0.3488 -2.0224
 2608SOL    MW410480   4.284   4.651   4.243  0.0329 -0.0873 -0.2027
 2609SOL     OW10481   3.847   2.341   4.219  0.5422 -0.1980 -0.0270
 2609SOL    HW210482   3.843   2.330   4.123 -0.6613 -1.0656  0.1063
 2609SOL    HW310483   3.765   2.384   4.241  0.6011 -0.4551  0.6809
 2609SOL    MW410484   3.836   2.345   4.209  0.3912 -0.3464  0.0844
 2610SOL     OW10485   2.648   0.971   4.708  0.1739 -0.5183 -0.0709
 2610SOL    HW210486   2.733   1.016   4.708 -0.7347  1.2540  1.2595
 2610SOL    HW310487   2.625   0.963   4.801 -1.6344  0.0330 -0.4492
 2610SOL    MW410488   2.656   0.976   4.720 -0.1845 -0.2118  0.0544
 2611SOL     OW10489   3.575   2.755   4.193  0.1481 -0.3189  0.3420
 2611SOL    HW210490   3.564   2.729   4.102  1.8626  0.9166 -0.2512
 2611SOL    HW310491   3.487   2.756   4.229 -0.4266 -2.1179 -0.9259
 2611SOL    MW410492   3.562   2.752   4.186  0.2987 -0.3936  0.0963
 2612SOL     OW10493   3.989   2.682   4.197  0.0292 -0.0316  0.2181
 2612SOL    HW210494   3.992   2.603   4.251  1.4554  0.2913  0.6323
 2612SOL    HW310495   3.922   2.736   4.239 -0.3534 -0.6606  0.4331
 2612SOL    MW410496   3.981   2.679   4.210  0.1669 -0.0722  0.3014
 2613SOL     OW10497   3.542   3.203   4.259  0.3607 -0.1364 -0.2615
 2613SOL    HW210498   3.463   3.156   4.231  0.3796 -0.4670  0.2318
 2613SOL    HW310499   3.614   3.146   4.235  0.3693 -0.4817  0.5768
 2613SOL    MW410500   3.541   3.190   4.252  0.3645 -0.2255 -0.0854
 2614SOL     OW10501   3.593   3.455   4.174 -0.0643  0.3512  0.4924
 2614SOL    HW210502   3.515   3.503   4.200  0.3719  0.4641  1.5801
 2614SOL    HW310503   3.573   3.363   4.193 -0.0970  0.3326  0.3692
 2614SOL    MW410504   3.580   3.449   4.180 -0.0110  0.3636  0.6199
 2615SOL     OW10505   1.691   3.314   4.574  0.4299  0.2212 -0.6075
 2615SOL    HW210506   1.618   3.376   4.578 -0.9553 -1.3290 -0.9646
 2615SOL    HW310507   1.766   3.362   4.609 -0.7321  1.8928 -0.3404
 2615SOL    MW410508   1.691   3.328   4.579  0.0937  0.2372 -0.6194
 2616SOL     OW10509   3.809   2.847   4.288 -0.1649  0.3285 -0.5790
 2616SOL    HW210510   3.826   2.933   4.249  1.2031  0.2425 -0.2150
 2616SOL    HW310511   3.722   2.823   4.257  0.9964  0.1271 -3.8356
 2616SOL    MW410512   3.800   2.855   4.279  0.1688  0.2906 -0.9603
 2617SOL     OW10513   3.807   3.840   4.176  0.1251 -0.2644 -0.1784
 2617SOL    HW210514   3.793   3.758   4.223 -0.6693  0.5454  1.0110
 2617SOL    HW310515   3.893   3.869   4.204  0.3828 -0.6597 -0.5558
 2617SOL    MW410516   3.816   3.833   4.186  0.0539 -0.2096 -0.0710
 2618SOL     OW10517   0.152   2.759   4.568  0.1560 -0.5626  0.4056
 2618SOL    HW210518   0.176   2.793   4.481 -2.0181  0.4718  0.1661
 2618SOL    HW310519   0.177   2.667   4.566  0.9001 -0.3441 -1.0242
 2618SOL    MW410520   0.158   2.752   4.556 -0.0327 -0.3972  0.1845
 2619SOL     OW10521   3.848   0.003   4.204 -0.4155  0.0254  0.4175
 2619SOL    HW210522   3.861  -0.007   4.110  1.1183  0.2233  0.6083
 2619SOL    HW310523   3.765   0.051   4.211  0.0453  1.0362 -0.8635
 2619SOL    MW410524   3.838   0.008   4.192 -0.1523  0.1841  0.2742
 2620SOL     OW10525   1.108   3.980   4.592 -0.2771 -0.3844 -0.2471
 2620SOL    HW210526   1.113   3.884   4.584 -0.4583 -0.2066 -2.9928
 2620SOL    HW310527   1.014   3.999   4.597 -0.3154 -0.2828 -1.1649
 2620SOL    MW410528   1.096   3.970   4.592 -0.3061 -0.3476 -0.7305
 2621SOL     OW10529   1.083   4.380   4.286  0.0354  0.0547 -0.0835
 2621SOL    HW210530   1.152   4.330   4.240 -0.2848 -0.9548  0.5118
 2621SOL    HW310531   1.112   4.381   4.377 -0.4430  0.1279  0.0675
 2621SOL    MW410532   1.096   4.373   4.292 -0.0700 -0.0691  0.0148
 2622SOL     OW10533   1.747   0.950   4.506  0.3284 -0.0662 -0.0991
 2622SOL    HW210534   1.738   1.018   4.573  0.6437  0.9843 -1.0965
 2622SOL    HW310535   1.690   0.879   4.535 -0.3649  0.8194  0.7282
 2622SOL    MW410536   1.738   0.950   4.519  0.2785  0.1892 -0.1221
 2623SOL     OW10537   1.097   4.276   4.899  0.0576  0.3299 -0.3192
 2623SOL    HW210538   1.055   4.342   4.954 -1.0709 -1.1199  0.5902
 2623SOL    HW310539   1.053   4.284   4.814 -1.8135 -0.8630  0.4910
 2623SOL    MW410540   1.086   4.286   4.895 -0.3382 -0.0186 -0.0925
 2624SOL     OW10541   3.599   4.011   4.269 -0.1939 -0.0899  0.1228
 2624SOL    HW210542   3.521   3.971   4.232 -0.1417  0.0849 -0.1755
 2624SOL    HW310543   3.672   3.963   4.229 -0.1154  0.7767 -0.7829
 2624SOL    MW410544   3.599   3.999   4.259 -0.1767  0.0470 -0.0362
 2625SOL     OW10545   4.279   0.533   4.278  0.4912 -0.6637 -0.1936
 2625SOL    HW210546   4.287   0.613   4.226 -1.1917 -0.6923 -0.5400
 2625SOL    HW310547   4.329   0.550   4.358  1.0482  0.3155 -0.7466
 2625SOL    MW410548   4.287   0.546   4.282  0.3424 -0.5383 -0.3123
 2626SOL     OW10549   2.953   0.558   4.557  0.2666  0.4188  0.2038
 2626SOL    HW210550   2.871   0.604   4.577  0.5281  0.8038  0.3862
 2626SOL    HW310551   2.938   0.520   4.470 -0.7727 -1.0379  0.9841
 2626SOL    MW410552   2.940   0.559   4.548  0.1640  0.2775  0.3304
 2627SOL     OW10553   3.128   1.718   4.262  0.0091  0.0173 -0.2673
 2627SOL    HW210554   3.147   1.705   4.355 -1.6070 -0.5733  0.0023
 2627SOL    HW310555   3.197   1.669   4.216  0.2234 -0.5294  0.6357
 2627SOL    MW410556   3.139   1.710   4.268 -0.1760 -0.1328 -0.1125
 2628SOL     OW10557   4.232   1.553   4.149  0.7079 -0.1544 -0.0114
 2628SOL    HW210558   4.248   1.553   4.055 -1.1210  1.4445 -0.3418
 2628SOL    HW310559   4.210   1.462   4.170  0.5619 -0.4044 -1.2217
 2628SOL    MW410560   4.231   1.541   4.139  0.4473  0.0236 -0.2146
 2629SOL     OW10561   0.928   0.579   4.638  0.0971  0.4540  0.4500
 2629SOL    HW210562   0.993   0.531   4.586 -0.3754  0.5441 -0.2380
 2629SOL    HW310563   0.953   0.563   4.729  0.7261 -0.0083  0.2004
 2629SOL    MW410564   0.940   0.570   4.643  0.1177  0.4050  0.3266
 2630SOL     OW10565   3.800   2.082   4.308 -0.1791 -0.1322  0.3449
 2630SOL    HW210566   3.729   2.044   4.256 -0.0864 -0.3727  0.3919
 2630SOL    HW310567   3.807   2.172   4.277  0.1264 -0.3849 -0.3363
 2630SOL    MW410568   3.792   2.088   4.297 -0.1266 -0.1974  0.2613
 2631SOL     OW10569   4.472   1.974   4.173  0.1660  0.2523 -0.2663
 2631SOL    HW210570   4.462   1.889   4.216 -0.5774  0.8268  0.7217
 2631SOL    HW310571   4.549   2.012   4.215  0.1662  0.3026 -0.3137
 2631SOL    MW410572   4.481   1.968   4.185  0.0677  0.3347 -0.1421
 2632SOL     OW10573   4.312   0.775   4.133  0.2375  0.4676 -0.0119
 2632SOL    HW210574   4.386   0.830   4.160 -0.3951  1.5084 -0.3908
 2632SOL    HW310575   4.322   0.766   4.038 -1.6045  2.8350 -0.4650
 2632SOL    MW410576   4.323   0.781   4.124 -0.0887  0.9173 -0.1221
 2633SOL     OW10577   3.686   1.799   4.662 -0.0036 -0.1295  0.1881
 2633SOL    HW210578   3.696   1.886   4.625 -1.4011  0.3950  1.0174
 2633SOL    HW310579   3.646   1.813   4.747  0.5769 -1.5260  0.7196
 2633SOL    MW410580   3.682   1.812   4.668 -0.1113 -0.2446  0.3676
 2634SOL     OW10581   3.181   0.868   4.290  0.3884  0.1505 -0.2064
 2634SOL    HW210582   3.257   0.851   4.233  0.0663  0.8497 -0.8618
 2634SOL    HW310583   3.161   0.960   4.274 -0.6461 -0.0582 -0.0950
 2634SOL    MW410584   3.189   0.878   4.280  0.2096  0.2153 -0.2785
 2635SOL     OW10585   2.358   3.532   4.581  0.1143 -0.1713 -0.4586
 2635SOL    HW210586   2.429   3.596   4.575  0.9247 -1.0459 -0.3267
 2635SOL    HW310587   2.350   3.513   4.674 -0.8894  0.5684 -0.3810
 2635SOL    MW410588   2.366   3.538   4.592  0.0889 -0.1891 -0.4301
 2636SOL     OW10589   1.990   2.824   4.282 -0.4122 -0.5678 -0.1958
 2636SOL    HW210590   2.054   2.757   4.258 -0.5419 -0.3306 -1.2376
 2636SOL    HW310591   1.925   2.821   4.212  0.0140  1.2065 -0.7012
 2636SOL    MW410592   1.990   2.815   4.270 -0.3730 -0.3023 -0.3996
 2637SOL     OW10593   3.800   3.106   4.185 -0.2124 -0.2798  0.6750
 2637SOL    HW210594   3.889   3.136   4.206 -0.1177 -0.4239  0.4893
 2637SOL    HW310595   3.799   3.103   4.089 -0.4652 -0.1377  0.6727
 2637SOL    MW410596   3.812   3.110   4.175 -0.2329 -0.2799  0.6499
 2638SOL     OW10597   3.298   4.183   4.680  0.1489  0.1866  0.7217
 2638SOL    HW210598   3.232   4.175   4.611  1.4299  1.3267 -0.6661
 2638SOL    HW310599   3.374   4.137   4.645  0.8242  0.8118  1.3572
 2638SOL    MW410600   3.299   4.176   4.666  0.4070  0.4196  0.6227
 2639SOL     OW10601   1.093   3.136   4.180 -0.3317 -0.3838 -0.3303
 2639SOL    HW210602   1.068   3.052   4.220 -0.9421  0.3605  0.8928
 2639SOL    HW310603   1.103   3.116   4.087  1.8760 -2.3605  0.2771
 2639SOL    MW410604   1.091   3.122   4.173 -0.1209 -0.5462 -0.0887
 2640SOL     OW10605   4.034   3.484   4.200  0.6558  0.5599  0.0791
 2640SOL    HW210606   4.033   3.503   4.106  0.5376  1.2296  0.2191
 2640SOL    HW310607   3.947   3.508   4.230  0.1746 -1.0989  0.0783
 2640SOL    MW410608   4.022   3.489   4.191  0.5765  0.4294  0.0978
 2641SOL     OW10609   0.640   3.900   4.157 -0.1693  0.0291  0.1904
 2641SOL    HW210610   0.628   3.809   4.184 -0.1834  0.3643  1.3110
 2641SOL    HW310611   0.576   3.950   4.207 -0.4067  0.6197 -0.6866
 2641SOL    MW410612   0.630   3.895   4.167 -0.2025  0.1514  0.2222
 2642SOL     OW10613   0.001   4.026   4.243  0.0548  0.0593 -1.1973
 2642SOL    HW210614   0.002   4.025   4.339  0.5192  0.0032 -1.2015
 2642SOL    HW310615  -0.085   3.991   4.220 -0.0925  0.1574 -0.7997
 2642SOL    MW410616  -0.010   4.021   4.252  0.0966  0.0653 -1.1454
 2643SOL     OW10617   4.030   4.244   4.195  0.0699  0.2125  0.0106
 2643SOL    HW210618   4.111   4.296   4.199  0.6018 -0.5345 -0.7973
 2643SOL    HW310619   3.965   4.298   4.239  1.2855  0.3275  1.7540
 2643SOL    MW410620   4.032   4.258   4.202  0.3009  0.1287  0.1340
 2644SOL     OW10621   3.373   3.858   4.183 -0.1275 -0.4958 -0.4401
 2644SOL    HW210622   3.347   3.772   4.216 -0.3628  0.0195  0.7496
 2644SOL    HW310623   3.378   3.847   4.088 -1.0792 -1.5691 -0.3752
 2644SOL    MW410624   3.370   3.846   4.175 -0.2840 -0.5693 -0.2747
 2645SOL     OW10625   4.222   2.146   4.566 -0.4583 -0.4539  0.4740
 2645SOL    HW210626   4.225   2.127   4.473  0.6579  1.1032  0.1624
 2645SOL    HW310627   4.298   2.100   4.602 -0.2437 -0.1430  0.4238
 2645SOL    MW410628   4.233   2.137   4.559 -0.2823 -0.2074  0.4263
 2646SOL     OW10629   4.257   2.369   4.201 -0.0896  0.2456 -0.0026
 2646SOL    HW210630   4.254   2.276   4.225 -0.3358 -0.1036 -1.3089
 2646SOL    HW310631   4.341   2.400   4.234  0.4803 -0.7256 -0.5233
 2646SOL    MW410632   4.268   2.361   4.208 -0.0467  0.0715 -0.2437
 2647SOL     OW10633   3.599   4.269   4.195 -0.4453 -0.2124 -0.1558
 2647SOL    HW210634   3.683   4.302   4.227 -0.4840 -0.6403  0.3934
 2647SOL    HW310635   3.593   4.180   4.230 -1.7262  0.2668  0.9286
 2647SOL    MW410636   3.609   4.261   4.204 -0.6194 -0.2060  0.0601
 2648SOL     OW10637   4.261   3.637   4.256 -0.1877  0.0859  0.4997
 2648SOL    HW210638   4.174   3.598   4.250  0.3477 -0.9109 -0.7924
 2648SOL    HW310639   4.250   3.724   4.217 -1.1352  0.8857  2.4553
 2648SOL    MW410640   4.248   3.644   4.250 -0.2427  0.0603  0.5875
 2649SOL     OW10641   4.209   1.393   4.555  0.5454 -0.5103 -0.2938
 2649SOL    HW210642   4.213   1.485   4.583  0.6263 -0.4945 -0.3547
 2649SOL    HW310643   4.188   1.398   4.461  0.7218 -0.5476 -0.3363
 2649SOL    MW410644   4.207   1.406   4.546  0.5789 -0.5132 -0.3076
 2650SOL     OW10645   3.025   3.116   4.583  0.0793 -0.0906  0.6078
 2650SOL    HW210646   2.935   3.084   4.580  0.0841  0.0535 -1.4286
 2650SOL    HW310647   3.026   3.176   4.658 -2.0066  1.2855 -0.4064
 2650SOL    MW410648   3.013   3.120   4.592 -0.1953  0.1099  0.2050
 2651SOL     OW10649   0.423   1.178   4.193 -0.0877 -0.4162  0.1602
 2651SOL    HW210650   0.342   1.220   4.223  1.2021  1.8411  0.5530
 2651SOL    HW310651   0.421   1.189   4.097 -0.3768 -0.5977  0.1453
 2651SOL    MW410652   0.412   1.185   4.184  0.0443 -0.1423  0.2098
 2652SOL     OW10653   1.051   3.401   4.603 -0.0722 -0.0033 -0.2438
 2652SOL    HW210654   1.071   3.493   4.584 -1.8608  0.6033  0.7227
 2652SOL    HW310655   1.132   3.355   4.583  1.6484  2.0945  1.6564
 2652SOL    MW410656   1.064   3.407   4.598 -0.0811  0.3536  0.1340
 2653SOL     OW10657   0.815   3.289   4.554 -0.0061  0.1444 -0.1553
 2653SOL    HW210658   0.818   3.288   4.459 -0.9021 -0.7925 -0.1711
 2653SOL    HW310659   0.899   3.329   4.580  0.5699 -0.2982 -1.3038
 2653SOL    MW410660   0.827   3.294   4.545 -0.0483 -0.0379 -0.3095
 2654SOL     OW10661   4.437   2.948   4.632  0.2762  0.1419  0.7180
 2654SOL    HW210662   4.348   2.912   4.627  0.0431  0.9090 -1.0065
 2654SOL    HW310663   4.494   2.874   4.611  0.0186 -0.1754  1.1185
 2654SOL    MW410664   4.432   2.933   4.629  0.2108  0.2012  0.5436
 2655SOL     OW10665   0.191   3.773   4.457 -0.0418 -0.0938 -0.0567
 2655SOL    HW210666   0.212   3.730   4.375 -0.6412  0.6227 -0.5877
 2655SOL    HW310667   0.136   3.710   4.504  0.0811 -0.3922 -0.3142
 2655SOL    MW410668   0.186   3.759   4.453 -0.1047 -0.0384 -0.1612
 2656SOL     OW10669   3.434   3.500   4.529  0.3005  0.0828  0.3780
 2656SOL    HW210670   3.460   3.408   4.526 -1.4140 -0.4023  0.2716
 2656SOL    HW310671   3.517   3.548   4.533  1.2904 -1.3627 -1.7797
 2656SOL    MW410672   3.449   3.494   4.529  0.2048 -0.1721  0.0792
 2657SOL     OW10673   3.660   0.623   4.609 -0.1726 -0.1297 -0.3618
 2657SOL    HW210674   3.692   0.556   4.549  0.9225 -0.0074  0.0662
 2657SOL    HW310675   3.565   0.618   4.603 -0.0875 -1.3670 -0.7069
 2657SOL    MW410676   3.652   0.614   4.600 -0.0169 -0.2768 -0.3505
 2658SOL     OW10677   3.337   2.075   4.279  0.0046 -0.3817  0.4372
 2658SOL    HW210678   3.313   2.077   4.371  0.2759  0.4040  0.4969
 2658SOL    HW310679   3.260   2.041   4.234 -0.4361  0.0575  0.8568
 2658SOL    MW410680   3.324   2.071   4.285 -0.0179 -0.2201  0.5002
 2659SOL     OW10681   3.169   1.000   4.680  0.4739 -0.3336  0.3269
 2659SOL    HW210682   3.161   0.986   4.774  2.9107 -0.3437  0.5697
 2659SOL    HW310683   3.173   0.911   4.643 -0.2879 -0.3273  0.2095
 2659SOL    MW410684   3.168   0.986   4.688  0.6952 -0.3341  0.3433
 2660SOL     OW10685   4.297   4.367   4.206 -0.6875 -0.1668  0.0340
 2660SOL    HW210686   4.389   4.342   4.201 -0.4918  0.4702  0.5244
 2660SOL    HW310687   4.297   4.462   4.199 -1.3663 -0.2124 -0.7578
 2660SOL    MW410688   4.309   4.376   4.204 -0.7515 -0.0892 -0.0057
 2661SOL     OW10689   0.618   1.292   4.545 -0.0311  0.0007 -0.0361
 2661SOL    HW210690   0.620   1.295   4.449  0.8517  2.6651  0.0208
 2661SOL    HW310691   0.536   1.337   4.568 -0.2354 -0.6240  0.4866
 2661SOL    MW410692   0.607   1.298   4.536  0.0584  0.2698  0.0405
 2662SOL     OW10693   1.743   1.207   4.659 -0.0839  0.0507 -0.1412
 2662SOL    HW210694   1.760   1.242   4.746  0.0056 -0.2158 -0.0520
 2662SOL    HW310695   1.790   1.266   4.600  1.9199 -1.2232  0.1713
 2662SOL    MW410696   1.751   1.220   4.663  0.1923 -0.1526 -0.0877
 2663SOL     OW10697   4.299   3.822   5.012  0.0653  0.2284 -0.2016
 2663SOL    HW210698   4.229   3.764   4.979  0.6761 -0.7581  0.2293
 2663SOL    HW310699   4.362   3.763   5.053  2.2190  0.9032 -2.4384
 2663SOL    MW410700   4.298   3.806   5.013  0.4296  0.1876 -0.4401
 2664SOL     OW10701   3.892   0.124   4.820 -0.3640  0.1243  0.3200
 2664SOL    HW210702   3.807   0.081   4.811 -0.2843  0.2807 -1.2179
 2664SOL    HW310703   3.873   0.217   4.810  0.2582  0.0164 -2.1115
 2664SOL    MW410704   3.878   0.131   4.818 -0.2716  0.1307 -0.2036
 2665SOL     OW10705   3.768   3.194   4.681  0.0737  0.2323  0.4573
 2665SOL    HW210706   3.781   3.146   4.762  0.5024 -0.9007 -0.2776
 2665SOL    HW310707   3.846   3.176   4.629  0.1414  1.5455  0.0730
 2665SOL    MW410708   3.780   3.186   4.685  0.1390  0.2561  0.3095
 2666SOL     OW10709   0.437   3.250   4.291  0.5056 -0.1672  0.0397
 2666SOL    HW210710   0.465   3.283   4.377  1.8681 -0.1369 -0.4065
 2666SOL    HW310711   0.430   3.328   4.237  0.0894 -0.2354 -0.0055
 2666SOL    MW410712   0.440   3.264   4.295  0.6304 -0.1726 -0.0248
 2667SOL     OW10713   4.167   4.070   4.899  0.4178  0.1689  0.3954
 2667SOL    HW210714   4.197   3.987   4.936  2.1386  0.3057 -0.6181
 2667SOL    HW310715   4.221   4.082   4.821 -0.7005  1.6159 -0.1761
 2667SOL    MW410716   4.178   4.060   4.894  0.4973  0.3781  0.1869
 2668SOL     OW10717   2.904   3.259   4.810  0.4856 -0.5281 -0.0843
 2668SOL    HW210718   2.868   3.341   4.774  0.2183 -0.4069  0.4607
 2668SOL    HW310719   2.827   3.208   4.834  0.6645 -0.4448  0.6894
 2668SOL    MW410720   2.889   3.263   4.808  0.4740 -0.5012  0.0901
 2669SOL     OW10721   0.240   0.812   4.580 -0.3408 -0.1414  0.0593
 2669SOL    HW210722   0.215   0.721   4.565 -1.6800  0.1536  0.4651
 2669SOL    HW310723   0.336   0.811   4.578 -0.3124 -1.7590  1.1776
 2669SOL    MW410724   0.249   0.800   4.578 -0.5138 -0.3159  0.2604
 2670SOL     OW10725   1.093   4.647   4.194 -0.4246 -0.0505  0.0527
 2670SOL    HW210726   1.077   4.556   4.222 -1.5923  0.2480  0.3786
 2670SOL    HW310727   1.113   4.640   4.101 -1.9923 -0.4999 -0.2588
 2670SOL    MW410728   1.094   4.634   4.186 -0.7855 -0.0704  0.0544
 2671SOL     OW10729   0.161   4.089   4.752 -0.0479  0.2705 -0.2119
 2671SOL    HW210730   0.226   4.020   4.738 -1.2348 -0.5305 -1.9054
 2671SOL    HW310731   0.094   4.048   4.806 -0.3717  0.3198 -0.5702
 2671SOL    MW410732   0.161   4.074   4.757 -0.2472  0.1717 -0.4826
 2672SOL     OW10733   1.790   0.100   4.524 -0.0409 -0.2908  0.3538
 2672SOL    HW210734   1.805   0.193   4.540 -2.6302 -0.0722  1.7917
 2672SOL    HW310735   1.773   0.095   4.430  1.0317  0.5494  0.1086
 2672SOL    MW410736   1.790   0.111   4.514 -0.2410 -0.1511  0.5112
 2673SOL     OW10737   3.511   1.623   4.511  0.0254 -0.4748  0.3097
 2673SOL    HW210738   3.526   1.659   4.423 -1.1394 -1.5428 -0.3446
 2673SOL    HW310739   3.566   1.677   4.568 -0.1889  1.0771 -0.8980
 2673SOL    MW410740   3.520   1.635   4.507 -0.1566 -0.4112  0.0639
 2674SOL     OW10741   3.554   4.617   4.641  0.2509  0.0608 -0.2221
 2674SOL    HW210742   3.627   4.555   4.633  0.0236 -0.0281 -1.9597
 2674SOL    HW310743   3.478   4.568   4.607 -0.1230  0.9588 -0.6922
 2674SOL    MW410744   3.554   4.602   4.635  0.1717  0.1674 -0.5136
 2675SOL     OW10745   1.732   1.936   4.130  0.0383 -0.0373  0.4338
 2675SOL    HW210746   1.746   1.854   4.178  0.7659  1.2673  2.4920
 2675SOL    HW310747   1.668   1.984   4.182  1.4337  1.7446  0.5611
 2675SOL    MW410748   1.725   1.931   4.143  0.3184  0.3700  0.7219
 2676SOL     OW10749   2.703   2.550   4.554 -0.5179 -0.0067 -0.3805
 2676SOL    HW210750   2.631   2.613   4.558 -0.4327  0.0904 -0.3754
 2676SOL    HW310751   2.704   2.521   4.463 -0.1287  0.5032 -0.5449
 2676SOL    MW410752   2.693   2.555   4.543 -0.4554  0.0732 -0.4020
 2677SOL     OW10753   1.670   2.333   4.125 -0.6821 -0.3344 -0.2730
 2677SOL    HW210754   1.643   2.414   4.170 -1.8653 -0.7589 -0.2144
 2677SOL    HW310755   1.621   2.334   4.043  0.9435  0.0826 -1.2543
 2677SOL    MW410756   1.660   2.344   4.120 -0.6238 -0.3352 -0.3948
 2678SOL     OW10757   0.712   1.032   4.602  0.0732 -0.1596 -0.2791
 2678SOL    HW210758   0.776   1.047   4.672  0.8065  0.8630 -1.1392
 2678SOL    HW310759   0.675   1.119   4.585 -1.0657 -0.6284 -0.2621
 2678SOL    MW410760   0.716   1.046   4.609  0.0197 -0.0865 -0.3901
 2679SOL     OW10761   2.603   2.018   4.583 -0.0565  0.3823 -0.5259
 2679SOL    HW210762   2.538   2.050   4.520  0.3008  1.2227 -0.4743
 2679SOL    HW310763   2.578   1.927   4.599 -1.8236  1.0038  0.2696
 2679SOL    MW410764   2.591   2.010   4.577 -0.2427  0.5753 -0.4144
 2680SOL     OW10765   2.211   3.748   4.487 -0.2486  0.1311 -0.1719
 2680SOL    HW210766   2.252   3.673   4.530  0.3609  0.5836  0.0365
 2680SOL    HW310767   2.275   3.819   4.495 -1.5299  1.1663  1.1627
 2680SOL    MW410768   2.225   3.748   4.494 -0.3374  0.3276  0.0319
 2681SOL     OW10769   0.540   4.317   4.202 -0.1209 -0.6040  0.2773
 2681SOL    HW210770   0.515   4.318   4.109 -0.9951 -1.2415  0.4958
 2681SOL    HW310771   0.464   4.354   4.247  1.1005  1.5858  0.5720
 2681SOL    MW410772   0.526   4.322   4.195 -0.0751 -0.3991  0.3448
 2682SOL     OW10773   3.173   2.442   4.569  0.2205 -0.2046 -0.0770
 2682SOL    HW210774   3.243   2.505   4.586 -1.1179  0.9814  1.1074
 2682SOL    HW310775   3.170   2.436   4.473  1.5276  0.1748 -0.1594
 2682SOL    MW410776   3.182   2.449   4.558  0.2167  0.0019  0.0687
 2683SOL     OW10777   0.606   3.627   4.288 -0.1039 -0.6775  0.3098
 2683SOL    HW210778   0.542   3.562   4.257  0.7125 -0.9557 -0.8083
 2683SOL    HW310779   0.586   3.637   4.381 -0.6645 -2.0375  0.3495
 2683SOL    MW410780   0.595   3.620   4.296 -0.0701 -0.8936  0.1678
 2684SOL     OW10781   2.289   4.251   4.576 -0.5770  0.3649  0.4354
 2684SOL    HW210782   2.352   4.321   4.560 -1.2123  1.1740  1.4535
 2684SOL    HW310783   2.203   4.292   4.565 -0.9583 -0.1289  1.4597
 2684SOL    MW410784   2.286   4.265   4.573 -0.7107  0.4067  0.7052
 2685SOL     OW10785   4.136   2.894   4.582  0.3357  0.0070 -0.1834
 2685SOL    HW210786   4.161   2.854   4.498  0.6114 -1.0452  0.3963
 2685SOL    HW310787   4.069   2.837   4.617 -1.1391  1.4757 -0.5490
 2685SOL    MW410788   4.131   2.882   4.575  0.1769  0.0620 -0.1550
 2686SOL     OW10789   2.182   2.399   4.259  0.1552 -0.1840 -0.4814
 2686SOL    HW210790   2.130   2.435   4.331  1.4582  1.1038 -0.1710
 2686SOL    HW310791   2.119   2.348   4.208 -0.8321 -0.9299  1.4353
 2686SOL    MW410792   2.166   2.397   4.262  0.1969 -0.1125 -0.1874
 2687SOL     OW10793   3.846   0.390   4.775 -0.1939  0.1449  0.0611
 2687SOL    HW210794   3.779   0.457   4.789  1.0247  1.6581 -1.2327
 2687SOL    HW310795   3.927   0.439   4.767  0.9757 -1.6236  0.8125
 2687SOL    MW410796   3.848   0.405   4.776  0.1214  0.1112 -0.0105
 2688SOL     OW10797   3.350   4.362   4.303 -0.0066 -0.4062  0.4238
 2688SOL    HW210798   3.271   4.345   4.251 -0.0684  0.2869  0.2898
 2688SOL    HW310799   3.421   4.323   4.252 -0.2170 -0.7302  0.3780
 2688SOL    MW410800   3.349   4.355   4.289 -0.0422 -0.3576  0.4005
 2689SOL     OW10801   4.073   0.130   4.320  0.1527  0.0810 -0.1814
 2689SOL    HW210802   3.993   0.093   4.285  0.2960 -1.7100  1.3147
 2689SOL    HW310803   4.063   0.124   4.415  1.6716  0.6492  0.0332
 2689SOL    MW410804   4.061   0.124   4.328  0.3724 -0.0803  0.0439
 2690SOL     OW10805   2.089   3.037   4.726  0.1176 -0.3931 -0.0532
 2690SOL    HW210806   2.074   2.967   4.662  0.4076  0.5233 -1.1185
 2690SOL    HW310807   2.101   3.116   4.674  1.4545  0.1718  1.0831
 2690SOL    MW410808   2.089   3.038   4.711  0.3324 -0.1974 -0.0439
 2691SOL     OW10809   4.466   4.503   4.600 -0.0072 -0.7013 -0.0505
 2691SOL    HW210810   4.553   4.471   4.622 -0.2823 -1.8834 -0.6819
 2691SOL    HW310811   4.470   4.597   4.617  1.1358 -0.8846  0.7225
 2691SOL    MW410812   4.478   4.511   4.605  0.1073 -0.8821 -0.0319
 2692SOL     OW10813   0.502   0.147   4.284 -0.1582 -0.2489 -0.6182
 2692SOL    HW210814   0.544   0.180   4.363 -1.4546  0.0313 -0.0290
 2692SOL    HW310815   0.568   0.092   4.242  1.5442  1.9152 -0.8557
 2692SOL    MW410816   0.516   0.144   4.288 -0.1045  0.0736 -0.5713
 2693SOL     OW10817   3.341   3.846   4.819 -0.3179  0.0500 -0.4958
 2693SOL    HW210818   3.295   3.763   4.811  0.6477 -0.6418  0.9613
 2693SOL    HW310819   3.272   3.911   4.833 -1.0108 -0.5941 -0.8781
 2693SOL    MW410820   3.326   3.844   4.819 -0.2820 -0.1264 -0.3543
 2694SOL     OW10821   0.054   3.688   5.150  0.0826 -0.0375  0.0363
 2694SOL    HW210822   0.117   3.660   5.084  0.8902 -1.2245  1.2783
 2694SOL    HW310823   0.108   3.725   5.220 -0.6844  0.1948  0.5083
 2694SOL    MW410824   0.070   3.689   5.151  0.0880 -0.1636  0.2618
 2695SOL     OW10825   0.431   1.669   4.529  0.3347  0.1575  0.4581
 2695SOL    HW210826   0.431   1.656   4.434 -0.6334  0.2523  0.4355
 2695SOL    HW310827   0.408   1.584   4.565 -0.6275  0.4332  0.5370
 2695SOL    MW410828   0.428   1.656   4.521  0.0800  0.2065  0.4654
 2696SOL     OW10829   3.820   3.468   4.706  0.0147  0.1214 -0.5007
 2696SOL    HW210830   3.914   3.464   4.689  0.5033  0.8064  1.8687
 2696SOL    HW310831   3.790   3.378   4.700  1.0346 -0.2392 -0.2294
 2696SOL    MW410832   3.829   3.456   4.703  0.2134  0.1643 -0.1531
 2697SOL     OW10833   1.769   0.950   4.211  0.0413 -0.1240  0.1525
 2697SOL    HW210834   1.765   1.042   4.186  0.2313  0.0245  0.6626
 2697SOL    HW310835   1.753   0.950   4.305 -1.1487 -0.7283 -0.0508
 2697SOL    MW410836   1.766   0.962   4.220 -0.0906 -0.1842  0.1931
 2698SOL     OW10837   3.772   1.311   4.310  0.1988 -0.2148 -0.0284
 2698SOL    HW210838   3.847   1.254   4.294  0.1462 -0.6435  1.1843
 2698SOL    HW310839   3.781   1.338   4.401 -0.1893  1.1175 -0.3694
 2698SOL    MW410840   3.783   1.307   4.320  0.1407 -0.0957  0.0858
 2699SOL     OW10841   0.880   1.190   4.147 -0.2859  0.2784  0.3029
 2699SOL    HW210842   0.876   1.097   4.171  0.1475  0.2336  0.2186
 2699SOL    HW310843   0.805   1.230   4.192 -1.5815 -0.4400 -1.1946
 2699SOL    MW410844   0.870   1.183   4.156 -0.3996  0.1777  0.0935
 2700SOL     OW10845   4.069   0.082   4.595  0.0199 -0.6321 -0.2905
 2700SOL    HW210846   4.089  -0.012   4.599  0.2037 -0.6503 -1.4060
 2700SOL    HW310847   4.022   0.100   4.676  1.9765 -1.2096  1.0145
 2700SOL    MW410848   4.066   0.072   4.606  0.3028 -0.7107 -0.2656
 2701SOL     OW10849   0.881   4.225   4.160  0.6594 -0.0015  0.0550
 2701SOL    HW210850   0.888   4.146   4.213  0.8187 -0.0386 -0.0222
 2701SOL    HW310851   0.953   4.281   4.190  1.5352 -0.5464 -1.0141
 2701SOL    MW410852   0.891   4.222   4.171  0.7959 -0.0787 -0.0963
 2702SOL     OW10853   1.087   1.603   4.172  0.0793  0.2741  0.2888
 2702SOL    HW210854   1.008   1.651   4.197  0.2260  0.5425  0.2275
 2702SOL    HW310855   1.076   1.517   4.214 -1.3888 -0.5300 -1.6546
 2702SOL    MW410856   1.075   1.598   4.181 -0.0950  0.2034  0.0243
 2703SOL     OW10857   0.679   1.539   4.164 -0.1941  0.4318  0.4023
 2703SOL    HW210858   0.734   1.603   4.209  0.1035 -0.0140  0.6891
 2703SOL    HW310859   0.688   1.560   4.071  1.1925 -0.1987  0.3777
 2703SOL    MW410860   0.687   1.550   4.158  0.0281  0.2898  0.4368
 2704SOL     OW10861   0.454   0.387   4.164  0.1366  0.3758  0.2904
 2704SOL    HW210862   0.460   0.370   4.070 -0.9355  0.0634  0.2752
 2704SOL    HW310863   0.465   0.301   4.204 -1.7187  0.1590  0.3559
 2704SOL    MW410864   0.456   0.373   4.157 -0.2496  0.3060  0.2966
 2705SOL     OW10865   1.880   1.420   4.548  0.0136  0.3227 -0.1825
 2705SOL    HW210866   1.967   1.458   4.566  0.3847 -0.8093  0.4585
 2705SOL    HW310867   1.820   1.494   4.559  0.6646  0.6146  1.6865
 2705SOL    MW410868   1.884   1.435   4.552  0.1484  0.2120  0.1488
 2706SOL     OW10869   1.345   3.038   4.655 -0.4359  0.0493  0.4591
 2706SOL    HW210870   1.435   3.051   4.686 -0.4178  0.4483  0.2460
 2706SOL    HW310871   1.314   3.127   4.638 -0.2846 -0.1968 -1.1442
 2706SOL    MW410872   1.353   3.052   4.657 -0.4135  0.0696  0.2193
 2707SOL     OW10873   4.249   2.100   4.273  0.1157 -0.4806 -0.2718
 2707SOL    HW210874   4.327   2.054   4.242 -0.3990 -0.8030 -1.1324
 2707SOL    HW310875   4.177   2.062   4.221 -0.3679  1.0379 -0.7533
 2707SOL    MW410876   4.250   2.089   4.262 -0.0162 -0.3228 -0.4487
 2708SOL     OW10877   1.992   4.329   4.538 -0.0549 -0.0169 -0.1642
 2708SOL    HW210878   1.994   4.421   4.565 -0.9409 -0.2197  0.6054
 2708SOL    HW310879   1.997   4.332   4.443  0.5841  0.8078 -0.1085
 2708SOL    MW410880   1.993   4.342   4.529 -0.0874  0.0658 -0.0558
 2709SOL     OW10881   2.818   0.032   4.711 -0.0415 -0.3324 -0.1086
 2709SOL    HW210882   2.894  -0.014   4.676  1.2009  1.0506  0.6911
 2709SOL    HW310883   2.847   0.123   4.719 -1.1353 -0.1358  2.0137
 2709SOL    MW410884   2.832   0.038   4.707 -0.0217 -0.1240  0.2775
 2710SOL     OW10885   0.397   2.695   4.153 -0.1490  0.4104  0.2740
 2710SOL    HW210886   0.466   2.753   4.186 -0.4763  0.5890  0.6452
 2710SOL    HW310887   0.418   2.684   4.060  0.2982  0.5770  0.3514
 2710SOL    MW410888   0.409   2.701   4.145 -0.1332  0.4559  0.3333
 2711SOL     OW10889   1.727   3.438   4.224  0.3858  0.4096 -0.2873
 2711SOL    HW210890   1.746   3.455   4.131  2.1217  0.5640  0.0800
 2711SOL    HW310891   1.757   3.348   4.238  0.5358  0.5393  0.2242
 2711SOL    MW410892   1.734   3.429   4.213  0.6347  0.4470 -0.1721
 2712SOL     OW10893   0.460   0.901   4.237  0.1097 -0.2710  0.1336
 2712SOL    HW210894   0.441   0.993   4.221  0.5217 -0.1469  0.3497
 2712SOL    HW310895   0.537   0.883   4.183 -0.5320 -0.7351 -0.6382
 2712SOL    MW410896   0.468   0.910   4.228  0.0794 -0.3159  0.0606
 2713SOL     OW10897   3.788   0.853   4.525  0.0888  0.0058 -0.3015
 2713SOL    HW210898   3.740   0.780   4.564 -0.2643 -0.5779 -1.8076
 2713SOL    HW310899   3.725   0.925   4.522  0.3765  0.3196  0.9925
 2713SOL    MW410900   3.774   0.853   4.530  0.0801 -0.0299 -0.3295
 2714SOL     OW10901   0.487   2.455   4.495  0.0217 -0.6362 -0.5830
 2714SOL    HW210902   0.499   2.434   4.403 -1.5350  1.6636 -1.3536
 2714SOL    HW310903   0.392   2.466   4.505  0.1187 -1.3811  1.4188
 2714SOL    MW410904   0.476   2.454   4.484 -0.1709 -0.4311 -0.4201
 2715SOL     OW10905   2.754   3.517   4.142 -0.0903  0.1498  0.2101
 2715SOL    HW210906   2.814   3.563   4.201  0.5757  1.5952 -1.5291
 2715SOL    HW310907   2.771   3.424   4.157  1.9810  0.5301  0.3789
 2715SOL    MW410908   2.764   3.511   4.151  0.2706  0.3908  0.0024
 2716SOL     OW10909   2.580   0.978   4.299  0.4717  0.1601 -0.2195
 2716SOL    HW210910   2.663   0.973   4.345 -0.3932 -2.7774  1.1977
 2716SOL    HW310911   2.520   1.018   4.362  0.1841 -0.3221 -0.1803
 2716SOL    MW410912   2.583   0.982   4.313  0.3197 -0.2911 -0.0272
 2717SOL     OW10913   3.824   4.418   4.288  0.3788  0.1746 -0.2535
 2717SOL    HW210914   3.830   4.508   4.257  2.5895  0.6145  1.2998
 2717SOL    HW310915   3.815   4.426   4.383  0.0336 -1.2320 -0.1531
 2717SOL    MW410916   3.823   4.431   4.297  0.6249  0.0467 -0.0353
 2718SOL     OW10917   2.361   3.971   4.537  0.2023  0.1113 -0.5011
 2718SOL    HW210918   2.351   4.063   4.562 -1.2683  0.0473 -0.7739
 2718SOL    HW310919   2.451   3.950   4.558  0.6213  1.6850 -0.6387
 2718SOL    MW410920   2.371   3.980   4.543  0.0634  0.3107 -0.5555
 2719SOL     OW10921   2.448   4.400   4.218 -0.5750  0.0571 -0.2254
 2719SOL    HW210922   2.372   4.356   4.180 -1.1488 -0.7662  1.7911
 2719SOL    HW310923   2.520   4.338   4.205 -0.5361  0.2310 -0.8788
 2719SOL    MW410924   2.447   4.386   4.211 -0.6456 -0.0286 -0.0453
 2720SOL     OW10925   3.099   4.142   4.464  0.1253 -0.1181 -0.1454
 2720SOL    HW210926   3.136   4.108   4.382  0.3406  0.0773 -0.1286
 2720SOL    HW310927   3.050   4.068   4.500  1.0563 -0.5908  0.1662
 2720SOL    MW410928   3.098   4.128   4.458  0.2766 -0.1550 -0.1016
 2721SOL     OW10929   0.312   4.389   4.356  0.0199 -0.4486 -0.0632
 2721SOL    HW210930   0.255   4.336   4.300 -1.2705  0.6296  0.2346
 2721SOL    HW310931   0.276   4.380   4.444 -0.9303  1.8690 -0.1873
 2721SOL    MW410932   0.300   4.381   4.360 -0.2758 -0.0005 -0.0405
 2722SOL     OW10933   1.582   2.124   4.294  0.4269 -0.4763 -0.2817
 2722SOL    HW210934   1.607   2.199   4.241 -0.1151 -0.2159 -0.1681
 2722SOL    HW310935   1.628   2.136   4.377 -1.1017  0.6911  0.4111
 2722SOL    MW410936   1.591   2.135   4.298  0.1538 -0.2880 -0.1755
 2723SOL     OW10937   0.399   3.482   4.145 -0.1213  0.4516 -0.0690
 2723SOL    HW210938   0.414   3.497   4.052 -0.7636  1.2465 -0.0543
 2723SOL    HW310939   0.315   3.525   4.163 -0.2133 -0.0663  0.7825
 2723SOL    MW410940   0.390   3.490   4.135 -0.2182  0.4883  0.0448
 2724SOL     OW10941   0.957   4.325   4.664  0.1904 -0.0692  0.2079
 2724SOL    HW210942   0.882   4.384   4.668  0.2431 -0.0640  1.5631
 2724SOL    HW310943   0.920   4.241   4.639 -0.0598  0.2637 -0.5495
 2724SOL    MW410944   0.942   4.322   4.661  0.1644 -0.0248  0.2871
 2725SOL     OW10945   1.082   1.294   4.554  0.0691  0.1549  0.5464
 2725SOL    HW210946   0.999   1.316   4.595  0.1322  0.5321  0.4680
 2725SOL    HW310947   1.088   1.199   4.563 -0.7376  0.0349 -0.1405
 2725SOL    MW410948   1.072   1.284   4.561 -0.0290  0.1888  0.4449
 2726SOL     OW10949   1.743   3.181   4.345  0.4323  0.4577  0.0860
 2726SOL    HW210950   1.834   3.154   4.347  0.0491 -0.8554  0.7061
 2726SOL    HW310951   1.730   3.229   4.427  0.5533  0.5879  0.0277
 2726SOL    MW410952   1.753   3.184   4.356  0.3978  0.3014  0.1597
 2727SOL     OW10953   0.841   3.263   4.242  0.2281 -0.3161  0.1278
 2727SOL    HW210954   0.927   3.232   4.213  0.3132 -1.0146  1.0874
 2727SOL    HW310955   0.843   3.357   4.228  0.8402 -0.4385 -0.6484
 2727SOL    MW410956   0.852   3.271   4.237  0.3201 -0.4244  0.1521
 2728SOL     OW10957   2.290   3.079   4.316  0.5735  1.1204 -0.0774
 2728SOL    HW210958   2.197   3.088   4.294  0.4072 -0.4299 -0.0714
 2728SOL    HW310959   2.302   3.132   4.395 -0.2128  1.6666 -0.3259
 2728SOL    MW410960   2.279   3.087   4.323  0.4478  0.9878 -0.1092
 2729SOL     OW10961   3.588   1.054   4.459 -0.0167  0.9085 -1.0150
 2729SOL    HW210962   3.515   1.090   4.510  0.1796  0.1227 -0.1722
 2729SOL    HW310963   3.647   1.127   4.446 -0.2756  1.2168 -0.4736
 2729SOL    MW410964   3.586   1.068   4.464 -0.0248  0.8453 -0.8321
 2730SOL     OW10965   0.864   0.416   4.117  0.1855 -0.8527 -0.0599
 2730SOL    HW210966   0.861   0.327   4.152  0.2969 -1.1955 -0.9162
 2730SOL    HW310967   0.782   0.456   4.146  0.4630 -1.0037  0.9425
 2730SOL    MW410968   0.853   0.410   4.126  0.2369 -0.9178 -0.0401
 2731SOL     OW10969   0.658   1.286   4.285 -0.0777  0.0447  0.8182
 2731SOL    HW210970   0.676   1.368   4.240  0.9846 -0.5187  0.1623
 2731SOL    HW310971   0.574   1.257   4.250  0.2724  0.1064 -0.1156
 2731SOL    MW410972   0.650   1.293   4.274  0.1087 -0.0215  0.6084
 2732SOL     OW10973   3.457   2.961   4.595 -0.4230  0.1982 -0.0293
 2732SOL    HW210974   3.462   3.055   4.579 -0.6698  0.3497  0.7719
 2732SOL    HW310975   3.542   2.927   4.568 -0.6554  0.5170 -1.1858
 2732SOL    MW410976   3.469   2.969   4.589 -0.4866  0.2601 -0.0763
 2733SOL     OW10977   2.925   2.097   4.279 -0.1213  0.6164  0.6763
 2733SOL    HW210978   2.920   2.096   4.375 -0.0187  1.7981  0.6988
 2733SOL    HW310979   2.854   2.039   4.251  0.1047 -0.0541  1.4762
 2733SOL    MW410980   2.915   2.089   4.288 -0.0780  0.6838  0.7854
 2734SOL     OW10981   1.775   3.944   4.190  0.6855 -0.0855  0.1418
 2734SOL    HW210982   1.866   3.916   4.185  0.7776  0.3100 -0.5247
 2734SOL    HW310983   1.757   3.951   4.284  1.0688 -1.0162  0.2934
 2734SOL    MW410984   1.784   3.941   4.202  0.7482 -0.1562  0.0739
 2735SOL     OW10985   3.753   2.040   4.575 -0.6838 -0.1880  0.4480
 2735SOL    HW210986   3.691   2.100   4.616  1.2557  1.9127  0.4132
 2735SOL    HW310987   3.753   2.065   4.483  0.0210 -0.3422  0.4064
 2735SOL    MW410988   3.745   2.051   4.568 -0.3350  0.0684  0.4377
 2736SOL     OW10989   1.726   2.848   4.575  0.3592  0.0369  0.2286
 2736SOL    HW210990   1.667   2.779   4.544  0.8595 -0.6405  0.7673
 2736SOL    HW310991   1.812   2.807   4.577  0.5415  0.4514  1.2621
 2736SOL    MW410992   1.729   2.833   4.571  0.4493  0.0021  0.4358
 2737SOL     OW10993   0.008   2.459   4.329  0.3531 -0.2489  0.0747
 2737SOL    HW210994   0.005   2.546   4.290 -1.6123  0.1010  0.9130
 2737SOL    HW310995   0.069   2.410   4.275 -1.3572  0.5767 -2.7201
 2737SOL    MW410996   0.016   2.464   4.317 -0.1321 -0.0939 -0.1836
 2738SOL     OW10997   1.927   3.434   4.678  0.0707  0.4161 -0.5437
 2738SOL    HW210998   1.873   3.513   4.682  0.5449  0.6613  1.3514
 2738SOL    HW310999   1.901   3.383   4.755  1.0062 -0.4558 -0.8012
 2738SOL    MW411000   1.917   3.438   4.689  0.2567  0.3333 -0.3276
 2739SOL     OW11001   2.033   0.832   4.511 -0.0402 -0.4280 -0.3173
 2739SOL    HW211002   2.072   0.877   4.436 -0.4513 -0.3467 -0.4781
 2739SOL    HW311003   1.951   0.877   4.527  0.9779  0.8516  1.4576
 2739SOL    MW411004   2.028   0.844   4.503  0.0401 -0.2484 -0.1040
 2740SOL     OW11005   0.940   1.970   4.766  0.2001 -0.2164 -0.2972
 2740SOL    HW211006   0.999   1.908   4.725  0.6078  0.5373 -0.8597
 2740SOL    HW311007   0.997   2.038   4.802 -0.3406  0.7339 -1.2113
 2740SOL    MW411008   0.955   1.971   4.766  0.1826  0.0085 -0.4921
 2741SOL     OW11009   0.902   0.171   4.256 -0.1352 -0.5683  0.2389
 2741SOL    HW211010   0.973   0.109   4.239  0.0796 -0.2209 -0.1536
 2741SOL    HW311011   0.823   0.127   4.226  0.2477  0.0510 -1.7220
 2741SOL    MW411012   0.901   0.157   4.250 -0.0564 -0.4408 -0.0725
 2742SOL     OW11013   1.083   2.942   4.723  0.3870 -0.2342 -0.2444
 2742SOL    HW211014   1.173   2.974   4.712  1.1616 -1.5223  2.0216
 2742SOL    HW311015   1.088   2.849   4.701 -0.2777 -0.4129  0.3375
 2742SOL    MW411016   1.096   2.934   4.719  0.4015 -0.4277  0.1316
 2743SOL     OW11017   1.553   2.816   4.850 -0.4094  0.3723  0.3824
 2743SOL    HW211018   1.599   2.808   4.934 -0.1404  0.2949  0.2280
 2743SOL    HW311019   1.586   2.897   4.812 -0.3907  0.3097  0.2654
 2743SOL    MW411020   1.564   2.826   4.856 -0.3715  0.3536  0.3462
 2744SOL     OW11021   3.609   0.133   4.216 -0.3338  0.5157  0.4135
 2744SOL    HW211022   3.523   0.092   4.207  0.6276 -1.3037 -0.7311
 2744SOL    HW311023   3.600   0.219   4.175 -1.6403  0.4030  0.4590
 2744SOL    MW411024   3.596   0.139   4.210 -0.3793  0.2608  0.2685
 2745SOL     OW11025   2.564   3.711   4.534  0.1531  0.2694 -0.0378
 2745SOL    HW211026   2.570   3.678   4.445  0.7746  0.3182 -0.0200
 2745SOL    HW311027   2.622   3.788   4.535 -0.9597  1.1212  0.0230
 2745SOL    MW411028   2.573   3.717   4.523  0.0882  0.3884 -0.0272
 2746SOL     OW11029   2.868   2.786   4.237 -0.3415 -0.0310  0.0249
 2746SOL    HW211030   2.859   2.785   4.332 -0.8367  1.4307  0.0192
 2746SOL    HW311031   2.779   2.776   4.204 -0.0887 -1.2295 -0.2962
 2746SOL    MW411032   2.855   2.785   4.245 -0.3734  0.0036 -0.0181
 2747SOL     OW11033   1.758   1.668   4.545  0.0910  0.4021  0.0811
 2747SOL    HW211034   1.760   1.674   4.449  0.5128 -0.3491  0.0379
 2747SOL    HW311035   1.681   1.718   4.570 -0.4620 -0.0383 -0.7107
 2747SOL    MW411036   1.748   1.675   4.536  0.0737  0.2449 -0.0291
 2748SOL     OW11037   2.992   3.637   4.555 -0.3575 -0.1254  0.0242
 2748SOL    HW211038   2.931   3.573   4.593  1.2060 -1.4962  0.3322
 2748SOL    HW311039   3.078   3.607   4.585  0.5015  1.5117 -0.7641
 2748SOL    MW411040   2.995   3.624   4.564 -0.0381 -0.0904 -0.0396
 2749SOL     OW11041   4.014   0.613   4.463  0.2175  0.5416 -0.8344
 2749SOL    HW211042   3.992   0.581   4.376 -0.6438 -0.4520 -0.2567
 2749SOL    HW311043   3.991   0.706   4.461  0.3106  0.5469 -1.7009
 2749SOL    MW411044   4.008   0.621   4.451  0.1159  0.4112 -0.8726
 2750SOL     OW11045   2.099   3.250   4.557  0.2070 -0.2114 -0.3756
 2750SOL    HW211046   2.038   3.316   4.588 -0.1782 -0.2999 -0.9297
 2750SOL    HW311047   2.173   3.299   4.522  1.6857 -0.1380  2.7087
 2750SOL    MW411048   2.101   3.265   4.556  0.3512 -0.2136 -0.0420
 2751SOL     OW11049   2.745   3.459   4.623  0.0522  0.4351 -0.0865
 2751SOL    HW211050   2.730   3.394   4.555 -2.1120 -0.0051  0.7485
 2751SOL    HW311051   2.697   3.536   4.593  1.2948  1.1283 -0.3170
 2751SOL    MW411052   2.736   3.460   4.610 -0.0696  0.4685 -0.0067
 2752SOL     OW11053   0.945   2.459   4.261  0.1884  0.1589 -0.4535
 2752SOL    HW211054   0.886   2.386   4.243 -0.2956  0.7942 -1.4416
 2752SOL    HW311055   0.922   2.487   4.350 -0.4783 -0.0696 -0.5535
 2752SOL    MW411056   0.934   2.453   4.271  0.0366  0.2124 -0.5975
 2753SOL     OW11057   2.130   1.495   4.540  0.3855  0.0426 -0.1733
 2753SOL    HW211058   2.214   1.449   4.549  0.9281  1.2529  1.1883
 2753SOL    HW311059   2.154   1.588   4.536 -0.9097  0.4313  0.6196
 2753SOL    MW411060   2.144   1.501   4.541  0.2859  0.2536  0.1111
 2754SOL     OW11061   1.825   0.407   4.644  0.3732  0.2131  0.5224
 2754SOL    HW211062   1.820   0.391   4.738  1.1951 -0.4070  0.4604
 2754SOL    HW311063   1.896   0.471   4.634 -1.2642  2.0924  0.5341
 2754SOL    MW411064   1.834   0.413   4.655  0.2656  0.3792  0.5159
 2755SOL     OW11065   2.011   3.108   4.250  0.0631 -0.6340  0.4431
 2755SOL    HW211066   2.003   3.111   4.154  1.5782 -0.8639  0.2964
 2755SOL    HW311067   2.008   3.014   4.271  2.5527 -0.7492  0.3463
 2755SOL    MW411068   2.009   3.096   4.240  0.5918 -0.6797  0.4110
 2756SOL     OW11069   3.409   0.769   4.160 -0.4339 -0.3272 -0.3323
 2756SOL    HW211070   3.495   0.807   4.178 -0.8368  0.8608 -0.8569
 2756SOL    HW311071   3.410   0.685   4.205  0.4326  0.3588  0.9832
 2756SOL    MW411072   3.420   0.763   4.168 -0.3729 -0.0799 -0.2279
 2757SOL     OW11073   4.186   1.693   4.626  0.2536  0.0156 -0.5961
 2757SOL    HW211074   4.174   1.753   4.700  0.2362 -0.1971 -0.4231
 2757SOL    HW311075   4.099   1.684   4.587 -0.3499 -2.1620  1.1454
 2757SOL    MW411076   4.173   1.700   4.631  0.1712 -0.2998 -0.3433
 2758SOL     OW11077   3.571   1.675   4.226 -0.0542  0.0290 -0.3780
 2758SOL    HW211078   3.580   1.768   4.205  0.5896  0.1342  0.3203
 2758SOL    HW311079   3.659   1.639   4.212 -0.2684 -0.4480 -0.5054
 2758SOL    MW411080   3.584   1.683   4.221  0.0024 -0.0200 -0.3023
 2759SOL     OW11081   0.020   3.198   4.546 -0.3949  0.5172 -0.1148
 2759SOL    HW211082   0.002   3.105   4.560 -0.7766  0.4316 -1.1333
 2759SOL    HW311083   0.101   3.214   4.594 -1.5202  0.1791  1.9281
 2759SOL    MW411084   0.028   3.188   4.554 -0.5937  0.4613  0.0210
 2760SOL     OW11085   4.086   3.923   4.508  0.2239 -0.0099 -0.1383
 2760SOL    HW211086   4.018   3.910   4.574 -1.0830  0.2775 -1.4010
 2760SOL    HW311087   4.141   3.993   4.542 -0.3569  0.0297  0.7123
 2760SOL    MW411088   4.085   3.930   4.521 -0.0248  0.0334 -0.1926
 2761SOL     OW11089   2.885   2.085   4.553  0.2132 -0.1035 -0.0614
 2761SOL    HW211090   2.791   2.066   4.556  0.0187  0.6379 -1.4330
 2761SOL    HW311091   2.892   2.175   4.583  0.4417  0.0124 -0.4692
 2761SOL    MW411092   2.873   2.094   4.558  0.2182  0.0098 -0.2961
 2762SOL     OW11093   0.034   0.189   4.595  0.4391 -0.2273  0.1352
 2762SOL    HW211094   0.010   0.150   4.511 -0.7381 -1.1577  0.8746
 2762SOL    HW311095  -0.050   0.207   4.637  1.0229 -0.4884  1.4339
 2762SOL    MW411096   0.019   0.186   4.589  0.3608 -0.3845  0.4044
 2763SOL     OW11097   0.272   0.001   4.229 -0.6890 -0.3503  0.3858
 2763SOL    HW211098   0.357   0.037   4.255 -0.0947 -1.5022  0.0788
 2763SOL    HW311099   0.262  -0.078   4.282 -1.4611 -0.3614  0.2373
 2763SOL    MW411100   0.282  -0.005   4.239 -0.7125 -0.5040  0.3262
 2764SOL     OW11101   2.013   2.819   4.576 -0.0500  0.5071 -0.0729
 2764SOL    HW211102   2.003   2.827   4.481  0.9249  2.1766 -0.0452
 2764SOL    HW311103   2.080   2.752   4.588  1.2073  1.6647 -0.6077
 2764SOL    MW411104   2.020   2.811   4.565  0.2444  0.8798 -0.1402
 2765SOL     OW11105   3.223   3.575   4.689 -0.2471  0.1925 -0.5010
 2765SOL    HW211106   3.301   3.570   4.635  0.6103 -0.6724  0.7746
 2765SOL    HW311107   3.219   3.490   4.734 -1.3771  0.5865  0.1726
 2765SOL    MW411108   3.233   3.563   4.688 -0.2830  0.1302 -0.2432
 2766SOL     OW11109   3.516   2.523   4.529 -0.3067 -0.9507  0.0035
 2766SOL    HW211110   3.558   2.602   4.565 -1.4800 -0.4293  0.2305
 2766SOL    HW311111   3.536   2.527   4.436  1.7308 -1.6877  0.3675
 2766SOL    MW411112   3.524   2.534   4.522 -0.1929 -0.9794  0.0815
 2767SOL     OW11113   4.037   3.968   4.244 -0.1353 -0.0358 -0.2223
 2767SOL    HW211114   4.031   4.063   4.236 -1.7479 -0.0928  0.0648
 2767SOL    HW311115   4.069   3.953   4.333  0.5610  0.2494 -0.4280
 2767SOL    MW411116   4.040   3.978   4.255 -0.2561 -0.0057 -0.2122
 2768SOL     OW11117   1.544   4.356   4.251 -0.4091  0.5916 -0.2567
 2768SOL    HW211118   1.621   4.305   4.228 -0.2673  1.0456 -0.7960
 2768SOL    HW311119   1.528   4.336   4.343  0.6074  0.8287 -0.0283
 2768SOL    MW411120   1.552   4.347   4.260 -0.2563  0.6828 -0.2975
 2769SOL     OW11121   1.762   3.693   4.622 -0.6469  0.0558  0.0089
 2769SOL    HW211122   1.687   3.645   4.587  0.0794 -1.1115  0.0174
 2769SOL    HW311123   1.724   3.755   4.684 -1.3984 -2.3713  2.0710
 2769SOL    MW411124   1.747   3.695   4.625 -0.6503 -0.4184  0.2823
 2770SOL     OW11125   2.002   0.495   4.237  0.0596 -0.0109 -0.2909
 2770SOL    HW211126   2.006   0.587   4.211 -0.6017  0.0138 -0.3015
 2770SOL    HW311127   2.075   0.454   4.190 -0.0737  0.3731 -0.8381
 2770SOL    MW411128   2.012   0.502   4.227 -0.0451  0.0430 -0.3648
 2771SOL     OW11129   2.943   0.776   4.194 -0.4994 -0.3999 -0.1511
 2771SOL    HW211130   2.880   0.805   4.261 -0.8346 -0.2778 -0.5172
 2771SOL    HW311131   3.023   0.826   4.214 -0.7654  0.0372 -0.1669
 2771SOL    MW411132   2.945   0.787   4.206 -0.5786 -0.3261 -0.2012
 2772SOL     OW11133   0.904   1.026   4.788  0.0475  0.1003  0.0046
 2772SOL    HW211134   0.937   1.054   4.874 -1.0101  0.9178  0.1599
 2772SOL    HW311135   0.982   1.021   4.733  0.4426  2.0883  0.3400
 2772SOL    MW411136   0.918   1.029   4.792 -0.0399  0.4704  0.0691
 2773SOL     OW11137   4.042   2.377   4.635 -0.1596 -0.3702 -0.3820
 2773SOL    HW211138   4.053   2.409   4.546 -0.6628 -2.3769 -1.1810
 2773SOL    HW311139   4.127   2.340   4.658 -0.0804 -0.0101 -0.0953
 2773SOL    MW411140   4.055   2.376   4.626 -0.2151 -0.5877 -0.4497
 2774SOL     OW11141   3.196   2.893   4.517 -0.4476  0.0301  0.1133
 2774SOL    HW211142   3.285   2.905   4.550 -0.2577 -0.4931 -0.2047
 2774SOL    HW311143   3.147   2.967   4.552  0.0665  0.2054  0.4602
 2774SOL    MW411144   3.201   2.904   4.526 -0.3548 -0.0155  0.1173
 2775SOL     OW11145   1.355   2.622   4.137 -0.0714  0.3118 -0.2030
 2775SOL    HW211146   1.439   2.582   4.159 -0.5964 -0.8549 -0.2766
 2775SOL    HW311147   1.294   2.548   4.129 -1.0761  1.1303 -0.2799
 2775SOL    MW411148   1.358   2.607   4.139 -0.2732  0.2656 -0.2222
 2776SOL     OW11149   0.631   0.573   4.512 -0.3469  0.2401  0.4045
 2776SOL    HW211150   0.718   0.583   4.550 -0.1970  0.7890 -0.0737
 2776SOL    HW311151   0.590   0.659   4.523 -0.1356  0.5439 -1.0690
 2776SOL    MW411152   0.637   0.585   4.518 -0.2993  0.3526  0.1473
 2777SOL     OW11153   3.960   1.157   4.193 -0.0164  0.2404 -0.1736
 2777SOL    HW211154   3.949   1.168   4.098 -1.2868  0.3525 -0.0241
 2777SOL    HW311155   4.031   1.093   4.201 -0.7326 -0.7149 -1.2306
 2777SOL    MW411156   3.968   1.150   4.181 -0.2785  0.1291 -0.2937
 2778SOL     OW11157   1.868   3.199   4.828 -0.0559 -0.4790  0.1985
 2778SOL    HW211158   1.785   3.163   4.795 -0.2515  0.5434 -0.4463
 2778SOL    HW311159   1.933   3.133   4.805 -0.3887 -0.3641 -1.1025
 2778SOL    MW411160   1.865   3.185   4.821 -0.1255 -0.3288 -0.0582
 2779SOL     OW11161   1.280   4.185   4.702  0.3049 -0.1086 -0.0429
 2779SOL    HW211162   1.227   4.110   4.674 -0.1405  0.3686 -0.4891
 2779SOL    HW311163   1.244   4.210   4.787 -1.0018  0.9752 -0.8870
 2779SOL    MW411164   1.268   4.178   4.709  0.0737  0.0973 -0.2136
 2780SOL     OW11165   1.302   4.252   4.183 -0.3529  0.0422  0.8503
 2780SOL    HW211166   1.294   4.266   4.089  0.0606  0.7492  0.9225
 2780SOL    HW311167   1.379   4.303   4.209  0.0657 -0.8658  1.4145
 2780SOL    MW411168   1.311   4.260   4.174 -0.2432  0.0153  0.9341
 2781SOL     OW11169   0.249   3.888   4.148 -0.2191  0.3281 -0.2409
 2781SOL    HW211170   0.163   3.924   4.170 -0.0525  0.2875  0.4893
 2781SOL    HW311171   0.311   3.940   4.199  0.0956 -0.4189  0.1498
 2781SOL    MW411172   0.246   3.900   4.158 -0.1556  0.2239 -0.0930
 2782SOL     OW11173   4.104   0.515   4.730  0.0745 -0.6083  0.5017
 2782SOL    HW211174   4.085   0.545   4.641  1.9679 -2.5106 -0.5792
 2782SOL    HW311175   4.147   0.590   4.772  0.1514 -0.0739 -0.5202
 2782SOL    MW411176   4.107   0.529   4.724  0.3343 -0.7887  0.2246
 2783SOL     OW11177   1.181   4.425   4.547 -0.4070 -0.6818  0.0017
 2783SOL    HW211178   1.252   4.382   4.595 -0.7000  0.2362  1.2782
 2783SOL    HW311179   1.101   4.386   4.583 -0.6299  0.0865  0.3442
 2783SOL    MW411180   1.180   4.414   4.558 -0.4749 -0.4592  0.2151
 2784SOL     OW11181   0.180   2.810   4.302  0.2524 -0.0676 -0.4187
 2784SOL    HW211182   0.192   2.897   4.265 -0.7964  0.2533 -0.0120
 2784SOL    HW311183   0.256   2.760   4.270  0.1032  0.5827 -1.8218
 2784SOL    MW411184   0.192   2.815   4.293  0.0943  0.0603 -0.5498
 2785SOL     OW11185   3.617   3.842   4.747  0.3572  0.0903 -0.1493
 2785SOL    HW211186   3.672   3.826   4.824 -0.1750 -0.9374  0.0318
 2785SOL    HW311187   3.527   3.835   4.781  0.1070 -1.5226 -1.0723
 2785SOL    MW411188   3.612   3.839   4.762  0.2542 -0.2580 -0.2470
 2786SOL     OW11189   0.782   3.810   4.669  0.3648 -0.3941 -0.2944
 2786SOL    HW211190   0.761   3.775   4.755 -1.0422 -1.7587 -1.1472
 2786SOL    HW311191   0.866   3.769   4.646  0.1149 -1.0258 -0.0996
 2786SOL    MW411192   0.790   3.800   4.677  0.1463 -0.6576 -0.3815
 2787SOL     OW11193   2.263   0.106   4.294  0.3277 -0.0518  0.4404
 2787SOL    HW211194   2.267   0.109   4.389 -0.0352 -1.0687  0.4919
 2787SOL    HW311195   2.180   0.063   4.275  0.2550  0.4291 -0.3393
 2787SOL    MW411196   2.252   0.101   4.304  0.2699 -0.1226  0.3438
 2788SOL     OW11197   1.313   3.304   4.540 -0.0042 -0.4698 -0.0747
 2788SOL    HW211198   1.325   3.271   4.451 -1.2987 -1.2978  0.0482
 2788SOL    HW311199   1.397   3.346   4.562  0.2454 -0.0821 -1.7476
 2788SOL    MW411200   1.326   3.306   4.532 -0.1421 -0.5279 -0.2789
 2789SOL     OW11201   3.243   1.699   4.514 -0.1996  0.2224 -0.3620
 2789SOL    HW211202   3.221   1.786   4.546  1.1267  0.3510  0.2481
 2789SOL    HW311203   3.339   1.699   4.509 -0.0626 -1.8075  1.4536
 2789SOL    MW411204   3.253   1.710   4.518 -0.0064 -0.0286 -0.0420
 2790SOL     OW11205   2.345   2.874   4.770 -0.5297  0.4634 -0.2278
 2790SOL    HW211206   2.267   2.930   4.769 -0.6764  0.2534 -1.0937
 2790SOL    HW311207   2.318   2.796   4.818 -1.3431 -0.2880 -1.8700
 2790SOL    MW411208   2.331   2.871   4.776 -0.6561  0.3364 -0.5584
 2791SOL     OW11209   2.946   0.477   4.282 -0.2742  0.0173 -0.3430
 2791SOL    HW211210   2.956   0.569   4.255 -0.7467 -0.0971 -0.9288
 2791SOL    HW311211   2.862   0.451   4.244  1.1353 -1.4710 -2.4651
 2791SOL    MW411212   2.936   0.486   4.274 -0.1504 -0.1941 -0.7000
 2792SOL     OW11213   1.977   2.001   4.261 -0.3502 -0.0649 -0.2806
 2792SOL    HW211214   1.901   1.960   4.219  0.2502 -0.0104 -1.4547
 2792SOL    HW311215   1.978   1.965   4.349 -1.6544 -0.1752 -0.2961
 2792SOL    MW411216   1.967   1.991   4.267 -0.4431 -0.0722 -0.4382
 2793SOL     OW11217   0.851   3.533   4.168 -0.1087 -0.5224 -0.2465
 2793SOL    HW211218   0.768   3.577   4.187 -0.4649 -0.9754 -0.7606
 2793SOL    HW311219   0.855   3.529   4.072  0.4236 -0.6632 -0.2214
 2793SOL    MW411220   0.841   3.538   4.158 -0.0855 -0.6011 -0.3114
 2794SOL     OW11221   0.571   3.651   4.561 -0.1676 -0.1791  0.3512
 2794SOL    HW211222   0.647   3.703   4.587 -0.1618 -0.2163  0.4101
 2794SOL    HW311223   0.509   3.661   4.633 -0.6241  0.6593 -0.1564
 2794SOL    MW411224   0.573   3.659   4.574 -0.2270 -0.0732  0.2918
 2795SOL     OW11225   3.304   1.304   4.264 -0.0103 -0.0049  0.0311
 2795SOL    HW211226   3.313   1.389   4.222  3.4380  0.3105  1.2641
 2795SOL    HW311227   3.385   1.258   4.243 -1.2081 -2.4641  0.5899
 2795SOL    MW411228   3.316   1.309   4.256  0.2868 -0.2878  0.2670
 2796SOL     OW11229   2.884   1.069   4.649 -0.1662 -0.6772  0.3364
 2796SOL    HW211230   2.976   1.046   4.659 -0.1777 -0.0380  2.1780
 2796SOL    HW311231   2.885   1.162   4.625 -0.3380 -0.3965  1.3709
 2796SOL    MW411232   2.896   1.078   4.647 -0.1905 -0.5556  0.7157
 2797SOL     OW11233   3.594   1.954   4.185 -0.0877 -0.1767 -0.1058
 2797SOL    HW211234   3.584   1.969   4.091  1.4716  0.7652 -0.1316
 2797SOL    HW311235   3.526   2.008   4.225 -0.5762 -0.3591 -0.6824
 2797SOL    MW411236   3.584   1.963   4.178  0.0534 -0.0765 -0.1850
 2798SOL     OW11237   4.440   1.207   4.192  0.0806  0.2555  0.6590
 2798SOL    HW211238   4.442   1.117   4.225 -0.4533  0.5279  1.4607
 2798SOL    HW311239   4.445   1.198   4.097  0.1056 -0.6228  0.7408
 2798SOL    MW411240   4.441   1.194   4.184  0.0138  0.1755  0.7758
 2799SOL     OW11241   2.463   2.062   4.329 -0.3225  0.2341 -0.4847
 2799SOL    HW211242   2.540   2.009   4.310  0.8806  1.8374 -0.1897
 2799SOL    HW311243   2.482   2.147   4.289 -0.8720  1.4072  1.6795
 2799SOL    MW411244   2.476   2.066   4.321 -0.2365  0.6001 -0.1597
 2800SOL     OW11245   4.397   2.351   4.590  0.3775  0.0240  0.0813
 2800SOL    HW211246   4.337   2.281   4.565 -0.3319  0.7099 -0.1521
 2800SOL    HW311247   4.405   2.405   4.511  0.3550  0.6010  0.4709
 2800SOL    MW411248   4.390   2.349   4.576  0.2813  0.1910  0.1020
 2801SOL     OW11249   1.101   0.548   4.237 -0.3306  0.1834 -0.1226
 2801SOL    HW211250   1.109   0.641   4.216 -1.5171  0.3640  0.1569
 2801SOL    HW311251   1.029   0.517   4.182  1.9140 -1.2567 -2.3385
 2801SOL    MW411252   1.092   0.556   4.227 -0.1911  0.0172 -0.3777
 2802SOL     OW11253   3.991   3.146   4.526 -0.1679 -0.1508  0.3744
 2802SOL    HW211254   3.994   3.177   4.436 -0.7854 -1.6241 -0.1689
 2802SOL    HW311255   4.034   3.061   4.523 -1.9389 -1.0872  1.0946
 2802SOL    MW411256   3.997   3.139   4.514 -0.4830 -0.4690  0.3972
 2803SOL     OW11257   4.284   4.346   4.475  0.4154 -0.2815  0.2802
 2803SOL    HW211258   4.356   4.403   4.501 -0.2943  0.5244  0.4854
 2803SOL    HW311259   4.287   4.345   4.379 -0.3365  1.1027  0.2305
 2803SOL    MW411260   4.294   4.353   4.466  0.2222  0.0072  0.3004
 2804SOL     OW11261   3.830   3.721   4.901 -0.1056 -0.1672  0.0832
 2804SOL    HW211262   3.817   3.633   4.866  0.8444  0.0136 -0.7244
 2804SOL    HW311263   3.912   3.715   4.951 -0.1865  0.1891  0.2583
 2804SOL    MW411264   3.839   3.709   4.903  0.0093 -0.0963 -0.0005
 2805SOL     OW11265   0.563   4.099   4.544  0.3256  0.1664 -0.1282
 2805SOL    HW211266   0.657   4.082   4.550  0.7445  1.6504 -1.8785
 2805SOL    HW311267   0.553   4.188   4.579 -0.7820 -0.8517  2.2390
 2805SOL    MW411268   0.575   4.109   4.549  0.2347  0.2279 -0.0467
 2806SOL     OW11269   0.365   1.409   4.613 -0.5893 -0.0754 -0.1547
 2806SOL    HW211270   0.361   1.382   4.704 -0.4363 -0.6731 -0.3211
 2806SOL    HW311271   0.274   1.417   4.586 -0.6376 -0.9769 -0.2622
 2806SOL    MW411272   0.353   1.407   4.621 -0.5755 -0.2732 -0.1907
 2807SOL     OW11273   4.173   1.886   4.840 -0.3609  0.1429 -0.1063
 2807SOL    HW211274   4.113   1.949   4.801 -0.8626  0.6722  1.4797
 2807SOL    HW311275   4.141   1.874   4.929  0.5168 -1.3502  0.0320
 2807SOL    MW411276   4.161   1.893   4.846 -0.3109  0.0157  0.1206
 2808SOL     OW11277   3.206   1.392   4.504  0.1244  0.3611 -0.2723
 2808SOL    HW211278   3.243   1.366   4.419  1.4882  1.0528  0.0954
 2808SOL    HW311279   3.240   1.480   4.519 -0.8541  0.6025  0.5680
 2808SOL    MW411280   3.216   1.400   4.495  0.1752  0.4842 -0.1125
 2809SOL     OW11281   3.814   1.558   4.163  0.2852  0.4495  0.4458
 2809SOL    HW211282   3.892   1.610   4.184 -0.5210  1.5530  0.7595
 2809SOL    HW311283   3.825   1.477   4.213  1.1607  0.6684  0.6138
 2809SOL    MW411284   3.826   1.554   4.173  0.2942  0.6238  0.5088
 2810SOL     OW11285   1.364   3.986   4.259 -0.5103  0.0489  0.6600
 2810SOL    HW211286   1.359   4.080   4.244 -0.1537 -0.0470 -0.1161
 2810SOL    HW311287   1.439   3.958   4.206 -0.7757 -0.7084  0.6820
 2810SOL    MW411288   1.374   3.995   4.250 -0.4983 -0.0637  0.5608
 2811SOL     OW11289   2.470   3.176   4.126  0.3877 -0.2926 -1.0616
 2811SOL    HW211290   2.416   3.254   4.111  0.8685  0.1105 -0.7064
 2811SOL    HW311291   2.417   3.122   4.186  0.4875  0.2138 -0.5168
 2811SOL    MW411292   2.456   3.179   4.132  0.4644 -0.1726 -0.9432
 2812SOL     OW11293   2.181   1.047   4.659  0.4390  0.2415 -0.6621
 2812SOL    HW211294   2.144   0.969   4.617  0.4671  0.0289 -0.2852
 2812SOL    HW311295   2.108   1.110   4.660  0.3992  0.1991 -0.9061
 2812SOL    MW411296   2.166   1.045   4.653  0.4375  0.2078 -0.6447
 2813SOL     OW11297   3.994   2.067   4.709  0.0197 -0.3132  0.2351
 2813SOL    HW211298   3.920   2.039   4.655 -0.8269 -0.0139  1.2285
 2813SOL    HW311299   4.056   2.104   4.647 -0.2491 -1.4284 -0.7173
 2813SOL    MW411300   3.992   2.068   4.694 -0.1273 -0.4206  0.2403
 2814SOL     OW11301   1.538   4.341   4.532  0.4094 -0.1327 -0.1111
 2814SOL    HW211302   1.485   4.369   4.607  0.6592 -1.1179  0.4404
 2814SOL    HW311303   1.611   4.293   4.571  0.7422 -0.3327 -0.9718
 2814SOL    MW411304   1.541   4.338   4.547  0.4863 -0.2885 -0.1521
 2815SOL     OW11305   0.010   0.112   4.314 -0.1019  0.0007 -0.5621
 2815SOL    HW211306   0.093   0.078   4.280  0.2753  0.4043 -0.0508
 2815SOL    HW311307   0.011   0.204   4.290  1.3709  0.9359  2.7787
 2815SOL    MW411308   0.021   0.119   4.307  0.1422  0.1773 -0.0544
 2816SOL     OW11309   1.791   0.097   4.230 -0.1136 -0.0239 -0.0189
 2816SOL    HW211310   1.713   0.045   4.211  0.8931 -2.8395  2.9849
 2816SOL    HW311311   1.762   0.187   4.222 -3.9000 -0.9954  1.6223
 2816SOL    MW411312   1.777   0.102   4.227 -0.4804 -0.5235  0.5941
 2817SOL     OW11313   1.833   4.040   4.870  0.0526  0.2906  0.1227
 2817SOL    HW211314   1.819   4.106   4.802  0.5930 -0.9546 -1.2342
 2817SOL    HW311315   1.908   4.073   4.920  1.0832  0.1702 -1.2844
 2817SOL    MW411316   1.841   4.053   4.867  0.2598  0.1101 -0.2422
 2818SOL     OW11317   2.463   2.706   4.564  0.2417 -0.1958 -0.1494
 2818SOL    HW211318   2.399   2.636   4.573  1.3224 -0.8558  2.9530
 2818SOL    HW311319   2.445   2.765   4.637  0.2744  2.0590 -1.8861
 2818SOL    MW411320   2.452   2.705   4.574  0.3886  0.0143  0.0305
 2819SOL     OW11321   2.453   1.557   4.082 -0.0470 -0.6981  0.4541
 2819SOL    HW211322   2.456   1.554   3.987  1.0573 -1.6298  0.5113
 2819SOL    HW311323   2.435   1.467   4.108  0.0442 -0.5204  1.1414
 2819SOL    MW411324   2.451   1.545   4.073  0.1106 -0.7976  0.5517
 2820SOL     OW11325   3.146   0.749   4.540  0.0593  0.2044 -0.0319
 2820SOL    HW211326   3.076   0.685   4.527  0.0190  0.3218 -0.4194
 2820SOL    HW311327   3.170   0.776   4.451  1.1607 -0.4465  0.0614
 2820SOL    MW411328   3.140   0.744   4.526  0.1996  0.1341 -0.0706
 2821SOL     OW11329   4.057   3.212   4.252 -0.0258  0.2500  0.1121
 2821SOL    HW211330   4.091   3.302   4.253  0.8441 -0.0438 -1.2381
 2821SOL    HW311331   4.136   3.157   4.248 -0.5728 -0.5575  0.3421
 2821SOL    MW411332   4.072   3.216   4.252  0.0167  0.1047 -0.0362
 2822SOL     OW11333   3.362   0.105   4.827  0.0707  0.5525 -0.1469
 2822SOL    HW211334   3.444   0.062   4.803  0.1814  0.2045  0.8334
 2822SOL    HW311335   3.297   0.035   4.826 -0.0979  0.7110 -0.3197
 2822SOL    MW411336   3.364   0.090   4.823  0.0629  0.5275 -0.0405
 2823SOL     OW11337   1.210   0.044   4.565  0.1416 -0.2302 -0.1185
 2823SOL    HW211338   1.215  -0.050   4.546  0.7490 -0.1161 -0.5413
 2823SOL    HW311339   1.301   0.069   4.584 -0.0884  0.1799  0.4276
 2823SOL    MW411340   1.223   0.035   4.565  0.1915 -0.1611 -0.1025
 2824SOL     OW11341   0.547   0.315   4.513 -0.3694  0.5954  0.5048
 2824SOL    HW211342   0.565   0.409   4.513 -0.3214  0.5977  2.3804
 2824SOL    HW311343   0.453   0.309   4.531  0.2200  0.2213  3.7356
 2824SOL    MW411344   0.537   0.327   4.515 -0.2853  0.5463  1.1787
 2825SOL     OW11345   2.661   0.239   4.516 -0.1378 -0.4233  0.1999
 2825SOL    HW211346   2.681   0.189   4.437 -0.3708 -1.7413  0.9620
 2825SOL    HW311347   2.632   0.173   4.579 -1.5508  0.8204  0.8588
 2825SOL    MW411348   2.660   0.224   4.514 -0.3550 -0.4331  0.3872
 2826SOL     OW11349   0.466   4.058   4.292 -0.1382 -0.2972 -0.3423
 2826SOL    HW211350   0.481   4.078   4.385  0.3375 -0.4512 -0.3834
 2826SOL    HW311351   0.486   4.140   4.247  0.1822 -0.3836 -0.3588
 2826SOL    MW411352   0.471   4.072   4.298 -0.0331 -0.3285 -0.3495
 2827SOL     OW11353   3.843   0.502   4.253  0.2308 -0.5875  0.0685
 2827SOL    HW211354   3.818   0.459   4.335  2.0632 -1.8663 -0.0317
 2827SOL    HW311355   3.915   0.449   4.218 -0.1898  0.2179 -2.1284
 2827SOL    MW411356   3.849   0.489   4.259  0.4168 -0.6500 -0.2346
 2828SOL     OW11357   0.064   4.023   4.499 -0.1633  0.0726  0.5304
 2828SOL    HW211358   0.104   3.938   4.483 -1.3370 -0.0686 -1.7721
 2828SOL    HW311359   0.107   4.055   4.578  1.1394 -2.1235  0.7423
 2828SOL    MW411360   0.075   4.016   4.508 -0.1463 -0.2356  0.2551
 2829SOL     OW11361   1.224   2.765   4.330  0.1553  0.1834  0.2204
 2829SOL    HW211362   1.253   2.726   4.248 -0.6810 -0.4711  0.2291
 2829SOL    HW311363   1.295   2.824   4.355  1.5327 -1.4470  0.2841
 2829SOL    MW411364   1.237   2.768   4.323  0.2267 -0.1180  0.2298
 2830SOL     OW11365   0.716   3.721   4.918 -0.1430  0.5937 -0.4329
 2830SOL    HW211366   0.621   3.726   4.908 -0.2151 -0.2478 -0.2084
 2830SOL    HW311367   0.731   3.644   4.972  0.7105  0.3167 -1.0434
 2830SOL    MW411368   0.706   3.712   4.924 -0.0400  0.4463 -0.4840
 2831SOL     OW11369   3.376   0.588   4.563 -0.0531  0.2893  0.1233
 2831SOL    HW211370   3.349   0.510   4.612 -1.1064  0.0432 -0.8214
 2831SOL    HW311371   3.299   0.645   4.564  1.2052  2.0049  2.1104
 2831SOL    MW411372   3.362   0.585   4.569 -0.0257  0.4831  0.2608
 2832SOL     OW11373   3.119   1.968   4.142 -0.2894  0.2077  0.2016
 2832SOL    HW211374   3.053   2.013   4.195  0.0464  1.0917 -0.1121
 2832SOL    HW311375   3.121   1.879   4.177 -1.5745  0.1941  0.2823
 2832SOL    MW411376   3.111   1.962   4.154 -0.4146  0.3226  0.1712
 2833SOL     OW11377   2.130   3.367   4.275  0.0215 -0.1292  0.2757
 2833SOL    HW211378   2.082   3.442   4.309 -0.5601 -0.6754  0.6570
 2833SOL    HW311379   2.084   3.291   4.309  0.4350 -0.6668 -0.3500
 2833SOL    MW411380   2.118   3.367   4.284 -0.0005 -0.2723  0.2437
 2834SOL     OW11381   2.016   1.559   4.163 -0.2447 -0.0665  0.1521
 2834SOL    HW211382   2.087   1.619   4.187  0.2548 -0.9560  0.9715
 2834SOL    HW311383   2.007   1.568   4.068 -0.7665  1.9267  0.3736
 2834SOL    MW411384   2.024   1.568   4.154 -0.2477  0.0792  0.2894
 2835SOL     OW11385   4.090   0.898   4.273 -0.1265 -0.3043 -0.1204
 2835SOL    HW211386   4.013   0.841   4.259 -0.5593  0.3729 -0.5442
 2835SOL    HW311387   4.161   0.853   4.227  0.1304 -1.7894  1.6934
 2835SOL    MW411388   4.089   0.884   4.265 -0.1497 -0.4109  0.0625
 2836SOL     OW11389   2.881   4.398   4.198 -0.6331 -0.2864 -0.3503
 2836SOL    HW211390   2.873   4.373   4.290 -0.5418  1.0718  0.0399
 2836SOL    HW311391   2.871   4.493   4.198 -0.4212 -0.2499 -1.7236
 2836SOL    MW411392   2.879   4.407   4.210 -0.5932 -0.1030 -0.4802
 2837SOL     OW11393   0.169   0.540   4.534  0.3270  0.3857  0.6651
 2837SOL    HW211394   0.191   0.536   4.441 -1.5101 -0.5324  0.2514
 2837SOL    HW311395   0.208   0.461   4.572 -0.4619 -0.1660  0.3296
 2837SOL    MW411396   0.177   0.529   4.527 -0.0194  0.1918  0.5660
 2838SOL     OW11397   3.913   3.949   4.766 -0.3207 -0.5054  0.5255
 2838SOL    HW211398   3.872   3.883   4.822  0.4481 -1.3129  0.1449
 2838SOL    HW311399   3.983   3.986   4.818 -0.4171 -0.3532  0.5489
 2838SOL    MW411400   3.917   3.946   4.780 -0.2317 -0.5920  0.4783
 2839SOL     OW11401   0.146   2.293   4.725 -0.1376  0.2309  0.2561
 2839SOL    HW211402   0.056   2.291   4.690 -0.4242 -0.0952  1.0048
 2839SOL    HW311403   0.138   2.340   4.807  0.2227 -0.5712  0.7572
 2839SOL    MW411404   0.133   2.299   4.731 -0.1279  0.0823  0.4210
 2840SOL     OW11405   3.670   3.629   4.548 -0.0820  0.2136 -0.3656
 2840SOL    HW211406   3.721   3.572   4.605  0.0264  1.1042  0.4461
 2840SOL    HW311407   3.672   3.714   4.591  0.5120  1.0614 -2.0162
 2840SOL    MW411408   3.677   3.633   4.561  0.0105  0.4430 -0.4759
 2841SOL     OW11409   0.934   2.219   4.477 -0.5331  0.0480  0.0532
 2841SOL    HW211410   0.916   2.304   4.516  1.4819 -0.0131  1.2054
 2841SOL    HW311411   0.872   2.159   4.519  0.0834  0.4027  1.5045
 2841SOL    MW411412   0.924   2.223   4.487 -0.1859  0.0865  0.3963
 2842SOL     OW11413   1.375   0.958   4.561  0.6089 -0.2461 -0.1249
 2842SOL    HW211414   1.374   0.960   4.465  0.2141  2.0174 -0.0950
 2842SOL    HW311415   1.403   1.046   4.587 -1.5757 -0.0975  1.8620
 2842SOL    MW411416   1.379   0.970   4.552  0.2686  0.0721  0.1411
 2843SOL     OW11417   4.267   3.231   4.689  0.3598  0.4157  0.2674
 2843SOL    HW211418   4.340   3.246   4.630 -0.7280  2.4501 -0.6155
 2843SOL    HW311419   4.222   3.155   4.653  1.7795 -0.5849  0.5780
 2843SOL    MW411420   4.270   3.223   4.677  0.4034  0.5519  0.1912
 2844SOL     OW11421   0.992   2.913   4.295 -0.2035  0.1326  0.4730
 2844SOL    HW211422   1.075   2.869   4.310 -0.5530 -0.6223  0.2265
 2844SOL    HW311423   0.964   2.943   4.381 -0.6942 -1.4427  0.8640
 2844SOL    MW411424   0.999   2.911   4.308 -0.3144 -0.1750  0.4916
 2845SOL     OW11425   0.192   1.305   4.258  0.3152 -0.2965  0.0043
 2845SOL    HW211426   0.179   1.355   4.339 -1.6382  1.7039 -1.4812
 2845SOL    HW311427   0.106   1.266   4.241  0.4767 -0.0005 -1.5449
 2845SOL    MW411428   0.179   1.306   4.267  0.0788  0.0064 -0.3953
 2846SOL     OW11429   3.793   3.579   4.299 -0.3889 -0.3961 -0.1890
 2846SOL    HW211430   3.723   3.532   4.253 -0.2307 -1.3915  0.5659
 2846SOL    HW311431   3.761   3.590   4.388  0.9254 -1.9958  0.5043
 2846SOL    MW411432   3.779   3.574   4.304 -0.1948 -0.7384  0.0019
 2847SOL     OW11433   2.550   3.074   4.719 -0.2678 -0.2643 -0.1439
 2847SOL    HW211434   2.489   3.011   4.759 -0.7525 -0.5470 -1.3152
 2847SOL    HW311435   2.494   3.139   4.678  0.1521 -1.4240 -2.6688
 2847SOL    MW411436   2.535   3.074   4.719 -0.2763 -0.4544 -0.6318
 2848SOL     OW11437   4.337   3.494   5.046 -0.5388 -0.2328 -0.2618
 2848SOL    HW211438   4.400   3.536   5.105 -0.0717 -0.7369 -0.3941
 2848SOL    HW311439   4.377   3.409   5.026 -2.3496 -1.5212  1.4705
 2848SOL    MW411440   4.351   3.488   5.051 -0.7162 -0.4692 -0.0515
 2849SOL     OW11441   0.105   1.429   4.513  0.1585 -0.2848 -0.1840
 2849SOL    HW211442   0.049   1.376   4.570  0.2693  0.8730  1.0544
 2849SOL    HW311443   0.058   1.512   4.505  0.6394 -0.0857 -0.9617
 2849SOL    MW411444   0.092   1.433   4.520  0.2366 -0.1057 -0.1240
 2850SOL     OW11445   0.007   0.980   4.569 -0.0681  0.4666 -0.1564
 2850SOL    HW211446  -0.050   0.920   4.617 -0.2425 -0.4096 -1.4398
 2850SOL    HW311447   0.090   0.933   4.563  0.0715  0.7439 -0.3836
 2850SOL    MW411448   0.011   0.965   4.575 -0.0720  0.3875 -0.3562
 2851SOL     OW11449   1.103   1.016   4.557  0.0564  0.0333  0.0490
 2851SOL    HW211450   1.054   0.938   4.531  0.2649 -0.2359  0.4516
 2851SOL    HW311451   1.194   0.987   4.558 -0.0314 -0.2472  2.0525
 2851SOL    MW411452   1.109   1.002   4.554  0.0724 -0.0391  0.3657
 2852SOL     OW11453   4.427   1.999   4.688 -0.1454  0.0636 -0.3204
 2852SOL    HW211454   4.374   1.945   4.746 -0.1431  0.6108  0.1866
 2852SOL    HW311455   4.502   1.943   4.664  0.3152  0.1551  0.9015
 2852SOL    MW411456   4.430   1.984   4.692 -0.0839  0.1478 -0.0925
 2853SOL     OW11457   4.001   1.974   4.169 -0.0075 -0.0263  0.2392
 2853SOL    HW211458   3.933   2.013   4.224 -1.6102 -1.9493 -0.3122
 2853SOL    HW311459   4.004   1.882   4.197  0.9477 -0.4138 -1.1292
 2853SOL    MW411460   3.992   1.967   4.180 -0.0925 -0.3312 -0.0143
 2854SOL     OW11461   1.982   4.383   4.263 -0.0162  0.0213  0.1580
 2854SOL    HW211462   1.915   4.345   4.206  0.4381  1.3538 -1.3256
 2854SOL    HW311463   2.001   4.468   4.223 -0.3876  1.4392  2.8676
 2854SOL    MW411464   1.975   4.389   4.250 -0.0054  0.3843  0.3200
 2855SOL     OW11465   0.897   3.018   4.543 -0.0848 -0.2022  0.3795
 2855SOL    HW211466   0.876   3.111   4.549 -0.4362 -0.2686  0.2352
 2855SOL    HW311467   0.955   3.001   4.617 -0.3685  0.0370  0.6582
 2855SOL    MW411468   0.902   3.028   4.553 -0.1686 -0.1795  0.3972
 2856SOL     OW11469   0.529   2.209   4.638 -0.1878 -0.1684  0.1851
 2856SOL    HW211470   0.441   2.178   4.619  0.0185 -0.6032 -0.0610
 2856SOL    HW311471   0.526   2.302   4.618 -0.6269 -0.1547  0.3032
 2856SOL    MW411472   0.517   2.217   4.633 -0.2186 -0.2239  0.1683
 2857SOL     OW11473   0.713   2.316   4.163 -0.0647  0.6632  0.3316
 2857SOL    HW211474   0.701   2.230   4.203  0.1366 -0.2801 -1.5591
 2857SOL    HW311475   0.675   2.307   4.076  1.2544  2.0528 -0.4140
 2857SOL    MW411476   0.706   2.303   4.157  0.1359  0.7219 -0.0162
 2858SOL     OW11477   4.020   1.714   4.243  0.8264 -0.4019  0.0897
 2858SOL    HW211478   4.012   1.683   4.333  1.8572 -0.9797 -0.0138
 2858SOL    HW311479   4.092   1.663   4.206  1.4008  0.8913 -0.6010
 2858SOL    MW411480   4.029   1.703   4.250  1.0386 -0.3074 -0.0153
 2859SOL     OW11481   0.507   4.342   4.688  0.3235  0.3932  0.4474
 2859SOL    HW211482   0.502   4.347   4.783 -1.4077 -0.7220  0.4507
 2859SOL    HW311483   0.556   4.420   4.662  0.6484  0.8107  2.2290
 2859SOL    MW411484   0.513   4.353   4.697  0.1379  0.3004  0.6828
 2860SOL     OW11485   3.745   4.183   4.616 -0.0127 -0.1673 -0.2463
 2860SOL    HW211486   3.781   4.099   4.644  0.1748  0.3356  1.0165
 2860SOL    HW311487   3.652   4.165   4.602 -0.0831 -0.4470  0.5599
 2860SOL    MW411488   3.737   4.169   4.618  0.0029 -0.1373  0.0267
 2861SOL     OW11489   3.111   0.181   4.544 -0.1962  0.1207 -0.0068
 2861SOL    HW211490   3.191   0.229   4.564 -1.0293  2.3844 -1.9153
 2861SOL    HW311491   3.044   0.219   4.601 -0.7325  0.8627 -1.1172
 2861SOL    MW411492   3.113   0.192   4.554 -0.3767  0.5172 -0.4048
 2862SOL     OW11493   3.146   4.040   4.213  0.1817  0.4502 -0.0863
 2862SOL    HW211494   3.077   3.986   4.175  0.2216 -0.4106  1.0368
 2862SOL    HW311495   3.221   3.982   4.221  0.7139  1.0972 -0.3282
 2862SOL    MW411496   3.147   4.025   4.209  0.2573  0.4220  0.0305
 2863SOL     OW11497   4.117   3.490   4.693  0.1305 -0.0782  0.2108
 2863SOL    HW211498   4.150   3.560   4.637  0.4398 -0.3727  0.0152
 2863SOL    HW311499   4.173   3.415   4.672  1.7485  0.4062  2.5506
 2863SOL    MW411500   4.129   3.489   4.683  0.3853 -0.0532  0.4935
 2864SOL     OW11501   1.626   3.079   4.715  0.1136 -0.2611 -0.5931
 2864SOL    HW211502   1.647   3.157   4.665  0.6474  1.1705  1.7665
 2864SOL    HW311503   1.667   3.007   4.667  2.8117  1.3783 -0.8265
 2864SOL    MW411504   1.634   3.080   4.702  0.5400  0.1438 -0.3123
 2865SOL     OW11505   4.380   0.570   4.531  0.4664  0.4519  0.1001
 2865SOL    HW211506   4.472   0.544   4.536  0.4360  0.1342 -0.9953
 2865SOL    HW311507   4.332   0.496   4.569  0.6416  0.5538  0.5305
 2865SOL    MW411508   4.386   0.557   4.537  0.4859  0.4234  0.0124
 2866SOL     OW11509   2.681   3.965   4.609  0.1152  0.1321  0.3918
 2866SOL    HW211510   2.775   3.950   4.597  0.3373  1.0687  0.8801
 2866SOL    HW311511   2.670   4.059   4.592 -0.4145  0.4313  2.3583
 2866SOL    MW411512   2.692   3.976   4.605  0.0746  0.2954  0.7162
 2867SOL     OW11513   2.278   0.116   4.569  0.2263  0.0846 -0.2123
 2867SOL    HW211514   2.348   0.096   4.631 -0.0807 -0.6173 -0.0874
 2867SOL    HW311515   2.265   0.210   4.577  0.6271  0.0965  0.3253
 2867SOL    MW411516   2.286   0.125   4.578  0.2387 -0.0064 -0.1249
 2868SOL     OW11517   0.655   0.575   4.237  0.3987  0.1540  0.1971
 2868SOL    HW211518   0.581   0.519   4.214 -1.4058  2.1914  0.8347
 2868SOL    HW311519   0.655   0.577   4.332  0.5371  1.0967  0.1824
 2868SOL    MW411520   0.645   0.568   4.246  0.1789  0.5472  0.2789
 2869SOL     OW11521   4.069   4.458   4.573  0.2771 -0.1436 -0.0939
 2869SOL    HW211522   4.076   4.431   4.664  1.5951 -0.3783 -0.2525
 2869SOL    HW311523   4.147   4.422   4.531 -0.3012 -0.0257 -1.3167
 2869SOL    MW411524   4.080   4.450   4.579  0.3743 -0.1588 -0.2761
 2870SOL     OW11525   3.364   3.573   4.264 -0.5958 -0.0455  0.5436
 2870SOL    HW211526   3.290   3.515   4.247 -1.3744  0.9578  0.4693
 2870SOL    HW311527   3.389   3.555   4.355 -1.6744  0.4287  0.9381
 2870SOL    MW411528   3.358   3.563   4.274 -0.8407  0.1493  0.5856
 2871SOL     OW11529   3.043   4.575   4.613 -0.1324 -0.2094 -0.0840
 2871SOL    HW211530   3.081   4.660   4.593 -0.2834 -0.2649 -0.6021
 2871SOL    HW311531   3.118   4.516   4.619  0.1109  0.2589  1.8274
 2871SOL    MW411532   3.058   4.578   4.611 -0.1202 -0.1554  0.0997
 2872SOL     OW11533   3.088   4.044   4.816  0.4090 -0.1215  0.1844
 2872SOL    HW211534   3.166   4.085   4.777  0.1506 -0.5532 -0.8010
 2872SOL    HW311535   3.028   4.117   4.830 -0.3505 -0.2291 -2.2936
 2872SOL    MW411536   3.091   4.059   4.812  0.2749 -0.1926 -0.2728
 2873SOL     OW11537   0.445   3.734   4.842  0.4487 -0.4859  0.0649
 2873SOL    HW211538   0.424   3.818   4.802  0.2728  0.1950  1.5471
 2873SOL    HW311539   0.361   3.700   4.872  0.4414 -1.4833 -1.0837
 2873SOL    MW411540   0.431   3.741   4.841  0.4246 -0.5279  0.1092
 2874SOL     OW11541   2.023   4.605   4.572 -0.4568 -0.3449  0.5785
 2874SOL    HW211542   2.091   4.672   4.561  0.6360 -1.7720 -1.9900
 2874SOL    HW311543   1.941   4.653   4.569  0.3322  0.9584 -0.7269
 2874SOL    MW411544   2.021   4.620   4.570 -0.2089 -0.3605  0.0677
 2875SOL     OW11545   4.452   1.666   4.521  0.0838  0.0426 -0.2693
 2875SOL    HW211546   4.369   1.681   4.567  0.1876  1.3987 -0.4913
 2875SOL    HW311547   4.433   1.683   4.429  0.6444  0.5657 -0.2968
 2875SOL    MW411548   4.439   1.670   4.515  0.1717  0.2906 -0.3018
 2876SOL     OW11549   0.225   0.518   4.260  0.2209 -0.1755  0.3959
 2876SOL    HW211550   0.160   0.463   4.216  0.0226 -0.8905  1.5471
 2876SOL    HW311551   0.309   0.480   4.236  0.1909  0.4449 -0.6933
 2876SOL    MW411552   0.228   0.506   4.251  0.1908 -0.1880  0.4039
 2877SOL     OW11553   4.114   3.606   4.938  0.5953 -0.6327  0.3765
 2877SOL    HW211554   4.176   3.553   4.989 -0.5848 -2.4757 -0.0240
 2877SOL    HW311555   4.114   3.567   4.851 -0.5952 -0.2356  0.1781
 2877SOL    MW411556   4.122   3.594   4.933  0.2823 -0.8235  0.2975
 2878SOL     OW11557   0.292   0.299   4.600  0.2373  0.2158 -0.7158
 2878SOL    HW211558   0.290   0.278   4.693 -0.0773  0.1533 -0.7358
 2878SOL    HW311559   0.217   0.252   4.563  0.8361 -0.4175 -1.1369
 2878SOL    MW411560   0.282   0.290   4.607  0.2748  0.1240 -0.7739
 2879SOL     OW11561   2.765   3.008   4.574  0.1199  0.4916  0.0983
 2879SOL    HW211562   2.695   3.038   4.633 -0.2691  0.0595 -0.1482
 2879SOL    HW311563   2.774   2.915   4.594  0.8278  0.6079  0.3361
 2879SOL    MW411564   2.757   3.000   4.585  0.1621  0.4499  0.0973
 2880SOL     OW11565   2.621   2.722   4.130 -0.4944 -0.1893 -0.3481
 2880SOL    HW211566   2.636   2.631   4.155  1.1438  0.6102  1.7984
 2880SOL    HW311567   2.538   2.745   4.172  0.2289 -0.0456  1.0307
 2880SOL    MW411568   2.612   2.713   4.139 -0.1829 -0.0651  0.1168
 2881SOL     OW11569   0.843   4.055   4.590 -0.0603  0.0100  0.2574
 2881SOL    HW211570   0.820   3.976   4.640  1.6905 -0.6309  0.1079
 2881SOL    HW311571   0.846   4.025   4.499  0.0021  0.3993  0.1307
 2881SOL    MW411572   0.841   4.040   4.584  0.1789 -0.0229  0.2208
 2882SOL     OW11573   2.183   0.952   4.289 -0.4889  0.0904 -0.0868
 2882SOL    HW211574   2.173   1.031   4.236 -0.5512  0.2239  0.1258
 2882SOL    HW311575   2.254   0.904   4.247  0.7144  1.0696  0.7861
 2882SOL    MW411576   2.191   0.956   4.277 -0.3386  0.2372  0.0563
 2883SOL     OW11577   3.590   0.400   4.170  0.3607  0.2532  0.5754
 2883SOL    HW211578   3.575   0.406   4.076 -0.6038  0.5408  0.7454
 2883SOL    HW311579   3.680   0.432   4.182  0.6120 -0.1249 -0.2797
 2883SOL    MW411580   3.600   0.405   4.159  0.2666  0.2412  0.4854
 2884SOL     OW11581   3.772   0.383   4.494 -0.3016 -0.2198 -0.1653
 2884SOL    HW211582   3.797   0.387   4.587  0.2111 -0.4348 -0.2907
 2884SOL    HW311583   3.705   0.315   4.491 -0.0953 -0.4348  0.0009
 2884SOL    MW411584   3.767   0.374   4.506 -0.2067 -0.2765 -0.1597
 2885NA      NA11585   0.439   0.097   0.461  0.0273  0.2440 -0.3937
   4.49070   4.66690  10.00000
