Gromacs Runs On Most of All Computer Systems in water
11584
    1RU5    O5'    1   2.829   2.383   4.492 -0.0400 -0.0270 -0.4727
    1RU5    H5T    2   2.894   2.315   4.511 -1.3945 -0.9344  1.0502
    1RU5    C5'    3   2.865   2.488   4.583  0.2378 -0.3238 -0.5261
    1RU5   H5'1    4   2.832   2.584   4.542 -0.2552 -0.5348 -0.6323
    1RU5   H5'2    5   2.973   2.491   4.588  0.2193 -0.0367 -0.2610
    1RU5    C4'    6   2.801   2.485   4.721  0.6241  0.0827  0.5622
    1RU5    H4'    7   2.850   2.562   4.779 -0.3848  1.5643 -0.5156
    1RU5    O4'    8   2.667   2.514   4.715 -0.4743  0.1476  0.1221
    1RU5    C1'    9   2.604   2.468   4.832  0.7277  0.1047  0.0163
    1RU5    H1'   10   2.584   2.554   4.895 -1.1436 -0.2457 -0.0671
    1RU5     N1   11   2.472   2.398   4.805  0.6118  0.3947  0.2095
    1RU5     C6   12   2.473   2.269   4.764  0.0453 -0.1913  0.2423
    1RU5     H6   13   2.566   2.215   4.758  1.2832  2.0149 -1.1070
    1RU5     C5   14   2.360   2.208   4.730  0.0813  0.1099 -0.3422
    1RU5     H5   15   2.353   2.105   4.697 -1.5697 -0.0057  0.3220
    1RU5     C4   16   2.234   2.272   4.736 -0.4438 -0.3474 -0.2701
    1RU5     O4   17   2.122   2.227   4.709  0.2997  0.0662 -0.0571
    1RU5     N3   18   2.243   2.407   4.767 -0.1545  0.0106 -0.0944
    1RU5     H3   19   2.161   2.464   4.751  0.0137  0.1334 -0.5378
    1RU5     C2   20   2.354   2.475   4.798  0.1105 -0.5857  0.1655
    1RU5     O2   21   2.357   2.596   4.805  0.1029 -0.2764  0.5310
    1RU5    C3'   22   2.807   2.357   4.800  0.2117 -0.1126  0.0915
    1RU5    H3'   23   2.766   2.275   4.740 -2.0920  0.4817  0.7917
    1RU5    C2'   24   2.714   2.397   4.911  0.8360  0.0728 -0.1216
    1RU5   H2'1   25   2.675   2.310   4.964  0.0611  0.2710 -0.3571
    1RU5    O2'   26   2.767   2.494   4.998  0.1387 -0.6197  0.2614
    1RU5   HO'2   27   2.858   2.469   5.012  0.4529  0.6222  0.4602
    1RU5    O3'   28   2.934   2.330   4.847 -0.0202 -0.3945  0.0957
    2RG3      P   29   3.007   2.212   4.777 -0.3508 -0.7377 -0.2869
    2RG3    O1P   30   3.148   2.214   4.817  0.1574  0.4881  0.4566
    2RG3    O2P   31   2.971   2.201   4.635  0.2321  0.2556 -0.2813
    2RG3    O5'   32   2.931   2.088   4.845 -0.2318  0.0083 -0.1841
    2RG3    C5'   33   2.958   2.050   4.980  0.1312  0.0534  0.4620
    2RG3   H5'1   34   2.896   2.104   5.052  1.7956 -1.2390  2.9208
    2RG3   H5'2   35   3.057   2.081   5.013  0.2812 -0.8769  0.8822
    2RG3    C4'   36   2.920   1.902   5.004 -0.0567  0.1588 -0.3285
    2RG3    H4'   37   2.939   1.880   5.109  0.3914  1.0566 -0.2150
    2RG3    O4'   38   2.781   1.872   4.982  0.2648  0.6917  0.0763
    2RG3    C1'   39   2.763   1.740   4.947  0.2318  0.7491 -0.0263
    2RG3    H1'   40   2.714   1.688   5.029 -0.7466  2.4177  0.4779
    2RG3     N9   41   2.675   1.732   4.829 -0.2899 -0.3558 -0.1683
    2RG3     C8   42   2.675   1.809   4.716 -0.0741 -0.1020 -0.3623
    2RG3     H8   43   2.741   1.894   4.713 -1.2367  0.8402  0.0040
    2RG3     N7   44   2.574   1.788   4.636  0.2001 -0.3473  0.2125
    2RG3     C5   45   2.510   1.680   4.694 -0.2962  0.5661 -0.7644
    2RG3     C6   46   2.385   1.615   4.660 -0.2451  0.5717  0.0302
    2RG3     O6   47   2.317   1.636   4.560  0.0659  0.2996  0.1245
    2RG3     N1   48   2.358   1.512   4.743  0.1772 -0.1176  0.2191
    2RG3     H1   49   2.263   1.479   4.743 -0.0883  0.6208  1.0858
    2RG3     C2   50   2.435   1.474   4.846 -0.3765  0.3942  0.6022
    2RG3     N2   51   2.395   1.361   4.904 -0.2062  0.0758 -0.2148
    2RG3    H21   52   2.310   1.317   4.874 -0.7531  0.2624  1.0459
    2RG3    H22   53   2.451   1.316   4.976 -0.3299 -0.8939 -0.7231
    2RG3     N3   54   2.547   1.531   4.888 -0.6059  0.3949 -0.7181
    2RG3     C4   55   2.580   1.639   4.807  0.3915  0.0755 -0.3807
    2RG3    C3'   56   2.992   1.807   4.913  0.0509 -0.4620  0.2802
    2RG3    H3'   57   2.990   1.835   4.808 -0.7216  0.2489  0.4733
    2RG3    C2'   58   2.904   1.681   4.930  0.2585  1.0080 -0.1806
    2RG3   H2'1   59   2.907   1.615   4.843  1.9430 -1.1175  1.4390
    2RG3    O2'   60   2.941   1.613   5.047 -0.2990  0.2365  0.5059
    2RG3   HO'2   61   3.021   1.655   5.080 -0.0879 -0.4475  0.8690
    2RG3    O3'   62   3.125   1.781   4.954 -0.1837 -0.6614 -0.0842
    2RG3    H3T   63   3.186   1.845   4.916  0.4821 -1.0480  0.3273
    5SOL     OW   64   0.583   0.155   0.506  0.4673 -0.3932 -0.7099
    5SOL    HW2   65   0.584   0.232   0.564 -0.2748  0.2998 -1.5923
    5SOL    HW3   66   0.674   0.143   0.480  0.2289  1.9956 -2.8673
    5SOL    MW4   67   0.595   0.164   0.510  0.3379  0.0134 -1.1110
    6SOL     OW   68   3.624   0.008   0.455  0.1372 -0.4358 -0.0971
    6SOL    HW2   69   3.654   0.095   0.430 -1.4779  0.3497  0.6216
    6SOL    HW3   70   3.530   0.008   0.434  0.0809 -1.9326  0.0879
    6SOL    MW4   71   3.615   0.020   0.449 -0.0834 -0.5297  0.0221
    7SOL     OW   72   4.040   4.434   0.334 -0.1692  0.0200 -0.1148
    7SOL    HW2   73   4.024   4.348   0.295 -1.6478  0.8027 -1.2742
    7SOL    HW3   74   3.964   4.450   0.390  0.3430  0.3560  0.4921
    7SOL    MW4   75   4.028   4.425   0.336 -0.2971  0.1674 -0.1877
    8SOL     OW   76   4.265   1.620   0.411 -0.3767 -0.0552  0.2437
    8SOL    HW2   77   4.247   1.638   0.319 -0.1927 -0.9065  0.0354
    8SOL    HW3   78   4.224   1.535   0.427 -0.4425  0.1089  0.9588
    8SOL    MW4   79   4.257   1.611   0.401 -0.3610 -0.1458  0.3105
    9SOL     OW   80   1.327   0.881   0.396 -0.5072  0.2309  0.3364
    9SOL    HW2   81   1.323   0.862   0.489  2.4024 -1.7034  0.0988
    9SOL    HW3   82   1.334   0.796   0.353  0.8042  1.2102 -1.4978
    9SOL    MW4   83   1.327   0.867   0.402  0.0497  0.1050  0.0631
   10SOL     OW   84   4.419   0.357   0.336  0.1494  0.3150  0.1062
   10SOL    HW2   85   4.445   0.283   0.391  0.7447  0.4655  0.0340
   10SOL    HW3   86   4.437   0.328   0.247  0.3883  0.5474  0.0788
   10SOL    MW4   87   4.425   0.344   0.332  0.2594  0.3655  0.0930
   11SOL     OW   88   0.483   0.911   0.502 -0.7704  0.1733 -0.3691
   11SOL    HW2   89   0.468   0.879   0.591  0.2734 -0.8285 -0.5370
   11SOL    HW3   90   0.428   0.855   0.447 -0.6083  0.0898 -0.4487
   11SOL    MW4   91   0.474   0.899   0.507 -0.6113  0.0302 -0.4017
   12SOL     OW   92   0.768   0.919   0.541  0.1350  0.0247  0.4150
   12SOL    HW2   93   0.790   0.918   0.634 -0.2139  1.7522  0.5341
   12SOL    HW3   94   0.673   0.930   0.539 -0.0884 -1.8702 -0.1431
   12SOL    MW4   95   0.758   0.920   0.553  0.0594  0.0027  0.3572
   13SOL     OW   96   0.384   1.156   0.497 -0.2471  0.0242  0.2163
   13SOL    HW2   97   0.303   1.153   0.448 -0.8559  0.5089  1.1853
   13SOL    HW3   98   0.418   1.066   0.492 -2.0759 -0.8151  1.8231
   13SOL    MW4   99   0.378   1.143   0.490 -0.5687 -0.0226  0.5561
   14SOL     OW  100   0.024   1.756   0.462 -0.0077  0.4436 -0.1650
   14SOL    HW2  101   0.044   1.731   0.552  0.1103  1.2387  0.0383
   14SOL    HW3  102  -0.046   1.697   0.435  0.0428  0.1188  0.4050
   14SOL    MW4  103   0.017   1.745   0.470  0.0145  0.5057 -0.0630
   15SOL     OW  104   4.103   1.871   0.445 -0.2158  0.3185 -0.2705
   15SOL    HW2  105   4.167   1.799   0.449 -0.1549  0.4265  1.0031
   15SOL    HW3  106   4.047   1.849   0.370  0.9463 -0.0830 -1.0437
   15SOL    MW4  107   4.104   1.859   0.436 -0.0548  0.2798 -0.2045
   16SOL     OW  108   0.043   2.207   0.380 -0.3902  0.1698  0.1017
   16SOL    HW2  109  -0.010   2.131   0.405 -0.0136 -0.4682 -0.9996
   16SOL    HW3  110   0.132   2.182   0.403 -0.2907  0.3532 -0.0899
   16SOL    MW4  111   0.048   2.194   0.386 -0.3274  0.1099 -0.0689
   17SOL     OW  112   4.462   2.469   0.441  0.4490 -0.0411  0.4175
   17SOL    HW2  113   4.453   2.459   0.535  0.0412 -0.1038  0.3710
   17SOL    HW3  114   4.500   2.386   0.412 -1.1986 -0.7689  0.2797
   17SOL    MW4  115   4.466   2.457   0.449  0.1778 -0.1454  0.3932
   18SOL     OW  116   4.300   2.820   0.495  0.0473 -0.0431 -0.3243
   18SOL    HW2  117   4.277   2.736   0.456  0.2014 -0.1969 -0.0851
   18SOL    HW3  118   4.377   2.849   0.445 -0.8472  0.6282 -1.3407
   18SOL    MW4  119   4.307   2.813   0.483 -0.0510  0.0255 -0.4268
   19SOL     OW  120   3.985   2.462   0.400  0.3370  0.2953 -0.1616
   19SOL    HW2  121   4.073   2.485   0.371  0.4220 -0.5461 -0.5813
   19SOL    HW3  122   3.994   2.449   0.495  1.1617 -2.0525 -0.5350
   19SOL    MW4  123   3.998   2.463   0.409  0.4568 -0.1254 -0.2662
   20SOL     OW  124   4.439   3.727   0.373  0.0681  0.0008  0.2515
   20SOL    HW2  125   4.450   3.797   0.309 -1.0373  0.6734  0.7711
   20SOL    HW3  126   4.386   3.661   0.328  0.6677 -0.2686 -0.0633
   20SOL    MW4  127   4.433   3.727   0.359  0.0014  0.0539  0.2785
   21SOL     OW  128   0.926   2.683   0.446 -0.1057  0.2233 -0.3847
   21SOL    HW2  129   0.894   2.593   0.441  0.9142 -0.1634 -0.1164
   21SOL    HW3  130   0.848   2.737   0.434 -0.6536 -0.6908 -1.0461
   21SOL    MW4  131   0.912   2.678   0.444 -0.0435  0.0517 -0.4366
   22SOL     OW  132   4.485   3.970   0.228  0.0896  0.4729 -0.2532
   22SOL    HW2  133   4.423   4.024   0.276 -0.6172 -0.0382 -0.5901
   22SOL    HW3  134   4.546   4.033   0.188 -0.0239  0.9542  0.3274
   22SOL    MW4  135   4.485   3.985   0.229 -0.0186  0.4690 -0.2211
   23SOL     OW  136   3.854   3.355   0.375  0.4357  0.2963 -0.0982
   23SOL    HW2  137   3.842   3.446   0.402  0.4653  0.7786 -1.7039
   23SOL    HW3  138   3.872   3.359   0.281 -1.1849 -1.4813 -0.5107
   23SOL    MW4  139   3.855   3.367   0.367  0.2258  0.1252 -0.3645
   24SOL     OW  140   0.261   3.367   0.473 -0.1661  0.4034 -0.0471
   24SOL    HW2  141   0.256   3.462   0.466  1.9457  0.7376  2.0397
   24SOL    HW3  142   0.289   3.338   0.386  0.7823  1.8701 -0.2572
   24SOL    MW4  143   0.264   3.376   0.461  0.2377  0.6411  0.2005
   25SOL     OW  144   0.095   0.160   0.477 -0.1824  0.5169 -0.0175
   25SOL    HW2  145   0.052   0.098   0.418  0.2117  0.6961 -0.4975
   25SOL    HW3  146   0.051   0.148   0.561 -0.0443 -0.4693 -0.0880
   25SOL    MW4  147   0.083   0.150   0.480 -0.1122  0.4104 -0.0901
   26SOL     OW  148   0.197   4.005   0.457 -0.0875  0.5122 -0.6757
   26SOL    HW2  149   0.135   4.013   0.384 -0.2180  0.2715 -0.5906
   26SOL    HW3  150   0.148   4.035   0.533 -0.4509 -0.6985 -0.4208
   26SOL    MW4  151   0.182   4.010   0.458 -0.1527  0.3204 -0.6308
   27SOL     OW  152   0.016   4.404   0.300 -0.2286 -0.0773  0.0361
   27SOL    HW2  153  -0.059   4.404   0.359 -0.4792  0.9618 -0.2674
   27SOL    HW3  154   0.092   4.420   0.356 -0.4917  1.1441  0.0435
   27SOL    MW4  155   0.016   4.406   0.315 -0.2964  0.2208 -0.0030
   28SOL     OW  156   0.476   3.769   0.538 -0.0187 -0.0020  0.2890
   28SOL    HW2  157   0.485   3.864   0.545 -0.6198  0.0112  0.8987
   28SOL    HW3  158   0.551   3.733   0.585  0.9182  0.1805 -1.0457
   28SOL    MW4  159   0.487   3.777   0.545  0.0256  0.0238  0.1933
   29SOL     OW  160   1.117   0.251   0.466 -0.1804 -0.0426 -0.2129
   29SOL    HW2  161   1.098   0.344   0.484 -0.8144 -0.6572  2.4906
   29SOL    HW3  162   1.031   0.211   0.457  0.1024 -0.2090 -2.4890
   29SOL    MW4  163   1.103   0.258   0.467 -0.2267 -0.1457 -0.1566
   30SOL     OW  164   0.861   0.105   0.460  0.1896 -0.1833 -0.5739
   30SOL    HW2  165   0.876   0.135   0.550  0.1114 -0.9579 -0.3039
   30SOL    HW3  166   0.840   0.012   0.469 -0.2245 -0.1658 -1.3583
   30SOL    MW4  167   0.860   0.097   0.473  0.1246 -0.2832 -0.6419
   31SOL     OW  168   4.049   0.180   0.486  0.3409  0.0484 -0.3720
   31SOL    HW2  169   4.103   0.259   0.489  2.1763 -1.1961 -0.1112
   31SOL    HW3  170   4.088   0.127   0.416 -0.2782 -1.0485  0.1055
   31SOL    MW4  171   4.061   0.183   0.477  0.5012 -0.2605 -0.2746
   32SOL     OW  172   1.043   4.352   0.508 -0.4503 -0.6441 -0.0478
   32SOL    HW2  173   1.027   4.259   0.494  0.9023 -0.9185  0.1918
   32SOL    HW3  174   1.080   4.358   0.596  0.9203 -0.0624 -0.6377
   32SOL    MW4  175   1.046   4.341   0.518 -0.0910 -0.6037 -0.0940
   33SOL     OW  176   0.914   1.160   0.492  0.0397 -0.1440  0.2094
   33SOL    HW2  177   0.862   1.079   0.498  0.8488 -0.7017 -0.2015
   33SOL    HW3  178   0.853   1.225   0.458  0.1669 -1.3422 -2.4447
   33SOL    MW4  179   0.899   1.158   0.488  0.1633 -0.3757 -0.1950
   34SOL     OW  180   0.592   0.580   0.323  0.3461 -0.2310  0.3305
   34SOL    HW2  181   0.513   0.633   0.337 -0.1669 -1.2744  1.4922
   34SOL    HW3  182   0.576   0.534   0.241  0.7828  1.3526 -0.6791
   34SOL    MW4  183   0.580   0.581   0.314  0.3360 -0.1597  0.3506
   35SOL     OW  184   0.039   0.578   0.446 -0.1053  0.0868 -0.0119
   35SOL    HW2  185   0.038   0.533   0.530  0.3043  0.0718 -0.0139
   35SOL    HW3  186  -0.001   0.516   0.385  0.2397 -0.1843  0.0327
   35SOL    MW4  187   0.034   0.564   0.449 -0.0058  0.0491 -0.0063
   36SOL     OW  188   0.504   1.742   0.485 -0.0807  0.0161 -0.1552
   36SOL    HW2  189   0.538   1.832   0.486  0.2453 -0.1114  0.3275
   36SOL    HW3  190   0.427   1.747   0.430  0.6710  0.3276 -1.2027
   36SOL    MW4  191   0.499   1.755   0.478  0.0615  0.0403 -0.2297
   37SOL     OW  192   0.269   1.820   0.331  0.1644  0.4166  0.7506
   37SOL    HW2  193   0.253   1.847   0.240  1.8742 -2.3766 -0.4568
   37SOL    HW3  194   0.183   1.798   0.365 -0.3222 -0.0814 -0.7477
   37SOL    MW4  195   0.256   1.821   0.323  0.3257 -0.0175  0.3936
   38SOL     OW  196   0.716   2.218   0.187 -0.1130 -0.1997 -0.2668
   38SOL    HW2  197   0.801   2.183   0.214  0.1522 -0.6140 -1.5905
   38SOL    HW3  198   0.737   2.300   0.142 -0.4419 -0.1189 -0.2721
   38SOL    MW4  199   0.730   2.224   0.185 -0.1214 -0.2439 -0.4421
   39SOL     OW  200   0.068   2.914   0.429  0.1241  0.1182 -0.1069
   39SOL    HW2  201   0.149   2.953   0.463  0.0210 -0.6178  1.0040
   39SOL    HW3  202   0.052   2.960   0.347  2.3933 -0.6256 -0.9974
   39SOL    MW4  203   0.077   2.925   0.423  0.4099 -0.0770 -0.0778
   40SOL     OW  204   3.519   1.823   0.054 -0.1639  0.2218  0.1105
   40SOL    HW2  205   3.561   1.886  -0.005  1.2866 -0.2616  0.6009
   40SOL    HW3  206   3.512   1.869   0.138  0.4535 -0.0981  0.3395
   40SOL    MW4  207   3.524   1.838   0.057  0.1092  0.1159  0.2054
   41SOL     OW  208   0.677   2.837   0.456  0.0388 -0.4847  0.1773
   41SOL    HW2  209   0.615   2.767   0.433  0.6133 -1.2573  0.9190
   41SOL    HW3  210   0.692   2.825   0.550  0.9559 -0.0114  0.0965
   41SOL    MW4  211   0.670   2.826   0.466  0.2356 -0.5243  0.2645
   42SOL     OW  212   0.521   2.470   0.489  0.3404  0.1511  0.3215
   42SOL    HW2  213   0.481   2.534   0.430 -0.5428 -0.4631  0.2545
   42SOL    HW3  214   0.605   2.449   0.448 -0.1639 -0.0862 -0.5836
   42SOL    MW4  215   0.527   2.476   0.476  0.1573  0.0386  0.1932
   43SOL     OW  216   4.206   3.138   0.192  0.0688 -0.0288 -0.0121
   43SOL    HW2  217   4.150   3.215   0.193 -0.5767 -0.5001  0.1768
   43SOL    HW3  218   4.166   3.078   0.254 -0.2920 -1.1316 -1.2888
   43SOL    MW4  219   4.193   3.140   0.200 -0.0634 -0.2365 -0.1556
   44SOL     OW  220   4.463   3.136   0.266  0.0549 -0.4498  0.5706
   44SOL    HW2  221   4.377   3.135   0.225 -0.0547  1.4923  0.7039
   44SOL    HW3  222   4.523   3.161   0.195  0.5189 -1.7241  0.4928
   44SOL    MW4  223   4.460   3.139   0.251  0.1016 -0.3619  0.5779
   45SOL     OW  224   0.218   4.409   0.481 -0.0663  0.1589 -0.1120
   45SOL    HW2  225   0.288   4.361   0.437 -0.4333  0.2754 -0.8298
   45SOL    HW3  226   0.257   4.494   0.500  0.1244  0.0770 -0.1335
   45SOL    MW4  227   0.232   4.414   0.478 -0.0896  0.1636 -0.2096
   46SOL     OW  228   4.474   3.268   0.523 -0.1719 -0.2348  0.3363
   46SOL    HW2  229   4.566   3.291   0.512 -0.1460 -0.3246  0.3621
   46SOL    HW3  230   4.450   3.224   0.442 -0.2035 -0.1763  0.3138
   46SOL    MW4  231   4.483   3.265   0.511 -0.1731 -0.2391  0.3368
   47SOL     OW  232   0.304   3.018   0.531  0.1005 -0.4303 -0.4365
   47SOL    HW2  233   0.303   3.091   0.593 -0.3281 -0.1802 -0.7408
   47SOL    HW3  234   0.373   3.041   0.468 -0.9356  0.3532 -1.3018
   47SOL    MW4  235   0.313   3.031   0.531 -0.0927 -0.2937 -0.5909
   48SOL     OW  236   0.665   3.747   0.350  0.3667  0.3399 -0.4274
   48SOL    HW2  237   0.715   3.822   0.382  1.0282  0.2034 -1.1229
   48SOL    HW3  238   0.586   3.746   0.403  1.7008 -0.2118  1.6205
   48SOL    MW4  239   0.661   3.757   0.361  0.6300  0.2489 -0.2490
   49SOL     OW  240   0.167   4.185   0.203  0.0271 -0.1526  0.2219
   49SOL    HW2  241   0.248   4.207   0.249  0.1652 -0.2624  0.0368
   49SOL    HW3  242   0.106   4.255   0.225 -0.0554 -0.4521  0.9394
   49SOL    MW4  243   0.170   4.197   0.212  0.0344 -0.2069  0.2921
   50SOL     OW  244   0.315   3.238   0.216  0.0337 -0.6227 -0.1685
   50SOL    HW2  245   0.363   3.164   0.253  1.0496 -0.1827 -0.5900
   50SOL    HW3  246   0.365   3.263   0.139  0.3171  1.2257  0.5880
   50SOL    MW4  247   0.328   3.231   0.211  0.2051 -0.3209 -0.1243
   51SOL     OW  248   0.791   4.467   0.506  0.6954 -0.4647 -0.0399
   51SOL    HW2  249   0.754   4.447   0.592  0.6008 -0.4803 -0.0847
   51SOL    HW3  250   0.886   4.455   0.517  0.8835  1.6210  0.6330
   51SOL    MW4  251   0.799   4.462   0.519  0.7077 -0.1922  0.0429
   52SOL     OW  252   0.359   4.638   0.527  0.0250 -0.5202  0.2426
   52SOL    HW2  253   0.449   4.670   0.515  0.1996 -0.9866  0.2878
   52SOL    HW3  254   0.304   4.706   0.488  0.3617  0.0700  0.7659
   52SOL    MW4  255   0.364   4.651   0.520  0.0924 -0.5039  0.3176
   53SOL     OW  256   0.799   0.644   0.502 -0.3327  0.1584  0.2774
   53SOL    HW2  257   0.785   0.739   0.502 -1.0781  0.0644  1.1998
   53SOL    HW3  258   0.743   0.612   0.432  0.2613  0.4443 -0.3298
   53SOL    MW4  259   0.790   0.652   0.493 -0.3527  0.1838  0.3190
   54SOL     OW  260   0.308   0.721   0.353 -0.0208 -0.3523  0.5855
   54SOL    HW2  261   0.246   0.656   0.388  0.2023 -0.5596  0.5982
   54SOL    HW3  262   0.261   0.762   0.281 -0.4746  0.0573  1.1139
   54SOL    MW4  263   0.294   0.718   0.348 -0.0512 -0.3256  0.6569
   55SOL     OW  264   1.291   0.601   0.335 -0.1033 -0.0800 -0.1121
   55SOL    HW2  265   1.296   0.578   0.242  1.0261  0.7113 -0.2486
   55SOL    HW3  266   1.368   0.559   0.374 -0.8529 -0.8416  0.5655
   55SOL    MW4  267   1.302   0.592   0.328 -0.0530 -0.0761 -0.0407
   56SOL     OW  268   2.004   1.012   0.358 -0.3437 -0.2097  0.7644
   56SOL    HW2  269   1.948   0.958   0.414 -0.4991  0.0912  0.9005
   56SOL    HW3  270   1.961   1.011   0.273 -2.1963  2.4422  1.5905
   56SOL    MW4  271   1.991   1.005   0.354 -0.6087  0.1799  0.8914
   57SOL     OW  272   1.579   0.997   0.390 -0.1411  0.0689  0.4481
   57SOL    HW2  273   1.569   1.091   0.397  0.8630  0.0418  2.6732
   57SOL    HW3  274   1.490   0.963   0.387 -0.5322  0.9674  1.7119
   57SOL    MW4  275   1.566   1.005   0.390 -0.0604  0.1839  0.9084
   58SOL     OW  276   0.699   1.565   0.417 -0.0766  0.2065  0.5154
   58SOL    HW2  277   0.629   1.629   0.427  0.5771  1.1102 -0.6340
   58SOL    HW3  278   0.780   1.615   0.426  0.4364 -0.7019  1.0712
   58SOL    MW4  279   0.701   1.580   0.419  0.0773  0.2059  0.4371
   59SOL     OW  280   0.646   1.326   0.509 -0.2217 -0.2667  0.4532
   59SOL    HW2  281   0.566   1.296   0.465  0.1518  0.1052 -0.4948
   59SOL    HW3  282   0.659   1.414   0.475  1.1362 -0.6938 -0.1373
   59SOL    MW4  283   0.637   1.333   0.499  0.0067 -0.2741  0.2502
   60SOL     OW  284   1.771   1.422   0.366  0.0358  0.2673 -0.1588
   60SOL    HW2  285   1.795   1.514   0.376  2.8578 -0.5338  1.0607
   60SOL    HW3  286   1.837   1.375   0.417 -2.4101 -2.3337  0.7455
   60SOL    MW4  287   1.783   1.428   0.374  0.0855 -0.1816  0.1214
   61SOL     OW  288   1.314   1.335   0.287 -0.4370  0.3548  0.0299
   61SOL    HW2  289   1.313   1.324   0.192  0.2688  1.5299 -0.1296
   61SOL    HW3  290   1.259   1.265   0.320 -1.2978  0.3857 -1.2995
   61SOL    MW4  291   1.307   1.324   0.279 -0.4574  0.5139 -0.1666
   62SOL     OW  292   0.961   1.670   0.478  0.3171 -0.1026  0.3119
   62SOL    HW2  293   0.946   1.652   0.570  2.1760 -0.1951  0.6205
   62SOL    HW3  294   1.046   1.629   0.459  0.0416  0.0569 -1.3928
   62SOL    MW4  295   0.970   1.662   0.487  0.5260 -0.0937  0.1277
   63SOL     OW  296   0.512   2.213   0.382  0.2312 -0.1479 -0.2549
   63SOL    HW2  297   0.490   2.297   0.423 -0.2570 -0.2136 -0.3880
   63SOL    HW3  298   0.542   2.237   0.294  1.5806  0.0197  0.2404
   63SOL    MW4  299   0.513   2.227   0.376  0.3449 -0.1345 -0.2071
   64SOL     OW  300   0.937   1.969   0.470 -0.0425  0.5841  0.1322
   64SOL    HW2  301   0.945   1.879   0.438  0.6540  1.0723 -1.1452
   64SOL    HW3  302   0.989   1.971   0.550  1.6492  0.3416 -0.9280
   64SOL    MW4  303   0.945   1.957   0.476  0.2726  0.6163 -0.1762
   65SOL     OW  304   0.979   2.188   0.317 -0.2108  0.3763 -0.6009
   65SOL    HW2  305   1.068   2.222   0.309 -0.2583  0.4608 -0.7901
   65SOL    HW3  306   0.990   2.095   0.337 -0.0696  0.0579 -2.0455
   65SOL    MW4  307   0.992   2.180   0.318 -0.1984  0.3455 -0.8165
   66SOL     OW  308   0.641   1.996   0.484  0.0499  0.0432 -0.0270
   66SOL    HW2  309   0.736   1.997   0.485  0.0551 -0.4820  0.9037
   66SOL    HW3  310   0.616   2.077   0.440  0.9295 -0.0544 -0.7015
   66SOL    MW4  311   0.650   2.006   0.478  0.1666 -0.0391  0.0068
   67SOL     OW  312   0.864   3.127   0.389  0.2047 -0.3109  0.0020
   67SOL    HW2  313   0.824   3.055   0.340 -0.4413  0.1653 -0.1739
   67SOL    HW3  314   0.791   3.170   0.433  0.5735  0.2970  0.0243
   67SOL    MW4  315   0.849   3.123   0.388  0.1681 -0.1678 -0.0183
   68SOL     OW  316   0.836   2.414   0.441 -0.1163 -0.3912  0.0706
   68SOL    HW2  317   0.859   2.393   0.531 -0.8723 -1.3453  0.0532
   68SOL    HW3  318   0.870   2.340   0.390  0.8143  0.4221 -0.5001
   68SOL    MW4  319   0.844   2.401   0.446 -0.0932 -0.4096 -0.0070
   69SOL     OW  320   0.456   2.705   0.333 -0.0820 -0.4779  0.1890
   69SOL    HW2  321   0.375   2.706   0.383  0.1153 -0.3803  0.5082
   69SOL    HW3  322   0.440   2.764   0.260  0.0451  0.3346  0.8090
   69SOL    MW4  323   0.443   2.713   0.330 -0.0392 -0.3576  0.3130
   70SOL     OW  324   0.523   3.054   0.329  0.0547 -0.1361  0.1555
   70SOL    HW2  325   0.564   3.129   0.372  0.5032 -0.9676  1.1885
   70SOL    HW3  326   0.562   2.977   0.371 -0.7376 -0.9528 -0.5744
   70SOL    MW4  327   0.534   3.054   0.340  0.0094 -0.3533  0.1955
   71SOL     OW  328   0.789   3.495   0.477  0.1017  0.4064  0.4353
   71SOL    HW2  329   0.763   3.548   0.402  0.1983  0.3967  0.3937
   71SOL    HW3  330   0.751   3.538   0.553 -2.6739 -1.2950  0.0971
   71SOL    MW4  331   0.781   3.507   0.477 -0.2518  0.1805  0.3852
   72SOL     OW  332   0.718   4.308   0.289 -0.2677  0.1551 -1.1756
   72SOL    HW2  333   0.759   4.352   0.215  0.3202  0.9490 -0.3820
   72SOL    HW3  334   0.735   4.365   0.363 -1.0361 -0.5366 -0.4635
   72SOL    MW4  335   0.726   4.321   0.289 -0.2915  0.1688 -0.9769
   73SOL     OW  336   0.472   4.047   0.518 -0.0777  0.2712 -0.0565
   73SOL    HW2  337   0.379   4.048   0.499 -0.1391 -0.9600  0.1408
   73SOL    HW3  338   0.478   4.036   0.613  0.2632 -1.4174 -0.2535
   73SOL    MW4  339   0.461   4.045   0.528 -0.0408 -0.1140 -0.0564
   74SOL     OW  340   0.724   4.029   0.384  0.5152  0.3163  0.5309
   74SOL    HW2  341   0.723   4.112   0.336  0.9671  1.1253  1.8918
   74SOL    HW3  342   0.657   4.040   0.451  0.5018 -0.4785  0.6471
   74SOL    MW4  343   0.715   4.041   0.386  0.5730  0.3185  0.7258
   75SOL     OW  344   1.081   0.530   0.515  0.2605  0.7142  0.1998
   75SOL    HW2  345   1.004   0.586   0.505 -1.7613 -2.0885 -0.6034
   75SOL    HW3  346   1.144   0.565   0.452 -1.0905  1.8544 -0.5446
   75SOL    MW4  347   1.079   0.542   0.505 -0.1845  0.4949 -0.0044
   76SOL     OW  348   1.729   4.558   0.387 -0.4888 -0.1335 -0.1256
   76SOL    HW2  349   1.710   4.615   0.313  1.9706 -1.1331 -1.6067
   76SOL    HW3  350   1.665   4.488   0.381 -2.1571  1.3200  0.4359
   76SOL    MW4  351   1.718   4.557   0.376 -0.3844 -0.0734 -0.2469
   77SOL     OW  352   1.541   4.338   0.423 -0.0269 -0.5525 -0.4726
   77SOL    HW2  353   1.558   4.346   0.517 -1.4213 -2.3378 -0.0263
   77SOL    HW3  354   1.451   4.369   0.413  0.2784  0.0679 -1.2996
   77SOL    MW4  355   1.531   4.343   0.434 -0.1706 -0.7062 -0.5228
   78SOL     OW  356   1.544   0.526   0.460  0.3999  0.8270  0.1974
   78SOL    HW2  357   1.556   0.432   0.446  1.3842  1.2064 -1.6732
   78SOL    HW3  358   1.543   0.537   0.555 -1.5981 -1.3069  0.4566
   78SOL    MW4  359   1.545   0.515   0.470  0.2663  0.5956 -0.0152
   79SOL     OW  360   1.344   0.107   0.475 -0.3872  0.2506 -0.0804
   79SOL    HW2  361   1.266   0.158   0.455 -1.4606 -0.5995  1.7995
   79SOL    HW3  362   1.326   0.021   0.437 -0.8264 -0.2462  1.2173
   79SOL    MW4  363   1.331   0.102   0.468 -0.5867  0.0728  0.3388
   80SOL     OW  364   1.813   0.654   0.410 -0.0637  0.3911  0.4098
   80SOL    HW2  365   1.783   0.732   0.457 -1.1976 -0.7056  1.5041
   80SOL    HW3  366   1.734   0.602   0.395  0.3836  0.3175 -1.9931
   80SOL    MW4  367   1.799   0.658   0.414 -0.1544  0.2367  0.2371
   81SOL     OW  368   2.025   0.509   0.738  0.2223  0.3227  0.2252
   81SOL    HW2  369   2.061   0.501   0.650 -0.7573 -0.0110 -0.1461
   81SOL    HW3  370   2.081   0.451   0.791 -0.8295 -1.5728 -0.6794
   81SOL    MW4  371   2.037   0.500   0.734 -0.0458  0.0285  0.0568
   82SOL     OW  372   1.799   0.907   0.526  0.4127  0.3479  0.4744
   82SOL    HW2  373   1.774   0.912   0.618 -1.8927 -0.7496 -0.0685
   82SOL    HW3  374   1.726   0.946   0.479 -0.4217 -3.0029 -1.1528
   82SOL    MW4  375   1.786   0.913   0.532 -0.0014 -0.2390  0.1881
   83SOL     OW  376   1.539   1.258   0.453 -0.0579 -0.1232 -0.1456
   83SOL    HW2  377   1.603   1.320   0.418  0.5727 -1.4055 -1.3302
   83SOL    HW3  378   1.461   1.270   0.400  0.1264 -0.4589 -0.4973
   83SOL    MW4  379   1.537   1.268   0.442  0.0496 -0.3365 -0.3483
   84SOL     OW  380   1.179   1.122   0.380  0.0067  0.6006 -0.1351
   84SOL    HW2  381   1.213   1.033   0.371  0.5128  0.7168  0.6107
   84SOL    HW3  382   1.092   1.110   0.419 -0.5671  0.3450 -1.4628
   84SOL    MW4  383   1.172   1.108   0.384 -0.0023  0.5822 -0.2118
   85SOL     OW  384   1.231   1.569   0.462  0.0109  0.0185  0.0837
   85SOL    HW2  385   1.270   1.569   0.549 -0.1680  0.0187  0.1645
   85SOL    HW3  386   1.235   1.478   0.433 -1.2858 -0.2445  0.7047
   85SOL    MW4  387   1.236   1.557   0.470 -0.1838 -0.0162  0.1763
   86SOL     OW  388   1.286   2.193   0.427 -0.0663  0.4287  0.3815
   86SOL    HW2  389   1.351   2.132   0.391  0.5224  0.8423  0.7517
   86SOL    HW3  390   1.242   2.143   0.495 -1.9405 -0.7412 -1.6056
   86SOL    MW4  391   1.288   2.178   0.431 -0.2358  0.3293  0.1682
   87SOL     OW  392   1.310   2.476   0.440  0.3582 -0.5320 -0.1192
   87SOL    HW2  393   1.402   2.497   0.423  0.2191 -1.6176 -2.2893
   87SOL    HW3  394   1.302   2.383   0.419 -1.2538 -0.4313  0.0108
   87SOL    MW4  395   1.321   2.467   0.435  0.1272 -0.6616 -0.3884
   88SOL     OW  396   2.002   2.086   0.273 -0.3198 -0.3726  0.3428
   88SOL    HW2  397   2.011   2.051   0.184 -0.1887 -0.0090  0.2133
   88SOL    HW3  398   2.081   2.057   0.318 -1.4980 -2.6036  1.0358
   88SOL    MW4  399   2.013   2.078   0.267 -0.4578 -0.6192  0.4171
   89SOL     OW  400   1.527   2.020   0.450 -0.1026 -0.1498  0.5811
   89SOL    HW2  401   1.502   1.930   0.429  0.4465 -0.0869 -0.3906
   89SOL    HW3  402   1.622   2.020   0.445  0.0088  0.0245  2.5285
   89SOL    MW4  403   1.536   2.008   0.446 -0.0155 -0.1185  0.7098
   90SOL     OW  404   1.469   2.889   0.469 -0.3685  0.1384 -0.2269
   90SOL    HW2  405   1.384   2.850   0.450 -0.0893 -0.2978 -0.5925
   90SOL    HW3  406   1.495   2.852   0.553 -0.0520 -0.5540 -0.6289
   90SOL    MW4  407   1.461   2.879   0.478 -0.2899 -0.0103 -0.3282
   91SOL     OW  408   1.097   3.194   0.542  0.1446 -0.9870 -0.2969
   91SOL    HW2  409   1.065   3.200   0.632  0.8446  0.2993 -0.1276
   91SOL    HW3  410   1.021   3.165   0.492 -0.7656  0.1415  0.4091
   91SOL    MW4  411   1.083   3.191   0.548  0.1168 -0.6688 -0.1814
   92SOL     OW  412   2.067   2.417   0.375 -0.0930  0.0444  0.5159
   92SOL    HW2  413   2.035   2.341   0.327  0.2197 -0.6602  1.4019
   92SOL    HW3  414   2.130   2.381   0.437  1.8038  1.3035 -0.6371
   92SOL    MW4  415   2.071   2.402   0.377  0.1988  0.1175  0.4806
   93SOL     OW  416   1.060   3.484   0.483 -0.0836  0.3794  0.5832
   93SOL    HW2  417   1.076   3.389   0.487  0.4419  0.4096 -0.7207
   93SOL    HW3  418   0.965   3.491   0.477 -0.1238 -0.0651  0.6445
   93SOL    MW4  419   1.049   3.472   0.483 -0.0196  0.3250  0.4193
   94SOL     OW  420   0.979   4.075   0.474  0.1338  0.1783 -0.1633
   94SOL    HW2  421   0.897   4.053   0.430 -0.0745  1.9830 -0.7058
   94SOL    HW3  422   0.965   4.049   0.565 -0.5876 -0.6488 -0.5016
   94SOL    MW4  423   0.966   4.069   0.480  0.0111  0.3071 -0.2795
   95SOL     OW  424   2.049   3.050   0.165 -0.4833 -0.4160 -0.2453
   95SOL    HW2  425   1.954   3.043   0.175 -0.4966 -0.7417 -0.6168
   95SOL    HW3  426   2.064   3.052   0.071 -0.2504  1.4209 -0.2006
   95SOL    MW4  427   2.038   3.050   0.154 -0.4539 -0.2165 -0.2884
   96SOL     OW  428   2.808   3.261   0.321  0.1860 -0.3282 -0.0538
   96SOL    HW2  429   2.763   3.177   0.321 -0.1228 -0.1643 -0.0833
   96SOL    HW3  430   2.738   3.326   0.325  0.3329 -0.0267 -1.9624
   96SOL    MW4  431   2.793   3.259   0.322  0.1647 -0.2668 -0.3095
   97SOL     OW  432   1.371   3.158   0.520  0.2045 -0.2409 -0.7817
   97SOL    HW2  433   1.391   3.068   0.492 -0.5200 -1.0958  1.2784
   97SOL    HW3  434   1.276   3.163   0.515  0.2275  0.3134 -0.5974
   97SOL    MW4  435   1.361   3.147   0.516  0.1119 -0.2806 -0.4856
   98SOL     OW  436   2.335   3.139   0.500  0.2546 -0.2659  0.2007
   98SOL    HW2  437   2.406   3.202   0.493  0.2961 -0.1121  1.7769
   98SOL    HW3  438   2.374   3.055   0.477  0.4623  0.0996 -0.8239
   98SOL    MW4  439   2.349   3.136   0.496  0.2878 -0.1974  0.2735
   99SOL     OW  440   0.421   4.260   0.342 -0.3834 -0.2464  0.0072
   99SOL    HW2  441   0.439   4.181   0.393 -1.1656 -0.4651 -0.0417
   99SOL    HW3  442   0.507   4.295   0.321 -0.0339 -0.8769  0.3603
   99SOL    MW4  443   0.435   4.254   0.346 -0.4405 -0.3586  0.0473
  100SOL     OW  444   2.469   3.801   0.432 -0.0022 -0.0006  0.0678
  100SOL    HW2  445   2.439   3.710   0.441  0.6154 -0.3240 -1.0399
  100SOL    HW3  446   2.389   3.853   0.440 -0.1224 -0.4992  2.5707
  100SOL    MW4  447   2.454   3.796   0.434  0.0634 -0.1090  0.2519
  101SOL     OW  448   2.014   4.474   0.403  0.1391  0.0300 -0.6727
  101SOL    HW2  449   2.052   4.557   0.432  0.0971  0.1719 -1.0236
  101SOL    HW3  450   1.920   4.490   0.399  0.1615  0.0647 -1.0647
  101SOL    MW4  451   2.007   4.487   0.406  0.1366  0.0529 -0.7707
  102SOL     OW  452   1.783   0.154   0.494 -0.6539  0.0476  0.4115
  102SOL    HW2  453   1.807   0.138   0.586  0.2124 -1.2748 -0.0377
  102SOL    HW3  454   1.761   0.068   0.460 -0.4358  0.4608 -0.7811
  102SOL    MW4  455   1.783   0.141   0.502 -0.5108 -0.0724  0.1949
  103SOL     OW  456   1.254   3.965   0.411  0.0109  0.2124 -0.1433
  103SOL    HW2  457   1.169   3.997   0.442  0.9778 -0.2540  3.1650
  103SOL    HW3  458   1.240   3.871   0.396 -0.1588  0.2294 -0.0904
  103SOL    MW4  459   1.241   3.957   0.413  0.1162  0.1531  0.3002
  104SOL     OW  460   1.645   0.082   0.188  0.0440  0.7822 -0.2526
  104SOL    HW2  461   1.606   0.153   0.239 -1.1613 -0.4408  0.5676
  104SOL    HW3  462   1.575   0.052   0.130  0.2738 -0.2396 -0.0280
  104SOL    MW4  463   1.631   0.087   0.187 -0.0846  0.4860 -0.1148
  105SOL     OW  464   2.234   1.438   0.493 -0.1835  0.0531 -0.1762
  105SOL    HW2  465   2.182   1.516   0.471 -0.2596  0.0764  0.0841
  105SOL    HW3  466   2.279   1.461   0.574  0.3732  0.0933 -0.4954
  105SOL    MW4  467   2.233   1.451   0.501 -0.1202  0.0614 -0.1840
  106SOL     OW  468   2.505   1.094   0.488 -0.2674  0.3775 -0.1815
  106SOL    HW2  469   2.582   1.043   0.464  0.2312  0.9615  0.1626
  106SOL    HW3  470   2.432   1.033   0.479  0.1693 -0.0175 -1.0400
  106SOL    MW4  471   2.505   1.079   0.484 -0.1440  0.4023 -0.2494
  107SOL     OW  472   1.994   1.257   0.503 -0.2072 -0.1937  0.3627
  107SOL    HW2  473   2.011   1.177   0.453 -1.0394  1.0367 -1.9651
  107SOL    HW3  474   2.071   1.312   0.488 -0.3854  0.1107  0.5650
  107SOL    MW4  475   2.006   1.254   0.494 -0.3405  0.0088  0.0823
  108SOL     OW  476   2.753   0.970   0.476 -0.3831  0.0439  0.2242
  108SOL    HW2  477   2.794   0.897   0.430 -2.1297  0.8198 -2.6597
  108SOL    HW3  478   2.819   1.040   0.474 -0.1011 -0.2371 -0.2455
  108SOL    MW4  479   2.767   0.969   0.470 -0.5763  0.1093 -0.2183
  109SOL     OW  480   2.105   1.695   0.511 -0.0405  0.0357  0.2096
  109SOL    HW2  481   2.149   1.774   0.481  0.2973  0.0145  0.6517
  109SOL    HW3  482   2.012   1.715   0.501  0.0717 -0.0808 -1.1281
  109SOL    MW4  483   2.098   1.708   0.506  0.0188  0.0175  0.0914
  110SOL     OW  484   1.797   1.993   0.466 -0.1282 -0.1102 -0.2035
  110SOL    HW2  485   1.857   2.015   0.395 -0.9868 -0.1131 -0.9443
  110SOL    HW3  486   1.844   2.016   0.546  0.2272  1.4120 -0.8368
  110SOL    MW4  487   1.811   1.999   0.467 -0.1944  0.0901 -0.3848
  111SOL     OW  488   2.296   2.365   0.514 -0.0826  0.2745 -0.1395
  111SOL    HW2  489   2.360   2.430   0.484  0.6427 -0.2993  0.1338
  111SOL    HW3  490   2.274   2.392   0.603  0.1360  0.2171 -0.0660
  111SOL    MW4  491   2.302   2.377   0.522  0.0417  0.1915 -0.0938
  112SOL     OW  492   1.950   2.826   0.491  0.6256  0.3704  0.3788
  112SOL    HW2  493   1.967   2.822   0.585 -0.4890 -1.6334  0.5279
  112SOL    HW3  494   2.037   2.823   0.451  1.0895  0.9331  1.3382
  112SOL    MW4  495   1.964   2.825   0.498  0.5397  0.1800  0.5250
  113SOL     OW  496   1.785   3.010   0.356  0.0927 -0.3272  0.3532
  113SOL    HW2  497   1.830   2.959   0.423  0.5234  0.3372  0.5777
  113SOL    HW3  498   1.710   2.956   0.330  0.5081 -1.0367  0.6275
  113SOL    MW4  499   1.781   2.996   0.361  0.2042 -0.3331  0.4191
  114SOL     OW  500   1.207   2.752   0.432 -0.1134 -0.2702 -0.5278
  114SOL    HW2  501   1.111   2.742   0.431 -0.0889 -0.4619 -1.1897
  114SOL    HW3  502   1.240   2.663   0.423  0.1387 -0.2759  0.3587
  114SOL    MW4  503   1.199   2.739   0.431 -0.0770 -0.2961 -0.4982
  115SOL     OW  504   1.447   1.741   0.379  0.9754 -0.1936  0.1099
  115SOL    HW2  505   1.366   1.702   0.411  0.6133  0.2579 -0.2523
  115SOL    HW3  506   1.481   1.676   0.317 -0.3536  0.6537 -1.5695
  115SOL    MW4  507   1.441   1.727   0.375  0.7523 -0.0223 -0.1595
  116SOL     OW  508   3.427   2.139   0.476  0.0090 -0.6317  0.4981
  116SOL    HW2  509   3.419   2.097   0.562 -0.6601 -1.3292  0.1040
  116SOL    HW3  510   3.338   2.167   0.455 -0.0543 -1.5485 -0.5097
  116SOL    MW4  511   3.414   2.137   0.485 -0.0877 -0.8445  0.3131
  117SOL     OW  512   2.180   2.843   0.332 -0.3976  0.5245  0.0322
  117SOL    HW2  513   2.194   2.762   0.283 -0.4047  0.4667  0.1256
  117SOL    HW3  514   2.153   2.907   0.266 -0.4317  0.4405 -0.0345
  117SOL    MW4  515   2.179   2.841   0.317 -0.4032  0.5062  0.0357
  118SOL     OW  516   1.560   2.595   0.388 -0.4919  0.3755 -0.0688
  118SOL    HW2  517   1.651   2.582   0.414 -0.0999  2.4059 -0.3545
  118SOL    HW3  518   1.546   2.689   0.396 -2.1151  0.2802 -1.4609
  118SOL    MW4  519   1.570   2.606   0.392 -0.6542  0.6309 -0.2902
  119SOL     OW  520   2.090   3.243   0.412 -0.6250  0.3968 -0.0346
  119SOL    HW2  521   2.165   3.197   0.449  1.1241  1.9405 -1.5045
  119SOL    HW3  522   2.085   3.211   0.322 -1.1822  0.9496 -0.2026
  119SOL    MW4  523   2.100   3.233   0.405 -0.4678  0.6733 -0.2507
  120SOL     OW  524   2.454   2.860   0.426 -0.2669 -0.3808  0.3102
  120SOL    HW2  525   2.359   2.862   0.413 -0.5557 -1.9744  1.8241
  120SOL    HW3  526   2.464   2.841   0.519  1.5408 -0.6378  0.0735
  120SOL    MW4  527   2.443   2.858   0.436 -0.0665 -0.6249  0.4787
  121SOL     OW  528   0.622   3.256   0.479 -0.3018 -0.3773  0.1511
  121SOL    HW2  529   0.590   3.256   0.570  0.9022 -0.0581  0.5924
  121SOL    HW3  530   0.661   3.343   0.469  2.1307 -1.4121  0.2646
  121SOL    MW4  531   0.623   3.268   0.490  0.1780 -0.4716  0.2243
  122SOL     OW  532   1.505   3.681   0.521 -0.1941 -0.2893  0.4276
  122SOL    HW2  533   1.523   3.589   0.501 -0.6299 -0.4025  0.5623
  122SOL    HW3  534   1.418   3.697   0.485  0.2933  0.3505 -0.4973
  122SOL    MW4  535   1.496   3.671   0.513 -0.1874 -0.2198  0.3233
  123SOL     OW  536   1.247   3.695   0.391 -0.2982 -0.9691 -0.2298
  123SOL    HW2  537   1.271   3.675   0.300  0.5162 -3.2657  0.4577
  123SOL    HW3  538   1.181   3.629   0.413 -0.9085 -0.0710  0.6623
  123SOL    MW4  539   1.241   3.684   0.382 -0.2713 -1.1535 -0.0214
  124SOL     OW  540   1.276   4.447   0.371 -0.2195  0.3457 -0.0999
  124SOL    HW2  541   1.187   4.435   0.404  0.1572 -0.3752  0.6750
  124SOL    HW3  542   1.272   4.421   0.279 -0.6735 -0.2679  0.0919
  124SOL    MW4  543   1.264   4.442   0.363 -0.2298  0.1693  0.0276
  125SOL     OW  544   2.691   3.963   0.479  0.2879 -0.0770 -0.5265
  125SOL    HW2  545   2.662   4.049   0.448 -1.3822  0.3249  1.9814
  125SOL    HW3  546   2.616   3.906   0.465  0.5593 -0.5755  0.0307
  125SOL    MW4  547   2.678   3.967   0.473  0.1035 -0.0899 -0.1221
  126SOL     OW  548   2.422   4.407   0.442  0.0123 -0.5084 -0.5013
  126SOL    HW2  549   2.448   4.413   0.534 -0.2952 -0.6386 -0.4068
  126SOL    HW3  550   2.339   4.359   0.443 -0.8614  0.9945 -0.7185
  126SOL    MW4  551   2.415   4.401   0.454 -0.1435 -0.3271 -0.5175
  127SOL     OW  552   2.840   0.526   0.478 -0.8097  0.0754 -0.3057
  127SOL    HW2  553   2.852   0.610   0.434 -0.6095 -0.4256 -1.2168
  127SOL    HW3  554   2.910   0.470   0.444 -0.8084 -0.4010  0.4517
  127SOL    MW4  555   2.850   0.529   0.468 -0.7830 -0.0535 -0.3259
  128SOL     OW  556   2.351   0.622   0.433  0.6985 -0.3715  0.1472
  128SOL    HW2  557   2.429   0.573   0.460 -0.3258 -0.9124  2.2599
  128SOL    HW3  558   2.278   0.566   0.459 -0.4106  0.1929 -1.6731
  128SOL    MW4  559   2.352   0.608   0.440  0.4172 -0.3684  0.1858
  129SOL     OW  560   2.403   0.007   0.360 -0.1756 -0.0352 -0.4917
  129SOL    HW2  561   2.405   0.017   0.265 -0.8830 -0.3616 -0.5450
  129SOL    HW3  562   2.406  -0.088   0.373 -1.2024 -0.0355 -0.2229
  129SOL    MW4  563   2.404  -0.004   0.349 -0.4044 -0.0787 -0.4632
  130SOL     OW  564   2.960   1.155   0.475  0.1016 -0.5376 -0.1776
  130SOL    HW2  565   2.930   1.187   0.560 -1.9859 -0.9421 -0.7393
  130SOL    HW3  566   2.945   1.229   0.416  0.7399 -0.5583 -0.3673
  130SOL    MW4  567   2.954   1.169   0.478 -0.0896 -0.5938 -0.2767
  131SOL     OW  568   2.920   1.339   0.270 -0.0528 -0.2216 -0.3010
  131SOL    HW2  569   2.990   1.404   0.281  0.0202 -0.4119  0.3703
  131SOL    HW3  570   2.839   1.390   0.278  0.0047 -0.0219 -0.9572
  131SOL    MW4  571   2.919   1.355   0.273 -0.0360 -0.2204 -0.2990
  132SOL     OW  572   2.795   1.678   0.417 -0.1164 -0.0588  0.1299
  132SOL    HW2  573   2.748   1.615   0.361  1.4147 -1.1774  0.0555
  132SOL    HW3  574   2.750   1.674   0.501 -0.5990 -0.5935 -0.1477
  132SOL    MW4  575   2.783   1.669   0.420  0.0217 -0.2767  0.0835
  133SOL     OW  576   2.558   0.438   0.495  0.1768  0.1980 -0.0733
  133SOL    HW2  577   2.592   0.349   0.510  0.9725  0.5375  0.1672
  133SOL    HW3  578   2.636   0.493   0.492 -0.2758  0.8009 -0.8775
  133SOL    MW4  579   2.573   0.433   0.496  0.2224  0.3223 -0.1477
  134SOL     OW  580   2.168   1.957   0.451  0.0552 -0.1031  0.2765
  134SOL    HW2  581   2.255   1.996   0.461 -0.1530  0.5223 -0.3319
  134SOL    HW3  582   2.115   1.996   0.520 -0.2595  1.0137 -0.5790
  134SOL    MW4  583   2.173   1.967   0.461 -0.0136  0.1267  0.0833
  135SOL     OW  584   1.822   1.697   0.470 -0.1114  0.2630 -0.0691
  135SOL    HW2  585   1.793   1.672   0.558  0.1016  1.6244  0.3925
  135SOL    HW3  586   1.787   1.785   0.457  0.3291  0.2858 -1.1259
  135SOL    MW4  587   1.813   1.705   0.480 -0.0254  0.4456 -0.1476
  136SOL     OW  588   2.430   2.116   0.513  0.4685  0.2473 -0.0312
  136SOL    HW2  589   2.404   2.208   0.504  0.6513  0.3751  0.6967
  136SOL    HW3  590   2.520   2.114   0.480  0.3623  0.2752 -0.3199
  136SOL    MW4  591   2.439   2.128   0.508  0.4785  0.2680  0.0267
  137SOL     OW  592   2.691   2.171   0.444 -0.5252  0.6101 -0.2619
  137SOL    HW2  593   2.741   2.105   0.396 -0.3163  1.6032 -1.4461
  137SOL    HW3  594   2.716   2.159   0.535  1.8575  1.0356 -0.8209
  137SOL    MW4  595   2.701   2.161   0.449 -0.1833  0.7973 -0.4919
  138SOL     OW  596   2.469   2.580   0.394  0.0561 -0.3271 -0.0989
  138SOL    HW2  597   2.563   2.569   0.405  0.5953  0.5490 -3.1656
  138SOL    HW3  598   2.455   2.675   0.394 -0.9335 -0.4648  1.0682
  138SOL    MW4  599   2.479   2.591   0.395 -0.0036 -0.2296 -0.3496
  139SOL     OW  600   1.853   2.565   0.488  0.6047  0.0489  0.2871
  139SOL    HW2  601   1.886   2.655   0.497 -0.9017  0.5887  0.6040
  139SOL    HW3  602   1.926   2.516   0.451  1.8151  1.1751  1.1294
  139SOL    MW4  603   1.867   2.571   0.484  0.5658  0.2687  0.4401
  140SOL     OW  604   2.242   2.579   0.235  0.2257  0.2236 -0.0145
  140SOL    HW2  605   2.180   2.513   0.266 -0.7572  0.4320 -1.4672
  140SOL    HW3  606   2.325   2.556   0.277 -0.9568  0.3247  2.4675
  140SOL    MW4  607   2.245   2.567   0.244 -0.0601  0.2646  0.1213
  141SOL     OW  608   2.001   3.800   0.469 -0.1507  0.2294 -0.8858
  141SOL    HW2  609   1.908   3.823   0.464 -0.1296  0.4320 -0.4193
  141SOL    HW3  610   2.003   3.706   0.455 -0.3833  0.2912 -1.3426
  141SOL    MW4  611   1.989   3.791   0.467 -0.1786  0.2642 -0.8845
  142SOL     OW  612   1.516   4.055   0.405  0.3138 -0.0547 -0.2786
  142SOL    HW2  613   1.424   4.048   0.380  0.2335 -0.5719  0.1616
  142SOL    HW3  614   1.530   4.149   0.420 -0.0480  0.0625 -0.6885
  142SOL    MW4  615   1.506   4.067   0.403  0.2556 -0.1073 -0.2746
  143SOL     OW  616   1.541   3.398   0.521 -0.1766 -0.2833 -0.4577
  143SOL    HW2  617   1.477   3.330   0.500 -1.3090  0.9330 -1.0354
  143SOL    HW3  618   1.623   3.367   0.483 -0.1678 -2.3532  1.1750
  143SOL    MW4  619   1.543   3.385   0.513 -0.3247 -0.3958 -0.3185
  144SOL     OW  620   2.143   3.486   0.494  0.0388  0.1584  0.1171
  144SOL    HW2  621   2.101   3.484   0.580 -0.1907  1.3884  0.0411
  144SOL    HW3  622   2.119   3.403   0.453 -0.3956 -0.1424  0.9857
  144SOL    MW4  623   2.134   3.475   0.500 -0.0489  0.2811  0.2216
  145SOL     OW  624   1.996   0.253   0.345  0.1539 -0.0880  0.2618
  145SOL    HW2  625   1.916   0.243   0.397 -0.7046  1.9156 -0.6021
  145SOL    HW3  626   1.969   0.230   0.256  0.1770  1.8234 -0.2658
  145SOL    MW4  627   1.982   0.248   0.340  0.0437  0.4285  0.0782
  146SOL     OW  628   1.729   3.878   0.481 -0.5176 -0.4131  0.1087
  146SOL    HW2  629   1.666   3.807   0.495  0.7271 -1.1304  2.2158
  146SOL    HW3  630   1.676   3.951   0.449 -2.5742 -0.7733  2.5605
  146SOL    MW4  631   1.714   3.878   0.478 -0.6249 -0.5555  0.7102
  147SOL     OW  632   2.195   4.235   0.431 -0.1031  0.0599  0.4941
  147SOL    HW2  633   2.142   4.278   0.365  1.9630  1.0791 -0.5408
  147SOL    HW3  634   2.162   4.268   0.514 -0.8594  0.9485 -0.1584
  147SOL    MW4  635   2.184   4.245   0.433  0.0699  0.3119  0.2715
  148SOL     OW  636   2.248   3.958   0.509  0.0343 -0.1122 -0.0927
  148SOL    HW2  637   2.223   4.044   0.474 -0.1173  0.1187  0.5808
  148SOL    HW3  638   2.168   3.906   0.504  0.0712 -0.1505 -0.2998
  148SOL    MW4  639   2.234   3.963   0.504  0.0191 -0.0865 -0.0312
  149SOL     OW  640   2.879   3.828   0.327  0.1761  0.1262  0.3131
  149SOL    HW2  641   2.832   3.885   0.387 -0.2892 -1.2579  1.2767
  149SOL    HW3  642   2.815   3.807   0.259 -0.3981 -1.1450  1.2233
  149SOL    MW4  643   2.864   3.833   0.326  0.0391 -0.2241  0.5603
  150SOL     OW  644   2.154   0.063   0.482  0.6780  0.4762 -0.2939
  150SOL    HW2  645   2.240   0.065   0.439  1.2566  1.0481  0.8480
  150SOL    HW3  646   2.101   0.126   0.432  1.2470  0.9021 -0.3686
  150SOL    MW4  647   2.158   0.072   0.469  0.8297  0.6079 -0.1531
  151SOL     OW  648   1.548   0.259   0.395 -0.3407 -0.1295 -0.4316
  151SOL    HW2  649   1.482   0.195   0.421 -2.0252  1.2784 -1.1236
  151SOL    HW3  650   1.627   0.233   0.442 -1.0696 -2.5187 -0.4584
  151SOL    MW4  651   1.550   0.247   0.404 -0.6591 -0.2590 -0.5264
  152SOL     OW  652   2.877   0.766   0.341 -0.2102  0.0400 -0.5931
  152SOL    HW2  653   2.903   0.724   0.259  0.2548 -0.2563 -0.2956
  152SOL    HW3  654   2.959   0.802   0.376 -0.3394 -0.1882 -0.0577
  152SOL    MW4  655   2.891   0.766   0.335 -0.1659 -0.0292 -0.4832
  153SOL     OW  656   2.450   1.335   0.349 -0.1612 -0.1553  0.0407
  153SOL    HW2  657   2.374   1.376   0.391  0.0893 -0.2796  0.6099
  153SOL    HW3  658   2.455   1.248   0.387  0.6555  0.0825  0.4716
  153SOL    MW4  659   2.441   1.329   0.359 -0.0205 -0.1404  0.1726
  154SOL     OW  660   3.307   1.402   0.444 -0.2123  0.2133  0.1581
  154SOL    HW2  661   3.224   1.448   0.429 -0.8299 -1.2999 -1.4013
  154SOL    HW3  662   3.302   1.373   0.535 -1.3325  0.3295  0.1489
  154SOL    MW4  663   3.295   1.404   0.454 -0.4416  0.0290 -0.0489
  155SOL     OW  664   3.070   1.574   0.387  0.1603 -0.2865  0.3743
  155SOL    HW2  665   2.981   1.609   0.381 -0.2994 -1.6944 -1.2258
  155SOL    HW3  666   3.124   1.641   0.344 -0.7207 -1.4790 -2.7159
  155SOL    MW4  667   3.065   1.588   0.381 -0.0169 -0.6297 -0.2445
  156SOL     OW  668   3.679   1.191   0.292 -0.1369  0.2166 -0.5619
  156SOL    HW2  669   3.615   1.253   0.257 -0.4339 -0.1231 -0.6274
  156SOL    HW3  670   3.627   1.130   0.345  0.2551  0.4788  0.1263
  156SOL    MW4  671   3.664   1.191   0.295 -0.1242  0.2064 -0.4797
  157SOL     OW  672   3.743   1.615   0.302 -0.0940  0.0070 -0.4450
  157SOL    HW2  673   3.730   1.670   0.380  1.0919  1.2069 -1.0670
  157SOL    HW3  674   3.656   1.581   0.282 -0.5329  0.2395  1.0080
  157SOL    MW4  675   3.730   1.618   0.310  0.0045  0.1960 -0.3354
  158SOL     OW  676   2.592   0.117   0.534  0.4735  0.4638  0.5878
  158SOL    HW2  677   2.532   0.081   0.469  0.7008 -0.8209  1.0768
  158SOL    HW3  678   2.578   0.064   0.612  1.4357  0.8863  1.0573
  158SOL    MW4  679   2.583   0.105   0.536  0.6304  0.3500  0.7143
  159SOL     OW  680   3.022   2.030   0.576 -0.0565  0.4513  0.4171
  159SOL    HW2  681   2.939   2.067   0.605 -0.2124 -0.5261  1.2694
  159SOL    HW3  682   3.048   1.971   0.647  1.0048  0.2026 -0.1627
  159SOL    MW4  683   3.014   2.027   0.590  0.0629  0.2894  0.4530
  160SOL     OW  684   2.848   1.970   0.359 -0.3844 -0.2025 -0.2776
  160SOL    HW2  685   2.913   1.973   0.429 -0.0118  0.0265 -0.6316
  160SOL    HW3  686   2.813   1.881   0.363 -0.2393 -0.2447  0.0836
  160SOL    MW4  687   2.852   1.958   0.369 -0.3161 -0.1779 -0.2767
  161SOL     OW  688   2.678   1.475   0.243 -0.5957 -0.3995 -0.1187
  161SOL    HW2  689   2.598   1.451   0.289 -1.1362  0.0324 -0.8403
  161SOL    HW3  690   2.666   1.443   0.154  0.1613 -0.5975 -0.1581
  161SOL    MW4  691   2.666   1.467   0.238 -0.5670 -0.3687 -0.2191
  162SOL     OW  692   2.733   2.478   0.439 -0.2762  0.0495  0.1793
  162SOL    HW2  693   2.692   2.392   0.436  0.2376 -0.1832  0.0022
  162SOL    HW3  694   2.825   2.463   0.418 -0.1465  0.6141  0.3228
  162SOL    MW4  695   2.739   2.465   0.436 -0.1912  0.0935  0.1749
  163SOL     OW  696   3.353   3.363   0.403 -0.1485 -0.3654  0.2553
  163SOL    HW2  697   3.307   3.364   0.319 -0.8246 -0.0128  0.6202
  163SOL    HW3  698   3.377   3.272   0.417  0.8423 -0.2658 -0.7957
  163SOL    MW4  699   3.350   3.351   0.394 -0.1068 -0.3059  0.1647
  164SOL     OW  700   3.159   3.473   0.555 -0.0669 -0.4977  0.1299
  164SOL    HW2  701   3.231   3.436   0.504 -0.8105  0.2383 -1.4787
  164SOL    HW3  702   3.200   3.539   0.611  0.5603 -0.3413 -0.5098
  164SOL    MW4  703   3.174   3.476   0.556 -0.0823 -0.3800 -0.1668
  165SOL     OW  704   3.100   3.142   0.495  0.0266  0.7473  0.1876
  165SOL    HW2  705   3.185   3.126   0.455  0.1377  1.9206 -0.0673
  165SOL    HW3  706   3.120   3.169   0.585 -0.1010  0.4477  0.3057
  165SOL    MW4  707   3.114   3.144   0.502  0.0246  0.8626  0.1695
  166SOL     OW  708   2.851   3.319   0.646 -0.2047 -0.0667  0.0325
  166SOL    HW2  709   2.882   3.240   0.690  1.3483  0.5022 -0.0232
  166SOL    HW3  710   2.823   3.377   0.717 -0.2325 -0.1966  0.1272
  166SOL    MW4  711   2.851   3.316   0.661 -0.0033 -0.0088  0.0376
  167SOL     OW  712   1.794   3.266   0.451  0.5128 -0.5150 -0.6342
  167SOL    HW2  713   1.888   3.277   0.436  0.7680 -0.6859  0.7954
  167SOL    HW3  714   1.775   3.177   0.422  1.2137 -1.2184  1.0194
  167SOL    MW4  715   1.804   3.256   0.445  0.6388 -0.6304 -0.2275
  168SOL     OW  716   3.646   3.160   0.444  0.6639  0.5263 -0.2804
  168SOL    HW2  717   3.698   3.080   0.451  0.0702  0.1701  0.1325
  168SOL    HW3  718   3.711   3.230   0.432  1.2714  0.1619  0.8082
  168SOL    MW4  719   3.662   3.159   0.443  0.6654  0.4313 -0.0823
  169SOL     OW  720   2.405   3.524   0.478 -0.6929 -0.0284 -0.0929
  169SOL    HW2  721   2.444   3.529   0.565 -1.3576 -0.3753  0.2297
  169SOL    HW3  722   2.312   3.507   0.494 -0.6783 -0.9275 -0.8818
  169SOL    MW4  723   2.397   3.522   0.491 -0.7787 -0.1929 -0.1544
  170SOL     OW  724   2.869   3.605   0.497  0.4381 -0.7389 -0.4040
  170SOL    HW2  725   2.781   3.586   0.464 -1.2631  1.5630  2.4681
  170SOL    HW3  726   2.892   3.688   0.455  0.9878 -1.0572 -0.7264
  170SOL    MW4  727   2.860   3.614   0.487  0.2861 -0.4771 -0.0676
  171SOL     OW  728   3.340   3.852   0.417 -0.0838  0.0069 -0.2770
  171SOL    HW2  729   3.281   3.860   0.492  0.4734 -0.2428  0.1910
  171SOL    HW3  730   3.394   3.776   0.438 -0.0202 -0.1460 -0.9998
  171SOL    MW4  731   3.339   3.843   0.430 -0.0017 -0.0463 -0.3107
  172SOL     OW  732   3.316   4.358   0.373 -0.2274 -0.3367  0.1483
  172SOL    HW2  733   3.404   4.363   0.411  0.5829 -2.6278 -1.2720
  172SOL    HW3  734   3.330   4.374   0.279 -1.0703 -2.2486 -0.3257
  172SOL    MW4  735   3.330   4.360   0.366 -0.2317 -0.8912 -0.1016
  173SOL     OW  736   3.051   4.260   0.387 -0.6483  0.1492  0.0912
  173SOL    HW2  737   3.019   4.211   0.311  0.9916  1.5238 -1.5122
  173SOL    HW3  738   3.138   4.290   0.362 -0.2920  1.0859  2.3192
  173SOL    MW4  739   3.058   4.257   0.374 -0.3850  0.4539  0.1736
  174SOL     OW  740   2.626   3.751   0.188  0.2388 -0.2574  0.7149
  174SOL    HW2  741   2.588   3.789   0.109 -0.7006 -0.5922  0.9906
  174SOL    HW3  742   2.565   3.775   0.258  0.6853 -0.5654  1.2177
  174SOL    MW4  743   2.613   3.759   0.187  0.1736 -0.3421  0.8176
  175SOL     OW  744   2.849   4.418   0.473 -0.1377  0.2833  0.1786
  175SOL    HW2  745   2.852   4.428   0.569 -0.6138 -0.7787  0.3161
  175SOL    HW3  746   2.930   4.374   0.451 -0.0974  0.3910  0.1131
  175SOL    MW4  747   2.860   4.414   0.483 -0.1950  0.1574  0.1881
  176SOL     OW  748   2.288   0.898   0.478  0.0133  0.0494 -0.1556
  176SOL    HW2  749   2.307   0.805   0.463 -2.3463 -0.4825 -0.1116
  176SOL    HW3  750   2.213   0.916   0.422 -1.3120  1.1957  1.9129
  176SOL    MW4  751   2.281   0.888   0.469 -0.4728  0.1305  0.1231
  177SOL     OW  752   3.074   0.418   0.355 -0.5198  0.2657  0.1067
  177SOL    HW2  753   3.137   0.463   0.411 -2.7000  2.2059  1.0984
  177SOL    HW3  754   3.098   0.325   0.362  1.8338  0.9047  0.8987
  177SOL    MW4  755   3.085   0.411   0.363 -0.4966  0.6060  0.3420
  178SOL     OW  756   3.370   1.591   0.049  0.1141 -0.2363 -0.4969
  178SOL    HW2  757   3.434   1.663   0.047  1.5386 -1.4393  0.5134
  178SOL    HW3  758   3.343   1.580  -0.042  0.7407  0.8300 -0.8215
  178SOL    MW4  759   3.375   1.599   0.037  0.3848 -0.2545 -0.4065
  179SOL     OW  760   3.298   0.578   0.458 -0.0686 -0.1208 -0.2769
  179SOL    HW2  761   3.379   0.613   0.422  0.0694 -0.2182 -0.0621
  179SOL    HW3  762   3.251   0.656   0.489 -0.4108  0.0128 -1.1041
  179SOL    MW4  763   3.302   0.593   0.457 -0.0956 -0.1160 -0.3577
  180SOL     OW  764   3.033   0.627   0.158  0.0780  0.2845 -0.2603
  180SOL    HW2  765   3.058   0.548   0.205  0.4419  0.4374 -0.1997
  180SOL    HW3  766   3.016   0.597   0.069  2.5764  0.5155 -0.8506
  180SOL    MW4  767   3.034   0.613   0.152  0.4556  0.3351 -0.3302
  181SOL     OW  768   3.853   2.018   0.527 -0.1220  0.0904  0.1483
  181SOL    HW2  769   3.943   1.987   0.519 -0.0926  0.3245 -0.4611
  181SOL    HW3  770   3.848   2.093   0.468 -0.9021 -0.3317 -0.3362
  181SOL    MW4  771   3.864   2.024   0.519 -0.2210  0.0658  0.0040
  182SOL     OW  772   3.529   1.448   0.251 -0.1850  0.2419 -0.2525
  182SOL    HW2  773   3.489   1.492   0.176 -0.2291  3.6676  1.7062
  182SOL    HW3  774   3.457   1.437   0.313  0.4818  0.1558  0.5091
  182SOL    MW4  775   3.514   1.452   0.249 -0.1028  0.6826  0.1064
  183SOL     OW  776   3.115   0.847   0.486 -0.0125  0.1397 -0.4933
  183SOL    HW2  777   3.086   0.871   0.574  0.9000 -0.7082  0.0538
  183SOL    HW3  778   3.167   0.921   0.456 -1.1295  0.8474 -0.7192
  183SOL    MW4  779   3.118   0.860   0.493 -0.0393  0.1212 -0.4509
  184SOL     OW  780   3.690   1.792   0.489 -0.1093  0.2260  0.0889
  184SOL    HW2  781   3.757   1.857   0.506  0.0361 -0.0965  0.7865
  184SOL    HW3  782   3.675   1.750   0.574 -2.7818  1.7970  0.4435
  184SOL    MW4  783   3.697   1.795   0.503 -0.4427  0.3909  0.2277
  185SOL     OW  784   3.151   2.194   0.395 -0.1360 -0.3280  0.0330
  185SOL    HW2  785   3.104   2.153   0.468  0.1779  0.5208  0.7228
  185SOL    HW3  786   3.128   2.141   0.319 -0.7633 -1.0055  0.6837
  185SOL    MW4  787   3.142   2.182   0.394 -0.1774 -0.3052  0.2099
  186SOL     OW  788   3.505   1.915   0.322 -0.1124  0.0134  0.2072
  186SOL    HW2  789   3.570   1.879   0.382 -0.1855 -0.2431  0.1352
  186SOL    HW3  790   3.467   1.989   0.369  0.9446  0.7860 -0.1584
  186SOL    MW4  791   3.508   1.920   0.336  0.0174  0.0814  0.1495
  187SOL     OW  792   2.688   3.024   0.422  0.2877  0.6266 -0.1337
  187SOL    HW2  793   2.656   3.085   0.488  1.0417  0.9751 -0.0853
  187SOL    HW3  794   2.618   2.960   0.412 -0.5894  1.5994 -0.3049
  187SOL    MW4  795   2.675   3.024   0.429  0.2713  0.8011 -0.1499
  188SOL     OW  796   4.112   2.994   0.403  0.1333 -0.1543 -0.1244
  188SOL    HW2  797   4.184   2.947   0.446 -0.4699 -1.3824 -0.4194
  188SOL    HW3  798   4.095   3.069   0.460  1.5126  0.0270  0.0511
  188SOL    MW4  799   4.119   2.997   0.417  0.2356 -0.2925 -0.1401
  189SOL     OW  800   2.910   2.837   0.740  0.0469 -0.1280  0.1726
  189SOL    HW2  801   2.924   2.864   0.650 -0.9648 -1.6131 -0.4336
  189SOL    HW3  802   2.987   2.785   0.762  0.5160  0.6200  0.3373
  189SOL    MW4  803   2.922   2.834   0.731 -0.0246 -0.2253  0.1144
  190SOL     OW  804   3.105   0.138   0.475 -0.3466  0.4978  0.4712
  190SOL    HW2  805   3.118   0.120   0.568 -0.4392 -0.7252  0.2572
  190SOL    HW3  806   3.016   0.107   0.456 -0.3385  0.7619 -0.0082
  190SOL    MW4  807   3.095   0.131   0.484 -0.3576  0.3713  0.3797
  191SOL     OW  808   3.112   3.445   0.254  0.5603 -0.1396 -0.1286
  191SOL    HW2  809   3.123   3.441   0.159  0.6414 -0.2621 -0.1137
  191SOL    HW3  810   3.119   3.538   0.275 -2.2746  0.2490 -0.5999
  191SOL    MW4  811   3.114   3.457   0.244  0.1969 -0.1047 -0.1888
  192SOL     OW  812   3.490   3.606   0.485 -0.3653 -0.0008 -0.4145
  192SOL    HW2  813   3.460   3.523   0.448 -0.1120  0.4946 -1.7499
  192SOL    HW3  814   3.443   3.613   0.568  0.2119 -1.8547  0.0982
  192SOL    MW4  815   3.480   3.596   0.491 -0.2558 -0.1800 -0.5230
  193SOL     OW  816   3.825   2.936   0.461 -0.3704 -0.3441  0.1470
  193SOL    HW2  817   3.912   2.952   0.425 -0.0266 -0.1561  1.0583
  193SOL    HW3  818   3.807   2.844   0.441  0.6798 -0.8069  1.3088
  193SOL    MW4  819   3.834   2.926   0.453 -0.1862 -0.3803  0.4205
  194SOL     OW  820   3.384   2.812   0.464 -0.3044 -0.4662  0.0406
  194SOL    HW2  821   3.298   2.776   0.444 -0.2176 -1.1621  0.8824
  194SOL    HW3  822   3.446   2.753   0.420 -0.2827  0.6380 -1.4534
  194SOL    MW4  823   3.381   2.799   0.455 -0.2902 -0.4122 -0.0454
  195SOL     OW  824   2.675   4.245   0.365  0.2229  0.3102  0.5272
  195SOL    HW2  825   2.587   4.277   0.387 -0.0693  0.3714 -0.6982
  195SOL    HW3  826   2.734   4.313   0.399 -0.2575  0.7352  0.5230
  195SOL    MW4  827   2.671   4.258   0.372  0.1209  0.3743  0.3649
  196SOL     OW  828   2.661   3.520   0.359 -0.0064  0.4507  0.3652
  196SOL    HW2  829   2.574   3.522   0.399  0.2326 -0.4289  0.9643
  196SOL    HW3  830   2.655   3.579   0.285 -1.2817 -0.0169  0.0744
  196SOL    MW4  831   2.649   3.528   0.355 -0.1433  0.2728  0.4058
  197SOL     OW  832   4.288   4.365   0.469 -0.1162 -0.3031  0.0635
  197SOL    HW2  833   4.270   4.362   0.563 -1.0527  1.3975 -0.0462
  197SOL    HW3  834   4.204   4.391   0.430  0.9215  1.4324 -1.0260
  197SOL    MW4  835   4.274   4.368   0.476 -0.1030  0.1502 -0.0947
  198SOL     OW  836   3.798   4.462   0.496 -0.4403 -0.1673  0.0281
  198SOL    HW2  837   3.786   4.448   0.590 -0.2757 -0.3678  0.0194
  198SOL    HW3  838   3.738   4.533   0.475 -1.6360 -1.1719 -0.0280
  198SOL    MW4  839   3.789   4.470   0.506 -0.5763 -0.3257  0.0196
  199SOL     OW  840   3.351   4.654   0.449 -0.1210  0.0148 -0.1238
  199SOL    HW2  841   3.328   4.568   0.413 -1.7195  0.5692 -0.4978
  199SOL    HW3  842   3.272   4.706   0.436  0.6849  1.4096  0.5204
  199SOL    MW4  843   3.338   4.650   0.442 -0.2255  0.2718 -0.0882
  200SOL     OW  844   3.755   0.248   0.396 -0.1318  0.2690  0.2543
  200SOL    HW2  845   3.732   0.341   0.406  0.9104  0.4382  1.2104
  200SOL    HW3  846   3.832   0.237   0.452 -2.0448 -1.8977  2.5182
  200SOL    MW4  847   3.762   0.259   0.405 -0.2468  0.0055  0.6792
  201SOL     OW  848   3.747   0.528   0.476  0.5773  0.2332 -0.5695
  201SOL    HW2  849   3.771   0.556   0.564 -0.6850 -1.3889  0.3352
  201SOL    HW3  850   3.676   0.587   0.450 -0.3588 -0.4763  0.3092
  201SOL    MW4  851   3.741   0.539   0.484  0.2875 -0.0744 -0.3342
  202SOL     OW  852   4.201   0.438   0.483 -0.0172 -0.3830 -0.1111
  202SOL    HW2  853   4.260   0.412   0.412 -0.1007  0.2557 -0.4091
  202SOL    HW3  854   4.135   0.493   0.442  0.2243  0.4111  0.5522
  202SOL    MW4  855   4.200   0.442   0.469  0.0033 -0.1940 -0.0629
  203SOL     OW  856   3.539   0.735   0.434  0.5698  0.0351 -0.0342
  203SOL    HW2  857   3.552   0.780   0.517 -0.4091  0.1628  0.0455
  203SOL    HW3  858   3.519   0.805   0.372 -0.0353 -0.1964 -0.0993
  203SOL    MW4  859   3.538   0.750   0.437  0.3607  0.0214 -0.0323
  204SOL     OW  860   4.141   0.855   0.427 -0.2617 -0.4662  0.1392
  204SOL    HW2  861   4.092   0.784   0.385  0.7307 -0.8250 -0.4355
  204SOL    HW3  862   4.118   0.933   0.377 -0.1004 -0.6655 -0.2469
  204SOL    MW4  863   4.131   0.856   0.415 -0.1087 -0.5398  0.0124
  205SOL     OW  864   3.519   1.048   0.460  0.3722 -0.2379  0.0627
  205SOL    HW2  865   3.521   1.008   0.547 -0.2106 -0.4571 -0.0214
  205SOL    HW3  866   3.428   1.076   0.448  0.3234 -0.7168 -0.7070
  205SOL    MW4  867   3.507   1.047   0.470  0.2887 -0.3299 -0.0499
  206SOL     OW  868   3.235   1.125   0.452  0.0419  0.1298 -0.0020
  206SOL    HW2  869   3.266   1.212   0.427  0.5290 -0.5740 -2.0210
  206SOL    HW3  870   3.141   1.134   0.461  0.1956  1.0702  0.7173
  206SOL    MW4  871   3.227   1.138   0.450  0.1268  0.1611 -0.1734
  207SOL     OW  872   3.816   1.379   0.470 -0.6451 -0.1880 -0.1635
  207SOL    HW2  873   3.801   1.461   0.425  0.9801  0.1993 -0.0260
  207SOL    HW3  874   3.776   1.312   0.414 -2.5467  0.7423  0.0491
  207SOL    MW4  875   3.809   1.381   0.457 -0.6816 -0.0141 -0.1173
  208SOL     OW  876   3.553   2.389   0.471  0.3238 -0.4676  0.1706
  208SOL    HW2  877   3.523   2.298   0.461 -0.8274 -0.1228  0.5037
  208SOL    HW3  878   3.570   2.398   0.565  0.6292 -0.3889  0.1095
  208SOL    MW4  879   3.551   2.378   0.482  0.2122 -0.4115  0.2065
  209SOL     OW  880   3.790   2.245   0.375  0.0256 -0.4305  0.1900
  209SOL    HW2  881   3.708   2.276   0.413 -0.7835 -1.4241 -0.7419
  209SOL    HW3  882   3.844   2.324   0.368 -0.7769  0.2007  0.9498
  209SOL    MW4  883   3.786   2.260   0.379 -0.1872 -0.4780  0.1673
  210SOL     OW  884   3.278   1.754   0.270  0.0597  0.2139  0.8770
  210SOL    HW2  885   3.300   1.702   0.192 -0.4348 -0.5206  1.2219
  210SOL    HW3  886   3.356   1.806   0.287 -0.3713  1.5925 -1.0775
  210SOL    MW4  887   3.291   1.754   0.262 -0.0625  0.2989  0.6646
  211SOL     OW  888   3.147   3.729   0.271 -0.3261  0.3074  0.0158
  211SOL    HW2  889   3.219   3.780   0.309 -0.5026 -0.1515  0.9811
  211SOL    HW3  890   3.069   3.780   0.291 -0.3363  0.5093 -0.5210
  211SOL    MW4  891   3.146   3.743   0.279 -0.3505  0.2735  0.0723
  212SOL     OW  892   2.973   2.912   0.450 -0.1460 -0.1945 -0.0598
  212SOL    HW2  893   2.884   2.940   0.433  0.0518  0.0286 -0.7255
  212SOL    HW3  894   3.022   2.993   0.462 -0.1682 -0.3287  1.0244
  212SOL    MW4  895   2.968   2.926   0.450 -0.1225 -0.1826 -0.0046
  213SOL     OW  896   3.838   2.867   0.742  0.1827 -0.0487 -0.3187
  213SOL    HW2  897   3.819   2.952   0.783 -1.8567 -0.2634 -0.7815
  213SOL    HW3  898   3.834   2.884   0.648 -0.9332 -0.8006 -0.4128
  213SOL    MW4  899   3.835   2.881   0.735 -0.2334 -0.1762 -0.3922
  214SOL     OW  900   3.528   2.626   0.299  0.1746  0.3498  0.0433
  214SOL    HW2  901   3.515   2.556   0.364 -0.1437  0.2406 -0.1406
  214SOL    HW3  902   3.454   2.618   0.240  0.5971  0.3015 -0.4773
  214SOL    MW4  903   3.517   2.616   0.300  0.1886  0.3288 -0.0497
  215SOL     OW  904   3.908   3.997   0.455  0.0077  0.3938  0.2704
  215SOL    HW2  905   3.954   4.047   0.388  1.3759 -1.0374  0.1382
  215SOL    HW3  906   3.816   4.023   0.444  0.4610  1.6057 -0.8909
  215SOL    MW4  907   3.902   4.007   0.445  0.2480  0.3653  0.0997
  216SOL     OW  908   3.034   2.455   0.465  0.4005 -0.5507 -0.0936
  216SOL    HW2  909   3.078   2.374   0.440 -1.1348 -1.4209 -0.0313
  216SOL    HW3  910   3.052   2.465   0.558 -0.4998 -1.5254  0.1906
  216SOL    MW4  911   3.042   2.446   0.474  0.0794 -0.7942 -0.0479
  217SOL     OW  912   3.384   3.090   0.422  0.1024  0.0502  0.2416
  217SOL    HW2  913   3.381   2.996   0.437  0.6850  0.2942  2.0095
  217SOL    HW3  914   3.478   3.111   0.417  0.0285  0.7687  1.5504
  217SOL    MW4  915   3.396   3.081   0.423  0.1693  0.1774  0.6475
  218SOL     OW  916   4.202   3.556   0.264 -0.1231  0.0042 -0.0256
  218SOL    HW2  917   4.127   3.615   0.274 -0.5024 -0.3638 -0.6662
  218SOL    HW3  918   4.216   3.519   0.351 -0.3157  0.5174  0.2260
  218SOL    MW4  919   4.194   3.559   0.277 -0.1984  0.0234 -0.0769
  219SOL     OW  920   3.154   4.265   0.660 -0.0054  0.0290  0.2986
  219SOL    HW2  921   3.167   4.170   0.657 -0.2163  0.0025  0.2281
  219SOL    HW3  922   3.113   4.286   0.576 -0.2514  0.1389  0.4480
  219SOL    MW4  923   3.150   4.255   0.648 -0.0658  0.0410  0.3089
  220SOL     OW  924   4.282   4.100   0.381  0.2079  0.1874  0.1440
  220SOL    HW2  925   4.297   4.187   0.419  0.2037  0.2088  0.0954
  220SOL    HW3  926   4.313   4.039   0.449  1.3223  0.2460 -0.2982
  220SOL    MW4  927   4.288   4.103   0.395  0.3538  0.1984  0.0793
  221SOL     OW  928   4.149   0.013   0.254  0.3536 -0.3898 -0.2807
  221SOL    HW2  929   4.097   0.045   0.180 -0.7620  0.1126  0.7011
  221SOL    HW3  930   4.115  -0.075   0.271 -0.8431  0.2801  0.9377
  221SOL    MW4  931   4.137   0.006   0.247  0.0486 -0.2352  0.0096
  222SOL     OW  932   4.015   0.602   0.345 -0.0570 -0.1015  0.2694
  222SOL    HW2  933   3.998   0.653   0.266  0.3437 -1.3598 -0.6381
  222SOL    HW3  934   3.929   0.592   0.387 -0.3025  0.3884 -0.1152
  222SOL    MW4  935   4.002   0.607   0.340 -0.0367 -0.2029  0.0989
  223SOL     OW  936   0.270   2.081   0.458 -0.0834  0.2209  0.9421
  223SOL    HW2  937   0.358   2.118   0.450 -0.3819  0.7778  0.2405
  223SOL    HW3  938   0.274   2.000   0.407 -0.1483  0.5408  0.4315
  223SOL    MW4  939   0.282   2.075   0.450 -0.1314  0.3364  0.7822
  224SOL     OW  940   4.441   0.014   0.285  0.1956 -0.0134 -0.3401
  224SOL    HW2  941   4.464  -0.072   0.251 -1.2008 -0.8523  0.7625
  224SOL    HW3  942   4.350   0.028   0.256 -0.1576  0.3348  0.8975
  224SOL    MW4  943   4.432   0.005   0.277 -0.0353 -0.0782 -0.0313
  225SOL     OW  944   3.988   1.088   0.318  0.7740 -0.0694 -0.2382
  225SOL    HW2  945   3.900   1.118   0.293  0.7349 -0.8523 -1.0817
  225SOL    HW3  946   4.040   1.168   0.322  0.3127  0.2764 -0.9725
  225SOL    MW4  947   3.983   1.102   0.315  0.7079 -0.1271 -0.4464
  226SOL     OW  948   3.550   4.276   0.504 -0.1612  0.5172 -0.8083
  226SOL    HW2  949   3.630   4.327   0.492 -0.0577  0.1720 -1.6027
  226SOL    HW3  950   3.508   4.314   0.582 -0.0085  1.7078 -1.3085
  226SOL    MW4  951   3.555   4.288   0.513 -0.1276  0.6285 -0.9792
  227SOL     OW  952   4.444   0.858   0.468  0.0424 -0.1357  0.0194
  227SOL    HW2  953   4.476   0.770   0.452 -0.5963 -0.6595  1.4950
  227SOL    HW3  954   4.350   0.854   0.450 -0.0290  0.1908  0.3039
  227SOL    MW4  955   4.436   0.846   0.464 -0.0510 -0.1616  0.2516
  228SOL     OW  956   0.113   1.097   0.391 -0.0677  0.0664  0.5344
  228SOL    HW2  957   0.055   1.161   0.349  0.9961  1.2238  0.7668
  228SOL    HW3  958   0.056   1.026   0.419 -1.5918  1.8875  2.1384
  228SOL    MW4  959   0.098   1.096   0.389 -0.1284  0.4593  0.7767
  229SOL     OW  960   4.169   1.704   0.157 -0.0698  0.2495 -0.0612
  229SOL    HW2  961   4.087   1.736   0.195  0.0955 -0.5480  1.0165
  229SOL    HW3  962   4.175   1.746   0.072 -1.0253  1.2199  0.3442
  229SOL    MW4  963   4.159   1.714   0.151 -0.1750  0.2723  0.1345
  230SOL     OW  964   4.103   1.386   0.449  0.2026  0.1222  0.1395
  230SOL    HW2  965   4.012   1.361   0.461  0.3656 -0.6959 -0.2797
  230SOL    HW3  966   4.150   1.338   0.518  0.4176 -0.1302 -0.1791
  230SOL    MW4  967   4.097   1.376   0.460  0.2522 -0.0190  0.0422
  231SOL     OW  968   4.371   1.991   0.481  0.4245  0.1204 -0.2406
  231SOL    HW2  969   4.414   1.905   0.488  0.9725  0.3703 -0.5069
  231SOL    HW3  970   4.288   1.972   0.437  1.0717 -0.1211 -1.4005
  231SOL    MW4  971   4.366   1.977   0.476  0.5822  0.1216 -0.4287
  232SOL     OW  972   3.753   2.007   0.184  0.3588 -0.0079 -0.2475
  232SOL    HW2  973   3.675   1.993   0.238  1.6267 -0.8326  1.4005
  232SOL    HW3  974   3.783   2.094   0.209  1.3243 -0.6525  0.9119
  232SOL    MW4  975   3.746   2.017   0.195  0.6533 -0.2017  0.1229
  233SOL     OW  976   4.253   2.586   0.337  0.1785 -0.2337  0.0618
  233SOL    HW2  977   4.328   2.540   0.374 -0.2935 -0.9375  0.1675
  233SOL    HW3  978   4.261   2.574   0.242  0.7620  0.5772  0.0115
  233SOL    MW4  979   4.264   2.578   0.329  0.1936 -0.2198  0.0691
  234SOL     OW  980   4.037   3.354   0.162 -0.0212 -0.1525 -0.0559
  234SOL    HW2  981   4.046   3.360   0.067 -0.3036 -0.0366 -0.0766
  234SOL    HW3  982   4.097   3.420   0.196 -0.6961  0.5393 -0.1880
  234SOL    MW4  983   4.046   3.364   0.154 -0.1473 -0.0458 -0.0761
  235SOL     OW  984   3.927   1.801   0.235 -0.4727 -0.2416  0.1350
  235SOL    HW2  985   3.873   1.878   0.220  0.7547  0.9629  1.7730
  235SOL    HW3  986   3.864   1.730   0.249 -1.6193  0.9143  0.9259
  235SOL    MW4  987   3.911   1.802   0.235 -0.4621  0.0697  0.4554
  236SOL     OW  988   0.224   3.652   0.498 -0.0610 -0.1145  0.0974
  236SOL    HW2  989   0.157   3.683   0.437  1.3595 -0.5374 -1.7151
  236SOL    HW3  990   0.293   3.718   0.493  0.8064 -1.0183 -0.0591
  236SOL    MW4  991   0.224   3.665   0.489  0.2408 -0.2892 -0.1624
  237SOL     OW  992   4.249   3.448   0.512  0.2250 -0.3051 -0.2515
  237SOL    HW2  993   4.188   3.376   0.528  1.3593 -1.2706 -0.1129
  237SOL    HW3  994   4.336   3.408   0.522  0.8913  0.7940 -1.4304
  237SOL    MW4  995   4.252   3.433   0.515  0.4625 -0.2875 -0.3888
  238SOL     OW  996   0.199   2.678   0.465 -0.3046 -0.1372  0.2137
  238SOL    HW2  997   0.151   2.760   0.453 -0.6113 -0.5308 -1.3255
  238SOL    HW3  998   0.133   2.610   0.457 -0.0118 -0.5473  1.2730
  238SOL    MW4  999   0.184   2.680   0.462 -0.3064 -0.2432  0.1504
  239SOL     OW 1000   3.765   3.614   0.464 -0.0982  0.6103  0.1857
  239SOL    HW2 1001   3.785   3.623   0.557  0.0423 -0.8112  0.3008
  239SOL    HW3 1002   3.669   3.622   0.460 -0.2365 -0.7729  0.6293
  239SOL    MW4 1003   3.755   3.616   0.476 -0.0980  0.2406  0.2594
  240SOL     OW 1004   4.061   3.256   0.522  0.0209  0.2351 -0.3105
  240SOL    HW2 1005   4.030   3.249   0.613  0.1020 -2.5319 -0.4607
  240SOL    HW3 1006   3.982   3.275   0.471 -0.4122 -0.6037  0.0476
  240SOL    MW4 1007   4.046   3.258   0.527 -0.0253 -0.2408 -0.2831
  241SOL     OW 1008   4.042   4.130   0.241 -0.6792  0.2419 -0.1703
  241SOL    HW2 1009   4.034   4.068   0.168 -0.7120  1.6202 -1.3563
  241SOL    HW3 1010   4.126   4.108   0.281 -1.2486 -1.3727  0.1884
  241SOL    MW4 1011   4.052   4.119   0.236 -0.7596  0.2112 -0.2794
  242SOL     OW 1012   3.990   3.722   0.303  0.0141  0.3577 -0.2223
  242SOL    HW2 1013   4.005   3.799   0.358  0.0849  0.2075 -0.0325
  242SOL    HW3 1014   3.901   3.694   0.324 -0.0994  0.5295 -0.4670
  242SOL    MW4 1015   3.981   3.728   0.313  0.0083  0.3605 -0.2295
  243SOL     OW 1016   3.599   4.008   0.482  0.0611 -0.1513 -0.5058
  243SOL    HW2 1017   3.522   3.958   0.453 -0.2205  0.2831 -0.5142
  243SOL    HW3 1018   3.571   4.100   0.478  0.5462  0.0029 -0.4054
  243SOL    MW4 1019   3.585   4.014   0.478  0.0880 -0.0734 -0.4937
  244SOL     OW 1020   4.372   3.924   0.574 -0.0613  0.0412 -0.0375
  244SOL    HW2 1021   4.332   3.890   0.654  2.5299 -0.5729  1.0319
  244SOL    HW3 1022   4.379   3.848   0.516  0.7946 -0.1335  0.2937
  244SOL    MW4 1023   4.367   3.909   0.577  0.3939 -0.0627  0.1473
  245SOL     OW 1024   0.153   4.659   0.877  0.1011 -0.5456  0.1189
  245SOL    HW2 1025   0.170   4.570   0.844 -0.5257 -0.2925 -0.9344
  245SOL    HW3 1026   0.099   4.699   0.809  0.4207  0.6653  0.5684
  245SOL    MW4 1027   0.148   4.652   0.863  0.0606 -0.3529  0.0392
  246SOL     OW 1028   4.468   0.103   0.712 -0.0262 -0.0463  0.4000
  246SOL    HW2 1029   4.395   0.049   0.743 -0.6032  0.3753 -0.2253
  246SOL    HW3 1030   4.471   0.175   0.774 -0.8856  0.5497 -0.2339
  246SOL    MW4 1031   4.458   0.105   0.724 -0.2151  0.0880  0.2338
  247SOL     OW 1032   4.448   0.358   0.848  0.1172  0.2328 -0.2780
  247SOL    HW2 1033   4.462   0.380   0.940 -0.4617  0.5938 -0.2716
  247SOL    HW3 1034   4.526   0.392   0.804  1.1708 -1.4322  0.2967
  247SOL    MW4 1035   4.460   0.366   0.854  0.1802  0.0607 -0.2013
  248SOL     OW 1036   0.189   0.495   0.747 -0.0277 -0.1129  0.1792
  248SOL    HW2 1037   0.265   0.464   0.798 -0.4664 -0.7897  0.4319
  248SOL    HW3 1038   0.201   0.590   0.742  1.4789 -0.3252 -0.8129
  248SOL    MW4 1039   0.201   0.503   0.753  0.1132 -0.2302  0.0816
  249SOL     OW 1040   0.204   0.774   0.799 -0.0534  0.5243  0.0843
  249SOL    HW2 1041   0.211   0.775   0.895 -1.0203 -1.2387  0.1880
  249SOL    HW3 1042   0.118   0.812   0.781  0.0584  0.7011 -0.0744
  249SOL    MW4 1043   0.194   0.779   0.810 -0.1663  0.3150  0.0771
  250SOL     OW 1044   4.445   0.888   0.738 -0.2554  0.3196  0.3703
  250SOL    HW2 1045   4.360   0.857   0.768  0.0114 -1.9253 -1.1070
  250SOL    HW3 1046   4.442   0.879   0.643  1.7844 -0.1906  0.3362
  250SOL    MW4 1047   4.434   0.883   0.729  0.0491 -0.0439  0.1709
  251SOL     OW 1048   4.465   1.174   0.779 -0.3079  0.0973 -0.1941
  251SOL    HW2 1049   4.477   1.186   0.873  0.4903  0.1381 -0.2951
  251SOL    HW3 1050   4.465   1.079   0.767  0.8167  0.1009 -0.2945
  251SOL    MW4 1051   4.467   1.163   0.789 -0.0542  0.1031 -0.2207
  252SOL     OW 1052   0.232   1.256   0.731 -0.0040 -0.2472 -0.0906
  252SOL    HW2 1053   0.144   1.221   0.739 -0.3050  0.2621 -1.0466
  252SOL    HW3 1054   0.263   1.222   0.646  0.6587 -0.2971  0.1663
  252SOL    MW4 1055   0.225   1.247   0.721  0.0437 -0.1866 -0.1829
  253SOL     OW 1056   0.253   1.535   0.855 -0.4935  0.1412 -0.0799
  253SOL    HW2 1057   0.329   1.581   0.818 -0.0774  0.3311  0.9750
  253SOL    HW3 1058   0.246   1.454   0.804  0.2530  0.2545 -0.3662
  253SOL    MW4 1059   0.262   1.530   0.844 -0.3401  0.1813  0.0215
  254SOL     OW 1060   0.046   1.664   0.730 -0.4280  0.2971  0.1456
  254SOL    HW2 1061  -0.029   1.608   0.752 -1.2099  2.0036  2.0652
  254SOL    HW3 1062   0.117   1.632   0.785 -0.7716  0.9408  0.9727
  254SOL    MW4 1063   0.045   1.652   0.740 -0.5764  0.6071  0.5080
  255SOL     OW 1064   4.482   1.911   0.849 -0.4322  0.0833  0.2381
  255SOL    HW2 1065   4.548   1.962   0.802 -1.6008  1.9570  0.6019
  255SOL    HW3 1066   4.505   1.819   0.830  3.2844  0.6245  1.6919
  255SOL    MW4 1067   4.494   1.905   0.840 -0.0960  0.4019  0.4779
  256SOL     OW 1068   0.215   2.041   0.745  0.1763 -0.0363 -0.0630
  256SOL    HW2 1069   0.224   2.133   0.769  0.7291 -0.2468  0.5559
  256SOL    HW3 1070   0.221   2.040   0.650 -0.4255  0.6319 -0.1095
  256SOL    MW4 1071   0.217   2.053   0.736  0.1698  0.0238  0.0125
  257SOL     OW 1072   0.197   2.318   0.816  0.0138 -0.3836 -0.3946
  257SOL    HW2 1073   0.203   2.322   0.911  0.7760  0.5090 -0.4701
  257SOL    HW3 1074   0.279   2.356   0.785  0.4485 -2.0721 -1.3977
  257SOL    MW4 1075   0.209   2.323   0.824  0.1717 -0.4885 -0.5369
  258SOL     OW 1076   4.446   2.437   0.708 -0.5744  0.5109  0.4054
  258SOL    HW2 1077   4.374   2.383   0.739  1.3554 -1.2411  1.9474
  258SOL    HW3 1078   4.525   2.393   0.739  1.1985  2.2456 -1.4430
  258SOL    MW4 1079   4.447   2.424   0.716 -0.0854  0.5085  0.3650
  259SOL     OW 1080   0.016   2.706   0.843 -0.2601  0.2469  0.2015
  259SOL    HW2 1081   0.018   2.712   0.939  0.1945 -0.1119  0.2145
  259SOL    HW3 1082  -0.022   2.619   0.826 -0.2625  0.2766  0.0567
  259SOL    MW4 1083   0.011   2.695   0.854 -0.2005  0.2034  0.1842
  260SOL     OW 1084   0.242   2.838   0.770 -0.2561 -0.3330  0.5210
  260SOL    HW2 1085   0.157   2.795   0.763 -0.9721  1.0306  0.6597
  260SOL    HW3 1086   0.260   2.869   0.681 -0.2779  0.0873  0.6643
  260SOL    MW4 1087   0.233   2.836   0.757 -0.3535 -0.0980  0.5582
  261SOL     OW 1088   0.252   3.109   0.840 -0.1114  0.0643 -0.5412
  261SOL    HW2 1089   0.244   3.125   0.934  0.1550  0.3094 -0.5560
  261SOL    HW3 1090   0.252   3.014   0.831  2.0537 -0.0017 -0.0784
  261SOL    MW4 1091   0.251   3.099   0.851  0.2094  0.0877 -0.4821
  262SOL     OW 1092   0.000   3.221   0.798 -0.5221 -0.4478  0.2192
  262SOL    HW2 1093   0.088   3.184   0.808 -0.3385 -0.6047 -1.7061
  262SOL    HW3 1094  -0.002   3.252   0.708 -2.5853 -0.8137  0.1117
  262SOL    MW4 1095   0.012   3.220   0.787 -0.7701 -0.5167 -0.0489
  263SOL     OW 1096   0.031   3.478   0.881  0.4006  0.1313 -0.1749
  263SOL    HW2 1097  -0.050   3.525   0.864  0.3234 -0.2844 -1.0036
  263SOL    HW3 1098   0.010   3.386   0.863  0.5802 -0.2190  1.3121
  263SOL    MW4 1099   0.018   3.472   0.876  0.4139  0.0303 -0.0880
  264SOL     OW 1100   0.250   3.613   0.771  0.4311 -0.1853  0.2050
  264SOL    HW2 1101   0.177   3.558   0.799 -1.0105  1.8658  0.6071
  264SOL    HW3 1102   0.234   3.627   0.677 -0.2555  1.0288  0.4852
  264SOL    MW4 1103   0.238   3.608   0.762  0.1503  0.2456  0.2950
  265SOL     OW 1104   0.226   3.878   0.861 -0.2414 -0.0022 -0.3947
  265SOL    HW2 1105   0.238   3.870   0.955  0.7163 -0.1790 -0.5193
  265SOL    HW3 1106   0.212   3.788   0.831 -1.8839  0.2013 -0.2574
  265SOL    MW4 1107   0.226   3.865   0.869 -0.3317  0.0014 -0.3930
  266SOL     OW 1108   0.062   4.050   0.733  0.3431 -0.0711  0.4798
  266SOL    HW2 1109   0.013   3.993   0.673  0.2463  0.6648 -0.1556
  266SOL    HW3 1110   0.119   3.991   0.782 -0.6677 -0.8619  0.7222
  266SOL    MW4 1111   0.063   4.034   0.731  0.1969 -0.0782  0.4279
  267SOL     OW 1112   4.482   4.302   0.859 -0.0163 -0.1987  0.3655
  267SOL    HW2 1113   4.473   4.279   0.951 -0.3158  0.2276  0.4395
  267SOL    HW3 1114   4.502   4.218   0.816 -2.9205 -0.9589  0.3803
  267SOL    MW4 1115   4.484   4.288   0.865 -0.4390 -0.2432  0.3772
  268SOL     OW 1116   0.233   4.402   0.773 -0.4809  0.3094  0.0798
  268SOL    HW2 1117   0.154   4.360   0.806  0.4418 -1.1765  0.4411
  268SOL    HW3 1118   0.220   4.406   0.679 -1.1385  0.4093  0.1686
  268SOL    MW4 1119   0.221   4.397   0.765 -0.4459  0.1268  0.1392
  269SOL     OW 1120   0.663   0.000   0.846  0.1728 -0.4632 -0.2935
  269SOL    HW2 1121   0.654  -0.019   0.940 -1.2042 -1.5647 -0.6331
  269SOL    HW3 1122   0.576   0.029   0.819  0.7481  0.5454 -1.0935
  269SOL    MW4 1123   0.650   0.001   0.855  0.0669 -0.4754 -0.4439
  270SOL     OW 1124   0.402   0.092   0.784 -0.2473 -0.2709  0.3091
  270SOL    HW2 1125   0.326   0.063   0.833  0.5455 -0.8239  1.2273
  270SOL    HW3 1126   0.392   0.051   0.698 -1.5110  0.5080  0.0818
  270SOL    MW4 1127   0.391   0.082   0.779 -0.3094 -0.2411  0.4003
  271SOL     OW 1128   0.417   0.369   0.845  0.2519 -0.5920  1.0801
  271SOL    HW2 1129   0.495   0.401   0.799 -0.7985  0.5892  0.0552
  271SOL    HW3 1130   0.419   0.274   0.832  0.4717 -0.3748 -0.6717
  271SOL    MW4 1131   0.427   0.361   0.837  0.1423 -0.4075  0.7138
  272SOL     OW 1132   0.652   0.457   0.717 -0.1620  0.3455 -0.1663
  272SOL    HW2 1133   0.735   0.427   0.754 -0.1950  0.9588  0.4194
  272SOL    HW3 1134   0.676   0.502   0.636 -0.0666 -0.8092 -0.7846
  272SOL    MW4 1135   0.666   0.459   0.711 -0.1537  0.2741 -0.1706
  273SOL     OW 1136   0.654   0.680   0.866  0.3675 -0.2289  0.2013
  273SOL    HW2 1137   0.596   0.747   0.829  0.6093 -0.0134  0.2114
  273SOL    HW3 1138   0.635   0.601   0.815  1.0988  0.2077 -0.7676
  273SOL    MW4 1139   0.644   0.678   0.854  0.4959 -0.1429  0.0747
  274SOL     OW 1140   0.460   0.853   0.765 -0.4283 -0.1120  0.0381
  274SOL    HW2 1141   0.455   0.939   0.805 -1.8005 -0.2104  0.1115
  274SOL    HW3 1142   0.371   0.818   0.771  0.1338 -1.5962  0.1551
  274SOL    MW4 1143   0.448   0.860   0.771 -0.5352 -0.3209  0.0632
  275SOL     OW 1144   0.446   1.150   0.862 -0.2824  0.4074 -0.5730
  275SOL    HW2 1145   0.519   1.206   0.834 -0.8119  0.6810 -1.3998
  275SOL    HW3 1146   0.369   1.187   0.819 -1.1799  1.0651  1.5310
  275SOL    MW4 1147   0.446   1.162   0.852 -0.4707  0.5304 -0.4045
  276SOL     OW 1148   0.686   1.293   0.790 -0.3839 -0.1257  0.5488
  276SOL    HW2 1149   0.709   1.384   0.810 -0.8746 -0.0965  0.9695
  276SOL    HW3 1150   0.672   1.293   0.695 -0.2607  0.2130  0.5275
  276SOL    MW4 1151   0.687   1.305   0.780 -0.4324 -0.0772  0.6015
  277SOL     OW 1152   0.715   1.577   0.864  0.3505  0.4195 -0.2099
  277SOL    HW2 1153   0.688   1.552   0.952  1.6943 -1.1595 -0.2129
  277SOL    HW3 1154   0.633   1.599   0.819 -0.5065 -0.2969  0.9648
  277SOL    MW4 1155   0.700   1.576   0.869  0.4147  0.1166 -0.0554
  278SOL     OW 1156   0.465   1.660   0.742 -0.0004 -0.3900 -0.2258
  278SOL    HW2 1157   0.463   1.739   0.796 -0.2440  0.2487 -1.1667
  278SOL    HW3 1158   0.478   1.692   0.653  1.4828 -1.4905 -0.4323
  278SOL    MW4 1159   0.467   1.675   0.737  0.1632 -0.4508 -0.3771
  279SOL     OW 1160   0.430   1.907   0.891 -0.0231 -0.1823  0.0497
  279SOL    HW2 1161   0.434   1.923   0.985  0.8076  0.5101 -0.0929
  279SOL    HW3 1162   0.352   1.954   0.861 -0.0056  0.0181  0.3216
  279SOL    MW4 1163   0.420   1.916   0.899  0.0888 -0.0646  0.0668
  280SOL     OW 1164   0.658   2.048   0.764  0.4728  0.0388  0.3719
  280SOL    HW2 1165   0.580   2.010   0.804  1.4686 -1.5301  0.8974
  280SOL    HW3 1166   0.645   2.036   0.670 -0.4852  0.9417  0.3847
  280SOL    MW4 1167   0.646   2.041   0.757  0.4778 -0.0489  0.4430
  281SOL     OW 1168   0.666   2.310   0.830 -0.2421 -0.1853 -0.7428
  281SOL    HW2 1169   0.658   2.314   0.925 -0.3932 -0.1870 -0.7551
  281SOL    HW3 1170   0.672   2.217   0.810 -1.1617 -0.2342 -0.8096
  281SOL    MW4 1171   0.665   2.298   0.840 -0.3834 -0.1919 -0.7532
  282SOL     OW 1172   0.440   2.433   0.761 -0.3372  0.4726  0.0070
  282SOL    HW2 1173   0.522   2.396   0.795 -0.7176 -0.6305 -0.2726
  282SOL    HW3 1174   0.463   2.466   0.674 -0.2091  0.0875 -0.1048
  282SOL    MW4 1175   0.454   2.432   0.754 -0.3705  0.2761 -0.0446
  283SOL     OW 1176   0.450   2.704   0.877 -0.1382  0.0539  0.2477
  283SOL    HW2 1177   0.435   2.611   0.856 -0.7863 -0.1500  1.5112
  283SOL    HW3 1178   0.378   2.750   0.833 -0.7907 -0.2366  0.9867
  283SOL    MW4 1179   0.438   2.698   0.869 -0.3098 -0.0117  0.5119
  284SOL     OW 1180   0.660   2.810   0.732 -0.1921  0.4371 -0.1341
  284SOL    HW2 1181   0.734   2.756   0.759  0.1703  1.5578  1.2050
  284SOL    HW3 1182   0.587   2.780   0.787 -0.3084  0.4409 -0.2876
  284SOL    MW4 1183   0.660   2.799   0.743 -0.1596  0.5856  0.0224
  285SOL     OW 1184   0.694   3.081   0.817  0.3088 -0.1395  0.3440
  285SOL    HW2 1185   0.609   3.120   0.793 -1.3472 -2.1879  2.6664
  285SOL    HW3 1186   0.687   2.990   0.789  0.8609 -0.8807  2.4951
  285SOL    MW4 1187   0.682   3.074   0.810  0.1633 -0.5076  0.9341
  286SOL     OW 1188   0.466   3.211   0.713  0.2109  0.4692 -0.0698
  286SOL    HW2 1189   0.464   3.303   0.738  0.4378  0.6460 -0.6780
  286SOL    HW3 1190   0.402   3.169   0.770 -0.8704  1.2319 -0.6889
  286SOL    MW4 1191   0.457   3.218   0.724  0.0982  0.5929 -0.2317
  287SOL     OW 1192   0.483   3.477   0.808 -0.3154 -0.0677 -0.3785
  287SOL    HW2 1193   0.478   3.462   0.903 -0.1049 -1.1551 -0.5324
  287SOL    HW3 1194   0.399   3.518   0.786  0.2966  1.7637  0.5415
  287SOL    MW4 1195   0.471   3.480   0.818 -0.2069  0.0308 -0.2774
  288SOL     OW 1196   0.677   3.624   0.686 -0.3689 -0.1517 -0.5327
  288SOL    HW2 1197   0.600   3.572   0.709 -0.9571 -0.2667 -2.6322
  288SOL    HW3 1198   0.687   3.686   0.758  0.4142 -3.2024  2.0982
  288SOL    MW4 1199   0.668   3.625   0.698 -0.3431 -0.5691 -0.4626
  289SOL     OW 1200   0.696   3.845   0.855  0.2017  0.3397  0.1233
  289SOL    HW2 1201   0.762   3.890   0.802 -0.5536 -0.0509 -1.1702
  289SOL    HW3 1202   0.616   3.897   0.843  0.3981  1.1709  2.1794
  289SOL    MW4 1203   0.694   3.858   0.846  0.1280  0.3977  0.2239
  290SOL     OW 1204   0.470   4.011   0.783  0.0566  0.4498  0.0367
  290SOL    HW2 1205   0.474   4.100   0.819 -0.0151 -0.2256  1.7303
  290SOL    HW3 1206   0.395   3.971   0.826  0.9686 -0.9201  0.3933
  290SOL    MW4 1207   0.461   4.018   0.793  0.1675  0.1798  0.3073
  291SOL     OW 1208   0.467   4.277   0.857 -0.3253  0.0674  0.0758
  291SOL    HW2 1209   0.461   4.262   0.951 -1.7919 -0.3768 -0.0777
  291SOL    HW3 1210   0.385   4.319   0.833  0.4754  1.1408 -0.8406
  291SOL    MW4 1211   0.456   4.280   0.866 -0.4131  0.1502 -0.0654
  292SOL     OW 1212   0.684   4.402   0.754 -0.6085  0.6195  0.1603
  292SOL    HW2 1213   0.608   4.357   0.792 -1.5134  2.5126  0.6594
  292SOL    HW3 1214   0.689   4.485   0.802  0.8424  1.1804 -0.9372
  292SOL    MW4 1215   0.674   4.407   0.765 -0.5364  0.9432  0.0812
  293SOL     OW 1216   1.110   4.664   0.846  0.1097  0.3089  0.0342
  293SOL    HW2 1217   1.195   4.702   0.825  0.6598 -0.4335  0.8978
  293SOL    HW3 1218   1.047   4.720   0.800  1.1218  0.2216 -1.4776
  293SOL    MW4 1219   1.113   4.677   0.837  0.3158  0.1993 -0.0514
  294SOL     OW 1220   0.888   0.131   0.751  0.3134 -0.1491 -0.0066
  294SOL    HW2 1221   0.873   0.220   0.783 -0.0769 -0.1308 -0.2394
  294SOL    HW3 1222   0.816   0.080   0.788 -0.4792 -0.0154 -1.3188
  294SOL    MW4 1223   0.876   0.136   0.760  0.1574 -0.1291 -0.2105
  295SOL     OW 1224   0.878   0.385   0.862  0.8747 -0.2839 -0.5125
  295SOL    HW2 1225   0.886   0.381   0.957 -0.1456 -0.1823 -0.4272
  295SOL    HW3 1226   0.963   0.418   0.833  0.1309  2.7250  0.5581
  295SOL    MW4 1227   0.891   0.389   0.871  0.6419  0.1265 -0.3600
  296SOL     OW 1228   1.120   0.486   0.780 -0.0124 -0.7169 -0.1118
  296SOL    HW2 1229   1.206   0.447   0.798 -0.5120 -1.6557  0.2778
  296SOL    HW3 1230   1.125   0.514   0.689  1.0456  0.1220  0.1925
  296SOL    MW4 1231   1.132   0.484   0.771  0.0612 -0.7300 -0.0202
  297SOL     OW 1232   1.076   0.753   0.854 -0.5020  0.0208 -0.1709
  297SOL    HW2 1233   1.085   0.759   0.949 -3.1908 -0.1418  0.1326
  297SOL    HW3 1234   1.096   0.661   0.834 -1.2493 -0.2690  0.4029
  297SOL    MW4 1235   1.080   0.741   0.864 -0.9553 -0.0389 -0.0551
  298SOL     OW 1236   0.844   0.876   0.800 -0.3427  0.6152  0.0651
  298SOL    HW2 1237   0.930   0.839   0.819 -0.2392  1.4772  1.3213
  298SOL    HW3 1238   0.783   0.806   0.824  0.0265 -0.2201 -1.4056
  298SOL    MW4 1239   0.847   0.862   0.806 -0.2803  0.6188  0.0367
  299SOL     OW 1240   0.864   1.128   0.914  0.0238  0.0673 -0.0734
  299SOL    HW2 1241   0.843   1.039   0.886  0.5553  0.2474 -1.0699
  299SOL    HW3 1242   0.809   1.184   0.859 -0.0197  0.3716  0.2784
  299SOL    MW4 1243   0.854   1.124   0.903  0.0882  0.1314 -0.1585
  300SOL     OW 1244   1.071   1.188   0.748  0.2522 -0.0307 -0.3141
  300SOL    HW2 1245   1.008   1.147   0.807  0.8169  0.3325  0.5394
  300SOL    HW3 1246   1.031   1.180   0.661 -0.7295 -0.2561  0.1565
  300SOL    MW4 1247   1.057   1.181   0.744  0.1971 -0.0126 -0.1394
  301SOL     OW 1248   1.109   1.446   0.843  0.0437 -0.2196  0.0799
  301SOL    HW2 1249   1.043   1.508   0.813 -0.0847  0.1713  1.1409
  301SOL    HW3 1250   1.089   1.365   0.796  1.3384  1.0266 -2.6994
  301SOL    MW4 1251   1.098   1.444   0.833  0.1976 -0.0036 -0.1469
  302SOL     OW 1252   0.932   1.656   0.743  0.6190 -0.1277  0.1472
  302SOL    HW2 1253   0.928   1.748   0.768  0.1728  0.0999 -0.7408
  302SOL    HW3 1254   0.854   1.617   0.783 -0.1995  0.2767 -1.0606
  302SOL    MW4 1255   0.921   1.663   0.752  0.4522 -0.0443 -0.1293
  303SOL     OW 1256   0.894   1.909   0.876 -0.1415 -0.5498 -0.5750
  303SOL    HW2 1257   0.895   1.917   0.972  1.1156  0.3640 -0.6408
  303SOL    HW3 1258   0.819   1.961   0.849  1.4823  2.1003 -0.2583
  303SOL    MW4 1259   0.884   1.917   0.885  0.2386 -0.0798 -0.5419
  304SOL     OW 1260   1.118   1.998   0.710  0.3415 -0.2430  0.1897
  304SOL    HW2 1261   1.129   2.084   0.751 -1.9271  0.5681 -0.8386
  304SOL    HW3 1262   1.047   1.957   0.759 -0.3311 -0.4718 -0.9690
  304SOL    MW4 1263   1.110   2.004   0.722 -0.0466 -0.1659 -0.0989
  305SOL     OW 1264   1.107   2.259   0.845  0.5641 -0.4417 -0.1797
  305SOL    HW2 1265   1.108   2.267   0.941  0.7460 -1.2012 -0.1145
  305SOL    HW3 1266   1.170   2.325   0.815 -1.0367  1.2325  0.1081
  305SOL    MW4 1267   1.116   2.268   0.854  0.3769 -0.3209 -0.1332
  306SOL     OW 1268   0.902   2.394   0.727  0.0504  0.1336 -0.3811
  306SOL    HW2 1269   0.969   2.343   0.773 -0.5621 -1.3574 -1.1500
  306SOL    HW3 1270   0.820   2.371   0.770 -0.2874  0.1026 -1.0393
  306SOL    MW4 1271   0.900   2.385   0.739 -0.0750 -0.0672 -0.5693
  307SOL     OW 1272   0.883   2.664   0.815  0.2924  0.2640 -0.0242
  307SOL    HW2 1273   0.867   2.671   0.909  0.1442  2.0246 -0.1601
  307SOL    HW3 1274   0.894   2.571   0.800  2.2072  0.1127  2.0451
  307SOL    MW4 1275   0.882   2.653   0.826  0.5255  0.4764  0.2308
  308SOL     OW 1276   1.114   2.818   0.721  0.3133  0.2666  0.1882
  308SOL    HW2 1277   1.028   2.777   0.731  1.0214 -1.7570 -1.6965
  308SOL    HW3 1278   1.136   2.805   0.629  3.5095 -1.0065  1.0689
  308SOL    MW4 1279   1.105   2.811   0.710  0.8284 -0.1683  0.0557
  309SOL     OW 1280   1.156   3.068   0.859 -0.5164 -0.2216 -0.0890
  309SOL    HW2 1281   1.075   3.117   0.842 -0.8072 -0.4340  0.6449
  309SOL    HW3 1282   1.142   2.983   0.816 -0.8530 -0.4032  0.3693
  309SOL    MW4 1283   1.143   3.063   0.851 -0.5993 -0.2732  0.0682
  310SOL     OW 1284   0.942   3.218   0.800 -0.3310  0.3993 -0.2030
  310SOL    HW2 1285   0.920   3.309   0.823 -0.1951  0.1158  1.0947
  310SOL    HW3 1286   0.857   3.175   0.792 -0.4211  0.8562 -1.7373
  310SOL    MW4 1287   0.928   3.224   0.802 -0.3250  0.4222 -0.2342
  311SOL     OW 1288   0.894   3.493   0.848 -0.5650 -0.6165  0.0542
  311SOL    HW2 1289   0.980   3.527   0.821 -0.7492  0.0607  0.3232
  311SOL    HW3 1290   0.836   3.514   0.775 -0.6510 -0.4804  0.1626
  311SOL    MW4 1291   0.898   3.500   0.834 -0.6006 -0.5093  0.1040
  312SOL     OW 1292   1.129   3.609   0.744  1.0402  0.0183  0.1450
  312SOL    HW2 1293   1.210   3.580   0.786  1.2299  0.5885  0.1675
  312SOL    HW3 1294   1.130   3.566   0.659  1.6111  0.4294 -0.0574
  312SOL    MW4 1295   1.140   3.599   0.738  1.1405  0.1481  0.1212
  313SOL     OW 1296   1.127   3.880   0.841 -0.0743  0.1987 -0.4768
  313SOL    HW2 1297   1.125   3.882   0.937 -2.1508  0.3357 -0.5123
  313SOL    HW3 1298   1.123   3.787   0.818  0.4432  0.1652 -0.4365
  313SOL    MW4 1299   1.126   3.868   0.851 -0.2801  0.2122 -0.4762
  314SOL     OW 1300   0.892   3.978   0.722  0.5164  0.2818 -0.2383
  314SOL    HW2 1301   0.882   4.068   0.750  0.5141  0.3719 -0.5205
  314SOL    HW3 1302   0.974   3.949   0.762  0.0762  0.1294  0.5608
  314SOL    MW4 1303   0.901   3.986   0.731  0.4580  0.2737 -0.1702
  315SOL     OW 1304   0.882   4.235   0.855  0.1218 -0.0306  0.3315
  315SOL    HW2 1305   0.955   4.294   0.835  0.4233 -0.3197  0.5842
  315SOL    HW3 1306   0.805   4.279   0.819  0.5061 -0.0095 -0.4677
  315SOL    MW4 1307   0.882   4.249   0.848  0.2123 -0.0663  0.2593
  316SOL     OW 1308   1.107   4.384   0.776 -0.6108 -0.3326 -0.1311
  316SOL    HW2 1309   1.180   4.329   0.805 -0.5612  0.4392  1.2926
  316SOL    HW3 1310   1.131   4.472   0.807 -0.1465  0.7168 -3.3426
  316SOL    MW4 1311   1.120   4.388   0.784 -0.5430 -0.0930 -0.3669
  317SOL     OW 1312   1.581   4.605   0.818 -0.5440  0.6530  0.0949
  317SOL    HW2 1313   1.573   4.616   0.913  0.4035  1.2950  0.1123
  317SOL    HW3 1314   1.511   4.659   0.781 -0.3297  1.1513  0.4075
  317SOL    MW4 1315   1.571   4.614   0.826 -0.3908  0.8030  0.1385
  318SOL     OW 1316   1.354   0.093   0.764 -0.1199 -0.0966 -0.0700
  318SOL    HW2 1317   1.359   0.180   0.803 -3.3949 -0.0194  0.3005
  318SOL    HW3 1318   1.345   0.109   0.670  0.3445 -0.0763 -0.1122
  318SOL    MW4 1319   1.353   0.107   0.756 -0.4907 -0.0838 -0.0266
  319SOL     OW 1320   1.356   0.358   0.854 -0.1335 -0.0391  0.0581
  319SOL    HW2 1321   1.360   0.381   0.947 -0.4053  0.2080  0.0083
  319SOL    HW3 1322   1.427   0.409   0.814  0.5859 -0.8449  0.2725
  319SOL    MW4 1323   1.366   0.368   0.861 -0.0745 -0.1128  0.0798
  320SOL     OW 1324   1.556   0.519   0.752  0.4033  0.1336  0.1312
  320SOL    HW2 1325   1.550   0.608   0.787  1.2306 -0.0477  0.7429
  320SOL    HW3 1326   1.640   0.486   0.783  0.3651 -0.6611 -0.5769
  320SOL    MW4 1327   1.566   0.526   0.761  0.5075  0.0048  0.1185
  321SOL     OW 1328   1.519   0.761   0.868  0.2350  0.2248 -0.1833
  321SOL    HW2 1329   1.598   0.795   0.826  0.1607  0.1203 -0.4074
  321SOL    HW3 1330   1.447   0.790   0.811  0.1664 -0.2724 -0.3547
  321SOL    MW4 1331   1.520   0.769   0.855  0.2161  0.1454 -0.2354
  322SOL     OW 1332   1.285   0.876   0.725 -0.0661  0.1116 -0.3735
  322SOL    HW2 1333   1.302   0.968   0.746  1.1949 -0.3272  0.6164
  322SOL    HW3 1334   1.210   0.852   0.779 -0.1996  0.4777 -0.3988
  322SOL    MW4 1335   1.277   0.885   0.735  0.0826  0.1020 -0.2462
  323SOL     OW 1336   1.334   1.148   0.830  0.0084  0.6411  0.0602
  323SOL    HW2 1337   1.400   1.184   0.770 -0.6579  1.6735 -0.0795
  323SOL    HW3 1338   1.250   1.174   0.790 -0.5856 -3.3106 -1.4329
  323SOL    MW4 1339   1.331   1.156   0.817 -0.1578  0.2559 -0.1553
  324SOL     OW 1340   1.594   1.228   0.736  0.3035 -0.3019  0.3536
  324SOL    HW2 1341   1.596   1.324   0.745  1.7560 -0.1239 -1.3870
  324SOL    HW3 1342   1.573   1.214   0.643  1.5020 -1.6193  0.2692
  324SOL    MW4 1343   1.592   1.239   0.725  0.6533 -0.4522  0.1128
  325SOL     OW 1344   1.542   1.495   0.816 -0.2418  0.5331 -0.2746
  325SOL    HW2 1345   1.515   1.507   0.907 -0.0553  1.6781 -0.3717
  325SOL    HW3 1346   1.478   1.543   0.765  0.4610  1.0673 -0.6654
  325SOL    MW4 1347   1.530   1.503   0.821 -0.1245  0.7547 -0.3390
  326SOL     OW 1348   1.320   1.607   0.716 -0.5850 -0.4185  0.2298
  326SOL    HW2 1349   1.322   1.691   0.763 -0.9740  0.2796 -0.9905
  326SOL    HW3 1350   1.265   1.551   0.771  1.5245 -0.6067  2.2224
  326SOL    MW4 1351   1.313   1.610   0.730 -0.3580 -0.3513  0.3317
  327SOL     OW 1352   1.351   1.865   0.823  0.1033  0.3270 -0.1301
  327SOL    HW2 1353   1.360   1.883   0.917  0.6335 -0.5156 -0.0105
  327SOL    HW3 1354   1.263   1.894   0.801 -0.3019 -0.1748  0.8053
  327SOL    MW4 1355   1.340   1.871   0.833  0.1198  0.1495  0.0091
  328SOL     OW 1356   1.585   2.001   0.711 -0.1051  0.4199 -0.2240
  328SOL    HW2 1357   1.517   1.952   0.756 -0.4443  1.3329  0.2874
  328SOL    HW3 1358   1.554   2.009   0.621 -0.6281  0.7389 -0.0182
  328SOL    MW4 1359   1.572   1.996   0.705 -0.2189  0.5825 -0.1293
  329SOL     OW 1360   1.552   2.320   0.769 -0.1113 -0.3426  0.0437
  329SOL    HW2 1361   1.471   2.359   0.737  0.4247 -0.4378 -1.4451
  329SOL    HW3 1362   1.558   2.236   0.723  0.1511 -0.9647  1.1690
  329SOL    MW4 1363   1.542   2.314   0.759 -0.0060 -0.4375 -0.0044
  330SOL     OW 1364   1.282   2.426   0.732 -0.1457  0.0944  0.0771
  330SOL    HW2 1365   1.290   2.512   0.774 -0.2878  0.1433  0.0059
  330SOL    HW3 1366   1.263   2.447   0.640 -1.9680 -0.0247  0.4190
  330SOL    MW4 1367   1.281   2.440   0.725 -0.4051  0.0851  0.1128
  331SOL     OW 1368   1.329   2.668   0.858 -0.4347  0.7220  0.1889
  331SOL    HW2 1369   1.345   2.684   0.951 -0.4245  0.5675  0.2154
  331SOL    HW3 1370   1.259   2.729   0.834  0.0388  1.2413  0.1279
  331SOL    MW4 1371   1.322   2.678   0.867 -0.3709  0.7701  0.1843
  332SOL     OW 1372   1.560   2.806   0.726  0.0302 -0.1872  0.6869
  332SOL    HW2 1373   1.562   2.888   0.776 -0.6184  0.0318  0.3683
  332SOL    HW3 1374   1.494   2.753   0.770  0.2440 -0.4214  0.7222
  332SOL    MW4 1375   1.551   2.810   0.738 -0.0273 -0.1895  0.6496
  333SOL     OW 1376   1.570   3.041   0.840 -0.2062 -0.9802 -0.5391
  333SOL    HW2 1377   1.588   3.058   0.932 -1.7492 -0.0444 -0.3938
  333SOL    HW3 1378   1.499   3.101   0.818 -0.1698 -1.5234 -2.2200
  333SOL    MW4 1379   1.563   3.051   0.849 -0.4050 -0.9284 -0.7418
  334SOL     OW 1380   1.375   3.212   0.793 -0.1813 -0.2216 -0.4088
  334SOL    HW2 1381   1.291   3.172   0.816  0.0086 -0.5789 -0.3407
  334SOL    HW3 1382   1.386   3.195   0.700 -1.5772  2.3618 -1.0933
  334SOL    MW4 1383   1.366   3.205   0.784 -0.3405  0.0722 -0.4901
  335SOL     OW 1384   1.342   3.484   0.873  0.0547 -0.0835 -0.2689
  335SOL    HW2 1385   1.425   3.526   0.850 -1.3262  1.8558 -1.8901
  335SOL    HW3 1386   1.349   3.396   0.837  0.3905  0.9276 -2.7720
  335SOL    MW4 1387   1.354   3.478   0.865 -0.0831  0.3057 -0.8131
  336SOL     OW 1388   1.564   3.628   0.777 -0.3518  0.1859  0.2059
  336SOL    HW2 1389   1.649   3.584   0.783  0.3723  1.5643  0.1352
  336SOL    HW3 1390   1.544   3.630   0.684 -0.1206  0.4990  0.1623
  336SOL    MW4 1391   1.572   3.622   0.766 -0.2257  0.4091  0.1909
  337SOL     OW 1392   1.598   3.878   0.888 -0.2497  0.4140  0.1508
  337SOL    HW2 1393   1.533   3.929   0.839  0.2775 -0.2698 -1.2993
  337SOL    HW3 1394   1.586   3.789   0.855  1.4043  0.2817 -0.0928
  337SOL    MW4 1395   1.588   3.873   0.877  0.0381  0.3066 -0.0727
  338SOL     OW 1396   1.366   3.962   0.722  0.3482  0.0371  0.2080
  338SOL    HW2 1397   1.275   3.942   0.746  0.0488  2.6731  1.4314
  338SOL    HW3 1398   1.372   3.938   0.629 -1.6215 -0.0671  0.0896
  338SOL    MW4 1399   1.355   3.956   0.713  0.0489  0.3712  0.3538
  339SOL     OW 1400   1.345   4.239   0.831 -0.3045 -0.1825 -0.5718
  339SOL    HW2 1401   1.413   4.286   0.784  0.8197  0.4372  1.5909
  339SOL    HW3 1402   1.359   4.147   0.810  0.9854 -0.0232 -0.4482
  339SOL    MW4 1403   1.355   4.233   0.822  0.0139 -0.0796 -0.2701
  340SOL     OW 1404   1.568   4.352   0.704 -0.2557 -0.1840  0.1762
  340SOL    HW2 1405   1.643   4.305   0.741 -0.4102 -0.4022  0.2065
  340SOL    HW3 1406   1.578   4.441   0.737  1.0357  0.2517 -1.3138
  340SOL    MW4 1407   1.579   4.358   0.713 -0.1059 -0.1554 -0.0163
  341SOL     OW 1408   2.016   4.571   0.828 -0.7752  0.2097 -0.3136
  341SOL    HW2 1409   2.104   4.607   0.820 -1.0232  0.7529 -0.6651
  341SOL    HW3 1410   2.014   4.498   0.767 -0.1311 -0.6832  0.7168
  341SOL    MW4 1411   2.027   4.566   0.819 -0.7231  0.1636 -0.2240
  342SOL     OW 1412   1.813   0.100   0.769  0.1634 -0.1981  0.0102
  342SOL    HW2 1413   1.874   0.036   0.804  0.0725 -0.3063 -0.0286
  342SOL    HW3 1414   1.729   0.054   0.766  0.1115 -0.0975 -0.0755
  342SOL    MW4 1415   1.810   0.086   0.773  0.1447 -0.1991 -0.0063
  343SOL     OW 1416   1.794   0.364   0.852  0.2125 -0.2903 -0.1056
  343SOL    HW2 1417   1.798   0.274   0.819  0.2524 -0.2248 -0.2786
  343SOL    HW3 1418   1.875   0.404   0.821 -0.3878  0.1693 -1.0873
  343SOL    MW4 1419   1.805   0.357   0.844  0.1386 -0.2210 -0.2580
  344SOL     OW 1420   2.104   0.505   0.451 -0.0219 -0.6367  0.4516
  344SOL    HW2 1421   2.084   0.417   0.419  1.8097 -1.3544  1.2545
  344SOL    HW3 1422   2.025   0.556   0.430 -0.5199 -2.0923 -1.3466
  344SOL    MW4 1423   2.091   0.500   0.444  0.1540 -0.9234  0.3203
  345SOL     OW 1424   2.011   0.760   0.870  0.7910 -0.3333 -0.0978
  345SOL    HW2 1425   2.097   0.794   0.845  0.2531  0.0603 -1.4905
  345SOL    HW3 1426   2.008   0.673   0.829 -0.1340  0.3521 -1.5317
  345SOL    MW4 1427   2.022   0.753   0.861  0.5984 -0.1910 -0.4708
  346SOL     OW 1428   1.757   0.868   0.789 -0.0264  0.1549 -0.1661
  346SOL    HW2 1429   1.765   0.961   0.809 -0.6418 -0.1068  1.3872
  346SOL    HW3 1430   1.845   0.833   0.804  0.3299  0.5726 -1.2550
  346SOL    MW4 1431   1.770   0.876   0.794 -0.0604  0.1755 -0.1048
  347SOL     OW 1432   1.799   1.124   0.884 -0.2941 -0.2064  0.1562
  347SOL    HW2 1433   1.874   1.180   0.864 -0.9264  0.9194  0.8574
  347SOL    HW3 1434   1.726   1.165   0.837 -0.4165 -1.4693 -0.7766
  347SOL    MW4 1435   1.799   1.137   0.875 -0.3937 -0.2246  0.1256
  348SOL     OW 1436   2.022   1.275   0.793 -0.0290 -0.1642 -0.0099
  348SOL    HW2 1437   2.104   1.226   0.787 -0.3763 -0.6567 -0.9856
  348SOL    HW3 1438   1.985   1.269   0.705 -1.1924 -0.0962  0.4652
  348SOL    MW4 1439   2.028   1.267   0.780 -0.2282 -0.2203 -0.0759
  349SOL     OW 1440   1.974   1.521   0.874  0.1413  0.2634  0.4353
  349SOL    HW2 1441   2.051   1.569   0.843  0.3107 -0.0404  0.3861
  349SOL    HW3 1442   1.985   1.432   0.840 -0.4961  0.3529 -0.0311
  349SOL    MW4 1443   1.985   1.516   0.865  0.0795  0.2351  0.3673
  350SOL     OW 1444   1.776   1.653   0.739 -0.6707  0.3939  0.0240
  350SOL    HW2 1445   1.843   1.602   0.785 -0.9021  0.8360  0.8511
  350SOL    HW3 1446   1.693   1.613   0.767 -0.8595  1.3056  0.7792
  350SOL    MW4 1447   1.774   1.641   0.749 -0.7261  0.5724  0.2328
  351SOL     OW 1448   1.802   1.902   0.846  0.1421 -0.0643  0.7214
  351SOL    HW2 1449   1.794   1.812   0.814  0.9219 -0.0639  0.5282
  351SOL    HW3 1450   1.736   1.951   0.796  0.4945 -0.3074  0.0160
  351SOL    MW4 1451   1.792   1.896   0.835  0.2915 -0.0963  0.6028
  352SOL     OW 1452   1.979   2.042   0.675 -0.3655 -0.0720  0.0081
  352SOL    HW2 1453   1.983   2.125   0.721  1.3976 -0.4067  0.4668
  352SOL    HW3 1454   1.923   1.986   0.730 -0.9702  0.5668  0.0470
  352SOL    MW4 1455   1.972   2.045   0.688 -0.2128 -0.0317  0.0737
  353SOL     OW 1456   2.016   2.286   0.817 -0.3464  0.3826  0.3722
  353SOL    HW2 1457   2.009   2.286   0.913 -1.0074 -0.9939  0.3284
  353SOL    HW3 1458   1.943   2.340   0.788 -1.2795 -0.7439  0.5823
  353SOL    MW4 1459   2.006   2.293   0.826 -0.5567  0.0522  0.3942
  354SOL     OW 1460   1.801   2.442   0.748 -0.1769 -0.2788 -0.1023
  354SOL    HW2 1461   1.718   2.395   0.737 -1.1090  1.1531  0.6778
  354SOL    HW3 1462   1.817   2.481   0.662 -1.6116  1.4740  0.3785
  354SOL    MW4 1463   1.792   2.441   0.735 -0.4891  0.1411  0.0640
  355SOL     OW 1464   1.768   2.689   0.853 -0.1629 -0.2074 -0.1734
  355SOL    HW2 1465   1.765   2.598   0.826 -1.2011 -0.0834 -0.4875
  355SOL    HW3 1466   1.696   2.731   0.806  1.3123  1.1245 -1.2931
  355SOL    MW4 1467   1.758   2.683   0.843 -0.1053 -0.0153 -0.3626
  356SOL     OW 1468   2.011   2.825   0.757 -0.3679 -0.1539 -0.0360
  356SOL    HW2 1469   2.093   2.794   0.795  0.1196  0.9762 -0.1338
  356SOL    HW3 1470   1.943   2.783   0.809  0.2773 -0.4973  0.5465
  356SOL    MW4 1471   2.013   2.815   0.769 -0.2186 -0.0501  0.0280
  357SOL     OW 1472   2.039   3.105   0.827  0.4186 -0.0309  0.0244
  357SOL    HW2 1473   1.968   3.169   0.819 -0.9994 -1.2528  2.4200
  357SOL    HW3 1474   2.004   3.025   0.788  1.9365  0.3742 -2.3165
  357SOL    MW4 1475   2.025   3.103   0.821  0.4318 -0.1385  0.0317
  358SOL     OW 1476   1.792   3.202   0.732 -0.2685 -0.3992 -0.0503
  358SOL    HW2 1477   1.715   3.148   0.748 -0.7358 -0.1438 -1.4290
  358SOL    HW3 1478   1.785   3.228   0.640  0.5341  1.0775  0.2880
  358SOL    MW4 1479   1.781   3.198   0.722 -0.2242 -0.1707 -0.1876
  359SOL     OW 1480   1.791   3.481   0.829  0.4162 -0.0305 -0.2529
  359SOL    HW2 1481   1.816   3.484   0.921 -0.6275 -0.1394  0.0463
  359SOL    HW3 1482   1.786   3.388   0.808 -2.3824 -0.0905  0.4617
  359SOL    MW4 1483   1.794   3.469   0.838 -0.0907 -0.0527 -0.1191
  360SOL     OW 1484   2.034   3.548   0.730  0.0370 -0.0935  0.1418
  360SOL    HW2 1485   2.039   3.643   0.742  1.0791 -0.1923  0.5169
  360SOL    HW3 1486   1.941   3.528   0.742 -0.0217  0.7333  1.2111
  360SOL    MW4 1487   2.022   3.558   0.733  0.1667  0.0026  0.3324
  361SOL     OW 1488   2.019   3.823   0.826  0.2590 -0.2940 -0.0725
  361SOL    HW2 1489   2.000   3.831   0.919  1.7302  1.2145  0.1129
  361SOL    HW3 1490   1.957   3.883   0.784  0.5347  0.0705  0.0427
  361SOL    MW4 1491   2.008   3.832   0.832  0.4897 -0.0467 -0.0328
  362SOL     OW 1492   1.807   3.969   0.727  0.6539 -0.6538  0.2910
  362SOL    HW2 1493   1.746   3.932   0.791  0.1787 -1.1403 -0.4347
  362SOL    HW3 1494   1.773   3.940   0.642  0.8271  0.6237 -0.2325
  362SOL    MW4 1495   1.794   3.961   0.724  0.6140 -0.5493  0.1262
  363SOL     OW 1496   1.827   4.228   0.809  0.5730 -0.2324  0.1345
  363SOL    HW2 1497   1.792   4.232   0.898  0.6636  1.1199  0.1105
  363SOL    HW3 1498   1.819   4.135   0.785 -0.0412 -0.4964  1.3070
  363SOL    MW4 1499   1.821   4.216   0.818  0.5039 -0.0887  0.2860
  364SOL     OW 1500   2.040   4.347   0.649  0.5439  0.1326 -0.3037
  364SOL    HW2 1501   1.973   4.296   0.695  1.0947  0.2127  0.5960
  364SOL    HW3 1502   1.998   4.373   0.567 -1.4197  2.3703  1.3540
  364SOL    MW4 1503   2.026   4.344   0.644  0.3574  0.4382  0.0337
  365SOL     OW 1504   2.506   4.662   0.783  0.4502  0.3641  0.4342
  365SOL    HW2 1505   2.484   4.674   0.875  0.6681 -0.8969  0.6586
  365SOL    HW3 1506   2.482   4.572   0.764  0.2875  0.6525 -0.7862
  365SOL    MW4 1507   2.500   4.652   0.792  0.4578  0.2360  0.3027
  366SOL     OW 1508   2.226   0.089   0.752 -0.4329  0.5799  0.2398
  366SOL    HW2 1509   2.321   0.089   0.765 -0.2096  2.8382 -1.0854
  366SOL    HW3 1510   2.215   0.080   0.657 -1.5713 -0.3775  0.4515
  366SOL    MW4 1511   2.237   0.088   0.741 -0.5538  0.7516  0.0929
  367SOL     OW 1512   2.207   0.346   0.859  0.0071 -0.0473 -0.3160
  367SOL    HW2 1513   2.287   0.386   0.823  0.1676 -0.4044 -0.3626
  367SOL    HW3 1514   2.208   0.257   0.825  0.0859 -0.3479  0.4718
  367SOL    MW4 1515   2.218   0.340   0.850  0.0389 -0.1341 -0.2182
  368SOL     OW 1516   2.439   0.444   0.750 -0.1622  0.0564 -0.2324
  368SOL    HW2 1517   2.513   0.406   0.797 -0.8732 -0.7018  0.2836
  368SOL    HW3 1518   2.467   0.445   0.658  0.4204 -0.3976 -0.0605
  368SOL    MW4 1519   2.452   0.439   0.744 -0.1791 -0.1035 -0.1416
  369SOL     OW 1520   2.457   0.701   0.839 -0.4864  0.0089 -0.2248
  369SOL    HW2 1521   2.517   0.759   0.793 -0.4190  0.3520  0.2957
  369SOL    HW3 1522   2.464   0.618   0.792  0.7805 -0.0983  0.1507
  369SOL    MW4 1523   2.466   0.698   0.827 -0.3102  0.0401 -0.1066
  370SOL     OW 1524   2.241   0.854   0.754 -0.1553 -0.0057  0.2308
  370SOL    HW2 1525   2.303   0.787   0.781 -0.1956 -0.2397 -0.2558
  370SOL    HW3 1526   2.267   0.877   0.665 -1.0155 -0.4055 -0.1348
  370SOL    MW4 1527   2.252   0.848   0.746 -0.2742 -0.0893  0.1185
  371SOL     OW 1528   2.255   1.113   0.880 -0.1738 -0.0215 -0.2993
  371SOL    HW2 1529   2.232   1.107   0.973  0.5057 -0.7231 -0.1669
  371SOL    HW3 1530   2.233   1.026   0.845  1.2127 -0.3333 -0.4083
  371SOL    MW4 1531   2.249   1.100   0.888  0.0987 -0.1550 -0.2962
  372SOL     OW 1532   2.450   1.245   0.724 -0.4300 -0.2670  0.1469
  372SOL    HW2 1533   2.390   1.189   0.774 -0.2165 -0.9119 -0.3220
  372SOL    HW3 1534   2.464   1.199   0.642 -0.5799  0.6729 -0.4187
  372SOL    MW4 1535   2.444   1.232   0.720 -0.4220 -0.2279  0.0104
  373SOL     OW 1536   2.399   1.518   0.721 -0.7728 -0.0018  0.0149
  373SOL    HW2 1537   2.479   1.564   0.696  0.4198 -0.6619  2.4009
  373SOL    HW3 1538   2.423   1.425   0.721 -1.4099 -0.1812  1.1114
  373SOL    MW4 1539   2.413   1.512   0.718 -0.6995 -0.1127  0.4744
  374SOL     OW 1540   2.177   1.659   0.781  0.1944 -0.1227  0.6419
  374SOL    HW2 1541   2.251   1.598   0.779  0.1355 -0.2134  1.1806
  374SOL    HW3 1542   2.149   1.666   0.690 -0.6263 -1.8867  0.7383
  374SOL    MW4 1543   2.183   1.652   0.769  0.0782 -0.3674  0.7257
  375SOL     OW 1544   2.199   1.939   0.833 -0.1759  0.1969 -0.0291
  375SOL    HW2 1545   2.188   1.844   0.830 -0.3037  0.2291 -1.0760
  375SOL    HW3 1546   2.138   1.972   0.767 -1.4117  1.1439  1.5675
  375SOL    MW4 1547   2.190   1.931   0.824 -0.3560  0.3260  0.0434
  376SOL     OW 1548   2.454   2.048   0.781  0.1421  0.1960 -0.5102
  376SOL    HW2 1549   2.366   2.020   0.806  0.9584 -1.1904  0.9347
  376SOL    HW3 1550   2.450   2.059   0.687 -1.5965  0.1684 -0.4540
  376SOL    MW4 1551   2.442   2.045   0.772  0.0207  0.0095 -0.3121
  377SOL     OW 1552   2.482   2.318   0.867  0.1944  0.2522 -0.2133
  377SOL    HW2 1553   2.531   2.386   0.820 -0.0346  0.7761  0.2924
  377SOL    HW3 1554   2.499   2.238   0.818  2.0427  0.3070  0.3044
  377SOL    MW4 1555   2.491   2.317   0.854  0.4079  0.3283 -0.0783
  378SOL     OW 1556   2.244   2.436   0.774  0.4425  0.0517  0.2053
  378SOL    HW2 1557   2.311   2.387   0.822  1.4839 -0.5052 -1.7313
  378SOL    HW3 1558   2.165   2.383   0.782  0.7596 -0.3329  0.8155
  378SOL    MW4 1559   2.243   2.422   0.781  0.6216 -0.0725  0.0303
  379SOL     OW 1560   2.250   2.710   0.840  0.5783  0.3408  0.1895
  379SOL    HW2 1561   2.263   2.712   0.935 -2.2875  0.3058  0.6196
  379SOL    HW3 1562   2.237   2.618   0.819 -0.6616  0.5493  0.0349
  379SOL    MW4 1563   2.250   2.698   0.849  0.0365  0.3636  0.2259
  380SOL     OW 1564   2.483   2.839   0.714 -0.4274 -0.3987 -0.0662
  380SOL    HW2 1565   2.543   2.786   0.766  0.7479  0.0866 -0.9079
  380SOL    HW3 1566   2.396   2.804   0.735  0.2606 -2.1590 -0.0465
  380SOL    MW4 1567   2.479   2.828   0.724 -0.1812 -0.5670 -0.1747
  381SOL     OW 1568   2.581   3.063   0.816  0.0484 -0.4696 -0.4664
  381SOL    HW2 1569   2.515   3.090   0.879  0.2282 -1.2437  0.0552
  381SOL    HW3 1570   2.544   2.986   0.773  0.9797 -1.4266  0.4365
  381SOL    MW4 1571   2.568   3.057   0.818  0.1950 -0.6981 -0.2784
  382SOL     OW 1572   2.296   3.183   0.800 -0.5306  0.4841 -0.0220
  382SOL    HW2 1573   2.211   3.142   0.809  0.1198 -0.8927 -0.0447
  382SOL    HW3 1574   2.312   3.185   0.705 -0.1263 -0.1425  0.0273
  382SOL    MW4 1575   2.287   3.178   0.788 -0.3915  0.2198 -0.0185
  383SOL     OW 1576   2.259   3.450   0.861  0.3214  0.1925 -0.4153
  383SOL    HW2 1577   2.263   3.355   0.853  0.8993 -0.0749  2.5966
  383SOL    HW3 1578   2.173   3.473   0.826 -0.6535 -1.6650  0.6551
  383SOL    MW4 1579   2.249   3.441   0.855  0.2689 -0.0882  0.1233
  384SOL     OW 1580   2.489   3.595   0.749  0.5799  0.5143  0.3713
  384SOL    HW2 1581   2.565   3.541   0.772  1.1107  1.9696  2.0973
  384SOL    HW3 1582   2.415   3.551   0.792  0.7522  0.2551  0.4063
  384SOL    MW4 1583   2.489   3.582   0.758  0.6726  0.6723  0.6037
  385SOL     OW 1584   2.502   3.870   0.850 -0.4147  0.0119  0.9033
  385SOL    HW2 1585   2.423   3.915   0.820 -0.0764  0.0752  0.0916
  385SOL    HW3 1586   2.498   3.784   0.808  0.5773  0.4717 -0.1753
  385SOL    MW4 1587   2.491   3.865   0.840 -0.2391  0.0811  0.6539
  386SOL     OW 1588   2.250   3.984   0.781  0.2187 -0.1104 -0.4710
  386SOL    HW2 1589   2.173   3.932   0.802  0.6521 -0.8594 -0.6954
  386SOL    HW3 1590   2.265   3.969   0.688  0.0521  0.8233 -0.6530
  386SOL    MW4 1591   2.242   3.975   0.772  0.2537 -0.0861 -0.5246
  387SOL     OW 1592   2.230   4.250   0.837 -0.1077 -0.3929  0.1872
  387SOL    HW2 1593   2.243   4.155   0.834  1.9278 -0.1002 -2.5806
  387SOL    HW3 1594   2.147   4.264   0.792 -0.4999 -0.8640  0.7550
  387SOL    MW4 1595   2.221   4.240   0.830  0.1092 -0.4163 -0.1032
  388SOL     OW 1596   2.450   4.393   0.712  0.0501 -0.1291 -0.1839
  388SOL    HW2 1597   2.522   4.348   0.756  0.0698  0.5390  0.4724
  388SOL    HW3 1598   2.371   4.354   0.750  0.0660  0.5495  0.5733
  388SOL    MW4 1599   2.449   4.382   0.723  0.0546  0.0486  0.0027
  389SOL     OW 1600   2.824   0.060   0.849 -0.1451 -0.1254 -0.5351
  389SOL    HW2 1601   2.804  -0.027   0.815  0.5867  0.5250 -2.7489
  389SOL    HW3 1602   2.744   0.110   0.834 -0.3053 -0.2032  0.0394
  389SOL    MW4 1603   2.811   0.055   0.843 -0.0696 -0.0499 -0.7513
  390SOL     OW 1604   2.840   0.035   0.421 -0.3868 -0.0002 -0.3342
  390SOL    HW2 1605   2.841  -0.059   0.441 -1.1848  0.2060  0.7511
  390SOL    HW3 1606   2.756   0.065   0.454 -0.1725  1.0841 -0.7628
  390SOL    MW4 1607   2.829   0.027   0.428 -0.4637  0.1701 -0.2476
  391SOL     OW 1608   2.656   0.304   0.862  0.2213  0.1759 -0.1425
  391SOL    HW2 1609   2.669   0.311   0.957 -0.4248  1.2498 -0.1261
  391SOL    HW3 1610   2.729   0.353   0.824  0.3927 -0.1235 -0.2020
  391SOL    MW4 1611   2.668   0.312   0.870  0.1588  0.2781 -0.1482
  392SOL     OW 1612   2.871   0.464   0.760 -0.0606 -0.0553 -0.2078
  392SOL    HW2 1613   2.963   0.454   0.784  0.0170  1.0155 -0.0431
  392SOL    HW3 1614   2.869   0.447   0.666  0.3557  0.2328 -0.2681
  392SOL    MW4 1615   2.883   0.461   0.751  0.0048  0.1239 -0.1940
  393SOL     OW 1616   2.879   0.716   0.895 -0.1034  0.5352 -0.0002
  393SOL    HW2 1617   2.909   0.692   0.983 -0.1982  0.1078 -0.0820
  393SOL    HW3 1618   2.857   0.632   0.854 -0.5528  0.7740 -0.2511
  393SOL    MW4 1619   2.880   0.702   0.901 -0.1752  0.5103 -0.0442
  394SOL     OW 1620   2.665   0.876   0.729  0.1093 -0.6680  0.0952
  394SOL    HW2 1621   2.749   0.844   0.763  0.3240 -0.2957 -0.0763
  394SOL    HW3 1622   2.686   0.906   0.640  0.5003  2.4595  1.1848
  394SOL    MW4 1623   2.679   0.876   0.721  0.1893 -0.2062  0.2163
  395SOL     OW 1624   2.674   1.141   0.837 -0.0556 -0.2818 -0.6702
  395SOL    HW2 1625   2.673   1.046   0.833 -0.4625 -0.3684  1.0218
  395SOL    HW3 1626   2.593   1.168   0.793 -0.5881 -0.7794 -0.0119
  395SOL    MW4 1627   2.663   1.132   0.831 -0.1798 -0.3589 -0.3601
  396SOL     OW 1628   2.896   1.271   0.731  0.1824 -0.1172 -0.1696
  396SOL    HW2 1629   2.972   1.230   0.772 -0.7191  0.1772  1.8154
  396SOL    HW3 1630   2.821   1.227   0.769 -0.6817 -0.6263 -2.3653
  396SOL    MW4 1631   2.896   1.260   0.741 -0.0505 -0.1456 -0.1974
  397SOL     OW 1632   2.887   1.538   0.794 -0.1711  0.1734 -0.1943
  397SOL    HW2 1633   2.960   1.584   0.754  0.3233 -0.2936  0.1644
  397SOL    HW3 1634   2.898   1.447   0.767  0.7609 -0.3387  1.8428
  397SOL    MW4 1635   2.898   1.532   0.785  0.0174  0.0443  0.1218
  398SOL     OW 1636   2.669   1.658   0.675  0.6501  0.1693 -0.1124
  398SOL    HW2 1637   2.655   1.737   0.727 -1.0745 -1.9443  2.7531
  398SOL    HW3 1638   2.741   1.612   0.719 -0.2526 -1.2233 -0.0624
  398SOL    MW4 1639   2.677   1.662   0.688  0.3035 -0.2933  0.2722
  399SOL     OW 1640   2.674   1.877   0.820  0.1511 -0.4822  0.3506
  399SOL    HW2 1641   2.680   1.879   0.916  0.6780  0.4743  0.3000
  399SOL    HW3 1642   2.591   1.921   0.801  0.9072  0.9431  0.2918
  399SOL    MW4 1643   2.664   1.883   0.830  0.3204 -0.1681  0.3362
  400SOL     OW 1644   2.763   2.125   0.700  0.1174  0.2071 -0.5108
  400SOL    HW2 1645   2.799   2.191   0.760  1.2149  0.3844 -1.3433
  400SOL    HW3 1646   2.733   2.055   0.757 -0.7776  1.2910  0.3678
  400SOL    MW4 1647   2.764   2.125   0.715  0.1442  0.3734 -0.5047
  401SOL     OW 1648   2.861   2.300   0.872  0.2100  0.6054  0.4305
  401SOL    HW2 1649   2.861   2.309   0.967  1.5987  0.8246  0.4199
  401SOL    HW3 1650   2.798   2.366   0.842  0.0934  0.8350  1.1672
  401SOL    MW4 1651   2.853   2.310   0.881  0.3774  0.6645  0.5263
  402SOL     OW 1652   2.686   2.452   0.714  0.9165  0.1817 -0.2569
  402SOL    HW2 1653   2.716   2.464   0.623 -2.2768 -0.8537 -1.5069
  402SOL    HW3 1654   2.676   2.541   0.748  1.2503  0.5922 -1.2074
  402SOL    MW4 1655   2.689   2.466   0.706  0.5393  0.0994 -0.5472
  403SOL     OW 1656   2.686   2.703   0.830  0.0052 -0.1607  0.3784
  403SOL    HW2 1657   2.698   2.691   0.925  0.0830  0.5733  0.4606
  403SOL    HW3 1658   2.764   2.751   0.802  0.6263 -1.5029 -0.2924
  403SOL    MW4 1659   2.698   2.707   0.839  0.0975 -0.2410  0.3008
  404SOL     OW 1660   3.139   2.704   0.372 -0.3042  0.3016 -0.0896
  404SOL    HW2 1661   3.082   2.776   0.399 -0.8110 -0.1948  0.1868
  404SOL    HW3 1662   3.093   2.625   0.402 -0.4948 -0.2144 -1.6805
  404SOL    MW4 1663   3.125   2.703   0.379 -0.3963  0.1678 -0.2629
  405SOL     OW 1664   2.872   3.099   0.824  0.0647  0.2023 -0.7065
  405SOL    HW2 1665   2.777   3.100   0.821  0.0669  0.1344 -0.7892
  405SOL    HW3 1666   2.896   3.007   0.812  0.0782 -0.0516  1.1022
  405SOL    MW4 1667   2.863   3.087   0.822  0.0668  0.1597 -0.4787
  406SOL     OW 1668   2.597   3.222   0.592  0.0259  0.2174  0.3048
  406SOL    HW2 1669   2.576   3.191   0.680  2.0439 -1.3608  0.2534
  406SOL    HW3 1670   2.678   3.270   0.602 -0.8561  1.8853 -0.3594
  406SOL    MW4 1671   2.605   3.224   0.605  0.1757  0.2291  0.2103
  407SOL     OW 1672   2.720   3.486   0.854  0.2155 -0.1935 -0.0743
  407SOL    HW2 1673   2.710   3.488   0.949 -1.2292 -0.0831 -0.2227
  407SOL    HW3 1674   2.776   3.561   0.835  0.1303  0.0611  0.6554
  407SOL    MW4 1675   2.726   3.496   0.864  0.0136 -0.1452  0.0024
  408SOL     OW 1676   2.929   3.623   0.766  0.4476 -0.5248 -0.2904
  408SOL    HW2 1677   2.948   3.716   0.781 -1.3011 -0.3043  0.6872
  408SOL    HW3 1678   2.917   3.616   0.671 -1.4690  0.6638 -0.1581
  408SOL    MW4 1679   2.930   3.634   0.755 -0.0360 -0.3388 -0.1439
  409SOL     OW 1680   2.963   3.902   0.809  0.2054  0.2684  0.0925
  409SOL    HW2 1681   2.955   3.898   0.904 -1.6638 -1.1482 -0.1107
  409SOL    HW3 1682   2.886   3.951   0.781 -1.3990 -2.7383 -0.9606
  409SOL    MW4 1683   2.952   3.908   0.818 -0.2530 -0.3150 -0.0733
  410SOL     OW 1684   2.730   4.022   0.748  0.2279 -0.6195 -0.1515
  410SOL    HW2 1685   2.662   3.971   0.792 -0.9333  1.6253  0.7401
  410SOL    HW3 1686   2.716   4.004   0.655 -0.4298 -1.5877  0.1271
  410SOL    MW4 1687   2.719   4.013   0.741 -0.0119 -0.4511  0.0029
  411SOL     OW 1688   2.654   4.270   0.840 -0.0391  0.4813 -0.0236
  411SOL    HW2 1689   2.663   4.261   0.935 -2.1195  2.6255  0.4062
  411SOL    HW3 1690   2.692   4.189   0.805 -0.7683 -1.0962  2.6950
  411SOL    MW4 1691   2.660   4.258   0.848 -0.4098  0.5560  0.3918
  412SOL     OW 1692   2.843   4.451   0.763  0.4769 -0.0874 -0.1350
  412SOL    HW2 1693   2.914   4.449   0.828  0.0677  1.9650  0.3876
  412SOL    HW3 1694   2.778   4.390   0.798  2.3212 -2.7006 -1.0750
  412SOL    MW4 1695   2.843   4.442   0.776  0.6661 -0.1612 -0.1900
  413SOL     OW 1696   3.290   4.643   0.833 -0.6121  0.1606 -0.0655
  413SOL    HW2 1697   3.316   4.659   0.924 -0.2785 -1.1607  0.0924
  413SOL    HW3 1698   3.227   4.712   0.814  0.0679  1.0630  0.8363
  413SOL    MW4 1699   3.285   4.654   0.843 -0.4785  0.1054  0.0743
  414SOL     OW 1700   3.076   0.127   0.761 -0.3406 -0.0322  0.6639
  414SOL    HW2 1701   3.100   0.213   0.796  0.1353 -0.1443  0.6141
  414SOL    HW3 1702   2.986   0.112   0.793  0.3214 -0.4197  2.3989
  414SOL    MW4 1703   3.067   0.136   0.770 -0.1905 -0.0981  0.8862
  415SOL     OW 1704   3.132   0.392   0.826  0.4682  0.0320  0.3307
  415SOL    HW2 1705   3.149   0.406   0.919 -1.6465  0.1076  0.7278
  415SOL    HW3 1706   3.206   0.434   0.782  1.0740  0.7195  1.9507
  415SOL    MW4 1707   3.144   0.400   0.833  0.2689  0.1327  0.5969
  416SOL     OW 1708   3.355   0.523   0.722  0.4963 -0.0072 -0.0353
  416SOL    HW2 1709   3.424   0.459   0.741  1.1323  0.1940 -1.5411
  416SOL    HW3 1710   3.353   0.527   0.626 -2.2638 -0.6776 -0.0280
  416SOL    MW4 1711   3.364   0.515   0.712  0.2158 -0.0691 -0.2330
  417SOL     OW 1712   3.303   0.777   0.853 -0.3135 -0.0299 -0.0234
  417SOL    HW2 1713   3.237   0.834   0.814 -0.6794 -0.1013  0.4936
  417SOL    HW3 1714   3.283   0.690   0.820  0.0514  0.0831 -0.5570
  417SOL    MW4 1715   3.292   0.773   0.844 -0.3135 -0.0244 -0.0256
  418SOL     OW 1716   3.069   0.909   0.758  0.5033  0.3826 -0.3638
  418SOL    HW2 1717   3.077   0.999   0.790  0.2936  0.5134 -0.6737
  418SOL    HW3 1718   3.006   0.868   0.818 -0.4809  0.8490 -1.0650
  418SOL    MW4 1719   3.062   0.916   0.770  0.3459  0.4613 -0.4972
  419SOL     OW 1720   3.130   1.154   0.831 -0.1125 -0.0532  0.0208
  419SOL    HW2 1721   3.168   1.170   0.917  0.0551 -1.3356  0.1916
  419SOL    HW3 1722   3.188   1.201   0.770  0.2437  0.1586  0.5235
  419SOL    MW4 1723   3.143   1.162   0.834 -0.0432 -0.1944  0.1097
  420SOL     OW 1724   3.330   1.298   0.714 -0.3500  0.2901  0.2139
  420SOL    HW2 1725   3.412   1.254   0.734  0.4759  0.9188 -1.7388
  420SOL    HW3 1726   3.340   1.386   0.749  0.1836  0.6547 -0.8327
  420SOL    MW4 1727   3.342   1.303   0.721 -0.1705  0.4212 -0.1819
  421SOL     OW 1728   3.373   1.559   0.786  0.2370 -0.0479 -0.2865
  421SOL    HW2 1729   3.385   1.565   0.880  0.4943 -0.7270 -0.2767
  421SOL    HW3 1730   3.455   1.592   0.749 -0.4621  1.7707 -0.3082
  421SOL    MW4 1731   3.386   1.564   0.793  0.1788  0.1023 -0.2881
  422SOL     OW 1732   3.131   1.629   0.662 -0.0696  0.3117  0.2234
  422SOL    HW2 1733   3.215   1.597   0.695 -0.5419 -0.4021  0.7402
  422SOL    HW3 1734   3.134   1.612   0.568 -0.2288 -1.0748  0.4586
  422SOL    MW4 1735   3.142   1.622   0.654 -0.1528  0.0346  0.3226
  423SOL     OW 1736   3.100   1.890   0.799 -0.1708  0.1936 -0.5629
  423SOL    HW2 1737   3.109   1.895   0.895 -1.9230  2.0310 -0.4749
  423SOL    HW3 1738   3.114   1.797   0.779 -0.3062 -0.3059  1.5214
  423SOL    MW4 1739   3.103   1.878   0.809 -0.4199  0.3701 -0.2763
  424SOL     OW 1740   3.346   2.040   0.744  0.0644 -0.0147  0.6075
  424SOL    HW2 1741   3.334   2.133   0.764 -1.0962 -0.3097  1.3430
  424SOL    HW3 1742   3.259   2.002   0.755  0.8253 -1.4693  1.8001
  424SOL    MW4 1743   3.333   2.047   0.748  0.0114 -0.2456  0.8618
  425SOL     OW 1744   3.337   2.321   0.826 -0.0548  0.2173 -0.0093
  425SOL    HW2 1745   3.345   2.300   0.918  0.8859  0.7953  0.0435
  425SOL    HW3 1746   3.427   2.329   0.794 -0.3665  0.1328 -0.9486
  425SOL    MW4 1747   3.350   2.320   0.834  0.0279  0.2823 -0.1262
  426SOL     OW 1748   3.086   2.437   0.767 -0.4418  0.0289  0.1207
  426SOL    HW2 1749   3.161   2.399   0.812  0.7559 -0.0905 -1.9426
  426SOL    HW3 1750   3.010   2.391   0.804  0.3414  0.9258  3.0192
  426SOL    MW4 1751   3.086   2.426   0.778 -0.1807  0.1311  0.2308
  427SOL     OW 1752   3.131   2.699   0.869 -0.0773  0.1380  0.2813
  427SOL    HW2 1753   3.123   2.607   0.843 -0.9554 -0.1584  1.5449
  427SOL    HW3 1754   3.205   2.732   0.818 -0.0613 -1.1364 -0.5465
  427SOL    MW4 1755   3.140   2.691   0.859 -0.1910 -0.0691  0.3389
  428SOL     OW 1756   3.358   2.756   0.739  0.3410  0.3438 -0.2590
  428SOL    HW2 1757   3.375   2.773   0.646 -0.9150 -1.6005 -0.8893
  428SOL    HW3 1758   3.444   2.754   0.780  1.0723 -1.2020 -1.8360
  428SOL    MW4 1759   3.371   2.758   0.732  0.2718 -0.1168 -0.5502
  429SOL     OW 1760   3.358   3.034   0.818 -0.4543 -0.0108  0.3143
  429SOL    HW2 1761   3.366   3.040   0.913 -1.3056  0.9274  0.3360
  429SOL    HW3 1762   3.365   2.940   0.799  0.4818 -0.1258  1.2233
  429SOL    MW4 1763   3.360   3.023   0.828 -0.4435  0.0978  0.4371
  430SOL     OW 1764   3.127   3.205   0.758 -0.0813 -0.6760 -0.4932
  430SOL    HW2 1765   3.198   3.150   0.792 -0.4407 -0.0815  1.2620
  430SOL    HW3 1766   3.049   3.171   0.800 -0.5379  0.1129 -0.6945
  430SOL    MW4 1767   3.126   3.193   0.768 -0.1891 -0.4938 -0.2882
  431SOL     OW 1768   3.133   3.466   0.866  0.2345 -0.5539 -0.0899
  431SOL    HW2 1769   3.134   3.393   0.803 -0.3611  1.1735 -2.1769
  431SOL    HW3 1770   3.056   3.517   0.841  0.1739  0.3437  1.8817
  431SOL    MW4 1771   3.123   3.463   0.854  0.1478 -0.2074 -0.1052
  432SOL     OW 1772   3.331   3.635   0.764 -0.2460  0.1357 -0.0564
  432SOL    HW2 1773   3.343   3.715   0.816  0.2555 -0.0184  0.0677
  432SOL    HW3 1774   3.270   3.582   0.814 -1.4048  0.8819 -0.6339
  432SOL    MW4 1775   3.325   3.639   0.777 -0.3326  0.2139 -0.1162
  433SOL     OW 1776   3.363   3.891   0.846  0.2233  0.5016 -0.0360
  433SOL    HW2 1777   3.373   3.884   0.941  1.4388 -1.4902 -0.2813
  433SOL    HW3 1778   3.440   3.941   0.819  0.5054  0.0439 -0.0885
  433SOL    MW4 1779   3.375   3.897   0.855  0.4213  0.1783 -0.0753
  434SOL     OW 1780   3.191   3.983   0.661 -0.0599  0.0764 -0.0541
  434SOL    HW2 1781   3.266   3.956   0.715  0.7005 -1.5543 -1.8850
  434SOL    HW3 1782   3.116   3.940   0.702  0.5508 -1.3457 -0.4091
  434SOL    MW4 1783   3.191   3.974   0.674  0.1211 -0.3264 -0.3425
  435SOL     OW 1784   3.125   4.417   0.880 -0.3363 -0.2378  0.2139
  435SOL    HW2 1785   3.170   4.501   0.865 -1.1625  0.2433  0.3781
  435SOL    HW3 1786   3.137   4.369   0.798 -0.3937  0.2898 -0.1097
  435SOL    MW4 1787   3.133   4.422   0.867 -0.4530 -0.1044  0.1929
  436SOL     OW 1788   3.393   4.427   0.691 -0.2700  0.0437 -0.1961
  436SOL    HW2 1789   3.316   4.375   0.666  0.2050 -1.1171  0.6724
  436SOL    HW3 1790   3.357   4.501   0.739 -0.8449 -0.6786  0.5171
  436SOL    MW4 1791   3.378   4.430   0.694 -0.2832 -0.2046  0.0126
  437SOL     OW 1792   3.787   4.630   0.849  0.2764 -0.4602 -0.0930
  437SOL    HW2 1793   3.854   4.675   0.798 -0.4819 -1.7432 -2.2979
  437SOL    HW3 1794   3.706   4.677   0.830  0.0955 -0.5239  0.4991
  437SOL    MW4 1795   3.785   4.642   0.840  0.1523 -0.6379 -0.3057
  438SOL     OW 1796   3.560   0.087   0.729 -0.0572 -0.9237  0.4855
  438SOL    HW2 1797   3.472   0.056   0.749  0.2926 -1.7058  0.8573
  438SOL    HW3 1798   3.576   0.059   0.639 -0.7798  0.6099 -0.1280
  438SOL    MW4 1799   3.551   0.079   0.720 -0.1066 -0.8245  0.4537
  439SOL     OW 1800   3.582   0.360   0.768  0.3968 -0.0097 -0.1905
  439SOL    HW2 1801   3.595   0.366   0.863 -0.4445  1.1142 -0.1304
  439SOL    HW3 1802   3.578   0.266   0.751  0.2527 -0.2229  0.9387
  439SOL    MW4 1803   3.583   0.348   0.778  0.2666  0.1104 -0.0336
  440SOL     OW 1804   3.838   0.518   0.749  0.2029 -0.2397 -0.3147
  440SOL    HW2 1805   3.814   0.601   0.790 -0.5326 -0.0526 -1.1107
  440SOL    HW3 1806   3.758   0.465   0.752  0.8344 -1.1614  0.7461
  440SOL    MW4 1807   3.824   0.522   0.754  0.1895 -0.3365 -0.2797
  441SOL     OW 1808   3.776   0.782   0.812 -0.2031 -0.1958 -0.0394
  441SOL    HW2 1809   3.802   0.795   0.904 -1.1519  1.4580  0.0139
  441SOL    HW3 1810   3.853   0.811   0.762  0.0169 -0.3298  0.2168
  441SOL    MW4 1811   3.790   0.788   0.818 -0.2995  0.0048  0.0015
  442SOL     OW 1812   3.533   0.865   0.689 -0.3434  0.4651 -0.0452
  442SOL    HW2 1813   3.604   0.831   0.743 -0.8517 -0.0225  0.3207
  442SOL    HW3 1814   3.453   0.828   0.727 -0.9386  2.2191  0.4718
  442SOL    MW4 1815   3.532   0.856   0.701 -0.4890  0.6322  0.0714
  443SOL     OW 1816   3.575   1.131   0.790  0.8408 -0.5117 -0.2421
  443SOL    HW2 1817   3.591   1.145   0.883  2.0175  2.6730 -0.8671
  443SOL    HW3 1818   3.559   1.037   0.782  1.5046 -0.9426  3.0480
  443SOL    MW4 1819   3.575   1.120   0.801  1.0836 -0.1484  0.1096
  444SOL     OW 1820   3.819   1.259   0.736  0.6308 -0.1675 -0.0665
  444SOL    HW2 1821   3.746   1.201   0.755  0.7635  0.0985  1.3128
  444SOL    HW3 1822   3.799   1.297   0.650 -0.1231 -1.2027 -0.3522
  444SOL    MW4 1823   3.807   1.256   0.727  0.5488 -0.2689  0.0778
  445SOL     OW 1824   3.810   1.511   0.858 -0.3825  0.4355  0.2539
  445SOL    HW2 1825   3.897   1.547   0.841 -1.0275  1.4777 -0.9630
  445SOL    HW3 1826   3.816   1.419   0.832  0.4725  0.4044  0.5686
  445SOL    MW4 1827   3.822   1.504   0.852 -0.3548  0.5689  0.1348
  446SOL     OW 1828   3.626   1.662   0.711  0.6061  0.5039 -0.6497
  446SOL    HW2 1829   3.630   1.744   0.759 -0.9591 -0.3662  1.0116
  446SOL    HW3 1830   3.683   1.603   0.760  1.5810  0.5202 -1.7333
  446SOL    MW4 1831   3.634   1.665   0.724  0.5283  0.3912 -0.5735
  447SOL     OW 1832   3.580   1.904   0.837  0.3327  0.7687  0.2135
  447SOL    HW2 1833   3.650   1.970   0.830  0.9053  0.0882 -0.5686
  447SOL    HW3 1834   3.504   1.946   0.798  0.6900  0.9790 -0.2633
  447SOL    MW4 1835   3.579   1.919   0.831  0.4554  0.7068  0.0474
  448SOL     OW 1836   3.822   2.047   0.815 -0.3941  0.0411 -0.0351
  448SOL    HW2 1837   3.892   1.986   0.836 -0.4742 -0.7945 -2.0849
  448SOL    HW3 1838   3.830   2.062   0.721 -0.8792  2.5863  0.2864
  448SOL    MW4 1839   3.832   2.041   0.806 -0.4687  0.2666 -0.2632
  449SOL     OW 1840   3.838   2.308   0.876 -0.5318 -0.3163  0.0683
  449SOL    HW2 1841   3.841   2.323   0.971  1.1067 -0.6682  0.0944
  449SOL    HW3 1842   3.824   2.214   0.867  0.6460 -0.4950 -0.0145
  449SOL    MW4 1843   3.836   2.298   0.887 -0.1602 -0.3865  0.0610
  450SOL     OW 1844   3.603   2.419   0.747  0.1859 -0.3209  0.5406
  450SOL    HW2 1845   3.611   2.514   0.754  0.0759 -0.3988  1.8475
  450SOL    HW3 1846   3.678   2.385   0.795 -0.0379 -0.9012  0.4806
  450SOL    MW4 1847   3.614   2.427   0.754  0.1419 -0.4077  0.7051
  451SOL     OW 1848   3.614   2.703   0.819  0.1922 -0.0343 -0.2825
  451SOL    HW2 1849   3.621   2.697   0.914 -1.2160  1.5535 -0.0387
  451SOL    HW3 1850   3.689   2.757   0.793  0.1290  0.2060  0.0283
  451SOL    MW4 1851   3.625   2.710   0.828 -0.0021  0.2069 -0.2093
  452SOL     OW 1852   3.784   2.667   0.457 -0.5651  0.0571 -0.1295
  452SOL    HW2 1853   3.853   2.602   0.444  0.8665  1.3670  0.7512
  452SOL    HW3 1854   3.711   2.635   0.405  0.7103 -1.3549 -1.0945
  452SOL    MW4 1855   3.783   2.654   0.448 -0.2081  0.0436 -0.1407
  453SOL     OW 1856   3.784   3.127   0.857  0.1339 -0.1313 -0.4520
  453SOL    HW2 1857   3.862   3.178   0.837  0.1474  0.5104  1.1154
  453SOL    HW3 1858   3.712   3.179   0.821  0.1314  1.1395  1.3090
  453SOL    MW4 1859   3.785   3.141   0.850  0.1354  0.1209 -0.0128
  454SOL     OW 1860   3.542   3.228   0.728  0.0358 -0.2651  0.1992
  454SOL    HW2 1861   3.480   3.158   0.744 -0.8590  0.2383 -0.9994
  454SOL    HW3 1862   3.580   3.208   0.642  0.2308  0.3652  0.1332
  454SOL    MW4 1863   3.539   3.216   0.719 -0.0565 -0.1154  0.0324
  455SOL     OW 1864   3.570   3.491   0.832  0.2389 -0.1291  0.1822
  455SOL    HW2 1865   3.577   3.400   0.805  0.7705  0.4700 -1.7716
  455SOL    HW3 1866   3.486   3.521   0.797  0.9639  0.6783 -0.8901
  455SOL    MW4 1867   3.560   3.483   0.824  0.4048  0.0567 -0.2171
  456SOL     OW 1868   3.799   3.626   0.747  0.5469 -0.0079  0.1752
  456SOL    HW2 1869   3.874   3.588   0.792  0.6765 -0.9501 -0.8431
  456SOL    HW3 1870   3.726   3.569   0.769  0.9501 -1.5041 -2.2287
  456SOL    MW4 1871   3.799   3.614   0.756  0.6173 -0.3295 -0.2763
  457SOL     OW 1872   3.787   3.870   0.871  0.7311  0.3333 -0.5771
  457SOL    HW2 1873   3.708   3.916   0.842 -0.0807 -0.5595  0.2106
  457SOL    HW3 1874   3.789   3.789   0.820 -0.3198 -0.9082  1.3010
  457SOL    MW4 1875   3.777   3.866   0.860  0.4857  0.0515 -0.2253
  458SOL     OW 1876   3.583   4.035   0.766 -0.2371  0.4819  0.1454
  458SOL    HW2 1877   3.561   4.124   0.794 -1.1521  0.1228  0.5907
  458SOL    HW3 1878   3.591   4.041   0.671 -2.7103  0.5592 -0.0973
  458SOL    MW4 1879   3.581   4.047   0.757 -0.6843  0.4449  0.1721
  459SOL     OW 1880   3.539   4.277   0.894  0.2554  0.1233  0.3468
  459SOL    HW2 1881   3.619   4.303   0.848 -0.6455  0.1175 -1.2557
  459SOL    HW3 1882   3.469   4.319   0.846 -0.6412  1.2281  2.5627
  459SOL    MW4 1883   3.541   4.286   0.882  0.0184  0.2685  0.4278
  460SOL     OW 1884   3.763   4.369   0.776  0.1311  0.1372 -0.4258
  460SOL    HW2 1885   3.846   4.330   0.803  0.3474  0.7337 -0.2380
  460SOL    HW3 1886   3.761   4.455   0.817 -1.1299 -0.3417  0.5501
  460SOL    MW4 1887   3.773   4.375   0.785 -0.0064  0.1526 -0.2722
  461SOL     OW 1888   4.253   4.640   0.822  0.2987  0.3327  0.2464
  461SOL    HW2 1889   4.265   4.639   0.917 -0.0911 -1.1677  0.2828
  461SOL    HW3 1890   4.166   4.678   0.809  0.1048 -0.0219  0.5132
  461SOL    MW4 1891   4.243   4.645   0.833  0.2217  0.0882  0.2863
  462SOL     OW 1892   4.002   0.098   0.744 -0.0004 -0.2162  0.0045
  462SOL    HW2 1893   4.014   0.183   0.788  0.2665 -0.1576 -0.1839
  462SOL    HW3 1894   4.018   0.116   0.652 -0.2713 -0.4045 -0.0820
  462SOL    MW4 1895   4.005   0.112   0.738 -0.0014 -0.2333 -0.0318
  463SOL     OW 1896   4.022   0.352   0.866 -0.0078 -0.1385  0.0043
  463SOL    HW2 1897   4.099   0.400   0.834  0.1416  1.1185  2.1462
  463SOL    HW3 1898   3.948   0.407   0.841 -0.2060 -1.1175 -1.6399
  463SOL    MW4 1899   4.023   0.366   0.859 -0.0143 -0.1018  0.0700
  464SOL     OW 1900   4.233   0.508   0.758  0.1047  0.3404  0.3373
  464SOL    HW2 1901   4.309   0.459   0.790 -0.6018 -0.4459  0.8360
  464SOL    HW3 1902   4.221   0.477   0.668  0.2552  0.3272  0.3209
  464SOL    MW4 1903   4.241   0.497   0.750  0.0310  0.2349  0.4010
  465SOL     OW 1904   4.193   0.788   0.808 -0.4384 -0.3473  0.4094
  465SOL    HW2 1905   4.118   0.815   0.755  0.9826  1.3060 -0.7999
  465SOL    HW3 1906   4.209   0.698   0.781 -1.6259 -0.5314  0.2696
  465SOL    MW4 1907   4.185   0.780   0.797 -0.4077 -0.1535  0.2315
  466SOL     OW 1908   3.983   0.887   0.663 -0.1321  0.0781 -0.0221
  466SOL    HW2 1909   4.003   0.977   0.689 -0.5262  0.0327  0.4433
  466SOL    HW3 1910   4.037   0.873   0.585  0.3969  0.5135  0.2533
  466SOL    MW4 1911   3.993   0.897   0.656 -0.1142  0.1295  0.0756
  467SOL     OW 1912   4.053   1.131   0.797 -0.1217 -0.4431 -0.1063
  467SOL    HW2 1913   4.059   1.139   0.892 -0.9426 -0.8898 -0.0108
  467SOL    HW3 1914   3.976   1.183   0.773 -2.0766 -3.2238 -0.1148
  467SOL    MW4 1915   4.044   1.139   0.806 -0.4878 -0.8689 -0.0948
  468SOL     OW 1916   4.246   1.272   0.653 -0.0131 -0.2038 -0.5181
  468SOL    HW2 1917   4.178   1.221   0.697 -0.9058  0.1226 -1.4995
  468SOL    HW3 1918   4.328   1.238   0.688 -0.7219  0.9787  2.4660
  468SOL    MW4 1919   4.248   1.261   0.664 -0.2241 -0.0049 -0.2537
  469SOL     OW 1920   4.270   1.524   0.802  0.0723  0.3787  0.3720
  469SOL    HW2 1921   4.278   1.506   0.895 -0.4578  1.1696  0.5786
  469SOL    HW3 1922   4.277   1.439   0.759 -1.6326 -0.2159  1.2646
  469SOL    MW4 1923   4.272   1.511   0.808 -0.2222  0.4046  0.5170
  470SOL     OW 1924   4.050   1.648   0.709 -0.4667  0.1603 -0.1007
  470SOL    HW2 1925   4.126   1.598   0.741  0.3187  2.4296  1.7657
  470SOL    HW3 1926   4.063   1.653   0.614  0.8618 -0.8420  0.0065
  470SOL    MW4 1927   4.062   1.642   0.701 -0.1869  0.3275  0.1597
  471SOL     OW 1928   4.039   1.882   0.856  0.2364 -0.0298  0.0208
  471SOL    HW2 1929   4.106   1.934   0.811 -0.1360  0.1623 -0.3183
  471SOL    HW3 1930   4.049   1.794   0.820 -0.6224  0.3078 -1.0856
  471SOL    MW4 1931   4.049   1.877   0.845  0.0739  0.0401 -0.1700
  472SOL     OW 1932   4.268   2.014   0.740 -0.0323 -0.3857 -0.1693
  472SOL    HW2 1933   4.339   1.976   0.792 -0.3623 -0.4972  0.2072
  472SOL    HW3 1934   4.294   2.001   0.649  0.3619 -0.5507 -0.0328
  472SOL    MW4 1935   4.281   2.007   0.735 -0.0238 -0.4222 -0.1016
  473SOL     OW 1936   4.244   2.278   0.820 -0.1753  0.2848  0.1728
  473SOL    HW2 1937   4.167   2.310   0.774  0.9234 -0.1429 -2.0535
  473SOL    HW3 1938   4.264   2.194   0.779  3.0410  1.6300 -1.2001
  473SOL    MW4 1939   4.237   2.271   0.809  0.3939  0.4055 -0.3020
  474SOL     OW 1940   4.027   2.430   0.708  0.2804  0.1233  0.5111
  474SOL    HW2 1941   4.025   2.522   0.735 -0.9681  0.0459  0.6854
  474SOL    HW3 1942   3.968   2.386   0.768 -0.8581 -0.4214 -0.9763
  474SOL    MW4 1943   4.019   2.436   0.719 -0.0348  0.0412  0.3378
  475SOL     OW 1944   4.032   2.681   0.834  0.1773 -0.4493  0.1053
  475SOL    HW2 1945   4.119   2.715   0.814  0.0138  0.6366  1.1913
  475SOL    HW3 1946   3.971   2.747   0.799 -0.2675 -1.7586 -1.6963
  475SOL    MW4 1947   4.035   2.694   0.827  0.0973 -0.4790  0.0110
  476SOL     OW 1948   4.263   2.811   0.772  0.0873 -0.4066  0.2910
  476SOL    HW2 1949   4.349   2.781   0.799  0.1081  1.6159  2.7066
  476SOL    HW3 1950   4.273   2.832   0.679  2.5140  0.8471  0.7956
  476SOL    MW4 1951   4.275   2.810   0.763  0.4101  0.0257  0.6763
  477SOL     OW 1952   4.249   3.096   0.857 -0.2191  0.1287 -0.0404
  477SOL    HW2 1953   4.244   3.010   0.815  1.3227 -0.7980  1.5799
  477SOL    HW3 1954   4.337   3.127   0.835 -0.0241  0.3757  1.0886
  477SOL    MW4 1955   4.260   3.088   0.848  0.0105  0.0393  0.3223
  478SOL     OW 1956   4.015   3.242   0.785  0.0099 -0.1201  0.2582
  478SOL    HW2 1957   4.018   3.332   0.818 -1.1554 -1.1881  3.4108
  478SOL    HW3 1958   4.097   3.203   0.815  0.0763 -0.4030 -0.2833
  478SOL    MW4 1959   4.026   3.249   0.793 -0.1354 -0.2985  0.6027
  479SOL     OW 1960   4.023   3.495   0.879  0.6875  0.4121  0.0375
  479SOL    HW2 1961   4.040   3.495   0.974  0.2404 -0.6869  0.1222
  479SOL    HW3 1962   4.106   3.526   0.841  0.9855  0.5416  0.7649
  479SOL    MW4 1963   4.036   3.499   0.887  0.6671  0.2842  0.1446
  480SOL     OW 1964   4.274   3.581   0.777  0.1577 -0.1375 -0.7415
  480SOL    HW2 1965   4.257   3.675   0.783  0.8055  0.0357 -1.6045
  480SOL    HW3 1966   4.271   3.562   0.683  0.8851 -0.8212 -0.6283
  480SOL    MW4 1967   4.271   3.590   0.766  0.3390 -0.2048 -0.8403
  481SOL     OW 1968   4.234   3.847   0.816  0.1198 -0.1247 -0.2285
  481SOL    HW2 1969   4.255   3.849   0.910  1.0112 -2.3453 -0.3435
  481SOL    HW3 1970   4.159   3.905   0.807  0.4892  0.7001  1.7473
  481SOL    MW4 1971   4.227   3.855   0.827  0.2871 -0.3090  0.0170
  482SOL     OW 1972   4.001   3.987   0.738  0.3729 -0.4033  0.2131
  482SOL    HW2 1973   3.927   3.953   0.788  0.2915 -0.5917 -0.0342
  482SOL    HW3 1974   3.977   3.973   0.646 -0.6018  2.2569  0.0155
  482SOL    MW4 1975   3.988   3.980   0.732  0.2334 -0.0772  0.1545
  483SOL     OW 1976   4.002   4.264   0.870 -0.0627  0.0669  0.5182
  483SOL    HW2 1977   4.079   4.308   0.836 -0.3529  0.7824  0.7846
  483SOL    HW3 1978   4.013   4.172   0.844 -0.2289  0.5734 -1.3897
  483SOL    MW4 1979   4.014   4.258   0.862 -0.1230  0.2284  0.3016
  484SOL     OW 1980   4.228   4.375   0.767 -0.0956 -0.4705 -0.3003
  484SOL    HW2 1981   4.230   4.468   0.790 -0.1139 -1.3577  3.7122
  484SOL    HW3 1982   4.314   4.342   0.794 -0.1671 -1.6947 -1.4830
  484SOL    MW4 1983   4.240   4.383   0.774 -0.1073 -0.7491  0.0730
  485SOL     OW 1984   0.189   4.649   1.176 -0.1437 -0.1882  0.1116
  485SOL    HW2 1985   0.271   4.696   1.193 -0.0657  0.0844 -0.9910
  485SOL    HW3 1986   0.182   4.647   1.081 -1.0713 -0.8256  0.1890
  485SOL    MW4 1987   0.199   4.655   1.166 -0.2558 -0.2360 -0.0235
  486SOL     OW 1988   4.453   0.130   1.201 -0.3835 -0.0242  0.0742
  486SOL    HW2 1989   4.389   0.075   1.155  0.1532  0.2991 -1.0744
  486SOL    HW3 1990   4.534   0.081   1.198  0.6688  1.7903 -2.9600
  486SOL    MW4 1991   4.455   0.117   1.195 -0.1736  0.2579 -0.4777
  487SOL     OW 1992   0.001   0.383   1.111  0.3861  0.5310  0.6138
  487SOL    HW2 1993  -0.074   0.432   1.146  1.0624  1.5936  0.5990
  487SOL    HW3 1994  -0.017   0.292   1.134 -1.4967  0.6150 -0.4199
  487SOL    MW4 1995  -0.012   0.377   1.119  0.2270  0.6823  0.4754
  488SOL     OW 1996   0.219   0.519   1.224  0.1993  0.2133  0.6958
  488SOL    HW2 1997   0.220   0.598   1.171 -0.7064 -0.4445 -0.3176
  488SOL    HW3 1998   0.142   0.470   1.194  0.8633 -1.1449  1.1496
  488SOL    MW4 1999   0.209   0.523   1.213  0.1674 -0.0526  0.6220
  489SOL     OW 2000   0.205   0.742   1.082  0.1820 -0.8497  0.7002
  489SOL    HW2 2001   0.283   0.781   1.120  0.5109 -1.9242  1.1455
  489SOL    HW3 2002   0.133   0.795   1.115  0.7589  0.5392 -0.2130
  489SOL    MW4 2003   0.206   0.754   1.091  0.3016 -0.8082  0.6384
  490SOL     OW 2004   0.024   0.910   1.192  0.2675  0.2150 -0.0901
  490SOL    HW2 2005   0.034   0.922   1.287  0.7509  0.2065 -0.1388
  490SOL    HW3 2006  -0.070   0.897   1.180  0.3906 -1.5844  0.6075
  490SOL    MW4 2007   0.013   0.910   1.203  0.3476 -0.0234 -0.0045
  491SOL     OW 2008   0.004   1.166   1.066 -0.1054  0.1728  0.2536
  491SOL    HW2 2009  -0.071   1.205   1.112  0.0216  0.7748 -0.0465
  491SOL    HW3 2010   0.006   1.076   1.096 -1.5764 -0.1286 -0.5246
  491SOL    MW4 2011  -0.006   1.160   1.076 -0.2828  0.2127  0.1113
  492SOL     OW 2012   0.208   1.272   1.231 -0.0879 -0.0447 -0.1758
  492SOL    HW2 2013   0.282   1.214   1.212  0.6958  1.4925 -2.0046
  492SOL    HW3 2014   0.138   1.242   1.172  0.0686  0.3798 -0.5806
  492SOL    MW4 2015   0.208   1.260   1.221  0.0361  0.2141 -0.4706
  493SOL     OW 2016   0.266   1.520   1.132  0.2811 -0.4474 -0.1942
  493SOL    HW2 2017   0.259   1.428   1.159  1.0318 -0.9014 -1.5162
  493SOL    HW3 2018   0.264   1.517   1.037  2.0108  0.7427 -0.2904
  493SOL    MW4 2019   0.265   1.507   1.123  0.6084 -0.3504 -0.3814
  494SOL     OW 2020   0.007   1.645   1.203 -0.3025 -0.6137 -0.3388
  494SOL    HW2 2021   0.005   1.738   1.181 -0.3880 -0.5446 -0.0524
  494SOL    HW3 2022   0.094   1.615   1.178 -0.2488 -0.4382 -0.3626
  494SOL    MW4 2023   0.018   1.653   1.197 -0.3066 -0.5814 -0.3042
  495SOL     OW 2024   0.032   1.906   1.124 -0.1331 -0.3357  0.1808
  495SOL    HW2 2025  -0.045   1.955   1.151  0.8395  1.2002  0.1858
  495SOL    HW3 2026   0.043   1.927   1.031 -0.1243 -1.1257 -0.0082
  495SOL    MW4 2027   0.023   1.915   1.115 -0.0037 -0.2372  0.1566
  496SOL     OW 2028   0.209   2.085   1.272  0.2556 -0.1939 -0.2031
  496SOL    HW2 2029   0.224   2.155   1.208  0.0378 -1.6272 -1.8523
  496SOL    HW3 2030   0.135   2.036   1.237  0.9682 -1.7820  0.4781
  496SOL    MW4 2031   0.202   2.088   1.259  0.3209 -0.5922 -0.3307
  497SOL     OW 2032   0.236   2.286   1.087 -0.3236 -0.2661 -0.3177
  497SOL    HW2 2033   0.307   2.326   1.137 -1.0955  0.5158  0.1642
  497SOL    HW3 2034   0.156   2.322   1.126 -0.9384  0.1846 -1.9648
  497SOL    MW4 2035   0.235   2.296   1.099 -0.5065 -0.1035 -0.4715
  498SOL     OW 2036   0.022   2.428   1.209  0.7744 -0.3027 -0.2293
  498SOL    HW2 2037   0.027   2.420   1.304  0.2206  1.3087 -0.0566
  498SOL    HW3 2038  -0.061   2.386   1.185  1.0072 -0.8791 -0.0314
  498SOL    MW4 2039   0.012   2.421   1.218  0.7324 -0.1662 -0.1804
  499SOL     OW 2040   0.029   2.690   1.122 -0.3965 -0.2279  0.4703
  499SOL    HW2 2041  -0.050   2.735   1.152 -1.1003 -0.0351 -1.6064
  499SOL    HW3 2042   0.022   2.601   1.157 -1.1707  0.0015  0.8861
  499SOL    MW4 2043   0.018   2.684   1.131 -0.5916 -0.1719  0.2511
  500SOL     OW 2044   0.223   2.875   1.254 -0.0788 -0.1360 -0.1095
  500SOL    HW2 2045   0.223   2.854   1.347 -1.8570  2.7917  0.5919
  500SOL    HW3 2046   0.163   2.811   1.215 -0.1506 -0.7059  0.9261
  500SOL    MW4 2047   0.215   2.864   1.261 -0.3229  0.1755  0.1198
  501SOL     OW 2048   0.235   3.119   1.114  0.3568 -0.4514  0.1240
  501SOL    HW2 2049   0.312   3.158   1.155 -0.9405  0.8581  1.3895
  501SOL    HW3 2050   0.225   3.035   1.158  0.4302 -0.1421  0.7439
  501SOL    MW4 2051   0.244   3.113   1.125  0.1953 -0.2379  0.3728
  502SOL     OW 2052   0.003   3.230   1.237 -0.1691 -0.1857  0.1114
  502SOL    HW2 2053  -0.074   3.192   1.194  0.0831 -0.1463 -0.3879
  502SOL    HW3 2054   0.076   3.178   1.202  0.0367 -0.1561  0.5039
  502SOL    MW4 2055   0.003   3.218   1.226 -0.1087 -0.1767  0.0973
  503SOL     OW 2056   0.017   3.520   1.189 -0.1800  0.1072 -0.2503
  503SOL    HW2 2057   0.028   3.426   1.197  1.3026  0.2980  0.2268
  503SOL    HW3 2058   0.016   3.537   1.095  0.6090 -0.2796 -0.3347
  503SOL    MW4 2059   0.019   3.510   1.178  0.1197  0.0813 -0.1984
  504SOL     OW 2060   0.278   3.564   1.277 -0.2227 -0.1308  0.0364
  504SOL    HW2 2061   0.273   3.582   1.371 -0.7730  0.2870 -0.0688
  504SOL    HW3 2062   0.187   3.551   1.251  0.0235 -1.3741 -0.2216
  504SOL    MW4 2063   0.265   3.564   1.286 -0.2628 -0.2398 -0.0114
  505SOL     OW 2064   0.268   3.799   1.116 -0.0111 -0.7088 -0.0187
  505SOL    HW2 2065   0.190   3.846   1.147 -0.7297 -1.5847 -0.4574
  505SOL    HW3 2066   0.258   3.711   1.151  0.9311 -0.7555  0.1423
  505SOL    MW4 2067   0.256   3.794   1.125  0.0184 -0.8304 -0.0556
  506SOL     OW 2068   0.038   3.961   1.165  0.7423  0.3218 -0.0481
  506SOL    HW2 2069   0.035   3.964   1.260  0.5934  1.0392 -0.0757
  506SOL    HW3 2070  -0.044   3.918   1.139  1.5082 -1.3405  0.2078
  506SOL    MW4 2071   0.027   3.956   1.174  0.8238  0.1972 -0.0180
  507SOL     OW 2072   0.005   4.238   1.122  0.0809  0.0392 -0.3714
  507SOL    HW2 2073   0.084   4.278   1.158  0.3374  0.4096 -1.3223
  507SOL    HW3 2074   0.014   4.145   1.142  0.3801  0.1899  0.2114
  507SOL    MW4 2075   0.017   4.231   1.129  0.1542  0.1082 -0.4200
  508SOL     OW 2076   0.236   4.353   1.223 -0.7158  0.1385 -0.0379
  508SOL    HW2 2077   0.235   4.356   1.318  2.7546  0.1957  0.0582
  508SOL    HW3 2078   0.241   4.445   1.196 -0.3428  0.0539 -0.2540
  508SOL    MW4 2079   0.236   4.366   1.232 -0.2087  0.1345 -0.0536
  509SOL     OW 2080   0.638   4.623   1.144 -0.1693  0.5711  0.2723
  509SOL    HW2 2081   0.703   4.670   1.196  1.0094 -0.8707  0.1194
  509SOL    HW3 2082   0.645   4.533   1.173 -1.4776  0.2412 -0.3994
  509SOL    MW4 2083   0.647   4.618   1.155 -0.1863  0.3371  0.1636
  510SOL     OW 2084   0.428   0.136   1.222 -0.1285  0.3145  0.2452
  510SOL    HW2 2085   0.435   0.224   1.186 -0.4330  0.3393  0.2491
  510SOL    HW3 2086   0.502   0.088   1.183  0.0823  0.5898  0.3047
  510SOL    MW4 2087   0.439   0.141   1.213 -0.1408  0.3541  0.2536
  511SOL     OW 2088   0.452   0.397   1.117  0.1598 -0.2607 -0.0705
  511SOL    HW2 2089   0.367   0.436   1.137 -0.0400 -1.2431  1.0157
  511SOL    HW3 2090   0.454   0.392   1.021 -0.9711 -0.1627 -0.1041
  511SOL    MW4 2091   0.441   0.401   1.107 -0.0157 -0.3774  0.0684
  512SOL     OW 2092   0.691   0.502   1.229 -0.1644  0.0860  0.2900
  512SOL    HW2 2093   0.685   0.592   1.196  2.0109 -0.1743 -0.9269
  512SOL    HW3 2094   0.619   0.456   1.186 -0.7291  1.0270  0.1998
  512SOL    MW4 2095   0.681   0.508   1.219  0.0481  0.1758  0.1175
  513SOL     OW 2096   0.654   0.760   1.141 -0.3755 -0.8495 -0.0344
  513SOL    HW2 2097   0.566   0.798   1.150  0.1932  0.1973  1.1404
  513SOL    HW3 2098   0.656   0.728   1.051 -1.2266  1.0181 -0.7560
  513SOL    MW4 2099   0.642   0.761   1.130 -0.4128 -0.4649  0.0253
  514SOL     OW 2100   0.417   0.885   1.209 -0.0434 -0.1824  0.1584
  514SOL    HW2 2101   0.423   0.897   1.304  0.7469 -0.6300  0.1670
  514SOL    HW3 2102   0.419   0.974   1.174 -0.5891  0.0002  0.5702
  514SOL    MW4 2103   0.418   0.898   1.217 -0.0111 -0.2174  0.2137
  515SOL     OW 2104   0.430   1.149   1.132 -0.3243 -0.1334 -0.2570
  515SOL    HW2 2105   0.512   1.186   1.164 -0.4293  0.2709 -0.4519
  515SOL    HW3 2106   0.437   1.152   1.036 -0.5451 -0.1394 -0.2754
  515SOL    MW4 2107   0.442   1.154   1.123 -0.3673 -0.0808 -0.2851
  516SOL     OW 2108   0.640   1.268   1.249 -0.4947  0.3929  0.4248
  516SOL    HW2 2109   0.728   1.239   1.226 -0.3441  0.3400  1.0367
  516SOL    HW3 2110   0.635   1.358   1.217 -0.0577  0.5445  0.7663
  516SOL    MW4 2111   0.651   1.276   1.242 -0.4172  0.4058  0.5506
  517SOL     OW 2112   0.666   1.523   1.165  0.3840 -0.3079  0.0287
  517SOL    HW2 2113   0.749   1.564   1.189  0.5897 -0.9243  0.3720
  517SOL    HW3 2114   0.601   1.592   1.175  0.5566 -0.3914  1.7465
  517SOL    MW4 2115   0.668   1.537   1.169  0.4339 -0.4003  0.3008
  518SOL     OW 2116   0.441   1.699   1.243 -0.0229 -0.2817  0.0854
  518SOL    HW2 2117   0.458   1.675   1.334  1.7639 -1.4427 -0.5260
  518SOL    HW3 2118   0.380   1.633   1.211 -2.9779  1.7927  1.2363
  518SOL    MW4 2119   0.435   1.687   1.250 -0.1770 -0.1612  0.1565
  519SOL     OW 2120   0.420   1.975   1.161  0.9318  0.0961 -0.3550
  519SOL    HW2 2121   0.429   1.890   1.205  1.0294  0.7290  0.8493
  519SOL    HW3 2122   0.340   2.013   1.197  0.9612  0.5787 -0.7982
  519SOL    MW4 2123   0.411   1.969   1.171  0.9485  0.2433 -0.2546
  520SOL     OW 2124   0.682   2.095   1.203  0.0946  0.1201 -0.2439
  520SOL    HW2 2125   0.686   2.098   1.299 -2.1298  0.4144 -0.1430
  520SOL    HW3 2126   0.601   2.048   1.184  1.5889 -1.8531 -1.9972
  520SOL    MW4 2127   0.672   2.089   1.213 -0.0017 -0.1013 -0.4619
  521SOL     OW 2128   0.687   2.352   1.107 -0.4281 -0.2281  0.3193
  521SOL    HW2 2129   0.613   2.393   1.152 -0.4131 -0.6347  0.7247
  521SOL    HW3 2130   0.684   2.260   1.135  0.8522 -0.0170  1.1690
  521SOL    MW4 2131   0.677   2.345   1.117 -0.2571 -0.2539  0.4851
  522SOL     OW 2132   0.443   2.441   1.227  0.0848 -0.0020  0.2904
  522SOL    HW2 2133   0.435   2.428   1.322 -0.5591 -0.8989  0.1176
  522SOL    HW3 2134   0.412   2.530   1.213 -0.6080 -0.1578  0.8181
  522SOL    MW4 2135   0.438   2.451   1.238 -0.0915 -0.1409  0.3371
  523SOL     OW 2136   0.446   2.717   1.159  0.6787  0.1907 -0.3921
  523SOL    HW2 2137   0.371   2.770   1.187  0.8393  0.6161 -0.7689
  523SOL    HW3 2138   0.443   2.719   1.064  0.9317 -0.1311 -0.4088
  523SOL    MW4 2139   0.436   2.725   1.150  0.7333  0.2043 -0.4441
  524SOL     OW 2140   0.672   2.843   1.240 -0.0549 -0.8366 -0.3387
  524SOL    HW2 2141   0.659   2.930   1.202  2.3936 -0.8818 -1.3601
  524SOL    HW3 2142   0.591   2.796   1.220 -0.7646  0.7007 -1.1776
  524SOL    MW4 2143   0.659   2.848   1.232  0.1745 -0.6397 -0.5841
  525SOL     OW 2144   0.672   3.085   1.115  0.5216 -0.3546  0.2269
  525SOL    HW2 2145   0.758   3.121   1.138  0.4009  0.1353 -0.0799
  525SOL    HW3 2146   0.670   3.085   1.019  0.0642 -0.0932  0.2346
  525SOL    MW4 2147   0.683   3.090   1.105  0.4454 -0.2558  0.1873
  526SOL     OW 2148   0.473   3.222   1.241 -0.1438 -0.5379  0.3710
  526SOL    HW2 2149   0.488   3.310   1.206 -1.8772 -0.8107 -1.1290
  526SOL    HW3 2150   0.534   3.167   1.192 -1.1745 -0.6126 -0.8655
  526SOL    MW4 2151   0.483   3.227   1.230 -0.5085 -0.5839  0.0100
  527SOL     OW 2152   0.470   3.466   1.110 -0.0193  0.1363 -0.5769
  527SOL    HW2 2153   0.549   3.510   1.141 -0.4071  0.4504 -0.0044
  527SOL    HW3 2154   0.401   3.497   1.170 -0.4238 -0.7291 -0.5885
  527SOL    MW4 2155   0.471   3.476   1.122 -0.1238  0.0637 -0.5029
  528SOL     OW 2156   0.698   3.587   1.232  0.5115 -0.3423 -0.4270
  528SOL    HW2 2157   0.688   3.583   1.327  0.5801 -1.0123 -0.4425
  528SOL    HW3 2158   0.674   3.676   1.208  0.1437 -0.2810  0.1781
  528SOL    MW4 2159   0.694   3.598   1.241  0.4719 -0.4227 -0.3493
  529SOL     OW 2160   0.695   3.843   1.153  0.3770  0.3550 -0.3983
  529SOL    HW2 2161   0.616   3.895   1.166  0.0165  0.1177 -1.4914
  529SOL    HW3 2162   0.701   3.833   1.057  1.1406 -0.5189 -0.2688
  529SOL    MW4 2163   0.685   3.848   1.142  0.4302  0.2084 -0.5256
  530SOL     OW 2164   0.453   3.966   1.233  0.1324 -0.2047  0.1213
  530SOL    HW2 2165   0.445   4.051   1.190  0.8344 -0.6720 -0.9396
  530SOL    HW3 2166   0.398   3.907   1.181  0.3573 -0.5949  0.3200
  530SOL    MW4 2167   0.445   3.969   1.220  0.2547 -0.3178  0.0075
  531SOL     OW 2168   0.447   4.211   1.121 -0.3489 -0.6182 -0.2731
  531SOL    HW2 2169   0.530   4.254   1.142  0.1136 -1.3829 -0.5403
  531SOL    HW3 2170   0.382   4.257   1.174  0.2411 -0.0095 -0.0727
  531SOL    MW4 2171   0.450   4.223   1.130 -0.2100 -0.6390 -0.2818
  532SOL     OW 2172   0.682   4.347   1.223  0.3158 -0.3654 -0.0298
  532SOL    HW2 2173   0.685   4.347   1.318  0.1177 -0.4772 -0.0232
  532SOL    HW3 2174   0.764   4.305   1.196  0.4184 -0.2420  0.0880
  532SOL    MW4 2175   0.693   4.342   1.232  0.3032 -0.3638 -0.0135
  533SOL     OW 2176   1.073   4.646   1.121 -0.1202  0.1951 -0.0328
  533SOL    HW2 2177   1.083   4.554   1.146  1.0936  0.2743 -0.2072
  533SOL    HW3 2178   1.066   4.645   1.026 -1.0708  0.2116  0.0291
  533SOL    MW4 2179   1.073   4.634   1.112 -0.0856  0.2079 -0.0477
  534SOL     OW 2180   0.854   0.098   1.240 -0.2241 -0.2836  0.1741
  534SOL    HW2 2181   0.881   0.114   1.330  0.7012  0.6424 -0.2665
  534SOL    HW3 2182   0.929   0.055   1.199  0.4724  1.9290 -0.9422
  534SOL    MW4 2183   0.867   0.094   1.247 -0.0102  0.1305 -0.0312
  535SOL     OW 2184   0.904   0.356   1.131  0.1198  0.2658  0.0889
  535SOL    HW2 2185   0.900   0.271   1.176 -0.8595  0.2243 -0.0645
  535SOL    HW3 2186   0.830   0.406   1.168 -1.0869  0.0033 -1.9203
  535SOL    MW4 2187   0.894   0.351   1.142 -0.1687  0.2257 -0.1965
  536SOL     OW 2188   1.115   0.506   1.234 -0.2010 -0.3953  0.2706
  536SOL    HW2 2189   1.114   0.489   1.328 -2.0096  1.0464  0.5279
  536SOL    HW3 2190   1.045   0.452   1.199  1.0088 -1.5717 -0.3904
  536SOL    MW4 2191   1.106   0.497   1.242 -0.2799 -0.3603  0.2173
  537SOL     OW 2192   1.094   0.770   1.128 -0.0882  0.3160 -0.2999
  537SOL    HW2 2193   1.016   0.803   1.172 -1.2507 -0.4572 -1.7078
  537SOL    HW3 2194   1.107   0.682   1.165  0.7842  0.8693  0.7328
  537SOL    MW4 2195   1.086   0.763   1.138 -0.1266  0.2870 -0.3493
  538SOL     OW 2196   0.889   0.895   1.257  0.1264  0.0587 -0.2820
  538SOL    HW2 2197   0.902   0.987   1.233 -0.2504  0.4388  0.9628
  538SOL    HW3 2198   0.801   0.874   1.225  0.0518  0.2472 -0.1976
  538SOL    MW4 2199   0.879   0.904   1.249  0.0668  0.1337 -0.1067
  539SOL     OW 2200   0.898   1.171   1.182 -0.1680 -0.1597 -0.1285
  539SOL    HW2 2201   0.976   1.223   1.204 -1.1696  1.9974 -1.5198
  539SOL    HW3 2202   0.900   1.164   1.087 -1.7432  0.0526 -0.1911
  539SOL    MW4 2203   0.909   1.177   1.173 -0.5080  0.1529 -0.3204
  540SOL     OW 2204   1.145   1.293   1.242  0.0276 -0.5482 -0.5469
  540SOL    HW2 2205   1.134   1.280   1.336 -0.6035  0.0626 -0.5261
  540SOL    HW3 2206   1.210   1.229   1.216 -0.7232 -1.5778  0.0768
  540SOL    MW4 2207   1.152   1.283   1.251 -0.1549 -0.6034 -0.4617
  541SOL     OW 2208   1.123   1.544   1.098  0.1902  0.0030  0.1342
  541SOL    HW2 2209   1.141   1.466   1.152 -1.0734 -0.1593  0.3266
  541SOL    HW3 2210   1.129   1.512   1.008 -0.2545 -0.2957  0.2116
  541SOL    MW4 2211   1.126   1.529   1.094 -0.0353 -0.0578  0.1698
  542SOL     OW 2212   0.901   1.646   1.234 -0.7552  0.0694 -0.0386
  542SOL    HW2 2213   0.896   1.737   1.204 -0.5950  0.1592  0.2089
  542SOL    HW3 2214   0.963   1.604   1.174  0.5243  0.5523  0.9257
  542SOL    MW4 2215   0.909   1.652   1.222 -0.5653  0.1452  0.1212
  543SOL     OW 2216   0.865   1.893   1.147  0.3543  0.2541 -0.2612
  543SOL    HW2 2217   0.947   1.936   1.172  0.7437 -1.0968  0.8441
  543SOL    HW3 2218   0.797   1.953   1.178  0.8722 -0.4058  2.2712
  543SOL    MW4 2219   0.867   1.907   1.154  0.4740 -0.0112  0.2187
  544SOL     OW 2220   1.105   2.014   1.219 -0.3229 -0.1064  0.0178
  544SOL    HW2 2221   1.109   2.016   1.315  0.3104 -0.1936 -0.0040
  544SOL    HW3 2222   1.105   2.106   1.193  2.9540 -0.0642 -0.0178
  544SOL    MW4 2223   1.105   2.026   1.228  0.1929 -0.1123  0.0103
  545SOL     OW 2224   1.118   2.278   1.126 -0.2837  0.3647  0.1185
  545SOL    HW2 2225   1.199   2.326   1.141 -0.6496  0.5700  1.5777
  545SOL    HW3 2226   1.049   2.341   1.149 -0.7911 -0.4816  0.9234
  545SOL    MW4 2227   1.120   2.293   1.131 -0.3988  0.2799  0.4171
  546SOL     OW 2228   0.897   2.455   1.213  0.0380  0.2867  0.0300
  546SOL    HW2 2229   0.883   2.440   1.306  1.6626 -1.6472 -0.0243
  546SOL    HW3 2230   0.823   2.412   1.170  0.9486 -1.5412  0.2683
  546SOL    MW4 2231   0.885   2.448   1.219  0.3725 -0.2098  0.0544
  547SOL     OW 2232   0.860   2.710   1.101  0.4839  0.7657  0.1407
  547SOL    HW2 2233   0.856   2.626   1.147 -1.1417  0.6599 -0.1756
  547SOL    HW3 2234   0.786   2.759   1.135 -0.2338  1.0091 -1.7632
  547SOL    MW4 2235   0.850   2.705   1.112  0.1748  0.7837 -0.1523
  548SOL     OW 2236   1.099   2.812   1.229 -0.1498  0.4454 -0.5039
  548SOL    HW2 2237   1.098   2.813   1.325  0.0546  0.9711 -0.5034
  548SOL    HW3 2238   1.011   2.784   1.204 -0.4709  1.1293 -0.1691
  548SOL    MW4 2239   1.087   2.808   1.238 -0.1652  0.6049 -0.4596
  549SOL     OW 2240   1.133   3.064   1.134  0.1942 -0.7372  0.1960
  549SOL    HW2 2241   1.123   2.971   1.153 -0.6043 -0.6899  0.0363
  549SOL    HW3 2242   1.163   3.068   1.043 -0.6175 -0.8111 -0.0757
  549SOL    MW4 2243   1.136   3.053   1.124 -0.0182 -0.7408  0.1391
  550SOL     OW 2244   0.899   3.194   1.222  0.1120 -0.3230  0.2350
  550SOL    HW2 2245   0.905   3.282   1.184 -1.3366  0.0021  0.7068
  550SOL    HW3 2246   0.978   3.149   1.193  0.7506  1.0702 -0.2010
  550SOL    MW4 2247   0.910   3.200   1.213  0.0051 -0.0966  0.2397
  551SOL     OW 2248   0.912   3.454   1.120  0.1871 -0.2943  0.0121
  551SOL    HW2 2249   0.841   3.490   1.173  0.4445  1.4376 -0.8015
  551SOL    HW3 2250   0.889   3.475   1.030  1.0113 -0.9908 -0.3713
  551SOL    MW4 2251   0.900   3.461   1.115  0.3298 -0.1576 -0.1459
  552SOL     OW 2252   1.108   3.619   1.225 -0.5132 -0.2903  0.3252
  552SOL    HW2 2253   1.174   3.549   1.219 -0.2290  0.1142 -1.5778
  552SOL    HW3 2254   1.031   3.584   1.180 -0.7122  0.2363  0.2512
  552SOL    MW4 2255   1.107   3.605   1.218 -0.5019 -0.1671  0.0644
  553SOL     OW 2256   1.124   3.870   1.115  0.0464 -0.2755 -0.0259
  553SOL    HW2 2257   1.043   3.905   1.153 -0.1029 -1.4364  0.7422
  553SOL    HW3 2258   1.125   3.778   1.140  0.2840 -0.9335 -2.3065
  553SOL    MW4 2259   1.113   3.862   1.123  0.0581 -0.5155 -0.2255
  554SOL     OW 2260   0.898   3.980   1.246 -0.0664 -0.1900 -0.5252
  554SOL    HW2 2261   0.901   3.972   1.342 -0.8129  0.3662 -0.4463
  554SOL    HW3 2262   0.816   3.936   1.222  0.2762 -0.6011 -0.9423
  554SOL    MW4 2263   0.888   3.973   1.256 -0.1197 -0.1709 -0.5698
  555SOL     OW 2264   0.920   4.227   1.131 -0.0327  0.2325 -0.2393
  555SOL    HW2 2265   0.918   4.137   1.164 -2.1522  0.8081  1.3447
  555SOL    HW3 2266   0.919   4.218   1.035 -1.3464 -1.4326 -0.0896
  555SOL    MW4 2267   0.919   4.214   1.122 -0.4857  0.0887 -0.0106
  556SOL     OW 2268   1.125   4.402   1.198 -0.4219 -0.3828 -0.2230
  556SOL    HW2 2269   1.135   4.392   1.293 -1.7823 -0.2561 -0.0526
  556SOL    HW3 2270   1.044   4.353   1.178 -0.3871 -0.0230 -1.2458
  556SOL    MW4 2271   1.115   4.394   1.208 -0.5968 -0.3190 -0.3353
  557SOL     OW 2272   1.557   4.653   1.084 -0.6354  0.4417  0.4104
  557SOL    HW2 2273   1.637   4.695   1.115 -0.8186  0.3810  0.9711
  557SOL    HW3 2274   1.560   4.565   1.122  0.4918 -0.6083 -1.9646
  557SOL    MW4 2275   1.568   4.647   1.093 -0.5111  0.2952  0.1711
  558SOL     OW 2276   1.332   0.107   1.189 -0.4460  0.5468  0.4744
  558SOL    HW2 2277   1.407   0.069   1.143 -0.8796  1.1923 -0.8208
  558SOL    HW3 2278   1.261   0.043   1.177 -0.7598  1.0457 -0.4084
  558SOL    MW4 2279   1.332   0.094   1.181 -0.5447  0.6978  0.1870
  559SOL     OW 2280   1.345   0.385   1.150  0.0924  0.6265  0.0795
  559SOL    HW2 2281   1.325   0.291   1.154 -0.8897  0.7636 -1.2293
  559SOL    HW3 2282   1.262   0.428   1.171 -0.1235  1.1881 -1.8077
  559SOL    MW4 2283   1.331   0.378   1.153 -0.0657  0.7187 -0.3422
  560SOL     OW 2284   1.596   0.445   1.235 -0.3515 -0.0054 -0.5068
  560SOL    HW2 2285   1.608   0.533   1.199 -0.3931  0.0016 -0.5027
  560SOL    HW3 2286   1.504   0.426   1.221 -0.5697  0.3538  0.4083
  560SOL    MW4 2287   1.586   0.454   1.228 -0.3858  0.0429 -0.3853
  561SOL     OW 2288   1.544   0.719   1.141 -0.2838 -0.3966  0.0052
  561SOL    HW2 2289   1.631   0.757   1.156 -1.1810  1.5668  0.5014
  561SOL    HW3 2290   1.527   0.735   1.048 -0.4681  0.0295  0.1090
  561SOL    MW4 2291   1.553   0.726   1.130 -0.4265 -0.0814  0.0844
  562SOL     OW 2292   1.355   0.883   1.243 -0.3453  0.2470  0.2848
  562SOL    HW2 2293   1.413   0.810   1.220  1.5867  1.6998  0.3396
  562SOL    HW3 2294   1.268   0.854   1.217  0.4254 -1.9490  0.0287
  562SOL    MW4 2295   1.351   0.869   1.236  0.0113  0.1490  0.2582
  563SOL     OW 2296   1.333   1.150   1.124  0.0710  0.7382  0.2789
  563SOL    HW2 2297   1.352   1.057   1.134 -0.1342  0.7367  0.6708
  563SOL    HW3 2298   1.335   1.165   1.029 -1.4686  0.0065  0.1154
  563SOL    MW4 2299   1.336   1.140   1.113 -0.1593  0.6415  0.3090
  564SOL     OW 2300   1.557   1.287   1.214  0.1488 -0.0274  0.1278
  564SOL    HW2 2301   1.632   1.234   1.188  0.4571 -0.6732  2.2282
  564SOL    HW3 2302   1.481   1.238   1.182  0.5364 -0.4872 -0.0928
  564SOL    MW4 2303   1.556   1.274   1.206  0.2406 -0.1734  0.3759
  565SOL     OW 2304   1.543   1.540   1.097  0.4839 -0.2861 -0.3306
  565SOL    HW2 2305   1.616   1.587   1.138  0.7626  0.9016 -2.1616
  565SOL    HW3 2306   1.535   1.459   1.148  1.4276  0.7341  1.4687
  565SOL    MW4 2307   1.552   1.535   1.109  0.6452  0.0051 -0.3346
  566SOL     OW 2308   1.339   1.677   1.218  0.0248 -0.2703 -0.0744
  566SOL    HW2 2309   1.413   1.623   1.192 -0.4873 -1.8182  1.6128
  566SOL    HW3 2310   1.263   1.636   1.175  0.1191  1.4350 -1.9788
  566SOL    MW4 2311   1.339   1.665   1.209 -0.0303 -0.2495 -0.1030
  567SOL     OW 2312   1.349   1.923   1.110  0.1140  0.4823 -0.4981
  567SOL    HW2 2313   1.352   1.841   1.160 -0.2441 -0.1685 -1.5183
  567SOL    HW3 2314   1.264   1.961   1.130  0.7939  1.2493  0.9699
  567SOL    MW4 2315   1.338   1.917   1.119  0.1564  0.4976 -0.4390
  568SOL     OW 2316   1.574   2.052   1.198  0.1625  0.3109 -0.3349
  568SOL    HW2 2317   1.576   2.136   1.152 -0.0642  0.5594  0.1112
  568SOL    HW3 2318   1.492   2.012   1.170 -0.3399  0.7907  0.4343
  568SOL    MW4 2319   1.564   2.058   1.188  0.0663  0.4072 -0.1744
  569SOL     OW 2320   1.572   2.291   1.053  0.3936  0.0144  0.1882
  569SOL    HW2 2321   1.492   2.333   1.085  0.4871 -0.4085  0.9837
  569SOL    HW3 2322   1.570   2.305   0.958 -0.0973  0.9019  0.3264
  569SOL    MW4 2323   1.561   2.298   1.045  0.3413  0.0756  0.3115
  570SOL     OW 2324   1.344   2.408   1.155 -0.2050  0.0097 -0.1174
  570SOL    HW2 2325   1.359   2.401   1.249  0.4448 -0.1666 -0.2309
  570SOL    HW3 2326   1.344   2.502   1.137  1.4799  0.0040 -0.2203
  570SOL    MW4 2327   1.346   2.420   1.165  0.1030 -0.0145 -0.1459
  571SOL     OW 2328   1.333   2.693   1.126 -0.3317  0.1779 -0.3156
  571SOL    HW2 2329   1.411   2.735   1.162 -0.7088  0.9794 -0.4207
  571SOL    HW3 2330   1.260   2.744   1.161 -0.9233 -1.8335  1.4365
  571SOL    MW4 2331   1.334   2.705   1.135 -0.4596  0.0184 -0.0982
  572SOL     OW 2332   1.575   2.801   1.198 -0.1200  0.3904 -0.0358
  572SOL    HW2 2333   1.642   2.736   1.177 -0.5245  0.1525 -0.5990
  572SOL    HW3 2334   1.607   2.882   1.157  0.2974  0.5083  0.5176
  572SOL    MW4 2335   1.588   2.803   1.189 -0.1183  0.3746 -0.0371
  573SOL     OW 2336   1.635   3.063   1.109  0.1297  0.3314 -0.0333
  573SOL    HW2 2337   1.712   3.119   1.119  0.3978 -0.0969  0.3370
  573SOL    HW3 2338   1.563   3.112   1.148  0.1836  0.8068 -0.5346
  573SOL    MW4 2339   1.636   3.077   1.115  0.1723  0.3376 -0.0505
  574SOL     OW 2340   1.392   3.173   1.225 -0.0142 -0.3164 -0.0080
  574SOL    HW2 2341   1.398   3.165   1.320  1.7229  0.0006 -0.0776
  574SOL    HW3 2342   1.304   3.140   1.204 -0.3001 -0.6800  1.6589
  574SOL    MW4 2343   1.381   3.168   1.235  0.1774 -0.3226  0.2027
  575SOL     OW 2344   1.340   3.449   1.170  0.2170 -0.0672  0.0127
  575SOL    HW2 2345   1.369   3.359   1.187 -0.0905 -0.1873 -0.1093
  575SOL    HW3 2346   1.333   3.455   1.075  0.2547  0.0927  0.0197
  575SOL    MW4 2347   1.343   3.438   1.160  0.1814 -0.0622 -0.0024
  576SOL     OW 2348   1.599   3.555   1.218 -0.4690  0.4800 -0.0008
  576SOL    HW2 2349   1.599   3.648   1.194 -0.0853  0.0933 -1.5193
  576SOL    HW3 2350   1.506   3.530   1.215 -0.6382  0.9526  1.0085
  576SOL    MW4 2351   1.587   3.564   1.215 -0.4407  0.4914 -0.0681
  577SOL     OW 2352   1.547   3.828   1.169 -0.6421 -0.0900  0.0979
  577SOL    HW2 2353   1.481   3.888   1.203  0.3455  1.5283 -0.7494
  577SOL    HW3 2354   1.559   3.855   1.078  0.5828 -0.8899  0.0142
  577SOL    MW4 2355   1.540   3.839   1.162 -0.3502  0.0179 -0.0248
  578SOL     OW 2356   1.343   3.989   1.231  0.5689 -0.2557  0.0040
  578SOL    HW2 2357   1.348   4.078   1.195 -0.1375 -0.6029 -0.9625
  578SOL    HW3 2358   1.267   3.950   1.189  0.4073 -1.0666  1.0208
  578SOL    MW4 2359   1.333   3.996   1.221  0.4544 -0.4084  0.0107
  579SOL     OW 2360   1.343   4.238   1.111 -0.2242  0.4402  0.2515
  579SOL    HW2 2361   1.266   4.287   1.138  0.1811  0.4561  1.4309
  579SOL    HW3 2362   1.341   4.240   1.015 -0.3438  2.5599  0.2691
  579SOL    MW4 2363   1.333   4.245   1.102 -0.1864  0.7219  0.4094
  580SOL     OW 2364   1.560   4.400   1.211  0.0377 -0.2961  0.6077
  580SOL    HW2 2365   1.568   4.405   1.306  1.3182 -1.6542  0.5847
  580SOL    HW3 2366   1.481   4.348   1.196  0.2231 -0.6715  0.9288
  580SOL    MW4 2367   1.550   4.394   1.222  0.2311 -0.5245  0.6471
  581SOL     OW 2368   2.002   4.619   1.153 -0.2341 -0.0592 -0.3742
  581SOL    HW2 2369   1.987   4.527   1.175  0.3215 -0.2499 -0.7949
  581SOL    HW3 2370   2.010   4.621   1.058  2.7347 -0.0325 -0.1867
  581SOL    MW4 2371   2.001   4.607   1.143  0.2308 -0.0811 -0.4051
  582SOL     OW 2372   1.787   0.099   1.213  0.3802 -0.5738 -0.3280
  582SOL    HW2 2373   1.800   0.188   1.180  1.1181 -0.1291  1.1243
  582SOL    HW3 2374   1.871   0.056   1.200  0.7580 -0.3145  1.1769
  582SOL    MW4 2375   1.800   0.105   1.207  0.5273 -0.4809  0.0623
  583SOL     OW 2376   1.828   0.361   1.126 -0.1478 -0.0031  0.1477
  583SOL    HW2 2377   1.750   0.404   1.162 -0.1627  0.0376  0.0675
  583SOL    HW3 2378   1.815   0.365   1.032  0.4529  0.9635  0.0940
  583SOL    MW4 2379   1.816   0.367   1.119 -0.0705  0.1298  0.1302
  584SOL     OW 2380   2.065   0.446   1.225 -0.0025 -0.0694 -0.3439
  584SOL    HW2 2381   2.061   0.455   1.320  0.4811  1.3860 -0.4493
  584SOL    HW3 2382   1.975   0.428   1.199 -0.3747  0.8539  0.2658
  584SOL    MW4 2383   2.053   0.445   1.234  0.0119  0.2444 -0.2773
  585SOL     OW 2384   2.032   0.708   1.148 -0.6113  0.4923 -0.2146
  585SOL    HW2 2385   2.053   0.615   1.156  2.8701  1.2443  0.1651
  585SOL    HW3 2386   2.039   0.726   1.054 -1.6013  0.3455 -0.3289
  585SOL    MW4 2387   2.035   0.698   1.137 -0.2825  0.5722 -0.1796
  586SOL     OW 2388   1.794   0.821   1.224 -0.2949  0.0841  0.0717
  586SOL    HW2 2389   1.809   0.832   1.318  2.7316  0.1377 -0.3657
  586SOL    HW3 2390   1.874   0.781   1.192 -1.5700 -0.5626 -2.4049
  586SOL    MW4 2391   1.807   0.817   1.233 -0.0639  0.0059 -0.3127
  587SOL     OW 2392   1.766   1.096   1.162  0.3256  0.3555  0.6991
  587SOL    HW2 2393   1.772   1.003   1.185  0.6167  0.1718 -0.0890
  587SOL    HW3 2394   1.771   1.097   1.067  0.1963  1.1749  0.6980
  587SOL    MW4 2395   1.767   1.083   1.153  0.3470  0.4394  0.5950
  588SOL     OW 2396   1.996   1.248   1.242  0.7114  0.6046 -0.0120
  588SOL    HW2 2397   2.066   1.196   1.202  0.4428  1.1692 -1.2370
  588SOL    HW3 2398   1.916   1.205   1.214  0.5479  0.2894  0.9300
  588SOL    MW4 2399   1.995   1.235   1.233  0.6543  0.6374 -0.0494
  589SOL     OW 2400   2.052   1.505   1.151  0.3254 -0.4185 -0.4080
  589SOL    HW2 2401   2.038   1.413   1.173  0.0247  0.0756  1.5122
  589SOL    HW3 2402   2.028   1.511   1.059  0.4384 -2.2839 -0.5824
  589SOL    MW4 2403   2.047   1.493   1.142  0.3009 -0.5993 -0.1775
  590SOL     OW 2404   1.759   1.642   1.217  0.4111 -0.0702  0.3215
  590SOL    HW2 2405   1.777   1.728   1.179  1.2193 -0.7431 -0.8594
  590SOL    HW3 2406   1.837   1.590   1.197 -1.0063 -1.7514 -1.0227
  590SOL    MW4 2407   1.772   1.646   1.209  0.3306 -0.3806 -0.0114
  591SOL     OW 2408   1.787   1.900   1.121 -0.4409  0.1151  0.3056
  591SOL    HW2 2409   1.723   1.969   1.139 -0.6482  0.0949 -0.3167
  591SOL    HW3 2410   1.790   1.895   1.025 -1.1646 -1.4161  0.3487
  591SOL    MW4 2411   1.779   1.909   1.111 -0.5636 -0.0895  0.2292
  592SOL     OW 2412   2.018   2.028   1.214 -0.0472 -0.1487 -0.2881
  592SOL    HW2 2413   2.014   2.033   1.310  1.1296 -0.9209 -0.1924
  592SOL    HW3 2414   1.931   1.996   1.188 -0.0158 -0.9638  0.5908
  592SOL    MW4 2415   2.006   2.024   1.223  0.1123 -0.3583 -0.1595
  593SOL     OW 2416   2.021   2.294   1.101 -0.0414  0.2799  0.2414
  593SOL    HW2 2417   2.107   2.334   1.113  0.0767  0.5669 -1.4239
  593SOL    HW3 2418   2.025   2.212   1.149  1.1964  0.2437  0.0762
  593SOL    MW4 2419   2.033   2.289   1.109  0.1376  0.3130 -0.0001
  594SOL     OW 2420   1.798   2.389   1.218 -0.3025 -0.0653  0.2277
  594SOL    HW2 2421   1.888   2.366   1.198 -0.2965  0.3040 -0.1642
  594SOL    HW3 2422   1.747   2.347   1.148 -0.4922 -0.8403  0.8271
  594SOL    MW4 2423   1.803   2.380   1.206 -0.3266 -0.1187  0.2552
  595SOL     OW 2424   1.817   2.664   1.116 -0.0016  0.1333 -0.1925
  595SOL    HW2 2425   1.825   2.571   1.135  0.3876  0.3682  0.8540
  595SOL    HW3 2426   1.805   2.669   1.022  0.5798 -0.9482 -0.3260
  595SOL    MW4 2427   1.817   2.653   1.106  0.1265  0.0215 -0.0720
  596SOL     OW 2428   2.031   2.816   1.212  0.0070 -0.1213  0.3598
  596SOL    HW2 2429   2.030   2.907   1.181  0.5418  0.2507  1.4220
  596SOL    HW3 2430   1.952   2.777   1.175  0.2798  0.5030 -0.9123
  596SOL    MW4 2431   2.021   2.823   1.203  0.1135  0.0100  0.3320
  597SOL     OW 2432   2.049   3.085   1.109  0.0345 -0.1745 -0.2043
  597SOL    HW2 2433   1.988   3.152   1.140 -0.8428  0.0659 -2.3956
  597SOL    HW3 2434   2.048   3.093   1.014  0.2546 -3.0414 -0.4829
  597SOL    MW4 2435   2.041   3.095   1.101 -0.0522 -0.5209 -0.5301
  598SOL     OW 2436   1.832   3.255   1.193  0.0454 -0.0254  0.3889
  598SOL    HW2 2437   1.813   3.243   1.286 -0.5118  0.3033  0.3175
  598SOL    HW3 2438   1.831   3.349   1.180  2.0249  0.0331  0.4383
  598SOL    MW4 2439   1.830   3.266   1.204  0.2331  0.0257  0.3860
  599SOL     OW 2440   1.846   3.517   1.113 -0.2580  0.3613 -0.0292
  599SOL    HW2 2441   1.907   3.567   1.168  0.4299  1.0268 -1.3781
  599SOL    HW3 2442   1.760   3.539   1.148  0.0688  2.0070 -0.2048
  599SOL    MW4 2443   1.843   3.527   1.125 -0.1242  0.6666 -0.2302
  600SOL     OW 2444   2.055   3.668   1.239  0.5547 -0.3562  0.5516
  600SOL    HW2 2445   2.056   3.656   1.334  0.8897  0.4570  0.6529
  600SOL    HW3 2446   2.119   3.605   1.207 -0.6006 -1.6489  0.7353
  600SOL    MW4 2447   2.064   3.658   1.248  0.4466 -0.4194  0.5893
  601SOL     OW 2448   2.000   3.903   1.106  0.2032 -0.2441 -0.3516
  601SOL    HW2 2449   1.920   3.932   1.150 -1.4214  0.0997 -3.3686
  601SOL    HW3 2450   2.021   3.819   1.146 -0.1784  0.8601  2.2436
  601SOL    MW4 2451   1.992   3.896   1.117 -0.0613 -0.0532 -0.4073
  602SOL     OW 2452   1.775   3.984   1.227 -0.6086  0.1163 -0.0169
  602SOL    HW2 2453   1.776   4.002   1.321  0.0658  0.1923 -0.0363
  602SOL    HW3 2454   1.708   3.916   1.217  0.7134 -1.3320  0.7940
  602SOL    MW4 2455   1.766   3.977   1.238 -0.3452 -0.0646  0.0876
  603SOL     OW 2456   1.744   4.220   1.090 -0.0852 -0.3437 -0.5656
  603SOL    HW2 2457   1.723   4.138   1.135 -1.2405 -0.0212 -0.5120
  603SOL    HW3 2458   1.684   4.284   1.128  0.2643  0.3504 -1.1877
  603SOL    MW4 2459   1.733   4.218   1.101 -0.1913 -0.2098 -0.6406
  604SOL     OW 2460   1.977   4.327   1.204  0.1154 -0.4573  0.1460
  604SOL    HW2 2461   1.974   4.336   1.299  0.4929  0.6382  0.0531
  604SOL    HW3 2462   1.894   4.286   1.181 -0.3100  0.0007  0.8670
  604SOL    MW4 2463   1.966   4.322   1.213  0.1091 -0.2522  0.2289
  605SOL     OW 2464   2.446   0.010   1.057  0.3397 -0.2228 -0.2723
  605SOL    HW2 2465   2.509   0.062   1.106  0.8910 -0.2064 -0.9844
  605SOL    HW3 2466   2.363   0.023   1.102  1.2465 -1.9813  2.0132
  605SOL    MW4 2467   2.444   0.018   1.069  0.5322 -0.4526 -0.0647
  606SOL     OW 2468   2.259   0.077   1.249  0.1138  0.0457  0.1191
  606SOL    HW2 2469   2.252   0.170   1.225 -0.9337  0.5144  2.0942
  606SOL    HW3 2470   2.172   0.041   1.230  0.0831 -0.1918  0.7027
  606SOL    MW4 2471   2.247   0.085   1.243 -0.0284  0.0762  0.4567
  607SOL     OW 2472   2.299   0.341   1.123  0.5547  0.2680 -0.2442
  607SOL    HW2 2473   2.214   0.370   1.157  0.6836 -0.2516  0.5414
  607SOL    HW3 2474   2.287   0.336   1.028  0.2158  1.8344 -0.2956
  607SOL    MW4 2475   2.286   0.344   1.115  0.5271  0.4062 -0.1473
  608SOL     OW 2476   2.507   0.504   1.219  0.5661 -0.2861 -0.1687
  608SOL    HW2 2477   2.493   0.499   1.314  1.2188  2.3299  0.1000
  608SOL    HW3 2478   2.444   0.443   1.182 -0.7912 -0.1608  1.8614
  608SOL    MW4 2479   2.497   0.495   1.227  0.4733  0.0756  0.1346
  609SOL     OW 2480   2.446   0.763   1.116  0.2443  0.1144 -0.0838
  609SOL    HW2 2481   2.466   0.682   1.163  2.1025 -0.2960 -1.5283
  609SOL    HW3 2482   2.447   0.738   1.024 -1.4835  1.3101 -0.4551
  609SOL    MW4 2483   2.448   0.749   1.110  0.2613  0.2180 -0.3233
  610SOL     OW 2484   2.236   0.863   1.270 -0.1093  0.1347  0.1164
  610SOL    HW2 2485   2.312   0.825   1.226  0.1295  1.2350 -0.4356
  610SOL    HW3 2486   2.163   0.809   1.243  0.4277 -0.7403  0.3966
  610SOL    MW4 2487   2.237   0.851   1.261 -0.0069  0.1644  0.0806
  611SOL     OW 2488   2.232   1.117   1.153  0.1053 -0.2253 -0.3805
  611SOL    HW2 2489   2.312   1.167   1.166 -0.2246  0.5030 -1.1049
  611SOL    HW3 2490   2.251   1.031   1.190  0.7529  0.3637  0.6650
  611SOL    MW4 2491   2.245   1.112   1.160  0.1471 -0.0515 -0.3382
  612SOL     OW 2492   2.450   1.282   1.239  0.0958  0.2844  0.3020
  612SOL    HW2 2493   2.528   1.235   1.208  0.1261 -0.4070  1.3800
  612SOL    HW3 2494   2.458   1.370   1.202 -0.1505 -0.6616 -2.0690
  612SOL    MW4 2495   2.461   1.287   1.230  0.0672  0.0684  0.1314
  613SOL     OW 2496   2.470   1.515   1.086  0.0691  0.3660  0.2232
  613SOL    HW2 2497   2.399   1.570   1.117  1.1760  1.9575 -0.0246
  613SOL    HW3 2498   2.444   1.488   0.998  0.1319  1.6326 -0.1978
  613SOL    MW4 2499   2.457   1.519   1.078  0.2234  0.7429  0.1349
  614SOL     OW 2500   2.288   1.651   1.217 -0.1232  0.1237  0.0525
  614SOL    HW2 2501   2.251   1.734   1.187 -0.3343  0.3563  0.9442
  614SOL    HW3 2502   2.214   1.590   1.216  0.1262 -0.1818 -1.0334
  614SOL    MW4 2503   2.273   1.654   1.213 -0.1183  0.1141  0.0268
  615SOL     OW 2504   2.237   1.895   1.129 -0.1736  0.5178 -0.2267
  615SOL    HW2 2505   2.151   1.932   1.151 -0.7541 -0.8655 -0.0765
  615SOL    HW3 2506   2.243   1.902   1.034 -1.0332 -0.5914 -0.3683
  615SOL    MW4 2507   2.226   1.901   1.120 -0.3638  0.1888 -0.2254
  616SOL     OW 2508   2.472   2.028   1.186 -0.2450  0.4440 -0.2717
  616SOL    HW2 2509   2.547   1.979   1.151 -0.6108 -0.5300  0.2628
  616SOL    HW3 2510   2.395   1.979   1.156 -0.5931  0.2046  0.9571
  616SOL    MW4 2511   2.472   2.015   1.177 -0.3393  0.2840 -0.0391
  617SOL     OW 2512   2.504   2.305   1.132  0.3137 -0.0094 -0.0681
  617SOL    HW2 2513   2.500   2.213   1.158 -0.1388  0.1302  0.3611
  617SOL    HW3 2514   2.501   2.303   1.036  1.6573 -0.5051 -0.1179
  617SOL    MW4 2515   2.503   2.292   1.122  0.4311 -0.0565 -0.0180
  618SOL     OW 2516   2.261   2.435   1.176 -0.2072 -0.5186  0.2404
  618SOL    HW2 2517   2.244   2.428   1.270 -0.8760 -0.6270  0.1186
  618SOL    HW3 2518   2.346   2.394   1.164 -1.1157 -2.5001  0.4798
  618SOL    MW4 2519   2.270   2.429   1.187 -0.4153 -0.7944  0.2559
  619SOL     OW 2520   2.265   2.721   1.109  0.3492  0.1666 -0.0663
  619SOL    HW2 2521   2.259   2.628   1.133 -0.0427  0.6410  1.7426
  619SOL    HW3 2522   2.191   2.762   1.153  0.9120  1.4603 -0.2936
  619SOL    MW4 2523   2.255   2.714   1.118  0.3717  0.3998  0.1423
  620SOL     OW 2524   2.489   2.862   1.208  0.1972 -0.0228  0.2311
  620SOL    HW2 2525   2.481   2.846   1.302  2.3442 -1.5342  0.1944
  620SOL    HW3 2526   2.413   2.817   1.170 -0.9947  1.0708  1.2546
  620SOL    MW4 2527   2.478   2.854   1.215  0.3231 -0.0780  0.3613
  621SOL     OW 2528   2.492   3.125   1.088 -0.0334  0.8873  0.0941
  621SOL    HW2 2529   2.415   3.170   1.124 -0.0169  0.7020  0.3564
  621SOL    HW3 2530   2.478   3.033   1.109  1.4730  1.1443  2.3427
  621SOL    MW4 2531   2.480   3.119   1.095  0.1674  0.8967  0.4255
  622SOL     OW 2532   2.277   3.252   1.204 -0.0794  0.3406 -0.4874
  622SOL    HW2 2533   2.257   3.337   1.165 -0.3311  0.4562 -0.1033
  622SOL    HW3 2534   2.209   3.194   1.171  2.4843 -0.7559 -4.2450
  622SOL    MW4 2535   2.266   3.256   1.194  0.2253  0.2110 -0.9327
  623SOL     OW 2536   2.237   3.508   1.120  0.0729  0.3275 -0.1345
  623SOL    HW2 2537   2.319   3.542   1.157  0.4801  0.0280 -0.7484
  623SOL    HW3 2538   2.254   3.504   1.026 -0.0170 -1.4454 -0.0958
  623SOL    MW4 2539   2.250   3.512   1.112  0.1147  0.0541 -0.2104
  624SOL     OW 2540   2.478   3.615   1.202  0.0111 -0.0714 -0.5162
  624SOL    HW2 2541   2.474   3.612   1.298  1.5005 -1.2285 -0.4701
  624SOL    HW3 2542   2.492   3.708   1.182 -0.1968  0.1624  0.3968
  624SOL    MW4 2543   2.480   3.627   1.212  0.1798 -0.1931 -0.3897
  625SOL     OW 2544   2.511   3.897   1.136  0.2516 -0.2220 -0.3706
  625SOL    HW2 2545   2.419   3.910   1.158  0.3315 -1.1370  0.5625
  625SOL    HW3 2546   2.516   3.911   1.042 -0.6033  1.1421 -0.2330
  625SOL    MW4 2547   2.500   3.901   1.127  0.1497 -0.1626 -0.2292
  626SOL     OW 2548   2.254   3.991   1.219  0.5455 -0.1683  0.1847
  626SOL    HW2 2549   2.261   4.078   1.179  1.6564 -1.5048 -2.7023
  626SOL    HW3 2550   2.171   3.957   1.186  1.1730 -1.0577 -0.4731
  626SOL    MW4 2551   2.244   3.998   1.209  0.7749 -0.4621 -0.2830
  627SOL     OW 2552   2.247   4.281   1.113  0.5090 -0.1359 -0.0483
  627SOL    HW2 2553   2.154   4.289   1.136  0.5702 -0.6665  0.4092
  627SOL    HW3 2554   2.249   4.289   1.017 -0.0520 -0.4726 -0.0889
  627SOL    MW4 2555   2.235   4.283   1.103  0.4430 -0.2503  0.0067
  628SOL     OW 2556   2.448   4.451   1.195  0.0283 -0.1473 -0.9421
  628SOL    HW2 2557   2.374   4.400   1.163  0.7284 -0.5828 -1.8912
  628SOL    HW3 2558   2.456   4.523   1.132 -0.5598  0.7789  0.0324
  628SOL    MW4 2559   2.439   4.454   1.182  0.0429 -0.0825 -0.9388
  629SOL     OW 2560   2.906   0.049   1.122 -0.1946 -0.1520  0.0336
  629SOL    HW2 2561   2.894  -0.043   1.144 -0.3733 -0.3356 -0.8310
  629SOL    HW3 2562   2.890   0.054   1.028  0.2738  0.6822 -0.0079
  629SOL    MW4 2563   2.902   0.037   1.112 -0.1564 -0.0661 -0.0859
  630SOL     OW 2564   2.671   0.112   1.218  0.2928  0.3066  0.6042
  630SOL    HW2 2565   2.672   0.099   1.313 -1.8818  1.5849  0.8513
  630SOL    HW3 2566   2.759   0.088   1.189  1.3434  0.9937  3.0860
  630SOL    MW4 2567   2.682   0.107   1.227  0.1447  0.5659  0.9642
  631SOL     OW 2568   2.744   0.365   1.131 -0.1546  0.1456  0.0273
  631SOL    HW2 2569   2.736   0.281   1.177 -2.0489 -0.1397 -0.7797
  631SOL    HW3 2570   2.670   0.416   1.162 -0.6097  0.4918 -1.5856
  631SOL    MW4 2571   2.733   0.360   1.141 -0.4644  0.1536 -0.2921
  632SOL     OW 2572   2.971   0.465   1.227 -0.2522  0.2326  0.5017
  632SOL    HW2 2573   2.962   0.559   1.211  0.4534 -0.1109 -2.2397
  632SOL    HW3 2574   2.895   0.425   1.185 -0.7240 -0.4186  1.9391
  632SOL    MW4 2575   2.960   0.472   1.219 -0.2215  0.1014  0.3297
  633SOL     OW 2576   2.919   0.740   1.164  0.4818 -0.2198  0.0363
  633SOL    HW2 2577   2.993   0.794   1.191  0.3140 -0.5922  1.2994
  633SOL    HW3 2578   2.842   0.792   1.188  0.3323 -0.1447 -0.6111
  633SOL    MW4 2579   2.918   0.754   1.171  0.4399 -0.2590  0.1175
  634SOL     OW 2580   2.680   0.884   1.199 -0.1361  0.6758  0.3171
  634SOL    HW2 2581   2.680   0.975   1.170  0.9874  0.6188  0.1516
  634SOL    HW3 2582   2.607   0.844   1.152 -0.9089  1.5846  0.7124
  634SOL    MW4 2583   2.670   0.891   1.189 -0.0899  0.7882  0.3474
  635SOL     OW 2584   2.677   1.167   1.114 -0.0290 -0.2290  0.0625
  635SOL    HW2 2585   2.759   1.205   1.146 -0.6168 -0.0177  1.3675
  635SOL    HW3 2586   2.678   1.182   1.020  1.0539  0.4940  0.1832
  635SOL    MW4 2587   2.688   1.174   1.106  0.0365 -0.1057  0.2506
  636SOL     OW 2588   2.941   1.240   1.178  0.2163  0.4219 -0.0953
  636SOL    HW2 2589   2.949   1.252   1.272  0.7329  0.5477 -0.1582
  636SOL    HW3 2590   2.925   1.328   1.144  1.1753  0.5331 -0.2506
  636SOL    MW4 2591   2.940   1.253   1.186  0.4108  0.4531 -0.1242
  637SOL     OW 2592   2.904   1.479   1.060  0.2819  0.2378  0.1350
  637SOL    HW2 2593   2.972   1.534   1.100  1.5056 -1.3234  0.2236
  637SOL    HW3 2594   2.897   1.512   0.970  1.4692  0.1140 -0.0045
  637SOL    MW4 2595   2.912   1.491   1.054  0.5999  0.0155  0.1283
  638SOL     OW 2596   2.699   1.618   1.202  0.1417  0.5298 -0.7038
  638SOL    HW2 2597   2.764   1.579   1.143  0.2281  0.1750 -0.3768
  638SOL    HW3 2598   2.615   1.591   1.165  0.1849  0.6958 -0.9279
  638SOL    MW4 2599   2.697   1.610   1.189  0.1585  0.5049 -0.6903
  639SOL     OW 2600   2.693   1.885   1.099 -0.2137 -0.1839  0.2922
  639SOL    HW2 2601   2.762   1.937   1.139 -1.5618  0.1842  2.2131
  639SOL    HW3 2602   2.713   1.795   1.121 -0.7314 -0.0154  1.4662
  639SOL    MW4 2603   2.704   1.880   1.107 -0.4601 -0.1130  0.7005
  640SOL     OW 2604   2.907   2.029   1.195  0.0465  0.1944 -0.9004
  640SOL    HW2 2605   2.914   2.030   1.290  1.5778 -1.0581 -1.0014
  640SOL    HW3 2606   2.912   2.122   1.170  0.5795  0.4550  0.1586
  640SOL    MW4 2607   2.908   2.042   1.204  0.3190  0.0637 -0.7740
  641SOL     OW 2608   2.908   2.299   1.141 -0.2419 -0.0356 -0.2444
  641SOL    HW2 2609   2.993   2.340   1.160 -0.1419  0.0578 -0.8795
  641SOL    HW3 2610   2.844   2.359   1.178  0.0447 -1.3800  2.5580
  641SOL    MW4 2611   2.911   2.313   1.148 -0.1910 -0.2007  0.0416
  642SOL     OW 2612   2.704   2.487   1.217  0.3344  0.4679 -0.4751
  642SOL    HW2 2613   2.693   2.485   1.312 -0.5064  0.4246 -0.5740
  642SOL    HW3 2614   2.633   2.433   1.182  1.1281 -0.1945 -1.0955
  642SOL    MW4 2615   2.693   2.480   1.225  0.3281  0.3753 -0.5701
  643SOL     OW 2616   2.707   2.736   1.104  0.5771  0.2674  0.2193
  643SOL    HW2 2617   2.701   2.649   1.144 -0.3625  0.4509  0.4781
  643SOL    HW3 2618   2.636   2.786   1.143  1.4181  1.3131  0.4384
  643SOL    MW4 2619   2.697   2.731   1.115  0.5641  0.4296  0.2824
  644SOL     OW 2620   2.937   2.850   1.217 -0.2303  0.5001  0.3184
  644SOL    HW2 2621   2.942   2.838   1.312  1.0278  0.6625  0.2796
  644SOL    HW3 2622   2.859   2.801   1.191 -0.5480  0.3986  1.4260
  644SOL    MW4 2623   2.928   2.842   1.226 -0.1063  0.5081  0.4594
  645SOL     OW 2624   2.898   3.111   1.132  0.1228 -0.1110 -0.0179
  645SOL    HW2 2625   2.893   3.021   1.163 -1.4568  0.0466  0.2258
  645SOL    HW3 2626   2.885   3.105   1.037 -0.3224 -0.1133  0.0422
  645SOL    MW4 2627   2.895   3.099   1.124 -0.1445 -0.0904  0.0221
  646SOL     OW 2628   2.692   3.237   1.246 -0.5509  0.1558 -0.1888
  646SOL    HW2 2629   2.773   3.191   1.223 -0.6535 -0.3812  0.5106
  646SOL    HW3 2630   2.624   3.193   1.195 -0.4532  0.3862 -0.5175
  646SOL    MW4 2631   2.693   3.226   1.236 -0.5517  0.1156 -0.1398
  647SOL     OW 2632   2.723   3.507   1.132  0.1149  0.3796 -0.0790
  647SOL    HW2 2633   2.703   3.422   1.171  0.3859  0.4403  0.1996
  647SOL    HW3 2634   2.645   3.560   1.149 -0.3577 -0.0388 -0.9194
  647SOL    MW4 2635   2.710   3.503   1.139  0.0882  0.3324 -0.1532
  648SOL     OW 2636   2.925   3.648   1.243  0.2220  0.0564 -0.5511
  648SOL    HW2 2637   3.003   3.602   1.212  0.9672  0.3206  0.8782
  648SOL    HW3 2638   2.852   3.597   1.209  1.0280 -1.8123  0.4262
  648SOL    MW4 2639   2.926   3.635   1.234  0.4265 -0.1554 -0.2335
  649SOL     OW 2640   2.944   3.882   1.103 -0.1130  0.1588 -0.3801
  649SOL    HW2 2641   3.014   3.936   1.140  1.2826 -1.5616 -0.4405
  649SOL    HW3 2642   2.943   3.804   1.158 -0.1849 -0.9991 -1.9987
  649SOL    MW4 2643   2.954   3.879   1.115  0.0618 -0.2208 -0.6015
  650SOL     OW 2644   2.729   4.024   1.227  0.3635  0.1819  0.1813
  650SOL    HW2 2645   2.804   3.991   1.177 -0.6691 -1.2329 -0.4693
  650SOL    HW3 2646   2.654   3.977   1.191 -0.9063  1.8936  0.5216
  650SOL    MW4 2647   2.729   4.014   1.215  0.0596  0.2217  0.1403
  651SOL     OW 2648   2.689   4.298   1.107 -0.3350  0.3639  0.0004
  651SOL    HW2 2649   2.686   4.209   1.141 -0.2900  0.3136 -0.1266
  651SOL    HW3 2650   2.613   4.341   1.144  0.5011  0.7281  1.3179
  651SOL    MW4 2651   2.679   4.292   1.116 -0.2186  0.4058  0.1574
  652SOL     OW 2652   2.895   4.454   1.218  0.1140  0.0404 -0.2438
  652SOL    HW2 2653   2.978   4.408   1.205 -0.0101 -0.3006  0.1761
  652SOL    HW3 2654   2.829   4.397   1.180 -0.0218 -0.0551  0.1341
  652SOL    MW4 2655   2.897   4.440   1.211  0.0796 -0.0172 -0.1385
  653SOL     OW 2656   3.382   0.015   1.114  0.0088 -0.0269  0.4705
  653SOL    HW2 2657   3.456   0.066   1.147  0.2575 -0.0937  0.0263
  653SOL    HW3 2658   3.305   0.066   1.137  0.3745  1.7007 -1.9458
  653SOL    MW4 2659   3.381   0.028   1.121  0.0899  0.1922  0.0931
  654SOL     OW 2660   3.138   0.130   1.221 -0.5328  0.0951 -0.2763
  654SOL    HW2 2661   3.129   0.102   1.312 -0.7014  1.1015  0.0222
  654SOL    HW3 2662   3.052   0.115   1.182 -0.7220  0.5165 -0.0238
  654SOL    MW4 2663   3.126   0.124   1.228 -0.5798  0.2835 -0.2036
  655SOL     OW 2664   3.182   0.372   1.106 -0.2392 -0.1995  0.6242
  655SOL    HW2 2665   3.195   0.283   1.139 -0.6601 -0.9063 -1.0421
  655SOL    HW3 2666   3.108   0.406   1.156  1.0565 -0.1152  2.5295
  655SOL    MW4 2667   3.174   0.365   1.117 -0.1237 -0.2816  0.6558
  656SOL     OW 2668   3.400   0.515   1.201 -0.0133  0.1655  0.3594
  656SOL    HW2 2669   3.380   0.603   1.170 -0.5526 -0.2762 -0.5734
  656SOL    HW3 2670   3.327   0.461   1.171  0.9603 -0.8472 -0.2660
  656SOL    MW4 2671   3.388   0.519   1.193  0.0439 -0.0264  0.1540
  657SOL     OW 2672   3.340   0.766   1.121 -0.0667  0.3228 -0.2904
  657SOL    HW2 2673   3.261   0.812   1.147 -0.6637 -0.8022 -0.0828
  657SOL    HW3 2674   3.340   0.770   1.025 -0.9093 -0.5504 -0.3329
  657SOL    MW4 2675   3.330   0.772   1.112 -0.2568  0.0591 -0.2687
  658SOL     OW 2676   3.115   0.911   1.190 -0.1230  0.2516 -0.2724
  658SOL    HW2 2677   3.106   0.914   1.285  0.0009 -1.1484 -0.2088
  658SOL    HW3 2678   3.122   1.003   1.163  0.7156  0.6077  1.1505
  658SOL    MW4 2679   3.115   0.924   1.199  0.0041  0.1138 -0.0761
  659SOL     OW 2680   3.190   1.178   1.096  0.0825 -0.6546 -0.0091
  659SOL    HW2 2681   3.253   1.243   1.127 -0.7162  0.3365 -0.4426
  659SOL    HW3 2682   3.104   1.217   1.113 -0.3960 -0.7100 -2.1201
  659SOL    MW4 2683   3.187   1.192   1.102 -0.0861 -0.5312 -0.3448
  660SOL     OW 2684   3.414   1.313   1.191 -0.2943  0.3219  0.1018
  660SOL    HW2 2685   3.400   1.308   1.286 -2.1692  2.1214 -0.0513
  660SOL    HW3 2686   3.400   1.405   1.169 -0.0177 -0.1010 -1.9582
  660SOL    MW4 2687   3.410   1.324   1.201 -0.5050  0.5037 -0.1903
  661SOL     OW 2688   3.387   1.568   1.080 -0.1211 -0.2023  0.0068
  661SOL    HW2 2689   3.453   1.595   1.143 -0.3068  1.2461 -0.4083
  661SOL    HW3 2690   3.305   1.601   1.116 -0.0701  1.7514 -1.6204
  661SOL    MW4 2691   3.385   1.576   1.093 -0.1388  0.2465 -0.2626
  662SOL     OW 2692   3.128   1.624   1.175 -0.1987  0.3113  0.1972
  662SOL    HW2 2693   3.149   1.629   1.268 -0.9874  1.3714  0.3315
  662SOL    HW3 2694   3.117   1.716   1.149 -0.7100 -0.0201 -0.7673
  662SOL    MW4 2695   3.129   1.637   1.184 -0.3698  0.4076  0.0877
  663SOL     OW 2696   3.125   1.876   1.068 -0.4210 -0.4330 -0.1679
  663SOL    HW2 2697   3.197   1.928   1.102 -0.7995  0.6746 -1.0505
  663SOL    HW3 2698   3.046   1.921   1.098 -0.7611  0.4616 -2.3159
  663SOL    MW4 2699   3.124   1.889   1.077 -0.5157 -0.1688 -0.5678
  664SOL     OW 2700   3.307   2.043   1.194  0.0741  0.5106 -0.2303
  664SOL    HW2 2701   3.383   2.005   1.151 -0.1034  1.3519 -1.3027
  664SOL    HW3 2702   3.305   2.133   1.163  0.8103  1.5890  2.6935
  664SOL    MW4 2703   3.317   2.050   1.185  0.1478  0.7639  0.0139
  665SOL     OW 2704   3.344   2.296   1.100  0.0300  0.1799  0.4486
  665SOL    HW2 2705   3.416   2.339   1.146  0.4693 -0.3086  0.2259
  665SOL    HW3 2706   3.265   2.339   1.133  0.2380 -1.1436  2.7264
  665SOL    MW4 2707   3.343   2.308   1.110  0.1154 -0.0591  0.7198
  666SOL     OW 2708   3.137   2.447   1.218  0.0309  0.1242 -0.6674
  666SOL    HW2 2709   3.166   2.438   1.309 -0.3560 -1.6320 -0.7165
  666SOL    HW3 2710   3.151   2.540   1.199 -0.9519  0.7801  1.5463
  666SOL    MW4 2711   3.143   2.458   1.228 -0.1500 -0.0210 -0.3819
  667SOL     OW 2712   3.158   2.714   1.146 -0.4252 -0.5700  0.0475
  667SOL    HW2 2713   3.086   2.772   1.170 -0.8264 -0.9914 -0.1259
  667SOL    HW3 2714   3.151   2.705   1.051  1.0589  0.9580 -0.2292
  667SOL    MW4 2715   3.148   2.721   1.137 -0.2823 -0.4241 -0.0119
  668SOL     OW 2716   3.387   2.836   1.248 -0.0930 -0.0521  0.4978
  668SOL    HW2 2717   3.372   2.920   1.204  0.1120  0.0971  0.7125
  668SOL    HW3 2718   3.308   2.785   1.230 -1.0399  0.8659  1.9402
  668SOL    MW4 2719   3.375   2.840   1.240 -0.1910  0.0889  0.7163
  669SOL     OW 2720   3.352   3.090   1.098  0.0674 -0.4421 -0.6357
  669SOL    HW2 2721   3.426   3.122   1.149 -0.6353  0.3372 -0.0910
  669SOL    HW3 2722   3.275   3.113   1.150 -0.5571 -1.2788 -1.1754
  669SOL    MW4 2723   3.352   3.098   1.111 -0.1075 -0.4497 -0.6349
  670SOL     OW 2724   3.142   3.195   1.243 -0.0370 -0.0769 -0.1964
  670SOL    HW2 2725   3.149   3.287   1.216 -1.1936 -0.0010 -0.2704
  670SOL    HW3 2726   3.059   3.166   1.206 -0.7410 -0.5217  1.7035
  670SOL    MW4 2727   3.132   3.203   1.234 -0.2828 -0.1254  0.0445
  671SOL     OW 2728   3.145   3.479   1.152  0.1827 -0.8990  0.0064
  671SOL    HW2 2729   3.229   3.523   1.164 -0.2542 -0.0802  0.0559
  671SOL    HW3 2730   3.136   3.469   1.057 -0.6235  0.8751 -0.1109
  671SOL    MW4 2731   3.155   3.483   1.141  0.0186 -0.5569 -0.0026
  672SOL     OW 2732   3.379   3.608   1.197 -0.2527  0.2703 -0.1028
  672SOL    HW2 2733   3.396   3.603   1.291  0.1548 -0.8281 -0.2324
  672SOL    HW3 2734   3.445   3.551   1.157 -0.3230  0.8499 -1.0676
  672SOL    MW4 2735   3.390   3.600   1.204 -0.2084  0.2017 -0.2472
  673SOL     OW 2736   3.366   3.890   1.124 -0.0896 -0.0637 -0.4903
  673SOL    HW2 2737   3.291   3.936   1.160  1.0349  0.6656  0.9429
  673SOL    HW3 2738   3.357   3.800   1.157 -1.0576 -0.3455 -1.4613
  673SOL    MW4 2739   3.355   3.884   1.133 -0.0689 -0.0048 -0.4293
  674SOL     OW 2740   3.157   4.020   1.236 -0.1244 -0.1423 -0.5005
  674SOL    HW2 2741   3.172   4.005   1.329 -3.0666  0.0310  0.0351
  674SOL    HW3 2742   3.161   4.115   1.226 -0.4852 -0.1199 -0.4294
  674SOL    MW4 2743   3.160   4.031   1.247 -0.5603 -0.1168 -0.4205
  675SOL     OW 2744   3.124   4.292   1.146 -0.0942  0.3835 -0.0809
  675SOL    HW2 2745   3.192   4.344   1.188 -0.2949 -0.4952  1.3912
  675SOL    HW3 2746   3.116   4.328   1.058 -1.8896  4.4013  1.6294
  675SOL    MW4 2747   3.132   4.303   1.140 -0.3576  0.7977  0.3390
  676SOL     OW 2748   3.357   4.425   1.231 -0.1881 -0.1958  0.6315
  676SOL    HW2 2749   3.440   4.378   1.219 -0.2365  0.1651 -1.3764
  676SOL    HW3 2750   3.375   4.514   1.199 -0.7235  0.5262  2.3045
  676SOL    MW4 2751   3.370   4.431   1.225 -0.2649 -0.0529  0.5876
  677SOL     OW 2752   3.815   4.651   1.117 -0.6768 -0.1463 -0.4162
  677SOL    HW2 2753   3.810   4.561   1.149 -0.9355 -0.2839 -0.8288
  677SOL    HW3 2754   3.815   4.642   1.021  0.4645  0.2404 -0.4576
  677SOL    MW4 2755   3.814   4.638   1.108 -0.5605 -0.1135 -0.4761
  678SOL     OW 2756   3.614   0.152   1.229  0.0010 -0.0999 -0.0717
  678SOL    HW2 2757   3.624   0.232   1.177  2.4722  0.4641  1.2223
  678SOL    HW3 2758   3.683   0.094   1.197 -0.1888 -0.7726  0.7190
  678SOL    MW4 2759   3.624   0.155   1.218  0.3023 -0.1143  0.2034
  679SOL     OW 2760   3.613   0.421   1.048  0.4711 -0.6296  0.6283
  679SOL    HW2 2761   3.692   0.465   1.079  0.6652 -0.6735  0.2056
  679SOL    HW3 2762   3.543   0.454   1.104  0.4277  1.0531 -0.3715
  679SOL    MW4 2763   3.614   0.431   1.059  0.4911 -0.4134  0.4406
  680SOL     OW 2764   3.804   0.527   1.213  0.0303 -0.3310 -0.3370
  680SOL    HW2 2765   3.881   0.480   1.179 -0.2916 -0.3261 -1.0813
  680SOL    HW3 2766   3.808   0.612   1.170  0.7818  0.4538  1.2336
  680SOL    MW4 2767   3.815   0.532   1.203  0.0873 -0.2269 -0.2279
  681SOL     OW 2768   3.808   0.779   1.104 -0.1099 -0.2026 -0.0570
  681SOL    HW2 2769   3.870   0.836   1.149  0.6308 -0.4273 -0.7990
  681SOL    HW3 2770   3.722   0.810   1.132  0.2442  2.0694 -1.4222
  681SOL    MW4 2771   3.805   0.790   1.114  0.0346  0.0675 -0.3350
  682SOL     OW 2772   3.578   0.905   1.194  0.0340 -0.1557 -0.2958
  682SOL    HW2 2773   3.580   0.985   1.141 -0.6140  0.3833  0.4888
  682SOL    HW3 2774   3.489   0.871   1.183 -0.1508  0.0461  0.5775
  682SOL    MW4 2775   3.567   0.911   1.185 -0.0761 -0.0580 -0.0772
  683SOL     OW 2776   3.603   1.169   1.062 -0.0956  0.3928  0.1177
  683SOL    HW2 2777   3.676   1.198   1.117 -0.4169 -0.4922  1.0431
  683SOL    HW3 2778   3.527   1.217   1.097 -0.2718 -0.0527  0.3531
  683SOL    MW4 2779   3.602   1.179   1.074 -0.1612  0.2172  0.2711
  684SOL     OW 2780   3.820   1.284   1.199 -0.1891 -0.1070  0.0787
  684SOL    HW2 2781   3.822   1.269   1.294  0.8650  0.3555  0.1463
  684SOL    HW3 2782   3.799   1.377   1.190  1.4879  0.2697 -0.0785
  684SOL    MW4 2783   3.818   1.294   1.211  0.1709  0.0037  0.0669
  685SOL     OW 2784   3.789   1.540   1.116 -0.1435 -0.2957 -0.0031
  685SOL    HW2 2785   3.861   1.595   1.147 -1.0863  0.7833  0.3330
  685SOL    HW3 2786   3.810   1.521   1.025  1.0922 -0.8866  0.3972
  685SOL    MW4 2787   3.801   1.545   1.108 -0.1049 -0.2313  0.0941
  686SOL     OW 2788   3.578   1.691   1.229  0.5442 -0.4356 -0.2100
  686SOL    HW2 2789   3.571   1.772   1.178  2.4955 -0.4687 -0.5804
  686SOL    HW3 2790   3.649   1.642   1.187  2.0753 -0.5689  2.3727
  686SOL    MW4 2791   3.586   1.695   1.217  1.0037 -0.4576  0.0818
  687SOL     OW 2792   3.551   1.940   1.110 -0.5440 -0.5468 -0.0407
  687SOL    HW2 2793   3.635   1.981   1.132  0.7695 -2.5540 -1.2132
  687SOL    HW3 2794   3.552   1.933   1.014 -1.3211 -2.1228  0.0606
  687SOL    MW4 2795   3.562   1.945   1.100 -0.4733 -1.0197 -0.1820
  688SOL     OW 2796   3.809   2.031   1.197  0.1030  0.7471  0.3397
  688SOL    HW2 2797   3.806   2.042   1.292  1.0346  0.3238  0.4301
  688SOL    HW3 2798   3.900   2.005   1.179 -0.4368 -0.6105 -0.5043
  688SOL    MW4 2799   3.821   2.029   1.207  0.1550  0.5121  0.2403
  689SOL     OW 2800   3.830   2.315   1.139  1.0962  0.1533  0.1978
  689SOL    HW2 2801   3.919   2.338   1.163  1.6152 -0.6912 -0.8672
  689SOL    HW3 2802   3.829   2.219   1.134  0.3915  0.1885 -0.6840
  689SOL    MW4 2803   3.841   2.305   1.141  1.0717  0.0465 -0.0591
  690SOL     OW 2804   3.581   2.423   1.215  0.0653 -0.3721 -0.2449
  690SOL    HW2 2805   3.585   2.417   1.311 -1.2992 -1.5421 -0.2347
  690SOL    HW3 2806   3.665   2.389   1.185  0.2440 -0.6137  0.5178
  690SOL    MW4 2807   3.592   2.418   1.224 -0.0911 -0.5584 -0.1429
  691SOL     OW 2808   3.597   2.674   1.111 -0.3171 -0.0221 -0.1890
  691SOL    HW2 2809   3.601   2.590   1.156  0.4159  0.5234  0.8066
  691SOL    HW3 2810   3.519   2.717   1.146 -0.1117  0.1301  0.0919
  691SOL    MW4 2811   3.587   2.669   1.122 -0.1931  0.0701 -0.0205
  692SOL     OW 2812   3.834   2.812   1.222  0.3904 -0.1404  0.3716
  692SOL    HW2 2813   3.825   2.794   1.316  0.0073 -0.0568  0.3506
  692SOL    HW3 2814   3.761   2.764   1.182 -0.0261  0.6277  0.2140
  692SOL    MW4 2815   3.823   2.803   1.229  0.2847 -0.0281  0.3481
  693SOL     OW 2816   3.795   3.076   1.127  0.3677  0.3085 -0.0076
  693SOL    HW2 2817   3.823   2.986   1.143  0.0547 -0.0388 -1.3225
  693SOL    HW3 2818   3.793   3.083   1.031 -0.0882  1.5629  0.0913
  693SOL    MW4 2819   3.799   3.065   1.116  0.2661  0.4282 -0.1681
  694SOL     OW 2820   3.584   3.209   1.222 -0.0267 -0.2937 -0.1651
  694SOL    HW2 2821   3.599   3.289   1.172 -1.8287 -0.6761 -1.3808
  694SOL    HW3 2822   3.656   3.151   1.197  0.5342  0.4671 -0.3150
  694SOL    MW4 2823   3.596   3.212   1.212 -0.1905 -0.2439 -0.3452
  695SOL     OW 2824   3.588   3.458   1.103 -0.1539 -0.0648 -0.7628
  695SOL    HW2 2825   3.655   3.509   1.148  0.2302  0.3740 -1.8310
  695SOL    HW3 2826   3.594   3.485   1.012 -1.5875 -0.2435 -0.9152
  695SOL    MW4 2827   3.598   3.468   1.097 -0.2923 -0.0305 -0.9238
  696SOL     OW 2828   3.803   3.594   1.211  0.0353 -0.5175  0.0980
  696SOL    HW2 2829   3.804   3.596   1.307  1.1734  0.7716  0.0594
  696SOL    HW3 2830   3.809   3.685   1.184  0.6052 -0.9264 -1.2157
  696SOL    MW4 2831   3.804   3.606   1.220  0.2606 -0.4017 -0.0805
  697SOL     OW 2832   3.827   3.885   1.147 -0.1215  0.1337 -0.0391
  697SOL    HW2 2833   3.745   3.920   1.182 -0.1608 -0.7580  0.8039
  697SOL    HW3 2834   3.808   3.867   1.055 -0.7428  0.3389  0.0465
  697SOL    MW4 2835   3.814   3.887   1.140 -0.2089  0.0429  0.0834
  698SOL     OW 2836   3.598   3.984   1.255  0.8020  0.2571  0.2710
  698SOL    HW2 2837   3.604   3.988   1.350  0.9432  1.7449  0.2059
  698SOL    HW3 2838   3.506   3.964   1.238  0.4947  1.2638  0.6977
  698SOL    MW4 2839   3.587   3.982   1.265  0.7801  0.5863  0.3186
  699SOL     OW 2840   3.573   4.247   1.165 -0.1602 -0.2137  0.1200
  699SOL    HW2 2841   3.565   4.154   1.184  1.6601 -0.6989 -1.3417
  699SOL    HW3 2842   3.570   4.253   1.070  1.4068  1.0100  0.1125
  699SOL    MW4 2843   3.572   4.236   1.155  0.2866 -0.1163 -0.0738
  700SOL     OW 2844   3.814   4.397   1.231 -0.1360 -0.4647 -0.2541
  700SOL    HW2 2845   3.807   4.408   1.326  1.4128  0.6623 -0.2596
  700SOL    HW3 2846   3.755   4.324   1.212  0.0995 -1.2000  1.6634
  700SOL    MW4 2847   3.805   4.389   1.241  0.0994 -0.4129 -0.0018
  701SOL     OW 2848   4.270   4.621   1.097  0.0545  0.4581  0.1097
  701SOL    HW2 2849   4.272   4.539   1.146  0.0456  0.0797 -0.5168
  701SOL    HW3 2850   4.204   4.674   1.142  1.4391  0.8791  1.6930
  701SOL    MW4 2851   4.262   4.617   1.110  0.2365  0.4644  0.2360
  702SOL     OW 2852   4.058   0.081   1.202  0.3265 -0.2509  0.2536
  702SOL    HW2 2853   4.044   0.116   1.290  0.2635  0.6164 -0.0958
  702SOL    HW3 2854   3.972   0.046   1.177 -0.2888  1.6515 -0.3890
  702SOL    MW4 2855   4.045   0.081   1.210  0.2370  0.1146  0.1227
  703SOL     OW 2856   4.029   0.367   1.130 -0.2518  0.6478 -0.3145
  703SOL    HW2 2857   4.047   0.277   1.155  0.0794  1.0028  0.7443
  703SOL    HW3 2858   4.030   0.366   1.034  0.4684 -0.3251 -0.3039
  703SOL    MW4 2859   4.031   0.355   1.121 -0.1130  0.5663 -0.1733
  704SOL     OW 2860   4.249   0.548   1.180  0.4154  0.2307 -0.1969
  704SOL    HW2 2861   4.263   0.546   1.275  0.0745  1.1311 -0.1246
  704SOL    HW3 2862   4.179   0.485   1.165  0.5719 -0.0249  0.1311
  704SOL    MW4 2863   4.242   0.540   1.190  0.3915  0.3157 -0.1440
  705SOL     OW 2864   4.237   0.813   1.110  0.0164 -0.4539 -0.2826
  705SOL    HW2 2865   4.253   0.724   1.143  0.5768 -0.2468  0.0095
  705SOL    HW3 2866   4.202   0.799   1.022 -0.0236 -0.9708 -0.1913
  705SOL    MW4 2867   4.234   0.799   1.102  0.0849 -0.4948 -0.2320
  706SOL     OW 2868   4.017   0.922   1.221  0.2169  0.3407 -0.0655
  706SOL    HW2 2869   4.006   0.908   1.315 -1.6367  1.0273 -0.1458
  706SOL    HW3 2870   4.093   0.869   1.197  0.5967  0.0150  1.7829
  706SOL    MW4 2871   4.025   0.913   1.230  0.0224  0.3884  0.1678
  707SOL     OW 2872   4.052   1.157   1.077  0.1157  0.3091 -0.2221
  707SOL    HW2 2873   4.047   1.075   1.126  0.5802 -0.6951 -1.8328
  707SOL    HW3 2874   3.977   1.208   1.108 -0.5723 -0.9975  0.3083
  707SOL    MW4 2875   4.041   1.153   1.087  0.0854  0.0043 -0.3647
  708SOL     OW 2876   4.279   1.291   1.175  0.2209 -0.0056 -0.6817
  708SOL    HW2 2877   4.287   1.297   1.271 -0.1279 -1.0579 -0.5840
  708SOL    HW3 2878   4.203   1.235   1.161  0.1449  0.3209 -1.5846
  708SOL    MW4 2879   4.270   1.284   1.186  0.1650 -0.1013 -0.7880
  709SOL     OW 2880   4.258   1.554   1.090 -0.1952  0.0898  0.4072
  709SOL    HW2 2881   4.260   1.462   1.116  0.7445 -0.3454 -1.1165
  709SOL    HW3 2882   4.343   1.588   1.119 -0.4149  0.3963  0.6885
  709SOL    MW4 2883   4.270   1.546   1.097 -0.1001  0.0730  0.2434
  710SOL     OW 2884   4.022   1.675   1.213 -0.3265 -0.1259 -0.2437
  710SOL    HW2 2885   4.036   1.686   1.307  0.3665  1.4110 -0.5212
  710SOL    HW3 2886   4.101   1.629   1.183  0.0346  0.5269 -0.2923
  710SOL    MW4 2887   4.035   1.670   1.221 -0.1874  0.1631 -0.2867
  711SOL     OW 2888   4.053   1.945   1.130  0.3727 -0.5411  0.5830
  711SOL    HW2 2889   4.032   1.860   1.168 -1.3667  0.0678  1.0449
  711SOL    HW3 2890   4.048   1.932   1.036 -1.0323 -0.6951  0.6668
  711SOL    MW4 2891   4.050   1.932   1.123 -0.0415 -0.4810  0.6548
  712SOL     OW 2892   4.306   2.039   1.249  0.0912 -0.0798  0.1302
  712SOL    HW2 2893   4.320   2.120   1.200 -0.4533 -1.1475 -1.8588
  712SOL    HW3 2894   4.215   2.015   1.230  0.2742 -1.2037  0.6241
  712SOL    MW4 2895   4.296   2.047   1.240  0.0434 -0.3691 -0.0671
  713SOL     OW 2896   4.285   2.300   1.103 -0.1532  0.4893  0.5681
  713SOL    HW2 2897   4.202   2.334   1.136 -0.8850  1.1054 -1.8296
  713SOL    HW3 2898   4.283   2.318   1.009  2.4676  0.0317  0.3890
  713SOL    MW4 2899   4.274   2.307   1.095  0.0963  0.5102  0.2282
  714SOL     OW 2900   4.068   2.423   1.226 -0.1521  0.1619  0.1024
  714SOL    HW2 2901   4.054   2.428   1.321 -0.4743 -0.7224  0.1054
  714SOL    HW3 2902   4.063   2.514   1.197  1.0327  0.5570  1.0842
  714SOL    MW4 2903   4.066   2.436   1.235 -0.0386  0.0970  0.2323
  715SOL     OW 2904   4.055   2.696   1.119  1.1348  0.4906  0.5521
  715SOL    HW2 2905   3.972   2.735   1.147  1.6203  1.0245  1.3032
  715SOL    HW3 2906   4.051   2.694   1.024  0.1171  0.1857  0.6017
  715SOL    MW4 2907   4.044   2.701   1.110  1.0643  0.5209  0.6578
  716SOL     OW 2908   4.292   2.826   1.186 -0.1842  0.6635 -0.3007
  716SOL    HW2 2909   4.277   2.917   1.162 -0.4619  0.6149 -0.3134
  716SOL    HW3 2910   4.206   2.784   1.176 -0.0293  0.3739 -0.4161
  716SOL    MW4 2911   4.278   2.833   1.182 -0.2007  0.6185 -0.3177
  717SOL     OW 2912   4.245   3.109   1.117  0.0364 -0.4132  0.0356
  717SOL    HW2 2913   4.168   3.157   1.147  0.7648  0.9539 -0.2350
  717SOL    HW3 2914   4.242   3.114   1.022  1.5336  1.4479  0.0481
  717SOL    MW4 2915   4.235   3.116   1.109  0.3309  0.0129  0.0014
  718SOL     OW 2916   4.020   3.229   1.216  0.2553 -0.4152  0.3486
  718SOL    HW2 2917   4.038   3.200   1.305  0.0102  1.5735  1.0584
  718SOL    HW3 2918   3.933   3.194   1.196  0.4784 -1.2000  0.7438
  718SOL    MW4 2919   4.011   3.220   1.225  0.2522 -0.2563  0.4944
  719SOL     OW 2920   4.058   3.486   1.156  0.1734  0.4475  0.1732
  719SOL    HW2 2921   4.042   3.394   1.175 -0.5194  0.0943 -2.0351
  719SOL    HW3 2922   3.986   3.532   1.198  0.2440 -0.0402  0.8421
  719SOL    MW4 2923   4.047   3.480   1.164  0.0916  0.3364 -0.0298
  720SOL     OW 2924   4.266   3.637   1.241  0.3171 -0.6656  0.1149
  720SOL    HW2 2925   4.201   3.582   1.196  2.0537 -1.6909 -1.2048
  720SOL    HW3 2926   4.349   3.590   1.230  1.1731  0.2332  2.4558
  720SOL    MW4 2927   4.268   3.624   1.234  0.6590 -0.6826  0.2495
  721SOL     OW 2928   4.273   3.864   1.086 -0.1311 -0.6665  0.0708
  721SOL    HW2 2929   4.204   3.922   1.117  0.3181 -0.4228  0.6194
  721SOL    HW3 2930   4.268   3.788   1.144  0.6803 -0.2311  0.7126
  721SOL    MW4 2931   4.263   3.861   1.098  0.0348 -0.5770  0.2279
  722SOL     OW 2932   4.069   3.988   1.199  0.3965  0.5451  0.2110
  722SOL    HW2 2933   4.070   4.074   1.158 -1.3753  0.4478 -0.0675
  722SOL    HW3 2934   3.985   3.950   1.174  1.7648 -1.8968 -0.9281
  722SOL    MW4 2935   4.058   3.994   1.190  0.3428  0.2103  0.0240
  723SOL     OW 2936   4.041   4.262   1.152 -0.6974 -0.6780 -0.0480
  723SOL    HW2 2937   3.967   4.311   1.185 -0.3718  0.4297 -0.9407
  723SOL    HW3 2938   4.045   4.283   1.059  0.1418 -1.4936 -0.2099
  723SOL    MW4 2939   4.032   4.271   1.144 -0.5431 -0.6390 -0.1870
  724SOL     OW 2940   4.276   4.389   1.257 -0.0327  0.3054 -0.6593
  724SOL    HW2 2941   4.192   4.351   1.231  0.4133 -1.5533  0.5588
  724SOL    HW3 2942   4.342   4.331   1.218  0.6631  0.3188  0.4807
  724SOL    MW4 2943   4.274   4.376   1.248  0.1178  0.0620 -0.3481
  725SOL     OW 2944   0.235   4.626   1.608 -0.1538 -0.2811 -0.0991
  725SOL    HW2 2945   0.318   4.668   1.585  0.3358 -1.1306  0.0824
  725SOL    HW3 2946   0.170   4.673   1.556  0.7896 -1.4093 -2.4174
  725SOL    MW4 2947   0.238   4.638   1.598  0.0353 -0.5422 -0.3811
  726SOL     OW 2948   0.007   0.068   1.502 -0.0909 -0.2745 -0.1639
  726SOL    HW2 2949  -0.074   0.032   1.540  0.5241 -1.1242  0.3562
  726SOL    HW3 2950  -0.010   0.069   1.408 -0.9103  0.0494 -0.0169
  726SOL    MW4 2951  -0.006   0.063   1.495 -0.1179 -0.3439 -0.0759
  727SOL     OW 2952   4.483   0.341   1.554  0.0496 -0.5333  0.3992
  727SOL    HW2 2953   4.486   0.351   1.649 -1.0473 -0.2459  0.4093
  727SOL    HW3 2954   4.474   0.246   1.540 -2.7461 -0.3655  0.6910
  727SOL    MW4 2955   4.482   0.330   1.564 -0.4640 -0.4732  0.4390
  728SOL     OW 2956   0.216   0.468   1.502 -0.0426 -0.0189  0.0196
  728SOL    HW2 2957   0.139   0.412   1.510 -0.3268  0.6030  1.8645
  728SOL    HW3 2958   0.229   0.478   1.408 -1.8079 -0.6709 -0.3085
  728SOL    MW4 2959   0.208   0.462   1.491 -0.3130 -0.0229  0.2197
  729SOL     OW 2960   0.212   0.742   1.611  0.1581 -0.2027  0.2467
  729SOL    HW2 2961   0.286   0.779   1.562 -0.8934  0.5747 -0.7807
  729SOL    HW3 2962   0.202   0.653   1.576 -0.6880  0.4011 -1.1029
  729SOL    MW4 2963   0.221   0.735   1.600 -0.0923 -0.0204 -0.0669
  730SOL     OW 2964   4.490   0.890   1.467  0.2811  0.2553 -0.1347
  730SOL    HW2 2965   4.491   0.974   1.513 -0.4335 -0.2197  0.7471
  730SOL    HW3 2966   4.564   0.842   1.503 -0.7092 -0.3986  1.0615
  730SOL    MW4 2967   4.500   0.895   1.478  0.0563  0.1062  0.1395
  731SOL     OW 2968   0.003   1.151   1.602 -0.0386 -0.7311 -0.0064
  731SOL    HW2 2969   0.021   1.128   1.693 -0.1153 -0.4133  0.0920
  731SOL    HW3 2970   0.085   1.189   1.571  0.6540 -2.7527 -0.7040
  731SOL    MW4 2971   0.016   1.153   1.610  0.0424 -0.9557 -0.0855
  732SOL     OW 2972   0.220   1.257   1.505 -0.3195  0.0095  0.4317
  732SOL    HW2 2973   0.246   1.345   1.533  1.5279 -0.0915 -0.8462
  732SOL    HW3 2974   0.211   1.264   1.410 -0.2373 -1.1693  0.3331
  732SOL    MW4 2975   0.222   1.270   1.496 -0.0649 -0.1595  0.2501
  733SOL     OW 2976   0.258   1.519   1.612  0.8979  0.1133  0.4567
  733SOL    HW2 2977   0.250   1.533   1.707 -0.1697  0.3497  0.3395
  733SOL    HW3 2978   0.175   1.551   1.576  0.4678 -1.8237 -0.3487
  733SOL    MW4 2979   0.246   1.525   1.620  0.7003 -0.1110  0.3349
  734SOL     OW 2980   0.033   1.644   1.484  0.6208  0.2327  0.2862
  734SOL    HW2 2981   0.021   1.735   1.508  1.0348  0.4987 -0.4740
  734SOL    HW3 2982   0.027   1.644   1.388  0.7259 -0.5157  0.2768
  734SOL    MW4 2983   0.030   1.656   1.474  0.6895  0.1690  0.1847
  735SOL     OW 2984   4.477   1.892   1.614 -0.0571 -0.3396  0.8903
  735SOL    HW2 2985   4.480   1.908   1.709 -0.0006  1.0226  0.6679
  735SOL    HW3 2986   4.404   1.945   1.583 -0.3389 -1.1060  0.2221
  735SOL    MW4 2987   4.468   1.901   1.623 -0.0868 -0.2611  0.7728
  736SOL     OW 2988   0.213   2.047   1.549  0.0227  0.5012 -0.6002
  736SOL    HW2 2989   0.136   1.994   1.570 -0.3467  1.5214  0.7597
  736SOL    HW3 2990   0.204   2.068   1.456 -0.1058 -1.3297 -1.0200
  736SOL    MW4 2991   0.202   2.043   1.540 -0.0430  0.3943 -0.4762
  737SOL     OW 2992   0.237   2.309   1.634  0.2542  0.0882 -0.2718
  737SOL    HW2 2993   0.242   2.306   1.729 -1.6542 -0.8182 -0.1751
  737SOL    HW3 2994   0.239   2.217   1.607  0.5786  0.3319 -1.0947
  737SOL    MW4 2995   0.238   2.297   1.643  0.0452  0.0007 -0.3676
  738SOL     OW 2996   0.031   2.431   1.503  0.2445 -0.2491  0.1736
  738SOL    HW2 2997  -0.046   2.397   1.547 -0.1474  0.7415  0.2610
  738SOL    HW3 2998   0.104   2.385   1.544 -0.2023 -0.1970  1.0426
  738SOL    MW4 2999   0.031   2.421   1.514  0.1339 -0.1116  0.2999
  739SOL     OW 3000   4.489   2.697   1.594 -0.8991 -0.0690  0.0381
  739SOL    HW2 3001   4.430   2.750   1.541 -0.6366 -0.2668 -0.4492
  739SOL    HW3 3002   4.479   2.609   1.560 -0.2145 -0.0784 -0.1309
  739SOL    MW4 3003   4.480   2.693   1.583 -0.7742 -0.0963 -0.0485
  740SOL     OW 3004   0.220   2.840   1.516 -0.4819 -0.1057  0.3099
  740SOL    HW2 3005   0.303   2.795   1.532 -0.6438  0.4116  2.8865
  740SOL    HW3 3006   0.154   2.783   1.556 -1.2722 -0.1176 -1.0109
  740SOL    MW4 3007   0.223   2.827   1.524 -0.6075 -0.0389  0.4756
  741SOL     OW 3008   0.218   3.104   1.613 -0.0830 -0.4420 -0.0372
  741SOL    HW2 3009   0.133   3.148   1.613  0.0477 -0.1880 -0.0292
  741SOL    HW3 3010   0.199   3.015   1.586 -0.1553 -0.0005 -1.4552
  741SOL    MW4 3011   0.204   3.098   1.610 -0.0753 -0.3500 -0.2233
  742SOL     OW 3012   4.470   3.230   1.510  0.0056  0.3771 -0.1548
  742SOL    HW2 3013   4.477   3.320   1.543  0.9171  0.2427  0.0486
  742SOL    HW3 3014   4.481   3.238   1.415 -1.5378  0.6472 -0.3284
  742SOL    MW4 3015   4.473   3.243   1.502 -0.0778  0.3953 -0.1509
  743SOL     OW 3016   0.025   3.480   1.618 -0.1904  0.3890 -0.4602
  743SOL    HW2 3017   0.013   3.498   1.711  2.6586 -0.7532  0.1921
  743SOL    HW3 3018  -0.053   3.516   1.576 -1.3779  1.1970  2.3207
  743SOL    MW4 3019   0.013   3.487   1.625  0.0291  0.3450 -0.0072
  744SOL     OW 3020   0.255   3.609   1.540  0.1498 -0.3459  0.1888
  744SOL    HW2 3021   0.249   3.695   1.580  0.5791 -0.8165  1.2908
  744SOL    HW3 3022   0.172   3.566   1.562 -0.8519  0.4294 -1.9357
  744SOL    MW4 3023   0.243   3.615   1.548  0.0743 -0.3057  0.0540
  745SOL     OW 3024   0.218   3.847   1.641 -0.4704 -0.3564 -0.2385
  745SOL    HW2 3025   0.206   3.853   1.736 -0.0434 -1.5051 -0.1021
  745SOL    HW3 3026   0.302   3.891   1.625  0.2918 -1.6523  0.1373
  745SOL    MW4 3027   0.227   3.854   1.651 -0.3135 -0.6790 -0.1708
  746SOL     OW 3028   0.059   4.015   1.467 -0.0239 -0.0474  0.1338
  746SOL    HW2 3029   0.076   4.085   1.530  1.4382  1.0651 -1.4752
  746SOL    HW3 3030   0.102   3.938   1.504 -0.2782  0.2740  1.1175
  746SOL    MW4 3031   0.067   4.014   1.480  0.1354  0.1421  0.0514
  747SOL     OW 3032   0.065   4.235   1.639 -0.0506  0.1368  0.3533
  747SOL    HW2 3033   0.037   4.214   1.728 -2.3730 -2.5307 -0.9026
  747SOL    HW3 3034  -0.012   4.274   1.599  0.5676  0.1014 -0.8827
  747SOL    MW4 3035   0.051   4.237   1.646 -0.2754 -0.2198  0.0244
  748SOL     OW 3036   0.245   4.379   1.487  0.0466  0.5416 -0.2620
  748SOL    HW2 3037   0.181   4.331   1.539  0.8930  1.0081  1.2462
  748SOL    HW3 3038   0.245   4.467   1.524  1.4995  0.5647 -0.2822
  748SOL    MW4 3039   0.236   4.384   1.499  0.3500  0.6061 -0.0657
  749SOL     OW 3040   0.689   4.639   1.602 -0.0458 -0.1170  0.1037
  749SOL    HW2 3041   0.769   4.688   1.583  0.3460  0.0014  2.0489
  749SOL    HW3 3042   0.620   4.690   1.559  0.6464  0.9262  0.2006
  749SOL    MW4 3043   0.690   4.653   1.594  0.0972  0.0362  0.3732
  750SOL     OW 3044   0.477   0.094   1.501  0.3915  0.0820  0.5676
  750SOL    HW2 3045   0.472   0.179   1.545  0.5216 -0.0353  0.8082
  750SOL    HW3 3046   0.466   0.114   1.408 -1.1191  0.2014  0.7632
  750SOL    MW4 3047   0.475   0.108   1.494  0.2094  0.0823  0.6250
  751SOL     OW 3048   0.452   0.353   1.614  0.1264  0.5482  0.3369
  751SOL    HW2 3049   0.532   0.406   1.602  0.2090  0.5093  0.7084
  751SOL    HW3 3050   0.383   0.405   1.573  0.2136  0.9371  0.6721
  751SOL    MW4 3051   0.454   0.367   1.607  0.1488  0.5943  0.4301
  752SOL     OW 3052   0.675   0.492   1.533 -0.3129 -0.1476 -0.2791
  752SOL    HW2 3053   0.664   0.580   1.570  0.4718  0.1824 -0.8229
  752SOL    HW3 3054   0.677   0.506   1.438  1.8056 -0.5170 -0.3057
  752SOL    MW4 3055   0.673   0.505   1.525  0.0702 -0.1528 -0.3544
  753SOL     OW 3056   0.651   0.741   1.612  0.1327 -0.2304  0.4541
  753SOL    HW2 3057   0.645   0.738   1.707  0.1596  1.5249  0.5218
  753SOL    HW3 3058   0.735   0.782   1.594 -0.4840  0.7133 -0.3111
  753SOL    MW4 3059   0.661   0.746   1.622  0.0548  0.1256  0.3620
  754SOL     OW 3060   0.424   0.855   1.472  0.4673  0.3027 -0.5304
  754SOL    HW2 3061   0.417   0.938   1.519  0.5823 -0.2146  0.4143
  754SOL    HW3 3062   0.498   0.810   1.513  0.4008 -0.2717 -1.0267
  754SOL    MW4 3063   0.433   0.860   1.483  0.4736  0.1587 -0.4711
  755SOL     OW 3064   0.438   1.115   1.599  0.1616  0.1209 -0.0696
  755SOL    HW2 3065   0.520   1.163   1.584  0.3276  0.1358  0.8496
  755SOL    HW3 3066   0.369   1.178   1.576  0.3826  0.7027  0.8257
  755SOL    MW4 3067   0.440   1.130   1.594  0.2126  0.1997  0.1700
  756SOL     OW 3068   0.658   1.269   1.524 -0.4982 -0.2908  0.0349
  756SOL    HW2 3069   0.683   1.360   1.540 -1.4986  0.3076 -1.6314
  756SOL    HW3 3070   0.642   1.264   1.430 -0.9939 -2.0605  0.1759
  756SOL    MW4 3071   0.659   1.280   1.514 -0.6955 -0.4452 -0.1664
  757SOL     OW 3072   0.709   1.531   1.596  0.0455  0.2092 -0.2271
  757SOL    HW2 3073   0.787   1.580   1.570 -0.5221  2.2088  1.6902
  757SOL    HW3 3074   0.636   1.579   1.558 -0.3998 -0.2394  0.0443
  757SOL    MW4 3075   0.710   1.544   1.588 -0.0881  0.4139  0.0616
  758SOL     OW 3076   0.486   1.649   1.501 -0.0448 -0.0371  0.3735
  758SOL    HW2 3077   0.475   1.737   1.536 -0.9345 -0.4375  1.1528
  758SOL    HW3 3078   0.411   1.600   1.536 -0.7753 -0.5492 -1.8714
  758SOL    MW4 3079   0.475   1.654   1.510 -0.2586 -0.1575  0.1802
  759SOL     OW 3080   0.451   1.915   1.590 -0.1144 -0.7270 -0.0309
  759SOL    HW2 3081   0.455   1.915   1.686 -0.1344 -0.2548 -0.0299
  759SOL    HW3 3082   0.375   1.969   1.569  0.5969  0.1545 -0.3414
  759SOL    MW4 3083   0.441   1.922   1.600 -0.0232 -0.5486 -0.0719
  760SOL     OW 3084   0.677   2.071   1.476  0.1603 -0.3068 -0.4911
  760SOL    HW2 3085   0.750   2.015   1.501 -0.4870 -0.7427  0.4776
  760SOL    HW3 3086   0.599   2.017   1.492 -0.4775  0.8865  0.5669
  760SOL    MW4 3087   0.676   2.057   1.481 -0.0093 -0.2069 -0.2238
  761SOL     OW 3088   0.690   2.312   1.669 -0.0688  0.2394 -0.1073
  761SOL    HW2 3089   0.623   2.354   1.616 -0.9481 -0.4832  0.4209
  761SOL    HW3 3090   0.704   2.227   1.627  1.1052  0.7113 -0.6881
  761SOL    MW4 3091   0.683   2.306   1.656 -0.0299  0.2065 -0.1142
  762SOL     OW 3092   0.464   2.436   1.534 -0.5531  0.0127  0.0822
  762SOL    HW2 3093   0.469   2.529   1.556 -0.0083 -0.3391  1.4870
  762SOL    HW3 3094   0.384   2.405   1.577 -1.5194  0.1431 -1.5905
  762SOL    MW4 3095   0.454   2.444   1.543 -0.6087 -0.0165  0.0467
  763SOL     OW 3096   0.444   2.719   1.612  0.2086  0.7502 -0.4790
  763SOL    HW2 3097   0.446   2.710   1.708  0.1368  0.8241 -0.4708
  763SOL    HW3 3098   0.534   2.743   1.589  0.3917  0.0662 -0.4962
  763SOL    MW4 3099   0.456   2.721   1.622  0.2233  0.6697 -0.4803
  764SOL     OW 3100   0.707   2.810   1.524  0.9507  0.2054  0.0282
  764SOL    HW2 3101   0.697   2.902   1.548  0.1803 -0.3188  1.8425
  764SOL    HW3 3102   0.707   2.809   1.429  1.1706  2.1063  0.0025
  764SOL    MW4 3103   0.706   2.822   1.515  0.8781  0.3872  0.2642
  765SOL     OW 3104   0.660   3.062   1.621  0.1865 -0.0972 -0.5081
  765SOL    HW2 3105   0.727   3.124   1.592  0.2678  0.2808  0.4784
  765SOL    HW3 3106   0.578   3.098   1.589  0.5804 -1.4006 -3.1570
  765SOL    MW4 3107   0.658   3.075   1.613  0.2492 -0.2193 -0.7274
  766SOL     OW 3108   0.444   3.220   1.528  0.0598 -0.7130  0.0187
  766SOL    HW2 3109   0.366   3.170   1.549  0.2201 -1.4214 -1.0484
  766SOL    HW3 3110   0.446   3.224   1.433  1.2856 -0.6452  0.0333
  766SOL    MW4 3111   0.434   3.214   1.518  0.2427 -0.7975 -0.1202
  767SOL     OW 3112   0.469   3.486   1.651 -0.3649  0.0681 -0.0348
  767SOL    HW2 3113   0.463   3.399   1.614 -1.3712  0.0718  0.1117
  767SOL    HW3 3114   0.394   3.534   1.614  0.1304  0.8457 -0.0582
  767SOL    MW4 3115   0.458   3.481   1.641 -0.4324  0.1712 -0.0186
  768SOL     OW 3116   0.670   3.587   1.503 -0.8537 -0.1631  0.1554
  768SOL    HW2 3117   0.741   3.538   1.544  0.3201  2.4677  1.4090
  768SOL    HW3 3118   0.592   3.562   1.553 -0.1000  0.0018  1.4369
  768SOL    MW4 3119   0.669   3.578   1.515 -0.5994  0.2055  0.4898
  769SOL     OW 3120   0.669   3.851   1.638 -0.5207 -0.2632  0.1665
  769SOL    HW2 3121   0.740   3.906   1.603  0.6608 -0.2424  2.5076
  769SOL    HW3 3122   0.686   3.764   1.602 -0.2842  0.1105 -0.6424
  769SOL    MW4 3123   0.681   3.847   1.629 -0.3337 -0.2112  0.3685
  770SOL     OW 3124   0.432   3.955   1.531  0.2988  0.3056  0.1439
  770SOL    HW2 3125   0.513   3.914   1.560  0.0216 -0.0025  0.4825
  770SOL    HW3 3126   0.438   3.953   1.435 -1.0039 -3.1956  0.0630
  770SOL    MW4 3127   0.443   3.949   1.522  0.0904 -0.1972  0.1777
  771SOL     OW 3128   0.459   4.227   1.607 -0.4805 -0.4902  0.0840
  771SOL    HW2 3129   0.455   4.134   1.586  1.0423 -0.5472 -0.0377
  771SOL    HW3 3130   0.385   4.266   1.561 -0.6092 -1.5142 -0.5782
  771SOL    MW4 3131   0.449   4.220   1.598 -0.2965 -0.6323 -0.0194
  772SOL     OW 3132   0.684   4.367   1.498  0.1044 -0.3456  0.5828
  772SOL    HW2 3133   0.627   4.310   1.549  0.3934 -0.5733  0.6541
  772SOL    HW3 3134   0.665   4.455   1.529 -0.2372 -0.4169  0.5763
  772SOL    MW4 3135   0.674   4.371   1.509  0.0975 -0.3848  0.5914
  773SOL     OW 3136   1.157   4.620   1.584 -0.2808 -0.1903  0.1005
  773SOL    HW2 3137   1.150   4.654   1.674  0.1268 -1.8523  0.7750
  773SOL    HW3 3138   1.231   4.668   1.547 -1.5744  1.8272  0.0221
  773SOL    MW4 3139   1.166   4.631   1.591 -0.3978 -0.1435  0.1791
  774SOL     OW 3140   0.928   0.109   1.501  0.4383  0.4017  0.0913
  774SOL    HW2 3141   0.945   0.197   1.534 -1.3119  0.8692 -0.2305
  774SOL    HW3 3142   1.008   0.060   1.522  1.5126  2.1019  0.0782
  774SOL    MW4 3143   0.941   0.114   1.508  0.3491  0.6877  0.0472
  775SOL     OW 3144   0.919   0.353   1.636 -0.2257  0.2543 -0.2592
  775SOL    HW2 3145   0.914   0.347   1.731  1.0303  0.7908 -0.1508
  775SOL    HW3 3146   0.835   0.390   1.610  0.3194  2.3882  0.8629
  775SOL    MW4 3147   0.907   0.357   1.645  0.0120  0.6066 -0.0968
  776SOL     OW 3148   1.131   0.460   1.500  0.8107  0.5556 -0.1844
  776SOL    HW2 3149   1.135   0.553   1.523 -0.4668  0.8312 -1.0285
  776SOL    HW3 3150   1.061   0.425   1.554  2.4573 -0.3250  1.4341
  776SOL    MW4 3151   1.123   0.468   1.510  0.8594  0.4758 -0.0823
  777SOL     OW 3152   1.127   0.723   1.606  0.2685  0.0273  0.7108
  777SOL    HW2 3153   1.124   0.726   1.702 -0.2832 -0.9145  0.7257
  777SOL    HW3 3154   1.203   0.777   1.583  0.0177  0.7957  1.6428
  777SOL    MW4 3155   1.137   0.731   1.616  0.1627  0.0044  0.8357
  778SOL     OW 3156   0.898   0.867   1.541 -0.1433 -0.2070 -0.5044
  778SOL    HW2 3157   0.976   0.815   1.563 -0.1536  0.0688  0.1986
  778SOL    HW3 3158   0.897   0.869   1.446  1.4933  0.9522 -0.5109
  778SOL    MW4 3159   0.908   0.860   1.532  0.0713 -0.0176 -0.4125
  779SOL     OW 3160   0.907   1.141   1.635  0.1973  0.0236 -0.2806
  779SOL    HW2 3161   0.897   1.049   1.608 -1.6236 -0.4408  1.8415
  779SOL    HW3 3162   0.832   1.185   1.597  0.0337  0.2537  0.3112
  779SOL    MW4 3163   0.896   1.135   1.627 -0.0645 -0.0074  0.0775
  780SOL     OW 3164   1.106   1.295   1.515 -0.3114 -0.2787 -0.2448
  780SOL    HW2 3165   1.183   1.241   1.533 -0.5979 -1.2805 -1.9829
  780SOL    HW3 3166   1.032   1.241   1.542 -0.5214 -0.1739 -0.6074
  780SOL    MW4 3167   1.106   1.281   1.521 -0.3768 -0.3971 -0.5220
  781SOL     OW 3168   1.150   1.531   1.646 -0.6686 -0.3474 -0.6958
  781SOL    HW2 3169   1.222   1.574   1.599  0.2576 -0.0131  1.0019
  781SOL    HW3 3170   1.132   1.452   1.595  0.0242  0.2321 -1.8553
  781SOL    MW4 3171   1.157   1.526   1.633 -0.4551 -0.2269 -0.6247
  782SOL     OW 3172   0.931   1.660   1.502  0.0056 -0.4519  0.1305
  782SOL    HW2 3173   1.008   1.611   1.531 -0.9361 -1.1566  1.4599
  782SOL    HW3 3174   0.927   1.645   1.408  1.4540 -0.4644  0.0605
  782SOL    MW4 3175   0.941   1.652   1.494  0.0725 -0.5465  0.2967
  783SOL     OW 3176   0.875   1.927   1.588 -0.3788 -0.0753 -0.4544
  783SOL    HW2 3177   0.962   1.953   1.559 -1.0281  1.0089 -1.4672
  783SOL    HW3 3178   0.874   1.832   1.578  0.5183 -0.0369 -0.9292
  783SOL    MW4 3179   0.886   1.918   1.583 -0.3461  0.0730 -0.6506
  784SOL     OW 3180   1.113   2.036   1.507 -0.0685 -0.2201 -0.0852
  784SOL    HW2 3181   1.193   1.997   1.542 -0.3778 -1.0524 -0.2943
  784SOL    HW3 3182   1.119   2.128   1.531  0.1230 -0.6104  1.4379
  784SOL    MW4 3183   1.124   2.043   1.515 -0.0842 -0.3815  0.0881
  785SOL     OW 3184   1.111   2.327   1.553 -0.1442 -0.0304 -0.1127
  785SOL    HW2 3185   1.182   2.379   1.514  0.8290  0.3555  2.0598
  785SOL    HW3 3186   1.032   2.359   1.511  0.5732  2.3142  0.2203
  785SOL    MW4 3187   1.110   2.338   1.542  0.0789  0.3297  0.2178
  786SOL     OW 3188   0.859   2.439   1.489 -0.4563 -0.3948  0.1955
  786SOL    HW2 3189   0.885   2.514   1.543  0.3711 -0.6844  0.1992
  786SOL    HW3 3190   0.803   2.387   1.547  0.6478 -0.8486  0.8852
  786SOL    MW4 3191   0.855   2.442   1.504 -0.2015 -0.4926  0.2871
  787SOL     OW 3192   0.923   2.674   1.627  0.0982  0.6262  0.7954
  787SOL    HW2 3193   0.910   2.668   1.721 -1.3636 -0.3820  0.5490
  787SOL    HW3 3194   0.848   2.726   1.595  0.0365  0.1171  0.0869
  787SOL    MW4 3195   0.911   2.680   1.635 -0.1029  0.4263  0.6694
  788SOL     OW 3196   1.134   2.791   1.510  0.2964  0.4153 -0.2943
  788SOL    HW2 3197   1.124   2.880   1.542  1.5074  0.0515  1.1635
  788SOL    HW3 3198   1.063   2.742   1.551  0.0499  0.5611 -0.5455
  788SOL    MW4 3199   1.123   2.796   1.520  0.4237  0.3867 -0.1352
  789SOL     OW 3200   1.109   3.036   1.601  0.2402  0.2983 -0.2804
  789SOL    HW2 3201   1.135   3.039   1.693  0.1734 -0.2986 -0.2370
  789SOL    HW3 3202   1.189   3.055   1.552  0.2267  0.8402 -0.0982
  789SOL    MW4 3203   1.123   3.039   1.607  0.2296  0.2909 -0.2507
  790SOL     OW 3204   0.877   3.187   1.504 -0.3050  0.6072 -0.1606
  790SOL    HW2 3205   0.953   3.136   1.534 -0.0364  1.1192  0.0238
  790SOL    HW3 3206   0.887   3.189   1.409 -0.5713 -0.0889 -0.2057
  790SOL    MW4 3207   0.889   3.180   1.495 -0.3046  0.5827 -0.1422
  791SOL     OW 3208   0.881   3.438   1.607  0.3907 -0.0564  0.4470
  791SOL    HW2 3209   0.953   3.484   1.566 -0.1646  0.2783 -0.1576
  791SOL    HW3 3210   0.892   3.346   1.580  0.6077 -0.0156  0.3962
  791SOL    MW4 3211   0.892   3.432   1.598  0.3460 -0.0069  0.3606
  792SOL     OW 3212   1.091   3.597   1.511  0.2569 -0.0265  0.0683
  792SOL    HW2 3213   1.168   3.545   1.532  0.7753  0.7503  0.1028
  792SOL    HW3 3214   1.088   3.599   1.416 -0.1883 -0.7446  0.0670
  792SOL    MW4 3215   1.100   3.590   1.501  0.2666 -0.0186  0.0726
  793SOL     OW 3216   1.089   3.862   1.614 -0.0569 -0.7250 -0.4321
  793SOL    HW2 3217   1.162   3.899   1.565  0.3249 -0.4879  0.3043
  793SOL    HW3 3218   1.085   3.770   1.586 -1.1166 -0.0986 -2.3819
  793SOL    MW4 3219   1.098   3.855   1.604 -0.1463 -0.6111 -0.5921
  794SOL     OW 3220   0.866   4.002   1.533 -0.0046  0.2977  0.4230
  794SOL    HW2 3221   0.890   4.091   1.558  1.5539 -0.0322  0.1662
  794SOL    HW3 3222   0.941   3.949   1.561 -1.0308 -0.9742  0.8160
  794SOL    MW4 3223   0.879   4.007   1.540  0.0656  0.0858  0.4408
  795SOL     OW 3224   0.932   4.267   1.591 -0.3763  0.4212  0.0515
  795SOL    HW2 3225   0.935   4.274   1.687  0.4695  1.5143 -0.0467
  795SOL    HW3 3226   0.849   4.308   1.567 -0.6606  0.0133  0.3149
  795SOL    MW4 3227   0.921   4.273   1.601 -0.3023  0.5112  0.0734
  796SOL     OW 3228   1.150   4.376   1.461  0.1575 -0.0313  0.8266
  796SOL    HW2 3229   1.072   4.331   1.493  0.1556  0.3743  1.4004
  796SOL    HW3 3230   1.155   4.455   1.514 -0.0255  0.8173 -0.4022
  796SOL    MW4 3231   1.140   4.380   1.472  0.1332  0.1345  0.7402
  797SOL     OW 3232   1.572   4.603   1.600 -0.5871  0.1322  0.4933
  797SOL    HW2 3233   1.535   4.633   1.683 -2.9518  0.2323 -0.5754
  797SOL    HW3 3234   1.517   4.642   1.532  2.1917  1.2339 -1.2133
  797SOL    MW4 3235   1.560   4.612   1.602 -0.5324  0.2904  0.1271
  798SOL     OW 3236   1.366   0.074   1.468  0.4310  0.0305 -0.8085
  798SOL    HW2 3237   1.377   0.165   1.495 -2.6765  0.2871 -0.2793
  798SOL    HW3 3238   1.347   0.079   1.374 -0.6399  0.0072 -0.5982
  798SOL    MW4 3239   1.365   0.087   1.459 -0.1204  0.0613 -0.7108
  799SOL     OW 3240   1.369   0.334   1.566  0.5237  0.2648  0.3095
  799SOL    HW2 3241   1.441   0.393   1.547 -0.0311  1.0714  0.6541
  799SOL    HW3 3242   1.294   0.372   1.520  0.5921 -1.2652 -1.1114
  799SOL    MW4 3243   1.368   0.347   1.558  0.4594  0.1694  0.1676
  800SOL     OW 3244   1.598   0.506   1.523  0.2045  0.1101  0.0119
  800SOL    HW2 3245   1.671   0.456   1.560 -0.3564 -0.7240 -0.0071
  800SOL    HW3 3246   1.615   0.504   1.428  0.1031 -0.1741 -0.0016
  800SOL    MW4 3247   1.610   0.499   1.515  0.1172 -0.0374  0.0075
  801SOL     OW 3248   1.588   0.770   1.623  0.4104 -0.2958 -0.0619
  801SOL    HW2 3249   1.580   0.766   1.719 -0.3785  0.7537 -0.0744
  801SOL    HW3 3250   1.583   0.679   1.595 -1.1379 -0.4892  0.7727
  801SOL    MW4 3251   1.587   0.757   1.632  0.1019 -0.1828  0.0465
  802SOL     OW 3252   1.346   0.886   1.521 -0.6138 -0.2964  0.0117
  802SOL    HW2 3253   1.429   0.843   1.542  0.2183  1.5390  0.5729
  802SOL    HW3 3254   1.347   0.895   1.426  0.9292  1.8193  0.1893
  802SOL    MW4 3255   1.357   0.882   1.512 -0.3005  0.2248  0.1093
  803SOL     OW 3256   1.324   1.150   1.597  0.1461  0.1766 -0.1127
  803SOL    HW2 3257   1.335   1.146   1.692  0.2180 -0.1989 -0.1340
  803SOL    HW3 3258   1.323   1.058   1.570  1.3064  0.3091 -0.6063
  803SOL    MW4 3259   1.325   1.137   1.606  0.3089  0.1446 -0.1806
  804SOL     OW 3260   1.616   1.266   1.487  0.0328 -0.1535  0.2394
  804SOL    HW2 3261   1.535   1.239   1.530 -0.8134  1.3074 -0.4245
  804SOL    HW3 3262   1.598   1.256   1.394  0.8751 -0.5151  0.1095
  804SOL    MW4 3263   1.603   1.261   1.481  0.0322 -0.0085  0.1347
  805SOL     OW 3264   1.554   1.545   1.590  0.1047 -0.0517  0.1199
  805SOL    HW2 3265   1.565   1.541   1.685  0.6087  0.1150  0.0704
  805SOL    HW3 3266   1.584   1.459   1.559  0.4808  0.1038  0.0575
  805SOL    MW4 3267   1.559   1.533   1.599  0.2209 -0.0092  0.1050
  806SOL     OW 3268   1.328   1.662   1.498  0.2344 -0.5371  0.1148
  806SOL    HW2 3269   1.410   1.620   1.522  1.4165  0.5072 -1.8915
  806SOL    HW3 3270   1.326   1.657   1.402 -0.7128  1.8309 -0.0272
  806SOL    MW4 3271   1.339   1.656   1.488  0.2654 -0.0870 -0.1687
  807SOL     OW 3272   1.348   1.925   1.579 -0.0704  0.3698 -0.3235
  807SOL    HW2 3273   1.339   1.939   1.673  0.4074 -0.2732 -0.1825
  807SOL    HW3 3274   1.339   1.830   1.567 -0.6508  0.5013 -0.9851
  807SOL    MW4 3275   1.346   1.914   1.590 -0.0839  0.3023 -0.3923
  808SOL     OW 3276   1.552   2.063   1.464 -0.2167 -0.4748  0.2290
  808SOL    HW2 3277   1.475   2.013   1.490  0.0387 -0.8642  0.2467
  808SOL    HW3 3278   1.550   2.065   1.369  0.1099 -1.0547  0.2098
  808SOL    MW4 3279   1.542   2.057   1.455 -0.1400 -0.6027  0.2288
  809SOL     OW 3280   1.512   2.306   1.588  0.1842 -0.2987 -0.2620
  809SOL    HW2 3281   1.593   2.350   1.561 -0.2719 -0.8416 -2.6655
  809SOL    HW3 3282   1.521   2.216   1.557 -2.0533  0.0856 -2.2190
  809SOL    MW4 3283   1.524   2.300   1.580 -0.1713 -0.3197 -0.8374
  810SOL     OW 3284   1.332   2.468   1.454 -0.3032  0.4074  0.0663
  810SOL    HW2 3285   1.321   2.547   1.508 -0.4942  0.9299 -0.7213
  810SOL    HW3 3286   1.386   2.410   1.507  1.2047  1.7116  0.0114
  810SOL    MW4 3287   1.338   2.471   1.468 -0.1293  0.6480 -0.0447
  811SOL     OW 3288   1.358   2.693   1.617 -0.3866 -0.0413 -0.5351
  811SOL    HW2 3289   1.422   2.757   1.585 -0.6966 -0.3137 -1.7273
  811SOL    HW3 3290   1.275   2.721   1.578 -0.8379 -0.2013  0.2942
  811SOL    MW4 3291   1.356   2.705   1.608 -0.4871 -0.0985 -0.5829
  812SOL     OW 3292   1.588   2.858   1.473  0.3331 -0.0687  0.0916
  812SOL    HW2 3293   1.636   2.782   1.507  1.4639  0.7447  0.3277
  812SOL    HW3 3294   1.579   2.840   1.379  1.9828  0.2206 -0.1394
  812SOL    MW4 3295   1.593   2.845   1.465  0.7001  0.0768  0.0924
  813SOL     OW 3296   1.611   3.091   1.603 -0.4362  0.1108 -0.3613
  813SOL    HW2 3297   1.689   3.136   1.573 -1.5836  1.1898 -1.7449
  813SOL    HW3 3298   1.611   3.008   1.555 -0.3556  0.2844 -0.6612
  813SOL    MW4 3299   1.621   3.086   1.593 -0.5769  0.2759 -0.5835
  814SOL     OW 3300   1.347   3.164   1.521 -0.0254  0.0510 -0.3326
  814SOL    HW2 3301   1.337   3.256   1.546 -0.7117 -0.4015  1.1032
  814SOL    HW3 3302   1.435   3.140   1.550  0.3528  0.3978 -1.1861
  814SOL    MW4 3303   1.357   3.173   1.528 -0.0660  0.0370 -0.2557
  815SOL     OW 3304   1.301   3.424   1.575  0.1509  0.3873 -0.1866
  815SOL    HW2 3305   1.306   3.411   1.669  1.4586 -1.0842 -0.4222
  815SOL    HW3 3306   1.377   3.478   1.554  0.3515 -0.0069 -0.4907
  815SOL    MW4 3307   1.312   3.429   1.584  0.3499  0.1409 -0.2578
  816SOL     OW 3308   1.562   3.523   1.493 -0.0731  0.4879 -0.4070
  816SOL    HW2 3309   1.542   3.613   1.520  2.7380  1.8447 -2.5830
  816SOL    HW3 3310   1.579   3.529   1.399 -3.5290 -3.0339 -1.4193
  816SOL    MW4 3311   1.562   3.536   1.484 -0.1583  0.2019 -0.8276
  817SOL     OW 3312   1.527   3.799   1.567  0.1179  0.8863 -0.3297
  817SOL    HW2 3313   1.536   3.807   1.662 -0.7281 -0.6769 -0.0936
  817SOL    HW3 3314   1.457   3.860   1.544 -0.2039  0.7047  0.1626
  817SOL    MW4 3315   1.519   3.808   1.576 -0.0361  0.6559 -0.2337
  818SOL     OW 3316   1.310   3.985   1.508 -0.6481 -0.0157 -0.0865
  818SOL    HW2 3317   1.319   4.072   1.545  0.3422  0.2128 -0.8378
  818SOL    HW3 3318   1.336   3.995   1.416  0.1079 -1.2172 -0.0235
  818SOL    MW4 3319   1.315   3.998   1.501 -0.4177 -0.1442 -0.1773
  819SOL     OW 3320   1.340   4.243   1.592  0.1402  0.3522  0.0279
  819SOL    HW2 3321   1.423   4.274   1.557  0.3534  0.1071  0.3186
  819SOL    HW3 3322   1.274   4.279   1.533  0.2974  2.3729  1.0636
  819SOL    MW4 3323   1.342   4.252   1.580  0.1891  0.5870  0.2028
  820SOL     OW 3324   1.568   4.350   1.491 -0.1486 -0.3644  0.1078
  820SOL    HW2 3325   1.635   4.302   1.541 -1.3938 -0.9041  1.3114
  820SOL    HW3 3326   1.565   4.436   1.532  0.2658 -0.1228 -0.3691
  820SOL    MW4 3327   1.576   4.355   1.503 -0.2584 -0.4034  0.2037
  821SOL     OW 3328   1.993   4.610   1.601 -0.3876 -0.1399 -0.2405
  821SOL    HW2 3329   2.019   4.612   1.693  1.2800  1.6419 -0.7132
  821SOL    HW3 3330   1.925   4.677   1.593 -1.7567 -1.4680  0.0103
  821SOL    MW4 3331   1.988   4.619   1.612 -0.3482 -0.0801 -0.2698
  822SOL     OW 3332   1.793   0.115   1.504 -0.0005 -0.3884  0.0163
  822SOL    HW2 3333   1.716   0.071   1.539  0.2846 -1.6324 -0.8521
  822SOL    HW3 3334   1.781   0.113   1.409  0.3333  0.8501 -0.0646
  822SOL    MW4 3335   1.782   0.109   1.496  0.0812 -0.3892 -0.1090
  823SOL     OW 3336   1.844   0.361   1.638  0.0585 -0.3574  0.7139
  823SOL    HW2 3337   1.923   0.394   1.595 -0.4619 -0.1403 -0.0932
  823SOL    HW3 3338   1.820   0.284   1.587 -0.8795  0.2249  0.2753
  823SOL    MW4 3339   1.852   0.355   1.626 -0.1339 -0.2519  0.5494
  824SOL     OW 3340   2.054   0.492   1.494  0.9856  0.1120 -0.3480
  824SOL    HW2 3341   2.142   0.468   1.524  0.2948 -0.2048  1.4467
  824SOL    HW3 3342   2.045   0.584   1.517  0.3555 -0.2019  0.6768
  824SOL    MW4 3343   2.065   0.501   1.501  0.8113  0.0288  0.0240
  825SOL     OW 3344   2.033   0.727   1.633  0.1486  0.3488 -0.2044
  825SOL    HW2 3345   2.107   0.783   1.612  0.9419 -0.1773  1.1327
  825SOL    HW3 3346   1.958   0.769   1.592  0.6210  2.7601  1.3506
  825SOL    MW4 3347   2.032   0.740   1.625  0.3157  0.5974  0.1771
  826SOL     OW 3348   1.826   0.863   1.523 -0.2782  0.2834  0.1926
  826SOL    HW2 3349   1.845   0.952   1.555 -0.2590  0.9347 -1.5461
  826SOL    HW3 3350   1.740   0.842   1.559 -0.2439  0.9748  0.6883
  826SOL    MW4 3351   1.817   0.872   1.532 -0.2712  0.4606  0.0286
  827SOL     OW 3352   1.841   1.146   1.608 -0.0548  0.2842 -0.3207
  827SOL    HW2 3353   1.915   1.196   1.575  0.1892 -0.4330 -0.8461
  827SOL    HW3 3354   1.766   1.180   1.560  0.2667 -0.5974 -1.4462
  827SOL    MW4 3355   1.841   1.157   1.598  0.0197  0.0733 -0.5387
  828SOL     OW 3356   2.047   1.296   1.528  0.0783  0.4225  0.4228
  828SOL    HW2 3357   2.044   1.391   1.543 -2.0919  0.3324  0.7865
  828SOL    HW3 3358   2.045   1.287   1.433 -0.5731  0.7388  0.4007
  828SOL    MW4 3359   2.046   1.308   1.517 -0.2940  0.4523  0.4679
  829SOL     OW 3360   2.010   1.568   1.619  0.0693 -0.0425  0.3488
  829SOL    HW2 3361   2.085   1.614   1.583  0.2693 -0.3446  0.3723
  829SOL    HW3 3362   1.935   1.603   1.572  0.3360 -0.4843 -0.4201
  829SOL    MW4 3363   2.010   1.578   1.608  0.1307 -0.1407  0.2505
  830SOL     OW 3364   1.775   1.676   1.483 -0.1121  0.4135 -0.2796
  830SOL    HW2 3365   1.713   1.630   1.540  0.4498  0.3545  0.2948
  830SOL    HW3 3366   1.751   1.649   1.394 -0.3969 -0.2395 -0.0101
  830SOL    MW4 3367   1.764   1.666   1.479 -0.0756  0.3196 -0.1683
  831SOL     OW 3368   1.764   1.936   1.616 -0.1825  0.2578 -0.1312
  831SOL    HW2 3369   1.757   1.856   1.565  3.7040  0.8688 -1.7379
  831SOL    HW3 3370   1.688   1.989   1.588 -1.1008 -1.6038 -1.2207
  831SOL    MW4 3371   1.753   1.933   1.605  0.2090  0.0929 -0.4869
  832SOL     OW 3372   1.994   2.050   1.482  0.0317 -0.2763  0.0467
  832SOL    HW2 3373   2.074   2.006   1.513  0.0380 -0.0004  0.4240
  832SOL    HW3 3374   1.924   2.010   1.533 -0.3831 -2.3168 -2.0621
  832SOL    MW4 3375   1.995   2.039   1.493 -0.0223 -0.5093 -0.1818
  833SOL     OW 3376   2.014   2.307   1.576  0.0240  0.3977  0.4695
  833SOL    HW2 3377   2.025   2.310   1.671  1.9419 -0.0114  0.2881
  833SOL    HW3 3378   2.037   2.218   1.552  0.7419  0.8277 -0.5013
  833SOL    MW4 3379   2.019   2.296   1.585  0.3717  0.4005  0.3173
  834SOL     OW 3380   1.745   2.426   1.502  0.0291  0.1054 -0.1991
  834SOL    HW2 3381   1.822   2.388   1.545  0.4325  0.4570 -0.6111
  834SOL    HW3 3382   1.757   2.406   1.409 -1.2810 -1.4321 -0.0691
  834SOL    MW4 3383   1.757   2.418   1.496 -0.0905 -0.0510 -0.2364
  835SOL     OW 3384   1.774   2.673   1.593  0.3643 -0.3376 -0.4513
  835SOL    HW2 3385   1.851   2.708   1.548  1.6591 -0.5615  1.5116
  835SOL    HW3 3386   1.757   2.590   1.550  2.3222 -1.1231  0.2317
  835SOL    MW4 3387   1.782   2.667   1.581  0.7933 -0.4709 -0.1022
  836SOL     OW 3388   2.003   2.795   1.487  0.3459 -0.4013 -0.0782
  836SOL    HW2 3389   2.018   2.884   1.520  0.8220 -0.4593 -0.1490
  836SOL    HW3 3390   2.015   2.802   1.393  0.9180 -0.6610 -0.0229
  836SOL    MW4 3391   2.006   2.808   1.479  0.4840 -0.4435 -0.0803
  837SOL     OW 3392   2.036   3.082   1.582 -0.2450  0.4058 -0.4751
  837SOL    HW2 3393   2.026   3.090   1.677  0.8762 -0.4870 -0.2711
  837SOL    HW3 3394   2.108   3.141   1.560 -0.5861  0.7068 -0.7918
  837SOL    MW4 3395   2.045   3.091   1.592 -0.1423  0.3276 -0.4900
  838SOL     OW 3396   1.820   3.228   1.485 -0.0917  0.3632  0.1912
  838SOL    HW2 3397   1.828   3.306   1.541  0.4265 -0.3691  1.1457
  838SOL    HW3 3398   1.894   3.173   1.510 -0.0835 -0.1582 -0.9426
  838SOL    MW4 3399   1.831   3.231   1.496 -0.0222  0.1976  0.1676
  839SOL     OW 3400   1.810   3.473   1.617 -0.2723  0.1318 -0.2796
  839SOL    HW2 3401   1.803   3.465   1.712 -1.5087 -1.5836 -0.4906
  839SOL    HW3 3402   1.722   3.497   1.589  0.1219  0.7498 -0.9740
  839SOL    MW4 3403   1.797   3.475   1.626 -0.3833 -0.0134 -0.3990
  840SOL     OW 3404   2.022   3.609   1.507  0.1073  0.1133  0.1781
  840SOL    HW2 3405   2.102   3.563   1.533  0.4700  0.6218 -0.0376
  840SOL    HW3 3406   1.951   3.556   1.544  0.5442 -0.2956  0.4360
  840SOL    MW4 3407   2.023   3.596   1.515  0.2129  0.1264  0.1838
  841SOL     OW 3408   1.999   3.870   1.621 -0.1763  0.5160 -0.2860
  841SOL    HW2 3409   2.081   3.914   1.598  0.5593 -0.5806  0.1995
  841SOL    HW3 3410   2.011   3.779   1.593 -0.5786 -0.0417  1.2879
  841SOL    MW4 3411   2.011   3.864   1.615 -0.1323  0.2978 -0.0143
  842SOL     OW 3412   1.761   3.973   1.500  0.0419 -0.2010 -0.3506
  842SOL    HW2 3413   1.835   3.926   1.536  0.8995  2.1353  1.0878
  842SOL    HW3 3414   1.687   3.913   1.509  1.3719 -1.8163 -0.0178
  842SOL    MW4 3415   1.761   3.959   1.506  0.3306 -0.1059 -0.1169
  843SOL     OW 3416   1.768   4.215   1.633  0.2791  0.1053  0.1460
  843SOL    HW2 3417   1.843   4.263   1.597 -0.3931  0.6182 -0.5755
  843SOL    HW3 3418   1.773   4.129   1.592  0.3411  0.2155 -0.0789
  843SOL    MW4 3419   1.779   4.210   1.622  0.1985  0.1879  0.0212
  844SOL     OW 3420   1.983   4.366   1.479  0.0374 -0.1569  0.1230
  844SOL    HW2 3421   2.066   4.325   1.505  0.6488  0.4718 -0.8217
  844SOL    HW3 3422   1.983   4.450   1.524 -0.1921 -0.2434  0.2864
  844SOL    MW4 3423   1.994   4.372   1.488  0.0879 -0.0854  0.0199
  845SOL     OW 3424   2.454   4.621   1.605  0.0409 -0.2745  0.3631
  845SOL    HW2 3425   2.472   4.645   1.695 -0.5015 -2.5888  1.1256
  845SOL    HW3 3426   2.367   4.657   1.587 -0.2020 -0.5155  1.0385
  845SOL    MW4 3427   2.445   4.628   1.614 -0.0629 -0.6118  0.5528
  846SOL     OW 3428   2.223   0.080   1.525  0.0805 -0.2559 -0.3928
  846SOL    HW2 3429   2.139   0.035   1.536 -0.3419  0.8096  0.7635
  846SOL    HW3 3430   2.238   0.078   1.430 -1.7839  0.4718 -0.7369
  846SOL    MW4 3431   2.214   0.074   1.514 -0.2210 -0.0193 -0.2856
  847SOL     OW 3432   2.273   0.362   1.591  0.2479  0.1760 -0.3186
  847SOL    HW2 3433   2.262   0.362   1.686  1.4259 -0.3077 -0.1769
  847SOL    HW3 3434   2.243   0.275   1.563 -0.3908  0.4268 -0.4378
  847SOL    MW4 3435   2.267   0.351   1.600  0.3190  0.1453 -0.3155
  848SOL     OW 3436   2.506   0.488   1.496  0.1168  0.2438  0.0957
  848SOL    HW2 3437   2.570   0.450   1.556 -0.1463 -0.8336 -0.2900
  848SOL    HW3 3438   2.425   0.440   1.515 -0.4541  1.2397  0.2301
  848SOL    MW4 3439   2.503   0.477   1.507  0.0067  0.2330  0.0626
  849SOL     OW 3440   2.513   0.766   1.613 -0.2657  0.1121  0.6501
  849SOL    HW2 3441   2.432   0.815   1.595 -0.0915  0.1049 -0.2110
  849SOL    HW3 3442   2.507   0.689   1.555  0.4805  0.2553  0.3762
  849SOL    MW4 3443   2.501   0.762   1.603 -0.1440  0.1300  0.5003
  850SOL     OW 3444   2.263   0.880   1.574  0.2649  0.0234 -0.7335
  850SOL    HW2 3445   2.272   0.969   1.608 -0.4201  0.0687 -0.6623
  850SOL    HW3 3446   2.252   0.891   1.480 -1.6166  0.1380 -0.5250
  850SOL    MW4 3447   2.263   0.893   1.566 -0.0737  0.0445 -0.6965
  851SOL     OW 3448   2.244   1.150   1.662 -0.3003  0.3474 -0.0969
  851SOL    HW2 3449   2.254   1.169   1.755 -0.0762  0.3855 -0.1290
  851SOL    HW3 3450   2.179   1.214   1.631 -0.5509  0.1806  0.0815
  851SOL    MW4 3451   2.236   1.161   1.670 -0.3040  0.3303 -0.0775
  852SOL     OW 3452   2.449   1.291   1.518 -0.1067  0.1718 -0.1816
  852SOL    HW2 3453   2.386   1.230   1.557  1.3585 -1.2403  0.0324
  852SOL    HW3 3454   2.440   1.278   1.424  0.4583 -0.6624 -0.1277
  852SOL    MW4 3455   2.439   1.281   1.511  0.1612 -0.1246 -0.1463
  853SOL     OW 3456   2.480   1.555   1.586 -0.0403 -0.1171 -0.0675
  853SOL    HW2 3457   2.559   1.598   1.553  0.7862 -0.6192  1.1852
  853SOL    HW3 3458   2.492   1.463   1.564  1.7699 -0.9159  3.7747
  853SOL    MW4 3459   2.492   1.548   1.579  0.3076 -0.2887  0.6049
  854SOL     OW 3460   2.230   1.669   1.488  0.2077 -0.3106  0.3120
  854SOL    HW2 3461   2.305   1.628   1.530  1.2761  0.3407 -0.9107
  854SOL    HW3 3462   2.253   1.671   1.395 -1.1631  0.2315 -0.0227
  854SOL    MW4 3463   2.243   1.664   1.481  0.1676 -0.1531  0.1065
  855SOL     OW 3464   2.235   1.933   1.559 -0.4019  0.0809  0.7073
  855SOL    HW2 3465   2.228   1.917   1.654 -0.7063 -1.4808  0.4431
  855SOL    HW3 3466   2.231   1.845   1.520  1.1046  0.6020 -0.6741
  855SOL    MW4 3467   2.234   1.919   1.567 -0.2434 -0.0563  0.4902
  856SOL     OW 3468   2.482   2.065   1.458  0.2843  0.0539  0.1064
  856SOL    HW2 3469   2.397   2.031   1.485  0.7208 -0.6352  0.6256
  856SOL    HW3 3470   2.480   2.062   1.362 -0.2594  0.0008  0.1195
  856SOL    MW4 3471   2.470   2.060   1.449  0.2701 -0.0441  0.1767
  857SOL     OW 3472   2.468   2.315   1.557  0.2057  0.0695 -0.3857
  857SOL    HW2 3473   2.461   2.307   1.652 -0.1292 -0.0194 -0.4164
  857SOL    HW3 3474   2.453   2.226   1.524 -2.3100  0.5676 -0.6658
  857SOL    MW4 3475   2.465   2.302   1.565 -0.1702  0.1237 -0.4267
  858SOL     OW 3476   2.246   2.439   1.451 -0.6295 -0.3398 -0.0111
  858SOL    HW2 3477   2.331   2.419   1.489 -0.4467  0.8833  0.2359
  858SOL    HW3 3478   2.185   2.381   1.498 -0.4250  1.1748  2.1983
  858SOL    MW4 3479   2.249   2.429   1.462 -0.5786  0.0215  0.3129
  859SOL     OW 3480   2.250   2.707   1.547 -0.1787  0.0741 -0.0651
  859SOL    HW2 3481   2.229   2.618   1.519  1.7165  0.1208 -1.7470
  859SOL    HW3 3482   2.169   2.756   1.532 -0.9306 -1.1357 -0.0830
  859SOL    MW4 3483   2.236   2.702   1.541 -0.0279 -0.0794 -0.2896
  860SOL     OW 3484   2.481   2.818   1.479 -0.2702 -0.0468 -0.3429
  860SOL    HW2 3485   2.479   2.908   1.512  1.8809 -0.6853  1.7050
  860SOL    HW3 3486   2.396   2.781   1.503 -0.5379  0.9498  0.2712
  860SOL    MW4 3487   2.470   2.825   1.486 -0.0219  0.0005  0.0083
  861SOL     OW 3488   2.443   3.074   1.588 -0.4462 -0.1649 -0.1154
  861SOL    HW2 3489   2.527   3.118   1.571  0.8773 -1.8295  1.8357
  861SOL    HW3 3490   2.377   3.136   1.558  1.5000  0.6720 -2.9000
  861SOL    MW4 3491   2.446   3.088   1.582 -0.0148 -0.2742 -0.2254
  862SOL     OW 3492   2.234   3.255   1.481  0.0911 -0.1328  0.1462
  862SOL    HW2 3493   2.253   3.337   1.526  0.7006 -0.0645 -0.2259
  862SOL    HW3 3494   2.249   3.275   1.388  0.7266 -0.7991  0.1012
  862SOL    MW4 3495   2.239   3.268   1.474  0.2551 -0.2120  0.0911
  863SOL     OW 3496   2.271   3.496   1.607 -0.3316  0.1249 -0.1582
  863SOL    HW2 3497   2.276   3.502   1.702 -0.9035  0.9536 -0.1764
  863SOL    HW3 3498   2.339   3.556   1.575 -0.7744  0.5530 -0.2860
  863SOL    MW4 3499   2.281   3.504   1.615 -0.4652  0.2906 -0.1775
  864SOL     OW 3500   2.469   3.658   1.490 -0.3334 -0.1002 -0.0805
  864SOL    HW2 3501   2.549   3.622   1.529 -0.8511 -0.9403  0.1929
  864SOL    HW3 3502   2.461   3.745   1.529  1.4109  0.6874 -1.4232
  864SOL    MW4 3503   2.479   3.665   1.500 -0.1717 -0.1068 -0.2216
  865SOL     OW 3504   2.450   3.928   1.630 -0.3561  0.6183  0.0427
  865SOL    HW2 3505   2.464   3.942   1.724 -0.7898  1.8806 -0.0746
  865SOL    HW3 3506   2.529   3.962   1.589 -1.5566  3.1081 -0.2687
  865SOL    MW4 3507   2.463   3.934   1.637 -0.5720  1.1137 -0.0137
  866SOL     OW 3508   2.218   3.983   1.504 -0.3580 -0.2280 -0.2020
  866SOL    HW2 3509   2.301   3.955   1.543 -0.3692  0.4857  0.3438
  866SOL    HW3 3510   2.231   3.971   1.410  0.9611  1.4196 -0.2616
  866SOL    MW4 3511   2.231   3.978   1.497 -0.1857  0.0834 -0.1378
  867SOL     OW 3512   2.229   4.257   1.570  0.0586 -0.3048 -0.1442
  867SOL    HW2 3513   2.306   4.296   1.529  0.5787 -1.2669 -0.0897
  867SOL    HW3 3514   2.233   4.164   1.547 -1.2497 -0.3103 -0.3984
  867SOL    MW4 3515   2.240   4.250   1.562 -0.0453 -0.4320 -0.1706
  868SOL     OW 3516   2.466   4.369   1.483  0.2809 -0.1492  0.3859
  868SOL    HW2 3517   2.457   4.450   1.533 -0.5502 -0.2494  0.4036
  868SOL    HW3 3518   2.473   4.398   1.392  1.9770  0.0422  0.5599
  868SOL    MW4 3519   2.466   4.384   1.477  0.3951 -0.1369  0.4110
  869SOL     OW 3520   2.912   4.652   1.584 -0.3618  0.2492  0.5179
  869SOL    HW2 3521   2.896   4.664   1.677 -1.4383 -0.8866  0.4893
  869SOL    HW3 3522   2.837   4.693   1.542 -0.2314  0.1371  0.1727
  869SOL    MW4 3523   2.900   4.659   1.590 -0.4869  0.0849  0.4687
  870SOL     OW 3524   2.683   0.101   1.493  0.6941 -0.0631 -0.2634
  870SOL    HW2 3525   2.691   0.181   1.545  2.3259  0.1107 -0.7665
  870SOL    HW3 3526   2.602   0.061   1.524  0.3059  1.3462  0.5960
  870SOL    MW4 3527   2.673   0.106   1.504  0.8585  0.1458 -0.2164
  871SOL     OW 3528   2.725   0.360   1.596 -0.3430 -0.2240 -0.1081
  871SOL    HW2 3529   2.737   0.369   1.690 -1.1164 -2.6851  0.2628
  871SOL    HW3 3530   2.800   0.405   1.557 -0.4886  1.5690  1.6577
  871SOL    MW4 3531   2.737   0.367   1.603 -0.4644 -0.3122  0.1738
  872SOL     OW 3532   2.957   0.488   1.495 -0.1199  0.9999 -0.0695
  872SOL    HW2 3533   2.934   0.579   1.515 -0.1988  0.7866  0.8004
  872SOL    HW3 3534   2.932   0.477   1.403 -0.5563  1.7090 -0.0379
  872SOL    MW4 3535   2.951   0.499   1.486 -0.1876  1.0653  0.0494
  873SOL     OW 3536   2.895   0.759   1.576 -0.2401  0.3491  0.1587
  873SOL    HW2 3537   2.908   0.745   1.670  0.7417  1.4617  0.2061
  873SOL    HW3 3538   2.820   0.817   1.570  0.4191  1.2280  0.3197
  873SOL    MW4 3539   2.887   0.765   1.588 -0.0236  0.6119  0.1862
  874SOL     OW 3540   2.680   0.940   1.464 -0.1355 -0.1050  0.0588
  874SOL    HW2 3541   2.617   0.879   1.502  0.9994 -2.2628 -1.4429
  874SOL    HW3 3542   2.693   0.910   1.375  1.2088  1.7603 -0.4096
  874SOL    MW4 3543   2.674   0.928   1.457  0.1915 -0.1436 -0.2010
  875SOL     OW 3544   2.710   1.187   1.581  0.3659  0.0711 -0.7521
  875SOL    HW2 3545   2.698   1.099   1.544  0.7583  0.3246 -1.4762
  875SOL    HW3 3546   2.641   1.239   1.541  0.6471  0.2920 -0.9437
  875SOL    MW4 3547   2.699   1.182   1.571  0.4547  0.1338 -0.8729
  876SOL     OW 3548   2.948   1.276   1.442 -0.0352 -0.2075  0.3461
  876SOL    HW2 3549   3.028   1.241   1.482  0.0530 -0.5096 -0.0952
  876SOL    HW3 3550   2.878   1.222   1.478  0.0292 -0.3804  0.2153
  876SOL    MW4 3551   2.949   1.264   1.452 -0.0150 -0.2701  0.2706
  877SOL     OW 3552   2.992   1.528   1.567 -0.2376  0.4794 -0.1669
  877SOL    HW2 3553   2.915   1.579   1.543 -0.7388  0.3890  1.2181
  877SOL    HW3 3554   2.984   1.447   1.516  0.2171  1.4802 -1.8681
  877SOL    MW4 3555   2.981   1.524   1.557 -0.2437  0.5995 -0.2087
  878SOL     OW 3556   2.746   1.673   1.503  0.1089  0.3677 -0.1950
  878SOL    HW2 3557   2.734   1.767   1.517  0.7478  0.4075  0.0749
  878SOL    HW3 3558   2.735   1.662   1.408  0.6267  0.7991 -0.3059
  878SOL    MW4 3559   2.743   1.684   1.492  0.2615  0.4300 -0.1740
  879SOL     OW 3560   2.682   1.930   1.578  0.1130  0.1706  0.2650
  879SOL    HW2 3561   2.668   1.933   1.672 -0.3452  0.0707  0.2030
  879SOL    HW3 3562   2.603   1.970   1.541 -0.1872 -0.7438 -0.1102
  879SOL    MW4 3563   2.670   1.935   1.585  0.0131  0.0368  0.2075
  880SOL     OW 3564   2.928   2.020   1.481 -0.4160 -0.0198 -0.4415
  880SOL    HW2 3565   2.927   2.112   1.509 -0.5151 -0.3612  0.6926
  880SOL    HW3 3566   2.851   1.981   1.522  0.4271 -0.9605  0.2811
  880SOL    MW4 3567   2.918   2.027   1.490 -0.3181 -0.1891 -0.1966
  881SOL     OW 3568   2.962   2.325   1.564  0.0816  0.0399 -0.4673
  881SOL    HW2 3569   2.941   2.304   1.655 -0.4474 -1.2034 -0.8665
  881SOL    HW3 3570   2.884   2.370   1.531 -0.3533 -0.9008 -0.7483
  881SOL    MW4 3571   2.949   2.328   1.571 -0.0455 -0.2484 -0.5571
  882SOL     OW 3572   2.706   2.424   1.498  0.1859 -0.0934  0.0298
  882SOL    HW2 3573   2.694   2.507   1.545 -0.5972  0.3911 -1.0107
  882SOL    HW3 3574   2.627   2.374   1.517  0.0888 -0.0916 -0.3635
  882SOL    MW4 3575   2.694   2.428   1.506  0.0699 -0.0293 -0.1594
  883SOL     OW 3576   2.713   2.699   1.605 -0.0067  0.0836  0.0149
  883SOL    HW2 3577   2.788   2.741   1.563 -0.1079 -1.3893 -1.7389
  883SOL    HW3 3578   2.636   2.738   1.563 -0.1615  0.0172  0.2321
  883SOL    MW4 3579   2.712   2.709   1.594 -0.0403 -0.1197 -0.1878
  884SOL     OW 3580   2.930   2.825   1.485 -0.2056  0.2002 -0.0361
  884SOL    HW2 3581   2.996   2.765   1.520  0.0414 -0.3318 -1.3818
  884SOL    HW3 3582   2.942   2.906   1.535  1.8832  0.3062 -0.6597
  884SOL    MW4 3583   2.941   2.828   1.496  0.1025  0.1440 -0.2960
  885SOL     OW 3584   2.921   3.077   1.599  0.5261 -0.8793  0.0457
  885SOL    HW2 3585   2.932   3.052   1.691  0.1327  0.6012  0.5120
  885SOL    HW3 3586   3.001   3.124   1.577  0.0053  0.0308  0.0715
  885SOL    MW4 3587   2.933   3.080   1.608  0.4053 -0.5639  0.1106
  886SOL     OW 3588   2.686   3.220   1.520  0.2683  0.1736  0.3082
  886SOL    HW2 3589   2.764   3.170   1.547 -0.2976 -0.6437  0.4283
  886SOL    HW3 3590   2.682   3.209   1.425 -0.0157 -0.2524  0.3663
  886SOL    MW4 3591   2.696   3.212   1.511  0.1562  0.0100  0.3316
  887SOL     OW 3592   2.681   3.490   1.577 -0.5811  0.0709  0.0341
  887SOL    HW2 3593   2.681   3.509   1.671 -0.8454  0.3759 -0.0299
  887SOL    HW3 3594   2.683   3.394   1.573 -1.0832  0.0419  0.3521
  887SOL    MW4 3595   2.681   3.480   1.589 -0.6821  0.1073  0.0676
  888SOL     OW 3596   2.934   3.583   1.528 -0.1387  0.1175  0.1845
  888SOL    HW2 3597   2.848   3.544   1.543 -0.0838  0.5155  1.5562
  888SOL    HW3 3598   2.940   3.590   1.433 -2.2559  1.4426  0.0956
  888SOL    MW4 3599   2.923   3.579   1.517 -0.4108  0.3450  0.3538
  889SOL     OW 3600   2.945   3.859   1.569 -0.0649 -0.1297  0.0298
  889SOL    HW2 3601   2.860   3.887   1.534 -0.6718 -1.2766  0.5729
  889SOL    HW3 3602   2.943   3.764   1.564  1.6140 -0.1346 -0.9093
  889SOL    MW4 3603   2.933   3.850   1.564  0.0765 -0.2818 -0.0225
  890SOL     OW 3604   2.708   3.988   1.495 -0.1170  0.2619 -0.5317
  890SOL    HW2 3605   2.709   4.081   1.514 -1.6039  0.2868 -0.5462
  890SOL    HW3 3606   2.724   3.982   1.401 -0.4027  0.5139 -0.5941
  890SOL    MW4 3607   2.710   3.999   1.485 -0.3512  0.2985 -0.5419
  891SOL     OW 3608   2.691   4.248   1.573  0.2508 -0.5871  0.1350
  891SOL    HW2 3609   2.759   4.312   1.553  0.0394 -0.3199  0.2799
  891SOL    HW3 3610   2.613   4.282   1.531  0.2526 -0.9968 -0.2001
  891SOL    MW4 3611   2.690   4.261   1.565  0.2232 -0.6056  0.1098
  892SOL     OW 3612   2.906   4.384   1.490  0.3660 -0.1800 -0.0408
  892SOL    HW2 3613   2.938   4.459   1.539  0.5071 -0.4514  0.2820
  892SOL    HW3 3614   2.893   4.417   1.401 -0.3471  0.4355  0.2818
  892SOL    MW4 3615   2.908   4.398   1.484  0.2906 -0.1349  0.0443
  893SOL     OW 3616   3.372   4.656   1.632 -0.0117  0.0793 -0.6457
  893SOL    HW2 3617   3.450   4.699   1.599  0.5003 -0.3957 -0.0723
  893SOL    HW3 3618   3.385   4.563   1.610  0.0509 -0.1466  0.3304
  893SOL    MW4 3619   3.384   4.649   1.625  0.0641 -0.0124 -0.4411
  894SOL     OW 3620   3.153   0.064   1.491  0.0071  0.4567  0.1417
  894SOL    HW2 3621   3.221   0.032   1.551  0.1197  0.8609  0.2312
  894SOL    HW3 3622   3.071   0.033   1.530  0.1278  0.0470  0.0821
  894SOL    MW4 3623   3.151   0.055   1.504  0.0379  0.4559  0.1456
  895SOL     OW 3624   3.182   0.332   1.597  0.3078  0.4961  0.3685
  895SOL    HW2 3625   3.174   0.240   1.569  2.5030  0.4086 -0.0635
  895SOL    HW3 3626   3.111   0.377   1.551 -0.6283 -0.9282  0.3795
  895SOL    MW4 3627   3.172   0.326   1.587  0.4737  0.2966  0.3129
  896SOL     OW 3628   3.409   0.496   1.489  0.3955 -0.2936 -0.0020
  896SOL    HW2 3629   3.358   0.421   1.520  0.5501 -0.4129 -0.0371
  896SOL    HW3 3630   3.384   0.507   1.398  0.5107 -0.4161 -0.0476
  896SOL    MW4 3631   3.399   0.488   1.481  0.4313 -0.3255 -0.0125
  897SOL     OW 3632   3.348   0.751   1.561 -0.5027 -0.4149 -0.5687
  897SOL    HW2 3633   3.338   0.744   1.656  1.0050 -0.3163 -0.3896
  897SOL    HW3 3634   3.367   0.662   1.532  1.3100 -0.0740 -0.4779
  897SOL    MW4 3635   3.349   0.739   1.570 -0.0644 -0.3569 -0.5331
  898SOL     OW 3636   3.125   0.882   1.474  0.0561  0.4207 -0.3842
  898SOL    HW2 3637   3.199   0.826   1.499 -0.8879 -0.5463  0.2700
  898SOL    HW3 3638   3.048   0.833   1.500 -0.8730  0.8942 -2.1696
  898SOL    MW4 3639   3.125   0.868   1.481 -0.1910  0.3555 -0.5336
  899SOL     OW 3640   3.170   1.145   1.573  0.7353 -0.2262  0.3308
  899SOL    HW2 3641   3.169   1.152   1.669  1.1684 -0.2794  0.3408
  899SOL    HW3 3642   3.156   1.052   1.555  0.4308 -0.1809  0.3382
  899SOL    MW4 3643   3.168   1.134   1.583  0.7522 -0.2273  0.3332
  900SOL     OW 3644   3.376   1.310   1.465 -0.3697  0.4434 -0.2718
  900SOL    HW2 3645   3.448   1.254   1.492 -0.5031  0.4551  0.1102
  900SOL    HW3 3646   3.297   1.261   1.490 -0.4951  0.2865 -0.9760
  900SOL    MW4 3647   3.375   1.296   1.472 -0.4041  0.4241 -0.3142
  901SOL     OW 3648   3.437   1.556   1.575 -0.2603 -0.2086 -0.1550
  901SOL    HW2 3649   3.437   1.543   1.670 -3.5218  2.3299  0.2947
  901SOL    HW3 3650   3.415   1.469   1.540 -1.3708 -0.6581  1.5723
  901SOL    MW4 3651   3.434   1.543   1.583 -0.8371  0.0670  0.1321
  902SOL     OW 3652   3.213   1.667   1.441  0.1805  0.2919  0.0899
  902SOL    HW2 3653   3.296   1.635   1.476 -0.1268 -0.0741  0.4852
  902SOL    HW3 3654   3.146   1.629   1.498 -0.2194  1.2117  0.2438
  902SOL    MW4 3655   3.215   1.657   1.453  0.0870  0.3651  0.1625
  903SOL     OW 3656   3.161   1.918   1.572  0.2738  0.0623 -0.0340
  903SOL    HW2 3657   3.170   1.846   1.509 -0.7535 -0.4319  0.3648
  903SOL    HW3 3658   3.075   1.956   1.553 -0.0724 -0.1246  1.0913
  903SOL    MW4 3659   3.151   1.914   1.561  0.0927 -0.0275  0.1671
  904SOL     OW 3660   3.325   2.096   1.466  0.1064 -0.2051  0.1280
  904SOL    HW2 3661   3.249   2.047   1.499  0.8905 -1.0927  0.6387
  904SOL    HW3 3662   3.323   2.081   1.371  0.3828 -1.3075  0.2880
  904SOL    MW4 3663   3.314   2.087   1.458  0.2465 -0.4675  0.2166
  905SOL     OW 3664   3.389   2.308   1.621 -0.4771  0.1214 -0.2608
  905SOL    HW2 3665   3.464   2.338   1.570  0.0571 -1.0204 -0.1721
  905SOL    HW3 3666   3.363   2.226   1.579 -0.0379 -0.8301  1.2591
  905SOL    MW4 3667   3.396   2.301   1.609 -0.3486 -0.1545 -0.0486
  906SOL     OW 3668   3.194   2.441   1.482 -0.1668 -0.4414 -0.0886
  906SOL    HW2 3669   3.272   2.398   1.519 -1.1623 -0.7367  1.7499
  906SOL    HW3 3670   3.121   2.391   1.518 -1.3679  2.7143  2.0903
  906SOL    MW4 3671   3.195   2.428   1.492 -0.4566 -0.0639  0.4414
  907SOL     OW 3672   3.137   2.682   1.600  0.3254  0.0154 -0.4609
  907SOL    HW2 3673   3.220   2.728   1.586  0.7983 -1.0913 -1.3435
  907SOL    HW3 3674   3.152   2.594   1.565 -1.2535 -0.1663 -0.7158
  907SOL    MW4 3675   3.150   2.677   1.594  0.1793 -0.1545 -0.6111
  908SOL     OW 3676   3.374   2.795   1.531  0.0929  0.0504  0.1184
  908SOL    HW2 3677   3.386   2.880   1.574 -0.8227  0.2406  0.0278
  908SOL    HW3 3678   3.389   2.814   1.438  1.3538 -0.2057  0.2682
  908SOL    MW4 3679   3.377   2.809   1.524  0.1385  0.0417  0.1262
  909SOL     OW 3680   3.365   3.066   1.620  0.1618  0.4147 -0.6973
  909SOL    HW2 3681   3.376   3.070   1.715 -1.4897 -0.3892 -0.4665
  909SOL    HW3 3682   3.437   3.119   1.586  1.1080  0.2346  0.9773
  909SOL    MW4 3683   3.376   3.074   1.628  0.0689  0.2849 -0.4458
  910SOL     OW 3684   3.164   3.215   1.520 -0.4312 -0.3842 -0.5012
  910SOL    HW2 3685   3.230   3.156   1.557 -1.1484 -1.5161 -0.9939
  910SOL    HW3 3686   3.163   3.193   1.427 -0.2187  0.8978 -0.8192
  910SOL    MW4 3687   3.173   3.204   1.513 -0.4976 -0.3645 -0.6081
  911SOL     OW 3688   3.179   3.474   1.606  0.5758  0.4378 -0.5251
  911SOL    HW2 3689   3.170   3.379   1.606  0.9308  0.3964  0.4378
  911SOL    HW3 3690   3.096   3.506   1.570 -0.1005 -0.2001  0.4399
  911SOL    MW4 3691   3.167   3.465   1.602  0.5333  0.3481 -0.2707
  912SOL     OW 3692   3.411   3.594   1.471 -0.7169 -0.3514 -0.0988
  912SOL    HW2 3693   3.483   3.550   1.515 -0.9174  0.7135  1.3474
  912SOL    HW3 3694   3.332   3.554   1.507 -0.8673 -0.6386 -0.7402
  912SOL    MW4 3695   3.410   3.583   1.482 -0.7634 -0.2487  0.0074
  913SOL     OW 3696   3.424   3.843   1.602  0.5246 -0.3766  0.4774
  913SOL    HW2 3697   3.337   3.870   1.572  0.2247 -0.7333  1.0247
  913SOL    HW3 3698   3.436   3.756   1.564  1.0788  0.1012 -0.4621
  913SOL    MW4 3699   3.414   3.835   1.593  0.5581 -0.3607  0.4256
  914SOL     OW 3700   3.191   3.980   1.517  0.7496  0.8168 -0.1395
  914SOL    HW2 3701   3.171   4.069   1.544  1.0509  1.2613 -1.3497
  914SOL    HW3 3702   3.108   3.933   1.525  0.3515  1.4599 -0.4742
  914SOL    MW4 3703   3.178   3.985   1.522  0.7370  0.9603 -0.3434
  915SOL     OW 3704   3.143   4.267   1.582 -0.1936 -0.0817 -0.0482
  915SOL    HW2 3705   3.124   4.278   1.675 -0.3796 -0.4447 -0.0429
  915SOL    HW3 3706   3.066   4.301   1.537  0.5815  1.6324 -0.1167
  915SOL    MW4 3707   3.131   4.273   1.588 -0.1161  0.0963 -0.0566
  916SOL     OW 3708   3.415   4.373   1.534 -0.0661 -0.5975  0.3581
  916SOL    HW2 3709   3.331   4.331   1.551 -0.1267 -0.4992  0.2958
  916SOL    HW3 3710   3.408   4.409   1.446  0.1855 -0.9415  0.1970
  916SOL    MW4 3711   3.403   4.372   1.525 -0.0408 -0.6294  0.3287
  917SOL     OW 3712   3.818   0.006   1.616 -0.2245  0.1686  0.2440
  917SOL    HW2 3713   3.832  -0.001   1.711 -0.4537 -0.5358  0.2290
  917SOL    HW3 3714   3.902   0.035   1.582  0.3972 -1.2842  0.4711
  917SOL    MW4 3715   3.831   0.009   1.624 -0.1729 -0.1163  0.2718
  918SOL     OW 3716   3.590   0.122   1.526 -0.0242 -0.4780 -0.1863
  918SOL    HW2 3717   3.672   0.075   1.546  0.0858 -0.1537  0.1248
  918SOL    HW3 3718   3.596   0.141   1.432  1.3764  1.6748  0.3005
  918SOL    MW4 3719   3.602   0.118   1.516  0.1752 -0.1512 -0.0811
  919SOL     OW 3720   3.628   0.388   1.620  0.0583  0.0055  0.0661
  919SOL    HW2 3721   3.606   0.298   1.598  1.4780  0.0440 -1.6231
  919SOL    HW3 3722   3.561   0.440   1.576 -0.3185 -0.1977  0.4023
  919SOL    MW4 3723   3.617   0.383   1.611  0.1957 -0.0162 -0.1124
  920SOL     OW 3724   3.828   0.490   1.482  0.1526 -0.2938 -0.0639
  920SOL    HW2 3725   3.751   0.460   1.530 -0.2597  2.2092  0.9047
  920SOL    HW3 3726   3.797   0.509   1.394  0.0196 -0.8763 -0.1436
  920SOL    MW4 3727   3.814   0.488   1.477  0.0806 -0.0404  0.0535
  921SOL     OW 3728   3.810   0.754   1.603 -0.1967  0.5591  0.0937
  921SOL    HW2 3729   3.735   0.792   1.559 -0.2556 -0.0443 -0.3302
  921SOL    HW3 3730   3.824   0.670   1.559 -0.7814 -0.4347  1.7596
  921SOL    MW4 3731   3.802   0.748   1.592 -0.2818  0.3484  0.2576
  922SOL     OW 3732   3.576   0.870   1.462 -0.1165  0.1477 -0.0975
  922SOL    HW2 3733   3.495   0.827   1.488 -0.0812  0.5553  0.7034
  922SOL    HW3 3734   3.569   0.878   1.367 -0.3758 -1.0911 -0.1933
  922SOL    MW4 3735   3.564   0.866   1.453 -0.1459  0.0380 -0.0044
  923SOL     OW 3736   3.585   1.145   1.554  0.3486  0.5727 -0.8509
  923SOL    HW2 3737   3.666   1.180   1.517  1.1638 -0.5435 -0.1638
  923SOL    HW3 3738   3.581   1.055   1.521 -1.4680  1.1278 -2.2043
  923SOL    MW4 3739   3.595   1.137   1.545  0.2160  0.4989 -0.9388
  924SOL     OW 3740   3.829   1.248   1.471 -0.0073 -0.3872  0.4942
  924SOL    HW2 3741   3.906   1.201   1.503  1.7432  2.4984  0.7878
  924SOL    HW3 3742   3.846   1.340   1.494 -2.4232  0.6681 -1.6149
  924SOL    MW4 3743   3.841   1.254   1.478 -0.0951  0.1328  0.2545
  925SOL     OW 3744   3.867   1.516   1.539 -0.1814  0.2325 -0.2319
  925SOL    HW2 3745   3.868   1.515   1.635  0.9253  0.3269 -0.2407
  925SOL    HW3 3746   3.791   1.570   1.517 -0.2720  0.4511  0.5947
  925SOL    MW4 3747   3.857   1.523   1.549 -0.0472  0.2737 -0.1240
  926SOL     OW 3748   3.656   1.683   1.505  0.1600 -0.2635  0.1743
  926SOL    HW2 3749   3.588   1.632   1.549  0.2335  0.3532  1.0117
  926SOL    HW3 3750   3.626   1.689   1.414 -0.6638 -0.4013  0.4304
  926SOL    MW4 3751   3.643   1.677   1.499  0.0608 -0.2003  0.3185
  927SOL     OW 3752   3.589   1.925   1.599 -0.6122  0.1067  0.2051
  927SOL    HW2 3753   3.610   1.839   1.563  0.2675  0.4241 -0.0451
  927SOL    HW3 3754   3.509   1.951   1.554 -1.9798 -1.4169  1.6705
  927SOL    MW4 3755   3.581   1.917   1.589 -0.6766 -0.0525  0.3655
  928SOL     OW 3756   3.796   2.052   1.473  0.2227 -0.2682  0.1559
  928SOL    HW2 3757   3.807   2.134   1.521  0.9768 -0.6974  0.7253
  928SOL    HW3 3758   3.723   2.008   1.516 -0.6137  0.3946 -0.5654
  928SOL    MW4 3759   3.788   2.057   1.485  0.2120 -0.2372  0.1359
  929SOL     OW 3760   3.833   2.297   1.600 -0.4422  0.4684  0.2724
  929SOL    HW2 3761   3.837   2.285   1.695  0.6668 -0.3812  0.1350
  929SOL    HW3 3762   3.915   2.342   1.578 -0.2002 -0.2746 -0.3958
  929SOL    MW4 3763   3.844   2.301   1.610 -0.2639  0.2582  0.1661
  930SOL     OW 3764   3.604   2.403   1.477 -0.0748 -0.2488 -0.6201
  930SOL    HW2 3765   3.606   2.490   1.518 -1.1862 -1.1546  1.4543
  930SOL    HW3 3766   3.685   2.361   1.507  0.5109  0.0908 -1.7033
  930SOL    MW4 3767   3.615   2.409   1.486 -0.1442 -0.3235 -0.4895
  931SOL     OW 3768   3.605   2.645   1.601  0.1209  0.4843  0.1288
  931SOL    HW2 3769   3.600   2.657   1.696 -1.9400 -0.8966  0.2242
  931SOL    HW3 3770   3.535   2.699   1.566 -1.0667 -1.3108 -0.3544
  931SOL    MW4 3771   3.595   2.654   1.609 -0.3078  0.0651  0.0775
  932SOL     OW 3772   3.832   2.778   1.503 -0.5554  0.2718  0.1014
  932SOL    HW2 3773   3.915   2.737   1.527 -0.1182  0.8518 -0.3989
  932SOL    HW3 3774   3.765   2.724   1.546  0.0953  0.0285  0.8295
  932SOL    MW4 3775   3.834   2.766   1.512 -0.4120  0.3161  0.1316
  933SOL     OW 3776   3.800   3.074   1.604  0.3688 -0.6808  0.5346
  933SOL    HW2 3777   3.875   3.112   1.559 -0.4628 -0.2113 -0.4694
  933SOL    HW3 3778   3.809   2.979   1.590  1.1142 -0.6756  0.9613
  933SOL    MW4 3779   3.811   3.066   1.596  0.3576 -0.6180  0.4585
  934SOL     OW 3780   3.568   3.208   1.498  0.2413 -0.2584  0.0775
  934SOL    HW2 3781   3.655   3.174   1.520  0.2261 -0.4385 -0.1404
  934SOL    HW3 3782   3.570   3.219   1.403 -0.3455 -1.3035 -0.0603
  934SOL    MW4 3783   3.580   3.205   1.488  0.1619 -0.4196  0.0305
  935SOL     OW 3784   3.614   3.460   1.587  0.4685  0.0828  0.5223
  935SOL    HW2 3785   3.700   3.483   1.553  0.3399 -0.5118 -0.2455
  935SOL    HW3 3786   3.600   3.370   1.556 -0.2356  0.0151  1.0204
  935SOL    MW4 3787   3.624   3.451   1.578  0.3588 -0.0048  0.4867
  936SOL     OW 3788   3.845   3.612   1.485 -0.4608 -0.2651  0.1372
  936SOL    HW2 3789   3.920   3.564   1.520  0.1379  1.6781  1.5791
  936SOL    HW3 3790   3.851   3.699   1.525 -2.0854  0.7080 -1.6430
  936SOL    MW4 3791   3.856   3.617   1.495 -0.5960  0.1194  0.0925
  937SOL     OW 3792   3.851   3.853   1.623  0.0008  0.1556  0.1172
  937SOL    HW2 3793   3.928   3.903   1.595 -0.0331 -0.2567 -0.7322
  937SOL    HW3 3794   3.776   3.905   1.594 -0.0358 -0.6233 -1.2389
  937SOL    MW4 3795   3.851   3.866   1.616 -0.0086 -0.0014 -0.1738
  938SOL     OW 3796   3.655   4.008   1.526 -0.2968  0.0800  0.0795
  938SOL    HW2 3797   3.644   4.099   1.556  0.2619  0.1145  0.1906
  938SOL    HW3 3798   3.574   3.965   1.551  0.2858  0.0138  1.9962
  938SOL    MW4 3799   3.643   4.015   1.533 -0.1462  0.0758  0.3470
  939SOL     OW 3800   3.639   4.258   1.651 -0.2182  0.4157  0.2143
  939SOL    HW2 3801   3.626   4.268   1.745 -0.5334 -0.4380  0.2625
  939SOL    HW3 3802   3.565   4.302   1.611 -0.7713 -0.3443  0.3946
  939SOL    MW4 3803   3.628   4.265   1.658 -0.3331  0.2027  0.2444
  940SOL     OW 3804   3.853   4.380   1.521 -0.0455 -0.0324  0.7230
  940SOL    HW2 3805   3.788   4.328   1.569 -0.9409 -1.1464 -1.6189
  940SOL    HW3 3806   3.865   4.458   1.575 -2.0597 -0.5962  2.0722
  940SOL    MW4 3807   3.846   4.384   1.534 -0.4296 -0.2532  0.5921
  941SOL     OW 3808   4.282   4.625   1.638  0.0843 -0.0628 -0.0739
  941SOL    HW2 3809   4.288   4.634   1.734  0.4813  0.3799 -0.1376
  941SOL    HW3 3810   4.311   4.535   1.621  1.2178  0.2538  0.1218
  941SOL    MW4 3811   4.287   4.614   1.649  0.2866  0.0372 -0.0566
  942SOL     OW 3812   4.066   0.104   1.498 -0.0718  0.2815 -0.1972
  942SOL    HW2 3813   4.074   0.196   1.522 -1.0581  0.6158 -1.1163
  942SOL    HW3 3814   4.141   0.062   1.539  0.3193  1.4758  0.3275
  942SOL    MW4 3815   4.077   0.111   1.506 -0.1507  0.4832 -0.2491
  943SOL     OW 3816   4.055   0.357   1.578 -0.1969  0.5203  0.0311
  943SOL    HW2 3817   4.029   0.368   1.670 -0.8032 -0.0010 -0.0694
  943SOL    HW3 3818   3.982   0.394   1.529 -1.0115 -1.4131 -0.2691
  943SOL    MW4 3819   4.042   0.363   1.584 -0.3843  0.1965 -0.0217
  944SOL     OW 3820   4.273   0.485   1.442 -0.6361  0.4321  0.2959
  944SOL    HW2 3821   4.192   0.445   1.476 -0.7066 -0.4678 -0.8868
  944SOL    HW3 3822   4.343   0.437   1.486 -0.7220 -0.9740 -1.0672
  944SOL    MW4 3823   4.271   0.473   1.453 -0.6571  0.1279 -0.0401
  945SOL     OW 3824   4.279   0.760   1.605 -0.1117 -0.2145  0.1586
  945SOL    HW2 3825   4.276   0.670   1.575 -0.6985 -0.1717  0.0860
  945SOL    HW3 3826   4.357   0.797   1.564  0.8370 -1.0470  1.1941
  945SOL    MW4 3827   4.289   0.753   1.596 -0.0648 -0.3187  0.2856
  946SOL     OW 3828   4.039   0.862   1.505 -0.2530  0.0660  0.1267
  946SOL    HW2 3829   4.115   0.818   1.543  0.7591  1.0772 -0.6680
  946SOL    HW3 3830   3.964   0.822   1.547  0.7433 -0.6954  1.2042
  946SOL    MW4 3831   4.039   0.851   1.515  0.0119  0.0989  0.1640
  947SOL     OW 3832   4.061   1.118   1.583 -0.1063 -0.2748 -0.2993
  947SOL    HW2 3833   4.072   1.129   1.678 -0.9454  0.7431 -0.3191
  947SOL    HW3 3834   4.062   1.023   1.570  0.1849 -0.4165  0.7051
  947SOL    MW4 3835   4.063   1.107   1.594 -0.1783 -0.1591 -0.1693
  948SOL     OW 3836   4.269   1.282   1.491  0.1129  0.2514  0.1564
  948SOL    HW2 3837   4.198   1.224   1.519  0.9954 -1.6336 -1.3874
  948SOL    HW3 3838   4.348   1.241   1.526  0.6670  1.0288 -0.1775
  948SOL    MW4 3839   4.270   1.269   1.500  0.3023  0.1054 -0.0913
  949SOL     OW 3840   4.282   1.567   1.607  0.0952 -0.1187 -0.3433
  949SOL    HW2 3841   4.264   1.477   1.581 -0.1963  0.1971 -1.2276
  949SOL    HW3 3842   4.367   1.587   1.569  0.1812 -0.0276 -0.1105
  949SOL    MW4 3843   4.291   1.558   1.599  0.0682 -0.0648 -0.4294
  950SOL     OW 3844   4.084   1.711   1.507 -0.1088 -0.1740 -0.0075
  950SOL    HW2 3845   4.154   1.661   1.549 -0.5535  0.3996  1.4470
  950SOL    HW3 3846   4.006   1.656   1.517 -0.3647  0.2916  0.5873
  950SOL    MW4 3847   4.083   1.697   1.514 -0.2012 -0.0370  0.2629
  951SOL     OW 3848   4.038   1.954   1.596 -0.3176 -0.2479  0.0225
  951SOL    HW2 3849   4.051   1.864   1.568  0.5630  0.4042 -1.7539
  951SOL    HW3 3850   3.953   1.979   1.558 -0.1470 -0.0490 -0.2282
  951SOL    MW4 3851   4.028   1.946   1.587 -0.1793 -0.1355 -0.2451
  952SOL     OW 3852   4.283   2.062   1.515 -1.0143 -0.9463  0.0800
  952SOL    HW2 3853   4.198   2.031   1.544 -1.0824 -1.6155 -0.8284
  952SOL    HW3 3854   4.285   2.044   1.421 -0.7819  1.1469 -0.3408
  952SOL    MW4 3855   4.272   2.056   1.507 -0.9923 -0.7584 -0.0952
  953SOL     OW 3856   4.300   2.331   1.618  0.2799 -0.7703  0.3447
  953SOL    HW2 3857   4.293   2.325   1.713  0.3852 -0.5669  0.3659
  953SOL    HW3 3858   4.313   2.241   1.589 -0.9613 -0.9754  0.4171
  953SOL    MW4 3859   4.301   2.318   1.627  0.1302 -0.7706  0.3572
  954SOL     OW 3860   4.066   2.419   1.501  0.2865  0.1155  0.2207
  954SOL    HW2 3861   4.060   2.508   1.534  1.5084  0.8530 -1.4316
  954SOL    HW3 3862   4.148   2.385   1.538  0.1691 -0.0723  0.3079
  954SOL    MW4 3863   4.076   2.426   1.510  0.4325  0.1881  0.0142
  955SOL     OW 3864   4.062   2.675   1.591  0.1653 -0.6299  0.0395
  955SOL    HW2 3865   4.069   2.696   1.684 -0.1192  0.5233 -0.1895
  955SOL    HW3 3866   4.137   2.720   1.551 -1.1555  1.0107 -0.6363
  955SOL    MW4 3867   4.073   2.684   1.598 -0.0458 -0.2615 -0.0798
  956SOL     OW 3868   4.279   2.824   1.462  0.1279 -0.5611  0.2049
  956SOL    HW2 3869   4.273   2.913   1.497  0.5880 -0.5569  0.2789
  956SOL    HW3 3870   4.293   2.835   1.368  0.4753 -0.5478  0.2561
  956SOL    MW4 3871   4.280   2.837   1.455  0.2351 -0.5589  0.2215
  957SOL     OW 3872   4.245   3.086   1.601 -0.3998 -0.0865  0.1546
  957SOL    HW2 3873   4.247   3.086   1.697  0.1664  0.2021  0.1448
  957SOL    HW3 3874   4.322   3.137   1.576  0.5747 -1.8375 -0.4808
  957SOL    MW4 3875   4.256   3.093   1.611 -0.1960 -0.2792  0.0695
  958SOL     OW 3876   4.022   3.208   1.501  0.1881 -0.0874 -0.5319
  958SOL    HW2 3877   4.027   3.299   1.531  1.2636 -0.5820  0.8637
  958SOL    HW3 3878   4.099   3.166   1.539 -1.2139 -2.0079  0.2881
  958SOL    MW4 3879   4.033   3.215   1.510  0.1454 -0.4060 -0.2396
  959SOL     OW 3880   4.055   3.467   1.575  0.3514  0.2784 -0.2990
  959SOL    HW2 3881   4.055   3.468   1.671 -1.1169  3.1155 -0.2569
  959SOL    HW3 3882   4.137   3.511   1.550  1.6099 -2.0681 -0.4003
  959SOL    MW4 3883   4.066   3.473   1.584  0.3238  0.3433 -0.3070
  960SOL     OW 3884   4.289   3.603   1.514  0.1347  0.2646 -0.2038
  960SOL    HW2 3885   4.296   3.692   1.549  1.4998  0.3517 -0.6898
  960SOL    HW3 3886   4.281   3.615   1.420  0.8136 -0.1410 -0.3145
  960SOL    MW4 3887   4.289   3.616   1.506  0.4048  0.2227 -0.2826
  961SOL     OW 3888   4.304   3.891   1.586  0.3017 -0.5084 -0.2349
  961SOL    HW2 3889   4.220   3.928   1.560  0.3768 -0.7888 -0.8700
  961SOL    HW3 3890   4.369   3.946   1.542  0.5561  1.4906  2.4797
  961SOL    MW4 3891   4.302   3.903   1.577  0.3448 -0.2816  0.0395
  962SOL     OW 3892   4.054   3.994   1.485  0.2216  0.4217  0.1720
  962SOL    HW2 3893   4.063   4.087   1.503 -3.7453  0.6048  1.5028
  962SOL    HW3 3894   4.050   3.988   1.390 -1.2690  1.7947  0.1378
  962SOL    MW4 3895   4.055   4.005   1.475 -0.4983  0.6270  0.3431
  963SOL     OW 3896   4.083   4.243   1.604 -0.0637  0.1983 -0.2896
  963SOL    HW2 3897   4.055   4.245   1.695 -0.8687  0.2608 -0.5309
  963SOL    HW3 3898   4.017   4.293   1.557 -0.1509 -0.5911 -1.0327
  963SOL    MW4 3899   4.071   4.250   1.610 -0.1812  0.1030 -0.4195
  964SOL     OW 3900   4.336   4.346   1.533  0.2484 -0.5289 -0.2073
  964SOL    HW2 3901   4.257   4.304   1.568  0.8445 -2.0460 -0.6238
  964SOL    HW3 3902   4.318   4.354   1.439  0.1336  0.1761 -0.1261
  964SOL    MW4 3903   4.323   4.341   1.525  0.3119 -0.6361 -0.2515
  965SOL     OW 3904   0.201   4.637   1.889  0.5464 -0.0363 -0.3862
  965SOL    HW2 3905   0.276   4.686   1.924  1.0817 -0.9471 -0.2315
  965SOL    HW3 3906   0.222   4.625   1.796  0.4064  0.0552 -0.4287
  965SOL    MW4 3907   0.214   4.642   1.881  0.5986 -0.1445 -0.3715
  966SOL     OW 3908   4.485   0.162   2.019  0.6027  0.0414 -0.2973
  966SOL    HW2 3909   4.475   0.244   1.970  0.9470  0.2901  0.0456
  966SOL    HW3 3910   4.560   0.119   1.978 -0.7585 -1.0165 -1.7405
  966SOL    MW4 3911   4.494   0.167   2.007  0.4678 -0.0654 -0.4423
  967SOL     OW 3912   4.476   0.357   1.824  0.2535  0.2605  0.0262
  967SOL    HW2 3913   4.397   0.409   1.840  1.2108  1.9285 -0.5763
  967SOL    HW3 3914   4.546   0.404   1.869  1.0212 -0.8597  0.0179
  967SOL    MW4 3915   4.475   0.370   1.832  0.4811  0.3327 -0.0544
  968SOL     OW 3916   0.196   0.485   2.001  0.1159 -0.1301 -0.2330
  968SOL    HW2 3917   0.283   0.447   1.986  0.5848  0.5917  0.5951
  968SOL    HW3 3918   0.203   0.574   1.969 -0.3026 -0.0526 -0.1169
  968SOL    MW4 3919   0.209   0.492   1.995  0.1226 -0.0246 -0.1086
  969SOL     OW 3920   0.182   0.738   1.881  0.0834 -0.0738 -0.1639
  969SOL    HW2 3921   0.258   0.787   1.912  0.1267  0.3086 -0.8489
  969SOL    HW3 3922   0.190   0.739   1.785 -2.1019  2.1343 -0.3708
  969SOL    MW4 3923   0.193   0.744   1.872 -0.1992  0.2680 -0.2816
  970SOL     OW 3924   4.477   0.888   2.012  0.4275  0.1222  0.2853
  970SOL    HW2 3925   4.395   0.863   1.969  0.7264  0.7484 -0.6736
  970SOL    HW3 3926   4.544   0.834   1.969  0.5833 -0.0412  0.7303
  970SOL    MW4 3927   4.475   0.877   2.001  0.4873  0.1833  0.2174
  971SOL     OW 3928   0.035   1.132   1.871  0.6580 -0.2925 -0.1444
  971SOL    HW2 3929  -0.042   1.182   1.896  0.3708 -0.3603 -0.8797
  971SOL    HW3 3930   0.027   1.049   1.918  1.3995  0.5389  1.4826
  971SOL    MW4 3931   0.024   1.127   1.881  0.7181 -0.1917 -0.0267
  972SOL     OW 3932   0.247   1.252   1.988  0.7978  0.2240  0.4114
  972SOL    HW2 3933   0.251   1.342   1.953 -2.0621  0.7450  1.2924
  972SOL    HW3 3934   0.167   1.216   1.951  1.6917 -1.8596  0.4348
  972SOL    MW4 3935   0.237   1.259   1.978  0.5384  0.0178  0.5307
  973SOL     OW 3936   0.229   1.512   1.884 -0.1050  0.1947  0.5313
  973SOL    HW2 3937   0.298   1.570   1.919  0.7542  1.0423 -2.4476
  973SOL    HW3 3938   0.148   1.554   1.911  0.5146  0.6420  1.7740
  973SOL    MW4 3939   0.228   1.525   1.892  0.0901  0.3655  0.3022
  974SOL     OW 3940   0.037   1.685   2.006 -0.1361  0.1662 -0.2722
  974SOL    HW2 3941   0.043   1.675   2.101  2.0465 -1.0740 -0.5192
  974SOL    HW3 3942  -0.039   1.632   1.982  0.2160 -0.7685  0.6172
  974SOL    MW4 3943   0.028   1.677   2.015  0.1983 -0.1206 -0.1876
  975SOL     OW 3944   0.028   1.934   1.890  0.2424 -0.0710  0.4678
  975SOL    HW2 3945  -0.052   1.975   1.924  0.3680  0.0588  0.6064
  975SOL    HW3 3946   0.033   1.849   1.935  0.2680 -0.0115  0.5768
  975SOL    MW4 3947   0.018   1.928   1.900  0.2623 -0.0461  0.5003
  976SOL     OW 3948   0.272   2.051   1.984  0.6306  0.0650  0.5519
  976SOL    HW2 3949   0.280   2.138   1.944  1.8815  0.0488  0.7388
  976SOL    HW3 3950   0.185   2.020   1.957  0.0078  1.5268  0.8034
  976SOL    MW4 3951   0.261   2.058   1.975  0.7134  0.2556  0.6096
  977SOL     OW 3952   0.260   2.314   1.900  0.4653  0.2244 -0.0859
  977SOL    HW2 3953   0.331   2.369   1.934  1.3087 -0.2150 -1.0861
  977SOL    HW3 3954   0.180   2.353   1.935  1.1280  1.4241  0.1199
  977SOL    MW4 3955   0.259   2.327   1.909  0.6641  0.3247 -0.1906
  978SOL     OW 3956   0.013   2.439   1.971  0.2064  0.0312 -0.1077
  978SOL    HW2 3957  -0.006   2.449   2.064 -0.2322 -0.2662 -0.1636
  978SOL    HW3 3958   0.000   2.526   1.934  0.9989  0.2905  0.2172
  978SOL    MW4 3959   0.009   2.452   1.978  0.2531  0.0262 -0.0721
  979SOL     OW 3960   0.018   2.704   1.897 -0.2749 -0.3890  0.7709
  979SOL    HW2 3961  -0.049   2.763   1.930 -1.4886 -1.0315 -0.5161
  979SOL    HW3 3962   0.011   2.709   1.802  1.0666 -0.9646  0.6176
  979SOL    MW4 3963   0.008   2.713   1.889 -0.2580 -0.5500  0.5809
  980SOL     OW 3964   0.251   2.829   1.994  0.4280  0.0753 -0.1591
  980SOL    HW2 3965   0.240   2.918   1.961 -0.2167  0.3610  0.7792
  980SOL    HW3 3966   0.165   2.787   1.982  0.6346 -0.3128 -0.2999
  980SOL    MW4 3967   0.238   2.835   1.988  0.3702  0.0618 -0.0539
  981SOL     OW 3968   0.223   3.101   1.893 -0.0216 -0.2948 -0.2958
  981SOL    HW2 3969   0.299   3.151   1.923 -0.5512 -0.3691  1.2487
  981SOL    HW3 3970   0.232   3.097   1.798  1.6248  0.1347 -0.1701
  981SOL    MW4 3971   0.234   3.107   1.884  0.1257 -0.2480 -0.0755
  982SOL     OW 3972   4.471   3.219   1.996 -0.3878  0.6509  0.7057
  982SOL    HW2 3973   4.394   3.172   1.964 -0.4293 -0.3954  2.2883
  982SOL    HW3 3974   4.545   3.164   1.971 -0.2691  0.8723  0.5702
  982SOL    MW4 3975   4.470   3.206   1.988 -0.3777  0.5419  0.8965
  983SOL     OW 3976   4.473   3.475   1.881 -0.1510  0.0262 -0.0275
  983SOL    HW2 3977   4.557   3.504   1.918 -0.6092  0.4354  0.7157
  983SOL    HW3 3978   4.465   3.384   1.908 -0.0391  0.0510  0.0897
  983SOL    MW4 3979   4.483   3.467   1.890 -0.1967  0.0834  0.0861
  984SOL     OW 3980   0.235   3.588   1.964 -0.2492  0.0339  0.2732
  984SOL    HW2 3981   0.237   3.581   2.059 -0.8030 -1.5934  0.1775
  984SOL    HW3 3982   0.318   3.550   1.935  0.4634  1.6374  0.1504
  984SOL    MW4 3983   0.246   3.582   1.972 -0.2283  0.0308  0.2443
  985SOL     OW 3984   0.237   3.875   1.918  0.0622 -0.4074  0.6987
  985SOL    HW2 3985   0.312   3.922   1.954 -0.8766 -0.3469  2.6291
  985SOL    HW3 3986   0.254   3.783   1.938  0.4846 -0.5944 -0.4784
  985SOL    MW4 3987   0.249   3.869   1.925 -0.0059 -0.4241  0.7980
  986SOL     OW 3988   4.490   3.973   2.027  0.1497 -0.2122  0.2403
  986SOL    HW2 3989   4.494   4.065   2.001  1.0751 -0.0305  0.9721
  986SOL    HW3 3990   4.568   3.933   1.987 -0.6488 -0.8562 -0.7031
  986SOL    MW4 3991   4.501   3.980   2.018  0.1669 -0.2730  0.2124
  987SOL     OW 3992   0.007   4.231   1.914  0.2027  0.3951 -0.4119
  987SOL    HW2 3993  -0.060   4.291   1.944 -0.2899 -0.0204 -0.6764
  987SOL    HW3 3994   0.090   4.273   1.939 -0.1863  0.1465  1.3053
  987SOL    MW4 3995   0.009   4.245   1.921  0.0863  0.3076 -0.2203
  988SOL     OW 3996   0.226   4.388   1.981 -0.1704  0.0891 -0.5008
  988SOL    HW2 3997   0.222   4.379   2.076  1.6656 -1.0770 -0.5146
  988SOL    HW3 3998   0.202   4.479   1.964  0.7183  0.6545  1.1785
  988SOL    MW4 3999   0.222   4.399   1.991  0.1891  0.0091 -0.2812
  989SOL     OW 4000   0.692   4.653   1.903  0.0518 -0.2681 -0.0493
  989SOL    HW2 4001   0.695   4.562   1.930  3.0235 -0.2918 -0.2676
  989SOL    HW3 4002   0.683   4.650   1.808  0.3036 -0.3408 -0.0710
  989SOL    MW4 4003   0.691   4.641   1.894  0.4771 -0.2809 -0.0811
  990SOL     OW 4004   0.435   0.085   1.978 -0.0975 -0.0142 -0.0194
  990SOL    HW2 4005   0.438   0.175   1.945  0.2808  0.3234  0.9057
  990SOL    HW3 4006   0.519   0.047   1.950 -0.2369 -0.0605 -0.3707
  990SOL    MW4 4007   0.447   0.092   1.970 -0.0660  0.0243  0.0561
  991SOL     OW 4008   0.427   0.355   1.911  0.2399  0.1212  0.1333
  991SOL    HW2 4009   0.514   0.389   1.935 -0.0609 -0.6104  2.3657
  991SOL    HW3 4010   0.431   0.346   1.816  2.3037  0.9526  0.0979
  991SOL    MW4 4011   0.439   0.358   1.902  0.4725  0.1344  0.4232
  992SOL     OW 4012   0.657   0.468   2.016 -0.2354  0.6701  0.1797
  992SOL    HW2 4013   0.667   0.465   2.111  0.9985 -0.5267  0.0328
  992SOL    HW3 4014   0.745   0.451   1.982 -0.9418 -0.4275 -1.1728
  992SOL    MW4 4015   0.670   0.465   2.024 -0.1659  0.3674 -0.0179
  993SOL     OW 4016   0.670   0.728   1.910 -0.1143  0.1667 -0.0457
  993SOL    HW2 4017   0.747   0.779   1.935  0.3789 -0.1361 -0.8936
  993SOL    HW3 4018   0.677   0.648   1.963 -0.3121  0.5122  0.5047
  993SOL    MW4 4019   0.681   0.724   1.920 -0.0753  0.1723 -0.0850
  994SOL     OW 4020   0.429   0.858   1.963 -0.0508 -0.0628 -0.7652
  994SOL    HW2 4021   0.448   0.948   1.936 -1.7038 -0.5068 -3.5621
  994SOL    HW3 4022   0.510   0.810   1.945  1.2227  1.0191  1.7749
  994SOL    MW4 4023   0.442   0.864   1.957 -0.1009  0.0213 -0.7992
  995SOL     OW 4024   0.460   1.119   1.874  0.4042 -0.3298  0.2487
  995SOL    HW2 4025   0.381   1.166   1.902  1.4252  0.8684  1.1485
  995SOL    HW3 4026   0.446   1.103   1.781 -0.0514  1.5917 -0.0400
  995SOL    MW4 4027   0.448   1.123   1.866  0.4788  0.0818  0.3293
  996SOL     OW 4028   0.678   1.266   1.969  0.1414 -0.3291 -0.2768
  996SOL    HW2 4029   0.666   1.279   2.063  0.2246 -0.7707 -0.2025
  996SOL    HW3 4030   0.608   1.206   1.944  0.6318 -0.8955 -0.3284
  996SOL    MW4 4031   0.667   1.259   1.978  0.2171 -0.4619 -0.2738
  997SOL     OW 4032   0.663   1.539   1.871 -0.2145  0.1519  0.5316
  997SOL    HW2 4033   0.667   1.447   1.895  0.2071 -0.0587 -0.3106
  997SOL    HW3 4034   0.677   1.540   1.776 -0.8790  1.0281  0.4331
  997SOL    MW4 4035   0.665   1.527   1.862 -0.2465  0.2396  0.4075
  998SOL     OW 4036   0.425   1.654   2.010  0.4286 -0.0161  0.0040
  998SOL    HW2 4037   0.448   1.663   2.102  0.1752  0.5968  0.0065
  998SOL    HW3 4038   0.498   1.606   1.971  0.4996 -0.3432  0.5371
  998SOL    MW4 4039   0.438   1.649   2.017  0.4046  0.0217  0.0746
  999SOL     OW 4040   0.467   1.901   1.868 -0.0158 -0.1284  0.2808
  999SOL    HW2 4041   0.444   1.817   1.908 -1.0256  0.0808  0.1487
  999SOL    HW3 4042   0.411   1.965   1.913  0.0610  0.3422 -0.2933
  999SOL    MW4 4043   0.457   1.898   1.879 -0.1389 -0.0386  0.1876
 1000SOL     OW 4044   0.679   2.031   1.998  0.1032  0.1932  0.4935
 1000SOL    HW2 4045   0.658   2.037   2.091  0.6946  0.2152  0.6264
 1000SOL    HW3 4046   0.621   1.962   1.964 -0.4941  0.5557  0.7632
 1000SOL    MW4 4047   0.668   2.023   2.006  0.1025  0.2437  0.5467
 1001SOL     OW 4048   0.733   2.294   1.947  0.3215  0.4441 -0.3453
 1001SOL    HW2 4049   0.727   2.204   1.979  0.2137  0.3277 -0.6905
 1001SOL    HW3 4050   0.713   2.288   1.853 -0.9954  0.9912 -0.1155
 1001SOL    MW4 4051   0.729   2.281   1.939  0.1335  0.5009 -0.3605
 1002SOL     OW 4052   0.484   2.431   2.004 -0.4017  0.2427 -0.2766
 1002SOL    HW2 4053   0.480   2.440   2.100 -0.4977  0.5846 -0.3115
 1002SOL    HW3 4054   0.568   2.389   1.988 -0.4729  0.0016 -0.0276
 1002SOL    MW4 4055   0.495   2.426   2.015 -0.4238  0.2561 -0.2484
 1003SOL     OW 4056   0.449   2.692   1.886 -0.3752 -0.4017 -0.3827
 1003SOL    HW2 4057   0.441   2.614   1.941  1.1128  0.2112  0.7268
 1003SOL    HW3 4058   0.384   2.753   1.921 -1.2649 -0.9834 -1.0013
 1003SOL    MW4 4059   0.439   2.690   1.898 -0.2963 -0.3974 -0.3179
 1004SOL     OW 4060   0.680   2.809   1.973 -0.3631 -0.1663 -0.3972
 1004SOL    HW2 4061   0.671   2.831   2.065  0.2317 -0.3953 -0.2834
 1004SOL    HW3 4062   0.603   2.756   1.953 -0.3821 -0.2984  0.0231
 1004SOL    MW4 4063   0.669   2.805   1.982 -0.2872 -0.2141 -0.3268
 1005SOL     OW 4064   0.665   3.057   1.888  0.1762  0.2649  0.1561
 1005SOL    HW2 4065   0.646   2.966   1.910  0.4272  0.2026  0.1092
 1005SOL    HW3 4066   0.680   3.056   1.793 -0.3425  0.4405  0.0684
 1005SOL    MW4 4067   0.664   3.045   1.878  0.1409  0.2797  0.1384
 1006SOL     OW 4068   0.459   3.199   1.992 -0.3359  0.3245 -0.4621
 1006SOL    HW2 4069   0.470   3.292   1.973  0.1054  0.8594  2.1674
 1006SOL    HW3 4070   0.537   3.157   1.955 -0.1593  1.1085 -0.9760
 1006SOL    MW4 4071   0.471   3.205   1.985 -0.2544  0.4983 -0.1829
 1007SOL     OW 4072   0.483   3.471   1.917 -0.3787 -0.0931 -0.2399
 1007SOL    HW2 4073   0.549   3.523   1.963 -0.3405 -0.5164  0.1913
 1007SOL    HW3 4074   0.500   3.486   1.824 -0.4554  0.7760 -0.1190
 1007SOL    MW4 4075   0.494   3.480   1.911 -0.3838 -0.0343 -0.1670
 1008SOL     OW 4076   0.717   3.621   2.050 -0.4671  0.4010  0.4274
 1008SOL    HW2 4077   0.789   3.572   2.011 -0.6158  0.2977  0.2840
 1008SOL    HW3 4078   0.709   3.699   1.995  0.5287  1.1634  1.3325
 1008SOL    MW4 4079   0.726   3.625   2.037 -0.3554  0.4880  0.5281
 1009SOL     OW 4080   0.680   3.871   1.926 -0.1009 -0.1380  0.1297
 1009SOL    HW2 4081   0.761   3.918   1.945 -0.4545  0.5227 -0.0080
 1009SOL    HW3 4082   0.676   3.868   1.831  0.3434 -1.1856  0.1267
 1009SOL    MW4 4083   0.690   3.877   1.916 -0.0888 -0.1893  0.1112
 1010SOL     OW 4084   0.469   4.015   2.018  0.0059 -0.1795 -0.4883
 1010SOL    HW2 4085   0.469   4.097   1.967 -1.4873 -0.8484 -1.6058
 1010SOL    HW3 4086   0.533   3.960   1.975  0.8141  0.2957  0.0979
 1010SOL    MW4 4087   0.477   4.019   2.006 -0.0845 -0.2055 -0.5584
 1011SOL     OW 4088   0.459   4.277   1.898  0.1488  0.3022 -0.3711
 1011SOL    HW2 4089   0.382   4.325   1.929 -0.5804 -1.0986  0.0376
 1011SOL    HW3 4090   0.444   4.265   1.804 -0.6366 -0.8560 -0.1076
 1011SOL    MW4 4091   0.447   4.282   1.890 -0.0510 -0.0358 -0.2823
 1012SOL     OW 4092   0.696   4.384   1.999  0.5241 -0.2313  0.4869
 1012SOL    HW2 4093   0.769   4.338   1.958  0.3220 -0.3939  0.3046
 1012SOL    HW3 4094   0.618   4.339   1.965  0.1834  2.2258 -2.1684
 1012SOL    MW4 4095   0.695   4.372   1.989  0.4524  0.0720  0.1125
 1013SOL     OW 4096   1.152   0.040   1.871  0.2785 -0.2283 -0.0698
 1013SOL    HW2 4097   1.223   0.079   1.921  0.8861 -1.0654 -0.2575
 1013SOL    HW3 4098   1.149  -0.051   1.902  0.2777 -0.5899 -1.1176
 1013SOL    MW4 4099   1.161   0.033   1.882  0.3586 -0.3862 -0.2328
 1014SOL     OW 4100   0.920   0.082   2.043 -0.1448 -0.2783 -0.2041
 1014SOL    HW2 4101   0.997   0.069   1.988 -0.8439 -1.5008 -0.9314
 1014SOL    HW3 4102   0.849   0.040   1.994 -1.2047  0.5389  0.6114
 1014SOL    MW4 4103   0.921   0.075   2.029 -0.3769 -0.3318 -0.1924
 1015SOL     OW 4104   0.897   0.374   1.960 -0.2620  0.8088  1.2013
 1015SOL    HW2 4105   0.977   0.424   1.977  0.3535 -0.3861  1.9144
 1015SOL    HW3 4106   0.909   0.293   2.009 -1.0792 -0.1859 -0.1889
 1015SOL    MW4 4107   0.909   0.370   1.968 -0.2887  0.5199  1.1121
 1016SOL     OW 4108   1.162   0.469   2.004  0.4017 -0.5552  0.2257
 1016SOL    HW2 4109   1.224   0.419   1.950  0.1195 -0.8956  0.2168
 1016SOL    HW3 4110   1.162   0.556   1.964  0.1168 -0.8344 -0.3888
 1016SOL    MW4 4111   1.171   0.474   1.991  0.3269 -0.6369  0.1433
 1017SOL     OW 4112   1.139   0.725   1.900 -0.1549 -0.2705 -0.3994
 1017SOL    HW2 4113   1.210   0.782   1.932 -0.0704 -1.0284  0.8084
 1017SOL    HW3 4114   1.059   0.775   1.919 -0.2708 -1.6491  3.2315
 1017SOL    MW4 4115   1.138   0.739   1.907 -0.1590 -0.5524  0.2391
 1018SOL     OW 4116   0.898   0.886   1.958 -0.1443 -0.1098  0.2580
 1018SOL    HW2 4117   0.898   0.884   2.054 -2.0146 -0.5634  0.2817
 1018SOL    HW3 4118   0.913   0.977   1.935 -2.7896  0.5851  1.0805
 1018SOL    MW4 4119   0.900   0.898   1.968 -0.7400 -0.0779  0.3695
 1019SOL     OW 4120   0.919   1.156   1.903  0.3523 -0.2646 -0.6224
 1019SOL    HW2 4121   0.839   1.195   1.937  0.5066  0.0741 -0.6439
 1019SOL    HW3 4122   0.914   1.168   1.808  1.6794  2.2102 -0.4385
 1019SOL    MW4 4123   0.908   1.163   1.895  0.5478  0.1067 -0.6009
 1020SOL     OW 4124   1.136   1.265   2.001 -0.3399  0.2902 -0.7705
 1020SOL    HW2 4125   1.118   1.353   1.970 -2.2928  0.1084 -0.1779
 1020SOL    HW3 4126   1.055   1.216   1.985  0.8905 -1.5400 -1.6104
 1020SOL    MW4 4127   1.123   1.270   1.995 -0.4351  0.0247 -0.8031
 1021SOL     OW 4128   1.099   1.533   1.916  0.6977  0.0040 -0.0353
 1021SOL    HW2 4129   1.022   1.588   1.930 -0.0684 -0.9730 -0.3012
 1021SOL    HW3 4130   1.099   1.515   1.822  0.8438 -0.5747  0.0724
 1021SOL    MW4 4131   1.088   1.538   1.906  0.6160 -0.2013 -0.0561
 1022SOL     OW 4132   0.867   1.706   2.003 -0.3079 -0.3168  0.4944
 1022SOL    HW2 4133   0.884   1.794   1.969 -0.0270 -0.0057  1.4271
 1022SOL    HW3 4134   0.780   1.684   1.970  0.1539 -0.2150 -0.8219
 1022SOL    MW4 4135   0.858   1.715   1.994 -0.2099 -0.2624  0.4438
 1023SOL     OW 4136   0.901   1.943   1.870  0.0004  0.3022 -0.0146
 1023SOL    HW2 4137   0.819   1.977   1.906 -0.7909 -2.2758  0.7188
 1023SOL    HW3 4138   0.887   1.942   1.776 -0.7783 -0.0288  0.1004
 1023SOL    MW4 4139   0.889   1.948   1.862 -0.2067 -0.0817  0.0974
 1024SOL     OW 4140   1.110   2.062   1.995 -0.2445 -0.2639  0.0614
 1024SOL    HW2 4141   1.110   2.152   1.963 -1.6049 -0.0696  0.5746
 1024SOL    HW3 4142   1.036   2.021   1.950  0.4898 -1.1905 -0.3255
 1024SOL    MW4 4143   1.100   2.068   1.985 -0.3271 -0.3605  0.0781
 1025SOL     OW 4144   1.135   2.305   1.856 -0.2868 -0.3732 -0.2538
 1025SOL    HW2 4145   1.221   2.337   1.883 -0.6592 -0.8833  1.6470
 1025SOL    HW3 4146   1.130   2.323   1.763  2.4250 -1.5739 -0.6683
 1025SOL    MW4 4147   1.146   2.311   1.848  0.0219 -0.5987 -0.0577
 1026SOL     OW 4148   0.956   2.447   2.015  0.1348  0.4915  0.0378
 1026SOL    HW2 4149   1.027   2.408   1.964  0.7756  1.0053  0.5318
 1026SOL    HW3 4150   0.877   2.402   1.984  0.6364  0.1092 -0.7074
 1026SOL    MW4 4151   0.955   2.436   2.004  0.2855  0.5088  0.0048
 1027SOL     OW 4152   0.938   2.703   1.901  0.2160 -0.4287  0.1628
 1027SOL    HW2 4153   0.947   2.618   1.944  0.2532 -0.4410  0.1302
 1027SOL    HW3 4154   0.850   2.732   1.925  0.0070 -0.7126 -0.2523
 1027SOL    MW4 4155   0.927   2.696   1.910  0.1932 -0.4675  0.1038
 1028SOL     OW 4156   1.157   2.847   1.965  0.3624 -0.0118  0.2255
 1028SOL    HW2 4157   1.145   2.855   2.060 -0.4247  0.5444  0.0851
 1028SOL    HW3 4158   1.089   2.786   1.937  0.0988  0.4237 -0.0868
 1028SOL    MW4 4159   1.146   2.840   1.974  0.2238  0.1190  0.1656
 1029SOL     OW 4160   1.099   3.105   1.871 -0.9063 -0.5145 -0.3465
 1029SOL    HW2 4161   1.023   3.146   1.913  1.0114  1.8570  0.9492
 1029SOL    HW3 4162   1.103   3.017   1.910 -2.7342 -0.5064 -0.1166
 1029SOL    MW4 4163   1.090   3.099   1.882 -0.8945 -0.2007 -0.1453
 1030SOL     OW 4164   0.878   3.209   1.969  0.5556  0.2633 -0.1234
 1030SOL    HW2 4165   0.881   3.201   2.064  0.1282  1.6225  0.0077
 1030SOL    HW3 4166   0.814   3.143   1.942  0.3808  0.1486  0.5647
 1030SOL    MW4 4167   0.870   3.199   1.978  0.4762  0.4275 -0.0154
 1031SOL     OW 4168   0.901   3.477   1.893 -0.6103  0.3385 -0.3798
 1031SOL    HW2 4169   0.914   3.386   1.920 -2.2255  0.3827  0.5682
 1031SOL    HW3 4170   0.892   3.472   1.798  0.1344 -0.3851 -0.4275
 1031SOL    MW4 4171   0.902   3.464   1.884 -0.7252  0.2489 -0.2609
 1032SOL     OW 4172   1.159   3.558   1.960  0.0126 -0.1990  0.2417
 1032SOL    HW2 4173   1.144   3.580   2.052 -0.5221  1.1957 -0.1623
 1032SOL    HW3 4174   1.074   3.526   1.929  0.8263 -3.1194  0.8671
 1032SOL    MW4 4175   1.146   3.557   1.968  0.0494 -0.4003  0.2711
 1033SOL     OW 4176   1.130   3.826   1.885 -0.4527 -0.0112 -0.2139
 1033SOL    HW2 4177   1.148   3.734   1.904 -0.1958  0.0180 -0.3110
 1033SOL    HW3 4178   1.112   3.828   1.791 -0.6509  0.0086 -0.1756
 1033SOL    MW4 4179   1.130   3.814   1.875 -0.4450 -0.0048 -0.2217
 1034SOL     OW 4180   0.919   3.993   1.974 -0.4970  0.3192 -0.2442
 1034SOL    HW2 4181   0.926   3.990   2.069  0.5089  1.7869 -0.2542
 1034SOL    HW3 4182   0.990   3.937   1.943 -1.9845 -1.7050 -0.1490
 1034SOL    MW4 4183   0.929   3.985   1.982 -0.5605  0.2458 -0.2329
 1035SOL     OW 4184   0.927   4.255   1.885 -0.1064 -0.3126  0.2580
 1035SOL    HW2 4185   1.003   4.310   1.904 -1.1016  1.3753 -0.5728
 1035SOL    HW3 4186   0.946   4.172   1.929  1.2162  0.8293  1.8783
 1035SOL    MW4 4187   0.940   4.251   1.893 -0.0632  0.0606  0.3623
 1036SOL     OW 4188   1.160   4.435   1.969 -0.0516  0.2714  0.0946
 1036SOL    HW2 4189   1.155   4.428   2.064 -2.3209  1.4549  0.1113
 1036SOL    HW3 4190   1.226   4.371   1.943 -0.9931 -1.6541  2.2763
 1036SOL    MW4 4191   1.168   4.426   1.978 -0.4753  0.1740  0.3848
 1037SOL     OW 4192   1.566   4.597   1.928 -0.6149 -0.0049  0.4607
 1037SOL    HW2 4193   1.654   4.634   1.923 -1.2741  1.4591 -0.7482
 1037SOL    HW3 4194   1.579   4.506   1.956  1.2126  0.4102  0.9938
 1037SOL    MW4 4195   1.579   4.590   1.931 -0.4609  0.2432  0.3715
 1038SOL     OW 4196   1.388   0.119   1.983  0.3407 -0.4642  0.0617
 1038SOL    HW2 4197   1.362   0.117   2.076  0.1067 -1.1026 -0.0137
 1038SOL    HW3 4198   1.460   0.058   1.977 -0.8870 -1.8785 -0.5404
 1038SOL    MW4 4199   1.394   0.111   1.995  0.1478 -0.7350 -0.0277
 1039SOL     OW 4200   1.396   0.381   1.844  0.0981  0.2467 -0.2095
 1039SOL    HW2 4201   1.396   0.291   1.878 -0.6109  0.4860  0.4354
 1039SOL    HW3 4202   1.364   0.374   1.755 -1.5469  0.0487  0.3757
 1039SOL    MW4 4203   1.392   0.368   1.837 -0.2123  0.2522 -0.0472
 1040SOL     OW 4204   1.616   0.489   1.992  0.5237  0.4106 -0.0480
 1040SOL    HW2 4205   1.696   0.435   1.993  1.1292  1.2883 -0.1648
 1040SOL    HW3 4206   1.556   0.442   1.935  1.4450  0.4164 -1.0424
 1040SOL    MW4 4207   1.619   0.476   1.985  0.7252  0.5271 -0.1945
 1041SOL     OW 4208   1.587   0.749   1.910 -0.1647  0.4242  0.2313
 1041SOL    HW2 4209   1.662   0.799   1.940 -0.0088  0.4844 -0.2504
 1041SOL    HW3 4210   1.601   0.660   1.943 -0.4362  0.6923  1.0773
 1041SOL    MW4 4211   1.599   0.744   1.918 -0.1799  0.4675  0.2793
 1042SOL     OW 4212   1.341   0.863   2.015 -0.2791  0.1960 -0.0728
 1042SOL    HW2 4213   1.349   0.885   2.108 -0.4075  0.2726 -0.0788
 1042SOL    HW3 4214   1.430   0.840   1.988 -0.7350 -2.8853  0.8186
 1042SOL    MW4 4215   1.354   0.863   2.024 -0.3561 -0.2004  0.0439
 1043SOL     OW 4216   1.332   1.095   1.862  0.4508  0.0022 -0.1932
 1043SOL    HW2 4217   1.319   1.006   1.893  1.5987 -0.0202  0.2333
 1043SOL    HW3 4218   1.260   1.145   1.903  0.1242 -0.6131 -0.0044
 1043SOL    MW4 4219   1.321   1.090   1.871  0.5590 -0.0820 -0.1119
 1044SOL     OW 4220   1.558   1.234   1.971 -0.0989  0.2570 -0.6128
 1044SOL    HW2 4221   1.541   1.319   1.931 -0.8589  1.4362  2.0881
 1044SOL    HW3 4222   1.487   1.178   1.938 -1.7519  1.6792  0.4243
 1044SOL    MW4 4223   1.546   1.238   1.962 -0.4172  0.6002 -0.1197
 1045SOL     OW 4224   1.539   1.493   1.863  0.3975  0.3079  0.0394
 1045SOL    HW2 4225   1.614   1.522   1.914 -0.0626 -0.1548  0.9909
 1045SOL    HW3 4226   1.464   1.538   1.901 -0.2093 -1.4516  1.0242
 1045SOL    MW4 4227   1.539   1.503   1.874  0.2567  0.0148  0.2948
 1046SOL     OW 4228   1.328   1.681   1.952  0.0535  0.1687 -0.4779
 1046SOL    HW2 4229   1.325   1.688   2.047  0.0484 -1.7789 -0.3157
 1046SOL    HW3 4230   1.243   1.643   1.928 -0.2471  1.3496 -1.3321
 1046SOL    MW4 4231   1.317   1.677   1.961  0.0134  0.0677 -0.5691
 1047SOL     OW 4232   1.331   1.939   1.858  0.5000 -0.0712 -0.3186
 1047SOL    HW2 4233   1.319   1.846   1.872 -0.4920 -0.1947 -1.8567
 1047SOL    HW3 4234   1.256   1.980   1.901 -0.2704 -0.1561 -1.5524
 1047SOL    MW4 4235   1.320   1.932   1.866  0.2675 -0.0986 -0.6844
 1048SOL     OW 4236   1.562   2.029   1.973 -0.2675 -0.3163  0.4190
 1048SOL    HW2 4237   1.548   2.120   1.947  0.8900 -0.4723 -0.7790
 1048SOL    HW3 4238   1.495   1.981   1.925  0.4946 -0.3448 -0.6306
 1048SOL    MW4 4239   1.551   2.035   1.963 -0.0143 -0.3407  0.1223
 1049SOL     OW 4240   1.570   2.274   1.852  0.1504 -0.1128  0.1153
 1049SOL    HW2 4241   1.643   2.335   1.860  0.3471 -0.2188 -0.8499
 1049SOL    HW3 4242   1.552   2.270   1.759 -0.5703 -0.7062  0.2729
 1049SOL    MW4 4243   1.577   2.281   1.841  0.0813 -0.2053  0.0087
 1050SOL     OW 4244   1.362   2.427   1.971 -0.3592  0.0542 -0.5203
 1050SOL    HW2 4245   1.366   2.520   1.950 -1.6300  0.4241  0.7509
 1050SOL    HW3 4246   1.443   2.390   1.935  0.1875  1.6589 -0.9706
 1050SOL    MW4 4247   1.373   2.434   1.964 -0.4548  0.3147 -0.4120
 1051SOL     OW 4248   1.365   2.683   1.888 -0.0149  0.2884  0.0884
 1051SOL    HW2 4249   1.296   2.744   1.916 -1.1446 -1.4881  1.2334
 1051SOL    HW3 4250   1.363   2.688   1.792  0.6582  2.8615  0.1752
 1051SOL    MW4 4251   1.355   2.692   1.879 -0.0751  0.3934  0.2511
 1052SOL     OW 4252   1.575   2.840   1.967  0.0663  0.0609 -0.7956
 1052SOL    HW2 4253   1.649   2.797   1.924 -0.9546 -0.9725 -1.5440
 1052SOL    HW3 4254   1.499   2.790   1.940 -0.8076  0.4944  0.7904
 1052SOL    MW4 4255   1.575   2.828   1.958 -0.1837 -0.0181 -0.6850
 1053SOL     OW 4256   1.573   3.095   1.884 -0.0667  0.0439 -0.1393
 1053SOL    HW2 4257   1.567   3.004   1.912 -1.2113 -0.1817 -1.0631
 1053SOL    HW3 4258   1.583   3.090   1.789  2.5809  0.8193  0.0386
 1053SOL    MW4 4259   1.574   3.082   1.875  0.1315  0.1163 -0.2377
 1054SOL     OW 4260   1.319   3.211   1.998 -0.3599 -0.0393 -0.0133
 1054SOL    HW2 4261   1.393   3.164   1.960 -0.9094 -0.9661  0.0588
 1054SOL    HW3 4262   1.242   3.172   1.957 -0.9099 -0.3740  1.3019
 1054SOL    MW4 4263   1.318   3.200   1.988 -0.5050 -0.2058  0.1698
 1055SOL     OW 4264   1.366   3.435   1.845  0.1637 -0.2292 -0.4192
 1055SOL    HW2 4265   1.344   3.355   1.891 -0.1688 -0.7763 -1.5128
 1055SOL    HW3 4266   1.296   3.497   1.868  0.2833 -0.3271  0.2165
 1055SOL    MW4 4267   1.354   3.433   1.854  0.1355 -0.3145 -0.4797
 1056SOL     OW 4268   1.534   3.576   2.027  0.0684 -0.0351 -0.3086
 1056SOL    HW2 4269   1.526   3.577   2.122  2.2949 -0.9898 -0.0787
 1056SOL    HW3 4270   1.479   3.503   1.998 -0.5112  0.1814  0.2590
 1056SOL    MW4 4271   1.526   3.566   2.036  0.2857 -0.1326 -0.2036
 1057SOL     OW 4272   1.545   3.822   1.859  0.0367  0.4150 -0.0085
 1057SOL    HW2 4273   1.608   3.875   1.909 -0.4163 -0.8039  1.9259
 1057SOL    HW3 4274   1.539   3.740   1.908 -2.1221  0.0375 -0.8515
 1057SOL    MW4 4275   1.553   3.818   1.872 -0.3080  0.2046  0.1355
 1058SOL     OW 4276   1.328   3.989   1.989 -0.4083  0.2346  0.4282
 1058SOL    HW2 4277   1.407   3.944   1.959 -0.8714 -0.4472  0.2471
 1058SOL    HW3 4278   1.256   3.941   1.950 -0.9410  0.5426  1.0288
 1058SOL    MW4 4279   1.329   3.977   1.980 -0.5397  0.1855  0.4835
 1059SOL     OW 4280   1.339   4.231   1.881  0.2776 -0.1154  0.3892
 1059SOL    HW2 4281   1.333   4.139   1.909  2.7910 -0.1683  0.9036
 1059SOL    HW3 4282   1.346   4.226   1.786 -0.5967 -0.3999  0.3375
 1059SOL    MW4 4283   1.339   4.218   1.872  0.4938 -0.1597  0.4503
 1060SOL     OW 4284   1.591   4.328   1.989 -0.3192  0.5476  0.2997
 1060SOL    HW2 4285   1.581   4.339   2.083 -0.8352  1.9696  0.0831
 1060SOL    HW3 4286   1.504   4.305   1.958 -0.2981  0.7616  0.0806
 1060SOL    MW4 4287   1.578   4.326   1.997 -0.3846  0.7639  0.2422
 1061SOL     OW 4288   2.056   4.571   1.877 -0.3321  0.0804  0.0063
 1061SOL    HW2 4289   2.093   4.647   1.921  1.5843 -1.1916  0.6534
 1061SOL    HW3 4290   2.064   4.500   1.940 -1.8963 -0.7153 -0.6678
 1061SOL    MW4 4291   2.062   4.572   1.891 -0.2856 -0.1922  0.0027
 1062SOL     OW 4292   1.826   0.033   1.956  0.2955  0.0511 -0.3398
 1062SOL    HW2 4293   1.815   0.048   2.050  0.1668 -1.2420 -0.1382
 1062SOL    HW3 4294   1.904  -0.022   1.949  0.8734  0.9550 -1.0613
 1062SOL    MW4 4295   1.835   0.028   1.967  0.3546 -0.0003 -0.4084
 1063SOL     OW 4296   1.850   0.325   1.937 -0.2787  0.8016 -0.0452
 1063SOL    HW2 4297   1.853   0.229   1.927  0.0907  0.7680  0.3696
 1063SOL    HW3 4298   1.838   0.358   1.848  0.0051  0.3841 -0.2395
 1063SOL    MW4 4299   1.849   0.316   1.924 -0.1926  0.7421 -0.0161
 1064SOL     OW 4300   2.069   0.492   2.018  0.1217 -0.1279 -0.1150
 1064SOL    HW2 4301   2.033   0.572   1.979 -0.4994  0.8453  2.3269
 1064SOL    HW3 4302   2.005   0.424   1.997 -0.8411  0.6468  0.2496
 1064SOL    MW4 4303   2.055   0.494   2.010 -0.0870  0.1028  0.2551
 1065SOL     OW 4304   2.022   0.745   1.911 -0.4167  0.0503 -0.1006
 1065SOL    HW2 4305   2.107   0.781   1.938 -0.2772  0.5529 -1.1763
 1065SOL    HW3 4306   2.029   0.737   1.816 -0.4616 -2.8390  0.1025
 1065SOL    MW4 4307   2.034   0.749   1.902 -0.4041 -0.2646 -0.2155
 1066SOL     OW 4308   1.803   0.879   2.001  0.2539  0.0367  0.5592
 1066SOL    HW2 4309   1.819   0.966   1.963  0.2519  0.6203  1.8785
 1066SOL    HW3 4310   1.869   0.823   1.960 -0.4800  0.3878 -1.1754
 1066SOL    MW4 4311   1.814   0.883   1.990  0.1568  0.1600  0.5045
 1067SOL     OW 4312   1.804   1.128   1.889 -0.2102  0.0852 -0.2047
 1067SOL    HW2 4313   1.718   1.163   1.911  0.1497  0.6409  0.3322
 1067SOL    HW3 4314   1.803   1.121   1.794  0.0479  2.4672 -0.4114
 1067SOL    MW4 4315   1.793   1.131   1.880 -0.1286  0.4728 -0.1611
 1068SOL     OW 4316   2.002   1.290   1.991 -0.3981  0.6044  0.5944
 1068SOL    HW2 4317   2.087   1.251   1.970 -0.7235 -0.1060  0.6131
 1068SOL    HW3 4318   1.938   1.230   1.954 -0.9367  0.2186  2.1222
 1068SOL    MW4 4319   2.005   1.277   1.984 -0.5121  0.4599  0.7985
 1069SOL     OW 4320   2.005   1.560   1.903  0.1872  0.5346  0.0182
 1069SOL    HW2 4321   2.004   1.471   1.937 -2.9803  0.6725  0.3777
 1069SOL    HW3 4322   2.014   1.549   1.808 -0.0554 -0.1349  0.0715
 1069SOL    MW4 4323   2.006   1.547   1.895 -0.2630  0.4644  0.0726
 1070SOL     OW 4324   1.751   1.642   1.979  0.3191 -0.1800  0.2145
 1070SOL    HW2 4325   1.747   1.736   1.960 -0.1160 -0.3879 -0.7193
 1070SOL    HW3 4326   1.837   1.615   1.947  1.1874  0.2521  2.1187
 1070SOL    MW4 4327   1.762   1.651   1.972  0.3763 -0.1504  0.3425
 1071SOL     OW 4328   1.813   1.920   1.901 -0.6922 -0.1096  0.1593
 1071SOL    HW2 4329   1.736   1.970   1.926 -0.5535  0.5736 -0.7569
 1071SOL    HW3 4330   1.812   1.920   1.805  0.4505 -0.0805  0.1400
 1071SOL    MW4 4331   1.803   1.926   1.891 -0.5232 -0.0156  0.0360
 1072SOL     OW 4332   2.043   2.048   1.947 -0.2343 -0.5462 -0.2205
 1072SOL    HW2 4333   2.112   1.997   1.903  0.4189  0.0510  0.0971
 1072SOL    HW3 4334   1.962   2.002   1.926  0.2722 -1.3040 -0.5405
 1072SOL    MW4 4335   2.042   2.035   1.939 -0.0813 -0.5674 -0.2209
 1073SOL     OW 4336   2.008   2.315   1.838 -0.0596 -0.3752  0.5188
 1073SOL    HW2 4337   2.089   2.359   1.867 -0.2032  0.1545  0.1241
 1073SOL    HW3 4338   2.016   2.226   1.873  0.1729  0.0006  1.4384
 1073SOL    MW4 4339   2.020   2.309   1.847 -0.0479 -0.2556  0.5882
 1074SOL     OW 4340   1.786   2.440   1.942  0.5763  0.0523  0.0965
 1074SOL    HW2 4341   1.796   2.439   2.037  0.0103 -1.4254  0.1496
 1074SOL    HW3 4342   1.858   2.387   1.909  0.0603 -0.4722 -0.2156
 1074SOL    MW4 4343   1.797   2.433   1.950  0.4336 -0.2122  0.0625
 1075SOL     OW 4344   1.797   2.699   1.874  0.7390 -0.1736  0.0645
 1075SOL    HW2 4345   1.790   2.605   1.892 -1.1727 -0.0073  0.3191
 1075SOL    HW3 4346   1.795   2.705   1.778  1.7119 -0.4499  0.0265
 1075SOL    MW4 4347   1.796   2.687   1.864  0.6152 -0.1881  0.0931
 1076SOL     OW 4348   2.011   2.853   1.967 -0.1594  0.4087 -0.3214
 1076SOL    HW2 4349   2.010   2.865   2.062  0.8696 -0.1686 -0.2287
 1076SOL    HW3 4350   1.940   2.791   1.950 -0.0160  0.1085  0.1447
 1076SOL    MW4 4351   2.002   2.846   1.977 -0.0045  0.2928 -0.2476
 1077SOL     OW 4352   2.036   3.106   1.864 -0.0480  0.2899  0.2482
 1077SOL    HW2 4353   1.960   3.158   1.891 -0.0180  0.2371  0.4339
 1077SOL    HW3 4354   2.026   3.023   1.911  0.7127  0.6928  1.1418
 1077SOL    MW4 4355   2.025   3.102   1.874  0.0563  0.3362  0.3906
 1078SOL     OW 4356   1.810   3.217   1.986  0.0910 -0.0602  0.7235
 1078SOL    HW2 4357   1.808   3.221   2.082  0.9444 -3.0431  0.9024
 1078SOL    HW3 4358   1.725   3.181   1.961 -0.5528  1.7073  0.2508
 1078SOL    MW4 4359   1.798   3.213   1.995  0.1186 -0.2203  0.6849
 1079SOL     OW 4360   1.763   3.476   1.889 -0.0242  0.0834 -0.3323
 1079SOL    HW2 4361   1.788   3.391   1.924 -1.4827  0.1667  0.9889
 1079SOL    HW3 4362   1.688   3.503   1.943  0.3708  2.1591 -0.7618
 1079SOL    MW4 4363   1.757   3.469   1.901 -0.1646  0.3684 -0.2146
 1080SOL     OW 4364   2.001   3.587   1.976 -0.1419  0.2898 -0.2339
 1080SOL    HW2 4365   1.999   3.678   1.946  1.6651  0.3281 -0.3301
 1080SOL    HW3 4366   1.921   3.548   1.941 -1.0388  1.8983 -0.0111
 1080SOL    MW4 4367   1.990   3.594   1.967 -0.0218  0.5071 -0.2172
 1081SOL     OW 4368   2.004   3.853   1.888  0.3889  0.4242  0.4273
 1081SOL    HW2 4369   2.066   3.919   1.919  1.3288 -0.9924  1.6297
 1081SOL    HW3 4370   2.004   3.863   1.793  1.9716  0.9116  0.4610
 1081SOL    MW4 4371   2.012   3.863   1.880  0.7217  0.3014  0.5902
 1082SOL     OW 4372   1.759   3.972   1.975  0.7404 -0.5116  0.1911
 1082SOL    HW2 4373   1.775   4.063   1.952  0.8982 -0.7016 -0.4648
 1082SOL    HW3 4374   1.840   3.927   1.953  0.6632 -0.8125  0.5124
 1082SOL    MW4 4375   1.771   3.978   1.969  0.7510 -0.5767  0.1470
 1083SOL     OW 4376   1.822   4.233   1.899 -0.1975 -0.6683  0.2343
 1083SOL    HW2 4377   1.738   4.261   1.934 -0.6587 -1.2786 -0.3830
 1083SOL    HW3 4378   1.810   4.235   1.804  1.5741  2.7153 -0.0100
 1083SOL    MW4 4379   1.809   4.237   1.891 -0.0247 -0.3023  0.1205
 1084SOL     OW 4380   2.031   4.364   2.054 -0.1312  0.3960 -0.5032
 1084SOL    HW2 4381   2.110   4.334   2.009 -0.4334  0.9371 -1.4288
 1084SOL    HW3 4382   1.959   4.337   1.997 -0.5592  0.6417 -0.0873
 1084SOL    MW4 4383   2.032   4.357   2.040 -0.2275  0.4997 -0.5705
 1085SOL     OW 4384   2.447   0.025   1.883 -0.6411 -0.4000 -0.2908
 1085SOL    HW2 4385   2.533   0.060   1.907 -0.6728 -0.7756  0.3746
 1085SOL    HW3 4386   2.441  -0.059   1.928 -0.9383 -0.8609 -1.1711
 1085SOL    MW4 4387   2.457   0.019   1.892 -0.6845 -0.5104 -0.3191
 1086SOL     OW 4388   2.208   0.116   1.983 -0.3923  0.1661 -0.1968
 1086SOL    HW2 4389   2.225   0.120   2.077 -0.7522 -3.0564  0.0818
 1086SOL    HW3 4390   2.292   0.091   1.944 -0.5586  0.1778 -0.5702
 1086SOL    MW4 4391   2.221   0.113   1.990 -0.4618 -0.2575 -0.2095
 1087SOL     OW 4392   2.291   0.368   1.876 -0.1576  0.1071 -0.3266
 1087SOL    HW2 4393   2.269   0.278   1.899  1.4999 -0.0657  0.6613
 1087SOL    HW3 4394   2.218   0.420   1.911  0.2476 -0.5907  1.6181
 1087SOL    MW4 4395   2.278   0.363   1.884  0.1147 -0.0078  0.0604
 1088SOL     OW 4396   2.497   0.516   1.979 -0.2025  0.0959  0.1831
 1088SOL    HW2 4397   2.579   0.476   1.950 -0.0894 -0.5729  1.3880
 1088SOL    HW3 4398   2.429   0.454   1.953 -0.2021  0.0313  0.3341
 1088SOL    MW4 4399   2.499   0.503   1.972 -0.1874 -0.0009  0.3620
 1089SOL     OW 4400   2.507   0.761   1.892  0.2314 -0.0957  0.4307
 1089SOL    HW2 4401   2.493   0.671   1.921  1.1334 -0.2035  0.5476
 1089SOL    HW3 4402   2.513   0.755   1.796 -2.5506  0.2335  0.1988
 1089SOL    MW4 4403   2.506   0.749   1.883 -0.0167 -0.0665  0.4157
 1090SOL     OW 4404   2.280   0.888   1.992 -0.0721 -0.0834 -0.0125
 1090SOL    HW2 4405   2.272   0.863   2.084 -0.1629 -0.7574 -0.2044
 1090SOL    HW3 4406   2.361   0.846   1.962 -0.0136  0.1789 -0.2292
 1090SOL    MW4 4407   2.290   0.879   2.000 -0.0768 -0.1377 -0.0665
 1091SOL     OW 4408   2.232   1.161   1.941 -0.5816  0.3564 -0.4298
 1091SOL    HW2 4409   2.320   1.196   1.951 -0.5309  0.8929 -2.4908
 1091SOL    HW3 4410   2.243   1.066   1.941 -0.3020  0.3757  1.7143
 1091SOL    MW4 4411   2.245   1.153   1.942 -0.5383  0.4299 -0.4188
 1092SOL     OW 4412   2.485   1.264   1.960 -0.5439 -0.0950 -0.1775
 1092SOL    HW2 4413   2.474   1.288   2.052  0.4698 -0.3381  0.0142
 1092SOL    HW3 4414   2.493   1.347   1.914 -0.2407  0.0114  0.0668
 1092SOL    MW4 4415   2.484   1.278   1.966 -0.3700 -0.1130 -0.1200
 1093SOL     OW 4416   2.465   1.528   1.880  0.2272  0.1523  0.3787
 1093SOL    HW2 4417   2.391   1.572   1.921  0.6126  1.3146 -0.1358
 1093SOL    HW3 4418   2.457   1.549   1.787  2.0494  1.5929  0.5189
 1093SOL    MW4 4419   2.454   1.537   1.873  0.5183  0.4958  0.3294
 1094SOL     OW 4420   2.247   1.650   1.999  0.1569 -0.2605  0.0794
 1094SOL    HW2 4421   2.246   1.662   2.094 -1.7674  3.1928 -0.2706
 1094SOL    HW3 4422   2.158   1.624   1.977  0.2953  0.0585 -0.8805
 1094SOL    MW4 4423   2.235   1.648   2.008 -0.0787  0.2372 -0.0932
 1095SOL     OW 4424   2.237   1.873   1.835  0.4191  0.1354  0.6388
 1095SOL    HW2 4425   2.311   1.921   1.872  0.1333  0.8165  0.3255
 1095SOL    HW3 4426   2.241   1.787   1.878  0.9439  0.4249  1.1817
 1095SOL    MW4 4427   2.247   1.868   1.846  0.4506  0.2633  0.6690
 1096SOL     OW 4428   2.447   2.049   1.963 -0.3915  0.1154 -0.1184
 1096SOL    HW2 4429   2.529   2.021   1.924 -1.2351 -1.0036 -1.1366
 1096SOL    HW3 4430   2.434   2.138   1.931 -0.4686 -0.3530 -1.4328
 1096SOL    MW4 4431   2.456   2.057   1.954 -0.5131 -0.0939 -0.4261
 1097SOL     OW 4432   2.428   2.294   1.850 -0.1009 -0.6244  0.4219
 1097SOL    HW2 4433   2.510   2.331   1.883  0.3125 -1.8086  0.7129
 1097SOL    HW3 4434   2.361   2.357   1.878  0.7113  0.4418  0.0319
 1097SOL    MW4 4435   2.430   2.307   1.858  0.0608 -0.6399  0.4088
 1098SOL     OW 4436   2.218   2.456   1.926  0.1904  0.3810  0.1464
 1098SOL    HW2 4437   2.216   2.462   2.022  1.0492  1.2848  0.1175
 1098SOL    HW3 4438   2.221   2.546   1.897 -2.7877  0.2225 -0.8439
 1098SOL    MW4 4439   2.218   2.468   1.935 -0.0892  0.4792  0.0118
 1099SOL     OW 4440   2.262   2.716   1.841 -0.2130 -0.1519  0.2920
 1099SOL    HW2 4441   2.192   2.774   1.871 -0.1244 -0.6801  1.5679
 1099SOL    HW3 4442   2.249   2.709   1.747 -1.1135  0.7670  0.3411
 1099SOL    MW4 4443   2.251   2.722   1.833 -0.3204 -0.1004  0.4668
 1100SOL     OW 4444   2.495   2.806   1.968 -0.5681 -0.3390 -0.3724
 1100SOL    HW2 4445   2.488   2.897   1.939 -2.7003  0.3487  2.0406
 1100SOL    HW3 4446   2.413   2.765   1.940 -1.0187 -0.6340  1.3085
 1100SOL    MW4 4447   2.483   2.813   1.961 -0.9089 -0.2873  0.1677
 1101SOL     OW 4448   2.494   3.078   1.886 -0.6771 -0.3886 -0.1237
 1101SOL    HW2 4449   2.422   3.130   1.922  0.9576  1.7741  0.1599
 1101SOL    HW3 4450   2.472   3.067   1.794 -1.4594  0.1406 -0.0078
 1101SOL    MW4 4451   2.482   3.084   1.879 -0.5648 -0.0336 -0.0709
 1102SOL     OW 4452   2.275   3.189   1.980 -0.5123  0.0266 -0.4001
 1102SOL    HW2 4453   2.256   3.210   2.072  0.0015 -1.6659  0.1021
 1102SOL    HW3 4454   2.191   3.161   1.944 -0.4839 -0.3917 -0.1434
 1102SOL    MW4 4455   2.262   3.188   1.987 -0.4406 -0.2520 -0.2999
 1103SOL     OW 4456   2.264   3.475   1.887  0.0337  0.3023  0.0660
 1103SOL    HW2 4457   2.249   3.386   1.917 -0.9064  0.2171 -0.6361
 1103SOL    HW3 4458   2.182   3.521   1.903 -0.4361  0.3071 -2.1100
 1103SOL    MW4 4459   2.251   3.469   1.893 -0.1521  0.2916 -0.3138
 1104SOL     OW 4460   2.488   3.642   1.967 -0.6080  0.4579 -0.1644
 1104SOL    HW2 4461   2.496   3.655   2.061 -1.2140  0.8990 -0.1687
 1104SOL    HW3 4462   2.407   3.591   1.957 -0.8354  0.8769 -0.4796
 1104SOL    MW4 4463   2.478   3.637   1.978 -0.7179  0.5713 -0.2065
 1105SOL     OW 4464   2.477   3.920   1.916 -0.1038  0.3986 -0.2579
 1105SOL    HW2 4465   2.386   3.944   1.935  0.3009  1.0405  0.9068
 1105SOL    HW3 4466   2.476   3.824   1.915 -1.1273  0.4022 -1.9680
 1105SOL    MW4 4467   2.465   3.910   1.919 -0.1853  0.4838 -0.3297
 1106SOL     OW 4468   2.222   4.001   1.989 -0.4809  0.3061  0.3067
 1106SOL    HW2 4469   2.225   4.013   2.084 -0.7867  0.2706  0.3218
 1106SOL    HW3 4470   2.214   4.089   1.954  0.2744  0.3666  0.2861
 1106SOL    MW4 4471   2.221   4.014   1.997 -0.4215  0.3095  0.3060
 1107SOL     OW 4472   2.218   4.252   1.866  0.2007  0.0747 -0.1103
 1107SOL    HW2 4473   2.301   4.294   1.887 -0.7935  2.1432 -0.1458
 1107SOL    HW3 4474   2.216   4.251   1.770  0.6682 -1.0165 -0.1195
 1107SOL    MW4 4475   2.229   4.258   1.856  0.1311  0.2031 -0.1162
 1108SOL     OW 4476   2.445   4.376   1.965  0.2151 -0.6225  0.0047
 1108SOL    HW2 4477   2.462   4.374   2.059  0.7464  0.3360 -0.0570
 1108SOL    HW3 4478   2.528   4.350   1.925 -0.0024 -1.0018 -0.1990
 1108SOL    MW4 4479   2.458   4.372   1.972  0.2565 -0.5460 -0.0303
 1109SOL     OW 4480   2.906   4.655   1.866  0.3785 -0.3800 -0.0217
 1109SOL    HW2 4481   2.980   4.699   1.909 -0.3876  0.2015  0.7121
 1109SOL    HW3 4482   2.890   4.578   1.921 -0.1305 -0.0255  0.3337
 1109SOL    MW4 4483   2.914   4.650   1.879  0.2103 -0.2565  0.1220
 1110SOL     OW 4484   2.697   0.141   1.967 -0.0714  0.1118 -0.0712
 1110SOL    HW2 4485   2.691   0.129   2.061 -1.0824 -1.0088 -0.2538
 1110SOL    HW3 4486   2.775   0.092   1.941  1.0375  1.6369  0.3617
 1110SOL    MW4 4487   2.706   0.133   1.976 -0.0584  0.1652 -0.0381
 1111SOL     OW 4488   2.738   0.398   1.870 -0.1144  0.2790 -0.5150
 1111SOL    HW2 4489   2.814   0.444   1.906  0.0781 -0.2369 -0.2590
 1111SOL    HW3 4490   2.747   0.308   1.901 -0.4884  0.0641 -1.0152
 1111SOL    MW4 4491   2.749   0.392   1.879 -0.1383  0.1826 -0.5472
 1112SOL     OW 4492   2.972   0.535   2.002 -0.0184  0.1010  0.2293
 1112SOL    HW2 4493   3.037   0.473   1.970 -0.3334  0.5896 -1.3976
 1112SOL    HW3 4494   2.978   0.609   1.943 -2.0957  0.1285  0.0129
 1112SOL    MW4 4495   2.981   0.536   1.990 -0.3343  0.1692 -0.0137
 1113SOL     OW 4496   2.964   0.752   1.840 -0.3324  0.2137  0.4852
 1113SOL    HW2 4497   3.038   0.795   1.881  0.0284 -0.5181  0.5958
 1113SOL    HW3 4498   2.888   0.778   1.893 -0.0447  0.2817  0.8603
 1113SOL    MW4 4499   2.964   0.761   1.852 -0.2468  0.1261  0.5493
 1114SOL     OW 4500   2.743   0.880   1.979  0.3613 -0.0584 -0.1895
 1114SOL    HW2 4501   2.740   0.968   1.942 -0.0804 -0.1940 -0.4828
 1114SOL    HW3 4502   2.654   0.846   1.968  0.6579 -0.7316 -0.5481
 1114SOL    MW4 4503   2.730   0.887   1.973  0.3421 -0.1651 -0.2755
 1115SOL     OW 4504   2.731   1.138   1.881 -0.5568 -0.0150  0.3407
 1115SOL    HW2 4505   2.658   1.184   1.922 -0.4460  0.3713  0.1123
 1115SOL    HW3 4506   2.724   1.161   1.788  0.2700  0.5912  0.4257
 1115SOL    MW4 4507   2.720   1.147   1.874 -0.4327  0.1160  0.3217
 1116SOL     OW 4508   2.949   1.277   1.969 -0.5582 -0.0664 -0.7440
 1116SOL    HW2 4509   2.935   1.362   1.928 -0.2142 -0.6256 -2.0389
 1116SOL    HW3 4510   2.872   1.225   1.945 -0.9742 -0.0011  0.3959
 1116SOL    MW4 4511   2.937   1.281   1.961 -0.5677 -0.1315 -0.7645
 1117SOL     OW 4512   2.925   1.530   1.840 -0.0702 -0.1809  0.0627
 1117SOL    HW2 4513   3.002   1.571   1.879 -0.0931  0.0675 -0.1579
 1117SOL    HW3 4514   2.950   1.512   1.750 -0.7652  1.1871 -0.4127
 1117SOL    MW4 4515   2.939   1.533   1.833 -0.1647  0.0324 -0.0291
 1118SOL     OW 4516   2.706   1.676   1.944 -0.2651  0.5143 -0.4573
 1118SOL    HW2 4517   2.766   1.626   1.888 -0.1363  0.1864 -0.0250
 1118SOL    HW3 4518   2.626   1.623   1.947 -0.0582  0.2478  0.1629
 1118SOL    MW4 4519   2.703   1.663   1.937 -0.2208  0.4358 -0.3185
 1119SOL     OW 4520   2.681   1.947   1.854 -0.2254 -0.3561 -0.2176
 1119SOL    HW2 4521   2.768   1.984   1.870 -0.6563  0.3990  0.3992
 1119SOL    HW3 4522   2.686   1.858   1.888  0.6226 -0.6670 -1.1391
 1119SOL    MW4 4523   2.693   1.940   1.861 -0.1707 -0.2974 -0.2578
 1120SOL     OW 4524   2.935   2.033   1.949  0.1791  0.4245  0.2657
 1120SOL    HW2 4525   2.938   2.041   2.044 -1.2904 -0.8497  0.4524
 1120SOL    HW3 4526   3.009   1.977   1.927 -0.8894 -1.3204  0.9468
 1120SOL    MW4 4527   2.945   2.026   1.958 -0.1557  0.0260  0.3802
 1121SOL     OW 4528   2.915   2.290   1.842 -0.2813 -0.2531  0.5234
 1121SOL    HW2 4529   2.979   2.344   1.889  0.6012  1.0842 -2.1561
 1121SOL    HW3 4530   2.937   2.200   1.868  2.0829  0.2533  0.4041
 1121SOL    MW4 4531   2.926   2.285   1.852  0.1471 -0.0098  0.1540
 1122SOL     OW 4532   2.667   2.423   1.944  0.1177  0.3793  0.4138
 1122SOL    HW2 4533   2.692   2.513   1.925  0.6419  0.1868  0.1883
 1122SOL    HW3 4534   2.740   2.370   1.910  0.7926 -0.0060  2.4008
 1122SOL    MW4 4535   2.680   2.428   1.937  0.2759  0.3030  0.6461
 1123SOL     OW 4536   2.727   2.694   1.882 -0.0361  0.3414  0.5264
 1123SOL    HW2 4537   2.654   2.745   1.917  0.1503 -0.9726  2.9394
 1123SOL    HW3 4538   2.713   2.694   1.787 -2.6392  0.9041  0.8693
 1123SOL    MW4 4539   2.716   2.700   1.874 -0.3550  0.2422  0.8901
 1124SOL     OW 4540   2.955   2.796   2.002 -0.1808  0.1186  0.2312
 1124SOL    HW2 4541   2.937   2.879   1.958  1.4174 -0.4312 -1.5131
 1124SOL    HW3 4542   2.876   2.744   1.988  0.0157  0.2277 -1.3688
 1124SOL    MW4 4543   2.942   2.800   1.995  0.0560  0.0603 -0.2099
 1125SOL     OW 4544   2.945   3.044   1.882  0.9851 -0.5208 -0.0892
 1125SOL    HW2 4545   3.024   3.088   1.915  0.5678  0.7383 -0.7615
 1125SOL    HW3 4546   2.873   3.096   1.917  0.4903 -0.6804 -0.8698
 1125SOL    MW4 4547   2.946   3.057   1.891  0.8647 -0.3757 -0.2809
 1126SOL     OW 4548   2.734   3.211   1.948 -0.0713 -0.1338 -0.4679
 1126SOL    HW2 4549   2.724   3.301   1.918  0.5666  0.2296  0.3810
 1126SOL    HW3 4550   2.652   3.168   1.924 -0.5043  0.7597 -0.5870
 1126SOL    MW4 4551   2.722   3.217   1.941 -0.0441  0.0319 -0.3717
 1127SOL     OW 4552   2.701   3.500   1.862  0.2996 -0.0808 -0.5257
 1127SOL    HW2 4553   2.778   3.552   1.886  1.2565 -0.8853 -1.7729
 1127SOL    HW3 4554   2.627   3.551   1.893  1.3190  1.0010  0.1691
 1127SOL    MW4 4555   2.701   3.514   1.869  0.5605 -0.0443 -0.5985
 1128SOL     OW 4556   2.919   3.644   1.961  0.0005 -0.0812 -0.4064
 1128SOL    HW2 4557   2.917   3.665   2.055  1.7448  0.6150 -0.5116
 1128SOL    HW3 4558   2.978   3.570   1.955  0.1069  0.0532 -0.9958
 1128SOL    MW4 4559   2.926   3.637   1.973  0.2444  0.0281 -0.4982
 1129SOL     OW 4560   2.910   3.913   1.836 -0.2965 -0.2235  0.1651
 1129SOL    HW2 4561   2.910   3.826   1.877  0.6191 -0.0053  0.6600
 1129SOL    HW3 4562   2.910   3.895   1.742  0.3788 -0.7709  0.2651
 1129SOL    MW4 4563   2.910   3.899   1.829 -0.0868 -0.2668  0.2437
 1130SOL     OW 4564   2.722   4.036   1.991 -0.3865  0.0211  0.4296
 1130SOL    HW2 4565   2.789   3.983   1.948  0.7944  0.3277  1.8479
 1130SOL    HW3 4566   2.640   3.993   1.969  0.4179 -1.3581  0.0710
 1130SOL    MW4 4567   2.720   4.023   1.982 -0.1245 -0.1202  0.5695
 1131SOL     OW 4568   2.670   4.273   1.855  0.7049  0.1974  0.2303
 1131SOL    HW2 4569   2.688   4.184   1.884 -0.9829 -0.3215 -0.3028
 1131SOL    HW3 4570   2.664   4.267   1.760  0.9216  0.9487  0.1638
 1131SOL    MW4 4571   2.672   4.261   1.846  0.5109  0.2279  0.1512
 1132SOL     OW 4572   2.880   4.408   1.990 -0.3671 -0.0410 -0.1087
 1132SOL    HW2 4573   2.866   4.389   2.083  0.7862 -0.0847  0.0684
 1132SOL    HW3 4574   2.813   4.358   1.945 -0.1626 -1.0038  0.6373
 1132SOL    MW4 4575   2.870   4.399   1.996 -0.1881 -0.1736  0.0134
 1133SOL     OW 4576   3.357   4.660   1.925 -0.3328 -0.2128  0.0715
 1133SOL    HW2 4577   3.355   4.568   1.951  1.6202 -1.2187 -3.0796
 1133SOL    HW3 4578   3.352   4.658   1.829  2.2874  2.8371 -0.1992
 1133SOL    MW4 4579   3.356   4.647   1.916  0.2706  0.0567 -0.3799
 1134SOL     OW 4580   3.115   0.116   2.007 -0.2469 -0.1625 -0.1715
 1134SOL    HW2 4581   3.106   0.099   2.101  1.0719  2.5788  0.5089
 1134SOL    HW3 4582   3.200   0.078   1.984  0.4602  1.1098  0.2725
 1134SOL    MW4 4583   3.125   0.109   2.016  0.0205  0.3671 -0.0234
 1135SOL     OW 4584   3.166   0.357   1.889  0.6237 -0.0307 -0.2527
 1135SOL    HW2 4585   3.140   0.281   1.941  0.8494  0.3336  0.3995
 1135SOL    HW3 4586   3.157   0.328   1.798 -0.4823 -0.4269 -0.0207
 1135SOL    MW4 4587   3.162   0.343   1.883  0.5074 -0.0350 -0.1360
 1136SOL     OW 4588   3.367   0.517   2.003 -0.4897 -0.6293  0.2601
 1136SOL    HW2 4589   3.452   0.481   1.979  0.1858  0.9298  0.2430
 1136SOL    HW3 4590   3.303   0.456   1.966  0.5562  0.0742 -2.8639
 1136SOL    MW4 4591   3.370   0.504   1.995 -0.2627 -0.3308 -0.1545
 1137SOL     OW 4592   3.346   0.722   1.835  0.1082 -0.2781 -0.6734
 1137SOL    HW2 4593   3.272   0.767   1.876  0.4649  0.3880 -0.7489
 1137SOL    HW3 4594   3.355   0.641   1.885 -0.3810 -0.1477 -0.3682
 1137SOL    MW4 4595   3.337   0.717   1.847  0.0906 -0.1730 -0.6430
 1138SOL     OW 4596   3.161   0.892   1.963 -0.7315 -0.4570  0.7338
 1138SOL    HW2 4597   3.164   0.897   2.059 -3.1042  0.2700  0.8126
 1138SOL    HW3 4598   3.164   0.983   1.934  0.5720 -0.6992  0.0636
 1138SOL    MW4 4599   3.162   0.904   1.972 -0.8726 -0.3930  0.6557
 1139SOL     OW 4600   3.166   1.139   1.848 -0.6769 -0.1576 -0.1790
 1139SOL    HW2 4601   3.239   1.198   1.864 -0.9539 -0.2007  1.2690
 1139SOL    HW3 4602   3.091   1.179   1.892 -1.0177 -1.2412  0.2580
 1139SOL    MW4 4603   3.166   1.152   1.856 -0.7584 -0.3062  0.0696
 1140SOL     OW 4604   3.399   1.261   1.983 -0.1353 -0.0287  0.2377
 1140SOL    HW2 4605   3.374   1.273   2.075 -0.3206  1.7088 -0.0352
 1140SOL    HW3 4606   3.408   1.350   1.948  0.9148 -0.6605 -1.1664
 1140SOL    MW4 4607   3.397   1.274   1.991 -0.0215  0.1172  0.0163
 1141SOL     OW 4608   3.422   1.506   1.850  0.4378 -0.2055 -0.3942
 1141SOL    HW2 4609   3.482   1.568   1.892 -0.2710  1.3100 -1.5966
 1141SOL    HW3 4610   3.335   1.541   1.867  0.0383 -0.7637 -1.2651
 1141SOL    MW4 4611   3.419   1.519   1.858  0.2918 -0.0792 -0.6678
 1142SOL     OW 4612   3.188   1.607   1.949  0.7948 -0.2810 -0.5017
 1142SOL    HW2 4613   3.180   1.607   2.044  0.3655  1.8625 -0.4999
 1142SOL    HW3 4614   3.180   1.700   1.925  4.3954 -0.3937 -2.3299
 1142SOL    MW4 4615   3.186   1.619   1.958  1.2131 -0.0131 -0.7427
 1143SOL     OW 4616   3.148   1.873   1.870  0.5498  0.0994  0.8001
 1143SOL    HW2 4617   3.218   1.914   1.921  0.3533  0.7509  0.5486
 1143SOL    HW3 4618   3.170   1.894   1.779  0.7426 -0.8154  0.6269
 1143SOL    MW4 4619   3.160   1.881   1.865  0.5493  0.0646  0.7440
 1144SOL     OW 4620   3.352   2.003   2.030 -0.0526 -0.0212  0.3165
 1144SOL    HW2 4621   3.432   1.971   1.990  0.3816  0.5160  0.7434
 1144SOL    HW3 4622   3.335   2.087   1.986 -1.0266 -0.6833 -0.6020
 1144SOL    MW4 4623   3.360   2.010   2.018 -0.1240 -0.0377  0.2518
 1145SOL     OW 4624   3.347   2.277   1.914  0.0398 -0.4204 -0.2048
 1145SOL    HW2 4625   3.269   2.331   1.928  1.0799  0.7129  1.4709
 1145SOL    HW3 4626   3.357   2.274   1.819 -1.1144  0.7741 -0.3853
 1145SOL    MW4 4627   3.338   2.284   1.903  0.0250 -0.1132 -0.0076
 1146SOL     OW 4628   3.106   2.425   1.973 -0.1974 -0.0356 -0.1086
 1146SOL    HW2 4629   3.155   2.420   2.055  0.7574 -1.2021 -0.7291
 1146SOL    HW3 4630   3.105   2.518   1.951  1.8866 -0.0103 -0.1631
 1146SOL    MW4 4631   3.112   2.436   1.981  0.2036 -0.1860 -0.1975
 1147SOL     OW 4632   3.164   2.679   1.889  0.1926 -0.8139 -0.4918
 1147SOL    HW2 4633   3.093   2.724   1.935  2.0171  0.4312  1.1775
 1147SOL    HW3 4634   3.136   2.678   1.797 -1.5400  0.5207 -0.0007
 1147SOL    MW4 4635   3.151   2.685   1.883  0.2048 -0.4735 -0.2067
 1148SOL     OW 4636   3.388   2.828   1.978 -0.1506 -0.0869  0.4033
 1148SOL    HW2 4637   3.374   2.817   2.072 -2.1605 -1.0943 -0.0026
 1148SOL    HW3 4638   3.319   2.776   1.937  0.4721  0.6628 -1.6358
 1148SOL    MW4 4639   3.377   2.819   1.985 -0.3338 -0.1206  0.0807
 1149SOL     OW 4640   3.395   3.099   1.904  0.1717 -0.0120  0.6422
 1149SOL    HW2 4641   3.474   3.144   1.933  0.6635 -1.0775  0.9626
 1149SOL    HW3 4642   3.402   3.011   1.941 -0.2920 -0.6696 -0.7955
 1149SOL    MW4 4643   3.407   3.093   1.912  0.1755 -0.2394  0.4948
 1150SOL     OW 4644   3.139   3.222   1.992  0.1964 -0.1388 -0.5909
 1150SOL    HW2 4645   3.127   3.311   1.958  1.0770  0.4264  0.5430
 1150SOL    HW3 4646   3.229   3.199   1.967  0.2491 -0.3932 -0.1748
 1150SOL    MW4 4647   3.149   3.231   1.984  0.3192 -0.0978 -0.3866
 1151SOL     OW 4648   3.140   3.477   1.886 -0.3574  0.0105 -0.9148
 1151SOL    HW2 4649   3.210   3.537   1.911 -0.6687  0.3460 -0.8295
 1151SOL    HW3 4650   3.145   3.471   1.791  1.2883 -1.8271 -0.7443
 1151SOL    MW4 4651   3.150   3.484   1.877 -0.1812 -0.1874 -0.8811
 1152SOL     OW 4652   3.372   3.604   1.973 -0.0753  0.4321  0.1477
 1152SOL    HW2 4653   3.452   3.566   1.935  0.1406 -1.2563  2.1642
 1152SOL    HW3 4654   3.369   3.693   1.938  1.0297 -0.4835 -2.3849
 1152SOL    MW4 4655   3.382   3.611   1.963  0.0992  0.0887  0.0796
 1153SOL     OW 4656   3.390   3.873   1.879 -0.3793  0.0130 -0.6545
 1153SOL    HW2 4657   3.324   3.942   1.883 -0.2552  0.1360 -0.7440
 1153SOL    HW3 4658   3.417   3.871   1.787  1.0837  1.2194 -0.2646
 1153SOL    MW4 4659   3.385   3.881   1.868 -0.1702  0.1884 -0.6148
 1154SOL     OW 4660   3.139   4.012   1.941 -0.2542 -0.9677 -0.2071
 1154SOL    HW2 4661   3.136   4.009   2.037 -0.7437  0.8643 -0.1504
 1154SOL    HW3 4662   3.053   3.980   1.914 -0.9534  0.6540  0.0404
 1154SOL    MW4 4663   3.127   4.007   1.950 -0.4110 -0.5121 -0.1670
 1155SOL     OW 4664   3.121   4.294   1.860  0.0684  0.2566  0.3961
 1155SOL    HW2 4665   3.115   4.203   1.889  0.2337  0.1645  0.1324
 1155SOL    HW3 4666   3.057   4.340   1.915  0.3275  0.0678  0.8653
 1155SOL    MW4 4667   3.112   4.288   1.871  0.1245  0.2193  0.4231
 1156SOL     OW 4668   3.354   4.388   1.993  0.2761 -0.5498 -0.0566
 1156SOL    HW2 4669   3.435   4.348   1.960  0.8000 -0.8003  1.4891
 1156SOL    HW3 4670   3.285   4.338   1.950  0.9405 -1.1153 -0.4946
 1156SOL    MW4 4671   3.356   4.376   1.983  0.4330 -0.6576  0.0895
 1157SOL     OW 4672   3.828   4.619   1.889  0.5332  0.3176  0.4322
 1157SOL    HW2 4673   3.829   4.538   1.939  0.6501 -0.1288 -0.2761
 1157SOL    HW3 4674   3.758   4.672   1.929 -1.5000 -1.2955 -0.8737
 1157SOL    MW4 4675   3.819   4.616   1.901  0.2801  0.0458  0.1664
 1158SOL     OW 4676   3.619   0.113   1.978  0.4694  0.1478  0.4999
 1158SOL    HW2 4677   3.614   0.118   2.074 -0.2937 -1.6630  0.5865
 1158SOL    HW3 4678   3.537   0.070   1.952 -0.7434  3.3952 -1.2478
 1158SOL    MW4 4679   3.607   0.108   1.987  0.2084  0.3373  0.2806
 1159SOL     OW 4680   3.603   0.388   1.900  0.5085 -0.7943  0.0726
 1159SOL    HW2 4681   3.602   0.300   1.938 -2.2245 -0.5653  0.6810
 1159SOL    HW3 4682   3.600   0.373   1.806 -1.4961 -1.3876  0.2032
 1159SOL    MW4 4683   3.602   0.374   1.893 -0.1163 -0.8424  0.1700
 1160SOL     OW 4684   3.833   0.498   1.982  0.2829 -0.0492  0.2974
 1160SOL    HW2 4685   3.825   0.592   1.964 -0.2714 -0.0346  0.6080
 1160SOL    HW3 4686   3.755   0.459   1.944 -0.2260 -0.1960  1.4592
 1160SOL    MW4 4687   3.822   0.505   1.975  0.1426 -0.0666  0.4919
 1161SOL     OW 4688   3.808   0.746   1.871  0.5894  0.2884  0.0629
 1161SOL    HW2 4689   3.720   0.764   1.903  0.2857 -0.4208 -0.3708
 1161SOL    HW3 4690   3.803   0.762   1.777  0.6908 -0.6256 -0.1037
 1161SOL    MW4 4691   3.796   0.751   1.863  0.5627  0.0741 -0.0163
 1162SOL     OW 4692   3.566   0.842   1.974  0.1326 -0.4674 -0.0859
 1162SOL    HW2 4693   3.586   0.919   1.921 -0.1396  0.6435  1.3723
 1162SOL    HW3 4694   3.503   0.793   1.923  0.8139 -0.0626 -1.3392
 1162SOL    MW4 4695   3.560   0.846   1.961  0.1864 -0.2674 -0.0589
 1163SOL     OW 4696   3.600   1.085   1.868  0.3382  0.3684 -0.2683
 1163SOL    HW2 4697   3.532   1.139   1.907 -0.4010 -0.9099  0.2414
 1163SOL    HW3 4698   3.601   1.110   1.775 -1.2034  0.0043 -0.3948
 1163SOL    MW4 4699   3.591   1.095   1.861  0.0372  0.1518 -0.2177
 1164SOL     OW 4700   3.820   1.269   1.923  0.2274  0.4924 -0.3583
 1164SOL    HW2 4701   3.821   1.289   2.017  0.1162  1.0578 -0.4764
 1164SOL    HW3 4702   3.747   1.209   1.912  0.0954  0.6104 -0.1220
 1164SOL    MW4 4703   3.811   1.264   1.934  0.1950  0.5826 -0.3427
 1165SOL     OW 4704   3.830   1.527   1.806  0.0938  0.0858 -0.1780
 1165SOL    HW2 4705   3.902   1.563   1.858 -0.7571 -0.4718  1.4083
 1165SOL    HW3 4706   3.836   1.432   1.820 -0.7937  0.0181 -0.2407
 1165SOL    MW4 4707   3.840   1.519   1.815 -0.1354  0.0032  0.0232
 1166SOL     OW 4708   3.638   1.652   1.976  0.2364 -0.0686  0.1009
 1166SOL    HW2 4709   3.621   1.736   1.934  0.2354 -0.1512 -0.0641
 1166SOL    HW3 4710   3.706   1.612   1.922 -0.8132 -0.8157 -0.6847
 1166SOL    MW4 4711   3.645   1.658   1.963  0.0978 -0.1781 -0.0244
 1167SOL     OW 4712   3.587   1.902   1.892 -0.6936  0.0763 -0.2759
 1167SOL    HW2 4713   3.664   1.954   1.914 -0.5123 -0.6465  0.8234
 1167SOL    HW3 4714   3.582   1.905   1.796 -0.0132  1.1347 -0.2862
 1167SOL    MW4 4715   3.596   1.909   1.882 -0.5798  0.1205 -0.1321
 1168SOL     OW 4716   3.843   2.015   1.969 -0.1243 -0.1456 -0.0260
 1168SOL    HW2 4717   3.931   1.984   1.949 -0.2444 -0.6883  0.2917
 1168SOL    HW3 4718   3.844   2.107   1.942  0.3602 -0.3040 -0.5555
 1168SOL    MW4 4719   3.855   2.023   1.963 -0.0763 -0.2382 -0.0540
 1169SOL     OW 4720   3.848   2.292   1.880 -0.4062  0.4911 -0.1668
 1169SOL    HW2 4721   3.913   2.358   1.903 -0.4162  0.3092  0.4127
 1169SOL    HW3 4722   3.770   2.317   1.930 -0.3053 -0.1411  0.3269
 1169SOL    MW4 4723   3.846   2.304   1.890 -0.3943  0.3836 -0.0252
 1170SOL     OW 4724   3.616   2.401   1.992  0.2084 -0.0601 -0.1939
 1170SOL    HW2 4725   3.640   2.481   1.946 -0.2112  0.8174  1.0855
 1170SOL    HW3 4726   3.531   2.377   1.957  0.0272  0.4419 -0.1030
 1170SOL    MW4 4727   3.608   2.409   1.982  0.1292  0.1218 -0.0131
 1171SOL     OW 4728   3.609   2.670   1.881  0.1082 -0.2214  0.1335
 1171SOL    HW2 4729   3.682   2.722   1.915  1.1585 -0.0313 -2.3176
 1171SOL    HW3 4730   3.531   2.721   1.903  0.9945  1.5523 -0.7089
 1171SOL    MW4 4731   3.608   2.684   1.888  0.3638  0.0379 -0.3011
 1172SOL     OW 4732   3.827   2.810   1.966  0.3340 -0.0914  0.3024
 1172SOL    HW2 4733   3.822   2.802   2.061  1.7542  0.7483  0.4699
 1172SOL    HW3 4734   3.841   2.904   1.950 -1.3456  0.0001 -0.8137
 1172SOL    MW4 4735   3.828   2.822   1.976  0.2997  0.0315  0.1774
 1173SOL     OW 4736   3.845   3.072   1.900  0.2494 -0.1049  0.0151
 1173SOL    HW2 4737   3.765   3.113   1.932  0.0515  0.3766 -1.0616
 1173SOL    HW3 4738   3.847   3.094   1.807  1.4896 -0.3430 -0.0207
 1173SOL    MW4 4739   3.835   3.080   1.892  0.3870 -0.0732 -0.1317
 1174SOL     OW 4740   3.622   3.224   1.996 -0.4328  0.3178 -0.2543
 1174SOL    HW2 4741   3.608   3.229   2.090 -0.2917 -0.0328 -0.2135
 1174SOL    HW3 4742   3.622   3.315   1.967 -0.3000  0.4369  0.1102
 1174SOL    MW4 4743   3.620   3.236   2.004 -0.3965  0.2873 -0.2007
 1175SOL     OW 4744   3.582   3.476   1.884 -0.4477  0.1923 -0.0906
 1175SOL    HW2 4745   3.658   3.526   1.914  0.1490  0.6290 -2.2325
 1175SOL    HW3 4746   3.595   3.468   1.790 -1.7042 -2.0805 -0.0892
 1175SOL    MW4 4747   3.594   3.482   1.876 -0.5345 -0.0501 -0.3730
 1176SOL     OW 4748   3.824   3.604   1.958  0.0888 -0.0046  0.0440
 1176SOL    HW2 4749   3.892   3.542   1.931  0.3351  0.3404 -0.1254
 1176SOL    HW3 4750   3.849   3.686   1.918 -1.8997 -0.4829 -2.2790
 1176SOL    MW4 4751   3.836   3.606   1.950 -0.1409 -0.0224 -0.2848
 1177SOL     OW 4752   3.862   3.857   1.889  0.5946 -0.0428  0.3840
 1177SOL    HW2 4753   3.786   3.905   1.924 -0.1233 -0.9697  0.1093
 1177SOL    HW3 4754   3.854   3.867   1.794  1.0532  0.2096  0.3715
 1177SOL    MW4 4755   3.851   3.865   1.881  0.5605 -0.1316  0.3462
 1178SOL     OW 4756   3.645   3.975   1.991  0.4651  0.1550 -0.2214
 1178SOL    HW2 4757   3.627   3.989   2.084  0.7165 -2.7618  0.3171
 1178SOL    HW3 4758   3.564   3.937   1.956  1.6644 -2.5355 -0.2461
 1178SOL    MW4 4759   3.632   3.972   1.998  0.6564 -0.5848 -0.1534
 1179SOL     OW 4760   3.602   4.250   1.924  0.1485  0.5732  0.1010
 1179SOL    HW2 4761   3.676   4.301   1.956  0.3041  0.1364  0.4473
 1179SOL    HW3 4762   3.627   4.159   1.941 -0.1081  0.3816 -0.5441
 1179SOL    MW4 4763   3.615   4.244   1.931  0.1352  0.4902  0.0616
 1180SOL     OW 4764   3.832   4.365   1.999 -0.2016 -0.0659 -0.5802
 1180SOL    HW2 4765   3.850   4.353   2.092  0.7335  0.2748 -0.7034
 1180SOL    HW3 4766   3.907   4.325   1.955 -0.3784  0.2365 -1.1638
 1180SOL    MW4 4767   3.844   4.358   2.005 -0.1013  0.0191 -0.6733
 1181SOL     OW 4768   4.294   4.652   1.905 -0.3952 -0.3278 -0.0415
 1181SOL    HW2 4769   4.213   4.697   1.929 -0.1941  1.1256 -1.9615
 1181SOL    HW3 4770   4.363   4.710   1.936  0.0033 -2.4412  3.2595
 1181SOL    MW4 4771   4.292   4.666   1.912 -0.3161 -0.4153  0.1407
 1182SOL     OW 4772   4.037   0.097   1.979  0.4607  0.2634  0.0724
 1182SOL    HW2 4773   4.019   0.093   2.073  2.5340 -1.4672  0.4279
 1182SOL    HW3 4774   3.975   0.035   1.940  0.1427  0.3938  0.3690
 1182SOL    MW4 4775   4.026   0.088   1.986  0.6919  0.0523  0.1584
 1183SOL     OW 4776   4.016   0.352   1.851 -0.1292 -0.1881 -0.0743
 1183SOL    HW2 4777   4.010   0.267   1.896  0.4233 -0.2366 -0.0917
 1183SOL    HW3 4778   3.947   0.405   1.892  0.3811 -0.2233  0.8618
 1183SOL    MW4 4779   4.006   0.347   1.863  0.0110 -0.1991  0.0470
 1184SOL     OW 4780   4.270   0.489   1.937 -0.0452 -0.0765 -0.0169
 1184SOL    HW2 4781   4.270   0.493   2.033  0.0222 -0.2178 -0.0106
 1184SOL    HW3 4782   4.183   0.457   1.914 -0.9326  2.3187 -0.1104
 1184SOL    MW4 4783   4.259   0.485   1.947 -0.1535  0.2209 -0.0285
 1185SOL     OW 4784   4.252   0.764   1.886  0.5335  0.0369  0.3703
 1185SOL    HW2 4785   4.259   0.673   1.912 -0.1607  0.2382  1.3111
 1185SOL    HW3 4786   4.252   0.762   1.790  0.8552 -0.9143  0.3875
 1185SOL    MW4 4787   4.253   0.752   1.877  0.4840 -0.0620  0.4967
 1186SOL     OW 4788   4.034   0.890   1.975  0.1891 -0.0110  0.2212
 1186SOL    HW2 4789   4.105   0.834   1.943  0.8768  0.5353  0.7895
 1186SOL    HW3 4790   3.954   0.840   1.955  0.5488  0.6065 -2.8845
 1186SOL    MW4 4791   4.033   0.876   1.968  0.3276  0.1425 -0.1135
 1187SOL     OW 4792   4.058   1.149   1.884  0.0664 -0.4062 -0.3956
 1187SOL    HW2 4793   4.048   1.063   1.924  1.0638  0.5536  2.0049
 1187SOL    HW3 4794   3.974   1.192   1.898 -0.1062 -0.6283 -0.7365
 1187SOL    MW4 4795   4.046   1.144   1.891  0.1755 -0.3089 -0.1239
 1188SOL     OW 4796   4.295   1.272   1.941 -0.8481 -0.0424 -0.3618
 1188SOL    HW2 4797   4.280   1.283   2.035 -1.0748 -0.3027 -0.3645
 1188SOL    HW3 4798   4.218   1.225   1.910 -0.5665 -0.3569 -0.5960
 1188SOL    MW4 4799   4.283   1.267   1.950 -0.8407 -0.1183 -0.3930
 1189SOL     OW 4800   4.330   1.544   1.891 -0.2309  0.4934 -0.2427
 1189SOL    HW2 4801   4.317   1.454   1.920  0.7901  0.3600 -0.2094
 1189SOL    HW3 4802   4.335   1.538   1.795  1.4205  0.3156 -0.1515
 1189SOL    MW4 4803   4.329   1.531   1.882  0.1216  0.4522 -0.2263
 1190SOL     OW 4804   4.065   1.623   1.949 -0.0050 -0.0858  0.2325
 1190SOL    HW2 4805   4.070   1.627   2.045  0.6340  0.8223  0.1691
 1190SOL    HW3 4806   4.155   1.603   1.921  0.1594  1.2555 -0.2425
 1190SOL    MW4 4807   4.078   1.621   1.958  0.1006  0.2110  0.1615
 1191SOL     OW 4808   4.108   1.888   1.875  0.2182  0.1617 -0.6223
 1191SOL    HW2 4809   4.090   1.794   1.878 -0.3063  0.2873  0.6027
 1191SOL    HW3 4810   4.094   1.912   1.783 -1.7164 -0.5585 -0.5420
 1191SOL    MW4 4811   4.104   1.879   1.863 -0.1063  0.0833 -0.4500
 1192SOL     OW 4812   4.288   2.064   1.999 -0.4409 -0.6381  0.0236
 1192SOL    HW2 4813   4.310   2.052   2.092 -0.8554 -0.0171  0.2033
 1192SOL    HW3 4814   4.236   1.987   1.976 -0.4101 -0.7500  0.3253
 1192SOL    MW4 4815   4.284   2.052   2.008 -0.4916 -0.5710  0.0873
 1193SOL     OW 4816   4.270   2.317   1.883  0.1220 -0.0907 -0.3216
 1193SOL    HW2 4817   4.258   2.227   1.913 -1.5023  0.2289  0.0349
 1193SOL    HW3 4818   4.351   2.346   1.926  0.9084 -1.5019 -0.7940
 1193SOL    MW4 4819   4.279   2.309   1.893  0.0114 -0.2346 -0.3369
 1194SOL     OW 4820   4.057   2.451   1.963 -0.2828  0.2501  0.2416
 1194SOL    HW2 4821   4.056   2.457   2.058 -0.1996  0.4536  0.2296
 1194SOL    HW3 4822   4.133   2.397   1.943 -0.9476 -0.7226  0.3427
 1194SOL    MW4 4823   4.067   2.445   1.973 -0.3595  0.1485  0.2532
 1195SOL     OW 4824   4.058   2.729   1.862  0.2711 -0.5061  0.0626
 1195SOL    HW2 4825   4.067   2.638   1.889  1.1885 -0.4550 -0.0477
 1195SOL    HW3 4826   3.975   2.758   1.899  0.4714 -1.0842  0.9601
 1195SOL    MW4 4827   4.048   2.721   1.870  0.4182 -0.5755  0.1665
 1196SOL     OW 4828   4.286   2.826   1.980 -0.2205  0.1194  0.1738
 1196SOL    HW2 4829   4.269   2.832   2.074 -0.6249 -0.2028  0.1179
 1196SOL    HW3 4830   4.208   2.786   1.943  0.2364 -0.4241 -0.2076
 1196SOL    MW4 4831   4.274   2.822   1.987 -0.2131  0.0050  0.1162
 1197SOL     OW 4832   4.252   3.095   1.877 -0.2102 -0.3362  0.2445
 1197SOL    HW2 4833   4.189   3.148   1.924  0.1906 -0.2656  0.7114
 1197SOL    HW3 4834   4.236   3.005   1.907 -0.1661 -0.3336  0.2759
 1197SOL    MW4 4835   4.242   3.090   1.887 -0.1521 -0.3264  0.3102
 1198SOL     OW 4836   4.045   3.223   1.987  0.7068 -0.0888 -0.3020
 1198SOL    HW2 4837   4.040   3.235   2.082 -0.2645  0.9943 -0.4876
 1198SOL    HW3 4838   3.976   3.160   1.967  0.5172  0.1449 -0.3756
 1198SOL    MW4 4839   4.035   3.216   1.997  0.5546  0.0849 -0.3362
 1199SOL     OW 4840   4.055   3.475   1.868 -0.3194  0.0654  0.7778
 1199SOL    HW2 4841   4.136   3.510   1.907 -0.2293  0.0287  0.6246
 1199SOL    HW3 4842   4.055   3.382   1.893 -0.0898 -0.0352  0.4051
 1199SOL    MW4 4843   4.066   3.467   1.877 -0.2775  0.0474  0.7085
 1200SOL     OW 4844   4.261   3.611   1.980  0.1475 -0.0583  0.0803
 1200SOL    HW2 4845   4.255   3.704   1.956  0.9374  0.3121  1.2904
 1200SOL    HW3 4846   4.350   3.586   1.955 -0.7518 -1.0896 -2.2592
 1200SOL    MW4 4847   4.272   3.620   1.973  0.1335 -0.1454 -0.0688
 1201SOL     OW 4848   4.291   3.868   1.878  0.6432 -0.2223  0.6536
 1201SOL    HW2 4849   4.362   3.903   1.932  0.7810 -0.4403  0.6150
 1201SOL    HW3 4850   4.317   3.887   1.788  2.2251 -3.1275  0.4393
 1201SOL    MW4 4851   4.303   3.875   1.874  0.8693 -0.6344  0.6201
 1202SOL     OW 4852   4.068   4.000   1.982  0.2671 -0.2000 -0.0540
 1202SOL    HW2 4853   4.145   3.954   1.949  0.2821 -0.7953  0.8086
 1202SOL    HW3 4854   3.994   3.946   1.954  0.1637  0.2877 -0.7446
 1202SOL    MW4 4855   4.068   3.987   1.974  0.2556 -0.2143 -0.0315
 1203SOL     OW 4856   4.052   4.257   1.873  0.2146 -0.1782  0.1032
 1203SOL    HW2 4857   4.120   4.306   1.920  1.6342 -1.5620 -0.4765
 1203SOL    HW3 4858   4.046   4.174   1.921 -0.9898 -0.1000  0.0802
 1203SOL    MW4 4859   4.061   4.253   1.886  0.2427 -0.3505  0.0237
 1204SOL     OW 4860   4.274   4.396   1.993  0.3770  0.0236  0.2224
 1204SOL    HW2 4861   4.278   4.395   2.089 -0.6116  0.4313  0.2722
 1204SOL    HW3 4862   4.270   4.488   1.970  0.7936 -0.0646 -0.2331
 1204SOL    MW4 4863   4.274   4.408   2.003  0.3018  0.0663  0.1690
 1205SOL     OW 4864   0.207   4.633   2.342 -0.1735 -0.1263 -0.1210
 1205SOL    HW2 4865   0.227   4.625   2.436  0.2637 -0.0129 -0.2027
 1205SOL    HW3 4866   0.274   4.693   2.309 -0.6779  0.2890 -0.3966
 1205SOL    MW4 4867   0.218   4.640   2.350 -0.1824 -0.0563 -0.1683
 1206SOL     OW 4868   4.483   0.140   2.291 -0.7771 -0.2027 -0.2952
 1206SOL    HW2 4869   4.555   0.084   2.321 -1.3869  0.4527  2.5176
 1206SOL    HW3 4870   4.485   0.132   2.196  3.2309  0.0098 -0.3333
 1206SOL    MW4 4871   4.493   0.132   2.283 -0.3287 -0.0882  0.0710
 1207SOL     OW 4872   0.017   0.431   2.336 -0.5372  0.1701 -0.1811
 1207SOL    HW2 4873   0.108   0.461   2.331 -0.9943  1.4577 -1.1133
 1207SOL    HW3 4874   0.021   0.339   2.312  0.7626 -0.2794  1.6568
 1207SOL    MW4 4875   0.030   0.423   2.332 -0.4260  0.2806 -0.0615
 1208SOL     OW 4876   0.249   0.547   2.266  0.9185 -0.1874 -0.2320
 1208SOL    HW2 4877   0.308   0.478   2.295 -0.0390 -0.5780  0.8366
 1208SOL    HW3 4878   0.227   0.524   2.176 -1.3149 -2.6644  0.8718
 1208SOL    MW4 4879   0.254   0.535   2.258  0.4975 -0.5658  0.0544
 1209SOL     OW 4880   0.241   0.807   2.340 -0.4171  0.4037  0.0671
 1209SOL    HW2 4881   0.231   0.794   2.434  0.7001  0.6264  0.2283
 1209SOL    HW3 4882   0.239   0.719   2.302 -2.0942  0.3980  0.1671
 1209SOL    MW4 4883   0.240   0.794   2.347 -0.4910  0.4324  0.1016
 1210SOL     OW 4884   4.467   0.892   2.288  0.1501 -0.2177 -0.3145
 1210SOL    HW2 4885   4.550   0.851   2.310 -0.1738 -1.0310 -0.5652
 1210SOL    HW3 4886   4.458   0.879   2.193 -0.4199 -0.4579 -0.2349
 1210SOL    MW4 4887   4.477   0.885   2.278  0.0324 -0.3567 -0.3371
 1211SOL     OW 4888   4.480   1.174   2.338 -0.1816 -0.4034 -0.6447
 1211SOL    HW2 4889   4.501   1.182   2.431  0.3786  0.7916 -0.8766
 1211SOL    HW3 4890   4.463   1.080   2.326  1.5661 -0.8588  0.2761
 1211SOL    MW4 4891   4.480   1.162   2.349  0.1229 -0.3058 -0.5541
 1212SOL     OW 4892   0.233   1.255   2.266  0.1817 -0.4953  0.4306
 1212SOL    HW2 4893   0.146   1.219   2.284  0.7246 -1.7659  0.5446
 1212SOL    HW3 4894   0.237   1.265   2.171 -0.7367  1.2461  0.5561
 1212SOL    MW4 4895   0.222   1.252   2.256  0.1321 -0.4331  0.4618
 1213SOL     OW 4896   0.253   1.517   2.358  0.0280 -0.2568  0.5543
 1213SOL    HW2 4897   0.241   1.513   2.453 -0.9447 -1.4564  0.3914
 1213SOL    HW3 4898   0.257   1.426   2.330  0.4762  0.0911 -0.5490
 1213SOL    MW4 4899   0.252   1.504   2.367 -0.0412 -0.3692  0.3872
 1214SOL     OW 4900   0.039   1.665   2.287 -0.1362 -0.3190  0.1840
 1214SOL    HW2 4901   0.049   1.748   2.334 -0.6515  0.1890 -0.5908
 1214SOL    HW3 4902   0.112   1.611   2.318 -0.6253 -0.0961  1.7769
 1214SOL    MW4 4903   0.050   1.669   2.297 -0.2687 -0.2227  0.2921
 1215SOL     OW 4904   0.030   1.912   2.424  0.1133  0.2830  0.2264
 1215SOL    HW2 4905  -0.041   1.952   2.374  0.4175 -1.7396 -1.8947
 1215SOL    HW3 4906   0.110   1.946   2.384  0.3477 -0.3463  0.1489
 1215SOL    MW4 4907   0.031   1.922   2.412  0.1844 -0.0669 -0.0637
 1216SOL     OW 4908   0.252   2.046   2.255  0.2161 -0.3572  0.2605
 1216SOL    HW2 4909   0.336   2.004   2.269  1.1600  1.1069 -0.9025
 1216SOL    HW3 4910   0.248   2.062   2.161 -1.5821 -0.8731  0.2336
 1216SOL    MW4 4911   0.262   2.043   2.244  0.1033 -0.2322  0.1037
 1217SOL     OW 4912   0.241   2.327   2.351  0.1064 -0.1232 -0.1334
 1217SOL    HW2 4913   0.248   2.328   2.446  0.9882  0.8514 -0.1953
 1217SOL    HW3 4914   0.258   2.236   2.326  0.9132 -0.1690  0.5713
 1217SOL    MW4 4915   0.244   2.315   2.360  0.3292 -0.0007 -0.0484
 1218SOL     OW 4916   0.008   2.477   2.269 -0.6034 -0.7936  0.7050
 1218SOL    HW2 4917   0.009   2.561   2.315 -3.1931 -1.5347  2.2142
 1218SOL    HW3 4918   0.094   2.438   2.287 -0.0771  0.7133  1.4972
 1218SOL    MW4 4919   0.020   2.483   2.277 -0.8757 -0.6928  1.0090
 1219SOL     OW 4920   4.486   2.733   2.366  0.8473  0.1291  0.2434
 1219SOL    HW2 4921   4.478   2.734   2.461  0.1016 -2.3052  0.2455
 1219SOL    HW3 4922   4.576   2.759   2.349  1.1293  0.0877  1.6339
 1219SOL    MW4 4923   4.497   2.737   2.376  0.7858 -0.1976  0.4270
 1220SOL     OW 4924   0.240   2.818   2.272  0.2238 -0.5364  0.2668
 1220SOL    HW2 4925   0.327   2.796   2.304  0.4049 -0.0705  0.0905
 1220SOL    HW3 4926   0.245   2.808   2.177  0.6153  1.3177  0.0808
 1220SOL    MW4 4927   0.252   2.814   2.264  0.2994 -0.2306  0.2191
 1221SOL     OW 4928   0.250   3.085   2.350  0.1966 -0.0219  0.2227
 1221SOL    HW2 4929   0.169   3.115   2.307 -0.1185  1.0147  1.4909
 1221SOL    HW3 4930   0.255   2.992   2.330 -2.1947 -0.4609  1.4610
 1221SOL    MW4 4931   0.240   3.077   2.342 -0.1605  0.0570  0.5531
 1222SOL     OW 4932   0.008   3.195   2.265  0.0661  0.0291 -0.1647
 1222SOL    HW2 4933   0.004   3.288   2.287  1.0325 -0.0627  0.4028
 1222SOL    HW3 4934  -0.012   3.192   2.171 -0.4377  0.7599 -0.0837
 1222SOL    MW4 4935   0.005   3.206   2.255  0.1268  0.1135 -0.0792
 1223SOL     OW 4936   0.002   3.470   2.350 -0.5335 -0.1187  0.4073
 1223SOL    HW2 4937   0.008   3.450   2.444 -1.8415 -0.9404  0.3347
 1223SOL    HW3 4938  -0.080   3.519   2.341 -0.0938  0.5088 -0.2170
 1223SOL    MW4 4939  -0.008   3.473   2.361 -0.6481 -0.1445  0.3150
 1224SOL     OW 4940   0.233   3.575   2.256 -0.4309  0.4296  0.2405
 1224SOL    HW2 4941   0.301   3.547   2.318 -0.2173 -1.9599 -1.0534
 1224SOL    HW3 4942   0.152   3.539   2.291 -0.3027 -0.9761 -0.8691
 1224SOL    MW4 4943   0.232   3.567   2.269 -0.3858 -0.0710 -0.0768
 1225SOL     OW 4944   0.231   3.834   2.385 -0.1941 -0.0852 -0.2720
 1225SOL    HW2 4945   0.152   3.880   2.358  0.7264  0.6967 -1.6972
 1225SOL    HW3 4946   0.229   3.751   2.337 -0.4074 -0.3049  0.1086
 1225SOL    MW4 4947   0.221   3.829   2.375 -0.1008 -0.0110 -0.4098
 1226SOL     OW 4948   0.007   3.989   2.301  0.5490 -0.6237  0.2777
 1226SOL    HW2 4949   0.010   4.081   2.327  2.6187 -0.8536  0.9270
 1226SOL    HW3 4950  -0.004   3.991   2.206  0.1222  0.2701  0.3368
 1226SOL    MW4 4951   0.006   4.001   2.292  0.7658 -0.5360  0.3712
 1227SOL     OW 4952   4.484   4.257   2.399  0.1238 -0.1681 -0.3815
 1227SOL    HW2 4953   4.494   4.263   2.494 -2.1813 -0.4638 -0.0868
 1227SOL    HW3 4954   4.555   4.311   2.364  0.3952  0.7634  1.5366
 1227SOL    MW4 4955   4.494   4.265   2.407 -0.1450 -0.0844 -0.0894
 1228SOL     OW 4956   0.201   4.367   2.273  0.1117  0.0727 -0.1605
 1228SOL    HW2 4957   0.287   4.328   2.292  0.8993  0.9903 -1.7783
 1228SOL    HW3 4958   0.212   4.459   2.296 -0.6300  0.0821  0.1638
 1228SOL    MW4 4959   0.214   4.374   2.279  0.1178  0.1950 -0.3312
 1229SOL     OW 4960   0.644   4.632   2.379 -0.2479 -0.1851 -0.4672
 1229SOL    HW2 4961   0.646   4.618   2.474 -1.8399 -0.1884 -0.4165
 1229SOL    HW3 4962   0.733   4.660   2.357  0.5482 -1.6244  0.7940
 1229SOL    MW4 4963   0.656   4.634   2.388 -0.3529 -0.3753 -0.2942
 1230SOL     OW 4964   0.424   0.107   2.268  0.3892  0.7762  0.1254
 1230SOL    HW2 4965   0.491   0.050   2.305 -1.0209 -0.3848  0.9538
 1230SOL    HW3 4966   0.434   0.097   2.173  3.5296  3.1935  0.1207
 1230SOL    MW4 4967   0.434   0.098   2.260  0.6175  0.9420  0.2339
 1231SOL     OW 4968   0.426   0.367   2.346  0.2228 -0.5697 -0.1786
 1231SOL    HW2 4969   0.426   0.372   2.442 -1.9477  0.5929 -0.2113
 1231SOL    HW3 4970   0.433   0.273   2.328 -1.5081 -1.0002  1.1754
 1231SOL    MW4 4971   0.427   0.355   2.357 -0.2919 -0.4731 -0.0043
 1232SOL     OW 4972   0.694   0.482   2.290 -0.2973  0.7121 -0.1867
 1232SOL    HW2 4973   0.685   0.577   2.292 -0.3139  0.7121 -0.2696
 1232SOL    HW3 4974   0.606   0.449   2.305 -0.1139  0.7056  0.9345
 1232SOL    MW4 4975   0.682   0.490   2.292 -0.2753  0.7112 -0.0496
 1233SOL     OW 4976   0.677   0.748   2.332  0.0628  0.1715 -0.3450
 1233SOL    HW2 4977   0.656   0.734   2.424 -0.9409  2.0691 -0.2522
 1233SOL    HW3 4978   0.609   0.808   2.301  0.9283  0.2873 -2.0785
 1233SOL    MW4 4979   0.665   0.754   2.340  0.0446  0.4371 -0.5615
 1234SOL     OW 4980   0.474   0.930   2.235 -0.0891  0.2350  0.2855
 1234SOL    HW2 4981   0.394   0.892   2.271 -0.3501  1.3954  0.9611
 1234SOL    HW3 4982   0.472   0.907   2.142 -0.9696 -0.1557  0.3986
 1234SOL    MW4 4983   0.463   0.922   2.227 -0.2397  0.3366  0.3896
 1235SOL     OW 4984   0.468   1.159   2.373 -0.5824  0.1304  0.3467
 1235SOL    HW2 4985   0.482   1.073   2.333  0.2089  0.1318  0.6119
 1235SOL    HW3 4986   0.384   1.188   2.338  0.4550  0.4734 -1.9373
 1235SOL    MW4 4987   0.459   1.151   2.363 -0.3411  0.1760  0.0803
 1236SOL     OW 4988   0.677   1.300   2.240  0.1211 -0.6048 -0.3256
 1236SOL    HW2 4989   0.684   1.385   2.284 -2.1597 -0.3156 -0.4563
 1236SOL    HW3 4990   0.612   1.252   2.291 -0.7744 -1.1594 -1.9517
 1236SOL    MW4 4991   0.669   1.305   2.252 -0.2980 -0.6399 -0.5577
 1237SOL     OW 4992   0.702   1.544   2.399  0.3048 -0.2696 -0.0055
 1237SOL    HW2 4993   0.706   1.560   2.493 -0.7081  0.9247 -0.1543
 1237SOL    HW3 4994   0.775   1.594   2.363 -1.1247  1.7521 -0.1621
 1237SOL    MW4 4995   0.712   1.553   2.407 -0.0173  0.1547 -0.0455
 1238SOL     OW 4996   0.466   1.651   2.276 -0.1073  0.1890 -0.2322
 1238SOL    HW2 4997   0.541   1.610   2.319  0.0963  0.3881 -0.3947
 1238SOL    HW3 4998   0.389   1.606   2.312  0.1497 -0.8533 -0.9540
 1238SOL    MW4 4999   0.466   1.640   2.286 -0.0466  0.0778 -0.3490
 1239SOL     OW 5000   0.474   1.912   2.394  0.0896 -0.1700 -0.5301
 1239SOL    HW2 5001   0.540   1.948   2.334 -0.1566  1.1416 -0.0162
 1239SOL    HW3 5002   0.448   1.830   2.352 -0.4531  0.9661 -2.5159
 1239SOL    MW4 5003   0.480   1.906   2.380 -0.0145  0.1531 -0.7241
 1240SOL     OW 5004   0.683   2.067   2.266 -0.0799 -0.1558  0.3066
 1240SOL    HW2 5005   0.766   2.028   2.293  0.5794  0.5150 -0.7158
 1240SOL    HW3 5006   0.691   2.159   2.288 -0.4680 -0.0493  0.0046
 1240SOL    MW4 5007   0.695   2.074   2.272 -0.0441 -0.0532  0.1318
 1241SOL     OW 5008   0.703   2.324   2.358  0.4365 -0.0854  0.2879
 1241SOL    HW2 5009   0.700   2.324   2.453  0.5027 -1.4698  0.2927
 1241SOL    HW3 5010   0.776   2.382   2.336  1.3444 -0.9272  1.1034
 1241SOL    MW4 5011   0.712   2.332   2.367  0.5651 -0.3791  0.3960
 1242SOL     OW 5012   0.471   2.471   2.281 -0.0531 -0.3676 -0.2125
 1242SOL    HW2 5013   0.543   2.421   2.318 -0.4856  0.1105  1.3033
 1242SOL    HW3 5014   0.393   2.417   2.296 -0.4974  0.6533  1.2774
 1242SOL    MW4 5015   0.470   2.458   2.288 -0.1688 -0.1695  0.1841
 1243SOL     OW 5016   0.483   2.731   2.343  0.0090 -0.4279  0.0058
 1243SOL    HW2 5017   0.484   2.730   2.439 -0.7444 -1.0790  0.0190
 1243SOL    HW3 5018   0.475   2.639   2.318 -1.7824 -0.1416 -0.6230
 1243SOL    MW4 5019   0.482   2.719   2.352 -0.3268 -0.4761 -0.0753
 1244SOL     OW 5020   0.685   2.851   2.227 -0.3673 -0.1361 -0.1042
 1244SOL    HW2 5021   0.756   2.804   2.272 -0.0953  0.6911  0.3501
 1244SOL    HW3 5022   0.605   2.817   2.266 -0.1620 -0.0380  0.4094
 1244SOL    MW4 5023   0.684   2.840   2.238 -0.3043 -0.0141  0.0234
 1245SOL     OW 5024   0.692   3.092   2.396  0.0573 -0.1295 -0.1989
 1245SOL    HW2 5025   0.610   3.134   2.370  0.4291  0.4121 -0.5279
 1245SOL    HW3 5026   0.696   3.013   2.342  0.8416  1.0117 -1.8658
 1245SOL    MW4 5027   0.682   3.088   2.385  0.2099  0.0925 -0.4621
 1246SOL     OW 5028   0.476   3.208   2.267  0.0726  0.5256  0.6492
 1246SOL    HW2 5029   0.402   3.161   2.305  1.1026 -0.9758  0.8616
 1246SOL    HW3 5030   0.476   3.183   2.174  1.2658 -0.7969  0.9834
 1246SOL    MW4 5031   0.466   3.199   2.259  0.3659  0.1531  0.7212
 1247SOL     OW 5032   0.464   3.466   2.381  0.5182  0.0405  0.0507
 1247SOL    HW2 5033   0.545   3.508   2.349  0.7676 -0.3875  0.1160
 1247SOL    HW3 5034   0.464   3.380   2.339  0.4348 -0.2169  0.5818
 1247SOL    MW4 5035   0.475   3.461   2.371  0.5401 -0.0496  0.1295
 1248SOL     OW 5036   0.658   3.647   2.303 -0.2323  0.0123  0.0232
 1248SOL    HW2 5037   0.677   3.739   2.321 -0.3878 -0.1694  1.1995
 1248SOL    HW3 5038   0.675   3.636   2.210  0.2096  1.1282 -0.0328
 1248SOL    MW4 5039   0.662   3.658   2.293 -0.1945  0.1357  0.1709
 1249SOL     OW 5040   0.677   3.933   2.381 -0.2721 -0.0372 -0.1033
 1249SOL    HW2 5041   0.682   3.928   2.476  0.5353  0.9423 -0.0912
 1249SOL    HW3 5042   0.588   3.964   2.363 -0.0131  1.0143  0.3844
 1249SOL    MW4 5043   0.666   3.936   2.391 -0.1314  0.2308 -0.0372
 1250SOL     OW 5044   0.428   3.999   2.298 -0.1416  0.3910  0.0786
 1250SOL    HW2 5045   0.367   3.929   2.322  1.1297 -0.6001  0.5298
 1250SOL    HW3 5046   0.432   3.995   2.202 -1.4781  1.0728 -0.0067
 1250SOL    MW4 5047   0.420   3.989   2.289 -0.1501  0.3502  0.1266
 1251SOL     OW 5048   0.436   4.260   2.360 -0.1173  0.2500 -0.0360
 1251SOL    HW2 5049   0.518   4.306   2.339 -0.0915  0.2083 -0.0266
 1251SOL    HW3 5050   0.448   4.172   2.325 -0.8616  0.7666 -1.6387
 1251SOL    MW4 5051   0.449   4.254   2.353 -0.2121  0.3128 -0.2460
 1252SOL     OW 5052   0.669   4.370   2.277 -0.1941  0.0430  0.2479
 1252SOL    HW2 5053   0.681   4.462   2.301 -1.2379 -0.1041  1.4001
 1252SOL    HW3 5054   0.683   4.367   2.183 -0.4572  1.4402  0.1621
 1252SOL    MW4 5055   0.672   4.381   2.268 -0.3666  0.2079  0.3886
 1253SOL     OW 5056   1.147   4.619   2.383 -0.4753  0.1034  0.3640
 1253SOL    HW2 5057   1.156   4.604   2.477  0.1225  0.3264  0.3437
 1253SOL    HW3 5058   1.068   4.672   2.375  0.4982  1.6981  0.9179
 1253SOL    MW4 5059   1.138   4.624   2.395 -0.2680  0.3433  0.4344
 1254SOL     OW 5060   0.903   0.077   2.327 -0.0021 -0.1774  0.1174
 1254SOL    HW2 5061   0.899   0.171   2.344  0.3240 -0.1022 -0.2098
 1254SOL    HW3 5062   0.909   0.071   2.231  1.1111 -0.4933  0.2009
 1254SOL    MW4 5063   0.903   0.089   2.316  0.1878 -0.2091  0.0851
 1255SOL     OW 5064   0.931   0.352   2.371 -0.7586 -0.0735  0.6870
 1255SOL    HW2 5065   1.005   0.403   2.338  0.1989 -1.9237 -0.1628
 1255SOL    HW3 5066   0.854   0.394   2.335  0.1141 -0.3814 -1.6676
 1255SOL    MW4 5067   0.931   0.364   2.362 -0.5172 -0.3582  0.2639
 1256SOL     OW 5068   1.125   0.529   2.283  0.4358 -0.0381  0.6548
 1256SOL    HW2 5069   1.202   0.476   2.303  0.0735 -0.1897  1.6368
 1256SOL    HW3 5070   1.117   0.524   2.188 -0.9055 -3.5882  0.9095
 1256SOL    MW4 5071   1.134   0.522   2.273  0.2110 -0.5265  0.8178
 1257SOL     OW 5072   1.136   0.796   2.362  0.3665  0.4510  0.2378
 1257SOL    HW2 5073   1.050   0.824   2.330 -0.5041 -1.0135  1.2017
 1257SOL    HW3 5074   1.136   0.701   2.350  1.7554  0.4011  0.5142
 1257SOL    MW4 5075   1.125   0.787   2.356  0.4348  0.2511  0.4015
 1258SOL     OW 5076   0.904   0.894   2.240  0.3196 -0.4818  0.0289
 1258SOL    HW2 5077   0.908   0.980   2.280  0.2584 -0.8580  0.8450
 1258SOL    HW3 5078   0.821   0.857   2.270 -0.1410 -0.4239 -1.1425
 1258SOL    MW4 5079   0.894   0.900   2.249  0.2508 -0.5238 -0.0181
 1259SOL     OW 5080   0.886   1.153   2.345 -0.4064  0.1507 -0.5327
 1259SOL    HW2 5081   0.955   1.217   2.328 -0.0012 -0.1741 -0.1449
 1259SOL    HW3 5082   0.805   1.199   2.325 -0.2029  1.2533  1.0846
 1259SOL    MW4 5083   0.884   1.167   2.340 -0.3262  0.2533 -0.2682
 1260SOL     OW 5084   1.114   1.317   2.260  0.0397 -0.0653 -0.0202
 1260SOL    HW2 5085   1.181   1.261   2.300 -0.6634 -1.0060 -0.1434
 1260SOL    HW3 5086   1.129   1.308   2.165  0.4664  0.6355 -0.0261
 1260SOL    MW4 5087   1.125   1.308   2.253  0.0033 -0.0970 -0.0372
 1261SOL     OW 5088   1.149   1.578   2.396  0.5390 -0.5130 -0.1614
 1261SOL    HW2 5089   1.082   1.628   2.350 -0.5771  0.2867  2.2526
 1261SOL    HW3 5090   1.149   1.493   2.353 -1.0970 -0.0700 -1.0712
 1261SOL    MW4 5091   1.140   1.573   2.385  0.1760 -0.3490  0.0372
 1262SOL     OW 5092   0.909   1.676   2.279 -0.7925 -0.1694  0.3625
 1262SOL    HW2 5093   0.909   1.769   2.302 -0.2229 -0.1593  0.3206
 1262SOL    HW3 5094   0.888   1.674   2.185  0.5859 -0.0039  0.0459
 1262SOL    MW4 5095   0.906   1.688   2.270 -0.5355 -0.1463  0.3154
 1263SOL     OW 5096   0.907   1.936   2.365 -0.1301 -0.5705  0.3079
 1263SOL    HW2 5097   0.904   1.947   2.460 -0.6498  0.7827  0.1516
 1263SOL    HW3 5098   0.983   1.989   2.338 -0.6130 -0.1035 -0.1317
 1263SOL    MW4 5099   0.917   1.945   2.374 -0.2624 -0.3304  0.2291
 1264SOL     OW 5100   1.123   2.074   2.270 -0.0366  0.3237  0.1255
 1264SOL    HW2 5101   1.203   2.029   2.295 -1.0302 -0.3164  2.2941
 1264SOL    HW3 5102   1.114   2.057   2.176  0.7888 -2.1082  0.4595
 1264SOL    MW4 5103   1.132   2.066   2.261 -0.0589 -0.0815  0.4556
 1265SOL     OW 5104   1.157   2.333   2.361 -0.4859 -0.0531 -0.0072
 1265SOL    HW2 5105   1.223   2.382   2.313  1.3618 -0.9837  1.5381
 1265SOL    HW3 5106   1.154   2.248   2.319 -1.3193  0.2696 -0.6091
 1265SOL    MW4 5107   1.165   2.328   2.349 -0.3520 -0.1333  0.1173
 1266SOL     OW 5108   0.926   2.469   2.279 -0.3995 -0.5674  0.2704
 1266SOL    HW2 5109   1.002   2.428   2.319 -1.1367 -0.9609  1.2934
 1266SOL    HW3 5110   0.941   2.461   2.185  1.3313  0.3285  0.4481
 1266SOL    MW4 5111   0.938   2.462   2.272 -0.2685 -0.5009  0.4289
 1267SOL     OW 5112   0.890   2.733   2.347  0.0803 -0.1127 -0.4917
 1267SOL    HW2 5113   0.914   2.738   2.440  1.6714  1.1231 -0.9441
 1267SOL    HW3 5114   0.904   2.641   2.324 -1.0403 -0.5907  0.6593
 1267SOL    MW4 5115   0.895   2.721   2.356  0.1423 -0.0129 -0.3994
 1268SOL     OW 5116   1.145   2.869   2.234 -0.2470 -0.2151  0.0891
 1268SOL    HW2 5117   1.218   2.816   2.266  0.0463 -0.1455 -0.4578
 1268SOL    HW3 5118   1.067   2.817   2.255 -0.0252 -0.4074  0.4449
 1268SOL    MW4 5119   1.145   2.855   2.241 -0.1791 -0.2313  0.0641
 1269SOL     OW 5120   1.121   3.112   2.372  0.1442 -0.1117 -0.0098
 1269SOL    HW2 5121   1.044   3.155   2.333 -0.7640 -0.7547  1.0535
 1269SOL    HW3 5122   1.122   3.025   2.332  0.2382 -0.1466  0.0700
 1269SOL    MW4 5123   1.111   3.107   2.361  0.0368 -0.2010  0.1409
 1270SOL     OW 5124   0.889   3.224   2.246  0.0337 -0.0126  0.0310
 1270SOL    HW2 5125   0.879   3.313   2.280 -0.6053  0.1381 -0.5543
 1270SOL    HW3 5126   0.825   3.173   2.295 -0.4580  0.0887 -0.4977
 1270SOL    MW4 5127   0.879   3.229   2.257 -0.1155  0.0205 -0.1161
 1271SOL     OW 5128   0.897   3.485   2.381 -0.0740  0.2719  0.0532
 1271SOL    HW2 5129   0.902   3.477   2.477  1.3776  0.8851  0.0377
 1271SOL    HW3 5130   0.821   3.542   2.366 -2.4096 -2.5871  0.6749
 1271SOL    MW4 5131   0.887   3.492   2.392 -0.1907 -0.0241  0.1333
 1272SOL     OW 5132   1.106   3.615   2.244  0.7653 -0.3006 -0.4381
 1272SOL    HW2 5133   1.186   3.579   2.282 -0.1124 -2.0886 -0.2466
 1272SOL    HW3 5134   1.037   3.554   2.271 -0.6962  1.3158 -0.4516
 1272SOL    MW4 5135   1.107   3.602   2.253  0.4568 -0.3233 -0.4146
 1273SOL     OW 5136   1.131   3.850   2.388 -0.0047 -0.2018  0.5780
 1273SOL    HW2 5137   1.202   3.903   2.351 -0.6598  0.7478  0.6664
 1273SOL    HW3 5138   1.131   3.771   2.334 -1.2908  1.3918 -1.8942
 1273SOL    MW4 5139   1.140   3.847   2.376 -0.2609  0.1338  0.2637
 1274SOL     OW 5140   0.914   3.995   2.253  0.3133 -0.2323 -0.3569
 1274SOL    HW2 5141   0.980   3.934   2.284  1.0116  0.7210  0.0241
 1274SOL    HW3 5142   0.834   3.971   2.301  0.9543  0.1260  0.8943
 1274SOL    MW4 5143   0.912   3.984   2.263  0.4900 -0.0594 -0.1416
 1275SOL     OW 5144   0.899   4.252   2.363 -0.0463 -0.1605 -0.6712
 1275SOL    HW2 5145   0.896   4.164   2.326 -0.2662 -0.4557  0.0462
 1275SOL    HW3 5146   0.820   4.295   2.331 -0.8032 -0.7742  0.3326
 1275SOL    MW4 5147   0.889   4.246   2.354 -0.1752 -0.2799 -0.4444
 1276SOL     OW 5148   1.144   4.366   2.268  0.1911  0.3357  0.4821
 1276SOL    HW2 5149   1.059   4.330   2.292  0.6289 -0.3392  1.0434
 1276SOL    HW3 5150   1.148   4.450   2.313  0.2111 -0.0593  1.2318
 1276SOL    MW4 5151   1.133   4.372   2.277  0.2514  0.1945  0.6549
 1277SOL     OW 5152   1.564   4.625   2.364  0.2101  0.0277  0.0971
 1277SOL    HW2 5153   1.640   4.659   2.315  0.4805  0.3416  0.7338
 1277SOL    HW3 5154   1.491   4.681   2.337  0.7921  1.5794  1.6666
 1277SOL    MW4 5155   1.564   4.637   2.354  0.3227  0.2737  0.3881
 1278SOL     OW 5156   1.349   0.124   2.263  0.3697  0.2462  0.1051
 1278SOL    HW2 5157   1.343   0.212   2.301  2.3716  0.0273  0.9948
 1278SOL    HW3 5158   1.281   0.074   2.307  0.7219  0.7615  1.2393
 1278SOL    MW4 5159   1.339   0.129   2.274  0.6803  0.2853  0.3722
 1279SOL     OW 5160   1.340   0.366   2.376 -0.2570  0.2752  0.2509
 1279SOL    HW2 5161   1.358   0.388   2.467 -0.7021  1.1465  0.1352
 1279SOL    HW3 5162   1.410   0.408   2.327  1.3604 -2.2119  0.3800
 1279SOL    MW4 5163   1.351   0.374   2.381 -0.1024  0.0620  0.2527
 1280SOL     OW 5164   1.564   0.485   2.270 -0.8375 -0.2227 -0.2677
 1280SOL    HW2 5165   1.635   0.440   2.315 -0.1109  1.1367 -0.0268
 1280SOL    HW3 5166   1.588   0.483   2.177 -0.8657 -0.4344 -0.2702
 1280SOL    MW4 5167   1.577   0.479   2.264 -0.7453 -0.0712 -0.2363
 1281SOL     OW 5168   1.567   0.755   2.356  0.1153 -0.1420  0.4805
 1281SOL    HW2 5169   1.653   0.790   2.335 -0.0237 -0.4977 -0.7544
 1281SOL    HW3 5170   1.565   0.670   2.312 -1.0137  0.0483  0.1491
 1281SOL    MW4 5171   1.578   0.748   2.347 -0.0521 -0.1638  0.2739
 1282SOL     OW 5172   1.356   0.930   2.280 -0.4644 -0.1769  0.5683
 1282SOL    HW2 5173   1.436   0.884   2.306 -0.3101 -0.2028  0.0673
 1282SOL    HW3 5174   1.285   0.875   2.312 -0.2789 -0.2355  0.8782
 1282SOL    MW4 5175   1.357   0.917   2.287 -0.4196 -0.1881  0.5429
 1283SOL     OW 5176   1.320   1.187   2.386 -0.4219 -0.3156  0.0601
 1283SOL    HW2 5177   1.309   1.179   2.480 -0.6949  1.2010  0.1604
 1283SOL    HW3 5178   1.326   1.096   2.355 -1.3496 -0.8436  1.3999
 1283SOL    MW4 5179   1.319   1.174   2.394 -0.5804 -0.1851  0.2503
 1284SOL     OW 5180   1.556   1.275   2.246  0.2695 -0.1582 -0.0890
 1284SOL    HW2 5181   1.469   1.246   2.272  0.0937 -1.2451 -1.8501
 1284SOL    HW3 5182   1.558   1.266   2.151  2.0790  0.4755 -0.1420
 1284SOL    MW4 5183   1.545   1.270   2.237  0.4852 -0.2180 -0.3283
 1285SOL     OW 5184   1.583   1.517   2.352 -0.1481  0.2328  0.3904
 1285SOL    HW2 5185   1.665   1.555   2.319 -0.0093  0.6818  1.2637
 1285SOL    HW3 5186   1.578   1.432   2.308 -0.2139  1.0354 -1.1847
 1285SOL    MW4 5187   1.593   1.511   2.342 -0.1384  0.3980  0.2978
 1286SOL     OW 5188   1.367   1.676   2.245 -0.0729 -0.5573  0.1191
 1286SOL    HW2 5189   1.440   1.616   2.260  1.2780  1.6111  2.5012
 1286SOL    HW3 5190   1.296   1.640   2.298  0.2485 -0.8522  0.3530
 1286SOL    MW4 5191   1.367   1.663   2.254  0.1478 -0.3102  0.4640
 1287SOL     OW 5192   1.354   1.928   2.322 -0.0593  0.3479  0.1476
 1287SOL    HW2 5193   1.425   1.981   2.286 -0.6622  0.4987 -0.8276
 1287SOL    HW3 5194   1.373   1.839   2.293  0.7937  0.0479  1.5426
 1287SOL    MW4 5195   1.366   1.923   2.314 -0.0262  0.3283  0.2031
 1288SOL     OW 5196   1.604   2.066   2.249  0.0229 -0.0468  0.6796
 1288SOL    HW2 5197   1.682   2.017   2.274  2.2697  2.5933 -0.8961
 1288SOL    HW3 5198   1.597   2.054   2.154 -2.1147 -1.0907  0.9376
 1288SOL    MW4 5199   1.613   2.058   2.240  0.0374  0.1636  0.5059
 1289SOL     OW 5200   1.609   2.325   2.350  0.4685 -0.1542 -0.3631
 1289SOL    HW2 5201   1.594   2.331   2.444  1.1447  1.1955 -0.3301
 1289SOL    HW3 5202   1.602   2.232   2.330 -0.9358 -0.3112  0.8073
 1289SOL    MW4 5203   1.606   2.313   2.360  0.3725  0.0033 -0.2041
 1290SOL     OW 5204   1.363   2.457   2.254 -0.6551 -0.1705  0.1515
 1290SOL    HW2 5205   1.439   2.418   2.298 -1.2584 -0.4078  1.0131
 1290SOL    HW3 5206   1.373   2.432   2.162  1.2700  1.3658 -0.0732
 1290SOL    MW4 5207   1.374   2.448   2.248 -0.4807  0.0010  0.2358
 1291SOL     OW 5208   1.361   2.711   2.323 -0.0773  0.5938 -0.7752
 1291SOL    HW2 5209   1.449   2.731   2.288 -1.1646  1.0674 -3.3807
 1291SOL    HW3 5210   1.345   2.621   2.296  0.3503 -0.1513  1.3757
 1291SOL    MW4 5211   1.371   2.702   2.315 -0.1644  0.5581 -0.8352
 1292SOL     OW 5212   1.586   2.833   2.242 -0.1570  0.1689 -0.4345
 1292SOL    HW2 5213   1.565   2.921   2.273  0.3459  0.1020  0.1015
 1292SOL    HW3 5214   1.581   2.839   2.147 -0.7995  0.6053 -0.3765
 1292SOL    MW4 5215   1.583   2.845   2.234 -0.1752  0.2179 -0.3560
 1293SOL     OW 5216   1.573   3.082   2.350 -0.0093 -0.2794  0.0320
 1293SOL    HW2 5217   1.577   3.079   2.446  1.6683  0.8910  0.0281
 1293SOL    HW3 5218   1.490   3.124   2.330 -1.2559 -2.2606  0.9223
 1293SOL    MW4 5219   1.563   3.087   2.360  0.0477 -0.3862  0.1488
 1294SOL     OW 5220   1.337   3.232   2.269  0.1412  0.0667  0.4416
 1294SOL    HW2 5221   1.254   3.193   2.298  0.2215 -0.1238  0.4169
 1294SOL    HW3 5222   1.330   3.233   2.174  0.0274  0.3598  0.4541
 1294SOL    MW4 5223   1.325   3.227   2.260  0.1369  0.0801  0.4399
 1295SOL     OW 5224   1.296   3.478   2.377  0.5860  0.0757  0.0828
 1295SOL    HW2 5225   1.308   3.469   2.472 -0.8715 -0.7143  0.2160
 1295SOL    HW3 5226   1.295   3.388   2.345  1.8113  0.3641 -0.8013
 1295SOL    MW4 5227   1.297   3.465   2.386  0.5554  0.0095 -0.0165
 1296SOL     OW 5228   1.548   3.555   2.314  0.0565  0.0083 -0.3118
 1296SOL    HW2 5229   1.549   3.647   2.342 -0.6209  0.7233 -2.5006
 1296SOL    HW3 5230   1.460   3.525   2.332  0.0886 -0.0082 -0.1846
 1296SOL    MW4 5231   1.537   3.563   2.320 -0.0286  0.1004 -0.5836
 1297SOL     OW 5232   1.551   3.827   2.342  0.4892  0.3067 -0.2036
 1297SOL    HW2 5233   1.544   3.829   2.437 -0.0459  1.1086 -0.2559
 1297SOL    HW3 5234   1.625   3.886   2.323  0.4730  0.2965 -0.2964
 1297SOL    MW4 5235   1.560   3.835   2.352  0.4164  0.4110 -0.2227
 1298SOL     OW 5236   1.335   4.000   2.270  0.2889 -0.1227 -0.1057
 1298SOL    HW2 5237   1.408   3.943   2.293  0.1793 -0.1755  0.1080
 1298SOL    HW3 5238   1.334   3.998   2.174  1.6069  1.2055 -0.1581
 1298SOL    MW4 5239   1.344   3.992   2.260  0.4483  0.0455 -0.0844
 1299SOL     OW 5240   1.343   4.249   2.380  0.5398 -0.3553 -0.2768
 1299SOL    HW2 5241   1.342   4.159   2.346  0.8275 -1.0331  1.4384
 1299SOL    HW3 5242   1.258   4.285   2.356 -0.2116 -1.6337  0.4181
 1299SOL    MW4 5243   1.332   4.242   2.372  0.4786 -0.6132  0.0412
 1300SOL     OW 5244   1.566   4.360   2.261  0.2017  0.1056 -0.1428
 1300SOL    HW2 5245   1.479   4.330   2.288  0.6450 -0.4350  0.7104
 1300SOL    HW3 5246   1.570   4.452   2.289 -0.4010  0.3609 -0.9133
 1300SOL    MW4 5247   1.555   4.368   2.269  0.1806  0.0677 -0.1318
 1301SOL     OW 5248   2.027   4.638   2.388 -1.0342  0.3185  0.4297
 1301SOL    HW2 5249   2.112   4.666   2.355 -0.8583  1.0627  1.4939
 1301SOL    HW3 5250   2.018   4.547   2.357  0.5422 -0.0659  1.0691
 1301SOL    MW4 5251   2.037   4.630   2.380 -0.8032  0.3662  0.6545
 1302SOL     OW 5252   1.813   0.078   2.236  0.3675 -0.1266  0.5565
 1302SOL    HW2 5253   1.784   0.162   2.273 -0.1531  0.2084 -0.6018
 1302SOL    HW3 5254   1.874   0.044   2.301  0.5872  1.1533  1.0432
 1302SOL    MW4 5255   1.817   0.084   2.250  0.3278  0.0864  0.4680
 1303SOL     OW 5256   1.758   0.321   2.365 -0.6247 -0.0079  0.2211
 1303SOL    HW2 5257   1.745   0.341   2.458 -0.3275  0.5885  0.1403
 1303SOL    HW3 5258   1.840   0.366   2.343 -2.0089  1.9970 -0.9673
 1303SOL    MW4 5259   1.767   0.330   2.374 -0.7682  0.3353  0.0536
 1304SOL     OW 5260   2.003   0.460   2.289 -0.2326 -0.2825 -0.2483
 1304SOL    HW2 5261   2.013   0.550   2.322 -0.4477 -0.3017 -0.1340
 1304SOL    HW3 5262   2.020   0.468   2.195  0.4337 -0.2384 -0.1284
 1304SOL    MW4 5263   2.006   0.473   2.281 -0.1731 -0.2792 -0.2177
 1305SOL     OW 5264   2.040   0.718   2.398 -0.1581 -0.4133 -0.3664
 1305SOL    HW2 5265   2.116   0.751   2.350  0.2159 -0.7665 -0.0261
 1305SOL    HW3 5266   1.967   0.771   2.368  0.4021  0.5836  0.0314
 1305SOL    MW4 5267   2.041   0.729   2.388 -0.0348 -0.3284 -0.2687
 1306SOL     OW 5268   1.828   0.863   2.290 -0.3657  0.4215 -0.1346
 1306SOL    HW2 5269   1.810   0.948   2.330 -2.8583  0.0686 -0.4379
 1306SOL    HW3 5270   1.828   0.880   2.196 -0.3756  0.1667 -0.1822
 1306SOL    MW4 5271   1.826   0.876   2.283 -0.6958  0.3413 -0.1812
 1307SOL     OW 5272   1.773   1.123   2.348 -0.0090  0.2490  0.1719
 1307SOL    HW2 5273   1.861   1.154   2.323  0.1556  0.4994  1.0289
 1307SOL    HW3 5274   1.713   1.184   2.305  0.2347  0.0594 -0.4441
 1307SOL    MW4 5275   1.777   1.135   2.339  0.0448  0.2569  0.2036
 1308SOL     OW 5276   1.996   1.248   2.284 -0.3913  0.1063 -0.4296
 1308SOL    HW2 5277   2.009   1.341   2.302 -1.9707  0.2149  0.2165
 1308SOL    HW3 5278   2.007   1.241   2.189 -0.7649  1.0459 -0.5567
 1308SOL    MW4 5279   1.999   1.260   2.274 -0.6490  0.2446 -0.3610
 1309SOL     OW 5280   2.032   1.514   2.340  0.0619  0.1907  0.2375
 1309SOL    HW2 5281   2.034   1.511   2.435  0.5054 -0.1434  0.2211
 1309SOL    HW3 5282   1.954   1.564   2.318  0.0851  0.4607  0.7813
 1309SOL    MW4 5283   2.022   1.521   2.349  0.1233  0.1823  0.3071
 1310SOL     OW 5284   1.804   1.638   2.249 -0.2298 -0.1531  0.0099
 1310SOL    HW2 5285   1.806   1.728   2.281  1.3457 -0.4159  0.6930
 1310SOL    HW3 5286   1.796   1.646   2.154 -0.2118  0.7115  0.0833
 1310SOL    MW4 5287   1.803   1.651   2.240 -0.0196 -0.0738  0.1094
 1311SOL     OW 5288   1.818   1.907   2.322 -0.2349 -0.4480 -0.1247
 1311SOL    HW2 5289   1.831   1.915   2.417 -0.4026  0.1365 -0.1472
 1311SOL    HW3 5290   1.890   1.956   2.284 -0.1014 -0.7823 -0.3045
 1311SOL    MW4 5291   1.829   1.914   2.330 -0.2394 -0.4150 -0.1514
 1312SOL     OW 5292   2.022   2.050   2.237 -0.3705 -0.4068  0.0490
 1312SOL    HW2 5293   2.105   2.019   2.274 -0.4127 -0.5665  0.0124
 1312SOL    HW3 5294   2.035   2.043   2.142 -0.7421 -1.2742  0.0558
 1312SOL    MW4 5295   2.035   2.045   2.229 -0.4251 -0.5422  0.0453
 1313SOL     OW 5296   2.037   2.323   2.336 -0.1819  0.6821  0.2254
 1313SOL    HW2 5297   2.112   2.359   2.290 -1.0299  1.0323 -0.9073
 1313SOL    HW3 5298   2.017   2.242   2.290 -1.0913  1.0824 -0.1070
 1313SOL    MW4 5299   2.044   2.317   2.324 -0.4137  0.7811  0.0324
 1314SOL     OW 5300   1.820   2.426   2.215 -0.5652 -0.0970 -0.1175
 1314SOL    HW2 5301   1.900   2.395   2.258  0.0916  0.3431 -1.0054
 1314SOL    HW3 5302   1.750   2.401   2.275  0.0862 -1.8766 -0.0796
 1314SOL    MW4 5303   1.822   2.419   2.229 -0.3927 -0.2737 -0.2298
 1315SOL     OW 5304   1.817   2.683   2.324  0.1954  0.0354 -0.1012
 1315SOL    HW2 5305   1.804   2.601   2.275  0.5407 -0.2686  0.3119
 1315SOL    HW3 5306   1.750   2.742   2.289  0.3504 -0.2187 -0.8522
 1315SOL    MW4 5307   1.807   2.680   2.313  0.2614 -0.0384 -0.1462
 1316SOL     OW 5308   2.036   2.869   2.243 -0.5612  0.0982 -0.1152
 1316SOL    HW2 5309   2.115   2.818   2.260 -0.5681  0.4098  0.8566
 1316SOL    HW3 5310   1.964   2.809   2.260 -0.5653  0.3684  0.8657
 1316SOL    MW4 5311   2.037   2.855   2.248 -0.5627  0.1750  0.1426
 1317SOL     OW 5312   2.059   3.110   2.391 -0.2165  0.1420  0.0371
 1317SOL    HW2 5313   2.139   3.153   2.362 -0.3820  1.4184  1.3725
 1317SOL    HW3 5314   2.056   3.028   2.343  2.6918 -0.6499  1.1032
 1317SOL    MW4 5315   2.069   3.105   2.381  0.1450  0.2058  0.3538
 1318SOL     OW 5316   1.814   3.228   2.261 -0.1750  0.0754  0.4676
 1318SOL    HW2 5317   1.879   3.172   2.302 -0.7362  0.1139  1.4131
 1318SOL    HW3 5318   1.730   3.192   2.289 -0.5397  1.2177  0.8415
 1318SOL    MW4 5319   1.811   3.216   2.270 -0.2972  0.2315  0.6416
 1319SOL     OW 5320   1.810   3.493   2.364 -0.1782  0.4537 -0.0353
 1319SOL    HW2 5321   1.799   3.403   2.333  0.1200  0.5770 -0.5047
 1319SOL    HW3 5322   1.726   3.535   2.344 -0.5700  0.0896  0.8375
 1319SOL    MW4 5323   1.797   3.486   2.357 -0.1906  0.4218  0.0179
 1320SOL     OW 5324   2.020   3.619   2.246 -0.0498 -0.1236  0.0328
 1320SOL    HW2 5325   1.955   3.558   2.281  1.7376 -1.9601  0.2681
 1320SOL    HW3 5326   2.018   3.606   2.152  0.4309 -0.6744  0.0945
 1320SOL    MW4 5327   2.011   3.609   2.238  0.2491 -0.4385  0.0720
 1321SOL     OW 5328   2.014   3.898   2.326  0.4711 -0.1873  0.0859
 1321SOL    HW2 5329   2.023   3.887   2.421 -2.5693 -0.9380  0.3417
 1321SOL    HW3 5330   2.031   3.810   2.290  1.0301 -0.0371 -0.0211
 1321SOL    MW4 5331   2.017   3.885   2.334  0.1438 -0.2668  0.1056
 1322SOL     OW 5332   1.765   3.970   2.273  0.0914 -0.4481 -0.0554
 1322SOL    HW2 5333   1.856   3.943   2.285  0.9406  2.7379  1.3123
 1322SOL    HW3 5334   1.754   3.976   2.178  1.2221 -1.1363 -0.2347
 1322SOL    MW4 5335   1.775   3.967   2.262  0.3526 -0.1185  0.1016
 1323SOL     OW 5336   1.780   4.232   2.361 -0.2632 -0.1134  0.2423
 1323SOL    HW2 5337   1.784   4.139   2.336 -1.4295 -1.0635  3.3730
 1323SOL    HW3 5338   1.695   4.261   2.328  0.3269  0.0248 -1.2136
 1323SOL    MW4 5339   1.769   4.223   2.353 -0.3392 -0.2203  0.4630
 1324SOL     OW 5340   2.020   4.370   2.327  0.3408  0.2083 -0.4055
 1324SOL    HW2 5341   1.932   4.343   2.354  1.1499 -1.6635  0.4453
 1324SOL    HW3 5342   2.026   4.343   2.235  0.7413 -1.5610  0.1214
 1324SOL    MW4 5343   2.009   4.363   2.318  0.5007 -0.2718 -0.2239
 1325SOL     OW 5344   2.472   4.631   2.374  0.4913 -0.5715  0.9674
 1325SOL    HW2 5345   2.558   4.667   2.355 -0.5461  0.2074 -2.5765
 1325SOL    HW3 5346   2.471   4.546   2.331  0.1415 -1.3776  2.5543
 1325SOL    MW4 5347   2.483   4.625   2.366  0.3083 -0.5751  0.7091
 1326SOL     OW 5348   2.258   0.099   2.267  0.3519  0.3321 -0.0782
 1326SOL    HW2 5349   2.247   0.182   2.313 -1.0356  0.5798 -0.8323
 1326SOL    HW3 5350   2.334   0.058   2.310 -0.9413  0.5084  2.4803
 1326SOL    MW4 5351   2.267   0.104   2.279 -0.0017  0.3880  0.1597
 1327SOL     OW 5352   2.240   0.343   2.418  0.2285  0.0102  0.2615
 1327SOL    HW2 5353   2.295   0.378   2.348 -0.6186  0.1640 -0.3324
 1327SOL    HW3 5354   2.150   0.364   2.391 -0.1213 -0.2153  1.2327
 1327SOL    MW4 5355   2.235   0.350   2.405  0.0703  0.0008  0.3111
 1328SOL     OW 5356   2.432   0.465   2.265  0.1297 -0.0969 -0.0501
 1328SOL    HW2 5357   2.513   0.431   2.305  0.8480  1.6695  0.0367
 1328SOL    HW3 5358   2.458   0.493   2.178 -0.5047  0.0006 -0.2120
 1328SOL    MW4 5359   2.446   0.464   2.259  0.1407  0.1490 -0.0601
 1329SOL     OW 5360   2.477   0.726   2.381 -0.0330  0.3896  0.3070
 1329SOL    HW2 5361   2.560   0.760   2.346 -0.6632  1.7482  0.0958
 1329SOL    HW3 5362   2.471   0.637   2.345  0.7668  0.7022 -0.6358
 1329SOL    MW4 5363   2.487   0.719   2.371 -0.0107  0.6101  0.1545
 1330SOL     OW 5364   2.248   0.841   2.271 -0.3093 -0.2070 -0.2097
 1330SOL    HW2 5365   2.242   0.925   2.317 -0.4618 -0.0947 -0.4348
 1330SOL    HW3 5366   2.333   0.805   2.299  0.0466  0.3098 -0.6017
 1330SOL    MW4 5367   2.259   0.847   2.281 -0.2825 -0.1240 -0.2911
 1331SOL     OW 5368   2.246   1.122   2.374 -0.2015 -0.5663  0.0347
 1331SOL    HW2 5369   2.309   1.181   2.333 -0.3322 -0.2159  0.3411
 1331SOL    HW3 5370   2.160   1.154   2.345 -0.2588 -0.7782 -0.0311
 1331SOL    MW4 5371   2.243   1.134   2.365 -0.2265 -0.5480  0.0660
 1332SOL     OW 5372   2.463   1.248   2.247 -0.3776  0.4569  0.5705
 1332SOL    HW2 5373   2.536   1.204   2.289 -0.2195  0.1691  0.0071
 1332SOL    HW3 5374   2.465   1.338   2.281  1.1453  0.8636 -0.5423
 1332SOL    MW4 5375   2.473   1.254   2.257 -0.1557  0.4725  0.3493
 1333SOL     OW 5376   2.484   1.490   2.344  0.1635 -0.0008  0.0983
 1333SOL    HW2 5377   2.478   1.518   2.436  0.1076  0.8426 -0.1571
 1333SOL    HW3 5378   2.545   1.551   2.304 -1.0788  0.6686 -0.8086
 1333SOL    MW4 5379   2.491   1.502   2.351 -0.0076  0.1987 -0.0548
 1334SOL     OW 5380   2.267   1.657   2.282 -0.5316  0.5253  0.0200
 1334SOL    HW2 5381   2.338   1.601   2.312 -0.2126  0.7639 -0.3014
 1334SOL    HW3 5382   2.187   1.608   2.304 -0.2541 -0.0287 -0.2110
 1334SOL    MW4 5383   2.266   1.643   2.289 -0.4528  0.4836 -0.0529
 1335SOL     OW 5384   2.250   1.950   2.341  0.4116  0.1427  0.5582
 1335SOL    HW2 5385   2.337   1.975   2.312  0.3466 -0.0678  0.1787
 1335SOL    HW3 5386   2.242   1.857   2.319  0.0355  0.1994  0.4456
 1335SOL    MW4 5387   2.260   1.941   2.334  0.3533  0.1223  0.4930
 1336SOL     OW 5388   2.471   2.065   2.243  0.2718 -0.7064  0.0235
 1336SOL    HW2 5389   2.560   2.030   2.244  0.2843 -0.6981 -0.8536
 1336SOL    HW3 5390   2.450   2.075   2.150  0.4442  2.0686  0.2331
 1336SOL    MW4 5391   2.480   2.062   2.231  0.2964 -0.3390 -0.0644
 1337SOL     OW 5392   2.478   2.321   2.319 -0.0016 -0.0443  0.5471
 1337SOL    HW2 5393   2.561   2.344   2.277  0.0174  0.5294  0.9005
 1337SOL    HW3 5394   2.467   2.228   2.299  0.0997  0.1762 -0.5699
 1337SOL    MW4 5395   2.488   2.311   2.310  0.0141  0.0606  0.4463
 1338SOL     OW 5396   2.255   2.443   2.209  0.5246  0.1684  0.2161
 1338SOL    HW2 5397   2.258   2.536   2.235  2.6392 -0.1981  1.3860
 1338SOL    HW3 5398   2.332   2.404   2.250 -1.0985 -2.4338  0.8837
 1338SOL    MW4 5399   2.265   2.450   2.218  0.5894 -0.2232  0.4585
 1339SOL     OW 5400   2.262   2.720   2.316 -0.1807 -0.0881  0.3219
 1339SOL    HW2 5401   2.246   2.727   2.410  0.0565  0.1303  0.3451
 1339SOL    HW3 5402   2.336   2.779   2.300 -0.2911 -0.0454 -0.0191
 1339SOL    MW4 5403   2.270   2.729   2.326 -0.1638 -0.0534  0.2801
 1340SOL     OW 5404   2.484   2.872   2.238 -0.3259  0.2326  0.3126
 1340SOL    HW2 5405   2.540   2.805   2.276 -0.1525 -1.1015 -2.1991
 1340SOL    HW3 5406   2.491   2.858   2.143 -2.5610  1.9397 -0.1354
 1340SOL    MW4 5407   2.492   2.861   2.230 -0.5980  0.2820 -0.0780
 1341SOL     OW 5408   2.522   3.123   2.356 -0.1598  0.0250  0.2615
 1341SOL    HW2 5409   2.594   3.164   2.308  0.9881 -1.0333  1.0537
 1341SOL    HW3 5410   2.512   3.037   2.316 -1.2565  0.3003 -0.0950
 1341SOL    MW4 5411   2.530   3.117   2.344 -0.1533 -0.0777  0.3192
 1342SOL     OW 5412   2.274   3.228   2.260  0.1475 -0.3858  0.1938
 1342SOL    HW2 5413   2.270   3.319   2.289 -1.0839 -0.5181  0.5001
 1342SOL    HW3 5414   2.357   3.195   2.293  0.7537  0.7168 -0.2004
 1342SOL    MW4 5415   2.284   3.235   2.268  0.0648 -0.2577  0.1824
 1343SOL     OW 5416   2.260   3.481   2.329  0.4662  0.1064 -0.4531
 1343SOL    HW2 5417   2.262   3.486   2.424  1.3880 -0.3286 -0.4454
 1343SOL    HW3 5418   2.180   3.528   2.304  0.0209 -0.1135  0.5467
 1343SOL    MW4 5419   2.250   3.488   2.338  0.5288  0.0200 -0.3202
 1344SOL     OW 5420   2.484   3.635   2.246  0.2623 -0.2274 -0.2420
 1344SOL    HW2 5421   2.467   3.717   2.290  0.3767  0.0272 -0.6650
 1344SOL    HW3 5422   2.415   3.576   2.276  0.3557 -0.0669  0.2888
 1344SOL    MW4 5423   2.473   3.638   2.255  0.2897 -0.1726 -0.2279
 1345SOL     OW 5424   2.500   3.876   2.372  0.2837 -0.0532 -0.0369
 1345SOL    HW2 5425   2.501   3.894   2.466  1.2134  0.1369 -0.0693
 1345SOL    HW3 5426   2.416   3.908   2.342  0.5095  1.0955  0.5134
 1345SOL    MW4 5427   2.489   3.883   2.381  0.4363  0.1235  0.0312
 1346SOL     OW 5428   2.272   3.992   2.258  0.2921 -0.0627  0.3939
 1346SOL    HW2 5429   2.281   4.085   2.278  0.5273 -0.1246  0.5722
 1346SOL    HW3 5430   2.186   3.969   2.294  0.1942  0.1063  0.2694
 1346SOL    MW4 5431   2.262   4.001   2.266  0.3102 -0.0486  0.4010
 1347SOL     OW 5432   2.260   4.253   2.368  0.0948 -0.1557  0.5091
 1347SOL    HW2 5433   2.279   4.272   2.460 -1.1527 -0.0963  0.7605
 1347SOL    HW3 5434   2.171   4.286   2.354 -0.2646 -1.4429 -0.3385
 1347SOL    MW4 5435   2.251   4.260   2.378 -0.1173 -0.3181  0.4301
 1348SOL     OW 5436   2.459   4.391   2.245  0.9677 -0.4612 -0.1547
 1348SOL    HW2 5437   2.532   4.346   2.288 -0.4793 -3.5666 -0.7670
 1348SOL    HW3 5438   2.381   4.352   2.285 -0.3754  1.8116 -0.4863
 1348SOL    MW4 5439   2.458   4.380   2.256  0.5996 -0.5713 -0.2792
 1349SOL     OW 5440   2.887   4.599   2.373 -0.4427  0.2444 -0.5648
 1349SOL    HW2 5441   2.965   4.644   2.342  0.1398 -0.5395 -0.2632
 1349SOL    HW3 5442   2.891   4.513   2.331  0.3420 -0.8232  1.6198
 1349SOL    MW4 5443   2.898   4.593   2.363 -0.2623 -0.0005 -0.2367
 1350SOL     OW 5444   2.695   0.094   2.252 -0.2236 -0.1373 -0.0007
 1350SOL    HW2 5445   2.703   0.175   2.302 -0.2024 -0.1452  0.0088
 1350SOL    HW3 5446   2.768   0.039   2.283  0.9402  0.5858 -1.3862
 1350SOL    MW4 5447   2.706   0.098   2.263 -0.0672 -0.0429 -0.1824
 1351SOL     OW 5448   2.678   0.345   2.360 -0.2173  0.4222  0.2911
 1351SOL    HW2 5449   2.679   0.350   2.455 -0.0519  0.1019  0.3067
 1351SOL    HW3 5450   2.750   0.401   2.332 -0.0102  0.1979  0.3703
 1351SOL    MW4 5451   2.688   0.353   2.369 -0.1683  0.3504  0.3033
 1352SOL     OW 5452   2.907   0.485   2.266  0.6594 -0.1581 -0.1730
 1352SOL    HW2 5453   2.924   0.571   2.303  0.3398  0.2280 -0.9072
 1352SOL    HW3 5454   2.931   0.494   2.173  0.7557 -0.8963 -0.2251
 1352SOL    MW4 5455   2.912   0.497   2.258  0.6301 -0.2046 -0.2768
 1353SOL     OW 5456   2.917   0.731   2.385  0.3684  0.0510 -0.2872
 1353SOL    HW2 5457   2.896   0.737   2.478  1.1461  0.1542 -0.1110
 1353SOL    HW3 5458   2.837   0.756   2.340 -0.6241 -1.8746  0.3450
 1353SOL    MW4 5459   2.904   0.735   2.391  0.3400 -0.1893 -0.1805
 1354SOL     OW 5460   2.699   0.839   2.248 -0.4938 -0.4959 -0.0513
 1354SOL    HW2 5461   2.703   0.929   2.280  0.6805 -0.7016  0.3766
 1354SOL    HW3 5462   2.731   0.844   2.158  3.0919 -1.0432  1.1384
 1354SOL    MW4 5463   2.703   0.852   2.240  0.1340 -0.5952  0.1621
 1355SOL     OW 5464   2.693   1.121   2.364  0.2014 -0.2400  0.1838
 1355SOL    HW2 5465   2.690   1.129   2.460 -0.8182 -0.5413  0.1896
 1355SOL    HW3 5466   2.766   1.175   2.337  0.1486  0.2888  1.0987
 1355SOL    MW4 5467   2.702   1.129   2.373  0.0601 -0.2099  0.3052
 1356SOL     OW 5468   2.917   1.270   2.252 -0.2099  0.0014 -0.4084
 1356SOL    HW2 5469   3.003   1.251   2.290 -0.5503 -0.5115  0.1209
 1356SOL    HW3 5470   2.931   1.267   2.157  0.5192  0.6899 -0.3240
 1356SOL    MW4 5471   2.930   1.267   2.244 -0.1585  0.0244 -0.3273
 1357SOL     OW 5472   2.917   1.550   2.319  0.0929 -0.3014 -0.1978
 1357SOL    HW2 5473   2.915   1.554   2.415  0.3980 -1.1444 -0.1522
 1357SOL    HW3 5474   2.898   1.458   2.299 -0.1293 -0.0894 -0.9495
 1357SOL    MW4 5475   2.914   1.538   2.329  0.1040 -0.3846 -0.2909
 1358SOL     OW 5476   2.670   1.653   2.214  0.3196  0.6615 -0.7265
 1358SOL    HW2 5477   2.753   1.620   2.248  0.0636 -0.2490 -0.9845
 1358SOL    HW3 5478   2.683   1.659   2.119  0.0234  0.3193 -0.7896
 1358SOL    MW4 5479   2.683   1.650   2.206  0.2468  0.4961 -0.7689
 1359SOL     OW 5480   2.720   1.925   2.276 -0.2043 -0.5461 -0.3625
 1359SOL    HW2 5481   2.695   1.938   2.367  0.3761 -1.3885 -0.0728
 1359SOL    HW3 5482   2.690   1.836   2.255  1.2688 -1.0370 -0.4340
 1359SOL    MW4 5483   2.713   1.915   2.285  0.0663 -0.7218 -0.3340
 1360SOL     OW 5484   2.941   2.073   2.223 -0.3652  0.2568 -0.4262
 1360SOL    HW2 5485   3.009   2.031   2.277  0.9258  1.0178 -1.4378
 1360SOL    HW3 5486   2.861   2.025   2.245  0.3101 -0.0288  1.4955
 1360SOL    MW4 5487   2.939   2.061   2.233 -0.1056  0.3192 -0.3064
 1361SOL     OW 5488   2.950   2.335   2.303  0.2813 -0.0958  0.1507
 1361SOL    HW2 5489   2.954   2.351   2.397  1.9240 -0.1436  0.1107
 1361SOL    HW3 5490   2.937   2.241   2.295  2.4478 -0.4370  0.3386
 1361SOL    MW4 5491   2.949   2.325   2.314  0.7839 -0.1471  0.1702
 1362SOL     OW 5492   2.712   2.453   2.229  0.2637  0.6959  0.1797
 1362SOL    HW2 5493   2.796   2.417   2.256  0.4857  0.1213 -1.2469
 1362SOL    HW3 5494   2.705   2.432   2.136 -2.0969 -0.5280  0.5741
 1362SOL    MW4 5495   2.722   2.446   2.220 -0.0188  0.4587  0.0436
 1363SOL     OW 5496   2.722   2.712   2.348 -0.1014 -0.3231 -0.2504
 1363SOL    HW2 5497   2.809   2.746   2.328 -0.3111 -0.0220 -0.6769
 1363SOL    HW3 5498   2.723   2.622   2.316  0.0616 -0.3242 -0.2403
 1363SOL    MW4 5499   2.733   2.705   2.341 -0.1078 -0.2835 -0.3052
 1364SOL     OW 5500   2.963   2.805   2.272  0.1806 -0.3176 -0.0292
 1364SOL    HW2 5501   2.958   2.897   2.297 -3.7060 -0.8350  1.3704
 1364SOL    HW3 5502   2.970   2.807   2.176 -0.1685  1.4092 -0.0369
 1364SOL    MW4 5503   2.963   2.818   2.263 -0.3784 -0.1585  0.1543
 1365SOL     OW 5504   2.938   3.075   2.342 -0.1793 -0.1644  0.2172
 1365SOL    HW2 5505   3.020   3.117   2.316 -0.2006  0.8598  1.7864
 1365SOL    HW3 5506   2.870   3.135   2.311 -0.3409 -0.7971 -0.6871
 1365SOL    MW4 5507   2.940   3.088   2.334 -0.2036 -0.1128  0.3047
 1366SOL     OW 5508   2.738   3.241   2.226 -0.5475  0.1324 -0.1354
 1366SOL    HW2 5509   2.714   3.333   2.242 -2.7483 -0.5041  0.4272
 1366SOL    HW3 5510   2.736   3.233   2.130 -0.7186  0.5946 -0.1740
 1366SOL    MW4 5511   2.734   3.252   2.215 -0.8602  0.1094 -0.0660
 1367SOL     OW 5512   2.714   3.505   2.347  0.0527  0.6344  0.5409
 1367SOL    HW2 5513   2.785   3.554   2.306 -0.7126 -0.0073 -1.5879
 1367SOL    HW3 5514   2.634   3.544   2.312 -0.5837 -1.0718  0.0487
 1367SOL    MW4 5515   2.713   3.517   2.337 -0.1323  0.3245  0.1953
 1368SOL     OW 5516   2.922   3.635   2.254  0.5288  0.0237 -0.1057
 1368SOL    HW2 5517   2.993   3.582   2.290 -0.0680 -0.6326  0.0990
 1368SOL    HW3 5518   2.918   3.712   2.311  0.7281 -0.1918  0.1989
 1368SOL    MW4 5519   2.931   3.638   2.266  0.4766 -0.0913 -0.0384
 1369SOL     OW 5520   2.948   3.875   2.383 -0.3610 -0.3787 -0.0798
 1369SOL    HW2 5521   2.956   3.905   2.473 -0.0991 -1.1708  0.1632
 1369SOL    HW3 5522   2.879   3.930   2.346 -0.1460  0.2640  0.4642
 1369SOL    MW4 5523   2.940   3.886   2.390 -0.2980 -0.3984  0.0241
 1370SOL     OW 5524   2.729   4.017   2.270 -0.0886  0.2319 -0.2814
 1370SOL    HW2 5525   2.655   3.960   2.292  0.0679  0.8557  1.9679
 1370SOL    HW3 5526   2.722   4.029   2.175 -1.2290 -1.9700 -0.5193
 1370SOL    MW4 5527   2.718   4.011   2.260 -0.2182  0.0238 -0.0162
 1371SOL     OW 5528   2.663   4.258   2.395  0.1385 -0.0783  0.1637
 1371SOL    HW2 5529   2.697   4.248   2.484 -0.8132 -0.6380  0.4697
 1371SOL    HW3 5530   2.684   4.175   2.352 -0.6167 -0.3359  0.2830
 1371SOL    MW4 5531   2.670   4.246   2.401 -0.0865 -0.1860  0.2198
 1372SOL     OW 5532   2.885   4.358   2.246 -0.3545  0.1623 -0.1488
 1372SOL    HW2 5533   2.967   4.320   2.276  0.6561  3.0265  0.9076
 1372SOL    HW3 5534   2.819   4.325   2.308  0.4084 -0.2099  0.4740
 1372SOL    MW4 5535   2.887   4.348   2.258 -0.1204  0.4907  0.0730
 1373SOL     OW 5536   3.364   4.625   2.360  0.0416 -0.3298 -0.4754
 1373SOL    HW2 5537   3.370   4.660   2.448  1.6481 -1.8616  0.0454
 1373SOL    HW3 5538   3.432   4.670   2.311  0.5518 -1.0197 -0.3985
 1373SOL    MW4 5539   3.374   4.635   2.365  0.3209 -0.6232 -0.3967
 1374SOL     OW 5540   3.117   0.069   2.282  0.3353  0.0303 -0.1329
 1374SOL    HW2 5541   3.119   0.163   2.299 -0.7855  0.4870 -2.3603
 1374SOL    HW3 5542   3.200   0.037   2.318  0.4821  1.7614  1.1595
 1374SOL    MW4 5543   3.129   0.077   2.289  0.2067  0.3190 -0.2563
 1375SOL     OW 5544   3.130   0.332   2.369 -0.0943  0.1550  0.2015
 1375SOL    HW2 5545   3.205   0.390   2.354 -0.1369  0.1393 -0.0823
 1375SOL    HW3 5546   3.054   0.383   2.340 -0.2265  0.2907  0.7947
 1375SOL    MW4 5547   3.130   0.347   2.363 -0.1175  0.1708  0.2425
 1376SOL     OW 5548   3.335   0.503   2.273 -0.0040 -0.0295  0.0321
 1376SOL    HW2 5549   3.417   0.458   2.295  0.9015  1.8803  0.6231
 1376SOL    HW3 5550   3.338   0.510   2.177  0.5407  0.0413  0.0483
 1376SOL    MW4 5551   3.347   0.498   2.263  0.1872  0.2318  0.1121
 1377SOL     OW 5552   3.384   0.780   2.370  0.1712 -0.1599 -0.1866
 1377SOL    HW2 5553   3.445   0.818   2.307  2.3843  0.1526  2.0415
 1377SOL    HW3 5554   3.379   0.687   2.347  1.4540 -0.1651 -0.4476
 1377SOL    MW4 5555   3.391   0.773   2.359  0.6325 -0.1193  0.0730
 1378SOL     OW 5556   3.146   0.875   2.253  0.1917 -0.3996  0.1874
 1378SOL    HW2 5557   3.215   0.825   2.297 -0.3943 -1.3916 -0.0094
 1378SOL    HW3 5558   3.065   0.839   2.288 -0.2681 -0.6203 -1.1050
 1378SOL    MW4 5559   3.144   0.864   2.264  0.0536 -0.5595 -0.0091
 1379SOL     OW 5560   3.148   1.135   2.359 -0.8990 -0.2398  0.0290
 1379SOL    HW2 5561   3.231   1.164   2.323 -1.2732  1.8148  0.7691
 1379SOL    HW3 5562   3.144   1.041   2.338  1.0413 -0.1039 -1.0330
 1379SOL    MW4 5563   3.158   1.126   2.352 -0.6924  0.0492 -0.0134
 1380SOL     OW 5564   3.359   1.267   2.255 -0.3134  0.1751  0.2775
 1380SOL    HW2 5565   3.442   1.232   2.285  0.4045  0.4668 -1.3448
 1380SOL    HW3 5566   3.361   1.360   2.281 -0.7158 -0.1182  1.4118
 1380SOL    MW4 5567   3.370   1.275   2.263 -0.2718  0.1749  0.2131
 1381SOL     OW 5568   3.394   1.517   2.346 -0.4247  0.0301 -0.0587
 1381SOL    HW2 5569   3.378   1.511   2.441  1.3780 -0.3000  0.2498
 1381SOL    HW3 5570   3.327   1.578   2.314 -0.4182  0.9489  1.6014
 1381SOL    MW4 5571   3.383   1.524   2.355 -0.1860  0.1078  0.2012
 1382SOL     OW 5572   3.172   1.657   2.223 -0.0842 -0.2434 -0.1443
 1382SOL    HW2 5573   3.158   1.750   2.241 -0.0117 -0.2103 -0.2664
 1382SOL    HW3 5574   3.094   1.614   2.260  0.4890 -0.2647  1.0642
 1382SOL    MW4 5575   3.160   1.663   2.231  0.0012 -0.2420 -0.0010
 1383SOL     OW 5576   3.145   1.925   2.339 -0.1933  0.1036 -0.0355
 1383SOL    HW2 5577   3.140   1.923   2.435 -0.5032  1.2663 -0.0174
 1383SOL    HW3 5578   3.229   1.966   2.321 -0.6889  1.0393 -0.2501
 1383SOL    MW4 5579   3.155   1.930   2.349 -0.2997  0.3805 -0.0615
 1384SOL     OW 5580   3.390   2.048   2.303 -0.3553  0.3140 -0.2768
 1384SOL    HW2 5581   3.465   1.989   2.315  0.7653  1.5679 -1.0111
 1384SOL    HW3 5582   3.379   2.052   2.208  0.1670  2.0152 -0.2771
 1384SOL    MW4 5583   3.399   2.040   2.292 -0.1385  0.7038 -0.3738
 1385SOL     OW 5584   3.397   2.308   2.376 -0.0373 -0.9640  0.3958
 1385SOL    HW2 5585   3.325   2.345   2.326  0.4450 -0.5399  0.0004
 1385SOL    HW3 5586   3.408   2.220   2.342 -0.0564 -0.8595  0.1195
 1385SOL    MW4 5587   3.389   2.302   2.365  0.0238 -0.8943  0.3073
 1386SOL     OW 5588   3.206   2.417   2.222  0.3186  0.1431 -0.3039
 1386SOL    HW2 5589   3.201   2.508   2.253 -0.3164  0.7278 -2.0324
 1386SOL    HW3 5590   3.124   2.377   2.250  0.2957  0.3088 -0.1347
 1386SOL    MW4 5591   3.194   2.424   2.230  0.2315  0.2422 -0.5095
 1387SOL     OW 5592   3.166   2.650   2.358 -0.3520 -0.2560  0.3163
 1387SOL    HW2 5593   3.165   2.661   2.453 -0.5664 -2.3124  0.5718
 1387SOL    HW3 5594   3.082   2.686   2.328  0.1082  1.2467  0.7777
 1387SOL    MW4 5595   3.155   2.656   2.366 -0.3197 -0.3293  0.4110
 1388SOL     OW 5596   3.354   2.837   2.255  0.0710  0.5825 -0.7037
 1388SOL    HW2 5597   3.343   2.927   2.284 -1.4680  1.1444 -2.9506
 1388SOL    HW3 5598   3.284   2.789   2.299 -0.3698  0.8645 -1.0962
 1388SOL    MW4 5599   3.344   2.842   2.265 -0.1903  0.6938 -1.0519
 1389SOL     OW 5600   3.374   3.087   2.398 -0.2962  0.2292  0.2445
 1389SOL    HW2 5601   3.452   3.129   2.361  0.5641 -0.8596  0.7872
 1389SOL    HW3 5602   3.301   3.137   2.363  0.6226  0.8362 -0.8388
 1389SOL    MW4 5603   3.375   3.099   2.388 -0.0615  0.1659  0.1731
 1390SOL     OW 5604   3.158   3.202   2.267  0.4057 -0.5959  0.1205
 1390SOL    HW2 5605   3.146   3.290   2.304 -0.0982 -1.4401  2.0110
 1390SOL    HW3 5606   3.140   3.213   2.173  0.5904  1.3625  0.2809
 1390SOL    MW4 5607   3.154   3.215   2.259  0.3636 -0.4489  0.3910
 1391SOL     OW 5608   3.113   3.461   2.354 -0.2315 -0.1377  0.2595
 1391SOL    HW2 5609   3.114   3.477   2.448  0.5076  0.4799  0.1519
 1391SOL    HW3 5610   3.191   3.506   2.321 -1.1314  0.6681 -0.8109
 1391SOL    MW4 5611   3.124   3.469   2.362 -0.2525  0.0503  0.1037
 1392SOL     OW 5612   3.340   3.615   2.253  0.4291  0.6994  0.1509
 1392SOL    HW2 5613   3.413   3.571   2.296 -0.5793 -0.9275  0.2510
 1392SOL    HW3 5614   3.360   3.609   2.159 -0.3789 -1.2381  0.0867
 1392SOL    MW4 5615   3.352   3.609   2.246  0.1893  0.2291  0.1557
 1393SOL     OW 5616   3.355   3.891   2.354  0.1005  0.2511  0.3309
 1393SOL    HW2 5617   3.441   3.920   2.325 -0.6364  1.1677 -0.9868
 1393SOL    HW3 5618   3.352   3.798   2.330  0.7093  0.2307  0.3362
 1393SOL    MW4 5619   3.366   3.882   2.347  0.0834  0.3698  0.1578
 1394SOL     OW 5620   3.137   4.002   2.220 -0.0130  0.4366  0.2316
 1394SOL    HW2 5621   3.215   3.967   2.263 -0.6172  2.4038  3.0261
 1394SOL    HW3 5622   3.065   3.951   2.257 -0.4468  1.4248  0.7493
 1394SOL    MW4 5623   3.138   3.990   2.230 -0.1500  0.8264  0.6690
 1395SOL     OW 5624   3.116   4.235   2.365  0.0732 -0.5786  0.4029
 1395SOL    HW2 5625   3.189   4.289   2.333 -0.2314  0.3144  1.1696
 1395SOL    HW3 5626   3.120   4.155   2.313  1.2061 -0.2633 -0.0039
 1395SOL    MW4 5627   3.126   4.232   2.354  0.1826 -0.4191  0.4504
 1396SOL     OW 5628   3.363   4.355   2.289 -0.5631 -0.0347 -0.3054
 1396SOL    HW2 5629   3.369   4.445   2.319  1.1520 -0.0320 -0.6178
 1396SOL    HW3 5630   3.362   4.362   2.193 -0.4903 -0.3355 -0.3290
 1396SOL    MW4 5631   3.364   4.368   2.280 -0.3273 -0.0744 -0.3495
 1397SOL     OW 5632   3.807   4.641   2.380  0.0829 -0.1255  0.1010
 1397SOL    HW2 5633   3.806   4.659   2.474 -0.7122  0.5712 -0.0367
 1397SOL    HW3 5634   3.887   4.684   2.348 -0.4903  1.0196  0.1934
 1397SOL    MW4 5635   3.818   4.649   2.388 -0.0975  0.1173  0.0954
 1398SOL     OW 5636   3.579   0.121   2.270 -0.2589  0.4781 -0.0925
 1398SOL    HW2 5637   3.564   0.201   2.320  0.5641  1.8350 -1.9352
 1398SOL    HW3 5638   3.663   0.088   2.303  0.2665  1.3490 -0.5200
 1398SOL    MW4 5639   3.588   0.127   2.281 -0.0808  0.7720 -0.3920
 1399SOL     OW 5640   3.565   0.357   2.373  0.0476  0.2076  0.3405
 1399SOL    HW2 5641   3.560   0.361   2.468 -1.2576 -0.0946  0.2877
 1399SOL    HW3 5642   3.637   0.417   2.351  0.0840  0.6039  1.4784
 1399SOL    MW4 5643   3.574   0.366   2.383 -0.1197  0.2200  0.4835
 1400SOL     OW 5644   3.823   0.490   2.269  0.0310 -0.1022  0.6918
 1400SOL    HW2 5645   3.839   0.583   2.283 -2.2199  0.4577 -0.1872
 1400SOL    HW3 5646   3.833   0.478   2.175  1.7838 -1.0656  0.9908
 1400SOL    MW4 5647   3.826   0.500   2.259 -0.0346 -0.1554  0.6151
 1401SOL     OW 5648   3.811   0.746   2.358 -0.1350  0.3515 -0.2505
 1401SOL    HW2 5649   3.809   0.744   2.454 -0.0188  2.0121 -0.1933
 1401SOL    HW3 5650   3.887   0.801   2.337  0.4328 -0.8079 -1.3236
 1401SOL    MW4 5651   3.821   0.753   2.368 -0.0446  0.4176 -0.3843
 1402SOL     OW 5652   3.606   0.903   2.259 -0.1583 -0.3506  0.1694
 1402SOL    HW2 5653   3.671   0.842   2.293 -1.6005 -2.1352 -0.2069
 1402SOL    HW3 5654   3.598   0.882   2.166 -0.4965  0.5710 -0.0195
 1402SOL    MW4 5655   3.613   0.892   2.252 -0.3934 -0.4645  0.0951
 1403SOL     OW 5656   3.624   1.186   2.348  0.4207  0.2643 -0.1494
 1403SOL    HW2 5657   3.636   1.197   2.442 -1.5829  0.4935  0.1005
 1403SOL    HW3 5658   3.629   1.091   2.334 -2.2854 -0.0247  0.6542
 1403SOL    MW4 5659   3.626   1.175   2.358 -0.2005  0.2564 -0.0105
 1404SOL     OW 5660   3.832   1.284   2.200  0.2292 -0.4327 -0.0228
 1404SOL    HW2 5661   3.848   1.366   2.245  0.2934 -0.6668  0.3831
 1404SOL    HW3 5662   3.759   1.243   2.248  0.7871 -1.0234  0.3298
 1404SOL    MW4 5663   3.824   1.289   2.212  0.3116 -0.5416  0.0772
 1405SOL     OW 5664   3.859   1.503   2.370 -0.4203 -0.1885  0.1190
 1405SOL    HW2 5665   3.865   1.514   2.465 -0.4922 -0.6464  0.1758
 1405SOL    HW3 5666   3.777   1.546   2.345 -0.4661 -0.1826  0.2831
 1405SOL    MW4 5667   3.849   1.510   2.379 -0.4361 -0.2481  0.1483
 1406SOL     OW 5668   3.635   1.621   2.249  0.0016 -0.3485  0.0514
 1406SOL    HW2 5669   3.563   1.567   2.280 -0.4703 -0.0597 -0.5575
 1406SOL    HW3 5670   3.631   1.616   2.154  0.2233  0.4024 -0.0002
 1406SOL    MW4 5671   3.625   1.613   2.241 -0.0315 -0.2112 -0.0360
 1407SOL     OW 5672   3.610   1.885   2.337 -0.3268 -0.5251  0.0050
 1407SOL    HW2 5673   3.683   1.938   2.306 -1.1519  0.6419  0.0187
 1407SOL    HW3 5674   3.630   1.796   2.307  0.6019 -0.0393 -0.8341
 1407SOL    MW4 5675   3.622   1.880   2.329 -0.3130 -0.3072 -0.1042
 1408SOL     OW 5676   3.808   2.047   2.246 -0.1966 -0.0004 -0.3271
 1408SOL    HW2 5677   3.889   2.003   2.272 -0.2222 -0.9224 -1.7514
 1408SOL    HW3 5678   3.804   2.036   2.151 -1.7112  0.5420 -0.3415
 1408SOL    MW4 5679   3.818   2.040   2.237 -0.4001 -0.0505 -0.5169
 1409SOL     OW 5680   3.814   2.329   2.343  0.2330  0.3534 -0.2085
 1409SOL    HW2 5681   3.732   2.374   2.325 -0.1686  0.2079  1.1816
 1409SOL    HW3 5682   3.797   2.237   2.320 -0.0617  0.2876  0.2658
 1409SOL    MW4 5683   3.801   2.323   2.338  0.1411  0.3252  0.0377
 1410SOL     OW 5684   3.593   2.461   2.269  0.0554  0.3238 -0.1207
 1410SOL    HW2 5685   3.524   2.404   2.302 -0.4526  1.3961  0.7267
 1410SOL    HW3 5686   3.596   2.443   2.175  0.0553 -1.2327  0.1624
 1410SOL    MW4 5687   3.584   2.451   2.261 -0.0117  0.2601  0.0284
 1411SOL     OW 5688   3.583   2.722   2.357  0.2681  0.2527 -0.8635
 1411SOL    HW2 5689   3.571   2.633   2.326 -0.7559 -0.0953  0.4748
 1411SOL    HW3 5690   3.501   2.767   2.336  0.5239  0.6915 -0.9385
 1411SOL    MW4 5691   3.571   2.716   2.350  0.1667  0.2646 -0.6971
 1412SOL     OW 5692   3.804   2.843   2.254  0.3691 -0.1226 -0.3701
 1412SOL    HW2 5693   3.797   2.934   2.283 -0.5162 -0.2632 -0.1286
 1412SOL    HW3 5694   3.729   2.799   2.294  0.1349 -0.7134 -1.4271
 1412SOL    MW4 5695   3.793   2.849   2.263  0.2215 -0.2191 -0.4776
 1413SOL     OW 5696   3.812   3.100   2.367  0.5005  0.0670  0.1091
 1413SOL    HW2 5697   3.825   3.071   2.457  1.6684  0.0765 -0.0388
 1413SOL    HW3 5698   3.895   3.143   2.345  0.4528 -0.4956 -1.1768
 1413SOL    MW4 5699   3.825   3.102   2.376  0.6483 -0.0062 -0.0801
 1414SOL     OW 5700   3.581   3.232   2.265 -0.1794 -0.0745  0.2979
 1414SOL    HW2 5701   3.576   3.324   2.289 -0.1557  0.0204 -0.0488
 1414SOL    HW3 5702   3.660   3.199   2.309  0.0048  0.1573  0.1408
 1414SOL    MW4 5703   3.591   3.240   2.274 -0.1521 -0.0315  0.2313
 1415SOL     OW 5704   3.574   3.508   2.367  0.1313 -0.1435  0.5215
 1415SOL    HW2 5705   3.609   3.496   2.456  0.2855 -0.6534  0.3975
 1415SOL    HW3 5706   3.645   3.547   2.318 -0.1697  0.7509  0.7781
 1415SOL    MW4 5707   3.588   3.511   2.372  0.1118 -0.0927  0.5391
 1416SOL     OW 5708   3.792   3.602   2.226 -0.5731 -0.0986 -0.3187
 1416SOL    HW2 5709   3.800   3.691   2.262  1.0090  0.0093 -0.8890
 1416SOL    HW3 5710   3.796   3.615   2.131 -2.8859 -0.5554 -0.5058
 1416SOL    MW4 5711   3.794   3.616   2.218 -0.6695 -0.1447 -0.4184
 1417SOL     OW 5712   3.820   3.887   2.348  0.1507  0.8970 -0.1943
 1417SOL    HW2 5713   3.835   3.882   2.442  1.6407  1.0178 -0.4187
 1417SOL    HW3 5714   3.895   3.936   2.313  0.4507 -0.5614 -1.6481
 1417SOL    MW4 5715   3.832   3.893   2.356  0.3870  0.7207 -0.4153
 1418SOL     OW 5716   3.595   4.022   2.244  0.0586 -0.0584  0.0421
 1418SOL    HW2 5717   3.602   4.090   2.310  0.8407  0.7220 -0.8294
 1418SOL    HW3 5718   3.667   3.962   2.263 -0.2911 -0.3403  0.4717
 1418SOL    MW4 5719   3.605   4.023   2.255  0.1159  0.0076 -0.0160
 1419SOL     OW 5720   3.586   4.241   2.403  0.7028 -0.1950 -0.0017
 1419SOL    HW2 5721   3.658   4.274   2.350  1.6830 -0.7928  0.9236
 1419SOL    HW3 5722   3.507   4.268   2.356  1.5204  0.5997 -0.9524
 1419SOL    MW4 5723   3.585   4.249   2.390  0.9398 -0.1683 -0.0050
 1420SOL     OW 5724   3.823   4.356   2.291  0.4844  0.5069 -0.1999
 1420SOL    HW2 5725   3.892   4.314   2.342  0.5492  0.1284 -0.5991
 1420SOL    HW3 5726   3.825   4.447   2.319  0.7480  0.3715  0.2282
 1420SOL    MW4 5727   3.832   4.362   2.302  0.5276  0.4396 -0.1960
 1421SOL     OW 5728   4.264   4.634   2.343  0.1392  0.1250 -0.0750
 1421SOL    HW2 5729   4.251   4.627   2.438 -1.3432  0.0980 -0.2678
 1421SOL    HW3 5730   4.339   4.693   2.334 -0.0895  0.6315  1.1021
 1421SOL    MW4 5731   4.272   4.641   2.355 -0.0863  0.1883  0.0548
 1422SOL     OW 5732   4.034   0.116   2.274  0.2653  0.1644 -0.4572
 1422SOL    HW2 5733   4.038   0.207   2.302 -0.3881  0.0479  0.0303
 1422SOL    HW3 5734   4.117   0.078   2.304 -0.2987  0.1154  1.0930
 1422SOL    MW4 5735   4.045   0.123   2.282  0.1049  0.1426 -0.1886
 1423SOL     OW 5736   4.066   0.402   2.373  0.3697  0.0371  0.6468
 1423SOL    HW2 5737   4.130   0.458   2.329  0.2322 -0.4446 -0.1682
 1423SOL    HW3 5738   3.981   0.432   2.340  0.1661  0.6168  1.6615
 1423SOL    MW4 5739   4.063   0.413   2.363  0.3242  0.0500  0.6735
 1424SOL     OW 5740   4.273   0.517   2.215 -0.5688  0.3177  0.0723
 1424SOL    HW2 5741   4.253   0.600   2.259 -0.9323 -1.0127  2.4619
 1424SOL    HW3 5742   4.356   0.489   2.253  0.2907  0.2990 -1.7924
 1424SOL    MW4 5743   4.281   0.524   2.226 -0.5040  0.1397  0.1416
 1425SOL     OW 5744   4.232   0.748   2.357 -0.0829 -0.2013 -0.3433
 1425SOL    HW2 5745   4.171   0.814   2.323  0.0526  1.1974  2.0599
 1425SOL    HW3 5746   4.318   0.782   2.334 -0.0044  0.5889  1.0757
 1425SOL    MW4 5747   4.235   0.761   2.349 -0.0553  0.0875  0.1612
 1426SOL     OW 5748   4.025   0.884   2.238 -0.4384  0.1982  0.2578
 1426SOL    HW2 5749   4.001   0.972   2.265 -0.9645  0.2416 -0.3421
 1426SOL    HW3 5750   4.034   0.889   2.143  1.1205 -0.0244  0.3831
 1426SOL    MW4 5751   4.023   0.896   2.229 -0.3018  0.1746  0.1953
 1427SOL     OW 5752   4.065   1.171   2.341 -0.2323 -0.1247 -0.1040
 1427SOL    HW2 5753   4.062   1.152   2.435  1.5363  0.2111  0.0275
 1427SOL    HW3 5754   3.987   1.225   2.325 -0.2004  0.3447  1.2871
 1427SOL    MW4 5755   4.054   1.176   2.351  0.0057 -0.0185  0.0970
 1428SOL     OW 5756   4.296   1.309   2.206 -0.4401 -0.0866 -0.0304
 1428SOL    HW2 5757   4.220   1.261   2.238  0.7581 -0.9395  1.6492
 1428SOL    HW3 5758   4.369   1.273   2.256  0.7752  2.0894 -0.1761
 1428SOL    MW4 5759   4.295   1.298   2.217 -0.1221  0.0880  0.1719
 1429SOL     OW 5760   4.280   1.538   2.391 -0.1373 -0.7682  0.1163
 1429SOL    HW2 5761   4.286   1.465   2.328  1.2144 -1.9330  1.5547
 1429SOL    HW3 5762   4.353   1.595   2.368  0.1713 -1.0361  0.4281
 1429SOL    MW4 5763   4.291   1.536   2.380  0.0811 -0.9573  0.3471
 1430SOL     OW 5764   4.071   1.632   2.238 -0.4473 -0.1868 -0.0041
 1430SOL    HW2 5765   4.148   1.597   2.282 -1.0381  0.2972  1.4371
 1430SOL    HW3 5766   3.997   1.589   2.282 -1.0774  1.0414  0.1446
 1430SOL    MW4 5767   4.071   1.621   2.250 -0.6084  0.0392  0.2060
 1431SOL     OW 5768   4.054   1.922   2.357  0.2506 -0.2209  0.6028
 1431SOL    HW2 5769   4.045   1.922   2.452 -0.0560 -0.9846  0.5744
 1431SOL    HW3 5770   4.071   1.831   2.334  1.1589  0.0868  0.0006
 1431SOL    MW4 5771   4.055   1.910   2.367  0.3300 -0.2811  0.5198
 1432SOL     OW 5772   4.308   2.047   2.289 -0.2190 -0.5824  0.3345
 1432SOL    HW2 5773   4.286   2.137   2.313  0.6312 -0.1570 -0.4237
 1432SOL    HW3 5774   4.228   1.998   2.304 -0.7191  0.3191  0.6794
 1432SOL    MW4 5775   4.295   2.053   2.294 -0.1721 -0.4075  0.2799
 1433SOL     OW 5776   4.274   2.315   2.362 -0.1991  0.4431  0.0476
 1433SOL    HW2 5777   4.198   2.358   2.323 -0.0842  0.2878 -0.3467
 1433SOL    HW3 5778   4.347   2.376   2.345 -0.0370  0.1007 -0.5076
 1433SOL    MW4 5779   4.274   2.329   2.355 -0.1626  0.3772 -0.0777
 1434SOL     OW 5780   4.057   2.442   2.260  0.3038 -0.1616 -0.3101
 1434SOL    HW2 5781   4.040   2.527   2.299  0.2419 -1.0589  1.6913
 1434SOL    HW3 5782   3.978   2.391   2.279  0.3235 -0.6574 -1.5113
 1434SOL    MW4 5783   4.044   2.446   2.268  0.2985 -0.3452 -0.2043
 1435SOL     OW 5784   4.030   2.714   2.350  0.0945  0.5640  0.2526
 1435SOL    HW2 5785   4.028   2.723   2.446 -1.2201 -0.9952  0.3918
 1435SOL    HW3 5786   3.955   2.764   2.320 -0.0957  0.2069  0.1264
 1435SOL    MW4 5787   4.020   2.722   2.359 -0.1040  0.3109  0.2544
 1436SOL     OW 5788   4.247   2.851   2.252 -0.7207  0.4686 -0.1214
 1436SOL    HW2 5789   4.174   2.798   2.284 -0.1771  0.8066  1.7512
 1436SOL    HW3 5790   4.325   2.806   2.284 -0.2283  1.8732  0.7001
 1436SOL    MW4 5791   4.247   2.838   2.261 -0.5836  0.6986  0.2341
 1437SOL     OW 5792   4.258   3.118   2.366  0.2967  0.3997  0.2833
 1437SOL    HW2 5793   4.262   3.032   2.325 -1.6532  1.0117 -1.2702
 1437SOL    HW3 5794   4.334   3.165   2.331 -0.4979  0.3973 -1.5214
 1437SOL    MW4 5795   4.269   3.113   2.356 -0.0653  0.4804 -0.1600
 1438SOL     OW 5796   4.034   3.229   2.274  0.0907 -0.0965 -0.0533
 1438SOL    HW2 5797   4.038   3.322   2.295  1.4684  0.3836 -2.3238
 1438SOL    HW3 5798   4.119   3.194   2.302  0.4722 -0.1956 -1.3096
 1438SOL    MW4 5799   4.046   3.237   2.281  0.3228 -0.0463 -0.5183
 1439SOL     OW 5800   4.042   3.488   2.364  0.4838 -0.2788  0.2645
 1439SOL    HW2 5801   4.123   3.533   2.339  0.2823 -0.8998 -1.5983
 1439SOL    HW3 5802   3.972   3.545   2.332  0.2117 -0.6579  0.1733
 1439SOL    MW4 5803   4.043   3.501   2.356  0.4210 -0.4110  0.0067
 1440SOL     OW 5804   4.267   3.611   2.285 -0.1797 -0.2524 -0.2509
 1440SOL    HW2 5805   4.274   3.704   2.310  1.2509 -0.1516 -0.9708
 1440SOL    HW3 5806   4.275   3.611   2.190 -0.0953 -1.1206 -0.2471
 1440SOL    MW4 5807   4.269   3.624   2.276  0.0205 -0.3538 -0.3455
 1441SOL     OW 5808   4.256   3.865   2.388  0.8369  0.0223 -0.1423
 1441SOL    HW2 5809   4.252   3.864   2.483  0.3061 -0.2913 -0.1642
 1441SOL    HW3 5810   4.339   3.908   2.367 -0.0422  2.0380  0.4316
 1441SOL    MW4 5811   4.266   3.870   2.398  0.6514  0.2470 -0.0694
 1442SOL     OW 5812   4.056   3.997   2.263  0.0861  0.1036 -0.0674
 1442SOL    HW2 5813   4.130   3.950   2.302 -1.1673 -1.3605  0.5645
 1442SOL    HW3 5814   4.077   4.003   2.170  0.3805 -1.4896 -0.1171
 1442SOL    MW4 5815   4.068   3.992   2.256 -0.0401 -0.2997  0.0093
 1443SOL     OW 5816   4.045   4.250   2.393  0.2131 -0.2139 -0.1402
 1443SOL    HW2 5817   4.119   4.297   2.356  0.1265  0.0132 -0.0253
 1443SOL    HW3 5818   4.059   4.158   2.368 -0.5122  0.1230 -1.8315
 1443SOL    MW4 5819   4.056   4.244   2.385  0.1059 -0.1392 -0.3481
 1444SOL     OW 5820   4.264   4.376   2.291 -0.1758 -0.4947  0.3418
 1444SOL    HW2 5821   4.268   4.471   2.295 -0.3883 -0.4142 -1.1104
 1444SOL    HW3 5822   4.339   4.347   2.344  0.7903  0.5003 -0.4489
 1444SOL    MW4 5823   4.275   4.385   2.299 -0.0768 -0.3529  0.0458
 1445SOL     OW 5824   0.222   4.662   2.617 -0.2515 -0.5969  0.2949
 1445SOL    HW2 5825   0.217   4.581   2.668  2.0056  0.2297  1.9116
 1445SOL    HW3 5826   0.135   4.701   2.626 -1.0100 -2.2617  0.4513
 1445SOL    MW4 5827   0.210   4.656   2.625 -0.0538 -0.7076  0.5288
 1446SOL     OW 5828   4.479   0.113   2.691 -0.0833 -0.0009  0.6997
 1446SOL    HW2 5829   4.468   0.110   2.786  0.0408  0.0450  0.7167
 1446SOL    HW3 5830   4.483   0.207   2.671 -1.2882  0.0158  0.5054
 1446SOL    MW4 5831   4.478   0.125   2.701 -0.2260  0.0074  0.6764
 1447SOL     OW 5832   4.486   0.392   2.610  0.2784  0.2477  0.3394
 1447SOL    HW2 5833   4.561   0.431   2.654  0.1285  0.6519  0.2331
 1447SOL    HW3 5834   4.498   0.412   2.518  1.3017 -1.7609  0.0102
 1447SOL    MW4 5835   4.497   0.399   2.604  0.3934  0.0360  0.2818
 1448SOL     OW 5836   0.208   0.512   2.736 -0.3058  0.7675  0.0727
 1448SOL    HW2 5837   0.208   0.499   2.831 -0.6099 -1.4235 -0.1961
 1448SOL    HW3 5838   0.287   0.468   2.706  0.1349  2.0343 -0.6286
 1448SOL    MW4 5839   0.218   0.504   2.745 -0.2878  0.6456 -0.0553
 1449SOL     OW 5840   0.186   0.784   2.623  0.0575 -0.4827  0.2003
 1449SOL    HW2 5841   0.268   0.827   2.644 -0.4871 -0.2681  1.9928
 1449SOL    HW3 5842   0.184   0.706   2.679 -0.6927 -0.8110 -0.2626
 1449SOL    MW4 5843   0.196   0.779   2.633 -0.1133 -0.4978  0.3757
 1450SOL     OW 5844   4.454   0.947   2.737 -0.3384  0.0227 -0.1136
 1450SOL    HW2 5845   4.392   0.882   2.705  0.1661  0.0811 -1.2361
 1450SOL    HW3 5846   4.540   0.912   2.713 -0.0984  1.5417 -1.5911
 1450SOL    MW4 5847   4.457   0.934   2.729 -0.2403  0.2309 -0.4568
 1451SOL     OW 5848   4.478   1.184   2.622 -0.4595 -0.2044 -0.2206
 1451SOL    HW2 5849   4.558   1.224   2.656  0.2351 -0.1641 -1.8617
 1451SOL    HW3 5850   4.472   1.100   2.666  0.4981 -0.2120 -0.1140
 1451SOL    MW4 5851   4.487   1.178   2.633 -0.2418 -0.2000 -0.4230
 1452SOL     OW 5852   0.233   1.282   2.741  0.3635  0.0082 -0.0228
 1452SOL    HW2 5853   0.319   1.248   2.718  1.6063  1.0283  2.7989
 1452SOL    HW3 5854   0.233   1.372   2.710 -0.1832 -0.3490 -1.0985
 1452SOL    MW4 5855   0.244   1.289   2.734  0.4553  0.0956  0.2077
 1453SOL     OW 5856   0.210   1.528   2.633  0.0099  0.1317 -0.1755
 1453SOL    HW2 5857   0.285   1.578   2.664 -0.1548  0.4426 -0.2807
 1453SOL    HW3 5858   0.134   1.573   2.669 -0.2128  0.8656 -1.5481
 1453SOL    MW4 5859   0.210   1.541   2.642 -0.0412  0.2695 -0.3705
 1454SOL     OW 5860   0.014   1.690   2.736 -0.1131 -0.2935 -0.4745
 1454SOL    HW2 5861  -0.001   1.702   2.830 -0.3680 -0.3979 -0.5034
 1454SOL    HW3 5862   0.015   1.779   2.700  0.9925 -0.1865 -0.2186
 1454SOL    MW4 5863   0.012   1.703   2.744 -0.0008 -0.2930 -0.4444
 1455SOL     OW 5864   4.489   1.968   2.683  0.4532  0.3013 -0.1967
 1455SOL    HW2 5865   4.569   2.008   2.716  0.5951 -0.1177 -0.0247
 1455SOL    HW3 5866   4.506   1.953   2.590  1.0138 -0.8265  0.0702
 1455SOL    MW4 5867   4.502   1.971   2.675  0.5459  0.0974 -0.1388
 1456SOL     OW 5868   0.239   2.079   2.760 -0.4417 -0.4505 -0.2772
 1456SOL    HW2 5869   0.302   2.013   2.731 -0.7139 -0.6681 -0.3750
 1456SOL    HW3 5870   0.271   2.161   2.724 -0.4819 -0.6356 -0.7362
 1456SOL    MW4 5871   0.251   2.081   2.752 -0.4829 -0.5035 -0.3505
 1457SOL     OW 5872   0.258   2.344   2.641 -0.0148 -0.2371 -0.0245
 1457SOL    HW2 5873   0.327   2.396   2.681 -0.5882  0.3108  0.2642
 1457SOL    HW3 5874   0.177   2.374   2.683 -0.5176 -0.3047 -0.9248
 1457SOL    MW4 5875   0.256   2.355   2.652 -0.1568 -0.1736 -0.1051
 1458SOL     OW 5876   0.028   2.456   2.743 -0.1984 -0.3848 -0.8515
 1458SOL    HW2 5877   0.025   2.450   2.839  0.1251  1.0873 -0.7423
 1458SOL    HW3 5878  -0.051   2.409   2.714  0.3625 -1.9435  0.0716
 1458SOL    MW4 5879   0.017   2.449   2.752 -0.0817 -0.3963 -0.7155
 1459SOL     OW 5880   4.481   2.722   2.677 -0.1772  0.2873  0.3080
 1459SOL    HW2 5881   4.399   2.753   2.717  0.9675  0.7813  2.3604
 1459SOL    HW3 5882   4.488   2.631   2.706  1.1136  0.9115  2.0771
 1459SOL    MW4 5883   4.471   2.714   2.686  0.1442  0.4349  0.8123
 1460SOL     OW 5884   0.231   2.837   2.746 -0.2974 -0.2969 -0.0211
 1460SOL    HW2 5885   0.214   2.925   2.713 -0.0401 -0.1434  0.2554
 1460SOL    HW3 5886   0.152   2.788   2.723  0.2748 -0.4485 -1.7453
 1460SOL    MW4 5887   0.218   2.842   2.739 -0.1879 -0.2966 -0.2120
 1461SOL     OW 5888   0.182   3.093   2.624 -0.1629 -0.0198 -0.1664
 1461SOL    HW2 5889   0.259   3.140   2.655  1.5088 -1.7932 -1.4650
 1461SOL    HW3 5890   0.186   3.101   2.529 -0.9362 -1.1057 -0.3006
 1461SOL    MW4 5891   0.193   3.100   2.616 -0.0444 -0.3970 -0.3555
 1462SOL     OW 5892   4.470   3.203   2.752 -0.2487  0.0101 -0.2726
 1462SOL    HW2 5893   4.394   3.153   2.723 -1.2963  0.9558  0.7753
 1462SOL    HW3 5894   4.544   3.159   2.711 -1.2343 -1.7238 -0.2808
 1462SOL    MW4 5895   4.470   3.190   2.743 -0.5169 -0.0939 -0.1357
 1463SOL     OW 5896   0.016   3.455   2.629  0.1107 -0.0989 -0.1660
 1463SOL    HW2 5897   0.087   3.495   2.678  1.1634 -0.6442 -1.2151
 1463SOL    HW3 5898  -0.004   3.374   2.677 -0.4370  0.5185  0.6488
 1463SOL    MW4 5899   0.022   3.449   2.642  0.1774 -0.0896 -0.1967
 1464SOL     OW 5900   0.195   3.596   2.779 -0.3484  0.4841 -0.7204
 1464SOL    HW2 5901   0.186   3.609   2.873 -1.2345 -0.8241 -0.6182
 1464SOL    HW3 5902   0.287   3.572   2.766  0.5940  3.7099 -0.5755
 1464SOL    MW4 5903   0.206   3.595   2.790 -0.3410  0.7370 -0.6876
 1465SOL     OW 5904   0.178   3.833   2.650 -0.2822 -0.2114 -0.0073
 1465SOL    HW2 5905   0.187   3.742   2.677  1.6222 -0.4282 -1.2598
 1465SOL    HW3 5906   0.194   3.832   2.555 -0.2824  1.3999 -0.0436
 1465SOL    MW4 5907   0.182   3.821   2.641 -0.0309 -0.0277 -0.1771
 1466SOL     OW 5908   4.481   3.996   2.778 -0.0180  0.2448  0.1542
 1466SOL    HW2 5909   4.487   4.084   2.743 -1.1731  0.7501  1.1548
 1466SOL    HW3 5910   4.543   3.944   2.727  0.2467  1.5125 -0.8156
 1466SOL    MW4 5911   4.490   4.001   2.767 -0.1359  0.4787  0.1585
 1467SOL     OW 5912   0.007   4.262   2.700 -0.0112  0.2154  0.3938
 1467SOL    HW2 5913  -0.067   4.316   2.730 -0.1172  0.2752  0.0206
 1467SOL    HW3 5914   0.085   4.308   2.732 -0.1360  0.1154  0.8516
 1467SOL    MW4 5915   0.007   4.275   2.708 -0.0415  0.2098  0.4051
 1468SOL     OW 5916   0.232   4.428   2.757  0.2647  0.3470 -0.3925
 1468SOL    HW2 5917   0.233   4.406   2.850  0.2124  2.0245  0.0293
 1468SOL    HW3 5918   0.300   4.373   2.718  0.1737 -0.4884  0.6045
 1468SOL    MW4 5919   0.241   4.418   2.764  0.2458  0.4578 -0.2053
 1469SOL     OW 5920   0.684   4.621   2.660  0.2266 -0.5802  0.1245
 1469SOL    HW2 5921   0.762   4.659   2.701 -0.5868  0.2952  0.8944
 1469SOL    HW3 5922   0.612   4.675   2.692 -0.5056 -0.2765 -1.9480
 1469SOL    MW4 5923   0.685   4.633   2.669  0.0228 -0.4244 -0.0474
 1470SOL     OW 5924   0.459   0.100   2.750  0.2096  0.3013  0.0205
 1470SOL    HW2 5925   0.440   0.123   2.841  0.5813 -1.6881  0.6288
 1470SOL    HW3 5926   0.377   0.062   2.718  0.4704 -0.1892 -0.0665
 1470SOL    MW4 5927   0.446   0.098   2.758  0.2930 -0.0259  0.0889
 1471SOL     OW 5928   0.415   0.367   2.646 -0.2582 -0.0576 -0.3394
 1471SOL    HW2 5929   0.497   0.401   2.681 -0.0190  0.1781 -1.1091
 1471SOL    HW3 5930   0.418   0.273   2.665 -0.6704  0.2642  1.3044
 1471SOL    MW4 5931   0.426   0.359   2.653 -0.2810  0.0159 -0.2241
 1472SOL     OW 5932   0.660   0.485   2.724  0.1031  0.1420 -0.0382
 1472SOL    HW2 5933   0.654   0.486   2.819 -2.1203 -1.0211 -0.1057
 1472SOL    HW3 5934   0.740   0.437   2.705  0.7284  0.6694  1.2436
 1472SOL    MW4 5935   0.670   0.479   2.734 -0.1078  0.0582  0.1221
 1473SOL     OW 5936   0.630   0.744   2.616  0.0595 -0.3858  0.1576
 1473SOL    HW2 5937   0.700   0.794   2.658  0.1902 -0.4661  0.0365
 1473SOL    HW3 5938   0.643   0.654   2.648  0.5113 -0.5579 -0.5060
 1473SOL    MW4 5939   0.641   0.739   2.626  0.1363 -0.4191  0.0541
 1474SOL     OW 5940   0.418   0.893   2.743  0.0123  0.6821 -0.1617
 1474SOL    HW2 5941   0.429   0.983   2.712 -0.1207  0.6176 -0.3985
 1474SOL    HW3 5942   0.488   0.844   2.700  1.0251  0.9563  1.1494
 1474SOL    MW4 5943   0.428   0.899   2.733  0.1284  0.7098 -0.0198
 1475SOL     OW 5944   0.460   1.155   2.638 -0.1503  0.4231  0.5235
 1475SOL    HW2 5945   0.525   1.221   2.662  1.1227 -1.3351  2.0680
 1475SOL    HW3 5946   0.461   1.154   2.543  1.7374  0.7887  0.5144
 1475SOL    MW4 5947   0.469   1.164   2.629  0.2667  0.2393  0.7260
 1476SOL     OW 5948   0.667   1.311   2.762  0.0133 -0.0481 -0.4168
 1476SOL    HW2 5949   0.665   1.310   2.858  2.9037  0.3392 -0.2817
 1476SOL    HW3 5950   0.739   1.252   2.740 -0.6232 -0.1265 -2.3622
 1476SOL    MW4 5951   0.677   1.303   2.772  0.3107 -0.0074 -0.6559
 1477SOL     OW 5952   0.689   1.573   2.670  0.3570 -0.0883  0.6983
 1477SOL    HW2 5953   0.603   1.605   2.698 -0.5407 -0.0911 -1.8363
 1477SOL    HW3 5954   0.695   1.484   2.704 -0.9646 -0.3307  0.3169
 1477SOL    MW4 5955   0.678   1.566   2.678  0.0642 -0.1205  0.3138
 1478SOL     OW 5956   0.431   1.672   2.731 -0.5597 -0.4091 -0.1732
 1478SOL    HW2 5957   0.430   1.665   2.827  1.6299 -0.5914 -0.1285
 1478SOL    HW3 5958   0.434   1.766   2.714 -0.4820 -0.3905 -0.0585
 1478SOL    MW4 5959   0.431   1.683   2.742 -0.2605 -0.4308 -0.1523
 1479SOL     OW 5960   0.471   1.935   2.679 -0.6743 -0.2715 -0.1775
 1479SOL    HW2 5961   0.554   1.982   2.688 -0.7108 -0.0150 -1.1692
 1479SOL    HW3 5962   0.462   1.919   2.585 -0.2211 -3.0212  0.1780
 1479SOL    MW4 5963   0.481   1.939   2.668 -0.6193 -0.6005 -0.2615
 1480SOL     OW 5964   0.705   2.066   2.737  0.3662 -0.1200 -0.6929
 1480SOL    HW2 5965   0.699   2.062   2.833 -0.8424  0.2093 -0.7471
 1480SOL    HW3 5966   0.792   2.032   2.718  0.1261 -1.4825  0.4491
 1480SOL    MW4 5967   0.716   2.061   2.747  0.1751 -0.2563 -0.5496
 1481SOL     OW 5968   0.680   2.325   2.638  0.1544  0.0501 -0.2584
 1481SOL    HW2 5969   0.758   2.376   2.662 -0.8780  0.8861  1.4278
 1481SOL    HW3 5970   0.703   2.235   2.658  0.9470  0.2005 -0.4606
 1481SOL    MW4 5971   0.694   2.320   2.643  0.1228  0.1802 -0.0627
 1482SOL     OW 5972   0.476   2.487   2.733 -0.2308  0.3447 -0.4179
 1482SOL    HW2 5973   0.488   2.570   2.687  1.2826 -0.9037 -2.3344
 1482SOL    HW3 5974   0.548   2.432   2.703 -1.3569 -1.7564  0.6258
 1482SOL    MW4 5975   0.487   2.491   2.723 -0.1796 -0.0973 -0.5329
 1483SOL     OW 5976   0.470   2.740   2.627 -0.0093  0.0066  0.2267
 1483SOL    HW2 5977   0.528   2.793   2.681 -0.3261  0.3407  0.2427
 1483SOL    HW3 5978   0.383   2.751   2.666  0.0305 -1.0737  0.6483
 1483SOL    MW4 5979   0.466   2.748   2.639 -0.0458 -0.0918  0.2842
 1484SOL     OW 5980   0.712   2.843   2.732  0.0258  0.3680 -0.0228
 1484SOL    HW2 5981   0.717   2.830   2.826  0.6788  0.6905 -0.0144
 1484SOL    HW3 5982   0.696   2.937   2.721 -0.6170  0.2449 -0.2189
 1484SOL    MW4 5983   0.710   2.854   2.743  0.0272  0.3943 -0.0474
 1485SOL     OW 5984   0.683   3.097   2.661  0.0711 -0.0502 -0.0469
 1485SOL    HW2 5985   0.770   3.126   2.690 -0.0506  1.9155 -1.5433
 1485SOL    HW3 5986   0.685   3.106   2.566 -1.2588 -1.4984 -0.2234
 1485SOL    MW4 5987   0.695   3.102   2.652 -0.1203  0.0184 -0.2677
 1486SOL     OW 5988   0.428   3.220   2.723  0.0132 -0.1118 -0.0457
 1486SOL    HW2 5989   0.423   3.218   2.818  0.0303  0.2005 -0.0350
 1486SOL    HW3 5990   0.516   3.188   2.703  0.0978  0.0550  0.0567
 1486SOL    MW4 5991   0.439   3.216   2.733  0.0266 -0.0486 -0.0305
 1487SOL     OW 5992   0.419   3.492   2.663 -0.0446 -0.5283  0.3089
 1487SOL    HW2 5993   0.426   3.399   2.685 -0.0478 -0.3274  1.1707
 1487SOL    HW3 5994   0.427   3.495   2.568 -1.7709 -1.5858  0.1115
 1487SOL    MW4 5995   0.421   3.480   2.654 -0.2728 -0.6416  0.3965
 1488SOL     OW 5996   0.668   3.617   2.737 -0.4643  0.2785  0.1100
 1488SOL    HW2 5997   0.665   3.622   2.832  0.8248 -0.0791  0.1789
 1488SOL    HW3 5998   0.588   3.569   2.713  0.2896 -1.5639  1.1552
 1488SOL    MW4 5999   0.657   3.611   2.746 -0.1947 -0.0117  0.2570
 1489SOL     OW 6000   0.667   3.891   2.664 -0.4430 -0.2929 -0.3964
 1489SOL    HW2 6001   0.581   3.921   2.692 -0.0328 -0.4103  1.0171
 1489SOL    HW3 6002   0.674   3.802   2.698  0.5292 -0.0118  0.1689
 1489SOL    MW4 6003   0.657   3.884   2.672 -0.2606 -0.2711 -0.1352
 1490SOL     OW 6004   0.421   3.990   2.740 -0.7647 -0.3900 -0.0329
 1490SOL    HW2 6005   0.403   4.081   2.715  0.2347 -0.1883 -0.0545
 1490SOL    HW3 6006   0.345   3.941   2.708 -0.6272  0.2263 -1.3407
 1490SOL    MW4 6007   0.409   3.996   2.732 -0.6148 -0.2820 -0.2084
 1491SOL     OW 6008   0.408   4.266   2.650  0.1443 -0.1545 -0.4551
 1491SOL    HW2 6009   0.494   4.287   2.688 -0.2289 -1.4541  1.1532
 1491SOL    HW3 6010   0.420   4.279   2.556  2.0824 -0.2225 -0.2440
 1491SOL    MW4 6011   0.421   4.270   2.643  0.3508 -0.3347 -0.2151
 1492SOL     OW 6012   0.644   4.366   2.772 -0.2051 -0.1769 -0.3245
 1492SOL    HW2 6013   0.720   4.313   2.748 -0.6204 -0.7670 -0.3475
 1492SOL    HW3 6014   0.663   4.452   2.736  1.2241  0.1340  1.0845
 1492SOL    MW4 6015   0.657   4.370   2.764 -0.0713 -0.2141 -0.1414
 1493SOL     OW 6016   1.171   4.607   2.649  0.2222 -0.1557 -0.4064
 1493SOL    HW2 6017   1.238   4.644   2.707 -1.6440  0.2896  1.5198
 1493SOL    HW3 6018   1.162   4.516   2.678 -0.1852 -0.1426 -0.4953
 1493SOL    MW4 6019   1.179   4.600   2.661 -0.0778 -0.0958 -0.1643
 1494SOL     OW 6020   0.935   0.077   2.748  0.0658 -0.3297  0.0738
 1494SOL    HW2 6021   0.935   0.097   2.842  0.6503 -0.7526  0.1649
 1494SOL    HW3 6022   1.025   0.052   2.729  0.5400  2.1122 -1.1058
 1494SOL    MW4 6023   0.946   0.076   2.758  0.2054 -0.0633 -0.0701
 1495SOL     OW 6024   0.890   0.340   2.648 -0.0687  0.1981 -0.0327
 1495SOL    HW2 6025   0.912   0.254   2.683 -2.1609 -0.2300  0.3124
 1495SOL    HW3 6026   0.895   0.330   2.553 -1.9247 -0.8105 -0.0602
 1495SOL    MW4 6027   0.893   0.328   2.640 -0.5895  0.0085  0.0091
 1496SOL     OW 6028   1.104   0.493   2.712  0.0268  0.5575 -0.2269
 1496SOL    HW2 6029   1.097   0.580   2.672 -3.3403  0.7969  0.6595
 1496SOL    HW3 6030   1.021   0.451   2.690  1.4702 -2.3103 -0.2981
 1496SOL    MW4 6031   1.092   0.499   2.704 -0.2270  0.2106 -0.1194
 1497SOL     OW 6032   1.091   0.763   2.636  0.2270  0.3680  0.6379
 1497SOL    HW2 6033   1.167   0.800   2.681  1.5699 -1.1680 -0.2913
 1497SOL    HW3 6034   1.106   0.784   2.544  0.1693 -1.0490  0.3010
 1497SOL    MW4 6035   1.103   0.771   2.630  0.3966 -0.0216  0.4709
 1498SOL     OW 6036   0.840   0.888   2.714 -0.1014 -0.1032 -0.2408
 1498SOL    HW2 6037   0.848   0.889   2.810 -0.3252  0.7406 -0.2263
 1498SOL    HW3 6038   0.914   0.836   2.685  0.1290 -0.1358  0.3852
 1498SOL    MW4 6039   0.851   0.882   2.723 -0.1005  0.0038 -0.1564
 1499SOL     OW 6040   0.872   1.162   2.633 -0.0790  0.0505 -0.1082
 1499SOL    HW2 6041   0.871   1.070   2.660  1.5646 -0.2160 -0.8723
 1499SOL    HW3 6042   0.885   1.159   2.538  0.7916  1.0799 -0.0310
 1499SOL    MW4 6043   0.874   1.150   2.624  0.2527  0.1512 -0.1988
 1500SOL     OW 6044   1.076   1.267   2.794  0.5663 -0.1107 -0.3287
 1500SOL    HW2 6045   1.076   1.350   2.747 -2.3374  0.5056  0.6517
 1500SOL    HW3 6046   1.021   1.209   2.742 -2.2218  0.4143  1.8895
 1500SOL    MW4 6047   1.069   1.270   2.781 -0.1848  0.0399  0.0932
 1501SOL     OW 6048   1.116   1.537   2.657  0.3299  0.0202  0.5440
 1501SOL    HW2 6049   1.054   1.603   2.688  1.8427  1.1164  1.2967
 1501SOL    HW3 6050   1.125   1.555   2.563  0.0558  0.3037  0.5714
 1501SOL    MW4 6051   1.109   1.548   2.648  0.4932  0.2023  0.6471
 1502SOL     OW 6052   0.914   1.704   2.741  0.4394 -0.1236 -0.5575
 1502SOL    HW2 6053   0.906   1.694   2.836  2.3552 -0.0496 -0.3615
 1502SOL    HW3 6054   0.829   1.676   2.706 -0.6862  1.0006  1.2480
 1502SOL    MW4 6055   0.902   1.699   2.749  0.5437  0.0346 -0.2935
 1503SOL     OW 6056   0.943   1.959   2.648  0.4934  0.0956 -0.5291
 1503SOL    HW2 6057   1.025   1.995   2.682  0.4891  0.8812 -1.3432
 1503SOL    HW3 6058   0.938   1.871   2.686  1.3820  0.2915  0.0556
 1503SOL    MW4 6059   0.953   1.952   2.658  0.6101  0.2249 -0.5596
 1504SOL     OW 6060   1.180   2.052   2.742  0.3294  0.4137 -0.0635
 1504SOL    HW2 6061   1.250   2.003   2.699  0.7545  0.0971  0.9534
 1504SOL    HW3 6062   1.194   2.143   2.714 -0.1731  0.0377 -1.5747
 1504SOL    MW4 6063   1.191   2.058   2.733  0.3192  0.3223 -0.1287
 1505SOL     OW 6064   1.188   2.321   2.646 -0.1573  0.5342  0.0641
 1505SOL    HW2 6065   1.270   2.362   2.673  0.4222 -0.8797  0.5052
 1505SOL    HW3 6066   1.191   2.320   2.551  0.7881 -0.3840  0.0942
 1505SOL    MW4 6067   1.199   2.326   2.637  0.0437  0.2263  0.1261
 1506SOL     OW 6068   0.926   2.435   2.725 -0.4845  0.3004  0.1947
 1506SOL    HW2 6069   0.910   2.525   2.696 -0.7090  0.1821 -0.0477
 1506SOL    HW3 6070   1.010   2.411   2.684 -1.2947 -0.2199 -1.1910
 1506SOL    MW4 6071   0.935   2.444   2.716 -0.6211  0.2160 -0.0200
 1507SOL     OW 6072   0.901   2.690   2.624  0.1940  0.4431 -0.1503
 1507SOL    HW2 6073   0.982   2.729   2.657  1.1252 -1.3032 -0.2813
 1507SOL    HW3 6074   0.832   2.746   2.658  1.2719  0.1019  2.7625
 1507SOL    MW4 6075   0.903   2.702   2.633  0.4591  0.1676  0.2170
 1508SOL     OW 6076   1.124   2.833   2.725 -0.1385 -0.3158  0.0648
 1508SOL    HW2 6077   1.117   2.842   2.820  0.3858 -0.1694  0.0937
 1508SOL    HW3 6078   1.208   2.788   2.712  0.3827  0.7483 -0.3786
 1508SOL    MW4 6079   1.134   2.828   2.736 -0.0006 -0.1559  0.0100
 1509SOL     OW 6080   1.148   3.096   2.654  0.0000  0.0000  0.2999
 1509SOL    HW2 6081   1.122   3.007   2.676  0.0000  0.0000  0.2966
 1509SOL    HW3 6082   1.136   3.101   2.559  0.0000  0.0000  0.3005
 1509SOL    MW4 6083   1.143   3.085   2.644  0.0000  0.0000  0.2995
 1510SOL     OW 6084   0.919   3.208   2.771  0.0000  0.0000 -0.5884
 1510SOL    HW2 6085   0.903   3.287   2.719  0.0000  0.0000 -0.5610
 1510SOL    HW3 6086   1.006   3.179   2.743  0.0000  0.0000 -0.6230
 1510SOL    MW4 6087   0.928   3.215   2.760  0.0000  0.0000 -0.5894
 1511SOL     OW 6088   0.887   3.462   2.668  0.0000  0.0000  0.1438
 1511SOL    HW2 6089   0.961   3.509   2.709  0.0000  0.0000  0.1808
 1511SOL    HW3 6090   0.810   3.512   2.695  0.0000  0.0000  0.0775
 1511SOL    MW4 6091   0.887   3.475   2.677  0.0000  0.0000  0.1402
 1512SOL     OW 6092   1.102   3.599   2.768  0.0000  0.0000 -0.0207
 1512SOL    HW2 6093   1.101   3.626   2.860  0.0000  0.0000 -0.0209
 1512SOL    HW3 6094   1.100   3.681   2.719  0.0000  0.0000 -0.0213
 1512SOL    MW4 6095   1.102   3.613   2.774  0.0000  0.0000 -0.0210
 1513SOL     OW 6096   1.098   3.851   2.667  0.0000  0.0000  0.2250
 1513SOL    HW2 6097   1.178   3.889   2.705  0.0000  0.0000  0.2276
 1513SOL    HW3 6098   1.110   3.859   2.573  0.0000  0.0000  0.2256
 1513SOL    MW4 6099   1.110   3.857   2.660  0.0000  0.0000  0.2258
 1514SOL     OW 6100   0.893   4.008   2.765  0.0000  0.0000 -0.3143
 1514SOL    HW2 6101   0.957   3.963   2.710  0.0000  0.0000 -0.3073
 1514SOL    HW3 6102   0.809   3.969   2.739  0.0000  0.0000 -0.3083
 1514SOL    MW4 6103   0.890   3.997   2.754  0.0000  0.0000 -0.3126
 1515SOL     OW 6104   0.888   4.266   2.658  0.0000  0.0000 -0.4563
 1515SOL    HW2 6105   0.892   4.173   2.682  0.0000  0.0000 -0.4585
 1515SOL    HW3 6106   0.884   4.265   2.562  0.0000  0.0000 -0.4565
 1515SOL    MW4 6107   0.888   4.254   2.648  0.0000  0.0000 -0.4566
 1516SOL     OW 6108   1.144   4.351   2.752  0.0000  0.0000 -0.3048
 1516SOL    HW2 6109   1.137   4.378   2.844  0.0000  0.0000 -0.3048
 1516SOL    HW3 6110   1.055   4.327   2.727  0.0000  0.0000 -0.3074
 1516SOL    MW4 6111   1.131   4.351   2.761  0.0000  0.0000 -0.3052
 1517SOL     OW 6112   1.593   4.643   2.666  0.0000  0.0000 -0.7908
 1517SOL    HW2 6113   1.588   4.549   2.682  0.0000  0.0000 -0.7896
 1517SOL    HW3 6114   1.581   4.652   2.571  0.0000  0.0000 -0.7908
 1517SOL    MW4 6115   1.591   4.632   2.655  0.0000  0.0000 -0.7906
 1518SOL     OW 6116   1.356   0.095   2.770  0.1120 -0.1164 -0.0818
 1518SOL    HW2 6117   1.319   0.176   2.735  0.6634  0.4836  0.7354
 1518SOL    HW3 6118   1.437   0.082   2.720  0.6781  0.5161  0.6498
 1518SOL    MW4 6119   1.362   0.104   2.759  0.2594  0.0462  0.1223
 1519SOL     OW 6120   1.339   0.349   2.661  0.3545 -0.2728 -0.1114
 1519SOL    HW2 6121   1.402   0.401   2.709 -1.1052  0.1562  1.3876
 1519SOL    HW3 6122   1.254   0.388   2.682 -0.5462 -1.7183 -0.9438
 1519SOL    MW4 6123   1.336   0.361   2.670  0.0432 -0.4069 -0.0236
 1520SOL     OW 6124   1.528   0.522   2.742  0.2747 -0.3174  0.1190
 1520SOL    HW2 6125   1.596   0.460   2.717 -1.8787 -2.3778 -0.8433
 1520SOL    HW3 6126   1.543   0.598   2.686  0.7669 -1.4387 -1.2962
 1520SOL    MW4 6127   1.539   0.524   2.731  0.0554 -0.7372 -0.1948
 1521SOL     OW 6128   1.557   0.779   2.642 -0.2259  0.4929 -0.1117
 1521SOL    HW2 6129   1.469   0.809   2.668 -0.0898  0.1668  0.7177
 1521SOL    HW3 6130   1.554   0.778   2.546 -1.2526  0.1168 -0.0793
 1521SOL    MW4 6131   1.545   0.783   2.632 -0.3434  0.4002  0.0021
 1522SOL     OW 6132   1.324   0.881   2.747  0.3490  0.4614 -0.1311
 1522SOL    HW2 6133   1.333   0.896   2.841  3.3094  2.1960 -0.6347
 1522SOL    HW3 6134   1.328   0.968   2.708 -1.3952 -0.1893 -1.8534
 1522SOL    MW4 6135   1.326   0.894   2.754  0.5095  0.6044 -0.4249
 1523SOL     OW 6136   1.308   1.163   2.680 -0.9546 -0.6318  0.4204
 1523SOL    HW2 6137   1.383   1.221   2.696  0.1528 -1.9369  0.0288
 1523SOL    HW3 6138   1.238   1.201   2.732  0.1303  0.3136  1.2334
 1523SOL    MW4 6139   1.309   1.176   2.689 -0.6652 -0.6793  0.4764
 1524SOL     OW 6140   1.529   1.297   2.742 -0.3726 -0.4983  0.2515
 1524SOL    HW2 6141   1.547   1.304   2.836  0.3264 -1.3703  0.1888
 1524SOL    HW3 6142   1.601   1.244   2.708 -0.9203 -0.6452 -0.6855
 1524SOL    MW4 6143   1.541   1.291   2.750 -0.3526 -0.6329  0.1197
 1525SOL     OW 6144   1.584   1.546   2.637  0.4581  0.0057  0.1652
 1525SOL    HW2 6145   1.579   1.455   2.667  3.0827 -0.4152 -0.5403
 1525SOL    HW3 6146   1.581   1.541   2.542  2.8362  0.4368  0.0342
 1525SOL    MW4 6147   1.583   1.533   2.629  1.1181  0.0069  0.0546
 1526SOL     OW 6148   1.359   1.668   2.736 -0.3921  0.1247 -0.2083
 1526SOL    HW2 6149   1.434   1.620   2.699 -0.7405 -0.5895  0.0118
 1526SOL    HW3 6150   1.283   1.631   2.692 -0.6011  0.9754 -0.5542
 1526SOL    MW4 6151   1.359   1.656   2.726 -0.4658  0.1428 -0.2248
 1527SOL     OW 6152   1.367   1.926   2.610 -0.2607  0.4514 -0.1598
 1527SOL    HW2 6153   1.358   1.837   2.643 -0.1026  0.2430 -0.6796
 1527SOL    HW3 6154   1.345   1.920   2.517 -0.2190  0.9464 -0.2032
 1527SOL    MW4 6155   1.363   1.913   2.602 -0.2342  0.4894 -0.2344
 1528SOL     OW 6156   1.592   2.077   2.727  0.1455  0.4790  0.6729
 1528SOL    HW2 6157   1.673   2.033   2.701  0.5854  0.7758  1.5031
 1528SOL    HW3 6158   1.522   2.021   2.693  0.7006 -0.4048  0.9470
 1528SOL    MW4 6159   1.593   2.063   2.719  0.2768  0.4015  0.8187
 1529SOL     OW 6160   1.604   2.320   2.620 -0.1511 -0.1511  0.4998
 1529SOL    HW2 6161   1.689   2.361   2.638  0.2265 -0.5305 -0.4058
 1529SOL    HW3 6162   1.611   2.233   2.658  0.1399 -0.4513 -0.2375
 1529SOL    MW4 6163   1.616   2.314   2.628 -0.0629 -0.2406  0.2830
 1530SOL     OW 6164   1.396   2.478   2.750  0.9967  0.0739 -0.5760
 1530SOL    HW2 6165   1.380   2.570   2.728  2.6135  0.9723  1.8073
 1530SOL    HW3 6166   1.478   2.457   2.706  1.4412  0.2736  0.1360
 1530SOL    MW4 6167   1.405   2.487   2.742  1.2686  0.2186 -0.1676
 1531SOL     OW 6168   1.370   2.716   2.611 -0.1552 -0.6346  0.1242
 1531SOL    HW2 6169   1.457   2.753   2.630 -0.2275 -0.2633 -0.2540
 1531SOL    HW3 6170   1.363   2.720   2.515 -1.5755  1.5686  0.3042
 1531SOL    MW4 6171   1.381   2.721   2.601 -0.3521 -0.2949  0.0980
 1532SOL     OW 6172   1.626   2.815   2.683 -0.1662  0.1503 -0.2977
 1532SOL    HW2 6173   1.617   2.796   2.777  1.3950  0.7899 -0.0064
 1532SOL    HW3 6174   1.704   2.766   2.656 -0.5519  0.0480 -1.2438
 1532SOL    MW4 6175   1.635   2.806   2.692 -0.0112  0.2213 -0.3841
 1533SOL     OW 6176   1.584   3.075   2.628 -0.1828  0.0261  0.1895
 1533SOL    HW2 6177   1.655   3.124   2.670 -0.9189 -0.2811  1.8232
 1533SOL    HW3 6178   1.610   2.983   2.636 -0.7815 -0.0918  0.8477
 1533SOL    MW4 6179   1.597   3.070   2.634 -0.3588 -0.0300  0.4916
 1534SOL     OW 6180   1.389   3.227   2.740 -0.0844  0.4324  0.4923
 1534SOL    HW2 6181   1.473   3.185   2.721 -0.1914  0.3881  0.1106
 1534SOL    HW3 6182   1.323   3.164   2.710 -0.3064 -0.7019  3.2018
 1534SOL    MW4 6183   1.391   3.213   2.733 -0.1279  0.2768  0.7997
 1535SOL     OW 6184   1.317   3.469   2.648  0.1526 -0.0223 -0.0205
 1535SOL    HW2 6185   1.343   3.388   2.692  0.2686  0.6565  1.1615
 1535SOL    HW3 6186   1.235   3.494   2.689 -0.0797  0.2575 -0.6519
 1535SOL    MW4 6187   1.310   3.462   2.659  0.1372  0.1040  0.0522
 1536SOL     OW 6188   1.538   3.572   2.754 -0.0868  0.1352  0.0177
 1536SOL    HW2 6189   1.615   3.534   2.711 -0.1177 -0.4517  0.4767
 1536SOL    HW3 6190   1.464   3.535   2.705 -0.1204 -0.4915  0.5318
 1536SOL    MW4 6191   1.538   3.562   2.742 -0.0951 -0.0248  0.1464
 1537SOL     OW 6192   1.574   3.834   2.615  0.3380  0.6389 -0.0030
 1537SOL    HW2 6193   1.497   3.881   2.646 -1.3011 -0.7579 -1.7765
 1537SOL    HW3 6194   1.560   3.744   2.643  1.0205  0.2582 -0.8504
 1537SOL    MW4 6195   1.562   3.828   2.623  0.2118  0.4044 -0.3488
 1538SOL     OW 6196   1.354   3.956   2.716 -0.3347  0.1096  0.5231
 1538SOL    HW2 6197   1.384   3.968   2.807 -0.1737 -0.0500  0.4911
 1538SOL    HW3 6198   1.352   4.045   2.680  0.9982  0.0243  0.2392
 1538SOL    MW4 6199   1.357   3.970   2.723 -0.1376  0.0772  0.4814
 1539SOL     OW 6200   1.369   4.211   2.650  0.6285  0.3740  0.1844
 1539SOL    HW2 6201   1.288   4.237   2.694  0.7669  0.4910  0.3716
 1539SOL    HW3 6202   1.351   4.223   2.557  0.9602  1.9008  0.3119
 1539SOL    MW4 6203   1.356   4.216   2.644  0.6905  0.5913  0.2260
 1540SOL     OW 6204   1.592   4.363   2.721 -0.2847 -0.1380  0.6137
 1540SOL    HW2 6205   1.595   4.370   2.817 -1.3551  0.8656  0.5783
 1540SOL    HW3 6206   1.519   4.304   2.703 -0.2961 -0.0604  0.4072
 1540SOL    MW4 6207   1.583   4.356   2.732 -0.4275  0.0048  0.5820
 1541SOL     OW 6208   2.000   4.642   2.673  0.8236  0.2057 -0.3177
 1541SOL    HW2 6209   2.082   4.686   2.695  0.9588  0.4617 -1.3482
 1541SOL    HW3 6210   1.992   4.651   2.578 -1.1965  1.5954 -0.0406
 1541SOL    MW4 6211   2.010   4.649   2.664  0.5746  0.4225 -0.4172
 1542SOL     OW 6212   1.798   0.126   2.783  0.1120  0.4325 -0.4940
 1542SOL    HW2 6213   1.867   0.068   2.751  0.8929  0.2581  1.4359
 1542SOL    HW3 6214   1.716   0.078   2.767  0.5063  0.1355 -1.6937
 1542SOL    MW4 6215   1.796   0.112   2.777  0.2670  0.3703 -0.3979
 1543SOL     OW 6216   1.765   0.374   2.649 -0.3055  0.6967  0.1654
 1543SOL    HW2 6217   1.825   0.429   2.698 -0.2428  0.3881  0.4373
 1543SOL    HW3 6218   1.782   0.285   2.681  0.0780  0.4287 -0.7579
 1543SOL    MW4 6219   1.775   0.369   2.660 -0.2466  0.6207  0.0794
 1544SOL     OW 6220   2.001   0.481   2.809  0.3776 -0.0275  0.2287
 1544SOL    HW2 6221   2.057   0.435   2.747  1.9133  0.4023  1.2741
 1544SOL    HW3 6222   1.995   0.570   2.774  2.9348  0.7926  1.7152
 1544SOL    MW4 6223   2.008   0.487   2.796  0.9177  0.1374  0.5627
 1545SOL     OW 6224   1.983   0.731   2.673 -0.0309  0.0378 -0.1156
 1545SOL    HW2 6225   1.918   0.800   2.689  0.0336  0.0104  0.2687
 1545SOL    HW3 6226   2.011   0.745   2.583  0.2960  0.7892  0.0900
 1545SOL    MW4 6227   1.978   0.742   2.663  0.0207  0.1333 -0.0377
 1546SOL     OW 6228   1.790   0.910   2.735  0.2903  0.0184 -0.3547
 1546SOL    HW2 6229   1.781   0.997   2.697  1.2327  0.9708  1.5204
 1546SOL    HW3 6230   1.705   0.869   2.722 -0.3477  1.4410 -0.7344
 1546SOL    MW4 6231   1.778   0.916   2.729  0.3304  0.3318 -0.1574
 1547SOL     OW 6232   1.770   1.169   2.631 -0.3277  0.3185  0.1834
 1547SOL    HW2 6233   1.860   1.200   2.643 -0.0093 -0.9058  1.0031
 1547SOL    HW3 6234   1.768   1.135   2.542 -0.1716  0.9519 -0.0675
 1547SOL    MW4 6235   1.782   1.169   2.621 -0.2651  0.2406  0.2582
 1548SOL     OW 6236   2.039   1.255   2.711  0.2877  0.4917 -0.0892
 1548SOL    HW2 6237   2.039   1.251   2.807 -1.3854 -2.8985 -0.1477
 1548SOL    HW3 6238   2.127   1.226   2.686  0.3274  0.1697  0.4049
 1548SOL    MW4 6239   2.051   1.250   2.720  0.0720  0.0020 -0.0315
 1549SOL     OW 6240   2.041   1.504   2.627  0.5005 -0.2037 -0.1929
 1549SOL    HW2 6241   1.954   1.543   2.640  0.6632  0.4985 -1.1726
 1549SOL    HW3 6242   2.031   1.415   2.660 -0.3254  0.1545  0.5825
 1549SOL    MW4 6243   2.028   1.498   2.633  0.4129 -0.0638 -0.2198
 1550SOL     OW 6244   1.822   1.656   2.715 -0.6147  0.9342  0.3743
 1550SOL    HW2 6245   1.831   1.659   2.810 -2.5405  1.6490  0.5458
 1550SOL    HW3 6246   1.734   1.623   2.700  0.4433 -1.3166 -1.2053
 1550SOL    MW4 6247   1.812   1.652   2.726 -0.7291  0.7315  0.1884
 1551SOL     OW 6248   1.793   1.912   2.607  0.0131 -0.0986 -0.1079
 1551SOL    HW2 6249   1.865   1.968   2.636  0.3116 -0.1344 -0.7555
 1551SOL    HW3 6250   1.807   1.829   2.652  0.5084 -0.1765 -0.4031
 1551SOL    MW4 6251   1.804   1.909   2.617  0.1178 -0.1134 -0.2325
 1552SOL     OW 6252   2.021   2.037   2.694 -0.3099  0.7678 -0.0215
 1552SOL    HW2 6253   2.023   2.047   2.789  2.5087  0.6700 -0.0344
 1552SOL    HW3 6254   2.040   2.125   2.660 -0.1820  0.5618 -0.4864
 1552SOL    MW4 6255   2.024   2.050   2.702  0.0789  0.7277 -0.0844
 1553SOL     OW 6256   2.077   2.327   2.612  0.0638  0.6007 -0.0864
 1553SOL    HW2 6257   2.146   2.393   2.618 -0.1645  0.6926  1.6218
 1553SOL    HW3 6258   2.054   2.325   2.519  1.3822  1.5736 -0.4407
 1553SOL    MW4 6259   2.083   2.335   2.600  0.2074  0.7410  0.0923
 1554SOL     OW 6260   1.841   2.436   2.729 -0.1037 -0.5495  0.0942
 1554SOL    HW2 6261   1.837   2.430   2.825  0.0541  1.2574  0.2269
 1554SOL    HW3 6262   1.921   2.389   2.706  0.6952  0.3578  0.9887
 1554SOL    MW4 6263   1.851   2.429   2.739  0.0225 -0.1912  0.2298
 1555SOL     OW 6264   1.858   2.689   2.597 -0.7434  0.0882  0.1602
 1555SOL    HW2 6265   1.853   2.598   2.627  0.7885  0.2984  1.0926
 1555SOL    HW3 6266   1.846   2.684   2.502 -0.4287 -1.1136  0.1765
 1555SOL    MW4 6267   1.856   2.676   2.589 -0.4996 -0.0424  0.2854
 1556SOL     OW 6268   2.037   2.874   2.725 -0.0855 -0.2706 -0.2218
 1556SOL    HW2 6269   2.124   2.846   2.695  0.0300  0.0150 -0.1560
 1556SOL    HW3 6270   1.977   2.842   2.658  0.1604  0.2686 -0.6989
 1556SOL    MW4 6271   2.041   2.866   2.712 -0.0377 -0.1614 -0.2761
 1557SOL     OW 6272   2.039   3.143   2.654  0.2789  0.0107  0.2193
 1557SOL    HW2 6273   2.034   3.053   2.686 -2.7045  0.0400  0.0329
 1557SOL    HW3 6274   2.043   3.134   2.559 -0.2093  0.0504  0.1906
 1557SOL    MW4 6275   2.039   3.130   2.646 -0.1791  0.0196  0.1907
 1558SOL     OW 6276   1.788   3.228   2.713 -0.3923 -0.1037 -0.2477
 1558SOL    HW2 6277   1.786   3.322   2.695 -0.0538 -0.5122 -2.5688
 1558SOL    HW3 6278   1.876   3.200   2.687 -0.5727 -1.0941  0.1751
 1558SOL    MW4 6279   1.799   3.237   2.707 -0.3715 -0.2882 -0.4981
 1559SOL     OW 6280   1.801   3.485   2.639 -0.2828  0.2070  0.2250
 1559SOL    HW2 6281   1.890   3.514   2.655 -0.1608  0.1376 -0.3134
 1559SOL    HW3 6282   1.796   3.475   2.544 -0.4948 -0.9822  0.3595
 1559SOL    MW4 6283   1.812   3.488   2.629 -0.2947  0.0410  0.1717
 1560SOL     OW 6284   2.039   3.620   2.708 -0.1369 -0.2171  0.1887
 1560SOL    HW2 6285   2.028   3.633   2.802 -1.0784 -1.7710  0.3033
 1560SOL    HW3 6286   2.128   3.587   2.699 -0.3916 -1.0228  0.6282
 1560SOL    MW4 6287   2.050   3.618   2.719 -0.2947 -0.5283  0.2620
 1561SOL     OW 6288   2.028   3.888   2.596  0.1688  0.0163  0.5194
 1561SOL    HW2 6289   1.943   3.916   2.631 -0.3526 -1.5433  0.5247
 1561SOL    HW3 6290   2.044   3.804   2.638  1.0389 -0.3722 -0.5991
 1561SOL    MW4 6291   2.019   3.881   2.606  0.2148 -0.2406  0.3724
 1562SOL     OW 6292   1.805   3.982   2.737  0.1857 -0.0138  0.7809
 1562SOL    HW2 6293   1.812   4.068   2.696 -0.3728 -0.0603  0.5913
 1562SOL    HW3 6294   1.724   3.945   2.703  1.2876 -1.3352 -0.5017
 1562SOL    MW4 6295   1.795   3.989   2.727  0.2573 -0.1943  0.5865
 1563SOL     OW 6296   1.828   4.234   2.630 -0.8663  0.2008 -0.1634
 1563SOL    HW2 6297   1.745   4.244   2.678 -1.2117 -2.7785 -0.0661
 1563SOL    HW3 6298   1.804   4.238   2.538 -1.0916 -0.4641 -0.1332
 1563SOL    MW4 6299   1.814   4.236   2.624 -0.9416 -0.2799 -0.1469
 1564SOL     OW 6300   2.032   4.381   2.738  0.0619 -0.1104  0.2094
 1564SOL    HW2 6301   1.963   4.333   2.692 -0.0251  0.4784 -0.2776
 1564SOL    HW3 6302   2.022   4.471   2.709  0.5742  0.1091  0.7036
 1564SOL    MW4 6303   2.021   4.387   2.728  0.1180 -0.0038  0.2103
 1565SOL     OW 6304   2.463   4.633   2.657 -0.1432  0.2262  0.5385
 1565SOL    HW2 6305   2.532   4.697   2.674  0.1924 -0.0644  0.2775
 1565SOL    HW3 6306   2.478   4.606   2.566 -0.9454  0.5830  0.2946
 1565SOL    MW4 6307   2.474   4.638   2.647 -0.2048  0.2351  0.4723
 1566SOL     OW 6308   2.239   0.079   2.752 -0.2356 -0.1964  0.4366
 1566SOL    HW2 6309   2.248   0.090   2.847  0.3082 -0.4631  0.4160
 1566SOL    HW3 6310   2.320   0.034   2.725 -0.6481 -0.6360 -0.0699
 1566SOL    MW4 6311   2.251   0.075   2.761 -0.2179 -0.2896  0.3667
 1567SOL     OW 6312   2.222   0.350   2.695  0.3513  0.2402 -0.2461
 1567SOL    HW2 6313   2.242   0.259   2.715 -1.0662  0.1306  0.7831
 1567SOL    HW3 6314   2.232   0.357   2.600  0.3659 -1.0184 -0.3456
 1567SOL    MW4 6315   2.226   0.339   2.685  0.1664  0.0597 -0.1235
 1568SOL     OW 6316   2.461   0.465   2.740  0.0659 -0.0696 -0.1358
 1568SOL    HW2 6317   2.447   0.555   2.713 -0.3932 -0.2627 -0.5492
 1568SOL    HW3 6318   2.378   0.421   2.721  0.1118 -0.4645  0.5319
 1568SOL    MW4 6319   2.448   0.471   2.734  0.0112 -0.1471 -0.1023
 1569SOL     OW 6320   2.443   0.719   2.655 -0.1868 -0.1333 -0.3140
 1569SOL    HW2 6321   2.364   0.771   2.669  1.3802  2.2696  0.0291
 1569SOL    HW3 6322   2.466   0.735   2.564  1.6845  1.8801  0.4564
 1569SOL    MW4 6323   2.436   0.728   2.645  0.2668  0.4494 -0.1671
 1570SOL     OW 6324   2.223   0.875   2.732  0.0932 -0.0349 -0.2602
 1570SOL    HW2 6325   2.236   0.890   2.825  1.0118 -0.0606 -0.3787
 1570SOL    HW3 6326   2.137   0.832   2.726  0.1521 -0.2773  0.5887
 1570SOL    MW4 6327   2.213   0.871   2.743  0.2222 -0.0703 -0.1643
 1571SOL     OW 6328   2.271   1.131   2.642 -0.1758 -0.0572  0.1131
 1571SOL    HW2 6329   2.267   1.044   2.681 -0.6437 -0.2443 -0.3475
 1571SOL    HW3 6330   2.255   1.116   2.548 -0.8458  0.5858  0.1179
 1571SOL    MW4 6331   2.268   1.118   2.634 -0.3259  0.0029  0.0532
 1572SOL     OW 6332   2.490   1.294   2.693 -0.1745 -0.2191 -0.1498
 1572SOL    HW2 6333   2.565   1.237   2.676 -1.3439 -0.9298 -3.2090
 1572SOL    HW3 6334   2.415   1.243   2.664 -1.5763  1.5728  0.2913
 1572SOL    MW4 6335   2.490   1.280   2.687 -0.5138 -0.0765 -0.4954
 1573SOL     OW 6336   2.478   1.568   2.631 -0.2841 -0.2975 -0.0425
 1573SOL    HW2 6337   2.409   1.616   2.677 -0.2023  0.2234 -0.4556
 1573SOL    HW3 6338   2.481   1.483   2.675 -1.8850 -0.6995 -0.6599
 1573SOL    MW4 6339   2.469   1.563   2.643 -0.4845 -0.2818 -0.1783
 1574SOL     OW 6340   2.236   1.671   2.746 -0.1377  0.4196 -0.2208
 1574SOL    HW2 6341   2.226   1.752   2.697 -2.5187 -0.2154 -0.8336
 1574SOL    HW3 6342   2.165   1.615   2.717  0.0983 -1.0594  1.8572
 1574SOL    MW4 6343   2.226   1.674   2.736 -0.4208  0.1405 -0.0274
 1575SOL     OW 6344   2.260   1.924   2.632  0.2810 -0.1748  0.4503
 1575SOL    HW2 6345   2.178   1.962   2.664  0.0530 -0.3408  0.0630
 1575SOL    HW3 6346   2.258   1.938   2.537  1.4394  1.2441  0.6193
 1575SOL    MW4 6347   2.249   1.931   2.624  0.4036 -0.0097  0.4213
 1576SOL     OW 6348   2.485   2.068   2.707 -0.1312 -0.0133  0.1946
 1576SOL    HW2 6349   2.471   2.158   2.677  0.8837 -0.2268 -0.9875
 1576SOL    HW3 6350   2.407   2.022   2.679 -0.2847  0.3236  0.0602
 1576SOL    MW4 6351   2.473   2.074   2.699 -0.0179  0.0029  0.0205
 1577SOL     OW 6352   2.476   2.336   2.600  0.2327  0.1250 -0.3288
 1577SOL    HW2 6353   2.560   2.369   2.632  0.2472 -0.5982  0.3997
 1577SOL    HW3 6354   2.481   2.344   2.505 -0.8232  4.7708 -0.0775
 1577SOL    MW4 6355   2.487   2.341   2.592  0.0954  0.6425 -0.1993
 1578SOL     OW 6356   2.265   2.506   2.686  0.2730  0.1026  0.0403
 1578SOL    HW2 6357   2.243   2.510   2.780 -0.6150 -1.1713 -0.0979
 1578SOL    HW3 6358   2.349   2.461   2.683  1.3537  2.0384  0.3520
 1578SOL    MW4 6359   2.273   2.500   2.698  0.2985  0.1898  0.0634
 1579SOL     OW 6360   2.261   2.762   2.611 -0.3119 -0.3324 -0.9813
 1579SOL    HW2 6361   2.338   2.805   2.649 -0.7159 -0.9005  0.5095
 1579SOL    HW3 6362   2.275   2.669   2.628 -1.5596 -0.3935 -0.2763
 1579SOL    MW4 6363   2.273   2.756   2.618 -0.5298 -0.4156 -0.6917
 1580SOL     OW 6364   2.479   2.885   2.740  0.4173  0.1958 -0.2953
 1580SOL    HW2 6365   2.550   2.835   2.701  0.0671 -0.2140 -0.4130
 1580SOL    HW3 6366   2.501   2.976   2.723 -0.8895 -0.0189 -3.5090
 1580SOL    MW4 6367   2.491   2.890   2.733  0.1988  0.1135 -0.7348
 1581SOL     OW 6368   2.547   3.135   2.632  0.1973  0.2126  0.4794
 1581SOL    HW2 6369   2.475   3.179   2.677  0.8134  2.2155 -0.4058
 1581SOL    HW3 6370   2.524   3.140   2.539  1.0050  0.0265  0.2588
 1581SOL    MW4 6371   2.535   3.142   2.626  0.3853  0.4520  0.3335
 1582SOL     OW 6372   2.302   3.210   2.753 -0.2333  0.2138  0.2755
 1582SOL    HW2 6373   2.286   3.209   2.847 -0.5197  1.3583  0.2407
 1582SOL    HW3 6374   2.216   3.200   2.713  0.0303 -1.7343  0.1226
 1582SOL    MW4 6375   2.289   3.208   2.760 -0.2363  0.1078  0.2508
 1583SOL     OW 6376   2.273   3.481   2.601  0.0590 -0.0627 -0.1282
 1583SOL    HW2 6377   2.341   3.537   2.639 -0.1494 -0.0648  0.2456
 1583SOL    HW3 6378   2.290   3.394   2.638  0.4651 -0.2839 -0.8104
 1583SOL    MW4 6379   2.284   3.477   2.611  0.0854 -0.0923 -0.1690
 1584SOL     OW 6380   2.495   3.627   2.722  0.1886 -0.0707 -0.1721
 1584SOL    HW2 6381   2.491   3.639   2.817  1.2951 -1.6703  0.0986
 1584SOL    HW3 6382   2.513   3.714   2.688 -1.6441  0.7965  0.9690
 1584SOL    MW4 6383   2.497   3.640   2.730  0.0927 -0.1671  0.0145
 1585SOL     OW 6384   2.492   3.913   2.651  0.0793  0.4686  0.0109
 1585SOL    HW2 6385   2.566   3.940   2.706 -0.7564 -0.4888  1.6137
 1585SOL    HW3 6386   2.415   3.931   2.703 -0.7396 -0.2820 -0.9206
 1585SOL    MW4 6387   2.492   3.919   2.665 -0.1388  0.2432  0.0997
 1586SOL     OW 6388   2.249   4.014   2.745 -0.0129 -0.2507 -0.1065
 1586SOL    HW2 6389   2.232   3.991   2.836 -1.2705 -0.2189 -0.3209
 1586SOL    HW3 6390   2.169   3.989   2.699  0.8664 -0.8871 -1.3159
 1586SOL    MW4 6391   2.236   4.007   2.751 -0.0627 -0.3304 -0.2942
 1587SOL     OW 6392   2.285   4.282   2.656 -0.0488  0.1850  0.2290
 1587SOL    HW2 6393   2.270   4.190   2.678  0.8055  0.4553  1.9990
 1587SOL    HW3 6394   2.209   4.328   2.692 -0.6717  0.1341 -1.0007
 1587SOL    MW4 6395   2.273   4.276   2.664 -0.0184  0.2136  0.3002
 1588SOL     OW 6396   2.534   4.375   2.811 -0.2347 -0.2101 -0.0584
 1588SOL    HW2 6397   2.469   4.316   2.773 -0.0181 -0.3443 -0.2204
 1588SOL    HW3 6398   2.518   4.459   2.768 -0.2822 -0.2493 -0.1177
 1588SOL    MW4 6399   2.523   4.378   2.800 -0.2122 -0.2327 -0.0875
 1589SOL     OW 6400   2.927   4.649   2.646  0.1336 -0.0794  0.2474
 1589SOL    HW2 6401   3.004   4.705   2.656  0.1535 -0.0870  0.1411
 1589SOL    HW3 6402   2.924   4.629   2.552  1.2093 -1.7951  0.5515
 1589SOL    MW4 6403   2.937   4.653   2.635  0.2780 -0.3067  0.2735
 1590SOL     OW 6404   2.697   0.089   2.738  0.4683  0.3820 -0.0176
 1590SOL    HW2 6405   2.704   0.101   2.833  0.7544  0.4403 -0.0481
 1590SOL    HW3 6406   2.774   0.038   2.715 -0.4468 -1.0610  0.0335
 1590SOL    MW4 6407   2.708   0.083   2.748  0.3850  0.1993 -0.0148
 1591SOL     OW 6408   2.704   0.365   2.629  0.0698  0.0236 -0.0336
 1591SOL    HW2 6409   2.704   0.275   2.662  0.0240 -0.4539 -1.3211
 1591SOL    HW3 6410   2.621   0.402   2.660 -0.5845 -0.8448 -0.7411
 1591SOL    MW4 6411   2.693   0.358   2.638 -0.0224 -0.1540 -0.2968
 1592SOL     OW 6412   2.920   0.498   2.731  0.0828  0.2292 -0.0775
 1592SOL    HW2 6413   2.890   0.582   2.697  0.7049 -0.0635 -1.3642
 1592SOL    HW3 6414   2.858   0.434   2.695 -0.1972  0.0830  0.6405
 1592SOL    MW4 6415   2.908   0.500   2.722  0.1278  0.1714 -0.1528
 1593SOL     OW 6416   2.858   0.776   2.655  0.0476  0.6475  0.6361
 1593SOL    HW2 6417   2.938   0.817   2.688 -0.1254  2.2309 -0.8263
 1593SOL    HW3 6418   2.787   0.828   2.694 -0.1988  0.9906 -0.2649
 1593SOL    MW4 6419   2.859   0.789   2.665 -0.0079  0.9017  0.3242
 1594SOL     OW 6420   2.627   0.911   2.745  0.4530  0.2073  0.4637
 1594SOL    HW2 6421   2.630   0.899   2.840 -0.5867  0.0755  0.4848
 1594SOL    HW3 6422   2.558   0.852   2.715  1.7038 -0.7662 -0.5506
 1594SOL    MW4 6423   2.618   0.902   2.754  0.4807  0.0615  0.3328
 1595SOL     OW 6424   2.720   1.136   2.635  0.0926  0.0432 -0.1707
 1595SOL    HW2 6425   2.788   1.177   2.688  1.2869 -0.6713 -1.1267
 1595SOL    HW3 6426   2.694   1.059   2.685 -1.0906  1.1349  0.9108
 1595SOL    MW4 6427   2.726   1.131   2.648  0.0939  0.0931 -0.1540
 1596SOL     OW 6428   2.927   1.283   2.754 -0.6691  0.0861 -0.3341
 1596SOL    HW2 6429   2.939   1.282   2.849  1.9257  0.9875 -0.6078
 1596SOL    HW3 6430   3.003   1.236   2.719 -1.2437  0.3425 -1.9924
 1596SOL    MW4 6431   2.939   1.277   2.762 -0.4025  0.2388 -0.5891
 1597SOL     OW 6432   2.925   1.543   2.617  0.0493  0.2603  0.1414
 1597SOL    HW2 6433   2.849   1.591   2.651  0.6869  0.6676  1.0042
 1597SOL    HW3 6434   2.933   1.467   2.673 -2.1819 -1.9913 -2.4642
 1597SOL    MW4 6435   2.916   1.540   2.629 -0.1609  0.0170 -0.0882
 1598SOL     OW 6436   2.710   1.709   2.684 -0.0564 -0.0599 -0.4872
 1598SOL    HW2 6437   2.720   1.715   2.779  0.0577  0.3038 -0.5245
 1598SOL    HW3 6438   2.637   1.647   2.672  0.3909 -0.6493 -0.1810
 1598SOL    MW4 6439   2.702   1.702   2.695  0.0174 -0.0895 -0.4518
 1599SOL     OW 6440   2.702   1.955   2.555  0.2469  0.1898  0.1379
 1599SOL    HW2 6441   2.698   1.864   2.583  0.8117  0.2098  0.2853
 1599SOL    HW3 6442   2.636   2.000   2.608  2.3102  0.5160  2.5284
 1599SOL    MW4 6443   2.692   1.949   2.566  0.5937  0.2354  0.4725
 1600SOL     OW 6444   2.924   2.062   2.681  0.1844  0.3573 -0.0798
 1600SOL    HW2 6445   2.928   2.152   2.650 -0.2971  0.7033  0.8468
 1600SOL    HW3 6446   2.843   2.027   2.642  0.0238  0.5272  0.1037
 1600SOL    MW4 6447   2.914   2.069   2.671  0.0997  0.4253  0.0668
 1601SOL     OW 6448   2.908   2.331   2.577  0.2202  0.0351 -0.1646
 1601SOL    HW2 6449   2.973   2.384   2.622 -0.8817  1.8198 -0.6027
 1601SOL    HW3 6450   2.824   2.360   2.612 -0.6545  1.2652 -3.0602
 1601SOL    MW4 6451   2.906   2.342   2.587 -0.0408  0.4327 -0.6044
 1602SOL     OW 6452   2.702   2.473   2.705  0.5707 -0.5376  0.1543
 1602SOL    HW2 6453   2.685   2.478   2.799  0.1645  1.0315  0.0136
 1602SOL    HW3 6454   2.706   2.564   2.676  0.7072 -0.9997 -1.3533
 1602SOL    MW4 6455   2.700   2.485   2.713  0.5352 -0.3917 -0.0629
 1603SOL     OW 6456   2.692   2.740   2.621 -0.0141  0.2285 -0.4378
 1603SOL    HW2 6457   2.770   2.783   2.656 -0.1315  0.7643 -0.8355
 1603SOL    HW3 6458   2.703   2.743   2.526  1.2344 -2.9322 -0.4427
 1603SOL    MW4 6459   2.703   2.746   2.613  0.1352 -0.1180 -0.4904
 1604SOL     OW 6460   2.921   2.835   2.732 -0.2076 -0.5425 -0.0917
 1604SOL    HW2 6461   2.887   2.849   2.820 -2.0034  1.1682 -1.0225
 1604SOL    HW3 6462   2.962   2.918   2.709 -2.2609  0.0001 -1.9270
 1604SOL    MW4 6463   2.922   2.847   2.741 -0.7150 -0.2453 -0.4568
 1605SOL     OW 6464   2.982   3.078   2.637 -0.3143 -0.0650 -0.2068
 1605SOL    HW2 6465   2.909   3.129   2.670 -0.7873 -1.6436  1.2427
 1605SOL    HW3 6466   2.964   3.068   2.543 -0.9213  1.2075 -0.2322
 1605SOL    MW4 6467   2.970   3.084   2.629 -0.4570 -0.1056 -0.0191
 1606SOL     OW 6468   2.781   3.221   2.738  0.0964 -0.4879 -0.1242
 1606SOL    HW2 6469   2.766   3.304   2.693  2.8170 -0.4414 -0.9996
 1606SOL    HW3 6470   2.704   3.168   2.716 -0.9000  1.2244 -0.8678
 1606SOL    MW4 6471   2.768   3.225   2.729  0.3240 -0.2561 -0.3381
 1607SOL     OW 6472   2.730   3.479   2.626 -0.0255  0.1381  0.5118
 1607SOL    HW2 6473   2.652   3.523   2.661 -0.9387 -0.4591 -0.7386
 1607SOL    HW3 6474   2.712   3.469   2.533  1.3767 -0.3953  0.2858
 1607SOL    MW4 6475   2.717   3.484   2.619  0.0389 -0.0112  0.3171
 1608SOL     OW 6476   2.934   3.640   2.757 -0.2624 -0.3647  0.3305
 1608SOL    HW2 6477   2.917   3.643   2.851  0.6426 -0.0791  0.4889
 1608SOL    HW3 6478   2.870   3.578   2.723  0.6718 -1.9573  1.4209
 1608SOL    MW4 6479   2.923   3.632   2.765 -0.0198 -0.5369  0.4954
 1609SOL     OW 6480   2.925   3.919   2.656  0.0065  0.1092  0.2004
 1609SOL    HW2 6481   3.009   3.960   2.679  0.0898  0.7963 -1.2601
 1609SOL    HW3 6482   2.934   3.828   2.684  0.2916  0.7629  2.3589
 1609SOL    MW4 6483   2.937   3.913   2.663  0.0551  0.2861  0.2923
 1610SOL     OW 6484   2.707   4.017   2.798 -0.2552  0.3768  0.8250
 1610SOL    HW2 6485   2.708   4.103   2.757 -3.2749 -0.0100 -0.2495
 1610SOL    HW3 6486   2.776   3.967   2.754 -0.3626  1.4033 -0.5059
 1610SOL    MW4 6487   2.716   4.021   2.787 -0.6678  0.4616  0.5076
 1611SOL     OW 6488   2.735   4.259   2.669 -0.6857 -0.1664  0.3403
 1611SOL    HW2 6489   2.811   4.311   2.696 -0.7612  0.1501 -0.0496
 1611SOL    HW3 6490   2.660   4.307   2.705 -0.7501 -0.0627  0.0655
 1611SOL    MW4 6491   2.735   4.272   2.677 -0.7043 -0.1106  0.2527
 1612SOL     OW 6492   2.943   4.396   2.742  0.2149 -0.2636  0.0219
 1612SOL    HW2 6493   2.947   4.406   2.837 -0.8674 -1.7454  0.2276
 1612SOL    HW3 6494   2.948   4.486   2.709  0.3638  0.2776  1.4754
 1612SOL    MW4 6495   2.945   4.410   2.750  0.0916 -0.3877  0.2408
 1613SOL     OW 6496   3.378   0.043   2.614  0.1007 -0.0012 -0.2115
 1613SOL    HW2 6497   3.393  -0.034   2.669 -0.0938 -0.2288 -0.4742
 1613SOL    HW3 6498   3.301   0.085   2.651 -0.4272 -0.5224 -0.7150
 1613SOL    MW4 6499   3.370   0.039   2.626  0.0055 -0.0999 -0.3126
 1614SOL     OW 6500   3.148   0.151   2.695  0.3400  0.0012  0.1268
 1614SOL    HW2 6501   3.130   0.125   2.785 -1.6799  1.2350  0.0944
 1614SOL    HW3 6502   3.148   0.247   2.697 -1.1608  0.0529 -1.4420
 1614SOL    MW4 6503   3.146   0.160   2.707 -0.1245  0.1708 -0.0844
 1615SOL     OW 6504   3.163   0.422   2.634 -0.1918  0.1218  0.3164
 1615SOL    HW2 6505   3.079   0.454   2.666 -0.4218  0.3042 -0.4558
 1615SOL    HW3 6506   3.143   0.383   2.549  0.5156  0.2609  0.0797
 1615SOL    MW4 6507   3.149   0.421   2.627 -0.1290  0.1642  0.1833
 1616SOL     OW 6508   3.369   0.520   2.765 -0.1390 -0.0367  0.0789
 1616SOL    HW2 6509   3.375   0.607   2.726  0.4834 -0.1574 -0.0993
 1616SOL    HW3 6510   3.295   0.478   2.720 -0.8470  0.6198  0.6132
 1616SOL    MW4 6511   3.360   0.526   2.754 -0.1504  0.0340  0.1259
 1617SOL     OW 6512   3.358   0.770   2.652  0.0707 -0.3750  0.1430
 1617SOL    HW2 6513   3.431   0.820   2.688 -1.4143  1.3167  0.8873
 1617SOL    HW3 6514   3.368   0.778   2.557  0.2942  0.7195  0.2494
 1617SOL    MW4 6515   3.369   0.778   2.644 -0.0958 -0.0075  0.2551
 1618SOL     OW 6516   3.117   0.888   2.717  0.6813  0.2753 -0.0347
 1618SOL    HW2 6517   3.118   0.908   2.811 -1.0783  1.8796 -0.3237
 1618SOL    HW3 6518   3.197   0.838   2.702  0.9025 -0.1434  2.3515
 1618SOL    MW4 6519   3.128   0.884   2.728  0.4785  0.4317  0.2420
 1619SOL     OW 6520   3.160   1.139   2.645 -0.1976 -0.2452  0.1758
 1619SOL    HW2 6521   3.150   1.048   2.672 -0.4294 -0.3598 -0.2862
 1619SOL    HW3 6522   3.159   1.136   2.549  1.3593  0.0653  0.1373
 1619SOL    MW4 6523   3.159   1.127   2.636 -0.0226 -0.2195  0.1099
 1620SOL     OW 6524   3.402   1.255   2.748 -0.1264  0.3130 -0.1667
 1620SOL    HW2 6525   3.412   1.249   2.843 -0.1098  1.8992 -0.0422
 1620SOL    HW3 6526   3.328   1.198   2.728  0.3921 -0.6771  0.6844
 1620SOL    MW4 6527   3.393   1.247   2.758 -0.0558  0.3915 -0.0379
 1621SOL     OW 6528   3.418   1.517   2.645  0.2385 -0.1958  0.0469
 1621SOL    HW2 6529   3.338   1.557   2.680  0.1553  1.0031 -1.4604
 1621SOL    HW3 6530   3.414   1.426   2.674 -1.1505  0.1122  0.8715
 1621SOL    MW4 6531   3.407   1.510   2.654  0.0443  0.0030 -0.0434
 1622SOL     OW 6532   3.156   1.646   2.728 -0.1630  0.2176  0.4770
 1622SOL    HW2 6533   3.166   1.738   2.702 -1.5201  0.4844  0.8431
 1622SOL    HW3 6534   3.070   1.620   2.693  0.7254 -1.2721 -0.6231
 1622SOL    MW4 6535   3.146   1.655   2.720 -0.2248  0.0563  0.3803
 1623SOL     OW 6536   3.147   1.904   2.628 -0.4924  0.1175 -0.0287
 1623SOL    HW2 6537   3.220   1.945   2.675 -0.9894 -0.6472  1.4301
 1623SOL    HW3 6538   3.071   1.957   2.651 -0.8740 -0.7184  0.6623
 1623SOL    MW4 6539   3.146   1.916   2.637 -0.6082 -0.0937  0.2549
 1624SOL     OW 6540   3.349   2.041   2.750  0.1277 -0.3263 -0.0137
 1624SOL    HW2 6541   3.360   2.043   2.845 -0.1797 -0.5322  0.0254
 1624SOL    HW3 6542   3.363   2.132   2.723  2.6776 -0.6965 -0.0523
 1624SOL    MW4 6543   3.352   2.053   2.759  0.4234 -0.4022 -0.0138
 1625SOL     OW 6544   3.382   2.307   2.652  0.0323  0.0880  0.0332
 1625SOL    HW2 6545   3.468   2.339   2.679 -0.5823  1.0897  0.8455
 1625SOL    HW3 6546   3.389   2.298   2.557  1.4254 -1.0571  0.2201
 1625SOL    MW4 6547   3.394   2.310   2.643  0.1352  0.0694  0.1647
 1626SOL     OW 6548   3.147   2.434   2.727 -0.1296 -0.3363 -0.0845
 1626SOL    HW2 6549   3.150   2.529   2.715  1.0528 -0.3637 -0.0415
 1626SOL    HW3 6550   3.235   2.404   2.708 -0.4812 -1.4296 -0.0433
 1626SOL    MW4 6551   3.159   2.443   2.723 -0.0203 -0.4842 -0.0734
 1627SOL     OW 6552   3.161   2.701   2.633  0.2894 -0.4143 -0.3143
 1627SOL    HW2 6553   3.233   2.751   2.672  0.9926 -1.5622 -0.1107
 1627SOL    HW3 6554   3.083   2.732   2.678  0.6858  0.6813 -0.3764
 1627SOL    MW4 6555   3.160   2.711   2.644  0.4346 -0.4213 -0.2956
 1628SOL     OW 6556   3.364   2.857   2.748  0.3441  0.1425 -0.2621
 1628SOL    HW2 6557   3.372   2.832   2.840 -0.8224 -1.4239 -0.5709
 1628SOL    HW3 6558   3.445   2.826   2.707 -0.1866 -1.3437 -0.2236
 1628SOL    MW4 6559   3.376   2.850   2.755  0.1202 -0.2606 -0.2978
 1629SOL     OW 6560   3.380   3.142   2.687 -0.3300  0.2038 -0.2365
 1629SOL    HW2 6561   3.357   3.051   2.705  0.5288  0.2432  1.0448
 1629SOL    HW3 6562   3.396   3.144   2.592  5.0137 -2.1739  0.4924
 1629SOL    MW4 6563   3.379   3.130   2.677  0.4883 -0.1049  0.0286
 1630SOL     OW 6564   3.158   3.263   2.763  0.1669  0.0131  0.1752
 1630SOL    HW2 6565   3.242   3.227   2.734  0.5496  1.3690 -0.4572
 1630SOL    HW3 6566   3.093   3.201   2.731  0.7774  0.1098 -1.3009
 1630SOL    MW4 6567   3.161   3.250   2.755  0.2983  0.2046 -0.1030
 1631SOL     OW 6568   3.135   3.494   2.627 -0.1153  0.3698  0.2631
 1631SOL    HW2 6569   3.148   3.408   2.666 -1.0411 -0.1109 -0.4712
 1631SOL    HW3 6570   3.070   3.537   2.684 -1.3110 -0.2540 -0.6141
 1631SOL    MW4 6571   3.128   3.488   2.640 -0.3953  0.2241  0.0503
 1632SOL     OW 6572   3.365   3.627   2.720  0.4990  0.0490  0.0939
 1632SOL    HW2 6573   3.351   3.632   2.814  2.4509 -0.8744  0.4729
 1632SOL    HW3 6574   3.282   3.597   2.684 -0.7723  1.9732  1.3214
 1632SOL    MW4 6575   3.353   3.624   2.727  0.5887  0.1810  0.3059
 1633SOL     OW 6576   3.364   3.895   2.628 -0.1336 -0.3391  0.3272
 1633SOL    HW2 6577   3.369   3.807   2.665  2.5348 -0.4366 -0.0992
 1633SOL    HW3 6578   3.357   3.880   2.533 -0.3794 -0.0978  0.3093
 1633SOL    MW4 6579   3.364   3.881   2.620  0.1862 -0.3197  0.2687
 1634SOL     OW 6580   3.166   4.058   2.736 -0.6765  0.0929 -0.1813
 1634SOL    HW2 6581   3.168   4.142   2.692  0.3442 -0.1837 -0.6824
 1634SOL    HW3 6582   3.249   4.017   2.713 -1.5486 -1.4289 -0.6697
 1634SOL    MW4 6583   3.177   4.063   2.727 -0.6568 -0.1445 -0.3119
 1635SOL     OW 6584   3.163   4.309   2.623  0.2227  0.1170  0.0079
 1635SOL    HW2 6585   3.080   4.335   2.662  0.5129  1.1086 -0.0320
 1635SOL    HW3 6586   3.140   4.281   2.535 -0.2201 -0.6669  0.3661
 1635SOL    MW4 6587   3.149   4.308   2.617  0.2024  0.1445  0.0496
 1636SOL     OW 6588   3.392   4.466   2.730 -0.1628  0.3367  0.2095
 1636SOL    HW2 6589   3.389   4.447   2.824  0.2022  1.4133  0.4375
 1636SOL    HW3 6590   3.316   4.419   2.694 -0.2212 -0.1952  1.0178
 1636SOL    MW4 6591   3.381   4.457   2.738 -0.1223  0.4086  0.3464
 1637SOL     OW 6592   3.806   0.014   2.649  0.0994  0.4019  0.2028
 1637SOL    HW2 6593   3.802  -0.075   2.683  0.1171  0.1904 -0.3470
 1637SOL    HW3 6594   3.726   0.055   2.681  0.6225  0.5353  1.4002
 1637SOL    MW4 6595   3.795   0.008   2.658  0.1709  0.3916  0.2880
 1638SOL     OW 6596   3.591   0.154   2.746  0.5181 -0.1527 -0.4371
 1638SOL    HW2 6597   3.613   0.243   2.721  1.6168 -0.1571  0.4495
 1638SOL    HW3 6598   3.522   0.127   2.685 -0.1885  1.4792 -0.3751
 1638SOL    MW4 6599   3.585   0.162   2.735  0.5701  0.0620 -0.3119
 1639SOL     OW 6600   3.603   0.418   2.659  0.1603  0.1934  0.1775
 1639SOL    HW2 6601   3.677   0.464   2.698  0.5762 -0.8843  0.6856
 1639SOL    HW3 6602   3.526   0.458   2.698  0.5526 -0.4353  1.6346
 1639SOL    MW4 6603   3.603   0.429   2.669  0.2668 -0.0317  0.4365
 1640SOL     OW 6604   3.817   0.538   2.764 -0.5496 -0.0715 -0.3939
 1640SOL    HW2 6605   3.800   0.534   2.858 -2.0381 -1.1162 -0.6934
 1640SOL    HW3 6606   3.900   0.491   2.753  0.2777  1.1402  0.5372
 1640SOL    MW4 6607   3.825   0.531   2.775 -0.6366 -0.0495 -0.3104
 1641SOL     OW 6608   3.840   0.790   2.623 -0.1016 -0.1507 -0.1983
 1641SOL    HW2 6609   3.763   0.845   2.642  0.7884  1.4761 -1.2014
 1641SOL    HW3 6610   3.824   0.710   2.673 -2.8037 -0.1496 -0.9517
 1641SOL    MW4 6611   3.828   0.787   2.632 -0.3407  0.0641 -0.4301
 1642SOL     OW 6612   3.585   0.903   2.729 -0.0136  0.0957 -0.1007
 1642SOL    HW2 6613   3.597   0.919   2.823  0.3454  0.0385 -0.1380
 1642SOL    HW3 6614   3.588   0.990   2.689  0.1492  0.0938 -0.0945
 1642SOL    MW4 6615   3.587   0.917   2.736  0.0551  0.0879 -0.1049
 1643SOL     OW 6616   3.631   1.159   2.629  0.2697 -0.0416  0.1278
 1643SOL    HW2 6617   3.694   1.221   2.667  0.2409 -0.5755  1.0488
 1643SOL    HW3 6618   3.546   1.188   2.663 -0.0471  0.9142 -1.4204
 1643SOL    MW4 6619   3.628   1.171   2.638  0.2241  0.0139  0.0453
 1644SOL     OW 6620   3.819   1.320   2.745  0.0191 -0.5587  0.0734
 1644SOL    HW2 6621   3.886   1.263   2.707  1.4260  0.9111  0.2825
 1644SOL    HW3 6622   3.832   1.404   2.701 -1.1384 -0.0203  0.7496
 1644SOL    MW4 6623   3.830   1.323   2.734  0.0520 -0.2937  0.1903
 1645SOL     OW 6624   3.828   1.556   2.643 -0.2092 -0.2229 -0.1025
 1645SOL    HW2 6625   3.905   1.576   2.695  0.2606 -0.8302 -0.5610
 1645SOL    HW3 6626   3.755   1.598   2.690  0.4980  1.0162 -0.0852
 1645SOL    MW4 6627   3.828   1.564   2.656 -0.0541 -0.1395 -0.1602
 1646SOL     OW 6628   3.615   1.688   2.751  0.3560 -0.1739  0.0704
 1646SOL    HW2 6629   3.602   1.773   2.710  0.6870 -0.6419 -1.0371
 1646SOL    HW3 6630   3.551   1.631   2.707  0.5066 -0.6175  0.4191
 1646SOL    MW4 6631   3.605   1.691   2.740  0.4196 -0.2941 -0.0296
 1647SOL     OW 6632   3.579   1.939   2.624 -0.2730  0.3988  0.4703
 1647SOL    HW2 6633   3.508   1.997   2.652  0.9397  2.0043  0.2992
 1647SOL    HW3 6634   3.570   1.934   2.529 -0.8344 -0.2984  0.5615
 1647SOL    MW4 6635   3.568   1.946   2.615 -0.1872  0.5187  0.4601
 1648SOL     OW 6636   3.796   2.030   2.755 -0.0798 -0.2388 -0.0229
 1648SOL    HW2 6637   3.875   1.994   2.715 -0.1214 -1.9337  1.3434
 1648SOL    HW3 6638   3.724   1.995   2.702 -0.0048 -0.3456 -0.0542
 1648SOL    MW4 6639   3.797   2.021   2.743 -0.0756 -0.4766  0.1531
 1649SOL     OW 6640   3.802   2.299   2.634  0.1029 -0.3606 -0.0646
 1649SOL    HW2 6641   3.812   2.205   2.651 -0.5343 -0.4439 -0.1442
 1649SOL    HW3 6642   3.826   2.310   2.542 -1.6958 -0.7492 -0.5922
 1649SOL    MW4 6643   3.807   2.288   2.624 -0.2182 -0.4227 -0.1450
 1650SOL     OW 6644   3.601   2.455   2.711  0.0401 -0.0897  0.2607
 1650SOL    HW2 6645   3.601   2.446   2.806  0.8073 -0.5225  0.2246
 1650SOL    HW3 6646   3.669   2.394   2.681  1.6198  1.9039 -0.3714
 1650SOL    MW4 6647   3.610   2.446   2.719  0.3500  0.1166  0.1726
 1651SOL     OW 6648   3.595   2.722   2.637  0.0051  0.1850 -0.0655
 1651SOL    HW2 6649   3.616   2.630   2.656  2.0419  0.5529 -0.4319
 1651SOL    HW3 6650   3.587   2.725   2.542 -1.3838  0.1358  0.0398
 1651SOL    MW4 6651   3.596   2.710   2.627  0.0904  0.2267 -0.0997
 1652SOL     OW 6652   3.823   2.844   2.766  0.8351 -0.4340 -0.2251
 1652SOL    HW2 6653   3.901   2.809   2.722  1.7508  0.7822  0.3960
 1652SOL    HW3 6654   3.750   2.795   2.728  1.8946 -1.5446 -0.8653
 1652SOL    MW4 6655   3.824   2.833   2.755  1.0958 -0.4201 -0.2277
 1653SOL     OW 6656   3.834   3.084   2.631  0.0915  0.1520 -0.1097
 1653SOL    HW2 6657   3.758   3.130   2.666 -0.1634  0.0325 -0.4996
 1653SOL    HW3 6658   3.831   2.998   2.675 -0.1178  0.0719 -0.2782
 1653SOL    MW4 6659   3.824   3.079   2.642  0.0303  0.1254 -0.1831
 1654SOL     OW 6660   3.636   3.233   2.753 -0.2302 -0.4543  0.0791
 1654SOL    HW2 6661   3.631   3.321   2.715  0.2021  0.0596  1.1988
 1654SOL    HW3 6662   3.554   3.192   2.726  0.2745 -0.2673 -1.7959
 1654SOL    MW4 6663   3.624   3.239   2.745 -0.1063 -0.3617 -0.0207
 1655SOL     OW 6664   3.590   3.488   2.665 -0.2513  0.3400  0.3065
 1655SOL    HW2 6665   3.651   3.549   2.706  0.8123 -0.1057 -0.6082
 1655SOL    HW3 6666   3.504   3.526   2.682  0.3855  2.0137 -0.1111
 1655SOL    MW4 6667   3.587   3.501   2.673 -0.0272  0.5021  0.1307
 1656SOL     OW 6668   3.818   3.622   2.778 -0.1351  0.2020  0.2218
 1656SOL    HW2 6669   3.873   3.573   2.718 -0.6463  0.6112 -0.5959
 1656SOL    HW3 6670   3.819   3.712   2.744 -1.4096  0.1836  0.1000
 1656SOL    MW4 6671   3.825   3.627   2.765 -0.3710  0.2537  0.0978
 1657SOL     OW 6672   3.832   3.857   2.632 -0.9934  0.1845  0.2013
 1657SOL    HW2 6673   3.900   3.919   2.660  0.4899 -1.7726  1.0635
 1657SOL    HW3 6674   3.750   3.899   2.657  0.1100 -0.0392  4.7383
 1657SOL    MW4 6675   3.830   3.871   2.639 -0.6521 -0.1030  0.9139
 1658SOL     OW 6676   3.616   4.001   2.717 -0.1400  0.4915 -0.1389
 1658SOL    HW2 6677   3.609   4.096   2.715  0.9050  0.5713 -0.0669
 1658SOL    HW3 6678   3.536   3.971   2.674 -0.3689  1.4032 -0.3671
 1658SOL    MW4 6679   3.604   4.010   2.711 -0.0324  0.6223 -0.1593
 1659SOL     OW 6680   3.609   4.271   2.681  0.3929  0.1308  0.1903
 1659SOL    HW2 6681   3.547   4.339   2.705  1.7790  1.2850  0.5217
 1659SOL    HW3 6682   3.605   4.267   2.585  0.3959  0.7527  0.1660
 1659SOL    MW4 6683   3.600   4.279   2.671  0.5763  0.3648  0.2310
 1660SOL     OW 6684   3.850   4.424   2.732  0.2772 -0.4299  0.4526
 1660SOL    HW2 6685   3.933   4.377   2.725  0.1017 -0.6741  0.0368
 1660SOL    HW3 6686   3.783   4.357   2.721  0.0232 -0.1637  0.3757
 1660SOL    MW4 6687   3.852   4.409   2.730  0.2203 -0.4268  0.3877
 1661SOL     OW 6688   4.253   4.645   2.610  0.0534 -0.1957  0.3958
 1661SOL    HW2 6689   4.178   4.690   2.648 -0.6378 -1.3038  0.3679
 1661SOL    HW3 6690   4.329   4.693   2.643 -0.6276  0.3356  1.2200
 1661SOL    MW4 6691   4.254   4.657   2.620 -0.1278 -0.2718  0.5007
 1662SOL     OW 6692   4.044   0.104   2.727 -0.4534 -0.4111 -0.3148
 1662SOL    HW2 6693   4.040   0.120   2.821 -0.9697  0.0878 -0.4145
 1662SOL    HW3 6694   3.961   0.061   2.706 -0.9716  0.7679 -0.7629
 1662SOL    MW4 6695   4.033   0.101   2.737 -0.5898 -0.1897 -0.3870
 1663SOL     OW 6696   4.043   0.382   2.672  0.1620 -0.2059 -0.0873
 1663SOL    HW2 6697   4.045   0.287   2.684  1.3551 -0.4929 -2.1830
 1663SOL    HW3 6698   4.027   0.393   2.578 -3.2780  1.7173  0.6727
 1663SOL    MW4 6699   4.041   0.371   2.661 -0.1340  0.0100 -0.2635
 1664SOL     OW 6700   4.277   0.512   2.746 -0.1497  0.1867  0.3122
 1664SOL    HW2 6701   4.202   0.462   2.712 -0.3549  1.1231 -0.6405
 1664SOL    HW3 6702   4.353   0.473   2.702 -0.1164 -0.4415  0.9104
 1664SOL    MW4 6703   4.277   0.500   2.735 -0.1726  0.2273  0.2654
 1665SOL     OW 6704   4.256   0.764   2.638 -0.0015 -0.2324  0.6762
 1665SOL    HW2 6705   4.255   0.675   2.674 -0.6608 -0.0172  1.2138
 1665SOL    HW3 6706   4.227   0.754   2.548  0.6554 -0.6558  0.5106
 1665SOL    MW4 6707   4.252   0.751   2.631 -0.0019 -0.2599  0.7253
 1666SOL     OW 6708   4.048   0.901   2.779  0.3540 -0.0011  0.0899
 1666SOL    HW2 6709   4.127   0.871   2.733  0.1813  0.5520 -0.5784
 1666SOL    HW3 6710   3.976   0.863   2.730  0.1986 -0.3694  0.6053
 1666SOL    MW4 6711   4.049   0.892   2.767  0.3104  0.0233  0.0696
 1667SOL     OW 6712   4.029   1.138   2.635 -0.3313 -0.1980 -0.3517
 1667SOL    HW2 6713   4.108   1.183   2.665 -1.0603  0.4860  0.5796
 1667SOL    HW3 6714   4.032   1.052   2.677 -0.2501 -0.0535 -0.0663
 1667SOL    MW4 6715   4.040   1.133   2.644 -0.4172 -0.0887 -0.1912
 1668SOL     OW 6716   4.261   1.288   2.741 -0.2817  0.1330 -0.2888
 1668SOL    HW2 6717   4.272   1.377   2.708  1.3188  0.2078  0.4255
 1668SOL    HW3 6718   4.331   1.238   2.698 -1.4061 -0.8733 -0.9820
 1668SOL    MW4 6719   4.272   1.293   2.731 -0.2189  0.0101 -0.2861
 1669SOL     OW 6720   4.259   1.549   2.670 -0.0800 -0.3151  0.0516
 1669SOL    HW2 6721   4.340   1.597   2.688 -1.1018  0.6893  2.2063
 1669SOL    HW3 6722   4.257   1.541   2.575  2.1342  0.3662 -0.0978
 1669SOL    MW4 6723   4.270   1.555   2.660  0.0772 -0.0926  0.3159
 1670SOL     OW 6724   4.035   1.706   2.780 -0.5661  0.3367  0.4087
 1670SOL    HW2 6725   4.049   1.697   2.874  0.3488 -0.7692  0.1842
 1670SOL    HW3 6726   4.113   1.666   2.741 -1.5896 -0.4802 -0.8316
 1670SOL    MW4 6727   4.047   1.699   2.787 -0.5798  0.0830  0.2158
 1671SOL     OW 6728   4.032   1.930   2.632  0.5842  0.0327 -0.1454
 1671SOL    HW2 6729   4.101   1.981   2.674  0.7036  0.5406 -0.9438
 1671SOL    HW3 6730   4.029   1.848   2.681  0.9458  0.4852  0.6355
 1671SOL    MW4 6731   4.041   1.926   2.644  0.6471  0.1594 -0.1478
 1672SOL     OW 6732   4.233   2.058   2.747  0.4185  0.3917  0.2989
 1672SOL    HW2 6733   4.235   2.149   2.716  0.2378  0.9859  1.9728
 1672SOL    HW3 6734   4.314   2.019   2.713  1.9804  2.0206  1.9971
 1672SOL    MW4 6735   4.244   2.065   2.738  0.6008  0.6847  0.7434
 1673SOL     OW 6736   4.258   2.326   2.633 -0.4182 -0.0484 -0.1972
 1673SOL    HW2 6737   4.176   2.371   2.651 -0.0524  0.3657  0.4626
 1673SOL    HW3 6738   4.260   2.318   2.537 -0.5828  1.1726 -0.3108
 1673SOL    MW4 6739   4.248   2.331   2.622 -0.3915  0.1671 -0.1252
 1674SOL     OW 6740   4.023   2.457   2.726  0.0879 -0.0197 -0.1240
 1674SOL    HW2 6741   4.023   2.431   2.818 -0.2067  2.0947  0.4819
 1674SOL    HW3 6742   3.936   2.432   2.694  0.0102 -0.2828  0.2851
 1674SOL    MW4 6743   4.012   2.450   2.734  0.0381  0.2244  0.0098
 1675SOL     OW 6744   4.028   2.710   2.638  0.5132  0.3121 -0.1295
 1675SOL    HW2 6745   4.103   2.761   2.671  0.7814 -0.5601  0.6291
 1675SOL    HW3 6746   4.029   2.630   2.690 -0.4661 -0.0666 -0.6846
 1675SOL    MW4 6747   4.038   2.706   2.649  0.4191  0.1471 -0.1028
 1676SOL     OW 6748   4.244   2.832   2.769 -0.2544  0.4094  0.0624
 1676SOL    HW2 6749   4.246   2.819   2.864  0.5862 -0.0440 -0.0136
 1676SOL    HW3 6750   4.233   2.926   2.758  0.5414  0.5688  0.6049
 1676SOL    MW4 6751   4.243   2.842   2.780 -0.0386  0.3707  0.1240
 1677SOL     OW 6752   4.243   3.095   2.674  0.0090 -0.2795  0.4533
 1677SOL    HW2 6753   4.175   3.149   2.715 -1.9110 -1.7664 -0.7133
 1677SOL    HW3 6754   4.217   3.088   2.582  1.2958 -1.5714  0.1636
 1677SOL    MW4 6755   4.231   3.101   2.667 -0.0744 -0.6461  0.2611
 1678SOL     OW 6756   4.035   3.232   2.767 -0.1060  0.0764  0.8129
 1678SOL    HW2 6757   4.034   3.318   2.725  1.2406  0.4736  1.5490
 1678SOL    HW3 6758   3.972   3.180   2.718  0.1951  1.0347 -0.6161
 1678SOL    MW4 6759   4.027   3.236   2.755  0.1116  0.2553  0.7217
 1679SOL     OW 6760   4.057   3.479   2.638  0.2710  0.1470  0.2127
 1679SOL    HW2 6761   4.144   3.517   2.651  0.3415 -0.1151  0.5170
 1679SOL    HW3 6762   4.047   3.474   2.543  0.7940 -0.2985  0.1775
 1679SOL    MW4 6763   4.067   3.483   2.627  0.3490  0.0534  0.2482
 1680SOL     OW 6764   4.302   3.621   2.694 -0.5858  0.0794 -0.0982
 1680SOL    HW2 6765   4.292   3.622   2.789  0.2551  2.6859  0.0050
 1680SOL    HW3 6766   4.382   3.572   2.678  0.0721  0.8892  0.6623
 1680SOL    MW4 6767   4.311   3.615   2.704 -0.3877  0.5300  0.0157
 1681SOL     OW 6768   4.257   3.892   2.658  0.3795  0.0848  0.2614
 1681SOL    HW2 6769   4.268   3.798   2.672 -0.9374 -0.1256 -0.0739
 1681SOL    HW3 6770   4.337   3.931   2.694  1.6172 -1.2736 -0.9081
 1681SOL    MW4 6771   4.269   3.885   2.664  0.3691 -0.1221  0.0627
 1682SOL     OW 6772   4.033   4.008   2.751 -0.0884  0.4320  0.3422
 1682SOL    HW2 6773   4.037   3.987   2.844  0.4442  1.4076  0.5375
 1682SOL    HW3 6774   4.115   3.973   2.715 -1.2340 -1.8766 -0.1763
 1682SOL    MW4 6775   4.044   4.000   2.758 -0.1693  0.2561  0.2997
 1683SOL     OW 6776   4.076   4.267   2.686 -0.5889  0.4211  0.3414
 1683SOL    HW2 6777   4.052   4.176   2.704  0.5263  0.1656  0.5587
 1683SOL    HW3 6778   4.080   4.272   2.591  0.2687 -0.0049  0.3506
 1683SOL    MW4 6779   4.073   4.256   2.676 -0.3290  0.3314  0.3712
 1684SOL     OW 6780   4.279   4.424   2.780  0.0791 -0.0451 -0.6835
 1684SOL    HW2 6781   4.204   4.371   2.752 -0.4371  0.1526  0.3253
 1684SOL    HW3 6782   4.269   4.506   2.730 -1.1617  0.5322  0.4615
 1684SOL    MW4 6783   4.267   4.428   2.769 -0.1526  0.0572 -0.3994
 1685SOL     OW 6784   0.197   0.013   3.131  0.1214  0.0166 -0.3823
 1685SOL    HW2 6785   0.189   0.031   3.224  1.6744  0.4433 -0.3085
 1685SOL    HW3 6786   0.114   0.041   3.093 -0.4783 -0.0695  0.8529
 1685SOL    MW4 6787   0.185   0.019   3.138  0.2472  0.0616 -0.2098
 1686SOL     OW 6788   4.460   0.134   2.974 -0.3629  0.0229  0.2878
 1686SOL    HW2 6789   4.390   0.089   3.022 -1.1141  1.1383  0.2613
 1686SOL    HW3 6790   4.454   0.225   3.003 -0.5532  0.6408 -1.5770
 1686SOL    MW4 6791   4.450   0.140   2.984 -0.4869  0.2516  0.0384
 1687SOL     OW 6792   4.471   0.370   3.123  0.2186 -0.1608 -0.3709
 1687SOL    HW2 6793   4.468   0.359   3.218  0.8839 -2.8030 -0.6264
 1687SOL    HW3 6794   4.393   0.422   3.103 -0.7283 -0.8267  1.4604
 1687SOL    MW4 6795   4.460   0.375   3.133  0.1817 -0.5972 -0.1628
 1688SOL     OW 6796   0.196   0.534   3.012 -0.3190  0.2688 -0.3313
 1688SOL    HW2 6797   0.279   0.489   3.028 -0.1981  0.4347 -0.5077
 1688SOL    HW3 6798   0.131   0.476   3.053  0.0586  1.0462  1.4131
 1688SOL    MW4 6799   0.198   0.520   3.019 -0.2532  0.3933 -0.1242
 1689SOL     OW 6800   0.191   0.791   3.130 -0.2808  0.1973  0.4935
 1689SOL    HW2 6801   0.201   0.768   3.222  0.1700  0.2801  0.4659
 1689SOL    HW3 6802   0.170   0.708   3.087 -0.5745  0.1738  0.6851
 1689SOL    MW4 6803   0.190   0.777   3.136 -0.2601  0.2051  0.5152
 1690SOL     OW 6804   4.467   0.919   3.029 -0.5841 -0.5797  0.1807
 1690SOL    HW2 6805   4.547   0.893   3.075 -0.9018 -1.2848  0.3471
 1690SOL    HW3 6806   4.489   0.911   2.937 -0.4806 -0.8366  0.2267
 1690SOL    MW4 6807   4.480   0.915   3.023 -0.6124 -0.7066  0.2089
 1691SOL     OW 6808   0.019   1.176   3.138  0.2478 -0.6729  0.0227
 1691SOL    HW2 6809  -0.054   1.223   3.097  0.1387  0.0839  1.0421
 1691SOL    HW3 6810   0.004   1.085   3.116 -0.3762 -0.3936 -0.7443
 1691SOL    MW4 6811   0.007   1.171   3.130  0.1512 -0.5363  0.0560
 1692SOL     OW 6812   0.259   1.246   3.028  0.2580 -0.3782 -0.0782
 1692SOL    HW2 6813   0.175   1.224   3.068  0.0404  0.2021 -0.2113
 1692SOL    HW3 6814   0.241   1.248   2.934  0.0816  1.1499 -0.0246
 1692SOL    MW4 6815   0.245   1.243   3.021  0.2060 -0.0999 -0.0885
 1693SOL     OW 6816   0.220   1.527   3.085  0.0924  0.0101 -0.5451
 1693SOL    HW2 6817   0.138   1.561   3.049 -1.1633 -0.6859  1.5710
 1693SOL    HW3 6818   0.221   1.434   3.061  0.8715  0.2791 -1.6072
 1693SOL    MW4 6819   0.210   1.519   3.078  0.0295 -0.0464 -0.4058
 1694SOL     OW 6820   4.462   1.657   3.025 -0.0598  0.5904 -0.4492
 1694SOL    HW2 6821   4.390   1.613   3.071 -1.0962  1.8392 -0.8673
 1694SOL    HW3 6822   4.464   1.745   3.063  1.3805  0.5127 -0.3083
 1694SOL    MW4 6823   4.453   1.663   3.036 -0.0067  0.7449 -0.4859
 1695SOL     OW 6824   4.457   1.913   3.136  0.4426  0.7279 -0.5808
 1695SOL    HW2 6825   4.382   1.966   3.111  0.7333  1.0857 -0.6938
 1695SOL    HW3 6826   4.532   1.959   3.100  0.7896  0.7823  0.2068
 1695SOL    MW4 6827   4.457   1.926   3.128  0.5264  0.7824 -0.4919
 1696SOL     OW 6828   0.223   2.019   3.058  0.1327  0.4122 -0.1528
 1696SOL    HW2 6829   0.230   2.109   3.092 -0.3455  0.9734 -1.4911
 1696SOL    HW3 6830   0.212   2.031   2.963  0.0957 -1.0681 -0.3338
 1696SOL    MW4 6831   0.222   2.033   3.050  0.0647  0.2906 -0.3529
 1697SOL     OW 6832   0.234   2.303   3.094 -0.4611  0.0420 -0.1838
 1697SOL    HW2 6833   0.248   2.318   3.187  0.0852 -0.4564 -0.1796
 1697SOL    HW3 6834   0.302   2.354   3.050  0.3991 -1.1084 -0.2294
 1697SOL    MW4 6835   0.245   2.312   3.100 -0.2755 -0.1760 -0.1893
 1698SOL     OW 6836   4.474   2.422   3.043  0.2624  0.1994 -0.2590
 1698SOL    HW2 6837   4.477   2.514   3.070 -0.4272  0.4087 -0.8574
 1698SOL    HW3 6838   4.560   2.387   3.066  0.3411  0.8527  0.4702
 1698SOL    MW4 6839   4.485   2.430   3.050  0.1817  0.3130 -0.2415
 1699SOL     OW 6840   4.462   2.691   3.124 -0.1121  0.0515  0.0751
 1699SOL    HW2 6841   4.471   2.697   3.219  1.0009 -0.0566 -0.0147
 1699SOL    HW3 6842   4.523   2.757   3.090 -0.5221  0.1061 -0.5590
 1699SOL    MW4 6843   4.472   2.700   3.132 -0.0200  0.0443 -0.0203
 1700SOL     OW 6844   0.204   2.866   3.007 -0.4062 -0.6279 -0.1961
 1700SOL    HW2 6845   0.266   2.802   3.041  0.6689  0.4219 -0.1705
 1700SOL    HW3 6846   0.202   2.849   2.913 -0.2764 -0.8246 -0.1640
 1700SOL    MW4 6847   0.212   2.855   2.999 -0.2473 -0.5155 -0.1884
 1701SOL     OW 6848   0.203   3.130   3.113  0.5220  0.2662  0.5079
 1701SOL    HW2 6849   0.122   3.174   3.089  0.8230  0.9894  0.8009
 1701SOL    HW3 6850   0.204   3.050   3.061 -0.6298  0.0070  0.8863
 1701SOL    MW4 6851   0.193   3.125   3.103  0.4097  0.3273  0.5963
 1702SOL     OW 6852   4.466   3.253   3.035 -0.0758 -0.9229 -0.2352
 1702SOL    HW2 6853   4.399   3.200   3.078  0.0358 -0.8134  0.0747
 1702SOL    HW3 6854   4.454   3.235   2.941 -1.8502  0.6124 -0.3393
 1702SOL    MW4 6855   4.456   3.244   3.028 -0.2947 -0.7060 -0.2079
 1703SOL     OW 6856   4.451   3.506   3.146  0.2153 -0.1396 -0.9007
 1703SOL    HW2 6857   4.386   3.552   3.093 -0.0286  0.1701 -0.3290
 1703SOL    HW3 6858   4.460   3.420   3.104 -0.6107 -0.2062 -0.9311
 1703SOL    MW4 6859   4.444   3.501   3.133  0.0744 -0.1075 -0.8292
 1704SOL     OW 6860   0.207   3.624   3.051  0.0417 -0.0013  0.3265
 1704SOL    HW2 6861   0.194   3.713   3.084  0.3671 -0.1353  0.8213
 1704SOL    HW3 6862   0.128   3.577   3.078 -0.1801  0.1644 -0.0307
 1704SOL    MW4 6863   0.195   3.630   3.059  0.0553  0.0029  0.3445
 1705SOL     OW 6864   0.211   3.879   3.142  0.3962 -0.1993 -0.4870
 1705SOL    HW2 6865   0.203   3.872   3.237 -1.7933  2.8969 -0.3945
 1705SOL    HW3 6866   0.303   3.898   3.127  0.1672  2.5986  1.2904
 1705SOL    MW4 6867   0.222   3.880   3.152  0.0771  0.5782 -0.2403
 1706SOL     OW 6868   0.001   4.013   3.061  0.3739 -0.3509  0.1402
 1706SOL    HW2 6869   0.087   3.982   3.091 -0.4771 -2.6262  0.3150
 1706SOL    HW3 6870   0.007   4.011   2.966  0.8327  0.4511  0.1456
 1706SOL    MW4 6871   0.013   4.008   3.052  0.3219 -0.5455  0.1638
 1707SOL     OW 6872   0.006   4.275   3.143 -0.4612  0.2239 -0.3784
 1707SOL    HW2 6873   0.008   4.270   3.238 -1.4922 -1.3955 -0.4164
 1707SOL    HW3 6874  -0.004   4.184   3.114  2.4672  0.3814 -2.1374
 1707SOL    MW4 6875   0.005   4.262   3.152 -0.2109  0.0305 -0.6154
 1708SOL     OW 6876   0.221   4.413   3.042  0.1539 -0.1616 -0.1225
 1708SOL    HW2 6877   0.145   4.370   3.083  0.6639 -0.8191  0.1467
 1708SOL    HW3 6878   0.209   4.506   3.060 -1.6499 -0.0344 -1.8294
 1708SOL    MW4 6879   0.209   4.419   3.050 -0.0168 -0.2317 -0.3123
 1709SOL     OW 6880   0.678   4.664   3.106 -0.6571  0.1169  0.5908
 1709SOL    HW2 6881   0.670   4.569   3.096  1.6271  0.0604 -1.1020
 1709SOL    HW3 6882   0.597   4.699   3.068 -0.4622 -1.0505 -0.9576
 1709SOL    MW4 6883   0.666   4.656   3.100 -0.3301 -0.0445  0.1633
 1710SOL     OW 6884   0.430   0.123   3.041  0.1211 -0.1741 -0.1873
 1710SOL    HW2 6885   0.426   0.215   3.066  0.0300  0.2282 -1.6783
 1710SOL    HW3 6886   0.346   0.087   3.070 -0.0472  0.3238 -0.0504
 1710SOL    MW4 6887   0.418   0.130   3.048  0.0868 -0.0553 -0.3660
 1711SOL     OW 6888   0.419   0.403   3.080  0.2767 -0.2595  0.0605
 1711SOL    HW2 6889   0.417   0.380   3.173 -1.0204  2.2166  0.6828
 1711SOL    HW3 6890   0.510   0.430   3.064  0.0940  0.9781  1.0463
 1711SOL    MW4 6891   0.431   0.404   3.090  0.0814  0.2304  0.2728
 1712SOL     OW 6892   0.657   0.518   2.997 -0.4226 -0.6372  0.5609
 1712SOL    HW2 6893   0.737   0.476   3.028 -0.6249 -0.7013  1.0003
 1712SOL    HW3 6894   0.661   0.607   3.032 -0.1049 -0.3659 -0.1775
 1712SOL    MW4 6895   0.668   0.524   3.006 -0.4074 -0.6098  0.5214
 1713SOL     OW 6896   0.679   0.766   3.123  0.3224 -0.1903  0.1861
 1713SOL    HW2 6897   0.675   0.770   3.219  1.8762  0.2779  0.2415
 1713SOL    HW3 6898   0.599   0.810   3.094  0.2282  0.3560  1.2617
 1713SOL    MW4 6899   0.668   0.772   3.132  0.5150 -0.0564  0.3355
 1714SOL     OW 6900   0.435   0.867   3.020  0.1878 -0.8275  0.4827
 1714SOL    HW2 6901   0.350   0.833   3.048  0.6363 -3.0884 -0.7776
 1714SOL    HW3 6902   0.428   0.873   2.925  1.3155 -0.6582  0.4055
 1714SOL    MW4 6903   0.423   0.863   3.011  0.3958 -1.1035  0.3061
 1715SOL     OW 6904   0.467   1.124   3.162 -0.2666  0.2694 -0.5223
 1715SOL    HW2 6905   0.466   1.035   3.127 -1.1309 -0.1870  0.6504
 1715SOL    HW3 6906   0.395   1.168   3.116 -1.1178 -0.2070  0.3379
 1715SOL    MW4 6907   0.457   1.118   3.151 -0.4929  0.1462 -0.2542
 1716SOL     OW 6908   0.657   1.292   3.038  0.2228  0.0161 -0.2015
 1716SOL    HW2 6909   0.744   1.258   3.056  0.1679  1.2323  2.5260
 1716SOL    HW3 6910   0.597   1.227   3.075 -0.0074 -0.2246 -0.9891
 1716SOL    MW4 6911   0.660   1.279   3.045  0.1852  0.1446  0.0544
 1717SOL     OW 6912   0.655   1.549   3.112 -0.1131 -0.0343 -0.1263
 1717SOL    HW2 6913   0.646   1.533   3.206 -2.0894 -0.3995 -0.3529
 1717SOL    HW3 6914   0.654   1.461   3.072  1.8412  0.0572 -0.4163
 1717SOL    MW4 6915   0.654   1.535   3.119 -0.1161 -0.0705 -0.1945
 1718SOL     OW 6916   0.441   1.653   3.002 -0.0841 -0.4365 -0.5093
 1718SOL    HW2 6917   0.513   1.612   3.050 -1.1925 -1.9892 -0.1795
 1718SOL    HW3 6918   0.362   1.611   3.034 -1.1153  0.8078 -1.3460
 1718SOL    MW4 6919   0.440   1.642   3.013 -0.3664 -0.4771 -0.5763
 1719SOL     OW 6920   0.480   1.923   3.090 -0.0947  0.3122  0.5244
 1719SOL    HW2 6921   0.460   1.829   3.085 -1.1616  0.6117 -0.7318
 1719SOL    HW3 6922   0.396   1.967   3.082  0.4830  1.4148  0.4078
 1719SOL    MW4 6923   0.467   1.916   3.088 -0.1592  0.4971  0.3431
 1720SOL     OW 6924   0.687   2.081   3.020 -0.5276  0.1656  0.5849
 1720SOL    HW2 6925   0.768   2.046   3.057  0.0247  1.0138  0.1791
 1720SOL    HW3 6926   0.624   2.010   3.030  0.7148 -1.1552 -0.7034
 1720SOL    MW4 6927   0.689   2.067   3.026 -0.2909  0.1032  0.3612
 1721SOL     OW 6928   0.684   2.336   3.106  0.2979 -0.2550 -0.0341
 1721SOL    HW2 6929   0.713   2.316   3.195 -0.9952 -2.1290 -0.0271
 1721SOL    HW3 6930   0.672   2.251   3.064  0.6420  0.6033 -1.9387
 1721SOL    MW4 6931   0.687   2.322   3.112  0.1727 -0.3891 -0.2844
 1722SOL     OW 6932   0.457   2.467   3.023 -0.2402 -0.1928 -0.1657
 1722SOL    HW2 6933   0.544   2.441   3.054  0.8964  1.5541 -1.8215
 1722SOL    HW3 6934   0.470   2.493   2.932 -1.9214  2.8533  0.4026
 1722SOL    MW4 6935   0.470   2.467   3.015 -0.3121  0.4394 -0.3092
 1723SOL     OW 6936   0.420   2.729   3.111  0.3976 -0.0747  0.0178
 1723SOL    HW2 6937   0.502   2.769   3.080  0.7648 -0.5213  0.4080
 1723SOL    HW3 6938   0.431   2.635   3.094  0.5525 -0.3110  1.3798
 1723SOL    MW4 6939   0.432   2.722   3.104  0.4665 -0.1647  0.2489
 1724SOL     OW 6940   0.677   2.829   3.005 -0.0623 -0.0443  0.5259
 1724SOL    HW2 6941   0.756   2.785   3.037  0.1151  0.7218  1.1672
 1724SOL    HW3 6942   0.679   2.915   3.046 -0.1118  0.7862 -1.1620
 1724SOL    MW4 6943   0.688   2.835   3.015 -0.0454  0.1662  0.3877
 1725SOL     OW 6944   0.674   3.095   3.104  0.3456  0.0978 -0.0288
 1725SOL    HW2 6945   0.673   3.117   3.197 -2.2339  0.0691 -0.0293
 1725SOL    HW3 6946   0.590   3.126   3.070  1.3806  0.4326 -2.4421
 1725SOL    MW4 6947   0.663   3.102   3.111  0.1418  0.1380 -0.3469
 1726SOL     OW 6948   0.449   3.222   3.006  0.0964  0.4156 -0.0119
 1726SOL    HW2 6949   0.453   3.314   3.034 -0.7375  0.8293 -1.1963
 1726SOL    HW3 6950   0.368   3.189   3.046 -0.0085  0.4121 -0.2298
 1726SOL    MW4 6951   0.439   3.230   3.015 -0.0275  0.4697 -0.1969
 1727SOL     OW 6952   0.442   3.484   3.106  0.7056 -0.4432 -0.3810
 1727SOL    HW2 6953   0.441   3.480   3.202  2.9426 -0.4698 -0.3371
 1727SOL    HW3 6954   0.363   3.532   3.084 -1.1376 -2.5566  1.3517
 1727SOL    MW4 6955   0.432   3.490   3.116  0.7576 -0.7255 -0.1466
 1728SOL     OW 6956   0.657   3.637   3.012 -0.0441 -0.0556 -0.0526
 1728SOL    HW2 6957   0.735   3.594   3.047  0.5108 -0.3845 -1.6536
 1728SOL    HW3 6958   0.584   3.593   3.055  0.6262 -0.1466  1.0148
 1728SOL    MW4 6959   0.658   3.626   3.022  0.1175 -0.1111 -0.1230
 1729SOL     OW 6960   0.701   3.898   3.124 -0.1516 -0.1484 -0.0612
 1729SOL    HW2 6961   0.680   3.891   3.217  0.6193  0.6340  0.1763
 1729SOL    HW3 6962   0.694   3.808   3.091 -0.2059 -0.4622  0.7938
 1729SOL    MW4 6963   0.697   3.885   3.132 -0.0570 -0.0865  0.0827
 1730SOL     OW 6964   0.456   3.983   3.034 -0.4046 -0.0540  0.2493
 1730SOL    HW2 6965   0.544   3.954   3.057 -0.4542  0.1450  0.7052
 1730SOL    HW3 6966   0.452   3.975   2.939 -0.0878 -0.6033  0.2788
 1730SOL    MW4 6967   0.467   3.978   3.025 -0.3693 -0.1004  0.3133
 1731SOL     OW 6968   0.449   4.256   3.124 -0.0638 -0.4128  0.3629
 1731SOL    HW2 6969   0.456   4.167   3.090 -1.6110 -0.7020  0.7858
 1731SOL    HW3 6970   0.362   4.286   3.097 -0.1888  0.3878  1.6021
 1731SOL    MW4 6971   0.439   4.249   3.116 -0.2844 -0.3452  0.5822
 1732SOL     OW 6972   0.677   4.385   3.037 -0.3253  0.2933 -0.2244
 1732SOL    HW2 6973   0.601   4.333   3.062 -0.2624  0.1388 -0.3581
 1732SOL    HW3 6974   0.674   4.387   2.941  1.1940 -1.7306 -0.3419
 1732SOL    MW4 6975   0.666   4.379   3.027 -0.1166  0.0062 -0.2575
 1733SOL     OW 6976   1.092   0.008   3.119  0.2972 -0.4448  0.1615
 1733SOL    HW2 6977   1.172   0.049   3.088 -0.2223 -0.7142 -1.5935
 1733SOL    HW3 6978   1.022   0.065   3.088 -0.2771 -1.1204  0.1946
 1733SOL    MW4 6979   1.093   0.021   3.111  0.1531 -0.5694 -0.0656
 1734SOL     OW 6980   0.877   0.153   3.004 -0.4429 -0.3491 -0.3071
 1734SOL    HW2 6981   0.868   0.233   3.056  3.2088  0.1929 -0.3755
 1734SOL    HW3 6982   0.811   0.093   3.040 -0.7665  1.4166  2.1739
 1734SOL    MW4 6983   0.867   0.156   3.015 -0.0038 -0.0446  0.0112
 1735SOL     OW 6984   0.863   0.389   3.136 -0.4723 -0.1893  0.4906
 1735SOL    HW2 6985   0.872   0.388   3.231  2.4615  1.0967  0.2957
 1735SOL    HW3 6986   0.945   0.429   3.105 -2.6101  2.1675 -2.4319
 1735SOL    MW4 6987   0.875   0.394   3.144 -0.3673  0.2913  0.0794
 1736SOL     OW 6988   1.113   0.504   2.996 -0.3536  0.1558  0.8435
 1736SOL    HW2 6989   1.206   0.490   3.015 -0.4898 -0.1345  1.2900
 1736SOL    HW3 6990   1.108   0.501   2.900  0.1051  0.2242  0.8141
 1736SOL    MW4 6991   1.125   0.502   2.986 -0.3111  0.1265  0.8986
 1737SOL     OW 6992   1.092   0.761   3.087 -0.5274 -0.1069 -0.0409
 1737SOL    HW2 6993   1.074   0.752   3.181  1.1834 -1.0739  0.2060
 1737SOL    HW3 6994   1.103   0.672   3.055  0.5625  0.3004 -0.8249
 1737SOL    MW4 6995   1.091   0.748   3.095 -0.1580 -0.1808 -0.1116
 1738SOL     OW 6996   0.873   0.911   2.996 -0.2822  0.2736 -0.4387
 1738SOL    HW2 6997   0.959   0.875   3.018 -0.3830  0.8341  0.9293
 1738SOL    HW3 6998   0.811   0.857   3.045 -0.5844  0.8756 -0.1405
 1738SOL    MW4 6999   0.876   0.899   3.006 -0.3353  0.4270 -0.2189
 1739SOL     OW 7000   0.874   1.158   3.138  0.1692  0.1883 -0.0781
 1739SOL    HW2 7001   0.948   1.215   3.116 -0.2434  0.6813 -0.2094
 1739SOL    HW3 7002   0.893   1.076   3.092 -0.2800  0.9299 -1.6562
 1739SOL    MW4 7003   0.887   1.155   3.129  0.0554  0.3512 -0.3037
 1740SOL     OW 7004   1.089   1.327   3.081  0.2249  0.0270  0.2902
 1740SOL    HW2 7005   1.176   1.289   3.092  0.3729  0.1535 -0.4081
 1740SOL    HW3 7006   1.070   1.319   2.988 -0.1874  0.6921  0.3062
 1740SOL    MW4 7007   1.098   1.321   3.070  0.1901  0.1315  0.2000
 1741SOL     OW 7008   1.084   1.592   3.144 -0.3184  0.2852  0.6078
 1741SOL    HW2 7009   1.162   1.623   3.096 -0.4130 -0.0498  0.2336
 1741SOL    HW3 7010   1.078   1.499   3.122 -0.0108 -0.0062  1.7684
 1741SOL    MW4 7011   1.094   1.584   3.135 -0.2904  0.2027  0.7117
 1742SOL     OW 7012   0.853   1.721   3.020  0.5175 -0.0266 -0.1762
 1742SOL    HW2 7013   0.929   1.684   3.064 -0.3111 -1.6426 -0.0531
 1742SOL    HW3 7014   0.782   1.661   3.041 -0.4145  0.5009 -1.7313
 1742SOL    MW4 7015   0.854   1.708   3.028  0.2851 -0.1702 -0.3650
 1743SOL     OW 7016   0.928   1.978   3.117 -0.3793 -0.2135  0.2483
 1743SOL    HW2 7017   0.923   1.965   3.212  0.9345 -0.3595  0.3101
 1743SOL    HW3 7018   0.911   1.891   3.080 -0.6725 -0.2029  0.3582
 1743SOL    MW4 7019   0.925   1.965   3.125 -0.2447 -0.2314  0.2711
 1744SOL     OW 7020   1.158   2.088   3.020  0.0137 -0.0326  0.0693
 1744SOL    HW2 7021   1.071   2.066   3.053  0.2450 -0.5117  0.3621
 1744SOL    HW3 7022   1.147   2.092   2.925 -0.5834  1.0315  0.1697
 1744SOL    MW4 7023   1.145   2.086   3.012 -0.0346  0.0446  0.1214
 1745SOL     OW 7024   1.159   2.319   3.174  0.0182  0.0288 -0.4823
 1745SOL    HW2 7025   1.079   2.365   3.150 -0.9416 -0.6877  1.2474
 1745SOL    HW3 7026   1.166   2.247   3.111 -1.7364 -1.0311  0.5072
 1745SOL    MW4 7027   1.150   2.316   3.163 -0.3399 -0.2053 -0.1233
 1746SOL     OW 7028   0.945   2.442   3.024 -0.0921  0.0353 -0.1200
 1746SOL    HW2 7029   0.855   2.417   3.047 -1.0032  2.5058 -0.7751
 1746SOL    HW3 7030   0.945   2.445   2.928  0.6785  0.0403 -0.1172
 1746SOL    MW4 7031   0.933   2.439   3.014 -0.1107  0.3619 -0.2058
 1747SOL     OW 7032   0.910   2.707   3.112 -0.4806 -0.4646  0.0322
 1747SOL    HW2 7033   0.924   2.709   3.207 -0.1335  0.0217 -0.0293
 1747SOL    HW3 7034   0.935   2.618   3.086  0.7714 -0.1587  0.1868
 1747SOL    MW4 7035   0.915   2.695   3.121 -0.2697 -0.3600  0.0443
 1748SOL     OW 7036   1.107   2.885   3.020 -0.3214 -0.0836 -0.4326
 1748SOL    HW2 7037   1.120   2.965   3.071 -1.0420  0.8761 -1.7066
 1748SOL    HW3 7038   1.026   2.848   3.053  0.1133 -0.3960  0.2946
 1748SOL    MW4 7039   1.098   2.891   3.031 -0.3591  0.0019 -0.5047
 1749SOL     OW 7040   1.122   3.133   3.148 -0.0869 -0.3040 -0.2689
 1749SOL    HW2 7041   1.192   3.165   3.092 -0.1911 -0.2560 -0.3732
 1749SOL    HW3 7042   1.042   3.170   3.111 -0.2196 -0.7588 -0.4446
 1749SOL    MW4 7043   1.121   3.142   3.136 -0.1181 -0.3579 -0.3059
 1750SOL     OW 7044   0.899   3.256   3.046 -0.0336 -0.1423  0.7441
 1750SOL    HW2 7045   0.817   3.207   3.053  0.0526 -0.3984  0.0226
 1750SOL    HW3 7046   0.921   3.252   2.953  0.9040 -0.2589  0.9706
 1750SOL    MW4 7047   0.891   3.249   3.034  0.1014 -0.1919  0.6788
 1751SOL     OW 7048   0.856   3.525   3.173 -0.9528 -0.1833  0.0356
 1751SOL    HW2 7049   0.941   3.558   3.144 -1.5256  0.2234 -1.1995
 1751SOL    HW3 7050   0.862   3.430   3.161  0.2076 -0.4422  2.3203
 1751SOL    MW4 7051   0.868   3.517   3.167 -0.8753 -0.1638  0.1743
 1752SOL     OW 7052   1.085   3.650   3.048  0.6513  0.2477  0.4116
 1752SOL    HW2 7053   1.153   3.592   3.082  0.3170  0.0064  0.6793
 1752SOL    HW3 7054   1.108   3.737   3.082  0.1577 -0.0467  1.4953
 1752SOL    MW4 7055   1.097   3.654   3.057  0.5420  0.1769  0.5896
 1753SOL     OW 7056   1.174   3.905   3.126 -0.1837  0.0568  0.3473
 1753SOL    HW2 7057   1.165   3.919   3.220  0.4993 -0.0484  0.4318
 1753SOL    HW3 7058   1.095   3.942   3.088 -0.2549  0.4993  0.9244
 1753SOL    MW4 7059   1.163   3.912   3.133 -0.1031  0.1013  0.4349
 1754SOL     OW 7060   0.935   4.029   3.045  0.0447  0.0597 -0.0365
 1754SOL    HW2 7061   0.855   3.982   3.067  0.3630 -1.0594 -1.2365
 1754SOL    HW3 7062   0.938   4.029   2.949  0.3698  1.9982 -0.0657
 1754SOL    MW4 7063   0.925   4.023   3.035  0.1295  0.1678 -0.1986
 1755SOL     OW 7064   0.911   4.270   3.168  0.8025 -0.1418 -0.1822
 1755SOL    HW2 7065   0.914   4.186   3.124 -1.3883 -0.5931  0.4594
 1755SOL    HW3 7066   0.830   4.311   3.136  0.6721  0.7379  1.2229
 1755SOL    MW4 7067   0.901   4.265   3.158  0.4963 -0.0849  0.0875
 1756SOL     OW 7068   1.112   4.425   3.017  0.2057 -0.0107  0.0395
 1756SOL    HW2 7069   1.046   4.376   3.066 -0.8138 -0.3339 -1.6029
 1756SOL    HW3 7070   1.102   4.515   3.045 -0.9795 -0.0560 -0.2126
 1756SOL    MW4 7071   1.102   4.430   3.027 -0.0854 -0.0596 -0.2105
 1757SOL     OW 7072   1.571   4.638   3.100 -0.2272  0.3619  0.0094
 1757SOL    HW2 7073   1.577   4.645   3.195 -1.7472 -1.1518  0.2398
 1757SOL    HW3 7074   1.485   4.674   3.078 -0.2689 -0.1629 -0.7022
 1757SOL    MW4 7075   1.560   4.644   3.109 -0.4332  0.0930 -0.0544
 1758SOL     OW 7076   1.329   0.118   3.043 -0.3500 -0.1767  0.1024
 1758SOL    HW2 7077   1.350   0.210   3.062  0.1101 -0.4079  0.7029
 1758SOL    HW3 7078   1.338   0.111   2.948 -0.7093  0.4841  0.0114
 1758SOL    MW4 7079   1.333   0.129   3.033 -0.3366 -0.1200  0.1698
 1759SOL     OW 7080   1.357   0.386   3.092  0.1392 -0.3465 -0.0019
 1759SOL    HW2 7081   1.355   0.394   3.187 -3.0712  1.7199 -0.1536
 1759SOL    HW3 7082   1.441   0.424   3.066 -0.1409  1.6090  1.8426
 1759SOL    MW4 7083   1.368   0.392   3.101 -0.3214  0.1841  0.2215
 1760SOL     OW 7084   1.600   0.509   3.013 -0.4443  0.3477  0.1385
 1760SOL    HW2 7085   1.611   0.598   3.047 -0.7092  1.0323 -1.4916
 1760SOL    HW3 7086   1.576   0.522   2.921 -1.7142 -1.3828  0.2010
 1760SOL    MW4 7087   1.598   0.522   3.005 -0.6467  0.2096 -0.0684
 1761SOL     OW 7088   1.602   0.772   3.097  0.2206  0.4858  0.3500
 1761SOL    HW2 7089   1.604   0.769   3.193  0.0719  1.7046  0.3985
 1761SOL    HW3 7090   1.517   0.810   3.076  0.0390 -0.2591 -0.2892
 1761SOL    MW4 7091   1.591   0.776   3.107  0.1771  0.5483  0.2723
 1762SOL     OW 7092   1.340   0.896   3.024 -0.5452 -0.1769 -0.7297
 1762SOL    HW2 7093   1.324   0.986   3.053  0.5404  0.2715 -1.5014
 1762SOL    HW3 7094   1.257   0.851   3.040 -0.8766  0.7780  0.3270
 1762SOL    MW4 7095   1.327   0.902   3.030 -0.4457  0.0082 -0.6924
 1763SOL     OW 7096   1.327   1.179   3.092 -0.2862 -0.7774  0.3967
 1763SOL    HW2 7097   1.335   1.170   3.187  0.0615  0.0183  0.4442
 1763SOL    HW3 7098   1.412   1.212   3.064 -0.6131 -0.3589 -0.1077
 1763SOL    MW4 7099   1.339   1.182   3.101 -0.2834 -0.6173  0.3364
 1764SOL     OW 7100   1.561   1.285   3.017 -0.3719  0.7091 -0.1323
 1764SOL    HW2 7101   1.641   1.254   3.060 -0.9898 -0.9679 -0.1477
 1764SOL    HW3 7102   1.550   1.374   3.048  1.4554  0.9217 -0.0507
 1764SOL    MW4 7103   1.570   1.292   3.026 -0.2124  0.5159 -0.1237
 1765SOL     OW 7104   1.532   1.540   3.109 -0.2824 -0.3393  0.3842
 1765SOL    HW2 7105   1.596   1.602   3.073  0.7453 -1.1247  0.8585
 1765SOL    HW3 7106   1.447   1.583   3.094  0.3068  0.4774 -0.6979
 1765SOL    MW4 7107   1.529   1.554   3.102 -0.0689 -0.3351  0.3040
 1766SOL     OW 7108   1.306   1.673   3.011  0.1894 -0.2778 -0.1152
 1766SOL    HW2 7109   1.306   1.766   3.033 -0.1629 -0.2981 -0.0259
 1766SOL    HW3 7110   1.330   1.670   2.919 -1.3310  0.0088 -0.5343
 1766SOL    MW4 7111   1.309   1.685   3.002 -0.0576 -0.2428 -0.1590
 1767SOL     OW 7112   1.346   1.923   3.108  0.1347  0.2513 -0.0472
 1767SOL    HW2 7113   1.358   1.947   3.200 -0.8927 -0.2127  0.2211
 1767SOL    HW3 7114   1.271   1.975   3.080 -0.7302 -1.0053 -0.0802
 1767SOL    MW4 7115   1.338   1.933   3.117 -0.1150  0.0243 -0.0162
 1768SOL     OW 7116   1.572   2.068   3.008  0.0136  0.2744  0.2213
 1768SOL    HW2 7117   1.494   2.019   3.037  0.8980 -0.8488  0.7532
 1768SOL    HW3 7118   1.567   2.065   2.912 -1.5884  1.8310  0.2285
 1768SOL    MW4 7119   1.561   2.061   2.999 -0.0811  0.3316  0.2925
 1769SOL     OW 7120   1.550   2.334   3.112  0.6593 -0.0763  0.3283
 1769SOL    HW2 7121   1.473   2.385   3.088  0.8451  0.8110  1.5564
 1769SOL    HW3 7122   1.534   2.247   3.076  0.3748  0.8465 -1.9181
 1769SOL    MW4 7123   1.538   2.330   3.104  0.6464  0.1624  0.1941
 1770SOL     OW 7124   1.337   2.473   3.032 -0.1267  0.1759 -0.3584
 1770SOL    HW2 7125   1.263   2.423   3.067  1.0944 -1.9038 -0.6428
 1770SOL    HW3 7126   1.336   2.454   2.938  0.6296  0.3390 -0.3965
 1770SOL    MW4 7127   1.327   2.464   3.024  0.1342 -0.0770 -0.4008
 1771SOL     OW 7128   1.322   2.731   3.112  0.1364 -0.0279 -0.2421
 1771SOL    HW2 7129   1.319   2.645   3.070 -2.3516 -0.2293  0.3143
 1771SOL    HW3 7130   1.243   2.776   3.082  0.4625  1.3909  0.9313
 1771SOL    MW4 7131   1.311   2.726   3.102 -0.1488  0.1328 -0.0138
 1772SOL     OW 7132   1.556   2.796   2.971 -0.1059  0.2247  0.4605
 1772SOL    HW2 7133   1.635   2.764   3.015 -0.4588  0.3131  1.1671
 1772SOL    HW3 7134   1.484   2.759   3.021 -0.5227 -0.6487 -0.7629
 1772SOL    MW4 7135   1.557   2.787   2.983 -0.2074  0.1209  0.3922
 1773SOL     OW 7136   1.560   3.059   3.104  0.1177  0.3546 -0.2674
 1773SOL    HW2 7137   1.541   3.058   3.198 -1.0878  1.2667 -0.4796
 1773SOL    HW3 7138   1.549   2.968   3.076  0.3006  0.1148  0.4453
 1773SOL    MW4 7139   1.556   3.047   3.113 -0.0173  0.4432 -0.2015
 1774SOL     OW 7140   1.350   3.221   3.034  0.2211 -0.3568 -0.0679
 1774SOL    HW2 7141   1.423   3.168   3.066  0.9203  1.3923  1.2956
 1774SOL    HW3 7142   1.370   3.235   2.941  1.0860 -0.7255  0.0557
 1774SOL    MW4 7143   1.362   3.216   3.026  0.4275 -0.1748  0.1285
 1775SOL     OW 7144   1.331   3.497   3.112  0.4755 -0.2821 -0.3479
 1775SOL    HW2 7145   1.316   3.492   3.206  0.8091  0.1420 -0.2718
 1775SOL    HW3 7146   1.333   3.405   3.083 -0.4586 -0.3968 -0.0800
 1775SOL    MW4 7147   1.329   3.484   3.121  0.3963 -0.2413 -0.3026
 1776SOL     OW 7148   1.576   3.601   3.017 -0.0344  0.4133  0.2981
 1776SOL    HW2 7149   1.489   3.576   3.049 -0.2045 -0.2964 -0.6979
 1776SOL    HW3 7150   1.572   3.587   2.922  1.7536 -1.3793  0.4653
 1776SOL    MW4 7151   1.564   3.596   3.009  0.1792  0.0832  0.1891
 1777SOL     OW 7152   1.591   3.873   3.089 -0.2842 -0.6309 -0.3391
 1777SOL    HW2 7153   1.663   3.906   3.035 -0.8210  1.1440 -0.0349
 1777SOL    HW3 7154   1.582   3.781   3.065  0.8150 -0.3793 -1.7898
 1777SOL    MW4 7155   1.599   3.866   3.079 -0.2099 -0.3636 -0.4904
 1778SOL     OW 7156   1.387   4.021   2.989  0.1508  0.5622 -0.0571
 1778SOL    HW2 7157   1.469   3.981   3.019 -0.4997 -2.2633 -1.9130
 1778SOL    HW3 7158   1.318   3.969   3.031 -0.7104 -0.0093 -2.1347
 1778SOL    MW4 7159   1.389   4.009   2.998 -0.0486  0.1140 -0.5760
 1779SOL     OW 7160   1.350   4.288   3.080  0.2944 -0.4239 -0.0387
 1779SOL    HW2 7161   1.345   4.197   3.050  0.1662 -1.0407  1.8020
 1779SOL    HW3 7162   1.268   4.327   3.049 -0.2483 -1.2925  0.2810
 1779SOL    MW4 7163   1.338   4.281   3.072  0.2059 -0.6208  0.2463
 1780SOL     OW 7164   1.595   4.381   2.987 -0.3969  0.0375 -0.4587
 1780SOL    HW2 7165   1.512   4.344   3.018 -0.2755  0.3824  0.2972
 1780SOL    HW3 7166   1.589   4.474   3.011 -0.2049  0.2648 -1.2821
 1780SOL    MW4 7167   1.583   4.389   2.994 -0.3556  0.1130 -0.4675
 1781SOL     OW 7168   2.006   4.639   3.110 -0.2049 -0.3784  0.3333
 1781SOL    HW2 7169   2.018   4.633   3.205 -0.1328  0.3057  0.3649
 1781SOL    HW3 7170   1.933   4.699   3.098  1.7972  2.0308 -0.1328
 1781SOL    MW4 7171   1.998   4.646   3.121  0.0689  0.0296  0.2761
 1782SOL     OW 7172   1.786   0.140   3.062  0.8876 -0.5416 -0.2850
 1782SOL    HW2 7173   1.701   0.105   3.088  0.2261  0.5740 -0.9155
 1782SOL    HW3 7174   1.785   0.134   2.966  1.4730 -0.4007 -0.2988
 1782SOL    MW4 7175   1.775   0.134   3.053  0.8775 -0.3758 -0.3698
 1783SOL     OW 7176   1.783   0.393   3.160 -0.1644 -0.1507 -0.1482
 1783SOL    HW2 7177   1.801   0.306   3.126 -0.4256  0.0740 -0.8716
 1783SOL    HW3 7178   1.712   0.426   3.104 -0.0329  0.5383  0.0930
 1783SOL    MW4 7179   1.776   0.386   3.148 -0.1816 -0.0302 -0.2115
 1784SOL     OW 7180   2.022   0.531   3.090  0.1044  0.1572  0.6897
 1784SOL    HW2 7181   1.941   0.489   3.119  0.6026 -1.4344 -0.1231
 1784SOL    HW3 7182   2.030   0.507   2.998  1.0472  1.0344  0.5315
 1784SOL    MW4 7183   2.012   0.522   3.082  0.2947  0.0629  0.5612
 1785SOL     OW 7184   2.046   0.799   3.142 -0.2145 -0.5688  0.5407
 1785SOL    HW2 7185   1.977   0.832   3.085 -0.2235 -1.0390  0.2728
 1785SOL    HW3 7186   2.042   0.704   3.131 -1.3395 -0.8052  2.6097
 1785SOL    MW4 7187   2.036   0.791   3.133 -0.3641 -0.6620  0.7782
 1786SOL     OW 7188   1.824   0.905   3.014 -0.5029 -0.1925  0.2109
 1786SOL    HW2 7189   1.748   0.854   3.041 -0.2972 -1.1897 -1.0325
 1786SOL    HW3 7190   1.818   0.908   2.918  0.2547  0.9157  0.1908
 1786SOL    MW4 7191   1.813   0.899   3.005 -0.3759 -0.1779  0.0441
 1787SOL     OW 7192   1.796   1.160   3.136  0.2187  0.3214 -0.1738
 1787SOL    HW2 7193   1.761   1.153   3.225 -0.0954 -1.6273 -0.4160
 1787SOL    HW3 7194   1.805   1.069   3.108  0.4772  0.9279 -2.0714
 1787SOL    MW4 7195   1.793   1.147   3.144  0.2112  0.1444 -0.4561
 1788SOL     OW 7196   2.009   1.275   2.993 -0.6054 -0.0521  0.1922
 1788SOL    HW2 7197   2.086   1.231   3.028 -0.1178  0.2740 -0.4573
 1788SOL    HW3 7198   1.935   1.234   3.038 -0.1410 -1.3232 -0.1883
 1788SOL    MW4 7199   2.009   1.264   3.003 -0.4799 -0.1768  0.0565
 1789SOL     OW 7200   2.008   1.538   3.081 -0.1828  0.3995 -0.0200
 1789SOL    HW2 7201   1.983   1.546   3.173  2.0338  0.0560  0.6548
 1789SOL    HW3 7202   2.015   1.444   3.066 -0.4444  0.4592 -0.5116
 1789SOL    MW4 7203   2.006   1.527   3.091  0.0749  0.3619  0.0041
 1790SOL     OW 7204   1.762   1.669   3.003  0.1974  0.4839 -0.2312
 1790SOL    HW2 7205   1.782   1.755   3.038  0.8649  1.1943 -2.2512
 1790SOL    HW3 7206   1.832   1.613   3.035  0.8046  1.1197 -0.4345
 1790SOL    MW4 7207   1.774   1.673   3.012  0.3656  0.6614 -0.5245
 1791SOL     OW 7208   1.793   1.932   3.117 -0.1193  0.0446  0.2260
 1791SOL    HW2 7209   1.861   1.970   3.060 -0.6491 -0.1368 -0.5361
 1791SOL    HW3 7210   1.711   1.970   3.085 -0.2922  1.0891  1.8291
 1791SOL    MW4 7211   1.792   1.942   3.105 -0.2118  0.1584  0.3369
 1792SOL     OW 7212   2.007   2.050   2.987  0.4082  0.2938 -0.3467
 1792SOL    HW2 7213   2.076   2.000   3.031 -1.3464 -1.4078  0.5354
 1792SOL    HW3 7214   2.016   2.139   3.022  2.5733  0.2613 -0.7593
 1792SOL    MW4 7215   2.017   2.055   2.998  0.4623  0.0648 -0.2847
 1793SOL     OW 7216   2.039   2.323   3.065 -0.2435  0.0932 -0.0891
 1793SOL    HW2 7217   2.102   2.388   3.034  0.6401 -0.2011  1.0486
 1793SOL    HW3 7218   1.954   2.364   3.053  0.0940  0.1860 -2.4128
 1793SOL    MW4 7219   2.036   2.337   3.059 -0.0825  0.0668 -0.2458
 1794SOL     OW 7220   1.791   2.436   2.995  0.6223  0.5122  0.1843
 1794SOL    HW2 7221   1.790   2.522   3.036 -0.5760  1.6542 -2.1554
 1794SOL    HW3 7222   1.707   2.396   3.020  0.2715  0.8625 -0.4225
 1794SOL    MW4 7223   1.780   2.442   3.004  0.4181  0.7093 -0.2043
 1795SOL     OW 7224   1.774   2.674   3.092 -0.2404  0.2182  0.5665
 1795SOL    HW2 7225   1.767   2.669   3.187  1.4021 -2.3095  0.5830
 1795SOL    HW3 7226   1.837   2.745   3.076  0.4754 -0.2350  1.3872
 1795SOL    MW4 7227   1.782   2.683   3.103  0.0707 -0.1752  0.6766
 1796SOL     OW 7228   1.958   2.854   2.988 -0.6600  0.5425  0.9159
 1796SOL    HW2 7229   1.984   2.943   3.013  2.4472 -0.1983  0.5230
 1796SOL    HW3 7230   1.987   2.845   2.897 -1.0551 -0.8319  0.9147
 1796SOL    MW4 7231   1.965   2.865   2.980 -0.3022  0.2635  0.8643
 1797SOL     OW 7232   2.024   3.102   3.093  0.6209 -0.0107 -0.1910
 1797SOL    HW2 7233   2.007   3.090   3.186  2.2063  0.3945  0.1664
 1797SOL    HW3 7234   1.943   3.140   3.058 -0.4813 -1.4917  0.7383
 1797SOL    MW4 7235   2.011   3.106   3.100  0.6845 -0.1526 -0.0215
 1798SOL     OW 7236   1.778   3.207   2.993 -0.2147  0.0068 -0.2622
 1798SOL    HW2 7237   1.701   3.158   3.022 -1.0695  0.9678 -0.9051
 1798SOL    HW3 7238   1.772   3.208   2.898  0.8130 -0.2560 -0.3383
 1798SOL    MW4 7239   1.767   3.201   2.984 -0.1919  0.0989 -0.3572
 1799SOL     OW 7240   1.802   3.475   3.094  0.3092 -0.3255  0.8755
 1799SOL    HW2 7241   1.782   3.386   3.064 -1.4966  0.0691  0.8712
 1799SOL    HW3 7242   1.724   3.526   3.071  0.8140  0.9848  2.0379
 1799SOL    MW4 7243   1.789   3.470   3.087  0.1376 -0.1004  1.0281
 1800SOL     OW 7244   2.039   3.604   3.006  0.0572  0.4655 -0.2613
 1800SOL    HW2 7245   2.042   3.689   3.050  0.1828 -0.0226  0.6898
 1800SOL    HW3 7246   1.961   3.561   3.043  0.1159  0.0847 -0.5764
 1800SOL    MW4 7247   2.029   3.609   3.017  0.0815  0.3507 -0.1774
 1801SOL     OW 7248   2.039   3.841   3.148 -0.0935 -0.1801 -0.2982
 1801SOL    HW2 7249   2.025   3.866   3.239  0.2928  1.5741 -0.7196
 1801SOL    HW3 7250   1.977   3.894   3.099  2.1527  1.4746 -1.3923
 1801SOL    MW4 7251   2.029   3.851   3.154  0.2539  0.2697 -0.4978
 1802SOL     OW 7252   1.849   3.976   3.009  0.3681 -0.4535  0.0963
 1802SOL    HW2 7253   1.832   4.058   3.055  2.3588 -0.3015  0.5912
 1802SOL    HW3 7254   1.830   3.995   2.917 -1.2406 -0.0617  0.4983
 1802SOL    MW4 7255   1.844   3.989   3.003  0.4185 -0.3817  0.2151
 1803SOL     OW 7256   1.802   4.233   3.082 -0.1338  0.3543  0.0185
 1803SOL    HW2 7257   1.876   4.283   3.046 -0.0703 -1.1771 -2.0319
 1803SOL    HW3 7258   1.726   4.288   3.063  0.1532  0.6176 -0.3966
 1803SOL    MW4 7259   1.802   4.247   3.075 -0.0876  0.1874 -0.3071
 1804SOL     OW 7260   2.039   4.380   3.023  0.4014  0.0646 -0.0545
 1804SOL    HW2 7261   2.025   4.473   3.044  0.6202  0.0372  0.2108
 1804SOL    HW3 7262   2.049   4.379   2.928  0.6404  0.3468 -0.0348
 1804SOL    MW4 7263   2.038   4.392   3.013  0.4618  0.0978 -0.0169
 1805SOL     OW 7264   2.485   0.005   3.130  0.0702  0.0044  0.0653
 1805SOL    HW2 7265   2.470  -0.088   3.114 -0.4271  0.0151  0.4726
 1805SOL    HW3 7266   2.404   0.048   3.102  0.8367  0.4678 -1.4909
 1805SOL    MW4 7267   2.472  -0.001   3.124  0.1056  0.0669 -0.0861
 1806SOL     OW 7268   2.243   0.096   3.026 -0.0663 -0.2184 -0.2581
 1806SOL    HW2 7269   2.247   0.182   3.068 -0.2512 -0.3824  0.1062
 1806SOL    HW3 7270   2.163   0.057   3.061  1.2214 -1.4653  1.3744
 1806SOL    MW4 7271   2.233   0.102   3.036  0.0796 -0.4046  0.0052
 1807SOL     OW 7272   2.253   0.380   3.109 -0.4253  0.5442 -0.0146
 1807SOL    HW2 7273   2.267   0.367   3.202  0.8258 -1.4455 -0.4564
 1807SOL    HW3 7274   2.169   0.426   3.103 -0.4725  0.7462  2.0748
 1807SOL    MW4 7275   2.244   0.385   3.120 -0.2663  0.3083  0.2031
 1808SOL     OW 7276   2.479   0.487   3.008  0.2138 -0.3108 -0.3913
 1808SOL    HW2 7277   2.403   0.447   3.050 -0.5001 -0.6364 -1.9473
 1808SOL    HW3 7278   2.460   0.481   2.914  0.4901  2.8730 -0.6996
 1808SOL    MW4 7279   2.466   0.481   3.001  0.1559  0.0663 -0.6373
 1809SOL     OW 7280   2.450   0.745   3.146 -0.1411 -0.0737 -0.1690
 1809SOL    HW2 7281   2.524   0.791   3.105 -0.4505 -0.0539 -0.7156
 1809SOL    HW3 7282   2.443   0.663   3.097 -0.4605 -0.0864 -0.1029
 1809SOL    MW4 7283   2.459   0.741   3.134 -0.2241 -0.0728 -0.2325
 1810SOL     OW 7284   2.254   0.881   3.002  0.1634 -0.2921  0.3529
 1810SOL    HW2 7285   2.318   0.833   3.054 -0.1262 -1.6255 -0.4826
 1810SOL    HW3 7286   2.170   0.860   3.043 -0.1791 -2.2269 -1.2583
 1810SOL    MW4 7287   2.251   0.872   3.014  0.0799 -0.7232  0.0303
 1811SOL     OW 7288   2.239   1.150   3.084 -0.3019  0.4820 -0.1157
 1811SOL    HW2 7289   2.248   1.151   3.180  2.2283  0.7116 -0.3055
 1811SOL    HW3 7290   2.247   1.058   3.060  2.5099  0.7469 -0.3335
 1811SOL    MW4 7291   2.241   1.138   3.094  0.4029  0.5473 -0.1693
 1812SOL     OW 7292   2.476   1.315   2.990  0.0590  0.2834  0.1606
 1812SOL    HW2 7293   2.392   1.272   3.005 -0.1890  0.3790 -0.9282
 1812SOL    HW3 7294   2.493   1.302   2.897  0.5935  1.4375  0.0911
 1812SOL    MW4 7295   2.467   1.307   2.980  0.0968  0.4482  0.0079
 1813SOL     OW 7296   2.493   1.571   3.104 -0.3527 -0.0420 -0.2497
 1813SOL    HW2 7297   2.407   1.609   3.086 -0.8172 -1.3817 -0.9653
 1813SOL    HW3 7298   2.487   1.481   3.071  1.7018  0.2017 -1.4435
 1813SOL    MW4 7299   2.481   1.564   3.097 -0.1428 -0.1864 -0.5016
 1814SOL     OW 7300   2.241   1.655   3.011 -0.5093 -0.1952 -0.3791
 1814SOL    HW2 7301   2.165   1.599   3.024  1.2625 -2.4677  0.7215
 1814SOL    HW3 7302   2.249   1.665   2.916 -1.3202 -1.1560 -0.5495
 1814SOL    MW4 7303   2.232   1.649   3.001 -0.3822 -0.6217 -0.2563
 1815SOL     OW 7304   2.245   1.929   3.101  0.0261  0.0400 -0.2033
 1815SOL    HW2 7305   2.328   1.963   3.066 -0.3320 -0.7222 -1.8375
 1815SOL    HW3 7306   2.248   1.836   3.082 -0.6967 -0.1981  0.8124
 1815SOL    MW4 7307   2.257   1.921   3.094 -0.1166 -0.0920 -0.2851
 1816SOL     OW 7308   2.450   2.054   2.983  0.6105  0.2755 -0.1465
 1816SOL    HW2 7309   2.528   2.020   3.028 -0.1905 -1.3529  0.0581
 1816SOL    HW3 7310   2.470   2.045   2.890  0.7388  0.0188 -0.0948
 1816SOL    MW4 7311   2.463   2.048   2.977  0.5219  0.0267 -0.1125
 1817SOL     OW 7312   2.433   2.330   3.105  0.4212  0.0759  0.1512
 1817SOL    HW2 7313   2.440   2.316   3.199 -1.1557 -1.6411  0.0431
 1817SOL    HW3 7314   2.433   2.241   3.067 -1.7282  0.6137 -1.2209
 1817SOL    MW4 7315   2.434   2.316   3.112 -0.0703 -0.0794 -0.0441
 1818SOL     OW 7316   2.232   2.482   2.963  0.3228  0.3661 -0.1783
 1818SOL    HW2 7317   2.218   2.564   3.012 -0.8110  0.0388  0.0573
 1818SOL    HW3 7318   2.307   2.441   3.007 -0.8686 -0.0690  1.5187
 1818SOL    MW4 7319   2.240   2.488   2.976  0.0162  0.2654  0.0768
 1819SOL     OW 7320   2.175   2.742   3.093  0.1100  0.1279 -0.0315
 1819SOL    HW2 7321   2.253   2.790   3.063 -0.5133  0.6798 -0.8133
 1819SOL    HW3 7322   2.101   2.791   3.056 -0.5881 -0.7360  0.1949
 1819SOL    MW4 7323   2.176   2.755   3.084 -0.0644  0.0868 -0.1047
 1820SOL     OW 7324   2.436   2.806   3.011 -0.1471 -0.3675 -0.0001
 1820SOL    HW2 7325   2.472   2.887   3.047 -0.3313  0.9819 -2.7154
 1820SOL    HW3 7326   2.434   2.821   2.916 -1.2136 -3.1400 -0.4578
 1820SOL    MW4 7327   2.440   2.819   3.003 -0.3121 -0.5550 -0.4189
 1821SOL     OW 7328   2.463   3.079   3.105  0.1401 -0.0427  0.0629
 1821SOL    HW2 7329   2.538   3.125   3.067  0.2651 -0.5209 -0.2717
 1821SOL    HW3 7330   2.386   3.128   3.073  0.3536  1.5876  1.9094
 1821SOL    MW4 7331   2.463   3.092   3.096  0.1848  0.1092  0.2625
 1822SOL     OW 7332   2.244   3.226   3.011 -0.3749 -0.4958  0.4775
 1822SOL    HW2 7333   2.240   3.312   3.054 -1.2432  0.3195 -1.1901
 1822SOL    HW3 7334   2.165   3.181   3.040 -0.1207 -0.5969  1.0330
 1822SOL    MW4 7335   2.233   3.232   3.021 -0.4559 -0.4015  0.3307
 1823SOL     OW 7336   2.270   3.493   3.150  0.3729 -0.4454 -0.0199
 1823SOL    HW2 7337   2.319   3.568   3.116 -0.9515  0.1022 -0.7501
 1823SOL    HW3 7338   2.184   3.500   3.109  0.2374 -2.3697 -0.1083
 1823SOL    MW4 7339   2.265   3.503   3.140  0.1802 -0.6270 -0.1278
 1824SOL     OW 7340   2.489   3.668   3.002 -0.0723 -0.3529  0.4551
 1824SOL    HW2 7341   2.567   3.617   3.026  1.2218  2.1836  1.9378
 1824SOL    HW3 7342   2.488   3.740   3.065 -2.1557  1.1319 -1.2084
 1824SOL    MW4 7343   2.500   3.671   3.014 -0.1764  0.1776  0.4313
 1825SOL     OW 7344   2.475   3.892   3.161 -0.3452 -0.0882 -0.2433
 1825SOL    HW2 7345   2.469   3.888   3.256  0.6256 -2.0468 -0.2527
 1825SOL    HW3 7346   2.550   3.948   3.143 -1.7683  2.0146  0.0822
 1825SOL    MW4 7347   2.484   3.899   3.171 -0.4051 -0.0694 -0.2017
 1826SOL     OW 7348   2.246   3.978   3.019  0.7371  0.4793 -0.0985
 1826SOL    HW2 7349   2.327   3.955   3.064  1.4855  2.5757 -0.3417
 1826SOL    HW3 7350   2.183   3.912   3.049  2.4390 -1.0260  0.2794
 1826SOL    MW4 7351   2.248   3.966   3.029  1.0602  0.5574 -0.0806
 1827SOL     OW 7352   2.259   4.242   3.126  0.2076 -0.0716 -0.1148
 1827SOL    HW2 7353   2.255   4.150   3.098  0.3050 -0.3023  0.6320
 1827SOL    HW3 7354   2.178   4.281   3.092 -0.9375 -0.9731  1.4837
 1827SOL    MW4 7355   2.248   4.235   3.118  0.0694 -0.2203  0.1945
 1828SOL     OW 7356   2.467   4.402   3.079  0.2126 -0.2850 -0.1309
 1828SOL    HW2 7357   2.388   4.350   3.088 -0.8932  1.2936 -0.4261
 1828SOL    HW3 7358   2.479   4.412   2.984  0.5799 -0.2636 -0.0827
 1828SOL    MW4 7359   2.458   4.397   3.067  0.1152 -0.0739 -0.1638
 1829SOL     OW 7360   2.948   0.005   3.145 -0.0088  0.3052 -0.2100
 1829SOL    HW2 7361   3.016   0.062   3.108  1.7262 -0.7315  1.3177
 1829SOL    HW3 7362   2.951  -0.074   3.091 -0.6030  0.5869 -0.6671
 1829SOL    MW4 7363   2.957   0.002   3.133  0.1419  0.2056 -0.0687
 1830SOL     OW 7364   2.730   0.124   3.029 -0.3641 -0.2942 -0.7962
 1830SOL    HW2 7365   2.807   0.092   3.075 -0.3416  0.7362 -0.1191
 1830SOL    HW3 7366   2.657   0.073   3.065 -0.5871  1.6434  1.5887
 1830SOL    MW4 7367   2.730   0.113   3.040 -0.3905  0.0974 -0.3922
 1831SOL     OW 7368   2.713   0.386   3.120 -0.2007 -0.5716  0.2492
 1831SOL    HW2 7369   2.724   0.297   3.085  1.6730  0.1454 -1.0166
 1831SOL    HW3 7370   2.629   0.415   3.085 -0.0207 -1.2166 -0.7204
 1831SOL    MW4 7371   2.703   0.378   3.111  0.0699 -0.5621 -0.0455
 1832SOL     OW 7372   2.927   0.534   3.016 -0.0108 -0.0061 -0.2560
 1832SOL    HW2 7373   2.850   0.487   3.048 -0.3361  0.3320 -0.5479
 1832SOL    HW3 7374   2.928   0.518   2.922  0.7046 -0.6343 -0.1565
 1832SOL    MW4 7375   2.917   0.525   3.008  0.0405 -0.0443 -0.2811
 1833SOL     OW 7376   2.919   0.775   3.110  0.3023 -0.2303  0.2874
 1833SOL    HW2 7377   2.905   0.775   3.205 -0.3242 -1.0335  0.2059
 1833SOL    HW3 7378   2.936   0.683   3.089  0.0514 -0.1099 -0.4376
 1833SOL    MW4 7379   2.920   0.763   3.120  0.1864 -0.3203  0.1810
 1834SOL     OW 7380   2.669   0.888   3.033  0.1277  0.3184  0.2341
 1834SOL    HW2 7381   2.683   0.973   3.076 -1.3436  0.4532  0.4631
 1834SOL    HW3 7382   2.751   0.840   3.047  0.6870  1.4116  0.7572
 1834SOL    MW4 7383   2.682   0.893   3.040  0.0074  0.4804  0.3335
 1835SOL     OW 7384   2.687   1.161   3.101 -0.6143 -0.3943  0.3931
 1835SOL    HW2 7385   2.773   1.198   3.078 -0.4723  0.3542  2.0276
 1835SOL    HW3 7386   2.624   1.218   3.058 -0.3326  0.4585  1.0888
 1835SOL    MW4 7387   2.690   1.173   3.093 -0.5586 -0.1830  0.7007
 1836SOL     OW 7388   2.938   1.295   3.034  0.1213  0.0874 -0.1986
 1836SOL    HW2 7389   3.017   1.257   3.074  0.3437  0.3452 -0.3909
 1836SOL    HW3 7390   2.942   1.388   3.056 -0.2984  0.0454  0.0637
 1836SOL    MW4 7391   2.949   1.302   3.042  0.0954  0.1159 -0.1891
 1837SOL     OW 7392   2.906   1.569   3.108 -0.1695 -0.3391 -0.1708
 1837SOL    HW2 7393   2.899   1.552   3.202 -0.6359 -2.2898 -0.5335
 1837SOL    HW3 7394   2.997   1.596   3.096 -0.0275 -0.3413  0.8077
 1837SOL    MW4 7395   2.917   1.570   3.119 -0.2124 -0.5968 -0.0896
 1838SOL     OW 7396   2.690   1.680   2.965  0.2050  0.1250 -0.0671
 1838SOL    HW2 7397   2.770   1.650   3.007  0.0207 -0.9641 -0.4823
 1838SOL    HW3 7398   2.619   1.643   3.019 -0.0269  1.1891  0.3768
 1838SOL    MW4 7399   2.691   1.671   2.978  0.1500  0.1216 -0.0634
 1839SOL     OW 7400   2.693   1.936   3.090 -0.1185 -0.5659  0.0079
 1839SOL    HW2 7401   2.764   1.979   3.043 -0.4579 -1.4205 -1.3468
 1839SOL    HW3 7402   2.698   1.845   3.062 -0.1979 -1.1591  1.8447
 1839SOL    MW4 7403   2.703   1.930   3.080 -0.1738 -0.7570  0.0715
 1840SOL     OW 7404   2.928   2.046   2.967  0.4549  0.4521  0.3552
 1840SOL    HW2 7405   2.948   2.132   3.003 -0.6529  1.5252 -1.5074
 1840SOL    HW3 7406   2.924   2.060   2.872 -1.3915 -1.2876  0.1308
 1840SOL    MW4 7407   2.930   2.059   2.959  0.0651  0.3641  0.0799
 1841SOL     OW 7408   2.922   2.288   3.093 -0.8694 -0.0955  0.2181
 1841SOL    HW2 7409   2.979   2.360   3.068  0.3193 -0.3366  2.1300
 1841SOL    HW3 7410   2.835   2.316   3.064 -0.1201  1.1936 -0.8627
 1841SOL    MW4 7411   2.918   2.301   3.086 -0.6137  0.0427  0.3278
 1842SOL     OW 7412   2.678   2.418   2.976 -0.3656 -0.3012  0.3444
 1842SOL    HW2 7413   2.693   2.504   3.014 -1.2569  0.5097 -1.0703
 1842SOL    HW3 7414   2.601   2.384   3.021  0.0671 -0.4195  0.9963
 1842SOL    MW4 7415   2.670   2.425   2.987 -0.4261 -0.2098  0.2434
 1843SOL     OW 7416   2.672   2.666   3.117  0.6827  0.2274  0.0192
 1843SOL    HW2 7417   2.691   2.665   3.211 -0.1290 -0.4871  0.1788
 1843SOL    HW3 7418   2.589   2.713   3.110  0.5463 -0.0641 -0.3073
 1843SOL    MW4 7419   2.663   2.672   3.129  0.5577  0.0947 -0.0031
 1844SOL     OW 7420   2.858   2.844   3.006  0.1161 -0.3352  0.1686
 1844SOL    HW2 7421   2.946   2.814   3.028  0.2299  0.4986  0.8717
 1844SOL    HW3 7422   2.799   2.782   3.050  0.3440 -0.2010  0.6568
 1844SOL    MW4 7423   2.862   2.832   3.015  0.1614 -0.2074  0.3259
 1845SOL     OW 7424   2.874   3.101   3.119 -0.1133 -0.1125  0.0308
 1845SOL    HW2 7425   2.807   3.154   3.075 -1.5671 -0.4679  1.7180
 1845SOL    HW3 7426   2.869   3.016   3.077 -1.7142 -0.5471  1.0735
 1845SOL    MW4 7427   2.864   3.097   3.108 -0.5162 -0.2165  0.3908
 1846SOL     OW 7428   2.667   3.249   3.005  0.3824  0.0547 -0.2740
 1846SOL    HW2 7429   2.674   3.338   3.039  3.2275  0.4461 -1.6708
 1846SOL    HW3 7430   2.700   3.256   2.915 -1.6078 -1.9716 -1.1932
 1846SOL    MW4 7431   2.672   3.262   2.997  0.4952 -0.1607 -0.5796
 1847SOL     OW 7432   2.690   3.504   3.104 -0.3440  0.0587 -0.2648
 1847SOL    HW2 7433   2.685   3.492   3.198 -1.9564  0.9544 -0.2030
 1847SOL    HW3 7434   2.774   3.548   3.089 -0.2193  0.1900  0.7861
 1847SOL    MW4 7435   2.700   3.508   3.114 -0.5400  0.1945 -0.1180
 1848SOL     OW 7436   2.917   3.630   3.026  0.1104  0.3816 -0.3250
 1848SOL    HW2 7437   2.997   3.586   3.055  0.0293  1.4227  1.5629
 1848SOL    HW3 7438   2.922   3.717   3.067 -1.4331  0.8641 -1.1329
 1848SOL    MW4 7439   2.928   3.636   3.035 -0.1040  0.5827 -0.1826
 1849SOL     OW 7440   2.920   3.882   3.121 -0.1504 -0.7641  0.1750
 1849SOL    HW2 7441   2.917   3.871   3.216  0.2809 -1.4094  0.1206
 1849SOL    HW3 7442   2.856   3.950   3.103 -0.4739 -0.8650  0.8980
 1849SOL    MW4 7443   2.911   3.889   3.131 -0.1364 -0.8626  0.2632
 1850SOL     OW 7444   2.688   4.031   3.065 -0.4206  0.0024  0.3398
 1850SOL    HW2 7445   2.688   4.122   3.093 -1.7609 -0.0368  0.4823
 1850SOL    HW3 7446   2.692   4.035   2.969  1.6022  0.1662  0.3996
 1850SOL    MW4 7447   2.689   4.043   3.056 -0.3304  0.0191  0.3664
 1851SOL     OW 7448   2.708   4.284   3.155  0.2099  0.3253 -0.1539
 1851SOL    HW2 7449   2.720   4.301   3.249  0.2899 -1.4122  0.1615
 1851SOL    HW3 7450   2.622   4.320   3.135  0.1523  0.6183  0.6106
 1851SOL    MW4 7451   2.699   4.291   3.165  0.2127  0.1345 -0.0114
 1852SOL     OW 7452   2.934   4.435   3.024  0.8689 -0.7498 -0.1096
 1852SOL    HW2 7453   3.008   4.386   3.061 -0.2988 -1.3719  1.4734
 1852SOL    HW3 7454   2.857   4.383   3.048 -0.2733  1.0820  0.2786
 1852SOL    MW4 7455   2.934   4.421   3.032  0.5643 -0.5898  0.1507
 1853SOL     OW 7456   3.335   0.016   3.093  0.5853  0.3545  0.1160
 1853SOL    HW2 7457   3.422   0.052   3.076  0.4688  0.1324 -0.9498
 1853SOL    HW3 7458   3.341  -0.075   3.063  0.4152 -0.0808  1.3803
 1853SOL    MW4 7459   3.348   0.009   3.087  0.5474  0.2675  0.1423
 1854SOL     OW 7460   3.120   0.169   2.984  0.1721 -0.0060 -0.1287
 1854SOL    HW2 7461   3.117   0.252   3.032 -0.9245 -1.1805  1.8932
 1854SOL    HW3 7462   3.185   0.117   3.030  0.5844 -0.4107 -1.1646
 1854SOL    MW4 7463   3.128   0.173   2.997  0.0818 -0.2144  0.0017
 1855SOL     OW 7464   3.127   0.402   3.148  0.5101  0.1831 -0.3384
 1855SOL    HW2 7465   3.196   0.461   3.118 -0.0393  0.4713 -1.0412
 1855SOL    HW3 7466   3.046   0.442   3.118 -0.2946  1.9612  3.9952
 1855SOL    MW4 7467   3.125   0.415   3.140  0.3314  0.4556  0.1407
 1856SOL     OW 7468   3.354   0.556   3.044  0.3249 -0.1594 -0.2415
 1856SOL    HW2 7469   3.421   0.493   3.070 -0.4692 -1.8577 -2.2220
 1856SOL    HW3 7470   3.333   0.534   2.954 -2.5939  0.6049  0.1859
 1856SOL    MW4 7471   3.360   0.545   3.036 -0.1650 -0.2826 -0.4466
 1857SOL     OW 7472   3.378   0.823   3.095  0.0098 -0.0646 -0.2686
 1857SOL    HW2 7473   3.367   0.821   3.190 -1.2373  0.0775 -0.3982
 1857SOL    HW3 7474   3.371   0.732   3.069 -1.8513  0.1172 -0.4462
 1857SOL    MW4 7475   3.376   0.811   3.104 -0.4001 -0.0219 -0.3090
 1858SOL     OW 7476   3.145   0.927   3.002  0.1604  0.0372 -0.1015
 1858SOL    HW2 7477   3.222   0.876   3.027 -0.9082 -2.1647 -1.1538
 1858SOL    HW3 7478   3.071   0.878   3.040 -0.8429  1.2496 -0.4521
 1858SOL    MW4 7479   3.145   0.914   3.010 -0.1130 -0.0933 -0.2863
 1859SOL     OW 7480   3.169   1.176   3.125  0.1964 -0.7055  0.4997
 1859SOL    HW2 7481   3.259   1.201   3.103  0.4808 -0.4137  1.9432
 1859SOL    HW3 7482   3.159   1.089   3.085  1.1828 -0.8291  0.4882
 1859SOL    MW4 7483   3.180   1.167   3.117  0.3641 -0.6833  0.6886
 1860SOL     OW 7484   3.424   1.243   3.036  0.3374 -0.0874 -0.3204
 1860SOL    HW2 7485   3.505   1.212   3.076  1.0455  0.8632 -0.9706
 1860SOL    HW3 7486   3.420   1.336   3.059 -0.4766 -0.0900 -0.4399
 1860SOL    MW4 7487   3.434   1.251   3.044  0.3235  0.0377 -0.4220
 1861SOL     OW 7488   3.412   1.518   3.119  0.1627  0.1270 -0.4472
 1861SOL    HW2 7489   3.414   1.537   3.213  0.7790  0.4945 -0.5374
 1861SOL    HW3 7490   3.472   1.580   3.080  0.3648 -0.4227 -1.0230
 1861SOL    MW4 7491   3.420   1.528   3.126  0.2706  0.1030 -0.5350
 1862SOL     OW 7492   3.180   1.609   3.016 -0.2663 -0.3710 -0.0996
 1862SOL    HW2 7493   3.253   1.558   3.051  1.5884  2.8270  0.9849
 1862SOL    HW3 7494   3.200   1.619   2.923  0.4803  0.0787  0.0969
 1862SOL    MW4 7495   3.192   1.604   3.008  0.0770  0.1103  0.0694
 1863SOL     OW 7496   3.127   1.895   3.113  0.1625 -0.2929  0.1890
 1863SOL    HW2 7497   3.145   1.805   3.088  0.3112 -0.4092  0.7134
 1863SOL    HW3 7498   3.044   1.916   3.069 -0.7123 -1.2091  1.3792
 1863SOL    MW4 7499   3.118   1.886   3.104  0.0665 -0.4293  0.4153
 1864SOL     OW 7500   3.352   2.056   3.018  0.0383  0.4754 -0.6591
 1864SOL    HW2 7501   3.419   2.010   3.068  0.1288  1.3614  0.0522
 1864SOL    HW3 7502   3.270   2.011   3.040  0.3166 -0.2239 -1.0565
 1864SOL    MW4 7503   3.350   2.044   3.028  0.0870  0.5002 -0.6177
 1865SOL     OW 7504   3.329   2.324   3.103  0.1668  0.2803  0.4735
 1865SOL    HW2 7505   3.313   2.322   3.197 -2.0032 -1.8569  0.1180
 1865SOL    HW3 7506   3.329   2.232   3.077  0.3903  0.8605 -1.6799
 1865SOL    MW4 7507   3.327   2.311   3.112 -0.0901  0.0746  0.1426
 1866SOL     OW 7508   3.120   2.470   3.002  0.5547 -0.2353 -0.3572
 1866SOL    HW2 7509   3.193   2.422   3.041 -0.6144 -2.6139 -1.0154
 1866SOL    HW3 7510   3.130   2.458   2.908 -0.4113 -0.1508 -0.4736
 1866SOL    MW4 7511   3.131   2.462   2.995  0.2728 -0.5379 -0.4594
 1867SOL     OW 7512   3.112   2.732   3.113  0.3741 -0.2247  0.0778
 1867SOL    HW2 7513   3.112   2.717   3.207  1.7647 -2.0089 -0.1779
 1867SOL    HW3 7514   3.123   2.645   3.075  0.5798  0.5589 -1.7161
 1867SOL    MW4 7515   3.113   2.719   3.120  0.5846 -0.3567 -0.1924
 1868SOL     OW 7516   3.372   2.834   3.028 -0.0871  0.0861 -0.2064
 1868SOL    HW2 7517   3.409   2.906   3.079  0.9944 -0.1829 -0.5877
 1868SOL    HW3 7518   3.291   2.811   3.074  0.1382  0.7963  0.5615
 1868SOL    MW4 7519   3.367   2.841   3.041  0.0854  0.1447 -0.1554
 1869SOL     OW 7520   3.374   3.091   3.152  0.0018  0.0736  0.2625
 1869SOL    HW2 7521   3.382   3.099   3.247 -1.3527  0.5045  0.3400
 1869SOL    HW3 7522   3.298   3.144   3.129 -0.5575 -1.2059 -0.8930
 1869SOL    MW4 7523   3.365   3.099   3.162 -0.2506 -0.0386  0.1204
 1870SOL     OW 7524   3.155   3.249   3.060  0.4374 -0.0298 -0.1485
 1870SOL    HW2 7525   3.069   3.213   3.081 -0.9313  2.7675 -0.7333
 1870SOL    HW3 7526   3.155   3.257   2.965  0.7025  1.4848 -0.0292
 1870SOL    MW4 7527   3.144   3.245   3.050  0.2918  0.5391 -0.2100
 1871SOL     OW 7528   3.146   3.524   3.122  0.0001 -0.3569  1.0626
 1871SOL    HW2 7529   3.228   3.551   3.081 -1.1962 -0.5938 -1.5988
 1871SOL    HW3 7530   3.136   3.432   3.097 -1.7445  0.0534  0.1625
 1871SOL    MW4 7531   3.155   3.515   3.114 -0.3879 -0.3338  0.5925
 1872SOL     OW 7532   3.368   3.622   3.011 -0.3918  0.0959  0.5290
 1872SOL    HW2 7533   3.425   3.556   3.052  0.8809  0.3281 -0.8379
 1872SOL    HW3 7534   3.379   3.699   3.066 -1.8536 -0.7908  2.1141
 1872SOL    MW4 7535   3.377   3.623   3.024 -0.4168  0.0098  0.5577
 1873SOL     OW 7536   3.367   3.881   3.108  0.2241  0.0755 -0.4528
 1873SOL    HW2 7537   3.362   3.891   3.203 -0.1247  0.1791 -0.4824
 1873SOL    HW3 7538   3.290   3.927   3.075 -0.2953 -0.9607 -0.7077
 1873SOL    MW4 7539   3.357   3.888   3.116  0.1097 -0.0472 -0.4907
 1874SOL     OW 7540   3.139   4.032   3.019 -0.8120  0.4288  0.2156
 1874SOL    HW2 7541   3.076   3.960   3.027 -2.0088  1.2874 -1.0600
 1874SOL    HW3 7542   3.151   4.042   2.925  2.4601 -0.7271  0.4745
 1874SOL    MW4 7543   3.132   4.024   3.008 -0.5381  0.3891  0.0815
 1875SOL     OW 7544   3.143   4.296   3.118 -0.0389  0.4612 -0.0737
 1875SOL    HW2 7545   3.146   4.300   3.213 -0.3706  0.5200 -0.0651
 1875SOL    HW3 7546   3.138   4.202   3.098 -0.3256  0.4663 -0.0236
 1875SOL    MW4 7547   3.143   4.284   3.128 -0.1206  0.4692 -0.0658
 1876SOL     OW 7548   3.365   4.409   3.008  0.1664  0.2640 -0.3235
 1876SOL    HW2 7549   3.446   4.370   3.040  0.1774 -0.7757 -1.5759
 1876SOL    HW3 7550   3.296   4.354   3.043  0.0177  0.9035  0.3967
 1876SOL    MW4 7551   3.367   4.397   3.017  0.1483  0.2112 -0.3939
 1877SOL     OW 7552   3.829   0.042   3.096  0.0341  0.0205 -0.1684
 1877SOL    HW2 7553   3.834  -0.052   3.082 -2.5792 -0.2922  0.7788
 1877SOL    HW3 7554   3.740   0.066   3.070  0.3744  2.0769  0.4487
 1877SOL    MW4 7555   3.818   0.033   3.091 -0.2658  0.2506  0.0379
 1878SOL     OW 7556   3.581   0.128   3.031  0.4742 -0.4997  0.4079
 1878SOL    HW2 7557   3.575   0.217   3.068  0.3354  0.0732 -0.9700
 1878SOL    HW3 7558   3.591   0.142   2.937 -0.8322 -1.9893  0.0309
 1878SOL    MW4 7559   3.582   0.142   3.024  0.2837 -0.6206  0.1764
 1879SOL     OW 7560   3.544   0.387   3.140  0.5403  0.0224  0.2065
 1879SOL    HW2 7561   3.548   0.403   3.235  0.0734 -0.4624  0.3098
 1879SOL    HW3 7562   3.626   0.423   3.106  0.9880 -0.3633  0.8753
 1879SOL    MW4 7563   3.555   0.394   3.148  0.5374 -0.0925  0.3083
 1880SOL     OW 7564   3.791   0.504   3.024 -0.1554 -0.0341  0.0828
 1880SOL    HW2 7565   3.863   0.449   3.056 -0.0124 -0.5585 -1.0925
 1880SOL    HW3 7566   3.803   0.588   3.068  0.1064 -0.6919  1.2821
 1880SOL    MW4 7567   3.802   0.508   3.034 -0.1020 -0.1901  0.0861
 1881SOL     OW 7568   3.819   0.753   3.106 -0.4891 -0.9895 -0.2149
 1881SOL    HW2 7569   3.816   0.748   3.201 -1.7052 -1.9589 -0.2949
 1881SOL    HW3 7570   3.894   0.811   3.087 -0.9815  0.1899  1.3446
 1881SOL    MW4 7571   3.829   0.760   3.116 -0.7145 -0.9618 -0.0196
 1882SOL     OW 7572   3.609   0.939   3.010  0.6406 -0.2794 -0.3451
 1882SOL    HW2 7573   3.677   0.879   3.041 -0.1612 -0.4028  1.2024
 1882SOL    HW3 7574   3.527   0.901   3.040  0.0581  1.1712 -0.0425
 1882SOL    MW4 7575   3.607   0.926   3.018  0.4582 -0.1042 -0.1009
 1883SOL     OW 7576   3.659   1.153   3.158  0.2914 -0.2171 -0.0233
 1883SOL    HW2 7577   3.727   1.199   3.108  0.9312 -0.0287  1.0196
 1883SOL    HW3 7578   3.650   1.069   3.113  1.6004 -0.4631  0.1464
 1883SOL    MW4 7579   3.667   1.148   3.145  0.5484 -0.2246  0.1369
 1884SOL     OW 7580   3.850   1.296   3.028  0.5457 -0.2940  0.4790
 1884SOL    HW2 7581   3.831   1.382   3.064 -0.8512 -0.2914 -0.2523
 1884SOL    HW3 7582   3.833   1.305   2.934  0.6754 -1.2867  0.3552
 1884SOL    MW4 7583   3.845   1.308   3.020  0.3784 -0.4246  0.3660
 1885SOL     OW 7584   3.810   1.544   3.146 -0.5986 -0.3883  0.1458
 1885SOL    HW2 7585   3.813   1.544   3.242  1.4076  1.8161  0.1301
 1885SOL    HW3 7586   3.732   1.595   3.124  0.3077  1.2368  0.6291
 1885SOL    MW4 7587   3.800   1.551   3.156 -0.2143  0.1171  0.2074
 1886SOL     OW 7588   3.603   1.693   3.027  0.1657  0.3844 -0.0705
 1886SOL    HW2 7589   3.585   1.780   3.061 -0.2149  0.2443  0.0967
 1886SOL    HW3 7590   3.606   1.704   2.932 -0.0069  0.5554 -0.0550
 1886SOL    MW4 7591   3.601   1.706   3.018  0.0925  0.3884 -0.0463
 1887SOL     OW 7592   3.570   1.934   3.153 -0.4729  0.1917  0.1015
 1887SOL    HW2 7593   3.597   1.920   3.244  0.9082  0.1619 -0.3049
 1887SOL    HW3 7594   3.645   1.977   3.112 -1.0268  0.0582 -1.0675
 1887SOL    MW4 7595   3.584   1.938   3.160 -0.3638  0.1701 -0.1063
 1888SOL     OW 7596   3.807   2.025   3.025  0.5892  0.1910  0.1549
 1888SOL    HW2 7597   3.797   2.118   3.044 -2.1178 -0.3001  1.3826
 1888SOL    HW3 7598   3.822   2.022   2.931 -0.8852  1.7991 -0.1638
 1888SOL    MW4 7599   3.807   2.037   3.015  0.0377  0.3383  0.2747
 1889SOL     OW 7600   3.800   2.294   3.124 -0.4260  0.1285 -0.6959
 1889SOL    HW2 7601   3.800   2.291   3.219 -0.2274  1.6089 -0.6264
 1889SOL    HW3 7602   3.713   2.326   3.101 -0.9378 -1.4981 -1.0837
 1889SOL    MW4 7603   3.789   2.298   3.133 -0.4673  0.1092 -0.7377
 1890SOL     OW 7604   3.593   2.416   2.985  0.1123 -0.0677  0.4022
 1890SOL    HW2 7605   3.605   2.499   3.031 -0.0399  0.2746 -0.1776
 1890SOL    HW3 7606   3.509   2.383   3.018 -0.0793  0.2588  0.2432
 1890SOL    MW4 7607   3.583   2.423   2.996  0.0670  0.0205  0.3047
 1891SOL     OW 7608   3.589   2.671   3.100 -0.2314  0.1377  0.1536
 1891SOL    HW2 7609   3.662   2.732   3.104  0.6671 -0.9336  0.4303
 1891SOL    HW3 7610   3.515   2.724   3.073  0.4723  1.4003  0.6386
 1891SOL    MW4 7611   3.589   2.686   3.097 -0.0200  0.1628  0.2542
 1892SOL     OW 7612   3.806   2.835   3.054 -0.0538 -0.4927 -0.3140
 1892SOL    HW2 7613   3.820   2.927   3.075  0.2322 -0.5165 -0.3913
 1892SOL    HW3 7614   3.814   2.830   2.959  0.7849 -0.7300 -0.2415
 1892SOL    MW4 7615   3.809   2.846   3.044  0.0944 -0.5271 -0.3145
 1893SOL     OW 7616   3.841   3.086   3.173 -0.4370  0.1211  0.1207
 1893SOL    HW2 7617   3.913   3.134   3.131 -0.2975 -0.9013 -0.7950
 1893SOL    HW3 7618   3.762   3.120   3.132 -0.5773  1.8816  1.7347
 1893SOL    MW4 7619   3.840   3.097   3.162 -0.4373  0.2184  0.2127
 1894SOL     OW 7620   3.616   3.208   3.053 -0.2019 -0.0027  0.1477
 1894SOL    HW2 7621   3.530   3.171   3.072 -0.0498 -0.1727  0.5241
 1894SOL    HW3 7622   3.622   3.207   2.957  0.0403 -1.5484  0.1622
 1894SOL    MW4 7623   3.606   3.203   3.043 -0.1497 -0.2291  0.1996
 1895SOL     OW 7624   3.575   3.467   3.133 -0.3615 -0.1416  0.3903
 1895SOL    HW2 7625   3.651   3.503   3.088 -0.3505 -0.6850 -0.0406
 1895SOL    HW3 7626   3.586   3.372   3.127 -0.7612 -0.2226  0.8607
 1895SOL    MW4 7627   3.587   3.459   3.126 -0.4127 -0.2241  0.3955
 1896SOL     OW 7628   3.828   3.617   3.062  0.4165  0.4467  0.0166
 1896SOL    HW2 7629   3.818   3.707   3.095 -2.2201  0.4358 -0.6777
 1896SOL    HW3 7630   3.833   3.627   2.967 -1.5111 -0.2639 -0.1677
 1896SOL    MW4 7631   3.828   3.631   3.054 -0.1860  0.3514 -0.0992
 1897SOL     OW 7632   3.816   3.880   3.136 -0.1535 -0.0812  0.1742
 1897SOL    HW2 7633   3.810   3.871   3.231 -0.4347 -2.1035  0.0065
 1897SOL    HW3 7634   3.742   3.936   3.112 -1.6838 -1.7274  0.9090
 1897SOL    MW4 7635   3.806   3.886   3.146 -0.3922 -0.5651  0.2489
 1898SOL     OW 7636   3.588   4.009   3.016 -0.0860  0.2138 -0.7160
 1898SOL    HW2 7637   3.512   3.956   3.038  0.5088 -0.5218 -0.3957
 1898SOL    HW3 7638   3.597   4.000   2.921  0.2631 -0.6144 -0.6081
 1898SOL    MW4 7639   3.579   4.001   3.006  0.0389  0.0076 -0.6595
 1899SOL     OW 7640   3.599   4.277   3.084  0.1221  0.4237  0.2292
 1899SOL    HW2 7641   3.679   4.315   3.049  0.9264 -0.0720  1.4791
 1899SOL    HW3 7642   3.601   4.186   3.056  0.2878  0.2680  0.7327
 1899SOL    MW4 7643   3.609   4.270   3.076  0.2499  0.3376  0.4606
 1900SOL     OW 7644   3.849   4.425   3.029 -0.4800 -0.3807 -0.1127
 1900SOL    HW2 7645   3.920   4.371   3.064 -0.2711  0.1164  0.2477
 1900SOL    HW3 7646   3.865   4.428   2.934  0.6247  0.6357  0.0979
 1900SOL    MW4 7647   3.861   4.419   3.021 -0.3066 -0.1812 -0.0372
 1901SOL     OW 7648   4.260   4.665   3.132 -0.0289 -0.6552  0.4027
 1901SOL    HW2 7649   4.262   4.688   3.225  1.0396  1.2480 -0.0716
 1901SOL    HW3 7650   4.269   4.569   3.131  0.1474 -0.6793  2.2389
 1901SOL    MW4 7651   4.261   4.655   3.145  0.1349 -0.4077  0.5825
 1902SOL     OW 7652   4.058   0.154   3.000 -0.0688  0.0500  0.1057
 1902SOL    HW2 7653   4.123   0.093   3.036  0.3558 -0.0613 -0.8478
 1902SOL    HW3 7654   3.975   0.121   3.033  0.1434 -1.1529 -0.5251
 1902SOL    MW4 7655   4.056   0.141   3.009  0.0157 -0.1234 -0.1035
 1903SOL     OW 7656   4.017   0.380   3.139  0.4252  0.5337 -0.1942
 1903SOL    HW2 7657   4.090   0.440   3.127  0.2288  0.5448 -1.3586
 1903SOL    HW3 7658   4.038   0.305   3.084  1.5172 -1.2720  2.5489
 1903SOL    MW4 7659   4.029   0.378   3.130  0.5436  0.2970  0.0138
 1904SOL     OW 7660   4.240   0.522   3.062  0.1074  0.2599 -0.2501
 1904SOL    HW2 7661   4.231   0.612   3.092 -1.5679 -0.0520  0.2606
 1904SOL    HW3 7662   4.228   0.526   2.968 -1.8265  0.3568 -0.0202
 1904SOL    MW4 7663   4.238   0.534   3.054 -0.3681  0.2316 -0.1523
 1905SOL     OW 7664   4.256   0.781   3.149 -0.3368  0.1522 -0.2947
 1905SOL    HW2 7665   4.179   0.829   3.117 -0.8247 -0.4202 -0.0039
 1905SOL    HW3 7666   4.330   0.822   3.106 -0.9739 -0.5336 -2.1086
 1905SOL    MW4 7667   4.256   0.793   3.139 -0.4849 -0.0138 -0.4957
 1906SOL     OW 7668   4.042   0.913   3.050 -0.3308 -0.2808  0.2859
 1906SOL    HW2 7669   4.054   1.000   3.088 -1.6664 -0.1197  0.3733
 1906SOL    HW3 7670   4.053   0.927   2.956 -0.0465 -0.1120  0.3425
 1906SOL    MW4 7671   4.045   0.926   3.043 -0.4692 -0.2373  0.3052
 1907SOL     OW 7672   4.079   1.173   3.140  0.5904  0.5194 -0.1997
 1907SOL    HW2 7673   4.068   1.188   3.234  0.9065 -0.4088 -0.0178
 1907SOL    HW3 7674   3.998   1.208   3.102 -0.1703 -0.3854  0.5498
 1907SOL    MW4 7675   4.067   1.180   3.148  0.5312  0.2776 -0.0768
 1908SOL     OW 7676   4.295   1.298   3.027  0.1787 -0.5978 -0.2474
 1908SOL    HW2 7677   4.221   1.251   3.066 -0.8979  1.4257  0.2201
 1908SOL    HW3 7678   4.286   1.284   2.933 -0.3900 -0.9680 -0.1382
 1908SOL    MW4 7679   4.284   1.290   3.020 -0.0386 -0.3797 -0.1714
 1909SOL     OW 7680   4.265   1.545   3.173 -0.2207  0.1314 -0.1043
 1909SOL    HW2 7681   4.190   1.586   3.131 -1.3040 -0.1612  1.4822
 1909SOL    HW3 7682   4.283   1.468   3.120 -0.6402  0.5514 -0.8645
 1909SOL    MW4 7683   4.258   1.540   3.161 -0.4187  0.1482  0.0045
 1910SOL     OW 7684   4.043   1.673   3.058 -0.6577 -0.3195  0.3622
 1910SOL    HW2 7685   4.040   1.757   3.104 -2.0126 -0.2895  0.2540
 1910SOL    HW3 7686   3.958   1.633   3.077 -1.7549  0.2236 -3.1510
 1910SOL    MW4 7687   4.031   1.679   3.067 -0.9809 -0.2439 -0.1156
 1911SOL     OW 7688   4.037   1.932   3.167  0.0938 -0.1820  0.4770
 1911SOL    HW2 7689   4.099   1.986   3.119  0.3194 -0.6645  0.2241
 1911SOL    HW3 7690   3.951   1.958   3.133  0.2217 -0.1828  0.1519
 1911SOL    MW4 7691   4.034   1.943   3.156  0.1402 -0.2458  0.4008
 1912SOL     OW 7692   4.245   2.072   3.035 -0.6637  0.3251  0.2733
 1912SOL    HW2 7693   4.232   2.158   3.075 -0.6280  0.6687 -0.4596
 1912SOL    HW3 7694   4.241   2.088   2.941  0.5826 -0.2890  0.1112
 1912SOL    MW4 7695   4.242   2.086   3.028 -0.4950  0.2892  0.1550
 1913SOL     OW 7696   4.240   2.327   3.149 -0.0019 -0.1949 -0.3986
 1913SOL    HW2 7697   4.158   2.358   3.109  0.1570  0.1882 -0.4287
 1913SOL    HW3 7698   4.309   2.367   3.097  0.2068 -0.0673 -0.0257
 1913SOL    MW4 7699   4.238   2.336   3.137  0.0467 -0.1273 -0.3536
 1914SOL     OW 7700   4.025   2.429   3.012 -0.0343  0.2257 -0.2482
 1914SOL    HW2 7701   4.027   2.513   3.057  1.0636  0.1546 -0.1459
 1914SOL    HW3 7702   3.952   2.382   3.052  1.6724 -0.3108  2.3790
 1914SOL    MW4 7703   4.016   2.434   3.023  0.3357  0.1457  0.1121
 1915SOL     OW 7704   4.004   2.669   3.169 -0.1058  0.1249 -0.1860
 1915SOL    HW2 7705   4.016   2.678   3.264  0.4558 -0.5466 -0.1846
 1915SOL    HW3 7706   3.947   2.742   3.145  1.7612  1.7745  0.2729
 1915SOL    MW4 7707   3.998   2.680   3.178  0.2151  0.2539 -0.1252
 1916SOL     OW 7708   4.215   2.792   3.039 -0.2126 -0.1890  0.0765
 1916SOL    HW2 7709   4.150   2.745   3.090 -0.4448 -0.3630 -0.3749
 1916SOL    HW3 7710   4.299   2.763   3.075 -0.3988  1.0672  1.5559
 1916SOL    MW4 7711   4.218   2.782   3.051 -0.2680 -0.0463  0.2122
 1917SOL     OW 7712   4.267   3.061   3.099 -0.2353 -0.3230 -0.3165
 1917SOL    HW2 7713   4.188   3.115   3.089 -0.3914 -0.1196  1.8011
 1917SOL    HW3 7714   4.240   2.974   3.068 -1.4895 -0.3960  0.9044
 1917SOL    MW4 7715   4.253   3.057   3.093 -0.4210 -0.3057  0.1242
 1918SOL     OW 7716   4.046   3.213   3.037 -0.0964 -0.0095 -0.6300
 1918SOL    HW2 7717   4.079   3.296   3.071  0.1698 -0.2795 -0.2098
 1918SOL    HW3 7718   4.037   3.227   2.943 -1.1327  0.8435 -0.4035
 1918SOL    MW4 7719   4.049   3.226   3.030 -0.1984  0.0675 -0.5450
 1919SOL     OW 7720   4.072   3.481   3.125  0.2017  0.0367  0.4559
 1919SOL    HW2 7721   4.090   3.479   3.219 -0.8751  0.9424  0.6956
 1919SOL    HW3 7722   3.988   3.527   3.118  0.4125  0.2167 -0.9679
 1919SOL    MW4 7723   4.063   3.487   3.136  0.0873  0.1802  0.2995
 1920SOL     OW 7724   4.273   3.623   2.977  0.1140  0.4728 -0.2582
 1920SOL    HW2 7725   4.262   3.705   3.025  0.9759 -0.9392  2.4378
 1920SOL    HW3 7726   4.198   3.570   3.002 -1.8180  1.3026 -3.9800
 1920SOL    MW4 7727   4.262   3.627   2.986 -0.0272  0.3960 -0.3934
 1921SOL     OW 7728   4.278   3.859   3.136  0.0032  0.5673 -0.3182
 1921SOL    HW2 7729   4.210   3.911   3.093  0.2415 -0.3238 -1.8236
 1921SOL    HW3 7730   4.358   3.910   3.122 -0.2019  1.1615  0.6474
 1921SOL    MW4 7731   4.279   3.873   3.128  0.0076  0.5281 -0.3891
 1922SOL     OW 7732   4.047   3.974   3.026  0.3063 -0.0867 -0.9941
 1922SOL    HW2 7733   4.035   4.058   3.069  1.9592 -0.7904  0.9286
 1922SOL    HW3 7734   3.977   3.919   3.062  0.6789 -0.2008 -0.4320
 1922SOL    MW4 7735   4.036   3.978   3.037  0.5736 -0.1948 -0.6661
 1923SOL     OW 7736   4.032   4.236   3.131 -0.0732  0.4286  0.2718
 1923SOL    HW2 7737   4.022   4.260   3.223 -2.3252  0.7886 -0.0404
 1923SOL    HW3 7738   4.111   4.282   3.102 -0.4116  1.8170  1.5332
 1923SOL    MW4 7739   4.041   4.245   3.139 -0.4153  0.6599  0.3972
 1924SOL     OW 7740   4.275   4.392   3.065  0.1745 -0.0409  0.2754
 1924SOL    HW2 7741   4.356   4.346   3.089  0.1409 -0.2732 -0.0586
 1924SOL    HW3 7742   4.288   4.418   2.974  0.8687  2.0609  0.9601
 1924SOL    MW4 7743   4.288   4.389   3.056  0.2618  0.2060  0.3216
 1925SOL     OW 7744   0.182   4.659   3.407  0.2494  0.2056 -0.4174
 1925SOL    HW2 7745   0.268   4.687   3.437 -0.6638  2.1177  0.5345
 1925SOL    HW3 7746   0.177   4.566   3.431  2.2034 -0.0400 -0.8986
 1925SOL    MW4 7747   0.192   4.650   3.415  0.3868  0.4258 -0.3555
 1926SOL     OW 7748   4.486   0.115   3.551  0.0956 -0.0718 -0.1918
 1926SOL    HW2 7749   4.478   0.194   3.498  2.0601  0.5892  0.4412
 1926SOL    HW3 7750   4.566   0.072   3.519  0.0926 -0.8039  0.7418
 1926SOL    MW4 7751   4.496   0.119   3.540  0.3538 -0.0812  0.0148
 1927SOL     OW 7752   4.468   0.352   3.415  0.4022 -0.3404 -0.3193
 1927SOL    HW2 7753   4.405   0.400   3.469  0.3282 -1.0903  0.2673
 1927SOL    HW3 7754   4.552   0.397   3.431  0.3414 -0.4251  0.2479
 1927SOL    MW4 7755   4.471   0.365   3.424  0.3848 -0.4505 -0.1669
 1928SOL     OW 7756   0.227   0.472   3.470 -0.1057  0.1767  0.3126
 1928SOL    HW2 7757   0.298   0.429   3.424 -0.1613 -1.0764  1.3569
 1928SOL    HW3 7758   0.227   0.562   3.437  1.3382 -0.0709 -0.3833
 1928SOL    MW4 7759   0.236   0.478   3.460  0.0775 -0.0213  0.3586
 1929SOL     OW 7760   0.232   0.733   3.406 -0.1116 -0.1631  0.0788
 1929SOL    HW2 7761   0.307   0.781   3.442  0.5395 -1.3415  0.3208
 1929SOL    HW3 7762   0.156   0.782   3.437  0.4634 -0.6491  2.3396
 1929SOL    MW4 7763   0.232   0.746   3.415  0.0502 -0.3827  0.4089
 1930SOL     OW 7764   0.023   0.885   3.485 -0.4432  0.6186 -0.1380
 1930SOL    HW2 7765   0.035   0.891   3.580  0.4690  0.9122 -0.2767
 1930SOL    HW3 7766   0.007   0.975   3.456 -1.1930  0.4720 -0.2073
 1930SOL    MW4 7767   0.022   0.897   3.494 -0.4218  0.6379 -0.1655
 1931SOL     OW 7768   4.465   1.153   3.429 -0.3766 -0.0498 -0.0299
 1931SOL    HW2 7769   4.544   1.189   3.470  0.1821 -0.9695 -0.2858
 1931SOL    HW3 7770   4.485   1.151   3.336 -0.5700 -0.5927 -0.0648
 1931SOL    MW4 7771   4.478   1.157   3.422 -0.3284 -0.2427 -0.0682
 1932SOL     OW 7772   0.192   1.300   3.542  0.0440 -0.1476  0.1641
 1932SOL    HW2 7773   0.267   1.252   3.509  1.6494  1.3751  1.4824
 1932SOL    HW3 7774   0.193   1.383   3.494 -0.0006  0.4268  1.1425
 1932SOL    MW4 7775   0.202   1.305   3.531  0.2499  0.1291  0.4668
 1933SOL     OW 7776   0.214   1.556   3.408 -0.0827  0.1360  0.2531
 1933SOL    HW2 7777   0.298   1.597   3.428 -0.0625 -0.0490  0.5552
 1933SOL    HW3 7778   0.215   1.546   3.313  1.2636 -2.0185  0.4529
 1933SOL    MW4 7779   0.226   1.560   3.398  0.0976 -0.1727  0.3195
 1934SOL     OW 7780   0.007   1.679   3.525 -0.1805  0.1363  0.1389
 1934SOL    HW2 7781  -0.072   1.645   3.483 -0.7888  0.7204  0.7841
 1934SOL    HW3 7782   0.079   1.644   3.473 -0.8718 -0.2082 -0.6042
 1934SOL    MW4 7783   0.006   1.670   3.513 -0.3520  0.1680  0.1259
 1935SOL     OW 7784   4.437   1.942   3.414 -0.3744 -0.4587  0.2737
 1935SOL    HW2 7785   4.455   1.865   3.468 -1.1336 -2.0989 -1.7147
 1935SOL    HW3 7786   4.445   1.910   3.324 -1.7214  1.5433 -0.5957
 1935SOL    MW4 7787   4.440   1.928   3.409 -0.6518 -0.4110 -0.1035
 1936SOL     OW 7788   0.208   2.057   3.441 -0.4381  0.3886  0.1217
 1936SOL    HW2 7789   0.214   2.058   3.537 -1.5235 -0.0754  0.2017
 1936SOL    HW3 7790   0.115   2.040   3.423 -0.0386 -0.6663 -1.0125
 1936SOL    MW4 7791   0.196   2.055   3.451 -0.5286  0.1881 -0.0174
 1937SOL     OW 7792   0.238   2.341   3.367  0.3134 -0.6665  0.0952
 1937SOL    HW2 7793   0.159   2.377   3.406  0.2304 -0.8816  0.1272
 1937SOL    HW3 7794   0.232   2.246   3.383  0.0614 -0.8069 -0.8303
 1937SOL    MW4 7795   0.227   2.333   3.374  0.2692 -0.7133 -0.0226
 1938SOL     OW 7796   0.003   2.453   3.478 -0.5732 -0.0893 -0.2611
 1938SOL    HW2 7797   0.016   2.446   3.572 -0.7500 -1.4987 -0.3345
 1938SOL    HW3 7798  -0.075   2.402   3.460  0.7772 -1.7871 -1.4779
 1938SOL    MW4 7799  -0.005   2.445   3.488 -0.4187 -0.4990 -0.4313
 1939SOL     OW 7800   4.478   2.743   3.403  0.3607  0.1486  0.2370
 1939SOL    HW2 7801   4.567   2.768   3.429  0.3360 -1.7107  2.2436
 1939SOL    HW3 7802   4.469   2.653   3.433 -2.8597  0.9084  1.7243
 1939SOL    MW4 7803   4.489   2.734   3.410 -0.0677  0.0033  0.6981
 1940SOL     OW 7804   0.218   2.862   3.475 -0.0063 -0.1605 -0.4892
 1940SOL    HW2 7805   0.291   2.812   3.439  0.3602  1.1192 -1.5251
 1940SOL    HW3 7806   0.228   2.950   3.440 -1.4706  0.2945  0.1724
 1940SOL    MW4 7807   0.229   2.867   3.465 -0.1512  0.0684 -0.5383
 1941SOL     OW 7808   0.223   3.138   3.411 -0.2745 -0.1606 -0.2293
 1941SOL    HW2 7809   0.147   3.176   3.456 -1.3127 -0.7781 -1.4246
 1941SOL    HW3 7810   0.201   3.145   3.318  1.7552  0.9161 -0.6553
 1941SOL    MW4 7811   0.210   3.144   3.405 -0.1437 -0.0999 -0.4432
 1942SOL     OW 7812   0.002   3.242   3.521  0.0637 -0.0672 -0.1639
 1942SOL    HW2 7813  -0.070   3.194   3.480 -1.8431  1.4686  1.2773
 1942SOL    HW3 7814   0.002   3.327   3.478  1.0636 -0.0795 -0.1949
 1942SOL    MW4 7815  -0.008   3.247   3.510 -0.0558  0.1335  0.0219
 1943SOL     OW 7816   4.491   3.508   3.427 -0.1155  0.5512 -0.6905
 1943SOL    HW2 7817   4.413   3.556   3.457  0.2444  0.9938 -0.4635
 1943SOL    HW3 7818   4.485   3.512   3.331 -0.6239  0.1722 -0.6794
 1943SOL    MW4 7819   4.480   3.515   3.418 -0.1349  0.5598 -0.6590
 1944SOL     OW 7820   0.235   3.626   3.507 -0.0002 -0.4216  0.1277
 1944SOL    HW2 7821   0.239   3.628   3.602 -1.5491  0.3867  0.1861
 1944SOL    HW3 7822   0.155   3.577   3.487  0.7410 -1.2976 -0.7720
 1944SOL    MW4 7823   0.225   3.620   3.517 -0.1068 -0.4306  0.0169
 1945SOL     OW 7824   0.232   3.894   3.422  0.2804 -0.1795  0.4235
 1945SOL    HW2 7825   0.152   3.920   3.468  0.0029 -0.4806  0.1070
 1945SOL    HW3 7826   0.242   3.801   3.442  0.8734 -0.0103  0.9485
 1945SOL    MW4 7827   0.223   3.885   3.431  0.3220 -0.1972  0.4511
 1946SOL     OW 7828   4.454   3.987   3.495 -0.5717  0.2281  0.5092
 1946SOL    HW2 7829   4.491   3.994   3.583  0.7282  1.3816 -0.1101
 1946SOL    HW3 7830   4.449   4.077   3.463 -1.4789 -0.1397 -0.4246
 1946SOL    MW4 7831   4.458   3.999   3.502 -0.5202  0.3319  0.3042
 1947SOL     OW 7832   0.011   4.248   3.412 -0.0385  0.0659 -0.0222
 1947SOL    HW2 7833  -0.063   4.304   3.435 -0.5245 -1.2818  1.8571
 1947SOL    HW3 7834   0.088   4.299   3.436 -0.3761  0.9607 -0.7816
 1947SOL    MW4 7835   0.011   4.262   3.418 -0.1471  0.0067  0.1256
 1948SOL     OW 7836   0.230   4.394   3.488 -0.1285  0.3423 -0.1361
 1948SOL    HW2 7837   0.234   4.412   3.582 -0.1209 -1.1206  0.1431
 1948SOL    HW3 7838   0.312   4.349   3.469 -1.4765 -2.1087 -0.2458
 1948SOL    MW4 7839   0.241   4.391   3.498 -0.3053 -0.1740 -0.1137
 1949SOL     OW 7840   0.660   4.654   3.388 -0.3116 -0.2205 -0.2535
 1949SOL    HW2 7841   0.739   4.696   3.424 -0.1283 -0.5138 -0.3118
 1949SOL    HW3 7842   0.661   4.675   3.295 -0.2311 -0.3326 -0.2786
 1949SOL    MW4 7843   0.671   4.662   3.381 -0.2768 -0.2740 -0.2644
 1950SOL     OW 7844   0.423   0.105   3.486 -0.5433  0.1862 -0.2922
 1950SOL    HW2 7845   0.438   0.117   3.580  0.7188 -0.3113 -0.4149
 1950SOL    HW3 7846   0.497   0.051   3.457 -1.0569  0.1312 -1.5246
 1950SOL    MW4 7847   0.435   0.099   3.495 -0.4445  0.1133 -0.4711
 1951SOL     OW 7848   0.445   0.348   3.371 -0.1707  0.1050  0.0588
 1951SOL    HW2 7849   0.524   0.387   3.408  0.5114  0.0145 -1.2830
 1951SOL    HW3 7850   0.438   0.263   3.416 -0.1559  0.6026  1.0154
 1951SOL    MW4 7851   0.455   0.342   3.382 -0.0787  0.1588  0.0076
 1952SOL     OW 7852   0.668   0.474   3.493  0.4016 -0.3337 -0.1486
 1952SOL    HW2 7853   0.664   0.476   3.588 -0.1021 -2.4284 -0.1023
 1952SOL    HW3 7854   0.754   0.435   3.473  0.5437  0.1740 -0.5632
 1952SOL    MW4 7855   0.679   0.469   3.503  0.3539 -0.5430 -0.1972
 1953SOL     OW 7856   0.682   0.757   3.399 -0.4768  0.0016  0.3353
 1953SOL    HW2 7857   0.608   0.799   3.442 -0.8429  0.3969 -0.6484
 1953SOL    HW3 7858   0.689   0.671   3.441 -1.2492  0.1121  0.7042
 1953SOL    MW4 7859   0.673   0.751   3.410 -0.6270  0.0684  0.2542
 1954SOL     OW 7860   0.450   0.885   3.501  0.3574 -0.1907  0.2939
 1954SOL    HW2 7861   0.447   0.885   3.597  0.8462 -0.2422  0.3108
 1954SOL    HW3 7862   0.442   0.977   3.477  2.3520  0.0352  0.4595
 1954SOL    MW4 7863   0.448   0.897   3.511  0.6851 -0.1677  0.3183
 1955SOL     OW 7864   0.408   1.147   3.442  0.1050 -0.2903  0.1990
 1955SOL    HW2 7865   0.483   1.201   3.469  0.7702 -0.9614 -0.2618
 1955SOL    HW3 7866   0.423   1.132   3.348 -0.5087 -0.5941  0.1506
 1955SOL    MW4 7867   0.420   1.152   3.433  0.1118 -0.4190  0.1321
 1956SOL     OW 7868   0.645   1.278   3.501  0.1731 -0.3405  0.3246
 1956SOL    HW2 7869   0.718   1.234   3.458 -0.5175 -1.0918 -0.1020
 1956SOL    HW3 7870   0.643   1.365   3.461  0.4710 -0.5213 -0.0887
 1956SOL    MW4 7871   0.654   1.284   3.490  0.1213 -0.4634  0.2136
 1957SOL     OW 7872   0.650   1.543   3.383 -0.1154 -0.7633 -0.5152
 1957SOL    HW2 7873   0.723   1.587   3.426  0.2556 -1.8605 -0.0263
 1957SOL    HW3 7874   0.573   1.592   3.412  0.2665 -0.6252  0.2889
 1957SOL    MW4 7875   0.649   1.555   3.393 -0.0161 -0.8899 -0.3448
 1958SOL     OW 7876   0.435   1.692   3.477 -0.0694  0.2392  0.3527
 1958SOL    HW2 7877   0.445   1.684   3.571 -0.1659  0.5396  0.3902
 1958SOL    HW3 7878   0.448   1.785   3.459 -0.9050  0.3278  0.1801
 1958SOL    MW4 7879   0.438   1.703   3.487 -0.1923  0.2905  0.3350
 1959SOL     OW 7880   0.471   1.947   3.388  0.3121 -0.2970  0.2494
 1959SOL    HW2 7881   0.389   1.995   3.400  0.5012  0.4794 -1.4471
 1959SOL    HW3 7882   0.470   1.920   3.296  2.6510  1.0534 -0.2120
 1959SOL    MW4 7883   0.460   1.949   3.377  0.6457 -0.0163 -0.0353
 1960SOL     OW 7884   0.698   2.063   3.512 -0.1206  0.4781  0.0725
 1960SOL    HW2 7885   0.675   2.065   3.605  1.0110 -0.8247  0.4040
 1960SOL    HW3 7886   0.620   2.030   3.468 -0.3516  0.2031  0.6780
 1960SOL    MW4 7887   0.685   2.059   3.518 -0.0018  0.2699  0.1960
 1961SOL     OW 7888   0.734   2.314   3.391  0.3225 -0.5524 -0.7930
 1961SOL    HW2 7889   0.786   2.377   3.440 -1.6789 -0.2829  1.0430
 1961SOL    HW3 7890   0.727   2.238   3.448 -1.8665 -0.3029 -0.6733
 1961SOL    MW4 7891   0.740   2.312   3.405 -0.2303 -0.4840 -0.5350
 1962SOL     OW 7892   0.467   2.448   3.465 -0.0642 -0.2511  0.3346
 1962SOL    HW2 7893   0.531   2.388   3.429  0.2890 -0.0659  0.6468
 1962SOL    HW3 7894   0.382   2.409   3.444  0.1106  0.2351 -1.3491
 1962SOL    MW4 7895   0.464   2.435   3.457  0.0055 -0.1626  0.1538
 1963SOL     OW 7896   0.443   2.726   3.388 -0.4036 -0.6976 -0.2573
 1963SOL    HW2 7897   0.446   2.633   3.411  0.0380 -0.3700  1.0465
 1963SOL    HW3 7898   0.416   2.727   3.296 -1.0672 -2.0869 -0.0912
 1963SOL    MW4 7899   0.440   2.714   3.379 -0.4329 -0.8373 -0.0634
 1964SOL     OW 7900   0.678   2.855   3.467 -0.3619 -0.1364 -0.3189
 1964SOL    HW2 7901   0.752   2.806   3.430 -0.4765 -0.9606  0.5243
 1964SOL    HW3 7902   0.602   2.802   3.445 -0.5054 -0.2594  0.4609
 1964SOL    MW4 7903   0.678   2.841   3.459 -0.3960 -0.2613 -0.1049
 1965SOL     OW 7904   0.679   3.131   3.372  0.2084  0.0113 -0.0770
 1965SOL    HW2 7905   0.606   3.164   3.425  0.7111  1.2399 -0.1375
 1965SOL    HW3 7906   0.681   3.037   3.391 -1.1547  0.0280  0.2076
 1965SOL    MW4 7907   0.670   3.123   3.382  0.0950  0.1757 -0.0474
 1966SOL     OW 7908   0.466   3.241   3.515  0.2138  0.0120 -0.3205
 1966SOL    HW2 7909   0.464   3.216   3.607  1.5535 -0.7161 -0.4735
 1966SOL    HW3 7910   0.393   3.193   3.475 -1.1509  1.3250  0.5979
 1966SOL    MW4 7911   0.456   3.231   3.522  0.2106  0.0894 -0.2196
 1967SOL     OW 7912   0.445   3.495   3.374 -0.1139  0.2184 -0.1087
 1967SOL    HW2 7913   0.444   3.419   3.432  0.5199 -0.4494 -0.9524
 1967SOL    HW3 7914   0.379   3.554   3.410  0.3597 -0.1277  1.3517
 1967SOL    MW4 7915   0.436   3.492   3.386  0.0322  0.0846 -0.0274
 1968SOL     OW 7916   0.627   3.589   3.541  0.5578 -0.1046  0.1045
 1968SOL    HW2 7917   0.707   3.549   3.506  0.1321 -0.4371 -0.5002
 1968SOL    HW3 7918   0.556   3.547   3.492  0.0610  0.8793 -0.0406
 1968SOL    MW4 7919   0.628   3.578   3.530  0.4361 -0.0186  0.0055
 1969SOL     OW 7920   0.646   3.850   3.421  0.3214  0.2255 -0.1624
 1969SOL    HW2 7921   0.584   3.914   3.456  1.1768 -0.0723  1.9866
 1969SOL    HW3 7922   0.615   3.766   3.454 -1.0648 -0.5899 -3.3430
 1969SOL    MW4 7923   0.634   3.847   3.430  0.2514  0.0789 -0.2980
 1970SOL     OW 7924   0.455   4.017   3.516  0.6015 -0.4536  0.2485
 1970SOL    HW2 7925   0.473   4.094   3.462  1.6690 -1.6775 -1.1572
 1970SOL    HW3 7926   0.377   3.978   3.477  0.9514 -0.9340  0.0283
 1970SOL    MW4 7927   0.447   4.022   3.504  0.7885 -0.6785  0.0341
 1971SOL     OW 7928   0.471   4.275   3.407 -0.0350  0.1832  0.2624
 1971SOL    HW2 7929   0.541   4.325   3.448 -0.4381  1.0451 -0.0951
 1971SOL    HW3 7930   0.490   4.277   3.313 -1.1090  1.3238  0.0575
 1971SOL    MW4 7931   0.483   4.282   3.400 -0.2299  0.4482  0.1884
 1972SOL     OW 7932   0.695   4.397   3.501  0.1087 -0.6470  0.1779
 1972SOL    HW2 7933   0.784   4.361   3.503  0.4824  0.3220  1.3764
 1972SOL    HW3 7934   0.705   4.482   3.459 -0.2170 -0.4098  0.5862
 1972SOL    MW4 7935   0.708   4.403   3.496  0.1150 -0.4873  0.3898
 1973SOL     OW 7936   1.102   4.653   3.398 -0.1675  0.0833 -0.0639
 1973SOL    HW2 7937   1.182   4.702   3.419  0.0827 -0.0314 -0.7151
 1973SOL    HW3 7938   1.102   4.649   3.302 -0.3991 -0.8338 -0.0263
 1973SOL    MW4 7939   1.113   4.659   3.388 -0.1651 -0.0525 -0.1452
 1974SOL     OW 7940   0.889   0.122   3.497  0.5507  0.0029  0.2335
 1974SOL    HW2 7941   0.906   0.121   3.592  0.8132 -0.5316  0.1849
 1974SOL    HW3 7942   0.961   0.071   3.460  0.4811  0.2682 -0.2615
 1974SOL    MW4 7943   0.901   0.115   3.505  0.5761 -0.0326  0.1619
 1975SOL     OW 7944   0.898   0.385   3.401 -0.3954 -0.3432  0.4406
 1975SOL    HW2 7945   0.978   0.417   3.443 -1.0618  1.2433  0.5411
 1975SOL    HW3 7946   0.887   0.296   3.436  0.7643 -0.2080  1.1997
 1975SOL    MW4 7947   0.907   0.377   3.411 -0.3303 -0.1161  0.5538
 1976SOL     OW 7948   1.131   0.509   3.505 -0.3855 -0.4867 -0.4272
 1976SOL    HW2 7949   1.118   0.522   3.599 -0.1104 -1.0268 -0.3129
 1976SOL    HW3 7950   1.121   0.596   3.467 -0.8451 -0.3215  0.0637
 1976SOL    MW4 7951   1.128   0.522   3.512 -0.4100 -0.5361 -0.3476
 1977SOL     OW 7952   1.109   0.752   3.356  0.1562 -0.4834  0.4085
 1977SOL    HW2 7953   1.181   0.805   3.389  0.2009 -0.5946  0.4888
 1977SOL    HW3 7954   1.031   0.790   3.397  0.1488 -0.2332  0.1580
 1977SOL    MW4 7955   1.108   0.764   3.366  0.1611 -0.4652  0.3860
 1978SOL     OW 7956   0.911   0.873   3.493  0.1347  0.1262 -0.0579
 1978SOL    HW2 7957   0.905   0.967   3.477  2.0391  0.2829 -0.0089
 1978SOL    HW3 7958   0.824   0.839   3.473 -0.6307  1.9281  0.1346
 1978SOL    MW4 7959   0.899   0.881   3.488  0.2850  0.3846 -0.0257
 1979SOL     OW 7960   0.879   1.154   3.419  0.5923 -0.5014  0.0232
 1979SOL    HW2 7961   0.958   1.206   3.438  1.1622 -1.5682  0.6091
 1979SOL    HW3 7962   0.875   1.152   3.324  0.2383  1.1049 -0.0107
 1979SOL    MW4 7963   0.889   1.161   3.409  0.6207 -0.4303  0.0958
 1980SOL     OW 7964   1.102   1.321   3.477  0.1057 -0.0136  0.2314
 1980SOL    HW2 7965   1.133   1.324   3.568 -0.3974 -0.1407  0.4063
 1980SOL    HW3 7966   1.097   1.413   3.451 -0.9770  0.0786  0.7524
 1980SOL    MW4 7967   1.106   1.334   3.486 -0.1036 -0.0182  0.3231
 1981SOL     OW 7968   1.095   1.584   3.426  0.1738 -0.3309  0.3852
 1981SOL    HW2 7969   1.183   1.610   3.452 -0.5999  2.9978 -0.1920
 1981SOL    HW3 7970   1.097   1.581   3.331 -0.1887 -0.8257  0.3904
 1981SOL    MW4 7971   1.107   1.587   3.417  0.0238  0.0430  0.3095
 1982SOL     OW 7972   0.849   1.688   3.506 -0.4509 -0.2663 -0.1660
 1982SOL    HW2 7973   0.865   1.770   3.459  0.0156 -0.7550 -0.8795
 1982SOL    HW3 7974   0.914   1.627   3.471 -1.2664 -1.1521 -0.1868
 1982SOL    MW4 7975   0.860   1.691   3.495 -0.4970 -0.4476 -0.2630
 1983SOL     OW 7976   0.917   1.947   3.394 -0.2733 -0.4330 -0.1387
 1983SOL    HW2 7977   0.990   1.978   3.446 -0.1628  0.0615 -0.5850
 1983SOL    HW3 7978   0.840   1.990   3.431 -0.2778 -0.5812  0.0247
 1983SOL    MW4 7979   0.917   1.956   3.405 -0.2593 -0.3873 -0.1760
 1984SOL     OW 7980   1.135   2.011   3.551  0.1511 -0.3000  0.0554
 1984SOL    HW2 7981   1.212   1.985   3.500  0.9446 -0.0836  1.1344
 1984SOL    HW3 7982   1.122   2.103   3.529  0.3698 -0.2611  0.0912
 1984SOL    MW4 7983   1.143   2.019   3.541  0.2847 -0.2666  0.2027
 1985SOL     OW 7984   1.103   2.262   3.441  0.3711  0.2660  0.2304
 1985SOL    HW2 7985   1.175   2.318   3.469 -0.2120  0.9825  0.3151
 1985SOL    HW3 7986   1.102   2.269   3.346  1.5184 -1.1318  0.1013
 1985SOL    MW4 7987   1.112   2.270   3.432  0.4455  0.1762  0.2244
 1986SOL     OW 7988   0.918   2.462   3.546  0.1223  0.1262  0.2859
 1986SOL    HW2 7989   0.893   2.434   3.634 -0.4476 -0.5405 -0.0851
 1986SOL    HW3 7990   0.984   2.398   3.518 -0.4088 -0.2322 -0.1508
 1986SOL    MW4 7991   0.924   2.449   3.554 -0.0230 -0.0091  0.1793
 1987SOL     OW 7992   0.884   2.702   3.387  0.0797  0.3766 -0.4421
 1987SOL    HW2 7993   0.958   2.746   3.429  0.7871 -0.6310 -0.6302
 1987SOL    HW3 7994   0.875   2.620   3.434  0.6027 -0.5709 -1.9566
 1987SOL    MW4 7995   0.893   2.697   3.398  0.2420  0.1185 -0.6666
 1988SOL     OW 7996   1.137   2.815   3.479 -0.3966 -0.7348 -0.0603
 1988SOL    HW2 7997   1.132   2.816   3.574 -0.2000  0.5276 -0.0613
 1988SOL    HW3 7998   1.213   2.760   3.459  1.0177  0.9655  0.5760
 1988SOL    MW4 7999   1.146   2.808   3.489 -0.1842 -0.3438  0.0234
 1989SOL     OW 8000   1.171   3.107   3.419 -0.9445  0.1032  0.2542
 1989SOL    HW2 8001   1.176   3.013   3.436 -1.0733  0.1130  0.3468
 1989SOL    HW3 8002   1.163   3.114   3.323  0.6063  0.0799  0.0989
 1989SOL    MW4 8003   1.171   3.096   3.408 -0.7569  0.1016  0.2460
 1990SOL     OW 8004   0.926   3.232   3.494 -0.5064  0.2641  0.6559
 1990SOL    HW2 8005   0.999   3.177   3.465 -0.5359  0.4411  0.2346
 1990SOL    HW3 8006   0.851   3.198   3.444 -0.7410 -0.0059  1.1851
 1990SOL    MW4 8007   0.925   3.220   3.483 -0.5413  0.2515  0.6702
 1991SOL     OW 8008   0.885   3.517   3.442  0.0234  0.0031 -0.0547
 1991SOL    HW2 8009   0.905   3.426   3.464  0.1660 -0.5574 -2.3659
 1991SOL    HW3 8010   0.862   3.515   3.349  0.2428  2.3648 -0.1991
 1991SOL    MW4 8011   0.885   3.505   3.433  0.0712  0.2408 -0.3786
 1992SOL     OW 8012   1.098   3.658   3.540 -0.6699 -0.1182  0.4208
 1992SOL    HW2 8013   1.099   3.670   3.635  1.2300  0.2238  0.3929
 1992SOL    HW3 8014   1.022   3.604   3.523 -0.4337 -1.0787  2.2643
 1992SOL    MW4 8015   1.088   3.652   3.550 -0.3883 -0.1998  0.6604
 1993SOL     OW 8016   1.142   3.899   3.411 -0.6063  0.0104 -0.4028
 1993SOL    HW2 8017   1.206   3.959   3.451 -1.9795  0.9545  0.4395
 1993SOL    HW3 8018   1.145   3.821   3.467  0.2917 -0.2330 -0.7735
 1993SOL    MW4 8019   1.151   3.897   3.424 -0.6690  0.1028 -0.3405
 1994SOL     OW 8020   0.894   3.989   3.490  0.4304 -0.4735  0.8057
 1994SOL    HW2 8021   0.973   3.942   3.464 -0.2011 -1.7943  1.2003
 1994SOL    HW3 8022   0.822   3.933   3.461 -0.3675  0.8079  0.2717
 1994SOL    MW4 8023   0.895   3.975   3.483  0.2419 -0.4785  0.7875
 1995SOL     OW 8024   0.930   4.249   3.428  0.2535 -0.0102 -0.1875
 1995SOL    HW2 8025   0.921   4.159   3.457 -0.2694 -0.1124 -0.6605
 1995SOL    HW3 8026   0.917   4.246   3.334  0.3686  0.5413 -0.2267
 1995SOL    MW4 8027   0.927   4.237   3.420  0.1997  0.0496 -0.2553
 1996SOL     OW 8028   1.143   4.397   3.503  0.0883  0.3142  0.5012
 1996SOL    HW2 8029   1.061   4.358   3.474  0.4960 -1.2317  1.3709
 1996SOL    HW3 8030   1.141   4.486   3.469 -0.9372 -0.4034 -1.3795
 1996SOL    MW4 8031   1.132   4.404   3.495  0.0067  0.0153  0.3676
 1997SOL     OW 8032   1.552   4.657   3.387 -0.6220  0.2131 -0.4357
 1997SOL    HW2 8033   1.554   4.569   3.426 -0.1025 -0.0109 -0.9579
 1997SOL    HW3 8034   1.475   4.698   3.425 -0.2414 -0.0759  0.6740
 1997SOL    MW4 8035   1.543   4.650   3.397 -0.5032  0.1454 -0.3581
 1998SOL     OW 8036   1.329   0.115   3.492  0.4093  0.1948  0.0996
 1998SOL    HW2 8037   1.333   0.126   3.587  0.3456  0.1113  0.1116
 1998SOL    HW3 8038   1.337   0.204   3.457  0.4143  0.2271  0.1832
 1998SOL    MW4 8039   1.331   0.129   3.500  0.4015  0.1881  0.1121
 1999SOL     OW 8040   1.346   0.373   3.389 -0.4620  0.5722  0.2467
 1999SOL    HW2 8041   1.422   0.412   3.431 -0.4205  0.3500  0.3775
 1999SOL    HW3 8042   1.273   0.432   3.410 -0.2962  0.8757 -0.0212
 1999SOL    MW4 8043   1.346   0.386   3.397 -0.4348  0.5830  0.2284
 2000SOL     OW 8044   1.564   0.535   3.527  0.7478 -0.0409  0.1005
 2000SOL    HW2 8045   1.584   0.544   3.620 -0.0098  1.5184  0.1215
 2000SOL    HW3 8046   1.638   0.486   3.491  1.3561 -0.0924  1.4070
 2000SOL    MW4 8047   1.576   0.530   3.535  0.7280  0.1581  0.2759
 2001SOL     OW 8048   1.540   0.763   3.377  0.1825 -0.3647  0.1094
 2001SOL    HW2 8049   1.483   0.819   3.430 -0.7150  0.8341 -2.0682
 2001SOL    HW3 8050   1.562   0.689   3.435 -1.1388  0.6623  1.9673
 2001SOL    MW4 8051   1.536   0.760   3.392 -0.1101 -0.0710  0.0672
 2002SOL     OW 8052   1.331   0.902   3.482  0.0006  0.1157  0.2198
 2002SOL    HW2 8053   1.331   0.904   3.578  1.3031 -1.5380  0.2742
 2002SOL    HW3 8054   1.314   0.993   3.456  1.5783  0.9694  2.0239
 2002SOL    MW4 8055   1.329   0.914   3.491  0.3806  0.0101  0.4649
 2003SOL     OW 8056   1.310   1.164   3.367 -0.4123  0.0460 -0.0478
 2003SOL    HW2 8057   1.379   1.210   3.415  0.9601  1.4394 -3.2195
 2003SOL    HW3 8058   1.229   1.209   3.391  0.3905  1.4425  0.1018
 2003SOL    MW4 8059   1.309   1.176   3.377 -0.1253  0.4140 -0.4466
 2004SOL     OW 8060   1.516   1.287   3.516  0.4430 -0.1723 -0.2899
 2004SOL    HW2 8061   1.528   1.292   3.611  2.1087  0.6286 -0.5215
 2004SOL    HW3 8062   1.598   1.248   3.484  0.0470 -0.0725 -1.4218
 2004SOL    MW4 8063   1.529   1.283   3.524  0.6105 -0.0535 -0.4697
 2005SOL     OW 8064   1.566   1.529   3.383  0.4062 -0.9423  0.0611
 2005SOL    HW2 8065   1.553   1.446   3.428  0.3326 -0.9171  0.0858
 2005SOL    HW3 8066   1.566   1.506   3.290  1.0178 -1.0592  0.0878
 2005SOL    MW4 8067   1.564   1.515   3.376  0.4771 -0.9543  0.0679
 2006SOL     OW 8068   1.361   1.686   3.463  0.1013  0.1624 -0.0636
 2006SOL    HW2 8069   1.375   1.705   3.556 -0.8625 -1.7200  0.5035
 2006SOL    HW3 8070   1.438   1.635   3.437 -0.6165 -1.1137  0.2722
 2006SOL    MW4 8071   1.373   1.682   3.472 -0.1208 -0.2544  0.0556
 2007SOL     OW 8072   1.352   1.940   3.396 -0.0639  0.2523 -0.3610
 2007SOL    HW2 8073   1.412   1.976   3.461  0.8715  0.2846 -1.2262
 2007SOL    HW3 8074   1.345   1.847   3.419  1.7512 -0.1465 -1.3102
 2007SOL    MW4 8075   1.359   1.932   3.407  0.2991  0.2041 -0.6006
 2008SOL     OW 8076   1.571   2.057   3.525  0.0771  0.8461  0.1704
 2008SOL    HW2 8077   1.643   2.002   3.496  0.1765  1.5502 -0.9451
 2008SOL    HW3 8078   1.584   2.140   3.480 -0.1031  1.7710  1.7902
 2008SOL    MW4 8079   1.582   2.061   3.515  0.0664  1.0610  0.2372
 2009SOL     OW 8080   1.580   2.298   3.395 -0.2519 -0.3681  0.1744
 2009SOL    HW2 8081   1.497   2.339   3.420 -1.0194 -1.2749 -0.8161
 2009SOL    HW3 8082   1.586   2.311   3.301  0.8905 -0.0527  0.2837
 2009SOL    MW4 8083   1.570   2.305   3.386 -0.2025 -0.4461  0.0584
 2010SOL     OW 8084   1.351   2.403   3.501  0.3397 -0.2356 -0.0803
 2010SOL    HW2 8085   1.356   2.415   3.596  2.5675 -1.4928  0.0094
 2010SOL    HW3 8086   1.359   2.491   3.465  1.2606  0.0819  0.8689
 2010SOL    MW4 8087   1.353   2.416   3.509  0.7552 -0.3595  0.0567
 2011SOL     OW 8088   1.349   2.664   3.402  0.1634 -0.1587  0.6686
 2011SOL    HW2 8089   1.415   2.725   3.435 -0.7111  1.4061 -0.4113
 2011SOL    HW3 8090   1.355   2.672   3.307 -0.6440 -1.0300  0.5349
 2011SOL    MW4 8091   1.359   2.673   3.394 -0.0587 -0.0675  0.5083
 2012SOL     OW 8092   1.561   2.842   3.492  0.2909  0.1110 -0.7505
 2012SOL    HW2 8093   1.634   2.795   3.451  0.8557  0.3027  0.0148
 2012SOL    HW3 8094   1.561   2.928   3.452  0.3895  0.0599 -0.8586
 2012SOL    MW4 8095   1.570   2.847   3.481  0.3785  0.1295 -0.6635
 2013SOL     OW 8096   1.548   3.097   3.390 -0.5854  0.0603  0.1390
 2013SOL    HW2 8097   1.626   3.128   3.436  0.6389 -1.7213 -0.6574
 2013SOL    HW3 8098   1.476   3.146   3.429  0.8582  1.3366  1.2912
 2013SOL    MW4 8099   1.549   3.108   3.401 -0.2333 -0.0064  0.1860
 2014SOL     OW 8100   1.359   3.271   3.504  0.4577  0.0308  0.1149
 2014SOL    HW2 8101   1.371   3.246   3.595  0.2211 -0.6089 -0.0234
 2014SOL    HW3 8102   1.278   3.227   3.477  0.2041  0.6956 -0.2316
 2014SOL    MW4 8103   1.350   3.262   3.512  0.3930  0.0341  0.0508
 2015SOL     OW 8104   1.280   3.504   3.381 -0.6130  0.0107  0.0393
 2015SOL    HW2 8105   1.309   3.425   3.426  1.2299  0.6754  0.0436
 2015SOL    HW3 8106   1.225   3.549   3.445 -0.9679 -0.8207  0.3333
 2015SOL    MW4 8107   1.277   3.499   3.395 -0.4166 -0.0112  0.0789
 2016SOL     OW 8108   1.516   3.617   3.454 -0.2480  0.3826  0.2233
 2016SOL    HW2 8109   1.532   3.619   3.548 -0.8025 -1.3790  0.3734
 2016SOL    HW3 8110   1.429   3.579   3.445 -0.2732  0.7071 -0.9977
 2016SOL    MW4 8111   1.506   3.612   3.465 -0.3245  0.1926  0.0823
 2017SOL     OW 8112   1.552   3.881   3.375  0.0173  0.4559 -0.1460
 2017SOL    HW2 8113   1.528   3.790   3.397 -0.8817  1.0432  1.4263
 2017SOL    HW3 8114   1.563   3.881   3.280  0.1965 -1.3492 -0.1423
 2017SOL    MW4 8115   1.550   3.869   3.366 -0.0777  0.2952  0.0618
 2018SOL     OW 8116   1.347   4.045   3.503 -0.0525  0.3153  0.1052
 2018SOL    HW2 8117   1.374   4.130   3.467  0.1665  0.4273  0.5287
 2018SOL    HW3 8118   1.417   3.985   3.477  0.5164  0.5624  1.0227
 2018SOL    MW4 8119   1.360   4.049   3.495  0.0515  0.3624  0.2820
 2019SOL     OW 8120   1.367   4.290   3.387  0.1100  0.4615  0.2622
 2019SOL    HW2 8121   1.277   4.307   3.414 -0.3008 -1.5630  0.2264
 2019SOL    HW3 8122   1.368   4.308   3.293 -0.2773  0.4576  0.2566
 2019SOL    MW4 8123   1.355   4.295   3.379  0.0048  0.1941  0.2568
 2020SOL     OW 8124   1.605   4.410   3.516 -0.2100 -0.5364  0.1736
 2020SOL    HW2 8125   1.677   4.360   3.480 -0.2153  0.1834 -0.8713
 2020SOL    HW3 8126   1.527   4.356   3.501  0.1280 -1.4320  1.5458
 2020SOL    MW4 8127   1.604   4.396   3.509 -0.1661 -0.5598  0.2170
 2021SOL     OW 8128   1.985   4.658   3.387 -0.2256 -0.2098  0.0715
 2021SOL    HW2 8129   2.066   4.698   3.419 -0.3993  0.1228  0.0903
 2021SOL    HW3 8130   1.916   4.700   3.437 -0.4081 -0.5360  0.0935
 2021SOL    MW4 8131   1.987   4.669   3.398 -0.2726 -0.2093  0.0765
 2022SOL     OW 8132   1.769   0.132   3.507 -0.0810  0.3228 -0.3726
 2022SOL    HW2 8133   1.765   0.123   3.602 -1.1013  0.8485 -0.3629
 2022SOL    HW3 8134   1.699   0.075   3.474  1.3445 -1.1655 -0.8986
 2022SOL    MW4 8135   1.759   0.123   3.515 -0.0275  0.1958 -0.4408
 2023SOL     OW 8136   1.766   0.390   3.422 -0.0078  0.3806  0.2918
 2023SOL    HW2 8137   1.750   0.297   3.437  0.6953  0.4329  1.4125
 2023SOL    HW3 8138   1.776   0.397   3.327 -0.6145 -0.5932  0.1475
 2023SOL    MW4 8139   1.765   0.378   3.411  0.0050  0.2590  0.4206
 2024SOL     OW 8140   2.033   0.489   3.485  0.4583  0.5472 -0.3749
 2024SOL    HW2 8141   2.017   0.581   3.464 -1.3219  0.1676 -0.7881
 2024SOL    HW3 8142   1.949   0.445   3.467  0.6846 -0.8242  1.6808
 2024SOL    MW4 8143   2.020   0.495   3.480  0.2534  0.3162 -0.1581
 2025SOL     OW 8144   2.016   0.758   3.415  0.3108  0.1421  0.0052
 2025SOL    HW2 8145   2.087   0.804   3.459 -0.1614  0.9517 -0.0634
 2025SOL    HW3 8146   2.026   0.781   3.323  0.1573 -0.0035 -0.0488
 2025SOL    MW4 8147   2.027   0.767   3.409  0.2282  0.2297 -0.0110
 2026SOL     OW 8148   1.796   0.894   3.513 -0.1528 -0.1288 -0.0383
 2026SOL    HW2 8149   1.877   0.853   3.481  0.7777 -0.3460  2.4718
 2026SOL    HW3 8150   1.727   0.834   3.485  0.4333  0.4987 -2.9692
 2026SOL    MW4 8151   1.798   0.881   3.505  0.0474 -0.0747 -0.0939
 2027SOL     OW 8152   1.731   1.144   3.404 -0.4773 -0.0457  0.0455
 2027SOL    HW2 8153   1.815   1.185   3.424 -0.9345  0.5180  0.8190
 2027SOL    HW3 8154   1.740   1.054   3.436 -1.0207  0.7005  2.4268
 2027SOL    MW4 8155   1.743   1.137   3.411 -0.6093  0.1272  0.4616
 2028SOL     OW 8156   1.983   1.273   3.455 -0.2414 -0.2686 -0.2329
 2028SOL    HW2 8157   1.999   1.283   3.549  0.6888 -1.0878 -0.2993
 2028SOL    HW3 8158   1.988   1.362   3.421  1.4200 -0.1695  0.1946
 2028SOL    MW4 8159   1.986   1.286   3.463  0.1005 -0.3636 -0.1855
 2029SOL     OW 8160   2.008   1.529   3.359  0.2453 -0.0407  0.1681
 2029SOL    HW2 8161   2.083   1.583   3.384 -0.1850  0.3273  0.6928
 2029SOL    HW3 8162   1.936   1.562   3.414 -0.9593  1.4063 -2.2138
 2029SOL    MW4 8163   2.008   1.540   3.370  0.0296  0.1990 -0.0768
 2030SOL     OW 8164   1.788   1.643   3.491 -0.4967  0.4170 -0.1898
 2030SOL    HW2 8165   1.789   1.735   3.465 -0.0827  0.2080 -0.9566
 2030SOL    HW3 8166   1.703   1.610   3.462 -0.1712  0.2689 -0.9811
 2030SOL    MW4 8167   1.777   1.651   3.484 -0.3992  0.3699 -0.3953
 2031SOL     OW 8168   1.765   1.907   3.430  0.0438  0.3930 -0.1089
 2031SOL    HW2 8169   1.825   1.971   3.469  1.0088 -0.1985 -0.5855
 2031SOL    HW3 8170   1.755   1.936   3.339  1.3793 -0.7362 -0.6426
 2031SOL    MW4 8171   1.772   1.919   3.423  0.3471  0.1661 -0.2425
 2032SOL     OW 8172   2.001   2.064   3.496  0.0577  0.0365 -0.3337
 2032SOL    HW2 8173   2.083   2.019   3.476  0.1071 -0.9494  1.9590
 2032SOL    HW3 8174   2.012   2.151   3.457  2.4666  0.1309  0.4860
 2032SOL    MW4 8175   2.013   2.070   3.488  0.3819 -0.0811  0.0765
 2033SOL     OW 8176   2.023   2.305   3.350  0.4585  0.2122  0.3657
 2033SOL    HW2 8177   2.096   2.352   3.391 -0.5732  0.7017  1.6652
 2033SOL    HW3 8178   2.035   2.320   3.257  2.7042 -0.6980  0.4714
 2033SOL    MW4 8179   2.035   2.313   3.343  0.6187  0.1566  0.5510
 2034SOL     OW 8180   1.805   2.444   3.484 -0.2545  0.5198  0.0769
 2034SOL    HW2 8181   1.883   2.412   3.439 -0.3696  1.2881 -0.6833
 2034SOL    HW3 8182   1.740   2.375   3.472  0.0323  0.2750 -0.0627
 2034SOL    MW4 8183   1.806   2.431   3.476 -0.2319  0.5889 -0.0417
 2035SOL     OW 8184   1.764   2.702   3.372  0.3175  0.1497  0.2933
 2035SOL    HW2 8185   1.843   2.751   3.392  0.4079  0.1114  0.0306
 2035SOL    HW3 8186   1.784   2.612   3.398  0.7016 -0.0493 -0.6358
 2035SOL    MW4 8187   1.777   2.697   3.378  0.3802  0.1185  0.1364
 2036SOL     OW 8188   1.994   2.831   3.458  0.2196 -0.1355 -0.0275
 2036SOL    HW2 8189   1.968   2.836   3.550 -1.2040 -0.5647 -0.4004
 2036SOL    HW3 8190   2.002   2.922   3.430  0.0822 -0.0034  0.3601
 2036SOL    MW4 8191   1.992   2.844   3.467  0.0137 -0.1748 -0.0257
 2037SOL     OW 8192   1.995   3.090   3.364 -0.1400  0.2942 -0.3906
 2037SOL    HW2 8193   2.072   3.143   3.386 -0.6191  1.4396 -1.4113
 2037SOL    HW3 8194   1.924   3.126   3.416 -0.3996  0.4709 -0.8584
 2037SOL    MW4 8195   1.996   3.102   3.374 -0.2373  0.4683 -0.5870
 2038SOL     OW 8196   1.774   3.211   3.475 -0.0678 -0.0969 -0.1788
 2038SOL    HW2 8197   1.786   3.239   3.565 -0.4784 -0.6380  0.0486
 2038SOL    HW3 8198   1.771   3.292   3.424 -1.3923  0.2854  0.4806
 2038SOL    MW4 8199   1.775   3.225   3.480 -0.2968 -0.1180 -0.0618
 2039SOL     OW 8200   1.755   3.475   3.380  0.1707 -0.0653 -0.0641
 2039SOL    HW2 8201   1.674   3.525   3.393  0.5852  0.6762 -0.3754
 2039SOL    HW3 8202   1.768   3.473   3.285  0.1528 -0.7698 -0.0570
 2039SOL    MW4 8203   1.746   3.481   3.369  0.2230 -0.0603 -0.1044
 2040SOL     OW 8204   1.957   3.630   3.481  0.2417  0.6556 -0.4334
 2040SOL    HW2 8205   2.034   3.589   3.444 -0.4419 -1.9292  0.9062
 2040SOL    HW3 8206   1.883   3.581   3.445 -0.7348  2.3499 -0.7956
 2040SOL    MW4 8207   1.957   3.618   3.471  0.0228  0.5381 -0.3045
 2041SOL     OW 8208   2.021   3.892   3.426 -0.1975  0.1116 -0.0690
 2041SOL    HW2 8209   1.952   3.944   3.466  0.8600  0.7125  1.0017
 2041SOL    HW3 8210   1.997   3.801   3.446  0.3794  0.4032  2.0890
 2041SOL    MW4 8211   2.008   3.887   3.434  0.0181  0.2294  0.3569
 2042SOL     OW 8212   1.783   4.000   3.517  0.5303  0.1169 -0.4248
 2042SOL    HW2 8213   1.768   4.020   3.609  0.2585  2.1347 -0.8768
 2042SOL    HW3 8214   1.703   3.957   3.488  0.6314 -0.5577  0.2790
 2042SOL    MW4 8215   1.770   3.997   3.525  0.5077  0.2940 -0.3917
 2043SOL     OW 8216   1.805   4.261   3.364  0.0263 -0.0637 -0.0212
 2043SOL    HW2 8217   1.799   4.171   3.396  0.9736 -0.3311 -0.5585
 2043SOL    HW3 8218   1.789   4.255   3.270 -1.4515  0.5456  0.1816
 2043SOL    MW4 8219   1.802   4.248   3.356 -0.0436 -0.0181 -0.0653
 2044SOL     OW 8220   2.000   4.402   3.509  0.1561 -0.4200  0.2877
 2044SOL    HW2 8221   1.936   4.350   3.459  1.4341 -0.2757 -1.5665
 2044SOL    HW3 8222   2.002   4.486   3.464  0.0187  0.3537  1.7020
 2044SOL    MW4 8223   1.992   4.406   3.496  0.3065 -0.2990  0.2298
 2045SOL     OW 8224   2.498   0.016   3.419  0.3585 -0.2678 -0.0737
 2045SOL    HW2 8225   2.513  -0.075   3.442  0.8744 -0.3141 -0.5955
 2045SOL    HW3 8226   2.500   0.018   3.323 -0.7173  0.1077 -0.1034
 2045SOL    MW4 8227   2.500   0.005   3.409  0.2844 -0.2244 -0.1464
 2046SOL     OW 8228   2.231   0.094   3.491  0.0685 -0.1060 -0.0975
 2046SOL    HW2 8229   2.247   0.186   3.469 -0.1189 -0.0789 -0.1234
 2046SOL    HW3 8230   2.310   0.048   3.463 -0.4480 -0.1727 -1.4767
 2046SOL    MW4 8231   2.244   0.100   3.484 -0.0241 -0.1112 -0.2825
 2047SOL     OW 8232   2.261   0.340   3.377 -0.5170 -0.4552  0.4673
 2047SOL    HW2 8233   2.330   0.394   3.416 -0.3112  0.9486 -1.7479
 2047SOL    HW3 8234   2.179   0.381   3.405 -0.4217 -0.9102  1.4214
 2047SOL    MW4 8235   2.259   0.353   3.386 -0.4773 -0.3300  0.3009
 2048SOL     OW 8236   2.453   0.507   3.477  0.4033  0.3554 -0.1315
 2048SOL    HW2 8237   2.542   0.481   3.453  0.5967  0.8657  0.0207
 2048SOL    HW3 8238   2.449   0.600   3.456  0.2748  0.5952  0.9368
 2048SOL    MW4 8239   2.464   0.516   3.471  0.4117  0.4544  0.0296
 2049SOL     OW 8240   2.441   0.770   3.425 -0.0084 -0.0492 -0.7726
 2049SOL    HW2 8241   2.524   0.817   3.437 -0.9090  1.3212  0.1936
 2049SOL    HW3 8242   2.436   0.756   3.330  1.3980 -0.3072 -0.8335
 2049SOL    MW4 8243   2.452   0.774   3.414  0.0587  0.0976 -0.6530
 2050SOL     OW 8244   2.218   0.929   3.529 -0.0996  0.4120  0.5402
 2050SOL    HW2 8245   2.235   1.004   3.472  2.1036  0.5575  1.3044
 2050SOL    HW3 8246   2.284   0.865   3.503 -0.7863 -0.5292  1.1292
 2050SOL    MW4 8247   2.229   0.931   3.518  0.1004  0.3071  0.7188
 2051SOL     OW 8248   2.217   1.149   3.359  0.6087 -0.3541 -0.0846
 2051SOL    HW2 8249   2.292   1.201   3.388  1.0160 -0.7694 -0.3807
 2051SOL    HW3 8250   2.142   1.189   3.401  1.2522 -1.2576  1.9951
 2051SOL    MW4 8251   2.217   1.161   3.368  0.7474 -0.5280  0.1507
 2052SOL     OW 8252   2.426   1.285   3.464 -0.4246 -0.0238 -0.2188
 2052SOL    HW2 8253   2.436   1.268   3.558 -0.5794  1.3331  0.0470
 2052SOL    HW3 8254   2.506   1.249   3.425 -0.6165 -1.1065  0.3475
 2052SOL    MW4 8255   2.438   1.278   3.471 -0.4706  0.0124 -0.1090
 2053SOL     OW 8256   2.457   1.549   3.380 -0.6492  0.0718  0.4271
 2053SOL    HW2 8257   2.422   1.463   3.401 -0.8340 -0.1607 -0.8416
 2053SOL    HW3 8258   2.473   1.547   3.286 -0.6781  1.4325  0.3811
 2053SOL    MW4 8259   2.455   1.537   3.370 -0.6773  0.2207  0.2537
 2054SOL     OW 8260   2.232   1.691   3.471 -0.0647 -1.0413 -0.0982
 2054SOL    HW2 8261   2.237   1.680   3.566 -0.3753  1.5344  0.2436
 2054SOL    HW3 8262   2.317   1.660   3.439  0.7771 -0.1369  1.2116
 2054SOL    MW4 8263   2.244   1.685   3.479  0.0052 -0.5822  0.1197
 2055SOL     OW 8264   2.237   1.947   3.393  0.1077  0.0950  0.4457
 2055SOL    HW2 8265   2.224   1.855   3.418 -0.6438 -0.0283 -0.3623
 2055SOL    HW3 8266   2.228   1.947   3.298 -1.3538  1.2329  0.5630
 2055SOL    MW4 8267   2.234   1.935   3.384 -0.1838  0.2288  0.3545
 2056SOL     OW 8268   2.490   2.029   3.471  0.0262  0.1576 -0.5198
 2056SOL    HW2 8269   2.496   2.021   3.566  0.5839 -0.1646 -0.5819
 2056SOL    HW3 8270   2.403   1.995   3.449  0.1412 -0.3383 -0.1917
 2056SOL    MW4 8271   2.479   2.024   3.480  0.1152  0.0496 -0.4847
 2057SOL     OW 8272   2.444   2.308   3.385 -0.5283  0.2290  0.1004
 2057SOL    HW2 8273   2.495   2.360   3.448  0.2188  0.6676 -0.8504
 2057SOL    HW3 8274   2.445   2.220   3.421 -1.0561  0.6841  1.2784
 2057SOL    MW4 8275   2.451   2.303   3.398 -0.4995  0.3467  0.1304
 2058SOL     OW 8276   2.230   2.452   3.462 -0.2110  0.0885  0.0447
 2058SOL    HW2 8277   2.246   2.542   3.433  1.6752 -0.1239  0.3678
 2058SOL    HW3 8278   2.306   2.403   3.432 -0.5507 -1.1235  1.1180
 2058SOL    MW4 8279   2.242   2.457   3.454 -0.0072 -0.0994  0.2291
 2059SOL     OW 8280   2.239   2.734   3.351  0.0347  0.1096 -0.2824
 2059SOL    HW2 8281   2.168   2.780   3.396  0.2206  0.8448 -0.7251
 2059SOL    HW3 8282   2.212   2.731   3.259 -1.0039 -2.6495  0.0728
 2059SOL    MW4 8283   2.226   2.740   3.345 -0.0777 -0.1574 -0.2942
 2060SOL     OW 8284   2.466   2.845   3.458 -0.2647 -0.4561 -0.1724
 2060SOL    HW2 8285   2.464   2.939   3.439 -1.9955 -0.5150 -0.3791
 2060SOL    HW3 8286   2.385   2.811   3.419  1.0012 -2.2797 -1.3207
 2060SOL    MW4 8287   2.455   2.853   3.450 -0.3259 -0.7045 -0.3512
 2061SOL     OW 8288   2.448   3.116   3.390  0.4360 -0.4009  0.5108
 2061SOL    HW2 8289   2.530   3.153   3.421  1.9759 -2.0577 -1.4761
 2061SOL    HW3 8290   2.455   3.117   3.295 -2.6101  1.0639  0.2323
 2061SOL    MW4 8291   2.460   3.121   3.382  0.2375 -0.4261  0.2120
 2062SOL     OW 8292   2.194   3.230   3.458 -0.1355  0.1160  0.3053
 2062SOL    HW2 8293   2.190   3.207   3.551 -0.1892  0.3465  0.3624
 2062SOL    HW3 8294   2.278   3.196   3.427 -0.8386 -1.4196  0.0411
 2062SOL    MW4 8295   2.204   3.223   3.466 -0.2353 -0.0560  0.2780
 2063SOL     OW 8296   2.192   3.500   3.418 -0.0182  0.0691 -0.2192
 2063SOL    HW2 8297   2.185   3.407   3.441 -0.3502  0.0478 -0.4131
 2063SOL    HW3 8298   2.231   3.500   3.331  0.7927  0.1388  0.1311
 2063SOL    MW4 8299   2.196   3.488   3.410  0.0448  0.0751 -0.1986
 2064SOL     OW 8300   2.446   3.601   3.477 -0.5908  0.1122  0.1266
 2064SOL    HW2 8301   2.446   3.694   3.456  0.2818  0.1967  0.4583
 2064SOL    HW3 8302   2.354   3.575   3.472 -0.8990  1.0977  0.5352
 2064SOL    MW4 8303   2.434   3.610   3.473 -0.5164  0.2537  0.2244
 2065SOL     OW 8304   2.448   3.867   3.425  0.0149  0.3536  0.2904
 2065SOL    HW2 8305   2.523   3.910   3.465 -0.1414 -0.2529  1.2573
 2065SOL    HW3 8306   2.372   3.914   3.457 -0.1411 -0.4631  1.1362
 2065SOL    MW4 8307   2.448   3.879   3.434 -0.0265  0.1659  0.5295
 2066SOL     OW 8308   2.244   4.025   3.531  0.5274 -0.5106  0.1663
 2066SOL    HW2 8309   2.238   4.106   3.481  1.8775 -0.2556  0.3953
 2066SOL    HW3 8310   2.166   3.975   3.505 -0.4446  0.9446  0.2084
 2066SOL    MW4 8311   2.233   4.029   3.521  0.5772 -0.2847  0.2019
 2067SOL     OW 8312   2.246   4.281   3.426  0.8711  0.4657 -0.1192
 2067SOL    HW2 8313   2.162   4.320   3.451  1.0897  0.2242  0.9860
 2067SOL    HW3 8314   2.240   4.272   3.331 -1.4260 -1.9729  0.1861
 2067SOL    MW4 8315   2.234   4.285   3.417  0.5968  0.1121  0.0668
 2068SOL     OW 8316   2.503   4.422   3.518 -0.3363 -0.3400 -0.1188
 2068SOL    HW2 8317   2.510   4.422   3.613 -0.5487 -0.4320 -0.1039
 2068SOL    HW3 8318   2.417   4.386   3.500  0.1401 -1.3605 -0.3734
 2068SOL    MW4 8319   2.493   4.417   3.528 -0.3014 -0.4864 -0.1507
 2069SOL     OW 8320   2.895   4.666   3.427  0.1094  0.0982  0.5479
 2069SOL    HW2 8321   2.835   4.736   3.452 -2.0550 -1.5538  0.0387
 2069SOL    HW3 8322   2.894   4.666   3.331 -0.8496 -1.3962  0.5396
 2069SOL    MW4 8323   2.887   4.675   3.418 -0.3028 -0.3171  0.4795
 2070SOL     OW 8324   2.711   0.185   3.515 -0.0427  0.0463 -0.1187
 2070SOL    HW2 8325   2.705   0.272   3.477  0.5800 -0.6034 -1.7462
 2070SOL    HW3 8326   2.627   0.144   3.497  0.3146 -0.3236 -0.9838
 2070SOL    MW4 8327   2.699   0.191   3.508  0.0865 -0.0882 -0.4473
 2071SOL     OW 8328   2.690   0.419   3.403 -0.0392 -0.1689  0.0849
 2071SOL    HW2 8329   2.779   0.438   3.435  0.9563 -2.8394 -0.9045
 2071SOL    HW3 8330   2.701   0.409   3.308 -1.5445  0.1225 -0.1229
 2071SOL    MW4 8331   2.703   0.420   3.395 -0.1066 -0.4828 -0.0732
 2072SOL     OW 8332   2.912   0.519   3.522 -0.0024 -0.3634 -0.0475
 2072SOL    HW2 8333   2.920   0.534   3.616 -1.3884  1.8207 -0.2503
 2072SOL    HW3 8334   2.908   0.607   3.483 -1.5072 -1.2249 -1.9577
 2072SOL    MW4 8335   2.913   0.533   3.529 -0.3836 -0.1889 -0.3264
 2073SOL     OW 8336   2.902   0.769   3.389  0.1830 -0.2938  0.1133
 2073SOL    HW2 8337   2.971   0.825   3.424  0.3883 -0.0679 -0.6358
 2073SOL    HW3 8338   2.820   0.810   3.419  0.3225  0.6056 -0.7171
 2073SOL    MW4 8339   2.900   0.782   3.397  0.2284 -0.1454 -0.0951
 2074SOL     OW 8340   2.680   0.900   3.472  0.1904 -0.2553  0.2007
 2074SOL    HW2 8341   2.684   0.899   3.567 -1.9542  0.2841  0.3097
 2074SOL    HW3 8342   2.674   0.993   3.449 -0.3038 -0.4357 -0.4226
 2074SOL    MW4 8343   2.680   0.912   3.481 -0.1576 -0.2079  0.1328
 2075SOL     OW 8344   2.662   1.161   3.378 -0.2920  0.1309  0.7226
 2075SOL    HW2 8345   2.733   1.219   3.406 -0.0016 -0.6530  1.6088
 2075SOL    HW3 8346   2.667   1.163   3.282  1.8434 -1.0203  0.7712
 2075SOL    MW4 8347   2.672   1.169   3.369  0.0279 -0.1245  0.8457
 2076SOL     OW 8348   2.881   1.303   3.475 -0.4951 -0.0705 -0.3886
 2076SOL    HW2 8349   2.893   1.305   3.570 -0.1121  0.6102 -0.4539
 2076SOL    HW3 8350   2.954   1.250   3.443  0.5247  1.3833 -0.4877
 2076SOL    MW4 8351   2.892   1.296   3.483 -0.3099  0.2111 -0.4103
 2077SOL     OW 8352   2.876   1.560   3.392  0.1171  0.1073  0.0131
 2077SOL    HW2 8353   2.803   1.603   3.437  1.3680  1.9191  0.3700
 2077SOL    HW3 8354   2.872   1.469   3.421 -1.2709  0.4483  0.9561
 2077SOL    MW4 8355   2.866   1.554   3.402  0.0992  0.3912  0.1848
 2078SOL     OW 8356   2.664   1.695   3.514  0.1293  0.4794  0.2298
 2078SOL    HW2 8357   2.666   1.784   3.478 -0.6135  0.5155  0.2616
 2078SOL    HW3 8358   2.591   1.652   3.469  0.9265 -0.3347 -0.2930
 2078SOL    MW4 8359   2.655   1.701   3.504  0.1366  0.3768  0.1650
 2079SOL     OW 8360   2.728   1.938   3.389 -0.2704 -0.6888  0.5180
 2079SOL    HW2 8361   2.645   1.978   3.413 -0.9333 -0.9299 -1.2715
 2079SOL    HW3 8362   2.730   1.941   3.293  1.5087 -1.2371  0.5049
 2079SOL    MW4 8363   2.718   1.943   3.379 -0.1233 -0.7930  0.2804
 2080SOL     OW 8364   2.938   2.091   3.474  0.5586 -0.4493 -0.2190
 2080SOL    HW2 8365   2.951   2.083   3.568 -0.4322  0.2338 -0.0091
 2080SOL    HW3 8366   2.864   2.033   3.455  0.9266 -0.7928 -0.6246
 2080SOL    MW4 8367   2.930   2.082   3.484  0.4766 -0.4044 -0.2449
 2081SOL     OW 8368   2.862   2.346   3.372  0.0686  0.5376 -0.4922
 2081SOL    HW2 8369   2.890   2.265   3.416 -0.6720  1.2517  1.3394
 2081SOL    HW3 8370   2.868   2.325   3.279 -0.4807 -1.7679 -0.0605
 2081SOL    MW4 8371   2.867   2.332   3.366 -0.1018  0.3276 -0.1936
 2082SOL     OW 8372   2.659   2.467   3.518 -0.0854  0.5209 -0.4579
 2082SOL    HW2 8373   2.673   2.451   3.611  1.3654  2.1718 -0.3732
 2082SOL    HW3 8374   2.731   2.420   3.474  0.0688  0.9370 -0.6537
 2082SOL    MW4 8375   2.671   2.459   3.524  0.1261  0.7932 -0.4728
 2083SOL     OW 8376   2.697   2.718   3.382  0.2374 -0.3037 -0.6736
 2083SOL    HW2 8377   2.696   2.637   3.434  0.4975  1.2711  1.8653
 2083SOL    HW3 8378   2.615   2.761   3.405  0.7361  0.8022 -0.9544
 2083SOL    MW4 8379   2.686   2.713   3.392  0.3376  0.0501 -0.3760
 2084SOL     OW 8380   2.900   2.863   3.508 -0.3629  0.2634 -0.1150
 2084SOL    HW2 8381   2.896   2.842   3.602  0.0960  1.8823  0.2839
 2084SOL    HW3 8382   2.830   2.810   3.469 -1.2736  0.3799  1.3015
 2084SOL    MW4 8383   2.890   2.853   3.516 -0.4227  0.4926  0.1245
 2085SOL     OW 8384   2.921   3.123   3.401  0.0577  0.0876  0.0007
 2085SOL    HW2 8385   2.918   3.033   3.435  0.0753  0.4416  0.9598
 2085SOL    HW3 8386   2.915   3.113   3.306 -0.6979 -0.8906  0.1418
 2085SOL    MW4 8387   2.920   3.110   3.393 -0.0398  0.0055  0.1462
 2086SOL     OW 8388   2.682   3.222   3.505 -0.0485  0.0611 -0.2147
 2086SOL    HW2 8389   2.692   3.201   3.598 -0.2487 -1.0630 -0.4388
 2086SOL    HW3 8390   2.764   3.190   3.466 -0.0325  0.3948 -0.4457
 2086SOL    MW4 8391   2.694   3.215   3.512 -0.0730 -0.0429 -0.2747
 2087SOL     OW 8392   2.666   3.485   3.369  0.5044 -0.1616 -0.1962
 2087SOL    HW2 8393   2.669   3.400   3.413  0.3271 -1.3559 -2.4038
 2087SOL    HW3 8394   2.581   3.522   3.393  0.3971 -0.8187  0.4412
 2087SOL    MW4 8395   2.655   3.478   3.378  0.4668 -0.4060 -0.4034
 2088SOL     OW 8396   2.903   3.594   3.490 -0.2430 -0.2585  0.3313
 2088SOL    HW2 8397   2.901   3.687   3.467  2.3052 -0.2771 -0.1598
 2088SOL    HW3 8398   2.821   3.559   3.455 -1.2130  1.7829  0.4681
 2088SOL    MW4 8399   2.892   3.602   3.482 -0.0348  0.0081  0.2844
 2089SOL     OW 8400   2.886   3.852   3.395  0.1898  0.4760  0.1189
 2089SOL    HW2 8401   2.958   3.898   3.439 -0.1692  0.9974  0.1517
 2089SOL    HW3 8402   2.807   3.888   3.433 -0.1192  0.6786 -0.7091
 2089SOL    MW4 8403   2.885   3.863   3.406  0.1016  0.5715  0.0141
 2090SOL     OW 8404   2.667   3.999   3.524 -0.3288  0.3896 -0.4920
 2090SOL    HW2 8405   2.686   4.004   3.618  0.2954  0.9758 -0.6487
 2090SOL    HW3 8406   2.696   4.083   3.489  0.5639 -0.2909 -1.4083
 2090SOL    MW4 8407   2.673   4.011   3.532 -0.1287  0.3772 -0.6335
 2091SOL     OW 8408   2.713   4.258   3.427  0.3340 -0.4903  0.0209
 2091SOL    HW2 8409   2.789   4.305   3.462 -0.3630 -0.0476  0.9511
 2091SOL    HW3 8410   2.638   4.311   3.453 -0.3523 -1.3100 -0.2669
 2091SOL    MW4 8411   2.713   4.271   3.435  0.1514 -0.5393  0.1056
 2092SOL     OW 8412   2.904   4.395   3.552 -0.4034  0.0249 -0.3953
 2092SOL    HW2 8413   2.906   4.396   3.648  1.3094 -1.4953 -0.3849
 2092SOL    HW3 8414   2.908   4.487   3.527  0.1542  0.3965  0.9898
 2092SOL    MW4 8415   2.905   4.407   3.562 -0.1037 -0.1268 -0.2112
 2093SOL     OW 8416   3.385   4.641   3.365  0.2492 -0.3830  0.1783
 2093SOL    HW2 8417   3.314   4.679   3.416  0.2539 -0.0160 -0.0804
 2093SOL    HW3 8418   3.360   4.660   3.274  1.6334  1.4758  0.1531
 2093SOL    MW4 8419   3.372   4.649   3.359  0.4325 -0.0893  0.1409
 2094SOL     OW 8420   3.152   0.090   3.498  0.4374 -0.0170  0.2800
 2094SOL    HW2 8421   3.138   0.184   3.485 -0.0037 -0.1480 -0.2644
 2094SOL    HW3 8422   3.072   0.050   3.465  0.1109 -0.5157  1.6579
 2094SOL    MW4 8423   3.140   0.097   3.492  0.3359 -0.1000  0.3901
 2095SOL     OW 8424   3.114   0.358   3.436 -0.0718 -0.6363 -0.0779
 2095SOL    HW2 8425   3.053   0.424   3.469 -1.0453 -2.2425  1.4436
 2095SOL    HW3 8426   3.101   0.359   3.341  0.0612  1.4585 -0.1020
 2095SOL    MW4 8427   3.104   0.367   3.428 -0.1826 -0.5719  0.1194
 2096SOL     OW 8428   3.319   0.549   3.494  0.5045 -0.6020 -0.3169
 2096SOL    HW2 8429   3.364   0.539   3.578  0.4262 -0.2773 -0.2359
 2096SOL    HW3 8430   3.262   0.472   3.488  0.3496 -0.5169  0.0278
 2096SOL    MW4 8431   3.317   0.538   3.504  0.4740 -0.5479 -0.2606
 2097SOL     OW 8432   3.333   0.817   3.381 -0.0708 -0.1918 -0.0377
 2097SOL    HW2 8433   3.409   0.851   3.428 -0.5354 -0.2103  0.7351
 2097SOL    HW3 8434   3.322   0.728   3.415 -0.6866 -0.0460  0.1465
 2097SOL    MW4 8435   3.342   0.810   3.391 -0.2131 -0.1749  0.0885
 2098SOL     OW 8436   3.094   0.918   3.495  0.0828 -0.1774  0.6115
 2098SOL    HW2 8437   3.096   1.013   3.487 -0.2085 -0.2223 -0.0537
 2098SOL    HW3 8438   3.169   0.889   3.444 -0.3768 -0.3500  0.0258
 2098SOL    MW4 8439   3.104   0.927   3.487 -0.0165 -0.2061  0.4463
 2099SOL     OW 8440   3.113   1.192   3.399  0.2208 -0.3342 -0.2043
 2099SOL    HW2 8441   3.193   1.234   3.432  1.0737 -0.9120 -1.5262
 2099SOL    HW3 8442   3.132   1.174   3.307 -1.3671 -0.6563 -0.4693
 2099SOL    MW4 8443   3.126   1.195   3.391  0.1237 -0.4529 -0.4137
 2100SOL     OW 8444   3.347   1.302   3.503 -0.1177  0.3360 -0.6746
 2100SOL    HW2 8445   3.435   1.267   3.486  0.7075  0.9686  2.1612
 2100SOL    HW3 8446   3.351   1.392   3.470 -0.0027  0.0669 -1.4055
 2100SOL    MW4 8447   3.359   1.309   3.496  0.0064  0.3839 -0.3970
 2101SOL     OW 8448   3.371   1.577   3.411  0.0649 -0.3630  0.0979
 2101SOL    HW2 8449   3.445   1.620   3.453 -0.5242 -0.4662  1.2649
 2101SOL    HW3 8450   3.302   1.643   3.409  0.6049  0.1994 -2.2770
 2101SOL    MW4 8451   3.372   1.591   3.416  0.0584 -0.3024 -0.0615
 2102SOL     OW 8452   3.116   1.720   3.441  0.4200  0.0667  0.1140
 2102SOL    HW2 8453   3.110   1.815   3.430 -1.3464 -0.0096  0.1762
 2102SOL    HW3 8454   3.030   1.688   3.414  0.7765 -1.4560  0.7366
 2102SOL    MW4 8455   3.104   1.729   3.436  0.2339 -0.1441  0.2046
 2103SOL     OW 8456   3.161   1.972   3.373 -0.0648 -0.2397  0.0483
 2103SOL    HW2 8457   3.077   2.012   3.396 -0.4883 -0.5853 -0.8981
 2103SOL    HW3 8458   3.155   1.954   3.279  0.5325 -1.5590  0.2560
 2103SOL    MW4 8459   3.149   1.975   3.364 -0.0420 -0.4594 -0.0491
 2104SOL     OW 8460   3.390   2.094   3.495 -0.5412 -0.5191 -0.2181
 2104SOL    HW2 8461   3.382   2.184   3.463 -1.5411 -0.8331 -0.8919
 2104SOL    HW3 8462   3.314   2.049   3.458 -2.0795 -0.7647  3.0546
 2104SOL    MW4 8463   3.379   2.100   3.486 -0.8762 -0.5932  0.1247
 2105SOL     OW 8464   3.313   2.351   3.385 -0.0693 -0.0875 -0.0080
 2105SOL    HW2 8465   3.395   2.392   3.415  0.3184 -1.6134  1.0622
 2105SOL    HW3 8466   3.244   2.401   3.427  0.3788 -0.0209  0.6493
 2105SOL    MW4 8467   3.315   2.363   3.394  0.0408 -0.2797  0.2198
 2106SOL     OW 8468   3.101   2.470   3.501  0.4705  0.3058  0.0985
 2106SOL    HW2 8469   3.102   2.560   3.470  0.5255  0.6465  1.0895
 2106SOL    HW3 8470   3.014   2.438   3.477  0.0236  0.9876  0.7626
 2106SOL    MW4 8471   3.089   2.478   3.494  0.4189  0.4408  0.3166
 2107SOL     OW 8472   3.106   2.708   3.392  0.0672 -0.2632  0.0951
 2107SOL    HW2 8473   3.185   2.751   3.424 -0.3759 -0.2146  1.1228
 2107SOL    HW3 8474   3.034   2.759   3.428 -0.4473 -0.6286 -0.3984
 2107SOL    MW4 8475   3.107   2.721   3.401 -0.0591 -0.3049  0.1657
 2108SOL     OW 8476   3.347   2.854   3.472  0.5389 -0.6191  0.5029
 2108SOL    HW2 8477   3.432   2.830   3.433  1.4957  0.0817  2.0964
 2108SOL    HW3 8478   3.334   2.946   3.446  0.2563 -0.7298  0.2500
 2108SOL    MW4 8479   3.357   2.863   3.464  0.6280 -0.5410  0.6797
 2109SOL     OW 8480   3.339   3.130   3.415 -0.0320 -0.0050 -0.5745
 2109SOL    HW2 8481   3.422   3.165   3.448  0.3306  0.4617 -1.9428
 2109SOL    HW3 8482   3.272   3.172   3.468  0.5453  0.7184 -0.4141
 2109SOL    MW4 8483   3.341   3.140   3.426  0.0920  0.1519 -0.7341
 2110SOL     OW 8484   3.136   3.256   3.545  0.4120  0.5105  0.5343
 2110SOL    HW2 8485   3.136   3.346   3.511  2.4601  0.1554 -0.4778
 2110SOL    HW3 8486   3.061   3.215   3.504  0.7839  1.1276 -0.7915
 2110SOL    MW4 8487   3.126   3.262   3.536  0.7310  0.5450  0.2258
 2111SOL     OW 8488   3.144   3.503   3.406 -0.2034 -0.4849  0.1537
 2111SOL    HW2 8489   3.056   3.530   3.430 -0.7719 -1.3739 -0.8927
 2111SOL    HW3 8490   3.143   3.501   3.310  0.5417 -1.8222  0.1609
 2111SOL    MW4 8491   3.133   3.507   3.396 -0.1800 -0.7787  0.0165
 2112SOL     OW 8492   3.370   3.649   3.489  0.1883  0.3718  0.2961
 2112SOL    HW2 8493   3.370   3.736   3.449 -1.4291 -0.0036 -0.6162
 2112SOL    HW3 8494   3.291   3.607   3.453  0.5693 -1.2141  1.2599
 2112SOL    MW4 8495   3.359   3.655   3.479  0.0253  0.1128  0.3028
 2113SOL     OW 8496   3.356   3.890   3.382 -0.1263 -0.3686 -0.3050
 2113SOL    HW2 8497   3.422   3.952   3.415 -0.2792 -1.6297  2.4820
 2113SOL    HW3 8498   3.273   3.928   3.409 -0.2988 -0.9958  0.0580
 2113SOL    MW4 8499   3.354   3.903   3.390 -0.1690 -0.6177  0.1109
 2114SOL     OW 8500   3.120   4.000   3.457 -0.0787  0.3311 -0.0755
 2114SOL    HW2 8501   3.122   4.001   3.552  2.0184 -0.0473 -0.0948
 2114SOL    HW3 8502   3.122   4.092   3.431 -1.2547  0.4515  0.2379
 2114SOL    MW4 8503   3.121   4.012   3.466  0.0429  0.2971 -0.0367
 2115SOL     OW 8504   3.110   4.288   3.395  0.2770  0.2649  0.2544
 2115SOL    HW2 8505   3.183   4.337   3.433 -0.6121  2.1607 -0.4238
 2115SOL    HW3 8506   3.033   4.321   3.441 -0.2319 -1.3577  0.6082
 2115SOL    MW4 8507   3.109   4.299   3.406  0.0927  0.3009  0.2115
 2116SOL     OW 8508   3.348   4.394   3.481 -0.3971  0.0180  0.4547
 2116SOL    HW2 8509   3.376   4.409   3.571  0.0966 -0.9563  0.4646
 2116SOL    HW3 8510   3.366   4.477   3.436  0.8334 -0.0204  0.8746
 2116SOL    MW4 8511   3.354   4.407   3.487 -0.1693 -0.1149  0.5112
 2117SOL     OW 8512   3.835   0.024   3.381 -0.3670 -0.0573  0.1894
 2117SOL    HW2 8513   3.754   0.055   3.421 -0.5609 -0.2209 -0.0802
 2117SOL    HW3 8514   3.825   0.042   3.288 -0.2598 -0.4410  0.1027
 2117SOL    MW4 8515   3.823   0.031   3.374 -0.3781 -0.1295  0.1426
 2118SOL     OW 8516   3.599   0.139   3.497  0.5421  0.2558 -0.0882
 2118SOL    HW2 8517   3.599   0.230   3.467 -0.4317  0.1392 -0.4734
 2118SOL    HW3 8518   3.523   0.099   3.454 -0.8800  0.0596  2.4470
 2118SOL    MW4 8519   3.589   0.146   3.488  0.2260  0.2145  0.1955
 2119SOL     OW 8520   3.546   0.400   3.419 -0.2197  0.4441  0.2185
 2119SOL    HW2 8521   3.617   0.452   3.458 -0.9401  0.8138  1.0682
 2119SOL    HW3 8522   3.469   0.456   3.427 -0.8888 -0.5146  0.5882
 2119SOL    MW4 8523   3.545   0.414   3.426 -0.4032  0.3663  0.3793
 2120SOL     OW 8524   3.793   0.534   3.499  0.4507 -0.0621  0.0980
 2120SOL    HW2 8525   3.801   0.535   3.595 -0.5162 -0.4564  0.1878
 2120SOL    HW3 8526   3.868   0.483   3.470  2.2678  2.2971  0.4750
 2120SOL    MW4 8527   3.804   0.528   3.508  0.5629  0.1972  0.1593
 2121SOL     OW 8528   3.808   0.799   3.396  0.9013 -0.4672 -0.1329
 2121SOL    HW2 8529   3.890   0.835   3.431  0.5624 -0.2802  0.4666
 2121SOL    HW3 8530   3.805   0.710   3.432  0.4701 -0.2178  0.4609
 2121SOL    MW4 8531   3.819   0.792   3.406  0.7999 -0.4097  0.0243
 2122SOL     OW 8532   3.576   0.918   3.506  0.2307  0.6532 -0.5708
 2122SOL    HW2 8533   3.587   0.902   3.600  1.0516 -1.2528 -0.9911
 2122SOL    HW3 8534   3.663   0.906   3.469  0.0486  2.0747 -1.5013
 2122SOL    MW4 8535   3.589   0.915   3.514  0.3150  0.5893 -0.7491
 2123SOL     OW 8536   3.580   1.175   3.420 -0.1312 -0.6674  0.8072
 2123SOL    HW2 8537   3.560   1.086   3.451  2.4989 -2.3152 -2.0126
 2123SOL    HW3 8538   3.614   1.163   3.331 -1.8926  3.4027 -0.5165
 2123SOL    MW4 8539   3.582   1.161   3.413 -0.0165 -0.3477  0.2604
 2124SOL     OW 8540   3.825   1.283   3.525  0.1554  0.2516 -0.2537
 2124SOL    HW2 8541   3.837   1.281   3.620 -0.1413 -0.2897 -0.2299
 2124SOL    HW3 8542   3.740   1.243   3.510  0.5490 -0.3829 -0.8097
 2124SOL    MW4 8543   3.816   1.278   3.536  0.1683  0.0964 -0.3240
 2125SOL     OW 8544   3.809   1.544   3.428 -0.1126 -0.2585  0.1572
 2125SOL    HW2 8545   3.889   1.587   3.455 -0.4876 -0.3677  1.4920
 2125SOL    HW3 8546   3.813   1.458   3.471 -0.4884 -0.6229 -0.5394
 2125SOL    MW4 8547   3.820   1.538   3.437 -0.2115 -0.3210  0.2415
 2126SOL     OW 8548   3.602   1.679   3.534 -0.1058  0.0074  0.2967
 2126SOL    HW2 8549   3.594   1.769   3.501 -1.8571 -0.6744 -1.2555
 2126SOL    HW3 8550   3.675   1.642   3.484 -1.4023 -0.3773 -1.3329
 2126SOL    MW4 8551   3.611   1.686   3.523 -0.5081 -0.1334 -0.1228
 2127SOL     OW 8552   3.593   1.930   3.429  0.0030 -0.2410 -0.6701
 2127SOL    HW2 8553   3.665   1.990   3.447  0.3443 -0.9499  0.3817
 2127SOL    HW3 8554   3.514   1.979   3.450  0.2903 -0.2353  0.4123
 2127SOL    MW4 8555   3.592   1.944   3.434  0.0861 -0.3337 -0.3886
 2128SOL     OW 8556   3.796   2.089   3.521  0.5490  0.1643  0.0963
 2128SOL    HW2 8557   3.795   2.085   3.617  1.1171  1.0110  0.1446
 2128SOL    HW3 8558   3.877   2.046   3.496  0.8159  0.7049  0.0359
 2128SOL    MW4 8559   3.806   2.083   3.530  0.6595  0.3471  0.0949
 2129SOL     OW 8560   3.793   2.338   3.417 -0.3628  0.1941  0.1417
 2129SOL    HW2 8561   3.879   2.365   3.450 -0.1738  1.1031 -1.0710
 2129SOL    HW3 8562   3.771   2.260   3.469  1.6722 -0.6929 -0.2627
 2129SOL    MW4 8563   3.801   2.331   3.428 -0.0694  0.1967 -0.0718
 2130SOL     OW 8564   3.560   2.459   3.513 -0.4005  0.0997  0.2714
 2130SOL    HW2 8565   3.545   2.547   3.478 -1.2202 -0.1928 -0.1402
 2130SOL    HW3 8566   3.645   2.433   3.479  0.2289  1.0677  1.0874
 2130SOL    MW4 8567   3.569   2.467   3.504 -0.4256  0.1891  0.3247
 2131SOL     OW 8568   3.572   2.727   3.364  0.1901 -0.2214 -0.3707
 2131SOL    HW2 8569   3.659   2.763   3.379 -0.3231  0.8762 -0.0173
 2131SOL    HW3 8570   3.573   2.700   3.272  0.7472  0.2120 -0.4940
 2131SOL    MW4 8571   3.584   2.728   3.354  0.1960 -0.0196 -0.3405
 2132SOL     OW 8572   3.791   2.839   3.495 -0.5136 -0.2356 -0.4431
 2132SOL    HW2 8573   3.789   2.826   3.590 -2.6084  1.9799 -0.1421
 2132SOL    HW3 8574   3.808   2.933   3.485 -0.3735 -0.4533 -2.2620
 2132SOL    MW4 8575   3.793   2.850   3.506 -0.7718  0.0281 -0.6433
 2133SOL     OW 8576   3.830   3.127   3.446  0.1659 -0.4293  0.0481
 2133SOL    HW2 8577   3.917   3.160   3.466  0.5217 -1.0475 -0.4583
 2133SOL    HW3 8578   3.833   3.106   3.353 -0.9579  0.8706 -0.2869
 2133SOL    MW4 8579   3.842   3.128   3.437  0.0646 -0.3393 -0.0632
 2134SOL     OW 8580   3.574   3.238   3.509  0.3959  0.3436  0.6822
 2134SOL    HW2 8581   3.575   3.332   3.489  2.1284 -0.2080 -2.2351
 2134SOL    HW3 8582   3.660   3.207   3.482 -1.3958 -2.7209 -2.0169
 2134SOL    MW4 8583   3.585   3.246   3.503  0.3881 -0.1333 -0.0587
 2135SOL     OW 8584   3.604   3.503   3.416 -0.4505 -0.1284 -0.1557
 2135SOL    HW2 8585   3.525   3.554   3.435  0.5478  1.9883 -1.5441
 2135SOL    HW3 8586   3.601   3.489   3.321 -0.0015 -1.4993  0.0221
 2135SOL    MW4 8587   3.593   3.508   3.406 -0.2599 -0.0298 -0.3152
 2136SOL     OW 8588   3.838   3.623   3.478 -0.1619  0.0550  0.1365
 2136SOL    HW2 8589   3.835   3.618   3.573 -0.4476 -1.0481  0.0780
 2136SOL    HW3 8590   3.766   3.567   3.448 -0.0149  0.3153 -0.7267
 2136SOL    MW4 8591   3.828   3.615   3.486 -0.1802 -0.0560  0.0148
 2137SOL     OW 8592   3.783   3.880   3.406 -0.2814 -0.2691 -0.3170
 2137SOL    HW2 8593   3.718   3.936   3.448 -1.3123 -1.7512  0.0860
 2137SOL    HW3 8594   3.772   3.794   3.448  0.9576 -0.9049 -1.2535
 2137SOL    MW4 8595   3.773   3.876   3.417 -0.2537 -0.5486 -0.3874
 2138SOL     OW 8596   3.575   4.038   3.483 -0.5034  0.2103  0.1200
 2138SOL    HW2 8597   3.579   4.032   3.578  1.6927  0.0117  0.0370
 2138SOL    HW3 8598   3.598   4.129   3.464 -0.9654  0.2570 -0.2254
 2138SOL    MW4 8599   3.578   4.050   3.493 -0.2747  0.1903  0.0634
 2139SOL     OW 8600   3.609   4.305   3.378 -0.3183  0.2071  0.2475
 2139SOL    HW2 8601   3.519   4.327   3.403 -0.6643 -1.8042  0.8147
 2139SOL    HW3 8602   3.607   4.302   3.283 -0.9103 -0.0852  0.2668
 2139SOL    MW4 8603   3.597   4.308   3.369 -0.4420 -0.0968  0.3250
 2140SOL     OW 8604   3.806   4.416   3.514 -0.0570 -0.0845  0.5293
 2140SOL    HW2 8605   3.738   4.375   3.461  1.9132 -0.4952 -1.8002
 2140SOL    HW3 8606   3.822   4.500   3.471  0.4920  0.2486  1.3815
 2140SOL    MW4 8607   3.799   4.421   3.501  0.2754 -0.0954  0.3345
 2141SOL     OW 8608   4.283   4.657   3.409  0.6749  0.4985  0.4131
 2141SOL    HW2 8609   4.281   4.569   3.445 -2.0290  1.3740  2.5570
 2141SOL    HW3 8610   4.359   4.698   3.452 -0.6547  0.5373  2.8217
 2141SOL    MW4 8611   4.293   4.651   3.420  0.1426  0.6194  1.0140
 2142SOL     OW 8612   4.062   0.122   3.508 -0.5013 -0.2957 -0.5297
 2142SOL    HW2 8613   4.144   0.090   3.472 -0.6450 -0.6125 -0.5788
 2142SOL    HW3 8614   3.994   0.074   3.459 -0.7433  0.8827 -1.3888
 2142SOL    MW4 8615   4.064   0.112   3.497 -0.5517 -0.1820 -0.6495
 2143SOL     OW 8616   4.007   0.381   3.417  0.4579  0.2773  0.5138
 2143SOL    HW2 8617   4.025   0.296   3.456  1.6850  0.2950 -0.0029
 2143SOL    HW3 8618   4.013   0.366   3.322 -2.1850  0.2983  0.3082
 2143SOL    MW4 8619   4.010   0.368   3.409  0.2708  0.2824  0.4184
 2144SOL     OW 8620   4.261   0.501   3.548  0.3946  0.0231  0.9562
 2144SOL    HW2 8621   4.278   0.588   3.512 -1.1383 -0.0671  0.0093
 2144SOL    HW3 8622   4.189   0.466   3.496  2.9641 -3.0621 -0.6837
 2144SOL    MW4 8623   4.254   0.508   3.537  0.5312 -0.3958  0.6149
 2145SOL     OW 8624   4.281   0.759   3.437 -0.0966  0.4471  0.1623
 2145SOL    HW2 8625   4.364   0.805   3.451 -0.6238  1.3851  0.1657
 2145SOL    HW3 8626   4.273   0.752   3.342  1.4276 -2.2632  0.1583
 2145SOL    MW4 8627   4.291   0.764   3.426  0.0348  0.2133  0.1621
 2146SOL     OW 8628   4.051   0.913   3.527  1.1489  0.0960  0.1692
 2146SOL    HW2 8629   4.062   1.003   3.498 -0.6864 -0.0234 -1.0137
 2146SOL    HW3 8630   4.137   0.873   3.516  1.9833  1.6858  0.7126
 2146SOL    MW4 8631   4.064   0.920   3.522  1.0166  0.2900  0.0849
 2147SOL     OW 8632   4.047   1.169   3.416  0.6430 -0.1534 -0.1235
 2147SOL    HW2 8633   4.119   1.201   3.471 -0.1815  1.6659 -0.0444
 2147SOL    HW3 8634   3.968   1.205   3.456 -0.1097 -0.1822 -1.5348
 2147SOL    MW4 8635   4.046   1.178   3.428  0.4354  0.0829 -0.2992
 2148SOL     OW 8636   4.258   1.305   3.541 -0.0303 -0.1506  0.4551
 2148SOL    HW2 8637   4.263   1.392   3.499 -0.2512  0.5216  1.8002
 2148SOL    HW3 8638   4.334   1.258   3.506  0.1013  0.5829 -0.2876
 2148SOL    MW4 8639   4.269   1.310   3.531 -0.0424  0.0349  0.5343
 2149SOL     OW 8640   4.261   1.559   3.453  0.0630  0.2268 -0.2092
 2149SOL    HW2 8641   4.179   1.593   3.488 -0.3247  0.6339 -1.4958
 2149SOL    HW3 8642   4.248   1.557   3.358  1.4139 -0.0237 -0.4000
 2149SOL    MW4 8643   4.248   1.563   3.445  0.1898  0.2474 -0.4041
 2150SOL     OW 8644   4.021   1.663   3.541 -0.0174  0.2140 -0.0776
 2150SOL    HW2 8645   4.021   1.664   3.636  2.0491 -1.1501 -0.0501
 2150SOL    HW3 8646   4.000   1.754   3.516  0.8145  0.9013  1.6643
 2150SOL    MW4 8647   4.018   1.675   3.550  0.3653  0.1249  0.1559
 2151SOL     OW 8648   4.013   1.927   3.453 -0.2592  0.1736  0.1477
 2151SOL    HW2 8649   4.088   1.970   3.493 -0.2339  1.0885 -0.8273
 2151SOL    HW3 8650   4.029   1.935   3.359 -1.3784  0.0238 -0.0636
 2151SOL    MW4 8651   4.025   1.934   3.446 -0.4039  0.2747 -0.0088
 2152SOL     OW 8652   4.233   2.074   3.516  0.1375  0.0987 -0.1867
 2152SOL    HW2 8653   4.238   2.162   3.478 -0.2264 -0.0548 -0.6007
 2152SOL    HW3 8654   4.304   2.026   3.473 -2.1537 -0.9494 -3.0485
 2152SOL    MW4 8655   4.243   2.079   3.505 -0.2131 -0.0598 -0.6189
 2153SOL     OW 8656   4.269   2.322   3.419  0.0531 -0.0194 -0.0214
 2153SOL    HW2 8657   4.197   2.376   3.450  0.8224  1.1800 -0.2810
 2153SOL    HW3 8658   4.258   2.320   3.323  0.5100  0.3897 -0.0854
 2153SOL    MW4 8659   4.258   2.329   3.410  0.2151  0.1926 -0.0639
 2154SOL     OW 8660   4.039   2.429   3.537  0.2586 -0.0974 -0.0813
 2154SOL    HW2 8661   4.037   2.431   3.633  1.5098 -0.9701 -0.0149
 2154SOL    HW3 8662   4.027   2.520   3.510  0.9245  0.2960  0.9362
 2154SOL    MW4 8663   4.037   2.441   3.546  0.5116 -0.1605  0.0615
 2155SOL     OW 8664   4.025   2.690   3.455 -0.4970  0.2098 -0.4651
 2155SOL    HW2 8665   4.104   2.742   3.466 -0.3858  0.3364 -1.7614
 2155SOL    HW3 8666   3.953   2.753   3.455 -0.5339  0.1688 -0.0582
 2155SOL    MW4 8667   4.026   2.705   3.456 -0.4869  0.2213 -0.5825
 2156SOL     OW 8668   4.240   2.859   3.495  0.0900  0.1900 -0.1503
 2156SOL    HW2 8669   4.242   2.883   3.587 -0.1032  3.5717 -0.9843
 2156SOL    HW3 8670   4.326   2.821   3.478  0.2571 -0.1143  1.3216
 2156SOL    MW4 8671   4.251   2.857   3.505  0.0868  0.5963 -0.0663
 2157SOL     OW 8672   4.298   3.116   3.375  0.2690 -0.2216 -0.1583
 2157SOL    HW2 8673   4.288   3.034   3.424  1.4667 -0.3900 -0.1896
 2157SOL    HW3 8674   4.281   3.091   3.284 -1.5332  0.0079  0.0987
 2157SOL    MW4 8675   4.294   3.102   3.369  0.1893 -0.2136 -0.1280
 2158SOL     OW 8676   4.091   3.230   3.515  0.3617 -0.1088  0.1571
 2158SOL    HW2 8677   4.082   3.323   3.495 -0.7776 -0.4899 -1.1904
 2158SOL    HW3 8678   4.161   3.199   3.458  0.9466 -0.0093  0.8241
 2158SOL    MW4 8679   4.099   3.238   3.505  0.2890 -0.1462  0.0672
 2159SOL     OW 8680   4.060   3.479   3.398 -0.3903 -0.5043  0.2631
 2159SOL    HW2 8681   4.131   3.521   3.447  0.3669 -0.6560 -0.6991
 2159SOL    HW3 8682   3.987   3.541   3.404  0.5394  0.7161 -0.6691
 2159SOL    MW4 8683   4.060   3.493   3.405 -0.1669 -0.3633  0.0134
 2160SOL     OW 8684   4.260   3.621   3.512 -0.1697  0.0030 -0.3158
 2160SOL    HW2 8685   4.266   3.636   3.607  0.7957  0.1299 -0.3959
 2160SOL    HW3 8686   4.249   3.709   3.475  0.3850  0.0404 -0.3925
 2160SOL    MW4 8687   4.259   3.635   3.520  0.0305  0.0246 -0.3369
 2161SOL     OW 8688   4.223   3.878   3.412 -0.1330 -0.2829  0.3535
 2161SOL    HW2 8689   4.301   3.925   3.439 -0.6420  0.8427 -0.0733
 2161SOL    HW3 8690   4.234   3.865   3.318 -1.1453  1.2648 -0.0060
 2161SOL    MW4 8691   4.235   3.882   3.403 -0.3333  0.0699  0.2499
 2162SOL     OW 8692   3.986   4.036   3.454 -0.1242  0.2541  0.5147
 2162SOL    HW2 8693   4.064   3.988   3.427 -0.0013  0.3401  0.7236
 2162SOL    HW3 8694   3.914   3.973   3.441 -0.3087  0.8733 -1.7456
 2162SOL    MW4 8695   3.987   4.021   3.449 -0.1326  0.3467  0.2441
 2163SOL     OW 8696   4.020   4.307   3.395 -0.0139  0.2558  0.1857
 2163SOL    HW2 8697   3.998   4.215   3.406  0.3439 -0.0235 -1.2893
 2163SOL    HW3 8698   3.947   4.354   3.435 -0.1403 -0.6707  1.0475
 2163SOL    MW4 8699   4.008   4.301   3.402  0.0167  0.0963  0.1049
 2164SOL     OW 8700   4.289   4.397   3.482  0.1185  0.4037 -0.5861
 2164SOL    HW2 8701   4.288   4.382   3.576 -1.5321  1.6983 -0.3778
 2164SOL    HW3 8702   4.204   4.366   3.452  0.3233  0.7480 -1.5317
 2164SOL    MW4 8703   4.278   4.391   3.490 -0.0730  0.6204 -0.6833
 2165SOL     OW 8704   0.267   4.660   3.904 -0.0851  0.3035  0.0954
 2165SOL    HW2 8705   0.281   4.651   3.999  2.2508  1.2427 -0.1274
 2165SOL    HW3 8706   0.184   4.706   3.896 -0.7700 -0.6122  1.6627
 2165SOL    MW4 8707   0.258   4.665   3.916  0.1327  0.3066  0.2728
 2166SOL     OW 8708   0.022   0.098   3.826  0.2330  0.2469 -0.3765
 2166SOL    HW2 8709  -0.002   0.185   3.857  0.2694 -0.3981  1.5246
 2166SOL    HW3 8710   0.027   0.107   3.731  1.5482  2.6457 -0.1336
 2166SOL    MW4 8711   0.020   0.111   3.817  0.4113  0.4783 -0.0937
 2167SOL     OW 8712   0.044   0.390   3.897 -0.0513 -0.2189 -0.5917
 2167SOL    HW2 8713  -0.040   0.426   3.869  0.0979 -0.2729 -1.1268
 2167SOL    HW3 8714   0.108   0.429   3.836  0.3982  0.3473  0.2274
 2167SOL    MW4 8715   0.042   0.400   3.885  0.0278 -0.1513 -0.5543
 2168SOL     OW 8716   0.260   0.478   3.743 -0.3173 -0.0643 -0.0737
 2168SOL    HW2 8717   0.250   0.567   3.775 -1.8459 -0.3562  0.2955
 2168SOL    HW3 8718   0.262   0.487   3.647  0.3735  0.4319 -0.0181
 2168SOL    MW4 8719   0.259   0.491   3.734 -0.4279 -0.0374 -0.0176
 2169SOL     OW 8720   0.249   0.729   3.864 -0.2261 -0.2669 -0.4940
 2169SOL    HW2 8721   0.243   0.706   3.957 -0.2989  0.2840 -0.3580
 2169SOL    HW3 8722   0.169   0.779   3.847 -0.4938 -0.8745 -0.9984
 2169SOL    MW4 8723   0.238   0.733   3.874 -0.2710 -0.2744 -0.5424
 2170SOL     OW 8724   0.018   0.874   3.803 -0.0112  0.0843 -0.5180
 2170SOL    HW2 8725  -0.060   0.833   3.840  1.1120 -1.0675  0.6629
 2170SOL    HW3 8726   0.020   0.962   3.840 -0.4732 -0.0597 -0.1500
 2170SOL    MW4 8727   0.008   0.880   3.812  0.0760 -0.0867 -0.3135
 2171SOL     OW 8728   0.010   1.149   3.894  0.1909 -0.0809  0.1658
 2171SOL    HW2 8729  -0.065   1.192   3.853  0.2250  0.4486  0.6592
 2171SOL    HW3 8730   0.086   1.200   3.866  0.3994 -0.7561 -0.5236
 2171SOL    MW4 8731   0.010   1.161   3.885  0.2229 -0.1001  0.1402
 2172SOL     OW 8732   0.252   1.305   3.817  0.1557 -0.5056 -0.5455
 2172SOL    HW2 8733   0.247   1.390   3.859  1.9482 -0.3779 -0.5453
 2172SOL    HW3 8734   0.228   1.321   3.726  1.8683  0.2904 -0.8867
 2172SOL    MW4 8735   0.249   1.318   3.811  0.6182 -0.3837 -0.5906
 2173SOL     OW 8736   0.260   1.576   3.919  0.1644 -0.2659 -0.4418
 2173SOL    HW2 8737   0.263   1.566   4.015 -0.0176  1.9450 -0.1841
 2173SOL    HW3 8738   0.176   1.618   3.902  0.8816  0.7926 -1.4257
 2173SOL    MW4 8739   0.250   1.580   3.930  0.2350  0.1655 -0.5376
 2174SOL     OW 8740   0.030   1.704   3.810  0.0396  0.4894  0.1420
 2174SOL    HW2 8741   0.006   1.796   3.820 -0.0667  0.6258 -1.2968
 2174SOL    HW3 8742   0.022   1.687   3.716  1.0333 -0.7155  0.2586
 2174SOL    MW4 8743   0.026   1.714   3.799  0.1567  0.3484 -0.0322
 2175SOL     OW 8744   4.490   1.985   3.861  0.0493  0.2059 -0.3413
 2175SOL    HW2 8745   4.488   1.984   3.956  0.5099  1.5970 -0.3022
 2175SOL    HW3 8746   4.410   2.030   3.835 -1.1462 -2.0619 -0.6928
 2175SOL    MW4 8747   4.479   1.991   3.870 -0.0472  0.0902 -0.3824
 2176SOL     OW 8748   0.210   2.071   3.729 -0.3870 -0.4323  0.5128
 2176SOL    HW2 8749   0.224   2.161   3.760  1.4276 -0.5455  0.0577
 2176SOL    HW3 8750   0.136   2.039   3.781 -1.5022  1.5539  0.2049
 2176SOL    MW4 8751   0.202   2.079   3.740 -0.2947 -0.1850  0.4120
 2177SOL     OW 8752   0.262   2.323   3.833  0.5592 -0.1262  0.2582
 2177SOL    HW2 8753   0.261   2.293   3.924  0.4953  0.5575  0.4838
 2177SOL    HW3 8754   0.181   2.372   3.823  0.3393 -0.5945 -0.3081
 2177SOL    MW4 8755   0.251   2.325   3.843  0.5218 -0.0980  0.2129
 2178SOL     OW 8756   0.014   2.432   3.753 -0.0898 -0.4451 -0.4764
 2178SOL    HW2 8757  -0.058   2.372   3.771  0.3788 -0.8008  0.2131
 2178SOL    HW3 8758  -0.014   2.515   3.792  0.5913 -1.0120  1.2500
 2178SOL    MW4 8759   0.001   2.435   3.760  0.0619 -0.5667 -0.1576
 2179SOL     OW 8760   4.480   2.702   3.840 -0.2908 -0.1575 -0.2890
 2179SOL    HW2 8761   4.492   2.693   3.935 -1.1342 -0.2894 -0.1858
 2179SOL    HW3 8762   4.561   2.742   3.809 -0.4491  0.9178  0.6532
 2179SOL    MW4 8763   4.492   2.706   3.849 -0.4229 -0.0329 -0.1512
 2180SOL     OW 8764   0.225   2.836   3.756 -0.2997  0.6620  0.2433
 2180SOL    HW2 8765   0.311   2.795   3.768 -0.4852  0.5042  1.1001
 2180SOL    HW3 8766   0.226   2.867   3.666  1.2729  2.0445  0.7030
 2180SOL    MW4 8767   0.237   2.835   3.746 -0.1167  0.8235  0.4170
 2181SOL     OW 8768   0.251   3.081   3.884  0.2441 -0.5160 -0.2199
 2181SOL    HW2 8769   0.234   3.060   3.976  0.9437 -0.6421 -0.1121
 2181SOL    HW3 8770   0.243   2.997   3.839 -0.8312 -0.3289 -0.3932
 2181SOL    MW4 8771   0.248   3.067   3.890  0.1945 -0.5081 -0.2284
 2182SOL     OW 8772   0.003   3.232   3.810 -0.7100  0.6754 -0.0352
 2182SOL    HW2 8773   0.081   3.181   3.831 -1.4158 -0.8004 -0.9229
 2182SOL    HW3 8774   0.001   3.236   3.714 -1.6799  0.7642 -0.0204
 2182SOL    MW4 8775   0.013   3.226   3.800 -0.9311  0.4923 -0.1504
 2183SOL     OW 8776   4.489   3.501   3.851 -0.3146  0.1930  0.1088
 2183SOL    HW2 8777   4.571   3.539   3.820 -0.3064  0.0880  0.0018
 2183SOL    HW3 8778   4.490   3.411   3.818 -0.2110  0.0177  0.5810
 2183SOL    MW4 8779   4.500   3.494   3.843 -0.2995  0.1559  0.1566
 2184SOL     OW 8780   0.243   3.598   3.791  0.4073  0.6806  0.1811
 2184SOL    HW2 8781   0.318   3.562   3.839  1.2859  0.2999 -1.4332
 2184SOL    HW3 8782   0.241   3.690   3.817 -1.2764 -0.2527  3.5950
 2184SOL    MW4 8783   0.253   3.606   3.801  0.3011  0.5074  0.4187
 2185SOL     OW 8784   0.241   3.850   3.880  0.3378 -0.0517 -0.0860
 2185SOL    HW2 8785   0.235   3.857   3.975  1.1875 -1.1905  0.0559
 2185SOL    HW3 8786   0.316   3.905   3.857 -0.4076  0.9370 -0.2002
 2185SOL    MW4 8787   0.250   3.858   3.889  0.3515 -0.0713 -0.0825
 2186SOL     OW 8788   0.024   3.993   3.765  0.2415 -0.0310  0.0079
 2186SOL    HW2 8789  -0.062   3.967   3.797  0.2294  1.0060  0.8381
 2186SOL    HW3 8790   0.085   3.932   3.807 -0.0562 -0.6258 -0.4131
 2186SOL    MW4 8791   0.021   3.981   3.774  0.2003  0.0274  0.0618
 2187SOL     OW 8792   0.017   4.238   3.873  0.6937 -0.7104  0.1271
 2187SOL    HW2 8793   0.101   4.275   3.844  0.3552  0.3479  0.4790
 2187SOL    HW3 8794   0.019   4.148   3.841  2.4943 -1.0697  1.1751
 2187SOL    MW4 8795   0.029   4.231   3.865  0.8866 -0.6180  0.3119
 2188SOL     OW 8796   0.242   4.393   3.794 -0.1927 -0.2830  0.1884
 2188SOL    HW2 8797   0.307   4.341   3.841  0.0371  1.3617  1.7475
 2188SOL    HW3 8798   0.246   4.479   3.835 -3.3761 -0.1579  0.3560
 2188SOL    MW4 8799   0.251   4.397   3.805 -0.5824 -0.0496  0.4160
 2189SOL     OW 8800   0.690   4.653   3.841 -0.1448  0.1621 -0.1338
 2189SOL    HW2 8801   0.681   4.562   3.812 -0.5175 -0.2446  1.2125
 2189SOL    HW3 8802   0.610   4.696   3.811  0.8464  0.5223 -2.3877
 2189SOL    MW4 8803   0.678   4.646   3.833 -0.0632  0.1559 -0.2534
 2190SOL     OW 8804   0.476   0.121   3.755  0.2197 -0.1448  0.2103
 2190SOL    HW2 8805   0.495   0.205   3.797 -0.6093  0.1803 -0.0610
 2190SOL    HW3 8806   0.412   0.078   3.812 -0.8345  0.2565 -0.6496
 2190SOL    MW4 8807   0.470   0.126   3.768 -0.0287 -0.0490  0.0610
 2191SOL     OW 8808   0.472   0.356   3.889  0.0516  0.1100 -0.6922
 2191SOL    HW2 8809   0.545   0.404   3.851 -1.3003  2.4827 -0.3951
 2191SOL    HW3 8810   0.394   0.394   3.848 -1.1214 -0.9801  0.4772
 2191SOL    MW4 8811   0.472   0.368   3.879 -0.2816  0.2792 -0.4988
 2192SOL     OW 8812   0.672   0.502   3.786  0.2198 -0.8358 -0.0488
 2192SOL    HW2 8813   0.753   0.458   3.812  0.0401 -0.2913  1.5369
 2192SOL    HW3 8814   0.684   0.592   3.815 -1.1256 -0.8610  0.6364
 2192SOL    MW4 8815   0.684   0.508   3.793  0.0186 -0.7674  0.2508
 2193SOL     OW 8816   0.709   0.776   3.877 -0.0568  0.1176  0.7694
 2193SOL    HW2 8817   0.781   0.834   3.853 -0.1709  0.1412  0.4896
 2193SOL    HW3 8818   0.630   0.821   3.847 -0.1267 -0.3104  0.3057
 2193SOL    MW4 8819   0.708   0.790   3.870 -0.0810  0.0643  0.6714
 2194SOL     OW 8820   0.457   0.895   3.788 -0.1013 -0.2131 -0.2854
 2194SOL    HW2 8821   0.453   0.979   3.834  1.3288 -0.7784  0.9322
 2194SOL    HW3 8822   0.376   0.851   3.811 -0.7427  0.7187 -0.7250
 2194SOL    MW4 8823   0.446   0.900   3.797  0.0028 -0.1647 -0.1831
 2195SOL     OW 8824   0.471   1.168   3.895  0.0679  0.4112  0.0605
 2195SOL    HW2 8825   0.542   1.222   3.860 -0.2892  0.8491 -0.0064
 2195SOL    HW3 8826   0.391   1.209   3.860 -0.2428  0.2927  0.6288
 2195SOL    MW4 8827   0.470   1.181   3.886 -0.0202  0.4535  0.1268
 2196SOL     OW 8828   0.678   1.296   3.788  0.4312 -0.4808 -0.4031
 2196SOL    HW2 8829   0.764   1.257   3.799  0.2526 -0.8092 -0.1751
 2196SOL    HW3 8830   0.661   1.290   3.694  0.4903 -0.7682 -0.3953
 2196SOL    MW4 8831   0.687   1.290   3.777  0.4155 -0.5620 -0.3719
 2197SOL     OW 8832   0.653   1.551   3.928  0.1044 -0.1371  0.2308
 2197SOL    HW2 8833   0.728   1.596   3.888  0.6151 -0.4854  0.7807
 2197SOL    HW3 8834   0.649   1.467   3.882  1.2669 -0.9244  1.5063
 2197SOL    MW4 8835   0.662   1.546   3.917  0.3251 -0.2869  0.4716
 2198SOL     OW 8836   0.468   1.682   3.766  0.0368 -0.2541  0.2664
 2198SOL    HW2 8837   0.541   1.644   3.816  0.4482  0.3156  0.1015
 2198SOL    HW3 8838   0.390   1.643   3.804  0.3552  0.1368  1.3183
 2198SOL    MW4 8839   0.467   1.672   3.777  0.1331 -0.1274  0.3836
 2199SOL     OW 8840   0.437   1.942   3.851  0.2661  0.7207  0.6676
 2199SOL    HW2 8841   0.438   1.853   3.816  0.0913  0.8179  0.4107
 2199SOL    HW3 8842   0.359   1.982   3.813  1.9205  1.9299 -1.6161
 2199SOL    MW4 8843   0.427   1.936   3.841  0.4613  0.8931  0.3326
 2200SOL     OW 8844   0.680   2.072   3.783 -0.1220  0.4509 -0.2319
 2200SOL    HW2 8845   0.675   2.158   3.826  0.0526  0.3698 -0.0471
 2200SOL    HW3 8846   0.600   2.027   3.809 -0.6970  0.9342 -1.1457
 2200SOL    MW4 8847   0.669   2.078   3.792 -0.1748  0.5040 -0.3278
 2201SOL     OW 8848   0.657   2.326   3.893 -0.5323 -0.0117  0.0822
 2201SOL    HW2 8849   0.749   2.353   3.892 -0.7490  0.7587 -0.1236
 2201SOL    HW3 8850   0.616   2.383   3.828 -1.1249 -0.4651  0.0602
 2201SOL    MW4 8851   0.664   2.337   3.884 -0.6391  0.0300  0.0522
 2202SOL     OW 8852   0.479   2.491   3.743 -0.5350  0.4675 -0.6617
 2202SOL    HW2 8853   0.415   2.427   3.776 -0.1594  0.8185  0.7504
 2202SOL    HW3 8854   0.477   2.478   3.648 -1.8726 -0.3154 -0.5522
 2202SOL    MW4 8855   0.470   2.481   3.734 -0.6619  0.4103 -0.4609
 2203SOL     OW 8856   0.494   2.739   3.846  0.0032  0.1106 -0.2517
 2203SOL    HW2 8857   0.579   2.778   3.826  0.0456  0.4185  0.5193
 2203SOL    HW3 8858   0.498   2.652   3.808  0.6577  0.1314 -0.2313
 2203SOL    MW4 8859   0.506   2.733   3.839  0.0952  0.1540 -0.1473
 2204SOL     OW 8860   0.726   2.866   3.756  0.1847  0.5660  0.6148
 2204SOL    HW2 8861   0.791   2.799   3.776 -1.1831 -1.0525 -0.2806
 2204SOL    HW3 8862   0.712   2.859   3.661 -1.0366  1.1510  0.7438
 2204SOL    MW4 8863   0.733   2.856   3.746 -0.1569  0.4296  0.5133
 2205SOL     OW 8864   0.681   3.119   3.888  0.3824  0.4076 -0.7871
 2205SOL    HW2 8865   0.706   3.110   3.980  1.5280  0.4040 -1.0917
 2205SOL    HW3 8866   0.692   3.031   3.852  0.7546  0.5932 -1.1266
 2205SOL    MW4 8867   0.685   3.106   3.896  0.5826  0.4315 -0.8719
 2206SOL     OW 8868   0.461   3.243   3.806  0.1694 -0.5368  0.2553
 2206SOL    HW2 8869   0.543   3.201   3.832  0.1412 -0.8024 -0.0743
 2206SOL    HW3 8870   0.393   3.184   3.838  0.1098 -0.2806  0.5892
 2206SOL    MW4 8871   0.463   3.230   3.813  0.1578 -0.5381  0.2561
 2207SOL     OW 8872   0.443   3.495   3.945 -0.1973  0.6311  0.2882
 2207SOL    HW2 8873   0.516   3.552   3.920  1.3345 -0.2495  2.5915
 2207SOL    HW3 8874   0.462   3.412   3.902 -0.2035  0.6113  0.3236
 2207SOL    MW4 8875   0.455   3.492   3.936  0.0040  0.5124  0.5970
 2208SOL     OW 8876   0.643   3.618   3.815 -0.0951  0.0821  0.6311
 2208SOL    HW2 8877   0.646   3.714   3.818 -0.3483  0.0908  0.6647
 2208SOL    HW3 8878   0.634   3.597   3.722  3.4736 -0.0355  0.2629
 2208SOL    MW4 8879   0.642   3.628   3.803  0.3423  0.0677  0.5867
 2209SOL     OW 8880   0.669   3.891   3.894  0.2262  0.3272 -0.0436
 2209SOL    HW2 8881   0.682   3.872   3.987 -0.0323  0.3600 -0.0018
 2209SOL    HW3 8882   0.743   3.946   3.870 -0.1494  0.9933  0.3345
 2209SOL    MW4 8883   0.681   3.895   3.903  0.1426  0.4196  0.0117
 2210SOL     OW 8884   0.443   4.016   3.798 -0.1867  0.4481  0.1699
 2210SOL    HW2 8885   0.525   3.971   3.815  0.7440  1.9830 -0.1402
 2210SOL    HW3 8886   0.445   4.036   3.704 -1.6316 -0.8653 -0.1666
 2210SOL    MW4 8887   0.454   4.013   3.788 -0.2545  0.4773  0.0844
 2211SOL     OW 8888   0.447   4.254   3.912 -0.1554  0.3755 -0.3867
 2211SOL    HW2 8889   0.517   4.292   3.858  0.5248  0.9292  0.8734
 2211SOL    HW3 8890   0.437   4.164   3.879  1.9968 -0.1058  0.2496
 2211SOL    MW4 8891   0.455   4.247   3.900  0.2183  0.3853 -0.1364
 2212SOL     OW 8892   0.659   4.380   3.768  0.3913  0.2080  0.3543
 2212SOL    HW2 8893   0.743   4.355   3.806  0.9239  0.7812 -0.4443
 2212SOL    HW3 8894   0.673   4.377   3.674 -0.8683 -1.0136  0.1794
 2212SOL    MW4 8895   0.672   4.376   3.761  0.2954  0.1225  0.2258
 2213SOL     OW 8896   1.158   0.017   3.887  0.2225  0.2813 -0.3084
 2213SOL    HW2 8897   1.224   0.068   3.841 -0.9772  0.1769 -2.1773
 2213SOL    HW3 8898   1.167  -0.072   3.852 -0.2077  0.0303  0.2049
 2213SOL    MW4 8899   1.168   0.012   3.876  0.0075  0.2343 -0.4871
 2214SOL     OW 8900   0.927   0.142   3.765  0.0501 -0.1791  0.2705
 2214SOL    HW2 8901   0.996   0.097   3.813  0.1854  0.3436  0.5757
 2214SOL    HW3 8902   0.851   0.085   3.772  0.2450 -0.4001  0.5740
 2214SOL    MW4 8903   0.926   0.129   3.772  0.0937 -0.1393  0.3507
 2215SOL     OW 8904   0.893   0.382   3.911 -0.1998 -0.1358  0.2370
 2215SOL    HW2 8905   0.907   0.369   4.005 -0.6159 -0.4276  0.2604
 2215SOL    HW3 8906   0.911   0.296   3.872 -2.2439 -0.6183  0.3090
 2215SOL    MW4 8907   0.897   0.369   3.918 -0.5245 -0.2379  0.2499
 2216SOL     OW 8908   1.086   0.532   3.781  0.0554 -0.0462  0.0851
 2216SOL    HW2 8909   1.163   0.483   3.810 -0.3782 -0.2497  0.9228
 2216SOL    HW3 8910   1.013   0.488   3.824 -0.5882 -0.2069 -1.1618
 2216SOL    MW4 8911   1.087   0.519   3.790 -0.0869 -0.0943  0.0312
 2217SOL     OW 8912   1.136   0.782   3.903  0.7023 -0.0025 -0.0468
 2217SOL    HW2 8913   1.136   0.773   3.999 -1.8447 -0.5374 -0.0378
 2217SOL    HW3 8914   1.116   0.693   3.872 -0.3125  0.5372 -0.9730
 2217SOL    MW4 8915   1.133   0.769   3.912  0.2325 -0.0018 -0.1678
 2218SOL     OW 8916   0.917   0.922   3.783  0.2120 -0.7278  0.4243
 2218SOL    HW2 8917   0.986   0.889   3.840  1.1114 -0.0657 -0.2841
 2218SOL    HW3 8918   0.941   0.893   3.695  0.1871  0.4698  0.0158
 2218SOL    MW4 8919   0.929   0.913   3.779  0.3273 -0.4824  0.2770
 2219SOL     OW 8920   0.936   1.192   3.855 -0.1963 -0.1384  0.0757
 2219SOL    HW2 8921   0.912   1.180   3.946  1.0792  0.3132  0.4837
 2219SOL    HW3 8922   0.923   1.106   3.815  0.2841 -0.6208  0.9346
 2219SOL    MW4 8923   0.931   1.179   3.861  0.0355 -0.1426  0.2427
 2220SOL     OW 8924   1.169   1.331   3.746  0.3798 -0.0408 -0.3274
 2220SOL    HW2 8925   1.179   1.420   3.781 -0.2070  0.7437 -2.1161
 2220SOL    HW3 8926   1.094   1.295   3.792 -0.1328  0.8367 -0.4622
 2220SOL    MW4 8927   1.161   1.338   3.757  0.2348  0.1786 -0.5813
 2221SOL     OW 8928   1.145   1.600   3.822  0.3369  0.1522 -0.0742
 2221SOL    HW2 8929   1.151   1.598   3.918  0.5501 -1.0562 -0.1002
 2221SOL    HW3 8930   1.216   1.658   3.795  0.4692  0.2557  0.4902
 2221SOL    MW4 8931   1.155   1.607   3.831  0.3824  0.0064 -0.0031
 2222SOL     OW 8932   0.880   1.683   3.779  0.4161 -0.2242 -0.1268
 2222SOL    HW2 8933   0.960   1.632   3.791  0.5488  0.0011 -0.0376
 2222SOL    HW3 8934   0.878   1.703   3.686 -0.3933 -1.6182 -0.4186
 2222SOL    MW4 8935   0.890   1.679   3.768  0.3268 -0.3784 -0.1535
 2223SOL     OW 8936   0.893   1.943   3.879 -0.0408 -0.0659  0.0608
 2223SOL    HW2 8937   0.899   1.857   3.837  1.1601 -0.4163  0.9218
 2223SOL    HW3 8938   0.816   1.984   3.840  0.7719 -0.5737 -2.1350
 2223SOL    MW4 8939   0.884   1.937   3.869  0.2249 -0.1792 -0.1152
 2224SOL     OW 8940   1.129   2.077   3.835 -0.0852  0.1388 -0.2300
 2224SOL    HW2 8941   1.049   2.029   3.857  0.9775 -1.0747  1.1143
 2224SOL    HW3 8942   1.143   2.059   3.742 -0.6017 -0.8443 -0.1206
 2224SOL    MW4 8943   1.121   2.068   3.826 -0.0132 -0.1509 -0.0379
 2225SOL     OW 8944   1.146   2.322   3.956 -0.0666  0.0785  0.3082
 2225SOL    HW2 8945   1.172   2.320   4.048  1.0409  0.9780  0.0232
 2225SOL    HW3 8946   1.147   2.230   3.929  1.2182 -0.0483  0.7502
 2225SOL    MW4 8947   1.149   2.310   3.964  0.2490  0.1802  0.3290
 2226SOL     OW 8948   0.899   2.398   3.852 -0.1069  0.0264  0.3276
 2226SOL    HW2 8949   0.910   2.493   3.860 -0.4450 -0.0205  1.5713
 2226SOL    HW3 8950   0.979   2.362   3.889  0.5820 -0.1694 -1.3184
 2226SOL    MW4 8951   0.911   2.406   3.858 -0.0607 -0.0055  0.2747
 2227SOL     OW 8952   0.909   2.683   3.841  0.3513 -0.0361  0.5472
 2227SOL    HW2 8953   0.892   2.706   3.932 -0.5151  0.6869  0.2141
 2227SOL    HW3 8954   0.995   2.721   3.822  0.3116  0.2432  0.9193
 2227SOL    MW4 8955   0.918   2.691   3.851  0.2318  0.0958  0.5522
 2228SOL     OW 8956   1.140   2.826   3.765 -0.2841 -0.1610  0.0231
 2228SOL    HW2 8957   1.223   2.795   3.803 -0.4917  1.5241  1.9654
 2228SOL    HW3 8958   1.143   2.921   3.776 -1.7775  0.0666 -1.3917
 2228SOL    MW4 8959   1.151   2.834   3.772 -0.5087  0.0913  0.0927
 2229SOL     OW 8960   1.106   3.089   3.829 -0.3167 -0.0525  0.2881
 2229SOL    HW2 8961   1.186   3.133   3.798  0.0503 -1.0481 -0.1832
 2229SOL    HW3 8962   1.038   3.157   3.822  0.6812  1.1274  1.6985
 2229SOL    MW4 8963   1.108   3.104   3.824 -0.1366 -0.0281  0.4117
 2230SOL     OW 8964   0.887   3.273   3.784 -0.4070 -0.4953 -0.0753
 2230SOL    HW2 8965   0.810   3.228   3.818  0.5721 -1.1033  1.3876
 2230SOL    HW3 8966   0.884   3.257   3.690 -2.0069 -0.5959 -0.0214
 2230SOL    MW4 8967   0.877   3.265   3.776 -0.4889 -0.5887  0.1249
 2231SOL     OW 8968   0.886   3.513   3.887  0.3059  0.0146  0.2517
 2231SOL    HW2 8969   0.900   3.423   3.856 -1.2421 -0.2918  0.4324
 2231SOL    HW3 8970   0.802   3.538   3.850  1.0097  1.6336 -0.3160
 2231SOL    MW4 8971   0.877   3.504   3.878  0.1945  0.1876  0.2007
 2232SOL     OW 8972   1.101   3.666   3.820  0.0008  0.4233  0.0269
 2232SOL    HW2 8973   1.098   3.755   3.856 -0.2555  0.3774  0.1219
 2232SOL    HW3 8974   1.017   3.627   3.845  0.3676 -0.0516  0.5039
 2232SOL    MW4 8975   1.089   3.673   3.828  0.0154  0.3548  0.1025
 2233SOL     OW 8976   1.100   3.944   3.903  0.0573 -0.2418  0.2492
 2233SOL    HW2 8977   1.106   3.933   3.998 -0.0044 -0.4372  0.2299
 2233SOL    HW3 8978   1.189   3.969   3.877 -0.1039  0.5833  0.4569
 2233SOL    MW4 8979   1.113   3.946   3.912  0.0278 -0.1588  0.2739
 2234SOL     OW 8980   0.886   4.063   3.769 -0.2639  0.0021 -0.2063
 2234SOL    HW2 8981   0.965   4.031   3.813  0.3567  1.0301 -0.5751
 2234SOL    HW3 8982   0.883   4.013   3.687  0.9175  1.1397 -0.9597
 2234SOL    MW4 8983   0.896   4.052   3.764 -0.0260  0.2880 -0.3545
 2235SOL     OW 8984   0.911   4.323   3.878 -0.2182  0.2241 -0.0698
 2235SOL    HW2 8985   0.894   4.318   3.972 -0.3642  0.2366 -0.0958
 2235SOL    HW3 8986   0.896   4.234   3.846  0.2808  0.1118 -0.0071
 2235SOL    MW4 8987   0.907   4.311   3.886 -0.1717  0.2108 -0.0648
 2236SOL     OW 8988   1.177   4.411   3.796 -0.0648 -0.7831 -0.7367
 2236SOL    HW2 8989   1.087   4.393   3.822 -0.3253  1.1692 -0.1830
 2236SOL    HW3 8990   1.176   4.405   3.700 -1.1997  0.9275 -0.8564
 2236SOL    MW4 8991   1.165   4.408   3.787 -0.2489 -0.2999 -0.6797
 2237SOL     OW 8992   1.587   0.051   3.923  0.2286 -0.2929 -0.1566
 2237SOL    HW2 8993   1.571   0.058   4.017  1.5677  1.1258 -0.0281
 2237SOL    HW3 8994   1.592  -0.043   3.907  1.7415 -0.5068  1.4877
 2237SOL    MW4 8995   1.585   0.039   3.934  0.6050 -0.1335  0.0772
 2238SOL     OW 8996   1.352   0.177   3.774 -0.5501 -0.1167  0.2641
 2238SOL    HW2 8997   1.351   0.263   3.814  0.4876 -0.5067  1.1593
 2238SOL    HW3 8998   1.430   0.135   3.809 -1.1460 -1.4913 -0.0110
 2238SOL    MW4 8999   1.362   0.182   3.784 -0.4916 -0.3495  0.3459
 2239SOL     OW 9000   1.325   0.431   3.886 -0.2590  0.0342 -0.1767
 2239SOL    HW2 9001   1.325   0.410   3.979 -0.7657  0.3111 -0.1129
 2239SOL    HW3 9002   1.415   0.459   3.868 -0.4732  1.1873  0.5065
 2239SOL    MW4 9003   1.337   0.432   3.896 -0.3542  0.2229 -0.0782
 2240SOL     OW 9004   1.581   0.532   3.825 -0.4841 -0.2316  0.3906
 2240SOL    HW2 9005   1.664   0.493   3.850 -1.6574 -1.7291  2.0302
 2240SOL    HW3 9006   1.571   0.607   3.883  0.3968  0.8662 -0.8249
 2240SOL    MW4 9007   1.591   0.537   3.836 -0.5227 -0.2843  0.4466
 2241SOL     OW 9008   1.563   0.797   3.915 -0.3429  0.2925 -0.0965
 2241SOL    HW2 9009   1.634   0.834   3.862 -0.5519 -0.3853 -0.8724
 2241SOL    HW3 9010   1.483   0.821   3.868 -0.7505  2.5949  1.7385
 2241SOL    MW4 9011   1.562   0.805   3.902 -0.4241  0.5068  0.0434
 2242SOL     OW 9012   1.356   0.933   3.762 -0.1272 -0.2659 -0.5790
 2242SOL    HW2 9013   1.363   1.017   3.808  0.3095 -0.7399  0.2202
 2242SOL    HW3 9014   1.280   0.891   3.802  0.2688 -0.6911 -0.2811
 2242SOL    MW4 9015   1.347   0.939   3.773 -0.0173 -0.3846 -0.4342
 2243SOL     OW 9016   1.366   1.194   3.871 -0.0790  0.4189 -0.5319
 2243SOL    HW2 9017   1.431   1.260   3.847 -1.2239  2.0415  0.7087
 2243SOL    HW3 9018   1.285   1.226   3.832 -0.8066  0.1939  0.7709
 2243SOL    MW4 9019   1.364   1.207   3.863 -0.3259  0.6032 -0.1965
 2244SOL     OW 9020   1.602   1.334   3.790  0.4243 -0.1638  0.3391
 2244SOL    HW2 9021   1.683   1.296   3.823  1.3786  1.9013  0.4244
 2244SOL    HW3 9022   1.605   1.425   3.818  0.0903  1.0484 -3.2730
 2244SOL    MW4 9023   1.613   1.341   3.798  0.5062  0.2687 -0.1261
 2245SOL     OW 9024   1.553   1.596   3.895 -0.1554  0.0943 -0.0828
 2245SOL    HW2 9025   1.564   1.581   3.989  0.3388  0.3665 -0.0930
 2245SOL    HW3 9026   1.633   1.642   3.869  0.2513 -1.0185 -0.8543
 2245SOL    MW4 9027   1.565   1.600   3.904 -0.0366 -0.0167 -0.1860
 2246SOL     OW 9028   1.371   1.725   3.726  0.1952 -0.3846 -0.2158
 2246SOL    HW2 9029   1.373   1.801   3.784  1.1139  0.0747 -0.8262
 2246SOL    HW3 9030   1.429   1.661   3.768  0.0608 -0.4381 -0.1122
 2246SOL    MW4 9031   1.379   1.726   3.739  0.2986 -0.3310 -0.2825
 2247SOL     OW 9032   1.364   1.950   3.893 -0.0763 -0.1013 -0.1589
 2247SOL    HW2 9033   1.352   1.915   3.981  0.3948  0.8464  0.2837
 2247SOL    HW3 9034   1.284   1.999   3.875 -0.0926 -0.1378 -0.1867
 2247SOL    MW4 9035   1.352   1.952   3.902 -0.0163  0.0190 -0.1040
 2248SOL     OW 9036   1.608   2.068   3.805  0.0592 -0.0633 -0.0868
 2248SOL    HW2 9037   1.528   2.025   3.838 -0.3543  0.4887 -0.3629
 2248SOL    HW3 9038   1.590   2.084   3.713  0.4762  0.0980 -0.1399
 2248SOL    MW4 9039   1.595   2.064   3.798  0.0596  0.0305 -0.1302
 2249SOL     OW 9040   1.566   2.335   3.879 -0.1236 -0.3473 -0.2629
 2249SOL    HW2 9041   1.635   2.382   3.833  1.4465 -1.0862  1.2627
 2249SOL    HW3 9042   1.590   2.242   3.869  0.8786 -0.4795  2.9472
 2249SOL    MW4 9043   1.578   2.329   3.872  0.2158 -0.4623  0.3619
 2250SOL     OW 9044   1.335   2.440   3.789  0.1132 -0.1117 -0.1282
 2250SOL    HW2 9045   1.413   2.410   3.836  0.0644 -0.0442 -0.0034
 2250SOL    HW3 9046   1.262   2.405   3.840  0.0484  0.7082  0.3469
 2250SOL    MW4 9047   1.335   2.431   3.802  0.0981  0.0052 -0.0491
 2251SOL     OW 9048   1.352   2.721   3.874  0.4034  0.6539  0.2781
 2251SOL    HW2 9049   1.360   2.700   3.967  4.1408 -0.6100 -0.2159
 2251SOL    HW3 9050   1.338   2.636   3.831  2.1337  0.7570 -0.5523
 2251SOL    MW4 9051   1.351   2.707   3.880  1.1247  0.5004  0.1035
 2252SOL     OW 9052   1.597   2.827   3.791 -0.3759 -0.2959 -0.0080
 2252SOL    HW2 9053   1.517   2.790   3.828 -0.4479  0.4589  0.5996
 2252SOL    HW3 9054   1.583   2.825   3.697 -1.2472  0.1512  0.1099
 2252SOL    MW4 9055   1.585   2.822   3.784 -0.5003 -0.1373  0.0875
 2253SOL     OW 9056   1.599   3.121   3.838  0.1516  0.2819  0.0650
 2253SOL    HW2 9057   1.583   3.119   3.932  0.6734  1.3589  0.1747
 2253SOL    HW3 9058   1.584   3.030   3.810  0.6840 -0.2008  1.2942
 2253SOL    MW4 9059   1.595   3.108   3.847  0.2905  0.3605  0.2418
 2254SOL     OW 9060   1.358   3.226   3.774  0.2511 -0.0104 -0.1543
 2254SOL    HW2 9061   1.374   3.319   3.791  0.8696 -0.1399 -0.0030
 2254SOL    HW3 9062   1.436   3.182   3.808 -0.2461 -0.6275  0.1968
 2254SOL    MW4 9063   1.370   3.233   3.780  0.2671 -0.1087 -0.0882
 2255SOL     OW 9064   1.347   3.498   3.896  0.1590 -0.2636 -0.1033
 2255SOL    HW2 9065   1.423   3.529   3.847 -0.8449 -1.5333 -2.5195
 2255SOL    HW3 9066   1.277   3.558   3.872 -0.7591 -1.8945 -1.5710
 2255SOL    MW4 9067   1.348   3.510   3.887 -0.0947 -0.6464 -0.6156
 2256SOL     OW 9068   1.567   3.603   3.748 -0.0632 -0.4202 -0.3320
 2256SOL    HW2 9069   1.650   3.572   3.783  0.8192  1.2312 -0.9489
 2256SOL    HW3 9070   1.559   3.693   3.781 -1.3824 -0.4082 -0.6485
 2256SOL    MW4 9071   1.577   3.611   3.757 -0.1208 -0.2007 -0.4554
 2257SOL     OW 9072   1.558   3.857   3.899 -0.7040  0.1111  0.0631
 2257SOL    HW2 9073   1.553   3.866   3.994  0.7544 -0.7640  0.2332
 2257SOL    HW3 9074   1.491   3.918   3.866 -0.8096  0.8678  1.6099
 2257SOL    MW4 9075   1.548   3.866   3.907 -0.5256  0.0951  0.2897
 2258SOL     OW 9076   1.368   4.013   3.782 -0.6389 -0.1462 -0.1214
 2258SOL    HW2 9077   1.389   4.100   3.816  0.6968 -0.8428  0.8981
 2258SOL    HW3 9078   1.368   4.024   3.687 -2.7070  1.4521  0.0454
 2258SOL    MW4 9079   1.371   4.026   3.774 -0.7354 -0.0272  0.0350
 2259SOL     OW 9080   1.395   4.271   3.908  0.4209  0.2466  0.0378
 2259SOL    HW2 9081   1.457   4.327   3.862 -0.6062 -0.0483 -1.7441
 2259SOL    HW3 9082   1.309   4.304   3.882 -0.1788 -0.8575  0.5872
 2259SOL    MW4 9083   1.392   4.282   3.898  0.2062  0.0615 -0.1249
 2260SOL     OW 9084   1.580   4.451   3.792 -0.0117  0.1223 -0.2217
 2260SOL    HW2 9085   1.645   4.388   3.824 -0.4925  0.2193  0.9828
 2260SOL    HW3 9086   1.582   4.442   3.697  0.3938 -1.2490 -0.0913
 2260SOL    MW4 9087   1.589   4.442   3.784 -0.0217 -0.0453 -0.0453
 2261SOL     OW 9088   2.008   4.651   3.889  0.0112  0.2947  0.1104
 2261SOL    HW2 9089   2.090   4.686   3.855  0.5903 -0.8039  0.3766
 2261SOL    HW3 9090   2.008   4.559   3.864  0.0239 -0.3101  2.2499
 2261SOL    MW4 9091   2.019   4.644   3.882  0.0894  0.0701  0.4277
 2262SOL     OW 9092   1.816   0.145   3.775  0.7967  0.3014 -0.3542
 2262SOL    HW2 9093   1.894   0.099   3.807  0.7190  0.8101  0.6047
 2262SOL    HW3 9094   1.747   0.122   3.837  0.7683  1.7077  0.1724
 2262SOL    MW4 9095   1.817   0.136   3.787  0.7827  0.5541 -0.1581
 2263SOL     OW 9096   1.816   0.395   3.874  0.2632 -0.3213 -1.0190
 2263SOL    HW2 9097   1.809   0.381   3.969 -0.9169  0.8095 -0.9202
 2263SOL    HW3 9098   1.822   0.306   3.837  1.3960 -0.7428  0.1510
 2263SOL    MW4 9099   1.816   0.381   3.882  0.2570 -0.2277 -0.8516
 2264SOL     OW 9100   2.051   0.501   3.764  0.4446  0.0293  0.0829
 2264SOL    HW2 9101   1.970   0.464   3.799  1.5599 -1.7261  0.9175
 2264SOL    HW3 9102   2.046   0.486   3.670 -0.4358  0.4248  0.0647
 2264SOL    MW4 9103   2.040   0.494   3.756  0.4754 -0.1501  0.1907
 2265SOL     OW 9104   2.024   0.744   3.860 -0.0167  0.7943 -0.0894
 2265SOL    HW2 9105   2.008   0.721   3.951 -1.9666  0.3870 -0.5073
 2265SOL    HW3 9106   2.038   0.659   3.816  1.2559  1.0070 -0.1316
 2265SOL    MW4 9107   2.024   0.730   3.866 -0.1061  0.7687 -0.1504
 2266SOL     OW 9108   1.805   0.888   3.795  0.4312 -0.2186  0.2670
 2266SOL    HW2 9109   1.882   0.840   3.823  0.7629  1.1887  1.8492
 2266SOL    HW3 9110   1.816   0.898   3.700  2.4794  0.4459  0.5463
 2266SOL    MW4 9111   1.816   0.883   3.786  0.7453  0.0548  0.5128
 2267SOL     OW 9112   1.816   1.160   3.853 -0.6086  0.1335  0.1227
 2267SOL    HW2 9113   1.805   1.155   3.948  1.4188  0.0722  0.3789
 2267SOL    HW3 9114   1.820   1.068   3.824  0.7726  0.1493  0.2428
 2267SOL    MW4 9115   1.815   1.147   3.862 -0.1588  0.1276  0.1721
 2268SOL     OW 9116   2.017   1.333   3.738  0.5027  0.0475 -0.3293
 2268SOL    HW2 9117   2.096   1.287   3.768  0.9081 -0.4094 -2.0181
 2268SOL    HW3 9118   1.945   1.287   3.781  1.1827  0.8650  1.7218
 2268SOL    MW4 9119   2.018   1.321   3.748  0.6456  0.0951 -0.2813
 2269SOL     OW 9120   2.033   1.555   3.900 -0.4226 -0.0394 -0.1037
 2269SOL    HW2 9121   1.956   1.606   3.873  1.0090  1.1012 -2.1605
 2269SOL    HW3 9122   2.024   1.473   3.853 -0.7725 -0.2322  0.2877
 2269SOL    MW4 9123   2.021   1.551   3.890 -0.2797  0.0858 -0.3233
 2270SOL     OW 9124   1.799   1.678   3.802 -0.2543  0.4758  0.0757
 2270SOL    HW2 9125   1.815   1.769   3.828 -0.1825  1.2710 -2.5813
 2270SOL    HW3 9126   1.789   1.682   3.707 -1.4889 -2.1371  0.0578
 2270SOL    MW4 9127   1.800   1.691   3.793 -0.4077  0.2359 -0.2773
 2271SOL     OW 9128   1.847   1.922   3.926 -0.0082 -0.1284 -0.2478
 2271SOL    HW2 9129   1.838   1.939   4.019  0.0225 -0.0856 -0.2527
 2271SOL    HW3 9130   1.770   1.962   3.886 -0.2355 -0.5104 -0.1930
 2271SOL    MW4 9131   1.836   1.929   3.933 -0.0340 -0.1731 -0.2413
 2272SOL     OW 9132   2.050   2.075   3.773 -0.5189  0.1029 -0.0993
 2272SOL    HW2 9133   1.980   2.023   3.811 -0.5943  0.5688  0.4069
 2272SOL    HW3 9134   2.039   2.066   3.678 -1.0944 -0.0402 -0.0169
 2272SOL    MW4 9135   2.040   2.067   3.766 -0.6046  0.1454 -0.0217
 2273SOL     OW 9136   2.041   2.333   3.869 -0.1642  0.2243  0.0514
 2273SOL    HW2 9137   1.954   2.361   3.840  0.0045 -1.3469 -2.1341
 2273SOL    HW3 9138   2.044   2.239   3.849  2.3966  0.4508 -0.8684
 2273SOL    MW4 9139   2.030   2.324   3.863  0.1955  0.0467 -0.3583
 2274SOL     OW 9140   1.808   2.445   3.770 -0.1497  0.1425 -0.0432
 2274SOL    HW2 9141   1.807   2.535   3.803 -1.2363  0.0530  0.1591
 2274SOL    HW3 9142   1.795   2.453   3.676 -0.4726  0.1760  0.0063
 2274SOL    MW4 9143   1.806   2.458   3.762 -0.3356  0.1349 -0.0098
 2275SOL     OW 9144   1.813   2.689   3.867 -0.2624 -0.3202 -0.8776
 2275SOL    HW2 9145   1.817   2.684   3.962  1.8871  0.4864 -0.8817
 2275SOL    HW3 9146   1.740   2.748   3.849  0.7918  1.4202  0.3718
 2275SOL    MW4 9147   1.804   2.696   3.877  0.1602  0.0157 -0.7131
 2276SOL     OW 9148   2.013   2.822   3.746  0.1403  0.2638  0.0977
 2276SOL    HW2 9149   2.099   2.789   3.768  0.5559  0.9395 -0.4934
 2276SOL    HW3 9150   1.952   2.766   3.795  0.9151 -0.0739  0.6740
 2276SOL    MW4 9151   2.016   2.810   3.755  0.2973  0.3085  0.0956
 2277SOL     OW 9152   1.979   3.094   3.856 -0.3677 -0.6482 -0.5492
 2277SOL    HW2 9153   2.062   3.129   3.822 -0.3601 -0.1595 -0.0369
 2277SOL    HW3 9154   1.980   3.002   3.832 -0.0452 -0.4626 -1.2680
 2277SOL    MW4 9155   1.990   3.087   3.848 -0.3241 -0.5593 -0.5767
 2278SOL     OW 9156   1.805   3.267   3.736 -0.2312 -0.1209  0.0605
 2278SOL    HW2 9157   1.878   3.217   3.771 -0.6171 -0.8119 -0.1205
 2278SOL    HW3 9158   1.727   3.219   3.764 -0.6645  1.0421  0.9517
 2278SOL    MW4 9159   1.804   3.254   3.745 -0.3393 -0.0587  0.1543
 2279SOL     OW 9160   1.800   3.510   3.850  0.0112  0.5742 -0.2684
 2279SOL    HW2 9161   1.883   3.556   3.835  1.5124 -1.5381  1.0646
 2279SOL    HW3 9162   1.813   3.424   3.809 -1.0793 -0.1740  0.9046
 2279SOL    MW4 9163   1.813   3.505   3.843  0.0653  0.1967  0.0625
 2280SOL     OW 9164   2.040   3.651   3.758  0.2160  0.6215 -0.1351
 2280SOL    HW2 9165   2.127   3.610   3.762  0.0518  0.2628 -0.2411
 2280SOL    HW3 9166   2.015   3.646   3.666 -0.9831 -1.5104  0.2775
 2280SOL    MW4 9167   2.048   3.645   3.747  0.0360  0.2928 -0.0944
 2281SOL     OW 9168   1.983   3.879   3.898 -0.4241 -0.2581 -0.4079
 2281SOL    HW2 9169   2.060   3.921   3.861 -0.8513  0.8203 -0.0957
 2281SOL    HW3 9170   1.979   3.793   3.856  1.8124 -0.9291  0.7079
 2281SOL    MW4 9171   1.992   3.874   3.888 -0.1854 -0.2041 -0.2196
 2282SOL     OW 9172   1.765   4.029   3.792 -0.3708 -0.4698  0.0270
 2282SOL    HW2 9173   1.840   3.981   3.826 -0.2496 -0.3397 -0.0551
 2282SOL    HW3 9174   1.689   3.975   3.814 -0.2047 -0.8715 -0.3683
 2282SOL    MW4 9175   1.765   4.015   3.799 -0.3330 -0.5059 -0.0360
 2283SOL     OW 9176   1.793   4.298   3.878 -0.6274 -0.0738  0.0186
 2283SOL    HW2 9177   1.878   4.333   3.851 -1.2082 -0.0956 -1.9511
 2283SOL    HW3 9178   1.794   4.208   3.846 -2.3975  0.7119 -2.4264
 2283SOL    MW4 9179   1.805   4.291   3.870 -0.9376  0.0277 -0.5639
 2284SOL     OW 9180   2.036   4.400   3.784 -0.0327  0.5226 -0.5816
 2284SOL    HW2 9181   2.120   4.360   3.804 -0.5708 -0.2762  0.1088
 2284SOL    HW3 9182   2.029   4.395   3.688  0.3006 -0.2234 -0.5670
 2284SOL    MW4 9183   2.046   4.394   3.774 -0.0596  0.3185 -0.4885
 2285SOL     OW 9184   2.475   0.022   3.896 -0.1167 -0.4338 -0.0091
 2285SOL    HW2 9185   2.476   0.028   3.992 -1.6415  0.1981 -0.0104
 2285SOL    HW3 9186   2.554   0.068   3.868  0.2857 -0.5421  0.9511
 2285SOL    MW4 9187   2.485   0.029   3.905 -0.2649 -0.3648  0.1175
 2286SOL     OW 9188   2.232   0.091   3.762 -0.3104 -0.2310  0.2329
 2286SOL    HW2 9189   2.314   0.059   3.799 -0.7948 -1.4668  0.2432
 2286SOL    HW3 9190   2.246   0.090   3.667  0.2251  1.0461  0.2831
 2286SOL    MW4 9191   2.245   0.087   3.754 -0.3037 -0.2256  0.2408
 2287SOL     OW 9192   2.267   0.366   3.877  0.3461 -0.7505  0.2413
 2287SOL    HW2 9193   2.241   0.279   3.846  0.1657 -0.9759  1.0253
 2287SOL    HW3 9194   2.191   0.422   3.858  0.0680 -0.9796  0.6757
 2287SOL    MW4 9195   2.254   0.362   3.870  0.2854 -0.8104  0.4022
 2288SOL     OW 9196   2.513   0.479   3.760  0.0158 -0.2151 -0.1174
 2288SOL    HW2 9197   2.441   0.430   3.799  0.5456 -0.3320  0.7202
 2288SOL    HW3 9198   2.494   0.479   3.666 -0.9870 -0.3807  0.0825
 2288SOL    MW4 9199   2.501   0.472   3.753 -0.0465 -0.2523  0.0196
 2289SOL     OW 9200   2.496   0.750   3.848 -0.0770 -0.1641  0.5627
 2289SOL    HW2 9201   2.412   0.786   3.817  0.9536  1.4427 -0.4173
 2289SOL    HW3 9202   2.499   0.662   3.813 -0.7849  0.2194 -0.4879
 2289SOL    MW4 9203   2.485   0.743   3.840 -0.0346  0.0985  0.2949
 2290SOL     OW 9204   2.247   0.873   3.801  0.5593 -0.0535  0.0411
 2290SOL    HW2 9205   2.167   0.829   3.828  0.3510  1.1571  1.4409
 2290SOL    HW3 9206   2.233   0.894   3.708 -1.1840  1.0746  0.5372
 2290SOL    MW4 9207   2.235   0.870   3.792  0.3018  0.2551  0.2911
 2291SOL     OW 9208   2.219   1.166   3.847 -0.0395 -0.3350  0.3947
 2291SOL    HW2 9209   2.212   1.176   3.942 -0.0520  1.3475  0.2372
 2291SOL    HW3 9210   2.215   1.072   3.832 -0.8520 -0.5736  2.0060
 2291SOL    MW4 9211   2.217   1.155   3.858 -0.1483 -0.1445  0.5865
 2292SOL     OW 9212   2.463   1.270   3.752 -0.2124  0.0511  0.4026
 2292SOL    HW2 9213   2.468   1.358   3.789  0.8503 -0.1139  0.6732
 2292SOL    HW3 9214   2.379   1.236   3.784 -0.1475  0.5744  1.1641
 2292SOL    MW4 9215   2.453   1.277   3.761 -0.0637  0.0982  0.5386
 2293SOL     OW 9216   2.452   1.522   3.866  0.0056 -0.5163 -0.0618
 2293SOL    HW2 9217   2.534   1.561   3.836  0.3792 -0.2993  1.2452
 2293SOL    HW3 9218   2.384   1.573   3.821  0.5684 -0.3493 -0.7266
 2293SOL    MW4 9219   2.454   1.534   3.856  0.1290 -0.4655  0.0229
 2294SOL     OW 9220   2.251   1.675   3.760  0.2902  0.4307  0.0560
 2294SOL    HW2 9221   2.264   1.765   3.792  0.3520  0.2458  0.5539
 2294SOL    HW3 9222   2.182   1.640   3.816 -0.4677  0.5105 -0.8179
 2294SOL    MW4 9223   2.244   1.682   3.772  0.1981  0.4168  0.0062
 2295SOL     OW 9224   2.260   1.930   3.887  0.0319  0.0283 -0.0659
 2295SOL    HW2 9225   2.253   1.930   3.983  1.6644 -1.0081  0.0982
 2295SOL    HW3 9226   2.186   1.982   3.857 -1.8986 -1.6002  1.6661
 2295SOL    MW4 9227   2.250   1.937   3.896 -0.0072 -0.3232  0.1841
 2296SOL     OW 9228   2.499   2.043   3.760  0.1055 -0.3656  0.2649
 2296SOL    HW2 9229   2.508   2.133   3.792 -0.2872  0.3394 -1.5597
 2296SOL    HW3 9230   2.418   2.012   3.801 -0.8106  0.7974 -0.6156
 2296SOL    MW4 9231   2.489   2.051   3.770 -0.0672 -0.1190 -0.0918
 2297SOL     OW 9232   2.478   2.291   3.872 -0.2362  0.0561  0.0149
 2297SOL    HW2 9233   2.561   2.337   3.856  0.4293 -0.7725  1.0094
 2297SOL    HW3 9234   2.416   2.334   3.814  0.9605  0.4922 -0.9759
 2297SOL    MW4 9235   2.481   2.303   3.863  0.0093  0.0045  0.0155
 2298SOL     OW 9236   2.270   2.466   3.751 -0.1890  0.0034  0.0855
 2298SOL    HW2 9237   2.204   2.408   3.789 -0.6681  0.5964  0.1618
 2298SOL    HW3 9238   2.252   2.463   3.657 -0.3552  0.2121  0.1124
 2298SOL    MW4 9239   2.259   2.458   3.743 -0.2742  0.1090  0.0994
 2299SOL     OW 9240   2.262   2.723   3.827 -0.1874  0.5350  0.4677
 2299SOL    HW2 9241   2.265   2.740   3.921  1.2085  0.6361  0.4136
 2299SOL    HW3 9242   2.282   2.629   3.819 -0.9099  0.3931  0.3122
 2299SOL    MW4 9243   2.265   2.713   3.838 -0.0985  0.5298  0.4404
 2300SOL     OW 9244   2.509   2.827   3.744 -0.2548 -0.4296 -0.1308
 2300SOL    HW2 9245   2.419   2.799   3.762 -0.9102  1.6203 -0.0257
 2300SOL    HW3 9246   2.515   2.829   3.649 -0.3661 -0.4768 -0.1389
 2300SOL    MW4 9247   2.498   2.824   3.734 -0.3560 -0.1652 -0.1180
 2301SOL     OW 9248   2.448   3.082   3.858 -0.6431  0.2546  0.0396
 2301SOL    HW2 9249   2.453   3.070   3.953  1.5323  2.0490  0.2013
 2301SOL    HW3 9250   2.459   2.994   3.822  0.4837 -0.1960  1.4298
 2301SOL    MW4 9251   2.450   3.069   3.865 -0.2072  0.4320  0.2444
 2302SOL     OW 9252   2.214   3.218   3.752  0.2163  0.5404 -0.1576
 2302SOL    HW2 9253   2.244   3.305   3.776  0.6256 -0.0420  1.5166
 2302SOL    HW3 9254   2.289   3.161   3.771  0.0424 -0.1402 -1.4729
 2302SOL    MW4 9255   2.228   3.222   3.758  0.2475  0.3738 -0.1101
 2303SOL     OW 9256   2.296   3.496   3.807  0.0850 -0.7384  0.2362
 2303SOL    HW2 9257   2.302   3.472   3.899  1.9552 -0.4503  0.2040
 2303SOL    HW3 9258   2.365   3.560   3.793 -0.4773 -0.4205 -1.2649
 2303SOL    MW4 9259   2.306   3.501   3.817  0.2575 -0.6585  0.0341
 2304SOL     OW 9260   2.507   3.652   3.756 -0.5703  0.3394 -0.5629
 2304SOL    HW2 9261   2.567   3.586   3.790 -0.3882  0.1542 -1.2285
 2304SOL    HW3 9262   2.499   3.631   3.663  1.0669  2.4391 -1.2282
 2304SOL    MW4 9263   2.514   3.640   3.748 -0.3302  0.5920 -0.7389
 2305SOL     OW 9264   2.446   3.883   3.891  0.0835  0.2057  0.1126
 2305SOL    HW2 9265   2.514   3.941   3.857  0.3899 -0.1310  0.1450
 2305SOL    HW3 9266   2.472   3.796   3.861 -0.2002  0.0446  0.3323
 2305SOL    MW4 9267   2.459   3.879   3.883  0.0865  0.1402  0.1462
 2306SOL     OW 9268   2.219   4.001   3.797  0.5454  0.3852 -0.2201
 2306SOL    HW2 9269   2.292   3.955   3.838  0.6572  1.2515  0.5626
 2306SOL    HW3 9270   2.246   4.012   3.705  1.3279  0.5603  0.0322
 2306SOL    MW4 9271   2.232   3.996   3.790  0.6635  0.5224 -0.0834
 2307SOL     OW 9272   2.288   4.279   3.869 -0.0757 -0.4611  0.0071
 2307SOL    HW2 9273   2.288   4.283   3.964  0.6273 -2.1154  0.0994
 2307SOL    HW3 9274   2.265   4.188   3.849  1.7511 -0.6582 -1.3602
 2307SOL    MW4 9275   2.285   4.267   3.879  0.2580 -0.7048 -0.1609
 2308SOL     OW 9276   2.525   4.423   3.812  0.4036  0.0333  0.3034
 2308SOL    HW2 9277   2.445   4.374   3.832 -0.2464  0.9280 -0.1226
 2308SOL    HW3 9278   2.504   4.514   3.833  1.7316  0.1086  1.4286
 2308SOL    MW4 9279   2.512   4.428   3.818  0.4930  0.1616  0.3955
 2309SOL     OW 9280   2.935   4.656   3.928  0.1895  0.4149 -0.0540
 2309SOL    HW2 9281   2.927   4.675   4.022  1.3877  1.1303 -0.0901
 2309SOL    HW3 9282   3.007   4.711   3.898  0.1282 -0.1644 -1.3037
 2309SOL    MW4 9283   2.943   4.666   3.937  0.3397  0.4330 -0.2234
 2310SOL     OW 9284   2.726   0.128   3.803  0.0295  0.0409  0.0800
 2310SOL    HW2 9285   2.793   0.069   3.838 -0.7730 -1.3609 -0.7081
 2310SOL    HW3 9286   2.746   0.136   3.710 -0.4121  0.2962  0.0041
 2310SOL    MW4 9287   2.737   0.122   3.796 -0.1347 -0.1104 -0.0339
 2311SOL     OW 9288   2.715   0.371   3.892 -0.2850 -0.6951 -0.1060
 2311SOL    HW2 9289   2.723   0.277   3.872  1.0823 -0.6064  0.0185
 2311SOL    HW3 9290   2.636   0.398   3.845 -0.6370 -1.8824 -0.2358
 2311SOL    MW4 9291   2.705   0.362   3.883 -0.1512 -0.8400 -0.1066
 2312SOL     OW 9292   2.930   0.514   3.790 -0.1153 -0.4980  0.5058
 2312SOL    HW2 9293   3.007   0.474   3.830 -0.0468 -0.2802  0.5907
 2312SOL    HW3 9294   2.856   0.473   3.834 -0.0561 -1.1001  0.0497
 2312SOL    MW4 9295   2.931   0.503   3.801 -0.0987 -0.5487  0.4568
 2313SOL     OW 9296   2.924   0.770   3.914 -0.1261 -0.0506 -0.7057
 2313SOL    HW2 9297   3.002   0.818   3.884  0.4900 -0.1156  0.7492
 2313SOL    HW3 9298   2.928   0.687   3.867  1.1558 -0.3919 -0.0414
 2313SOL    MW4 9299   2.935   0.766   3.904  0.1242 -0.1042 -0.4263
 2314SOL     OW 9300   2.713   0.905   3.745  0.0675  0.6145  0.0844
 2314SOL    HW2 9301   2.791   0.871   3.788 -0.0133  0.2046 -0.0894
 2314SOL    HW3 9302   2.641   0.855   3.784 -0.1625  1.3894  0.6567
 2314SOL    MW4 9303   2.714   0.894   3.756  0.0265  0.6627  0.1371
 2315SOL     OW 9304   2.693   1.165   3.879  0.8225  0.1014  0.4337
 2315SOL    HW2 9305   2.686   1.080   3.836 -1.4062  0.1914  0.5558
 2315SOL    HW3 9306   2.615   1.212   3.852  2.9056  2.8471 -1.1348
 2315SOL    MW4 9307   2.682   1.160   3.870  0.8032  0.4755  0.2429
 2316SOL     OW 9308   2.918   1.293   3.747  0.4318  0.3521  0.0060
 2316SOL    HW2 9309   2.925   1.381   3.786  1.4694  0.2844 -0.0308
 2316SOL    HW3 9310   2.841   1.255   3.790  0.8791  0.7128  1.1530
 2316SOL    MW4 9311   2.908   1.300   3.758  0.6278  0.3906  0.1526
 2317SOL     OW 9312   2.932   1.533   3.847  0.0686  0.1440 -0.1754
 2317SOL    HW2 9313   2.943   1.540   3.942  0.0764 -2.1713  0.0150
 2317SOL    HW3 9314   3.014   1.565   3.810  1.2521 -1.7777  0.7213
 2317SOL    MW4 9315   2.944   1.538   3.855  0.2263 -0.4148 -0.0322
 2318SOL     OW 9316   2.669   1.659   3.783 -0.1007 -0.3819 -0.4116
 2318SOL    HW2 9317   2.753   1.618   3.805 -0.5106 -1.1758 -0.3245
 2318SOL    HW3 9318   2.672   1.667   3.687  0.5789  0.6963 -0.3116
 2318SOL    MW4 9319   2.681   1.655   3.773 -0.0651 -0.3445 -0.3870
 2319SOL     OW 9320   2.736   1.931   3.822  0.3983 -0.0825 -0.1359
 2319SOL    HW2 9321   2.718   1.837   3.818 -0.0582 -0.0438  0.9733
 2319SOL    HW3 9322   2.653   1.972   3.801  0.1462  0.0809  1.1751
 2319SOL    MW4 9323   2.723   1.924   3.818  0.3047 -0.0558  0.1836
 2320SOL     OW 9324   2.981   2.052   3.739 -0.0454 -0.1511 -0.1431
 2320SOL    HW2 9325   2.989   2.129   3.795 -0.5881  0.7220 -1.2427
 2320SOL    HW3 9326   2.893   2.018   3.758 -0.1383  0.0096 -0.2773
 2320SOL    MW4 9327   2.970   2.058   3.749 -0.1292 -0.0148 -0.3061
 2321SOL     OW 9328   2.949   2.323   3.858  0.2953 -0.2829  0.1923
 2321SOL    HW2 9329   2.953   2.315   3.953  1.0813 -0.5704  0.1358
 2321SOL    HW3 9330   3.017   2.387   3.837  0.3062 -0.4239 -0.2039
 2321SOL    MW4 9331   2.958   2.331   3.868  0.4005 -0.3393  0.1323
 2322SOL     OW 9332   2.705   2.454   3.792 -0.1107 -0.2560  0.2073
 2322SOL    HW2 9333   2.705   2.537   3.840  0.6261 -0.7963  1.1446
 2322SOL    HW3 9334   2.784   2.409   3.820  0.5967 -0.3912 -1.8701
 2322SOL    MW4 9335   2.716   2.459   3.802  0.0796 -0.3450  0.0570
 2323SOL     OW 9336   2.705   2.704   3.915  0.1856  0.3201  0.2993
 2323SOL    HW2 9337   2.693   2.721   4.008  1.2421  0.7158  0.3643
 2323SOL    HW3 9338   2.632   2.750   3.873 -0.7738 -0.5488  0.9790
 2323SOL    MW4 9339   2.694   2.712   3.921  0.1984  0.2577  0.3974
 2324SOL     OW 9340   2.920   2.818   3.782 -0.7213  0.4866 -0.0345
 2324SOL    HW2 9341   2.929   2.906   3.818 -0.8082  0.4933 -0.0299
 2324SOL    HW3 9342   2.844   2.781   3.826  0.1296 -0.0973  0.9695
 2324SOL    MW4 9343   2.911   2.825   3.792 -0.6204  0.4103  0.0987
 2325SOL     OW 9344   2.933   3.076   3.888  0.1358 -0.2035 -0.3741
 2325SOL    HW2 9345   3.000   3.139   3.863 -1.0037  1.2135  0.0706
 2325SOL    HW3 9346   2.851   3.113   3.854 -0.3938 -2.1089 -1.2760
 2325SOL    MW4 9347   2.931   3.089   3.880 -0.0844 -0.2677 -0.4344
 2326SOL     OW 9348   2.683   3.181   3.788 -0.0834 -0.4085 -0.4197
 2326SOL    HW2 9349   2.679   3.276   3.801  1.0641 -0.3199 -0.6342
 2326SOL    HW3 9350   2.598   3.149   3.818  0.0458  0.5352  1.0341
 2326SOL    MW4 9351   2.671   3.190   3.794  0.0851 -0.2720 -0.2561
 2327SOL     OW 9352   2.681   3.454   3.858  0.1592  0.5007 -0.2766
 2327SOL    HW2 9353   2.681   3.451   3.954  0.4572  2.0455 -0.2161
 2327SOL    HW3 9354   2.766   3.494   3.836  0.0258  0.2892 -1.1839
 2327SOL    MW4 9355   2.692   3.458   3.868  0.1810  0.6766 -0.3881
 2328SOL     OW 9356   2.903   3.606   3.794 -0.4084  0.2239  0.4777
 2328SOL    HW2 9357   2.994   3.599   3.824 -0.1480  0.7824 -0.1658
 2328SOL    HW3 9358   2.907   3.589   3.700 -0.9466  0.3934  0.4229
 2328SOL    MW4 9359   2.916   3.603   3.786 -0.4451  0.3200  0.3855
 2329SOL     OW 9360   2.933   3.905   3.879  0.9315  0.6177  0.0654
 2329SOL    HW2 9361   2.948   3.898   3.973  1.7556  0.2681 -0.0890
 2329SOL    HW3 9362   2.902   3.818   3.853  1.3910  0.5090 -0.1126
 2329SOL    MW4 9363   2.931   3.893   3.888  1.1010  0.5569  0.0212
 2330SOL     OW 9364   2.701   4.030   3.806  0.4061 -0.2879  0.3014
 2330SOL    HW2 9365   2.709   4.119   3.839  0.8093 -0.2011 -0.0349
 2330SOL    HW3 9366   2.776   3.984   3.842  0.8134 -0.2089 -0.4469
 2330SOL    MW4 9367   2.712   4.036   3.816  0.5131 -0.2661  0.1585
 2331SOL     OW 9368   2.727   4.276   3.915  0.1122  0.1209  0.1980
 2331SOL    HW2 9369   2.802   4.331   3.893 -0.3633  1.3080  1.5261
 2331SOL    HW3 9370   2.651   4.322   3.879 -0.2095  0.0037  0.7107
 2331SOL    MW4 9371   2.727   4.289   3.907  0.0072  0.2618  0.4408
 2332SOL     OW 9372   2.952   4.399   3.827  0.1760  0.0854  0.2911
 2332SOL    HW2 9373   3.038   4.358   3.835 -0.1917 -0.1437  3.5884
 2332SOL    HW3 9374   2.965   4.489   3.856 -0.5220  0.2755  0.0225
 2332SOL    MW4 9375   2.965   4.406   3.832  0.0353  0.0801  0.6907
 2333SOL     OW 9376   3.393   0.024   3.915 -0.5755  0.0923 -0.4998
 2333SOL    HW2 9377   3.398   0.040   4.009 -0.6275  0.2408 -0.5227
 2333SOL    HW3 9378   3.439   0.099   3.876 -1.0688  0.3318 -0.6205
 2333SOL    MW4 9379   3.400   0.036   3.922 -0.6473  0.1431 -0.5186
 2334SOL     OW 9380   3.154   0.112   3.794  0.5209 -0.1427  0.2339
 2334SOL    HW2 9381   3.234   0.068   3.823  0.7298 -0.0776 -0.2324
 2334SOL    HW3 9382   3.151   0.096   3.700  0.4647  0.6185  0.1001
 2334SOL    MW4 9383   3.165   0.104   3.786  0.5410 -0.0337  0.1547
 2335SOL     OW 9384   3.137   0.384   3.897  0.5331 -0.1838 -0.7392
 2335SOL    HW2 9385   3.137   0.376   3.992 -0.0006  1.5224 -0.5679
 2335SOL    HW3 9386   3.141   0.294   3.865  1.3021 -0.7483  0.8915
 2335SOL    MW4 9387   3.138   0.371   3.905  0.5641 -0.0332 -0.5016
 2336SOL     OW 9388   3.375   0.487   3.763  0.1927 -0.1855 -0.0430
 2336SOL    HW2 9389   3.445   0.439   3.808  1.0058  1.1296  0.1476
 2336SOL    HW3 9390   3.296   0.469   3.815  0.9101  0.4309  1.3149
 2336SOL    MW4 9391   3.374   0.478   3.776  0.3946  0.0693  0.1612
 2337SOL     OW 9392   3.388   0.756   3.876  0.2503 -0.0535 -0.0508
 2337SOL    HW2 9393   3.377   0.739   3.969 -1.2638  0.9373 -0.0271
 2337SOL    HW3 9394   3.393   0.669   3.835  0.9546 -0.4841  0.9418
 2337SOL    MW4 9395   3.388   0.742   3.883  0.1433  0.0204  0.0832
 2338SOL     OW 9396   3.141   0.900   3.764 -0.1380 -0.1232 -0.3732
 2338SOL    HW2 9397   3.224   0.857   3.785 -1.0934 -1.7521  0.0814
 2338SOL    HW3 9398   3.130   0.888   3.670 -0.1496 -0.4102 -0.3342
 2338SOL    MW4 9399   3.151   0.893   3.755 -0.2656 -0.3759 -0.3085
 2339SOL     OW 9400   3.145   1.192   3.864 -0.2147 -0.1690 -0.0586
 2339SOL    HW2 9401   3.156   1.104   3.827  0.5700 -0.2738  0.4128
 2339SOL    HW3 9402   3.063   1.224   3.825  1.1593  0.1785 -2.8101
 2339SOL    MW4 9403   3.135   1.184   3.854  0.0703 -0.1372 -0.3598
 2340SOL     OW 9404   3.386   1.260   3.777 -0.5051  0.4349  0.0733
 2340SOL    HW2 9405   3.300   1.230   3.807 -0.0827 -0.3448  0.5300
 2340SOL    HW3 9406   3.371   1.292   3.688 -1.3520  0.7182  0.3147
 2340SOL    MW4 9407   3.372   1.260   3.769 -0.5608  0.3693  0.1652
 2341SOL     OW 9408   3.363   1.529   3.864  0.1714 -0.2230 -0.4580
 2341SOL    HW2 9409   3.294   1.563   3.807 -0.6813 -1.1904 -0.0144
 2341SOL    HW3 9410   3.378   1.440   3.834  0.6160 -0.3108  0.0149
 2341SOL    MW4 9411   3.356   1.522   3.853  0.1175 -0.3622 -0.3369
 2342SOL     OW 9412   3.154   1.641   3.718  0.1107 -0.2949 -0.1137
 2342SOL    HW2 9413   3.174   1.730   3.749 -0.9358 -0.0463 -0.1425
 2342SOL    HW3 9414   3.161   1.648   3.622  0.7736 -0.4381 -0.0836
 2342SOL    MW4 9415   3.158   1.654   3.709  0.0598 -0.2810 -0.1135
 2343SOL     OW 9416   3.186   1.898   3.843 -0.3455  0.4312  0.4307
 2343SOL    HW2 9417   3.162   1.904   3.936 -0.8527 -0.4325  0.3597
 2343SOL    HW3 9418   3.114   1.939   3.797  0.7108  2.4201  0.5082
 2343SOL    MW4 9419   3.174   1.904   3.849 -0.2730  0.5796  0.4315
 2344SOL     OW 9420   3.403   2.065   3.764  0.0270  0.0013  0.0604
 2344SOL    HW2 9421   3.329   2.010   3.787  1.1597 -0.9998  1.3937
 2344SOL    HW3 9422   3.407   2.062   3.669 -1.8217  0.3171 -0.0404
 2344SOL    MW4 9423   3.394   2.057   3.755 -0.0675 -0.0889  0.2232
 2345SOL     OW 9424   3.431   2.312   3.878  0.4713 -0.1344  0.1208
 2345SOL    HW2 9425   3.353   2.356   3.846  0.2532 -0.5414  0.0949
 2345SOL    HW3 9426   3.424   2.222   3.844  0.7475 -0.2830  0.4533
 2345SOL    MW4 9427   3.420   2.306   3.869  0.4790 -0.2079  0.1614
 2346SOL     OW 9428   3.222   2.457   3.763  0.2628  0.1484 -0.0631
 2346SOL    HW2 9429   3.227   2.549   3.789  2.2429  0.0154  0.1194
 2346SOL    HW3 9430   3.194   2.459   3.672  0.0699  0.9066  0.0085
 2346SOL    MW4 9431   3.219   2.469   3.755  0.4985  0.2308 -0.0296
 2347SOL     OW 9432   3.173   2.719   3.858 -0.0019  0.2331 -0.3231
 2347SOL    HW2 9433   3.184   2.726   3.953 -0.5484  0.8518 -0.2984
 2347SOL    HW3 9434   3.086   2.757   3.842  0.0277 -0.0167 -1.0484
 2347SOL    MW4 9435   3.163   2.725   3.869 -0.0701  0.2818 -0.4153
 2348SOL     OW 9436   3.361   2.887   3.755 -0.3981  0.0368  0.0179
 2348SOL    HW2 9437   3.286   2.830   3.773 -0.8689  0.2552 -1.2067
 2348SOL    HW3 9438   3.363   2.895   3.660  0.6239  0.7853  0.0931
 2348SOL    MW4 9439   3.351   2.881   3.745 -0.3257  0.1643 -0.1340
 2349SOL     OW 9440   3.380   3.120   3.908 -0.2729 -0.2569 -0.1332
 2349SOL    HW2 9441   3.457   3.159   3.866 -1.4647  0.2619 -1.8848
 2349SOL    HW3 9442   3.361   3.042   3.857  1.1742 -2.3729  2.4366
 2349SOL    MW4 9443   3.388   3.115   3.896 -0.2394 -0.4678 -0.0250
 2350SOL     OW 9444   3.141   3.259   3.830 -0.3799  0.5371  0.0780
 2350SOL    HW2 9445   3.219   3.222   3.872 -0.5603 -0.0505 -0.1044
 2350SOL    HW3 9446   3.160   3.254   3.736 -1.2478 -0.9664 -0.0247
 2350SOL    MW4 9447   3.154   3.253   3.823 -0.5181  0.2613  0.0405
 2351SOL     OW 9448   3.155   3.526   3.916  0.0624 -0.5722  0.5405
 2351SOL    HW2 9449   3.224   3.568   3.864 -0.1739 -1.0962 -0.2015
 2351SOL    HW3 9450   3.146   3.439   3.878 -1.4779 -0.2719  0.1854
 2351SOL    MW4 9451   3.163   3.520   3.904 -0.1721 -0.6015  0.3960
 2352SOL     OW 9452   3.356   3.650   3.768 -0.2728 -0.4352 -0.5516
 2352SOL    HW2 9453   3.374   3.738   3.802  0.0315 -1.0319  0.8435
 2352SOL    HW3 9454   3.372   3.658   3.673 -1.4847  1.3178 -0.6404
 2352SOL    MW4 9455   3.361   3.663   3.760 -0.3924 -0.2828 -0.3793
 2353SOL     OW 9456   3.377   3.904   3.876 -0.2339 -0.2354 -0.4749
 2353SOL    HW2 9457   3.457   3.935   3.833 -0.2801  0.6554  0.0717
 2353SOL    HW3 9458   3.306   3.950   3.832 -0.3221  0.2512  0.1653
 2353SOL    MW4 9459   3.378   3.914   3.865 -0.2518 -0.0536 -0.3183
 2354SOL     OW 9460   3.144   4.026   3.728 -0.4001  0.2853 -0.3874
 2354SOL    HW2 9461   3.164   4.117   3.748 -0.3924  0.3393 -0.6376
 2354SOL    HW3 9462   3.060   4.010   3.770  0.4390 -0.1246  1.1819
 2354SOL    MW4 9463   3.136   4.036   3.736 -0.2887  0.2379 -0.2131
 2355SOL     OW 9464   3.192   4.274   3.835  0.1764  0.0006  0.4796
 2355SOL    HW2 9465   3.191   4.275   3.931 -2.9233  2.7495  0.4863
 2355SOL    HW3 9466   3.262   4.335   3.811 -0.0671  0.4813  0.9805
 2355SOL    MW4 9467   3.201   4.282   3.844 -0.2649  0.4268  0.5465
 2356SOL     OW 9468   3.408   4.431   3.772 -0.4721  0.0553  0.2876
 2356SOL    HW2 9469   3.481   4.387   3.815 -1.1960 -0.6221  0.8481
 2356SOL    HW3 9470   3.408   4.520   3.810 -0.7128 -0.3405  1.2466
 2356SOL    MW4 9471   3.417   4.437   3.783 -0.5991 -0.0858  0.4880
 2357SOL     OW 9472   3.829   0.016   3.904 -0.3290 -0.0425  0.5145
 2357SOL    HW2 9473   3.915   0.050   3.878 -1.1086  1.0483 -0.7306
 2357SOL    HW3 9474   3.822  -0.068   3.860 -0.1860  0.1899  0.0453
 2357SOL    MW4 9475   3.839   0.009   3.895 -0.4132  0.1321  0.2885
 2358SOL     OW 9476   3.618   0.155   3.770  0.3424  0.1673 -0.7793
 2358SOL    HW2 9477   3.697   0.115   3.806  0.0353 -0.0418 -0.3255
 2358SOL    HW3 9478   3.622   0.137   3.676  0.3397 -0.6849 -0.6163
 2358SOL    MW4 9479   3.629   0.148   3.763  0.3016  0.0273 -0.6976
 2359SOL     OW 9480   3.605   0.397   3.915 -0.1354  0.5857  0.4099
 2359SOL    HW2 9481   3.684   0.449   3.899  0.4890 -0.2786  0.5814
 2359SOL    HW3 9482   3.610   0.326   3.851 -0.8711  0.6273  0.3028
 2359SOL    MW4 9483   3.616   0.394   3.904 -0.1500  0.4772  0.4182
 2360SOL     OW 9484   3.817   0.528   3.806 -0.0123 -0.2215  0.0189
 2360SOL    HW2 9485   3.902   0.490   3.824  0.3576  0.7379  0.3455
 2360SOL    HW3 9486   3.829   0.622   3.822 -0.3666  0.3169 -2.6257
 2360SOL    MW4 9487   3.830   0.536   3.810 -0.0100 -0.0238 -0.2871
 2361SOL     OW 9488   3.827   0.778   3.923  0.4006  0.0719 -0.1457
 2361SOL    HW2 9489   3.902   0.822   3.881 -0.4146  0.8926 -0.7821
 2361SOL    HW3 9490   3.751   0.812   3.875 -0.4390 -0.0769  1.0791
 2361SOL    MW4 9491   3.827   0.788   3.911  0.1824  0.1606 -0.0679
 2362SOL     OW 9492   3.610   0.877   3.765 -0.4550 -0.1088 -0.2687
 2362SOL    HW2 9493   3.617   0.969   3.790  0.8808 -0.7047  1.6505
 2362SOL    HW3 9494   3.525   0.849   3.797 -0.6685  0.3328 -0.4489
 2362SOL    MW4 9495   3.600   0.885   3.772 -0.3066 -0.1291 -0.0393
 2363SOL     OW 9496   3.615   1.133   3.873  0.4258 -0.0090 -0.2238
 2363SOL    HW2 9497   3.698   1.174   3.848  1.3735 -0.3454  2.2223
 2363SOL    HW3 9498   3.549   1.179   3.821  2.1787 -0.1282 -2.6310
 2363SOL    MW4 9499   3.617   1.144   3.863  0.7823 -0.0691 -0.2189
 2364SOL     OW 9500   3.831   1.261   3.799  0.0767 -0.2307  0.3066
 2364SOL    HW2 9501   3.910   1.218   3.833 -0.1444 -0.8312  0.0685
 2364SOL    HW3 9502   3.827   1.344   3.846  1.5994  0.4096 -0.6539
 2364SOL    MW4 9503   3.841   1.266   3.810  0.2482 -0.2254  0.1483
 2365SOL     OW 9504   3.856   1.522   3.910  0.3491 -0.1261  0.1413
 2365SOL    HW2 9505   3.843   1.528   4.005  1.3605  3.8995  0.1266
 2365SOL    HW3 9506   3.787   1.576   3.873  1.9216  1.0276 -1.2053
 2365SOL    MW4 9507   3.846   1.530   3.918  0.6902  0.5572 -0.0381
 2366SOL     OW 9508   3.642   1.655   3.807 -0.4814  0.0620 -0.4816
 2366SOL    HW2 9509   3.577   1.592   3.838 -2.1414  0.5594 -2.8300
 2366SOL    HW3 9510   3.629   1.659   3.713  2.8548  0.3403 -0.9866
 2366SOL    MW4 9511   3.631   1.648   3.799 -0.2604  0.1643 -0.8583
 2367SOL     OW 9512   3.595   1.929   3.921  0.2205 -0.1430 -0.0481
 2367SOL    HW2 9513   3.602   1.840   3.888 -1.0671 -0.0680 -0.5612
 2367SOL    HW3 9514   3.526   1.969   3.867  1.3364  1.4012 -0.3696
 2367SOL    MW4 9515   3.587   1.923   3.909  0.1976  0.0707 -0.1581
 2368SOL     OW 9516   3.785   2.097   3.813 -0.3333 -0.5646  0.5436
 2368SOL    HW2 9517   3.861   2.048   3.846 -0.8050 -1.3250  0.5063
 2368SOL    HW3 9518   3.710   2.045   3.839 -0.7105 -1.2377 -1.8114
 2368SOL    MW4 9519   3.785   2.084   3.821 -0.4451 -0.7536  0.2279
 2369SOL     OW 9520   3.817   2.360   3.937  0.1501  0.4539 -0.0581
 2369SOL    HW2 9521   3.750   2.420   3.906 -0.1620  0.8959  1.4305
 2369SOL    HW3 9522   3.798   2.278   3.892 -1.9762  0.3018  1.0394
 2369SOL    MW4 9523   3.806   2.357   3.927 -0.1714  0.4921  0.2832
 2370SOL     OW 9524   3.613   2.489   3.800  0.3626  0.3381 -0.0830
 2370SOL    HW2 9525   3.555   2.421   3.832 -0.4195  0.9906 -0.0916
 2370SOL    HW3 9526   3.590   2.498   3.707  0.4291  0.6426 -0.0716
 2370SOL    MW4 9527   3.602   2.481   3.792  0.2682  0.4642 -0.0830
 2371SOL     OW 9528   3.574   2.738   3.897 -0.0545  0.2898 -0.4242
 2371SOL    HW2 9529   3.555   2.645   3.883  0.7826 -0.0527  0.5926
 2371SOL    HW3 9530   3.500   2.784   3.859 -1.2849 -0.8783  0.4962
 2371SOL    MW4 9531   3.562   2.731   3.890 -0.1063  0.0906 -0.1688
 2372SOL     OW 9532   3.812   2.811   3.770  0.1395  0.1956 -0.4340
 2372SOL    HW2 9533   3.891   2.770   3.806  1.0423  2.3945  0.1814
 2372SOL    HW3 9534   3.740   2.766   3.814  1.0696 -1.3980 -0.5172
 2372SOL    MW4 9535   3.813   2.800   3.781  0.3815  0.2756 -0.3641
 2373SOL     OW 9536   3.810   3.070   3.895 -0.5052  0.2712 -0.1917
 2373SOL    HW2 9537   3.740   3.126   3.862 -0.7529 -0.5233 -1.0437
 2373SOL    HW3 9538   3.809   2.993   3.837  2.1192  0.9734 -1.2453
 2373SOL    MW4 9539   3.801   3.067   3.883 -0.1917  0.2589 -0.4430
 2374SOL     OW 9540   3.619   3.222   3.794 -0.1129  0.0743  0.1406
 2374SOL    HW2 9541   3.614   3.315   3.818  1.7179  0.5664 -1.2667
 2374SOL    HW3 9542   3.601   3.220   3.700  0.3192 -0.9213  0.0735
 2374SOL    MW4 9543   3.616   3.234   3.785  0.1857  0.0079 -0.0539
 2375SOL     OW 9544   3.602   3.514   3.853 -0.1104 -0.1156 -0.4704
 2375SOL    HW2 9545   3.610   3.529   3.947 -2.2754 -1.4125 -0.0590
 2375SOL    HW3 9546   3.524   3.562   3.827  0.0031 -0.4570 -1.4615
 2375SOL    MW4 9547   3.593   3.523   3.862 -0.3810 -0.3314 -0.5467
 2376SOL     OW 9548   3.842   3.633   3.751 -0.2802  0.0967 -0.8637
 2376SOL    HW2 9549   3.842   3.719   3.793 -0.2709 -0.8373  1.0856
 2376SOL    HW3 9550   3.754   3.599   3.767  0.3374 -1.0744  0.1125
 2376SOL    MW4 9551   3.830   3.640   3.759 -0.1974 -0.1812 -0.4776
 2377SOL     OW 9552   3.831   3.883   3.851 -0.1277  0.3574 -0.0213
 2377SOL    HW2 9553   3.832   3.900   3.945 -0.2226 -1.2224  0.2837
 2377SOL    HW3 9554   3.903   3.935   3.816 -0.3839  1.3137  0.8561
 2377SOL    MW4 9555   3.840   3.892   3.859 -0.1740  0.2751  0.1349
 2378SOL     OW 9556   3.599   4.021   3.766 -0.5621 -0.3569  0.3269
 2378SOL    HW2 9557   3.601   4.102   3.817  0.8958  1.0710 -1.8986
 2378SOL    HW3 9558   3.676   3.972   3.795  0.4216  0.5799 -0.6326
 2378SOL    MW4 9559   3.610   4.025   3.776 -0.2398 -0.0443 -0.0932
 2379SOL     OW 9560   3.620   4.275   3.872  0.2541 -0.4485 -0.2142
 2379SOL    HW2 9561   3.621   4.284   3.967 -0.6487  0.4999 -0.2878
 2379SOL    HW3 9562   3.698   4.322   3.842 -0.3260  0.6158 -0.0549
 2379SOL    MW4 9563   3.631   4.282   3.880  0.0584 -0.1831 -0.2031
 2380SOL     OW 9564   3.827   4.443   3.795 -0.1742 -0.2752 -1.0349
 2380SOL    HW2 9565   3.906   4.395   3.822  1.0727  1.1973 -1.9639
 2380SOL    HW3 9566   3.824   4.431   3.700 -0.9275 -0.0909 -1.0324
 2380SOL    MW4 9567   3.837   4.435   3.786 -0.1090 -0.0567 -1.1570
 2381SOL     OW 9568   4.279   4.622   3.901 -0.1413  0.3100  0.0732
 2381SOL    HW2 9569   4.281   4.619   3.997 -1.1369 -1.6634  0.0427
 2381SOL    HW3 9570   4.361   4.665   3.877  0.0090  1.0498  1.8034
 2381SOL    MW4 9571   4.290   4.627   3.911 -0.2537  0.1473  0.2973
 2382SOL     OW 9572   4.069   0.110   3.783  0.1985 -0.2273 -0.1992
 2382SOL    HW2 9573   4.149   0.062   3.804  0.1738 -0.0138  0.4166
 2382SOL    HW3 9574   4.058   0.101   3.689  0.8842 -0.3590 -0.2641
 2382SOL    MW4 9575   4.078   0.103   3.774  0.2856 -0.2165 -0.1264
 2383SOL     OW 9576   4.042   0.383   3.919 -0.2380  0.2824 -0.1453
 2383SOL    HW2 9577   4.044   0.362   4.013 -0.1863  0.6018 -0.0758
 2383SOL    HW3 9578   4.050   0.298   3.876  2.0581  0.3003  0.1402
 2383SOL    MW4 9579   4.044   0.369   3.926  0.0715  0.3269 -0.0987
 2384SOL     OW 9580   4.292   0.492   3.835  0.1107 -0.0654  0.0135
 2384SOL    HW2 9581   4.212   0.445   3.858  0.5091 -0.8613 -0.2210
 2384SOL    HW3 9582   4.283   0.510   3.741  0.1350 -0.0297  0.0181
 2384SOL    MW4 9583   4.281   0.488   3.825  0.1664 -0.1657 -0.0172
 2385SOL     OW 9584   4.274   0.759   3.914  0.2765  0.0663  0.0612
 2385SOL    HW2 9585   4.191   0.794   3.880  1.0371 -0.1956 -2.1521
 2385SOL    HW3 9586   4.273   0.666   3.890  1.2628  0.0921 -0.1157
 2385SOL    MW4 9587   4.263   0.751   3.906  0.5069  0.0351 -0.2542
 2386SOL     OW 9588   4.037   0.877   3.802  0.1835  0.2644 -0.1204
 2386SOL    HW2 9589   4.076   0.960   3.829 -2.1510  1.2340  0.3570
 2386SOL    HW3 9590   4.036   0.880   3.706 -0.0711  0.8827 -0.0984
 2386SOL    MW4 9591   4.042   0.888   3.793 -0.1574  0.4739 -0.0544
 2387SOL     OW 9592   4.065   1.153   3.895  0.1384  0.2596  0.8644
 2387SOL    HW2 9593   4.077   1.162   3.989 -0.3440  0.3525  0.9151
 2387SOL    HW3 9594   4.133   1.209   3.857  0.6553 -0.1657  1.1518
 2387SOL    MW4 9595   4.076   1.161   3.902  0.1426  0.2156  0.9093
 2388SOL     OW 9596   4.277   1.302   3.808 -0.3543  0.0509 -0.1511
 2388SOL    HW2 9597   4.288   1.389   3.848  0.8924 -1.4224  2.8906
 2388SOL    HW3 9598   4.272   1.319   3.714 -1.9080  3.5637  0.4839
 2388SOL    MW4 9599   4.278   1.316   3.801 -0.3948  0.3200  0.3340
 2389SOL     OW 9600   4.322   1.549   3.920  0.1286 -0.0831  0.3017
 2389SOL    HW2 9601   4.240   1.597   3.904  0.6123  0.9052  0.7385
 2389SOL    HW3 9602   4.386   1.593   3.864  0.8884  0.6947  1.7471
 2389SOL    MW4 9603   4.320   1.561   3.910  0.2933  0.1500  0.5498
 2390SOL     OW 9604   4.093   1.679   3.830  0.0852  0.1209  0.1515
 2390SOL    HW2 9605   4.060   1.769   3.833 -0.7689 -0.1484 -0.8723
 2390SOL    HW3 9606   4.026   1.628   3.877 -0.6416 -0.3231 -1.3319
 2390SOL    MW4 9607   4.080   1.684   3.837 -0.1235  0.0267 -0.1795
 2391SOL     OW 9608   4.017   1.933   3.892 -0.2177  0.1634 -0.3400
 2391SOL    HW2 9609   4.012   1.916   3.986 -0.1330  1.2222 -0.1464
 2391SOL    HW3 9610   4.092   1.991   3.881  0.4318 -0.8034 -1.1869
 2391SOL    MW4 9611   4.026   1.938   3.903 -0.1211  0.1755 -0.4263
 2392SOL     OW 9612   4.237   2.075   3.804  0.6819 -0.0610 -0.0300
 2392SOL    HW2 9613   4.249   2.168   3.826 -1.6519  0.1781  0.3980
 2392SOL    HW3 9614   4.215   2.075   3.711 -1.3469  0.0541  0.4093
 2392SOL    MW4 9615   4.236   2.087   3.795  0.1059 -0.0143  0.0844
 2393SOL     OW 9616   4.282   2.350   3.874 -0.0501 -0.1737  0.6467
 2393SOL    HW2 9617   4.292   2.359   3.969  1.5130 -0.2229  0.4977
 2393SOL    HW3 9618   4.197   2.389   3.855  0.0702  0.7434  1.9363
 2393SOL    MW4 9619   4.272   2.356   3.884  0.1717 -0.0591  0.7973
 2394SOL     OW 9620   4.055   2.479   3.810 -0.2732 -0.1615 -0.2852
 2394SOL    HW2 9621   4.045   2.570   3.841  0.6349 -0.5258  1.1426
 2394SOL    HW3 9622   3.981   2.432   3.850 -0.5527 -0.1195 -0.7522
 2394SOL    MW4 9623   4.044   2.485   3.820 -0.1907 -0.2038 -0.1581
 2395SOL     OW 9624   4.049   2.732   3.897  0.1157 -0.4918 -0.1314
 2395SOL    HW2 9625   4.048   2.749   3.991  1.5358  0.1958 -0.2290
 2395SOL    HW3 9626   4.117   2.790   3.863 -0.9691 -0.1084 -1.7056
 2395SOL    MW4 9627   4.057   2.742   3.905  0.1602 -0.3502 -0.3519
 2396SOL     OW 9628   4.256   2.864   3.779 -0.1012 -0.3497  0.3753
 2396SOL    HW2 9629   4.270   2.945   3.828 -0.2584 -0.4680  0.6178
 2396SOL    HW3 9630   4.331   2.809   3.802  0.5987  0.1444 -0.6648
 2396SOL    MW4 9631   4.268   2.867   3.788 -0.0300 -0.2999  0.2699
 2397SOL     OW 9632   4.275   3.093   3.923  0.2692  0.0746 -0.1831
 2397SOL    HW2 9633   4.193   3.138   3.904 -0.0961 -0.3089  0.4812
 2397SOL    HW3 9634   4.342   3.150   3.886 -0.3083  0.2808 -0.9268
 2397SOL    MW4 9635   4.273   3.107   3.916  0.1454  0.0513 -0.1934
 2398SOL     OW 9636   4.057   3.212   3.786  0.2022 -0.8994  0.0652
 2398SOL    HW2 9637   3.974   3.165   3.800 -1.2422  1.0976 -1.5096
 2398SOL    HW3 9638   4.068   3.213   3.691  1.4659 -0.1448  0.2116
 2398SOL    MW4 9639   4.047   3.206   3.775  0.1779 -0.5362 -0.1233
 2399SOL     OW 9640   4.046   3.477   3.866  0.3598 -0.1739  0.3645
 2399SOL    HW2 9641   4.034   3.384   3.847 -1.5300  0.3136 -0.8772
 2399SOL    HW3 9642   3.966   3.519   3.836  1.5891  2.0090  0.0007
 2399SOL    MW4 9643   4.034   3.470   3.860  0.2728  0.1786  0.1526
 2400SOL     OW 9644   4.264   3.649   3.779  0.1845 -0.0407 -0.1423
 2400SOL    HW2 9645   4.192   3.594   3.810 -0.0429  0.8945  1.0004
 2400SOL    HW3 9646   4.342   3.607   3.815 -0.0173  0.5870  1.0344
 2400SOL    MW4 9647   4.265   3.636   3.788  0.1283  0.1659  0.1638
 2401SOL     OW 9648   4.270   3.901   3.879 -0.0299  0.2289  0.1239
 2401SOL    HW2 9649   4.193   3.928   3.830  0.2091  0.8050  0.0625
 2401SOL    HW3 9650   4.281   3.809   3.857 -1.6636 -0.2925  1.4175
 2401SOL    MW4 9651   4.261   3.893   3.870 -0.2141  0.2363  0.2866
 2402SOL     OW 9652   4.027   4.032   3.748 -0.2654  0.3387 -0.0626
 2402SOL    HW2 9653   4.037   4.120   3.785  2.1649 -0.0376  0.2995
 2402SOL    HW3 9654   4.037   4.044   3.654 -0.8222  0.5762 -0.0893
 2402SOL    MW4 9655   4.030   4.045   3.741 -0.0181  0.3204 -0.0184
 2403SOL     OW 9656   4.043   4.289   3.888  0.1063 -0.0490  0.4303
 2403SOL    HW2 9657   4.053   4.271   3.982  2.2139 -0.9152  0.0698
 2403SOL    HW3 9658   4.129   4.320   3.861 -0.6153  0.6261 -1.1481
 2403SOL    MW4 9659   4.056   4.291   3.897  0.2890 -0.0739  0.1748
 2404SOL     OW 9660   4.278   4.378   3.756  0.5680  0.1363  0.0684
 2404SOL    HW2 9661   4.270   4.464   3.796  1.0635  0.5117 -0.6322
 2404SOL    HW3 9662   4.360   4.342   3.790  1.1765  0.6075 -0.8862
 2404SOL    MW4 9663   4.288   4.384   3.766  0.7133  0.2475 -0.1500
 2405SOL     OW 9664   0.259   4.640   4.189 -0.4123  0.0768 -0.0681
 2405SOL    HW2 9665   0.337   4.681   4.226  0.1692  0.2438 -1.4496
 2405SOL    HW3 9666   0.265   4.548   4.217  1.8068 -0.5854 -2.5136
 2405SOL    MW4 9667   0.270   4.633   4.198 -0.0428  0.0119 -0.5736
 2406SOL     OW 9668   0.012   0.084   4.239 -0.2970 -0.4532 -0.3311
 2406SOL    HW2 9669   0.096   0.040   4.231 -0.4093 -0.7239 -0.0193
 2406SOL    HW3 9670   0.000   0.098   4.333  0.2113  1.1709 -0.4955
 2406SOL    MW4 9671   0.021   0.080   4.250 -0.2448 -0.2747 -0.3119
 2407SOL     OW 9672   0.035   0.354   4.181 -0.2055  0.5538  0.0545
 2407SOL    HW2 9673   0.021   0.260   4.194  1.1166  0.1706 -1.2906
 2407SOL    HW3 9674   0.040   0.365   4.086  0.7558  1.8282  0.2429
 2407SOL    MW4 9675   0.033   0.343   4.170  0.0958  0.6714 -0.0982
 2408SOL     OW 9676   0.288   0.467   4.291 -0.2781 -0.3366 -0.2789
 2408SOL    HW2 9677   0.367   0.437   4.247 -0.4609 -0.9057 -0.2223
 2408SOL    HW3 9678   0.216   0.427   4.243 -0.6032  1.1636 -1.0944
 2408SOL    MW4 9679   0.289   0.458   4.279 -0.3451 -0.2138 -0.3791
 2409SOL     OW 9680   0.223   0.694   4.137 -0.3001 -0.2709 -0.4586
 2409SOL    HW2 9681   0.152   0.740   4.183  2.2874  2.8490  0.5955
 2409SOL    HW3 9682   0.254   0.628   4.198 -0.7473 -0.0787 -0.0251
 2409SOL    MW4 9683   0.218   0.692   4.151 -0.0177  0.1661 -0.2623
 2410SOL     OW 9684   0.018   0.824   4.258  0.2777  0.1642 -0.2783
 2410SOL    HW2 9685  -0.068   0.785   4.242  0.3001  0.2835 -0.6985
 2410SOL    HW3 9686   0.013   0.909   4.215  0.9961 -0.2943 -1.2908
 2410SOL    MW4 9687   0.006   0.830   4.250  0.3755  0.1194 -0.4668
 2411SOL     OW 9688   4.461   1.073   4.165 -0.3440 -0.0748 -0.1149
 2411SOL    HW2 9689   4.545   1.093   4.205  0.5904  0.1303 -2.1410
 2411SOL    HW3 9690   4.470   1.100   4.073 -2.1315 -1.3473 -0.7017
 2411SOL    MW4 9691   4.473   1.079   4.158 -0.4565 -0.2156 -0.4597
 2412SOL     OW 9692   0.213   1.132   4.287 -0.6549  0.0266 -0.2144
 2412SOL    HW2 9693   0.229   1.077   4.364  0.2017  1.3044  0.5365
 2412SOL    HW3 9694   0.298   1.135   4.242 -1.3861 -1.5213 -1.7702
 2412SOL    MW4 9695   0.226   1.125   4.291 -0.6384 -0.0089 -0.3204
 2413SOL     OW 9696   0.249   1.376   4.441  0.2049  0.5955  0.0080
 2413SOL    HW2 9697   0.186   1.358   4.511 -0.0558  1.2694 -0.0542
 2413SOL    HW3 9698   0.256   1.293   4.393 -0.8945  0.6214 -0.2014
 2413SOL    MW4 9699   0.242   1.363   4.444  0.0254  0.6877 -0.0277
 2414SOL     OW 9700   4.478   1.660   4.176 -0.0834 -0.2587 -0.2045
 2414SOL    HW2 9701   4.424   1.632   4.102  1.2340 -0.1051 -1.2477
 2414SOL    HW3 9702   4.480   1.755   4.169 -0.6426 -0.1928  0.5275
 2414SOL    MW4 9703   4.471   1.669   4.165  0.0172 -0.2297 -0.2451
 2415SOL     OW 9704   0.268   2.022   4.245  0.5229 -0.7150  0.8377
 2415SOL    HW2 9705   0.268   1.980   4.331  0.4386 -1.8320  0.3069
 2415SOL    HW3 9706   0.349   1.992   4.204 -0.7486 -2.4306 -0.5154
 2415SOL    MW4 9707   0.279   2.012   4.251  0.3440 -1.0886  0.5889
 2416SOL     OW 9708   0.608   2.301   4.555  0.0994 -0.4936 -0.0122
 2416SOL    HW2 9709   0.608   2.210   4.525  0.6815 -0.6224  0.3618
 2416SOL    HW3 9710   0.698   2.317   4.582 -0.2767 -0.2076  1.1076
 2416SOL    MW4 9711   0.620   2.291   4.555  0.1266 -0.4733  0.1850
 2417SOL     OW 9712   0.255   2.280   4.122 -0.6635 -0.1791 -0.4915
 2417SOL    HW2 9713   0.329   2.333   4.150 -1.2751  0.7827 -0.6645
 2417SOL    HW3 9714   0.254   2.205   4.182  1.6192 -1.2355 -1.6840
 2417SOL    MW4 9715   0.265   2.277   4.133 -0.4430 -0.1915 -0.6719
 2418SOL     OW 9716   0.052   2.446   4.216 -0.0576 -0.0773  0.4294
 2418SOL    HW2 9717  -0.022   2.392   4.189 -0.2627  0.3301  0.1636
 2418SOL    HW3 9718   0.128   2.405   4.173 -0.2185 -0.1183  0.1844
 2418SOL    MW4 9719   0.053   2.433   4.207 -0.1059 -0.0288  0.3619
 2419SOL     OW 9720   0.036   2.704   4.135 -0.0783 -0.4798 -0.6059
 2419SOL    HW2 9721   0.111   2.751   4.172 -0.1176 -0.9255  0.0538
 2419SOL    HW3 9722   0.044   2.616   4.171 -0.6401 -0.6644 -0.9347
 2419SOL    MW4 9723   0.047   2.699   4.145 -0.1576 -0.5634 -0.5627
 2420SOL     OW 9724   0.246   2.826   4.260 -0.7985  0.0811  0.3938
 2420SOL    HW2 9725   0.317   2.794   4.205 -0.7679  1.7906 -0.5834
 2420SOL    HW3 9726   0.238   2.919   4.239 -2.7589  0.1130  1.1072
 2420SOL    MW4 9727   0.254   2.834   4.250 -1.0531  0.3109  0.3595
 2421SOL     OW 9728   0.261   3.085   4.178 -0.0165 -0.1138  0.2090
 2421SOL    HW2 9729   0.338   3.139   4.192 -0.8580  0.9247  0.9249
 2421SOL    HW3 9730   0.190   3.134   4.220 -1.2052 -0.6589 -1.1307
 2421SOL    MW4 9731   0.261   3.099   4.186 -0.2843 -0.0486  0.1268
 2422SOL     OW 9732   0.064   3.209   4.311  0.3798 -0.2019 -0.3422
 2422SOL    HW2 9733  -0.022   3.167   4.312  0.1126  0.3533  0.3547
 2422SOL    HW3 9734   0.049   3.295   4.272  0.5446  0.0467  0.1373
 2422SOL    MW4 9735   0.051   3.215   4.306  0.3663 -0.0961 -0.1869
 2423SOL     OW 9736   0.003   3.466   4.137 -0.2080  0.1517 -0.3242
 2423SOL    HW2 9737  -0.090   3.487   4.150  0.0313  1.4425 -0.6862
 2423SOL    HW3 9738   0.014   3.463   4.042  0.1562  0.1238 -0.2821
 2423SOL    MW4 9739  -0.008   3.468   4.126 -0.1284  0.3181 -0.3657
 2424SOL     OW 9740   0.159   3.613   4.306  0.3157 -0.0658  0.6124
 2424SOL    HW2 9741   0.244   3.571   4.293  0.0168 -0.5032  0.0772
 2424SOL    HW3 9742   0.099   3.564   4.251 -0.1683  0.6392  0.5026
 2424SOL    MW4 9743   0.163   3.601   4.297  0.2124 -0.0303  0.5274
 2425SOL     OW 9744   0.236   3.827   4.154  0.2536 -0.4702  0.1711
 2425SOL    HW2 9745   0.172   3.882   4.199  0.9556 -1.1277  2.0650
 2425SOL    HW3 9746   0.211   3.737   4.177 -0.0046 -0.8893 -1.6654
 2425SOL    MW4 9747   0.224   3.822   4.163  0.3121 -0.6125  0.1788
 2426SOL     OW 9748   0.025   3.984   4.244 -0.1371  0.2260 -0.7474
 2426SOL    HW2 9749   0.019   3.966   4.338  1.8738  2.8156 -0.0777
 2426SOL    HW3 9750  -0.060   3.957   4.210 -1.1300 -0.2102  1.9032
 2426SOL    MW4 9751   0.013   3.978   4.252 -0.0028  0.5102 -0.3095
 2427SOL     OW 9752   0.040   4.244   4.150 -0.1681  0.2148  0.0444
 2427SOL    HW2 9753   0.032   4.152   4.178  1.3948  0.0570  0.0105
 2427SOL    HW3 9754   0.027   4.241   4.055  0.3959 -0.0439 -0.0272
 2427SOL    MW4 9755   0.038   4.231   4.141  0.1130  0.1602  0.0305
 2428SOL     OW 9756   0.259   4.381   4.264  0.3531  0.3590  0.3768
 2428SOL    HW2 9757   0.240   4.374   4.358 -0.1207 -1.6520  0.1544
 2428SOL    HW3 9758   0.186   4.336   4.222  1.0881  0.3737 -0.9228
 2428SOL    MW4 9759   0.247   4.374   4.271  0.3875  0.0949  0.1755
 2429SOL     OW 9760   0.712   4.631   4.146  0.0053  0.4922  0.0090
 2429SOL    HW2 9761   0.634   4.672   4.183  0.3568  1.5971 -0.4371
 2429SOL    HW3 9762   0.701   4.640   4.051 -0.3400 -1.2707 -0.1333
 2429SOL    MW4 9763   0.701   4.638   4.138  0.0061  0.4053 -0.0696
 2430SOL     OW 9764   0.510   0.079   4.286  0.2601 -0.5849  0.1509
 2430SOL    HW2 9765   0.509   0.093   4.381  0.1217  0.4662  0.0044
 2430SOL    HW3 9766   0.508   0.167   4.249  1.3950 -0.9562 -0.8266
 2430SOL    MW4 9767   0.510   0.092   4.294  0.3916 -0.4952  0.0029
 2431SOL     OW 9768   0.492   0.336   4.169 -0.3092  0.4350  0.6786
 2431SOL    HW2 9769   0.570   0.388   4.189  0.0102  0.0141  0.5398
 2431SOL    HW3 9770   0.478   0.348   4.076  1.6629 -2.2569 -0.0422
 2431SOL    MW4 9771   0.501   0.344   4.160 -0.0069  0.0243  0.5655
 2432SOL     OW 9772   0.693   0.495   4.264 -0.1526 -0.2309 -0.1316
 2432SOL    HW2 9773   0.779   0.457   4.247  0.2830 -0.2582  1.9058
 2432SOL    HW3 9774   0.700   0.585   4.231  0.4617 -0.4139 -0.5074
 2432SOL    MW4 9775   0.705   0.502   4.258 -0.0141 -0.2586  0.0877
 2433SOL     OW 9776   0.721   0.754   4.168  0.2414  0.4581 -0.4617
 2433SOL    HW2 9777   0.637   0.786   4.200  0.0804  0.5115 -0.9308
 2433SOL    HW3 9778   0.712   0.752   4.073  0.3648 -0.6455 -0.4635
 2433SOL    MW4 9779   0.709   0.758   4.160  0.2365  0.3195 -0.5236
 2434SOL     OW 9780   0.468   0.844   4.264  0.0196 -0.3754 -0.6339
 2434SOL    HW2 9781   0.470   0.939   4.248  0.9093 -0.4260 -0.8526
 2434SOL    HW3 9782   0.402   0.811   4.203 -0.6548  0.1645 -0.2063
 2434SOL    MW4 9783   0.459   0.852   4.254  0.0480 -0.3108 -0.6070
 2435SOL     OW 9784   0.458   1.123   4.168 -0.1273 -0.1774  0.5684
 2435SOL    HW2 9785   0.525   1.176   4.210 -0.0363  0.1122  0.0637
 2435SOL    HW3 9786   0.467   1.142   4.074  0.8566 -2.1800  0.2268
 2435SOL    MW4 9787   0.468   1.133   4.161  0.0145 -0.4035  0.4568
 2436SOL     OW 9788   0.664   1.277   4.266 -0.5725 -0.3408 -0.1024
 2436SOL    HW2 9789   0.686   1.272   4.359 -1.8727  0.3314  0.2540
 2436SOL    HW3 9790   0.681   1.369   4.242  1.6879 -0.9563 -1.0492
 2436SOL    MW4 9791   0.669   1.289   4.275 -0.4458 -0.3334 -0.1802
 2437SOL     OW 9792   0.712   1.540   4.208  0.0149 -0.2226  0.3791
 2437SOL    HW2 9793   0.789   1.596   4.217 -0.0190 -0.1575  0.2731
 2437SOL    HW3 9794   0.689   1.547   4.115 -0.0783 -0.2937  0.3970
 2437SOL    MW4 9795   0.719   1.549   4.197 -0.0019 -0.2234  0.3672
 2438SOL     OW 9796   0.261   1.532   4.207  0.0205  0.3251  0.0878
 2438SOL    HW2 9797   0.170   1.560   4.193  0.1085 -0.0356 -1.3094
 2438SOL    HW3 9798   0.258   1.481   4.288 -0.7802  1.3918  0.7480
 2438SOL    MW4 9799   0.248   1.529   4.216 -0.0736  0.4183 -0.0100
 2439SOL     OW 9800   0.510   1.950   4.118 -0.3534  0.6931 -0.1080
 2439SOL    HW2 9801   0.517   1.861   4.151 -0.0347  1.2234  1.3000
 2439SOL    HW3 9802   0.474   1.941   4.031 -0.4613 -0.8063  0.0875
 2439SOL    MW4 9803   0.506   1.937   4.111 -0.3256  0.5652  0.1035
 2440SOL     OW 9804   0.707   2.133   4.222 -0.0274  0.1617  0.5547
 2440SOL    HW2 9805   0.696   2.098   4.310 -0.0712 -1.4644 -0.0829
 2440SOL    HW3 9806   0.654   2.076   4.166  1.2586  0.1984 -0.7410
 2440SOL    MW4 9807   0.698   2.121   4.226  0.1366 -0.0482  0.2995
 2441SOL     OW 9808   0.697   2.413   4.174 -0.4525 -0.1531  0.1287
 2441SOL    HW2 9809   0.699   2.322   4.204  0.9800  0.6619  2.6260
 2441SOL    HW3 9810   0.674   2.407   4.081  0.2810 -3.0999  0.0906
 2441SOL    MW4 9811   0.695   2.400   4.165 -0.1667 -0.4346  0.4530
 2442SOL     OW 9812   0.436   2.469   4.217 -0.2422  0.1272  0.0296
 2442SOL    HW2 9813   0.426   2.555   4.176 -1.0594  0.2521  0.4807
 2442SOL    HW3 9814   0.531   2.452   4.214 -0.1356  0.7868 -0.5674
 2442SOL    MW4 9815   0.447   2.479   4.211 -0.3360  0.2308  0.0105
 2443SOL     OW 9816   0.462   2.744   4.123 -0.4181  0.0290  0.3344
 2443SOL    HW2 9817   0.538   2.792   4.156 -1.7776  2.0684  0.6440
 2443SOL    HW3 9818   0.469   2.753   4.027  0.2338 -0.6232  0.3149
 2443SOL    MW4 9819   0.473   2.752   4.114 -0.5114  0.2122  0.3724
 2444SOL     OW 9820   0.681   2.843   4.262 -0.0408  0.5779 -0.4320
 2444SOL    HW2 9821   0.641   2.843   4.349 -1.6543  0.6140 -1.1543
 2444SOL    HW3 9822   0.690   2.936   4.239 -1.2562  0.5610 -1.0224
 2444SOL    MW4 9823   0.677   2.855   4.270 -0.4141  0.5805 -0.6051
 2445SOL     OW 9824   0.713   3.109   4.171  0.0748  0.5323 -0.3112
 2445SOL    HW2 9825   0.787   3.164   4.198  0.2905  0.0992 -0.0269
 2445SOL    HW3 9826   0.637   3.153   4.209  0.3717 -0.0562  0.9964
 2445SOL    MW4 9827   0.713   3.122   4.179  0.1424  0.3977 -0.1011
 2446SOL     OW 9828   0.479   3.235   4.241  0.1429 -0.0601  0.2371
 2446SOL    HW2 9829   0.466   3.224   4.335  0.2378 -0.5746  0.1868
 2446SOL    HW3 9830   0.473   3.330   4.227  1.8379  0.1838  1.0205
 2446SOL    MW4 9831   0.477   3.246   4.251  0.3791 -0.0958  0.3338
 2447SOL     OW 9832   0.429   3.511   4.233  0.1264 -0.1619 -0.0304
 2447SOL    HW2 9833   0.510   3.552   4.263 -1.0167  1.8387  0.3906
 2447SOL    HW3 9834   0.434   3.514   4.138  0.6101 -0.2199 -0.0118
 2447SOL    MW4 9835   0.441   3.517   4.225  0.0394  0.0942  0.0277
 2448SOL     OW 9836   0.676   3.620   4.269 -0.1932  0.1518  0.1838
 2448SOL    HW2 9837   0.713   3.659   4.349  0.5124  0.4656 -0.2941
 2448SOL    HW3 9838   0.746   3.565   4.235 -0.3186  0.4223 -0.5080
 2448SOL    MW4 9839   0.690   3.618   4.275 -0.1166  0.2291  0.0296
 2449SOL     OW 9840   0.692   3.882   4.173  0.7202  0.3229 -0.6859
 2449SOL    HW2 9841   0.618   3.916   4.223  0.8817  0.4875 -0.5577
 2449SOL    HW3 9842   0.693   3.788   4.192  0.1930  0.2204 -1.1454
 2449SOL    MW4 9843   0.683   3.874   4.182  0.6720  0.3312 -0.7296
 2450SOL     OW 9844   0.448   3.958   4.289  0.3412  0.0276 -0.1123
 2450SOL    HW2 9845   0.448   4.043   4.245 -0.1230  0.0103 -0.1465
 2450SOL    HW3 9846   0.374   3.911   4.252 -0.8598  0.4992  1.6330
 2450SOL    MW4 9847   0.438   3.963   4.278  0.1215  0.0875  0.1140
 2451SOL     OW 9848   0.463   4.226   4.191  0.4123 -0.0435  0.0002
 2451SOL    HW2 9849   0.388   4.284   4.201 -0.1699 -0.7303 -0.2807
 2451SOL    HW3 9850   0.478   4.223   4.096  0.2341 -0.5953 -0.0145
 2451SOL    MW4 9851   0.455   4.233   4.180  0.3120 -0.2074 -0.0391
 2452SOL     OW 9852   0.677   4.392   4.290  0.2651  0.0439  0.4293
 2452SOL    HW2 9853   0.608   4.350   4.239  0.7490 -0.8838  0.5111
 2452SOL    HW3 9854   0.684   4.480   4.254 -0.7040  0.0199  0.1814
 2452SOL    MW4 9855   0.669   4.398   4.278  0.2011 -0.0820  0.4067
 2453SOL     OW 9856   1.181   0.011   4.174  0.0188  0.3016  0.0594
 2453SOL    HW2 9857   1.176  -0.082   4.198 -0.3143  0.4567  0.5900
 2453SOL    HW3 9858   1.194   0.010   4.079  4.3405 -0.3803  0.5619
 2453SOL    MW4 9859   1.182  -0.002   4.165  0.5449  0.2317  0.1955
 2454SOL     OW 9860   0.930   0.080   4.280  0.3401 -0.2520  0.2421
 2454SOL    HW2 9861   1.016   0.061   4.244  0.3204  1.4446 -0.7052
 2454SOL    HW3 9862   0.868   0.035   4.222  0.5256 -0.9714  0.5853
 2454SOL    MW4 9863   0.933   0.071   4.268  0.3620 -0.1230  0.1626
 2455SOL     OW 9864   0.917   0.348   4.183  0.3129 -0.0741 -0.2686
 2455SOL    HW2 9865   0.994   0.394   4.214  0.4087 -0.3488 -0.1021
 2455SOL    HW3 9866   0.923   0.261   4.222 -0.1705 -0.0398 -0.1136
 2455SOL    MW4 9867   0.928   0.343   4.192  0.2617 -0.1058 -0.2260
 2456SOL     OW 9868   1.122   0.507   4.285 -0.4060 -0.3783  0.3051
 2456SOL    HW2 9869   1.135   0.507   4.380  0.2583 -0.9334  0.2238
 2456SOL    HW3 9870   1.203   0.469   4.250 -1.0934 -1.1998 -0.4216
 2456SOL    MW4 9871   1.135   0.502   4.293 -0.4090 -0.5599  0.1979
 2457SOL     OW 9872   1.146   0.792   4.179  0.2702  0.6063  0.1945
 2457SOL    HW2 9873   1.227   0.833   4.210  1.2263 -0.2455 -1.1383
 2457SOL    HW3 9874   1.137   0.713   4.231  0.4309  0.5656  0.1586
 2457SOL    MW4 9875   1.155   0.787   4.190  0.4175  0.4885  0.0134
 2458SOL     OW 9876   0.915   0.924   4.309  0.4249  0.6832 -0.1162
 2458SOL    HW2 9877   0.982   0.888   4.251  1.1954  1.7034  0.1134
 2458SOL    HW3 9878   0.834   0.881   4.282  0.9291  0.4801 -1.3542
 2458SOL    MW4 9879   0.913   0.914   4.298  0.5931  0.7910 -0.2489
 2459SOL     OW 9880   0.872   1.135   4.129 -0.1755  0.2229  0.5061
 2459SOL    HW2 9881   0.878   1.053   4.178  0.9445  1.2473  2.1227
 2459SOL    HW3 9882   0.800   1.183   4.170 -0.4957  0.2714 -0.1089
 2459SOL    MW4 9883   0.863   1.130   4.141 -0.0699  0.3644  0.6385
 2460SOL     OW 9884   1.122   1.251   4.241 -0.0038  0.2514 -0.6533
 2460SOL    HW2 9885   1.131   1.261   4.336 -1.1830  0.0987 -0.5194
 2460SOL    HW3 9886   1.029   1.235   4.227  0.5990 -2.8090 -1.5600
 2460SOL    MW4 9887   1.111   1.251   4.252 -0.0799 -0.1726 -0.7558
 2461SOL     OW 9888   1.133   1.502   4.106 -0.4720  0.2453  0.1741
 2461SOL    HW2 9889   1.063   1.557   4.141 -1.2242 -0.7291  0.1872
 2461SOL    HW3 9890   1.118   1.416   4.144 -0.5033 -0.4966 -1.5012
 2461SOL    MW4 9891   1.122   1.498   4.116 -0.5753  0.0188 -0.0453
 2462SOL     OW 9892   0.956   1.683   4.226 -0.3458  0.2661 -0.6176
 2462SOL    HW2 9893   0.944   1.697   4.320 -1.8612  0.6827 -0.8649
 2462SOL    HW3 9894   0.952   1.771   4.188 -1.1705 -0.0362 -1.2344
 2462SOL    MW4 9895   0.954   1.697   4.233 -0.6546  0.2812 -0.7319
 2463SOL     OW 9896   0.934   1.959   4.148 -0.5005  0.4166  0.1018
 2463SOL    HW2 9897   0.865   2.012   4.189 -1.2222  0.0934 -0.6846
 2463SOL    HW3 9898   0.908   1.953   4.057 -0.7275 -1.8145  0.3038
 2463SOL    MW4 9899   0.921   1.965   4.142 -0.6257  0.0796  0.0243
 2464SOL     OW 9900   1.172   2.053   4.258 -0.3626 -0.1165  0.0745
 2464SOL    HW2 9901   1.181   2.022   4.348  0.5310  1.3750  0.5208
 2464SOL    HW3 9902   1.086   2.020   4.230  0.5104 -2.8420  0.5258
 2464SOL    MW4 9903   1.162   2.045   4.266 -0.1296 -0.2794  0.1926
 2465SOL     OW 9904   1.149   2.329   4.238  0.1375  0.9236 -0.1332
 2465SOL    HW2 9905   1.233   2.371   4.260  0.0150  0.9123  0.3446
 2465SOL    HW3 9906   1.154   2.242   4.278  0.7573  0.1227 -1.8625
 2465SOL    MW4 9907   1.161   2.323   4.246  0.2030  0.8163 -0.2985
 2466SOL     OW 9908   0.949   2.515   4.286 -0.4837  0.1544 -0.0425
 2466SOL    HW2 9909   1.019   2.453   4.265 -0.4053 -0.1068  0.9492
 2466SOL    HW3 9910   0.869   2.468   4.263 -0.3554  0.2958 -0.7911
 2466SOL    MW4 9911   0.948   2.501   4.280 -0.4565  0.1390 -0.0105
 2467SOL     OW 9912   0.880   2.719   4.121  0.0420  0.2022  0.1645
 2467SOL    HW2 9913   0.901   2.646   4.181  0.1148  0.3636  0.3374
 2467SOL    HW3 9914   0.810   2.767   4.166  1.5474  1.5475  1.1177
 2467SOL    MW4 9915   0.874   2.716   4.135  0.2502  0.4005  0.3138
 2468SOL     OW 9916   1.124   2.845   4.169 -0.3247 -0.4225  0.1960
 2468SOL    HW2 9917   1.117   2.940   4.162 -0.0141 -0.4426 -0.4297
 2468SOL    HW3 9918   1.037   2.812   4.144 -0.0598 -0.3575 -0.8461
 2468SOL    MW4 9919   1.112   2.853   4.165 -0.2488 -0.4170 -0.0234
 2469SOL     OW 9920   1.127   3.115   4.114 -0.3102 -0.2777 -0.3248
 2469SOL    HW2 9921   1.205   3.161   4.145 -0.6780  0.2306 -0.1242
 2469SOL    HW3 9922   1.137   3.111   4.019  0.2076 -0.6767 -0.2495
 2469SOL    MW4 9923   1.138   3.121   4.106 -0.2904 -0.2637 -0.2885
 2470SOL     OW 9924   0.942   3.244   4.266  0.0585 -0.0714 -0.1196
 2470SOL    HW2 9925   0.986   3.243   4.351 -0.6451  0.9099  0.2677
 2470SOL    HW3 9926   1.001   3.198   4.207  0.4721 -0.9157  0.9455
 2470SOL    MW4 9927   0.955   3.238   4.270  0.0202 -0.0534  0.0720
 2471SOL     OW 9928   0.902   3.501   4.145 -0.4807 -0.2297  0.2575
 2471SOL    HW2 9929   0.920   3.412   4.175 -0.9247 -0.0873  0.9442
 2471SOL    HW3 9930   0.893   3.493   4.050  0.2491 -0.7872  0.2300
 2471SOL    MW4 9931   0.904   3.488   4.136 -0.4430 -0.2847  0.3443
 2472SOL     OW 9932   1.115   3.618   4.257  0.2852 -0.1559  0.3045
 2472SOL    HW2 9933   1.110   3.709   4.226  0.1685 -0.3479 -0.2318
 2472SOL    HW3 9934   1.032   3.579   4.231 -0.2185 -0.0599  1.6871
 2472SOL    MW4 9935   1.104   3.625   4.250  0.2034 -0.1688  0.4163
 2473SOL     OW 9936   1.126   3.898   4.181  0.3129  0.2557  0.1596
 2473SOL    HW2 9937   1.203   3.937   4.222 -0.7738 -0.2261  2.8021
 2473SOL    HW3 9938   1.054   3.957   4.203 -0.1317  0.5877 -2.0859
 2473SOL    MW4 9939   1.127   3.911   4.190  0.1110  0.2358  0.2122
 2474SOL     OW 9940   0.892   4.047   4.249 -0.8304 -0.0709  0.0673
 2474SOL    HW2 9941   0.887   4.137   4.217 -0.7887 -0.0440  0.1351
 2474SOL    HW3 9942   0.818   4.003   4.208  0.1182 -0.4272 -1.3251
 2474SOL    MW4 9943   0.882   4.053   4.239 -0.6997 -0.1144 -0.1073
 2475SOL     OW 9944   0.915   4.308   4.154 -0.0193  0.3109  0.5244
 2475SOL    HW2 9945   0.996   4.344   4.190 -0.7230 -0.8916  3.4861
 2475SOL    HW3 9946   0.846   4.347   4.208 -1.2439 -0.5454 -0.3876
 2475SOL    MW4 9947   0.917   4.318   4.166 -0.2738  0.0396  0.7949
 2476SOL     OW 9948   1.154   4.401   4.260 -0.1089 -0.1705  0.1011
 2476SOL    HW2 9949   1.176   4.401   4.354  1.2217 -1.7978 -0.1817
 2476SOL    HW3 9950   1.232   4.365   4.218 -1.3944 -1.1658 -1.4574
 2476SOL    MW4 9951   1.167   4.396   4.267 -0.1029 -0.5169 -0.1416
 2477SOL     OW 9952   1.565   0.028   4.199  0.3012 -0.1490  0.4410
 2477SOL    HW2 9953   1.646   0.071   4.225  0.8382 -2.0759  2.0407
 2477SOL    HW3 9954   1.496   0.075   4.248  0.6634  0.2057  0.6122
 2477SOL    MW4 9955   1.566   0.040   4.209  0.4197 -0.3565  0.6742
 2478SOL     OW 9956   1.326   0.182   4.332 -0.0971 -0.3354 -0.1388
 2478SOL    HW2 9957   1.305   0.184   4.425 -0.2310 -1.3727 -0.1413
 2478SOL    HW3 9958   1.269   0.114   4.296  0.0279 -0.0109 -0.9580
 2478SOL    MW4 9959   1.315   0.173   4.339 -0.0985 -0.4294 -0.2465
 2479SOL     OW 9960   1.344   0.389   4.154 -0.6257 -0.1836 -0.7531
 2479SOL    HW2 9961   1.414   0.445   4.187 -0.5811 -0.2204 -0.7869
 2479SOL    HW3 9962   1.343   0.314   4.213 -0.3018 -0.4283 -1.0589
 2479SOL    MW4 9963   1.353   0.387   4.167 -0.5770 -0.2207 -0.7973
 2480SOL     OW 9964   1.566   0.507   4.263 -0.1753 -0.6319 -0.0810
 2480SOL    HW2 9965   1.588   0.490   4.355  1.1426  1.5229  0.0439
 2480SOL    HW3 9966   1.615   0.587   4.241 -1.9267 -0.0678 -2.1155
 2480SOL    MW4 9967   1.576   0.516   4.272 -0.2326 -0.2732 -0.3328
 2481SOL     OW 9968   1.604   0.765   4.189 -0.2639  0.0905 -0.2310
 2481SOL    HW2 9969   1.680   0.816   4.218  0.2620 -1.3250  0.9635
 2481SOL    HW3 9970   1.592   0.789   4.097  0.9466  1.1518 -0.1224
 2481SOL    MW4 9971   1.612   0.775   4.181 -0.0347  0.0437 -0.0591
 2482SOL     OW 9972   1.375   0.911   4.284 -0.2986  1.0340  0.2095
 2482SOL    HW2 9973   1.373   0.984   4.222  0.9304  2.2920  1.6090
 2482SOL    HW3 9974   1.445   0.854   4.251 -0.1828  1.2993 -0.0062
 2482SOL    MW4 9975   1.384   0.913   4.271 -0.1212  1.2349  0.3653
 2483SOL     OW 9976   1.367   1.132   4.146  0.0055 -0.4728 -0.3390
 2483SOL    HW2 9977   1.276   1.155   4.166 -0.4836 -1.4860 -1.3366
 2483SOL    HW3 9978   1.376   1.149   4.053  0.4461 -1.6091 -0.5096
 2483SOL    MW4 9979   1.356   1.137   4.137 -0.0010 -0.7565 -0.4930
 2484SOL     OW 9980   1.590   1.268   4.261 -0.4491  0.1098  0.9737
 2484SOL    HW2 9981   1.547   1.286   4.345 -0.8032  1.0967  0.5866
 2484SOL    HW3 9982   1.524   1.223   4.210 -1.3402  2.3282  0.0911
 2484SOL    MW4 9983   1.576   1.265   4.266 -0.6133  0.5326  0.8068
 2485SOL     OW 9984   1.575   1.530   4.162  0.9961  0.3339  0.3149
 2485SOL    HW2 9985   1.498   1.560   4.209  1.7131  1.7405  0.6379
 2485SOL    HW3 9986   1.583   1.437   4.186 -0.5022  0.2068  0.3749
 2485SOL    MW4 9987   1.566   1.522   4.172  0.8930  0.5027  0.3653
 2486SOL     OW 9988   1.329   1.619   4.270  0.1620 -0.4232 -0.5739
 2486SOL    HW2 9989   1.331   1.707   4.231 -0.2187  0.2912  0.9485
 2486SOL    HW3 9990   1.271   1.569   4.213 -1.5458  0.9948 -0.1625
 2486SOL    MW4 9991   1.321   1.624   4.257 -0.1136 -0.1421 -0.3190
 2487SOL     OW 9992   1.331   1.865   4.146  0.6120 -0.2053  0.0651
 2487SOL    HW2 9993   1.406   1.912   4.182 -0.0455  1.0645 -0.1899
 2487SOL    HW3 9994   1.255   1.911   4.182 -0.0648 -2.2324  1.3082
 2487SOL    MW4 9995   1.331   1.877   4.155  0.4361 -0.3053  0.1950
 2488SOL     OW 9996   1.512   2.061   4.258 -0.0474  0.2075 -0.2928
 2488SOL    HW2 9997   1.474   2.077   4.344 -0.3418  0.6887 -0.5120
 2488SOL    HW3 9998   1.515   2.148   4.216  1.7070  0.2531 -0.0984
 2488SOL    MW4 9999   1.508   2.075   4.264  0.1454  0.2768 -0.2961
 2489SOL     OW10000   1.544   2.311   4.153  0.2669  0.3052 -0.2633
 2489SOL    HW210001   1.622   2.348   4.194 -1.2360  2.6581  0.6288
 2489SOL    HW310002   1.550   2.337   4.062  0.4871  0.6008 -0.1652
 2489SOL    MW410003   1.555   2.319   4.147  0.0978  0.6545 -0.1326
 2490SOL     OW10004   1.394   2.473   4.300  0.0332  0.3679 -0.0887
 2490SOL    HW210005   1.388   2.549   4.242 -1.6857 -0.1921 -0.6723
 2490SOL    HW310006   1.442   2.408   4.250  0.1722  0.5298 -0.1680
 2490SOL    MW410007   1.399   2.475   4.286 -0.1754  0.3154 -0.1755
 2491SOL     OW10008   1.372   2.706   4.145  0.6236  0.2368 -0.4550
 2491SOL    HW210009   1.439   2.767   4.175 -0.1760 -0.0625  2.0734
 2491SOL    HW310010   1.290   2.754   4.156  0.0524 -0.9981  0.8385
 2491SOL    MW410011   1.370   2.720   4.151  0.4427  0.0346  0.0491
 2492SOL     OW10012   1.585   2.866   4.224 -0.0641 -0.5418  0.2631
 2492SOL    HW210013   1.567   2.869   4.318  0.0364 -1.5926  0.3206
 2492SOL    HW310014   1.564   2.954   4.193 -0.9324 -0.4408  1.1172
 2492SOL    MW410015   1.580   2.878   4.232 -0.1655 -0.6669  0.3839
 2493SOL     OW10016   1.571   3.106   4.113  0.3013 -0.2191 -0.3604
 2493SOL    HW210017   1.651   3.144   4.147  1.0854 -1.4762 -0.7848
 2493SOL    HW310018   1.501   3.153   4.159  1.2819  0.2760  0.6551
 2493SOL    MW410019   1.572   3.117   4.124  0.5341 -0.3195 -0.2828
 2494SOL     OW10020   1.353   3.217   4.217  0.0165  0.0034 -0.0759
 2494SOL    HW210021   1.356   3.208   4.312 -1.2896 -0.2044 -0.0484
 2494SOL    HW310022   1.344   3.311   4.201  1.1144  0.1227 -0.0238
 2494SOL    MW410023   1.353   3.228   4.227 -0.0108 -0.0083 -0.0653
 2495SOL     OW10024   1.350   3.487   4.177 -0.0525  0.0790  0.3070
 2495SOL    HW210025   1.272   3.531   4.211  0.3411 -0.1003  1.4726
 2495SOL    HW310026   1.336   3.483   4.083 -0.1732  2.5825  0.1741
 2495SOL    MW410027   1.338   3.493   4.169 -0.0165  0.3855  0.4435
 2496SOL     OW10028   1.596   3.613   4.276  0.8777 -0.0115  0.1979
 2496SOL    HW210029   1.619   3.583   4.364  0.6832 -1.7595 -0.3173
 2496SOL    HW310030   1.525   3.555   4.249  0.3379  1.0849 -0.7649
 2496SOL    MW410031   1.590   3.601   4.284  0.7808 -0.0975  0.0024
 2497SOL     OW10032   1.543   3.878   4.185 -0.0579  0.5066 -0.0301
 2497SOL    HW210033   1.489   3.924   4.249 -0.6190  1.2459 -1.0377
 2497SOL    HW310034   1.564   3.795   4.228 -1.5005  0.4529  0.6005
 2497SOL    MW410035   1.539   3.873   4.199 -0.3222  0.5970 -0.0792
 2498SOL     OW10036   1.368   4.022   4.340 -0.5654  0.2350  0.5569
 2498SOL    HW210037   1.383   4.009   4.434 -1.5534  1.3289  0.8795
 2498SOL    HW310038   1.379   4.116   4.327 -1.7497  0.2880 -0.1691
 2498SOL    MW410039   1.371   4.032   4.351 -0.8520  0.3862  0.5035
 2499SOL     OW10040   1.409   4.281   4.199 -0.3103  0.3250  0.1506
 2499SOL    HW210041   1.474   4.340   4.235 -0.1834 -0.6437  1.5649
 2499SOL    HW310042   1.424   4.282   4.105  0.2506  1.8526  0.2513
 2499SOL    MW410043   1.419   4.289   4.192 -0.2196  0.3991  0.3500
 2500SOL     OW10044   1.601   4.453   4.332 -0.0420 -0.4567  0.0883
 2500SOL    HW210045   1.599   4.536   4.286  0.9509 -0.0775  0.7080
 2500SOL    HW310046   1.664   4.399   4.284 -1.6786 -1.3404 -1.1101
 2500SOL    MW410047   1.609   4.457   4.320 -0.1270 -0.5236  0.0114
 2501SOL     OW10048   2.002   4.647   4.164  0.4934  0.0423  0.5469
 2501SOL    HW210049   1.940   4.710   4.201 -1.3672 -1.6954  0.4964
 2501SOL    HW310050   1.975   4.639   4.072  1.6037  0.1867  0.1966
 2501SOL    MW410051   1.990   4.655   4.157  0.3946 -0.1683  0.4940
 2502SOL     OW10052   1.792   0.150   4.266 -0.0693 -0.3910  0.7315
 2502SOL    HW210053   1.809   0.171   4.358 -0.0933  0.5136  0.5281
 2502SOL    HW310054   1.795   0.234   4.221 -1.6999 -0.6379  0.1449
 2502SOL    MW410055   1.795   0.164   4.272 -0.2877 -0.3042  0.6270
 2503SOL     OW10056   1.781   0.392   4.145 -0.1242  0.0184 -0.3743
 2503SOL    HW210057   1.827   0.450   4.206 -0.2583 -1.1432  0.8784
 2503SOL    HW310058   1.689   0.405   4.166 -0.2836  1.0858 -1.7128
 2503SOL    MW410059   1.775   0.401   4.156 -0.1630  0.0060 -0.3853
 2504SOL     OW10060   1.979   0.543   4.307 -0.2382 -0.2661  0.0298
 2504SOL    HW210061   2.015   0.559   4.394  0.9524  0.8295 -0.6534
 2504SOL    HW310062   2.050   0.500   4.259 -0.3218  0.5978 -0.8915
 2504SOL    MW410063   1.993   0.539   4.312 -0.0921 -0.0075 -0.1822
 2505SOL     OW10064   1.986   0.783   4.163 -0.1742  0.4562  0.0123
 2505SOL    HW210065   2.071   0.823   4.180  0.0241 -0.1211  0.3900
 2505SOL    HW310066   1.984   0.705   4.219  1.0255 -2.2370 -3.4638
 2505SOL    MW410067   1.997   0.778   4.173  0.0101  0.0246 -0.3958
 2506SOL     OW10068   1.809   0.942   4.300  0.0708 -0.2353  0.2735
 2506SOL    HW210069   1.793   1.028   4.262 -2.5831 -0.8757 -0.2256
 2506SOL    HW310070   1.875   0.902   4.243  1.0426  1.3260  0.2991
 2506SOL    MW410071   1.815   0.948   4.287 -0.1512 -0.1137  0.2108
 2507SOL     OW10072   1.804   1.167   4.140  0.6322  0.1890  0.0647
 2507SOL    HW210073   1.875   1.226   4.163 -0.7825  2.0986 -0.3843
 2507SOL    HW310074   1.726   1.207   4.178 -0.3319 -1.4357 -0.1591
 2507SOL    MW410075   1.803   1.180   4.148  0.3183  0.2265 -0.0234
 2508SOL     OW10076   2.007   1.327   4.244  0.4031  0.5437 -0.2942
 2508SOL    HW210077   2.090   1.295   4.209 -0.1137  0.5535 -1.5317
 2508SOL    HW310078   2.005   1.420   4.223 -0.6472  0.2175 -1.7252
 2508SOL    MW410079   2.018   1.335   4.237  0.1960  0.5021 -0.6466
 2509SOL     OW10080   1.995   1.598   4.165  0.3150 -0.2433  0.1475
 2509SOL    HW210081   2.077   1.636   4.198 -0.3921  2.4423 -1.0886
 2509SOL    HW310082   2.011   1.584   4.072 -0.2492 -0.8489  0.1370
 2509SOL    MW410083   2.008   1.601   4.157  0.1473  0.0311 -0.0167
 2510SOL     OW10084   1.765   1.704   4.265  0.0565  0.3252  0.3638
 2510SOL    HW210085   1.850   1.666   4.240 -0.0959 -0.0134  0.3629
 2510SOL    HW310086   1.700   1.644   4.229 -0.2276  1.5821 -1.3043
 2510SOL    MW410087   1.768   1.691   4.257 -0.0010  0.4463  0.1445
 2511SOL     OW10088   1.788   1.981   4.206  0.1488 -0.4251  0.1871
 2511SOL    HW210089   1.784   1.890   4.237 -2.0410 -0.5648 -0.4010
 2511SOL    HW310090   1.704   2.019   4.233  0.2771  0.8859 -1.1925
 2511SOL    MW410091   1.776   1.974   4.214 -0.1233 -0.2706 -0.0720
 2512SOL     OW10092   2.024   2.131   4.261 -0.7306 -0.1708 -0.0863
 2512SOL    HW210093   2.097   2.091   4.214  0.0046  1.8765 -0.7457
 2512SOL    HW310094   1.947   2.086   4.228 -0.0834  0.1118 -2.0497
 2512SOL    MW410095   2.024   2.120   4.251 -0.5481  0.1366 -0.4325
 2513SOL     OW10096   1.985   2.369   4.118 -0.4347  0.1995  0.5904
 2513SOL    HW210097   1.998   2.283   4.158 -1.6035 -0.5269 -0.5250
 2513SOL    HW310098   1.999   2.354   4.024 -1.3630  1.0603  0.2991
 2513SOL    MW410099   1.989   2.355   4.111 -0.7113  0.2172  0.4053
 2514SOL     OW10100   1.773   2.457   4.259 -0.0911 -0.0945 -0.4078
 2514SOL    HW210101   1.796   2.451   4.352  0.6393  0.1031 -0.5732
 2514SOL    HW310102   1.846   2.416   4.214 -0.2856  0.1223 -0.9219
 2514SOL    MW410103   1.785   2.451   4.265 -0.0204 -0.0396 -0.4973
 2515SOL     OW10104   1.800   2.710   4.131 -0.0184  0.1456  0.0273
 2515SOL    HW210105   1.773   2.635   4.184  0.2601 -0.8749 -1.2573
 2515SOL    HW310106   1.732   2.776   4.147 -0.6607 -0.6395  0.5787
 2515SOL    MW410107   1.787   2.709   4.140 -0.0665 -0.0925 -0.0696
 2516SOL     OW10108   2.040   2.830   4.237  0.3209  0.4211 -0.1589
 2516SOL    HW210109   2.028   2.841   4.332  0.8019 -0.1680 -0.0314
 2516SOL    HW310110   1.976   2.764   4.212  1.2584 -0.5824  0.0300
 2516SOL    MW410111   2.030   2.823   4.246  0.5076  0.2110 -0.1173
 2517SOL     OW10112   2.016   3.077   4.128 -0.3390 -0.5590  0.0777
 2517SOL    HW210113   2.024   2.985   4.155 -0.4987 -0.5448  0.1763
 2517SOL    HW310114   1.993   3.073   4.035 -1.7753 -0.6480  0.4243
 2517SOL    MW410115   2.014   3.064   4.120 -0.5498 -0.5689  0.1364
 2518SOL     OW10116   1.794   3.239   4.222 -0.4270 -0.3228 -0.1605
 2518SOL    HW210117   1.826   3.327   4.200 -1.0123  0.0729  0.5428
 2518SOL    HW310118   1.871   3.183   4.214  0.3794  0.5558  1.1787
 2518SOL    MW410119   1.808   3.243   4.218 -0.3977 -0.1547  0.1097
 2519SOL     OW10120   1.832   3.504   4.132 -0.2222  0.0460  0.2625
 2519SOL    HW210121   1.757   3.553   4.165 -0.3546  0.4768 -0.6765
 2519SOL    HW310122   1.816   3.495   4.038  1.0210  0.3693  0.0112
 2519SOL    MW410123   1.820   3.510   4.124 -0.0756  0.1454  0.1059
 2520SOL     OW10124   2.089   3.638   4.204 -0.2334  0.2897  0.0527
 2520SOL    HW210125   2.083   3.733   4.196 -1.3263  0.1830 -0.4384
 2520SOL    HW310126   2.006   3.606   4.169 -0.1573 -0.8060  0.8623
 2520SOL    MW410127   2.077   3.647   4.198 -0.3676  0.1311  0.0949
 2521SOL     OW10128   2.054   3.925   4.165 -0.1943 -0.0352  0.3126
 2521SOL    HW210129   1.974   3.961   4.204 -0.0802 -0.8301  1.2968
 2521SOL    HW310130   2.040   3.933   4.071 -1.6904 -0.6940  0.4565
 2521SOL    MW410131   2.041   3.931   4.158 -0.3767 -0.2267  0.4611
 2522SOL     OW10132   1.803   4.022   4.240 -0.6943  0.0873  0.2910
 2522SOL    HW210133   1.778   4.109   4.212 -0.1879  0.4057  0.8144
 2522SOL    HW310134   1.730   3.966   4.213 -0.2439  0.3801 -1.6025
 2522SOL    MW410135   1.790   4.026   4.233 -0.5682  0.1678  0.1101
 2523SOL     OW10136   1.784   4.331   4.173  0.5761 -0.2746 -0.4179
 2523SOL    HW210137   1.869   4.367   4.197  0.8850 -0.7236 -0.8580
 2523SOL    HW310138   1.782   4.333   4.078 -0.6194  1.4098 -0.3879
 2523SOL    MW410139   1.795   4.336   4.164  0.4592 -0.1111 -0.4721
 2524SOL     OW10140   2.049   4.391   4.264 -0.2899  0.3729 -0.0436
 2524SOL    HW210141   2.044   4.389   4.359  1.0711  0.9122  0.0580
 2524SOL    HW310142   2.032   4.483   4.241 -3.5025 -0.2892 -0.5374
 2524SOL    MW410143   2.046   4.403   4.274 -0.5343  0.3567 -0.0954
 2525SOL     OW10144   2.453   0.015   4.171  0.6313 -0.1617  0.2471
 2525SOL    HW210145   2.538   0.055   4.190  0.2373  0.0486  1.6432
 2525SOL    HW310146   2.462  -0.076   4.199  0.4039 -0.1396  0.3979
 2525SOL    MW410147   2.466   0.008   4.178  0.5493 -0.1310  0.4516
 2526SOL     OW10148   2.220   0.131   4.263 -0.0075 -0.3167 -0.5235
 2526SOL    HW210149   2.309   0.108   4.237  0.3743  2.1595 -1.6571
 2526SOL    HW310150   2.164   0.078   4.207  0.7679 -1.5059 -0.1745
 2526SOL    MW410151   2.224   0.121   4.252  0.1454 -0.1469 -0.6275
 2527SOL     OW10152   2.195   0.398   4.159  0.7127  0.0441 -0.5542
 2527SOL    HW210153   2.201   0.310   4.196  2.4186  0.5755  0.4756
 2527SOL    HW310154   2.214   0.387   4.066  1.2363 -0.6273 -0.3693
 2527SOL    MW410155   2.198   0.385   4.152  1.0071  0.0256 -0.3934
 2528SOL     OW10156   2.428   0.535   4.225  0.4803 -0.1913 -0.0928
 2528SOL    HW210157   2.423   0.550   4.320  1.8509 -0.9918  0.1167
 2528SOL    HW310158   2.354   0.477   4.206 -0.0604  0.3268  0.4151
 2528SOL    MW410159   2.417   0.529   4.235  0.5898 -0.2286  0.0014
 2529SOL     OW10160   2.455   0.788   4.109  0.3441  0.1363  0.0486
 2529SOL    HW210161   2.438   0.705   4.152 -0.5620  0.0713 -0.4316
 2529SOL    HW310162   2.476   0.765   4.018  0.7412  0.3840  0.0744
 2529SOL    MW410163   2.456   0.774   4.102  0.2770  0.1605 -0.0114
 2530SOL     OW10164   2.225   0.930   4.206  0.0445 -0.2402  0.1343
 2530SOL    HW210165   2.257   0.940   4.296 -1.0517  1.2935  0.3634
 2530SOL    HW310166   2.300   0.895   4.158  1.2199  0.6903  1.2555
 2530SOL    MW410167   2.239   0.927   4.212  0.0548  0.0849  0.3119
 2531SOL     OW10168   2.227   1.198   4.116  0.2293 -0.3568  0.2653
 2531SOL    HW210169   2.307   1.239   4.146 -0.1456 -0.2860  1.1901
 2531SOL    HW310170   2.233   1.107   4.146 -0.0408 -0.3482  0.3522
 2531SOL    MW410171   2.238   1.191   4.124  0.1442 -0.3463  0.3986
 2532SOL     OW10172   2.441   1.315   4.228  0.1319 -0.2445 -0.6597
 2532SOL    HW210173   2.440   1.324   4.323  2.2360 -1.0909 -0.5343
 2532SOL    HW310174   2.533   1.297   4.206 -0.1175  1.1393 -2.9685
 2532SOL    MW410175   2.453   1.314   4.237  0.3767 -0.1736 -0.9480
 2533SOL     OW10176   2.479   1.572   4.146 -0.3550 -0.1639  0.4462
 2533SOL    HW210177   2.472   1.485   4.185  2.3820 -0.6918 -0.1273
 2533SOL    HW310178   2.455   1.559   4.054  0.2235 -0.3720  0.3194
 2533SOL    MW410179   2.475   1.559   4.139  0.0825 -0.2609  0.3533
 2534SOL     OW10180   2.247   1.679   4.294  0.2315 -0.3060 -0.1100
 2534SOL    HW210181   2.264   1.670   4.388 -0.2868  1.1208  0.1391
 2534SOL    HW310182   2.323   1.640   4.252  1.6713  1.3031  0.9434
 2534SOL    MW410183   2.259   1.673   4.301  0.3533  0.0945  0.0625
 2535SOL     OW10184   2.230   1.941   4.168 -0.5021  0.1662  0.1941
 2535SOL    HW210185   2.315   1.979   4.189 -1.3789  1.0890  2.1460
 2535SOL    HW310186   2.220   1.867   4.228 -1.0956  0.0849  0.0044
 2535SOL    MW410187   2.240   1.936   4.178 -0.6962  0.2773  0.4268
 2536SOL     OW10188   2.472   2.065   4.222  0.7353  0.0976  0.1218
 2536SOL    HW210189   2.474   2.049   4.317  0.5784 -0.4282  0.0357
 2536SOL    HW310190   2.548   2.019   4.188  0.8703  0.4018  0.0045
 2536SOL    MW410191   2.483   2.057   4.230  0.7322  0.0684  0.0954
 2537SOL     OW10192   2.463   2.326   4.145  0.2117 -0.1919 -0.1560
 2537SOL    HW210193   2.450   2.245   4.193  0.4040  0.1207  0.4237
 2537SOL    HW310194   2.461   2.300   4.053 -0.1466 -0.7905  0.0197
 2537SOL    MW410195   2.461   2.312   4.139  0.1898 -0.2296 -0.0558
 2538SOL     OW10196   2.226   2.496   4.202 -0.1592  0.4070 -0.3168
 2538SOL    HW210197   2.290   2.431   4.173 -0.7079 -0.2266 -0.1235
 2538SOL    HW310198   2.141   2.458   4.179 -0.5396  0.4773  0.9334
 2538SOL    MW410199   2.223   2.482   4.195 -0.2818  0.3328 -0.1264
 2539SOL     OW10200   2.259   2.745   4.099 -0.4640 -0.1716  0.2108
 2539SOL    HW210201   2.269   2.658   4.140  0.0967 -0.2743 -0.1411
 2539SOL    HW310202   2.188   2.786   4.148 -0.9168 -0.9371  0.2052
 2539SOL    MW410203   2.251   2.739   4.111 -0.4497 -0.2861  0.1636
 2540SOL     OW10204   2.452   2.832   4.292  0.3818 -0.0924  0.0330
 2540SOL    HW210205   2.440   2.819   4.386  0.4750  1.1683  0.2163
 2540SOL    HW310206   2.379   2.784   4.252 -0.6567  0.8268  0.8115
 2540SOL    MW410207   2.441   2.824   4.299  0.2573  0.1955  0.1602
 2541SOL     OW10208   2.457   3.048   4.133  0.5239 -0.1341  0.0349
 2541SOL    HW210209   2.383   3.104   4.155  0.4102 -0.3325  0.1612
 2541SOL    HW310210   2.444   2.969   4.185 -0.0753 -0.8616 -1.1982
 2541SOL    MW410211   2.446   3.045   4.143  0.4296 -0.2565 -0.1116
 2542SOL     OW10212   2.247   3.214   4.199  0.2793 -0.0118 -0.2670
 2542SOL    HW210213   2.245   3.295   4.149  0.1903  0.4924  0.5476
 2542SOL    HW310214   2.162   3.173   4.182  0.0435  0.4112 -0.1218
 2542SOL    MW410215   2.235   3.219   4.190  0.2363  0.1106 -0.1397
 2543SOL     OW10216   2.266   3.468   4.080  0.0220 -0.2183  0.4429
 2543SOL    HW210217   2.332   3.509   4.136  0.2967 -0.2883  0.1702
 2543SOL    HW310218   2.188   3.523   4.092  0.1537 -0.0843  0.6970
 2543SOL    MW410219   2.265   3.481   4.089  0.0756 -0.2100  0.4411
 2544SOL     OW10220   2.453   3.596   4.230  0.4787 -0.2323  0.3105
 2544SOL    HW210221   2.432   3.576   4.321  0.8391 -0.3860  0.3624
 2544SOL    HW310222   2.467   3.691   4.229 -1.3785  0.0532  0.0305
 2544SOL    MW410223   2.452   3.606   4.242  0.2811 -0.2151  0.2799
 2545SOL     OW10224   2.474   3.884   4.186 -0.4919 -0.0928 -0.0951
 2545SOL    HW210225   2.552   3.937   4.202 -1.5580  0.9226  1.9361
 2545SOL    HW310226   2.467   3.879   4.091  1.1935  1.0694 -0.3020
 2545SOL    MW410227   2.484   3.890   4.175 -0.4101  0.1945  0.1459
 2546SOL     OW10228   2.281   4.023   4.301 -0.5661 -0.2096 -0.0100
 2546SOL    HW210229   2.351   3.968   4.267 -0.3528 -0.1773  0.3721
 2546SOL    HW310230   2.203   3.998   4.251 -0.3072 -0.3256 -0.3560
 2546SOL    MW410231   2.280   4.013   4.290 -0.5038 -0.2208 -0.0057
 2547SOL     OW10232   2.279   4.274   4.147  0.1058  0.1250  0.1410
 2547SOL    HW210233   2.286   4.194   4.198 -0.0216  1.3782  2.1896
 2547SOL    HW310234   2.195   4.312   4.173 -0.0497  0.7120 -1.1474
 2547SOL    MW410235   2.269   4.269   4.157  0.0684  0.3676  0.2413
 2548SOL     OW10236   2.486   4.403   4.286  0.0854  0.3936  0.2047
 2548SOL    HW210237   2.565   4.369   4.243  1.0011  2.7406 -0.0525
 2548SOL    HW310238   2.415   4.381   4.225  0.9029  0.5570 -0.8279
 2548SOL    MW410239   2.487   4.396   4.272  0.3140  0.7243  0.0348
 2549SOL     OW10240   2.922   0.045   4.200 -0.0070  0.4316  0.2513
 2549SOL    HW210241   2.993   0.094   4.242  0.2409  0.0354  0.2923
 2549SOL    HW310242   2.940  -0.046   4.221 -0.8341  0.3740  0.7201
 2549SOL    MW410243   2.934   0.040   4.208 -0.0832  0.3717  0.3185
 2550SOL     OW10244   2.666   0.157   4.279  0.1478 -0.5413  0.0622
 2550SOL    HW210245   2.662   0.250   4.258  0.2953 -0.7026 -0.7102
 2550SOL    HW310246   2.757   0.133   4.260  0.3024 -0.6725  0.9815
 2550SOL    MW410247   2.678   0.166   4.274  0.1876 -0.5799  0.0811
 2551SOL     OW10248   2.677   0.401   4.162  0.5151  0.0086 -0.0275
 2551SOL    HW210249   2.590   0.438   4.173  0.4092 -0.6115  1.4160
 2551SOL    HW310250   2.685   0.384   4.068 -1.0412 -0.2129 -0.1282
 2551SOL    MW410251   2.667   0.403   4.151  0.2956 -0.1024  0.1497
 2552SOL     OW10252   2.920   0.519   4.275 -0.0793 -0.3672  0.4339
 2552SOL    HW210253   2.912   0.611   4.247  0.0807 -0.2491  0.7653
 2552SOL    HW310254   2.836   0.480   4.255 -0.0379 -0.2290 -0.0155
 2552SOL    MW410255   2.908   0.526   4.268 -0.0529 -0.3333  0.4177
 2553SOL     OW10256   2.896   0.784   4.203 -0.0507  0.3268  0.0547
 2553SOL    HW210257   2.970   0.841   4.221  0.7307 -1.0360  1.2847
 2553SOL    HW310258   2.891   0.780   4.107 -0.3065  2.6490 -0.0437
 2553SOL    MW410259   2.905   0.791   4.192  0.0186  0.4534  0.2041
 2554SOL     OW10260   2.664   0.927   4.263  0.1392  0.3984 -0.1417
 2554SOL    HW210261   2.742   0.871   4.260 -0.4723 -0.4028 -1.3680
 2554SOL    HW310262   2.599   0.881   4.211 -0.5856  1.9477 -0.6537
 2554SOL    MW410263   2.666   0.914   4.256 -0.0370  0.4971 -0.3710
 2555SOL     OW10264   2.684   1.185   4.163  0.1723  0.0431  0.2883
 2555SOL    HW210265   2.677   1.101   4.209  0.1416  0.3051  0.7622
 2555SOL    HW310266   2.680   1.161   4.070  0.2990 -0.4942  0.4150
 2555SOL    MW410267   2.683   1.171   4.157  0.1850  0.0068  0.3672
 2556SOL     OW10268   2.925   1.279   4.253 -0.0029 -0.2020  0.2190
 2556SOL    HW210269   2.995   1.223   4.220  0.2450  1.5211 -2.3170
 2556SOL    HW310270   2.845   1.239   4.220  0.1071  0.2682 -0.6551
 2556SOL    MW410271   2.924   1.266   4.244  0.0443  0.0875 -0.2313
 2557SOL     OW10272   2.932   1.512   4.119 -0.2800 -0.4714  0.0307
 2557SOL    HW210273   3.005   1.550   4.166 -0.3180  0.6360 -0.7834
 2557SOL    HW310274   2.913   1.430   4.165 -0.3634  0.6193  1.9555
 2557SOL    MW410275   2.939   1.506   4.131 -0.2964 -0.1814  0.1769
 2558SOL     OW10276   2.729   1.691   4.190  0.0256  0.0678  0.3748
 2558SOL    HW210277   2.789   1.620   4.164  0.0415  0.4994 -0.7820
 2558SOL    HW310278   2.642   1.660   4.164 -0.0292  0.2522  0.3367
 2558SOL    MW410279   2.725   1.677   4.183  0.0203  0.1490  0.2170
 2559SOL     OW10280   2.693   1.952   4.108  0.2036 -0.0601 -0.0838
 2559SOL    HW210281   2.724   1.866   4.137 -0.8124 -0.3797  0.0445
 2559SOL    HW310282   2.704   1.951   4.013  2.7556  0.6828  0.1526
 2559SOL    MW410283   2.699   1.941   4.100  0.4065 -0.0042 -0.0358
 2560SOL     OW10284   2.905   2.087   4.227  0.2422 -0.4274  0.0348
 2560SOL    HW210285   2.904   2.181   4.210 -0.5815 -0.2415  1.0906
 2560SOL    HW310286   2.824   2.054   4.189  1.1533 -0.9327 -1.5098
 2560SOL    MW410287   2.894   2.095   4.220  0.2537 -0.4694 -0.0291
 2561SOL     OW10288   2.918   2.357   4.136  0.3759  0.0712  0.1074
 2561SOL    HW210289   2.998   2.404   4.158  0.4231 -0.1431  0.3945
 2561SOL    HW310290   2.847   2.415   4.165  0.4377 -0.5200  1.5034
 2561SOL    MW410291   2.919   2.371   4.143  0.3901 -0.0350  0.3295
 2562SOL     OW10292   2.694   2.481   4.267 -0.3129  0.0994  0.3236
 2562SOL    HW210293   2.737   2.444   4.344 -0.1125 -0.7178 -0.1856
 2562SOL    HW310294   2.612   2.433   4.259  0.2455 -0.6918 -0.7205
 2562SOL    MW410295   2.689   2.470   4.276 -0.2127 -0.1128  0.1183
 2563SOL     OW10296   2.702   2.748   4.186 -0.1895  0.3110 -0.4310
 2563SOL    HW210297   2.711   2.662   4.226 -0.5761 -0.9342 -2.9821
 2563SOL    HW310298   2.618   2.781   4.219 -0.5272 -0.7135 -0.2698
 2563SOL    MW410299   2.692   2.741   4.196 -0.2851  0.0117 -0.7467
 2564SOL     OW10300   2.959   2.861   4.282 -0.0854  0.5789 -0.2310
 2564SOL    HW210301   2.967   2.844   4.376  1.0328  1.4522 -0.1564
 2564SOL    HW310302   2.866   2.844   4.262 -0.0895 -0.6645  0.8000
 2564SOL    MW410303   2.948   2.856   4.292  0.0618  0.5302 -0.0854
 2565SOL     OW10304   2.922   3.137   4.152  0.2777 -0.3914 -0.5027
 2565SOL    HW210305   2.945   3.048   4.178 -1.1998 -1.0664 -1.4041
 2565SOL    HW310306   2.931   3.137   4.057 -0.1237  0.3043 -0.5434
 2565SOL    MW410307   2.926   3.125   4.143  0.0298 -0.3886 -0.6266
 2566SOL     OW10308   2.676   3.195   4.260  0.1376 -0.3431  0.1265
 2566SOL    HW210309   2.765   3.177   4.232  0.1443  0.1691 -0.1806
 2566SOL    HW310310   2.621   3.138   4.207  0.2755 -0.6223  0.2820
 2566SOL    MW410311   2.680   3.185   4.250  0.1569 -0.3121  0.1068
 2567SOL     OW10312   2.674   3.444   4.129  0.2380 -0.5100  0.1776
 2567SOL    HW210313   2.678   3.363   4.180 -0.8765 -0.1366  0.8855
 2567SOL    HW310314   2.601   3.493   4.168  0.3855  0.4760 -0.7636
 2567SOL    MW410315   2.665   3.439   4.141  0.1106 -0.3307  0.1464
 2568SOL     OW10316   2.876   3.601   4.248 -0.0185  0.3604 -0.9191
 2568SOL    HW210317   2.868   3.585   4.342 -0.3418  1.0022 -0.8348
 2568SOL    HW310318   2.802   3.554   4.209 -0.5210  0.9913 -0.7435
 2568SOL    MW410319   2.865   3.593   4.255 -0.1273  0.5283 -0.8850
 2569SOL     OW10320   2.970   3.898   4.165  0.3637  0.2369 -0.4339
 2569SOL    HW210321   3.043   3.943   4.207  0.9984 -0.7886 -0.4141
 2569SOL    HW310322   2.965   3.813   4.210 -1.5163  0.7018  0.2834
 2569SOL    MW410323   2.979   3.893   4.177  0.1996  0.1628 -0.3366
 2570SOL     OW10324   2.711   4.021   4.265  0.3284 -0.5143  0.2192
 2570SOL    HW210325   2.719   4.114   4.242  1.5429 -0.6087  0.2074
 2570SOL    HW310326   2.801   3.988   4.261  0.0130 -1.4985  1.0562
 2570SOL    MW410327   2.724   4.029   4.261  0.4468 -0.6566  0.3281
 2571SOL     OW10328   2.726   4.300   4.188  0.0597  0.2619  0.3433
 2571SOL    HW210329   2.807   4.343   4.214 -0.6484  1.7825  0.1104
 2571SOL    HW310330   2.734   4.291   4.093 -0.1798  0.6909  0.2838
 2571SOL    MW410331   2.738   4.304   4.179 -0.0653  0.5188  0.3047
 2572SOL     OW10332   2.960   4.437   4.243  0.2998 -0.0600 -0.5421
 2572SOL    HW210333   2.979   4.430   4.336 -1.4693 -2.6727 -0.3051
 2572SOL    HW310334   3.038   4.404   4.199 -0.4737 -2.9304  0.1667
 2572SOL    MW410335   2.973   4.432   4.249 -0.0355 -0.7834 -0.4177
 2573SOL     OW10336   3.372   0.032   4.200 -0.5698 -0.3587  0.5734
 2573SOL    HW210337   3.453   0.068   4.237  0.0811 -0.4095 -0.8052
 2573SOL    HW310338   3.373  -0.061   4.225  0.0152 -0.4587  0.1758
 2573SOL    MW410339   3.382   0.024   4.209 -0.4070 -0.3786  0.3390
 2574SOL     OW10340   3.155   0.160   4.326 -0.0547  0.4892  0.5225
 2574SOL    HW210341   3.130   0.118   4.408  0.4126  0.9437  0.8968
 2574SOL    HW310342   3.230   0.111   4.295  0.1980  0.7474  0.7203
 2574SOL    MW410343   3.161   0.148   4.333  0.0403  0.5832  0.5975
 2575SOL     OW10344   3.142   0.396   4.178  0.5410  0.1890 -0.2200
 2575SOL    HW210345   3.136   0.315   4.229  2.3801  0.3901  0.3372
 2575SOL    HW310346   3.072   0.451   4.213  0.5309 -0.4172  0.7429
 2575SOL    MW410347   3.132   0.393   4.189  0.7820  0.1355 -0.0200
 2576SOL     OW10348   3.370   0.499   4.314 -0.2656  0.3613 -0.2007
 2576SOL    HW210349   3.448   0.453   4.284  0.5326  2.0834 -0.8003
 2576SOL    HW310350   3.297   0.451   4.276  0.5656 -0.2638 -1.0061
 2576SOL    MW410351   3.371   0.487   4.305 -0.0508  0.5060 -0.3862
 2577SOL     OW10352   3.375   0.717   4.145  0.0337 -0.4922  0.5396
 2577SOL    HW210353   3.300   0.773   4.165 -0.4683 -1.3233  1.0483
 2577SOL    HW310354   3.364   0.641   4.203  0.1246 -1.6007 -0.8601
 2577SOL    MW410355   3.364   0.714   4.155 -0.0207 -0.7481  0.4225
 2578SOL     OW10356   3.168   0.897   4.239  0.1298 -0.2760  0.0962
 2578SOL    HW210357   3.175   0.896   4.334 -1.0503 -1.2515  0.1913
 2578SOL    HW310358   3.169   0.989   4.215  1.3091 -0.0522  0.9820
 2578SOL    MW410359   3.169   0.909   4.248  0.1295 -0.3752  0.2255
 2579SOL     OW10360   3.144   1.156   4.161 -0.5131 -0.3271 -0.2846
 2579SOL    HW210361   3.215   1.204   4.205 -0.9547 -0.5285  0.6703
 2579SOL    HW310362   3.153   1.179   4.069  0.2076  0.4076 -0.0406
 2579SOL    MW410363   3.155   1.166   4.155 -0.4766 -0.2568 -0.1268
 2580SOL     OW10364   3.386   1.294   4.247 -0.0281 -0.3982  0.2597
 2580SOL    HW210365   3.365   1.303   4.340 -2.1677 -1.3005 -0.1039
 2580SOL    HW310366   3.380   1.383   4.213 -1.1949 -0.3292  0.6102
 2580SOL    MW410367   3.382   1.307   4.255 -0.4642 -0.5082  0.2584
 2581SOL     OW10368   3.380   1.570   4.159  0.1650  0.2270  0.2663
 2581SOL    HW210369   3.297   1.600   4.196  0.1414  0.7890 -0.2269
 2581SOL    HW310370   3.367   1.576   4.064  1.1616  1.4230  0.1933
 2581SOL    MW410371   3.367   1.574   4.151  0.2933  0.4590  0.1917
 2582SOL     OW10372   3.139   1.657   4.260 -0.0544 -0.3149  0.3680
 2582SOL    HW210373   3.139   1.679   4.353  0.2472 -0.7618  0.4736
 2582SOL    HW310374   3.129   1.741   4.215 -0.7940 -0.1601  0.8187
 2582SOL    MW410375   3.137   1.671   4.266 -0.1123 -0.3536  0.4411
 2583SOL     OW10376   3.147   1.941   4.128 -0.6010  0.0189 -0.1681
 2583SOL    HW210377   3.229   1.988   4.148  0.2466 -2.0250  1.3338
 2583SOL    HW310378   3.079   1.997   4.166  0.2615  0.7591  0.3324
 2583SOL    MW410379   3.149   1.955   4.136 -0.3753 -0.1532  0.0958
 2584SOL     OW10380   3.362   2.110   4.194 -0.5365  0.6191 -0.0652
 2584SOL    HW210381   3.447   2.068   4.186 -0.6755  0.0225  1.4277
 2584SOL    HW310382   3.377   2.201   4.169  0.1351  0.0878 -1.6265
 2584SOL    MW410383   3.375   2.117   4.190 -0.4663  0.4702 -0.0739
 2585SOL     OW10384   3.391   2.380   4.138 -0.1941  0.4302 -0.2509
 2585SOL    HW210385   3.478   2.405   4.167 -0.6027 -0.1517  1.5183
 2585SOL    HW310386   3.401   2.358   4.045  1.2109  1.9345 -0.4740
 2585SOL    MW410387   3.404   2.381   4.130 -0.0627  0.5519 -0.0472
 2586SOL     OW10388   3.145   2.478   4.228  0.0438  0.2519  0.0569
 2586SOL    HW210389   3.154   2.571   4.210  0.6372  0.1964  0.0530
 2586SOL    HW310390   3.221   2.438   4.186 -0.1876 -0.2298  0.0880
 2586SOL    MW410391   3.156   2.485   4.220  0.0916  0.1810  0.0601
 2587SOL     OW10392   3.174   2.738   4.140 -0.1534  0.3108 -0.2274
 2587SOL    HW210393   3.249   2.790   4.168 -0.0228  0.3058 -0.5636
 2587SOL    HW310394   3.099   2.778   4.185 -0.1476  1.2097 -1.0011
 2587SOL    MW410395   3.174   2.750   4.149 -0.1354  0.4287 -0.3738
 2588SOL     OW10396   3.414   2.842   4.233  0.4223 -0.3724 -0.7225
 2588SOL    HW210397   3.490   2.793   4.202  0.8878  0.7360 -1.3502
 2588SOL    HW310398   3.435   2.934   4.213 -0.6672  0.0281 -0.0430
 2588SOL    MW410399   3.427   2.848   4.227  0.3402 -0.1738 -0.7157
 2589SOL     OW10400   3.417   3.122   4.177  0.8175 -0.3987 -0.1323
 2589SOL    HW210401   3.334   3.152   4.213  0.8420 -0.7090  0.1847
 2589SOL    HW310402   3.404   3.124   4.082  0.0931 -1.4438 -0.0715
 2589SOL    MW410403   3.404   3.126   4.170  0.7253 -0.5777 -0.0830
 2590SOL     OW10404   3.164   3.246   4.257  0.0903  0.5835  0.0139
 2590SOL    HW210405   3.158   3.336   4.227 -0.9589  0.3595 -0.4661
 2590SOL    HW310406   3.077   3.210   4.243  0.6575 -0.6758 -0.3496
 2590SOL    MW410407   3.152   3.253   4.251  0.0267  0.3877 -0.0978
 2591SOL     OW10408   3.147   3.504   4.187 -0.2360  0.8019  0.2951
 2591SOL    HW210409   3.063   3.541   4.217  0.5670  1.4925  1.7333
 2591SOL    HW310410   3.143   3.512   4.092 -1.6133  1.2744  0.3758
 2591SOL    MW410411   3.135   3.510   4.178 -0.3119  0.9551  0.4954
 2592SOL     OW10412   3.391   3.656   4.231  0.2238 -0.2475  0.0126
 2592SOL    HW210413   3.400   3.662   4.327 -0.2273  1.5198 -0.0279
 2592SOL    HW310414   3.302   3.625   4.217  0.7539 -1.8880  0.1734
 2592SOL    MW410415   3.380   3.653   4.242  0.2341 -0.2308  0.0286
 2593SOL     OW10416   3.423   3.929   4.149  0.0674  0.3759 -0.0662
 2593SOL    HW210417   3.411   3.844   4.191 -1.7519  0.3946 -0.4992
 2593SOL    HW310418   3.412   3.912   4.056 -0.0154  1.0354 -0.1803
 2593SOL    MW410419   3.420   3.915   4.143 -0.1836  0.4652 -0.1383
 2594SOL     OW10420   3.189   4.046   4.228  0.0869 -0.0149  0.2985
 2594SOL    HW210421   3.202   4.064   4.321 -1.1391 -0.6877  0.6070
 2594SOL    HW310422   3.273   4.012   4.198  0.7015  0.8872  0.9932
 2594SOL    MW410423   3.202   4.044   4.236  0.0062  0.0153  0.4315
 2595SOL     OW10424   3.177   4.311   4.124  0.3143  0.0440  0.1942
 2595SOL    HW210425   3.253   4.349   4.168  2.5072 -1.4213 -2.1991
 2595SOL    HW310426   3.169   4.223   4.161  0.2503 -0.0804 -0.1168
 2595SOL    MW410427   3.186   4.304   4.135  0.5951 -0.1659 -0.1626
 2596SOL     OW10428   3.388   4.424   4.264  0.2166  0.3080 -0.1721
 2596SOL    HW210429   3.378   4.393   4.355 -1.9191  0.4214 -0.3541
 2596SOL    HW310430   3.465   4.377   4.232 -0.4890 -1.6817  0.9134
 2596SOL    MW410431   3.397   4.414   4.272 -0.1585  0.0606 -0.0525
 2597SOL     OW10432   3.820   4.655   4.189  0.1744 -0.1123 -0.1410
 2597SOL    HW210433   3.894   4.707   4.221  0.7507 -0.3371 -1.0841
 2597SOL    HW310434   3.822   4.666   4.094 -0.6867 -0.5445 -0.2113
 2597SOL    MW410435   3.830   4.663   4.181  0.1366 -0.1993 -0.2747
 2598SOL     OW10436   3.607   0.110   4.319 -0.0279 -0.2572  0.1545
 2598SOL    HW210437   3.615   0.198   4.282  0.3852 -0.3454  0.0304
 2598SOL    HW310438   3.674   0.059   4.274 -0.9806 -0.8988 -0.5642
 2598SOL    MW410439   3.617   0.114   4.308 -0.0989 -0.3535  0.0434
 2599SOL     OW10440   3.590   0.375   4.192  0.7525  0.1046 -0.4180
 2599SOL    HW210441   3.675   0.414   4.215  1.7682 -1.8304 -0.7539
 2599SOL    HW310442   3.593   0.367   4.097  0.5381 -0.7156 -0.3561
 2599SOL    MW410443   3.602   0.379   4.182  0.8583 -0.2589 -0.4535
 2600SOL     OW10444   3.818   0.501   4.270 -0.1518 -0.0656  0.1063
 2600SOL    HW210445   3.821   0.491   4.365  0.9350 -0.1893  0.0646
 2600SOL    HW310446   3.814   0.596   4.255  2.4558  0.0839  0.2225
 2600SOL    MW410447   3.818   0.512   4.280  0.3357 -0.0622  0.1163
 2601SOL     OW10448   3.821   0.777   4.194  0.3734  0.3438 -0.6986
 2601SOL    HW210449   3.739   0.821   4.216  0.1915 -0.1395 -0.4126
 2601SOL    HW310450   3.821   0.772   4.098  1.2077  2.5244 -0.8381
 2601SOL    MW410451   3.810   0.782   4.184  0.4594  0.5677 -0.6790
 2602SOL     OW10452   3.573   0.892   4.245  0.5080 -0.4186  0.1739
 2602SOL    HW210453   3.559   0.976   4.202  2.5920 -0.4132 -0.5776
 2602SOL    HW310454   3.508   0.834   4.207 -0.3502  0.6237  0.0292
 2602SOL    MW410455   3.563   0.895   4.234  0.6697 -0.2804  0.0558
 2603SOL     OW10456   3.595   1.160   4.147  0.0551 -0.1842 -0.1854
 2603SOL    HW210457   3.513   1.206   4.167  0.2941 -0.0948  0.6261
 2603SOL    HW310458   3.604   1.167   4.052 -1.3948 -1.0728 -0.4063
 2603SOL    MW410459   3.585   1.167   4.138 -0.1047 -0.2897 -0.1068
 2604SOL     OW10460   3.826   1.257   4.274 -0.3444 -0.2420 -0.2412
 2604SOL    HW210461   3.736   1.239   4.246 -0.8255  0.3866  0.8505
 2604SOL    HW310462   3.836   1.351   4.263 -0.0616 -0.2077  0.2962
 2604SOL    MW410463   3.815   1.267   4.269 -0.3707 -0.1547 -0.0267
 2605SOL     OW10464   3.831   1.542   4.202 -0.3486  0.2185 -0.0284
 2605SOL    HW210465   3.899   1.583   4.254 -0.8791  0.5652  0.3920
 2605SOL    HW310466   3.749   1.581   4.233 -0.9372 -1.6706  0.8821
 2605SOL    MW410467   3.829   1.552   4.213 -0.4961  0.0150  0.1469
 2606SOL     OW10468   3.595   1.709   4.276 -1.0759 -0.3750  0.2734
 2606SOL    HW210469   3.533   1.657   4.225 -1.2720  0.0735  0.0486
 2606SOL    HW310470   3.566   1.697   4.367 -2.3240  0.8779  0.0748
 2606SOL    MW410471   3.583   1.700   4.282 -1.2665 -0.1504  0.2179
 2607SOL     OW10472   3.620   1.982   4.198 -0.7286 -0.3286 -0.2966
 2607SOL    HW210473   3.611   1.888   4.217  0.9724 -0.3538  0.4588
 2607SOL    HW310474   3.610   1.988   4.103 -0.1993 -1.3691 -0.4266
 2607SOL    MW410475   3.618   1.970   4.188 -0.4344 -0.4692 -0.2146
 2608SOL     OW10476   3.830   2.092   4.327 -0.3198  0.0407 -0.6052
 2608SOL    HW210477   3.810   2.090   4.421  0.6874 -0.7095 -0.3923
 2608SOL    HW310478   3.755   2.048   4.286 -0.1159 -0.8898 -0.0142
 2608SOL    MW410479   3.817   2.086   4.334 -0.1600 -0.1810 -0.4992
 2609SOL     OW10480   3.894   2.354   4.211 -0.1456 -0.6284  0.2251
 2609SOL    HW210481   3.868   2.268   4.243  0.0735 -1.1115 -0.8752
 2609SOL    HW310482   3.886   2.348   4.115 -0.2624  0.6119  0.1392
 2609SOL    MW410483   3.889   2.342   4.202 -0.1321 -0.5283  0.0687
 2610SOL     OW10484   3.624   2.488   4.247  0.1205 -0.2435 -0.1325
 2610SOL    HW210485   3.609   2.519   4.336 -0.9691 -1.2141  0.0448
 2610SOL    HW310486   3.711   2.449   4.250  0.3361  0.2639  0.3541
 2610SOL    MW410487   3.634   2.487   4.259  0.0052 -0.3047 -0.0448
 2611SOL     OW10488   3.679   2.746   4.161 -0.0077  0.2433 -0.1827
 2611SOL    HW210489   3.670   2.655   4.191  1.2189 -0.1324 -0.9276
 2611SOL    HW310490   3.645   2.745   4.072 -0.4727  0.6330 -0.0112
 2611SOL    MW410491   3.674   2.733   4.153  0.0930  0.2451 -0.2580
 2612SOL     OW10492   3.873   2.872   4.299 -0.5822 -0.4688 -0.3634
 2612SOL    HW210493   3.854   2.858   4.392 -0.8081 -0.3020 -0.3860
 2612SOL    HW310494   3.802   2.827   4.253 -0.5004 -0.5044 -0.4549
 2612SOL    MW410495   3.861   2.864   4.306 -0.6015 -0.4516 -0.3791
 2613SOL     OW10496   3.840   3.118   4.163 -0.3680 -0.2045 -0.5459
 2613SOL    HW210497   3.859   3.037   4.210  1.6809  0.3669 -0.3134
 2613SOL    HW310498   3.816   3.090   4.075 -0.0440 -1.0784 -0.3642
 2613SOL    MW410499   3.839   3.104   4.158 -0.0551 -0.2444 -0.4916
 2614SOL     OW10500   3.622   3.275   4.257 -0.1224 -0.6492  0.1246
 2614SOL    HW210501   3.696   3.219   4.233  0.7797  1.1466 -1.3547
 2614SOL    HW310502   3.544   3.221   4.238  0.7544 -1.7551 -0.3790
 2614SOL    MW410503   3.621   3.260   4.251  0.1125 -0.5581 -0.1364
 2615SOL     OW10504   3.631   3.533   4.139  0.4346 -0.1733  0.1590
 2615SOL    HW210505   3.640   3.445   4.175 -0.8087 -0.6107 -0.5689
 2615SOL    HW310506   3.550   3.566   4.177  0.1909  0.1456 -0.6402
 2615SOL    MW410507   3.622   3.526   4.149  0.2384 -0.1891 -0.0424
 2616SOL     OW10508   3.850   3.645   4.278  0.2848  0.3411 -0.9038
 2616SOL    HW210509   3.928   3.601   4.242  0.6279 -0.6163  0.9163
 2616SOL    HW310510   3.777   3.604   4.233  0.6795 -1.2125 -0.1808
 2616SOL    MW410511   3.851   3.634   4.267  0.3817  0.0100 -0.5684
 2617SOL     OW10512   3.851   3.885   4.121  0.1301  0.1056 -0.1526
 2617SOL    HW210513   3.773   3.937   4.141  0.6226  0.4123  0.9697
 2617SOL    HW310514   3.835   3.801   4.164  0.5723  0.2903  0.3762
 2617SOL    MW410515   3.838   3.881   4.129  0.2534  0.1702  0.0658
 2618SOL     OW10516   3.661   4.052   4.192  0.2983  0.6909 -0.0394
 2618SOL    HW210517   3.670   4.052   4.287  1.1646 -0.4722 -0.1079
 2618SOL    HW310518   3.583   3.999   4.175  0.8509 -0.1344 -0.0264
 2618SOL    MW410519   3.652   4.045   4.202  0.4857  0.4282 -0.0472
 2619SOL     OW10520   3.624   4.318   4.171  0.2742  1.0075  0.5581
 2619SOL    HW210521   3.707   4.347   4.208  1.0836 -0.6415  0.0606
 2619SOL    HW310522   3.621   4.224   4.188 -0.1003  0.4994 -2.0239
 2619SOL    MW410523   3.634   4.310   4.178  0.3316  0.7229  0.1521
 2620SOL     OW10524   3.867   4.373   4.295 -0.2515  0.1729 -0.0339
 2620SOL    HW210525   3.946   4.336   4.256 -0.1252 -0.0355  0.4173
 2620SOL    HW310526   3.875   4.467   4.280 -0.1661  0.1000 -0.4376
 2620SOL    MW410527   3.878   4.381   4.288 -0.2236  0.1364 -0.0277
 2621SOL     OW10528   4.261   4.609   4.186  0.2333  0.2401  0.5170
 2621SOL    HW210529   4.279   4.521   4.220  0.7376  0.3310  0.4897
 2621SOL    HW310530   4.343   4.657   4.199  0.0373  0.6351  0.3016
 2621SOL    MW410531   4.274   4.604   4.192  0.2737  0.3042  0.4849
 2622SOL     OW10532   4.042   0.108   4.323  0.3629 -0.2383  0.1295
 2622SOL    HW210533   4.065   0.190   4.279  0.1242  0.0486  0.5378
 2622SOL    HW310534   4.100   0.043   4.283  0.8579  0.2078  0.1052
 2622SOL    MW410535   4.053   0.110   4.312  0.3967 -0.1416  0.1807
 2623SOL     OW10536   4.060   0.364   4.204  0.1282 -0.1144  0.2963
 2623SOL    HW210537   4.139   0.405   4.237 -0.0099  1.1508 -0.9033
 2623SOL    HW310538   3.990   0.426   4.224 -0.3795 -0.6577  0.2297
 2623SOL    MW410539   4.061   0.377   4.211  0.0424 -0.0192  0.1292
 2624SOL     OW10540   4.299   0.461   4.310 -0.5561 -0.1487 -0.0597
 2624SOL    HW210541   4.290   0.553   4.283 -1.5071 -0.2910 -0.2649
 2624SOL    HW310542   4.367   0.426   4.253 -1.4428 -0.0310 -1.2184
 2624SOL    MW410543   4.307   0.469   4.299 -0.7982 -0.1519 -0.2394
 2625SOL     OW10544   4.247   0.719   4.180 -0.2743  0.5895 -0.2700
 2625SOL    HW210545   4.183   0.787   4.201 -0.2498  0.9838 -1.4306
 2625SOL    HW310546   4.258   0.724   4.085  0.1486 -0.6663 -0.3052
 2625SOL    MW410547   4.240   0.728   4.171 -0.2151  0.4759 -0.4277
 2626SOL     OW10548   4.064   0.899   4.258  0.4452  0.4778 -0.5813
 2626SOL    HW210549   4.060   0.992   4.235 -0.8327  0.5372 -0.1428
 2626SOL    HW310550   3.978   0.865   4.236  0.0712 -0.0472  1.5680
 2626SOL    MW410551   4.052   0.907   4.252  0.2275  0.4164 -0.2398
 2627SOL     OW10552   4.068   1.167   4.177 -0.0132 -0.0451  0.1205
 2627SOL    HW210553   4.145   1.209   4.215 -0.6496 -0.2790  1.7550
 2627SOL    HW310554   3.994   1.216   4.214 -0.6503  0.0722 -1.2920
 2627SOL    MW410555   4.068   1.179   4.187 -0.1817 -0.0607  0.1497
 2628SOL     OW10556   4.305   1.280   4.282 -0.0864  0.2481 -0.0424
 2628SOL    HW210557   4.318   1.250   4.372 -1.1035  0.2988  0.1281
 2628SOL    HW310558   4.343   1.210   4.228 -1.0608 -0.6390  0.3942
 2628SOL    MW410559   4.312   1.267   4.287 -0.3500  0.1377  0.0377
 2629SOL     OW10560   4.292   1.545   4.349  0.3270 -0.2083  0.1250
 2629SOL    HW210561   4.362   1.579   4.293  1.8654 -1.1595  1.4074
 2629SOL    HW310562   4.285   1.453   4.325  0.1833 -0.3381  0.6526
 2629SOL    MW410563   4.300   1.537   4.339  0.5112 -0.3508  0.3643
 2630SOL     OW10564   4.048   1.701   4.333  0.2668  0.3805 -0.5197
 2630SOL    HW210565   4.021   1.746   4.413 -0.1850  0.1798 -0.5580
 2630SOL    HW310566   4.121   1.646   4.360  0.4428  0.6915 -0.3513
 2630SOL    MW410567   4.054   1.700   4.347  0.2308  0.3949 -0.5021
 2631SOL     OW10568   4.032   1.923   4.175  0.3123  0.3226 -0.2063
 2631SOL    HW210569   4.050   1.840   4.219  0.0885 -0.0372 -0.7926
 2631SOL    HW310570   3.974   1.970   4.235 -1.2122 -0.7875 -0.7963
 2631SOL    MW410571   4.027   1.918   4.189  0.0825  0.1287 -0.3614
 2632SOL     OW10572   0.025   1.934   4.132 -0.3106 -0.4693 -0.1126
 2632SOL    HW210573   0.098   1.982   4.170 -0.6175  1.1391 -1.4983
 2632SOL    HW310574  -0.053   1.982   4.161 -0.5420  0.9032 -2.8839
 2632SOL    MW410575   0.024   1.947   4.141 -0.3816 -0.0761 -0.6609
 2633SOL     OW10576   4.314   2.321   4.153 -0.1206  0.3978 -0.0380
 2633SOL    HW210577   4.250   2.377   4.198  0.0751 -0.5042  1.3858
 2633SOL    HW310578   4.290   2.232   4.179  0.6799 -0.0578 -0.8470
 2633SOL    MW410579   4.302   2.317   4.163  0.0110  0.2186  0.0434
 2634SOL     OW10580   4.131   2.469   4.295 -0.4784 -0.2854 -0.0378
 2634SOL    HW210581   4.135   2.468   4.390 -0.4955 -0.4808 -0.0379
 2634SOL    HW310582   4.044   2.436   4.274 -0.0790 -1.3245 -0.1349
 2634SOL    MW410583   4.120   2.464   4.305 -0.4282 -0.4482 -0.0505
 2635SOL     OW10584   4.069   2.722   4.173  0.1508 -0.0311 -0.1450
 2635SOL    HW210585   4.094   2.642   4.219  1.8485  0.0562 -0.8677
 2635SOL    HW310586   4.018   2.772   4.237  0.1524 -1.1355  0.7206
 2635SOL    MW410587   4.066   2.718   4.188  0.3757 -0.1650 -0.1264
 2636SOL     OW10588   4.304   2.807   4.294 -0.5484  0.2709 -0.1901
 2636SOL    HW210589   4.237   2.775   4.233 -0.2258  1.7912 -1.3903
 2636SOL    HW310590   4.382   2.757   4.272 -0.8198 -0.2130 -0.0420
 2636SOL    MW410591   4.306   2.796   4.283 -0.5412  0.4077 -0.3290
 2637SOL     OW10592   4.325   3.074   4.206 -0.2935  0.0780 -0.0910
 2637SOL    HW210593   4.322   2.981   4.228  0.3474  0.1326  0.2462
 2637SOL    HW310594   4.330   3.077   4.111 -2.1891 -0.1875 -0.2180
 2637SOL    MW410595   4.325   3.062   4.196 -0.4587  0.0501 -0.0634
 2638SOL     OW10596   4.089   3.255   4.222  0.1218  0.3112 -0.3160
 2638SOL    HW210597   4.164   3.197   4.210  0.1629  0.2504  0.1934
 2638SOL    HW310598   4.013   3.199   4.211  0.1642  0.0342  0.7253
 2638SOL    MW410599   4.089   3.240   4.219  0.1321  0.2666 -0.1121
 2639SOL     OW10600   4.036   3.506   4.140 -0.1058  0.3875 -0.1507
 2639SOL    HW210601   4.041   3.413   4.162  1.3525  0.9228  1.9127
 2639SOL    HW310602   4.026   3.508   4.045  3.2729 -1.8186 -0.6355
 2639SOL    MW410603   4.035   3.494   4.130  0.5326  0.1671  0.0572
 2640SOL     OW10604   4.268   3.588   4.258 -0.4648  0.5107  0.1313
 2640SOL    HW210605   4.273   3.680   4.232  0.8952  0.4961  0.3118
 2640SOL    HW310606   4.196   3.552   4.206  1.3655  0.7782 -2.6310
 2640SOL    MW410607   4.259   3.595   4.248 -0.0434  0.5441 -0.2093
 2641SOL     OW10608   4.280   3.886   4.150 -0.5990 -0.2716  0.1913
 2641SOL    HW210609   4.210   3.937   4.192 -0.5999 -0.9556  1.0391
 2641SOL    HW310610   4.269   3.903   4.057 -1.3267  0.3645  0.3837
 2641SOL    MW410611   4.269   3.895   4.143 -0.6952 -0.2778  0.3281
 2642SOL     OW10612   4.059   3.998   4.260  0.4208 -0.2211 -0.0396
 2642SOL    HW210613   4.029   3.990   4.351 -0.5770 -0.5071 -0.3856
 2642SOL    HW310614   3.992   3.953   4.209  0.4354  0.8542 -1.0215
 2642SOL    MW410615   4.046   3.991   4.266  0.2909 -0.1168 -0.2151
 2643SOL     OW10616   4.100   4.261   4.177 -0.0811  0.4654  0.0162
 2643SOL    HW210617   4.173   4.302   4.222 -0.1165 -0.4145  0.8833
 2643SOL    HW310618   4.092   4.174   4.216 -1.2220  0.3319 -0.4664
 2643SOL    MW410619   4.108   4.255   4.188 -0.2360  0.3319  0.0672
 2644SOL     OW10620   0.030   4.582   4.671 -0.2806  0.1635 -0.0057
 2644SOL    HW210621   0.090   4.620   4.736  0.9023  0.8856 -1.4600
 2644SOL    HW310622   0.012   4.655   4.611  0.5399 -1.0819 -1.7971
 2644SOL    MW410623   0.036   4.597   4.671 -0.0162  0.0944 -0.4334
 2645SOL     OW10624   0.325   0.268   4.742  0.2423  0.3784  0.0309
 2645SOL    HW210625   0.382   0.344   4.755  1.4021  0.1139 -3.0649
 2645SOL    HW310626   0.267   0.294   4.671  0.6622 -1.6158 -1.0658
 2645SOL    MW410627   0.325   0.282   4.735  0.4507  0.0804 -0.5221
 2646SOL     OW10628   0.207   4.420   4.531  0.2175  0.1463  0.0704
 2646SOL    HW210629   0.166   4.344   4.573 -0.9089  0.5659 -0.2304
 2646SOL    HW310630   0.164   4.496   4.571  1.1333  0.6151  0.1668
 2646SOL    MW410631   0.196   4.420   4.541  0.1897  0.2637  0.0429
 2647SOL     OW10632   4.351   4.335   4.599  0.2309 -0.5487  0.0645
 2647SOL    HW210633   4.428   4.284   4.626 -0.5766 -1.1125  1.3344
 2647SOL    HW310634   4.352   4.412   4.655  0.0054 -0.4413 -0.0778
 2647SOL    MW410635   4.361   4.338   4.610  0.0949 -0.6089  0.2131
 2648SOL     OW10636   3.995   1.812   4.593 -0.0624 -0.0752 -0.2510
 2648SOL    HW210637   3.936   1.739   4.612  0.6644 -0.6571 -0.2354
 2648SOL    HW310638   3.941   1.890   4.609 -1.1378 -0.6046 -1.2575
 2648SOL    MW410639   3.980   1.813   4.598 -0.1085 -0.2217 -0.3815
 2649SOL     OW10640   0.500   0.118   4.558 -0.2078  0.5223  0.5249
 2649SOL    HW210641   0.500   0.044   4.619  2.5931  1.0839  1.2606
 2649SOL    HW310642   0.450   0.186   4.602 -0.4479  0.0052  1.0493
 2649SOL    MW410643   0.494   0.117   4.571  0.1300  0.5281  0.6914
 2650SOL     OW10644   0.673   1.245   4.568 -0.0596 -0.3139 -0.2971
 2650SOL    HW210645   0.745   1.291   4.612 -1.3492  0.3718  1.1151
 2650SOL    HW310646   0.689   1.152   4.586  0.6668 -0.1934 -0.3057
 2650SOL    MW410647   0.685   1.239   4.576 -0.1339 -0.2075 -0.1121
 2651SOL     OW10648   4.307   0.726   4.589 -0.0294 -0.3201 -0.2695
 2651SOL    HW210649   4.351   0.642   4.576 -0.3869 -0.4942 -0.3782
 2651SOL    HW310650   4.375   0.792   4.575  0.4573 -0.6093  0.6531
 2651SOL    MW410651   4.322   0.723   4.586 -0.0119 -0.3812 -0.1616
 2652SOL     OW10652   0.451   1.410   4.651  0.5106 -0.1819 -0.1350
 2652SOL    HW210653   0.520   1.351   4.620 -0.6157 -1.6178  0.1010
 2652SOL    HW310654   0.396   1.425   4.574  0.0777 -0.4297  0.1288
 2652SOL    MW410655   0.453   1.404   4.637  0.3049 -0.4041 -0.0687
 2653SOL     OW10656   0.686   2.050   4.485 -0.3394  0.0514  0.1814
 2653SOL    HW210657   0.769   2.015   4.518 -1.3351  0.8756  3.8274
 2653SOL    HW310658   0.621   1.984   4.510 -1.0894  0.5229 -0.5096
 2653SOL    MW410659   0.688   2.037   4.493 -0.5698  0.2224  0.5708
 2654SOL     OW10660   3.578   1.188   4.633  0.0549  0.4103 -0.2282
 2654SOL    HW210661   3.570   1.205   4.727  1.0741  0.4397 -0.1419
 2654SOL    HW310662   3.666   1.218   4.611 -0.0941  0.1767 -1.1451
 2654SOL    MW410663   3.588   1.194   4.643  0.1698  0.3834 -0.3381
 2655SOL     OW10664   0.093   1.745   4.459  0.2449 -0.0781  0.3474
 2655SOL    HW210665   0.052   1.690   4.526 -0.5344  1.3350  1.0316
 2655SOL    HW310666   0.095   1.689   4.381 -1.0170 -0.9099  0.8910
 2655SOL    MW410667   0.088   1.730   4.458 -0.0244 -0.0013  0.5097
 2656SOL     OW10668   0.481   1.678   4.276  0.2499  0.0924  0.0407
 2656SOL    HW210669   0.407   1.618   4.261  0.5900 -0.2046 -0.4894
 2656SOL    HW310670   0.558   1.624   4.260  0.5856  0.3911  0.6437
 2656SOL    MW410671   0.481   1.663   4.272  0.3391  0.0926  0.0501
 2657SOL     OW10672   0.097   2.128   4.627  0.0029  0.4836 -0.0415
 2657SOL    HW210673   0.122   2.203   4.572  1.2595 -0.0602 -0.2356
 2657SOL    HW310674   0.086   2.165   4.714 -0.3945  1.0708 -0.3349
 2657SOL    MW410675   0.099   2.143   4.631  0.1163  0.4892 -0.1059
 2658SOL     OW10676   4.087   2.740   4.681 -0.1132  0.5227 -0.2117
 2658SOL    HW210677   4.102   2.792   4.760  0.2424 -0.5307  0.4234
 2658SOL    HW310678   4.117   2.796   4.609  1.9619  0.5074  0.6107
 2658SOL    MW410679   4.093   2.754   4.682  0.2074  0.3815 -0.0191
 2659SOL     OW10680   0.383   2.464   4.494  0.0372  0.3056  0.3003
 2659SOL    HW210681   0.392   2.471   4.398  1.8140  1.8992  0.5340
 2659SOL    HW310682   0.467   2.427   4.523 -0.9936 -1.4147  1.1514
 2659SOL    MW410683   0.396   2.460   4.485  0.1357  0.2887  0.4435
 2660SOL     OW10684   0.098   2.745   4.692  0.0914 -0.3141  0.2630
 2660SOL    HW210685   0.172   2.757   4.633 -1.3343  1.1640 -1.3020
 2660SOL    HW310686   0.133   2.760   4.779  1.8058 -0.4790 -0.3872
 2660SOL    MW410687   0.112   2.748   4.695  0.1295 -0.1407 -0.0296
 2661SOL     OW10688   3.902   2.088   4.984 -0.2973  0.1889 -0.1660
 2661SOL    HW210689   3.859   2.132   4.911  1.7845  0.7387 -1.0851
 2661SOL    HW310690   3.940   2.159   5.036 -0.6799 -0.2691  0.7450
 2661SOL    MW410691   3.902   2.103   4.981 -0.0732  0.2010 -0.1674
 2662SOL     OW10692   3.901   3.627   4.545  0.4372 -0.5905  0.5305
 2662SOL    HW210693   3.874   3.627   4.453 -1.6125  0.4523  1.1015
 2662SOL    HW310694   3.890   3.536   4.573  0.0764 -0.7051  0.0262
 2662SOL    MW410695   3.896   3.615   4.536  0.1190 -0.4678  0.5393
 2663SOL     OW10696   0.001   3.164   4.785 -0.4480 -0.5633  0.1032
 2663SOL    HW210697  -0.073   3.222   4.769 -1.1592 -1.3471  0.5026
 2663SOL    HW310698   0.069   3.196   4.726 -1.5342 -0.6285 -1.2259
 2663SOL    MW410699   0.000   3.176   4.775 -0.6852 -0.6754 -0.0191
 2664SOL     OW10700   4.153   3.719   4.634 -0.2549 -0.1297 -0.4220
 2664SOL    HW210701   4.069   3.678   4.615 -0.0792 -0.4590 -0.5015
 2664SOL    HW310702   4.218   3.655   4.604  0.0218 -0.2139  0.3587
 2664SOL    MW410703   4.151   3.705   4.627 -0.1960 -0.1841 -0.3300
 2665SOL     OW10704   0.228   0.010   4.816 -0.0457 -0.3718  0.0719
 2665SOL    HW210705   0.311  -0.035   4.797  0.5329 -0.9275  3.6426
 2665SOL    HW310706   0.253   0.102   4.824 -0.1360 -0.2622 -0.8528
 2665SOL    MW410707   0.243   0.017   4.814  0.0188 -0.4296  0.4210
 2666SOL     OW10708   3.808   0.420   4.544 -0.3076 -0.2488  0.1773
 2666SOL    HW210709   3.718   0.393   4.564  0.2448 -1.4637  1.1051
 2666SOL    HW310710   3.814   0.509   4.579 -0.5516 -0.9042  1.9372
 2666SOL    MW410711   3.797   0.428   4.552 -0.2670 -0.4955  0.5317
 2667SOL     OW10712   0.466   4.056   4.714 -0.2296  0.5393 -0.4177
 2667SOL    HW210713   0.400   4.040   4.782 -0.3422 -0.5876 -0.7874
 2667SOL    HW310714   0.457   3.983   4.653  1.8996 -0.0462 -0.0674
 2667SOL    MW410715   0.456   4.045   4.715  0.0365  0.3138 -0.4201
 2668SOL     OW10716   4.103   4.215   4.605 -0.3004  0.5697  0.1041
 2668SOL    HW210717   4.178   4.274   4.607 -0.3814  0.6552  2.6047
 2668SOL    HW310718   4.028   4.273   4.621 -0.5150 -0.0057  1.2105
 2668SOL    MW410719   4.103   4.231   4.608 -0.3390  0.5045  0.5798
 2669SOL     OW10720   0.747   4.123   4.673 -0.4693  0.7066 -0.4582
 2669SOL    HW210721   0.731   4.207   4.631 -0.2716  0.9186 -0.1099
 2669SOL    HW310722   0.662   4.097   4.710 -0.2097  1.4373  0.6733
 2669SOL    MW410723   0.734   4.130   4.672 -0.4089  0.8307 -0.2632
 2670SOL     OW10724   4.486   0.922   4.515  0.1128  0.2814  0.3206
 2670SOL    HW210725   4.570   0.961   4.538 -0.0273  1.0386 -0.4073
 2670SOL    HW310726   4.500   0.883   4.429 -0.1931  0.1670  0.3206
 2670SOL    MW410727   4.499   0.922   4.507  0.0539  0.3663  0.2246
 2671SOL     OW10728   0.876   1.415   4.724 -0.1912 -0.0449 -0.3438
 2671SOL    HW210729   0.824   1.492   4.747  1.1584  0.3596  1.4691
 2671SOL    HW310730   0.953   1.450   4.680  1.1521 -0.2065  1.8051
 2671SOL    MW410731   0.879   1.429   4.721  0.1641 -0.0128  0.1783
 2672SOL     OW10732   0.750   0.258   4.638  0.0914 -0.0413 -0.8159
 2672SOL    HW210733   0.816   0.189   4.630 -1.0255 -1.1094 -0.9411
 2672SOL    HW310734   0.668   0.217   4.609 -1.3626  0.1279  2.7729
 2672SOL    MW410735   0.748   0.243   4.633 -0.2478 -0.1599 -0.3586
 2673SOL     OW10736   1.085   1.228   4.809 -0.0466  0.0726 -0.5589
 2673SOL    HW210737   1.123   1.231   4.721 -0.4820  2.0798 -0.7176
 2673SOL    HW310738   1.030   1.307   4.814  1.3014  0.9210  2.0888
 2673SOL    MW410739   1.083   1.239   4.798  0.0738  0.4493 -0.2303
 2674SOL     OW10740   0.391   0.748   4.525 -0.1186 -0.3538  0.2789
 2674SOL    HW210741   0.333   0.677   4.499  0.3457 -0.9464  0.8414
 2674SOL    HW310742   0.425   0.783   4.442  0.9444 -1.8757  0.0369
 2674SOL    MW410743   0.388   0.743   4.511  0.0829 -0.6328  0.3209
 2675SOL     OW10744   1.214   1.258   4.538 -0.3108  0.4342 -0.0744
 2675SOL    HW210745   1.303   1.295   4.539  0.1646 -0.7326  1.3839
 2675SOL    HW310746   1.228   1.164   4.529 -1.3579  0.1276  1.4031
 2675SOL    MW410747   1.228   1.250   4.537 -0.3862  0.2398  0.3128
 2676SOL     OW10748   0.665   1.610   4.630  0.3902 -0.0790  0.3199
 2676SOL    HW210749   0.616   1.687   4.602  0.1295  0.0175  1.0414
 2676SOL    HW310750   0.599   1.545   4.651  0.6059 -0.4096 -0.0038
 2676SOL    MW410751   0.650   1.611   4.629  0.3842 -0.1099  0.3724
 2677SOL     OW10752   0.744   0.988   4.620 -0.1539  0.3539  0.0900
 2677SOL    HW210753   0.802   0.989   4.696  0.2959 -0.9421 -0.2244
 2677SOL    HW310754   0.696   0.905   4.628  0.5584 -0.2411 -1.5142
 2677SOL    MW410755   0.745   0.977   4.631 -0.0005  0.1044 -0.1631
 2678SOL     OW10756   0.924   1.961   4.593 -0.0080  0.7327  0.1832
 2678SOL    HW210757   0.917   1.868   4.574  0.7430  0.7261 -0.0742
 2678SOL    HW310758   1.015   1.983   4.572 -0.7902  2.0186 -2.0718
 2678SOL    MW410759   0.935   1.952   4.588 -0.0121  0.9016 -0.1488
 2679SOL     OW10760   0.322   2.735   4.534  0.2083  0.5752  0.1657
 2679SOL    HW210761   0.288   2.759   4.447 -0.2155  1.3236  0.5281
 2679SOL    HW310762   0.354   2.646   4.524  0.7411  0.8782 -0.9277
 2679SOL    MW410763   0.322   2.727   4.521  0.2227  0.7138  0.0696
 2680SOL     OW10764   0.904   1.690   4.501 -0.4185  0.1029 -0.3575
 2680SOL    HW210765   0.829   1.653   4.548  0.2054  0.9059  1.3170
 2680SOL    HW310766   0.979   1.636   4.528  0.0108  0.7965 -0.1379
 2680SOL    MW410767   0.904   1.678   4.511 -0.2795  0.3005 -0.1073
 2681SOL     OW10768   0.132   2.361   4.468  0.1758 -0.0023  0.0791
 2681SOL    HW210769   0.096   2.403   4.390  0.1310  2.2620  1.2676
 2681SOL    HW310770   0.218   2.402   4.480 -0.2073  0.3709  1.7305
 2681SOL    MW410771   0.138   2.372   4.459  0.1193  0.3457  0.4539
 2682SOL     OW10772   1.391   2.656   4.578 -0.0134 -0.2745 -0.0138
 2682SOL    HW210773   1.303   2.678   4.549 -0.0820  1.8003  1.6299
 2682SOL    HW310774   1.399   2.562   4.562 -2.2197 -0.3394 -0.9238
 2682SOL    MW410775   1.381   2.647   4.572 -0.3135 -0.0091  0.0825
 2683SOL     OW10776   3.842   1.586   4.542 -0.0218  0.0988 -0.4480
 2683SOL    HW210777   3.747   1.594   4.541 -0.0320  0.0311 -0.1814
 2683SOL    HW310778   3.859   1.510   4.598  0.1264 -0.7796 -1.6552
 2683SOL    MW410779   3.832   1.577   4.549 -0.0033 -0.0261 -0.5722
 2684SOL     OW10780   1.507   2.876   4.491 -0.0895  0.1371  0.4406
 2684SOL    HW210781   1.472   2.793   4.525  0.1563  0.1659  0.7636
 2684SOL    HW310782   1.582   2.895   4.548 -0.7662  1.1123  1.0055
 2684SOL    MW410783   1.512   2.867   4.503 -0.1463  0.2694  0.5574
 2685SOL     OW10784   0.441   3.175   4.516  0.4057 -0.3519 -0.3038
 2685SOL    HW210785   0.365   3.230   4.539 -0.5361 -1.4406 -0.7586
 2685SOL    HW310786   0.511   3.208   4.572 -0.1295  1.3356 -0.5843
 2685SOL    MW410787   0.440   3.187   4.527  0.2108 -0.2728 -0.4005
 2686SOL     OW10788   1.406   4.529   4.616  0.0914 -0.1507  0.4279
 2686SOL    HW210789   1.473   4.460   4.610 -0.0321 -0.2358 -0.0168
 2686SOL    HW310790   1.326   4.486   4.588  0.3986  0.7055 -1.8610
 2686SOL    MW410791   1.405   4.514   4.611  0.1156 -0.0486  0.0672
 2687SOL     OW10792   4.444   2.474   4.635 -0.2615  0.6147 -0.4508
 2687SOL    HW210793   4.505   2.425   4.579 -0.8083  0.1624 -0.6493
 2687SOL    HW310794   4.489   2.557   4.651  1.1564 -0.3615  0.7710
 2687SOL    MW410795   4.458   2.479   4.629 -0.1459  0.4261 -0.3157
 2688SOL     OW10796   4.291   3.977   4.689  0.7536  0.6100  0.1877
 2688SOL    HW210797   4.232   3.902   4.689  2.5122 -0.8270 -0.5930
 2688SOL    HW310798   4.234   4.053   4.683 -1.0019 -0.7200 -0.4284
 2688SOL    MW410799   4.276   3.977   4.688  0.7544  0.2449  0.0033
 2689SOL     OW10800   0.686   4.399   4.557  0.3056 -0.1505  0.2209
 2689SOL    HW210801   0.596   4.386   4.585  0.2725  0.6909  0.5001
 2689SOL    HW310802   0.683   4.393   4.461 -0.2791  1.2712  0.1396
 2689SOL    MW410803   0.674   4.396   4.548  0.2241  0.1483  0.2465
 2690SOL     OW10804   0.430   4.337   4.663  0.3367  0.2575 -0.3294
 2690SOL    HW210805   0.412   4.247   4.689  1.3624  0.1498  0.0378
 2690SOL    HW310806   0.350   4.367   4.620  0.9313 -1.7662 -2.9997
 2690SOL    MW410807   0.417   4.329   4.661  0.5505 -0.0238 -0.6332
 2691SOL     OW10808   0.013   3.953   4.520  0.0738 -0.4479  0.5933
 2691SOL    HW210809  -0.058   3.943   4.584 -0.7654 -2.2463 -0.5926
 2691SOL    HW310810   0.086   3.905   4.558 -0.2867 -1.1269  0.4556
 2691SOL    MW410811   0.013   3.945   4.533 -0.0845 -0.7749  0.4187
 2692SOL     OW10812   0.499   4.592   4.748 -0.1734 -0.4037  0.4992
 2692SOL    HW210813   0.476   4.503   4.722  0.1561 -0.3345 -0.0295
 2692SOL    HW310814   0.554   4.581   4.825 -0.0679 -0.6642  0.3893
 2692SOL    MW410815   0.503   4.579   4.755 -0.1159 -0.4287  0.4148
 2693SOL     OW10816   0.786   0.521   4.519 -0.1501 -0.4407  0.0107
 2693SOL    HW210817   0.747   0.508   4.433  0.9018 -1.3086 -0.3488
 2693SOL    HW310818   0.781   0.435   4.561  0.6596 -0.3838  0.2400
 2693SOL    MW410819   0.780   0.508   4.513  0.0955 -0.5477 -0.0067
 2694SOL     OW10820   0.960   0.078   4.572  0.5346  0.2509  0.1815
 2694SOL    HW210821   0.935   0.050   4.484 -0.3504  1.8295 -0.0875
 2694SOL    HW310822   0.943   0.002   4.628 -0.9259 -0.0538 -0.6744
 2694SOL    MW410823   0.955   0.064   4.568  0.2251  0.4190  0.0334
 2695SOL     OW10824   0.527   0.444   4.743  0.1658  0.0521  0.0975
 2695SOL    HW210825   0.602   0.388   4.723  1.0824  1.3587 -0.2096
 2695SOL    HW310826   0.566   0.527   4.771 -1.1653  0.5650  0.4800
 2695SOL    MW410827   0.542   0.448   4.744  0.1111  0.2922  0.1073
 2696SOL     OW10828   1.044   0.860   4.547 -0.0114  0.4133  0.2460
 2696SOL    HW210829   0.983   0.880   4.476  0.1494  1.0338  0.2841
 2696SOL    HW310830   1.011   0.909   4.622  0.1063  0.1554  0.4676
 2696SOL    MW410831   1.032   0.869   4.548  0.0253  0.4612  0.2799
 2697SOL     OW10832   1.879   0.882   4.585  0.5273 -0.0359  0.1414
 2697SOL    HW210833   1.805   0.823   4.598 -0.5313  1.5996  1.8465
 2697SOL    HW310834   1.860   0.925   4.502  0.4808 -0.9049 -0.3061
 2697SOL    MW410835   1.866   0.880   4.576  0.3816  0.0652  0.3071
 2698SOL     OW10836   0.265   1.000   4.506 -0.0408 -0.0722  0.0067
 2698SOL    HW210837   0.282   1.051   4.585 -0.3592  1.0172 -0.6025
 2698SOL    HW310838   0.314   0.919   4.518  0.2280  0.2460  1.1426
 2698SOL    MW410839   0.274   0.996   4.518 -0.0473  0.1135  0.0758
 2699SOL     OW10840   0.307   1.191   4.733  0.0457 -0.0576 -0.2041
 2699SOL    HW210841   0.368   1.264   4.733  0.9515 -0.7964  0.6427
 2699SOL    HW310842   0.220   1.231   4.738  0.3856  1.0388 -2.5520
 2699SOL    MW410843   0.303   1.206   4.733  0.2100 -0.0104 -0.4025
 2700SOL     OW10844   0.972   0.981   4.805  0.2404 -0.2893  0.0670
 2700SOL    HW210845   1.024   1.059   4.822  0.2327 -0.4231  0.7257
 2700SOL    HW310846   0.928   0.963   4.888  1.2177 -1.7096  0.3026
 2700SOL    MW410847   0.973   0.989   4.818  0.3684 -0.4943  0.1850
 2701SOL     OW10848   2.185   1.206   4.815  0.1176  0.2698 -0.0007
 2701SOL    HW210849   2.216   1.117   4.832 -0.4884  0.0763  0.1125
 2701SOL    HW310850   2.089   1.198   4.815  0.0747  0.7187 -1.0820
 2701SOL    MW410851   2.176   1.193   4.818  0.0322  0.3035 -0.1283
 2702SOL     OW10852   1.102   1.508   4.605  0.1668  0.0746 -0.2099
 2702SOL    HW210853   1.129   1.420   4.580  1.3038  0.4649 -0.3495
 2702SOL    HW310854   1.175   1.565   4.580 -0.5212  1.0491 -0.0452
 2702SOL    MW410855   1.115   1.504   4.599  0.2263  0.2545 -0.2065
 2703SOL     OW10856   0.564   2.891   4.523 -0.3888 -0.0823  0.0204
 2703SOL    HW210857   0.523   2.977   4.529  0.2199  0.1300  1.2637
 2703SOL    HW310858   0.493   2.830   4.543 -0.8938  0.0968 -1.1531
 2703SOL    MW410859   0.549   2.894   4.527 -0.3752 -0.0308  0.0296
 2704SOL     OW10860   1.760   2.962   4.617 -0.3299 -0.1200  0.3496
 2704SOL    HW210861   1.718   2.957   4.702  0.1727  0.3479  0.6290
 2704SOL    HW310862   1.744   3.051   4.586 -0.3217 -0.2191  0.0507
 2704SOL    MW410863   1.753   2.973   4.624 -0.2624 -0.0715  0.3467
 2705SOL     OW10864   1.976   2.843   4.514 -0.2709 -0.1185  0.1520
 2705SOL    HW210865   2.046   2.908   4.518 -0.7612  0.3862  0.6082
 2705SOL    HW310866   1.904   2.883   4.562 -0.7894 -0.7373 -0.1105
 2705SOL    MW410867   1.976   2.857   4.521 -0.4040 -0.1333  0.1774
 2706SOL     OW10868   1.639   3.511   4.539  0.1982  0.6585 -0.3766
 2706SOL    HW210869   1.713   3.569   4.558  0.0318  0.5415  0.6214
 2706SOL    HW310870   1.562   3.563   4.560  0.0821 -0.6009  2.5088
 2706SOL    MW410871   1.639   3.526   4.544  0.1609  0.4768  0.1354
 2707SOL     OW10872   1.146   3.238   4.519 -0.0224 -0.0944 -0.6818
 2707SOL    HW210873   1.239   3.222   4.505  0.5105  1.7014  0.6182
 2707SOL    HW310874   1.106   3.151   4.523  1.8169 -0.9189  0.2266
 2707SOL    MW410875   1.153   3.224   4.518  0.2905  0.0336 -0.3905
 2708SOL     OW10876   0.485   3.834   4.536  0.2156  0.3702 -0.3294
 2708SOL    HW210877   0.476   3.882   4.453  0.9156  0.2094 -0.5013
 2708SOL    HW310878   0.572   3.794   4.531  0.0196 -0.1247  0.2309
 2708SOL    MW410879   0.495   3.835   4.524  0.2821  0.2837 -0.2785
 2709SOL     OW10880   1.101   2.725   4.434 -0.2123 -0.1118 -0.5783
 2709SOL    HW210881   1.051   2.643   4.427 -0.3718 -0.1603  0.9376
 2709SOL    HW310882   1.109   2.756   4.344  0.5116 -2.1908 -1.2711
 2709SOL    MW410883   1.096   2.718   4.421 -0.1379 -0.3922 -0.4697
 2710SOL     OW10884   1.194   3.559   4.520  0.4821 -0.2105 -0.1797
 2710SOL    HW210885   1.204   3.584   4.428  0.5377  0.7905  0.0949
 2710SOL    HW310886   1.146   3.476   4.517 -1.8128  1.1056 -1.0166
 2710SOL    MW410887   1.189   3.551   4.507  0.1866  0.0954 -0.2542
 2711SOL     OW10888   2.492   4.277   4.518 -0.1100 -0.5421  0.0590
 2711SOL    HW210889   2.485   4.316   4.430 -0.6124 -0.6224  0.0620
 2711SOL    HW310890   2.405   4.242   4.535  0.7259 -3.0191 -0.5658
 2711SOL    MW410891   2.479   4.278   4.508 -0.0658 -0.8798 -0.0234
 2712SOL     OW10892   0.183   3.294   4.547  0.2789 -0.2881 -0.4866
 2712SOL    HW210893   0.161   3.386   4.566  0.0866 -0.6973  1.4235
 2712SOL    HW310894   0.132   3.273   4.470 -0.8629  0.7844 -0.0520
 2712SOL    MW410895   0.173   3.303   4.540  0.1029 -0.2005 -0.1774
 2713SOL     OW10896   0.216   3.802   4.656 -0.1392 -0.4976 -0.1181
 2713SOL    HW210897   0.287   3.805   4.592 -1.0802 -0.8917 -1.1929
 2713SOL    HW310898   0.177   3.715   4.644 -0.1522 -0.6811  1.1860
 2713SOL    MW410899   0.220   3.791   4.646 -0.2651 -0.5736 -0.0877
 2714SOL     OW10900   0.944   3.982   4.526 -0.2087  0.0398 -0.1958
 2714SOL    HW210901   0.868   4.018   4.573 -1.0240 -0.8964 -0.7743
 2714SOL    HW310902   0.943   4.027   4.442  0.3273  0.5661  0.0703
 2714SOL    MW410903   0.934   3.993   4.521 -0.2456 -0.0143 -0.2375
 2715SOL     OW10904   0.935   4.474   4.659 -0.1514  0.2054 -0.0799
 2715SOL    HW210905   0.946   4.418   4.736  1.0962 -0.8811 -1.0223
 2715SOL    HW310906   0.853   4.444   4.620 -0.4153  0.2669  0.4232
 2715SOL    MW410907   0.925   4.462   4.664 -0.0216  0.0706 -0.1378
 2716SOL     OW10908   1.248   0.120   4.582  0.1459  0.2061  0.5146
 2716SOL    HW210909   1.156   0.092   4.589  0.2807 -1.1417 -2.3223
 2716SOL    HW310910   1.298   0.044   4.611  0.3669  0.2285  0.1993
 2716SOL    MW410911   1.242   0.106   4.586  0.1929  0.0312  0.0987
 2717SOL     OW10912   1.583   4.317   4.573 -0.2208  0.0463  0.3571
 2717SOL    HW210913   1.661   4.350   4.617 -1.2505  1.6674  1.0328
 2717SOL    HW310914   1.579   4.365   4.491 -0.5039 -0.0195  0.3307
 2717SOL    MW410915   1.593   4.328   4.568 -0.3940  0.2513  0.4430
 2718SOL     OW10916   1.185   4.383   4.524  0.5676  0.9056 -0.1564
 2718SOL    HW210917   1.196   4.289   4.541  0.2023  0.8182 -0.3950
 2718SOL    HW310918   1.104   4.407   4.568 -0.0003  0.8309 -1.1391
 2718SOL    MW410919   1.176   4.373   4.532  0.4444  0.8841 -0.3176
 2719SOL     OW10920   1.069   0.589   4.546  0.1256  0.1714 -0.5283
 2719SOL    HW210921   0.976   0.569   4.541  0.0115  0.2985  0.8954
 2719SOL    HW310922   1.072   0.685   4.545  0.2171  0.1713 -0.1096
 2719SOL    MW410923   1.057   0.599   4.545  0.1227  0.1882 -0.2856
 2720SOL     OW10924   1.781   0.218   4.534  0.1011 -0.0142  0.1696
 2720SOL    HW210925   1.733   0.281   4.587  0.1557  0.6720 -0.6037
 2720SOL    HW310926   1.750   0.133   4.566 -2.0184  0.4053 -0.6546
 2720SOL    MW410927   1.770   0.215   4.545 -0.1713  0.1317 -0.0410
 2721SOL     OW10928   1.283   0.996   4.523  0.3893  0.3823  0.2484
 2721SOL    HW210929   1.200   0.951   4.540  0.5292 -0.3714 -0.9585
 2721SOL    HW310930   1.315   0.957   4.442  1.8366  0.8071  0.5978
 2721SOL    MW410931   1.276   0.985   4.514  0.5988  0.3389  0.1354
 2722SOL     OW10932   2.776   1.356   4.838  0.1664  0.5111  0.1674
 2722SOL    HW210933   2.713   1.415   4.880 -0.1029 -0.9095  1.8544
 2722SOL    HW310934   2.721   1.297   4.786  0.1520 -0.2350  1.0164
 2722SOL    MW410935   2.760   1.356   4.837  0.1290  0.2253  0.5016
 2723SOL     OW10936   0.643   0.735   4.651  0.5081 -0.7341 -0.1315
 2723SOL    HW210937   0.552   0.721   4.626  0.4148 -0.2296 -0.0903
 2723SOL    HW310938   0.690   0.661   4.614 -0.2321 -2.1463  1.6931
 2723SOL    MW410939   0.637   0.724   4.643  0.3981 -0.8539  0.1144
 2724SOL     OW10940   2.130   0.560   4.533 -0.7457 -0.3964 -0.6495
 2724SOL    HW210941   2.223   0.572   4.515 -0.7142  0.3183 -0.0129
 2724SOL    HW310942   2.119   0.465   4.537 -0.2061 -0.5050 -1.5519
 2724SOL    MW410943   2.141   0.549   4.531 -0.6702 -0.3164 -0.6847
 2725SOL     OW10944   1.468   0.933   4.712 -0.2716 -0.2359  0.4290
 2725SOL    HW210945   1.432   0.864   4.768 -0.0590 -0.5115  0.2241
 2725SOL    HW310946   1.395   0.957   4.654 -0.9966  1.1467  1.8463
 2725SOL    MW410947   1.453   0.927   4.712 -0.3392 -0.0899  0.5894
 2726SOL     OW10948   1.305   1.708   4.544  0.3841  0.6803  0.3596
 2726SOL    HW210949   1.393   1.692   4.577  0.2470 -0.2882  0.2775
 2726SOL    HW310950   1.308   1.682   4.452 -0.1761 -0.0784  0.5491
 2726SOL    MW410951   1.317   1.703   4.537  0.2921  0.4523  0.3738
 2727SOL     OW10952   1.462   2.113   4.543  0.3107 -0.4356  0.5808
 2727SOL    HW210953   1.489   2.205   4.543  0.9695 -0.6232  0.7963
 2727SOL    HW310954   1.542   2.065   4.564  0.5063 -1.2164 -1.8230
 2727SOL    MW410955   1.476   2.118   4.546  0.4234 -0.5634  0.2928
 2728SOL     OW10956   1.834   2.400   4.526 -0.0886 -0.2989  0.2899
 2728SOL    HW210957   1.915   2.444   4.552  0.2135 -0.2024 -0.7972
 2728SOL    HW310958   1.856   2.307   4.524  0.0697 -0.2512 -0.2593
 2728SOL    MW410959   1.848   2.394   4.529 -0.0279 -0.2799  0.0739
 2729SOL     OW10960   0.973   2.997   4.478  0.3232  0.1533 -0.9855
 2729SOL    HW210961   1.034   2.926   4.455  0.0385  0.0162 -1.3007
 2729SOL    HW310962   0.890   2.953   4.496  0.3177  0.3409 -0.5363
 2729SOL    MW410963   0.970   2.982   4.478  0.2850  0.1600 -0.9680
 2730SOL     OW10964   1.395   3.943   4.616 -0.3793  0.0705 -0.2184
 2730SOL    HW210965   1.396   3.848   4.611 -0.1281  0.0068  0.7810
 2730SOL    HW310966   1.483   3.966   4.647 -1.1146  0.4757  1.6353
 2730SOL    MW410967   1.407   3.934   4.620 -0.4432  0.1154  0.1578
 2731SOL     OW10968   1.533   2.378   4.520 -0.5707  0.3603 -0.1547
 2731SOL    HW210969   1.624   2.406   4.509 -0.2756 -0.1973  0.8463
 2731SOL    HW310970   1.488   2.411   4.441  0.9033 -1.1183 -1.6443
 2731SOL    MW410971   1.539   2.386   4.508 -0.3372  0.0920 -0.2189
 2732SOL     OW10972   2.069   2.588   4.616 -0.3241  0.0642 -0.1201
 2732SOL    HW210973   2.156   2.585   4.578 -0.2687  0.7141 -0.0498
 2732SOL    HW310974   2.036   2.675   4.596 -1.2059 -0.3858 -0.6870
 2732SOL    MW410975   2.076   2.599   4.608 -0.4330  0.0906 -0.1860
 2733SOL     OW10976   1.407   3.139   4.485  0.0815  0.5676  0.1712
 2733SOL    HW210977   1.492   3.180   4.467 -0.3064  0.9816 -0.7491
 2733SOL    HW310978   1.427   3.046   4.498  0.8903  0.9187  1.6555
 2733SOL    MW410979   1.421   3.132   4.485  0.1371  0.6688  0.2460
 2734SOL     OW10980   1.418   3.652   4.630  0.3043  0.3790  0.6377
 2734SOL    HW210981   1.397   3.658   4.723 -0.4062  0.1818  0.4944
 2734SOL    HW310982   1.337   3.621   4.589  0.6293  0.4098 -0.0369
 2734SOL    MW410983   1.404   3.649   4.637  0.2533  0.3572  0.5302
 2735SOL     OW10984   0.846   3.742   4.465 -0.3292  0.3303 -0.5409
 2735SOL    HW210985   0.877   3.827   4.494  1.5373 -0.9225  1.3126
 2735SOL    HW310986   0.926   3.692   4.448 -1.3657 -1.7696  0.5736
 2735SOL    MW410987   0.861   3.746   4.466 -0.2197 -0.1121 -0.1488
 2736SOL     OW10988   2.123   3.615   4.488 -0.0851  0.4240 -0.1919
 2736SOL    HW210989   2.108   3.620   4.394  0.2117  2.0056 -0.1606
 2736SOL    HW310990   2.209   3.572   4.496 -0.2004  0.1119 -0.6348
 2736SOL    MW410991   2.132   3.610   4.477 -0.0613  0.5915 -0.2465
 2737SOL     OW10992   1.651   3.247   4.469  0.0916  0.1581  0.2467
 2737SOL    HW210993   1.647   3.335   4.507  0.8791  0.2385  0.1518
 2737SOL    HW310994   1.708   3.256   4.393  1.2973 -0.7067  1.0166
 2737SOL    MW410995   1.658   3.260   4.464  0.3544  0.0546  0.3362
 2738SOL     OW10996   2.250   3.792   4.696  0.1287 -0.1142  0.1168
 2738SOL    HW210997   2.221   3.744   4.619 -1.0999 -0.4039  0.7581
 2738SOL    HW310998   2.247   3.729   4.767 -0.8138  0.7057  0.8238
 2738SOL    MW410999   2.246   3.777   4.695 -0.1578 -0.0441  0.2947
 2739SOL     OW11000   1.155   4.116   4.647  0.1502  0.2168  0.3119
 2739SOL    HW211001   1.078   4.072   4.611 -0.0661 -0.6813  1.8183
 2739SOL    HW311002   1.224   4.049   4.647  0.5322  0.6093  0.2600
 2739SOL    MW411003   1.154   4.101   4.642  0.1720  0.1502  0.5035
 2740SOL     OW11004   2.068   3.998   4.669 -0.1227  0.2706  0.5262
 2740SOL    HW211005   1.998   3.970   4.609  1.2031 -1.1312 -0.3963
 2740SOL    HW311006   2.121   3.920   4.683  1.5083  1.4075  0.8830
 2740SOL    MW411007   2.066   3.984   4.663  0.2670  0.2358  0.4520
 2741SOL     OW11008   2.067   0.282   4.564 -0.6176 -0.2604 -0.0769
 2741SOL    HW211009   2.122   0.203   4.568 -0.2058  0.0156 -0.2295
 2741SOL    HW311010   1.980   0.251   4.588 -0.5948 -0.8959 -0.7756
 2741SOL    MW411011   2.063   0.267   4.568 -0.5600 -0.3079 -0.1888
 2742SOL     OW11012   1.311   0.425   4.620 -0.3656 -0.1106  0.5089
 2742SOL    HW211013   1.228   0.472   4.625 -0.3182  0.0273  0.0849
 2742SOL    HW311014   1.293   0.340   4.661 -0.5953  0.0814  0.8064
 2742SOL    MW411015   1.298   0.420   4.626 -0.3897 -0.0671  0.4921
 2743SOL     OW11016   1.591   0.483   4.559 -0.5873 -0.0508  0.4326
 2743SOL    HW211017   1.510   0.439   4.586  0.5710 -0.3480  3.5969
 2743SOL    HW311018   1.581   0.573   4.587  0.3816 -0.2205  1.3832
 2743SOL    MW411019   1.579   0.489   4.566 -0.3068 -0.1124  0.9756
 2744SOL     OW11020   2.737   4.390   4.621  0.3628 -0.0388  0.2692
 2744SOL    HW211021   2.657   4.353   4.586  0.5165  0.3423 -0.4918
 2744SOL    HW311022   2.784   4.315   4.657  0.5249 -0.5495 -0.9738
 2744SOL    MW411023   2.733   4.375   4.621  0.4046 -0.0558  0.0048
 2745SOL     OW11024   2.108   0.796   4.702  0.0361  0.2242  0.3014
 2745SOL    HW211025   2.128   0.706   4.676  0.6354  0.4842 -0.1337
 2745SOL    HW311026   2.017   0.809   4.673 -0.4650 -0.6355  1.4510
 2745SOL    MW411027   2.098   0.786   4.695  0.0491  0.1451  0.3963
 2746SOL     OW11028   1.624   0.769   4.539  0.1014  0.1926 -0.3871
 2746SOL    HW211029   1.575   0.832   4.592  3.2748  1.6901  0.9003
 2746SOL    HW311030   1.628   0.808   4.452  1.9511  1.7936  0.3781
 2746SOL    MW411031   1.618   0.783   4.534  0.7641  0.6014 -0.1163
 2747SOL     OW11032   2.028   1.346   4.501 -0.0031 -0.0134  0.6352
 2747SOL    HW211033   2.105   1.294   4.524 -0.7417 -1.1862  0.5215
 2747SOL    HW311034   2.015   1.328   4.408 -1.3414 -1.0974  1.0074
 2747SOL    MW411035   2.037   1.336   4.492 -0.2770 -0.3111  0.6695
 2748SOL     OW11036   1.210   1.978   4.529 -0.2657  0.1625  0.5291
 2748SOL    HW211037   1.295   2.020   4.546 -0.1340  0.6554 -1.3293
 2748SOL    HW311038   1.226   1.885   4.547  1.1723 -0.0168 -1.5405
 2748SOL    MW411039   1.224   1.972   4.534 -0.0587  0.2036  0.0105
 2749SOL     OW11040   1.595   1.194   4.720  0.2704 -0.2836 -0.1906
 2749SOL    HW211041   1.553   1.108   4.726  0.1608 -0.3914 -2.0915
 2749SOL    HW311042   1.684   1.176   4.690  0.4817  0.2226  0.1162
 2749SOL    MW411043   1.601   1.180   4.717  0.2838 -0.2311 -0.4010
 2750SOL     OW11044   1.550   1.593   4.633  0.0500 -0.1504  0.1084
 2750SOL    HW211045   1.628   1.642   4.608 -0.0795  0.5214  1.0233
 2750SOL    HW311046   1.557   1.582   4.728 -0.9087 -0.1902  0.1819
 2750SOL    MW411047   1.561   1.598   4.642 -0.0936 -0.0670  0.2389
 2751SOL     OW11048   1.477   1.345   4.520  0.6131 -0.0509  0.7326
 2751SOL    HW211049   1.499   1.427   4.563  0.4241  0.2213  0.3062
 2751SOL    HW311050   1.502   1.277   4.583  0.6334  0.3371  1.1376
 2751SOL    MW411051   1.483   1.347   4.534  0.5907  0.0361  0.7300
 2752SOL     OW11052   1.921   2.142   4.526 -0.2269 -0.3292  0.1346
 2752SOL    HW211053   1.959   2.129   4.439  0.3070 -0.0080  0.3196
 2752SOL    HW311054   1.995   2.164   4.582 -0.9441  2.3990  0.0741
 2752SOL    MW411055   1.935   2.143   4.522 -0.2511  0.0730  0.1507
 2753SOL     OW11056   1.710   1.990   4.610 -0.1928 -0.4785  0.0130
 2753SOL    HW211057   1.733   1.899   4.589 -0.5009 -0.3271 -1.0279
 2753SOL    HW311058   1.790   2.040   4.594  0.1194 -0.6255  1.0610
 2753SOL    MW411059   1.724   1.984   4.605 -0.1923 -0.4778  0.0138
 2754SOL     OW11060   2.321   2.506   4.463 -0.0139 -0.0080 -0.5285
 2754SOL    HW211061   2.288   2.493   4.375  2.0437  1.8360 -1.6195
 2754SOL    HW311062   2.396   2.446   4.470  0.2762  0.3731 -0.3123
 2754SOL    MW411063   2.327   2.496   4.453  0.2961  0.2859 -0.6437
 2755SOL     OW11064   2.209   3.004   4.534  0.2904  0.0249 -0.4230
 2755SOL    HW211065   2.242   3.093   4.516  1.2502 -0.1147  0.6315
 2755SOL    HW311066   2.287   2.949   4.530 -0.2522 -0.7243 -0.6869
 2755SOL    MW411067   2.224   3.009   4.531  0.3455 -0.0923 -0.3185
 2756SOL     OW11068   1.635   4.057   4.675  0.0004 -0.0498  0.1331
 2756SOL    HW211069   1.605   4.145   4.652 -1.2540 -0.5911 -0.3318
 2756SOL    HW311070   1.699   4.071   4.745 -0.0138  1.2501 -0.1094
 2756SOL    MW411071   1.639   4.070   4.681 -0.1670  0.0505  0.0401
 2757SOL     OW11072   2.696   3.304   4.723  0.3725  0.1586  0.3084
 2757SOL    HW211073   2.683   3.282   4.816 -0.4507 -1.3322 -0.1403
 2757SOL    HW311074   2.666   3.394   4.716  1.3799  0.6317  1.6908
 2757SOL    MW411075   2.691   3.313   4.735  0.3970  0.0243  0.4315
 2758SOL     OW11076   1.858   3.670   4.579  0.2058  0.3275  0.1895
 2758SOL    HW211077   1.952   3.655   4.568  0.3742  0.9790  0.7293
 2758SOL    HW311078   1.843   3.758   4.546 -0.3380 -0.0156 -0.5042
 2758SOL    MW411079   1.868   3.679   4.573  0.1562  0.3684  0.1688
 2759SOL     OW11080   2.594   3.107   4.514  0.0341  0.3855  0.3577
 2759SOL    HW211081   2.632   3.127   4.428 -1.2553  1.3909  0.0072
 2759SOL    HW311082   2.646   3.158   4.576  0.2457  0.5503  0.0469
 2759SOL    MW411083   2.606   3.116   4.511 -0.1082  0.5400  0.2708
 2760SOL     OW11084   2.058   4.447   4.543 -0.2639  0.0768 -0.3583
 2760SOL    HW211085   2.119   4.374   4.557 -0.6856  0.1328  2.0279
 2760SOL    HW311086   2.114   4.524   4.534  0.0998 -0.2248 -0.7159
 2760SOL    MW411087   2.074   4.447   4.544 -0.2716  0.0443 -0.0901
 2761SOL     OW11088   2.241   4.183   4.537  0.3973  0.0354 -0.0209
 2761SOL    HW211089   2.194   4.132   4.604 -1.3747  1.2714 -0.2845
 2761SOL    HW311090   2.248   4.123   4.463  0.1009 -0.4990  0.3731
 2761SOL    MW411091   2.236   4.168   4.536  0.1245  0.1283 -0.0038
 2762SOL     OW11092   1.810   3.921   4.492 -0.8693 -0.1168  0.2069
 2762SOL    HW211093   1.813   3.960   4.405  1.3501  1.6524  1.0195
 2762SOL    HW311094   1.743   3.970   4.539 -2.2624 -1.2552 -0.5531
 2762SOL    MW411095   1.802   3.932   4.487 -0.7603 -0.0336  0.2136
 2763SOL     OW11096   1.878   4.151   4.831 -0.2268  0.4903 -0.0088
 2763SOL    HW211097   1.901   4.152   4.924 -2.0117 -1.3264  0.4882
 2763SOL    HW311098   1.941   4.091   4.792 -1.0214 -0.6959  0.4933
 2763SOL    MW411099   1.889   4.143   4.838 -0.5672  0.0939  0.1225
 2764SOL     OW11100   1.659   0.010   4.657  0.1255  0.1275 -0.2160
 2764SOL    HW211101   1.716  -0.064   4.678  0.6042  0.5062 -0.1598
 2764SOL    HW311102   1.572  -0.028   4.648  0.4085 -0.4736 -0.4139
 2764SOL    MW411103   1.655  -0.004   4.659  0.2259  0.0987 -0.2346
 2765SOL     OW11104   1.813   4.395   4.694 -0.3551  0.0361  0.2873
 2765SOL    HW211105   1.892   4.433   4.656 -0.7228  0.0350 -0.4865
 2765SOL    HW311106   1.844   4.318   4.742 -0.0819 -0.9894 -1.4720
 2765SOL    MW411107   1.827   4.390   4.695 -0.3674 -0.0992 -0.0467
 2766SOL     OW11108   2.190   0.027   4.528 -0.0421  0.1170  0.4390
 2766SOL    HW211109   2.279  -0.003   4.548  0.4552  2.0696  1.2129
 2766SOL    HW311110   2.194   0.057   4.437 -0.1970 -0.8360  0.1127
 2766SOL    MW411111   2.202   0.027   4.519  0.0031  0.2488  0.4983
 2767SOL     OW11112   1.913   1.144   4.690  0.0014  0.2413 -0.3698
 2767SOL    HW211113   1.942   1.190   4.612 -0.4063 -0.5935 -1.0207
 2767SOL    HW311114   1.915   1.051   4.666 -0.9508  0.0268  0.3164
 2767SOL    MW411115   1.917   1.138   4.677 -0.1780  0.1028 -0.3653
 2768SOL     OW11116   2.617   0.113   4.554 -0.1390 -0.2446 -0.1366
 2768SOL    HW211117   2.558   0.038   4.563 -0.4436 -0.0685 -0.6562
 2768SOL    HW311118   2.628   0.124   4.459 -0.6711  0.8141 -0.0838
 2768SOL    MW411119   2.611   0.105   4.542 -0.2496 -0.0817 -0.1984
 2769SOL     OW11120   2.471   0.833   4.655 -0.1164  0.0011 -0.4123
 2769SOL    HW211121   2.405   0.886   4.610  0.8151  1.6913  0.1646
 2769SOL    HW311122   2.554   0.875   4.635  0.6044 -1.0148  0.3841
 2769SOL    MW411123   2.473   0.846   4.647  0.1013  0.0900 -0.2313
 2770SOL     OW11124   2.929   0.797   4.590  0.7160  0.2134 -0.7492
 2770SOL    HW211125   3.017   0.818   4.557  0.5698  2.1882  0.0545
 2770SOL    HW311126   2.941   0.782   4.683  0.3416 -0.4644 -0.8071
 2770SOL    MW411127   2.942   0.798   4.598  0.6473  0.3845 -0.6504
 2771SOL     OW11128   2.271   1.215   4.566 -0.2314 -0.3969 -0.2876
 2771SOL    HW211129   2.262   1.200   4.660  0.3190  0.4174 -0.1001
 2771SOL    HW311130   2.348   1.272   4.557  0.5731 -1.6095 -1.3383
 2771SOL    MW411131   2.280   1.220   4.577 -0.0525 -0.4495 -0.4015
 2772SOL     OW11132   2.495   1.364   4.493 -0.3028 -0.1827 -0.6307
 2772SOL    HW211133   2.566   1.320   4.539 -0.8432  1.2633  1.7151
 2772SOL    HW311134   2.534   1.445   4.461 -0.3620 -0.3932 -1.2389
 2772SOL    MW411135   2.509   1.369   4.495 -0.3819 -0.0198 -0.4010
 2773SOL     OW11136   2.668   1.593   4.447  0.8415  0.1854 -0.5666
 2773SOL    HW211137   2.687   1.621   4.357 -0.6758  0.7133 -0.7408
 2773SOL    HW311138   2.636   1.672   4.489  0.0195 -0.4480 -0.0096
 2773SOL    MW411139   2.666   1.607   4.440  0.5329  0.1714 -0.5159
 2774SOL     OW11140   2.028   1.602   4.636 -0.1177 -0.0453  0.0093
 2774SOL    HW211141   2.020   1.522   4.584 -1.3784  0.0781 -0.0027
 2774SOL    HW311142   2.113   1.638   4.611  0.2255 -1.1008 -0.3829
 2774SOL    MW411143   2.038   1.596   4.626 -0.2387 -0.1683 -0.0439
 2775SOL     OW11144   1.782   1.718   4.543  0.0487  0.3233 -0.0157
 2775SOL    HW211145   1.778   1.687   4.453 -0.1206  0.3128 -0.0041
 2775SOL    HW311146   1.871   1.696   4.572  0.0897  0.2897 -0.1645
 2775SOL    MW411147   1.793   1.711   4.535  0.0319  0.3175 -0.0339
 2776SOL     OW11148   2.520   2.040   4.493 -0.3280 -0.0480 -0.1899
 2776SOL    HW211149   2.499   1.960   4.541 -1.6244  0.8592  0.8089
 2776SOL    HW311150   2.616   2.046   4.497 -0.3047 -0.9391  0.7515
 2776SOL    MW411151   2.530   2.030   4.500 -0.4957 -0.0460  0.0663
 2777SOL     OW11152   3.249   2.439   4.504 -0.1143 -0.3266  0.0216
 2777SOL    HW211153   3.227   2.522   4.548 -0.1946 -0.8062  0.8926
 2777SOL    HW311154   3.212   2.448   4.417 -0.6220  0.3325  0.2982
 2777SOL    MW411155   3.241   2.451   4.498 -0.1919 -0.3030  0.1731
 2778SOL     OW11156   2.379   2.755   4.558  0.0185 -0.2644 -0.1639
 2778SOL    HW211157   2.376   2.674   4.507  2.1767 -0.7465  0.4174
 2778SOL    HW311158   2.375   2.725   4.650 -1.1687  0.4171  0.0060
 2778SOL    MW411159   2.379   2.740   4.564  0.1466 -0.2379 -0.0648
 2779SOL     OW11160   2.389   3.520   4.498  0.1111 -0.1314 -0.1132
 2779SOL    HW211161   2.477   3.530   4.536  1.1195 -0.3281 -2.3399
 2779SOL    HW311162   2.377   3.426   4.489 -0.8411 -0.1609  1.2881
 2779SOL    MW411163   2.399   3.509   4.502  0.1185 -0.1612 -0.2222
 2780SOL     OW11164   2.350   3.250   4.459  0.2631  0.5016 -0.0996
 2780SOL    HW211165   2.312   3.217   4.377  0.7219  1.3704 -0.6744
 2780SOL    HW311166   2.430   3.199   4.470  1.1883  1.6494 -1.2070
 2780SOL    MW411167   2.355   3.239   4.450  0.4456  0.7672 -0.3219
 2781SOL     OW11168   2.536   3.848   4.699 -0.1095 -0.4073  0.2353
 2781SOL    HW211169   2.441   3.849   4.694 -0.1139 -1.4546  0.0878
 2781SOL    HW311170   2.563   3.919   4.640 -0.8245  0.6616  1.1884
 2781SOL    MW411171   2.527   3.858   4.690 -0.2043 -0.4046  0.3419
 2782SOL     OW11172   0.962   4.273   4.842 -0.3466  0.4481 -0.4567
 2782SOL    HW211173   0.889   4.219   4.810 -0.6158 -0.3245  1.3728
 2782SOL    HW311174   1.039   4.218   4.831 -0.4536  0.1433  0.3137
 2782SOL    MW411175   0.962   4.259   4.836 -0.3963  0.3057 -0.1140
 2783SOL     OW11176   3.104   3.970   4.700  0.1493  0.2607 -0.1470
 2783SOL    HW211177   3.129   3.985   4.791  0.7519  0.8207 -0.3959
 2783SOL    HW311178   3.154   4.035   4.651 -1.2143  0.8756 -0.7476
 2783SOL    MW411179   3.114   3.980   4.706  0.0486  0.4156 -0.2594
 2784SOL     OW11180   2.658   4.055   4.540 -0.3655 -0.1846  0.1470
 2784SOL    HW211181   2.590   4.121   4.525  1.2155  1.2100 -1.2177
 2784SOL    HW311182   2.699   4.044   4.454  0.5654 -1.6477  0.7625
 2784SOL    MW411183   2.654   4.062   4.526 -0.0341 -0.1941  0.0482
 2785SOL     OW11184   0.083   4.194   4.656 -0.0354 -0.2445 -0.0098
 2785SOL    HW211185   0.047   4.118   4.611  1.6639 -0.3891 -1.2032
 2785SOL    HW311186   0.134   4.157   4.728  1.3786 -0.3153 -1.0145
 2785SOL    MW411187   0.085   4.179   4.659  0.3754 -0.2728 -0.2995
 2786SOL     OW11188   3.636   4.232   4.687  0.2234  0.5079 -0.0682
 2786SOL    HW211189   3.719   4.275   4.664  0.7581 -1.2263 -1.4400
 2786SOL    HW311190   3.654   4.191   4.772  1.0642 -0.5759 -0.7492
 2786SOL    MW411191   3.649   4.233   4.695  0.4048  0.1359 -0.3386
 2787SOL     OW11192   2.639   3.587   4.649 -0.3536 -0.2477  0.2452
 2787SOL    HW211193   2.726   3.588   4.608 -1.8506 -1.7128 -3.0947
 2787SOL    HW311194   2.624   3.678   4.675  0.9721  0.5921 -1.8127
 2787SOL    MW411195   2.649   3.599   4.647 -0.3762 -0.3300 -0.4668
 2788SOL     OW11196   2.878   4.151   4.668 -0.5000 -0.5854  0.6577
 2788SOL    HW211197   2.802   4.099   4.643 -0.4115 -0.8879  1.0256
 2788SOL    HW311198   2.941   4.088   4.702  0.4316 -0.5222 -0.8498
 2788SOL    MW411199   2.877   4.136   4.669 -0.3655 -0.6170  0.5074
 2789SOL     OW11200   2.833   0.528   4.549 -0.1683  0.1634  0.0959
 2789SOL    HW211201   2.859   0.515   4.458  1.7716  0.8999  0.5064
 2789SOL    HW311202   2.848   0.621   4.565  1.9171 -0.4161  1.8412
 2789SOL    MW411203   2.839   0.539   4.539  0.3629  0.1841  0.3796
 2790SOL     OW11204   2.433   4.561   4.539 -0.1328 -0.5732 -0.5960
 2790SOL    HW211205   2.428   4.500   4.466 -1.7570 -1.7357  0.4339
 2790SOL    HW311206   2.443   4.506   4.616  0.4323  0.5688  0.1676
 2790SOL    MW411207   2.434   4.546   4.540 -0.2728 -0.5760 -0.3595
 2791SOL     OW11208   3.066   0.329   4.612 -0.0982  0.3904 -0.1834
 2791SOL    HW211209   3.130   0.397   4.635  1.3633 -0.6855 -0.9148
 2791SOL    HW311210   2.989   0.377   4.583  0.1083  1.7377  1.3940
 2791SOL    MW411211   3.065   0.344   4.611  0.1221  0.4262 -0.0720
 2792SOL     OW11212   2.682   0.961   4.550  0.0864  0.4389 -0.3963
 2792SOL    HW211213   2.751   0.896   4.568 -0.0500  0.1642 -0.8591
 2792SOL    HW311214   2.671   0.958   4.455  0.0198  1.0869 -0.4081
 2792SOL    MW411215   2.690   0.952   4.540  0.0596  0.4882 -0.4587
 2793SOL     OW11216   3.658   0.607   4.796  0.0267  0.1247 -0.0225
 2793SOL    HW211217   3.724   0.603   4.864  0.2477 -1.3260 -0.3120
 2793SOL    HW311218   3.705   0.636   4.718 -0.0411  0.8434  0.1975
 2793SOL    MW411219   3.673   0.610   4.795  0.0472  0.0281 -0.0324
 2794SOL     OW11220   2.254   0.952   4.514 -0.4053 -0.3362  0.5700
 2794SOL    HW211221   2.254   1.047   4.527 -0.3426 -0.2033 -0.3860
 2794SOL    HW311222   2.207   0.918   4.590  0.1371  0.4111  1.2492
 2794SOL    MW411223   2.248   0.960   4.526 -0.3254 -0.2200  0.5336
 2795SOL     OW11224   2.288   0.945   4.872  0.2900  0.1718  0.1655
 2795SOL    HW211225   2.360   0.893   4.837  0.4692  0.4815  0.0703
 2795SOL    HW311226   2.209   0.894   4.852  0.4463  0.0396 -0.1135
 2795SOL    MW411227   2.287   0.932   4.865  0.3343  0.1952  0.1163
 2796SOL     OW11228   2.971   1.278   4.536 -0.4778 -0.0362 -0.3769
 2796SOL    HW211229   2.979   1.372   4.553  1.8480  0.3068 -2.9125
 2796SOL    HW311230   2.951   1.272   4.443  0.6987 -2.0822 -0.5296
 2796SOL    MW411231   2.970   1.290   4.526 -0.0157 -0.2608 -0.7315
 2797SOL     OW11232   3.117   1.679   4.534  0.2722  0.4552 -0.6325
 2797SOL    HW211233   3.103   1.764   4.576 -1.1642  0.0230 -0.2077
 2797SOL    HW311234   3.038   1.628   4.555  1.2823 -1.1213 -0.5386
 2797SOL    MW411235   3.105   1.683   4.543  0.2160  0.1901 -0.5646
 2798SOL     OW11236   3.223   1.513   4.946 -0.7051 -0.2489 -0.3524
 2798SOL    HW211237   3.191   1.599   4.972  0.4914  0.1582 -0.1833
 2798SOL    HW311238   3.257   1.526   4.857  0.2897 -0.3166  0.0053
 2798SOL    MW411239   3.223   1.526   4.938 -0.4163 -0.2041 -0.2828
 2799SOL     OW11240   2.797   2.051   4.496  0.2070 -0.0901 -0.0377
 2799SOL    HW211241   2.852   2.104   4.554 -0.6976  0.9336 -0.0934
 2799SOL    HW311242   2.845   2.048   4.413  0.5956  0.0569  0.1797
 2799SOL    MW411243   2.811   2.057   4.493  0.1388  0.0641 -0.0167
 2800SOL     OW11244   3.357   2.390   4.753  0.1655  0.0597  0.2864
 2800SOL    HW211245   3.334   2.406   4.662  2.1826 -0.9470 -0.4370
 2800SOL    HW311246   3.297   2.321   4.782 -1.2412  1.1854  0.0936
 2800SOL    MW411247   3.346   2.383   4.745  0.2460  0.0753  0.1650
 2801SOL     OW11248   4.143   2.968   4.877 -0.0318 -0.5783 -0.1171
 2801SOL    HW211249   4.177   2.939   4.961 -0.1880 -0.2784  0.0482
 2801SOL    HW311250   4.219   2.966   4.818  0.0293 -1.0071 -0.0286
 2801SOL    MW411251   4.157   2.964   4.880 -0.0443 -0.5956 -0.0839
 2802SOL     OW11252   2.543   2.331   4.475  0.1610  0.6214 -0.2864
 2802SOL    HW211253   2.634   2.346   4.498  0.4528 -1.4527 -0.0646
 2802SOL    HW311254   2.534   2.236   4.469 -2.4543  0.6940  1.5833
 2802SOL    MW411255   2.554   2.321   4.477 -0.1452  0.3572 -0.0100
 2803SOL     OW11256   2.962   2.834   4.539  0.2024  0.0824 -0.1670
 2803SOL    HW211257   2.868   2.823   4.546  0.4133  0.0569  3.7269
 2803SOL    HW311258   2.976   2.929   4.541  0.3238  0.0525  1.3445
 2803SOL    MW411259   2.952   2.845   4.540  0.2460  0.0751  0.5465
 2804SOL     OW11260   3.228   2.867   4.803  0.1691 -0.3352 -0.0340
 2804SOL    HW211261   3.299   2.925   4.777 -1.1242  2.3528  2.0672
 2804SOL    HW311262   3.269   2.801   4.859  1.1424  0.6640  0.4440
 2804SOL    MW411263   3.242   2.866   4.807  0.1268  0.1516  0.3061
 2805SOL     OW11264   2.906   3.293   4.523  0.0254 -0.2227  0.2242
 2805SOL    HW211265   2.964   3.234   4.571 -0.4162 -0.2064  0.7780
 2805SOL    HW311266   2.837   3.315   4.585 -1.8098 -1.9947 -1.1493
 2805SOL    MW411267   2.905   3.288   4.538 -0.2751 -0.4544  0.1159
 2806SOL     OW11268   2.681   2.838   4.566 -0.7091  0.4843  0.4118
 2806SOL    HW211269   2.604   2.782   4.571 -0.4039 -0.1286 -1.1919
 2806SOL    HW311270   2.646   2.926   4.556 -1.2242  0.1185 -1.1513
 2806SOL    MW411271   2.666   2.842   4.565 -0.7370  0.3555 -0.0057
 2807SOL     OW11272   2.893   3.594   4.520  0.0616 -0.4345  0.1595
 2807SOL    HW211273   2.966   3.653   4.539  1.7580 -2.1490 -0.8228
 2807SOL    HW311274   2.930   3.506   4.530 -1.6873 -1.3367 -1.0049
 2807SOL    MW411275   2.907   3.590   4.524  0.0548 -0.7796 -0.1240
 2808SOL     OW11276   3.417   3.629   4.557  0.3033 -0.2398 -0.0738
 2808SOL    HW211277   3.455   3.542   4.556  0.8639 -0.0234  1.5034
 2808SOL    HW311278   3.488   3.687   4.585 -0.6531  0.4121  1.0885
 2808SOL    MW411279   3.431   3.625   4.560  0.2513 -0.1256  0.2875
 2809SOL     OW11280   3.668   3.765   4.615  0.0132  0.2778 -0.5106
 2809SOL    HW211281   3.680   3.854   4.581 -0.8639 -0.1697 -2.0432
 2809SOL    HW311282   3.749   3.720   4.593  0.8644  0.9513  1.1512
 2809SOL    MW411283   3.680   3.771   4.608  0.0100  0.3073 -0.4935
 2810SOL     OW11284   3.454   2.996   4.681  0.0210 -0.0309  0.6111
 2810SOL    HW211285   3.428   3.073   4.630 -0.3337 -1.0372 -0.7624
 2810SOL    HW311286   3.463   2.926   4.616  0.0270 -1.2263  1.8754
 2810SOL    MW411287   3.451   2.997   4.666 -0.0246 -0.3214  0.5965
 2811SOL     OW11288   3.029   4.384   4.496  0.4775  0.0222  0.0888
 2811SOL    HW211289   2.949   4.335   4.517  0.5229  0.1715  0.6203
 2811SOL    HW311290   3.023   4.463   4.550  0.0825  0.9291 -1.2637
 2811SOL    MW411291   3.017   4.388   4.506  0.4318  0.1616 -0.0196
 2812SOL     OW11292   3.198   4.147   4.501  0.4154 -0.3405  0.1880
 2812SOL    HW211293   3.122   4.206   4.509 -0.0505 -0.9602  0.3993
 2812SOL    HW311294   3.272   4.199   4.531  0.3673  0.8689 -1.7228
 2812SOL    MW411295   3.197   4.162   4.506  0.3476 -0.2627 -0.0362
 2813SOL     OW11296   3.286   0.495   4.578  0.5601 -0.3263 -0.0727
 2813SOL    HW211297   3.302   0.493   4.484 -1.7589  1.6993 -0.5546
 2813SOL    HW311298   3.312   0.583   4.605  0.5317 -0.6537  1.0526
 2813SOL    MW411299   3.291   0.506   4.569  0.2503 -0.1022  0.0129
 2814SOL     OW11300   2.400   0.595   4.501 -0.1439 -0.1057  0.1652
 2814SOL    HW211301   2.444   0.535   4.562  0.1292 -0.4093 -0.3262
 2814SOL    HW311302   2.426   0.682   4.531  0.8326 -0.2805 -0.1328
 2814SOL    MW411303   2.409   0.598   4.513  0.0210 -0.1688  0.0610
 2815SOL     OW11304   2.708   1.223   4.599  0.0641  0.3265 -0.2533
 2815SOL    HW211305   2.703   1.130   4.577 -0.8654  0.4430 -0.5516
 2815SOL    HW311306   2.800   1.245   4.588  0.1932 -0.4328 -0.7346
 2815SOL    MW411307   2.719   1.213   4.594 -0.0415  0.2418 -0.3562
 2816SOL     OW11308   2.554   0.393   4.632 -0.0171 -0.1518 -0.7202
 2816SOL    HW211309   2.559   0.297   4.638  0.1404 -0.1247 -0.4308
 2816SOL    HW311310   2.645   0.422   4.639 -0.2525  0.1529  1.4617
 2816SOL    MW411311   2.567   0.384   4.634 -0.0272 -0.1080 -0.3939
 2817SOL     OW11312   3.429   0.745   4.640  0.0920 -0.1045  0.3080
 2817SOL    HW211313   3.493   0.794   4.588 -1.5662  1.0322 -0.6821
 2817SOL    HW311314   3.483   0.696   4.702  2.0434 -0.5098 -1.6169
 2817SOL    MW411315   3.445   0.745   4.641  0.1307 -0.0080 -0.0763
 2818SOL     OW11316   3.329   1.308   4.503 -0.1119 -0.0673  0.2959
 2818SOL    HW211317   3.271   1.248   4.550  0.0476 -0.9126 -0.5652
 2818SOL    HW311318   3.416   1.289   4.538 -0.0859 -0.2087  0.1536
 2818SOL    MW411319   3.333   1.298   4.514 -0.0875 -0.1974  0.1640
 2819SOL     OW11320   2.882   1.532   4.615 -0.2302  0.2689 -0.0274
 2819SOL    HW211321   2.800   1.549   4.567 -0.8398  0.3080  1.0197
 2819SOL    HW311322   2.857   1.468   4.682  0.8079 -0.4267 -0.3062
 2819SOL    MW411323   2.868   1.526   4.617 -0.1736  0.1824  0.0744
 2820SOL     OW11324   4.067   1.100   4.673  0.3537 -0.0825 -0.0435
 2820SOL    HW211325   4.071   1.011   4.638  0.6373  0.3798 -1.1998
 2820SOL    HW311326   4.065   1.088   4.768 -0.3612 -1.3445 -0.2057
 2820SOL    MW411327   4.067   1.087   4.681  0.2966 -0.1880 -0.2174
 2821SOL     OW11328   3.307   1.536   4.674  0.5161  1.1008 -0.0212
 2821SOL    HW211329   3.244   1.582   4.619  0.7883  1.1001 -0.3335
 2821SOL    HW311330   3.325   1.454   4.628  2.2813  1.9897 -0.9675
 2821SOL    MW411331   3.301   1.532   4.661  0.7849  1.2180 -0.1869
 2822SOL     OW11332   3.283   1.971   4.813  0.0855 -0.0992 -0.0154
 2822SOL    HW211333   3.233   1.962   4.732  0.1220 -0.7917  0.0358
 2822SOL    HW311334   3.257   2.056   4.847 -0.3707 -0.0544 -0.4585
 2822SOL    MW411335   3.273   1.981   4.807  0.0303 -0.1845 -0.0672
 2823SOL     OW11336   3.636   2.420   4.742  0.4480  0.2160  0.2165
 2823SOL    HW211337   3.546   2.391   4.754 -0.1546  2.4086  1.2542
 2823SOL    HW311338   3.638   2.460   4.655  0.6314 -0.5475 -0.1357
 2823SOL    MW411339   3.625   2.422   4.732  0.3927  0.4046  0.3061
 2824SOL     OW11340   3.108   1.961   4.589 -0.7752 -0.4241  0.5293
 2824SOL    HW211341   3.164   2.028   4.550  0.6484 -1.6500  0.4289
 2824SOL    HW311342   3.030   2.008   4.615 -0.6415  0.9244 -1.3604
 2824SOL    MW411343   3.105   1.976   4.587 -0.5701 -0.4081  0.2666
 2825SOL     OW11344   3.081   3.053   4.642  0.1952 -0.1220  0.1747
 2825SOL    HW211345   3.112   3.000   4.715  0.6965 -1.1467 -0.7705
 2825SOL    HW311346   3.160   3.072   4.591 -0.2194  0.2040 -0.3495
 2825SOL    MW411347   3.096   3.049   4.645  0.2067 -0.2141 -0.0191
 2826SOL     OW11348   3.613   2.586   4.504 -0.2515 -0.9664  0.4858
 2826SOL    HW211349   3.538   2.645   4.516 -0.6448 -1.7515  1.9749
 2826SOL    HW311350   3.689   2.644   4.509 -0.7241 -0.2556 -0.3747
 2826SOL    MW411351   3.613   2.602   4.506 -0.3660 -0.9761  0.5689
 2827SOL     OW11352   3.316   2.607   4.918  0.3365  0.5081 -0.1307
 2827SOL    HW211353   3.317   2.578   5.009 -0.1041 -0.2360 -0.3565
 2827SOL    HW311354   3.315   2.526   4.868 -0.4573  0.9177 -0.7879
 2827SOL    MW411355   3.316   2.592   4.924  0.1736  0.4640 -0.2475
 2828SOL     OW11356   3.694   2.929   4.790  0.2702 -0.2603  0.0471
 2828SOL    HW211357   3.619   2.985   4.770  1.0389  0.2876 -1.3054
 2828SOL    HW311358   3.655   2.847   4.821 -0.8805  0.0987 -0.4386
 2828SOL    MW411359   3.679   2.925   4.792  0.2198 -0.1409 -0.1945
 2829SOL     OW11360   3.319   3.211   4.509  0.3674  0.1324 -0.4122
 2829SOL    HW211361   3.398   3.264   4.499  0.3120  0.5295  1.1766
 2829SOL    HW311362   3.263   3.237   4.436  2.0617 -0.8286 -2.1101
 2829SOL    MW411363   3.322   3.221   4.498  0.5834  0.0582 -0.4263
 2830SOL     OW11364   3.414   2.789   4.502  0.2914 -0.0321  0.6384
 2830SOL    HW211365   3.390   2.807   4.411 -0.6984 -0.7195  0.7452
 2830SOL    HW311366   3.339   2.741   4.537  1.6239 -1.7900  1.1657
 2830SOL    MW411367   3.401   2.785   4.495  0.3364 -0.3548  0.7219
 2831SOL     OW11368   3.805   2.775   4.585 -0.1086 -0.0470  0.0103
 2831SOL    HW211369   3.885   2.753   4.633  1.3369  3.9033 -0.4168
 2831SOL    HW311370   3.755   2.829   4.647 -1.6769 -1.0617 -0.3472
 2831SOL    MW411371   3.809   2.780   4.600 -0.1247  0.3405 -0.0930
 2832SOL     OW11372   3.822   3.357   4.615 -0.6605  0.5759 -0.2678
 2832SOL    HW211373   3.877   3.344   4.693 -1.8534  0.4779  0.5600
 2832SOL    HW311374   3.864   3.303   4.547  0.6971  1.0876  0.1367
 2832SOL    MW411375   3.835   3.348   4.616 -0.6390  0.6304 -0.1054
 2833SOL     OW11376   3.401   4.342   4.537  0.2953 -0.1227 -0.2513
 2833SOL    HW211377   3.387   4.428   4.575 -0.4707  0.3121 -1.4856
 2833SOL    HW311378   3.489   4.317   4.565  0.7816  1.3552 -0.4341
 2833SOL    MW411379   3.411   4.350   4.546  0.2584  0.1297 -0.4382
 2834SOL     OW11380   3.680   4.041   4.479 -0.4437  0.0077 -0.0172
 2834SOL    HW211381   3.775   4.035   4.483 -0.4796 -1.8704 -1.4645
 2834SOL    HW311382   3.658   4.116   4.534  1.9386  1.1595 -0.6034
 2834SOL    MW411383   3.689   4.050   4.487 -0.1342 -0.0882 -0.2856
 2835SOL     OW11384   2.843   4.634   4.678  0.2230  0.0113  0.1120
 2835SOL    HW211385   2.791   4.562   4.642  0.9437 -0.1201 -0.6929
 2835SOL    HW311386   2.793   4.713   4.658  1.2520  0.0721 -2.4368
 2835SOL    MW411387   2.830   4.635   4.671  0.4537  0.0019 -0.3300
 2836SOL     OW11388   0.202   4.000   4.852  0.2921  0.8568  0.0340
 2836SOL    HW211389   0.204   3.963   4.940 -0.1548 -0.7168 -0.5924
 2836SOL    HW311390   0.209   3.924   4.794 -0.6614  1.7652 -1.3025
 2836SOL    MW411391   0.203   3.985   4.856  0.1073  0.7689 -0.2251
 2837SOL     OW11392   3.982   3.986   4.519  0.2171  0.0748  0.0108
 2837SOL    HW211393   4.031   3.908   4.547 -0.8567 -1.0294 -1.1003
 2837SOL    HW311394   4.033   4.059   4.552  1.4210 -1.0992  0.8253
 2837SOL    MW411395   3.995   3.985   4.527  0.2344 -0.2255 -0.0281
 2838SOL     OW11396   3.333   4.571   4.680  0.0891 -0.2719 -0.2412
 2838SOL    HW211397   3.254   4.619   4.655  0.0493  0.8078  1.8872
 2838SOL    HW311398   3.405   4.628   4.654  0.0664  0.5086  1.4021
 2838SOL    MW411399   3.332   4.585   4.673  0.0808 -0.0262  0.2565
 2839SOL     OW11400   3.200   0.873   4.517 -0.3780 -0.4602  0.6517
 2839SOL    HW211401   3.197   0.941   4.584  0.9675  0.2880 -0.0193
 2839SOL    HW311402   3.271   0.816   4.545 -0.5711 -0.7890  0.4684
 2839SOL    MW411403   3.209   0.875   4.530 -0.2258 -0.4049  0.5388
 2840SOL     OW11404   3.172   1.120   4.655 -0.0702 -0.3448 -0.0381
 2840SOL    HW211405   3.150   1.155   4.741  0.5064 -0.6268  0.2300
 2840SOL    HW311406   3.101   1.148   4.598  0.6387  1.6704  0.0549
 2840SOL    MW411407   3.160   1.128   4.659  0.0997 -0.1162  0.0095
 2841SOL     OW11408   4.351   1.157   4.536 -0.2237 -0.0178 -0.0216
 2841SOL    HW211409   4.393   1.071   4.526 -1.1390 -0.3832 -0.8594
 2841SOL    HW311410   4.272   1.140   4.587  0.6665  0.6856  1.6332
 2841SOL    MW411411   4.347   1.143   4.541 -0.2270  0.0268  0.0858
 2842SOL     OW11412   3.849   1.279   4.566  0.2597 -0.3298 -0.1057
 2842SOL    HW211413   3.927   1.228   4.586  1.0784  0.4926 -1.1432
 2842SOL    HW311414   3.832   1.260   4.473  0.0298  0.5606 -0.2484
 2842SOL    MW411415   3.857   1.270   4.556  0.3374 -0.1038 -0.2613
 2843SOL     OW11416   4.069   0.851   4.545  0.5042 -0.4180  0.4808
 2843SOL    HW211417   4.151   0.811   4.571  0.7566  0.7279  1.5112
 2843SOL    HW311418   4.067   0.844   4.450  0.7583 -2.4086  0.6026
 2843SOL    MW411419   4.079   0.845   4.536  0.5708 -0.5295  0.6328
 2844SOL     OW11420   4.425   0.483   4.556  0.3012  0.7884 -0.3503
 2844SOL    HW211421   4.390   0.421   4.620  0.4106  1.2560  0.1651
 2844SOL    HW311422   4.367   0.474   4.480 -0.3265  0.8182  0.1159
 2844SOL    MW411423   4.413   0.474   4.555  0.2327  0.8540 -0.2208
 2845SOL     OW11424   3.555   1.637   4.555 -0.0446  0.5090 -0.1029
 2845SOL    HW211425   3.555   1.713   4.614  3.2896 -1.0755  2.0733
 2845SOL    HW311426   3.472   1.593   4.574  0.5186  0.5557  2.7892
 2845SOL    MW411427   3.544   1.641   4.565  0.4694  0.3061  0.5660
 2846SOL     OW11428   3.498   1.950   4.607  0.1502  0.4730  0.4474
 2846SOL    HW211429   3.451   2.014   4.554 -1.8394  0.3007  1.9291
 2846SOL    HW311430   3.457   1.957   4.694  1.1489 -1.4928  1.1018
 2846SOL    MW411431   3.486   1.959   4.612  0.0198  0.1909  0.7296
 2847SOL     OW11432   3.315   2.132   4.462  0.3580  0.1594  0.2567
 2847SOL    HW211433   3.328   2.133   4.367  1.8875 -0.0091  0.4578
 2847SOL    HW311434   3.307   2.225   4.485 -0.9211  0.1581 -0.1497
 2847SOL    MW411435   3.316   2.145   4.452  0.3908  0.1369  0.2298
 2848SOL     OW11436   4.253   1.844   4.693 -0.3608 -0.1331  0.9783
 2848SOL    HW211437   4.245   1.907   4.765 -0.6747 -0.4007  1.1803
 2848SOL    HW311438   4.164   1.830   4.663 -0.0951  1.0635 -0.4186
 2848SOL    MW411439   4.241   1.850   4.699 -0.3672 -0.0105  0.8206
 2849SOL     OW11440   0.274   1.942   4.525 -0.1234  0.3319 -0.3564
 2849SOL    HW211441   0.209   1.990   4.576 -0.0708  0.1257 -0.0918
 2849SOL    HW311442   0.230   1.861   4.499  0.3586 -0.2773  0.7005
 2849SOL    MW411443   0.260   1.937   4.528 -0.0529  0.2242 -0.1817
 2850SOL     OW11444   4.094   2.253   4.624 -0.3779 -0.2999 -0.0808
 2850SOL    HW211445   4.115   2.343   4.597 -0.6156  0.1508  1.2256
 2850SOL    HW311446   4.169   2.202   4.594 -0.0374  0.4085 -0.4526
 2850SOL    MW411447   4.107   2.258   4.616 -0.3648 -0.1471  0.0434
 2851SOL     OW11448   4.175   2.504   4.570 -0.0044 -0.7189 -0.4266
 2851SOL    HW211449   4.268   2.500   4.591  0.5030  0.3352 -2.3391
 2851SOL    HW311450   4.143   2.582   4.616  0.0552 -1.0724  0.2182
 2851SOL    MW411451   4.183   2.514   4.579  0.0701 -0.6263 -0.5941
 2852SOL     OW11452   3.592   2.687   4.870  0.4123 -0.3407 -0.1054
 2852SOL    HW211453   3.625   2.605   4.834  0.5076 -1.0287  1.5031
 2852SOL    HW311454   3.497   2.675   4.874  0.5043 -0.7623  1.0293
 2852SOL    MW411455   3.583   2.675   4.865  0.4370 -0.4869  0.2565
 2853SOL     OW11456   4.071   3.203   4.494  0.0260 -0.2546  0.1604
 2853SOL    HW211457   4.094   3.234   4.406  1.8787 -0.0246  0.6931
 2853SOL    HW311458   4.089   3.109   4.492  1.8769  0.0604  0.8159
 2853SOL    MW411459   4.076   3.195   4.482  0.5140 -0.1829  0.3166
 2854SOL     OW11460   3.152   3.740   4.539  0.6300 -0.0841 -0.1502
 2854SOL    HW211461   3.237   3.699   4.556  1.4389  1.5298 -0.2010
 2854SOL    HW311462   3.146   3.809   4.605 -0.2497  0.3816 -0.7119
 2854SOL    MW411463   3.163   3.743   4.550  0.6206  0.1903 -0.2308
 2855SOL     OW11464   3.903   3.109   4.883  0.1699  0.2290 -0.4142
 2855SOL    HW211465   3.837   3.040   4.875 -1.0888  1.3736 -0.1715
 2855SOL    HW311466   3.987   3.063   4.880 -0.6616 -1.5152  1.6447
 2855SOL    MW411467   3.905   3.094   4.881 -0.1059  0.1500 -0.1106
 2856SOL     OW11468   3.537   3.377   4.525  0.2725 -0.1013 -0.3046
 2856SOL    HW211469   3.612   3.370   4.584 -0.7207  2.5706  1.3659
 2856SOL    HW311470   3.575   3.387   4.438  1.7964 -1.4505  0.1952
 2856SOL    MW411471   3.552   3.377   4.522  0.3424  0.0732 -0.0181
 2857SOL     OW11472   3.997   3.375   4.848 -0.5846 -0.1825  0.0394
 2857SOL    HW211473   3.966   3.431   4.918  0.3776 -0.8864  1.0421
 2857SOL    HW311474   3.961   3.288   4.869  0.8048 -0.6822  0.4021
 2857SOL    MW411475   3.988   3.371   4.860 -0.2744 -0.3412  0.2189
 2858SOL     OW11476   4.370   2.936   4.713  0.7713  0.3942  0.2721
 2858SOL    HW211477   4.428   3.004   4.747  1.1823  1.1904 -1.9523
 2858SOL    HW311478   4.428   2.863   4.691  0.8576  0.9384 -1.3278
 2858SOL    MW411479   4.385   2.935   4.715  0.8364  0.5713 -0.2327
 2859SOL     OW11480   3.874   4.342   4.575 -0.4589 -0.4009 -0.0115
 2859SOL    HW211481   3.887   4.335   4.481  0.0228 -0.1490  0.0323
 2859SOL    HW311482   3.863   4.436   4.591  1.3207 -0.2387  0.4022
 2859SOL    MW411483   3.874   4.354   4.565 -0.1607 -0.3457  0.0491
 2860SOL     OW11484   3.840   4.625   4.600  0.1381 -0.0076  0.0376
 2860SOL    HW211485   3.749   4.652   4.590  0.1066 -0.1929 -0.1676
 2860SOL    HW311486   3.886   4.705   4.624  0.0123  0.1924 -0.3842
 2860SOL    MW411487   3.834   4.639   4.602  0.1171 -0.0057 -0.0448
 2861SOL     OW11488   3.105   0.046   4.579  0.4608  0.2353  0.0594
 2861SOL    HW211489   3.029   0.010   4.625 -0.5160  0.9971 -0.9408
 2861SOL    HW311490   3.114   0.135   4.613  1.4877 -0.1687  0.8644
 2861SOL    MW411491   3.096   0.053   4.590  0.4678  0.2825  0.0339
 2862SOL     OW11492   3.630   0.861   4.513 -0.2343  0.7032  0.3625
 2862SOL    HW211493   3.618   0.943   4.560 -0.5076  0.4434  0.7450
 2862SOL    HW311494   3.597   0.879   4.425 -0.6339  0.8947  0.5491
 2862SOL    MW411495   3.624   0.874   4.508 -0.3231  0.6942  0.4377
 2863SOL     OW11496   3.849   0.675   4.597  0.2206 -0.3019 -0.3682
 2863SOL    HW211497   3.933   0.716   4.579 -0.0591  1.2044  1.5373
 2863SOL    HW311498   3.784   0.738   4.564 -0.1889 -0.7000 -0.3328
 2863SOL    MW411499   3.851   0.688   4.590  0.1295 -0.1557 -0.1121
 2864SOL     OW11500   4.476   0.130   4.505  0.2397  0.2011 -0.2352
 2864SOL    HW211501   4.399   0.165   4.549 -0.9792 -0.9761 -1.3788
 2864SOL    HW311502   4.545   0.195   4.522 -0.3994  0.1758  2.6422
 2864SOL    MW411503   4.475   0.143   4.513 -0.0052  0.0424 -0.0067
 2865SOL     OW11504   0.182   0.347   4.527 -0.2294  0.0605  0.3253
 2865SOL    HW211505   0.104   0.402   4.533 -1.0057 -1.0562  0.6178
 2865SOL    HW311506   0.229   0.380   4.451 -1.1554  0.5363 -0.0485
 2865SOL    MW411507   0.178   0.358   4.517 -0.4540 -0.0241  0.3147
 2866SOL     OW11508   4.255   0.233   4.627  0.1088 -0.7442  0.3085
 2866SOL    HW211509   4.262   0.196   4.715 -2.0123 -0.5232  0.5919
 2866SOL    HW311510   4.162   0.226   4.605  0.5030 -0.1581 -1.6431
 2866SOL    MW411511   4.244   0.227   4.636 -0.1192 -0.6377  0.0882
 2867SOL     OW11512   4.386   1.575   4.615 -0.4138 -0.0288  0.1123
 2867SOL    HW211513   4.357   1.560   4.525 -1.1108 -0.0496  0.3392
 2867SOL    HW311514   4.341   1.654   4.642  0.4096  0.4246  0.1794
 2867SOL    MW411515   4.376   1.583   4.607 -0.3972  0.0283  0.1507
 2868SOL     OW11516   0.048   1.333   4.635 -0.3069  0.1786 -0.5171
 2868SOL    HW211517  -0.017   1.273   4.597 -2.4674  1.0886  1.6648
 2868SOL    HW311518   0.004   1.418   4.636  0.8126  0.7541  1.2435
 2868SOL    MW411519   0.034   1.336   4.630 -0.4443  0.3746  0.0033
 2869SOL     OW11520   0.510   1.817   4.509 -0.0283 -0.4565 -0.1098
 2869SOL    HW211521   0.503   1.775   4.423 -0.4987 -0.8655  0.1234
 2869SOL    HW311522   0.426   1.861   4.521 -0.6091 -1.8113  0.8650
 2869SOL    MW411523   0.498   1.817   4.499 -0.1670 -0.6891  0.0491
 2870SOL     OW11524   4.130   2.064   4.828 -0.0369  0.3934  0.4644
 2870SOL    HW211525   4.119   2.133   4.763  0.1002 -0.1046 -0.0941
 2870SOL    HW311526   4.047   2.062   4.875  0.2340  1.4512  0.9868
 2870SOL    MW411527   4.118   2.072   4.826  0.0172  0.4671  0.4597
 2871SOL     OW11528   3.183   2.687   4.607 -0.1402  0.0079  0.0060
 2871SOL    HW211529   3.101   2.719   4.569  0.0520  0.3521 -0.1270
 2871SOL    HW311530   3.193   2.736   4.688 -0.5273 -0.6976  0.4933
 2871SOL    MW411531   3.173   2.697   4.612 -0.1659 -0.0401  0.0525
 2872SOL     OW11532   4.285   2.065   4.225 -0.0064  0.2213  0.1267
 2872SOL    HW211533   4.203   2.019   4.206  0.9311 -0.9888 -1.0163
 2872SOL    HW311534   4.285   2.074   4.320 -1.2706 -0.1224  0.1731
 2872SOL    MW411535   4.274   2.060   4.235 -0.0496  0.0162 -0.0176
 2873SOL     OW11536   4.308   2.086   4.525  0.3194  0.5907 -0.4683
 2873SOL    HW211537   4.403   2.089   4.529  0.2763  1.3208  0.1623
 2873SOL    HW311538   4.284   2.009   4.577  0.4912  1.4824  0.9817
 2873SOL    MW411539   4.317   2.076   4.533  0.3362  0.8049 -0.1931
 2874SOL     OW11540   3.776   2.025   4.605 -0.3654 -0.3130 -0.2742
 2874SOL    HW211541   3.688   1.989   4.608 -0.1148 -0.9219 -0.2957
 2874SOL    HW311542   3.774   2.097   4.668 -0.4314 -1.3196  0.8920
 2874SOL    MW411543   3.764   2.030   4.614 -0.3414 -0.5262 -0.1230
 2875SOL     OW11544   3.835   2.237   4.757 -0.1289 -0.0727  0.0727
 2875SOL    HW211545   3.785   2.318   4.759  0.0069  0.0141 -0.0741
 2875SOL    HW311546   3.919   2.261   4.718 -0.2095 -0.3500 -0.2710
 2875SOL    MW411547   3.839   2.251   4.752 -0.1218 -0.0975  0.0081
 2876SOL     OW11548   3.074   1.284   4.877  0.0908  0.3339  0.1865
 2876SOL    HW211549   2.984   1.312   4.892 -0.2024 -0.1998 -0.5518
 2876SOL    HW311550   3.127   1.354   4.915 -0.6255  0.1488  1.5469
 2876SOL    MW411551   3.069   1.297   4.884 -0.0424  0.2390  0.2689
 2877SOL     OW11552   4.187   2.926   4.510 -0.1096  0.1350  0.3645
 2877SOL    HW211553   4.249   2.947   4.580 -0.9917 -0.2014  1.2493
 2877SOL    HW311554   4.241   2.885   4.442  0.9824  1.7103  0.2386
 2877SOL    MW411555   4.203   2.924   4.510 -0.0820  0.2983  0.4649
 2878SOL     OW11556   4.245   3.300   4.686 -0.1138  0.1287  0.3859
 2878SOL    HW211557   4.186   3.251   4.629  0.5125 -1.0793  0.7649
 2878SOL    HW311558   4.189   3.331   4.757 -0.1509 -1.8041  1.2379
 2878SOL    MW411559   4.230   3.297   4.688 -0.0362 -0.2856  0.5484
 2879SOL     OW11560   0.098   3.561   4.568  0.4764  0.1082 -0.5274
 2879SOL    HW211561   0.126   3.584   4.479 -0.1046 -0.7814 -0.9485
 2879SOL    HW311562   0.003   3.555   4.562  0.5263 -1.2047 -0.1530
 2879SOL    MW411563   0.089   3.563   4.555  0.4064 -0.1822 -0.5336
 2880SOL     OW11564   3.993   0.202   4.586 -0.4933 -0.6298 -0.4126
 2880SOL    HW211565   3.939   0.280   4.575 -0.2778 -0.4379 -0.0973
 2880SOL    HW311566   4.004   0.168   4.497 -0.5229 -0.2611 -0.5562
 2880SOL    MW411567   3.987   0.208   4.573 -0.4687 -0.5558 -0.3901
 2881SOL     OW11568   3.539   0.081   4.591  0.4667  0.6021  0.1776
 2881SOL    HW211569   3.545   0.091   4.496 -2.1486  0.1117 -0.0705
 2881SOL    HW311570   3.532   0.171   4.624 -0.0069  0.7187 -0.2266
 2881SOL    MW411571   3.539   0.094   4.583  0.0589  0.5528  0.0916
 2882SOL     OW11572   4.320   3.519   4.517  0.6975 -0.0664 -0.2473
 2882SOL    HW211573   4.283   3.530   4.429  0.6252  0.7077 -0.1236
 2882SOL    HW311574   4.275   3.442   4.552 -2.8062  2.3659  0.9192
 2882SOL    MW411575   4.309   3.511   4.510  0.2255  0.3567 -0.0772
 2883SOL     OW11576   3.554   0.377   4.639 -0.0367  0.1014  0.0253
 2883SOL    HW211577   3.466   0.403   4.613 -0.4360  0.2679  1.4974
 2883SOL    HW311578   3.570   0.426   4.720  0.9178 -0.8647  0.4324
 2883SOL    MW411579   3.544   0.387   4.647  0.0365 -0.0041  0.2732
 2884SOL     OW11580   4.329   4.371   4.304  0.2798 -0.7667 -0.0786
 2884SOL    HW211581   4.409   4.333   4.266  0.3319  0.6972 -1.4803
 2884SOL    HW311582   4.345   4.369   4.398  1.4381 -1.6777 -0.2781
 2884SOL    MW411583   4.342   4.366   4.311  0.4396 -0.6933 -0.2899
 2885NA      NA11584   2.969   3.377   0.447 -0.1886 -0.1170 -0.2888
   4.49070   4.66690  10.00000
