Gromacs Runs On Most of All Computer Systems in water
11558
    1RG35     P    1   2.119   2.777   4.418 -0.1122 -0.0571  0.4483
    1RG35   O1P    2   2.199   2.684   4.338  0.4679  0.1334  0.1267
    1RG35   O2P    3   2.000   2.820   4.345 -0.0393 -0.6912 -0.1287
    1RG35   O5'    4   2.062   2.691   4.542 -0.0834  0.5037  0.0858
    1RG35   C5'    5   2.030   2.739   4.670 -0.5521 -0.2550 -0.1151
    1RG35  H5'1    6   1.932   2.784   4.678  0.3370  1.7587 -0.3522
    1RG35  H5'2    7   2.095   2.825   4.687  0.6197 -1.3758  1.3278
    1RG35   C4'    8   2.056   2.642   4.788 -0.3876 -0.4201  0.1334
    1RG35   H4'    9   2.056   2.711   4.872  1.3007  0.6551 -0.7109
    1RG35   O4'   10   1.949   2.553   4.804 -0.5882 -0.4858  0.3858
    1RG35   C1'   11   2.001   2.430   4.845  0.5942 -0.1812 -0.3770
    1RG35   H1'   12   1.950   2.391   4.933 -0.2708  0.8859 -0.3983
    1RG35    N9   13   1.999   2.334   4.730 -0.0441 -1.1669 -0.1381
    1RG35    C8   14   1.992   2.361   4.596  0.2875 -0.0940  0.3616
    1RG35    H8   15   1.981   2.462   4.559  1.7985 -0.0867 -0.1270
    1RG35    N7   16   1.998   2.257   4.519  0.3102  0.5284  0.0170
    1RG35    C5   17   2.000   2.153   4.607 -0.0777 -0.0154 -0.0431
    1RG35    C6   18   1.997   2.011   4.589 -0.1347 -0.1247 -0.7337
    1RG35    O6   19   2.008   1.945   4.486 -0.0204  0.3699 -0.2411
    1RG35    N1   20   1.987   1.941   4.706  0.1253  0.7286 -0.2783
    1RG35    H1   21   2.002   1.842   4.696 -1.5497  0.4335 -0.0652
    1RG35    C2   22   1.969   1.997   4.827  0.9386  0.3782 -0.0347
    1RG35    N2   23   1.953   1.922   4.931  0.0330 -0.0671  0.0181
    1RG35   H21   24   1.956   1.825   4.904 -0.9778  0.4010 -1.9052
    1RG35   H22   25   1.982   1.963   5.018  0.3760  2.1440 -1.1049
    1RG35    N3   26   1.989   2.125   4.851  0.1022 -0.2868 -0.1913
    1RG35    C4   27   1.996   2.195   4.736 -0.0182  0.1609  0.2451
    1RG35   C3'   28   2.190   2.578   4.791  0.4776 -0.1127 -0.6056
    1RG35   H3'   29   2.231   2.553   4.694  1.2972  0.8736 -0.5255
    1RG35   C2'   30   2.153   2.452   4.870 -0.3481  0.6572 -0.1495
    1RG35  H2'1   31   2.215   2.372   4.830 -0.3227  0.7626 -0.3230
    1RG35   O2'   32   2.174   2.461   5.008  0.1438 -0.2594  0.0338
    1RG35  HO'2   33   2.157   2.378   5.053 -1.6354 -0.0780 -0.2937
    1RG35   O3'   34   2.283   2.656   4.857  0.1139 -0.0659  0.2768
    1RG35   H3T   35   2.269   2.633   4.950  0.2532  0.1472  0.3507
    1RG35   O3P   36   2.196   2.883   4.477  0.4273  0.6815  0.4331
    1SOL     OW   37   0.320   0.120   0.454 -0.2799 -0.0081 -0.4530
    1SOL    HW2   38   0.406   0.129   0.412 -0.1129 -0.6013 -0.2404
    1SOL    HW3   39   0.296   0.029   0.439 -0.7937  0.1096 -0.3512
    1SOL    MW4   40   0.328   0.109   0.446 -0.3256 -0.0708 -0.4115
    1SOL     OW   41   3.921   0.080   0.467 -0.3766  0.3915 -0.6738
    1SOL    HW2   42   3.967   0.161   0.443 -0.2996  0.4356 -0.3865
    1SOL    HW3   43   3.975   0.010   0.431  1.7510  0.2767  2.5267
    1SOL    MW4   44   3.934   0.082   0.459 -0.0856  0.3822 -0.2137
    1SOL     OW   45   3.570   0.405   0.317 -0.0597 -0.5026  0.3110
    1SOL    HW2   46   3.529   0.466   0.378  0.7499 -0.5279  0.8922
    1SOL    HW3   47   3.654   0.445   0.296 -0.9775  0.2808 -2.0196
    1SOL    MW4   48   3.576   0.418   0.322 -0.0741 -0.4025  0.0802
    1SOL     OW   49   4.387   1.642   0.479  0.0087  0.1158 -0.3904
    1SOL    HW2   50   4.413   1.673   0.566  1.0910 -0.0372 -0.6529
    1SOL    HW3   51   4.361   1.551   0.494 -1.5233  0.6242  0.0796
    1SOL    MW4   52   4.387   1.634   0.493 -0.0510  0.1625 -0.3630
    1SOL     OW   53   1.357   0.877   0.509  0.0126 -0.2105  0.0386
    1SOL    HW2   54   1.332   0.884   0.601  0.3293 -0.4996  0.1491
    1SOL    HW3   55   1.286   0.920   0.462  0.5002  1.1399  0.4987
    1SOL    MW4   56   1.344   0.883   0.515  0.1187 -0.0705  0.1139
    1SOL     OW   57   0.107   0.466   0.500  0.1952  0.4156 -0.4918
    1SOL    HW2   58   0.137   0.474   0.591  0.5840  0.0915 -0.5880
    1SOL    HW3   59   0.076   0.376   0.493  0.0063  0.4918 -0.6354
    1SOL    MW4   60   0.107   0.455   0.511  0.2216  0.3829 -0.5234
    1SOL     OW   61   0.403   0.912   0.451  0.1840  0.1014  0.3215
    1SOL    HW2   62   0.405   0.908   0.546  0.4822  0.0987  0.3137
    1SOL    HW3   63   0.388   0.821   0.423  0.3481  0.0645  0.3565
    1SOL    MW4   64   0.401   0.899   0.460  0.2450  0.0962  0.3251
    1SOL     OW   65   0.890   0.910   0.475  0.4344  0.4701 -0.2064
    1SOL    HW2   66   0.875   0.887   0.567  0.3717 -1.3578 -0.6588
    1SOL    HW3   67   0.804   0.940   0.443 -0.4667 -2.4018 -0.6387
    1SOL    MW4   68   0.876   0.911   0.483  0.3073 -0.1499 -0.3232
    1SOL     OW   69   0.642   0.988   0.353 -0.3720  0.5274  0.0826
    1SOL    HW2   70   0.632   0.971   0.259 -0.3520 -2.4887  0.5788
    1SOL    HW3   71   0.560   0.960   0.392  0.0577  0.6669  1.1122
    1SOL    MW4   72   0.630   0.982   0.345 -0.3127  0.1479  0.2840
    1SOL     OW   73   0.556   1.912   0.139 -0.0503 -0.2185 -0.0348
    1SOL    HW2   74   0.554   1.882   0.048 -0.0219  0.2711 -0.1968
    1SOL    HW3   75   0.607   1.845   0.185  1.4640  0.4514 -0.7175
    1SOL    MW4   76   0.562   1.899   0.133  0.1532 -0.0657 -0.1463
    1SOL     OW   77   4.125   1.728   0.486  0.2082 -0.2274 -0.0506
    1SOL    HW2   78   4.209   1.686   0.468 -0.0666 -0.6706 -0.2916
    1SOL    HW3   79   4.064   1.689   0.423  0.0930  1.0045 -0.7133
    1SOL    MW4   80   4.128   1.717   0.475  0.1569 -0.1233 -0.1698
    1SOL     OW   81   0.151   1.563   0.431 -0.2745  0.2426  0.0845
    1SOL    HW2   82   0.132   1.472   0.407 -1.9247  0.6374 -0.1249
    1SOL    HW3   83   0.065   1.605   0.439  0.4430  1.5538  1.1044
    1SOL    MW4   84   0.137   1.557   0.429 -0.3976  0.4678  0.1915
    1SOL     OW   85   0.122   2.379   0.365 -0.2067 -0.0472 -0.0970
    1SOL    HW2   86   0.199   2.389   0.309 -1.4617 -0.0404 -1.8499
    1SOL    HW3   87   0.134   2.295   0.409 -0.7417 -1.6096 -2.8295
    1SOL    MW4   88   0.134   2.369   0.364 -0.4429 -0.2525 -0.6888
    1SOL     OW   89   0.833   2.366   0.201 -0.6684  0.1672  0.1571
    1SOL    HW2   90   0.913   2.351   0.150 -0.5421 -0.2081  0.4645
    1SOL    HW3   91   0.797   2.279   0.216 -1.1775  0.3401 -0.0409
    1SOL    MW4   92   0.839   2.352   0.196 -0.7190  0.1404  0.1715
    1SOL     OW   93   4.479   3.111   0.562 -0.4702 -0.0079 -0.0487
    1SOL    HW2   94   4.529   3.108   0.480  0.7206 -0.3199  0.6706
    1SOL    HW3   95   4.406   3.051   0.548  0.3881 -0.9626 -0.4675
    1SOL    MW4   96   4.476   3.103   0.549 -0.2003 -0.1752 -0.0091
    1SOL     OW   97   1.006   2.613   0.221  0.3414  0.3921 -0.0296
    1SOL    HW2   98   1.028   2.533   0.172 -0.0466 -0.5228  1.2716
    1SOL    HW3   99   1.084   2.668   0.210 -0.9510  1.5920 -4.3639
    1SOL    MW4  100   1.019   2.609   0.213  0.1196  0.4296 -0.4297
    1SOL     OW  101   0.422   3.467   0.361 -0.0777 -0.3954 -0.2868
    1SOL    HW2  102   0.491   3.520   0.401 -1.2647  1.6979 -0.9135
    1SOL    HW3  103   0.423   3.492   0.269 -0.9429 -1.1455 -0.5076
    1SOL    MW4  104   0.431   3.478   0.354 -0.3485 -0.2182 -0.3986
    1SOL     OW  105   0.763   3.814   0.358 -0.1932 -0.6819  0.1888
    1SOL    HW2  106   0.856   3.836   0.346 -0.4910  1.4482  1.5304
    1SOL    HW3  107   0.722   3.897   0.384 -2.7385 -1.2928 -1.6832
    1SOL    MW4  108   0.770   3.828   0.360 -0.5683 -0.4814  0.1188
    1SOL     OW  109   3.756   3.445   0.419 -0.0161 -0.3935 -0.2420
    1SOL    HW2  110   3.831   3.445   0.359 -0.7214 -1.0864 -1.1255
    1SOL    HW3  111   3.772   3.520   0.477 -0.2148  1.3337 -2.3858
    1SOL    MW4  112   3.768   3.455   0.419 -0.1354 -0.2570 -0.6414
    1SOL     OW  113   4.445   3.918   0.528  0.6206  0.1309 -0.1294
    1SOL    HW2  114   4.409   3.834   0.498  0.5691 -0.1377  0.6709
    1SOL    HW3  115   4.429   3.918   0.622  1.6171  0.5513  0.0452
    1SOL    MW4  116   4.438   3.907   0.536  0.7453  0.1509 -0.0008
    1SOL     OW  117   4.387   4.594   0.501  0.7936 -0.0941  0.0806
    1SOL    HW2  118   4.393   4.641   0.585  1.0724  0.0455 -0.0144
    1SOL    HW3  119   4.356   4.507   0.524  0.8401 -0.0461  0.3266
    1SOL    MW4  120   4.384   4.589   0.515  0.8368 -0.0691  0.1006
    1SOL     OW  121   4.294   4.355   0.593 -0.3336 -0.2297 -0.6953
    1SOL    HW2  122   4.242   4.346   0.673 -0.7221 -0.0690 -0.9265
    1SOL    HW3  123   4.238   4.319   0.524 -0.0871 -0.1698 -0.9261
    1SOL    MW4  124   4.279   4.349   0.594 -0.3519 -0.2003 -0.7563
    1SOL     OW  125   4.217   4.126   0.426 -0.0992 -0.5126  0.3150
    1SOL    HW2  126   4.292   4.070   0.443  0.1239 -0.1659  0.4843
    1SOL    HW3  127   4.145   4.086   0.474  0.5732  0.5935  2.3182
    1SOL    MW4  128   4.217   4.113   0.434  0.0191 -0.3204  0.6016
    1SOL     OW  129   0.463   3.201   0.458 -0.3365  0.0332  0.2311
    1SOL    HW2  130   0.464   3.195   0.553 -1.7831 -0.3312  0.2285
    1SOL    HW3  131   0.458   3.295   0.440 -0.7470  0.0668  0.5197
    1SOL    MW4  132   0.463   3.213   0.468 -0.5815 -0.0105  0.2688
    1SOL     OW  133   0.214   4.528   0.471  0.2154 -0.3365 -0.6538
    1SOL    HW2  134   0.119   4.518   0.461 -0.0701  0.0161  1.5238
    1SOL    HW3  135   0.247   4.438   0.475 -0.2140 -0.4692  0.1012
    1SOL    MW4  136   0.205   4.515   0.470  0.1211 -0.3071 -0.2669
    1SOL     OW  137   0.056   0.182   0.401 -0.0169  0.7877  0.3733
    1SOL    HW2  138   0.014   0.100   0.425  1.6456 -0.2777 -0.2061
    1SOL    HW3  139   0.150   0.164   0.408  0.4054  2.2376 -1.0051
    1SOL    MW4  140   0.063   0.169   0.405  0.2581  0.8385  0.1150
    1SOL     OW  141   0.454   0.763   0.154  0.2601 -0.1921 -0.0752
    1SOL    HW2  142   0.410   0.706   0.217 -1.2447 -0.5305 -1.3992
    1SOL    HW3  143   0.489   0.703   0.088  0.0166  0.2890 -0.6479
    1SOL    MW4  144   0.453   0.748   0.154  0.0294 -0.1733 -0.3255
    1SOL     OW  145   0.819   4.506   0.425  0.3363 -0.0498 -0.1841
    1SOL    HW2  146   0.897   4.454   0.442 -0.6174 -0.9099  1.7054
    1SOL    HW3  147   0.747   4.442   0.425 -0.3646  0.6927 -2.0795
    1SOL    MW4  148   0.820   4.491   0.427  0.1181 -0.0658 -0.1849
    1SOL     OW  149   1.134   1.000   0.376  0.0156 -0.2249 -0.0247
    1SOL    HW2  150   1.111   1.012   0.284  0.4242 -0.0909 -0.1113
    1SOL    HW3  151   1.056   0.961   0.415 -0.1455 -0.3251 -0.4372
    1SOL    MW4  152   1.121   0.996   0.369  0.0482 -0.2204 -0.0905
    1SOL     OW  153   0.601   0.491   0.523 -0.5386 -0.8690 -0.4788
    1SOL    HW2  154   0.677   0.525   0.475 -0.2309 -0.4559  0.2887
    1SOL    HW3  155   0.585   0.405   0.484  0.3765 -0.9985 -0.5949
    1SOL    MW4  156   0.609   0.484   0.511 -0.3773 -0.8316 -0.3929
    1SOL     OW  157   0.139   0.989   0.360  0.3300  0.0268 -0.5119
    1SOL    HW2  158   0.088   0.909   0.372 -1.1041  1.3041  2.2003
    1SOL    HW3  159   0.226   0.968   0.393  0.1846 -0.6710 -0.5782
    1SOL    MW4  160   0.144   0.976   0.366  0.1216  0.1034 -0.1628
    1SOL     OW  161   0.376   1.968   0.392  0.7546  0.2089  0.2865
    1SOL    HW2  162   0.404   1.975   0.300 -1.6177 -0.7392 -0.5529
    1SOL    HW3  163   0.394   1.877   0.415 -0.7634 -0.1756  0.0098
    1SOL    MW4  164   0.382   1.957   0.383  0.2414  0.0329  0.1393
    1SOL     OW  165   0.140   2.126   0.476 -0.1349  0.1390  0.1239
    1SOL    HW2  166   0.206   2.084   0.421 -0.3815  0.4952 -0.4361
    1SOL    HW3  167   0.058   2.084   0.452 -0.0667 -0.5638  1.0816
    1SOL    MW4  168   0.138   2.115   0.466 -0.1584  0.0932  0.1764
    1SOL     OW  169   0.602   2.444   0.403 -0.5179  0.0684 -0.4190
    1SOL    HW2  170   0.587   2.488   0.487  0.1609  0.1263 -0.3289
    1SOL    HW3  171   0.610   2.351   0.425 -0.7694  0.0350 -0.4699
    1SOL    MW4  172   0.601   2.438   0.417 -0.4615  0.0720 -0.4138
    1SOL     OW  173   1.113   2.369   0.110 -0.4824 -0.2248  0.4794
    1SOL    HW2  174   1.113   2.293   0.051 -0.2043 -0.2337  0.4891
    1SOL    HW3  175   1.129   2.332   0.197 -0.5505 -0.1761  0.5124
    1SOL    MW4  176   1.115   2.354   0.113 -0.4547 -0.2196  0.4850
    1SOL     OW  177   3.729   2.913   0.430  0.3495 -0.1441  0.0008
    1SOL    HW2  178   3.682   2.856   0.491 -0.6751 -0.5449 -1.1394
    1SOL    HW3  179   3.714   3.001   0.464 -0.4094 -0.3446  0.2015
    1SOL    MW4  180   3.720   2.917   0.442  0.1140 -0.2232 -0.1231
    1SOL     OW  181   0.764   2.776   0.443 -0.1136  0.3098  0.1006
    1SOL    HW2  182   0.710   2.846   0.405 -0.3534  0.1880  0.2158
    1SOL    HW3  183   0.728   2.762   0.531  0.4974  0.6493  0.4041
    1SOL    MW4  184   0.752   2.783   0.449 -0.0646  0.3388  0.1558
    1SOL     OW  185   0.676   2.725   0.723 -0.0962  0.2601  0.4884
    1SOL    HW2  186   0.765   2.709   0.754 -0.1023  1.7633  1.3631
    1SOL    HW3  187   0.640   2.638   0.705  1.5774 -0.3563  0.0102
    1SOL    MW4  188   0.683   2.711   0.725  0.1239  0.3772  0.5407
    1SOL     OW  189   0.219   3.117   0.368  0.0242 -0.1189 -0.3362
    1SOL    HW2  190   0.305   3.148   0.396 -0.5481  1.3072 -0.1068
    1SOL    HW3  191   0.220   3.023   0.388  1.1137  0.0961  0.7088
    1SOL    MW4  192   0.230   3.109   0.374  0.0925  0.0975 -0.1681
    1SOL     OW  193   0.385   2.405   0.239  0.1013 -0.3260  0.2797
    1SOL    HW2  194   0.432   2.418   0.157 -1.0930 -0.8004 -0.4945
    1SOL    HW3  195   0.453   2.411   0.307  1.2571 -0.9723 -0.8041
    1SOL    MW4  196   0.400   2.408   0.237  0.0962 -0.4740  0.0345
    1SOL     OW  197   1.617   4.344   0.223 -0.0893 -0.3918  0.0982
    1SOL    HW2  198   1.587   4.270   0.275 -0.2906 -0.3663  0.0192
    1SOL    HW3  199   1.565   4.339   0.142  0.0279 -0.2737  0.0160
    1SOL    MW4  200   1.606   4.334   0.219 -0.1004 -0.3734  0.0769
    1SOL     OW  201   0.185   3.557   0.464  0.0612  0.0114  0.0462
    1SOL    HW2  202   0.185   3.650   0.442 -0.0032 -0.0387 -0.1718
    1SOL    HW3  203   0.271   3.526   0.435 -0.7274 -0.4617 -1.9197
    1SOL    MW4  204   0.196   3.565   0.457 -0.0513 -0.0577 -0.2419
    1SOL     OW  205   0.668   3.563   0.440  0.2558  0.3840 -0.7386
    1SOL    HW2  206   0.698   3.652   0.419  1.3629  0.2921  0.4318
    1SOL    HW3  207   0.680   3.555   0.534 -2.8072  0.0913 -0.3160
    1SOL    MW4  208   0.674   3.574   0.450 -0.0022  0.3333 -0.5284
    1SOL     OW  209   1.269   3.780   0.415 -0.1743  0.4759 -0.3357
    1SOL    HW2  210   1.199   3.830   0.373 -0.0303  1.5379  0.6803
    1SOL    HW3  211   1.224   3.711   0.464 -0.5030  1.1061  0.2481
    1SOL    MW4  212   1.254   3.777   0.416 -0.1987  0.6990 -0.1246
    1SOL     OW  213   0.300   4.273   0.485 -0.0677 -0.1731  0.2366
    1SOL    HW2  214   0.343   4.197   0.524 -0.0458 -0.3116 -0.0504
    1SOL    HW3  215   0.211   4.243   0.466 -0.1166 -0.0682  0.3020
    1SOL    MW4  216   0.294   4.259   0.488 -0.0713 -0.1774  0.2074
    1SOL     OW  217   1.023   3.903   0.301  0.3143 -0.3376  0.4339
    1SOL    HW2  218   0.998   3.952   0.222 -0.1343 -0.5680  0.4281
    1SOL    HW3  219   1.019   3.968   0.372  0.0932 -0.2753  0.3655
    1SOL    MW4  220   1.019   3.918   0.300  0.2259 -0.3595  0.4241
    1SOL     OW  221   0.606   4.290   0.473 -0.0434 -0.1855  0.2657
    1SOL    HW2  222   0.515   4.298   0.445 -0.3055 -1.6958  0.6684
    1SOL    HW3  223   0.607   4.329   0.561  0.2639  2.2113 -0.7406
    1SOL    MW4  224   0.594   4.296   0.481 -0.0374 -0.0687  0.1861
    1SOL     OW  225   0.599   0.228   0.380 -0.4477 -0.3137  0.3636
    1SOL    HW2  226   0.595   0.240   0.286 -1.7327  0.6452  0.5249
    1SOL    HW3  227   0.690   0.204   0.398 -0.1803 -0.4056 -1.0998
    1SOL    MW4  228   0.610   0.227   0.370 -0.5820 -0.1993  0.1918
    1SOL     OW  229   0.863   0.608   0.426 -0.3464 -0.0835 -0.3040
    1SOL    HW2  230   0.856   0.703   0.440 -0.8310 -0.3066  1.0609
    1SOL    HW3  231   0.954   0.588   0.448 -0.3788 -0.0093 -0.0996
    1SOL    MW4  232   0.874   0.618   0.431 -0.4145 -0.1032 -0.0969
    1SOL     OW  233   0.352   0.615   0.371  0.2521  0.4691 -0.5444
    1SOL    HW2  234   0.271   0.564   0.379  0.6590 -0.1447 -0.2701
    1SOL    HW3  235   0.418   0.562   0.416  0.6921  1.2262 -0.2902
    1SOL    MW4  236   0.350   0.601   0.378  0.3639  0.4880 -0.4747
    1SOL     OW  237   1.377   0.599   0.545 -0.1162 -0.2257  0.0831
    1SOL    HW2  238   1.387   0.691   0.523 -0.0856 -0.0604  0.7886
    1SOL    HW3  239   1.439   0.584   0.616  0.2311 -0.9087 -0.3494
    1SOL    MW4  240   1.387   0.609   0.551 -0.0663 -0.2940  0.1191
    1SOL     OW  241   1.801   0.904   0.552 -0.7456 -0.1594  0.3778
    1SOL    HW2  242   1.806   0.877   0.643 -2.5010 -2.8456 -0.2713
    1SOL    HW3  243   1.817   0.824   0.502 -1.3218  0.9545 -1.6667
    1SOL    MW4  244   1.804   0.890   0.557 -1.0533 -0.3669  0.0224
    1SOL     OW  245   1.577   1.046   0.478  0.4381 -0.0571 -0.3542
    1SOL    HW2  246   1.503   0.985   0.473 -0.5355  1.1264 -0.5540
    1SOL    HW3  247   1.649   0.993   0.512 -1.0527 -0.7244  1.8453
    1SOL    MW4  248   1.577   1.031   0.482  0.1130  0.0110 -0.0903
    1SOL     OW  249   0.535   1.474   0.327 -0.0557  0.0260 -0.1974
    1SOL    HW2  250   0.557   1.402   0.386 -0.1089  0.4381  0.3287
    1SOL    HW3  251   0.452   1.448   0.286 -0.4524  0.1250  0.5459
    1SOL    MW4  252   0.527   1.461   0.329 -0.1151  0.0933 -0.0300
    1SOL     OW  253   0.654   1.258   0.460 -0.2352  0.9432 -0.1925
    1SOL    HW2  254   0.665   1.167   0.431  0.8698  0.4000  1.8151
    1SOL    HW3  255   0.742   1.293   0.462 -0.5420  1.7012  0.1448
    1SOL    MW4  256   0.667   1.250   0.457 -0.1299  0.9716  0.1169
    1SOL     OW  257   1.327   1.463   0.500  0.1871  0.0318  0.5157
    1SOL    HW2  258   1.318   1.521   0.576  0.5966  1.9795 -0.8867
    1SOL    HW3  259   1.421   1.461   0.483 -0.0042  0.5813 -0.6619
    1SOL    MW4  260   1.338   1.471   0.508  0.2159  0.3613  0.1754
    1SOL     OW  261   0.912   1.356   0.400 -0.0656 -0.3651  0.2005
    1SOL    HW2  262   1.002   1.328   0.415  0.5937  1.8928  0.6605
    1SOL    HW3  263   0.917   1.451   0.392 -2.4479 -0.1670  0.5361
    1SOL    MW4  264   0.924   1.365   0.401 -0.2929 -0.0410  0.3054
    1SOL     OW  265   0.937   1.637   0.408 -0.3920  0.0582 -0.0331
    1SOL    HW2  266   1.031   1.635   0.389 -0.2917  3.0660 -0.1474
    1SOL    HW3  267   0.932   1.627   0.503 -0.1233 -2.2858 -0.2356
    1SOL    MW4  268   0.949   1.636   0.418 -0.3433  0.1458 -0.0749
    1SOL     OW  269   0.240   2.552   0.569 -0.2330  0.0449  0.3442
    1SOL    HW2  270   0.196   2.510   0.495 -1.3725  0.0997  0.9802
    1SOL    HW3  271   0.203   2.509   0.646  0.6585  0.2601  0.8958
    1SOL    MW4  272   0.229   2.541   0.569 -0.2657  0.0806  0.5008
    1SOL     OW  273   0.714   1.691   0.225 -0.2651  0.3081 -0.0194
    1SOL    HW2  274   0.676   1.609   0.256  0.0708  0.3252  0.4438
    1SOL    HW3  275   0.791   1.704   0.280 -0.4489  1.0573  0.0724
    1SOL    MW4  276   0.719   1.682   0.236 -0.2450  0.4094  0.0539
    1SOL     OW  277   0.965   2.497   0.514 -0.1543 -0.3284 -0.3041
    1SOL    HW2  278   1.023   2.422   0.502 -0.8346 -0.6180 -1.9184
    1SOL    HW3  279   0.925   2.482   0.600 -0.1552 -1.7373 -0.5339
    1SOL    MW4  280   0.967   2.485   0.524 -0.2442 -0.5527 -0.5475
    1SOL     OW  281   0.579   2.160   0.470 -0.9376 -0.4246  0.0233
    1SOL    HW2  282   0.640   2.147   0.397  0.0801  0.4313  0.7181
    1SOL    HW3  283   0.510   2.094   0.455  0.7196 -2.1565 -0.1533
    1SOL    MW4  284   0.578   2.149   0.458 -0.5847 -0.5403  0.0917
    1SOL     OW  285   1.019   2.921   0.458 -0.4228 -0.1430  0.1477
    1SOL    HW2  286   0.934   2.877   0.452 -0.8727  0.6042  0.8994
    1SOL    HW3  287   0.998   3.014   0.447  0.2084  0.1218  1.1627
    1SOL    MW4  288   1.005   2.928   0.455 -0.3990 -0.0095  0.3808
    1SOL     OW  289   0.742   2.107   0.243  0.0489 -0.4426  0.3832
    1SOL    HW2  290   0.676   2.043   0.216  0.5101 -0.4564 -0.7444
    1SOL    HW3  291   0.814   2.054   0.278  0.1105 -0.5191  0.1490
    1SOL    MW4  292   0.743   2.091   0.244  0.1178 -0.4547  0.2035
    1SOL     OW  293   0.672   3.032   0.399 -0.2475  0.0550  0.3712
    1SOL    HW2  294   0.753   3.082   0.403  0.0054  0.0048 -2.5966
    1SOL    HW3  295   0.603   3.098   0.403 -0.0987  0.0955  2.9189
    1SOL    MW4  296   0.674   3.047   0.400 -0.1945  0.0534  0.3158
    1SOL     OW  297   0.908   3.438   0.373 -0.1016 -0.0660 -0.2679
    1SOL    HW2  298   0.928   3.455   0.281  0.2554 -0.9069 -0.3506
    1SOL    HW3  299   0.816   3.461   0.382 -0.7881 -2.2410 -1.4079
    1SOL    MW4  300   0.899   3.444   0.362 -0.1450 -0.4637 -0.4292
    1SOL     OW  301   1.481   3.693   0.259 -0.3407  0.2294 -0.1294
    1SOL    HW2  302   1.423   3.736   0.322 -2.1176  0.3839 -1.8449
    1SOL    HW3  303   1.519   3.764   0.209 -0.6483 -0.0204 -0.7158
    1SOL    MW4  304   1.479   3.708   0.261 -0.6157  0.2170 -0.4331
    1SOL     OW  305   1.029   4.092   0.538  0.0860  0.3250 -0.3232
    1SOL    HW2  306   1.024   4.185   0.516 -1.2925  0.0719 -1.1018
    1SOL    HW3  307   0.955   4.077   0.596  0.0801 -0.3709 -0.5067
    1SOL    MW4  308   1.018   4.103   0.543 -0.0966  0.1998 -0.4503
    1SOL     OW  309   0.380   4.011   0.568 -0.1313 -0.4198 -0.1823
    1SOL    HW2  310   0.389   3.985   0.660  0.5793 -1.4597 -0.5261
    1SOL    HW3  311   0.468   4.004   0.533  0.1811  2.9182 -0.2319
    1SOL    MW4  312   0.393   4.006   0.575  0.0037 -0.1168 -0.2342
    1SOL     OW  313   1.265   4.525   0.423 -0.0042  0.2832  0.0130
    1SOL    HW2  314   1.258   4.610   0.467 -0.1636  0.5202 -0.4688
    1SOL    HW3  315   1.342   4.484   0.462 -1.6425 -0.6130  2.4031
    1SOL    MW4  316   1.275   4.530   0.434 -0.2413  0.1965  0.2648
    1SOL     OW  317   1.109   0.505   0.503 -0.1300 -0.1229 -0.6368
    1SOL    HW2  318   1.118   0.421   0.458 -1.5860  0.2903 -1.7361
    1SOL    HW3  319   1.195   0.546   0.493  0.2625 -1.0171 -1.0422
    1SOL    MW4  320   1.122   0.499   0.495 -0.2704 -0.1864 -0.8354
    1SOL     OW  321   0.852   0.119   0.507  0.5423  0.5986 -0.1282
    1SOL    HW2  322   0.838   0.026   0.492 -0.1430  0.8408 -1.0013
    1SOL    HW3  323   0.859   0.127   0.603 -0.1329 -0.2335 -0.0076
    1SOL    MW4  324   0.851   0.108   0.518  0.3629  0.5207 -0.2275
    1SOL     OW  325   1.319   0.106   0.561  0.0723 -0.2483 -0.1828
    1SOL    HW2  326   1.256   0.158   0.512 -1.0154  0.2178  1.6604
    1SOL    HW3  327   1.403   0.147   0.543 -0.1373 -0.8434 -2.6204
    1SOL    MW4  328   1.322   0.118   0.552 -0.0987 -0.2653 -0.2612
    1SOL     OW  329   1.613   0.483   0.429  0.2869  0.5518  0.2335
    1SOL    HW2  330   1.619   0.389   0.410 -0.4363  0.8534 -1.6077
    1SOL    HW3  331   1.527   0.494   0.468 -0.3969  0.7011 -1.2700
    1SOL    MW4  332   1.603   0.472   0.432  0.1013  0.6113 -0.2078
    1SOL     OW  333   1.098   0.227   0.423 -0.0269  0.0027  0.0867
    1SOL    HW2  334   1.017   0.185   0.453  0.9213 -2.8581 -1.1487
    1SOL    HW3  335   1.094   0.221   0.328  1.3815  0.3387  0.0052
    1SOL    MW4  336   1.087   0.220   0.414  0.2841 -0.3304 -0.0871
    1SOL     OW  337   2.290   0.683   0.527  0.1297  0.1504 -0.2597
    1SOL    HW2  338   2.350   0.738   0.476 -0.6364 -0.0141 -1.3753
    1SOL    HW3  339   2.342   0.606   0.550  0.5599  0.3329 -0.6049
    1SOL    MW4  340   2.305   0.680   0.523  0.0854  0.1528 -0.4524
    1SOL     OW  341   2.825   1.151   0.352 -0.0604 -0.0581  0.4023
    1SOL    HW2  342   2.845   1.158   0.258 -3.2533  0.2988 -0.2963
    1SOL    HW3  343   2.845   1.060   0.373  0.4340 -0.2167 -0.6782
    1SOL    MW4  344   2.830   1.140   0.342 -0.4163 -0.0318  0.1676
    1SOL     OW  345   1.600   1.426   0.530 -0.7725 -0.3260 -0.0526
    1SOL    HW2  346   1.671   1.479   0.566 -0.9815 -0.4656  0.5601
    1SOL    HW3  347   1.642   1.373   0.462 -0.3180 -0.3204  0.2274
    1SOL    MW4  348   1.615   1.426   0.526 -0.7399 -0.3437  0.0652
    1SOL     OW  349   1.759   1.265   0.341 -0.0973  0.6341 -0.2299
    1SOL    HW2  350   1.700   1.205   0.387  0.9900  0.0796  0.4629
    1SOL    HW3  351   1.720   1.276   0.255 -0.6577 -0.5503 -0.1372
    1SOL    MW4  352   1.746   1.259   0.336 -0.0278  0.4047 -0.1263
    1SOL     OW  353   1.150   1.248   0.514 -0.0545  0.1641 -0.7165
    1SOL    HW2  354   1.227   1.300   0.490 -0.0081  0.9742  1.1010
    1SOL    HW3  355   1.160   1.166   0.465  1.7391  0.4274 -0.8198
    1SOL    MW4  356   1.161   1.244   0.504  0.1884  0.3058 -0.4903
    1SOL     OW  357   1.206   1.655   0.306  0.1655  0.0058  0.0409
    1SOL    HW2  358   1.251   1.733   0.338  0.8173 -0.5632  0.5143
    1SOL    HW3  359   1.231   1.586   0.367 -0.5800 -0.5297 -0.2552
    1SOL    MW4  360   1.216   1.657   0.318  0.1531 -0.1400  0.0643
    1SOL     OW  361   1.156   2.310   0.371 -0.1969 -0.1026  0.3318
    1SOL    HW2  362   1.234   2.354   0.405 -0.1666  0.3713 -0.3366
    1SOL    HW3  363   1.159   2.222   0.410  1.4393 -0.5722 -0.7981
    1SOL    MW4  364   1.167   2.304   0.380  0.0229 -0.1020  0.0945
    1SOL     OW  365   1.389   2.698   0.441 -0.2519 -0.5879  0.1650
    1SOL    HW2  366   1.348   2.718   0.356 -0.0056 -0.6546  0.0304
    1SOL    HW3  367   1.321   2.720   0.505 -0.6297 -1.0380 -0.0745
    1SOL    MW4  368   1.374   2.703   0.438 -0.2694 -0.6561  0.1156
    1SOL     OW  369   1.844   2.134   0.287  0.1515  0.4532 -0.1070
    1SOL    HW2  370   1.877   2.129   0.198 -0.3377 -0.1462 -0.2631
    1SOL    HW3  371   1.922   2.142   0.342  0.3582  2.8184 -0.7094
    1SOL    MW4  372   1.858   2.134   0.283  0.1142  0.6859 -0.2070
    1SOL     OW  373   1.536   2.047   0.527 -0.0375  0.0555 -0.0895
    1SOL    HW2  374   1.549   2.120   0.466 -2.0027  0.0038 -0.6296
    1SOL    HW3  375   1.606   1.986   0.506 -0.0805  0.4982 -1.6395
    1SOL    MW4  376   1.547   2.049   0.516 -0.3024  0.1070 -0.3653
    1SOL     OW  377   0.910   1.933   0.372 -0.0912 -0.1201  0.5440
    1SOL    HW2  378   0.980   1.981   0.416  0.3642  1.5155 -1.8868
    1SOL    HW3  379   0.946   1.845   0.358  1.4087  0.6439 -0.4998
    1SOL    MW4  380   0.924   1.927   0.376  0.1668  0.1965  0.0856
    1SOL     OW  381   0.915   3.194   0.466  0.2261 -0.1468  0.3266
    1SOL    HW2  382   0.917   3.204   0.562  0.2129 -1.1740  0.4380
    1SOL    HW3  383   0.913   3.284   0.433 -1.3397  0.2176  1.3251
    1SOL    MW4  384   0.915   3.207   0.475  0.0178 -0.2341  0.4730
    1SOL     OW  385   2.047   2.414   0.384 -0.4637 -0.9801 -0.0928
    1SOL    HW2  386   2.060   2.319   0.384 -0.7149 -1.0200  1.2530
    1SOL    HW3  387   2.135   2.450   0.378 -0.3033 -1.2924  0.3789
    1SOL    MW4  388   2.060   2.406   0.383 -0.4756 -1.0266  0.1470
    1SOL     OW  389   1.904   4.299   0.270 -0.2330  0.2639  0.1309
    1SOL    HW2  390   1.933   4.250   0.193 -0.9545 -0.2344  0.1658
    1SOL    HW3  391   1.810   4.310   0.256 -0.0276  1.8695 -0.0010
    1SOL    MW4  392   1.895   4.294   0.258 -0.3011  0.4101  0.1181
    1SOL     OW  393   1.288   4.028   0.537 -0.1673  0.1762  0.3458
    1SOL    HW2  394   1.283   3.936   0.511  2.7144  0.5384 -1.7239
    1SOL    HW3  395   1.197   4.056   0.541 -1.0391 -2.3356 -0.5499
    1SOL    MW4  396   1.275   4.019   0.534  0.0979 -0.1073 -0.0455
    1SOL     OW  397   1.661   2.782   0.468 -0.3035  0.1424  0.0901
    1SOL    HW2  398   1.644   2.779   0.563 -1.5516 -1.3949 -0.1529
    1SOL    HW3  399   1.579   2.750   0.429 -0.0123  1.3475 -1.5353
    1SOL    MW4  400   1.648   2.777   0.476 -0.4297  0.0987 -0.1565
    1SOL     OW  401   1.874   3.798   0.458 -0.0914 -0.1378 -0.1058
    1SOL    HW2  402   1.865   3.710   0.493 -0.1929 -0.2366 -0.3814
    1SOL    HW3  403   1.958   3.797   0.411 -0.1976 -0.1517 -0.2957
    1SOL    MW4  404   1.884   3.787   0.456 -0.1186 -0.1528 -0.1673
    1SOL     OW  405   1.136   3.555   0.532  0.0625 -0.2634  0.0095
    1SOL    HW2  406   1.053   3.545   0.486 -0.2668  1.1264  0.2620
    1SOL    HW3  407   1.188   3.480   0.506 -1.2282 -1.0707 -0.2667
    1SOL    MW4  408   1.132   3.544   0.523 -0.1514 -0.1864  0.0064
    1SOL     OW  409   2.139   3.760   0.340  0.4633  0.2485  0.0069
    1SOL    HW2  410   2.161   3.695   0.407  1.5809  0.5081 -0.0895
    1SOL    HW3  411   2.214   3.759   0.281 -0.4422  0.1466 -1.1500
    1SOL    MW4  412   2.152   3.752   0.341  0.4914  0.2689 -0.1585
    1SOL     OW  413   0.683   4.036   0.546  0.1683  0.1822  0.7681
    1SOL    HW2  414   0.729   4.030   0.630 -0.0581  0.1204  0.8894
    1SOL    HW3  415   0.685   4.129   0.524  0.0733  0.2251  0.9330
    1SOL    MW4  416   0.689   4.048   0.554  0.1258  0.1793  0.8059
    1SOL     OW  417   2.184   4.530   0.455  0.0694 -0.3687  0.1080
    1SOL    HW2  418   2.107   4.567   0.412 -0.2351 -0.6286  0.4221
    1SOL    HW3  419   2.225   4.604   0.500  0.1601 -0.1772 -0.2979
    1SOL    MW4  420   2.179   4.545   0.456  0.0412 -0.3777  0.0959
    1SOL     OW  421   1.898   4.561   0.386  0.2816 -0.3548  0.6670
    1SOL    HW2  422   1.918   4.477   0.344  0.1210 -0.3983  0.6791
    1SOL    HW3  423   1.803   4.570   0.377 -0.0070 -1.2510  2.6794
    1SOL    MW4  424   1.888   4.551   0.379  0.2223 -0.4787  0.9342
    1SOL     OW  425   1.822   0.672   0.389  0.6259 -0.0907 -0.3143
    1SOL    HW2  426   1.793   0.733   0.322  0.8102 -1.3687 -1.5916
    1SOL    HW3  427   1.753   0.605   0.392  0.4970  0.0914  0.9499
    1SOL    MW4  428   1.809   0.671   0.380  0.6332 -0.2353 -0.3160
    1SOL     OW  429   1.046   4.371   0.517 -0.0359 -0.4617 -0.0594
    1SOL    HW2  430   1.053   4.399   0.609 -2.1222  0.4357 -0.1557
    1SOL    HW3  431   1.113   4.421   0.471 -0.4506  0.7480  0.6200
    1SOL    MW4  432   1.055   4.381   0.523 -0.3660 -0.1831  0.0176
    1SOL     OW  433   2.052   0.532   0.500  0.1758  0.0476  0.0430
    1SOL    HW2  434   1.979   0.569   0.451  1.2956  0.7969 -1.0736
    1SOL    HW3  435   2.114   0.604   0.510  0.3465 -0.3234  1.8209
    1SOL    MW4  436   2.050   0.546   0.495  0.3464  0.0976  0.1303
    1SOL     OW  437   2.160   1.523   0.518 -0.2615 -0.3827  0.1391
    1SOL    HW2  438   2.105   1.447   0.502 -2.8753  0.9780  2.2685
    1SOL    HW3  439   2.128   1.590   0.459  1.4966 -0.6248 -1.1442
    1SOL    MW4  440   2.149   1.521   0.508 -0.3743 -0.2351  0.2507
    1SOL     OW  441   2.516   0.840   0.427  0.0681  0.6757 -0.4982
    1SOL    HW2  442   2.530   0.843   0.522 -0.7128  0.4462 -0.3688
    1SOL    HW3  443   2.512   0.932   0.401  0.7449  0.7415 -0.3831
    1SOL    MW4  444   2.517   0.853   0.436  0.0544  0.6542 -0.4659
    1SOL     OW  445   2.021   1.309   0.460 -0.4509  0.0746  0.1956
    1SOL    HW2  446   1.934   1.310   0.420 -0.8972 -0.6180  1.1199
    1SOL    HW3  447   2.074   1.254   0.402 -0.9732 -0.5601  0.3146
    1SOL    MW4  448   2.017   1.302   0.447 -0.5786 -0.1006  0.3332
    1SOL     OW  449   2.406   1.360   0.473 -0.0626  0.0880 -0.2150
    1SOL    HW2  450   2.489   1.409   0.477 -0.1750  0.2241  0.7411
    1SOL    HW3  451   2.339   1.428   0.470 -0.2145  0.0064  1.0032
    1SOL    MW4  452   2.408   1.376   0.473 -0.0975  0.0951  0.0719
    1SOL     OW  453   1.816   1.938   0.514 -0.9250  0.0343 -0.2601
    1SOL    HW2  454   1.882   1.973   0.573 -2.3049  2.6962 -0.2131
    1SOL    HW3  455   1.827   1.987   0.433 -2.2305 -0.1575 -0.5649
    1SOL    MW4  456   1.826   1.949   0.512 -1.2794  0.3601 -0.2941
    1SOL     OW  457   1.323   1.864   0.471  0.0823  0.7261 -0.2935
    1SOL    HW2  458   1.310   1.802   0.544 -0.4573 -0.0435 -1.0321
    1SOL    HW3  459   1.398   1.917   0.498  0.6199 -0.3132  0.3119
    1SOL    MW4  460   1.331   1.863   0.484  0.0820  0.4874 -0.3111
    1SOL     OW  461   2.375   2.404   0.483  0.1502  0.0479  0.5066
    1SOL    HW2  462   2.463   2.443   0.485  0.2192 -0.0938  0.2596
    1SOL    HW3  463   2.328   2.449   0.553 -0.0780  1.2975 -0.4163
    1SOL    MW4  464   2.380   2.415   0.492  0.1292  0.1941  0.3523
    1SOL     OW  465   1.922   3.255   0.460  0.3799  0.3414 -0.0318
    1SOL    HW2  466   1.902   3.161   0.457  0.1756  0.3525  0.9432
    1SOL    HW3  467   2.018   3.259   0.464  0.3022  0.1120  2.2592
    1SOL    MW4  468   1.932   3.243   0.460  0.3426  0.3123  0.3991
    1SOL     OW  469   1.197   2.819   0.246 -0.5648  0.0282 -0.2361
    1SOL    HW2  470   1.149   2.854   0.321  0.5826 -0.0929  0.5603
    1SOL    HW3  471   1.201   2.892   0.184  0.4878  0.8319  0.7829
    1SOL    MW4  472   1.191   2.833   0.248 -0.2744  0.1180  0.0034
    1SOL     OW  473   1.538   3.508   0.471 -0.0726  0.0810  0.2230
    1SOL    HW2  474   1.633   3.509   0.471 -0.0625 -0.6068 -0.1381
    1SOL    HW3  475   1.514   3.560   0.394  0.0317 -0.8786 -0.4627
    1SOL    MW4  476   1.547   3.515   0.460 -0.0575 -0.1364  0.0848
    1SOL     OW  477   1.128   2.058   0.490 -0.0624  0.0197  0.2074
    1SOL    HW2  478   1.142   2.075   0.584  2.7263  0.5145 -0.2659
    1SOL    HW3  479   1.181   1.980   0.472 -0.3027  0.1430 -1.0340
    1SOL    MW4  480   1.137   2.050   0.500  0.2738  0.1013 -0.0188
    1SOL     OW  481   3.330   2.668   0.360  0.4223  0.0464 -0.1233
    1SOL    HW2  482   3.399   2.615   0.399  0.5106 -0.5519 -1.0530
    1SOL    HW3  483   3.264   2.604   0.334  1.0411  0.2476 -2.3050
    1SOL    MW4  484   3.330   2.652   0.361  0.5157 -0.0060 -0.5338
    1SOL     OW  485   1.796   2.457   0.494  0.0361 -0.0006 -0.0309
    1SOL    HW2  486   1.883   2.434   0.463  0.5270  0.8843  0.6278
    1SOL    HW3  487   1.791   2.552   0.481  0.2938  0.4084  2.5948
    1SOL    MW4  488   1.807   2.467   0.488  0.1349  0.1700  0.4024
    1SOL     OW  489   1.376   2.429   0.491  0.0668  0.0518  0.1537
    1SOL    HW2  490   1.448   2.383   0.448 -0.1792 -1.1090  0.9286
    1SOL    HW3  491   1.374   2.515   0.450  1.4183 -0.1586 -0.3984
    1SOL    MW4  492   1.385   2.434   0.480  0.2127 -0.1292  0.1831
    1SOL     OW  493   1.295   3.334   0.530  0.0391  0.5328  0.4030
    1SOL    HW2  494   1.277   3.281   0.453 -1.6366 -0.0999  1.2009
    1SOL    HW3  495   1.376   3.381   0.509  0.0028 -0.1910 -1.4231
    1SOL    MW4  496   1.303   3.333   0.517 -0.1868  0.3541  0.2673
    1SOL     OW  497   2.212   3.274   0.494 -0.0103 -0.0257 -0.4137
    1SOL    HW2  498   2.274   3.222   0.443  0.2879  0.0342 -0.1068
    1SOL    HW3  499   2.241   3.265   0.585 -0.3572  0.1289 -0.2860
    1SOL    MW4  500   2.224   3.266   0.499 -0.0167  0.0029 -0.3564
    1SOL     OW  501   1.764   4.043   0.530  0.0147  0.1183  0.1783
    1SOL    HW2  502   1.810   3.963   0.501  0.9597  0.5425  0.4793
    1SOL    HW3  503   1.832   4.110   0.532 -0.8236  1.0010 -0.2958
    1SOL    MW4  504   1.779   4.041   0.526  0.0288  0.2904  0.1555
    1SOL     OW  505   1.524   4.156   0.410 -0.0298  0.3628  0.2930
    1SOL    HW2  506   1.444   4.123   0.450 -0.9900  1.2753 -0.8480
    1SOL    HW3  507   1.593   4.100   0.445 -1.0833 -0.0359  1.7624
    1SOL    MW4  508   1.523   4.144   0.420 -0.2955  0.4306  0.3363
    1SOL     OW  509   1.506   4.417   0.534 -0.4485  0.0222 -0.1304
    1SOL    HW2  510   1.507   4.402   0.629  1.6362 -1.1611 -0.2918
    1SOL    HW3  511   1.506   4.329   0.496 -2.5553  0.4734 -1.2644
    1SOL    MW4  512   1.506   4.403   0.542 -0.4513 -0.0744 -0.3014
    1SOL     OW  513   1.620   4.578   0.351 -0.1727 -0.4308 -0.0816
    1SOL    HW2  514   1.583   4.532   0.426 -1.3095 -1.0893 -1.0136
    1SOL    HW3  515   1.617   4.514   0.280  0.7124  0.2380 -0.7359
    1SOL    MW4  516   1.615   4.564   0.351 -0.2060 -0.4292 -0.2909
    1SOL     OW  517   2.534   4.597   0.500 -0.2491 -0.5357 -0.0965
    1SOL    HW2  518   2.622   4.604   0.464  0.6198 -1.3599  1.8090
    1SOL    HW3  519   2.495   4.522   0.456  0.3692 -0.7973 -0.1942
    1SOL    MW4  520   2.541   4.588   0.489 -0.0529 -0.6785  0.1421
    1SOL     OW  521   2.367   0.400   0.522  0.4849 -0.0757  0.5222
    1SOL    HW2  522   2.379   0.308   0.501 -0.1066  0.2011 -1.1030
    1SOL    HW3  523   2.284   0.424   0.480  0.2375  1.0010  1.5774
    1SOL    MW4  524   2.358   0.391   0.514  0.3743  0.1028  0.4470
    1SOL     OW  525   2.931   1.574   0.434  0.3946 -0.3657 -0.4916
    1SOL    HW2  526   2.965   1.622   0.510 -0.1372 -1.2752  0.3293
    1SOL    HW3  527   2.942   1.482   0.457  0.2244 -0.6474 -1.5187
    1SOL    MW4  528   2.937   1.568   0.447  0.3021 -0.5227 -0.5188
    1SOL     OW  529   2.859   0.888   0.441 -0.2975 -0.2041 -0.2583
    1SOL    HW2  530   2.942   0.867   0.484 -0.0435  0.3432 -0.4734
    1SOL    HW3  531   2.836   0.809   0.393 -0.2464 -0.5905  0.3472
    1SOL    MW4  532   2.867   0.875   0.440 -0.2573 -0.1829 -0.2068
    1SOL     OW  533   3.118   0.835   0.554  0.2745 -0.0666  0.8493
    1SOL    HW2  534   3.160   0.905   0.504  0.6473 -1.3751 -0.7136
    1SOL    HW3  535   3.126   0.862   0.645  2.1952  0.9678  0.4028
    1SOL    MW4  536   3.125   0.848   0.559  0.5770 -0.1028  0.5842
    1SOL     OW  537   2.983   1.312   0.528 -0.1953 -0.6263 -0.0702
    1SOL    HW2  538   2.919   1.264   0.476 -1.6964  0.3305  0.8531
    1SOL    HW3  539   2.944   1.315   0.616  0.9675  0.2366  0.4223
    1SOL    MW4  540   2.969   1.306   0.533 -0.2401 -0.3861  0.1166
    1SOL     OW  541   2.658   1.482   0.515 -0.3991 -0.1349 -0.9349
    1SOL    HW2  542   2.725   1.542   0.481 -2.2225  1.2668 -2.1628
    1SOL    HW3  543   2.618   1.531   0.587 -0.3865 -0.7947 -0.4823
    1SOL    MW4  544   2.662   1.496   0.520 -0.6380 -0.0370 -1.0372
    1SOL     OW  545   3.261   1.911   0.424 -0.0234  0.1570  0.6448
    1SOL    HW2  546   3.192   1.871   0.371  0.4956  0.1506 -0.0260
    1SOL    HW3  547   3.267   1.855   0.502  0.2599 -0.7014  0.0082
    1SOL    MW4  548   3.252   1.899   0.427  0.0825  0.0429  0.4723
    1SOL     OW  549   3.140   4.413   0.455  0.2473 -0.0784  0.2615
    1SOL    HW2  550   3.110   4.475   0.389  1.8115  1.0422  0.5687
    1SOL    HW3  551   3.115   4.453   0.539  0.4952 -0.2847  0.4335
    1SOL    MW4  552   3.133   4.426   0.458  0.4864  0.0420  0.3247
    1SOL     OW  553   2.085   2.131   0.448  0.6294  0.2402  0.5185
    1SOL    HW2  554   2.074   2.083   0.530  1.2617 -0.4435  0.2108
    1SOL    HW3  555   2.180   2.128   0.431  0.3713 -0.6472 -0.8421
    1SOL    MW4  556   2.096   2.124   0.457  0.6788  0.0329  0.2984
    1SOL     OW  557   1.801   1.571   0.651  0.1937  0.8383 -0.1339
    1SOL    HW2  558   1.851   1.531   0.722 -1.1517  0.4260  0.5871
    1SOL    HW3  559   1.737   1.627   0.695 -1.1214  0.0299 -0.9971
    1SOL    MW4  560   1.800   1.573   0.666 -0.1574  0.6773 -0.1526
    1SOL     OW  561   2.380   2.135   0.463 -0.2763  0.1081 -0.3163
    1SOL    HW2  562   2.378   2.231   0.457 -0.1885  0.2041  0.9924
    1SOL    HW3  563   2.469   2.111   0.440 -0.0136  0.4322  0.3225
    1SOL    MW4  564   2.391   2.145   0.460 -0.2301  0.1636 -0.0593
    1SOL     OW  565   2.661   2.140   0.442 -0.5596 -0.3960 -0.3947
    1SOL    HW2  566   2.709   2.165   0.363 -1.0070  1.8770  0.0215
    1SOL    HW3  567   2.714   2.072   0.482  0.7300 -0.1058 -1.5714
    1SOL    MW4  568   2.674   2.134   0.437 -0.4485 -0.0577 -0.4950
    1SOL     OW  569   2.612   2.953   0.489  0.0678  0.5215 -0.3549
    1SOL    HW2  570   2.632   3.046   0.503 -2.5251  1.5550 -2.9460
    1SOL    HW3  571   2.574   2.925   0.571  0.0388  2.0251  0.1714
    1SOL    MW4  572   2.609   2.962   0.501 -0.2782  0.8562 -0.6273
    1SOL     OW  573   1.615   2.284   0.388  0.8107  0.4086 -0.1404
    1SOL    HW2  574   1.677   2.228   0.342  0.4165 -0.9656  0.9772
    1SOL    HW3  575   1.670   2.345   0.437  1.4946 -3.1293  3.8023
    1SOL    MW4  576   1.630   2.285   0.389  0.8489 -0.2396  0.5273
    1SOL     OW  577   1.856   2.988   0.513  0.4283 -0.4148 -0.2271
    1SOL    HW2  578   1.907   2.938   0.578 -0.1904 -0.4557  0.2268
    1SOL    HW3  579   1.801   2.923   0.470 -0.4550 -0.1134  0.4365
    1SOL    MW4  580   1.856   2.973   0.516  0.2301 -0.3803 -0.0797
    1SOL     OW  581   2.192   4.011   0.441 -0.3393 -0.2663 -0.3920
    1SOL    HW2  582   2.269   4.044   0.395 -0.1948 -0.3666 -0.2235
    1SOL    HW3  583   2.179   3.923   0.405 -0.4177 -0.2234 -0.4700
    1SOL    MW4  584   2.200   4.003   0.430 -0.3307 -0.2737 -0.3800
    1SOL     OW  585   2.451   4.090   0.310 -0.2052  0.5116 -0.6963
    1SOL    HW2  586   2.542   4.088   0.338 -0.6569 -0.5029  0.7782
    1SOL    HW3  587   2.439   4.012   0.256 -0.4183  0.1579 -0.1440
    1SOL    MW4  588   2.461   4.080   0.307 -0.2930  0.3314 -0.4288
    1SOL     OW  589   1.808   3.513   0.517 -0.1592  0.2269 -0.2682
    1SOL    HW2  590   1.832   3.518   0.610 -2.5084 -0.6341  0.4367
    1SOL    HW3  591   1.851   3.433   0.486 -0.5137 -0.2666  0.4723
    1SOL    MW4  592   1.817   3.503   0.525 -0.5159  0.0479 -0.0774
    1SOL     OW  593   2.205   3.558   0.521 -0.9139 -0.8277 -0.4227
    1SOL    HW2  594   2.215   3.463   0.508 -0.5970 -1.0842  1.4922
    1SOL    HW3  595   2.137   3.566   0.588 -1.3623  0.3295 -1.0013
    1SOL    MW4  596   2.198   3.546   0.528 -0.9313 -0.7088 -0.2465
    1SOL     OW  597   2.395   4.349   0.440  0.2297  0.0904  0.0407
    1SOL    HW2  598   2.310   4.391   0.435 -0.0583 -0.5491 -0.4694
    1SOL    HW3  599   2.391   4.278   0.376  0.4584 -1.1672  1.3789
    1SOL    MW4  600   2.384   4.345   0.431  0.2220 -0.1602  0.1500
    1SOL     OW  601   2.001   4.197   0.529 -0.3193 -0.0475  0.0193
    1SOL    HW2  602   2.067   4.133   0.503 -0.6382  0.2197 -1.5001
    1SOL    HW3  603   1.981   4.245   0.448 -1.3689  0.7815  0.7576
    1SOL    MW4  604   2.007   4.195   0.515 -0.5000  0.0968 -0.0838
    1SOL     OW  605   3.089   4.611   0.262  0.3301 -0.3501  0.0295
    1SOL    HW2  606   3.157   4.594   0.197  0.3361 -0.2843  0.0182
    1SOL    HW3  607   3.120   4.689   0.309  0.3624 -0.4446  0.1631
    1SOL    MW4  608   3.102   4.619   0.260  0.3352 -0.3543  0.0457
    1SOL     OW  609   2.393   3.836   0.209 -0.3197  0.2172  0.3787
    1SOL    HW2  610   2.429   3.804   0.291  1.9833 -0.4511 -0.8468
    1SOL    HW3  611   2.389   3.759   0.152 -1.0867  0.8284 -0.4144
    1SOL    MW4  612   2.397   3.822   0.212 -0.1175  0.2096  0.1124
    1SOL     OW  613   2.444   4.230   0.686  0.1742  0.1290  0.1166
    1SOL    HW2  614   2.387   4.154   0.677  0.0035  0.1663  0.8261
    1SOL    HW3  615   2.430   4.280   0.606 -0.1027 -0.3235 -0.1206
    1SOL    MW4  616   2.434   4.227   0.674  0.1152  0.0744  0.1790
    1SOL     OW  617   2.690   0.662   0.346 -0.0174  0.4427  0.0984
    1SOL    HW2  618   2.617   0.721   0.364 -1.3377 -0.7098 -1.4249
    1SOL    HW3  619   2.700   0.663   0.251  1.1661 -0.3600  0.1979
    1SOL    MW4  620   2.682   0.670   0.336 -0.0355  0.1848 -0.0895
    1SOL     OW  621   1.589   0.174   0.472  0.3491  0.7560  0.1147
    1SOL    HW2  622   1.651   0.160   0.544  0.1149  0.1847  0.2132
    1SOL    HW3  623   1.588   0.090   0.426  0.2833  1.0336 -0.3838
    1SOL    MW4  624   1.597   0.161   0.476  0.3096  0.7173  0.0619
    1SOL     OW  625   3.067   0.404   0.389 -0.6408 -0.2226  0.1189
    1SOL    HW2  626   3.087   0.314   0.415  1.5637  0.4824  0.9507
    1SOL    HW3  627   3.118   0.417   0.309 -0.5631  0.4615  0.2847
    1SOL    MW4  628   3.076   0.394   0.382 -0.3395 -0.0393  0.2506
    1SOL     OW  629   2.557   1.121   0.420 -0.2337 -0.1248  0.1858
    1SOL    HW2  630   2.509   1.204   0.426 -0.8891 -0.4981  0.1578
    1SOL    HW3  631   2.647   1.147   0.402 -0.7738  0.5372 -1.7422
    1SOL    MW4  632   2.562   1.136   0.418 -0.3915 -0.0867 -0.0723
    1SOL     OW  633   3.241   0.581   0.563 -0.0149  0.1516 -0.3429
    1SOL    HW2  634   3.195   0.665   0.555  0.2317  0.3447  0.2281
    1SOL    HW3  635   3.185   0.519   0.516  0.1862  0.7777 -1.4222
    1SOL    MW4  636   3.227   0.584   0.556  0.0443  0.2597 -0.4100
    1SOL     OW  637   2.981   1.835   0.336 -0.2784  0.0174 -0.3597
    1SOL    HW2  638   2.948   1.746   0.323  0.4880 -0.7048  2.1633
    1SOL    HW3  639   2.923   1.873   0.402  0.0913  0.9591 -0.5739
    1SOL    MW4  640   2.969   1.828   0.343 -0.1285  0.0464 -0.0551
    1SOL     OW  641   3.153   2.224   0.436 -0.3786 -0.5769 -0.2681
    1SOL    HW2  642   3.215   2.156   0.409 -0.3600 -0.8453  0.4361
    1SOL    HW3  643   3.102   2.183   0.507 -1.2688 -0.3128 -0.7558
    1SOL    MW4  644   3.155   2.209   0.442 -0.4938 -0.5774 -0.2395
    1SOL     OW  645   3.657   1.514   0.434  0.5815 -0.1866  0.5994
    1SOL    HW2  646   3.666   1.547   0.523 -0.8650 -0.2995  0.8049
    1SOL    HW3  647   3.564   1.527   0.413  0.7428 -0.8833 -0.5966
    1SOL    MW4  648   3.646   1.520   0.443  0.4117 -0.2934  0.4687
    1SOL     OW  649   2.812   0.128   0.606  0.6589  0.0754  0.0525
    1SOL    HW2  650   2.810   0.223   0.595  0.9450 -0.0286 -0.9641
    1SOL    HW3  651   2.762   0.112   0.686  0.2929  1.0497  0.0268
    1SOL    MW4  652   2.805   0.138   0.615  0.6485  0.1902 -0.0850
    1SOL     OW  653   3.003   2.139   0.661 -0.3772 -0.2785 -0.2506
    1SOL    HW2  654   2.975   2.214   0.714 -0.5171 -0.7204  0.3019
    1SOL    HW3  655   3.052   2.084   0.721  1.6446  0.4499 -1.2021
    1SOL    MW4  656   3.006   2.142   0.676 -0.1292 -0.2406 -0.3032
    1SOL     OW  657   3.144   2.471   0.307 -0.1857  0.2083 -0.2717
    1SOL    HW2  658   3.128   2.455   0.214  0.5732  1.7583 -0.6859
    1SOL    HW3  659   3.178   2.388   0.340  0.6868  0.0080 -1.6491
    1SOL    MW4  660   3.146   2.458   0.299  0.0296  0.3862 -0.5081
    1SOL     OW  661   2.903   2.117   0.305 -0.2005 -0.1640  0.7277
    1SOL    HW2  662   2.930   2.031   0.273  0.9056  0.1214  0.8552
    1SOL    HW3  663   2.983   2.153   0.345 -0.4498  1.2315 -0.0056
    1SOL    MW4  664   2.917   2.110   0.306 -0.0875  0.0577  0.6478
    1SOL     OW  665   2.694   2.404   0.516  0.2659  0.0173 -0.1558
    1SOL    HW2  666   2.780   2.436   0.491  0.0333  0.4134 -0.4687
    1SOL    HW3  667   2.695   2.311   0.494  0.8774 -0.1482  0.5656
    1SOL    MW4  668   2.705   2.396   0.510  0.3159  0.0477 -0.1019
    1SOL     OW  669   2.691   3.237   0.473 -0.0283  0.3218 -0.1550
    1SOL    HW2  670   2.779   3.260   0.443 -0.8040  2.0736 -1.2043
    1SOL    HW3  671   2.698   3.232   0.568  1.4088 -0.4501 -0.2945
    1SOL    MW4  672   2.703   3.240   0.481  0.0589  0.4508 -0.3119
    1SOL     OW  673   2.928   3.397   0.383 -0.4414 -0.1905 -0.1739
    1SOL    HW2  674   3.015   3.357   0.387 -0.8079 -0.9931 -0.3112
    1SOL    HW3  675   2.929   3.462   0.454  0.4390  0.1426 -0.4880
    1SOL    MW4  676   2.940   3.400   0.393 -0.3736 -0.2527 -0.2334
    1SOL     OW  677   3.118   3.176   0.450 -0.2309 -0.5116 -0.1401
    1SOL    HW2  678   3.130   3.081   0.446  2.1212 -0.3139  0.9620
    1SOL    HW3  679   3.108   3.196   0.543  2.1779  0.5729 -0.0657
    1SOL    MW4  680   3.119   3.167   0.462  0.3972 -0.3424  0.0151
    1SOL     OW  681   2.492   3.430   0.363 -0.2366 -0.0162  0.0406
    1SOL    HW2  682   2.562   3.372   0.392 -1.4069 -1.5477 -0.1188
    1SOL    HW3  683   2.414   3.373   0.358 -1.5358  1.6796  0.4218
    1SOL    MW4  684   2.491   3.415   0.367 -0.5627  0.0052  0.0699
    1SOL     OW  685   2.490   3.576   0.125 -0.2353  0.4179  0.2866
    1SOL    HW2  686   2.487   3.514   0.198 -0.8890 -0.9269 -0.8747
    1SOL    HW3  687   2.582   3.579   0.100 -0.1830  0.0167  0.4278
    1SOL    MW4  688   2.502   3.569   0.131 -0.3147  0.1874  0.1520
    1SOL     OW  689   3.172   3.620   0.308 -0.0089 -0.4992 -0.1902
    1SOL    HW2  690   3.223   3.700   0.297  0.3119 -0.6344  0.2870
    1SOL    HW3  691   3.236   3.549   0.300 -0.4087 -0.7330 -1.2995
    1SOL    MW4  692   3.187   3.621   0.306 -0.0196 -0.5479 -0.2736
    1SOL     OW  693   2.758   3.743   0.368 -0.5684  0.6066 -0.2120
    1SOL    HW2  694   2.768   3.679   0.297 -0.1695  0.9410 -0.4636
    1SOL    HW3  695   2.674   3.722   0.409 -0.0792 -0.5668  0.2012
    1SOL    MW4  696   2.748   3.732   0.364 -0.4511  0.4959 -0.1907
    1SOL     OW  697   2.495   3.709   0.469 -0.1742 -0.3142  0.1794
    1SOL    HW2  698   2.471   3.730   0.559  2.3976 -1.5060  1.1757
    1SOL    HW3  699   2.480   3.615   0.461  2.3871 -0.7824  0.3220
    1SOL    MW4  700   2.490   3.700   0.480  0.5028 -0.5329  0.3297
    1SOL     OW  701   3.718   4.040   0.461  0.2776 -0.2273  0.4796
    1SOL    HW2  702   3.646   4.032   0.399  0.0261 -1.0228  0.8683
    1SOL    HW3  703   3.678   4.030   0.547  0.8142 -0.4332  0.7115
    1SOL    MW4  704   3.703   4.037   0.465  0.3152 -0.3595  0.5615
    1SOL     OW  705   3.387   4.344   0.321 -0.0617 -0.8815  0.1027
    1SOL    HW2  706   3.305   4.333   0.369 -0.3078 -0.2353 -0.1523
    1SOL    HW3  707   3.446   4.385   0.384 -0.5554  0.4799 -0.2809
    1SOL    MW4  708   3.384   4.348   0.336 -0.1593 -0.6170  0.0184
    1SOL     OW  709   3.463   0.150   0.341 -0.4285  0.1399 -0.0020
    1SOL    HW2  710   3.456   0.115   0.252  2.3432 -0.0701 -0.1566
    1SOL    HW3  711   3.493   0.240   0.330 -1.6407  0.6434  0.6733
    1SOL    MW4  712   3.466   0.157   0.328 -0.2227  0.1786  0.0667
    1SOL     OW  713   3.336   4.566   0.120 -0.0060  0.4553  0.0454
    1SOL    HW2  714   3.339   4.544   0.027 -0.1259  1.6532 -0.2470
    1SOL    HW3  715   3.364   4.486   0.164 -1.0925 -0.5061 -0.9615
    1SOL    MW4  716   3.340   4.553   0.114 -0.1655  0.4873 -0.1260
    1SOL     OW  717   2.770   4.326   0.547 -0.3142 -0.1560 -0.0846
    1SOL    HW2  718   2.834   4.267   0.508 -0.1395  0.6602 -1.0727
    1SOL    HW3  719   2.793   4.412   0.512 -1.8365  0.1700 -0.3173
    1SOL    MW4  720   2.781   4.330   0.537 -0.4919 -0.0052 -0.2457
    1SOL     OW  721   1.947   4.642   0.663 -0.0210 -0.0247  0.3745
    1SOL    HW2  722   1.972   4.559   0.702  0.5816  1.0322  2.3048
    1SOL    HW3  723   1.941   4.624   0.569 -0.7443 -2.4295  0.8463
    1SOL    MW4  724   1.949   4.629   0.656 -0.0370 -0.2031  0.6913
    1SOL     OW  725   3.479   0.622   0.458  0.2517 -0.1304  0.1305
    1SOL    HW2  726   3.489   0.705   0.410 -0.2950 -0.8796 -1.2981
    1SOL    HW3  727   3.389   0.624   0.490  0.5136  0.2195  0.8529
    1SOL    MW4  728   3.469   0.633   0.456  0.2139 -0.1831  0.0373
    1SOL     OW  729   2.828   0.417   0.531 -0.2490 -0.1747 -0.2130
    1SOL    HW2  730   2.768   0.469   0.478 -1.7260 -0.6707  0.9285
    1SOL    HW3  731   2.903   0.402   0.474 -0.3936  2.0365 -1.0206
    1SOL    MW4  732   2.830   0.422   0.516 -0.4628  0.0516 -0.1689
    1SOL     OW  733   3.691   1.017   0.469 -0.5168 -0.2582 -0.2382
    1SOL    HW2  734   3.668   0.982   0.555  0.0819 -0.1826 -0.0435
    1SOL    HW3  735   3.697   1.111   0.482 -0.9844 -0.1912 -0.4952
    1SOL    MW4  736   3.689   1.024   0.482 -0.4992 -0.2394 -0.2464
    1SOL     OW  737   2.827   4.578   0.422 -0.0127  0.0036 -0.0400
    1SOL    HW2  738   2.840   4.651   0.482  0.4797  0.8796 -1.2030
    1SOL    HW3  739   2.874   4.603   0.342 -0.2700 -1.3463 -0.6369
    1SOL    MW4  740   2.835   4.591   0.419  0.0186 -0.0587 -0.2722
    1SOL     OW  741   3.290   1.704   0.588  0.0966 -0.4298  0.4263
    1SOL    HW2  742   3.305   1.650   0.666 -0.5767 -1.2375  0.0073
    1SOL    HW3  743   3.327   1.653   0.516  0.9195  0.4185  0.2399
    1SOL    MW4  744   3.297   1.690   0.589  0.1166 -0.4244  0.3464
    1SOL     OW  745   3.838   2.104   0.286 -0.1928  0.5196  0.0852
    1SOL    HW2  746   3.821   2.021   0.241 -1.7936  0.3380  0.9929
    1SOL    HW3  747   3.916   2.087   0.339 -0.9135 -0.6280  0.8049
    1SOL    MW4  748   3.846   2.091   0.287 -0.4990  0.3440  0.2999
    1SOL     OW  749   3.271   1.003   0.361 -0.1981 -0.0320 -0.3838
    1SOL    HW2  750   3.363   0.977   0.352 -0.0923  0.3073 -0.2568
    1SOL    HW3  751   3.274   1.095   0.385 -0.5407 -0.3705  0.9897
    1SOL    MW4  752   3.283   1.012   0.363 -0.2291 -0.0318 -0.1858
    1SOL     OW  753   3.930   1.575   0.315 -0.2519  0.0918 -0.1457
    1SOL    HW2  754   3.919   1.575   0.220 -0.0003  2.2803 -0.1992
    1SOL    HW3  755   3.841   1.588   0.349 -0.1393  0.8401 -0.1298
    1SOL    MW4  756   3.917   1.577   0.307 -0.2036  0.4793 -0.1506
    1SOL     OW  757   3.312   2.380   0.611 -0.5259  0.1308  0.4277
    1SOL    HW2  758   3.268   2.323   0.548  0.8265  0.8047 -1.1679
    1SOL    HW3  759   3.345   2.321   0.678 -0.3399 -0.8262 -0.4922
    1SOL    MW4  760   3.310   2.365   0.611 -0.3233  0.0935  0.0957
    1SOL     OW  761   3.582   2.732   0.592  0.1141  0.0958  0.1554
    1SOL    HW2  762   3.610   2.713   0.682 -1.2007  0.3825  0.6245
    1SOL    HW3  763   3.576   2.645   0.550  1.1430 -0.0079  0.2097
    1SOL    MW4  764   3.585   2.718   0.598  0.0768  0.1202  0.2245
    1SOL     OW  765   2.422   3.116   0.358  0.0658  0.0263  0.2124
    1SOL    HW2  766   2.484   3.134   0.288  0.3881  1.2504  0.7970
    1SOL    HW3  767   2.459   3.041   0.405  1.9882  1.8143  1.5939
    1SOL    MW4  768   2.435   3.108   0.355  0.3617  0.4234  0.4719
    1SOL     OW  769   3.488   2.921   0.266 -0.6324 -0.0758 -0.0375
    1SOL    HW2  770   3.581   2.914   0.288  0.1796  0.5207 -3.0323
    1SOL    HW3  771   3.458   2.831   0.257 -0.1625 -0.2582  0.2510
    1SOL    MW4  772   3.496   2.909   0.268 -0.4632 -0.0210 -0.3946
    1SOL     OW  773   2.926   2.871   0.805  0.0259 -0.1220  0.0844
    1SOL    HW2  774   2.924   2.865   0.710  0.5079 -0.8392  0.1111
    1SOL    HW3  775   3.014   2.843   0.829 -0.6859 -1.7598  0.8531
    1SOL    MW4  776   2.937   2.867   0.796 -0.0045 -0.4325  0.1894
    1SOL     OW  777   3.200   0.161   0.411  0.0024  0.4331 -0.8764
    1SOL    HW2  778   3.210   0.152   0.505  0.1760 -1.5763 -1.0679
    1SOL    HW3  779   3.289   0.171   0.377  0.0851 -0.6828 -0.9962
    1SOL    MW4  780   3.213   0.161   0.419  0.0362  0.0208 -0.9175
    1SOL     OW  781   2.985   4.179   0.409  0.2474  0.4284  0.1285
    1SOL    HW2  782   3.039   4.105   0.438 -0.2573  0.8002  2.0704
    1SOL    HW3  783   3.040   4.256   0.423 -0.8792  0.8427  2.4411
    1SOL    MW4  784   2.999   4.179   0.414  0.0322  0.5322  0.6898
    1SOL     OW  785   3.516   3.667   0.542  0.2679 -0.1793  0.0003
    1SOL    HW2  786   3.502   3.580   0.504  2.4799 -0.5024 -0.1124
    1SOL    HW3  787   3.473   3.664   0.627 -1.6398 -0.6175 -0.9495
    1SOL    MW4  788   3.508   3.655   0.548  0.3083 -0.2799 -0.1399
    1SOL     OW  789   3.670   3.181   0.500  0.1902  0.5242 -0.0875
    1SOL    HW2  790   3.718   3.257   0.467 -1.2290  1.1911 -0.6590
    1SOL    HW3  791   3.586   3.184   0.455 -0.6984 -0.1804  1.4840
    1SOL    MW4  792   3.665   3.191   0.490 -0.1142  0.5193  0.0445
    1SOL     OW  793   3.469   3.464   0.361  0.1729  0.5540  0.0728
    1SOL    HW2  794   3.444   3.372   0.361 -0.8750  0.8281 -1.1764
    1SOL    HW3  795   3.564   3.463   0.346  0.6327 -0.4065  2.8341
    1SOL    MW4  796   3.478   3.452   0.359  0.0951  0.4637  0.2723
    1SOL     OW  797   2.714   4.040   0.417 -0.0515 -0.4835  0.2790
    1SOL    HW2  798   2.802   4.067   0.390  0.0607 -0.5329  0.5910
    1SOL    HW3  799   2.710   3.947   0.395  0.8391 -1.0634  2.4447
    1SOL    MW4  800   2.725   4.031   0.411  0.0806 -0.5660  0.6059
    1SOL     OW  801   2.815   3.534   0.175  0.0747 -0.0350  0.0339
    1SOL    HW2  802   2.850   3.466   0.233 -0.1621 -0.0776  0.1247
    1SOL    HW3  803   2.892   3.586   0.150  0.0088  0.7383  1.3762
    1SOL    MW4  804   2.830   3.532   0.179  0.0346  0.0618  0.2230
    1SOL     OW  805   4.044   0.323   0.361 -0.0232 -0.5483  0.3362
    1SOL    HW2  806   4.120   0.292   0.313 -0.4956 -2.6872  0.9341
    1SOL    HW3  807   3.989   0.364   0.294  1.7373  1.2722 -0.0517
    1SOL    MW4  808   4.047   0.324   0.346  0.1464 -0.5903  0.3639
    1SOL     OW  809   3.848   4.310   0.470  0.6151  0.1283  0.0930
    1SOL    HW2  810   3.865   4.311   0.564 -0.8616  1.9029  0.3777
    1SOL    HW3  811   3.798   4.230   0.454  0.2118  0.2121  0.9508
    1SOL    MW4  812   3.844   4.300   0.480  0.3669  0.3734  0.2438
    1SOL     OW  813   3.518   0.866   0.336  0.2550  0.6521  0.0298
    1SOL    HW2  814   3.564   0.936   0.384  0.3814  2.0192 -2.0332
    1SOL    HW3  815   3.570   0.853   0.257  0.3129 -1.9407  0.4478
    1SOL    MW4  816   3.531   0.874   0.332  0.2794  0.4904 -0.1872
    1SOL     OW  817   3.763   0.654   0.508 -0.1374 -0.3701 -0.3364
    1SOL    HW2  818   3.786   0.611   0.590  0.8867  1.4075  0.3453
    1SOL    HW3  819   3.667   0.659   0.509 -0.1113  0.1358  1.0234
    1SOL    MW4  820   3.753   0.649   0.519  0.0014 -0.0688 -0.0670
    1SOL     OW  821   3.828   0.493   0.259 -0.1949  0.0196  0.1394
    1SOL    HW2  822   3.810   0.542   0.339  0.1966 -0.8602  0.7758
    1SOL    HW3  823   3.895   0.545   0.214 -0.7854  0.7800  0.1316
    1SOL    MW4  824   3.835   0.507   0.264 -0.2210  0.0038  0.2223
    1SOL     OW  825   0.345   1.030   0.164  0.0629  0.3657 -0.2193
    1SOL    HW2  826   0.260   1.004   0.198 -0.6237  0.8924 -1.5189
    1SOL    HW3  827   0.386   0.949   0.136 -0.1150  0.1406  0.1697
    1SOL    MW4  828   0.339   1.016   0.165 -0.0512  0.4055 -0.3394
    1SOL     OW  829   4.176   0.730   0.439 -0.0565 -0.2127 -0.2333
    1SOL    HW2  830   4.190   0.639   0.467 -0.6439 -0.2530 -0.0682
    1SOL    HW3  831   4.094   0.756   0.481 -0.7857 -0.1656 -1.6716
    1SOL    MW4  832   4.167   0.721   0.448 -0.2303 -0.2118 -0.4013
    1SOL     OW  833   4.046   1.331   0.369 -0.2844  0.0273 -0.1563
    1SOL    HW2  834   4.015   1.417   0.341 -0.0641  0.3020  0.4119
    1SOL    HW3  835   4.135   1.348   0.402 -0.5880 -0.2414  0.8310
    1SOL    MW4  836   4.054   1.345   0.370 -0.2952  0.0280  0.0489
    1SOL     OW  837   3.786   1.272   0.493  0.1327 -0.1420 -0.6781
    1SOL    HW2  838   3.870   1.277   0.447  1.0745  1.6207  1.1455
    1SOL    HW3  839   3.740   1.352   0.468  0.5555  0.7186  1.2083
    1SOL    MW4  840   3.791   1.283   0.484  0.3128  0.2042 -0.1886
    1SOL     OW  841   3.261   1.267   0.451  0.3119 -0.0323  0.0258
    1SOL    HW2  842   3.305   1.258   0.535 -0.7481  1.6909  0.7890
    1SOL    HW3  843   3.168   1.272   0.473 -0.0895 -0.9249 -1.3669
    1SOL    MW4  844   3.254   1.266   0.465  0.1190  0.0774 -0.0573
    1SOL     OW  845   3.370   1.494   0.369  0.6197 -0.1334  0.2208
    1SOL    HW2  846   3.329   1.413   0.398 -1.6453  0.6534 -0.6822
    1SOL    HW3  847   3.346   1.502   0.277 -0.4807  2.3142  0.6768
    1SOL    MW4  848   3.361   1.484   0.361  0.1757  0.2934  0.1618
    1SOL     OW  849   3.837   2.336   0.646 -0.3236  0.3246  0.2668
    1SOL    HW2  850   3.777   2.345   0.572 -0.2130  0.8079  0.2341
    1SOL    HW3  851   3.781   2.348   0.723 -0.0983  1.8263  0.2153
    1SOL    MW4  852   3.821   2.339   0.646 -0.2792  0.5863  0.2557
    1SOL     OW  853   4.383   2.800   0.477 -0.1834  0.1480  0.1394
    1SOL    HW2  854   4.345   2.714   0.495  1.1921 -0.6689 -0.7945
    1SOL    HW3  855   4.307   2.855   0.455 -1.0853 -0.7804  0.8716
    1SOL    MW4  856   4.368   2.796   0.477 -0.1206 -0.0823  0.1128
    1SOL     OW  857   2.947   2.535   0.482 -0.2058  0.4753 -0.2866
    1SOL    HW2  858   3.009   2.487   0.427  0.1501 -0.2939  0.7530
    1SOL    HW3  859   2.990   2.539   0.568 -1.2396  0.6617  0.2346
    1SOL    MW4  860   2.961   2.529   0.486 -0.2954  0.3984 -0.0807
    1SOL     OW  861   2.980   3.653   0.502 -0.0416  0.4542 -0.3455
    1SOL    HW2  862   3.047   3.646   0.434 -0.4992 -0.6212 -0.6923
    1SOL    HW3  863   2.902   3.683   0.455 -0.1944  0.2985 -0.1895
    1SOL    MW4  864   2.978   3.656   0.487 -0.1221  0.2916 -0.3706
    1SOL     OW  865   3.151   2.896   0.456  0.1439  0.2877 -0.1848
    1SOL    HW2  866   3.187   2.828   0.401  0.3543 -0.6140  1.0436
    1SOL    HW3  867   3.057   2.878   0.459  0.0898  0.5241 -0.5131
    1SOL    MW4  868   3.143   2.885   0.449  0.1645  0.1998 -0.0660
    1SOL     OW  869   3.989   2.862   0.503  0.2118 -0.1697  0.3615
    1SOL    HW2  870   3.917   2.859   0.441  0.1657  0.5875  0.3806
    1SOL    HW3  871   4.040   2.783   0.484  0.1939  0.0485 -0.6360
    1SOL    MW4  872   3.986   2.851   0.492  0.2034 -0.0410  0.2324
    1SOL     OW  873   3.401   3.177   0.368  0.2959  0.4065  0.2685
    1SOL    HW2  874   3.306   3.175   0.362  0.3191  0.3413 -0.0786
    1SOL    HW3  875   3.429   3.091   0.339  0.4069  0.0458  1.4117
    1SOL    MW4  876   3.393   3.166   0.363  0.3135  0.3502  0.3735
    1SOL     OW  877   4.037   3.710   0.396 -0.4360 -0.2484  0.0048
    1SOL    HW2  878   3.962   3.697   0.454  0.1311 -1.3340  0.5188
    1SOL    HW3  879   4.031   3.639   0.332 -0.2370  0.0700 -0.3666
    1SOL    MW4  880   4.027   3.698   0.395 -0.3347 -0.3495  0.0236
    1SOL     OW  881   3.531   2.509   0.448 -0.1558  0.2895 -1.0218
    1SOL    HW2  882   3.476   2.457   0.506 -1.5230  1.1308 -1.5455
    1SOL    HW3  883   3.586   2.445   0.402  0.9307 -0.3911  1.1468
    1SOL    MW4  884   3.531   2.494   0.450 -0.1929  0.3107 -0.8048
    1SOL     OW  885   3.103   3.951   0.484 -0.2062 -0.3825 -0.2948
    1SOL    HW2  886   3.059   3.868   0.501  0.5689 -0.5725  0.8618
    1SOL    HW3  887   3.195   3.927   0.471  0.1604  0.3464  0.7945
    1SOL    MW4  888   3.109   3.937   0.485 -0.0553 -0.3114  0.0015
    1SOL     OW  889   4.280   3.648   0.524  0.0173 -0.0562 -0.1669
    1SOL    HW2  890   4.190   3.654   0.493  0.9746  0.4262 -2.9160
    1SOL    HW3  891   4.312   3.564   0.491  0.8793  0.2000 -0.0052
    1SOL    MW4  892   4.272   3.638   0.516  0.2570  0.0412 -0.5082
    1SOL     OW  893   3.493   4.070   0.282  0.4437 -0.1041 -0.3844
    1SOL    HW2  894   3.489   4.166   0.292  0.0435 -0.2887  1.4473
    1SOL    HW3  895   3.474   4.055   0.190  0.0627  1.5675 -0.6039
    1SOL    MW4  896   3.490   4.081   0.271  0.3405  0.0925 -0.1718
    1SOL     OW  897   4.159   4.628   0.336 -0.3587  0.2894 -0.1283
    1SOL    HW2  898   4.128   4.541   0.311  0.0404  0.1082  0.0087
    1SOL    HW3  899   4.238   4.612   0.387 -1.1014  0.6610  1.1527
    1SOL    MW4  900   4.165   4.615   0.339 -0.4034  0.3142  0.0588
    1SOL     OW  901   4.274   0.211   0.238 -0.2983  0.4727 -0.2771
    1SOL    HW2  902   4.369   0.206   0.252 -0.2248 -0.1600 -0.9897
    1SOL    HW3  903   4.243   0.122   0.255 -0.6895  0.5480 -0.5959
    1SOL    MW4  904   4.282   0.199   0.242 -0.3400  0.3992 -0.4132
    1SOL     OW  905   0.003   0.735   0.433 -0.2047 -0.0326 -0.2590
    1SOL    HW2  906  -0.090   0.722   0.413 -0.7219 -0.5160  2.2654
    1SOL    HW3  907   0.034   0.647   0.455  1.2184 -0.0998 -2.3556
    1SOL    MW4  908  -0.005   0.722   0.433 -0.0854 -0.1052 -0.2026
    1SOL     OW  909   0.405   1.703   0.468 -0.0047  0.3699 -0.2801
    1SOL    HW2  910   0.457   1.644   0.414  0.6951  0.5935  0.1438
    1SOL    HW3  911   0.316   1.670   0.461  0.7579 -2.3433  2.1049
    1SOL    MW4  912   0.400   1.691   0.460  0.1882  0.0415  0.0905
    1SOL     OW  913   4.246   0.454   0.495 -0.1983 -0.2856  0.4923
    1SOL    HW2  914   4.166   0.429   0.449 -0.7422 -0.5533  1.5598
    1SOL    HW3  915   4.315   0.404   0.452 -0.7154 -0.6355  0.0655
    1SOL    MW4  916   4.245   0.444   0.483 -0.3386 -0.3671  0.5769
    1SOL     OW  917   0.321   1.318   0.181  0.6263  0.1777  0.3496
    1SOL    HW2  918   0.267   1.328   0.103  0.0445 -0.9553  0.6020
    1SOL    HW3  919   0.344   1.225   0.183  3.0959  0.7541 -0.0915
    1SOL    MW4  920   0.317   1.307   0.171  0.8754  0.1042  0.3247
    1SOL     OW  921   3.645   0.033   0.516 -0.2606 -0.1980 -0.3552
    1SOL    HW2  922   3.587   0.066   0.447 -0.5551  1.7386  0.7689
    1SOL    HW3  923   3.732   0.063   0.489 -0.4612  1.1331  0.4057
    1SOL    MW4  924   3.649   0.042   0.503 -0.3259  0.2331 -0.1066
    1SOL     OW  925   3.935   0.851   0.524  0.1122  0.2481  0.7622
    1SOL    HW2  926   3.897   0.928   0.482 -0.4353 -0.4119  0.0413
    1SOL    HW3  927   3.871   0.782   0.511  1.0329 -0.5817  0.5415
    1SOL    MW4  928   3.922   0.852   0.516  0.1614  0.0516  0.6379
    1SOL     OW  929   0.108   1.282   0.368 -0.1804 -0.2176 -0.0832
    1SOL    HW2  930   0.104   1.187   0.359  1.3806 -0.4508  1.3492
    1SOL    HW3  931   0.185   1.308   0.318 -0.3466  0.2373 -0.1048
    1SOL    MW4  932   0.117   1.273   0.360  0.0036 -0.1884  0.1030
    1SOL     OW  933   3.661   2.270   0.429 -0.1481  0.1763  0.4970
    1SOL    HW2  934   3.702   2.211   0.366 -1.3226  0.3156 -0.4395
    1SOL    HW3  935   3.589   2.220   0.467 -1.4171  1.0968 -0.6116
    1SOL    MW4  936   3.657   2.256   0.425 -0.4704  0.3159  0.2272
    1SOL     OW  937   4.319   1.377   0.461 -0.0842 -0.1135  0.2721
    1SOL    HW2  938   4.317   1.340   0.550  1.6401 -1.1527 -0.1071
    1SOL    HW3  939   4.395   1.336   0.420  0.2535  1.8352 -1.0595
    1SOL    MW4  940   4.328   1.366   0.468  0.1884  0.0064  0.0464
    1SOL     OW  941   4.338   2.104   0.485 -0.5464 -0.0940 -0.6024
    1SOL    HW2  942   4.331   2.200   0.484 -1.2009 -0.1186  1.2640
    1SOL    HW3  943   4.248   2.073   0.478 -0.6723 -0.5337  2.4890
    1SOL    MW4  944   4.326   2.113   0.484 -0.6495 -0.1554  0.0517
    1SOL     OW  945   4.073   1.996   0.471 -0.0377  0.2653 -0.1096
    1SOL    HW2  946   4.003   2.011   0.534 -0.5041  0.0496 -0.5819
    1SOL    HW3  947   4.089   1.902   0.474 -0.4160  0.1788 -0.6915
    1SOL    MW4  948   4.066   1.985   0.480 -0.1488  0.2253 -0.2487
    1SOL     OW  949   4.376   2.374   0.533  0.4997 -0.0280 -0.3116
    1SOL    HW2  950   4.452   2.388   0.475  0.8023  1.1064  0.3592
    1SOL    HW3  951   4.410   2.390   0.621 -0.2989 -0.4351  0.0717
    1SOL    MW4  952   4.391   2.378   0.537  0.4339  0.0675 -0.1726
    1SOL     OW  953   4.004   3.462   0.255  0.5568 -0.1159  0.0704
    1SOL    HW2  954   4.014   3.428   0.166 -0.7877 -0.2159 -0.0489
    1SOL    HW3  955   4.062   3.406   0.308  2.2408  0.6897 -0.9034
    1SOL    MW4  956   4.013   3.450   0.250  0.6022 -0.0226 -0.0738
    1SOL     OW  957   4.209   2.596   0.568  0.4316 -0.0612  0.0906
    1SOL    HW2  958   4.172   2.561   0.649  0.7736 -0.6657 -0.0128
    1SOL    HW3  959   4.252   2.521   0.527 -0.2337  0.1058 -0.9338
    1SOL    MW4  960   4.209   2.582   0.574  0.3891 -0.1192 -0.0582
    1SOL     OW  961   0.194   3.825   0.428 -0.0761  0.0359  0.6686
    1SOL    HW2  962   0.108   3.865   0.444 -0.4350 -0.5913  0.3056
    1SOL    HW3  963   0.250   3.862   0.496 -0.4493  1.0357  0.4420
    1SOL    MW4  964   0.190   3.835   0.439 -0.1727  0.0854  0.5908
    1SOL     OW  965   4.158   3.304   0.448 -0.1714 -0.0894 -0.3086
    1SOL    HW2  966   4.114   3.308   0.532 -0.2920 -0.4258 -0.3550
    1SOL    HW3  967   4.246   3.337   0.465 -0.0221 -0.6699  0.0673
    1SOL    MW4  968   4.164   3.309   0.461 -0.1678 -0.2105 -0.2652
    1SOL     OW  969   4.431   3.394   0.492 -0.1570  0.0113  0.3199
    1SOL    HW2  970   4.463   3.305   0.497  0.5374  0.1602 -1.2403
    1SOL    HW3  971   4.508   3.447   0.471 -0.5027  1.0126  1.5123
    1SOL    MW4  972   4.445   3.390   0.490 -0.1111  0.1628  0.2714
    1SOL     OW  973   3.806   3.683   0.564 -0.0410 -0.0868  0.3646
    1SOL    HW2  974   3.715   3.707   0.546  0.3434  1.1324 -0.0149
    1SOL    HW3  975   3.820   3.711   0.655 -0.3223 -1.1458  0.7401
    1SOL    MW4  976   3.796   3.690   0.574 -0.0274 -0.0658  0.3641
    1SOL     OW  977   4.215   3.024   0.470 -0.0004 -0.1894 -0.1276
    1SOL    HW2  978   4.128   2.984   0.473 -0.0501 -0.0401  0.5206
    1SOL    HW3  979   4.198   3.116   0.450 -0.0481  0.0188  0.8746
    1SOL    MW4  980   4.201   3.031   0.468 -0.0134 -0.1423  0.0902
    1SOL     OW  981   0.032   4.204   0.562 -0.2527  0.0785 -0.3460
    1SOL    HW2  982  -0.044   4.259   0.585  0.6821  0.8899  0.8347
    1SOL    HW3  983  -0.005   4.117   0.550 -1.2087  0.2280  1.3689
    1SOL    MW4  984   0.017   4.200   0.563 -0.2556  0.2055  0.0361
    1SOL     OW  985   3.994   3.962   0.507  0.3811 -0.4072  0.1582
    1SOL    HW2  986   4.005   3.878   0.460 -1.2983  0.1401 -1.2749
    1SOL    HW3  987   3.905   3.989   0.486  0.0093  0.4875  2.7376
    1SOL    MW4  988   3.983   3.954   0.498  0.1106 -0.2167  0.3094
    1SOL     OW  989   4.099   4.347   0.326  0.3653 -0.3736  0.3336
    1SOL    HW2  990   4.142   4.262   0.333 -1.7564 -1.4045  1.3424
    1SOL    HW3  991   4.007   4.329   0.347  0.0945  2.3622  1.6743
    1SOL    MW4  992   4.092   4.334   0.330  0.0496 -0.1483  0.6436
    1SOL     OW  993   4.075   0.615   0.171 -0.4298 -0.0018 -0.3556
    1SOL    HW2  994   4.107   0.660   0.249  0.1654 -1.8350  0.4830
    1SOL    HW3  995   4.151   0.609   0.114 -0.8689  1.3510 -1.0950
    1SOL    MW4  996   4.089   0.620   0.174 -0.4091 -0.0652 -0.3425
    1SOL     OW  997   0.178   4.628   0.848  0.1007  0.2328 -0.5777
    1SOL    HW2  998   0.188   4.542   0.807  0.3280  0.2641 -0.5869
    1SOL    HW3  999   0.087   4.653   0.829  1.1734  1.7832 -4.0098
    1SOL    MW4 1000   0.167   4.620   0.840  0.2722  0.4416 -1.0318
    1SOL     OW 1001   4.420   0.058   0.755  0.0415  0.1717 -0.1188
    1SOL    HW2 1002   4.340   0.027   0.799 -1.3148 -0.0596 -2.6559
    1SOL    HW3 1003   4.423   0.151   0.775 -1.7583  0.5083 -1.2529
    1SOL    MW4 1004   4.410   0.066   0.764 -0.3753  0.1856 -0.6033
    1SOL     OW 1005   4.463   0.326   0.873  0.1332  0.0158  0.1694
    1SOL    HW2 1006   4.461   0.337   0.968 -0.2260  0.3825  0.1218
    1SOL    HW3 1007   4.535   0.382   0.844  0.9252 -0.9138  0.3277
    1SOL    MW4 1008   4.472   0.335   0.882  0.1903 -0.0584  0.1841
    1SOL     OW 1009   0.163   0.478   0.771  0.0397  0.4396  0.1217
    1SOL    HW2 1010   0.239   0.431   0.804  0.8910  1.2217 -0.6918
    1SOL    HW3 1011   0.178   0.569   0.797  0.5377  1.0017 -2.0341
    1SOL    MW4 1012   0.175   0.484   0.778  0.2178  0.6170 -0.2701
    1SOL     OW 1013   0.221   0.732   0.857 -0.0487 -0.2952  0.2621
    1SOL    HW2 1014   0.209   0.749   0.951 -0.2260 -1.0191  0.3802
    1SOL    HW3 1015   0.147   0.775   0.815 -0.4299 -0.6662  0.5390
    1SOL    MW4 1016   0.210   0.740   0.864 -0.1224 -0.4398  0.3142
    1SOL     OW 1017   0.015   0.832   0.695  0.3140  0.4441 -0.0945
    1SOL    HW2 1018  -0.051   0.780   0.741  0.0672  0.1210 -0.8055
    1SOL    HW3 1019  -0.002   0.815   0.602  0.2286  1.8106 -0.3263
    1SOL    MW4 1020   0.004   0.823   0.689  0.2699  0.5817 -0.2190
    1SOL     OW 1021   4.486   1.123   0.781 -0.6023 -0.1045  0.4282
    1SOL    HW2 1022   4.497   1.128   0.875 -2.5373 -2.6408  0.8580
    1SOL    HW3 1023   4.479   1.029   0.762 -3.1069  0.4497 -1.8373
    1SOL    MW4 1024   4.486   1.111   0.791 -1.1881 -0.3662  0.1860
    1SOL     OW 1025   0.208   1.269   0.660 -0.6419  0.3270 -0.1609
    1SOL    HW2 1026   0.129   1.224   0.689  0.0132 -1.9297 -1.7393
    1SOL    HW3 1027   0.197   1.280   0.566  0.2480  1.4210 -0.1550
    1SOL    MW4 1028   0.197   1.264   0.652 -0.4381  0.1736 -0.3684
    1SOL     OW 1029   0.219   1.530   0.794  0.7896 -0.0052 -0.1014
    1SOL    HW2 1030   0.298   1.577   0.768  0.9739 -0.0871  0.3128
    1SOL    HW3 1031   0.222   1.448   0.745  0.9263  0.0189 -0.1322
    1SOL    MW4 1032   0.230   1.525   0.784  0.8320 -0.0130 -0.0508
    1SOL     OW 1033   4.467   1.684   0.739  0.1963 -0.1296  0.2154
    1SOL    HW2 1034   4.395   1.643   0.787  0.7779 -1.1321  0.2447
    1SOL    HW3 1035   4.545   1.638   0.769  0.7320  0.2644 -0.5622
    1SOL    MW4 1036   4.468   1.672   0.749  0.3438 -0.2100  0.1167
    1SOL     OW 1037   0.027   1.910   0.876 -0.1666 -0.0727 -0.4817
    1SOL    HW2 1038   0.080   1.952   0.808 -1.5004 -0.8809 -2.0423
    1SOL    HW3 1039  -0.014   1.835   0.833 -0.6603 -0.8970  1.3377
    1SOL    MW4 1040   0.029   1.906   0.862 -0.4077 -0.2881 -0.4475
    1SOL     OW 1041   0.209   2.065   0.740  0.0017 -0.0487 -0.0618
    1SOL    HW2 1042   0.253   2.143   0.774  0.2699 -0.1412 -0.1985
    1SOL    HW3 1043   0.187   2.087   0.650  0.2462 -0.1998 -0.1597
    1SOL    MW4 1044   0.212   2.078   0.733  0.0694 -0.0806 -0.0927
    1SOL     OW 1045   0.298   2.322   0.853  0.1185 -0.2308 -0.0696
    1SOL    HW2 1046   0.284   2.329   0.947 -0.5832  0.2373 -0.2044
    1SOL    HW3 1047   0.393   2.322   0.843  0.1949 -0.4955  0.6532
    1SOL    MW4 1048   0.309   2.323   0.864  0.0360 -0.2036  0.0080
    1SOL     OW 1049   0.033   2.447   0.784  0.0863 -0.2797  0.4035
    1SOL    HW2 1050  -0.046   2.405   0.819  0.9637 -1.6935  0.7294
    1SOL    HW3 1051   0.105   2.390   0.812  1.0185 -0.2377 -1.7916
    1SOL    MW4 1052   0.032   2.434   0.792  0.3251 -0.4604  0.1569
    1SOL     OW 1053   0.048   2.715   0.875 -0.1273  0.5332 -0.3201
    1SOL    HW2 1054   0.020   2.718   0.966  0.5072 -1.2061 -0.0483
    1SOL    HW3 1055   0.053   2.622   0.854  1.0980  0.8813 -1.7077
    1SOL    MW4 1056   0.045   2.703   0.884  0.1181  0.3493 -0.4672
    1SOL     OW 1057   0.183   2.844   0.493 -0.3234 -0.4142 -0.3281
    1SOL    HW2 1058   0.194   2.749   0.489 -0.7499 -0.4009 -2.2524
    1SOL    HW3 1059   0.088   2.856   0.500 -0.1708 -0.1458  1.8248
    1SOL    MW4 1060   0.172   2.833   0.494 -0.3595 -0.3772 -0.2980
    1SOL     OW 1061   0.235   3.147   0.852  0.0267 -0.6891  0.1737
    1SOL    HW2 1062   0.270   3.162   0.940  0.5134 -1.5341  0.1303
    1SOL    HW3 1063   0.231   3.052   0.844  1.2400 -0.6457 -1.2143
    1SOL    MW4 1064   0.239   3.137   0.863  0.2510 -0.7946 -0.0151
    1SOL     OW 1065   4.463   3.220   0.803  0.3569  0.1259 -0.2023
    1SOL    HW2 1066   4.545   3.179   0.830  0.3178 -0.6117 -1.1348
    1SOL    HW3 1067   4.452   3.192   0.712 -0.6738  0.6280 -0.2392
    1SOL    MW4 1068   4.472   3.211   0.794  0.2155  0.0949 -0.3303
    1SOL     OW 1069   0.002   3.484   0.866 -0.0511  0.6414  0.0280
    1SOL    HW2 1070  -0.073   3.536   0.839 -0.5630  0.4768  1.0958
    1SOL    HW3 1071  -0.016   3.396   0.833 -0.4429  0.5534  0.4646
    1SOL    MW4 1072  -0.010   3.479   0.858 -0.1702  0.6082  0.2264
    1SOL     OW 1073   0.194   3.635   0.750  0.0595  0.4326 -0.1062
    1SOL    HW2 1074   0.120   3.582   0.779  1.3047 -1.0224  0.5151
    1SOL    HW3 1075   0.205   3.613   0.658 -0.2821  0.6375 -0.1938
    1SOL    MW4 1076   0.186   3.625   0.742  0.1787  0.2677 -0.0358
    1SOL     OW 1077   0.162   3.877   0.868 -0.6579 -0.3326  0.7020
    1SOL    HW2 1078   0.166   3.864   0.963 -1.7720 -1.0036  0.6579
    1SOL    HW3 1079   0.159   3.789   0.831 -1.8523 -0.0649  0.1231
    1SOL    MW4 1080   0.162   3.864   0.876 -0.9624 -0.3858  0.6198
    1SOL     OW 1081   4.413   3.983   0.821  0.5416 -0.2434 -0.3641
    1SOL    HW2 1082   4.338   3.945   0.867 -0.3081  0.0056 -1.4953
    1SOL    HW3 1083   4.488   3.934   0.854 -0.0260 -0.0290  1.3086
    1SOL    MW4 1084   4.413   3.971   0.831  0.3543 -0.1824 -0.2927
    1SOL     OW 1085   4.412   4.267   0.902 -0.2398 -0.4121  0.7305
    1SOL    HW2 1086   4.434   4.266   0.995 -0.3656 -1.2904  0.7572
    1SOL    HW3 1087   4.436   4.179   0.871 -0.4570 -0.2156 -0.0003
    1SOL    MW4 1088   4.418   4.255   0.910 -0.2847 -0.5016  0.6377
    1SOL     OW 1089   0.184   4.329   0.780  0.0965 -0.5206 -0.4031
    1SOL    HW2 1090   0.105   4.323   0.834 -0.4471  1.1614 -0.9862
    1SOL    HW3 1091   0.166   4.273   0.704 -0.4689 -0.2559 -0.4634
    1SOL    MW4 1092   0.171   4.321   0.777 -0.0498 -0.2637 -0.4880
    1SOL     OW 1093   0.600   4.634   0.835 -0.6760  0.2021 -0.1236
    1SOL    HW2 1094   0.582   4.658   0.926 -0.1552  0.9770 -0.2191
    1SOL    HW3 1095   0.535   4.681   0.784 -1.4000 -0.7697 -0.1052
    1SOL    MW4 1096   0.589   4.643   0.841 -0.7027  0.1764 -0.1337
    1SOL     OW 1097   0.387   0.133   0.731 -0.9160 -0.2967 -0.1343
    1SOL    HW2 1098   0.318   0.077   0.766  0.1743 -0.7876  1.2929
    1SOL    HW3 1099   0.371   0.136   0.637 -1.8116 -1.8717 -0.0471
    1SOL    MW4 1100   0.376   0.126   0.723 -0.8903 -0.5693  0.0656
    1SOL     OW 1101   0.384   0.359   0.881 -0.3561  0.2261  0.1359
    1SOL    HW2 1102   0.454   0.419   0.855 -0.6830  1.0260  1.0632
    1SOL    HW3 1103   0.401   0.279   0.831  2.5569 -0.3950  1.9847
    1SOL    MW4 1104   0.396   0.356   0.871 -0.0149  0.2497  0.5021
    1SOL     OW 1105   0.605   0.495   0.818 -0.3209 -0.3422 -0.0430
    1SOL    HW2 1106   0.683   0.448   0.846 -1.0541 -1.6549 -0.1615
    1SOL    HW3 1107   0.613   0.501   0.723  0.0314  0.2465  0.0226
    1SOL    MW4 1108   0.616   0.490   0.809 -0.3711 -0.4377 -0.0499
    1SOL     OW 1109   0.643   0.758   0.896  0.4640  0.1597  0.5326
    1SOL    HW2 1110   0.566   0.789   0.849 -0.9083  0.4941  2.9480
    1SOL    HW3 1111   0.631   0.663   0.902  1.0481  0.0088 -0.4435
    1SOL    MW4 1112   0.631   0.749   0.890  0.3600  0.1839  0.7225
    1SOL     OW 1113   0.431   0.878   0.734 -0.3266 -0.1999  0.2384
    1SOL    HW2 1114   0.403   0.967   0.757 -0.2740 -0.1860  0.2476
    1SOL    HW3 1115   0.359   0.823   0.764 -1.4953  0.0698 -1.9998
    1SOL    MW4 1116   0.417   0.883   0.741 -0.4739 -0.1625 -0.0556
    1SOL     OW 1117   0.408   1.144   0.820  0.0412 -0.2492  0.0022
    1SOL    HW2 1118   0.487   1.176   0.777  0.2257  2.0010  1.9553
    1SOL    HW3 1119   0.336   1.183   0.770  0.1999  0.1682  0.1053
    1SOL    MW4 1120   0.409   1.153   0.807  0.0864  0.1028  0.2735
    1SOL     OW 1121   0.643   1.260   0.735  0.1428  0.1301 -0.2259
    1SOL    HW2 1122   0.671   1.346   0.766  0.6581  0.4967 -1.6428
    1SOL    HW3 1123   0.649   1.266   0.639  1.2107 -1.8123 -0.3221
    1SOL    MW4 1124   0.648   1.272   0.726  0.3518 -0.0778 -0.4255
    1SOL     OW 1125   0.692   1.537   0.809 -0.0609  0.0893  0.0532
    1SOL    HW2 1126   0.706   1.529   0.903 -1.0175  0.6366  0.2369
    1SOL    HW3 1127   0.605   1.574   0.800  0.7124  1.6940 -1.0161
    1SOL    MW4 1128   0.682   1.541   0.820 -0.0851  0.3732 -0.0637
    1SOL     OW 1129   0.453   1.653   0.733  0.4771 -0.7376  0.0211
    1SOL    HW2 1130   0.469   1.735   0.779  0.0974 -0.4776 -0.2976
    1SOL    HW3 1131   0.435   1.680   0.643  0.5465 -1.1855 -0.1260
    1SOL    MW4 1132   0.453   1.668   0.727  0.4362 -0.7625 -0.0404
    1SOL     OW 1133   0.471   1.938   0.820  0.1350 -0.2321 -0.1551
    1SOL    HW2 1134   0.473   1.931   0.915  0.1380  0.8218 -0.0761
    1SOL    HW3 1135   0.379   1.955   0.799  0.4721  1.7131 -0.1699
    1SOL    MW4 1136   0.459   1.939   0.830  0.1799  0.1636 -0.1467
    1SOL     OW 1137   0.678   2.092   0.720 -0.0572 -0.5045  0.3038
    1SOL    HW2 1138   0.608   2.034   0.752 -0.5726 -0.3871 -0.5912
    1SOL    HW3 1139   0.654   2.110   0.629 -0.0016  1.2765  0.6263
    1SOL    MW4 1140   0.665   2.086   0.713 -0.1179 -0.2539  0.2283
    1SOL     OW 1141   0.572   2.307   0.840  0.4894 -0.1572  0.2300
    1SOL    HW2 1142   0.601   2.299   0.931  0.8428 -0.3947  0.1004
    1SOL    HW3 1143   0.610   2.230   0.796 -0.9958 -0.9021  0.2182
    1SOL    MW4 1144   0.581   2.295   0.846  0.3400 -0.2866  0.2114
    1SOL     OW 1145   0.511   2.515   0.643  0.0327  0.7807  0.4816
    1SOL    HW2 1146   0.506   2.432   0.690  0.1467  0.9742  0.8375
    1SOL    HW3 1147   0.421   2.531   0.613  0.3962 -0.4498 -1.3081
    1SOL    MW4 1148   0.498   2.506   0.645  0.0957  0.6440  0.2924
    1SOL     OW 1149   0.257   2.879   0.786 -0.0336 -0.2153 -0.2742
    1SOL    HW2 1150   0.181   2.838   0.827 -1.0806  1.3599 -0.6083
    1SOL    HW3 1151   0.234   2.886   0.694  1.6603 -2.2430 -0.9017
    1SOL    MW4 1152   0.244   2.874   0.779  0.0517 -0.2751 -0.4010
    1SOL     OW 1153   0.512   2.833   0.902 -0.0465  0.4620  0.1118
    1SOL    HW2 1154   0.567   2.785   0.840  0.0402 -0.8371  1.1606
    1SOL    HW3 1155   0.427   2.841   0.857 -0.1751 -1.0334  0.0639
    1SOL    MW4 1156   0.508   2.828   0.888 -0.0520  0.0935  0.2438
    1SOL     OW 1157   0.651   3.086   0.869 -0.0639  0.0854 -0.1378
    1SOL    HW2 1158   0.582   3.142   0.832 -0.7288 -0.6899 -0.0766
    1SOL    HW3 1159   0.612   2.999   0.872  0.1816  0.0258  1.8527
    1SOL    MW4 1160   0.637   3.082   0.864 -0.1191 -0.0246  0.1329
    1SOL     OW 1161   0.453   3.243   0.728  0.5464 -0.0769  0.9607
    1SOL    HW2 1162   0.451   3.332   0.762 -0.2597  0.6825 -0.9755
    1SOL    HW3 1163   0.369   3.206   0.754  0.2226  0.2670  0.4169
    1SOL    MW4 1164   0.442   3.250   0.736  0.3973  0.0689  0.6335
    1SOL     OW 1165   0.425   3.500   0.841 -0.1319  0.6309  0.3281
    1SOL    HW2 1166   0.409   3.503   0.935 -1.1199  0.6727  0.1568
    1SOL    HW3 1167   0.352   3.549   0.802  1.1011  1.9819 -0.3614
    1SOL    MW4 1168   0.413   3.507   0.848 -0.0996  0.8147  0.2145
    1SOL     OW 1169   0.672   3.598   0.716  0.1545 -0.0875  0.0259
    1SOL    HW2 1170   0.587   3.565   0.747 -1.1698  1.7744 -1.4710
    1SOL    HW3 1171   0.681   3.684   0.758  0.9208  0.0683 -0.4486
    1SOL    MW4 1172   0.662   3.605   0.725  0.0809  0.1788 -0.2342
    1SOL     OW 1173   0.678   3.830   0.872  0.6893  0.1209 -0.6547
    1SOL    HW2 1174   0.746   3.893   0.846  1.2553 -0.2883 -0.1558
    1SOL    HW3 1175   0.596   3.878   0.859  1.1741  1.4891  1.1040
    1SOL    MW4 1176   0.676   3.845   0.867  0.8280  0.2472 -0.3568
    1SOL     OW 1177   0.426   3.983   0.838 -0.2048  0.0570 -0.0965
    1SOL    HW2 1178   0.429   4.079   0.845 -0.1346 -0.0413  1.3728
    1SOL    HW3 1179   0.338   3.960   0.868  0.5330 -0.5005  1.6500
    1SOL    MW4 1180   0.415   3.993   0.843 -0.0982 -0.0293  0.3278
    1SOL     OW 1181   0.447   4.248   0.839 -0.0179  0.0410 -0.1060
    1SOL    HW2 1182   0.457   4.253   0.934 -1.4922  0.6490  0.0405
    1SOL    HW3 1183   0.356   4.276   0.823 -0.2124 -1.3466 -1.5827
    1SOL    MW4 1184   0.436   4.253   0.849 -0.2381 -0.0620 -0.2815
    1SOL     OW 1185   0.652   4.383   0.727 -0.1818  0.2399 -0.4273
    1SOL    HW2 1186   0.585   4.330   0.771 -0.7312  0.7325 -0.6724
    1SOL    HW3 1187   0.637   4.472   0.758  1.4223  0.1016  0.8154
    1SOL    MW4 1188   0.642   4.388   0.737 -0.0426  0.2871 -0.2957
    1SOL     OW 1189   1.050   4.648   0.897  0.0314  0.0340 -0.0961
    1SOL    HW2 1190   1.125   4.705   0.877  0.1045  0.3931  1.1644
    1SOL    HW3 1191   0.973   4.700   0.872  0.0947  0.7464  1.1512
    1SOL    MW4 1192   1.050   4.663   0.891  0.0494  0.1750  0.2347
    1SOL     OW 1193   0.839   0.103   0.785  0.0917 -0.5047  0.2801
    1SOL    HW2 1194   0.830   0.194   0.814  1.2500 -0.7179  1.3700
    1SOL    HW3 1195   0.753   0.064   0.798 -0.1336  0.1646  0.7841
    1SOL    MW4 1196   0.827   0.110   0.791  0.2148 -0.4445  0.4904
    1SOL     OW 1197   0.850   0.365   0.848  0.1636 -0.2674  0.1725
    1SOL    HW2 1198   0.862   0.380   0.941 -0.9672  1.8664  0.0047
    1SOL    HW3 1199   0.931   0.396   0.808 -0.1592  0.6920  0.2671
    1SOL    MW4 1200   0.862   0.371   0.855 -0.0282  0.1408  0.1628
    1SOL     OW 1201   1.075   0.482   0.764 -0.0116 -0.6479 -0.3954
    1SOL    HW2 1202   1.153   0.456   0.813 -0.4653 -2.1323 -0.4122
    1SOL    HW3 1203   1.100   0.473   0.672 -0.2645 -1.4023 -0.4012
    1SOL    MW4 1204   1.089   0.477   0.759 -0.1048 -0.9432 -0.3984
    1SOL     OW 1205   1.064   0.749   0.841 -0.3833 -0.4713 -0.2658
    1SOL    HW2 1206   1.053   0.739   0.936  1.8403 -0.6130 -0.0130
    1SOL    HW3 1207   1.076   0.660   0.809 -1.5995 -0.4693 -0.7681
    1SOL    MW4 1208   1.064   0.736   0.850 -0.2503 -0.4898 -0.2987
    1SOL     OW 1209   0.853   0.878   0.750  0.4089  0.2603 -0.2730
    1SOL    HW2 1210   0.934   0.839   0.783  0.6486  0.6813 -0.3682
    1SOL    HW3 1211   0.784   0.840   0.804  0.7677  0.7244  0.5117
    1SOL    MW4 1212   0.855   0.868   0.761  0.4878  0.3772 -0.1820
    1SOL     OW 1213   0.861   1.118   0.876  0.4025 -0.5566  0.0435
    1SOL    HW2 1214   0.856   1.028   0.843 -1.9714 -1.0031  1.4887
    1SOL    HW3 1215   0.798   1.166   0.823 -0.5371 -0.4156  1.2758
    1SOL    MW4 1216   0.852   1.112   0.864 -0.0346 -0.5970  0.3967
    1SOL     OW 1217   1.060   1.269   0.770  0.2565 -0.0997  0.2148
    1SOL    HW2 1218   0.993   1.205   0.794  1.1132 -0.9028  0.5026
    1SOL    HW3 1219   1.086   1.244   0.681 -2.1476  2.2136 -1.1903
    1SOL    MW4 1220   1.055   1.257   0.761  0.0523  0.0995  0.0674
    1SOL     OW 1221   1.141   1.540   0.833  0.2352 -0.9933 -0.1913
    1SOL    HW2 1222   1.070   1.593   0.797 -0.1633 -1.3697  0.0330
    1SOL    HW3 1223   1.115   1.449   0.814  0.2706 -1.1690  0.5854
    1SOL    MW4 1224   1.128   1.535   0.826  0.1872 -1.0661 -0.0592
    1SOL     OW 1225   0.930   1.663   0.690  0.1119  0.5198 -0.2386
    1SOL    HW2 1226   0.905   1.752   0.713 -0.5855  0.6139 -1.3633
    1SOL    HW3 1227   0.854   1.610   0.714  0.6039  0.1815  0.6284
    1SOL    MW4 1228   0.917   1.668   0.696  0.0848  0.4877 -0.2727
    1SOL     OW 1229   0.875   1.912   0.795 -0.1900  0.1055 -0.0889
    1SOL    HW2 1230   0.885   1.901   0.890 -0.4841  0.8140  0.0276
    1SOL    HW3 1231   0.800   1.971   0.785  0.6640  1.1135 -0.7080
    1SOL    MW4 1232   0.867   1.918   0.806 -0.1162  0.3320 -0.1552
    1SOL     OW 1233   1.126   2.058   0.757  0.3534 -0.5071 -0.1261
    1SOL    HW2 1234   1.103   2.144   0.794 -0.1212  0.1908 -2.0065
    1SOL    HW3 1235   1.042   2.018   0.734  0.6197 -1.1221 -0.0390
    1SOL    MW4 1236   1.112   2.064   0.759  0.3258 -0.4961 -0.3628
    1SOL     OW 1237   1.065   2.294   0.861  0.3519  0.2005 -0.2563
    1SOL    HW2 1238   1.066   2.300   0.956  1.2399 -0.0335 -0.2467
    1SOL    HW3 1239   1.132   2.355   0.832  0.0703  0.2860 -0.7352
    1SOL    MW4 1240   1.074   2.303   0.870  0.4319  0.1810 -0.3182
    1SOL     OW 1241   0.833   2.421   0.759  0.3618  0.0024 -0.0963
    1SOL    HW2 1242   0.899   2.363   0.795 -0.2340 -1.5556 -1.4511
    1SOL    HW3 1243   0.754   2.402   0.810  0.1673 -0.3831 -0.5376
    1SOL    MW4 1244   0.831   2.411   0.771  0.2575 -0.2542 -0.3333
    1SOL     OW 1245   0.948   2.679   0.836 -0.3498 -0.0144  0.1745
    1SOL    HW2 1246   0.927   2.691   0.929  0.4624 -0.0240  0.3591
    1SOL    HW3 1247   0.908   2.596   0.813 -3.3734  1.5059 -0.3182
    1SOL    MW4 1248   0.940   2.670   0.845 -0.6416  0.1850  0.1339
    1SOL     OW 1249   1.150   2.816   0.706 -0.1665  0.2091  0.4778
    1SOL    HW2 1250   1.081   2.768   0.753 -0.6668  0.4351 -0.0121
    1SOL    HW3 1251   1.109   2.841   0.623  0.7033 -0.1887 -0.0847
    1SOL    MW4 1252   1.135   2.813   0.701 -0.1178  0.1864  0.3389
    1SOL     OW 1253   1.135   3.043   0.850 -0.2694 -0.0128 -0.2799
    1SOL    HW2 1254   1.051   3.084   0.828 -0.3666  0.4423  0.8965
    1SOL    HW3 1255   1.142   2.969   0.790 -0.9173  0.6951 -1.2439
    1SOL    MW4 1256   1.124   3.039   0.840 -0.3676  0.1404 -0.2518
    1SOL     OW 1257   0.906   3.172   0.765 -0.1281 -0.1517  0.2182
    1SOL    HW2 1258   0.885   3.260   0.797 -0.3215  0.0832 -0.5531
    1SOL    HW3 1259   0.828   3.120   0.786 -0.0487 -0.1220  0.5936
    1SOL    MW4 1260   0.893   3.177   0.772 -0.1432 -0.1166  0.1659
    1SOL     OW 1261   0.829   3.446   0.861  0.0120  0.3662  0.2098
    1SOL    HW2 1262   0.913   3.487   0.840 -0.0285  0.4974  0.3033
    1SOL    HW3 1263   0.764   3.499   0.814  0.0789 -0.4014 -0.7736
    1SOL    MW4 1264   0.831   3.459   0.852  0.0154  0.2823  0.0924
    1SOL     OW 1265   1.068   3.578   0.795 -0.2222  0.3969 -0.0092
    1SOL    HW2 1266   1.156   3.561   0.829 -0.1204  0.1754 -0.3769
    1SOL    HW3 1267   1.076   3.567   0.700 -0.8314 -0.5023  0.0259
    1SOL    MW4 1268   1.080   3.574   0.787 -0.2892  0.2489 -0.0531
    1SOL     OW 1269   1.077   3.855   0.835  0.2173  0.3568 -0.0400
    1SOL    HW2 1270   1.072   3.862   0.931 -2.2069 -1.4505 -0.0053
    1SOL    HW3 1271   1.073   3.761   0.818  1.9750  0.5852 -1.8816
    1SOL    MW4 1272   1.076   3.844   0.846  0.1293  0.1485 -0.2785
    1SOL     OW 1273   0.851   4.014   0.762 -0.1786 -0.1493  0.0752
    1SOL    HW2 1274   0.859   4.090   0.821 -1.7801  1.3771 -1.6040
    1SOL    HW3 1275   0.933   3.967   0.773  0.5278  1.3827  1.7634
    1SOL    MW4 1276   0.863   4.018   0.771 -0.2967  0.2542  0.0764
    1SOL     OW 1277   0.856   4.258   0.876  0.7411  0.3656 -0.1290
    1SOL    HW2 1278   0.941   4.300   0.864  0.4961  1.0471  0.5121
    1SOL    HW3 1279   0.796   4.311   0.822  0.1413  1.7942  1.8914
    1SOL    MW4 1280   0.859   4.271   0.867  0.6297  0.6442  0.2222
    1SOL     OW 1281   1.079   4.400   0.787 -0.1103  0.2785  0.6572
    1SOL    HW2 1282   1.152   4.363   0.837  0.5955  0.4213 -0.2576
    1SOL    HW3 1283   1.066   4.487   0.825  1.3406  0.9391 -0.3049
    1SOL    MW4 1284   1.087   4.406   0.799  0.1742  0.3848  0.4095
    1SOL     OW 1285   1.515   4.646   0.884 -0.4863  0.5670 -0.0953
    1SOL    HW2 1286   1.519   4.657   0.979  1.6930 -0.5216 -0.0069
    1SOL    HW3 1287   1.434   4.688   0.857 -1.7859 -0.2500  2.4170
    1SOL    MW4 1288   1.505   4.653   0.893 -0.3704  0.3157  0.2478
    1SOL     OW 1289   1.289   0.123   0.823 -0.3013 -0.1200  0.3189
    1SOL    HW2 1290   1.293   0.213   0.856 -2.2893 -0.0225  0.3503
    1SOL    HW3 1291   1.289   0.132   0.728  0.9596 -0.1857  0.2955
    1SOL    MW4 1292   1.290   0.136   0.815 -0.3973 -0.1158  0.3200
    1SOL     OW 1293   1.319   0.394   0.856  0.3215 -0.1948  0.0262
    1SOL    HW2 1294   1.335   0.398   0.950  1.0095  0.9970 -0.1310
    1SOL    HW3 1295   1.387   0.449   0.817 -0.1706 -0.3816 -1.1448
    1SOL    MW4 1296   1.330   0.402   0.863  0.3473 -0.0622 -0.1490
    1SOL     OW 1297   1.537   0.543   0.765  0.0223 -0.3309 -0.1735
    1SOL    HW2 1298   1.545   0.623   0.817 -0.6866 -0.3400 -0.0501
    1SOL    HW3 1299   1.614   0.491   0.790  1.0871  0.7618 -1.0602
    1SOL    MW4 1300   1.548   0.547   0.775  0.0691 -0.1879 -0.2741
    1SOL     OW 1301   1.508   0.785   0.926 -0.0934 -0.0009 -0.0399
    1SOL    HW2 1302   1.593   0.824   0.909  0.2462 -0.1721  1.2403
    1SOL    HW3 1303   1.447   0.832   0.869  0.3873  2.0621  1.1314
    1SOL    MW4 1304   1.511   0.796   0.916  0.0149  0.2487  0.2835
    1SOL     OW 1305   1.279   0.899   0.780  0.1980  0.2048 -0.4080
    1SOL    HW2 1306   1.268   0.980   0.829  0.7556 -0.1512  0.3097
    1SOL    HW3 1307   1.202   0.847   0.802 -0.3259  0.6728 -1.1308
    1SOL    MW4 1308   1.267   0.903   0.790  0.2024  0.2196 -0.4087
    1SOL     OW 1309   1.276   1.168   0.888 -0.0005  0.1904  0.1350
    1SOL    HW2 1310   1.348   1.197   0.832  0.8771 -0.0344  1.1412
    1SOL    HW3 1311   1.199   1.211   0.851  0.6473  0.4829 -0.9147
    1SOL    MW4 1312   1.275   1.177   0.876  0.2009  0.1993  0.1292
    1SOL     OW 1313   1.530   1.211   0.715 -0.3427 -0.4147  0.0949
    1SOL    HW2 1314   1.543   1.303   0.690  1.5418 -0.4559  0.8760
    1SOL    HW3 1315   1.533   1.163   0.632  0.1997  0.0526 -0.1577
    1SOL    MW4 1316   1.532   1.217   0.700 -0.0224 -0.3586  0.1646
    1SOL     OW 1317   1.610   1.696   0.819  0.0265  0.4198 -0.3753
    1SOL    HW2 1318   1.529   1.690   0.769 -0.9802  1.4043  1.0899
    1SOL    HW3 1319   1.594   1.643   0.898  0.4173  1.4350  0.4075
    1SOL    MW4 1320   1.598   1.688   0.823 -0.0546  0.6835 -0.0787
    1SOL     OW 1321   1.339   1.707   0.713 -0.7402 -0.6309  0.0013
    1SOL    HW2 1322   1.353   1.784   0.769 -0.7013  0.3295 -1.2926
    1SOL    HW3 1323   1.268   1.659   0.755  1.5529 -1.7904  2.7860
    1SOL    MW4 1324   1.332   1.711   0.726 -0.4325 -0.6572  0.1981
    1SOL     OW 1325   1.356   1.947   0.862 -0.0348 -0.4040 -0.0452
    1SOL    HW2 1326   1.351   1.939   0.957 -0.4112 -1.1194 -0.1207
    1SOL    HW3 1327   1.275   1.992   0.837  0.3361  0.3119  0.0236
    1SOL    MW4 1328   1.344   1.952   0.871 -0.0354 -0.4039 -0.0461
    1SOL     OW 1329   1.588   2.107   0.788 -0.2018  0.1472 -0.1605
    1SOL    HW2 1330   1.522   2.054   0.833  0.5688 -0.3157  0.4568
    1SOL    HW3 1331   1.567   2.098   0.695 -0.4497 -0.7647 -0.0245
    1SOL    MW4 1332   1.577   2.099   0.782 -0.1329 -0.0343 -0.0610
    1SOL     OW 1333   1.558   2.371   0.848  0.1254  0.1606 -0.5243
    1SOL    HW2 1334   1.472   2.405   0.826  0.8236  1.2963 -1.5257
    1SOL    HW3 1335   1.553   2.278   0.827 -0.8359  0.2274 -0.6048
    1SOL    MW4 1336   1.546   2.363   0.842  0.0907  0.3192 -0.6670
    1SOL     OW 1337   1.293   2.427   0.761  0.0464  0.2366  0.0579
    1SOL    HW2 1338   1.302   2.520   0.783  0.7106  0.1257  0.2499
    1SOL    HW3 1339   1.313   2.423   0.667 -0.2372  0.3248 -0.0070
    1SOL    MW4 1340   1.297   2.439   0.751  0.0966  0.2337  0.0746
    1SOL     OW 1341   1.348   2.683   0.837  0.1716  0.3095  0.1648
    1SOL    HW2 1342   1.342   2.702   0.931 -0.7423 -1.2418  0.4494
    1SOL    HW3 1343   1.282   2.738   0.797 -1.2613 -0.9425  0.7592
    1SOL    MW4 1344   1.339   2.693   0.844 -0.1379 -0.0603  0.2808
    1SOL     OW 1345   1.600   2.811   0.745 -0.1085 -0.1442  0.1938
    1SOL    HW2 1346   1.583   2.905   0.752  1.4050  0.1968 -0.3686
    1SOL    HW3 1347   1.524   2.769   0.784 -1.1634  1.3082 -0.2778
    1SOL    MW4 1348   1.588   2.818   0.751 -0.0482  0.0925  0.0575
    1SOL     OW 1349   1.586   3.081   0.829  0.2271 -0.1266  0.2036
    1SOL    HW2 1350   1.591   3.063   0.923 -0.6710  0.8052  0.4348
    1SOL    HW3 1351   1.503   3.126   0.817 -0.5224 -1.8557 -1.3313
    1SOL    MW4 1352   1.576   3.085   0.839  0.0098 -0.2320  0.0315
    1SOL     OW 1353   1.337   3.230   0.806  0.6692 -0.3128  0.3956
    1SOL    HW2 1354   1.274   3.165   0.835  1.4718 -1.7368 -0.9904
    1SOL    HW3 1355   1.315   3.246   0.714  1.0622  0.6896  0.4669
    1SOL    MW4 1356   1.326   3.224   0.798  0.8270 -0.3684  0.2221
    1SOL     OW 1357   1.337   3.498   0.865  0.1553 -0.9593  0.2096
    1SOL    HW2 1358   1.412   3.537   0.821  0.4302 -1.2722  0.3906
    1SOL    HW3 1359   1.333   3.409   0.831 -0.3381 -0.8387 -0.0457
    1SOL    MW4 1360   1.347   3.491   0.855  0.1265 -0.9849  0.1997
    1SOL     OW 1361   1.561   3.594   0.734  0.0374  0.1134  0.2307
    1SOL    HW2 1362   1.639   3.544   0.757  0.7442  0.9759 -0.2357
    1SOL    HW3 1363   1.547   3.574   0.642  0.5340  1.0243 -0.0548
    1SOL    MW4 1364   1.570   3.585   0.725  0.1962  0.3474  0.1315
    1SOL     OW 1365   1.548   3.824   0.909 -0.7416 -0.0273 -0.4126
    1SOL    HW2 1366   1.482   3.880   0.868 -0.4744 -0.2533 -1.1581
    1SOL    HW3 1367   1.536   3.739   0.868 -0.6652 -0.3289  0.1945
    1SOL    MW4 1368   1.538   3.820   0.898 -0.6963 -0.0968 -0.4309
    1SOL     OW 1369   1.334   3.982   0.805  0.0443 -0.0698  0.0625
    1SOL    HW2 1370   1.267   3.921   0.835  0.6099 -0.5707  0.3090
    1SOL    HW3 1371   1.320   3.987   0.710 -0.9959  0.6214  0.2381
    1SOL    MW4 1372   1.323   3.975   0.797 -0.0182 -0.0446  0.1181
    1SOL     OW 1373   1.299   4.254   0.876 -0.3398 -0.5721  0.4262
    1SOL    HW2 1374   1.376   4.304   0.849 -0.9349 -0.3239 -0.8644
    1SOL    HW3 1375   1.320   4.164   0.851 -0.7210 -0.4053 -0.5303
    1SOL    MW4 1376   1.312   4.249   0.869 -0.4686 -0.5174  0.1296
    1SOL     OW 1377   1.529   4.383   0.810 -0.1061  0.0739  0.5313
    1SOL    HW2 1378   1.618   4.350   0.822  0.8585  2.2839 -0.2429
    1SOL    HW3 1379   1.534   4.476   0.834 -2.6529 -0.2134  2.3494
    1SOL    MW4 1380   1.542   4.391   0.815 -0.3147  0.3276  0.6690
    1SOL     OW 1381   2.117   0.084   0.877  0.2102  0.4149 -0.4021
    1SOL    HW2 1382   2.195   0.030   0.863  0.2941  0.5061 -0.2888
    1SOL    HW3 1383   2.062   0.068   0.800 -0.6230 -1.3079  0.5215
    1SOL    MW4 1384   2.120   0.075   0.865  0.1113  0.1996 -0.2652
    1SOL     OW 1385   1.723   0.109   0.723 -0.0985  0.4609 -0.0858
    1SOL    HW2 1386   1.805   0.065   0.702 -0.4542  0.5005 -1.6635
    1SOL    HW3 1387   1.676   0.047   0.780  1.2555  0.6962  1.3007
    1SOL    MW4 1388   1.727   0.095   0.727  0.0331  0.4971 -0.1109
    1SOL     OW 1389   1.749   0.360   0.830  0.1827 -0.2791 -0.0238
    1SOL    HW2 1390   1.739   0.269   0.800 -0.0356  0.1692 -1.3589
    1SOL    HW3 1391   1.833   0.388   0.794  0.0744  0.1668  0.0731
    1SOL    MW4 1392   1.758   0.352   0.821  0.1396 -0.1611 -0.1872
    1SOL     OW 1393   1.989   0.455   0.751  0.0767  0.3598  0.3068
    1SOL    HW2 1394   2.071   0.410   0.772  0.0299 -0.5741 -1.4464
    1SOL    HW3 1395   2.005   0.498   0.667 -0.5984  1.8528  0.9154
    1SOL    MW4 1396   2.002   0.455   0.743 -0.0184  0.4335  0.1557
    1SOL     OW 1397   2.038   0.697   0.887 -0.0594  0.1897  0.7435
    1SOL    HW2 1398   2.122   0.717   0.846 -0.4756  1.5740  0.5497
    1SOL    HW3 1399   2.011   0.614   0.848  1.2836 -0.3355  0.9205
    1SOL    MW4 1400   2.046   0.689   0.877  0.0629  0.3031  0.7412
    1SOL     OW 1401   1.780   0.857   0.836 -0.0633 -0.1516  0.2188
    1SOL    HW2 1402   1.774   0.952   0.850  1.5304  0.0495 -0.3999
    1SOL    HW3 1403   1.871   0.836   0.856 -0.5176 -1.6280  0.7681
    1SOL    MW4 1404   1.791   0.867   0.841  0.0870 -0.3199  0.2097
    1SOL     OW 1405   1.751   1.121   0.871 -0.0261  0.2081 -0.2372
    1SOL    HW2 1406   1.821   1.166   0.825  0.6197 -1.4466 -0.9173
    1SOL    HW3 1407   1.671   1.154   0.831  0.3739  1.7781  0.2364
    1SOL    MW4 1408   1.750   1.131   0.860  0.1118  0.1971 -0.2644
    1SOL     OW 1409   1.961   1.245   0.738 -0.3490 -0.4676  0.2207
    1SOL    HW2 1410   2.027   1.182   0.769  1.4406  1.8686  1.2611
    1SOL    HW3 1411   1.970   1.244   0.643 -0.6417 -2.0642  0.1856
    1SOL    MW4 1412   1.971   1.236   0.730 -0.1515 -0.3701  0.3534
    1SOL     OW 1413   1.943   1.473   0.861 -0.0323 -0.1050  0.2181
    1SOL    HW2 1414   2.028   1.513   0.843  0.9028 -1.3306  1.8213
    1SOL    HW3 1415   1.951   1.384   0.827 -0.7657 -0.1527  0.1607
    1SOL    MW4 1416   1.956   1.467   0.854 -0.0056 -0.2730  0.4221
    1SOL     OW 1417   1.950   1.691   0.413 -0.3158  0.3105  0.1106
    1SOL    HW2 1418   1.919   1.640   0.487  0.3143  1.3171  1.0940
    1SOL    HW3 1419   1.910   1.777   0.424 -1.0792  0.1627 -1.3259
    1SOL    MW4 1420   1.941   1.696   0.424 -0.3333  0.4239  0.0508
    1SOL     OW 1421   1.778   1.919   0.861  0.2646  0.1173 -0.7193
    1SOL    HW2 1422   1.729   1.837   0.850 -0.0866 -0.3286  3.5134
    1SOL    HW3 1423   1.711   1.987   0.851  0.3150 -0.1203 -2.9365
    1SOL    MW4 1424   1.762   1.917   0.858  0.2249  0.0272 -0.4534
    1SOL     OW 1425   1.990   2.031   0.729  0.0574  0.2760  0.1650
    1SOL    HW2 1426   2.007   2.117   0.766  2.3974 -0.5230  1.0269
    1SOL    HW3 1427   1.918   1.996   0.782  0.6289  0.7748  1.2732
    1SOL    MW4 1428   1.982   2.038   0.741  0.4414  0.2363  0.4249
    1SOL     OW 1429   2.053   2.293   0.785  0.2800  0.5781  0.1040
    1SOL    HW2 1430   2.044   2.301   0.880 -2.5526 -0.2979 -0.0575
    1SOL    HW3 1431   1.980   2.343   0.749  0.0966 -0.8518 -1.5742
    1SOL    MW4 1432   2.042   2.301   0.793 -0.1178  0.2735 -0.1387
    1SOL     OW 1433   1.817   2.445   0.769 -0.1699  0.0396  0.0074
    1SOL    HW2 1434   1.737   2.414   0.811  0.5209 -0.2420  1.1040
    1SOL    HW3 1435   1.798   2.439   0.675 -1.1311 -0.8158  0.2506
    1SOL    MW4 1436   1.804   2.440   0.762 -0.2056 -0.1104  0.1843
    1SOL     OW 1437   1.816   2.704   0.864 -0.0739 -0.4002  0.0776
    1SOL    HW2 1438   1.826   2.616   0.827 -1.1673 -0.6399  0.3339
    1SOL    HW3 1439   1.740   2.741   0.819  0.3115  0.3764  0.0487
    1SOL    MW4 1440   1.808   2.697   0.853 -0.1674 -0.3295  0.1076
    1SOL     OW 1441   1.991   2.854   0.724  0.1626 -0.1560 -0.2724
    1SOL    HW2 1442   2.077   2.815   0.743  0.2586 -0.1068 -0.5927
    1SOL    HW3 1443   1.930   2.805   0.778  0.3864 -0.2387 -0.0928
    1SOL    MW4 1444   1.995   2.843   0.733  0.2048 -0.1605 -0.2910
    1SOL     OW 1445   2.019   3.108   0.866 -0.1931 -0.2953 -0.1591
    1SOL    HW2 1446   1.956   3.163   0.819 -2.5031 -1.2679  1.6629
    1SOL    HW3 1447   2.008   3.021   0.828 -0.6316 -0.6628  0.7908
    1SOL    MW4 1448   2.009   3.104   0.855 -0.5555 -0.4721  0.2066
    1SOL     OW 1449   1.804   3.239   0.745 -0.0465 -0.1669  0.0397
    1SOL    HW2 1450   1.724   3.195   0.775  0.0109  0.3487  0.9949
    1SOL    HW3 1451   1.816   3.210   0.655  0.3166 -2.5656  0.8331
    1SOL    MW4 1452   1.795   3.229   0.737  0.0091 -0.4156  0.2704
    1SOL     OW 1453   1.815   3.498   0.833  0.8057 -0.1010 -0.3751
    1SOL    HW2 1454   1.815   3.507   0.928  1.5574  0.4212 -0.4129
    1SOL    HW3 1455   1.807   3.404   0.817  1.1876 -0.2346  0.2149
    1SOL    MW4 1456   1.814   3.487   0.843  0.9552 -0.0496 -0.3023
    1SOL     OW 1457   2.062   3.632   0.758  0.4242  0.0051  0.0234
    1SOL    HW2 1458   2.065   3.725   0.781 -1.8817  0.1262 -0.1071
    1SOL    HW3 1459   1.998   3.595   0.818 -0.0298 -1.1564 -1.1708
    1SOL    MW4 1460   2.054   3.640   0.769  0.0601 -0.1318 -0.1513
    1SOL     OW 1461   2.059   3.892   0.841  0.0503  0.5848  0.7555
    1SOL    HW2 1462   2.057   3.889   0.937 -0.1125  1.8798  0.7990
    1SOL    HW3 1463   1.983   3.945   0.817  1.2241  1.9528 -0.0011
    1SOL    MW4 1464   2.049   3.899   0.850  0.1838  0.9360  0.6614
    1SOL     OW 1465   1.751   3.994   0.791  0.7650 -0.1486  0.1164
    1SOL    HW2 1466   1.690   3.923   0.810  0.8271 -0.2795 -0.1627
    1SOL    HW3 1467   1.748   4.003   0.695 -0.6539  1.4902  0.3039
    1SOL    MW4 1468   1.743   3.985   0.781  0.5859  0.0503  0.1044
    1SOL     OW 1469   1.780   4.258   0.857 -0.3688 -0.3306 -0.3389
    1SOL    HW2 1470   1.785   4.253   0.953 -0.4956  1.2491 -0.2344
    1SOL    HW3 1471   1.753   4.170   0.830  0.1202 -0.9215  1.0421
    1SOL    MW4 1472   1.777   4.246   0.866 -0.3210 -0.1998 -0.1429
    1SOL     OW 1473   2.012   4.361   0.775 -0.3266  0.0183  1.0543
    1SOL    HW2 1474   1.942   4.317   0.822 -0.5310 -0.6732  0.1107
    1SOL    HW3 1475   2.011   4.322   0.687 -0.4653  1.8260  0.2250
    1SOL    MW4 1476   2.003   4.350   0.769 -0.3719  0.1659  0.8203
    1SOL     OW 1477   2.363   4.590   0.894  0.6946 -0.1623 -0.1772
    1SOL    HW2 1478   2.321   4.504   0.893 -2.0353  1.1140 -0.0035
    1SOL    HW3 1479   2.377   4.609   0.987  1.1787 -0.3360 -0.2104
    1SOL    MW4 1480   2.360   4.581   0.906  0.3982 -0.0167 -0.1587
    1SOL     OW 1481   2.330   0.104   0.534 -0.3014  0.2526  0.3187
    1SOL    HW2 1482   2.411   0.060   0.509 -0.9276 -0.8596  0.2191
    1SOL    HW3 1483   2.343   0.127   0.627 -0.0452 -0.3005  0.4214
    1SOL    MW4 1484   2.342   0.101   0.543 -0.3502  0.0329  0.3191
    1SOL     OW 1485   2.229   0.328   0.850  0.0329  0.6843 -0.0673
    1SOL    HW2 1486   2.315   0.300   0.819  0.0448 -0.0800  0.6331
    1SOL    HW3 1487   2.180   0.246   0.862 -0.5584  1.0711  0.2207
    1SOL    MW4 1488   2.234   0.313   0.848 -0.0434  0.6345  0.0632
    1SOL     OW 1489   2.487   0.280   0.756  0.2965  0.4052 -0.4574
    1SOL    HW2 1490   2.481   0.327   0.674  2.5955  0.0813 -0.8518
    1SOL    HW3 1491   2.530   0.341   0.816  0.8987 -0.2227 -0.2343
    1SOL    MW4 1492   2.492   0.294   0.753  0.6795  0.2796 -0.4800
    1SOL     OW 1493   2.514   0.714   0.833 -0.0855 -0.1809 -0.1555
    1SOL    HW2 1494   2.578   0.764   0.783 -1.1597  1.3676 -0.0229
    1SOL    HW3 1495   2.552   0.627   0.840  1.8790  0.6229 -0.3268
    1SOL    MW4 1496   2.528   0.709   0.828  0.0319  0.1294 -0.1606
    1SOL     OW 1497   2.275   0.856   0.761  0.4558  0.4494 -0.2202
    1SOL    HW2 1498   2.352   0.827   0.810  0.3995 -0.0757 -0.4436
    1SOL    HW3 1499   2.276   0.803   0.681 -1.7563 -1.6238  1.0791
    1SOL    MW4 1500   2.286   0.845   0.757  0.1566  0.1066 -0.0781
    1SOL     OW 1501   2.178   1.108   0.826 -0.0177  0.4424  0.4320
    1SOL    HW2 1502   2.207   1.115   0.917 -0.4335 -0.5661  0.6461
    1SOL    HW3 1503   2.219   1.029   0.793  0.6102  1.1271 -0.4498
    1SOL    MW4 1504   2.187   1.099   0.834  0.0105  0.3997  0.3439
    1SOL     OW 1505   2.392   1.267   0.744 -0.2582 -0.0992 -0.3040
    1SOL    HW2 1506   2.316   1.214   0.767 -1.0111  1.1968  0.2059
    1SOL    HW3 1507   2.385   1.282   0.650 -0.1578 -0.7070 -0.4109
    1SOL    MW4 1508   2.381   1.262   0.735 -0.3443 -0.0083 -0.2508
    1SOL     OW 1509   2.405   1.503   0.896  0.1152  0.0923  0.0909
    1SOL    HW2 1510   2.481   1.539   0.851  1.1414 -0.5599  1.2820
    1SOL    HW3 1511   2.388   1.420   0.852  0.8385 -0.3302  0.6069
    1SOL    MW4 1512   2.413   1.497   0.884  0.3459 -0.0495  0.3161
    1SOL     OW 1513   2.187   1.624   0.779  0.8899  0.0167 -0.2159
    1SOL    HW2 1514   2.254   1.581   0.833 -0.4651 -1.4063  0.3517
    1SOL    HW3 1515   2.187   1.574   0.698  1.1256  0.5773 -0.5656
    1SOL    MW4 1516   2.196   1.612   0.776  0.7422 -0.0972 -0.1872
    1SOL     OW 1517   2.216   1.898   0.803  0.4472  0.0120 -0.3353
    1SOL    HW2 1518   2.199   1.806   0.780  0.2473 -0.4596  1.6639
    1SOL    HW3 1519   2.140   1.946   0.770  1.3434 -0.2602 -2.9481
    1SOL    MW4 1520   2.204   1.892   0.795  0.5393 -0.0862 -0.4162
    1SOL     OW 1521   2.447   2.099   0.735  0.3082 -0.4008 -0.1583
    1SOL    HW2 1522   2.379   2.036   0.758  0.8943 -1.1127 -0.3511
    1SOL    HW3 1523   2.425   2.126   0.646  0.3532 -0.7367 -0.2720
    1SOL    MW4 1524   2.435   2.094   0.726  0.3917 -0.5391 -0.1988
    1SOL     OW 1525   2.466   2.356   0.873 -0.0900  0.0716  0.1111
    1SOL    HW2 1526   2.553   2.389   0.850 -0.1042  0.3306  0.4190
    1SOL    HW3 1527   2.466   2.265   0.843 -0.2773  0.5352 -1.3358
    1SOL    MW4 1528   2.478   2.348   0.866 -0.1168  0.1669 -0.0392
    1SOL     OW 1529   2.263   2.471   0.748  0.0895  0.2219 -0.2420
    1SOL    HW2 1530   2.337   2.433   0.794  0.3338  0.0253 -0.7912
    1SOL    HW3 1531   2.191   2.410   0.763  0.1068  0.2831  0.0826
    1SOL    MW4 1532   2.263   2.458   0.756  0.1240  0.2041 -0.2717
    1SOL     OW 1533   2.252   2.755   0.826 -0.4275 -0.0885 -0.1890
    1SOL    HW2 1534   2.257   2.756   0.922 -0.3677  0.7538 -0.2033
    1SOL    HW3 1535   2.273   2.664   0.802  1.4954  0.1606  0.4873
    1SOL    MW4 1536   2.255   2.743   0.836 -0.1659  0.0556 -0.1017
    1SOL     OW 1537   2.493   2.867   0.728 -0.5169  0.3777  0.3871
    1SOL    HW2 1538   2.555   2.799   0.756  0.9825  1.4681 -0.1716
    1SOL    HW3 1539   2.409   2.840   0.765  0.4287 -0.7832  1.7724
    1SOL    MW4 1540   2.490   2.855   0.737 -0.1941  0.3688  0.4962
    1SOL     OW 1541   2.512   3.107   0.885 -0.2385  0.6146  0.2103
    1SOL    HW2 1542   2.529   3.089   0.977 -1.4439  0.3261  0.3871
    1SOL    HW3 1543   2.502   3.020   0.845  1.3495  0.7104 -0.4035
    1SOL    MW4 1544   2.513   3.093   0.892 -0.1884  0.5891  0.1526
    1SOL     OW 1545   2.279   3.253   0.775 -0.2307  0.2724 -0.1966
    1SOL    HW2 1546   2.191   3.221   0.797 -0.2643  0.6429  0.2264
    1SOL    HW3 1547   2.338   3.184   0.807 -0.4701 -1.2475 -2.8751
    1SOL    MW4 1548   2.275   3.239   0.782 -0.2668  0.1206 -0.4941
    1SOL     OW 1549   2.294   3.520   0.867  0.2233 -0.3606 -0.4824
    1SOL    HW2 1550   2.302   3.425   0.857 -0.9049 -0.3522 -1.7529
    1SOL    HW3 1551   2.228   3.545   0.802  1.0266  1.3918 -0.6617
    1SOL    MW4 1552   2.286   3.511   0.857  0.1805 -0.1285 -0.6737
    1SOL     OW 1553   2.502   3.673   0.787  0.2187 -0.4823  0.0174
    1SOL    HW2 1554   2.581   3.620   0.793  0.3669 -0.3266 -0.5336
    1SOL    HW3 1555   2.431   3.615   0.814  0.4263 -0.8528 -0.2405
    1SOL    MW4 1556   2.503   3.659   0.791  0.2654 -0.5107 -0.0894
    1SOL     OW 1557   2.500   3.944   0.852  0.0824  0.7305  0.2261
    1SOL    HW2 1558   2.432   3.991   0.805  0.3998  0.9125 -0.0558
    1SOL    HW3 1559   2.485   3.852   0.830 -1.3781  0.5499  1.8725
    1SOL    MW4 1560   2.489   3.938   0.843 -0.0687  0.7305  0.4061
    1SOL     OW 1561   2.271   4.031   0.711  0.0272 -0.3563 -0.4155
    1SOL    HW2 1562   2.213   3.983   0.770 -0.6843 -0.3109 -1.0586
    1SOL    HW3 1563   2.236   4.013   0.624  2.2370 -1.9769 -0.9822
    1SOL    MW4 1564   2.259   4.023   0.708  0.2248 -0.5636 -0.5751
    1SOL     OW 1565   2.265   4.330   0.873  0.3458  0.3381  0.0549
    1SOL    HW2 1566   2.329   4.291   0.814 -1.1106 -0.1484 -1.2147
    1SOL    HW3 1567   2.188   4.345   0.819 -0.7823  0.4962  1.6815
    1SOL    MW4 1568   2.263   4.327   0.858  0.0048  0.2942  0.1020
    1SOL     OW 1569   2.638   4.204   0.974  0.4093  0.3906  0.0612
    1SOL    HW2 1570   2.668   4.216   1.064 -1.0462  0.8920  0.4952
    1SOL    HW3 1571   2.598   4.117   0.973  1.7774 -0.2569 -0.5043
    1SOL    MW4 1572   2.637   4.194   0.985  0.3977  0.3715  0.0439
    1SOL     OW 1573   2.695   0.086   0.854  0.1522 -0.1656  0.3403
    1SOL    HW2 1574   2.645   0.007   0.831  1.0291 -0.2253 -1.4362
    1SOL    HW3 1575   2.632   0.157   0.846 -0.1364 -0.4594 -0.0573
    1SOL    MW4 1576   2.680   0.085   0.850  0.2298 -0.2122  0.0535
    1SOL     OW 1577   2.590   4.513   0.755  0.3035 -0.3697  0.0004
    1SOL    HW2 1578   2.509   4.534   0.803 -0.3919 -0.3665 -1.1403
    1SOL    HW3 1579   2.570   4.535   0.664  1.2335 -1.3631 -0.4622
    1SOL    MW4 1580   2.576   4.518   0.749  0.3345 -0.5002 -0.2112
    1SOL     OW 1581   2.647   0.472   0.873  0.1843 -0.1017  0.1178
    1SOL    HW2 1582   2.644   0.436   0.962  1.4189  0.4465  0.3938
    1SOL    HW3 1583   2.741   0.483   0.855 -0.0918  0.6565 -0.8998
    1SOL    MW4 1584   2.659   0.469   0.882  0.3107  0.0707  0.0200
    1SOL     OW 1585   2.908   0.549   0.771  0.1389  0.0095  0.1625
    1SOL    HW2 1586   2.963   0.480   0.807 -1.6364 -1.6044 -0.1247
    1SOL    HW3 1587   2.884   0.517   0.683  0.1452  1.4730 -0.3864
    1SOL    MW4 1588   2.912   0.536   0.764 -0.0949 -0.0104  0.0522
    1SOL     OW 1589   2.895   0.817   0.858 -0.2380  0.3656 -0.0979
    1SOL    HW2 1590   2.865   0.799   0.947 -0.2686  1.3615  0.0995
    1SOL    HW3 1591   2.908   0.731   0.819  0.8396 -0.0861  1.2234
    1SOL    MW4 1592   2.893   0.803   0.864 -0.1001  0.4373  0.1025
    1SOL     OW 1593   2.683   0.876   0.676  0.1773 -0.5272  0.1225
    1SOL    HW2 1594   2.757   0.873   0.737 -0.3282 -0.0948  0.7584
    1SOL    HW3 1595   2.723   0.893   0.591  1.0961 -3.1608 -0.0273
    1SOL    MW4 1596   2.698   0.877   0.673  0.2320 -0.8176  0.1866
    1SOL     OW 1597   2.653   1.120   0.832  0.5952  0.8940  0.6096
    1SOL    HW2 1598   2.638   1.031   0.802  1.1347  0.8482  0.4823
    1SOL    HW3 1599   2.580   1.170   0.795  0.2152  0.4825  0.7987
    1SOL    MW4 1600   2.641   1.115   0.823  0.6163  0.8336  0.6177
    1SOL     OW 1601   2.875   1.299   0.792 -0.1194  0.4181 -0.3758
    1SOL    HW2 1602   2.960   1.260   0.813 -0.5076 -0.7563 -0.9348
    1SOL    HW3 1603   2.811   1.230   0.811 -0.9972  1.4387  0.4590
    1SOL    MW4 1604   2.878   1.284   0.797 -0.2866  0.3977 -0.3394
    1SOL     OW 1605   2.848   1.567   0.844  0.1324 -0.0242  0.0382
    1SOL    HW2 1606   2.912   1.614   0.790 -1.0217 -0.5502 -1.8093
    1SOL    HW3 1607   2.870   1.475   0.831 -1.0344 -0.2081 -0.6491
    1SOL    MW4 1608   2.859   1.561   0.835 -0.1738 -0.1179 -0.2962
    1SOL     OW 1609   2.595   1.616   0.744  0.1425  0.3331 -0.0353
    1SOL    HW2 1610   2.597   1.711   0.751 -0.4313  0.2265  2.2219
    1SOL    HW3 1611   2.682   1.588   0.773  0.0458  0.1448  0.0746
    1SOL    MW4 1612   2.606   1.624   0.749  0.0539  0.2941  0.2770
    1SOL     OW 1613   2.650   1.897   0.776  0.4170  0.0293  0.2007
    1SOL    HW2 1614   2.670   1.896   0.870 -1.8650 -0.4590  0.7202
    1SOL    HW3 1615   2.590   1.971   0.765 -1.5986 -1.6275 -0.3215
    1SOL    MW4 1616   2.645   1.906   0.787 -0.1500 -0.2537  0.2003
    1SOL     OW 1617   2.837   1.938   0.570  0.6048  0.0548  0.0795
    1SOL    HW2 1618   2.887   2.011   0.607  2.9368 -1.4457 -0.0199
    1SOL    HW3 1619   2.775   1.914   0.639  1.0398  0.9539  0.7976
    1SOL    MW4 1620   2.835   1.945   0.584  0.9696 -0.0247  0.1611
    1SOL     OW 1621   2.979   2.353   0.858 -0.1389 -0.2081 -0.1778
    1SOL    HW2 1622   2.975   2.353   0.954  1.2244 -1.8039 -0.1019
    1SOL    HW3 1623   2.893   2.385   0.831 -1.0404 -1.0409  1.5821
    1SOL    MW4 1624   2.967   2.357   0.867 -0.0780 -0.5288  0.0644
    1SOL     OW 1625   2.713   2.438   0.779 -0.2165  0.1809  0.1810
    1SOL    HW2 1626   2.704   2.420   0.685  1.9154 -0.3226  0.0448
    1SOL    HW3 1627   2.706   2.533   0.785  1.0280  0.3449 -0.6840
    1SOL    MW4 1628   2.711   2.448   0.767  0.2289  0.1361  0.0489
    1SOL     OW 1629   2.696   2.712   0.829 -0.2647  0.2554 -0.1701
    1SOL    HW2 1630   2.691   2.688   0.922 -0.6359 -1.0161 -0.4985
    1SOL    HW3 1631   2.779   2.758   0.821  1.2151 -2.2082  0.2658
    1SOL    MW4 1632   2.706   2.715   0.841 -0.1180 -0.2372 -0.1559
    1SOL     OW 1633   2.874   2.822   0.514  0.5172 -0.0205 -0.2821
    1SOL    HW2 1634   2.875   2.728   0.494 -0.8492 -0.5392  1.9569
    1SOL    HW3 1635   2.784   2.849   0.498  0.6008  0.6308  0.3281
    1SOL    MW4 1636   2.862   2.813   0.509  0.3479 -0.0031  0.0938
    1SOL     OW 1637   2.958   3.150   0.871  0.0410  0.1568  0.1951
    1SOL    HW2 1638   2.877   3.189   0.838 -0.0386  0.9155  1.2548
    1SOL    HW3 1639   2.943   3.056   0.867 -0.4844  0.2681 -0.6072
    1SOL    MW4 1640   2.945   3.143   0.866 -0.0386  0.2716  0.2290
    1SOL     OW 1641   2.714   3.235   0.748  0.1947  0.2928  0.4066
    1SOL    HW2 1642   2.711   3.330   0.762  0.8341  0.2452  0.8681
    1SOL    HW3 1643   2.641   3.201   0.800 -0.5266  0.6020 -0.3846
    1SOL    MW4 1644   2.704   3.243   0.757  0.1838  0.3273  0.3631
    1SOL     OW 1645   2.724   3.494   0.828  0.1442 -0.4317 -0.2678
    1SOL    HW2 1646   2.710   3.479   0.921  1.2554 -0.3135 -0.0815
    1SOL    HW3 1647   2.805   3.544   0.823 -0.9444  1.3053 -1.1923
    1SOL    MW4 1648   2.733   3.499   0.839  0.1473 -0.1872 -0.3651
    1SOL     OW 1649   2.964   3.644   0.797  0.1257 -0.1154 -0.5180
    1SOL    HW2 1650   2.960   3.735   0.826  0.6699 -0.5675  1.0232
    1SOL    HW3 1651   2.970   3.649   0.701  0.6417  1.4743 -0.4098
    1SOL    MW4 1652   2.964   3.656   0.788  0.2656  0.0348 -0.3004
    1SOL     OW 1653   2.916   3.902   0.873 -0.3516 -0.1738  0.1863
    1SOL    HW2 1654   2.882   3.903   0.963  1.6143  1.6189  0.9531
    1SOL    HW3 1655   2.847   3.944   0.821 -1.2895 -0.7634  0.9249
    1SOL    MW4 1656   2.902   3.908   0.878 -0.2160 -0.0150  0.3849
    1SOL     OW 1657   2.717   4.041   0.723  0.0355 -0.5219  0.2502
    1SOL    HW2 1658   2.638   4.007   0.765 -0.6582  0.2904 -0.3791
    1SOL    HW3 1659   2.695   4.044   0.630  0.1933  1.3535  0.2651
    1SOL    MW4 1660   2.704   4.037   0.716 -0.0350 -0.1669  0.1691
    1SOL     OW 1661   2.885   4.399   0.821 -0.0113  0.2188 -0.1279
    1SOL    HW2 1662   2.956   4.446   0.777  1.6241 -2.6999 -0.7662
    1SOL    HW3 1663   2.912   4.394   0.913  0.5018 -0.6463 -0.3186
    1SOL    MW4 1664   2.898   4.405   0.827  0.2723 -0.2809 -0.2372
    1SOL     OW 1665   3.063   4.548   0.682 -0.6352  0.4202 -0.1190
    1SOL    HW2 1666   3.037   4.636   0.655  2.6563  0.7936 -2.4584
    1SOL    HW3 1667   3.138   4.562   0.740  0.1448 -0.8379 -0.7951
    1SOL    MW4 1668   3.070   4.561   0.686 -0.0980  0.3033 -0.5168
    1SOL     OW 1669   3.279   4.586   0.855  0.0336 -0.2497  0.1421
    1SOL    HW2 1670   3.304   4.586   0.948  0.6406 -1.4298 -0.0127
    1SOL    HW3 1671   3.291   4.495   0.828 -2.1606 -0.3351 -0.5569
    1SOL    MW4 1672   3.284   4.574   0.864 -0.1757 -0.4172  0.0294
    1SOL     OW 1673   3.205   0.149   0.717 -0.0584  0.2299  0.4433
    1SOL    HW2 1674   3.174   0.216   0.777 -1.1216 -0.0762  0.2436
    1SOL    HW3 1675   3.235   0.078   0.774 -1.0849 -0.0683  0.6296
    1SOL    MW4 1676   3.205   0.148   0.732 -0.3340  0.1502  0.4415
    1SOL     OW 1677   3.111   0.382   0.876  0.4449  0.4735  0.2285
    1SOL    HW2 1678   3.112   0.370   0.971  0.6044  0.6786  0.2526
    1SOL    HW3 1679   3.193   0.427   0.857  0.8184 -0.3505 -0.1147
    1SOL    MW4 1680   3.122   0.386   0.886  0.5155  0.3918  0.1863
    1SOL     OW 1681   3.338   0.561   0.835  0.3734 -0.0635 -0.2994
    1SOL    HW2 1682   3.414   0.503   0.836 -0.4988 -1.2878 -2.3631
    1SOL    HW3 1683   3.320   0.575   0.743 -2.1266 -0.0619  0.1721
    1SOL    MW4 1684   3.346   0.555   0.823 -0.0715 -0.2248 -0.5095
    1SOL     OW 1685   3.399   0.819   0.864  0.0639 -0.1405  0.3488
    1SOL    HW2 1686   3.312   0.848   0.839 -0.6356 -0.2341  2.5724
    1SOL    HW3 1687   3.394   0.723   0.863 -0.4505 -0.1481  2.3870
    1SOL    MW4 1688   3.387   0.810   0.860 -0.0963 -0.1538  0.9111
    1SOL     OW 1689   3.143   0.942   0.804  0.1183  0.3410 -0.4383
    1SOL    HW2 1690   3.149   1.033   0.834 -0.5866 -0.0858  1.0408
    1SOL    HW3 1691   3.067   0.907   0.849  0.2219 -0.9111 -1.2158
    1SOL    MW4 1692   3.134   0.950   0.814  0.0389  0.1195 -0.3457
    1SOL     OW 1693   3.138   1.218   0.851 -0.1500  0.1566  0.3471
    1SOL    HW2 1694   3.158   1.228   0.944 -0.2016 -0.8341  0.4606
    1SOL    HW3 1695   3.223   1.232   0.807  0.4980 -2.4359  0.7334
    1SOL    MW4 1696   3.152   1.221   0.857 -0.0715 -0.3160  0.4131
    1SOL     OW 1697   3.364   1.272   0.701  0.5032 -0.4865  0.1359
    1SOL    HW2 1698   3.444   1.230   0.732  1.7212  1.6502 -0.0337
    1SOL    HW3 1699   3.373   1.364   0.727 -1.6257 -0.0790 -0.4138
    1SOL    MW4 1700   3.375   1.279   0.709  0.3831 -0.1508  0.0409
    1SOL     OW 1701   3.421   1.544   0.785  0.3453  0.4232  0.7388
    1SOL    HW2 1702   3.413   1.537   0.881 -0.3966  2.0071  0.8161
    1SOL    HW3 1703   3.511   1.574   0.771  0.0893  1.3350  1.0165
    1SOL    MW4 1704   3.432   1.547   0.796  0.2134  0.7526  0.7857
    1SOL     OW 1705   2.992   1.719   0.665 -0.2348  0.2673 -0.5957
    1SOL    HW2 1706   3.086   1.731   0.649  0.1795  0.4409  1.7383
    1SOL    HW3 1707   2.952   1.801   0.638  0.3214  0.3137 -1.2909
    1SOL    MW4 1708   2.999   1.731   0.659 -0.1068  0.2964 -0.3795
    1SOL     OW 1709   3.132   1.918   0.818  0.4982 -0.5388  0.1579
    1SOL    HW2 1710   3.151   1.953   0.905 -1.0095  1.3856 -0.2323
    1SOL    HW3 1711   3.076   1.843   0.835  0.3188 -0.2565  0.8682
    1SOL    MW4 1712   3.127   1.913   0.832  0.2756 -0.2477  0.2002
    1SOL     OW 1713   3.399   1.990   0.758 -0.9018 -0.1255 -0.2145
    1SOL    HW2 1714   3.415   2.075   0.800  1.5435 -0.5375 -0.2068
    1SOL    HW3 1715   3.313   1.963   0.791 -0.3595  0.9361  2.2411
    1SOL    MW4 1716   3.390   1.998   0.768 -0.5074 -0.0399  0.1106
    1SOL     OW 1717   3.432   2.252   0.845 -0.1818 -0.1259  0.1110
    1SOL    HW2 1718   3.388   2.282   0.925 -0.1203 -1.6405  0.7253
    1SOL    HW3 1719   3.522   2.284   0.854  0.1986 -1.4614  1.3211
    1SOL    MW4 1720   3.438   2.260   0.857 -0.1235 -0.5021  0.3517
    1SOL     OW 1721   3.102   2.548   0.714 -0.0350 -0.3056  0.6804
    1SOL    HW2 1722   3.185   2.511   0.683  0.3623 -0.3506  1.7755
    1SOL    HW3 1723   3.067   2.482   0.774 -1.4952 -0.8515 -0.7186
    1SOL    MW4 1724   3.108   2.534   0.717 -0.1752 -0.3834  0.6403
    1SOL     OW 1725   3.173   2.779   0.877  0.1263 -0.0688 -0.2336
    1SOL    HW2 1726   3.159   2.691   0.842  0.8891 -0.0809 -0.5137
    1SOL    HW3 1727   3.226   2.823   0.810 -1.1826  0.9586 -0.6097
    1SOL    MW4 1728   3.178   2.773   0.863  0.0544  0.0653 -0.3203
    1SOL     OW 1729   3.367   2.904   0.661 -0.1443 -0.2650  0.0698
    1SOL    HW2 1730   3.307   2.893   0.588 -0.5634  1.9842  0.0344
    1SOL    HW3 1731   3.440   2.847   0.641 -0.8878 -0.7205 -1.4195
    1SOL    MW4 1732   3.369   2.895   0.649 -0.2975 -0.0284 -0.1313
    1SOL     OW 1733   3.370   3.131   0.840  0.0170  0.2279  0.1833
    1SOL    HW2 1734   3.366   3.119   0.935  0.2820 -0.0888  0.1527
    1SOL    HW3 1735   3.372   3.043   0.804  0.3101  0.3499 -0.1004
    1SOL    MW4 1736   3.370   3.118   0.848  0.0906  0.2024  0.1419
    1SOL     OW 1737   3.143   3.259   0.709 -0.1606  0.6652  0.2829
    1SOL    HW2 1738   3.220   3.226   0.755 -0.4228 -0.3890 -0.0182
    1SOL    HW3 1739   3.069   3.233   0.765 -0.3280  1.4248  0.4296
    1SOL    MW4 1740   3.143   3.251   0.723 -0.2172  0.6263  0.2624
    1SOL     OW 1741   3.172   3.491   0.839 -0.1620 -0.1503 -0.4332
    1SOL    HW2 1742   3.157   3.408   0.794 -1.7640 -0.7937  1.2165
    1SOL    HW3 1743   3.093   3.543   0.820  0.0439  0.3231  0.0087
    1SOL    MW4 1744   3.160   3.487   0.830 -0.3462 -0.1726 -0.1573
    1SOL     OW 1745   3.401   3.638   0.800  0.2531  0.0141 -0.6614
    1SOL    HW2 1746   3.377   3.728   0.819 -0.6607  0.0948 -2.1386
    1SOL    HW3 1747   3.319   3.589   0.812  0.9516 -0.7865  1.0821
    1SOL    MW4 1748   3.387   3.643   0.804  0.2246 -0.0808 -0.6262
    1SOL     OW 1749   3.380   3.911   0.847  0.3004  0.6104  0.2820
    1SOL    HW2 1750   3.309   3.955   0.800 -0.6188  0.6595  1.7040
    1SOL    HW3 1751   3.348   3.901   0.936  1.9228  0.2459  0.8442
    1SOL    MW4 1752   3.366   3.915   0.852  0.3929  0.5691  0.5438
    1SOL     OW 1753   3.127   4.052   0.754 -0.5812  0.3132 -0.1276
    1SOL    HW2 1754   3.119   4.029   0.661 -0.9262  1.7911 -0.4761
    1SOL    HW3 1755   3.041   4.032   0.791 -0.3553 -0.5506 -0.0537
    1SOL    MW4 1756   3.115   4.046   0.746 -0.5968  0.3943 -0.1639
    1SOL     OW 1757   3.254   4.314   0.820  0.1085  0.1673 -0.5349
    1SOL    HW2 1758   3.344   4.301   0.789  0.6524 -0.7892  1.3584
    1SOL    HW3 1759   3.205   4.241   0.783  0.4159 -0.0942 -0.4310
    1SOL    MW4 1760   3.260   4.302   0.811  0.2208  0.0067 -0.2714
    1SOL     OW 1761   3.591   4.438   0.515 -0.6294 -0.3419  0.0181
    1SOL    HW2 1762   3.594   4.533   0.523 -0.7746 -0.4028  0.8538
    1SOL    HW3 1763   3.681   4.412   0.495 -0.6346 -0.0166 -0.4534
    1SOL    MW4 1764   3.603   4.447   0.513 -0.6495 -0.3071  0.0662
    1SOL     OW 1765   3.708   4.577   0.837  0.0505  0.4991 -0.0066
    1SOL    HW2 1766   3.776   4.635   0.804 -1.4272  1.8122 -0.8195
    1SOL    HW3 1767   3.628   4.630   0.835 -1.3020 -1.4944 -0.6201
    1SOL    MW4 1768   3.707   4.592   0.832 -0.3231  0.4096 -0.1948
    1SOL     OW 1769   3.525   0.149   0.734  0.0539  0.0051 -0.0069
    1SOL    HW2 1770   3.433   0.138   0.711  0.0532 -0.7585  0.3538
    1SOL    HW3 1771   3.574   0.116   0.659  0.0375 -0.0884  0.0240
    1SOL    MW4 1772   3.520   0.144   0.721  0.0515 -0.1080  0.0449
    1SOL     OW 1773   3.567   0.397   0.861  0.3315 -0.0691  0.1511
    1SOL    HW2 1774   3.564   0.369   0.953  0.0875 -1.9786 -0.4421
    1SOL    HW3 1775   3.568   0.316   0.811 -0.1610  0.9807 -1.5742
    1SOL    MW4 1776   3.567   0.383   0.867  0.2341 -0.1825 -0.1548
    1SOL     OW 1777   3.820   0.529   0.784  0.1388 -0.1876 -0.0015
    1SOL    HW2 1778   3.817   0.613   0.829  0.8690 -0.8531  1.3225
    1SOL    HW3 1779   3.734   0.490   0.799 -0.1596  0.2664 -0.5200
    1SOL    MW4 1780   3.808   0.535   0.792  0.1957 -0.2155  0.1047
    1SOL     OW 1781   3.800   0.795   0.874  0.0400 -0.0960  0.6426
    1SOL    HW2 1782   3.799   0.789   0.970  0.7089 -0.2451  0.6421
    1SOL    HW3 1783   3.891   0.813   0.852  0.1139 -1.2417 -0.0392
    1SOL    MW4 1784   3.812   0.796   0.884  0.1380 -0.2668  0.5525
    1SOL     OW 1785   3.613   0.891   0.699  0.2029 -0.1502 -0.2408
    1SOL    HW2 1786   3.684   0.865   0.758 -0.3618  2.3829  1.5916
    1SOL    HW3 1787   3.538   0.839   0.728  0.0825  0.6438  0.8816
    1SOL    MW4 1788   3.613   0.881   0.710  0.1123  0.2887  0.1490
    1SOL     OW 1789   3.579   1.137   0.802 -0.1586 -0.4074  0.2590
    1SOL    HW2 1790   3.595   1.118   0.894 -1.1441 -1.5322  0.2118
    1SOL    HW3 1791   3.582   1.051   0.759 -0.9555 -0.0389 -0.5449
    1SOL    MW4 1792   3.581   1.123   0.809 -0.3939 -0.5071  0.1467
    1SOL     OW 1793   3.847   1.261   0.760  0.2036  0.0783 -0.6855
    1SOL    HW2 1794   3.769   1.213   0.788  0.2787 -0.5818 -1.5997
    1SOL    HW3 1795   3.835   1.274   0.666  0.2922  1.6562 -0.5036
    1SOL    MW4 1796   3.835   1.256   0.751  0.2253  0.1996 -0.7822
    1SOL     OW 1797   3.849   1.544   0.858 -0.2491 -0.0851  0.2125
    1SOL    HW2 1798   3.918   1.608   0.842 -0.9366  0.8562  0.9408
    1SOL    HW3 1799   3.876   1.466   0.809  0.3795  0.9063 -1.0397
    1SOL    MW4 1800   3.862   1.542   0.849 -0.2570  0.1699  0.1433
    1SOL     OW 1801   3.675   1.619   0.684  0.0157 -0.2277  0.1039
    1SOL    HW2 1802   3.665   1.711   0.708  0.4851  0.3451 -1.8456
    1SOL    HW3 1803   3.735   1.584   0.751 -1.1409  0.5537  1.5752
    1SOL    MW4 1804   3.682   1.626   0.696 -0.0749 -0.0490  0.0408
    1SOL     OW 1805   3.676   1.899   0.790 -0.3669  0.3861  0.3482
    1SOL    HW2 1806   3.741   1.945   0.737 -0.1196  0.3077  0.5826
    1SOL    HW3 1807   3.596   1.950   0.779 -1.2553 -1.5282 -2.8958
    1SOL    MW4 1808   3.674   1.911   0.782 -0.4516  0.1231 -0.0489
    1SOL     OW 1809   3.869   2.044   0.678  0.3168 -0.1261 -0.1476
    1SOL    HW2 1810   3.864   2.138   0.661  2.6147 -0.0608 -0.5714
    1SOL    HW3 1811   3.931   2.036   0.751 -0.0113 -1.3029  0.0149
    1SOL    MW4 1812   3.877   2.055   0.686  0.5765 -0.2728 -0.1820
    1SOL     OW 1813   3.458   2.101   0.504  0.4173  0.1326 -0.5714
    1SOL    HW2 1814   3.446   2.090   0.598  2.6645  1.6248 -0.0654
    1SOL    HW3 1815   3.422   2.021   0.466 -2.2520  0.3402  1.3792
    1SOL    MW4 1816   3.452   2.089   0.511  0.3617  0.3569 -0.2473
    1SOL     OW 1817   3.693   2.383   0.858  0.2764 -0.1798  0.0069
    1SOL    HW2 1818   3.699   2.478   0.845  0.0503 -0.3913 -1.8294
    1SOL    HW3 1819   3.732   2.368   0.944 -0.2057  1.6380  0.5692
    1SOL    MW4 1820   3.699   2.393   0.867  0.1829  0.0322 -0.1612
    1SOL     OW 1821   3.681   2.687   0.830  0.1957 -0.4129  0.1810
    1SOL    HW2 1822   3.630   2.716   0.906 -1.3266 -0.4512 -0.8023
    1SOL    HW3 1823   3.748   2.755   0.819  1.6162 -1.3656  2.6803
    1SOL    MW4 1824   3.683   2.700   0.839  0.1822 -0.5438  0.3811
    1SOL     OW 1825   3.852   2.890   0.739  0.2181 -0.3935 -0.4033
    1SOL    HW2 1826   3.856   2.984   0.756  0.9863 -0.2617 -1.2672
    1SOL    HW3 1827   3.888   2.880   0.651  0.5779 -1.5499 -0.1316
    1SOL    MW4 1828   3.857   2.901   0.729  0.3667 -0.5288 -0.4814
    1SOL     OW 1829   3.852   3.152   0.831 -0.2560 -0.4599 -0.1617
    1SOL    HW2 1830   3.926   3.193   0.786 -0.9741  0.2251 -0.7334
    1SOL    HW3 1831   3.774   3.190   0.789 -0.9564 -2.9747 -1.2009
    1SOL    MW4 1832   3.851   3.163   0.820 -0.4430 -0.7012 -0.3742
    1SOL     OW 1833   3.608   3.259   0.767 -0.1772 -0.5200 -0.0720
    1SOL    HW2 1834   3.519   3.230   0.786 -0.7326  0.3042 -1.3633
    1SOL    HW3 1835   3.618   3.245   0.673  0.5397  0.7838 -0.1924
    1SOL    MW4 1836   3.598   3.253   0.757 -0.1554 -0.2391 -0.2583
    1SOL     OW 1837   3.633   3.521   0.862  0.0349  0.0387  0.5396
    1SOL    HW2 1838   3.627   3.441   0.810 -0.2209  0.0572  0.5426
    1SOL    HW3 1839   3.547   3.561   0.856  0.2929  0.5421  0.1751
    1SOL    MW4 1840   3.621   3.516   0.855  0.0350  0.1078  0.4919
    1SOL     OW 1841   3.845   3.717   0.851 -0.3732  0.3150 -0.3867
    1SOL    HW2 1842   3.919   3.657   0.860 -0.6731 -0.1017 -0.6629
    1SOL    HW3 1843   3.768   3.660   0.854 -0.6658  0.7038 -0.4954
    1SOL    MW4 1844   3.844   3.701   0.853 -0.4511  0.3114 -0.4376
    1SOL     OW 1845   3.601   4.008   0.701  0.0169  0.4914 -0.2698
    1SOL    HW2 1846   3.558   4.090   0.726  0.3687  0.7819 -0.6053
    1SOL    HW3 1847   3.543   3.939   0.734 -1.1974  0.8642 -1.5505
    1SOL    MW4 1848   3.588   4.010   0.709 -0.0970  0.5789 -0.4830
    1SOL     OW 1849   3.346   3.853   0.412  0.1684  0.2812  0.7149
    1SOL    HW2 1850   3.395   3.927   0.376  0.0295  0.1019  0.1545
    1SOL    HW3 1851   3.414   3.791   0.441  0.2805  0.0565 -0.0136
    1SOL    MW4 1852   3.362   3.854   0.411  0.1647  0.2275  0.5448
    1SOL     OW 1853   3.502   4.273   0.719 -0.8137  0.3102  0.0546
    1SOL    HW2 1854   3.570   4.302   0.780 -0.4645 -0.5236  0.0652
    1SOL    HW3 1855   3.521   4.320   0.638  0.2880 -0.5586 -0.2045
    1SOL    MW4 1856   3.514   4.283   0.716 -0.6225  0.0858  0.0218
    1SOL     OW 1857   3.705   4.317   0.899 -0.1526 -0.0292 -0.6928
    1SOL    HW2 1858   3.784   4.292   0.851  2.1624  1.9546  1.8943
    1SOL    HW3 1859   3.698   4.411   0.884 -1.1107  0.0747  0.4059
    1SOL    MW4 1860   3.715   4.326   0.891  0.0265  0.2465 -0.2065
    1SOL     OW 1861   4.178   4.615   0.858 -0.3274  0.3964  0.1837
    1SOL    HW2 1862   4.204   4.624   0.950  0.5970 -1.5767  0.1505
    1SOL    HW3 1863   4.096   4.664   0.852  0.4022  1.8797  1.6732
    1SOL    MW4 1864   4.171   4.623   0.870 -0.1092  0.3314  0.3758
    1SOL     OW 1865   3.924   0.090   0.750 -0.2209 -0.3041 -0.1080
    1SOL    HW2 1866   3.948   0.179   0.774  0.9504 -0.4483 -0.7238
    1SOL    HW3 1867   3.911   0.092   0.655 -1.3930 -0.5230  0.0360
    1SOL    MW4 1868   3.925   0.102   0.741 -0.2210 -0.3520 -0.1703
    1SOL     OW 1869   3.991   0.330   0.858  0.0519  0.2095  0.4424
    1SOL    HW2 1870   4.074   0.376   0.847 -0.1854  1.0666  2.0825
    1SOL    HW3 1871   3.926   0.389   0.821 -0.1099  0.6436  1.4176
    1SOL    MW4 1872   3.994   0.344   0.852 -0.0007  0.3798  0.7874
    1SOL     OW 1873   4.233   0.443   0.790 -0.1666 -0.0630 -0.2710
    1SOL    HW2 1874   4.308   0.383   0.800  0.5732  0.5333 -1.9533
    1SOL    HW3 1875   4.215   0.441   0.696 -0.2277  2.2533 -0.3157
    1SOL    MW4 1876   4.241   0.435   0.779 -0.0768  0.3213 -0.4988
    1SOL     OW 1877   4.300   0.714   0.843  0.0152 -0.4129 -0.4870
    1SOL    HW2 1878   4.223   0.763   0.815 -0.2411  1.0099  2.4730
    1SOL    HW3 1879   4.277   0.622   0.827 -2.4207 -0.0320  0.5086
    1SOL    MW4 1880   4.287   0.708   0.837 -0.3400 -0.1750  0.0348
    1SOL     OW 1881   4.077   0.859   0.765  0.1515 -0.0344  0.2039
    1SOL    HW2 1882   4.082   0.954   0.777  2.2133 -0.0009 -0.6744
    1SOL    HW3 1883   4.035   0.848   0.679  0.3425  0.0963  0.0934
    1SOL    MW4 1884   4.072   0.870   0.755  0.4482 -0.0127  0.0734
    1SOL     OW 1885   4.068   1.124   0.846 -0.1942  0.0453  0.2048
    1SOL    HW2 1886   4.053   1.144   0.938  1.0598  0.7605  0.2743
    1SOL    HW3 1887   3.997   1.168   0.799 -1.2443 -0.9116  0.8714
    1SOL    MW4 1888   4.057   1.132   0.852 -0.1674  0.0134  0.3019
    1SOL     OW 1889   4.269   1.292   0.741  0.0318 -0.0033  0.2587
    1SOL    HW2 1890   4.204   1.245   0.792  0.3490 -0.4535  0.2468
    1SOL    HW3 1891   4.351   1.247   0.759  0.1511 -0.1581 -0.6430
    1SOL    MW4 1892   4.271   1.280   0.750  0.0896 -0.0831  0.1381
    1SOL     OW 1893   4.281   1.554   0.889 -0.0016 -0.7333  0.2358
    1SOL    HW2 1894   4.272   1.565   0.984  1.1801 -0.6801  0.3490
    1SOL    HW3 1895   4.323   1.469   0.878 -0.3252 -0.8333 -0.2531
    1SOL    MW4 1896   4.285   1.544   0.900  0.1121 -0.7396  0.1861
    1SOL     OW 1897   4.076   1.681   0.757 -0.0821 -0.2239  0.0922
    1SOL    HW2 1898   4.138   1.616   0.790 -0.5610 -0.7378 -0.0112
    1SOL    HW3 1899   4.105   1.699   0.668 -0.6191 -1.1536 -0.2805
    1SOL    MW4 1900   4.088   1.675   0.750 -0.2165 -0.4145  0.0294
    1SOL     OW 1901   4.063   1.951   0.852 -0.5438 -0.0032  0.4154
    1SOL    HW2 1902   4.051   1.864   0.814 -0.7250  0.1601  0.1044
    1SOL    HW3 1903   4.153   1.975   0.829 -0.4591 -0.1551  0.5928
    1SOL    MW4 1904   4.074   1.943   0.844 -0.5569 -0.0018  0.3978
    1SOL     OW 1905   4.307   2.071   0.774 -0.4090 -0.8884 -0.1256
    1SOL    HW2 1906   4.391   2.044   0.810 -0.3213  0.7252  0.9254
    1SOL    HW3 1907   4.322   2.079   0.680  0.3941 -1.3976 -0.0400
    1SOL    MW4 1908   4.320   2.068   0.767 -0.2913 -0.7429  0.0244
    1SOL     OW 1909   4.280   2.334   0.876 -0.2399  0.5590  0.0455
    1SOL    HW2 1910   4.196   2.372   0.852 -0.2832  0.9622  0.8269
    1SOL    HW3 1911   4.276   2.244   0.843 -0.7794  0.7294 -0.3553
    1SOL    MW4 1912   4.268   2.327   0.868 -0.3171  0.6349  0.0958
    1SOL     OW 1913   4.056   2.469   0.769  0.1372 -0.6786  0.0339
    1SOL    HW2 1914   4.026   2.556   0.798  0.3918  0.0520 -1.8001
    1SOL    HW3 1915   3.977   2.427   0.734  0.5167 -0.1796 -1.4348
    1SOL    MW4 1916   4.041   2.475   0.768  0.2213 -0.5164 -0.4018
    1SOL     OW 1917   4.045   2.739   0.840 -0.1551 -0.5425 -0.1750
    1SOL    HW2 1918   4.122   2.786   0.806  0.0353 -1.1986 -0.6556
    1SOL    HW3 1919   3.970   2.790   0.808  0.0854  0.2871  0.5764
    1SOL    MW4 1920   4.045   2.752   0.831 -0.0987 -0.5198 -0.1392
    1SOL     OW 1921   4.326   2.842   0.748 -0.0637  0.0265  0.1937
    1SOL    HW2 1922   4.410   2.808   0.779  0.6382  1.5478  0.0046
    1SOL    HW3 1923   4.323   2.817   0.656  0.1297 -0.1267  0.2279
    1SOL    MW4 1924   4.337   2.834   0.740  0.0544  0.2072  0.1733
    1SOL     OW 1925   4.227   3.114   0.848  0.1260 -0.2671 -0.0446
    1SOL    HW2 1926   4.257   3.033   0.806 -0.3727 -1.1445  1.2862
    1SOL    HW3 1927   4.305   3.170   0.848  0.4959 -0.7708 -0.9047
    1SOL    MW4 1928   4.242   3.111   0.842  0.1087 -0.4492  0.0175
    1SOL     OW 1929   4.064   3.281   0.696 -0.5233  0.3754 -0.2799
    1SOL    HW2 1930   4.051   3.358   0.751 -1.9722 -0.5413  0.6935
    1SOL    HW3 1931   4.128   3.228   0.744 -2.0200 -0.5704  0.7087
    1SOL    MW4 1932   4.071   3.284   0.710 -0.9117  0.1297 -0.0210
    1SOL     OW 1933   4.007   3.483   0.863  0.1330 -0.3329 -0.0790
    1SOL    HW2 1934   3.998   3.475   0.958  0.9295  1.4329  0.1643
    1SOL    HW3 1935   4.094   3.521   0.849 -0.2444  0.0879 -1.4646
    1SOL    MW4 1936   4.017   3.487   0.873  0.1879 -0.0443 -0.2298
    1SOL     OW 1937   4.250   3.599   0.805  0.1480 -0.1389  0.1558
    1SOL    HW2 1938   4.218   3.675   0.854  0.1449 -0.1300  0.1392
    1SOL    HW3 1939   4.254   3.629   0.714  2.5433  0.6500  0.4755
    1SOL    MW4 1940   4.246   3.613   0.799  0.4635 -0.0336  0.1957
    1SOL     OW 1941   4.186   3.839   0.937 -0.2559  0.0646 -0.1136
    1SOL    HW2 1942   4.220   3.851   1.025 -0.7399 -0.1895  0.1128
    1SOL    HW3 1943   4.123   3.910   0.926 -0.2738  0.0332 -0.2139
    1SOL    MW4 1944   4.182   3.850   0.947 -0.3219  0.0269 -0.0970
    1SOL     OW 1945   4.007   3.982   0.783  0.3087 -0.2885 -0.2718
    1SOL    HW2 1946   3.938   3.917   0.797  0.1924 -0.1534 -0.2132
    1SOL    HW3 1947   4.021   3.983   0.688  1.2546 -1.3707 -0.1588
    1SOL    MW4 1948   4.000   3.974   0.772  0.4179 -0.4134 -0.2492
    1SOL     OW 1949   3.908   4.247   0.744  0.1432  0.0481  0.6472
    1SOL    HW2 1950   3.996   4.276   0.770  0.2734  1.2272 -1.0328
    1SOL    HW3 1951   3.910   4.152   0.752  1.0452  0.1904  2.2317
    1SOL    MW4 1952   3.920   4.238   0.749  0.2797  0.2222  0.6345
    1SOL     OW 1953   4.154   4.349   0.833 -0.0881 -0.2817  0.3251
    1SOL    HW2 1954   4.168   4.443   0.828 -1.5250 -0.0675  0.3307
    1SOL    HW3 1955   4.239   4.314   0.862  0.4532  0.9937  0.2971
    1SOL    MW4 1956   4.167   4.357   0.836 -0.2065 -0.0854  0.3222
    1SOL     OW 1957   0.194   4.650   1.151 -0.5716 -0.0210  0.1880
    1SOL    HW2 1958   0.273   4.696   1.180 -0.8818 -0.0873  1.1667
    1SOL    HW3 1959   0.204   4.641   1.057  0.4214  0.2989  0.2615
    1SOL    MW4 1960   0.206   4.655   1.143 -0.4815  0.0129  0.3270
    1SOL     OW 1961   4.468   0.099   1.272 -0.0071 -0.5625  0.2439
    1SOL    HW2 1962   4.393   0.065   1.223 -0.3690  1.2061 -0.4655
    1SOL    HW3 1963   4.544   0.057   1.232 -0.4466 -0.6118 -0.5593
    1SOL    MW4 1964   4.468   0.089   1.260 -0.1130 -0.3357  0.0443
    1SOL     OW 1965   4.465   0.360   1.153  0.3672 -0.0813 -0.2055
    1SOL    HW2 1966   4.377   0.397   1.159  0.2539 -0.3081 -0.4333
    1SOL    HW3 1967   4.463   0.283   1.210  0.6254  0.2999  0.3242
    1SOL    MW4 1968   4.453   0.355   1.161  0.3862 -0.0609 -0.1657
    1SOL     OW 1969   0.188   0.510   1.230  0.0023  0.1678 -0.3168
    1SOL    HW2 1970   0.182   0.601   1.202  0.2822  0.4308  0.4584
    1SOL    HW3 1971   0.108   0.469   1.195 -0.5659  0.9142  0.0803
    1SOL    MW4 1972   0.176   0.516   1.222 -0.0358  0.3010 -0.1620
    1SOL     OW 1973   0.189   0.784   1.133 -0.2730  0.2984  0.1570
    1SOL    HW2 1974   0.272   0.822   1.160  0.1210 -1.0602  0.8893
    1SOL    HW3 1975   0.123   0.848   1.161  0.4951  1.2367 -0.1632
    1SOL    MW4 1976   0.191   0.798   1.140 -0.1197  0.2430  0.2115
    1SOL     OW 1977   4.462   0.937   1.177  0.0813 -0.3248  0.0468
    1SOL    HW2 1978   4.455   0.934   1.272 -1.3009  0.5325 -0.0234
    1SOL    HW3 1979   4.390   0.882   1.146  0.5444 -0.6246 -0.5174
    1SOL    MW4 1980   4.452   0.929   1.185 -0.0401 -0.2512 -0.0368
    1SOL     OW 1981   0.040   1.174   1.051  0.5077 -0.2934  0.3505
    1SOL    HW2 1982  -0.037   1.220   1.086  0.5530  0.4004 -0.4430
    1SOL    HW3 1983   0.037   1.088   1.093  0.1092  0.2345  1.4299
    1SOL    MW4 1984   0.029   1.169   1.061  0.4611 -0.1323  0.3881
    1SOL     OW 1985   0.236   1.330   1.194  0.0108  0.3311 -0.3410
    1SOL    HW2 1986   0.323   1.297   1.172  0.2428  0.9989 -0.4516
    1SOL    HW3 1987   0.175   1.272   1.148  0.3462 -0.8896  0.7115
    1SOL    MW4 1988   0.239   1.318   1.185  0.0857  0.2582 -0.2166
    1SOL     OW 1989   0.254   1.597   1.067  0.0213 -0.0665  0.1762
    1SOL    HW2 1990   0.251   1.516   1.118  0.6508 -0.9801 -1.2199
    1SOL    HW3 1991   0.241   1.569   0.976  1.6266  1.2235 -0.4745
    1SOL    MW4 1992   0.252   1.582   1.062  0.3162 -0.0168 -0.0941
    1SOL     OW 1993   0.018   1.705   1.216  0.1660 -0.2209 -0.1832
    1SOL    HW2 1994   0.019   1.788   1.168 -1.9821 -1.2597 -2.1620
    1SOL    HW3 1995   0.099   1.661   1.190  0.5916  0.6172 -0.2924
    1SOL    MW4 1996   0.029   1.710   1.206 -0.0613 -0.2474 -0.4586
    1SOL     OW 1997   0.027   1.965   1.142 -0.5776 -0.0255 -0.4707
    1SOL    HW2 1998  -0.048   2.024   1.152  0.1935  1.2142 -1.8310
    1SOL    HW3 1999   0.029   1.945   1.049 -0.5050 -1.7919 -0.0965
    1SOL    MW4 2000   0.018   1.970   1.131 -0.4663 -0.0950 -0.6009
    1SOL     OW 2001   0.273   2.059   1.218  0.4069  0.0218  0.4934
    1SOL    HW2 2002   0.247   2.149   1.203  0.4955 -0.2126 -1.1021
    1SOL    HW3 2003   0.193   2.008   1.208  0.9533 -0.4114 -1.7926
    1SOL    MW4 2004   0.259   2.064   1.215  0.4907 -0.0663 -0.0186
    1SOL     OW 2005   0.233   2.320   1.129 -0.1997 -0.0846  0.5785
    1SOL    HW2 2006   0.302   2.377   1.162 -0.0801 -0.5935  1.2032
    1SOL    HW3 2007   0.154   2.350   1.173 -0.0293 -0.8041  1.3897
    1SOL    MW4 2008   0.232   2.332   1.139 -0.1614 -0.2468  0.7679
    1SOL     OW 2009   0.022   2.442   1.244  0.2065 -0.0687 -0.0485
    1SOL    HW2 2010   0.014   2.473   1.334  1.8712 -0.8568  0.3965
    1SOL    HW3 2011  -0.068   2.421   1.218 -0.2376 -0.4087  1.6494
    1SOL    MW4 2012   0.009   2.443   1.253  0.3676 -0.2177  0.2344
    1SOL     OW 2013   0.009   2.716   1.142  0.5463  0.4060 -0.0244
    1SOL    HW2 2014  -0.071   2.748   1.183  0.0466 -0.1368 -0.5669
    1SOL    HW3 2015   0.017   2.626   1.173  0.3136  0.0825 -0.8846
    1SOL    MW4 2016  -0.000   2.708   1.152  0.4497  0.2918 -0.2095
    1SOL     OW 2017   0.233   2.834   1.244 -0.3460  0.1313  0.1077
    1SOL    HW2 2018   0.214   2.821   1.337  0.4339  1.7343  0.5204
    1SOL    HW3 2019   0.161   2.790   1.198  0.0576 -1.9773  1.4184
    1SOL    MW4 2020   0.221   2.826   1.250 -0.1898  0.0648  0.3352
    1SOL     OW 2021   0.295   3.090   1.131 -0.0762  0.2335  0.0761
    1SOL    HW2 2022   0.352   3.141   1.189  2.1903 -0.9466 -1.0226
    1SOL    HW3 2023   0.286   3.005   1.175  0.1829 -0.0584 -0.4242
    1SOL    MW4 2024   0.302   3.085   1.145  0.2570  0.0393 -0.1348
    1SOL     OW 2025   0.035   3.221   1.227  0.1918  0.2509 -0.1679
    1SOL    HW2 2026  -0.050   3.184   1.200  0.2941  0.8720 -1.3777
    1SOL    HW3 2027   0.100   3.163   1.187  0.3369  0.1015  0.2891
    1SOL    MW4 2028   0.032   3.209   1.218  0.2244  0.3133 -0.2673
    1SOL     OW 2029   4.482   3.471   1.145 -0.2668 -0.2224  0.3128
    1SOL    HW2 2030   4.502   3.381   1.171  1.5622 -0.4115 -1.5943
    1SOL    HW3 2031   4.483   3.469   1.049  0.5012  1.9589  0.2409
    1SOL    MW4 2032   4.485   3.459   1.135  0.0758  0.0405  0.0517
    1SOL     OW 2033   0.203   3.632   1.243 -0.4219 -0.2509  0.2926
    1SOL    HW2 2034   0.217   3.623   1.337 -0.3781 -0.2582  0.2853
    1SOL    HW3 2035   0.138   3.565   1.222 -0.3938 -0.2831  0.3086
    1SOL    MW4 2036   0.196   3.622   1.252 -0.4124 -0.2561  0.2939
    1SOL     OW 2037   0.227   3.904   1.190  0.9328 -0.4468 -0.1846
    1SOL    HW2 2038   0.152   3.962   1.205 -0.0844 -1.0851 -2.4361
    1SOL    HW3 2039   0.201   3.820   1.227  1.3572 -0.1429  0.8055
    1SOL    MW4 2040   0.214   3.901   1.197  0.8546 -0.4907 -0.3511
    1SOL     OW 2041   0.013   4.041   1.293  0.5439 -0.0170 -0.2690
    1SOL    HW2 2042   0.008   4.048   1.389  0.1231 -0.2445 -0.2719
    1SOL    HW3 2043  -0.063   3.988   1.270  0.3463  0.4908 -0.7825
    1SOL    MW4 2044   0.003   4.035   1.303  0.4625  0.0200 -0.3372
    1SOL     OW 2045   4.460   4.291   1.172  0.2256 -0.1703 -0.1186
    1SOL    HW2 2046   4.545   4.332   1.188 -0.1083  0.9268 -1.0767
    1SOL    HW3 2047   4.472   4.200   1.198  1.3806  0.2209  0.7738
    1SOL    MW4 2048   4.473   4.285   1.178  0.3338  0.0262 -0.1273
    1SOL     OW 2049   0.219   4.390   1.200  0.0340 -0.0040 -0.6658
    1SOL    HW2 2050   0.219   4.400   1.295  0.1995 -1.0096 -0.5571
    1SOL    HW3 2051   0.211   4.480   1.167 -1.4924  0.2361  0.3030
    1SOL    MW4 2052   0.218   4.404   1.208 -0.1455 -0.1044 -0.5237
    1SOL     OW 2053   0.598   4.666   1.123  0.1872 -0.5916  0.0903
    1SOL    HW2 2054   0.682   4.705   1.146  0.1780 -0.9852  0.8177
    1SOL    HW3 2055   0.593   4.587   1.177 -0.2915 -0.9979 -0.5382
    1SOL    MW4 2056   0.608   4.661   1.133  0.1228 -0.6967  0.1035
    1SOL     OW 2057   0.401   0.132   1.264 -0.4193  0.3188  0.4104
    1SOL    HW2 2058   0.410   0.220   1.228 -0.0993  0.5302  0.9992
    1SOL    HW3 2059   0.470   0.082   1.221 -0.2116  0.5026  0.5281
    1SOL    MW4 2060   0.411   0.137   1.254 -0.3496  0.3709  0.5037
    1SOL     OW 2061   0.424   0.399   1.163  0.3924 -0.1141  0.0225
    1SOL    HW2 2062   0.340   0.440   1.186 -0.1403 -1.2760  0.1567
    1SOL    HW3 2063   0.416   0.379   1.070  0.9746  0.8286 -0.2397
    1SOL    MW4 2064   0.412   0.402   1.154  0.3989 -0.1431  0.0056
    1SOL     OW 2065   0.654   0.523   1.287  0.1170  0.1006 -0.2128
    1SOL    HW2 2066   0.646   0.618   1.278 -1.2555  0.2449  2.0987
    1SOL    HW3 2067   0.577   0.488   1.241  0.8864  0.0621 -1.4934
    1SOL    MW4 2068   0.642   0.530   1.280  0.0374  0.1146 -0.0769
    1SOL     OW 2069   0.638   0.771   1.160  0.1474  0.1024  0.0178
    1SOL    HW2 2070   0.572   0.837   1.181  0.5237  0.4665  0.0692
    1SOL    HW3 2071   0.650   0.779   1.066  1.5249  1.3863  0.2727
    1SOL    MW4 2072   0.631   0.781   1.151  0.3788  0.3198  0.0582
    1SOL     OW 2073   0.433   0.935   1.211 -0.0529 -0.2479  0.1423
    1SOL    HW2 2074   0.419   0.945   1.305 -2.1596 -1.1173 -0.0634
    1SOL    HW3 2075   0.419   1.024   1.176  1.0861  0.1499  0.6837
    1SOL    MW4 2076   0.429   0.948   1.219 -0.1806 -0.3101  0.1864
    1SOL     OW 2077   0.453   1.176   1.098 -0.1044  0.0186  0.4957
    1SOL    HW2 2078   0.539   1.210   1.121 -0.4606  1.0651  0.3131
    1SOL    HW3 2079   0.458   1.160   1.004 -0.0050 -0.2183  0.5422
    1SOL    MW4 2080   0.465   1.178   1.089 -0.1383  0.1254  0.4777
    1SOL     OW 2081   0.683   1.280   1.233  0.6268 -0.0115 -0.1666
    1SOL    HW2 2082   0.762   1.232   1.208 -0.3278 -0.7948 -1.7857
    1SOL    HW3 2083   0.687   1.362   1.182 -0.2461 -0.6468 -1.2870
    1SOL    MW4 2084   0.694   1.285   1.223  0.3857 -0.1986 -0.5280
    1SOL     OW 2085   0.700   1.524   1.102 -0.0461  0.5862  0.1851
    1SOL    HW2 2086   0.778   1.569   1.133 -0.8232  1.5528  0.7585
    1SOL    HW3 2087   0.627   1.574   1.138 -0.9338 -0.5862  0.0496
    1SOL    MW4 2088   0.701   1.536   1.111 -0.2658  0.5591  0.2429
    1SOL     OW 2089   0.485   1.702   1.184 -0.0955  0.3034  0.0209
    1SOL    HW2 2090   0.477   1.689   1.278  2.1682 -2.1968 -0.0755
    1SOL    HW3 2091   0.410   1.656   1.146  0.2861 -0.7021  0.4795
    1SOL    MW4 2092   0.474   1.694   1.191  0.2535 -0.1591  0.0685
    1SOL     OW 2093   0.500   1.967   1.085  0.5617  0.1957 -0.2552
    1SOL    HW2 2094   0.502   1.877   1.117  1.2316  0.1671 -0.3746
    1SOL    HW3 2095   0.421   2.005   1.125  0.4188 -0.3655 -0.0041
    1SOL    MW4 2096   0.490   1.960   1.095  0.6312  0.1179 -0.2378
    1SOL     OW 2097   0.717   2.073   1.198  0.5899 -0.1325 -0.4449
    1SOL    HW2 2098   0.705   2.074   1.293  0.6844 -0.0117 -0.4332
    1SOL    HW3 2099   0.635   2.037   1.163  0.7900 -0.7298 -0.2873
    1SOL    MW4 2100   0.704   2.069   1.206  0.6288 -0.1953 -0.4226
    1SOL     OW 2101   0.690   2.317   1.100  0.0578 -0.4365 -0.0934
    1SOL    HW2 2102   0.619   2.358   1.149 -0.6528 -1.2375 -0.4302
    1SOL    HW3 2103   0.696   2.228   1.137  0.9949 -0.3258  0.0417
    1SOL    MW4 2104   0.681   2.310   1.112  0.0877 -0.5279 -0.1200
    1SOL     OW 2105   0.484   2.428   1.228  0.0986  0.5583 -0.1168
    1SOL    HW2 2106   0.450   2.420   1.317 -1.5644  0.1893 -0.7687
    1SOL    HW3 2107   0.465   2.519   1.204  0.4540  0.6284 -0.1370
    1SOL    MW4 2108   0.477   2.439   1.237 -0.0739  0.5188 -0.2055
    1SOL     OW 2109   0.444   2.694   1.130  0.5550 -0.7814 -0.1249
    1SOL    HW2 2110   0.369   2.748   1.156  0.9118 -0.4622  0.2366
    1SOL    HW3 2111   0.464   2.723   1.041 -0.7893 -2.0115 -0.8567
    1SOL    MW4 2112   0.437   2.705   1.121  0.4247 -0.9015 -0.1738
    1SOL     OW 2113   0.658   2.849   1.239  0.1293 -0.1106 -0.2644
    1SOL    HW2 2114   0.648   2.934   1.197  0.3301  0.5452  0.9874
    1SOL    HW3 2115   0.578   2.801   1.217 -0.6563  0.9452  0.2480
    1SOL    MW4 2116   0.646   2.854   1.231  0.0522  0.1154 -0.0316
    1SOL     OW 2117   0.632   3.105   1.145  0.0919  0.1054 -0.5566
    1SOL    HW2 2118   0.723   3.125   1.166  0.1480 -0.4411 -0.2736
    1SOL    HW3 2119   0.633   3.082   1.052  0.4367 -1.0450 -0.2774
    1SOL    MW4 2120   0.644   3.104   1.135  0.1448 -0.1187 -0.4824
    1SOL     OW 2121   0.451   3.276   1.267  0.3702 -0.4051 -0.2496
    1SOL    HW2 2122   0.434   3.360   1.224  1.0375  0.3918  1.0318
    1SOL    HW3 2123   0.523   3.237   1.217 -1.0840 -1.0372 -1.9326
    1SOL    MW4 2124   0.458   3.282   1.255  0.2664 -0.3834 -0.3026
    1SOL     OW 2125   0.413   3.514   1.112  0.0989  0.3384 -0.0639
    1SOL    HW2 2126   0.497   3.546   1.145  0.0653  1.7720 -1.2909
    1SOL    HW3 2127   0.348   3.572   1.154 -0.2855 -0.7234  0.8340
    1SOL    MW4 2128   0.415   3.526   1.122  0.0438  0.3877 -0.1072
    1SOL     OW 2129   0.661   3.579   1.225  0.1807 -0.0816 -0.0240
    1SOL    HW2 2130   0.657   3.583   1.320  0.4590  0.2716 -0.0275
    1SOL    HW3 2131   0.653   3.671   1.197  1.4123 -0.0539 -0.2946
    1SOL    MW4 2132   0.659   3.592   1.234  0.3799 -0.0315 -0.0602
    1SOL     OW 2133   0.667   3.855   1.139 -0.2172 -0.1825 -0.4114
    1SOL    HW2 2134   0.597   3.918   1.153 -0.6910 -0.7474 -0.2311
    1SOL    HW3 2135   0.667   3.839   1.045  0.8937  1.2198 -0.6681
    1SOL    MW4 2136   0.658   3.861   1.128 -0.1331 -0.0720 -0.4215
    1SOL     OW 2137   0.465   4.017   1.244 -0.2045  0.0571  0.0675
    1SOL    HW2 2138   0.457   4.104   1.205 -1.6507 -0.3131 -0.4622
    1SOL    HW3 2139   0.384   3.972   1.222 -0.3395 -0.7550  2.0398
    1SOL    MW4 2140   0.453   4.023   1.236 -0.4131 -0.0992  0.2578
    1SOL     OW 2141   0.458   4.268   1.108  0.5103  0.1739  0.4384
    1SOL    HW2 2142   0.522   4.312   1.164  1.5470 -1.7920  0.8561
    1SOL    HW3 2143   0.375   4.310   1.129  1.7312  3.2347 -0.5862
    1SOL    MW4 2144   0.456   4.280   1.118  0.8082  0.3185  0.3583
    1SOL     OW 2145   0.620   4.441   1.262  0.1546  0.2379 -0.0808
    1SOL    HW2 2146   0.611   4.440   1.357 -1.1753 -1.1601 -0.2099
    1SOL    HW3 2147   0.690   4.379   1.243 -0.4558 -0.4638 -0.0815
    1SOL    MW4 2148   0.628   4.433   1.272 -0.1014 -0.0391 -0.0980
    1SOL     OW 2149   1.069   0.020   1.160 -0.2614  0.1637  0.0859
    1SOL    HW2 2150   1.059  -0.072   1.185  1.0029 -0.0380 -0.1261
    1SOL    HW3 2151   1.067   0.019   1.064  0.0222  0.3302  0.0783
    1SOL    MW4 2152   1.068   0.008   1.150 -0.0572  0.1588  0.0567
    1SOL     OW 2153   0.837   0.151   1.235 -0.1918  0.1127 -0.2580
    1SOL    HW2 2154   0.834   0.147   1.331  0.2098 -0.4131 -0.2677
    1SOL    HW3 2155   0.924   0.118   1.212 -0.2223  0.4070 -0.7943
    1SOL    MW4 2156   0.848   0.146   1.245 -0.1429  0.0821 -0.3299
    1SOL     OW 2157   0.845   0.396   1.132  0.7907  0.2721  0.3098
    1SOL    HW2 2158   0.837   0.313   1.179 -0.2166  0.0125 -0.3122
    1SOL    HW3 2159   0.784   0.455   1.175 -1.1706 -0.3695 -1.5116
    1SOL    MW4 2160   0.836   0.393   1.144  0.3991  0.1532 -0.0126
    1SOL     OW 2161   1.104   0.497   1.226 -0.0492  0.1990 -0.5627
    1SOL    HW2 2162   1.097   0.506   1.321  1.7155 -0.7945 -0.3065
    1SOL    HW3 2163   1.023   0.454   1.199 -0.6285  0.6447  0.4691
    1SOL    MW4 2164   1.092   0.492   1.235  0.1073  0.1268 -0.3928
    1SOL     OW 2165   1.109   0.756   1.124 -0.5144  0.4736 -0.2565
    1SOL    HW2 2166   1.029   0.802   1.149  0.3441  1.8473  0.0537
    1SOL    HW3 2167   1.100   0.669   1.161 -0.9920  1.2551  1.4880
    1SOL    MW4 2168   1.097   0.751   1.132 -0.4642  0.7580  0.0145
    1SOL     OW 2169   0.886   0.875   1.247 -0.1183  0.3456  0.1156
    1SOL    HW2 2170   0.885   0.967   1.221  0.5931  0.1141 -0.7401
    1SOL    HW3 2171   0.814   0.836   1.197 -0.6928  0.5247  0.8026
    1SOL    MW4 2172   0.876   0.882   1.237 -0.1003  0.3386  0.0932
    1SOL     OW 2173   0.898   1.130   1.152  0.4200 -0.3920  0.0733
    1SOL    HW2 2174   0.972   1.189   1.166 -0.4780  1.0779 -1.2211
    1SOL    HW3 2175   0.880   1.136   1.058 -1.4384 -0.5844  0.4052
    1SOL    MW4 2176   0.905   1.139   1.142  0.0563 -0.2235 -0.0538
    1SOL     OW 2177   1.131   1.274   1.242  0.0817 -0.4359 -0.1756
    1SOL    HW2 2178   1.137   1.285   1.337 -1.4849 -1.2282  0.0347
    1SOL    HW3 2179   1.211   1.228   1.217  2.0295  2.5582  0.2990
    1SOL    MW4 2180   1.142   1.270   1.251  0.1320 -0.1454 -0.0852
    1SOL     OW 2181   1.144   1.528   1.113  0.0649 -0.1707  0.0345
    1SOL    HW2 2182   1.157   1.442   1.154 -1.4339  0.2527  1.4137
    1SOL    HW3 2183   1.148   1.509   1.019  0.2424 -1.6674  0.3227
    1SOL    MW4 2184   1.146   1.514   1.106 -0.1094 -0.3124  0.2546
    1SOL     OW 2185   0.919   1.653   1.193  0.2089  0.4517  0.0048
    1SOL    HW2 2186   0.913   1.747   1.171  0.2374  0.2449 -0.9221
    1SOL    HW3 2187   1.007   1.628   1.164 -0.0191  0.0021 -0.2907
    1SOL    MW4 2188   0.930   1.662   1.186  0.1826  0.3651 -0.1565
    1SOL     OW 2189   0.925   1.929   1.073 -0.0003 -0.2334 -0.5032
    1SOL    HW2 2190   1.009   1.969   1.097  0.1174 -0.5247 -0.4212
    1SOL    HW3 2191   0.861   1.975   1.127  0.1331 -0.1490 -0.4155
    1SOL    MW4 2192   0.928   1.940   1.084  0.0328 -0.2607 -0.4809
    1SOL     OW 2193   1.143   2.055   1.196  0.0134 -0.0798  0.3384
    1SOL    HW2 2194   1.119   2.054   1.289 -0.0727  1.0958  0.3360
    1SOL    HW3 2195   1.131   2.146   1.169  0.2160 -0.3772 -0.7844
    1SOL    MW4 2196   1.138   2.067   1.205  0.0287  0.0360  0.1900
    1SOL     OW 2197   1.091   2.327   1.140  0.1174  0.0597 -0.2362
    1SOL    HW2 2198   1.165   2.382   1.165  0.6721 -0.9855  0.4668
    1SOL    HW3 2199   1.015   2.371   1.177  0.6196  0.0434  0.8416
    1SOL    MW4 2200   1.091   2.340   1.148  0.2570 -0.0803 -0.0013
    1SOL     OW 2201   0.868   2.450   1.233 -0.3558 -0.4624 -0.2070
    1SOL    HW2 2202   0.873   2.433   1.327  1.7906 -2.5751 -0.6493
    1SOL    HW3 2203   0.795   2.397   1.202 -0.5984 -0.3443  0.1688
    1SOL    MW4 2204   0.859   2.441   1.241 -0.1046 -0.7255 -0.2158
    1SOL     OW 2205   0.857   2.699   1.121 -0.7054  0.0439 -0.2397
    1SOL    HW2 2206   0.829   2.614   1.156  2.9710 -0.1814  2.3610
    1SOL    HW3 2207   0.797   2.762   1.159 -0.8954 -0.9477  1.1255
    1SOL    MW4 2208   0.845   2.696   1.131 -0.2453 -0.1163  0.2837
    1SOL     OW 2209   1.122   2.781   1.220  0.3316 -0.3052  0.7507
    1SOL    HW2 2210   1.118   2.797   1.314  0.6549  1.3883  0.4890
    1SOL    HW3 2211   1.041   2.735   1.200 -0.4643  0.6913  1.6024
    1SOL    MW4 2212   1.111   2.777   1.230  0.2692  0.0496  0.8285
    1SOL     OW 2213   1.144   3.043   1.128  0.0771  0.2323 -0.1098
    1SOL    HW2 2214   1.131   2.952   1.155 -0.3126  0.0483 -0.9060
    1SOL    HW3 2215   1.153   3.039   1.033  0.4191  0.9880 -0.1157
    1SOL    MW4 2216   1.144   3.031   1.119  0.0708  0.3080 -0.2158
    1SOL     OW 2217   0.898   3.178   1.212 -0.3326 -0.0015  0.4587
    1SOL    HW2 2218   0.888   3.267   1.179  1.6227 -0.3013 -1.0407
    1SOL    HW3 2219   0.983   3.149   1.178 -0.1407 -1.8107  2.3805
    1SOL    MW4 2220   0.908   3.186   1.203 -0.0493 -0.2797  0.5144
    1SOL     OW 2221   0.893   3.448   1.137  0.1298 -0.2436 -0.2477
    1SOL    HW2 2222   0.809   3.478   1.171  1.0076  0.4885  1.3216
    1SOL    HW3 2223   0.882   3.449   1.042 -1.4091  0.4902 -0.0798
    1SOL    MW4 2224   0.880   3.452   1.129  0.0426 -0.0501 -0.0184
    1SOL     OW 2225   1.095   3.614   1.240  0.1690 -0.3071  0.0602
    1SOL    HW2 2226   1.180   3.577   1.215  0.7002  1.3158 -0.5945
    1SOL    HW3 2227   1.031   3.553   1.204  1.0208 -0.6344 -0.9358
    1SOL    MW4 2228   1.098   3.601   1.232  0.3514 -0.1361 -0.1576
    1SOL     OW 2229   1.089   3.863   1.124  0.0221  0.1099  0.2537
    1SOL    HW2 2230   1.015   3.914   1.158  1.8966  1.6175  2.1677
    1SOL    HW3 2231   1.081   3.778   1.168  0.3624  0.8253  1.7180
    1SOL    MW4 2232   1.078   3.858   1.134  0.3141  0.4032  0.6994
    1SOL     OW 2233   0.882   4.017   1.215  0.7324  0.0994  0.1568
    1SOL    HW2 2234   0.878   4.006   1.310 -0.9250  0.8101  0.1874
    1SOL    HW3 2235   0.811   3.963   1.181  1.6888 -0.6218 -0.7440
    1SOL    MW4 2236   0.872   4.008   1.223  0.6399  0.0982  0.0421
    1SOL     OW 2237   0.821   4.275   1.156  0.1689  0.1164  0.3293
    1SOL    HW2 2238   0.831   4.182   1.177  0.5645  0.0749 -0.0374
    1SOL    HW3 2239   0.816   4.278   1.060 -1.0451  0.3639  0.3916
    1SOL    MW4 2240   0.822   4.263   1.146  0.0609  0.1440  0.2891
    1SOL     OW 2241   1.062   4.407   1.228 -0.2436 -0.0977  0.1324
    1SOL    HW2 2242   1.074   4.390   1.321 -0.5604  1.3931  0.4726
    1SOL    HW3 2243   0.988   4.352   1.202  0.7694 -1.6077  0.4126
    1SOL    MW4 2244   1.054   4.398   1.237 -0.1516 -0.1001  0.2142
    1SOL     OW 2245   1.538   4.663   1.169  0.0798 -0.0110  0.0337
    1SOL    HW2 2246   1.624   4.691   1.201  0.8194 -1.6917 -0.4274
    1SOL    HW3 2247   1.533   4.571   1.193 -2.1790  0.3965  1.2542
    1SOL    MW4 2248   1.549   4.655   1.176 -0.1206 -0.1793  0.1339
    1SOL     OW 2249   1.298   0.123   1.287  0.3591 -0.3721  0.4458
    1SOL    HW2 2250   1.378   0.089   1.246  0.6393 -0.7642  1.2891
    1SOL    HW3 2251   1.227   0.089   1.234  0.7462 -0.2899 -0.1267
    1SOL    MW4 2252   1.299   0.114   1.275  0.4472 -0.4130  0.4816
    1SOL     OW 2253   1.329   0.363   1.138  0.4376  0.0558 -0.0929
    1SOL    HW2 2254   1.320   0.275   1.174  0.8694  0.3037  0.6374
    1SOL    HW3 2255   1.259   0.413   1.180  1.5822  0.5967  1.2243
    1SOL    MW4 2256   1.319   0.358   1.148  0.6456  0.1599  0.1773
    1SOL     OW 2257   1.584   0.472   1.226  0.0669 -0.1071  0.6109
    1SOL    HW2 2258   1.567   0.565   1.212 -0.6860 -0.3584 -0.1246
    1SOL    HW3 2259   1.505   0.428   1.196  1.3240 -1.1591 -1.2737
    1SOL    MW4 2260   1.571   0.479   1.220  0.1334 -0.2790  0.2651
    1SOL     OW 2261   1.546   0.741   1.191 -0.9524  0.1419  0.0672
    1SOL    HW2 2262   1.618   0.798   1.217 -1.6829  0.8881  0.5104
    1SOL    HW3 2263   1.538   0.755   1.096 -0.7639  0.3550  0.0814
    1SOL    MW4 2264   1.554   0.751   1.182 -1.0238  0.2685  0.1274
    1SOL     OW 2265   1.332   0.882   1.271  0.1627 -0.0672  0.3314
    1SOL    HW2 2266   1.396   0.814   1.247  0.9456  0.8252 -0.1454
    1SOL    HW3 2267   1.249   0.851   1.235  0.6758 -0.3670 -0.6054
    1SOL    MW4 2268   1.330   0.869   1.263  0.3337  0.0110  0.1448
    1SOL     OW 2269   1.350   1.135   1.153  0.3776 -0.0637 -0.2113
    1SOL    HW2 2270   1.343   1.046   1.190 -0.5171  0.3940  0.7462
    1SOL    HW3 2271   1.335   1.123   1.059 -0.4270 -0.8355  0.0124
    1SOL    MW4 2272   1.347   1.121   1.146  0.1534 -0.1051 -0.0554
    1SOL     OW 2273   1.527   1.336   1.201  0.0529 -0.1920 -0.2431
    1SOL    HW2 2274   1.613   1.295   1.191  0.4737 -0.0966  2.5755
    1SOL    HW3 2275   1.465   1.265   1.183  0.7340 -0.8117 -0.1870
    1SOL    MW4 2276   1.531   1.321   1.197  0.1982 -0.2611  0.1360
    1SOL     OW 2277   1.580   1.583   1.073 -0.3836  0.4430  0.2310
    1SOL    HW2 2278   1.641   1.620   1.138 -0.0279  0.8063 -0.3070
    1SOL    HW3 2279   1.579   1.489   1.092  2.0427  0.1002 -1.1463
    1SOL    MW4 2280   1.588   1.576   1.084 -0.0165  0.4456 -0.0217
    1SOL     OW 2281   1.356   1.678   1.207 -0.2959  0.1710  0.2418
    1SOL    HW2 2282   1.434   1.634   1.175 -0.2345 -0.9868  1.9553
    1SOL    HW3 2283   1.283   1.627   1.170 -0.2272 -0.4171  0.9068
    1SOL    MW4 2284   1.356   1.665   1.198 -0.2787 -0.0591  0.5556
    1SOL     OW 2285   1.393   1.940   1.128  0.5000  0.4815  0.4468
    1SOL    HW2 2286   1.379   1.848   1.151 -0.7694  0.5160 -0.1387
    1SOL    HW3 2287   1.309   1.983   1.146  0.9698  1.4546  0.3641
    1SOL    MW4 2288   1.380   1.933   1.133  0.3946  0.6144  0.3586
    1SOL     OW 2289   1.611   2.077   1.202  0.3866  0.2226 -0.2751
    1SOL    HW2 2290   1.608   2.153   1.143 -0.5802  0.5261  0.1628
    1SOL    HW3 2291   1.535   2.025   1.178 -0.2088  0.5198  0.9244
    1SOL    MW4 2292   1.601   2.080   1.191  0.1806  0.3016 -0.0590
    1SOL     OW 2293   1.589   2.363   1.131  0.0798  0.0206  0.2883
    1SOL    HW2 2294   1.504   2.390   1.167  0.7359  1.3322  0.8707
    1SOL    HW3 2295   1.580   2.379   1.037 -0.5831 -0.5471  0.2521
    1SOL    MW4 2296   1.577   2.369   1.123  0.0789  0.1187  0.3604
    1SOL     OW 2297   1.338   2.474   1.196  0.5119  0.2032 -0.2704
    1SOL    HW2 2298   1.325   2.492   1.289  0.9652  0.8519 -0.3254
    1SOL    HW3 2299   1.345   2.560   1.156 -0.2493 -0.0681 -0.9937
    1SOL    MW4 2300   1.338   2.488   1.203  0.4712  0.2530 -0.3730
    1SOL     OW 2301   1.371   2.763   1.096  0.1251  0.2633 -0.0031
    1SOL    HW2 2302   1.440   2.793   1.154 -0.7527  2.0472  0.1420
    1SOL    HW3 2303   1.290   2.794   1.136 -0.5704  0.6549 -1.6490
    1SOL    MW4 2304   1.369   2.771   1.109 -0.0826  0.5503 -0.2010
    1SOL     OW 2305   1.592   2.849   1.231  0.4552 -0.1583 -0.2859
    1SOL    HW2 2306   1.680   2.814   1.217  0.8500  0.0639  1.5783
    1SOL    HW3 2307   1.597   2.940   1.203  2.0835  1.1913  4.0013
    1SOL    MW4 2308   1.604   2.856   1.225  0.7222  0.0491  0.5258
    1SOL     OW 2309   1.581   3.109   1.112  0.0048 -0.1049 -0.3148
    1SOL    HW2 2310   1.653   3.169   1.132  0.0209  0.0546 -0.8372
    1SOL    HW3 2311   1.506   3.144   1.159  0.0729  0.1820 -0.4227
    1SOL    MW4 2312   1.581   3.121   1.121  0.0159 -0.0458 -0.3979
    1SOL     OW 2313   1.333   3.224   1.221 -0.3298  0.1130  0.3563
    1SOL    HW2 2314   1.333   3.213   1.316  0.8186  0.5522  0.4066
    1SOL    HW3 2315   1.269   3.160   1.190 -0.0384 -0.6756  1.3538
    1SOL    MW4 2316   1.325   3.214   1.230 -0.1398  0.0670  0.4945
    1SOL     OW 2317   1.349   3.497   1.152  0.1538 -0.4685 -0.6245
    1SOL    HW2 2318   1.344   3.404   1.173  1.3050 -0.8948 -2.1461
    1SOL    HW3 2319   1.331   3.501   1.058 -1.6251  1.0355 -0.2274
    1SOL    MW4 2320   1.346   3.485   1.142  0.0712 -0.3264 -0.7730
    1SOL     OW 2321   1.578   3.639   1.250 -0.2861  0.2718 -0.1185
    1SOL    HW2 2322   1.569   3.733   1.236  0.4845  0.2411 -0.8815
    1SOL    HW3 2323   1.495   3.602   1.218 -1.1689  0.8120  1.5239
    1SOL    MW4 2324   1.565   3.646   1.244 -0.3009  0.3390 -0.0025
    1SOL     OW 2325   1.576   3.911   1.173  0.0067 -0.0333 -0.0097
    1SOL    HW2 2326   1.486   3.939   1.192  0.3014  1.3950 -0.6461
    1SOL    HW3 2327   1.572   3.878   1.083 -0.4149 -2.4849  0.8499
    1SOL    MW4 2328   1.564   3.910   1.164 -0.0101 -0.1686  0.0198
    1SOL     OW 2329   1.323   4.040   1.228 -0.5699  0.1980  0.2721
    1SOL    HW2 2330   1.315   4.132   1.201 -0.8660 -0.3335 -1.4818
    1SOL    HW3 2331   1.239   4.001   1.203 -0.0455 -0.7972  0.0715
    1SOL    MW4 2332   1.311   4.047   1.221 -0.5397 -0.0033  0.0142
    1SOL     OW 2333   1.317   4.316   1.144 -0.0322 -0.3392 -0.2055
    1SOL    HW2 2334   1.235   4.364   1.158 -0.0033  0.1269 -1.5120
    1SOL    HW3 2335   1.317   4.297   1.050  1.5594  0.0525 -0.2951
    1SOL    MW4 2336   1.306   4.320   1.134  0.1816 -0.2260 -0.3897
    1SOL     OW 2337   1.566   4.407   1.231 -0.1923  0.2731  0.7030
    1SOL    HW2 2338   1.558   4.388   1.325 -1.1868 -1.0861  0.3621
    1SOL    HW3 2339   1.492   4.360   1.192  0.6347  0.2609 -0.8439
    1SOL    MW4 2340   1.555   4.398   1.239 -0.2143  0.0925  0.4539
    1SOL     OW 2341   2.055   0.020   1.162 -0.4682  0.1735  0.5311
    1SOL    HW2 2342   2.054  -0.074   1.181 -1.0600  0.1312  0.3172
    1SOL    HW3 2343   2.048   0.025   1.067 -1.0285  0.4441  0.5852
    1SOL    MW4 2344   2.054   0.008   1.152 -0.6201  0.2036  0.5100
    1SOL     OW 2345   1.785   0.095   1.230  0.1679 -0.7665  0.2413
    1SOL    HW2 2346   1.767   0.178   1.186 -0.6788 -1.2437 -0.3205
    1SOL    HW3 2347   1.876   0.077   1.210  0.3381 -0.0057  0.3062
    1SOL    MW4 2348   1.794   0.104   1.222  0.0787 -0.7291  0.1758
    1SOL     OW 2349   1.790   0.335   1.107  0.0804 -0.0199 -0.2226
    1SOL    HW2 2350   1.720   0.391   1.139 -0.0636 -0.8298  0.8918
    1SOL    HW3 2351   1.776   0.330   1.013 -0.6975  0.7256 -0.1486
    1SOL    MW4 2352   1.779   0.342   1.099 -0.0412 -0.0284 -0.0658
    1SOL     OW 2353   2.010   0.481   1.236 -0.0399  0.4376 -0.1208
    1SOL    HW2 2354   2.001   0.476   1.331  1.5787 -1.1342 -0.0025
    1SOL    HW3 2355   1.942   0.423   1.202  1.7685 -2.0125  0.2725
    1SOL    MW4 2356   2.000   0.472   1.244  0.4123 -0.0930 -0.0532
    1SOL     OW 2357   1.962   0.758   1.155  0.0909  0.1625 -0.6412
    1SOL    HW2 2358   1.970   0.669   1.190 -0.7818  0.0777 -0.6602
    1SOL    HW3 2359   1.981   0.748   1.061 -0.4266 -0.0681 -0.7211
    1SOL    MW4 2360   1.966   0.745   1.147 -0.0924  0.1210 -0.6545
    1SOL     OW 2361   1.760   0.926   1.251  0.0413  0.6145 -0.0658
    1SOL    HW2 2362   1.774   0.912   1.345  1.3695 -0.0973 -0.3657
    1SOL    HW3 2363   1.831   0.879   1.208 -0.2698  1.3410 -1.4205
    1SOL    MW4 2364   1.771   0.918   1.258  0.1755  0.6164 -0.2841
    1SOL     OW 2365   1.746   1.164   1.144 -0.3236 -0.0809 -0.2491
    1SOL    HW2 2366   1.754   1.080   1.190 -1.4330  0.1554  0.4045
    1SOL    HW3 2367   1.730   1.140   1.053  0.3582 -0.5771 -0.2375
    1SOL    MW4 2368   1.745   1.150   1.138 -0.3798 -0.1153 -0.1613
    1SOL     OW 2369   2.006   1.274   1.248 -0.6537  0.1412  0.2583
    1SOL    HW2 2370   2.082   1.233   1.207 -0.2913  1.4669 -0.4236
    1SOL    HW3 2371   1.931   1.241   1.197 -0.3950  0.1428 -0.1252
    1SOL    MW4 2372   2.006   1.264   1.236 -0.5717  0.3164  0.1177
    1SOL     OW 2373   2.007   1.527   1.137 -0.0138 -0.0179 -0.1737
    1SOL    HW2 2374   2.016   1.438   1.172 -1.0331  0.2705  0.8501
    1SOL    HW3 2375   1.980   1.514   1.046 -0.5251 -0.7560  0.0762
    1SOL    MW4 2376   2.004   1.513   1.130 -0.2155 -0.0772 -0.0057
    1SOL     OW 2377   1.791   1.650   1.241 -0.0178 -0.1468 -0.1820
    1SOL    HW2 2378   1.799   1.741   1.211  1.9430  0.0266  0.7356
    1SOL    HW3 2379   1.869   1.607   1.206 -1.7292 -1.9161 -1.9523
    1SOL    MW4 2380   1.802   1.657   1.232  0.0150 -0.3575 -0.2944
    1SOL     OW 2381   1.809   1.902   1.145 -0.2254 -0.0837  0.1741
    1SOL    HW2 2382   1.747   1.968   1.178 -1.5577 -0.6361 -1.1730
    1SOL    HW3 2383   1.802   1.909   1.050  2.3851  0.3875 -0.0017
    1SOL    MW4 2384   1.800   1.912   1.137 -0.0569 -0.0944 -0.0268
    1SOL     OW 2385   2.028   2.071   1.197 -0.1701  0.2763 -0.2139
    1SOL    HW2 2386   2.018   2.081   1.292 -0.1628  0.9103 -0.2775
    1SOL    HW3 2387   1.961   2.008   1.172 -0.0719 -0.0094  0.2355
    1SOL    MW4 2388   2.018   2.064   1.206 -0.1562  0.3223 -0.1630
    1SOL     OW 2389   2.035   2.330   1.067 -0.0470 -0.4790 -0.0056
    1SOL    HW2 2390   2.088   2.389   1.120 -1.5945  1.4336 -0.5380
    1SOL    HW3 2391   2.049   2.244   1.106  0.6307  0.5435  2.0658
    1SOL    MW4 2392   2.044   2.326   1.079 -0.1619 -0.0918  0.1975
    1SOL     OW 2393   1.821   2.460   1.216  0.1751  0.1501 -0.3107
    1SOL    HW2 2394   1.887   2.415   1.163 -0.6181  0.9055 -1.9741
    1SOL    HW3 2395   1.737   2.427   1.183 -0.3467  0.9861  0.1526
    1SOL    MW4 2396   1.819   2.449   1.205  0.0017  0.3603 -0.4691
    1SOL     OW 2397   1.839   2.734   1.146 -0.0342  0.1227 -0.1238
    1SOL    HW2 2398   1.846   2.644   1.178  2.2033 -0.2566 -1.5202
    1SOL    HW3 2399   1.829   2.726   1.051 -2.2839  1.3066 -0.0115
    1SOL    MW4 2400   1.839   2.721   1.138 -0.0356  0.2289 -0.2933
    1SOL     OW 2401   2.063   2.879   1.233 -0.0985 -0.3536  0.3262
    1SOL    HW2 2402   2.048   2.971   1.211  0.9031  0.5450  3.2837
    1SOL    HW3 2403   1.981   2.836   1.209 -0.6207  1.3062 -0.9943
    1SOL    MW4 2404   2.050   2.885   1.227 -0.0350 -0.0157  0.5422
    1SOL     OW 2405   2.040   3.137   1.151  0.0527  0.0755  0.4983
    1SOL    HW2 2406   1.959   3.178   1.182 -0.1988  0.9154 -1.1798
    1SOL    HW3 2407   2.036   3.146   1.055  1.6201 -0.8307  0.3330
    1SOL    MW4 2408   2.029   3.144   1.142  0.2265  0.0665  0.2552
    1SOL     OW 2409   1.789   3.242   1.226 -0.5882 -0.0173  0.0780
    1SOL    HW2 2410   1.790   3.238   1.322 -0.9267 -1.2585  0.0304
    1SOL    HW3 2411   1.788   3.336   1.207  0.9084  0.2719  1.2739
    1SOL    MW4 2412   1.789   3.254   1.236 -0.4355 -0.1431  0.2296
    1SOL     OW 2413   1.779   3.514   1.101  0.1320  0.5281 -0.3838
    1SOL    HW2 2414   1.860   3.549   1.138 -0.1188  0.1707  0.5176
    1SOL    HW3 2415   1.710   3.555   1.154 -0.3417  1.7529 -1.9017
    1SOL    MW4 2416   1.781   3.524   1.113  0.0364  0.6428 -0.4650
    1SOL     OW 2417   2.005   3.627   1.207  0.1551 -0.5319 -0.2009
    1SOL    HW2 2418   1.997   3.625   1.302  0.6921 -0.8174 -0.1629
    1SOL    HW3 2419   2.096   3.603   1.190 -0.0947 -1.0349 -0.8140
    1SOL    MW4 2420   2.016   3.624   1.217  0.1931 -0.6356 -0.2768
    1SOL     OW 2421   2.025   3.886   1.118  0.2292  0.0778  0.2849
    1SOL    HW2 2422   1.946   3.935   1.141  0.3871  0.5840 -0.2443
    1SOL    HW3 2423   2.011   3.799   1.156 -1.2986 -0.3478 -1.2185
    1SOL    MW4 2424   2.013   3.881   1.126  0.0486  0.0882  0.0168
    1SOL     OW 2425   1.818   4.042   1.219  0.3260 -0.4181  0.1532
    1SOL    HW2 2426   1.829   4.039   1.314  1.0878 -0.6307  0.0642
    1SOL    HW3 2427   1.731   4.004   1.204  0.1837 -0.3451  0.7640
    1SOL    MW4 2428   1.808   4.036   1.230  0.4078 -0.4368  0.2221
    1SOL     OW 2429   1.808   4.298   1.129  0.1427 -0.0256 -0.2278
    1SOL    HW2 2430   1.800   4.213   1.171 -0.9511 -0.6571 -1.6820
    1SOL    HW3 2431   1.727   4.344   1.153  0.2148  0.1805 -0.3760
    1SOL    MW4 2432   1.796   4.293   1.138  0.0079 -0.0820 -0.4392
    1SOL     OW 2433   2.057   4.415   1.200 -0.0354  0.3530  0.1502
    1SOL    HW2 2434   2.054   4.417   1.296 -0.2062  0.1096  0.1517
    1SOL    HW3 2435   1.981   4.362   1.175  0.4367 -0.2185 -0.0916
    1SOL    MW4 2436   2.046   4.408   1.210  0.0045  0.2446  0.1184
    1SOL     OW 2437   2.415   0.005   1.160 -0.0273  0.2557 -0.1290
    1SOL    HW2 2438   2.501   0.040   1.184 -0.0586 -0.4979  1.1209
    1SOL    HW3 2439   2.353   0.063   1.203 -0.1049 -0.4544  0.7195
    1SOL    MW4 2440   2.418   0.017   1.169 -0.0415  0.0626  0.1478
    1SOL     OW 2441   2.245   0.172   1.280  0.3742 -0.7662  0.0497
    1SOL    HW2 2442   2.253   0.251   1.225  0.9474 -0.5129  0.4942
    1SOL    HW3 2443   2.176   0.121   1.238 -0.8565  0.5392  0.4308
    1SOL    MW4 2444   2.237   0.176   1.267  0.2875 -0.5605  0.1585
    1SOL     OW 2445   2.265   0.411   1.113  0.0500  0.2085  0.0440
    1SOL    HW2 2446   2.180   0.443   1.141  0.0196  0.0935  0.0835
    1SOL    HW3 2447   2.251   0.380   1.024 -0.6038 -2.3818  1.0209
    1SOL    MW4 2448   2.252   0.411   1.105 -0.0403 -0.1484  0.1781
    1SOL     OW 2449   2.492   0.546   1.236 -0.3827  0.3364  0.4843
    1SOL    HW2 2450   2.485   0.529   1.330 -1.7539 -1.0095  0.1499
    1SOL    HW3 2451   2.414   0.506   1.198  0.3409  0.5539 -1.2779
    1SOL    MW4 2452   2.481   0.539   1.243 -0.4683  0.1875  0.2078
    1SOL     OW 2453   2.436   0.794   1.118  0.4546 -0.6266  0.3529
    1SOL    HW2 2454   2.446   0.708   1.158 -0.4904 -1.0163 -0.2224
    1SOL    HW3 2455   2.451   0.779   1.025 -1.4822 -0.5264 -0.0037
    1SOL    MW4 2456   2.439   0.781   1.111  0.0746 -0.6649  0.2298
    1SOL     OW 2457   2.205   0.911   1.231  0.5577 -0.6340  0.7315
    1SOL    HW2 2458   2.282   0.879   1.184 -0.3463 -0.4271 -0.9351
    1SOL    HW3 2459   2.132   0.859   1.196 -0.4449  0.9886  0.3579
    1SOL    MW4 2460   2.205   0.900   1.220  0.3059 -0.3926  0.4623
    1SOL     OW 2461   2.202   1.155   1.114  0.0581  0.8585 -0.0035
    1SOL    HW2 2462   2.272   1.204   1.157 -0.1538  0.8146  0.3952
    1SOL    HW3 2463   2.199   1.072   1.162 -0.5017  1.0005  0.2047
    1SOL    MW4 2464   2.211   1.150   1.126 -0.0436  0.8714  0.0767
    1SOL     OW 2465   2.432   1.289   1.228  0.2616 -0.3559 -0.2102
    1SOL    HW2 2466   2.517   1.253   1.201  1.4867  1.1931  1.4483
    1SOL    HW3 2467   2.446   1.384   1.229 -1.1945 -0.1405  1.0139
    1SOL    MW4 2468   2.445   1.297   1.225  0.2310 -0.1230  0.1700
    1SOL     OW 2469   2.459   1.551   1.165  0.0223 -0.4021 -0.1785
    1SOL    HW2 2470   2.379   1.596   1.194  0.5600  1.3588 -1.3793
    1SOL    HW3 2471   2.446   1.536   1.071  0.8919 -0.5871 -0.2717
    1SOL    MW4 2472   2.447   1.555   1.157  0.2081 -0.1941 -0.3493
    1SOL     OW 2473   2.227   1.671   1.239  0.0221 -0.1290 -0.0227
    1SOL    HW2 2474   2.203   1.753   1.195  0.2956  0.2425  0.5135
    1SOL    HW3 2475   2.163   1.608   1.207  0.2643  0.1092 -1.0239
    1SOL    MW4 2476   2.215   1.674   1.229  0.0901 -0.0486 -0.0840
    1SOL     OW 2477   2.253   1.926   1.098 -0.1435  0.0908  0.2531
    1SOL    HW2 2478   2.182   1.978   1.136 -0.5083 -0.6663  0.6383
    1SOL    HW3 2479   2.234   1.925   1.004  0.4284  1.4773  0.1138
    1SOL    MW4 2480   2.241   1.933   1.091 -0.1159  0.1738  0.2855
    1SOL     OW 2481   2.485   2.025   1.217 -0.4437 -0.0696  0.3600
    1SOL    HW2 2482   2.563   1.993   1.171 -0.8009  2.8566 -2.5381
    1SOL    HW3 2483   2.412   1.983   1.171 -0.7171  0.8475 -0.0483
    1SOL    MW4 2484   2.486   2.015   1.205 -0.5269  0.4375 -0.0762
    1SOL     OW 2485   2.480   2.328   1.151  0.0911  0.0624 -0.1182
    1SOL    HW2 2486   2.488   2.237   1.179  1.1025  0.0364 -0.4674
    1SOL    HW3 2487   2.480   2.324   1.055 -1.4753  0.3062 -0.1444
    1SOL    MW4 2488   2.481   2.315   1.142  0.0176  0.0913 -0.1677
    1SOL     OW 2489   2.240   2.464   1.214  0.0786 -0.0186 -0.0285
    1SOL    HW2 2490   2.233   2.464   1.309 -1.2396  0.8961 -0.1058
    1SOL    HW3 2491   2.318   2.413   1.195  0.4123 -0.1078  1.5504
    1SOL    MW4 2492   2.249   2.457   1.224 -0.0510  0.0901  0.1696
    1SOL     OW 2493   2.268   2.732   1.112 -0.2297  0.1476  0.0961
    1SOL    HW2 2494   2.256   2.639   1.133  0.5695  0.1992  0.7944
    1SOL    HW3 2495   2.190   2.774   1.149 -1.6553 -0.4876 -2.0437
    1SOL    MW4 2496   2.256   2.725   1.120 -0.3126  0.0706 -0.0941
    1SOL     OW 2497   2.502   2.820   1.206  0.2032 -0.1882 -0.1740
    1SOL    HW2 2498   2.478   2.810   1.299 -1.0479  0.7636 -0.3706
    1SOL    HW3 2499   2.423   2.795   1.159  0.8332 -0.6407 -0.9988
    1SOL    MW4 2500   2.488   2.815   1.212  0.1214 -0.1223 -0.3089
    1SOL     OW 2501   2.498   3.087   1.176 -0.3068  0.1592  0.4085
    1SOL    HW2 2502   2.413   3.124   1.202 -0.3466 -1.4067  2.5945
    1SOL    HW3 2503   2.491   2.994   1.198  1.3442 -0.3317 -1.0641
    1SOL    MW4 2504   2.486   3.080   1.182 -0.0942 -0.1121  0.5026
    1SOL     OW 2505   2.273   3.239   1.237 -0.2252 -0.2446 -0.2224
    1SOL    HW2 2506   2.268   3.329   1.204  1.0491 -0.2752 -0.5447
    1SOL    HW3 2507   2.197   3.195   1.199 -1.1624  0.8289  0.3719
    1SOL    MW4 2508   2.262   3.245   1.228 -0.1807 -0.1068 -0.1866
    1SOL     OW 2509   2.261   3.512   1.143  0.0729  0.5907 -0.4430
    1SOL    HW2 2510   2.341   3.557   1.169  1.4340 -1.6524 -0.5820
    1SOL    HW3 2511   2.253   3.527   1.049  0.4118  0.6848 -0.4555
    1SOL    MW4 2512   2.270   3.520   1.134  0.2973  0.3073 -0.4630
    1SOL     OW 2513   2.509   3.629   1.225  0.5029 -0.0649  0.1790
    1SOL    HW2 2514   2.498   3.647   1.318 -0.1464 -0.9765  0.2757
    1SOL    HW3 2515   2.503   3.716   1.184 -1.0105  0.1479  0.8089
    1SOL    MW4 2516   2.507   3.643   1.232  0.2172 -0.1571  0.2749
    1SOL     OW 2517   2.477   3.888   1.131 -0.0920  0.0139 -0.3206
    1SOL    HW2 2518   2.397   3.926   1.168 -2.1765 -3.3509 -1.1268
    1SOL    HW3 2519   2.473   3.912   1.038  0.3171  0.6400 -0.1753
    1SOL    MW4 2520   2.466   3.896   1.123 -0.3130 -0.3474 -0.4079
    1SOL     OW 2521   2.249   4.021   1.218  0.0231  0.4023  0.2855
    1SOL    HW2 2522   2.240   4.112   1.188 -2.2880  0.2678  0.4487
    1SOL    HW3 2523   2.167   3.979   1.190  0.9291 -1.5448  0.5081
    1SOL    MW4 2524   2.237   4.028   1.210 -0.1624  0.1278  0.3364
    1SOL     OW 2525   2.285   4.272   1.128 -0.0023 -0.0205  0.6145
    1SOL    HW2 2526   2.206   4.318   1.157  0.8788  1.4634  0.7154
    1SOL    HW3 2527   2.280   4.274   1.032  0.0948  0.4261  0.6147
    1SOL    MW4 2528   2.274   4.278   1.119  0.1266  0.2346  0.6278
    1SOL     OW 2529   2.488   4.405   1.243 -0.0500  0.0885  0.2246
    1SOL    HW2 2530   2.416   4.360   1.199  0.6154 -0.2172 -0.5875
    1SOL    HW3 2531   2.477   4.497   1.220  1.1595 -0.2577 -1.8921
    1SOL    MW4 2532   2.477   4.411   1.234  0.1972  0.0024 -0.1619
    1SOL     OW 2533   2.863   0.027   1.101 -0.3046 -0.1277  0.3347
    1SOL    HW2 2534   2.888  -0.066   1.097  0.3602  0.0381  0.5379
    1SOL    HW3 2535   2.820   0.044   1.018  1.0861 -0.1955 -0.4137
    1SOL    MW4 2536   2.861   0.017   1.090 -0.0336 -0.1148  0.2626
    1SOL     OW 2537   2.656   0.124   1.249  0.1294  0.2246  0.0527
    1SOL    HW2 2538   2.681   0.134   1.341  0.3098  1.3913 -0.1115
    1SOL    HW3 2539   2.737   0.095   1.206 -0.5367 -2.6585  0.6273
    1SOL    MW4 2540   2.670   0.121   1.255  0.0656 -0.0019  0.1068
    1SOL     OW 2541   2.677   0.377   1.119  0.4766  0.0691  0.1499
    1SOL    HW2 2542   2.664   0.289   1.154 -0.0543  0.0690 -0.0317
    1SOL    HW3 2543   2.617   0.432   1.169 -0.9120 -0.0744 -1.3010
    1SOL    MW4 2544   2.667   0.373   1.130  0.2236  0.0502 -0.0654
    1SOL     OW 2545   2.897   0.497   1.231 -0.0293 -0.4791  0.0661
    1SOL    HW2 2546   2.902   0.588   1.204 -1.7740 -0.4121 -0.0548
    1SOL    HW3 2547   2.820   0.462   1.187 -1.0912 -1.2097  2.3785
    1SOL    MW4 2548   2.887   0.504   1.222 -0.3998 -0.5667  0.3552
    1SOL     OW 2549   2.873   0.757   1.156 -0.2929 -0.1616  0.0890
    1SOL    HW2 2550   2.949   0.806   1.188  0.0098 -0.6611  0.1445
    1SOL    HW3 2551   2.798   0.809   1.182  0.0746  0.7987 -0.7742
    1SOL    MW4 2552   2.873   0.770   1.164 -0.2046 -0.1008 -0.0175
    1SOL     OW 2553   2.655   0.903   1.243  0.5683 -0.1141  0.1396
    1SOL    HW2 2554   2.655   0.995   1.217 -1.0334  0.1991  1.2285
    1SOL    HW3 2555   2.574   0.867   1.207  0.6842 -0.8425  0.5872
    1SOL    MW4 2556   2.645   0.911   1.235  0.3722 -0.1690  0.3424
    1SOL     OW 2557   2.659   1.153   1.120 -0.0196 -0.1591  0.8331
    1SOL    HW2 2558   2.739   1.197   1.147 -0.7994  0.7706  1.6632
    1SOL    HW3 2559   2.671   1.136   1.026  0.5890  1.2017  0.6506
    1SOL    MW4 2560   2.671   1.157   1.111 -0.0422  0.1431  0.9185
    1SOL     OW 2561   2.888   1.263   1.233 -0.9024  0.3026  0.8850
    1SOL    HW2 2562   2.892   1.284   1.326 -1.5782 -0.1008  1.0139
    1SOL    HW3 2563   2.898   1.347   1.189  0.8202  0.3215  1.2838
    1SOL    MW4 2564   2.889   1.277   1.239 -0.7644  0.2518  0.9547
    1SOL     OW 2565   2.899   1.518   1.109 -0.0716 -0.1808 -0.3442
    1SOL    HW2 2566   2.970   1.578   1.131  0.5830 -0.6729 -1.1048
    1SOL    HW3 2567   2.872   1.545   1.021 -0.3216 -0.4884 -0.3620
    1SOL    MW4 2568   2.905   1.530   1.100 -0.0181 -0.2862 -0.4469
    1SOL     OW 2569   2.692   1.680   1.197 -0.4443 -0.4077 -0.0715
    1SOL    HW2 2570   2.764   1.623   1.172 -0.0010  0.1804 -0.1385
    1SOL    HW3 2571   2.613   1.632   1.170 -0.0782 -1.0176 -0.0590
    1SOL    MW4 2572   2.691   1.666   1.190 -0.3376 -0.4106 -0.0787
    1SOL     OW 2573   2.719   1.925   1.068  0.0670 -0.6032 -0.5414
    1SOL    HW2 2574   2.796   1.971   1.103 -0.9534  0.3588  0.5036
    1SOL    HW3 2575   2.714   1.845   1.121  0.4126 -0.7171 -0.6795
    1SOL    MW4 2576   2.728   1.921   1.080 -0.0219 -0.4913 -0.4218
    1SOL     OW 2577   2.937   2.084   1.174 -0.1800 -0.5104  0.3378
    1SOL    HW2 2578   2.947   2.082   1.269  0.5675  0.0143  0.2799
    1SOL    HW3 2579   2.941   2.178   1.152  1.2947 -0.7342 -0.3753
    1SOL    MW4 2580   2.939   2.096   1.184  0.1132 -0.4706  0.2362
    1SOL     OW 2581   2.965   2.359   1.125  0.0575  0.0353 -0.3559
    1SOL    HW2 2582   3.037   2.392   1.180 -0.0919 -0.4393  0.1326
    1SOL    HW3 2583   2.887   2.400   1.162 -0.3755 -2.3187  1.4949
    1SOL    MW4 2584   2.964   2.369   1.137 -0.0198 -0.3381 -0.0474
    1SOL     OW 2585   2.720   2.435   1.215 -0.3570  0.1442 -0.0027
    1SOL    HW2 2586   2.694   2.445   1.307  0.8424 -1.2404  0.4951
    1SOL    HW3 2587   2.652   2.380   1.177 -1.0678  1.0418 -0.0609
    1SOL    MW4 2588   2.707   2.429   1.222 -0.2925  0.0799  0.0554
    1SOL     OW 2589   2.742   2.691   1.115 -0.0914  0.0721 -0.0268
    1SOL    HW2 2590   2.722   2.600   1.135 -0.4144  0.2663  0.5397
    1SOL    HW3 2591   2.672   2.741   1.158 -0.9423  0.4848 -1.8067
    1SOL    MW4 2592   2.730   2.686   1.123 -0.2460  0.1526 -0.1869
    1SOL     OW 2593   2.960   2.854   1.206  0.4235 -0.0898 -0.5053
    1SOL    HW2 2594   2.931   2.864   1.297 -0.4028  0.7476 -0.8514
    1SOL    HW3 2595   2.894   2.799   1.166  1.0060 -0.7972 -0.5046
    1SOL    MW4 2596   2.948   2.848   1.213  0.3912 -0.0730 -0.5509
    1SOL     OW 2597   2.919   3.124   1.163  0.2102  0.0652 -0.2864
    1SOL    HW2 2598   2.928   3.030   1.176 -1.5831 -0.2325 -1.0817
    1SOL    HW3 2599   2.957   3.141   1.077 -1.0110 -0.2040 -0.8847
    1SOL    MW4 2600   2.925   3.114   1.153 -0.1874 -0.0095 -0.4702
    1SOL     OW 2601   2.691   3.241   1.283  0.4848 -0.3025 -0.3196
    1SOL    HW2 2602   2.761   3.188   1.244  0.7186 -1.4905  1.5877
    1SOL    HW3 2603   2.611   3.193   1.262  0.3425  0.4600 -1.5494
    1SOL    MW4 2604   2.690   3.227   1.275  0.4969 -0.3588 -0.2302
    1SOL     OW 2605   2.659   3.447   1.085  0.2256 -0.8209 -0.1510
    1SOL    HW2 2606   2.674   3.371   1.141  0.6400 -0.2646  0.4980
    1SOL    HW3 2607   2.598   3.502   1.135  1.4474  0.1945  0.2366
    1SOL    MW4 2608   2.653   3.444   1.099  0.4416 -0.6137 -0.0142
    1SOL     OW 2609   2.869   3.600   1.194  0.4825 -0.2022 -0.0930
    1SOL    HW2 2610   2.946   3.544   1.192 -0.3797 -1.3726 -2.2468
    1SOL    HW3 2611   2.798   3.544   1.163 -0.7869  1.5008 -0.3115
    1SOL    MW4 2612   2.870   3.585   1.190  0.2015 -0.1321 -0.4059
    1SOL     OW 2613   2.849   3.879   1.144 -0.6698 -0.0188 -0.2689
    1SOL    HW2 2614   2.926   3.918   1.186 -0.3921  0.5125 -1.2502
    1SOL    HW3 2615   2.858   3.785   1.160  0.1052  0.0541 -0.2357
    1SOL    MW4 2616   2.860   3.872   1.151 -0.5310  0.0610 -0.3940
    1SOL     OW 2617   2.669   4.054   1.256  0.3795 -0.2683 -0.6309
    1SOL    HW2 2618   2.738   3.999   1.219  0.4595  0.0701 -0.9974
    1SOL    HW3 2619   2.588   4.009   1.233  0.4956 -0.9107  0.2123
    1SOL    MW4 2620   2.667   4.041   1.248  0.4053 -0.3085 -0.5682
    1SOL     OW 2621   2.751   4.322   1.246  0.2518  0.4697  0.3222
    1SOL    HW2 2622   2.733   4.233   1.274  0.9265  0.8770  2.1227
    1SOL    HW3 2623   2.665   4.364   1.238  0.0200  0.1208  1.0240
    1SOL    MW4 2624   2.738   4.316   1.248  0.3104  0.4768  0.6524
    1SOL     OW 2625   2.949   4.429   1.095 -0.2823  0.6151 -0.0564
    1SOL    HW2 2626   3.023   4.368   1.098 -1.2349 -0.6478 -1.4648
    1SOL    HW3 2627   2.886   4.393   1.156 -0.2064  1.0687  0.2928
    1SOL    MW4 2628   2.951   4.416   1.103 -0.3979  0.5083 -0.1962
    1SOL     OW 2629   3.365   4.588   1.122  0.0560 -0.1372  0.2556
    1SOL    HW2 2630   3.439   4.648   1.135 -0.7413  0.9620 -0.1128
    1SOL    HW3 2631   3.288   4.642   1.141 -0.7338 -0.7072 -1.2605
    1SOL    MW4 2632   3.364   4.603   1.126 -0.1533 -0.0677  0.0069
    1SOL     OW 2633   3.144   0.117   1.160  0.0818 -0.3664 -0.0476
    1SOL    HW2 2634   3.137   0.114   1.255  0.0297  1.7578  0.0368
    1SOL    HW3 2635   3.058   0.089   1.128 -0.2439 -0.0182  0.5368
    1SOL    MW4 2636   3.132   0.113   1.168  0.0319 -0.0402  0.0405
    1SOL     OW 2637   3.136   0.393   1.166 -0.2955  0.0440 -0.0040
    1SOL    HW2 2638   3.128   0.297   1.164 -0.3704  0.0662 -1.0273
    1SOL    HW3 2639   3.049   0.423   1.193 -0.2423 -0.1827  0.4232
    1SOL    MW4 2640   3.123   0.384   1.169 -0.2985  0.0170 -0.0826
    1SOL     OW 2641   3.354   0.537   1.192 -0.0522  0.4039 -0.1891
    1SOL    HW2 2642   3.347   0.626   1.158  1.4803  0.7790  0.4478
    1SOL    HW3 2643   3.270   0.496   1.169 -0.3008  1.6347 -1.5283
    1SOL    MW4 2644   3.342   0.543   1.185  0.1171  0.6157 -0.2817
    1SOL     OW 2645   3.368   0.821   1.141  0.1401  0.1256 -0.4750
    1SOL    HW2 2646   3.276   0.846   1.153 -0.0471 -0.3418 -0.9428
    1SOL    HW3 2647   3.385   0.836   1.048 -0.2430 -2.3212 -0.9880
    1SOL    MW4 2648   3.358   0.826   1.130  0.0651 -0.2589 -0.6045
    1SOL     OW 2649   3.104   0.889   1.207  0.2842  0.0770 -0.3570
    1SOL    HW2 2650   3.118   0.898   1.302 -1.0274  0.3418 -0.1719
    1SOL    HW3 2651   3.123   0.976   1.172  1.2588 -0.1550 -0.3997
    1SOL    MW4 2652   3.108   0.902   1.215  0.2396  0.0813 -0.3381
    1SOL     OW 2653   3.135   1.169   1.140  0.3095  0.1018  0.0694
    1SOL    HW2 2654   3.203   1.230   1.169  0.2515  0.6834 -0.9762
    1SOL    HW3 2655   3.055   1.200   1.180  0.5544 -0.2446  0.8391
    1SOL    MW4 2656   3.134   1.181   1.149  0.3338  0.1328  0.0330
    1SOL     OW 2657   3.371   1.298   1.167  0.5933  0.0970 -0.4127
    1SOL    HW2 2658   3.383   1.294   1.262  0.1681  0.2259 -0.3484
    1SOL    HW3 2659   3.407   1.383   1.142  0.0816  0.3650 -0.2620
    1SOL    MW4 2660   3.377   1.309   1.176  0.4697  0.1495 -0.3842
    1SOL     OW 2661   3.394   1.545   1.067 -0.4717  0.2787 -0.3127
    1SOL    HW2 2662   3.461   1.581   1.126  1.4720 -1.2504 -1.5161
    1SOL    HW3 2663   3.311   1.581   1.100  0.8125  1.3506  1.8862
    1SOL    MW4 2664   3.392   1.554   1.079 -0.0463  0.2184 -0.1813
    1SOL     OW 2665   3.121   1.684   1.169 -0.2496 -0.1586 -0.4311
    1SOL    HW2 2666   3.140   1.675   1.263 -0.8604 -1.4403 -0.4171
    1SOL    HW3 2667   3.124   1.778   1.153 -2.1487  0.2418  1.3158
    1SOL    MW4 2668   3.124   1.695   1.179 -0.5808 -0.2749 -0.1986
    1SOL     OW 2669   3.170   1.967   1.096 -0.3381  0.0073  0.0990
    1SOL    HW2 2670   3.247   2.002   1.140  0.1392 -0.5404 -0.3043
    1SOL    HW3 2671   3.096   2.013   1.137  0.2360  0.9795  0.0420
    1SOL    MW4 2672   3.170   1.978   1.107 -0.1993  0.0632  0.0384
    1SOL     OW 2673   3.412   2.057   1.190  0.4608 -0.4564 -0.6571
    1SOL    HW2 2674   3.496   2.020   1.162  1.2779  0.2338  0.8220
    1SOL    HW3 2675   3.417   2.149   1.164  0.5498 -0.1990  0.2641
    1SOL    MW4 2676   3.424   2.064   1.183  0.5805 -0.3316 -0.3405
    1SOL     OW 2677   3.397   2.330   1.146 -0.0223 -0.1738 -0.4846
    1SOL    HW2 2678   3.474   2.382   1.168 -0.5823  0.1235  0.8242
    1SOL    HW3 2679   3.326   2.370   1.197 -0.6632 -1.5800 -0.2689
    1SOL    MW4 2680   3.398   2.342   1.155 -0.1805 -0.3202 -0.2834
    1SOL     OW 2681   3.173   2.447   1.272 -0.4757 -0.0643  0.2929
    1SOL    HW2 2682   3.169   2.444   1.368  0.8113 -0.8549  0.3382
    1SOL    HW3 2683   3.179   2.540   1.251 -2.0768  0.1921  0.9088
    1SOL    MW4 2684   3.174   2.458   1.282 -0.5169 -0.1347  0.3802
    1SOL     OW 2685   3.193   2.714   1.171  0.2218  0.0772  0.0802
    1SOL    HW2 2686   3.115   2.764   1.197 -0.0346 -0.1594 -0.2335
    1SOL    HW3 2687   3.199   2.726   1.076 -0.8841 -1.9702 -0.2728
    1SOL    MW4 2688   3.184   2.722   1.162  0.0422 -0.2241 -0.0079
    1SOL     OW 2689   3.395   2.874   1.249 -0.1708  0.0836 -0.3951
    1SOL    HW2 2690   3.388   2.961   1.212 -1.4069  0.2366  0.1952
    1SOL    HW3 2691   3.309   2.834   1.235 -0.5039 -0.0246  1.8789
    1SOL    MW4 2692   3.383   2.880   1.242 -0.3777  0.0896 -0.0172
    1SOL     OW 2693   3.369   3.121   1.117  0.4443  0.0234  0.4824
    1SOL    HW2 2694   3.443   3.167   1.158  0.3852  1.0561 -0.5347
    1SOL    HW3 2695   3.292   3.152   1.165  0.6031 -0.5314  1.0960
    1SOL    MW4 2696   3.368   3.131   1.129  0.4575  0.0865  0.4290
    1SOL     OW 2697   3.144   3.244   1.255 -0.3245  0.2381 -0.5751
    1SOL    HW2 2698   3.156   3.320   1.198 -0.3674  0.8017  0.1638
    1SOL    HW3 2699   3.056   3.213   1.236 -0.9451  1.4149  0.3696
    1SOL    MW4 2700   3.134   3.250   1.245 -0.4122  0.4675 -0.3530
    1SOL     OW 2701   3.107   3.481   1.123  0.2535 -0.0534 -0.0643
    1SOL    HW2 2702   3.177   3.538   1.156  1.2327  0.1852 -2.5102
    1SOL    HW3 2703   3.131   3.463   1.032 -1.0661 -2.7947  0.0845
    1SOL    MW4 2704   3.119   3.486   1.116  0.2086 -0.3836 -0.3673
    1SOL     OW 2705   3.347   3.626   1.212  0.3151  0.1864  0.2958
    1SOL    HW2 2706   3.367   3.617   1.305  0.5758 -1.2335  0.1199
    1SOL    HW3 2707   3.420   3.582   1.168  0.3162  1.0547 -0.5863
    1SOL    MW4 2708   3.359   3.619   1.219  0.3498  0.1137  0.1563
    1SOL     OW 2709   3.310   3.889   1.118 -0.8574 -0.0247 -0.2313
    1SOL    HW2 2710   3.249   3.931   1.179 -1.0878  1.5449 -1.5241
    1SOL    HW3 2711   3.299   3.795   1.135 -2.1139  0.3186  0.9894
    1SOL    MW4 2712   3.301   3.882   1.128 -1.0536  0.2279 -0.2408
    1SOL     OW 2713   3.100   4.016   1.228 -0.3952 -0.2155 -0.1184
    1SOL    HW2 2714   3.105   4.036   1.321  1.3416 -0.3710 -0.1556
    1SOL    HW3 2715   3.108   4.100   1.185 -0.4744 -0.2182 -0.1379
    1SOL    MW4 2716   3.102   4.029   1.235 -0.1764 -0.2365 -0.1258
    1SOL     OW 2717   3.157   4.246   1.091 -0.5103  0.3767  0.4602
    1SOL    HW2 2718   3.242   4.266   1.132 -0.1781  0.4172 -0.2531
    1SOL    HW3 2719   3.173   4.252   0.997 -1.1980 -0.0668  0.3124
    1SOL    MW4 2720   3.170   4.250   1.084 -0.5572  0.3238  0.3465
    1SOL     OW 2721   3.369   4.344   1.260 -0.2257 -0.0404  0.3803
    1SOL    HW2 2722   3.453   4.309   1.229  0.1918 -0.4495  1.9247
    1SOL    HW3 2723   3.368   4.434   1.229  0.7094 -0.0905  0.1885
    1SOL    MW4 2724   3.380   4.351   1.252 -0.0474 -0.1016  0.5589
    1SOL     OW 2725   3.793   4.621   1.096 -0.1645 -0.3322  0.5614
    1SOL    HW2 2726   3.804   4.540   1.145 -0.8141 -0.7744 -0.0287
    1SOL    HW3 2727   3.760   4.594   1.011  1.5861  0.3846 -0.3696
    1SOL    MW4 2728   3.790   4.607   1.092 -0.0196 -0.2961  0.3607
    1SOL     OW 2729   3.578   0.068   1.225  0.0956  0.0909 -0.4880
    1SOL    HW2 2730   3.580   0.163   1.213  0.7315  0.0345 -0.8275
    1SOL    HW3 2731   3.658   0.036   1.184 -0.2247 -0.6190 -0.5856
    1SOL    MW4 2732   3.589   0.076   1.218  0.1373 -0.0102 -0.5457
    1SOL     OW 2733   3.561   0.355   1.125  0.5748 -0.2944  0.0641
    1SOL    HW2 2734   3.636   0.395   1.168  0.9371 -1.1957  0.2876
    1SOL    HW3 2735   3.486   0.409   1.151  1.1407  0.5761 -0.1226
    1SOL    MW4 2736   3.561   0.368   1.134  0.6974 -0.2985  0.0690
    1SOL     OW 2737   3.776   0.472   1.248  0.0566  0.4653 -0.0342
    1SOL    HW2 2738   3.854   0.428   1.214  0.1701  0.4977  0.1833
    1SOL    HW3 2739   3.787   0.563   1.221 -1.1429 -0.0044 -2.2147
    1SOL    MW4 2740   3.788   0.478   1.240 -0.0865  0.4076 -0.2933
    1SOL     OW 2741   3.816   0.743   1.165 -0.1548  0.4676 -0.4731
    1SOL    HW2 2742   3.889   0.779   1.215  0.5565  0.3232 -1.3883
    1SOL    HW3 2743   3.741   0.797   1.189  0.0098 -0.0725  1.3024
    1SOL    MW4 2744   3.816   0.755   1.175 -0.0393  0.3772 -0.3595
    1SOL     OW 2745   3.604   0.910   1.254 -0.0709 -0.1856 -0.1445
    1SOL    HW2 2746   3.606   0.997   1.214 -0.4313 -0.6203 -1.1093
    1SOL    HW3 2747   3.524   0.869   1.220  1.0259 -1.5618 -1.1211
    1SOL    MW4 2748   3.594   0.916   1.245  0.0262 -0.4246 -0.4007
    1SOL     OW 2749   3.587   1.133   1.092 -0.0398  0.2591  0.6073
    1SOL    HW2 2750   3.660   1.183   1.129 -0.5629  1.2311  0.3169
    1SOL    HW3 2751   3.509   1.184   1.111 -0.4131  0.3801 -1.1146
    1SOL    MW4 2752   3.587   1.146   1.099 -0.1581  0.4034  0.3418
    1SOL     OW 2753   3.818   1.275   1.185  0.3267 -0.0241  0.1652
    1SOL    HW2 2754   3.826   1.277   1.280  0.6153 -0.2596  0.1461
    1SOL    HW3 2755   3.826   1.367   1.159 -0.3340  0.1109  0.4106
    1SOL    MW4 2756   3.820   1.288   1.194  0.2778 -0.0374  0.1950
    1SOL     OW 2757   3.791   1.546   1.121 -0.0061  0.5417 -0.0563
    1SOL    HW2 2758   3.872   1.587   1.151  0.8039 -1.8788  1.1882
    1SOL    HW3 2759   3.806   1.529   1.028  1.2048 -0.5129  0.3152
    1SOL    MW4 2760   3.804   1.550   1.113  0.2608  0.0832  0.1571
    1SOL     OW 2761   3.598   1.705   1.232 -0.5725  0.2229  0.3638
    1SOL    HW2 2762   3.607   1.785   1.181 -1.7778  0.5689  0.6803
    1SOL    HW3 2763   3.669   1.648   1.201  0.8377  1.7368  0.7737
    1SOL    MW4 2764   3.608   1.708   1.221 -0.5455  0.4684  0.4598
    1SOL     OW 2765   3.626   1.938   1.078 -0.3474  0.6515 -0.0410
    1SOL    HW2 2766   3.681   1.990   1.137 -1.5940  1.0766  0.7521
    1SOL    HW3 2767   3.670   1.945   0.993 -0.2263  2.5928  0.1570
    1SOL    MW4 2768   3.639   1.946   1.074 -0.4957  0.9638  0.0899
    1SOL     OW 2769   3.807   2.063   1.252  0.0019  0.5131 -0.1073
    1SOL    HW2 2770   3.824   2.079   1.345  0.8661  1.3572 -0.4030
    1SOL    HW3 2771   3.887   2.020   1.220  0.0819  1.0667 -0.6597
    1SOL    MW4 2772   3.820   2.059   1.260  0.1266  0.6976 -0.2191
    1SOL     OW 2773   3.800   2.308   1.099  0.0066  0.2072  0.0867
    1SOL    HW2 2774   3.885   2.350   1.107  0.0786  0.3212 -1.1515
    1SOL    HW3 2775   3.804   2.233   1.159  0.9214  0.2842  0.1245
    1SOL    MW4 2776   3.812   2.304   1.108  0.1369  0.2327 -0.0718
    1SOL     OW 2777   3.622   2.483   1.223 -0.1600 -0.0174 -0.0766
    1SOL    HW2 2778   3.616   2.489   1.318 -0.0101  0.9370 -0.1218
    1SOL    HW3 2779   3.690   2.417   1.206  1.0986  1.1244  0.4808
    1SOL    MW4 2780   3.630   2.475   1.233  0.0257  0.2592 -0.0091
    1SOL     OW 2781   3.567   2.739   1.079 -0.0454 -0.5163  0.0880
    1SOL    HW2 2782   3.589   2.663   1.133 -0.9805  0.2725  1.6034
    1SOL    HW3 2783   3.506   2.790   1.132  0.9369  1.5545 -0.7196
    1SOL    MW4 2784   3.562   2.735   1.093 -0.0391 -0.1390  0.1813
    1SOL     OW 2785   3.791   2.881   1.193  0.5715 -0.2743  0.0555
    1SOL    HW2 2786   3.792   2.872   1.289  3.0216 -1.1283 -0.0203
    1SOL    HW3 2787   3.705   2.848   1.167  0.3256 -1.1611  1.8692
    1SOL    MW4 2788   3.780   2.876   1.202  0.8624 -0.5043  0.2848
    1SOL     OW 2789   3.821   3.143   1.125  0.0013  0.0415 -0.2185
    1SOL    HW2 2790   3.798   3.052   1.138 -2.4289  0.4852 -1.1011
    1SOL    HW3 2791   3.820   3.154   1.029 -0.2336  1.1025 -0.0983
    1SOL    MW4 2792   3.818   3.133   1.114 -0.3500  0.2401 -0.3191
    1SOL     OW 2793   3.586   3.233   1.240  0.4290 -0.3356 -0.2399
    1SOL    HW2 2794   3.578   3.323   1.209 -0.7517 -0.4940 -0.4237
    1SOL    HW3 2795   3.659   3.197   1.191  1.0704  0.6026  0.0231
    1SOL    MW4 2796   3.594   3.240   1.230  0.3579 -0.2332 -0.2294
    1SOL     OW 2797   3.582   3.477   1.127 -0.0180  0.3655  0.2104
    1SOL    HW2 2798   3.656   3.527   1.160  0.8861 -0.6500 -0.2387
    1SOL    HW3 2799   3.594   3.476   1.032 -0.1389 -0.5046  0.1970
    1SOL    MW4 2800   3.593   3.484   1.119  0.0854  0.1171  0.1494
    1SOL     OW 2801   3.806   3.588   1.244 -0.1617  0.0556  0.2807
    1SOL    HW2 2802   3.802   3.583   1.339 -1.4627 -0.1988  0.2180
    1SOL    HW3 2803   3.822   3.680   1.225  0.9466 -0.0294  0.7587
    1SOL    MW4 2804   3.807   3.599   1.254 -0.1869  0.0105  0.3356
    1SOL     OW 2805   3.843   3.845   1.123  0.2888  0.2560 -0.1308
    1SOL    HW2 2806   3.762   3.895   1.134  0.2184  0.2974 -0.8253
    1SOL    HW3 2807   3.842   3.816   1.032  0.0833 -1.4581  0.3944
    1SOL    MW4 2808   3.832   3.848   1.112  0.2527  0.0353 -0.1529
    1SOL     OW 2809   3.597   3.940   1.171  0.0422 -0.2333  0.0750
    1SOL    HW2 2810   3.590   3.947   1.266 -2.5567  1.2326 -0.1782
    1SOL    HW3 2811   3.512   3.907   1.142  0.4736  0.2125 -1.8314
    1SOL    MW4 2812   3.585   3.936   1.179 -0.2437  0.0188 -0.2099
    1SOL     OW 2813   3.613   4.206   1.140  0.5950 -0.3431  0.0487
    1SOL    HW2 2814   3.608   4.111   1.153 -0.0396 -0.6635 -2.1894
    1SOL    HW3 2815   3.616   4.216   1.044  2.3398  1.8198  0.3005
    1SOL    MW4 2816   3.612   4.195   1.129  0.7415 -0.1001 -0.2134
    1SOL     OW 2817   3.820   4.372   1.234 -0.2641  0.6184  0.0235
    1SOL    HW2 2818   3.817   4.380   1.329  0.2358 -1.5493  0.2465
    1SOL    HW3 2819   3.754   4.307   1.213  2.2503 -1.7816 -0.7302
    1SOL    MW4 2820   3.811   4.365   1.244  0.1338  0.0157 -0.0465
    1SOL     OW 2821   4.244   4.655   1.119  0.7518 -0.2307 -0.0798
    1SOL    HW2 2822   4.239   4.564   1.148 -0.1425 -0.2097 -0.1517
    1SOL    HW3 2823   4.163   4.695   1.151  1.0904  0.5121 -0.1407
    1SOL    MW4 2824   4.233   4.649   1.127  0.6790 -0.1299 -0.0973
    1SOL     OW 2825   4.009   0.090   1.214  0.3249 -0.0191 -0.3082
    1SOL    HW2 2826   4.001   0.086   1.309  1.3435  1.4507 -0.1338
    1SOL    HW3 2827   3.934   0.041   1.181 -0.9159  0.7920  1.2427
    1SOL    MW4 2828   3.998   0.083   1.222  0.2956  0.2819 -0.0806
    1SOL     OW 2829   4.004   0.347   1.135 -0.3700 -0.3920 -0.7065
    1SOL    HW2 2830   4.009   0.254   1.156  0.5096  0.1931  1.7770
    1SOL    HW3 2831   3.986   0.349   1.041 -1.5984 -3.0672 -0.5672
    1SOL    MW4 2832   4.002   0.335   1.125 -0.4158 -0.6678 -0.3606
    1SOL     OW 2833   4.244   0.490   1.233  0.2549  0.2782  0.2094
    1SOL    HW2 2834   4.257   0.491   1.328  0.1502 -0.3909  0.2377
    1SOL    HW3 2835   4.157   0.451   1.221  0.7375 -0.6883 -0.1998
    1SOL    MW4 2836   4.234   0.485   1.244  0.3042  0.0624  0.1591
    1SOL     OW 2837   4.272   0.762   1.109  0.1707  0.0581 -0.0679
    1SOL    HW2 2838   4.254   0.687   1.166 -1.5164  0.4491 -0.0871
    1SOL    HW3 2839   4.285   0.725   1.022  1.6183 -0.4283  0.3435
    1SOL    MW4 2840   4.272   0.747   1.105  0.1388  0.0455 -0.0161
    1SOL     OW 2841   4.056   0.900   1.219 -0.3126 -0.1020 -0.2852
    1SOL    HW2 2842   4.079   0.879   1.310 -1.9151  1.6782  0.5746
    1SOL    HW3 2843   4.121   0.854   1.166  1.1408 -0.5037  1.8000
    1SOL    MW4 2844   4.068   0.891   1.224 -0.3324  0.0799  0.1034
    1SOL     OW 2845   4.063   1.165   1.121 -0.1747 -0.3665  0.0374
    1SOL    HW2 2846   4.062   1.077   1.158 -0.3864 -0.4094 -0.0676
    1SOL    HW3 2847   3.978   1.202   1.144  0.5285  0.3935  1.4579
    1SOL    MW4 2848   4.052   1.158   1.129 -0.1101 -0.2717  0.2108
    1SOL     OW 2849   4.309   1.280   1.185  0.3012 -0.2635  0.0641
    1SOL    HW2 2850   4.293   1.290   1.279  1.0318 -0.8790  0.2610
    1SOL    HW3 2851   4.235   1.228   1.153 -0.5694  0.9593  0.0760
    1SOL    MW4 2852   4.297   1.274   1.194  0.2828 -0.1835  0.0917
    1SOL     OW 2853   4.272   1.556   1.177 -0.3784  0.2285  0.2297
    1SOL    HW2 2854   4.288   1.462   1.176 -0.9029  0.1156  1.5552
    1SOL    HW3 2855   4.356   1.595   1.199  0.2055  0.1772 -1.7771
    1SOL    MW4 2856   4.285   1.549   1.180 -0.3705  0.2069  0.1398
    1SOL     OW 2857   4.038   1.682   1.230  0.1112 -0.1782  0.2153
    1SOL    HW2 2858   4.036   1.695   1.325  0.6108 -0.6962  0.3042
    1SOL    HW3 2859   4.115   1.626   1.215  2.2550  2.9426 -0.8682
    1SOL    MW4 2860   4.048   1.676   1.240  0.4601  0.1652  0.0840
    1SOL     OW 2861   4.038   1.952   1.159 -0.4576 -0.1083 -0.0396
    1SOL    HW2 2862   4.041   1.861   1.187  0.9383  0.1602  0.7147
    1SOL    HW3 2863   4.037   1.948   1.063  0.4805 -0.9015 -0.0221
    1SOL    MW4 2864   4.038   1.939   1.150 -0.1493 -0.1776  0.0621
    1SOL     OW 2865   4.279   2.106   1.225 -0.3933 -0.3844 -0.2908
    1SOL    HW2 2866   4.259   2.198   1.209 -0.6339 -0.0462  1.7913
    1SOL    HW3 2867   4.222   2.058   1.164  0.0063  0.8360 -1.6548
    1SOL    MW4 2868   4.269   2.112   1.215 -0.3724 -0.1788 -0.1961
    1SOL     OW 2869   4.231   2.351   1.145 -0.3301 -0.3824  0.2446
    1SOL    HW2 2870   4.148   2.395   1.163  0.5558  1.0063  1.0357
    1SOL    HW3 2871   4.240   2.356   1.049  0.3939  2.4053  0.4038
    1SOL    MW4 2872   4.221   2.358   1.134 -0.1173  0.1686  0.3699
    1SOL     OW 2873   3.994   2.473   1.216  0.2477 -0.3774  0.2382
    1SOL    HW2 2874   3.990   2.479   1.311  2.1208  0.1855  0.2973
    1SOL    HW3 2875   3.990   2.563   1.186  1.5001 -0.4386 -0.1257
    1SOL    MW4 2876   3.993   2.485   1.224  0.6602 -0.3114  0.1980
    1SOL     OW 2877   4.029   2.740   1.129  0.0804 -0.8101 -0.2539
    1SOL    HW2 2878   3.960   2.803   1.151  1.9545  0.5900  1.8240
    1SOL    HW3 2879   4.037   2.745   1.034 -1.1961  0.5948 -0.3110
    1SOL    MW4 2880   4.021   2.749   1.119  0.1588 -0.4399  0.0126
    1SOL     OW 2881   4.273   2.842   1.240 -0.1562 -0.3149 -0.1350
    1SOL    HW2 2882   4.274   2.928   1.200  0.9216  0.2672  1.1205
    1SOL    HW3 2883   4.203   2.795   1.194 -1.0583  1.3642 -0.5070
    1SOL    MW4 2884   4.264   2.847   1.229 -0.1330 -0.0162 -0.0185
    1SOL     OW 2885   4.284   3.101   1.142 -0.1704  0.1267  0.2549
    1SOL    HW2 2886   4.217   3.139   1.198 -0.7397  0.9319 -0.9539
    1SOL    HW3 2887   4.246   3.102   1.054  0.9747 -0.4755 -0.2636
    1SOL    MW4 2888   4.270   3.106   1.138 -0.0944  0.1535  0.0271
    1SOL     OW 2889   4.059   3.210   1.251  0.1620  0.0473  0.3797
    1SOL    HW2 2890   4.043   3.230   1.343 -1.3394 -0.3511  0.2149
    1SOL    HW3 2891   3.985   3.155   1.225  0.7651 -0.1528 -0.9706
    1SOL    MW4 2892   4.047   3.205   1.260  0.0439 -0.0317  0.1799
    1SOL     OW 2893   4.040   3.468   1.145  0.0359  0.4496  0.0105
    1SOL    HW2 2894   4.044   3.377   1.174 -0.0075 -0.0347 -1.4532
    1SOL    HW3 2895   3.954   3.498   1.173  0.7196  0.6001  2.0539
    1SOL    MW4 2896   4.029   3.460   1.152  0.1206  0.4055  0.0870
    1SOL     OW 2897   4.261   3.588   1.284 -0.2774  0.4707 -0.3206
    1SOL    HW2 2898   4.189   3.541   1.241  0.6437 -1.0022 -0.2828
    1SOL    HW3 2899   4.338   3.533   1.270  0.7040  1.6388  0.3260
    1SOL    MW4 2900   4.262   3.575   1.276 -0.0262  0.4303 -0.2303
    1SOL     OW 2901   4.289   3.875   1.197 -0.5090  0.0482  0.1699
    1SOL    HW2 2902   4.199   3.904   1.211 -1.2969 -1.2558 -1.9189
    1SOL    HW3 2903   4.287   3.780   1.212  0.6452  0.0873  0.6668
    1SOL    MW4 2904   4.277   3.866   1.201 -0.4611 -0.1185 -0.0401
    1SOL     OW 2905   4.049   4.011   1.237  0.3758 -0.3357 -0.7687
    1SOL    HW2 2906   4.048   4.091   1.185  0.6429 -0.5394 -1.0987
    1SOL    HW3 2907   3.978   3.958   1.201  1.5801 -1.1467 -2.0308
    1SOL    MW4 2908   4.040   4.014   1.225  0.5703 -0.4692 -0.9788
    1SOL     OW 2909   4.049   4.248   1.085 -0.1540  0.0594 -0.1700
    1SOL    HW2 2910   3.972   4.283   1.130  0.7227  0.3910  1.1147
    1SOL    HW3 2911   4.071   4.313   1.019  0.0693  0.8206  0.6416
    1SOL    MW4 2912   4.042   4.261   1.082 -0.0095  0.2031  0.1065
    1SOL     OW 2913   4.224   4.405   1.224  0.1144 -0.0736  0.4418
    1SOL    HW2 2914   4.170   4.340   1.178  0.1190  0.2247  0.0113
    1SOL    HW3 2915   4.313   4.389   1.194  0.1670 -0.1081  0.6168
    1SOL    MW4 2916   4.228   4.395   1.214  0.1216 -0.0391  0.4081
    1SOL     OW 2917   0.213   4.650   1.608  0.2001  0.4235 -0.0188
    1SOL    HW2 2918   0.285   4.712   1.601 -0.6563  1.6659  2.0170
    1SOL    HW3 2919   0.138   4.695   1.569  0.1973 -0.3991 -1.0053
    1SOL    MW4 2920   0.213   4.664   1.602  0.0868  0.4787  0.1197
    1SOL     OW 2921   4.468   0.121   1.542  0.1381  0.1353  0.2328
    1SOL    HW2 2922   4.385   0.083   1.571  0.6560 -0.6945  0.6384
    1SOL    HW3 2923   4.469   0.106   1.447  0.4506 -1.0733  0.4299
    1SOL    MW4 2924   4.457   0.114   1.533  0.2484 -0.1336  0.3123
    1SOL     OW 2925   0.002   0.382   1.639 -0.0972  0.2923 -0.0836
    1SOL    HW2 2926   0.014   0.373   1.734  0.0292  2.1181  0.0948
    1SOL    HW3 2927  -0.014   0.293   1.608  0.3348 -0.3852  1.5905
    1SOL    MW4 2928   0.002   0.369   1.648 -0.0229  0.4438  0.1608
    1SOL     OW 2929   0.223   0.495   1.508  0.0287  0.7556 -0.1156
    1SOL    HW2 2930   0.150   0.463   1.561 -0.5134 -0.3511 -1.4862
    1SOL    HW3 2931   0.205   0.462   1.420  2.6132 -0.2626 -0.3105
    1SOL    MW4 2932   0.211   0.486   1.503  0.2982  0.4753 -0.3222
    1SOL     OW 2933   0.203   0.761   1.547 -0.2635  0.0798 -0.7366
    1SOL    HW2 2934   0.292   0.792   1.534 -0.2554  0.0359 -0.7868
    1SOL    HW3 2935   0.208   0.667   1.532  0.0109 -0.1847  0.8946
    1SOL    MW4 2936   0.215   0.753   1.544 -0.2262  0.0392 -0.5279
    1SOL     OW 2937   4.471   0.896   1.455  0.0108 -0.3548 -0.1337
    1SOL    HW2 2938   4.479   0.980   1.500  0.2397  0.2177 -1.2175
    1SOL    HW3 2939   4.550   0.848   1.478 -0.3053 -0.4308  0.8052
    1SOL    MW4 2940   4.482   0.901   1.464 -0.0010 -0.2893 -0.1527
    1SOL     OW 2941   4.478   1.174   1.556  0.5566  0.0077  0.1359
    1SOL    HW2 2942   4.494   1.181   1.650  2.5020 -1.5856 -0.0316
    1SOL    HW3 2943   4.552   1.220   1.515  0.1180  0.0626 -0.6100
    1SOL    MW4 2944   4.490   1.181   1.563  0.7553 -0.1951  0.0154
    1SOL     OW 2945   0.253   1.284   1.474 -0.0007 -0.3629  0.2160
    1SOL    HW2 2946   0.234   1.374   1.498  1.7492  0.2113 -0.4792
    1SOL    HW3 2947   0.266   1.287   1.379 -0.5925 -1.4672  0.0932
    1SOL    MW4 2948   0.253   1.296   1.465  0.1521 -0.4327  0.1080
    1SOL     OW 2949   0.217   1.525   1.574 -0.3023  0.0185 -0.2049
    1SOL    HW2 2950   0.243   1.525   1.666  0.7721  1.4220 -0.4858
    1SOL    HW3 2951   0.140   1.581   1.570 -1.3638 -1.4152  0.1029
    1SOL    MW4 2952   0.210   1.532   1.586 -0.3006  0.0145 -0.2013
    1SOL     OW 2953   0.009   1.694   1.501  0.0157 -0.1219 -0.4706
    1SOL    HW2 2954  -0.012   1.784   1.527 -0.2666 -0.1252 -0.6763
    1SOL    HW3 2955   0.039   1.702   1.410  2.6842  0.1106  0.3905
    1SOL    MW4 2956   0.010   1.707   1.492  0.3304 -0.0916 -0.3841
    1SOL     OW 2957   4.474   1.954   1.588  0.4677  0.0940 -0.3967
    1SOL    HW2 2958   4.507   1.968   1.677  0.9437  1.3257 -0.7606
    1SOL    HW3 2959   4.401   2.015   1.580 -0.5650 -1.1126 -0.3319
    1SOL    MW4 2960   4.469   1.964   1.599  0.3942  0.0973 -0.4362
    1SOL     OW 2961   0.228   2.062   1.492 -0.4220 -0.0050  0.3341
    1SOL    HW2 2962   0.146   2.022   1.519  0.1816 -1.1910  0.4688
    1SOL    HW3 2963   0.229   2.053   1.396  0.1584 -1.2226  0.4451
    1SOL    MW4 2964   0.218   2.056   1.483 -0.2658 -0.3221  0.3666
    1SOL     OW 2965   0.178   2.300   1.622  0.3299  0.0303  0.0857
    1SOL    HW2 2966   0.199   2.301   1.715 -1.2366  0.1781  0.4593
    1SOL    HW3 2967   0.206   2.213   1.592  2.0197  0.4694  0.4004
    1SOL    MW4 2968   0.184   2.288   1.630  0.3462  0.1075  0.1767
    1SOL     OW 2969   4.458   2.446   1.524 -0.7129 -0.1156 -0.0427
    1SOL    HW2 2970   4.373   2.415   1.555 -0.0558 -0.3709  1.5715
    1SOL    HW3 2971   4.520   2.379   1.554  0.1971  0.6512 -0.1904
    1SOL    MW4 2972   4.455   2.433   1.532 -0.5059 -0.0482  0.1507
    1SOL     OW 2973   0.001   2.702   1.616 -0.4396 -0.6994  0.5469
    1SOL    HW2 2974  -0.070   2.756   1.582  0.1067 -0.3589 -0.0574
    1SOL    HW3 2975  -0.019   2.614   1.586  0.3058 -0.3187 -1.0857
    1SOL    MW4 2976  -0.011   2.698   1.608 -0.2689 -0.6044  0.2518
    1SOL     OW 2977   0.236   2.833   1.514  0.3310  0.2414  0.2523
    1SOL    HW2 2978   0.301   2.766   1.536  0.7288  0.7641  0.7148
    1SOL    HW3 2979   0.154   2.800   1.550  0.6951  0.4102  1.2751
    1SOL    MW4 2980   0.234   2.820   1.522  0.4316  0.3328  0.4482
    1SOL     OW 2981   0.243   3.075   1.621  0.2720  0.1984  0.2096
    1SOL    HW2 2982   0.153   3.102   1.606  0.3559  0.5021  0.2600
    1SOL    HW3 2983   0.243   2.981   1.602 -0.2059  0.0622  0.8951
    1SOL    MW4 2984   0.231   3.066   1.616  0.2200  0.2205  0.3067
    1SOL     OW 2985   0.022   3.188   1.518  0.4784 -0.2261  0.5721
    1SOL    HW2 2986   0.033   3.276   1.554  0.3341  1.0712 -2.4134
    1SOL    HW3 2987   0.034   3.199   1.424 -1.7543 -3.0401 -0.1116
    1SOL    MW4 2988   0.025   3.201   1.510  0.1648 -0.4261  0.0882
    1SOL     OW 2989   0.015   3.466   1.594 -0.7606  0.8761 -1.0827
    1SOL    HW2 2990   0.023   3.482   1.688 -1.8685 -0.8641 -0.6718
    1SOL    HW3 2991  -0.068   3.509   1.570 -0.0078  2.1457 -1.4771
    1SOL    MW4 2992   0.005   3.474   1.604 -0.8074  0.8142 -1.0804
    1SOL     OW 2993   0.220   3.630   1.519 -0.5476  0.0305  0.2123
    1SOL    HW2 2994   0.202   3.715   1.560 -1.8023 -0.4080  0.6146
    1SOL    HW3 2995   0.145   3.575   1.545  0.1375 -1.1262 -0.2325
    1SOL    MW4 2996   0.208   3.634   1.528 -0.6227 -0.1800  0.2068
    1SOL     OW 2997   0.206   3.895   1.620 -0.4212 -0.0259  0.1289
    1SOL    HW2 2998   0.212   3.903   1.715  1.5421  2.5687 -0.1394
    1SOL    HW3 2999   0.290   3.928   1.588 -1.2452 -0.3550 -2.5349
    1SOL    MW4 3000   0.218   3.901   1.628 -0.2709  0.2730 -0.2580
    1SOL     OW 3001   4.459   4.024   1.560  0.5785 -0.2013 -0.0819
    1SOL    HW2 3002   4.470   4.114   1.592  1.0890 -0.7441  1.2955
    1SOL    HW3 3003   4.533   3.976   1.597 -0.2630 -1.4184  0.0384
    1SOL    MW4 3004   4.470   4.030   1.569  0.5345 -0.4334  0.1158
    1SOL     OW 3005   4.482   4.295   1.599  0.5550  0.4367 -0.3377
    1SOL    HW2 3006   4.477   4.302   1.695  0.9917  3.0805 -0.4735
    1SOL    HW3 3007   4.394   4.316   1.569  0.4599 -0.2339 -0.5334
    1SOL    MW4 3008   4.470   4.299   1.608  0.5999  0.6971 -0.3814
    1SOL     OW 3009   0.241   4.396   1.494  0.1434  0.3641  0.1548
    1SOL    HW2 3010   0.155   4.357   1.512  0.8867 -0.4509  1.9916
    1SOL    HW3 3011   0.230   4.489   1.515 -0.4752  0.4016 -0.2972
    1SOL    MW4 3012   0.228   4.403   1.499  0.1599  0.2608  0.3375
    1SOL     OW 3013   0.651   0.022   1.661 -0.1620 -0.2594 -0.0432
    1SOL    HW2 3014   0.735   0.047   1.624 -0.1334 -0.3120 -0.0141
    1SOL    HW3 3015   0.587   0.072   1.611 -0.0637  0.3858  0.4688
    1SOL    MW4 3016   0.653   0.032   1.649 -0.1453 -0.1812  0.0284
    1SOL     OW 3017   0.429   0.142   1.530 -0.0798  0.3145 -0.3058
    1SOL    HW2 3018   0.424   0.236   1.548 -0.9710  0.2447 -0.1346
    1SOL    HW3 3019   0.428   0.136   1.434 -0.4492  0.4675 -0.3144
    1SOL    MW4 3020   0.428   0.154   1.520 -0.2461  0.3255 -0.2844
    1SOL     OW 3021   0.438   0.382   1.638  0.3043  0.1607 -0.3305
    1SOL    HW2 3022   0.515   0.437   1.621 -0.3717  1.2034 -0.0096
    1SOL    HW3 3023   0.366   0.428   1.595 -0.4951  0.2031  1.0558
    1SOL    MW4 3024   0.439   0.395   1.630  0.1096  0.3039 -0.1053
    1SOL     OW 3025   0.675   0.509   1.567 -0.0642  0.3391  0.5820
    1SOL    HW2 3026   0.666   0.599   1.597 -0.0458  0.1874  1.0450
    1SOL    HW3 3027   0.662   0.514   1.472  0.3697  0.8864  0.5512
    1SOL    MW4 3028   0.672   0.522   1.559 -0.0044  0.3913  0.6392
    1SOL     OW 3029   0.661   0.770   1.645 -0.2128 -0.6595  0.8036
    1SOL    HW2 3030   0.651   0.788   1.739 -0.3190  0.0342  0.6657
    1SOL    HW3 3031   0.727   0.832   1.616 -1.4700  0.3659  0.0612
    1SOL    MW4 3032   0.668   0.781   1.653 -0.3926 -0.4327  0.6875
    1SOL     OW 3033   0.427   0.913   1.484 -0.3118 -0.0866 -0.0245
    1SOL    HW2 3034   0.433   0.995   1.533  1.2412 -0.1808 -0.0441
    1SOL    HW3 3035   0.500   0.860   1.517 -1.7009 -1.7383  0.4851
    1SOL    MW4 3036   0.438   0.917   1.495 -0.2902 -0.3170  0.0402
    1SOL     OW 3037   0.451   1.158   1.603  0.3291  0.2041 -0.4776
    1SOL    HW2 3038   0.535   1.201   1.586 -0.1279  1.8220  1.2071
    1SOL    HW3 3039   0.388   1.208   1.551 -0.0261  0.8955  0.5908
    1SOL    MW4 3040   0.454   1.171   1.594  0.2220  0.5089 -0.1144
    1SOL     OW 3041   0.675   1.290   1.517 -0.4666 -0.3509 -0.2871
    1SOL    HW2 3042   0.671   1.384   1.537 -0.9694 -0.2649 -0.8003
    1SOL    HW3 3043   0.676   1.286   1.422  0.0840 -0.8497 -0.2597
    1SOL    MW4 3044   0.674   1.302   1.507 -0.4603 -0.4054 -0.3512
    1SOL     OW 3045   0.673   1.559   1.594  0.2733 -0.3210 -0.3140
    1SOL    HW2 3046   0.750   1.586   1.545 -0.3291  0.3184 -0.9219
    1SOL    HW3 3047   0.599   1.598   1.546 -0.3157  0.3523  1.1175
    1SOL    MW4 3048   0.673   1.568   1.581  0.1162 -0.1478 -0.2054
    1SOL     OW 3049   0.449   1.661   1.462 -0.1468 -0.1401  0.0543
    1SOL    HW2 3050   0.457   1.749   1.498  0.6770  0.4650 -1.5852
    1SOL    HW3 3051   0.362   1.631   1.492 -0.2715  1.0646  0.9250
    1SOL    MW4 3052   0.438   1.669   1.471 -0.0546  0.0987 -0.0472
    1SOL     OW 3053   0.463   1.916   1.567 -0.1101  0.0878 -0.5211
    1SOL    HW2 3054   0.456   1.912   1.662 -1.3256 -0.6271 -0.6294
    1SOL    HW3 3055   0.393   1.976   1.540  1.2970  1.5976 -0.8451
    1SOL    MW4 3056   0.453   1.923   1.576 -0.0848  0.1926 -0.5780
    1SOL     OW 3057   0.712   2.069   1.479 -0.1260 -0.3795 -0.4612
    1SOL    HW2 3058   0.787   2.011   1.491  0.3082  0.6966  2.5799
    1SOL    HW3 3059   0.637   2.017   1.506 -0.0697 -0.3949 -0.3344
    1SOL    MW4 3060   0.712   2.055   1.484 -0.0613 -0.2394 -0.0432
    1SOL     OW 3061   0.666   2.315   1.580  0.1082 -0.0199  0.0536
    1SOL    HW2 3062   0.584   2.348   1.543  0.4891  0.9503  0.0665
    1SOL    HW3 3063   0.672   2.225   1.549 -0.6221  0.1232 -0.5077
    1SOL    MW4 3064   0.656   2.307   1.571  0.0620  0.1271 -0.0187
    1SOL     OW 3065   0.411   2.417   1.499 -0.3330  0.0784  0.1235
    1SOL    HW2 3066   0.407   2.501   1.546 -0.9323 -0.7647  1.6262
    1SOL    HW3 3067   0.342   2.364   1.540  1.1061 -1.7028  0.2920
    1SOL    MW4 3068   0.401   2.421   1.511 -0.2222 -0.2677  0.3440
    1SOL     OW 3069   0.444   2.675   1.591  0.3207  0.2317 -0.3309
    1SOL    HW2 3070   0.444   2.693   1.685 -0.9243 -0.2112 -0.2391
    1SOL    HW3 3071   0.516   2.727   1.557  1.1142 -0.0202  0.9483
    1SOL    MW4 3072   0.453   2.684   1.599  0.2612  0.1402 -0.1500
    1SOL     OW 3073   0.669   2.824   1.518  0.4864  0.4447 -0.3501
    1SOL    HW2 3074   0.676   2.915   1.544 -1.6071  1.2494 -2.3971
    1SOL    HW3 3075   0.664   2.826   1.423 -0.0784 -1.7604 -0.4012
    1SOL    MW4 3076   0.669   2.836   1.509  0.1357  0.2596 -0.6270
    1SOL     OW 3077   0.697   3.080   1.617  0.6391 -0.3870  0.4637
    1SOL    HW2 3078   0.772   3.119   1.571  0.3943  0.7237  1.0050
    1SOL    HW3 3079   0.621   3.125   1.581  0.2453 -1.2622  0.1774
    1SOL    MW4 3080   0.697   3.091   1.606  0.5549 -0.3560  0.4973
    1SOL     OW 3081   0.451   3.221   1.534 -0.0288  0.0723  0.0533
    1SOL    HW2 3082   0.367   3.179   1.549 -0.4014  0.9427  0.4232
    1SOL    HW3 3083   0.453   3.239   1.440 -0.6945  0.9730  0.2088
    1SOL    MW4 3084   0.440   3.218   1.524 -0.1658  0.3061  0.1227
    1SOL     OW 3085   0.417   3.468   1.639 -0.1811  0.1309 -0.1768
    1SOL    HW2 3086   0.408   3.383   1.595 -1.1303 -0.3829  1.0012
    1SOL    HW3 3087   0.352   3.524   1.597 -0.8540 -0.2630  0.3427
    1SOL    MW4 3088   0.407   3.464   1.627 -0.3951  0.0114  0.0471
    1SOL     OW 3089   0.645   3.579   1.508 -0.1500  0.2571  0.0757
    1SOL    HW2 3090   0.726   3.546   1.548 -0.2219 -0.7569 -0.6204
    1SOL    HW3 3091   0.575   3.537   1.558 -0.2505  1.2636  0.7860
    1SOL    MW4 3092   0.647   3.569   1.520 -0.1727  0.2563  0.0776
    1SOL     OW 3093   0.639   3.851   1.608 -0.2151 -0.3084 -0.1360
    1SOL    HW2 3094   0.714   3.887   1.562 -0.3546 -0.2513 -0.3210
    1SOL    HW3 3095   0.635   3.759   1.581  0.2986 -0.5335  0.5414
    1SOL    MW4 3096   0.648   3.844   1.598 -0.1657 -0.3304 -0.0710
    1SOL     OW 3097   0.453   4.040   1.537 -0.0227 -0.4330  0.4583
    1SOL    HW2 3098   0.507   3.966   1.563  1.9086  0.4909 -0.7955
    1SOL    HW3 3099   0.468   4.049   1.443 -0.2245  1.5561  0.5926
    1SOL    MW4 3100   0.462   4.031   1.528  0.2055 -0.0482  0.3108
    1SOL     OW 3101   0.420   4.279   1.670 -0.3628  0.0834  0.4399
    1SOL    HW2 3102   0.426   4.198   1.618 -1.2375  0.6770 -0.6100
    1SOL    HW3 3103   0.347   4.327   1.631  0.7954  1.8434  0.3953
    1SOL    MW4 3104   0.411   4.275   1.658 -0.3254  0.3934  0.2955
    1SOL     OW 3105   0.641   4.411   1.537 -0.2100 -0.2454 -0.0480
    1SOL    HW2 3106   0.567   4.358   1.566 -0.1261 -0.1917  0.2671
    1SOL    HW3 3107   0.639   4.489   1.593 -0.3280  0.0824 -0.5058
    1SOL    MW4 3108   0.631   4.414   1.548 -0.2145 -0.1945 -0.0666
    1SOL     OW 3109   1.103   4.638   1.597 -0.2734 -0.2745 -0.1462
    1SOL    HW2 3110   1.077   4.633   1.689  0.5803  2.2819  0.2768
    1SOL    HW3 3111   1.181   4.693   1.597 -0.2826 -0.2028 -2.3994
    1SOL    MW4 3112   1.110   4.645   1.609 -0.1619  0.0725 -0.3877
    1SOL     OW 3113   0.874   0.115   1.508 -0.2329 -0.1042  0.0755
    1SOL    HW2 3114   0.872   0.198   1.555 -0.5161 -0.4205  0.6256
    1SOL    HW3 3115   0.956   0.074   1.533 -0.9788 -0.8637  1.3323
    1SOL    MW4 3116   0.884   0.120   1.517 -0.3687 -0.2461  0.3139
    1SOL     OW 3117   0.903   0.357   1.628  0.4442  0.0420 -0.1729
    1SOL    HW2 3118   0.920   0.376   1.720  0.0951 -0.0017 -0.1006
    1SOL    HW3 3119   0.826   0.410   1.606 -0.1984 -0.8525 -0.1225
    1SOL    MW4 3120   0.895   0.366   1.637  0.3133 -0.0818 -0.1566
    1SOL     OW 3121   1.071   0.521   1.504  0.0737 -0.3371 -0.3531
    1SOL    HW2 3122   1.046   0.607   1.538 -1.0414 -0.7388 -0.1308
    1SOL    HW3 3123   1.014   0.460   1.551  0.6874 -1.1739 -0.6942
    1SOL    MW4 3124   1.060   0.524   1.515  0.0075 -0.5005 -0.3688
    1SOL     OW 3125   1.065   0.771   1.617  0.0462  0.1206 -0.5720
    1SOL    HW2 3126   1.058   0.773   1.713 -1.0495 -0.2625 -0.6346
    1SOL    HW3 3127   1.155   0.798   1.599  0.7240 -1.2467  0.6390
    1SOL    MW4 3128   1.076   0.775   1.627 -0.0089 -0.1104 -0.4205
    1SOL     OW 3129   0.864   0.916   1.522  0.2300  0.1578 -0.6093
    1SOL    HW2 3130   0.940   0.871   1.558  0.5034  0.4874 -0.7707
    1SOL    HW3 3131   0.865   0.895   1.429  0.7276  1.0058 -0.8075
    1SOL    MW4 3132   0.874   0.908   1.515  0.3317  0.3132 -0.6567
    1SOL     OW 3133   0.915   1.175   1.613  0.3886 -0.1761 -0.1510
    1SOL    HW2 3134   0.894   1.086   1.586  0.1748 -0.2074  0.1234
    1SOL    HW3 3135   0.837   1.226   1.593  0.7728  0.1001 -1.0010
    1SOL    MW4 3136   0.902   1.170   1.606  0.4112 -0.1438 -0.2270
    1SOL     OW 3137   1.140   1.284   1.521  0.4530  0.4374  0.0365
    1SOL    HW2 3138   1.205   1.234   1.570  1.0353 -0.0579 -1.2371
    1SOL    HW3 3139   1.058   1.237   1.536  0.8546 -0.4354 -0.4885
    1SOL    MW4 3140   1.137   1.272   1.530  0.5828  0.2570 -0.2007
    1SOL     OW 3141   1.150   1.556   1.598  0.6051  0.3758  0.1479
    1SOL    HW2 3142   1.229   1.585   1.553  0.0772  0.1130 -0.9581
    1SOL    HW3 3143   1.132   1.469   1.562  0.6651 -0.2043  1.4957
    1SOL    MW4 3144   1.158   1.548   1.587  0.5435  0.2645  0.1800
    1SOL     OW 3145   0.901   1.657   1.457 -0.3718  0.2760 -0.0538
    1SOL    HW2 3146   0.989   1.625   1.477  0.0487  1.1147 -0.5566
    1SOL    HW3 3147   0.896   1.653   1.362 -0.4857  1.2666 -0.0886
    1SOL    MW4 3148   0.912   1.652   1.447 -0.3314  0.5174 -0.1248
    1SOL     OW 3149   0.926   1.900   1.608 -0.2885 -0.0548 -0.0429
    1SOL    HW2 3150   0.993   1.937   1.551 -1.4603  1.1793 -0.6380
    1SOL    HW3 3151   0.920   1.808   1.582  0.5500  0.0328 -0.5649
    1SOL    MW4 3152   0.934   1.893   1.597 -0.3325  0.1196 -0.1903
    1SOL     OW 3153   1.116   2.032   1.471  0.1845  0.7408  0.2282
    1SOL    HW2 3154   1.197   1.989   1.499 -0.4863 -0.3150  0.5735
    1SOL    HW3 3155   1.126   2.123   1.501  0.5753  0.2410  1.6640
    1SOL    MW4 3156   1.128   2.039   1.479  0.1476  0.5352  0.4634
    1SOL     OW 3157   1.146   2.296   1.584  0.2048  0.0793 -0.6057
    1SOL    HW2 3158   1.209   2.359   1.551 -0.0503  0.5088 -0.2742
    1SOL    HW3 3159   1.061   2.330   1.557  0.0012  0.3664  0.3602
    1SOL    MW4 3160   1.143   2.309   1.576  0.1444  0.1740 -0.4344
    1SOL     OW 3161   0.915   2.414   1.510  0.3899 -0.1812 -0.3288
    1SOL    HW2 3162   0.915   2.505   1.542 -0.0412  0.1389 -1.2240
    1SOL    HW3 3163   0.829   2.380   1.534 -0.4133  0.4469 -2.1793
    1SOL    MW4 3164   0.904   2.422   1.518  0.2270 -0.0560 -0.6912
    1SOL     OW 3165   0.896   2.677   1.597  0.5059  0.6358 -0.2556
    1SOL    HW2 3166   0.910   2.666   1.691 -1.2856 -2.0017 -0.2420
    1SOL    HW3 3167   0.819   2.734   1.590 -0.4040 -0.5416 -0.0627
    1SOL    MW4 3168   0.888   2.683   1.608  0.1495  0.1323 -0.2284
    1SOL     OW 3169   1.127   2.840   1.498 -0.2257  0.2441 -0.0600
    1SOL    HW2 3170   1.105   2.928   1.530 -0.5751  0.1715 -0.0957
    1SOL    HW3 3171   1.053   2.786   1.525  1.2032 -0.5927  2.3106
    1SOL    MW4 3172   1.114   2.845   1.506 -0.0833  0.1240  0.2481
    1SOL     OW 3173   1.101   3.087   1.618 -0.1826 -0.3276  0.0986
    1SOL    HW2 3174   1.113   3.082   1.713 -1.5320 -0.1376  0.2912
    1SOL    HW3 3175   1.172   3.143   1.588 -0.8746  1.2131  1.2504
    1SOL    MW4 3176   1.112   3.094   1.627 -0.4520 -0.0994  0.2760
    1SOL     OW 3177   0.911   3.233   1.483 -0.1543  0.2780 -0.2819
    1SOL    HW2 3178   0.982   3.186   1.526 -1.2339 -0.1105  1.0940
    1SOL    HW3 3179   0.933   3.229   1.390 -0.0988 -2.7838 -0.1902
    1SOL    MW4 3180   0.923   3.226   1.476 -0.2894 -0.1769 -0.0882
    1SOL     OW 3181   0.880   3.471   1.634 -0.4666  0.4610  0.0615
    1SOL    HW2 3182   0.943   3.523   1.585  0.0931  0.6292  0.9424
    1SOL    HW3 3183   0.880   3.386   1.590 -1.1413  1.0903 -1.1807
    1SOL    MW4 3184   0.888   3.467   1.622 -0.4817  0.5662  0.0138
    1SOL     OW 3185   1.096   3.602   1.511  0.7085  0.0543  0.0402
    1SOL    HW2 3186   1.158   3.538   1.546 -0.6848 -1.4039 -0.0902
    1SOL    HW3 3187   1.103   3.592   1.416 -0.9643 -1.3644  0.0451
    1SOL    MW4 3188   1.105   3.592   1.503  0.3040 -0.3252  0.0237
    1SOL     OW 3189   1.063   3.856   1.646  0.3569 -0.1085 -0.1072
    1SOL    HW2 3190   1.140   3.898   1.608  1.3554 -1.8602 -0.0555
    1SOL    HW3 3191   1.067   3.765   1.616 -2.1574 -0.0282 -0.8080
    1SOL    MW4 3192   1.074   3.850   1.637  0.1570 -0.3288 -0.1929
    1SOL     OW 3193   0.864   3.972   1.497 -0.5815 -0.3168  0.3636
    1SOL    HW2 3194   0.864   4.065   1.523 -0.5228 -0.2667  0.1812
    1SOL    HW3 3195   0.937   3.934   1.546  0.3519  0.0548 -0.7321
    1SOL    MW4 3196   0.874   3.980   1.507 -0.4506 -0.2613  0.1951
    1SOL     OW 3197   0.885   4.252   1.603 -0.2327 -0.3071  0.3900
    1SOL    HW2 3198   0.897   4.234   1.696 -0.9141 -0.5693  0.4329
    1SOL    HW3 3199   0.798   4.292   1.597 -0.7543 -1.4919 -0.2751
    1SOL    MW4 3200   0.875   4.255   1.615 -0.3914 -0.4978  0.3079
    1SOL     OW 3201   1.103   4.381   1.494 -0.3680 -0.0621  1.2226
    1SOL    HW2 3202   1.018   4.347   1.524 -0.7828  0.6405  0.8485
    1SOL    HW3 3203   1.102   4.473   1.520 -0.7116  0.5508 -0.9293
    1SOL    MW4 3204   1.091   4.389   1.502 -0.4680  0.1116  0.8893
    1SOL     OW 3205   1.593   0.011   1.638  0.0774  0.5548 -0.1486
    1SOL    HW2 3206   1.596  -0.007   1.732 -1.3916 -0.2451 -0.2339
    1SOL    HW3 3207   1.505   0.045   1.623 -0.1471 -0.5592 -1.4391
    1SOL    MW4 3208   1.582   0.013   1.649 -0.1459  0.3028 -0.3300
    1SOL     OW 3209   1.335   0.107   1.563 -0.2882  0.4578  0.2373
    1SOL    HW2 3210   1.325   0.197   1.593 -0.7768  0.5801 -0.2871
    1SOL    HW3 3211   1.324   0.112   1.468 -1.4288 -0.3114  0.3200
    1SOL    MW4 3212   1.332   0.119   1.555 -0.5032  0.3724  0.1792
    1SOL     OW 3213   1.300   0.382   1.619  0.2532 -0.5540  0.6826
    1SOL    HW2 3214   1.381   0.407   1.575  0.2301 -1.3342  0.1833
    1SOL    HW3 3215   1.234   0.440   1.581  0.0029 -2.0358 -1.2481
    1SOL    MW4 3216   1.302   0.393   1.608  0.2172 -0.8524  0.3618
    1SOL     OW 3217   1.544   0.459   1.498  0.2098 -0.2449  0.3967
    1SOL    HW2 3218   1.627   0.432   1.538  0.0550 -1.0972  0.1378
    1SOL    HW3 3219   1.562   0.459   1.404 -0.0029 -0.1362  0.3566
    1SOL    MW4 3220   1.557   0.456   1.491  0.1613 -0.3430  0.3573
    1SOL     OW 3221   1.567   0.735   1.651  0.2587  0.1423  0.1927
    1SOL    HW2 3222   1.563   0.730   1.747 -0.0657  0.7759  0.2143
    1SOL    HW3 3223   1.547   0.646   1.622 -1.6977  0.4000  0.6765
    1SOL    MW4 3224   1.564   0.722   1.660 -0.0421  0.2599  0.2593
    1SOL     OW 3225   1.327   0.882   1.561 -0.2353  0.1524 -0.4237
    1SOL    HW2 3226   1.407   0.838   1.591 -0.0356  0.7697 -0.0357
    1SOL    HW3 3227   1.332   0.879   1.466  0.3047  0.2710 -0.4028
    1SOL    MW4 3228   1.338   0.876   1.553 -0.1378  0.2496 -0.3697
    1SOL     OW 3229   1.333   1.136   1.641  0.0125 -0.0032 -0.5044
    1SOL    HW2 3230   1.348   1.126   1.735  2.4288  2.1995 -0.5928
    1SOL    HW3 3231   1.326   1.047   1.608 -0.4230 -0.8163  1.6724
    1SOL    MW4 3232   1.334   1.123   1.649  0.2738  0.1800 -0.2288
    1SOL     OW 3233   1.557   1.271   1.497 -0.3607 -0.2932  0.1154
    1SOL    HW2 3234   1.486   1.230   1.547 -1.2838 -1.8407 -2.3770
    1SOL    HW3 3235   1.522   1.279   1.408  2.3470 -0.4715 -1.0137
    1SOL    MW4 3236   1.543   1.266   1.492 -0.1254 -0.5208 -0.3625
    1SOL     OW 3237   1.631   1.534   1.604  0.3228  0.3458  0.2523
    1SOL    HW2 3238   1.596   1.549   1.692  0.8417 -1.1060  0.7279
    1SOL    HW3 3239   1.594   1.450   1.577  0.4593  0.6084 -0.7603
    1SOL    MW4 3240   1.622   1.525   1.612  0.4094  0.1889  0.1814
    1SOL     OW 3241   1.386   1.630   1.491  0.2451  0.3406  0.2876
    1SOL    HW2 3242   1.472   1.606   1.526  0.6449  1.7183  0.2634
    1SOL    HW3 3243   1.396   1.619   1.396  0.6307  1.2149  0.2213
    1SOL    MW4 3244   1.399   1.625   1.483  0.3487  0.6378  0.2756
    1SOL     OW 3245   1.351   1.905   1.561  0.2918 -0.0974 -0.2186
    1SOL    HW2 3246   1.346   1.896   1.657  0.0687 -0.5596 -0.2739
    1SOL    HW3 3247   1.341   1.816   1.528 -2.4881  0.3541 -0.7832
    1SOL    MW4 3248   1.349   1.892   1.570 -0.1043 -0.0988 -0.3004
    1SOL     OW 3249   1.573   2.044   1.478 -0.4643  0.2021 -0.5797
    1SOL    HW2 3250   1.492   1.995   1.491  0.6086 -1.2592  0.8324
    1SOL    HW3 3251   1.580   2.055   1.383 -2.4825  0.6511 -0.6922
    1SOL    MW4 3252   1.564   2.039   1.467 -0.5889  0.0684 -0.4082
    1SOL     OW 3253   1.529   2.313   1.565  0.0602 -0.3326 -0.0876
    1SOL    HW2 3254   1.607   2.357   1.532  0.1840 -0.4523  0.0386
    1SOL    HW3 3255   1.540   2.221   1.539 -0.3070 -0.2434 -0.5482
    1SOL    MW4 3256   1.541   2.306   1.557  0.0280 -0.3364 -0.1317
    1SOL     OW 3257   1.322   2.489   1.483  0.2280 -0.1242  0.1456
    1SOL    HW2 3258   1.328   2.573   1.528 -0.9255  0.2530 -0.3808
    1SOL    HW3 3259   1.395   2.438   1.518  0.9992  1.1226  0.4048
    1SOL    MW4 3260   1.332   2.493   1.493  0.1776  0.0904  0.1101
    1SOL     OW 3261   1.359   2.733   1.604 -0.3516 -0.4122 -0.5029
    1SOL    HW2 3262   1.430   2.786   1.569 -2.0758  1.7889 -0.8262
    1SOL    HW3 3263   1.279   2.782   1.582 -1.8653 -2.0073  1.1943
    1SOL    MW4 3264   1.358   2.747   1.597 -0.7788 -0.3324 -0.3216
    1SOL     OW 3265   1.573   2.866   1.506 -0.2086 -0.5330 -0.1548
    1SOL    HW2 3266   1.646   2.820   1.548 -0.1019 -1.2393 -1.1033
    1SOL    HW3 3267   1.582   2.847   1.413 -1.4199 -0.3509 -0.3234
    1SOL    MW4 3268   1.584   2.858   1.499 -0.3544 -0.6022 -0.3022
    1SOL     OW 3269   1.554   3.119   1.599 -0.0698 -0.0133 -0.8562
    1SOL    HW2 3270   1.635   3.163   1.573  0.4966 -0.1842  0.5925
    1SOL    HW3 3271   1.562   3.031   1.562  0.9110 -0.3825  0.2237
    1SOL    MW4 3272   1.565   3.113   1.591  0.1343 -0.0844 -0.5224
    1SOL     OW 3273   1.316   3.215   1.492  0.3600 -0.2871 -0.1652
    1SOL    HW2 3274   1.327   3.294   1.544  1.1834 -0.3673 -0.2010
    1SOL    HW3 3275   1.385   3.156   1.524 -0.5446 -1.1564  0.1763
    1SOL    MW4 3276   1.327   3.218   1.503  0.3492 -0.4122 -0.1249
    1SOL     OW 3277   1.322   3.468   1.610  0.5267  0.0896  0.2192
    1SOL    HW2 3278   1.332   3.478   1.704  3.0008 -0.6609  0.0553
    1SOL    HW3 3279   1.393   3.519   1.571  1.0538 -1.6063 -1.1468
    1SOL    MW4 3280   1.332   3.476   1.617  0.9226 -0.2332  0.0173
    1SOL     OW 3281   1.527   3.629   1.511  0.1527 -0.1621 -0.1839
    1SOL    HW2 3282   1.550   3.717   1.542 -0.3232 -0.0605 -0.1050
    1SOL    HW3 3283   1.541   3.632   1.417 -2.3204  0.8006 -0.5578
    1SOL    MW4 3284   1.532   3.641   1.503 -0.2363 -0.0217 -0.2228
    1SOL     OW 3285   1.560   3.890   1.582  0.3189  0.1239 -0.0510
    1SOL    HW2 3286   1.571   3.899   1.676  1.0999 -1.6268  0.0558
    1SOL    HW3 3287   1.477   3.934   1.562  1.5526  3.0235  1.0034
    1SOL    MW4 3288   1.551   3.897   1.592  0.5847  0.2754  0.1023
    1SOL     OW 3289   1.323   4.024   1.510  0.7009 -0.2448  0.5023
    1SOL    HW2 3290   1.310   4.107   1.556  2.1943 -0.0711  0.6162
    1SOL    HW3 3291   1.322   4.048   1.417 -0.7498 -0.3825  0.4605
    1SOL    MW4 3292   1.321   4.038   1.503  0.7066 -0.2403  0.5118
    1SOL     OW 3293   1.333   4.295   1.643 -0.3586  0.3181 -0.0955
    1SOL    HW2 3294   1.412   4.330   1.601  0.5541 -1.7182 -0.1690
    1SOL    HW3 3295   1.261   4.338   1.598  0.7110  2.0161 -0.2212
    1SOL    MW4 3296   1.334   4.305   1.631 -0.0970  0.2737 -0.1220
    1SOL     OW 3297   1.569   4.411   1.517  0.1540 -0.3942  0.4252
    1SOL    HW2 3298   1.654   4.379   1.547 -0.1625  0.3763  2.2183
    1SOL    HW3 3299   1.563   4.499   1.552 -0.9774 -0.0911 -0.5222
    1SOL    MW4 3300   1.579   4.418   1.526 -0.0372 -0.2527  0.5367
    1SOL     OW 3301   2.047   4.646   1.586  0.1579 -0.1589 -0.3767
    1SOL    HW2 3302   2.045   4.646   1.681  0.3616  0.0767 -0.3731
    1SOL    HW3 3303   1.968   4.695   1.561  0.4735  0.3793 -0.3221
    1SOL    MW4 3304   2.036   4.653   1.595  0.2265 -0.0567 -0.3690
    1SOL     OW 3305   1.826   0.130   1.500 -0.1882  0.2075 -0.2871
    1SOL    HW2 3306   1.749   0.109   1.553  0.6221 -0.6619  0.5840
    1SOL    HW3 3307   1.795   0.126   1.410 -0.9689 -0.9600  0.0179
    1SOL    MW4 3308   1.812   0.127   1.495 -0.1844 -0.0612 -0.1318
    1SOL     OW 3309   1.772   0.367   1.613  0.2102  0.4215 -0.0129
    1SOL    HW2 3310   1.838   0.433   1.595 -0.3519  0.7759 -0.7978
    1SOL    HW3 3311   1.805   0.288   1.570  0.0852  0.6252 -0.4959
    1SOL    MW4 3312   1.785   0.365   1.605  0.1194  0.4951 -0.1802
    1SOL     OW 3313   1.997   0.524   1.529  0.2974  0.0110  0.2742
    1SOL    HW2 3314   2.070   0.477   1.568 -0.5956 -1.2281  0.4870
    1SOL    HW3 3315   2.006   0.614   1.561  0.9676 -0.4326  1.3548
    1SOL    MW4 3316   2.008   0.530   1.538  0.2677 -0.2111  0.4448
    1SOL     OW 3317   2.018   0.767   1.624  0.0827 -0.0936 -0.9747
    1SOL    HW2 3318   2.096   0.819   1.605 -0.6188  1.1332 -0.5463
    1SOL    HW3 3319   1.950   0.803   1.568 -0.5354 -0.2327 -0.3253
    1SOL    MW4 3320   2.019   0.778   1.614 -0.0913  0.0499 -0.8324
    1SOL     OW 3321   1.783   0.883   1.518 -0.2888 -0.2530  0.4844
    1SOL    HW2 3322   1.774   0.969   1.561 -0.4848 -0.8774  1.7046
    1SOL    HW3 3323   1.723   0.826   1.566  1.2891 -1.5598  0.9399
    1SOL    MW4 3324   1.774   0.887   1.530 -0.1066 -0.5078  0.7056
    1SOL     OW 3325   1.764   1.124   1.623  0.4602 -0.4924  0.2369
    1SOL    HW2 3326   1.837   1.185   1.627 -0.6479  0.8184  0.8797
    1SOL    HW3 3327   1.693   1.174   1.582 -1.0314 -0.7215  2.4509
    1SOL    MW4 3328   1.764   1.139   1.618  0.1172 -0.3498  0.6137
    1SOL     OW 3329   2.005   1.282   1.544 -0.0618 -0.0379  0.4024
    1SOL    HW2 3330   2.019   1.371   1.577  1.0206 -0.3104  0.6881
    1SOL    HW3 3331   1.986   1.293   1.451 -0.3162  0.5205  0.5215
    1SOL    MW4 3332   2.004   1.295   1.536  0.0474 -0.0002  0.4559
    1SOL     OW 3333   2.054   1.558   1.630 -0.0440 -0.5296  0.7903
    1SOL    HW2 3334   2.125   1.595   1.577 -0.3899 -2.0112 -0.7425
    1SOL    HW3 3335   1.974   1.583   1.585 -0.4110 -0.5163  1.4454
    1SOL    MW4 3336   2.053   1.566   1.617 -0.1380 -0.7234  0.6746
    1SOL     OW 3337   1.844   1.690   1.511  0.1577  0.2366 -0.0469
    1SOL    HW2 3338   1.768   1.642   1.544  0.2687  0.3220  0.3402
    1SOL    HW3 3339   1.836   1.685   1.416 -0.5152  0.5317 -0.0092
    1SOL    MW4 3340   1.833   1.683   1.503  0.0837  0.2869  0.0091
    1SOL     OW 3341   1.791   1.947   1.627 -0.5996  0.2865 -0.0277
    1SOL    HW2 3342   1.801   1.857   1.597 -0.7582 -0.9260  3.3476
    1SOL    HW3 3343   1.716   1.980   1.578  0.3192 -0.9540 -2.3221
    1SOL    MW4 3344   1.783   1.939   1.617 -0.4995 -0.0372  0.1149
    1SOL     OW 3345   2.023   2.062   1.497 -0.4979 -0.1000  0.5562
    1SOL    HW2 3346   2.100   2.025   1.540 -0.0626 -1.7047 -1.5370
    1SOL    HW3 3347   1.948   2.025   1.544 -0.0285 -1.5358  0.1950
    1SOL    MW4 3348   2.023   2.053   1.509 -0.3784 -0.5012  0.2323
    1SOL     OW 3349   2.004   2.322   1.589  0.4377 -0.4724  0.0147
    1SOL    HW2 3350   2.024   2.328   1.683  2.2666  2.1242 -0.5067
    1SOL    HW3 3351   2.026   2.232   1.566 -0.8813 -1.4069  2.2559
    1SOL    MW4 3352   2.009   2.311   1.599  0.5050 -0.2532  0.2418
    1SOL     OW 3353   1.791   2.463   1.486  0.2246  0.3825  0.2513
    1SOL    HW2 3354   1.868   2.410   1.509  1.2034  1.6854  0.0884
    1SOL    HW3 3355   1.784   2.455   1.391  0.2195  0.3277  0.2566
    1SOL    MW4 3356   1.801   2.455   1.477  0.3530  0.5474  0.2304
    1SOL     OW 3357   1.812   2.717   1.614  0.1488  0.7506 -0.1116
    1SOL    HW2 3358   1.894   2.743   1.572  0.6412 -0.2056  0.2389
    1SOL    HW3 3359   1.784   2.639   1.566 -0.9501  1.5115 -0.7150
    1SOL    MW4 3360   1.819   2.710   1.602  0.0688  0.7248 -0.1448
    1SOL     OW 3361   2.032   2.858   1.506 -0.3450 -0.1880 -0.3156
    1SOL    HW2 3362   2.032   2.951   1.530 -0.6662 -0.1138 -0.6015
    1SOL    HW3 3363   2.059   2.858   1.414  0.3408 -0.4292 -0.1158
    1SOL    MW4 3364   2.036   2.870   1.497 -0.2966 -0.2103 -0.3270
    1SOL     OW 3365   2.010   3.114   1.611  0.4786  0.7264 -0.0542
    1SOL    HW2 3366   2.010   3.118   1.707  0.2505  1.1123 -0.0682
    1SOL    HW3 3367   2.090   3.160   1.585  0.5095  0.6735 -0.0528
    1SOL    MW4 3368   2.020   3.121   1.620  0.4525  0.7706 -0.0559
    1SOL     OW 3369   1.778   3.239   1.509 -0.0569  0.3899  0.1659
    1SOL    HW2 3370   1.780   3.328   1.544 -1.5112  0.7645 -0.6558
    1SOL    HW3 3371   1.856   3.197   1.545  2.4633  2.9702 -2.0204
    1SOL    MW4 3372   1.789   3.245   1.518  0.0837  0.7796 -0.2310
    1SOL     OW 3373   1.762   3.509   1.613 -0.0663  0.4547 -0.4416
    1SOL    HW2 3374   1.772   3.501   1.708 -1.0112 -1.5753 -0.4866
    1SOL    HW3 3375   1.670   3.535   1.601 -0.5154 -1.3035 -0.8755
    1SOL    MW4 3376   1.751   3.512   1.624 -0.2502 -0.0448 -0.5049
    1SOL     OW 3377   1.988   3.639   1.507 -0.1765 -0.6471 -0.5552
    1SOL    HW2 3378   2.058   3.575   1.517 -1.9102 -2.6779 -1.1161
    1SOL    HW3 3379   1.914   3.601   1.555 -1.0534  1.2409 -0.3768
    1SOL    MW4 3380   1.987   3.626   1.515 -0.5211 -0.6659 -0.6056
    1SOL     OW 3381   1.995   3.891   1.622  0.0326  0.1148 -0.0789
    1SOL    HW2 3382   2.072   3.920   1.573  2.0792 -1.2833  2.2131
    1SOL    HW3 3383   1.980   3.801   1.592  0.2743 -0.1609  0.6127
    1SOL    MW4 3384   2.003   3.883   1.612  0.3347 -0.1061  0.3147
    1SOL     OW 3385   1.794   4.024   1.507  0.0650  0.4214 -0.3435
    1SOL    HW2 3386   1.864   3.980   1.553 -0.4174  1.4399  1.4065
    1SOL    HW3 3387   1.717   3.968   1.521 -0.2288  1.0640  0.6764
    1SOL    MW4 3388   1.793   4.011   1.515 -0.0374  0.6399  0.0219
    1SOL     OW 3389   1.797   4.282   1.617  0.4979  0.4467 -0.1775
    1SOL    HW2 3390   1.867   4.328   1.572 -0.3851  0.6614 -1.3460
    1SOL    HW3 3391   1.802   4.192   1.584 -0.3139  0.6650 -0.9034
    1SOL    MW4 3392   1.806   4.276   1.607  0.2742  0.5035 -0.4275
    1SOL     OW 3393   2.027   4.386   1.485 -0.1778  0.2498 -0.0029
    1SOL    HW2 3394   2.075   4.330   1.546 -1.2235 -0.7599 -0.0830
    1SOL    HW3 3395   2.026   4.472   1.526 -0.9263 -0.4313  1.4502
    1SOL    MW4 3396   2.033   4.390   1.498 -0.4144  0.0262  0.1782
    1SOL     OW 3397   2.468   4.655   1.635  0.4548 -0.0437 -0.3234
    1SOL    HW2 3398   2.479   4.674   1.728  2.5388  0.4189 -0.6448
    1SOL    HW3 3399   2.394   4.710   1.607  0.2281  0.2704  0.9002
    1SOL    MW4 3400   2.459   4.665   1.643  0.7000  0.0591 -0.2043
    1SOL     OW 3401   2.252   0.151   1.550  0.3714  0.0902  0.2894
    1SOL    HW2 3402   2.175   0.098   1.570  0.6876  0.2525  2.0005
    1SOL    HW3 3403   2.243   0.172   1.457 -1.3575 -0.3592  0.3387
    1SOL    MW4 3404   2.241   0.147   1.541  0.1850  0.0523  0.5217
    1SOL     OW 3405   2.212   0.388   1.666 -0.0217 -0.0242  0.2939
    1SOL    HW2 3406   2.209   0.399   1.761  0.9419 -1.0248  0.4568
    1SOL    HW3 3407   2.215   0.293   1.653  1.6859  0.1377 -0.6645
    1SOL    MW4 3408   2.212   0.377   1.677  0.3307 -0.1349  0.1888
    1SOL     OW 3409   2.437   0.479   1.495 -0.4536 -0.1249 -0.4581
    1SOL    HW2 3410   2.518   0.440   1.527  0.0702  0.0501 -1.5398
    1SOL    HW3 3411   2.368   0.429   1.537  0.2159 -0.6059  0.0812
    1SOL    MW4 3412   2.439   0.467   1.505 -0.2961 -0.1653 -0.5296
    1SOL     OW 3413   2.454   0.743   1.606 -0.4672 -0.1431 -0.2305
    1SOL    HW2 3414   2.384   0.794   1.565 -1.0520  0.4303  1.4705
    1SOL    HW3 3415   2.435   0.652   1.581 -2.0416 -0.0408  0.5141
    1SOL    MW4 3416   2.442   0.737   1.597 -0.7520 -0.0540  0.0923
    1SOL     OW 3417   2.228   0.892   1.522  0.4018 -0.3429 -0.4865
    1SOL    HW2 3418   2.243   0.980   1.556 -1.5695 -0.3249  0.3973
    1SOL    HW3 3419   2.225   0.903   1.427 -1.0122  0.7415 -0.3219
    1SOL    MW4 3420   2.230   0.905   1.514 -0.0446 -0.1975 -0.3481
    1SOL     OW 3421   2.246   1.162   1.598  0.0039  0.1351  0.0189
    1SOL    HW2 3422   2.259   1.165   1.693  0.7429 -1.4284 -0.0139
    1SOL    HW3 3423   2.162   1.206   1.584  0.3260  1.2048  1.2940
    1SOL    MW4 3424   2.237   1.168   1.609  0.1438  0.0699  0.1829
    1SOL     OW 3425   2.475   1.254   1.497  0.5079  0.1192  0.8036
    1SOL    HW2 3426   2.391   1.230   1.536  0.0791 -0.0053 -0.2023
    1SOL    HW3 3427   2.458   1.259   1.403  1.7735 -0.5229  0.5330
    1SOL    MW4 3428   2.462   1.251   1.490  0.6180  0.0180  0.6350
    1SOL     OW 3429   2.505   1.506   1.619 -0.1190  0.2435  0.4912
    1SOL    HW2 3430   2.568   1.565   1.578 -0.3215  0.3817  0.3805
    1SOL    HW3 3431   2.502   1.429   1.562  0.2281  0.0772  0.6951
    1SOL    MW4 3432   2.513   1.504   1.606 -0.1001  0.2398  0.5034
    1SOL     OW 3433   2.293   1.677   1.524 -0.1996 -0.2165 -0.0370
    1SOL    HW2 3434   2.370   1.625   1.545  0.7241  0.8973 -0.5951
    1SOL    HW3 3435   2.276   1.660   1.431  0.5186  0.9777 -0.4019
    1SOL    MW4 3436   2.301   1.668   1.514  0.0169  0.0879 -0.1589
    1SOL     OW 3437   2.269   1.952   1.583 -0.3243 -0.2844  0.0804
    1SOL    HW2 3438   2.226   1.954   1.669 -1.3530  0.0476 -0.4289
    1SOL    HW3 3439   2.269   1.860   1.558 -1.5341 -0.1875 -0.2982
    1SOL    MW4 3440   2.263   1.941   1.591 -0.6199 -0.2279 -0.0367
    1SOL     OW 3441   2.513   2.054   1.507 -0.1089 -0.2136 -0.3659
    1SOL    HW2 3442   2.427   2.020   1.530 -0.9418  1.2979 -1.1535
    1SOL    HW3 3443   2.511   2.062   1.412  0.1968  1.6316 -0.2409
    1SOL    MW4 3444   2.501   2.051   1.498 -0.1783  0.2294 -0.4535
    1SOL     OW 3445   2.457   2.309   1.583 -0.1893 -0.1212 -0.6676
    1SOL    HW2 3446   2.465   2.317   1.678 -0.2601  0.1351 -0.6810
    1SOL    HW3 3447   2.482   2.219   1.563  0.5944  0.0601 -0.4892
    1SOL    MW4 3448   2.461   2.298   1.593 -0.0951 -0.0634 -0.6459
    1SOL     OW 3449   2.242   2.445   1.484 -0.2347  0.1899 -0.4741
    1SOL    HW2 3450   2.321   2.399   1.514 -0.0419  1.0005  0.2839
    1SOL    HW3 3451   2.169   2.391   1.515 -0.0086  0.3638  0.3751
    1SOL    MW4 3452   2.243   2.432   1.492 -0.1795  0.3197 -0.2620
    1SOL     OW 3453   2.253   2.684   1.640  0.1186 -0.4142  0.1368
    1SOL    HW2 3454   2.235   2.604   1.591  0.0263 -0.1826 -0.2158
    1SOL    HW3 3455   2.176   2.739   1.625  0.4516 -0.0196 -0.1277
    1SOL    MW4 3456   2.241   2.681   1.631  0.1502 -0.3316  0.0554
    1SOL     OW 3457   2.437   2.812   1.487 -0.1939  0.4565  0.0640
    1SOL    HW2 3458   2.445   2.900   1.524 -1.0994  0.6158 -0.1279
    1SOL    HW3 3459   2.364   2.772   1.534  1.4306 -0.8779  1.5020
    1SOL    MW4 3460   2.429   2.819   1.498 -0.0989  0.3016  0.2284
    1SOL     OW 3461   2.457   3.053   1.611 -0.1694  0.1677 -0.5356
    1SOL    HW2 3462   2.527   3.117   1.603 -0.4413  0.8748  2.1498
    1SOL    HW3 3463   2.378   3.101   1.588 -0.2546  0.5769  0.5559
    1SOL    MW4 3464   2.456   3.068   1.607 -0.2165  0.3150 -0.0373
    1SOL     OW 3465   2.241   3.220   1.523 -0.1355  0.2131 -0.1250
    1SOL    HW2 3466   2.240   3.313   1.546 -0.2575  0.4751 -1.1708
    1SOL    HW3 3467   2.242   3.219   1.427 -0.5582 -0.8680 -0.1253
    1SOL    MW4 3468   2.241   3.232   1.513 -0.2074  0.1051 -0.2630
    1SOL     OW 3469   2.208   3.495   1.572  0.0846  0.0485 -0.3279
    1SOL    HW2 3470   2.217   3.499   1.668 -1.4250  0.5311 -0.1952
    1SOL    HW3 3471   2.279   3.550   1.539  0.7147 -0.2431  0.5001
    1SOL    MW4 3472   2.219   3.502   1.581 -0.0315  0.0739 -0.2012
    1SOL     OW 3473   2.451   3.632   1.497  0.2824  0.1037 -0.3886
    1SOL    HW2 3474   2.528   3.590   1.534 -0.1166  0.0329  0.3629
    1SOL    HW3 3475   2.457   3.723   1.525 -0.1563 -0.0085  0.0736
    1SOL    MW4 3476   2.462   3.638   1.505  0.1717  0.0794 -0.2284
    1SOL     OW 3477   2.486   3.909   1.568 -0.4949  0.7140 -0.0025
    1SOL    HW2 3478   2.442   3.907   1.653 -0.9982  0.3216 -0.2621
    1SOL    HW3 3479   2.575   3.938   1.586 -0.7025  0.9588  0.6122
    1SOL    MW4 3480   2.492   3.913   1.581 -0.5887  0.6945  0.0443
    1SOL     OW 3481   2.225   3.992   1.483  0.2020  0.5007 -0.1511
    1SOL    HW2 3482   2.306   3.948   1.507 -0.1659 -0.4705 -0.6276
    1SOL    HW3 3483   2.236   4.014   1.391 -0.3788 -0.3608 -0.4376
    1SOL    MW4 3484   2.237   3.989   1.474  0.0765  0.2589 -0.2518
    1SOL     OW 3485   2.213   4.237   1.630 -0.1489  0.0016 -0.4800
    1SOL    HW2 3486   2.285   4.284   1.588 -0.6071  0.8566 -0.3052
    1SOL    HW3 3487   2.213   4.151   1.587  1.9090 -0.5383  0.5313
    1SOL    MW4 3488   2.222   4.232   1.618  0.0625  0.0424 -0.3235
    1SOL     OW 3489   2.394   4.400   1.517  0.2661 -0.2844 -0.3386
    1SOL    HW2 3490   2.408   4.489   1.549  0.7760 -0.4670 -0.0339
    1SOL    HW3 3491   2.400   4.406   1.422  0.4393 -0.0177 -0.3093
    1SOL    MW4 3492   2.397   4.412   1.509  0.3562 -0.2737 -0.2946
    1SOL     OW 3493   2.900   0.007   1.566 -0.1499 -0.0244  0.0553
    1SOL    HW2 3494   2.907   0.002   1.662 -0.7353 -0.7494  0.0687
    1SOL    HW3 3495   2.814   0.045   1.550 -0.6570 -1.2592 -0.1928
    1SOL    MW4 3496   2.889   0.011   1.577 -0.2942 -0.2832  0.0242
    1SOL     OW 3497   2.658   0.124   1.521 -0.2050  0.0458 -0.3194
    1SOL    HW2 3498   2.659   0.213   1.557 -0.9034  0.4921 -1.4012
    1SOL    HW3 3499   2.589   0.080   1.570 -0.6085  0.4228 -0.5416
    1SOL    MW4 3500   2.649   0.130   1.533 -0.3500  0.1544 -0.4916
    1SOL     OW 3501   2.677   0.410   1.594 -0.2710 -0.9912  0.0520
    1SOL    HW2 3502   2.669   0.434   1.686 -1.0955  2.6134 -0.9053
    1SOL    HW3 3503   2.765   0.437   1.569 -0.6021 -0.5191 -0.6201
    1SOL    MW4 3504   2.688   0.416   1.603 -0.4234 -0.4534 -0.1632
    1SOL     OW 3505   2.941   0.476   1.502  0.7865 -0.3544  0.4137
    1SOL    HW2 3506   2.934   0.564   1.539 -0.7632 -0.9946  1.7234
    1SOL    HW3 3507   2.922   0.488   1.409 -0.3388  0.5997  0.7465
    1SOL    MW4 3508   2.937   0.489   1.495  0.4337 -0.3130  0.6305
    1SOL     OW 3509   2.924   0.748   1.570 -0.3987 -0.5397 -0.1250
    1SOL    HW2 3510   2.939   0.754   1.664 -2.3186 -1.6422  0.2822
    1SOL    HW3 3511   2.839   0.790   1.556 -0.7710 -1.5906 -1.1499
    1SOL    MW4 3512   2.915   0.754   1.580 -0.7010 -0.8239 -0.2067
    1SOL     OW 3513   2.682   0.872   1.513 -0.0131 -0.2519  0.2554
    1SOL    HW2 3514   2.608   0.814   1.531  0.5206 -1.1480 -0.3475
    1SOL    HW3 3515   2.672   0.897   1.421  0.3310 -0.2396  0.2183
    1SOL    MW4 3516   2.671   0.867   1.503  0.1028 -0.3685  0.1711
    1SOL     OW 3517   2.712   1.133   1.615 -0.3101  0.1846 -0.6723
    1SOL    HW2 3518   2.714   1.041   1.589  1.1772 -0.4526  1.4538
    1SOL    HW3 3519   2.632   1.168   1.576 -1.3637 -2.2387 -0.7904
    1SOL    MW4 3520   2.702   1.126   1.607 -0.2527 -0.2193 -0.4075
    1SOL     OW 3521   2.931   1.276   1.493 -0.2691 -0.0392  0.5316
    1SOL    HW2 3522   3.015   1.237   1.518  0.1812 -0.2322 -1.1912
    1SOL    HW3 3523   2.866   1.229   1.546  0.4073 -2.1397 -0.4320
    1SOL    MW4 3524   2.933   1.264   1.503 -0.1202 -0.3417  0.1771
    1SOL     OW 3525   2.941   1.555   1.547 -0.2986 -0.4657  0.0158
    1SOL    HW2 3526   2.850   1.572   1.521 -0.1758 -2.2115 -1.7015
    1SOL    HW3 3527   2.953   1.461   1.530  1.7773 -0.2847  0.3983
    1SOL    MW4 3528   2.931   1.545   1.542 -0.0086 -0.6721 -0.1603
    1SOL     OW 3529   2.688   1.652   1.495  0.0201 -0.0256 -0.3097
    1SOL    HW2 3530   2.695   1.742   1.528  0.7021  0.0213 -0.5753
    1SOL    HW3 3531   2.703   1.660   1.401  3.6175 -0.8342  0.1269
    1SOL    MW4 3532   2.691   1.665   1.487  0.5848 -0.1261 -0.2872
    1SOL     OW 3533   2.718   1.901   1.596 -0.3528  0.2079  0.3574
    1SOL    HW2 3534   2.726   1.898   1.691  0.7018  0.8525  0.2941
    1SOL    HW3 3535   2.637   1.951   1.580 -0.9591 -0.5801  0.9109
    1SOL    MW4 3536   2.708   1.907   1.606 -0.2937  0.1889  0.4221
    1SOL     OW 3537   2.898   2.084   1.467 -0.4753  0.2941 -0.6193
    1SOL    HW2 3538   2.924   2.152   1.529  0.2377 -0.8808  0.4158
    1SOL    HW3 3539   2.829   2.036   1.513  0.4617 -0.9461 -0.4655
    1SOL    MW4 3540   2.892   2.087   1.481 -0.2575 -0.0246 -0.4624
    1SOL     OW 3541   2.911   2.308   1.630  0.0059 -0.1298  0.2883
    1SOL    HW2 3542   2.888   2.312   1.723 -1.5093 -0.5255 -0.0431
    1SOL    HW3 3543   2.831   2.336   1.585 -0.0672 -2.2821 -0.9644
    1SOL    MW4 3544   2.897   2.312   1.637 -0.2036 -0.4661  0.0794
    1SOL     OW 3545   2.689   2.426   1.499  0.1230 -0.7417 -0.0032
    1SOL    HW2 3546   2.689   2.513   1.538  0.7970 -0.1286 -1.3255
    1SOL    HW3 3547   2.603   2.389   1.522 -0.9475  1.0172 -1.0177
    1SOL    MW4 3548   2.677   2.433   1.507  0.0706 -0.4289 -0.3115
    1SOL     OW 3549   2.683   2.694   1.603  0.1751  0.1598  0.1978
    1SOL    HW2 3550   2.735   2.752   1.547  0.1819 -0.1760 -0.1422
    1SOL    HW3 3551   2.592   2.718   1.583  0.1511 -0.7194 -0.7669
    1SOL    MW4 3552   2.678   2.705   1.593  0.1724 -0.0007  0.0256
    1SOL     OW 3553   2.894   2.868   1.479  0.3916 -0.4980  0.0564
    1SOL    HW2 3554   2.961   2.827   1.534 -0.4855 -0.1303  1.4089
    1SOL    HW3 3555   2.869   2.947   1.526 -1.4497 -0.9535 -0.1321
    1SOL    MW4 3556   2.899   2.873   1.492  0.0331 -0.5097  0.2100
    1SOL     OW 3557   2.867   3.102   1.609 -0.2662  0.1471 -0.1588
    1SOL    HW2 3558   2.875   3.104   1.705 -0.1688 -1.0344 -0.1335
    1SOL    HW3 3559   2.946   3.146   1.578  0.3364 -0.5846  0.2954
    1SOL    MW4 3560   2.878   3.108   1.618 -0.1736 -0.1054 -0.0955
    1SOL     OW 3561   2.645   3.231   1.541  0.1924  0.2789  0.1943
    1SOL    HW2 3562   2.728   3.197   1.573 -0.4538 -2.6307 -1.0442
    1SOL    HW3 3563   2.660   3.249   1.448 -0.4647 -0.0737  0.0098
    1SOL    MW4 3564   2.658   3.229   1.533  0.0205 -0.1514  0.0066
    1SOL     OW 3565   2.677   3.512   1.593  0.2853  0.2437  0.0970
    1SOL    HW2 3566   2.705   3.514   1.685  3.0519  0.1990 -0.6996
    1SOL    HW3 3567   2.664   3.419   1.574  3.2978 -0.0682 -0.5597
    1SOL    MW4 3568   2.679   3.500   1.603  1.0478  0.1967 -0.0948
    1SOL     OW 3569   2.928   3.606   1.465 -0.0483 -0.0860 -0.4579
    1SOL    HW2 3570   2.862   3.552   1.509 -0.4145 -0.1889 -1.1195
    1SOL    HW3 3571   2.909   3.594   1.372  0.3372  0.6030 -0.6229
    1SOL    MW4 3572   2.917   3.597   1.458 -0.0455 -0.0086 -0.5671
    1SOL     OW 3573   2.917   3.841   1.607  0.3371 -0.1762 -0.2898
    1SOL    HW2 3574   2.853   3.900   1.567  0.3134 -0.1351 -0.1908
    1SOL    HW3 3575   2.910   3.760   1.556 -0.9790 -0.7555  0.7681
    1SOL    MW4 3576   2.907   3.838   1.595  0.1602 -0.2470 -0.1371
    1SOL     OW 3577   2.747   4.029   1.533  0.6287  0.3656 -0.1619
    1SOL    HW2 3578   2.727   4.111   1.578  1.5571  0.6608 -0.2798
    1SOL    HW3 3579   2.718   4.043   1.443  0.7770  0.5628 -0.1798
    1SOL    MW4 3580   2.741   4.042   1.527  0.7710  0.4301 -0.1798
    1SOL     OW 3581   2.645   4.282   1.605  0.2274  0.3006  0.0804
    1SOL    HW2 3582   2.710   4.345   1.575  0.5638  0.9267  2.0760
    1SOL    HW3 3583   2.561   4.320   1.580  0.3999  1.8132  1.7343
    1SOL    MW4 3584   2.642   4.295   1.598  0.2944  0.5822  0.5621
    1SOL     OW 3585   2.881   4.407   1.494 -0.2115  0.1185  0.1373
    1SOL    HW2 3586   2.884   4.502   1.507 -1.8788  0.2633 -0.4194
    1SOL    HW3 3587   2.865   4.397   1.400  0.3227 -0.7124  0.1396
    1SOL    MW4 3588   2.879   4.419   1.484 -0.3612  0.0281  0.0641
    1SOL     OW 3589   3.369   4.622   1.591 -0.0115  0.3594 -0.2543
    1SOL    HW2 3590   3.448   4.665   1.559  1.1444 -1.9268 -0.6390
    1SOL    HW3 3591   3.389   4.528   1.585 -1.7609 -0.2252  2.1727
    1SOL    MW4 3592   3.382   4.615   1.586 -0.0899 -0.0191  0.0151
    1SOL     OW 3593   3.169   0.080   1.448  0.0799  0.4445 -0.0027
    1SOL    HW2 3594   3.233   0.037   1.505  0.5017  0.0999 -0.7314
    1SOL    HW3 3595   3.084   0.059   1.487  0.2937 -0.9365 -0.2712
    1SOL    MW4 3596   3.166   0.072   1.461  0.1636  0.2168 -0.1342
    1SOL     OW 3597   3.169   0.351   1.583  0.2331  0.0434 -0.1080
    1SOL    HW2 3598   3.172   0.261   1.551  0.7534 -0.0163  0.1102
    1SOL    HW3 3599   3.084   0.384   1.555  0.4211 -0.2201 -0.9879
    1SOL    MW4 3600   3.158   0.344   1.575  0.3266  0.0007 -0.1953
    1SOL     OW 3601   3.364   0.512   1.494  0.0264 -0.0148  0.2778
    1SOL    HW2 3602   3.291   0.457   1.521 -0.1703  0.9114  1.6745
    1SOL    HW3 3603   3.359   0.513   1.398 -1.8121  0.0629  0.3685
    1SOL    MW4 3604   3.354   0.505   1.485 -0.2425  0.1177  0.4740
    1SOL     OW 3605   3.357   0.778   1.576 -0.4122 -0.0820 -0.4619
    1SOL    HW2 3606   3.358   0.773   1.671 -3.6884 -0.2955 -0.3980
    1SOL    HW3 3607   3.369   0.687   1.547  0.8959  0.0218 -0.3073
    1SOL    MW4 3608   3.359   0.766   1.585 -0.6719 -0.0965 -0.4331
    1SOL     OW 3609   3.129   0.889   1.475  0.0989 -0.3853 -0.3645
    1SOL    HW2 3610   3.206   0.844   1.510 -0.1006 -0.4867 -0.0546
    1SOL    HW3 3611   3.055   0.845   1.516 -0.0707  1.0052  0.8806
    1SOL    MW4 3612   3.129   0.877   1.485  0.0503 -0.2152 -0.1593
    1SOL     OW 3613   3.171   1.158   1.556 -0.1531 -0.3423  0.0787
    1SOL    HW2 3614   3.178   1.164   1.651 -1.4838 -0.5202  0.2054
    1SOL    HW3 3615   3.163   1.064   1.538  0.3992 -0.3314 -0.2389
    1SOL    MW4 3616   3.171   1.146   1.566 -0.2558 -0.3644  0.0536
    1SOL     OW 3617   3.387   1.304   1.434  0.6651 -0.5313  0.0125
    1SOL    HW2 3618   3.454   1.246   1.472  0.4244 -2.0583 -1.7878
    1SOL    HW3 3619   3.304   1.266   1.464  0.5651  0.6054  1.1928
    1SOL    MW4 3620   3.385   1.291   1.443  0.6201 -0.5828 -0.0695
    1SOL     OW 3621   3.396   1.567   1.563 -0.0802  0.0990 -0.3692
    1SOL    HW2 3622   3.403   1.548   1.657 -0.5397 -0.8415 -0.5148
    1SOL    HW3 3623   3.397   1.481   1.521 -2.1015  0.3736 -1.0744
    1SOL    MW4 3624   3.397   1.553   1.570 -0.4077  0.0112 -0.4815
    1SOL     OW 3625   3.155   1.699   1.446 -0.0333  0.2198 -0.0668
    1SOL    HW2 3626   3.226   1.658   1.497  0.0676  0.5849  0.0883
    1SOL    HW3 3627   3.077   1.648   1.469  0.1412 -0.0630 -0.0905
    1SOL    MW4 3628   3.154   1.687   1.456  0.0031  0.2307 -0.0494
    1SOL     OW 3629   3.133   1.951   1.563  0.2834  0.0614 -0.1545
    1SOL    HW2 3630   3.134   1.858   1.540 -0.9124 -0.2245  0.9351
    1SOL    HW3 3631   3.056   1.985   1.518  0.5375  0.4705 -0.2826
    1SOL    MW4 3632   3.123   1.943   1.554  0.1590  0.0778 -0.0277
    1SOL     OW 3633   3.353   2.092   1.462 -0.2813 -0.3097 -0.0499
    1SOL    HW2 3634   3.283   2.035   1.492 -0.2960 -1.0014 -1.3916
    1SOL    HW3 3635   3.355   2.081   1.367  0.8945  0.5620 -0.1400
    1SOL    MW4 3636   3.344   2.083   1.454 -0.1283 -0.2861 -0.2388
    1SOL     OW 3637   3.352   2.335   1.599 -0.4877  0.2103  0.2134
    1SOL    HW2 3638   3.407   2.401   1.556 -2.2647  0.5125 -1.6912
    1SOL    HW3 3639   3.356   2.259   1.542 -1.3736 -0.0485  0.4789
    1SOL    MW4 3640   3.360   2.334   1.586 -0.8390  0.2158 -0.0029
    1SOL     OW 3641   3.116   2.483   1.563  0.1648  0.4099  0.0184
    1SOL    HW2 3642   3.193   2.432   1.588  0.1682  0.7274  0.6527
    1SOL    HW3 3643   3.042   2.424   1.578  0.1535  0.6554  0.9229
    1SOL    MW4 3644   3.117   2.469   1.568  0.1638  0.4840  0.2214
    1SOL     OW 3645   3.083   2.763   1.639 -0.0796 -0.3148  0.1543
    1SOL    HW2 3646   3.154   2.809   1.595 -1.3272  0.6045 -0.9419
    1SOL    HW3 3647   3.096   2.671   1.615  1.3859 -0.3180  0.9057
    1SOL    MW4 3648   3.094   2.757   1.630 -0.0510 -0.1938  0.1088
    1SOL     OW 3649   3.339   2.859   1.514  0.2073  0.4179 -0.1415
    1SOL    HW2 3650   3.339   2.951   1.541  0.8629  0.3699  0.0195
    1SOL    HW3 3651   3.375   2.860   1.425  1.1725  0.2071  0.2415
    1SOL    MW4 3652   3.343   2.871   1.506  0.4213  0.3841 -0.0697
    1SOL     OW 3653   3.376   3.136   1.606  0.3786  0.1064  0.2212
    1SOL    HW2 3654   3.396   3.119   1.698  1.0450 -1.3051 -0.1737
    1SOL    HW3 3655   3.446   3.196   1.578  0.3471  0.2985  0.5461
    1SOL    MW4 3656   3.388   3.142   1.615  0.4623 -0.0544  0.2120
    1SOL     OW 3657   3.114   3.193   1.530 -0.0741 -0.1165  0.2303
    1SOL    HW2 3658   3.196   3.168   1.572 -0.2349 -0.2448  0.4715
    1SOL    HW3 3659   3.138   3.212   1.439  0.4109  0.9354  0.5755
    1SOL    MW4 3660   3.128   3.192   1.524 -0.0315  0.0055  0.3078
    1SOL     OW 3661   3.141   3.478   1.583 -0.2049  0.4017  0.4879
    1SOL    HW2 3662   3.131   3.386   1.560  2.7571  0.5403 -1.5768
    1SOL    HW3 3663   3.081   3.524   1.525  1.2728  0.0486 -1.4006
    1SOL    MW4 3664   3.132   3.472   1.572  0.3808  0.3734 -0.0337
    1SOL     OW 3665   3.360   3.619   1.504 -0.5954  0.5222  0.0692
    1SOL    HW2 3666   3.437   3.583   1.548 -0.1796  0.8542 -0.3785
    1SOL    HW3 3667   3.287   3.567   1.537 -0.2807  0.7060  1.0910
    1SOL    MW4 3668   3.360   3.608   1.514 -0.4990  0.5903  0.1451
    1SOL     OW 3669   3.347   3.881   1.609  0.2766  0.4330  0.0346
    1SOL    HW2 3670   3.280   3.935   1.568  0.1224  0.6425  0.5532
    1SOL    HW3 3671   3.329   3.792   1.579  0.1298  0.5750 -0.2984
    1SOL    MW4 3672   3.336   3.877   1.600  0.2370  0.4795  0.0591
    1SOL     OW 3673   3.122   4.030   1.499  0.3223 -0.0304 -0.0934
    1SOL    HW2 3674   3.095   4.114   1.534  1.7223  0.5563 -0.4055
    1SOL    HW3 3675   3.060   3.967   1.537 -1.0965  1.1915 -0.3148
    1SOL    MW4 3676   3.110   4.033   1.508  0.3197  0.2079 -0.1638
    1SOL     OW 3677   3.098   4.288   1.591  0.3410 -0.1298 -0.2495
    1SOL    HW2 3678   3.087   4.285   1.686  0.5547  0.3284 -0.2110
    1SOL    HW3 3679   3.018   4.331   1.559  0.3148 -0.1929 -0.2706
    1SOL    MW4 3680   3.086   4.293   1.599  0.3655 -0.0777 -0.2472
    1SOL     OW 3681   3.365   4.347   1.528  0.3659 -0.4891  0.1425
    1SOL    HW2 3682   3.273   4.329   1.549  0.8726 -2.1615  0.9367
    1SOL    HW3 3683   3.369   4.343   1.432 -0.1847 -1.4422  0.1551
    1SOL    MW4 3684   3.353   4.344   1.518  0.3598 -0.8359  0.2489
    1SOL     OW 3685   3.807   4.635   1.589  0.3526 -0.3748  0.0164
    1SOL    HW2 3686   3.811   4.636   1.684  1.3488  0.1469 -0.0289
    1SOL    HW3 3687   3.870   4.701   1.561 -0.8900  0.4005 -0.9825
    1SOL    MW4 3688   3.816   4.644   1.598  0.3204 -0.2036 -0.1214
    1SOL     OW 3689   3.590   0.108   1.502 -0.5172 -1.0153  0.3145
    1SOL    HW2 3690   3.664   0.054   1.530 -1.0029 -1.7497  0.1803
    1SOL    HW3 3691   3.583   0.094   1.408  0.3479  0.5168  0.0132
    1SOL    MW4 3692   3.599   0.099   1.493 -0.4671 -0.9100  0.2571
    1SOL     OW 3693   3.569   0.366   1.606 -0.1174  0.1161 -0.0993
    1SOL    HW2 3694   3.570   0.278   1.570  1.0017  0.2460 -0.4232
    1SOL    HW3 3695   3.498   0.411   1.561  1.7633  0.5216 -2.7967
    1SOL    MW4 3696   3.560   0.360   1.596  0.2782  0.1867 -0.4978
    1SOL     OW 3697   3.796   0.504   1.522  0.0254 -0.0224 -0.0457
    1SOL    HW2 3698   3.727   0.454   1.566 -0.4840  0.3631 -0.4020
    1SOL    HW3 3699   3.774   0.499   1.429 -2.1464  3.9418  0.1516
    1SOL    MW4 3700   3.784   0.496   1.516 -0.3283  0.5515 -0.0668
    1SOL     OW 3701   3.840   0.764   1.631  0.0197  0.0388 -0.2189
    1SOL    HW2 3702   3.761   0.815   1.615 -0.3473  0.1113  1.6884
    1SOL    HW3 3703   3.825   0.681   1.586 -0.3900  0.7025 -1.3224
    1SOL    MW4 3704   3.828   0.760   1.623 -0.0830  0.1358 -0.1128
    1SOL     OW 3705   3.603   0.897   1.530 -0.1059  0.0627  0.0987
    1SOL    HW2 3706   3.522   0.848   1.544 -1.2282  1.7219 -0.3759
    1SOL    HW3 3707   3.620   0.888   1.436  0.0931 -0.0210  0.1418
    1SOL    MW4 3708   3.594   0.889   1.519 -0.2277  0.2706  0.0416
    1SOL     OW 3709   3.581   1.170   1.572  0.4383 -0.1211 -0.0585
    1SOL    HW2 3710   3.670   1.193   1.548  0.5706 -0.0437  0.4858
    1SOL    HW3 3711   3.572   1.078   1.548  0.3351  0.1489 -1.0441
    1SOL    MW4 3712   3.591   1.161   1.566  0.4420 -0.0753 -0.1166
    1SOL     OW 3713   3.816   1.259   1.476  0.0611 -0.4526  0.1931
    1SOL    HW2 3714   3.893   1.215   1.511 -0.0811 -0.2831  0.7209
    1SOL    HW3 3715   3.819   1.347   1.513 -1.0241 -0.8095  1.1618
    1SOL    MW4 3716   3.826   1.265   1.485 -0.1009 -0.4773  0.3905
    1SOL     OW 3717   3.839   1.544   1.550  0.2051  0.6045  0.2624
    1SOL    HW2 3718   3.846   1.531   1.644  1.4841  0.4924  0.1581
    1SOL    HW3 3719   3.773   1.613   1.540 -1.4461 -0.7878  1.1283
    1SOL    MW4 3720   3.831   1.551   1.561  0.1559  0.4060  0.3629
    1SOL     OW 3721   3.641   1.746   1.498 -0.4119  0.4525 -0.1132
    1SOL    HW2 3722   3.571   1.698   1.543  0.5426 -0.8152  0.0478
    1SOL    HW3 3723   3.634   1.717   1.406  0.0123  0.1853 -0.0616
    1SOL    MW4 3724   3.631   1.736   1.492 -0.2301  0.2500 -0.0851
    1SOL     OW 3725   3.580   1.995   1.575  0.4016 -0.2401  0.1129
    1SOL    HW2 3726   3.572   1.908   1.535 -0.1274 -0.6917  1.1926
    1SOL    HW3 3727   3.506   2.044   1.538  0.3175 -0.4418  0.0070
    1SOL    MW4 3728   3.569   1.990   1.565  0.3207 -0.3263  0.2415
    1SOL     OW 3729   3.819   2.121   1.513 -0.1981  0.4638 -0.3372
    1SOL    HW2 3730   3.801   2.211   1.538  0.9379  0.4464  0.5847
    1SOL    HW3 3731   3.734   2.077   1.520 -0.5123  1.1793  0.4100
    1SOL    MW4 3732   3.806   2.127   1.517 -0.0896  0.5558 -0.1171
    1SOL     OW 3733   3.765   2.385   1.583  0.7449  0.1768 -0.1379
    1SOL    HW2 3734   3.792   2.363   1.672  0.7161 -0.2190 -0.2258
    1SOL    HW3 3735   3.841   2.431   1.546  0.7347  0.3924  0.1102
    1SOL    MW4 3736   3.779   2.388   1.590  0.7398  0.1533 -0.1169
    1SOL     OW 3737   3.540   2.489   1.483 -0.1733 -0.2254  0.1165
    1SOL    HW2 3738   3.547   2.580   1.513 -1.2876 -0.3152  0.6614
    1SOL    HW3 3739   3.619   2.446   1.516  0.8083  0.7618 -0.9137
    1SOL    MW4 3740   3.551   2.495   1.491 -0.1907 -0.1070  0.0525
    1SOL     OW 3741   3.587   2.754   1.617  0.0935 -0.2517 -0.1926
    1SOL    HW2 3742   3.606   2.730   1.708  2.0885  1.4932 -0.1226
    1SOL    HW3 3743   3.493   2.774   1.616 -0.1176 -1.0835  1.2669
    1SOL    MW4 3744   3.577   2.753   1.629  0.3288 -0.1311  0.0092
    1SOL     OW 3745   3.795   2.872   1.481  0.3406  0.0334 -0.2954
    1SOL    HW2 3746   3.875   2.831   1.515  0.5287  0.2782 -0.4408
    1SOL    HW3 3747   3.724   2.830   1.530  0.5637 -0.1255 -0.1061
    1SOL    MW4 3748   3.796   2.861   1.492  0.3948  0.0448 -0.2896
    1SOL     OW 3749   3.818   3.111   1.630 -0.3062 -0.4120 -0.4366
    1SOL    HW2 3750   3.891   3.152   1.583  0.1326  0.0042  0.5859
    1SOL    HW3 3751   3.798   3.032   1.580 -0.4768  0.5049 -1.8636
    1SOL    MW4 3752   3.825   3.106   1.617 -0.2704 -0.2360 -0.4900
    1SOL     OW 3753   3.594   3.262   1.515 -0.3517 -0.0287  0.1743
    1SOL    HW2 3754   3.665   3.211   1.554  0.9510  1.2509 -0.4848
    1SOL    HW3 3755   3.603   3.249   1.421 -0.6745  0.5470  0.0614
    1SOL    MW4 3756   3.604   3.253   1.508 -0.2227  0.2160  0.0722
    1SOL     OW 3757   3.563   3.511   1.650  0.1825 -0.1995 -0.1734
    1SOL    HW2 3758   3.643   3.556   1.620 -0.2462  1.4381  1.0825
    1SOL    HW3 3759   3.565   3.427   1.605  2.6426 -0.1904 -0.1583
    1SOL    MW4 3760   3.574   3.506   1.640  0.4506  0.0176 -0.0057
    1SOL     OW 3761   3.783   3.609   1.519 -0.1924 -0.1093 -0.7445
    1SOL    HW2 3762   3.861   3.567   1.556  0.1292 -0.2866 -1.6145
    1SOL    HW3 3763   3.792   3.701   1.542 -1.2725 -0.6175  1.8164
    1SOL    MW4 3764   3.795   3.615   1.527 -0.2925 -0.1996 -0.5214
    1SOL     OW 3765   3.774   3.878   1.589  0.0956 -0.5633  0.2501
    1SOL    HW2 3766   3.858   3.921   1.571 -0.1389  0.1470  0.8234
    1SOL    HW3 3767   3.710   3.930   1.540 -0.3369  0.4283  1.8449
    1SOL    MW4 3768   3.777   3.890   1.580  0.0076 -0.3388  0.5362
    1SOL     OW 3769   3.562   3.994   1.438  0.1452 -0.3526  0.2738
    1SOL    HW2 3770   3.555   4.073   1.491 -1.8860  0.2710 -0.8706
    1SOL    HW3 3771   3.494   3.936   1.472 -0.6018 -0.2802 -1.0859
    1SOL    MW4 3772   3.552   3.997   1.449 -0.2215 -0.2608 -0.0565
    1SOL     OW 3773   3.585   4.221   1.615 -0.0718  0.3862 -0.0106
    1SOL    HW2 3774   3.576   4.235   1.709  0.7566 -0.9782  0.2890
    1SOL    HW3 3775   3.508   4.264   1.577 -0.6991  0.4897  1.3300
    1SOL    MW4 3776   3.574   4.228   1.622 -0.0453  0.2203  0.2058
    1SOL     OW 3777   3.814   4.377   1.505 -0.1960  0.2948  0.1396
    1SOL    HW2 3778   3.741   4.340   1.555  0.2281 -0.3094  0.3228
    1SOL    HW3 3779   3.812   4.470   1.524 -2.6983  0.7578 -2.1516
    1SOL    MW4 3780   3.804   4.384   1.514 -0.4702  0.2766 -0.1386
    1SOL     OW 3781   4.222   0.001   1.601 -0.0051  0.1240  0.3467
    1SOL    HW2 3782   4.255  -0.013   1.690  0.4928 -0.2909  0.0988
    1SOL    HW3 3783   4.205  -0.087   1.567 -1.7308  0.3469  0.6030
    1SOL    MW4 3784   4.224  -0.013   1.608 -0.1669  0.0992  0.3477
    1SOL     OW 3785   4.015   0.123   1.478  0.3137 -0.0870  0.2482
    1SOL    HW2 3786   4.023   0.215   1.503 -0.2556 -0.3824  1.5376
    1SOL    HW3 3787   4.092   0.081   1.518  0.3062 -0.2648  0.0777
    1SOL    MW4 3788   4.026   0.130   1.487  0.2370 -0.1494  0.3958
    1SOL     OW 3789   4.045   0.367   1.587  0.5069  0.5685 -0.7193
    1SOL    HW2 3790   4.053   0.347   1.681  2.1984  0.4967 -0.8669
    1SOL    HW3 3791   3.958   0.406   1.579  1.1711  2.5645  1.2409
    1SOL    MW4 3792   4.035   0.369   1.598  0.8173  0.8224 -0.4802
    1SOL     OW 3793   4.265   0.524   1.518  0.1257  0.1078  0.0067
    1SOL    HW2 3794   4.188   0.473   1.542 -0.5392  0.9876 -0.2515
    1SOL    HW3 3795   4.338   0.481   1.564 -0.1562 -2.0707 -1.5078
    1SOL    MW4 3796   4.265   0.512   1.527  0.0005 -0.0635 -0.2273
    1SOL     OW 3797   4.298   0.757   1.643  0.2323  0.2606  0.4154
    1SOL    HW2 3798   4.285   0.674   1.597 -0.3452  0.6442 -0.1239
    1SOL    HW3 3799   4.351   0.810   1.582  2.5062 -0.4980  1.6795
    1SOL    MW4 3800   4.303   0.753   1.629  0.4559  0.2111  0.5111
    1SOL     OW 3801   4.071   0.845   1.504  0.4331  0.2461  0.2818
    1SOL    HW2 3802   4.149   0.808   1.545 -0.0696 -0.4330  0.6376
    1SOL    HW3 3803   3.998   0.805   1.551 -0.1438  0.1502 -0.6813
    1SOL    MW4 3804   4.072   0.835   1.516  0.2913  0.1439  0.2016
    1SOL     OW 3805   4.040   1.115   1.567  0.1861 -0.0273  0.4165
    1SOL    HW2 3806   4.066   1.106   1.659  0.2186 -0.0446  0.4058
    1SOL    HW3 3807   4.045   1.026   1.533 -0.6665 -0.1601  0.6209
    1SOL    MW4 3808   4.044   1.102   1.575  0.0777 -0.0471  0.4420
    1SOL     OW 3809   4.232   1.297   1.463  0.3885  0.1365  0.2645
    1SOL    HW2 3810   4.158   1.244   1.492 -0.5431  0.4385 -1.4973
    1SOL    HW3 3811   4.309   1.247   1.489 -0.4659 -2.0037 -1.2031
    1SOL    MW4 3812   4.232   1.283   1.470  0.1526 -0.1062 -0.1615
    1SOL     OW 3813   4.287   1.545   1.587  0.1403  0.2769 -0.4068
    1SOL    HW2 3814   4.271   1.466   1.536 -1.3766  0.6185 -0.4824
    1SOL    HW3 3815   4.356   1.591   1.539  1.4658 -1.2939 -0.0211
    1SOL    MW4 3816   4.294   1.541   1.573  0.1149  0.1146 -0.3660
    1SOL     OW 3817   4.056   1.700   1.516 -0.1472  0.1175 -0.2906
    1SOL    HW2 3818   4.129   1.645   1.546  1.1981  1.7211 -0.5377
    1SOL    HW3 3819   3.978   1.653   1.545  0.9957 -1.2147  0.7524
    1SOL    MW4 3820   4.056   1.686   1.524  0.1807  0.1534 -0.1856
    1SOL     OW 3821   4.031   1.964   1.607  0.2259 -0.1125 -0.3289
    1SOL    HW2 3822   4.025   1.875   1.570 -0.6836 -0.4575  0.6219
    1SOL    HW3 3823   3.945   2.002   1.592 -0.0351 -0.1216  1.0773
    1SOL    MW4 3824   4.019   1.957   1.600  0.0710 -0.1593 -0.0178
    1SOL     OW 3825   4.252   2.094   1.507 -0.1347 -0.0223  0.1692
    1SOL    HW2 3826   4.178   2.036   1.520 -0.1180 -0.0270  0.2411
    1SOL    HW3 3827   4.259   2.103   1.412  0.3402 -0.7489  0.1354
    1SOL    MW4 3828   4.243   2.088   1.496 -0.0696 -0.1190  0.1743
    1SOL     OW 3829   4.185   2.350   1.591  0.2200  0.0885 -0.3263
    1SOL    HW2 3830   4.188   2.350   1.687 -0.2604 -0.7707 -0.3033
    1SOL    HW3 3831   4.195   2.258   1.567 -2.5616 -0.0851 -0.9695
    1SOL    MW4 3832   4.186   2.338   1.601 -0.2103 -0.0479 -0.4083
    1SOL     OW 3833   3.991   2.507   1.489  0.0729 -0.1592  0.0487
    1SOL    HW2 3834   4.019   2.590   1.529 -0.6567 -0.3400  0.9406
    1SOL    HW3 3835   4.059   2.445   1.514  0.3294  0.0359 -0.1527
    1SOL    MW4 3836   4.004   2.510   1.497  0.0105 -0.1574  0.1398
    1SOL     OW 3837   4.031   2.761   1.579  0.1323 -0.0835 -0.1152
    1SOL    HW2 3838   4.028   2.746   1.673  0.7446 -2.1578 -0.3979
    1SOL    HW3 3839   4.122   2.787   1.562 -0.0422  0.5507 -0.1131
    1SOL    MW4 3840   4.043   2.763   1.589  0.1907 -0.2735 -0.1523
    1SOL     OW 3841   4.280   2.833   1.518  0.5758  0.1689 -0.6378
    1SOL    HW2 3842   4.285   2.928   1.533  0.8708 -0.0590  0.7900
    1SOL    HW3 3843   4.272   2.824   1.423  0.7555  1.6163 -0.8020
    1SOL    MW4 3844   4.279   2.845   1.508  0.6385  0.3300 -0.4711
    1SOL     OW 3845   4.266   3.103   1.579 -0.4675 -0.4192 -0.0339
    1SOL    HW2 3846   4.280   3.092   1.673 -1.2078 -1.2103 -0.0159
    1SOL    HW3 3847   4.348   3.141   1.548  0.4860 -1.8976  0.6306
    1SOL    MW4 3848   4.279   3.107   1.588 -0.4396 -0.7186  0.0563
    1SOL     OW 3849   4.040   3.252   1.515  0.3578 -0.2086 -0.3055
    1SOL    HW2 3850   4.041   3.333   1.567 -1.0823  0.1718 -0.8470
    1SOL    HW3 3851   4.110   3.199   1.552  1.6293  1.4797 -0.2332
    1SOL    MW4 3852   4.049   3.256   1.527  0.3357  0.0641 -0.3674
    1SOL     OW 3853   4.007   3.499   1.649  0.1552 -0.0137  0.3387
    1SOL    HW2 3854   4.009   3.490   1.744  2.3585 -1.9051  0.1724
    1SOL    HW3 3855   4.090   3.542   1.628 -0.4933  0.7467 -0.7199
    1SOL    MW4 3856   4.019   3.504   1.659  0.3605 -0.1628  0.1773
    1SOL     OW 3857   4.264   3.605   1.566  0.6453  0.0180  0.0430
    1SOL    HW2 3858   4.266   3.698   1.584  2.1327  0.1448 -0.6613
    1SOL    HW3 3859   4.251   3.599   1.471 -3.7990 -0.5839  0.5781
    1SOL    MW4 3860   4.263   3.616   1.556  0.2551 -0.0446  0.0207
    1SOL     OW 3861   4.263   3.860   1.646 -0.2145 -0.4037  0.0894
    1SOL    HW2 3862   4.190   3.902   1.601 -0.1366  0.2121  0.5286
    1SOL    HW3 3863   4.340   3.907   1.615 -0.1304 -0.1892  0.6126
    1SOL    MW4 3864   4.263   3.872   1.636 -0.1931 -0.2942  0.2164
    1SOL     OW 3865   4.041   3.985   1.515 -0.1063  0.0876  0.2111
    1SOL    HW2 3866   4.035   4.078   1.538 -0.9115  0.2458 -0.6089
    1SOL    HW3 3867   4.044   3.985   1.419 -1.9649 -0.8227  0.1294
    1SOL    MW4 3868   4.041   3.997   1.505 -0.4578 -0.0114  0.0921
    1SOL     OW 3869   4.017   4.233   1.616 -0.3050  0.0259 -0.1096
    1SOL    HW2 3870   4.007   4.253   1.709  0.8606  0.2747 -0.0299
    1SOL    HW3 3871   3.951   4.287   1.572  0.2541  1.1547  0.4246
    1SOL    MW4 3872   4.007   4.242   1.623 -0.0772  0.2074 -0.0285
    1SOL     OW 3873   4.233   4.403   1.508 -0.1128 -0.0556  0.5790
    1SOL    HW2 3874   4.160   4.344   1.524 -1.7079  1.8191  0.3866
    1SOL    HW3 3875   4.238   4.408   1.412 -1.4070  1.7980  0.5845
    1SOL    MW4 3876   4.224   4.396   1.497 -0.4940  0.4363  0.5543
    1SOL     OW 3877   0.171   4.636   1.878 -0.4735  0.3439  0.0157
    1SOL    HW2 3878   0.242   4.689   1.915 -0.1085 -0.3557  0.3219
    1SOL    HW3 3879   0.194   4.627   1.785 -0.0299 -0.0991  0.1693
    1SOL    MW4 3880   0.184   4.642   1.870 -0.3668  0.1931  0.0763
    1SOL     OW 3881   0.008   0.121   2.024 -0.1386 -0.0636 -0.0269
    1SOL    HW2 3882   0.024   0.206   1.983 -0.6006 -0.6035 -1.3712
    1SOL    HW3 3883   0.072   0.062   1.983 -1.5402 -0.9224 -1.0192
    1SOL    MW4 3884   0.019   0.124   2.013 -0.3848 -0.2481 -0.3352
    1SOL     OW 3885   0.032   0.365   1.902 -0.4088  0.5037  0.2661
    1SOL    HW2 3886  -0.058   0.394   1.919 -0.9024  0.6871 -2.3879
    1SOL    HW3 3887   0.085   0.443   1.915 -0.1992 -0.2477  4.6471
    1SOL    MW4 3888   0.027   0.379   1.906 -0.4463  0.4287  0.4940
    1SOL     OW 3889   0.213   0.559   1.972  0.0712  0.1503 -0.5618
    1SOL    HW2 3890   0.299   0.518   1.962  0.0497 -0.3426  1.0783
    1SOL    HW3 3891   0.210   0.626   1.903  1.5174 -0.2465 -1.0276
    1SOL    MW4 3892   0.224   0.563   1.962  0.2591  0.0330 -0.4069
    1SOL     OW 3893   0.232   0.783   1.823  0.1085 -0.5140 -0.1573
    1SOL    HW2 3894   0.307   0.836   1.850 -0.6800  0.3934  0.2931
    1SOL    HW3 3895   0.223   0.800   1.729 -0.4975  0.6439  0.0900
    1SOL    MW4 3896   0.240   0.793   1.814 -0.0755 -0.2416 -0.0652
    1SOL     OW 3897   0.014   0.905   1.975  0.1723 -0.1488  0.2494
    1SOL    HW2 3898  -0.058   0.852   1.939  0.8043  0.4824 -2.0023
    1SOL    HW3 3899   0.093   0.858   1.950  0.6433  0.5344  0.4511
    1SOL    MW4 3900   0.015   0.892   1.967  0.3181  0.0246 -0.0211
    1SOL     OW 3901   0.000   1.157   1.850 -0.5904  0.4074 -0.1348
    1SOL    HW2 3902  -0.074   1.200   1.892 -1.5189 -2.2433  1.0443
    1SOL    HW3 3903   0.004   1.071   1.891  1.7843 -0.3064 -1.7641
    1SOL    MW4 3904  -0.009   1.151   1.861 -0.3996 -0.0366 -0.1943
    1SOL     OW 3905   0.206   1.318   1.960 -0.0436  0.1166  0.5184
    1SOL    HW2 3906   0.196   1.406   1.924 -0.2621  0.0996  0.5375
    1SOL    HW3 3907   0.131   1.269   1.927  0.3043 -0.1787  0.1626
    1SOL    MW4 3908   0.195   1.323   1.951 -0.0265  0.0753  0.4740
    1SOL     OW 3909   0.218   1.561   1.850  0.1325  0.2587  0.2160
    1SOL    HW2 3910   0.302   1.591   1.884  1.4014 -2.2225 -0.5782
    1SOL    HW3 3911   0.153   1.609   1.902  2.0200  0.8012  2.1823
    1SOL    MW4 3912   0.220   1.571   1.862  0.5490  0.0031  0.3706
    1SOL     OW 3913   0.025   1.708   1.987  0.1793  0.2503  0.2765
    1SOL    HW2 3914   0.028   1.706   2.083 -0.0869  0.2757  0.2859
    1SOL    HW3 3915  -0.063   1.676   1.965 -0.1656  1.2849  0.0851
    1SOL    MW4 3916   0.014   1.704   1.997  0.0992  0.3902  0.2525
    1SOL     OW 3917   0.062   1.948   1.855 -0.3962  0.3485  0.3439
    1SOL    HW2 3918  -0.022   1.985   1.884 -0.7869 -0.7380  0.6363
    1SOL    HW3 3919   0.065   1.862   1.896  1.1593  0.6232  0.8410
    1SOL    MW4 3920   0.051   1.942   1.864 -0.2425  0.2414  0.4481
    1SOL     OW 3921   0.247   2.081   2.013  0.2196 -0.0648  0.1618
    1SOL    HW2 3922   0.236   2.163   1.966  1.1048 -0.7015 -1.1932
    1SOL    HW3 3923   0.182   2.022   1.976  0.9641 -0.5889 -0.3380
    1SOL    MW4 3924   0.237   2.084   2.002  0.4346 -0.2177 -0.0830
    1SOL     OW 3925   0.241   2.326   1.892  0.1993  0.0150 -0.3099
    1SOL    HW2 3926   0.308   2.385   1.927 -0.2787  0.4677 -0.1499
    1SOL    HW3 3927   0.158   2.367   1.916 -0.1371  0.3345 -1.9457
    1SOL    MW4 3928   0.239   2.339   1.900  0.0918  0.1171 -0.5046
    1SOL     OW 3929   4.446   2.454   1.968 -1.0037  0.2381  0.0428
    1SOL    HW2 3930   4.452   2.460   2.063 -0.2476 -2.2629  0.1897
    1SOL    HW3 3931   4.459   2.544   1.937  0.1463  0.8492  2.2386
    1SOL    MW4 3932   4.449   2.467   1.976 -0.7522 -0.0112  0.3521
    1SOL     OW 3933   0.015   2.714   1.902 -0.5714 -0.8333  0.2312
    1SOL    HW2 3934  -0.068   2.754   1.926  0.1003  0.5712  0.2345
    1SOL    HW3 3935   0.009   2.700   1.808 -0.9855 -1.1607  0.3044
    1SOL    MW4 3936   0.004   2.717   1.893 -0.5374 -0.6912  0.2412
    1SOL     OW 3937   0.236   2.821   2.025 -0.2459 -0.3596  0.2516
    1SOL    HW2 3938   0.233   2.910   1.990  0.6679  0.4001  2.0458
    1SOL    HW3 3939   0.166   2.775   1.979 -0.6624  1.2510 -0.7734
    1SOL    MW4 3940   0.227   2.827   2.014 -0.1803 -0.0470  0.3531
    1SOL     OW 3941   0.231   3.085   1.908 -0.3965  0.2408  0.1955
    1SOL    HW2 3942   0.306   3.132   1.945  1.4549 -2.6012  0.1962
    1SOL    HW3 3943   0.242   3.094   1.813 -0.5407  0.5608  0.2088
    1SOL    MW4 3944   0.243   3.092   1.900 -0.1712 -0.0918  0.1972
    1SOL     OW 3945   0.003   3.245   1.975 -0.2812  0.2652 -0.0035
    1SOL    HW2 3946  -0.066   3.189   1.940 -1.2492 -0.0749  2.3337
    1SOL    HW3 3947   0.084   3.208   1.941 -1.1892  0.4214 -2.4592
    1SOL    MW4 3948   0.005   3.233   1.966 -0.5287  0.2408 -0.0191
    1SOL     OW 3949   4.462   3.496   1.876 -0.0600  0.5459 -0.0650
    1SOL    HW2 3950   4.532   3.552   1.909 -0.0126  0.8294 -0.6448
    1SOL    HW3 3951   4.474   3.413   1.923 -0.1411  1.0211  0.8046
    1SOL    MW4 3952   4.473   3.493   1.887 -0.0644  0.6461 -0.0269
    1SOL     OW 3953   0.178   3.653   1.985  0.1005 -0.6172  0.2290
    1SOL    HW2 3954   0.164   3.635   2.078 -2.1829 -1.6408 -0.2637
    1SOL    HW3 3955   0.261   3.611   1.964  0.8972  0.0819  1.9119
    1SOL    MW4 3956   0.187   3.645   1.995 -0.0957 -0.6602  0.3860
    1SOL     OW 3957   0.185   3.907   1.887  0.1032 -0.5070 -0.0293
    1SOL    HW2 3958   0.256   3.946   1.937 -0.0227 -1.0014  0.5364
    1SOL    HW3 3959   0.195   3.813   1.899 -0.3669 -0.5999 -0.3252
    1SOL    MW4 3960   0.196   3.900   1.895  0.0246 -0.5846  0.0063
    1SOL     OW 3961   4.467   4.030   2.006  0.2019 -0.2501 -0.3008
    1SOL    HW2 3962   4.453   4.114   1.961 -1.0735 -1.2811 -1.9080
    1SOL    HW3 3963   4.527   3.983   1.948 -0.0025 -0.8883  0.0087
    1SOL    MW4 3964   4.473   4.035   1.992  0.0067 -0.4697 -0.4722
    1SOL     OW 3965   4.455   4.278   1.875 -0.0984 -0.3516 -0.0959
    1SOL    HW2 3966   4.373   4.313   1.909  0.5678  1.9784 -0.8217
    1SOL    HW3 3967   4.523   4.333   1.914  1.1930 -2.6908  1.0400
    1SOL    MW4 3968   4.453   4.290   1.885  0.1597 -0.3533 -0.0418
    1SOL     OW 3969   0.192   4.381   1.990  0.2151 -0.1594  0.1610
    1SOL    HW2 3970   0.178   4.401   2.083  1.1082  1.3309  0.0001
    1SOL    HW3 3971   0.201   4.467   1.949  1.5073 -0.8641 -1.0430
    1SOL    MW4 3972   0.191   4.395   1.997  0.5035 -0.0553 -0.0190
    1SOL     OW 3973   0.668   4.666   1.926 -0.1150  0.0713  0.0512
    1SOL    HW2 3974   0.640   4.580   1.957  0.6293  0.1074  0.8402
    1SOL    HW3 3975   0.647   4.666   1.832  0.8962 -1.3837 -0.1922
    1SOL    MW4 3976   0.662   4.654   1.917  0.1165 -0.1159  0.1233
    1SOL     OW 3977   0.404   0.094   1.970  0.4176  0.3627 -0.7082
    1SOL    HW2 3978   0.414   0.190   1.966 -0.1717  0.4713  0.3769
    1SOL    HW3 3979   0.494   0.061   1.960  0.5857  1.0130 -1.4128
    1SOL    MW4 3980   0.417   0.103   1.968  0.3621  0.4629 -0.6579
    1SOL     OW 3981   0.415   0.376   1.912 -0.3839 -0.5056 -0.4399
    1SOL    HW2 3982   0.493   0.427   1.932 -1.1664  0.0861  1.1614
    1SOL    HW3 3983   0.420   0.361   1.817  0.1825  2.0117 -0.8373
    1SOL    MW4 3984   0.426   0.381   1.902 -0.4124 -0.0954 -0.2811
    1SOL     OW 3985   0.630   0.530   1.991 -0.4099  0.1088  0.1094
    1SOL    HW2 3986   0.622   0.515   2.086 -0.0370  0.4053  0.1878
    1SOL    HW3 3987   0.713   0.487   1.967 -0.0786  0.7649  0.0707
    1SOL    MW4 3988   0.640   0.522   2.001 -0.3170  0.2345  0.1144
    1SOL     OW 3989   0.663   0.804   1.927  0.1091 -0.1212  0.2736
    1SOL    HW2 3990   0.741   0.845   1.964 -0.0262 -0.5497  1.0411
    1SOL    HW3 3991   0.671   0.711   1.951  0.2632 -0.5072 -1.1895
    1SOL    MW4 3992   0.674   0.797   1.935  0.1116 -0.2286  0.1816
    1SOL     OW 3993   0.411   0.926   1.988 -0.4015  0.4179  0.1353
    1SOL    HW2 3994   0.421   1.015   1.956 -0.7108 -0.3618 -2.2241
    1SOL    HW3 3995   0.492   0.881   1.962 -1.4671 -0.7226 -1.3051
    1SOL    MW4 3996   0.423   0.932   1.981 -0.5829  0.1646 -0.3662
    1SOL     OW 3997   0.429   1.180   1.885  0.0546 -0.4347  0.2609
    1SOL    HW2 3998   0.348   1.225   1.906  1.5244  2.8141 -0.7762
    1SOL    HW3 3999   0.421   1.159   1.791  0.3594 -0.2691  0.1985
    1SOL    MW4 4000   0.417   1.183   1.875  0.2887  0.0159  0.1159
    1SOL     OW 4001   0.669   1.312   1.980  0.6085  0.2828 -0.3948
    1SOL    HW2 4002   0.662   1.322   2.075  1.0770  1.6324 -0.4913
    1SOL    HW3 4003   0.592   1.261   1.956  0.6779 -0.3954  0.7516
    1SOL    MW4 4004   0.658   1.306   1.989  0.6794  0.3715 -0.2562
    1SOL     OW 4005   0.686   1.560   1.869  0.4007  0.0976  0.2823
    1SOL    HW2 4006   0.681   1.466   1.887  0.2580  0.0698  0.0926
    1SOL    HW3 4007   0.684   1.567   1.774 -0.4981  0.3408  0.3088
    1SOL    MW4 4008   0.685   1.549   1.859  0.2633  0.1259  0.2608
    1SOL     OW 4009   0.445   1.658   1.971  0.3676  0.4708  0.7196
    1SOL    HW2 4010   0.449   1.661   2.067  1.5803 -0.3896  0.7099
    1SOL    HW3 4011   0.524   1.610   1.945 -0.2315  0.2224 -0.6928
    1SOL    MW4 4012   0.456   1.652   1.980  0.4486  0.3246  0.5319
    1SOL     OW 4013   0.465   1.947   1.858 -0.4142 -0.4890 -0.0166
    1SOL    HW2 4014   0.470   1.858   1.893 -0.4634 -0.2426  0.6418
    1SOL    HW3 4015   0.401   1.991   1.915  0.8799  0.4369  0.7575
    1SOL    MW4 4016   0.457   1.941   1.870 -0.2500 -0.3343  0.1724
    1SOL     OW 4017   0.696   2.062   1.952 -0.4388 -0.4870  0.2037
    1SOL    HW2 4018   0.676   2.063   2.046 -1.5134  1.0007 -0.0204
    1SOL    HW3 4019   0.617   2.025   1.912  0.7247 -2.8449  0.0134
    1SOL    MW4 4020   0.683   2.057   1.959 -0.4271 -0.6018  0.1490
    1SOL     OW 4021   0.708   2.321   1.865 -0.3024 -0.0448  0.0719
    1SOL    HW2 4022   0.717   2.234   1.903 -1.6325  0.1942  0.9650
    1SOL    HW3 4023   0.681   2.305   1.774  0.7786 -0.5812 -0.1590
    1SOL    MW4 4024   0.706   2.308   1.858 -0.3353 -0.0842  0.1593
    1SOL     OW 4025   0.480   2.463   1.979  0.0862 -0.1495  0.0417
    1SOL    HW2 4026   0.459   2.455   2.072 -2.4149 -0.9158 -0.5336
    1SOL    HW3 4027   0.544   2.394   1.963  1.0944  0.4704  1.3418
    1SOL    MW4 4028   0.485   2.453   1.989 -0.1108 -0.1688  0.1374
    1SOL     OW 4029   0.448   2.725   1.871  0.0471  0.0525 -0.1563
    1SOL    HW2 4030   0.454   2.639   1.912 -0.1518  0.3561  0.5316
    1SOL    HW3 4031   0.374   2.767   1.916 -0.0163  0.4840 -0.6633
    1SOL    MW4 4032   0.439   2.719   1.883  0.0125  0.1495 -0.1322
    1SOL     OW 4033   0.701   2.813   1.959  0.0551 -0.3829  0.0983
    1SOL    HW2 4034   0.694   2.820   2.054  0.2618  2.2551 -0.0577
    1SOL    HW3 4035   0.612   2.794   1.930 -0.0680 -0.8696  0.7825
    1SOL    MW4 4036   0.688   2.811   1.968  0.0662 -0.0989  0.1680
    1SOL     OW 4037   0.654   3.088   1.910  0.0051  0.4965 -0.1883
    1SOL    HW2 4038   0.664   3.000   1.945 -2.4212  0.6004  0.9216
    1SOL    HW3 4039   0.666   3.079   1.816  1.8920 -0.6278  0.1359
    1SOL    MW4 4040   0.657   3.075   1.902 -0.0661  0.3617  0.0010
    1SOL     OW 4041   0.427   3.237   2.017 -0.1004  0.2973 -0.0054
    1SOL    HW2 4042   0.420   3.322   1.974 -0.6392 -0.2075 -0.9398
    1SOL    HW3 4043   0.511   3.201   1.987 -0.9862 -0.5452 -1.5957
    1SOL    MW4 4044   0.437   3.243   2.007 -0.2884  0.1194 -0.3383
    1SOL     OW 4045   0.411   3.514   1.915  0.2012  0.6345 -0.0164
    1SOL    HW2 4046   0.496   3.539   1.951  0.3010  0.8884 -0.4235
    1SOL    HW3 4047   0.425   3.512   1.820  0.0419 -0.4012 -0.0309
    1SOL    MW4 4048   0.424   3.517   1.907  0.1934  0.5314 -0.0721
    1SOL     OW 4049   0.657   3.630   2.021  0.1936 -0.5096 -0.3444
    1SOL    HW2 4050   0.737   3.590   1.988 -0.0867 -1.5275  0.1534
    1SOL    HW3 4051   0.645   3.709   1.969  0.5225 -1.3255 -1.6652
    1SOL    MW4 4052   0.666   3.635   2.010  0.2000 -0.7515 -0.4528
    1SOL     OW 4053   0.632   3.865   1.880  0.7972 -0.2936  0.1204
    1SOL    HW2 4054   0.714   3.910   1.895 -0.0831  1.9050 -1.4143
    1SOL    HW3 4055   0.620   3.866   1.785 -0.7386 -1.0454  0.2769
    1SOL    MW4 4056   0.641   3.871   1.870  0.4784 -0.1028 -0.0613
    1SOL     OW 4057   0.424   3.971   2.026  0.4121  0.4235 -0.1077
    1SOL    HW2 4058   0.436   4.063   2.005 -2.3537  0.6408 -0.9450
    1SOL    HW3 4059   0.499   3.927   1.986  1.1222  2.1708 -0.7151
    1SOL    MW4 4060   0.435   3.977   2.018  0.1409  0.6828 -0.2987
    1SOL     OW 4061   0.409   4.231   1.946 -0.2272  0.5475  0.0117
    1SOL    HW2 4062   0.334   4.287   1.967 -1.3952 -0.4168 -1.4984
    1SOL    HW3 4063   0.417   4.237   1.850 -0.3561 -1.8328 -0.1662
    1SOL    MW4 4064   0.400   4.239   1.936 -0.3983  0.1068 -0.2110
    1SOL     OW 4065   0.644   4.383   1.970 -0.2439 -0.4399  0.0986
    1SOL    HW2 4066   0.716   4.325   1.943 -0.2316 -0.6727  0.6279
    1SOL    HW3 4067   0.565   4.330   1.956 -0.4055  0.1848 -1.4889
    1SOL    MW4 4068   0.643   4.368   1.964 -0.2636 -0.3881 -0.0409
    1SOL     OW 4069   1.086   4.650   1.866  0.0268 -0.2082  0.6077
    1SOL    HW2 4070   1.153   4.707   1.902  1.5505 -0.9615 -0.9432
    1SOL    HW3 4071   1.078   4.578   1.929  0.3276  0.1225  1.0205
    1SOL    MW4 4072   1.093   4.648   1.879  0.2674 -0.2632  0.4575
    1SOL     OW 4073   0.889   0.130   2.008 -0.2251  0.0106  0.3942
    1SOL    HW2 4074   0.960   0.092   1.957  0.7802  0.0793  1.7178
    1SOL    HW3 4075   0.810   0.091   1.972  0.4173  0.4412 -1.5502
    1SOL    MW4 4076   0.888   0.120   1.996 -0.0077  0.0765  0.3122
    1SOL     OW 4077   0.880   0.393   1.914 -0.2107  0.0614  0.4063
    1SOL    HW2 4078   0.960   0.428   1.953  0.2766 -0.2674 -0.3003
    1SOL    HW3 4079   0.878   0.301   1.942 -0.7771  0.2817  1.1147
    1SOL    MW4 4080   0.890   0.385   1.923 -0.2211  0.0471  0.4066
    1SOL     OW 4081   1.093   0.491   2.035 -0.5316 -0.0954  0.3060
    1SOL    HW2 4082   1.172   0.451   1.998 -1.0827 -0.7966 -0.1271
    1SOL    HW3 4083   1.092   0.579   1.999  0.8702  0.4302  1.5227
    1SOL    MW4 4084   1.103   0.497   2.026 -0.4194 -0.1186  0.4094
    1SOL     OW 4085   1.093   0.727   1.902 -0.0368  0.2555 -0.0279
    1SOL    HW2 4086   1.175   0.774   1.917 -0.6884  1.4730 -0.2289
    1SOL    HW3 4087   1.025   0.788   1.931 -0.8918 -0.5560 -0.3216
    1SOL    MW4 4088   1.095   0.741   1.908 -0.2357  0.3091 -0.0931
    1SOL     OW 4089   0.922   0.915   2.013  0.4674  0.2144  0.1965
    1SOL    HW2 4090   0.907   0.915   2.108 -1.0980  0.0006 -0.0236
    1SOL    HW3 4091   0.922   1.007   1.988 -1.0703  0.2248  0.1517
    1SOL    MW4 4092   0.920   0.927   2.022  0.0579  0.1875  0.1619
    1SOL     OW 4093   0.902   1.171   1.893 -0.2152  0.4953  0.2024
    1SOL    HW2 4094   0.818   1.210   1.918 -0.0664  0.0258  1.4922
    1SOL    HW3 4095   0.905   1.179   1.798 -1.8765  0.1957  0.1106
    1SOL    MW4 4096   0.892   1.177   1.884 -0.4147  0.3939  0.3606
    1SOL     OW 4097   1.129   1.291   1.997 -0.2675 -0.0848  0.4852
    1SOL    HW2 4098   1.147   1.380   1.964 -1.6562  0.3410  0.8430
    1SOL    HW3 4099   1.044   1.269   1.959  0.3353 -1.5130 -0.0758
    1SOL    MW4 4100   1.120   1.300   1.987 -0.3712 -0.2170  0.4582
    1SOL     OW 4101   1.173   1.543   1.878 -0.0938  0.2030 -0.1308
    1SOL    HW2 4102   1.086   1.575   1.899  0.4810  1.7875 -0.0976
    1SOL    HW3 4103   1.175   1.539   1.782  0.0714  0.9978 -0.1672
    1SOL    MW4 4104   1.162   1.547   1.868  0.0039  0.5169 -0.1311
    1SOL     OW 4105   0.940   1.661   1.973  0.4503  0.6209 -0.3162
    1SOL    HW2 4106   0.942   1.751   1.940 -0.7726  0.8030  0.0680
    1SOL    HW3 4107   0.852   1.629   1.952  1.0931 -0.7178 -1.0317
    1SOL    MW4 4108   0.928   1.669   1.966  0.3738  0.4683 -0.3600
    1SOL     OW 4109   0.930   1.933   1.877  0.1170 -0.2486 -0.4336
    1SOL    HW2 4110   0.848   1.974   1.902  0.8960  1.2322 -0.2769
    1SOL    HW3 4111   0.926   1.925   1.782 -0.6705 -1.1821 -0.3216
    1SOL    MW4 4112   0.919   1.937   1.868  0.1158 -0.1764 -0.3982
    1SOL     OW 4113   1.166   2.040   1.978  0.6140 -0.4013 -0.3107
    1SOL    HW2 4114   1.165   2.133   1.955 -0.0201 -0.3008  0.1225
    1SOL    HW3 4115   1.092   2.003   1.930 -0.9317 -0.1311  1.8055
    1SOL    MW4 4116   1.156   2.048   1.969  0.3265 -0.3521  0.0256
    1SOL     OW 4117   1.148   2.291   1.860  0.2962 -0.0837  0.4091
    1SOL    HW2 4118   1.220   2.350   1.880  1.4923 -1.4881  0.3599
    1SOL    HW3 4119   1.141   2.291   1.765  1.4528 -1.3233  0.3022
    1SOL    MW4 4120   1.156   2.299   1.850  0.6067 -0.4327  0.3886
    1SOL     OW 4121   0.940   2.441   1.963  0.3415  0.0964 -0.0135
    1SOL    HW2 4122   0.998   2.387   1.909  0.1238  0.6396 -0.8071
    1SOL    HW3 4123   0.852   2.419   1.932  0.3035  1.6247 -1.0357
    1SOL    MW4 4124   0.936   2.431   1.952  0.3078  0.3695 -0.2532
    1SOL     OW 4125   0.940   2.691   1.868  0.4820  0.1779  0.2173
    1SOL    HW2 4126   0.945   2.599   1.895 -0.0272 -0.0402 -0.4217
    1SOL    HW3 4127   0.865   2.726   1.916 -0.5058 -0.2444 -0.9942
    1SOL    MW4 4128   0.931   2.683   1.878  0.2845  0.0932 -0.0269
    1SOL     OW 4129   1.159   2.833   1.975 -0.0106  0.0683 -0.2327
    1SOL    HW2 4130   1.153   2.834   2.071  0.1391  0.1590 -0.2237
    1SOL    HW3 4131   1.094   2.769   1.948  0.2135 -0.2418 -0.0492
    1SOL    MW4 4132   1.150   2.825   1.984  0.0387  0.0389 -0.2072
    1SOL     OW 4133   1.138   3.088   1.889 -0.0953 -0.6986 -0.1336
    1SOL    HW2 4134   1.052   3.118   1.919 -0.4967 -0.5866 -1.3664
    1SOL    HW3 4135   1.142   2.996   1.915 -0.8492 -0.8744 -0.6388
    1SOL    MW4 4136   1.127   3.080   1.896 -0.2476 -0.7069 -0.3629
    1SOL     OW 4137   0.907   3.200   2.017  0.3503 -0.0510  0.4790
    1SOL    HW2 4138   0.906   3.199   2.113  1.1344  1.7812  0.5157
    1SOL    HW3 4139   0.821   3.164   1.992  0.3650 -1.0534  1.8544
    1SOL    MW4 4140   0.895   3.195   2.026  0.4557  0.0587  0.6657
    1SOL     OW 4141   0.876   3.478   1.934  0.0091  0.1006 -0.3721
    1SOL    HW2 4142   0.895   3.387   1.957  0.5773  0.3434  0.1073
    1SOL    HW3 4143   0.852   3.474   1.841 -1.2308 -0.7153 -0.0217
    1SOL    MW4 4144   0.875   3.465   1.925 -0.0796  0.0248 -0.2626
    1SOL     OW 4145   1.131   3.585   2.001 -0.0870  0.3239  0.0248
    1SOL    HW2 4146   1.111   3.592   2.094  0.9667  0.1518  0.2623
    1SOL    HW3 4147   1.053   3.543   1.963 -0.7897  0.9902  0.7157
    1SOL    MW4 4148   1.118   3.580   2.008 -0.0408  0.3891  0.1473
    1SOL     OW 4149   1.085   3.832   1.923  0.0133  0.3135 -0.3313
    1SOL    HW2 4150   1.086   3.740   1.951 -2.0501  0.4867  0.3869
    1SOL    HW3 4151   1.082   3.828   1.828 -2.5992 -0.4161 -0.2479
    1SOL    MW4 4152   1.085   3.819   1.914 -0.6038  0.2401 -0.2255
    1SOL     OW 4153   0.875   3.995   2.001 -0.3033  0.0182  0.0748
    1SOL    HW2 4154   0.874   3.973   2.095  2.5221  1.8403  0.5937
    1SOL    HW3 4155   0.949   3.945   1.966  0.8377  2.0560 -0.4598
    1SOL    MW4 4156   0.884   3.985   2.009  0.2200  0.5276  0.0727
    1SOL     OW 4157   0.863   4.237   1.883 -0.2253 -0.0018  0.2891
    1SOL    HW2 4158   0.928   4.292   1.926  0.8613 -0.3604 -0.8799
    1SOL    HW3 4159   0.866   4.154   1.931  1.4588 -0.6294 -0.8963
    1SOL    MW4 4160   0.872   4.233   1.895  0.1402 -0.1316 -0.0216
    1SOL     OW 4161   1.095   4.400   2.019 -0.1225 -0.3870  0.2055
    1SOL    HW2 4162   1.114   4.389   2.112  0.3818  2.0276  0.4268
    1SOL    HW3 4163   1.175   4.371   1.975  0.4303  0.4416  0.6441
    1SOL    MW4 4164   1.108   4.395   2.026  0.0170  0.0410  0.2925
    1SOL     OW 4165   1.577   4.642   1.922 -0.1539  0.0495  0.5483
    1SOL    HW2 4166   1.664   4.673   1.945  0.3227 -0.1973 -0.8298
    1SOL    HW3 4167   1.570   4.556   1.963  0.2054  0.1319  0.7825
    1SOL    MW4 4168   1.587   4.635   1.930 -0.0435  0.0272  0.3974
    1SOL     OW 4169   1.324   0.125   1.987 -0.1135 -0.5509 -0.4329
    1SOL    HW2 4170   1.325   0.126   2.083  0.4549  1.1015 -0.4447
    1SOL    HW3 4171   1.402   0.075   1.963  0.6301  0.4036 -0.0405
    1SOL    MW4 4172   1.335   0.119   1.997  0.0596 -0.2069 -0.3827
    1SOL     OW 4173   1.325   0.396   1.898 -0.4884  0.1283 -0.1389
    1SOL    HW2 4174   1.321   0.303   1.917 -1.7869  0.1341 -0.3245
    1SOL    HW3 4175   1.314   0.402   1.803 -0.9151  0.4960 -0.0687
    1SOL    MW4 4176   1.323   0.385   1.888 -0.7159  0.1776 -0.1541
    1SOL     OW 4177   1.593   0.461   2.031  0.3863 -0.1810 -0.2905
    1SOL    HW2 4178   1.672   0.433   1.984 -0.4616 -1.8312 -0.7786
    1SOL    HW3 4179   1.521   0.434   1.974 -0.6201 -1.0815  1.3740
    1SOL    MW4 4180   1.594   0.454   2.017  0.1417 -0.5175 -0.1352
    1SOL     OW 4181   1.558   0.723   1.930 -0.3453 -0.0128 -0.0300
    1SOL    HW2 4182   1.624   0.784   1.962  0.3123 -1.0732  0.7003
    1SOL    HW3 4183   1.581   0.639   1.971 -1.5415 -0.6290 -0.5748
    1SOL    MW4 4184   1.570   0.720   1.940 -0.4164 -0.2340 -0.0055
    1SOL     OW 4185   1.310   0.867   1.990 -0.0424  0.1210  0.1715
    1SOL    HW2 4186   1.302   0.877   2.085 -0.1183 -1.3238  0.3317
    1SOL    HW3 4187   1.400   0.836   1.976 -0.8377 -2.2385  0.0208
    1SOL    MW4 4188   1.321   0.864   2.001 -0.1574 -0.3809  0.1726
    1SOL     OW 4189   1.367   1.133   1.914  0.2599  0.3437  0.0628
    1SOL    HW2 4190   1.349   1.041   1.935  1.3654  0.0343 -0.3401
    1SOL    HW3 4191   1.289   1.180   1.944 -0.4721 -0.7715 -0.0680
    1SOL    MW4 4192   1.354   1.127   1.920  0.3092  0.1556 -0.0075
    1SOL     OW 4193   1.589   1.302   1.979  0.1456 -0.0469 -0.0715
    1SOL    HW2 4194   1.579   1.393   1.951  1.4748  0.0168 -0.3857
    1SOL    HW3 4195   1.515   1.256   1.940  0.0831  0.6920 -0.8316
    1SOL    MW4 4196   1.578   1.308   1.970  0.3127  0.0590 -0.2133
    1SOL     OW 4197   1.582   1.569   1.866 -0.1027 -0.5018  0.0553
    1SOL    HW2 4198   1.670   1.603   1.883  0.0733 -1.2162  0.5565
    1SOL    HW3 4199   1.524   1.629   1.914  0.1143 -0.0977 -0.1835
    1SOL    MW4 4200   1.586   1.582   1.874 -0.0508 -0.5429  0.0899
    1SOL     OW 4201   1.369   1.681   2.018 -0.1381 -0.4730  0.2505
    1SOL    HW2 4202   1.375   1.662   2.112  1.7603  0.2048  0.2946
    1SOL    HW3 4203   1.296   1.628   1.987  0.4109 -2.1416  1.7465
    1SOL    MW4 4204   1.360   1.672   2.027  0.1849 -0.6038  0.4537
    1SOL     OW 4205   1.350   1.891   1.846  0.4207 -0.0370 -0.1303
    1SOL    HW2 4206   1.366   1.822   1.910 -2.2114 -1.2455 -0.6896
    1SOL    HW3 4207   1.283   1.946   1.888 -1.6195 -1.0679 -1.9276
    1SOL    MW4 4208   1.343   1.889   1.860 -0.1959 -0.3324 -0.4412
    1SOL     OW 4209   1.541   2.046   1.999 -0.1700  0.5808 -0.4107
    1SOL    HW2 4210   1.520   2.133   1.964 -1.1536  0.9416  1.0299
    1SOL    HW3 4211   1.470   1.990   1.967  1.1082  0.0126 -2.3567
    1SOL    MW4 4212   1.529   2.050   1.990 -0.1312  0.5534 -0.4774
    1SOL     OW 4213   1.539   2.302   1.882  0.4029  0.1493 -0.2175
    1SOL    HW2 4214   1.623   2.342   1.905 -0.8090  2.3108  0.6343
    1SOL    HW3 4215   1.528   2.323   1.789  1.1902 -0.8832 -0.5510
    1SOL    MW4 4216   1.549   2.310   1.872  0.3467  0.2983 -0.1490
    1SOL     OW 4217   1.347   2.464   1.973  0.4390  0.3945 -0.1528
    1SOL    HW2 4218   1.376   2.554   1.959 -1.0779  0.8145 -0.6326
    1SOL    HW3 4219   1.420   2.410   1.941  0.5194  1.4246 -1.7458
    1SOL    MW4 4220   1.361   2.469   1.967  0.2494  0.5856 -0.4262
    1SOL     OW 4221   1.404   2.731   1.883  0.2908 -0.7315 -0.2123
    1SOL    HW2 4222   1.332   2.777   1.926  0.2829 -0.2582 -0.7198
    1SOL    HW3 4223   1.376   2.722   1.792  0.5554 -1.2031 -0.2463
    1SOL    MW4 4224   1.391   2.736   1.876  0.3246 -0.7312 -0.2837
    1SOL     OW 4225   1.622   2.853   1.979  0.4412  0.2603  0.6739
    1SOL    HW2 4226   1.694   2.801   1.945 -0.0339  0.4039 -0.6005
    1SOL    HW3 4227   1.543   2.804   1.955  0.0023  1.3970 -0.3262
    1SOL    MW4 4228   1.621   2.840   1.971  0.3208  0.4289  0.3737
    1SOL     OW 4229   1.603   3.115   1.878 -0.5570  0.1477  0.2265
    1SOL    HW2 4230   1.605   3.024   1.907  0.2704 -0.1509 -0.7412
    1SOL    HW3 4231   1.591   3.110   1.783 -0.1013  1.0424  0.1160
    1SOL    MW4 4232   1.601   3.102   1.870 -0.3878  0.2263  0.0844
    1SOL     OW 4233   1.363   3.202   2.002 -0.0684 -0.3039  0.0792
    1SOL    HW2 4234   1.434   3.162   1.950 -0.2019 -1.3560  0.6960
    1SOL    HW3 4235   1.283   3.169   1.963 -0.1600 -1.6080  1.3480
    1SOL    MW4 4236   1.362   3.193   1.990 -0.0982 -0.6149  0.3279
    1SOL     OW 4237   1.345   3.457   1.880 -0.0663 -0.3946 -0.3814
    1SOL    HW2 4238   1.355   3.376   1.930  0.5430  0.1876  0.4500
    1SOL    HW3 4239   1.273   3.503   1.922  0.2170 -0.0644 -0.2550
    1SOL    MW4 4240   1.337   3.452   1.892  0.0514 -0.2744 -0.2550
    1SOL     OW 4241   1.580   3.619   1.975  0.1090  0.7400  0.2080
    1SOL    HW2 4242   1.577   3.624   2.070 -0.9322  0.2862  0.2034
    1SOL    HW3 4243   1.507   3.561   1.951  0.8710  0.1814 -0.8127
    1SOL    MW4 4244   1.570   3.612   1.984  0.0721  0.6063  0.0728
    1SOL     OW 4245   1.547   3.877   1.874 -0.2567  0.1070  0.3107
    1SOL    HW2 4246   1.625   3.915   1.914  1.3374 -1.3753 -1.3327
    1SOL    HW3 4247   1.550   3.784   1.897 -1.8825  0.1550  0.7690
    1SOL    MW4 4248   1.557   3.870   1.882 -0.2608 -0.0827  0.1544
    1SOL     OW 4249   1.317   4.012   1.953  0.2204  0.2272 -0.2464
    1SOL    HW2 4250   1.387   3.957   1.917  0.0989 -0.7746  1.0218
    1SOL    HW3 4251   1.241   3.954   1.959 -0.1191  0.7235  0.3997
    1SOL    MW4 4252   1.316   3.997   1.949  0.1596  0.1602  0.0062
    1SOL     OW 4253   1.340   4.306   1.917  0.3947  0.0635 -0.0648
    1SOL    HW2 4254   1.348   4.217   1.950 -0.5147 -0.3919 -1.0752
    1SOL    HW3 4255   1.337   4.298   1.822 -0.1074  1.1323 -0.1565
    1SOL    MW4 4256   1.341   4.293   1.909  0.2084  0.1445 -0.2103
    1SOL     OW 4257   1.574   4.386   2.016 -0.4754  0.3484 -0.3022
    1SOL    HW2 4258   1.572   4.381   2.111 -1.2016  1.3634 -0.2561
    1SOL    HW3 4259   1.490   4.348   1.989 -0.8036  1.1885 -0.4776
    1SOL    MW4 4260   1.562   4.380   2.025 -0.6146  0.5922 -0.3192
    1SOL     OW 4261   2.030   4.620   1.872 -0.0292 -0.3130 -0.3437
    1SOL    HW2 4262   2.096   4.679   1.908 -0.9954  0.4119  0.2765
    1SOL    HW3 4263   2.034   4.542   1.928 -0.3990  0.1437  0.3251
    1SOL    MW4 4264   2.039   4.617   1.884 -0.2055 -0.1574 -0.1736
    1SOL     OW 4265   1.825   0.095   1.986 -0.7326 -0.0883 -0.5862
    1SOL    HW2 4266   1.817   0.076   2.079 -1.3544  0.2798 -0.5568
    1SOL    HW3 4267   1.898   0.041   1.956  0.6546  1.1287  0.4849
    1SOL    MW4 4268   1.833   0.086   1.994 -0.6315  0.1208 -0.4412
    1SOL     OW 4269   1.804   0.365   1.889 -0.3128  0.2068 -0.2505
    1SOL    HW2 4270   1.800   0.272   1.908  0.6035  0.3268  0.5444
    1SOL    HW3 4271   1.801   0.370   1.793  2.5118 -0.8015 -0.4310
    1SOL    MW4 4272   1.803   0.354   1.879  0.1807  0.0896 -0.1693
    1SOL     OW 4273   2.007   0.510   2.004 -0.2820  0.1977  0.1669
    1SOL    HW2 4274   1.990   0.600   1.975 -0.5552  1.0007  2.7230
    1SOL    HW3 4275   1.932   0.460   1.971 -1.4116  1.4014  0.8449
    1SOL    MW4 4276   1.995   0.516   1.996 -0.4668  0.4625  0.5935
    1SOL     OW 4277   2.020   0.775   1.905  0.3931 -0.2691  0.1498
    1SOL    HW2 4278   2.098   0.820   1.937  1.0506 -1.4246  0.2165
    1SOL    HW3 4279   2.028   0.777   1.809  0.4057 -0.2033  0.1526
    1SOL    MW4 4280   2.031   0.781   1.896  0.4816 -0.4129  0.1589
    1SOL     OW 4281   1.780   0.890   2.014  0.2821  0.3224 -0.1794
    1SOL    HW2 4282   1.790   0.979   1.980 -1.3280  0.4426 -0.3745
    1SOL    HW3 4283   1.856   0.843   1.980  0.5297  1.3305 -1.0574
    1SOL    MW4 4284   1.792   0.896   2.005  0.1023  0.4712 -0.3211
    1SOL     OW 4285   1.805   1.142   1.898  0.7970  0.0914 -0.0696
    1SOL    HW2 4286   1.736   1.205   1.918 -0.1938 -0.5283 -1.4090
    1SOL    HW3 4287   1.788   1.116   1.807  0.5881 -2.7704  0.7132
    1SOL    MW4 4288   1.794   1.147   1.889  0.6386 -0.3680 -0.1429
    1SOL     OW 4289   2.012   1.296   1.965  0.1938  0.1660 -0.3553
    1SOL    HW2 4290   2.085   1.237   1.942 -0.2123 -0.4213 -0.1459
    1SOL    HW3 4291   1.934   1.246   1.942 -0.1752  0.2636  0.7039
    1SOL    MW4 4292   2.011   1.282   1.959  0.0916  0.1014 -0.1879
    1SOL     OW 4293   2.056   1.583   1.911 -0.1108 -0.8295 -0.3612
    1SOL    HW2 4294   2.038   1.490   1.926 -0.4422 -0.9002 -1.1631
    1SOL    HW3 4295   2.057   1.592   1.816 -0.2935  0.0348 -0.2882
    1SOL    MW4 4296   2.054   1.572   1.900 -0.1786 -0.7249 -0.4574
    1SOL     OW 4297   1.799   1.701   1.943  0.4192  0.5843  0.1658
    1SOL    HW2 4298   1.801   1.794   1.919  0.6843  1.0161  1.7974
    1SOL    HW3 4299   1.891   1.675   1.948  0.3450  0.2255 -0.3079
    1SOL    MW4 4300   1.811   1.710   1.941  0.4443  0.5940  0.3184
    1SOL     OW 4301   1.781   1.968   1.908  0.1763  0.0409  0.0219
    1SOL    HW2 4302   1.692   1.991   1.935  0.0089 -0.6061  0.0073
    1SOL    HW3 4303   1.779   1.975   1.812  0.2265  0.3345  0.0417
    1SOL    MW4 4304   1.769   1.972   1.899  0.1608 -0.0057  0.0225
    1SOL     OW 4305   2.005   2.099   1.999 -0.3527  0.4428 -0.0912
    1SOL    HW2 4306   2.073   2.040   1.968 -0.4284  0.0322  0.5105
    1SOL    HW3 4307   1.923   2.059   1.972 -0.3598  0.8449 -0.6587
    1SOL    MW4 4308   2.003   2.086   1.992 -0.3636  0.4418 -0.0868
    1SOL     OW 4309   2.047   2.343   1.849 -1.0336  0.3956  0.6787
    1SOL    HW2 4310   2.125   2.382   1.888 -1.3278  0.1142  1.5631
    1SOL    HW3 4311   2.032   2.263   1.900  0.5174 -1.7787 -2.1126
    1SOL    MW4 4312   2.055   2.338   1.861 -0.8678  0.0715  0.4270
    1SOL     OW 4313   1.781   2.395   1.954  0.0663 -0.2547 -0.4252
    1SOL    HW2 4314   1.784   2.409   2.048  0.5104  0.3734 -0.5312
    1SOL    HW3 4315   1.871   2.376   1.929 -0.2542 -1.6807 -0.5386
    1SOL    MW4 4316   1.793   2.394   1.963  0.0826 -0.3603 -0.4543
    1SOL     OW 4317   1.826   2.671   1.900  0.3499 -0.3426 -0.0993
    1SOL    HW2 4318   1.805   2.578   1.913  0.6001 -0.4648 -0.5368
    1SOL    HW3 4319   1.823   2.683   1.805 -0.4220  0.2755  0.0054
    1SOL    MW4 4320   1.823   2.660   1.889  0.2810 -0.2773 -0.1432
    1SOL     OW 4321   2.028   2.854   1.977  0.0647 -0.0328  0.0139
    1SOL    HW2 4322   2.030   2.836   2.071  0.1935  0.3638  0.0863
    1SOL    HW3 4323   1.975   2.783   1.941 -1.7584  0.9856  0.6430
    1SOL    MW4 4324   2.021   2.842   1.985 -0.1590  0.1535  0.1065
    1SOL     OW 4325   2.008   3.114   1.868 -0.0786  0.4207 -0.2691
    1SOL    HW2 4326   1.945   3.153   1.929  0.0450  0.3698 -0.1080
    1SOL    HW3 4327   2.022   3.026   1.902  0.2525  0.5106 -0.1765
    1SOL    MW4 4328   2.001   3.108   1.881 -0.0186  0.4261 -0.2356
    1SOL     OW 4329   1.814   3.241   2.028 -0.0838 -0.4382  0.3439
    1SOL    HW2 4330   1.793   3.224   2.120 -0.7309 -0.0677  0.2689
    1SOL    HW3 4331   1.740   3.205   1.980 -0.7949  1.2982  0.0964
    1SOL    MW4 4332   1.801   3.234   2.034 -0.2629 -0.1602  0.3014
    1SOL     OW 4333   1.796   3.485   1.876  0.4488 -0.0353  0.4964
    1SOL    HW2 4334   1.797   3.416   1.941 -0.3147  1.0613  1.7018
    1SOL    HW3 4335   1.717   3.536   1.896  0.0965  0.1996 -1.3975
    1SOL    MW4 4336   1.786   3.483   1.887  0.3016  0.1407  0.4055
    1SOL     OW 4337   2.031   3.594   1.933 -0.0608 -0.1755  0.6634
    1SOL    HW2 4338   2.003   3.685   1.931 -1.1637 -0.4987  0.9009
    1SOL    HW3 4339   1.953   3.544   1.911  1.0653 -0.9865 -1.6953
    1SOL    MW4 4340   2.017   3.599   1.930 -0.0577 -0.3252  0.3835
    1SOL     OW 4341   1.989   3.866   1.904  0.2694 -0.0450  0.2647
    1SOL    HW2 4342   2.061   3.915   1.942 -0.0058 -0.0630  0.8128
    1SOL    HW3 4343   1.991   3.888   1.811 -0.3362  1.6237  0.6376
    1SOL    MW4 4344   1.999   3.875   1.897  0.1533  0.1726  0.3862
    1SOL     OW 4345   1.750   4.001   2.003 -0.2525  0.1688 -0.1671
    1SOL    HW2 4346   1.761   4.087   1.962 -0.4519 -0.2938 -1.1878
    1SOL    HW3 4347   1.830   3.953   1.981  0.1279  0.2814  0.9032
    1SOL    MW4 4348   1.762   4.006   1.995 -0.2288  0.1225 -0.1607
    1SOL     OW 4349   1.806   4.263   1.912 -0.2146  0.4563  0.2612
    1SOL    HW2 4350   1.733   4.308   1.956 -0.1062  0.6196  0.2760
    1SOL    HW3 4351   1.783   4.265   1.819 -0.7851 -0.5127  0.3782
    1SOL    MW4 4352   1.794   4.269   1.906 -0.2756  0.3500  0.2786
    1SOL     OW 4353   2.028   4.364   2.018  0.1402  0.0829 -0.2771
    1SOL    HW2 4354   2.103   4.329   1.970  0.3319 -0.9985  0.7844
    1SOL    HW3 4355   1.952   4.324   1.977  0.2839 -0.5606  0.0689
    1SOL    MW4 4356   2.028   4.354   2.006  0.1843 -0.1445 -0.0916
    1SOL     OW 4357   2.486   0.009   1.899 -0.1350 -0.3488 -0.1788
    1SOL    HW2 4358   2.571   0.044   1.928  0.4082 -0.8607 -1.1285
    1SOL    HW3 4359   2.486  -0.081   1.930  0.0020 -0.5824 -0.8599
    1SOL    MW4 4360   2.497   0.002   1.907 -0.0453 -0.4472 -0.3940
    1SOL     OW 4361   2.245   0.108   1.982  0.0330 -0.1134 -0.1385
    1SOL    HW2 4362   2.236   0.082   2.074 -2.5530 -0.0827 -0.3503
    1SOL    HW3 4363   2.328   0.069   1.954  0.4349 -0.8419  1.9589
    1SOL    MW4 4364   2.255   0.100   1.991 -0.2553 -0.2055  0.1101
    1SOL     OW 4365   2.248   0.394   1.945  0.2070 -0.2265 -0.1011
    1SOL    HW2 4366   2.231   0.304   1.971 -0.1844  0.0980  0.7933
    1SOL    HW3 4367   2.171   0.442   1.973  0.8520  0.5621  0.3418
    1SOL    MW4 4368   2.236   0.389   1.952  0.2406 -0.0796  0.0755
    1SOL     OW 4369   2.478   0.522   2.023 -0.3606  0.0740  0.2996
    1SOL    HW2 4370   2.554   0.474   1.990  0.1712  0.6443  0.6905
    1SOL    HW3 4371   2.403   0.470   1.995  0.1365 -0.0469 -0.8346
    1SOL    MW4 4372   2.478   0.509   2.015 -0.2251  0.1333  0.2015
    1SOL     OW 4373   2.495   0.801   1.897 -0.1783 -0.1145 -0.1737
    1SOL    HW2 4374   2.479   0.717   1.942  0.2586  0.0367  0.2642
    1SOL    HW3 4375   2.486   0.780   1.804  0.5299 -0.7762 -0.0956
    1SOL    MW4 4376   2.492   0.787   1.891 -0.0272 -0.1819 -0.1056
    1SOL     OW 4377   2.254   0.917   1.977 -0.0368  0.6514  0.2234
    1SOL    HW2 4378   2.239   0.898   2.070  0.5558  1.1663  0.4290
    1SOL    HW3 4379   2.347   0.898   1.964 -0.4283 -0.8101 -0.6107
    1SOL    MW4 4380   2.265   0.912   1.987 -0.0105  0.5264  0.1405
    1SOL     OW 4381   2.251   1.159   1.864 -0.1469 -0.0790  0.2992
    1SOL    HW2 4382   2.333   1.201   1.891  0.1705 -1.0685  0.8908
    1SOL    HW3 4383   2.253   1.073   1.905 -2.7501  0.8707  2.6212
    1SOL    MW4 4384   2.262   1.154   1.873 -0.4487 -0.0844  0.6837
    1SOL     OW 4385   2.494   1.247   1.947 -0.2342  0.2842  0.0470
    1SOL    HW2 4386   2.492   1.251   2.043 -0.6193  1.5115 -0.0030
    1SOL    HW3 4387   2.509   1.337   1.920  2.2097 -0.4099 -1.0116
    1SOL    MW4 4388   2.496   1.259   1.956  0.0374  0.3546 -0.0992
    1SOL     OW 4389   2.518   1.521   1.888 -0.0121 -0.0927 -0.6239
    1SOL    HW2 4390   2.457   1.592   1.908 -0.9074 -0.7530 -0.9736
    1SOL    HW3 4391   2.517   1.516   1.792  1.8087  0.9377 -0.7203
    1SOL    MW4 4392   2.510   1.530   1.878  0.1099 -0.0440 -0.6827
    1SOL     OW 4393   2.299   1.700   1.959 -0.0975  0.1452  1.1720
    1SOL    HW2 4394   2.292   1.697   2.054 -0.4648  1.3416  1.1926
    1SOL    HW3 4395   2.224   1.649   1.928 -1.5251  1.9745  1.5197
    1SOL    MW4 4396   2.288   1.693   1.967 -0.3343  0.5444  1.2206
    1SOL     OW 4397   2.210   1.958   1.873 -0.0001 -0.0282  0.8023
    1SOL    HW2 4398   2.283   2.008   1.910  0.9908 -1.5233  0.9411
    1SOL    HW3 4399   2.233   1.866   1.891 -1.7788 -0.5286  0.5818
    1SOL    MW4 4400   2.223   1.952   1.880 -0.1040 -0.2915  0.7914
    1SOL     OW 4401   2.439   2.039   1.961 -0.1964  0.0327 -0.0403
    1SOL    HW2 4402   2.512   1.992   1.921 -1.1914 -1.0303 -0.6620
    1SOL    HW3 4403   2.456   2.131   1.942  1.0068 -0.1962 -0.1180
    1SOL    MW4 4404   2.451   2.045   1.953 -0.1690 -0.1376 -0.1324
    1SOL     OW 4405   2.487   2.323   1.872  0.1380  0.5883  0.0719
    1SOL    HW2 4406   2.567   2.354   1.914 -0.1273 -1.1015  1.8676
    1SOL    HW3 4407   2.419   2.384   1.901  0.6851  1.8968 -1.2879
    1SOL    MW4 4408   2.488   2.336   1.881  0.1752  0.5381  0.1295
    1SOL     OW 4409   2.265   2.441   1.965  0.0452  0.0003 -0.1106
    1SOL    HW2 4410   2.278   2.411   2.055  2.2016  0.5751 -0.2255
    1SOL    HW3 4411   2.258   2.536   1.971  2.5937  0.2530 -0.8006
    1SOL    MW4 4412   2.266   2.449   1.977  0.6659  0.1097 -0.2167
    1SOL     OW 4413   2.255   2.708   1.911 -0.2249 -0.1352 -0.3231
    1SOL    HW2 4414   2.177   2.762   1.927  0.1007  0.5422 -1.0058
    1SOL    HW3 4415   2.259   2.699   1.816  0.9427  0.4569 -0.3427
    1SOL    MW4 4416   2.245   2.714   1.901 -0.0279  0.0319 -0.4158
    1SOL     OW 4417   2.498   2.803   2.018  0.1289  0.1149  0.4652
    1SOL    HW2 4418   2.497   2.894   1.988 -0.1970 -0.0368  0.0124
    1SOL    HW3 4419   2.410   2.770   1.999 -0.1026  0.0346  1.6690
    1SOL    MW4 4420   2.487   2.811   2.011  0.0553  0.0844  0.5641
    1SOL     OW 4421   2.481   3.068   1.893 -0.5231 -0.8617 -0.7464
    1SOL    HW2 4422   2.402   3.114   1.923  0.0402  0.2394 -0.9406
    1SOL    HW3 4423   2.473   3.065   1.798 -0.3936 -0.8613 -0.7575
    1SOL    MW4 4424   2.470   3.074   1.885 -0.4315 -0.7160 -0.7735
    1SOL     OW 4425   2.247   3.223   1.944 -0.1923 -0.1098 -0.6080
    1SOL    HW2 4426   2.218   3.222   2.035 -1.0571 -1.3398 -0.8761
    1SOL    HW3 4427   2.170   3.193   1.894  0.6420 -0.5911 -1.6209
    1SOL    MW4 4428   2.233   3.219   1.949 -0.1962 -0.3357 -0.7771
    1SOL     OW 4429   2.268   3.486   1.834  0.0046  0.0152  0.2547
    1SOL    HW2 4430   2.273   3.396   1.865 -0.7222  0.2415  1.0753
    1SOL    HW3 4431   2.188   3.520   1.874  0.5256  1.1622  0.3344
    1SOL    MW4 4432   2.258   3.479   1.844 -0.0224  0.1965  0.3736
    1SOL     OW 4433   2.484   3.634   1.910 -0.5158  0.1706 -0.0135
    1SOL    HW2 4434   2.477   3.639   2.006  0.0210 -0.7494  0.0796
    1SOL    HW3 4435   2.407   3.585   1.883 -0.0199 -0.6554  0.0612
    1SOL    MW4 4436   2.473   3.628   1.919 -0.3796 -0.0596  0.0088
    1SOL     OW 4437   2.404   3.892   1.833 -0.2096 -0.0795 -0.4886
    1SOL    HW2 4438   2.359   3.933   1.906  0.5168  0.7665 -0.5127
    1SOL    HW3 4439   2.432   3.807   1.867  0.8696  0.6514  0.5052
    1SOL    MW4 4440   2.402   3.886   1.847  0.0288  0.1290 -0.3606
    1SOL     OW 4441   2.214   3.985   2.010 -0.4396 -0.3717 -0.0611
    1SOL    HW2 4442   2.208   3.980   2.106  2.7401  1.3974  0.2690
    1SOL    HW3 4443   2.230   4.078   1.992 -0.8818 -0.7165 -2.3421
    1SOL    MW4 4444   2.215   3.997   2.020 -0.0780 -0.1836 -0.3183
    1SOL     OW 4445   2.246   4.248   1.904  0.0444  0.5439 -0.3054
    1SOL    HW2 4446   2.317   4.307   1.929  0.3254 -0.0553  0.3042
    1SOL    HW3 4447   2.246   4.251   1.808  0.3989  1.1222 -0.2931
    1SOL    MW4 4448   2.255   4.256   1.895  0.1283  0.5407 -0.2233
    1SOL     OW 4449   2.449   4.411   1.966 -0.4329  0.2757 -0.3339
    1SOL    HW2 4450   2.459   4.391   2.059 -0.9467 -2.0235 -0.7401
    1SOL    HW3 4451   2.522   4.365   1.924 -0.1334  1.3965 -1.0677
    1SOL    MW4 4452   2.460   4.402   1.973 -0.4611  0.1206 -0.4843
    1SOL     OW 4453   2.945   0.005   1.845 -0.0403  0.1874 -0.0327
    1SOL    HW2 4454   3.016   0.050   1.892 -1.3461  0.4795  1.7016
    1SOL    HW3 4455   2.948  -0.085   1.876 -1.4804  0.5878  1.3274
    1SOL    MW4 4456   2.955  -0.001   1.855 -0.4025  0.2780  0.3756
    1SOL     OW 4457   2.733   0.133   1.989 -0.2050  0.1525 -0.0696
    1SOL    HW2 4458   2.752   0.120   2.081 -0.1850 -1.1307 -0.2562
    1SOL    HW3 4459   2.795   0.077   1.942 -0.8324  0.0853 -0.8365
    1SOL    MW4 4460   2.743   0.124   1.995 -0.2851 -0.0257 -0.1953
    1SOL     OW 4461   2.710   0.396   1.873 -0.3040  0.2591  0.2628
    1SOL    HW2 4462   2.787   0.440   1.909 -0.1153  0.1364  0.0055
    1SOL    HW3 4463   2.719   0.305   1.899 -0.1510  0.1637 -0.1274
    1SOL    MW4 4464   2.721   0.390   1.881 -0.2589  0.2303  0.1774
    1SOL     OW 4465   2.946   0.521   1.966  0.4801  0.1393 -0.1668
    1SOL    HW2 4466   3.022   0.477   1.931  0.4040  0.7433 -1.1099
    1SOL    HW3 4467   2.949   0.609   1.928 -0.7171  0.1504 -0.2603
    1SOL    MW4 4468   2.956   0.527   1.956  0.3123  0.2204 -0.3036
    1SOL     OW 4469   2.954   0.761   1.859  0.2012 -0.1802 -0.1633
    1SOL    HW2 4470   3.032   0.809   1.887  0.2357 -0.3188 -0.0210
    1SOL    HW3 4471   2.882   0.801   1.908  0.1473  0.1166 -0.4855
    1SOL    MW4 4472   2.955   0.773   1.869  0.1984 -0.1593 -0.1872
    1SOL     OW 4473   2.737   0.894   1.982  0.0811  0.0074 -0.1647
    1SOL    HW2 4474   2.754   0.978   1.942  0.3335 -0.3454 -0.7999
    1SOL    HW3 4475   2.651   0.867   1.949 -0.3529  0.3762  0.6515
    1SOL    MW4 4476   2.728   0.901   1.973  0.0572  0.0095 -0.1408
    1SOL     OW 4477   2.742   1.159   1.885 -0.1738 -0.1414 -0.1526
    1SOL    HW2 4478   2.651   1.178   1.906  0.1660  0.1467  1.0623
    1SOL    HW3 4479   2.743   1.153   1.789 -1.1880  1.2861 -0.2738
    1SOL    MW4 4480   2.730   1.161   1.875 -0.2625  0.0850 -0.0081
    1SOL     OW 4481   2.957   1.294   1.966 -0.5055  0.0375  0.0405
    1SOL    HW2 4482   2.960   1.379   1.923  2.2042 -1.1209 -2.2143
    1SOL    HW3 4483   2.885   1.248   1.923 -1.6493  0.9837  0.9160
    1SOL    MW4 4484   2.948   1.299   1.955 -0.2992  0.0094 -0.1415
    1SOL     OW 4485   2.911   1.539   1.831 -0.0214  0.1757  0.5192
    1SOL    HW2 4486   2.987   1.587   1.864 -0.3084  0.5771  0.6031
    1SOL    HW3 4487   2.913   1.554   1.737  0.4903 -0.5236  0.4146
    1SOL    MW4 4488   2.921   1.548   1.823  0.0083  0.1364  0.5164
    1SOL     OW 4489   2.726   1.649   1.998 -0.5631  0.3457 -0.1659
    1SOL    HW2 4490   2.788   1.609   1.937  0.2653  0.9580  0.2738
    1SOL    HW3 4491   2.644   1.602   1.983 -0.1127 -0.1543 -1.0728
    1SOL    MW4 4492   2.724   1.638   1.988 -0.3943  0.3606 -0.2275
    1SOL     OW 4493   2.693   1.922   1.871 -0.1205  0.1996  0.3318
    1SOL    HW2 4494   2.775   1.969   1.886  1.1701 -1.9712  0.1651
    1SOL    HW3 4495   2.701   1.842   1.923 -1.8718 -0.3396 -0.1972
    1SOL    MW4 4496   2.705   1.918   1.880 -0.1812 -0.1580  0.2402
    1SOL     OW 4497   2.907   2.045   2.003 -0.5094  0.5246  0.1754
    1SOL    HW2 4498   2.926   2.044   2.097  0.7330 -0.1579 -0.0621
    1SOL    HW3 4499   2.969   1.981   1.966 -1.1404  0.6242 -1.0741
    1SOL    MW4 4500   2.918   2.036   2.010 -0.4287  0.4475 -0.0207
    1SOL     OW 4501   2.914   2.328   1.915  0.1808  0.3859 -0.3474
    1SOL    HW2 4502   2.994   2.368   1.949 -0.0016  0.4920 -0.0344
    1SOL    HW3 4503   2.908   2.243   1.959 -0.1436  0.5942  0.0171
    1SOL    MW4 4504   2.924   2.322   1.925  0.1140  0.4272 -0.2581
    1SOL     OW 4505   2.686   2.436   2.012 -0.3399 -0.2993 -0.2672
    1SOL    HW2 4506   2.680   2.525   1.976 -1.8233 -1.2870 -2.5717
    1SOL    HW3 4507   2.767   2.401   1.975 -0.2314 -0.2134 -0.1083
    1SOL    MW4 4508   2.696   2.443   2.002 -0.5212 -0.4182 -0.5500
    1SOL     OW 4509   2.714   2.692   1.891 -0.0131 -0.2812 -0.3440
    1SOL    HW2 4510   2.632   2.738   1.906  0.7311  0.2460  2.2812
    1SOL    HW3 4511   2.718   2.680   1.796 -2.3364  1.0981 -0.6393
    1SOL    MW4 4512   2.704   2.696   1.881 -0.2213 -0.0298 -0.0366
    1SOL     OW 4513   2.919   2.841   1.972  0.5711 -0.5821  0.3006
    1SOL    HW2 4514   2.909   2.926   1.930 -1.2673 -0.3746  1.0951
    1SOL    HW3 4515   2.836   2.796   1.954  0.5194 -1.2207  2.0458
    1SOL    MW4 4516   2.907   2.846   1.964  0.3219 -0.6387  0.6356
    1SOL     OW 4517   2.893   3.111   1.888  0.1554 -0.0533 -0.2470
    1SOL    HW2 4518   2.981   3.134   1.917  0.5069 -1.2648 -0.3414
    1SOL    HW3 4519   2.835   3.159   1.948  0.8561  1.5120 -0.7849
    1SOL    MW4 4520   2.897   3.120   1.900  0.2942 -0.0067 -0.3304
    1SOL     OW 4521   2.681   3.242   2.012  0.0534 -0.3989  0.4682
    1SOL    HW2 4522   2.679   3.323   1.961  0.5663 -0.9199 -0.3921
    1SOL    HW3 4523   2.618   3.185   1.968  0.0560 -0.6439  0.7793
    1SOL    MW4 4524   2.672   3.245   2.000  0.1214 -0.5000  0.3958
    1SOL     OW 4525   2.694   3.479   1.864 -0.4718 -0.1080 -0.3439
    1SOL    HW2 4526   2.765   3.531   1.902 -1.3183 -0.5802  1.9205
    1SOL    HW3 4527   2.615   3.529   1.883 -0.9972 -0.7932 -0.7184
    1SOL    MW4 4528   2.693   3.492   1.871 -0.6528 -0.2606 -0.0944
    1SOL     OW 4529   2.908   3.612   1.970  0.1162  0.0440 -0.0629
    1SOL    HW2 4530   2.926   3.617   2.064  1.7902  2.8916 -0.4702
    1SOL    HW3 4531   2.986   3.570   1.933 -0.5729 -1.1390 -0.1817
    1SOL    MW4 4532   2.921   3.607   1.978  0.2460  0.2637 -0.1323
    1SOL     OW 4533   2.887   3.867   1.885  0.1174 -0.4560  0.1910
    1SOL    HW2 4534   2.903   3.776   1.908  1.3704 -0.1570  0.5430
    1SOL    HW3 4535   2.883   3.868   1.790  0.9002 -0.7647  0.1499
    1SOL    MW4 4536   2.889   3.855   1.876  0.3860 -0.4575  0.2320
    1SOL     OW 4537   2.649   4.002   1.955 -0.2580 -0.5953  0.2132
    1SOL    HW2 4538   2.733   3.965   1.929 -0.3132 -0.1309 -0.6190
    1SOL    HW3 4539   2.584   3.949   1.910 -0.3916 -0.5107  0.3055
    1SOL    MW4 4540   2.651   3.990   1.946 -0.2830 -0.5231  0.1158
    1SOL     OW 4541   2.665   4.280   1.869  0.6237  0.0137 -0.1843
    1SOL    HW2 4542   2.672   4.186   1.881  1.4115  0.1173  0.2082
    1SOL    HW3 4543   2.664   4.293   1.774  1.1722 -0.3432 -0.2361
    1SOL    MW4 4544   2.666   4.270   1.858  0.8001 -0.0196 -0.1394
    1SOL     OW 4545   2.870   4.430   1.967  0.1151  0.1662  0.0252
    1SOL    HW2 4546   2.881   4.416   2.061 -0.8540  0.8077  0.2476
    1SOL    HW3 4547   2.795   4.375   1.943 -0.5374  1.0777 -0.0768
    1SOL    MW4 4548   2.862   4.421   1.976 -0.0987  0.3710  0.0411
    1SOL     OW 4549   3.345   0.010   1.874  0.1761 -0.4006 -0.0686
    1SOL    HW2 4550   3.336  -0.077   1.912 -0.3642 -0.6714 -0.8049
    1SOL    HW3 4551   3.365  -0.005   1.781  2.5355  0.2478  0.3083
    1SOL    MW4 4552   3.346  -0.003   1.867  0.4158 -0.3510 -0.1160
    1SOL     OW 4553   3.131   0.148   1.959 -0.1723 -0.5300  0.8305
    1SOL    HW2 4554   3.134   0.132   2.054  3.4634  0.5673  0.9909
    1SOL    HW3 4555   3.209   0.104   1.925  0.1239  1.4829 -1.2231
    1SOL    MW4 4556   3.142   0.140   1.967  0.3464 -0.1197  0.5807
    1SOL     OW 4557   3.168   0.403   1.850  0.0399 -0.1162  0.4924
    1SOL    HW2 4558   3.165   0.311   1.878 -1.8035 -0.3660 -0.4369
    1SOL    HW3 4559   3.166   0.399   1.754  2.6017  0.8392  0.3686
    1SOL    MW4 4560   3.167   0.390   1.841  0.1347 -0.0232  0.3536
    1SOL     OW 4561   3.370   0.530   2.026  0.1340  0.2522 -0.2653
    1SOL    HW2 4562   3.447   0.483   1.991  0.5709  0.8801 -0.1455
    1SOL    HW3 4563   3.296   0.474   2.002  0.7570 -1.1718  0.9966
    1SOL    MW4 4564   3.370   0.516   2.018  0.2739  0.1472 -0.0830
    1SOL     OW 4565   3.347   0.763   1.865 -0.2254 -0.3686 -0.1924
    1SOL    HW2 4566   3.278   0.817   1.903  0.8137 -0.0830  1.3695
    1SOL    HW3 4567   3.339   0.679   1.910  1.8459  0.3845  1.7111
    1SOL    MW4 4568   3.337   0.759   1.876  0.1850 -0.2315  0.2648
    1SOL     OW 4569   3.152   0.922   1.975  0.0245  0.0348  0.0055
    1SOL    HW2 4570   3.136   0.921   2.069  0.1637 -0.9028  0.0257
    1SOL    HW3 4571   3.171   1.014   1.954  0.1728  0.2109  0.9167
    1SOL    MW4 4572   3.152   0.934   1.984  0.0622 -0.0657  0.1284
    1SOL     OW 4573   3.182   1.189   1.832  0.1392  0.1088 -0.3825
    1SOL    HW2 4574   3.258   1.229   1.873  0.6832 -0.5321 -0.7524
    1SOL    HW3 4575   3.107   1.228   1.876  0.6696  1.2205 -0.4552
    1SOL    MW4 4576   3.182   1.199   1.843  0.2809  0.1708 -0.4410
    1SOL     OW 4577   3.401   1.299   1.971 -0.5550 -0.1330  0.6132
    1SOL    HW2 4578   3.394   1.307   2.066 -0.5054  0.3085  0.5815
    1SOL    HW3 4579   3.407   1.389   1.940  1.2762 -0.3352  0.3391
    1SOL    MW4 4580   3.401   1.312   1.980 -0.3068 -0.1014  0.5729
    1SOL     OW 4581   3.399   1.536   1.839  0.6427 -0.1314 -0.1900
    1SOL    HW2 4582   3.471   1.595   1.864  0.8422 -0.0712 -0.8852
    1SOL    HW3 4583   3.321   1.575   1.878  1.0767 -0.5415  1.1158
    1SOL    MW4 4584   3.398   1.549   1.848  0.7265 -0.1776 -0.1096
    1SOL     OW 4585   3.150   1.665   1.917 -0.7170  0.0103 -0.0307
    1SOL    HW2 4586   3.164   1.655   2.011 -0.4990  0.2946 -0.0320
    1SOL    HW3 4587   3.126   1.757   1.906  0.7882  0.3629 -0.4364
    1SOL    MW4 4588   3.149   1.676   1.928 -0.4895  0.0944 -0.0845
    1SOL     OW 4589   3.106   1.933   1.848 -0.0544  0.0672  0.0778
    1SOL    HW2 4590   3.186   1.978   1.874  0.7840 -0.1048 -2.0664
    1SOL    HW3 4591   3.106   1.938   1.752 -2.4833 -0.1501  0.0357
    1SOL    MW4 4592   3.116   1.939   1.838 -0.2642  0.0157 -0.2108
    1SOL     OW 4593   3.375   2.013   1.974  0.3212  0.3132 -0.1576
    1SOL    HW2 4594   3.453   1.966   1.946 -0.4945 -0.4673 -1.1644
    1SOL    HW3 4595   3.378   2.096   1.926 -0.2302 -0.3391 -1.3324
    1SOL    MW4 4596   3.385   2.018   1.964  0.1407  0.1242 -0.4455
    1SOL     OW 4597   3.357   2.273   1.869 -0.0346  0.0343 -0.0419
    1SOL    HW2 4598   3.305   2.344   1.907  2.2536  1.4618  0.5905
    1SOL    HW3 4599   3.361   2.294   1.775  1.0236  1.0392  0.2124
    1SOL    MW4 4600   3.351   2.285   1.861  0.4070  0.3552  0.0752
    1SOL     OW 4601   3.155   2.450   1.978  0.5979  0.8447 -0.0980
    1SOL    HW2 4602   3.139   2.440   2.072 -0.3572 -1.0109 -0.4248
    1SOL    HW3 4603   3.138   2.542   1.959  1.2090  1.3185  1.6234
    1SOL    MW4 4604   3.151   2.461   1.988  0.5527  0.6626  0.0858
    1SOL     OW 4605   3.152   2.721   1.899  0.1295  0.1257 -0.7448
    1SOL    HW2 4606   3.071   2.755   1.939 -0.4003 -0.3594 -1.3971
    1SOL    HW3 4607   3.133   2.717   1.806  1.5306  1.6712 -1.1149
    1SOL    MW4 4608   3.139   2.725   1.892  0.2446  0.2654 -0.8796
    1SOL     OW 4609   3.406   2.855   2.010  0.1601  0.1702 -0.0608
    1SOL    HW2 4610   3.412   2.860   2.105  0.9855 -1.7479  0.0205
    1SOL    HW3 4611   3.315   2.829   1.993 -0.3223  1.6644  0.1158
    1SOL    MW4 4612   3.395   2.852   2.020  0.2055  0.1147 -0.0267
    1SOL     OW 4613   3.422   3.095   1.868 -0.0013  0.1079 -0.2801
    1SOL    HW2 4614   3.484   3.153   1.912 -2.1808  0.1409  2.9310
    1SOL    HW3 4615   3.424   3.014   1.919 -1.4530 -0.4434 -1.0506
    1SOL    MW4 4616   3.430   3.092   1.881 -0.4802  0.0393  0.0420
    1SOL     OW 4617   3.151   3.198   1.968  0.0811  0.0958 -0.2397
    1SOL    HW2 4618   3.159   3.291   1.947 -0.6381  0.0719 -0.6458
    1SOL    HW3 4619   3.237   3.161   1.948  0.2320  0.5883 -0.5046
    1SOL    MW4 4620   3.163   3.205   1.963  0.0062  0.1574 -0.3284
    1SOL     OW 4621   3.133   3.486   1.886 -0.4647  0.0857  0.4836
    1SOL    HW2 4622   3.194   3.548   1.927 -0.4880 -0.9827  2.2023
    1SOL    HW3 4623   3.158   3.484   1.794  1.3005  0.5978  0.9377
    1SOL    MW4 4624   3.144   3.494   1.880 -0.2348  0.0124  0.7703
    1SOL     OW 4625   3.326   3.630   2.003 -0.3487 -0.6108  0.3806
    1SOL    HW2 4626   3.408   3.593   1.970  0.3257  0.8539  0.3308
    1SOL    HW3 4627   3.327   3.721   1.972 -1.7183 -0.4082  0.8812
    1SOL    MW4 4628   3.337   3.637   1.994 -0.4404 -0.3910  0.4400
    1SOL     OW 4629   3.339   3.894   1.904  0.5774 -0.4619 -0.5854
    1SOL    HW2 4630   3.254   3.931   1.928  1.1059  0.7600 -0.5357
    1SOL    HW3 4631   3.339   3.892   1.809 -0.0572 -1.7901 -0.5599
    1SOL    MW4 4632   3.328   3.899   1.895  0.5634 -0.4756 -0.5755
    1SOL     OW 4633   3.097   4.024   1.989  0.1514 -0.4786  0.0773
    1SOL    HW2 4634   3.093   4.028   2.084 -0.7230 -1.4644  0.0821
    1SOL    HW3 4635   3.022   3.970   1.963 -0.5199  1.0488 -1.2566
    1SOL    MW4 4636   3.086   4.018   1.998 -0.0525 -0.4072 -0.0980
    1SOL     OW 4637   3.084   4.284   1.868  0.0409 -0.4369  1.0120
    1SOL    HW2 4638   3.100   4.199   1.910 -0.7106 -0.5585  1.0559
    1SOL    HW3 4639   2.997   4.310   1.899 -0.7525 -0.7729 -0.8539
    1SOL    MW4 4640   3.075   4.276   1.878 -0.1628 -0.4973  0.7716
    1SOL     OW 4641   3.318   4.422   1.961 -0.1720  0.4710  0.0177
    1SOL    HW2 4642   3.400   4.377   1.941 -0.7654  0.1780 -1.9375
    1SOL    HW3 4643   3.251   4.370   1.915 -1.2816  1.4065  0.5660
    1SOL    MW4 4644   3.320   4.409   1.952 -0.3967  0.5555 -0.1680
    1SOL     OW 4645   3.816   4.657   1.861 -0.0006  0.2423 -0.0906
    1SOL    HW2 4646   3.790   4.572   1.896 -0.1952  0.9202  1.4586
    1SOL    HW3 4647   3.752   4.718   1.898  0.8656  1.2354 -0.2183
    1SOL    MW4 4648   3.804   4.654   1.871  0.0882  0.4630  0.0970
    1SOL     OW 4649   3.594   0.135   1.957 -0.4751  0.6401  0.2680
    1SOL    HW2 4650   3.594   0.143   2.053 -2.2413 -0.1206  0.3383
    1SOL    HW3 4651   3.506   0.105   1.935  0.1346  0.1278 -1.5494
    1SOL    MW4 4652   3.582   0.132   1.967 -0.6278  0.4722  0.0376
    1SOL     OW 4653   3.600   0.384   1.870 -0.0372 -0.2374 -0.2564
    1SOL    HW2 4654   3.603   0.291   1.895 -2.3217 -0.2676 -0.0201
    1SOL    HW3 4655   3.576   0.384   1.778 -0.4389  0.1283 -0.1532
    1SOL    MW4 4656   3.597   0.372   1.861 -0.3915 -0.1931 -0.2115
    1SOL     OW 4657   3.843   0.493   1.977 -0.1270 -0.0309  0.1549
    1SOL    HW2 4658   3.852   0.580   1.938  0.4251  0.6916  1.8382
    1SOL    HW3 4659   3.764   0.457   1.937  0.3389  0.7350 -1.4851
    1SOL    MW4 4660   3.833   0.500   1.967  0.0072  0.1655  0.1607
    1SOL     OW 4661   3.842   0.759   1.906  0.0962 -0.2244 -0.0357
    1SOL    HW2 4662   3.764   0.802   1.940 -0.2208 -1.7954  1.3143
    1SOL    HW3 4663   3.832   0.762   1.811 -2.6891 -2.2584  0.1276
    1SOL    MW4 4664   3.830   0.765   1.898 -0.3133 -0.7001  0.1639
    1SOL     OW 4665   3.597   0.892   1.965 -0.0016 -0.1308  0.5502
    1SOL    HW2 4666   3.596   0.970   1.909  1.0013  0.1930  0.9880
    1SOL    HW3 4667   3.518   0.845   1.940 -0.3560  0.7745 -0.0759
    1SOL    MW4 4668   3.586   0.896   1.954  0.0842  0.0314  0.5254
    1SOL     OW 4669   3.613   1.153   1.854  0.1805 -0.0022  0.1376
    1SOL    HW2 4670   3.544   1.208   1.892  0.6465  0.1917  0.7016
    1SOL    HW3 4671   3.590   1.147   1.761 -0.0326  0.9108  0.1304
    1SOL    MW4 4672   3.601   1.159   1.846  0.2136  0.1440  0.2111
    1SOL     OW 4673   3.882   1.223   1.974 -0.0036  0.0255 -0.5776
    1SOL    HW2 4674   3.875   1.244   2.067 -0.0721  0.7402 -0.7453
    1SOL    HW3 4675   3.803   1.172   1.955 -0.1003  0.0736 -0.3025
    1SOL    MW4 4676   3.871   1.219   1.983 -0.0255  0.1261 -0.5634
    1SOL     OW 4677   3.857   1.498   1.811  0.0680  0.0447 -0.0213
    1SOL    HW2 4678   3.937   1.545   1.837  0.1978 -0.4155  0.4167
    1SOL    HW3 4679   3.859   1.417   1.862 -1.7718  1.0045  1.6123
    1SOL    MW4 4680   3.868   1.494   1.821 -0.1576  0.1105  0.2520
    1SOL     OW 4681   3.619   1.653   1.933  0.0122 -0.0380 -0.3176
    1SOL    HW2 4682   3.608   1.743   1.901 -0.6728  0.6817  1.8671
    1SOL    HW3 4683   3.709   1.630   1.908  1.3333  2.4374  1.8546
    1SOL    MW4 4684   3.630   1.662   1.925  0.0963  0.3835  0.2574
    1SOL     OW 4685   3.592   1.910   1.839  0.2859 -0.0838  0.0015
    1SOL    HW2 4686   3.670   1.957   1.870  0.2593 -0.5647  0.8076
    1SOL    HW3 4687   3.591   1.927   1.745  2.3441 -1.4669 -0.3110
    1SOL    MW4 4688   3.602   1.919   1.831  0.5541 -0.3297  0.0665
    1SOL     OW 4689   3.790   2.050   1.934  0.0090 -0.4610  0.0198
    1SOL    HW2 4690   3.876   2.013   1.912 -0.3310 -1.0747 -0.2741
    1SOL    HW3 4691   3.791   2.137   1.894 -0.1842 -1.1444 -1.4926
    1SOL    MW4 4692   3.802   2.057   1.926 -0.0613 -0.6318 -0.2184
    1SOL     OW 4693   3.807   2.310   1.856 -0.2575 -0.2286  0.0488
    1SOL    HW2 4694   3.878   2.363   1.892  0.9139  0.4321 -3.0864
    1SOL    HW3 4695   3.727   2.358   1.879  0.5574  0.9201  0.5291
    1SOL    MW4 4696   3.806   2.324   1.864  0.0045  0.0103 -0.3016
    1SOL     OW 4697   3.574   2.415   1.978 -0.0143  0.2139  0.1275
    1SOL    HW2 4698   3.567   2.499   1.933 -0.6148  0.8539  1.3972
    1SOL    HW3 4699   3.497   2.366   1.950  0.6805 -0.1979 -1.1425
    1SOL    MW4 4700   3.563   2.419   1.968 -0.0017  0.2439  0.1276
    1SOL     OW 4701   3.602   2.696   1.896  0.3538  0.4260 -0.0025
    1SOL    HW2 4702   3.676   2.710   1.955  0.3005 -0.0264  0.1685
    1SOL    HW3 4703   3.531   2.747   1.934  0.4232  0.4249  0.1267
    1SOL    MW4 4704   3.603   2.705   1.909  0.3557  0.3662  0.0371
    1SOL     OW 4705   3.825   2.826   2.021  0.2023  0.0222  0.4235
    1SOL    HW2 4706   3.793   2.849   2.108 -0.7035 -1.3613  0.4719
    1SOL    HW3 4707   3.833   2.910   1.975 -0.8082  0.6294  1.3397
    1SOL    MW4 4708   3.821   2.840   2.026 -0.0503 -0.0801  0.5507
    1SOL     OW 4709   3.840   3.094   1.913 -0.1431  0.0964 -0.0314
    1SOL    HW2 4710   3.763   3.131   1.955  0.3577 -0.5555  1.5039
    1SOL    HW3 4711   3.827   3.111   1.820 -1.9845  0.2734  0.2333
    1SOL    MW4 4712   3.828   3.101   1.906 -0.3202  0.0339  0.2062
    1SOL     OW 4713   3.608   3.239   2.002 -0.1220  0.1193  0.4404
    1SOL    HW2 4714   3.591   3.243   2.097  2.6385 -0.4447  0.9936
    1SOL    HW3 4715   3.598   3.330   1.973  2.3526  0.9200  1.9283
    1SOL    MW4 4716   3.604   3.252   2.011  0.5686  0.1502  0.7095
    1SOL     OW 4717   3.553   3.499   1.919  0.2620  0.3008  0.5062
    1SOL    HW2 4718   3.627   3.544   1.959  0.4221 -0.2311  0.8093
    1SOL    HW3 4719   3.568   3.506   1.825  1.4223 -1.0093  0.5834
    1SOL    MW4 4720   3.565   3.506   1.912  0.4363  0.0577  0.5563
    1SOL     OW 4721   3.789   3.617   2.007  0.0730  0.0983  0.2065
    1SOL    HW2 4722   3.867   3.565   1.989 -0.4193 -1.0979  1.3892
    1SOL    HW3 4723   3.811   3.705   1.977  1.6947 -0.3282  0.0813
    1SOL    MW4 4724   3.802   3.622   2.001  0.2217 -0.1159  0.3459
    1SOL     OW 4725   3.790   3.882   1.891  0.1106 -0.1021 -0.3670
    1SOL    HW2 4726   3.714   3.935   1.915 -0.9128 -2.3981  1.7062
    1SOL    HW3 4727   3.782   3.870   1.796 -1.7875  0.2221 -0.2669
    1SOL    MW4 4728   3.779   3.887   1.882 -0.2751 -0.3622 -0.0803
    1SOL     OW 4729   3.574   4.015   2.021 -0.0513 -0.0241 -0.4171
    1SOL    HW2 4730   3.557   4.030   2.114  0.1744 -0.0045 -0.3786
    1SOL    HW3 4731   3.498   3.966   1.990 -0.0632 -0.1505 -0.1905
    1SOL    MW4 4732   3.562   4.010   2.029 -0.0234 -0.0386 -0.3819
    1SOL     OW 4733   3.573   4.285   1.910 -0.1224  0.5390  0.1050
    1SOL    HW2 4734   3.646   4.328   1.953 -0.8203  1.0494  0.8025
    1SOL    HW3 4735   3.568   4.198   1.952 -0.1566  0.6524  0.3389
    1SOL    MW4 4736   3.582   4.279   1.922 -0.2191  0.6213  0.2279
    1SOL     OW 4737   3.797   4.416   1.981  0.3789 -0.7053  0.2072
    1SOL    HW2 4738   3.792   4.394   2.074  0.1024 -1.5590  0.0016
    1SOL    HW3 4739   3.883   4.383   1.953  0.8963  0.4774  0.3868
    1SOL    MW4 4740   3.808   4.409   1.989  0.4106 -0.6623  0.2038
    1SOL     OW 4741   4.274   0.002   1.876 -0.0927 -0.1614  0.0668
    1SOL    HW2 4742   4.201   0.029   1.932  0.1252  1.9612 -0.5920
    1SOL    HW3 4743   4.350   0.047   1.912  0.5801 -1.0416 -0.2372
    1SOL    MW4 4744   4.274   0.012   1.888  0.0248  0.0025 -0.0603
    1SOL     OW 4745   4.046   0.079   2.020  0.1533 -0.6403 -0.3785
    1SOL    HW2 4746   4.020   0.079   2.113 -0.5572  0.3692 -0.5798
    1SOL    HW3 4747   3.984   0.019   1.978 -0.2894 -0.1571 -0.4161
    1SOL    MW4 4748   4.034   0.071   2.027  0.0010 -0.4433 -0.4096
    1SOL     OW 4749   4.040   0.321   1.863  0.1667  0.3230  0.2895
    1SOL    HW2 4750   4.025   0.234   1.899 -0.7734  0.3975  0.0802
    1SOL    HW3 4751   3.975   0.377   1.906  1.5309  1.1629  1.2992
    1SOL    MW4 4752   4.030   0.317   1.873  0.2227  0.4436  0.3952
    1SOL     OW 4753   4.267   0.459   1.963 -0.0268  0.2826  0.0019
    1SOL    HW2 4754   4.274   0.474   2.058  0.1105 -0.1783  0.0678
    1SOL    HW3 4755   4.195   0.396   1.954  0.9205 -0.8104 -0.0792
    1SOL    MW4 4756   4.258   0.452   1.975  0.1159  0.0776 -0.0001
    1SOL     OW 4757   4.286   0.742   1.924 -0.5499 -0.4251 -0.0965
    1SOL    HW2 4758   4.269   0.650   1.947  1.4815 -0.6661  0.5199
    1SOL    HW3 4759   4.283   0.744   1.828 -2.5401 -0.7286 -0.0590
    1SOL    MW4 4760   4.283   0.730   1.914 -0.5445 -0.4969 -0.0103
    1SOL     OW 4761   4.069   0.885   2.003  0.0755 -0.2351 -0.1621
    1SOL    HW2 4762   4.146   0.832   1.982 -0.0892 -0.0494 -1.2504
    1SOL    HW3 4763   3.995   0.832   1.975 -0.1284  0.1750 -0.4094
    1SOL    MW4 4764   4.069   0.871   1.996  0.0267 -0.1565 -0.3383
    1SOL     OW 4765   4.097   1.101   1.852 -0.2512 -0.1373  0.1929
    1SOL    HW2 4766   4.097   1.020   1.902  0.4287  0.1319  0.6362
    1SOL    HW3 4767   4.030   1.155   1.893  0.4144  0.1423  0.9139
    1SOL    MW4 4768   4.088   1.097   1.864 -0.0739 -0.0648  0.3465
    1SOL     OW 4769   4.283   1.285   1.963  0.6878 -0.0432 -0.4003
    1SOL    HW2 4770   4.271   1.277   2.058  0.6073  0.5646 -0.3614
    1SOL    HW3 4771   4.232   1.211   1.927  0.7234 -0.2773  0.0265
    1SOL    MW4 4772   4.274   1.274   1.971  0.6824  0.0062 -0.3388
    1SOL     OW 4773   4.293   1.571   1.882  0.0984 -0.6362 -0.2146
    1SOL    HW2 4774   4.287   1.477   1.898 -0.2517 -0.5185  0.3502
    1SOL    HW3 4775   4.310   1.578   1.788 -0.5226 -1.2406 -0.3746
    1SOL    MW4 4776   4.294   1.559   1.872 -0.0296 -0.7005 -0.1612
    1SOL     OW 4777   4.038   1.660   1.929  0.8982 -0.0671 -0.2618
    1SOL    HW2 4778   4.047   1.663   2.025 -0.2920 -1.1000 -0.0997
    1SOL    HW3 4779   4.122   1.627   1.898  1.1915 -0.0151  0.4544
    1SOL    MW4 4780   4.050   1.656   1.938  0.7801 -0.1967 -0.1458
    1SOL     OW 4781   4.072   1.934   1.877  0.2231 -0.1114 -0.5699
    1SOL    HW2 4782   4.061   1.843   1.902 -1.1025  0.2318  0.1639
    1SOL    HW3 4783   4.065   1.935   1.782  0.1936 -0.7634 -0.5711
    1SOL    MW4 4784   4.070   1.922   1.868  0.0443 -0.1521 -0.4731
    1SOL     OW 4785   4.328   2.061   1.942  0.0721 -0.2094  0.6998
    1SOL    HW2 4786   4.329   2.064   2.038 -0.0835 -0.8743  0.7276
    1SOL    HW3 4787   4.248   2.013   1.921 -0.4483  0.8599  0.2004
    1SOL    MW4 4788   4.318   2.055   1.952 -0.0167 -0.1559  0.6375
    1SOL     OW 4789   4.244   2.311   1.861 -0.0252  0.4374  0.0733
    1SOL    HW2 4790   4.263   2.222   1.890 -1.0984  0.0467 -0.3607
    1SOL    HW3 4791   4.321   2.362   1.886  0.3224 -0.4776  0.9126
    1SOL    MW4 4792   4.256   2.306   1.868 -0.1206  0.2649  0.1266
    1SOL     OW 4793   4.025   2.451   1.955 -0.1556 -0.6141  0.4940
    1SOL    HW2 4794   4.026   2.449   2.050 -1.0801  1.5068  0.5775
    1SOL    HW3 4795   4.100   2.397   1.929  1.3098  0.4021  2.4666
    1SOL    MW4 4796   4.035   2.444   1.964 -0.0839 -0.2005  0.7652
    1SOL     OW 4797   4.035   2.723   1.853  0.4255  0.0314  0.1357
    1SOL    HW2 4798   4.045   2.636   1.892  1.8571  1.4941  3.2452
    1SOL    HW3 4799   3.963   2.763   1.901 -0.0873  0.6243 -1.1295
    1SOL    MW4 4800   4.027   2.717   1.865  0.5465  0.3026  0.3791
    1SOL     OW 4801   4.263   2.826   1.960  0.1870 -0.1554 -0.0938
    1SOL    HW2 4802   4.254   2.823   2.055 -1.2030  2.4821 -0.0856
    1SOL    HW3 4803   4.177   2.802   1.926  0.2256  0.4193 -0.6242
    1SOL    MW4 4804   4.250   2.822   1.968  0.0081  0.2682 -0.1627
    1SOL     OW 4805   4.291   3.086   1.870 -0.5932  0.4638  0.0766
    1SOL    HW2 4806   4.217   3.125   1.916 -0.9991 -1.6020  1.2341
    1SOL    HW3 4807   4.306   3.003   1.915  2.0879  0.6007 -0.4924
    1SOL    MW4 4808   4.283   3.081   1.882 -0.2933  0.2091  0.1541
    1SOL     OW 4809   4.074   3.221   2.003 -0.1575 -0.0241 -0.1260
    1SOL    HW2 4810   4.066   3.217   2.099 -0.2016  0.9013 -0.0903
    1SOL    HW3 4811   3.994   3.179   1.971 -1.1371  1.5312  0.2385
    1SOL    MW4 4812   4.063   3.215   2.012 -0.2928  0.3033 -0.0730
    1SOL     OW 4813   4.016   3.486   1.935  0.2345 -0.0964  0.0060
    1SOL    HW2 4814   4.093   3.522   1.978  1.7287 -1.0670 -1.8160
    1SOL    HW3 4815   4.023   3.391   1.947 -0.4501 -0.2281 -0.5491
    1SOL    MW4 4816   4.027   3.478   1.942  0.3409 -0.2418 -0.3076
    1SOL     OW 4817   4.252   3.605   2.020  0.2505  0.9287 -0.3417
    1SOL    HW2 4818   4.267   3.696   1.993  2.7356  0.4650 -0.6264
    1SOL    HW3 4819   4.312   3.554   1.965 -2.1651 -1.0599 -1.2362
    1SOL    MW4 4820   4.261   3.610   2.009  0.2594  0.6049 -0.4973
    1SOL     OW 4821   4.265   3.865   1.927 -0.7505  0.0068  0.4310
    1SOL    HW2 4822   4.327   3.926   1.968  0.2428 -1.1574  0.6997
    1SOL    HW3 4823   4.290   3.864   1.835 -1.7342  1.1481  0.1518
    1SOL    MW4 4824   4.277   3.873   1.920 -0.7496  0.0033  0.4295
    1SOL     OW 4825   4.022   4.013   1.977 -0.1089 -0.0042 -0.4293
    1SOL    HW2 4826   4.095   3.957   1.952 -0.9837 -0.4485 -2.0608
    1SOL    HW3 4827   3.945   3.970   1.939 -1.0834  1.0267  0.3523
    1SOL    MW4 4828   4.022   4.000   1.968 -0.3529  0.0730 -0.5414
    1SOL     OW 4829   4.021   4.278   1.881  0.6190  0.1680 -0.4856
    1SOL    HW2 4830   4.098   4.322   1.917 -0.0229  0.8146  0.1152
    1SOL    HW3 4831   4.021   4.192   1.923 -0.2510  0.9912  1.2959
    1SOL    MW4 4832   4.031   4.273   1.892  0.4201  0.3619 -0.1714
    1SOL     OW 4833   4.236   4.416   1.967 -0.2546 -0.3278  0.2328
    1SOL    HW2 4834   4.251   4.421   2.061  0.3368 -0.5336  0.1526
    1SOL    HW3 4835   4.258   4.504   1.935  0.5949 -0.5593  0.1483
    1SOL    MW4 4836   4.241   4.428   1.975 -0.0639 -0.3858  0.2111
    1SOL     OW 4837   0.178   0.009   2.380  0.5410  0.0245  0.2227
    1SOL    HW2 4838   0.210  -0.001   2.470  1.1450 -1.8296 -0.1836
    1SOL    HW3 4839   0.252   0.049   2.333  0.0702  1.3992  0.6386
    1SOL    MW4 4840   0.192   0.013   2.386  0.5586 -0.0386  0.2241
    1SOL     OW 4841   4.455   0.151   2.301  0.1005  0.4900 -0.1972
    1SOL    HW2 4842   4.533   0.109   2.337 -0.6926  0.4062  1.4432
    1SOL    HW3 4843   4.461   0.135   2.207  0.1060 -2.8167  0.3131
    1SOL    MW4 4844   4.466   0.143   2.293 -0.0033  0.0427  0.0865
    1SOL     OW 4845   4.486   0.398   2.403  0.6163 -0.1961  0.4189
    1SOL    HW2 4846   4.572   0.428   2.375  0.3720  0.0048 -0.1362
    1SOL    HW3 4847   4.474   0.314   2.360  0.3269  0.0149  0.0766
    1SOL    MW4 4848   4.496   0.391   2.393  0.5460 -0.1417  0.3006
    1SOL     OW 4849   0.205   0.513   2.261 -0.0171 -0.2974  0.3261
    1SOL    HW2 4850   0.287   0.464   2.271  0.6536  1.0719  1.6908
    1SOL    HW3 4851   0.194   0.522   2.166  1.1077 -0.9952  0.1196
    1SOL    MW4 4852   0.215   0.508   2.250  0.2198 -0.2089  0.4790
    1SOL     OW 4853   0.183   0.789   2.364 -0.0476 -0.2466  0.0329
    1SOL    HW2 4854   0.196   0.790   2.459 -0.7785  0.1872  0.1344
    1SOL    HW3 4855   0.195   0.697   2.339 -0.3884 -0.4547  0.6263
    1SOL    MW4 4856   0.186   0.777   2.373 -0.1890 -0.2168  0.1247
    1SOL     OW 4857   4.465   0.937   2.245 -0.1963  0.3882  0.3193
    1SOL    HW2 4858   4.530   0.873   2.274 -1.2713 -0.7187  0.3424
    1SOL    HW3 4859   4.454   0.920   2.152 -1.1503 -0.0841  0.5109
    1SOL    MW4 4860   4.472   0.926   2.237 -0.4635  0.1799  0.3479
    1SOL     OW 4861   0.030   1.170   2.377  0.6258  0.0474  0.0387
    1SOL    HW2 4862   0.039   1.158   2.471 -0.7755  0.5386  0.2570
    1SOL    HW3 4863   0.036   1.082   2.340  1.1333 -0.1479  0.5939
    1SOL    MW4 4864   0.032   1.157   2.384  0.5083  0.0865  0.1407
    1SOL     OW 4865   0.229   1.315   2.250 -0.1291  0.3996 -0.0793
    1SOL    HW2 4866   0.153   1.267   2.283  0.7834 -0.8845  0.2405
    1SOL    HW3 4867   0.222   1.309   2.155 -1.4011  1.8772 -0.0820
    1SOL    MW4 4868   0.218   1.308   2.242 -0.1765  0.4251 -0.0374
    1SOL     OW 4869   0.244   1.551   2.376 -0.2692 -0.0179  0.0237
    1SOL    HW2 4870   0.242   1.524   2.468 -1.1037 -0.0345  0.0059
    1SOL    HW3 4871   0.243   1.469   2.327  0.1208 -0.0079 -0.0009
    1SOL    MW4 4872   0.244   1.536   2.382 -0.3279 -0.0187  0.0179
    1SOL     OW 4873   0.031   1.679   2.264 -0.4571 -0.5501 -0.0472
    1SOL    HW2 4874   0.016   1.757   2.317  0.7292 -0.6421  0.4510
    1SOL    HW3 4875   0.102   1.632   2.309 -1.0944 -1.8698 -0.3840
    1SOL    MW4 4876   0.039   1.683   2.277 -0.3847 -0.7365 -0.0257
    1SOL     OW 4877   4.476   1.906   2.383  0.6266 -0.2411 -0.1911
    1SOL    HW2 4878   4.405   1.965   2.355  0.9597 -0.0355 -0.6065
    1SOL    HW3 4879   4.556   1.948   2.350  0.9498 -0.4238  0.3586
    1SOL    MW4 4880   4.477   1.920   2.375  0.7133 -0.2381 -0.1736
    1SOL     OW 4881   0.205   2.067   2.285 -0.3869  0.5311  0.2295
    1SOL    HW2 4882   0.274   2.005   2.309 -2.1257 -0.9882  1.4476
    1SOL    HW3 4883   0.214   2.078   2.190  0.2565 -1.2127  0.0768
    1SOL    MW4 4884   0.215   2.060   2.276 -0.5314  0.1006  0.3703
    1SOL     OW 4885   0.207   2.328   2.396  0.2026  0.3260  0.6180
    1SOL    HW2 4886   0.212   2.306   2.489  2.6407 -0.2256  0.3996
    1SOL    HW3 4887   0.223   2.245   2.351  3.0125  1.2971 -0.2511
    1SOL    MW4 4888   0.210   2.314   2.402  0.8950  0.3812  0.4745
    1SOL     OW 4889   0.002   2.461   2.252  0.1551  0.1845 -0.0046
    1SOL    HW2 4890  -0.003   2.539   2.308 -0.1622  0.2887 -0.1767
    1SOL    HW3 4891   0.083   2.418   2.279  0.1125  0.3452  0.3937
    1SOL    MW4 4892   0.012   2.466   2.263  0.1078  0.2196  0.0250
    1SOL     OW 4893   4.457   2.741   2.348 -0.2651  0.2129  0.2231
    1SOL    HW2 4894   4.456   2.735   2.443 -2.4721  0.9795  0.2573
    1SOL    HW3 4895   4.539   2.787   2.328  0.1639  0.1366  1.7323
    1SOL    MW4 4896   4.468   2.746   2.357 -0.4992  0.3037  0.4268
    1SOL     OW 4897   0.250   2.870   2.300 -0.0319  0.7366  0.6928
    1SOL    HW2 4898   0.333   2.826   2.320 -0.1633  0.5340  0.7944
    1SOL    HW3 4899   0.243   2.865   2.204 -0.1244  0.3937  0.7172
    1SOL    MW4 4900   0.260   2.864   2.290 -0.0614  0.6647  0.7095
    1SOL     OW 4901   0.199   3.121   2.387 -0.0240  0.3825 -0.0738
    1SOL    HW2 4902   0.124   3.152   2.337 -0.9579 -2.0599 -0.2656
    1SOL    HW3 4903   0.211   3.031   2.359  0.9076 -0.3041  2.3647
    1SOL    MW4 4904   0.190   3.113   2.377 -0.0243 -0.0305  0.2227
    1SOL     OW 4905   4.464   3.215   2.245  0.3422  0.2617  0.3513
    1SOL    HW2 4906   4.453   3.306   2.272  1.3031  0.6589 -0.5247
    1SOL    HW3 4907   4.456   3.218   2.149 -0.7162 -0.7437  0.4000
    1SOL    MW4 4908   4.462   3.227   2.236  0.3295  0.1814  0.2420
    1SOL     OW 4909   4.439   3.462   2.369  0.4676  0.1639  0.5679
    1SOL    HW2 4910   4.431   3.459   2.464 -0.0417 -1.9341  0.4875
    1SOL    HW3 4911   4.366   3.516   2.339 -0.1988 -0.3423  1.2805
    1SOL    MW4 4912   4.428   3.468   2.377  0.3128 -0.1798  0.6511
    1SOL     OW 4913   0.159   3.590   2.251  0.4244 -0.2321 -0.1712
    1SOL    HW2 4914   0.240   3.559   2.291  0.9491 -0.0909 -1.1137
    1SOL    HW3 4915   0.089   3.548   2.302  1.0614  0.4670  1.3106
    1SOL    MW4 4916   0.160   3.581   2.263  0.5777 -0.1211 -0.1004
    1SOL     OW 4917   0.190   3.862   2.373 -0.0538  0.3608 -0.3251
    1SOL    HW2 4918   0.118   3.915   2.338  0.6124  1.1300 -0.5243
    1SOL    HW3 4919   0.173   3.774   2.338 -0.9385  0.5152 -0.3064
    1SOL    MW4 4920   0.178   3.857   2.364 -0.0826  0.4826 -0.3486
    1SOL     OW 4921   4.465   4.015   2.283 -0.0061 -0.0436 -0.3339
    1SOL    HW2 4922   4.466   4.098   2.330  0.7210 -0.4515  0.3818
    1SOL    HW3 4923   4.479   4.039   2.191  1.0570  0.5644 -0.0230
    1SOL    MW4 4924   4.467   4.029   2.277  0.2301 -0.0172 -0.1986
    1SOL     OW 4925   4.453   4.303   2.381  0.5220 -0.0065  0.1853
    1SOL    HW2 4926   4.459   4.299   2.476  0.4557 -1.1897  0.1468
    1SOL    HW3 4927   4.534   4.347   2.354  0.4217  0.5643  0.7983
    1SOL    MW4 4928   4.465   4.308   2.390  0.4997 -0.0868  0.2611
    1SOL     OW 4929   0.185   4.440   2.258 -0.5393  0.2354 -0.6222
    1SOL    HW2 4930   0.252   4.381   2.293 -2.0485 -1.0279  0.1991
    1SOL    HW3 4931   0.195   4.521   2.309  0.3478  0.0535 -0.4992
    1SOL    MW4 4932   0.195   4.443   2.270 -0.6214  0.0453 -0.4976
    1SOL     OW 4933   0.639   4.651   2.349 -0.2187  0.1288  0.0155
    1SOL    HW2 4934   0.660   4.645   2.442 -0.1045  1.9473  0.1140
    1SOL    HW3 4935   0.717   4.689   2.309  0.9041 -3.3517 -1.3169
    1SOL    MW4 4936   0.652   4.655   2.356 -0.0555 -0.0906 -0.1473
    1SOL     OW 4937   0.401   0.116   2.261  0.1339 -0.0439  0.4302
    1SOL    HW2 4938   0.487   0.075   2.274 -0.2564 -0.6430  1.1903
    1SOL    HW3 4939   0.391   0.121   2.166  0.5180 -1.0297  0.3262
    1SOL    MW4 4940   0.411   0.111   2.251  0.1331 -0.2530  0.5169
    1SOL     OW 4941   0.410   0.362   2.375 -0.2014 -0.1305 -0.0725
    1SOL    HW2 4942   0.409   0.365   2.470  1.3713  1.0293 -0.0740
    1SOL    HW3 4943   0.405   0.268   2.354  1.0606 -0.4959  1.1822
    1SOL    MW4 4944   0.409   0.350   2.384  0.1726 -0.0257  0.0927
    1SOL     OW 4945   0.663   0.485   2.261 -0.0735  0.2382  0.9320
    1SOL    HW2 4946   0.649   0.578   2.284 -0.6659  0.1410  0.9846
    1SOL    HW3 4947   0.588   0.440   2.299  1.3444 -0.5830  2.8353
    1SOL    MW4 4948   0.651   0.492   2.269  0.0353  0.1171  1.1899
    1SOL     OW 4949   0.623   0.760   2.346  0.2345 -0.0030  0.1253
    1SOL    HW2 4950   0.629   0.754   2.442 -0.8459 -0.7633  0.1452
    1SOL    HW3 4951   0.545   0.812   2.330  0.5457  0.3185 -0.3437
    1SOL    MW4 4952   0.614   0.766   2.357  0.1330 -0.0610  0.0658
    1SOL     OW 4953   0.407   0.895   2.264 -0.0074  0.0934 -0.2646
    1SOL    HW2 4954   0.322   0.863   2.295  1.2485 -3.3768 -0.2145
    1SOL    HW3 4955   0.397   0.905   2.170 -0.4664 -0.3135 -0.2563
    1SOL    MW4 4956   0.395   0.893   2.256  0.0977 -0.4181 -0.2568
    1SOL     OW 4957   0.447   1.152   2.383  0.2190  0.0001 -0.2680
    1SOL    HW2 4958   0.445   1.059   2.360  0.9947  0.4467 -2.2039
    1SOL    HW3 4959   0.372   1.190   2.337  0.8647  0.6314 -0.7988
    1SOL    MW4 4960   0.437   1.145   2.374  0.4065  0.1425 -0.5937
    1SOL     OW 4961   0.686   1.309   2.256 -0.5174  0.1961 -0.2645
    1SOL    HW2 4962   0.699   1.394   2.298  0.2747 -0.4179  0.7471
    1SOL    HW3 4963   0.604   1.276   2.294 -0.5187  0.2497 -0.2206
    1SOL    MW4 4964   0.677   1.316   2.267 -0.4131  0.1221 -0.1254
    1SOL     OW 4965   0.702   1.578   2.369  0.0649  0.3517 -0.2798
    1SOL    HW2 4966   0.716   1.562   2.463 -0.5799  1.7486  0.0618
    1SOL    HW3 4967   0.788   1.606   2.337 -0.1475  1.6916  0.2897
    1SOL    MW4 4968   0.715   1.579   2.377 -0.0482  0.7128 -0.1595
    1SOL     OW 4969   0.464   1.650   2.246  0.0995 -0.4467  0.0204
    1SOL    HW2 4970   0.536   1.619   2.301 -0.2863 -0.8550  0.3064
    1SOL    HW3 4971   0.385   1.620   2.292 -0.2583  0.2671 -0.1255
    1SOL    MW4 4972   0.463   1.642   2.260  0.0014 -0.4064  0.0391
    1SOL     OW 4973   0.427   1.916   2.353  0.2463  0.3161 -0.0823
    1SOL    HW2 4974   0.514   1.950   2.331  0.9844 -1.4115  0.0861
    1SOL    HW3 4975   0.428   1.825   2.322 -1.6067  0.3777 -0.3456
    1SOL    MW4 4976   0.439   1.908   2.346  0.0992  0.0963 -0.0949
    1SOL     OW 4977   0.646   2.025   2.233  0.4448 -0.3859 -0.4444
    1SOL    HW2 4978   0.732   1.984   2.246  0.3428 -0.2916  0.5892
    1SOL    HW3 4979   0.658   2.114   2.264 -0.3057 -0.6724  0.6835
    1SOL    MW4 4980   0.659   2.031   2.239  0.3323 -0.4113 -0.1590
    1SOL     OW 4981   0.662   2.291   2.322  0.3287 -0.3846  0.5280
    1SOL    HW2 4982   0.654   2.291   2.418 -1.3529  2.1323  0.4458
    1SOL    HW3 4983   0.742   2.341   2.306  0.8135 -1.1287  0.6370
    1SOL    MW4 4984   0.671   2.298   2.333  0.1708 -0.1507  0.5314
    1SOL     OW 4985   0.438   2.445   2.249 -0.2912 -0.0214  0.2155
    1SOL    HW2 4986   0.522   2.411   2.279 -0.4860  0.5658  1.4795
    1SOL    HW3 4987   0.377   2.424   2.320 -0.9021  0.8366 -0.0441
    1SOL    MW4 4988   0.441   2.438   2.262 -0.3975  0.1693  0.3479
    1SOL     OW 4989   0.474   2.716   2.375 -0.1616 -0.2929 -0.3437
    1SOL    HW2 4990   0.460   2.695   2.467 -1.8018  2.4835  0.1226
    1SOL    HW3 4991   0.484   2.631   2.332 -0.4199 -1.6826  2.2335
    1SOL    MW4 4992   0.473   2.702   2.381 -0.4120 -0.1099  0.0579
    1SOL     OW 4993   0.686   2.849   2.229 -0.3053 -0.1773  0.1509
    1SOL    HW2 4994   0.762   2.809   2.271 -0.2607 -0.4159 -0.1569
    1SOL    HW3 4995   0.611   2.801   2.263 -0.1565 -1.4071 -1.2315
    1SOL    MW4 4996   0.686   2.837   2.239 -0.2798 -0.3712 -0.0722
    1SOL     OW 4997   0.638   3.074   2.397  0.0195  0.1795  0.1388
    1SOL    HW2 4998   0.566   3.123   2.359  1.3043  1.0811 -1.1891
    1SOL    HW3 4999   0.644   2.995   2.343  0.5527  0.5051 -0.2846
    1SOL    MW4 5000   0.630   3.070   2.385  0.2593  0.3414 -0.0923
    1SOL     OW 5001   0.427   3.250   2.301  0.3099 -0.2008 -0.1437
    1SOL    HW2 5002   0.341   3.225   2.334  0.4711  1.2414  1.3956
    1SOL    HW3 5003   0.417   3.250   2.206 -1.2819 -0.4093  0.0136
    1SOL    MW4 5004   0.415   3.246   2.293  0.1211 -0.0381  0.0801
    1SOL     OW 5005   0.421   3.511   2.395 -0.2270 -0.3946  0.0186
    1SOL    HW2 5006   0.510   3.539   2.372 -0.7067  1.5491  0.4534
    1SOL    HW3 5007   0.413   3.424   2.356  0.9202  0.5222 -2.4108
    1SOL    MW4 5008   0.432   3.503   2.387 -0.1389 -0.0169 -0.2449
    1SOL     OW 5009   0.671   3.579   2.298 -0.2384  0.3229 -0.1149
    1SOL    HW2 5010   0.680   3.664   2.341  2.2314  0.3288 -0.5636
    1SOL    HW3 5011   0.664   3.600   2.205  2.9060  0.0015 -0.4922
    1SOL    MW4 5012   0.671   3.593   2.291  0.5023  0.2811 -0.2236
    1SOL     OW 5013   0.651   3.853   2.394 -0.1855 -0.2519 -0.3078
    1SOL    HW2 5014   0.666   3.860   2.488  0.5786 -0.4043 -0.4143
    1SOL    HW3 5015   0.568   3.898   2.379  0.0064  0.3202  0.3476
    1SOL    MW4 5016   0.642   3.859   2.404 -0.0594 -0.1969 -0.2353
    1SOL     OW 5017   0.425   3.985   2.307 -0.2609 -0.5216  0.4884
    1SOL    HW2 5018   0.342   3.942   2.329 -0.9860  0.5375 -0.1180
    1SOL    HW3 5019   0.431   3.978   2.212  0.2544 -0.4262  0.5122
    1SOL    MW4 5020   0.415   3.979   2.297 -0.2886 -0.3693  0.4115
    1SOL     OW 5021   0.425   4.269   2.364  0.2619 -0.1897  0.1323
    1SOL    HW2 5022   0.507   4.296   2.323  0.2372  0.0066  0.2113
    1SOL    HW3 5023   0.424   4.174   2.357 -0.8933 -0.0155 -2.5061
    1SOL    MW4 5024   0.435   4.260   2.358  0.1062 -0.1411 -0.2053
    1SOL     OW 5025   0.655   4.383   2.261  0.5175 -0.2114 -0.2532
    1SOL    HW2 5026   0.672   4.473   2.291 -3.0555  0.0394  1.2009
    1SOL    HW3 5027   0.659   4.389   2.165 -0.4801  1.6908 -0.2043
    1SOL    MW4 5028   0.658   4.396   2.252 -0.0855  0.0725 -0.0548
    1SOL     OW 5029   1.111   4.632   2.376  0.0110 -0.2356 -0.1076
    1SOL    HW2 5030   1.122   4.650   2.469  0.5076 -1.5594  0.1098
    1SOL    HW3 5031   1.024   4.667   2.354 -0.8929 -1.5048  1.2900
    1SOL    MW4 5032   1.101   4.639   2.385 -0.0427 -0.5774  0.1051
    1SOL     OW 5033   0.882   0.090   2.273 -0.2612  0.2319  0.3360
    1SOL    HW2 5034   0.896   0.181   2.297  0.0925  0.3116 -0.1722
    1SOL    HW3 5035   0.890   0.088   2.178 -0.5701 -0.2760  0.3170
    1SOL    MW4 5036   0.884   0.101   2.264 -0.2553  0.1754  0.2666
    1SOL     OW 5037   0.886   0.345   2.357  0.2848 -0.2625  0.0212
    1SOL    HW2 5038   0.956   0.405   2.333 -0.1080 -0.2097 -1.0259
    1SOL    HW3 5039   0.807   0.386   2.321  0.0446 -1.5136 -0.8822
    1SOL    MW4 5040   0.884   0.359   2.349  0.2013 -0.4206 -0.2360
    1SOL     OW 5041   1.107   0.526   2.296 -0.0358  0.4429  0.3147
    1SOL    HW2 5042   1.165   0.468   2.346 -1.6168 -1.6917 -0.2323
    1SOL    HW3 5043   1.128   0.507   2.205 -1.3207 -0.0943  0.1204
    1SOL    MW4 5044   1.118   0.516   2.291 -0.4139  0.0904  0.2167
    1SOL     OW 5045   1.112   0.786   2.392 -0.0237 -0.1465  0.5602
    1SOL    HW2 5046   1.031   0.828   2.365  1.1744  1.8621  0.0681
    1SOL    HW3 5047   1.109   0.699   2.351 -1.0734  0.5874 -0.9359
    1SOL    MW4 5048   1.101   0.780   2.383 -0.0043  0.2154  0.2978
    1SOL     OW 5049   0.880   0.888   2.281  0.1170 -0.1102 -0.0113
    1SOL    HW2 5050   0.871   0.979   2.309  1.0501 -0.1155  0.3070
    1SOL    HW3 5051   0.793   0.850   2.294  0.0338  0.4144  0.9973
    1SOL    MW4 5052   0.867   0.895   2.286  0.2291 -0.0417  0.1640
    1SOL     OW 5053   0.861   1.144   2.364  0.1902 -0.1123  0.0469
    1SOL    HW2 5054   0.941   1.186   2.333 -0.0485  0.1960 -0.1528
    1SOL    HW3 5055   0.791   1.204   2.340  0.0879  0.6456  2.0731
    1SOL    MW4 5056   0.863   1.158   2.357  0.1452  0.0284  0.2878
    1SOL     OW 5057   1.102   1.267   2.288  0.1663  0.1283  0.2151
    1SOL    HW2 5058   1.190   1.240   2.316 -0.1111  0.5080  1.5063
    1SOL    HW3 5059   1.110   1.283   2.194  1.1757 -1.0593  0.0907
    1SOL    MW4 5060   1.115   1.266   2.280  0.2630  0.0218  0.3693
    1SOL     OW 5061   1.151   1.519   2.407  0.1232 -0.0006 -0.0020
    1SOL    HW2 5062   1.077   1.567   2.368  0.0831  0.6045  0.8067
    1SOL    HW3 5063   1.144   1.431   2.371 -0.5711  0.2517 -0.4963
    1SOL    MW4 5064   1.140   1.514   2.397  0.0263  0.1125  0.0396
    1SOL     OW 5065   0.962   1.652   2.273  0.0113 -0.2304 -0.1282
    1SOL    HW2 5066   0.957   1.743   2.301  2.8407  0.7709 -2.5758
    1SOL    HW3 5067   0.962   1.657   2.177  0.4522 -2.7853 -0.2918
    1SOL    MW4 5068   0.961   1.665   2.264  0.4428 -0.4355 -0.4725
    1SOL     OW 5069   0.890   1.904   2.333  0.4837  0.2294 -0.0661
    1SOL    HW2 5070   0.890   1.898   2.428  1.3285 -2.1530 -0.1757
    1SOL    HW3 5071   0.966   1.959   2.312  1.6020 -1.0253  0.5844
    1SOL    MW4 5072   0.900   1.911   2.343  0.7427 -0.2503  0.0055
    1SOL     OW 5073   1.114   2.046   2.255  0.2466  0.1390  0.1183
    1SOL    HW2 5074   1.198   2.008   2.280  0.1728 -0.6715 -0.8366
    1SOL    HW3 5075   1.113   2.043   2.159 -1.0403 -0.2464  0.1230
    1SOL    MW4 5076   1.125   2.041   2.245  0.0671 -0.0188 -0.0069
    1SOL     OW 5077   1.109   2.322   2.344  0.1940 -0.0391  0.3634
    1SOL    HW2 5078   1.189   2.367   2.317 -1.4087  1.5797 -1.9668
    1SOL    HW3 5079   1.115   2.235   2.304  0.7047  0.1681 -0.0110
    1SOL    MW4 5080   1.120   2.317   2.335  0.0502  0.2017  0.0064
    1SOL     OW 5081   0.880   2.432   2.243  0.2463 -0.1266 -0.3394
    1SOL    HW2 5082   0.958   2.397   2.286  0.7907  1.0978 -0.2790
    1SOL    HW3 5083   0.905   2.437   2.150 -0.6984 -2.1726 -0.7178
    1SOL    MW4 5084   0.894   2.428   2.236  0.1935 -0.2348 -0.3812
    1SOL     OW 5085   0.912   2.704   2.321 -0.1083 -0.5454 -0.2468
    1SOL    HW2 5086   0.912   2.692   2.416  0.3776 -0.8029 -0.2766
    1SOL    HW3 5087   0.892   2.618   2.286  0.7174 -0.6884 -0.3947
    1SOL    MW4 5088   0.910   2.691   2.329  0.0648 -0.5982 -0.2704
    1SOL     OW 5089   1.156   2.832   2.248  0.2477  0.3241 -0.3132
    1SOL    HW2 5090   1.240   2.801   2.283 -0.4420 -1.2998 -0.0912
    1SOL    HW3 5091   1.091   2.770   2.281 -0.7746  0.3151 -2.2622
    1SOL    MW4 5092   1.159   2.820   2.257  0.0219  0.1087 -0.5410
    1SOL     OW 5093   1.106   3.089   2.355  0.1290 -0.7082 -0.4402
    1SOL    HW2 5094   1.026   3.118   2.313  0.3583 -1.1199 -1.1768
    1SOL    HW3 5095   1.119   2.999   2.323  0.6004 -0.8295  0.0777
    1SOL    MW4 5096   1.097   3.081   2.345  0.2214 -0.7784 -0.4692
    1SOL     OW 5097   0.851   3.200   2.279 -0.2189 -0.0507  0.1976
    1SOL    HW2 5098   0.867   3.287   2.317 -0.6979  0.4434 -0.7159
    1SOL    HW3 5099   0.774   3.168   2.325 -0.5009  0.3386  0.0044
    1SOL    MW4 5100   0.843   3.207   2.290 -0.3194  0.0660  0.0517
    1SOL     OW 5101   0.909   3.452   2.379 -0.3818  0.6234  0.8142
    1SOL    HW2 5102   0.913   3.467   2.473 -2.1800  1.9392  0.7157
    1SOL    HW3 5103   0.841   3.513   2.348  0.0629  0.0890 -1.2954
    1SOL    MW4 5104   0.901   3.462   2.387 -0.5603  0.7262  0.5233
    1SOL     OW 5105   1.131   3.614   2.278  0.1431  0.1914  0.0318
    1SOL    HW2 5106   1.220   3.582   2.296  0.0518  0.7990  1.6807
    1SOL    HW3 5107   1.073   3.546   2.311 -0.0266  1.1834  1.8297
    1SOL    MW4 5108   1.135   3.601   2.285  0.1087  0.4025  0.4869
    1SOL     OW 5109   1.116   3.878   2.344  0.4986  0.2782  0.2771
    1SOL    HW2 5110   1.190   3.922   2.302 -0.6938  1.6321 -0.4120
    1SOL    HW3 5111   1.127   3.786   2.319  1.8151  0.4937 -0.0072
    1SOL    MW4 5112   1.127   3.871   2.335  0.5150  0.4854  0.1488
    1SOL     OW 5113   0.872   3.995   2.272 -0.1801  0.2913 -0.1325
    1SOL    HW2 5114   0.951   3.941   2.281 -0.1889  0.2916 -0.0553
    1SOL    HW3 5115   0.801   3.938   2.300 -0.2570  0.1504 -0.6118
    1SOL    MW4 5116   0.873   3.980   2.277 -0.1914  0.2728 -0.1853
    1SOL     OW 5117   0.861   4.244   2.400 -0.3295 -0.1418 -0.0202
    1SOL    HW2 5118   0.855   4.156   2.363 -2.7924 -0.3155  0.6682
    1SOL    HW3 5119   0.795   4.294   2.351  0.8190  1.2332 -0.1796
    1SOL    MW4 5120   0.851   4.239   2.389 -0.5030  0.0167  0.0496
    1SOL     OW 5121   1.099   4.365   2.303 -0.0356  0.4979 -0.5170
    1SOL    HW2 5122   1.025   4.320   2.341  0.6991 -0.5946 -0.3721
    1SOL    HW3 5123   1.089   4.457   2.330 -1.9335  0.5752 -1.4427
    1SOL    MW4 5124   1.088   4.371   2.311 -0.1892  0.3638 -0.6201
    1SOL     OW 5125   1.596   4.640   2.386 -0.0938 -0.1790  0.6013
    1SOL    HW2 5126   1.664   4.692   2.342  0.4694 -1.9932 -0.7202
    1SOL    HW3 5127   1.514   4.676   2.353  0.2973 -0.4025 -0.6473
    1SOL    MW4 5128   1.594   4.652   2.376  0.0321 -0.4478  0.2623
    1SOL     OW 5129   1.342   0.090   2.280  0.3864 -0.0652  0.5521
    1SOL    HW2 5130   1.322   0.179   2.307 -0.5885  0.4157 -1.6903
    1SOL    HW3 5131   1.261   0.041   2.298  0.9921 -0.5726  1.9890
    1SOL    MW4 5132   1.329   0.095   2.286  0.3376 -0.0687  0.4461
    1SOL     OW 5133   1.298   0.343   2.383  0.5348  0.0968  0.4978
    1SOL    HW2 5134   1.308   0.320   2.476  1.1131 -1.7014  0.0054
    1SOL    HW3 5135   1.383   0.379   2.358  1.0231 -1.2574  0.1698
    1SOL    MW4 5136   1.311   0.345   2.392  0.6757 -0.3191  0.3896
    1SOL     OW 5137   1.537   0.457   2.309 -0.3488 -0.2100 -0.0793
    1SOL    HW2 5138   1.614   0.418   2.350  0.2727  0.7187 -0.3496
    1SOL    HW3 5139   1.563   0.472   2.218 -0.7738  0.2885 -0.1201
    1SOL    MW4 5140   1.551   0.454   2.303 -0.3227 -0.0216 -0.1202
    1SOL     OW 5141   1.537   0.738   2.364 -0.1233 -0.2810 -0.3919
    1SOL    HW2 5142   1.624   0.753   2.328 -0.0887 -0.3281 -0.3280
    1SOL    HW3 5143   1.522   0.644   2.352 -0.1421 -0.2832 -0.3509
    1SOL    MW4 5144   1.547   0.727   2.357 -0.1214 -0.2875 -0.3781
    1SOL     OW 5145   1.322   0.914   2.264 -0.3932  0.0008  0.2328
    1SOL    HW2 5146   1.389   0.852   2.292  0.3632  0.9405  0.5077
    1SOL    HW3 5147   1.243   0.884   2.309 -0.0943 -0.8943  0.1850
    1SOL    MW4 5148   1.320   0.902   2.274 -0.2540  0.0067  0.2627
    1SOL     OW 5149   1.355   1.184   2.345  0.0319  0.0321  0.3115
    1SOL    HW2 5150   1.357   1.170   2.440 -3.5733 -2.4888  0.1446
    1SOL    HW3 5151   1.357   1.095   2.309  0.7906  0.9596 -1.9763
    1SOL    MW4 5152   1.356   1.170   2.353 -0.3437 -0.1780 -0.0124
    1SOL     OW 5153   1.613   1.259   2.274 -0.0145 -0.0570 -0.7207
    1SOL    HW2 5154   1.533   1.212   2.298  0.3916  0.1537  1.1079
    1SOL    HW3 5155   1.605   1.273   2.180 -1.4080 -1.3983 -0.8271
    1SOL    MW4 5156   1.601   1.255   2.265 -0.1450 -0.2062 -0.4935
    1SOL     OW 5157   1.606   1.510   2.365 -0.4077 -0.5653  0.5698
    1SOL    HW2 5158   1.677   1.554   2.317  1.2215 -1.6044  1.9461
    1SOL    HW3 5159   1.603   1.422   2.328 -1.5225 -0.2933 -0.0090
    1SOL    MW4 5160   1.615   1.504   2.354 -0.3399 -0.6664  0.6752
    1SOL     OW 5161   1.365   1.648   2.291 -0.1677  0.0576  0.1601
    1SOL    HW2 5162   1.447   1.608   2.320  0.5209  0.7165 -0.8597
    1SOL    HW3 5163   1.297   1.590   2.326  0.6900 -0.0983  1.6559
    1SOL    MW4 5164   1.367   1.635   2.300  0.0364  0.1239  0.2229
    1SOL     OW 5165   1.328   1.909   2.351 -0.0208 -0.0198  0.0547
    1SOL    HW2 5166   1.407   1.956   2.323 -0.7483  0.8591 -0.5599
    1SOL    HW3 5167   1.339   1.821   2.316  0.7728  0.0517  0.1223
    1SOL    MW4 5168   1.340   1.903   2.343 -0.0119  0.1055 -0.0176
    1SOL     OW 5169   1.560   2.052   2.280  0.7150 -0.2385 -1.0340
    1SOL    HW2 5170   1.624   1.987   2.310 -1.7222 -2.2580 -0.0904
    1SOL    HW3 5171   1.551   2.035   2.186  1.4274 -0.0228 -1.1520
    1SOL    MW4 5172   1.568   2.041   2.271  0.4876 -0.4764 -0.9253
    1SOL     OW 5173   1.559   2.332   2.334 -0.5015  0.5774 -0.3833
    1SOL    HW2 5174   1.548   2.337   2.429 -1.4603  1.2451 -0.5186
    1SOL    HW3 5175   1.582   2.240   2.317 -0.9796  0.3022  0.4294
    1SOL    MW4 5176   1.561   2.320   2.344 -0.6911  0.6289 -0.2937
    1SOL     OW 5177   1.330   2.455   2.251 -0.5384 -0.1861 -0.1840
    1SOL    HW2 5178   1.404   2.410   2.292  0.5330  1.2216 -0.5609
    1SOL    HW3 5179   1.340   2.435   2.158 -0.9953 -0.5038 -0.1659
    1SOL    MW4 5180   1.341   2.446   2.244 -0.4572 -0.0424 -0.2313
    1SOL     OW 5181   1.377   2.700   2.366  0.6002  0.2647 -0.1350
    1SOL    HW2 5182   1.454   2.732   2.319  0.6766 -0.5451 -0.5719
    1SOL    HW3 5183   1.360   2.614   2.329  0.5913 -0.3424  1.2427
    1SOL    MW4 5184   1.385   2.693   2.355  0.6090  0.0777 -0.0107
    1SOL     OW 5185   1.575   2.811   2.238 -0.7413  0.1854  0.6919
    1SOL    HW2 5186   1.562   2.899   2.273 -0.5665  0.3465  0.3532
    1SOL    HW3 5187   1.592   2.825   2.145 -1.6137 -0.2663  0.4601
    1SOL    MW4 5188   1.575   2.824   2.231 -0.8332  0.1471  0.6166
    1SOL     OW 5189   1.590   3.048   2.369 -0.2180 -0.0157  0.1418
    1SOL    HW2 5190   1.602   3.047   2.464 -0.1882 -0.0876  0.1373
    1SOL    HW3 5191   1.505   3.089   2.356  0.1988  0.8637  0.1515
    1SOL    MW4 5192   1.581   3.053   2.380 -0.1590  0.0908  0.1426
    1SOL     OW 5193   1.353   3.195   2.287  0.4176  0.1493 -0.0626
    1SOL    HW2 5194   1.266   3.157   2.300  1.0146 -1.0018  0.7127
    1SOL    HW3 5195   1.361   3.205   2.192 -1.1971  1.8314 -0.0356
    1SOL    MW4 5196   1.343   3.191   2.276  0.2832  0.2193  0.0432
    1SOL     OW 5197   1.373   3.483   2.368  0.2468 -0.1101  0.5459
    1SOL    HW2 5198   1.372   3.470   2.463  0.3676  0.4110  0.6210
    1SOL    HW3 5199   1.365   3.395   2.332  1.2870 -0.4198  1.0346
    1SOL    MW4 5200   1.372   3.470   2.376  0.3999 -0.0820  0.6201
    1SOL     OW 5201   1.593   3.623   2.245  0.3019  0.0447  0.5144
    1SOL    HW2 5202   1.581   3.715   2.264  0.0910 -0.2278  1.7251
    1SOL    HW3 5203   1.517   3.579   2.285 -0.0046 -0.5686 -0.7130
    1SOL    MW4 5204   1.581   3.629   2.253  0.2338 -0.0720  0.5121
    1SOL     OW 5205   1.552   3.872   2.347 -0.0354 -0.1525  0.1089
    1SOL    HW2 5206   1.547   3.859   2.442  0.8067 -2.1041 -0.1066
    1SOL    HW3 5207   1.629   3.928   2.334  0.8851 -1.3493  0.4334
    1SOL    MW4 5208   1.562   3.878   2.358  0.1973 -0.5679  0.1235
    1SOL     OW 5209   1.331   4.008   2.219  0.1159 -0.4628  0.3480
    1SOL    HW2 5210   1.415   3.971   2.247 -0.3201 -0.5110  1.6182
    1SOL    HW3 5211   1.331   3.997   2.123  1.9971  0.4718  0.2118
    1SOL    MW4 5212   1.342   4.001   2.210  0.3065 -0.3462  0.4976
    1SOL     OW 5213   1.340   4.246   2.361  0.2771  0.1734 -0.1698
    1SOL    HW2 5214   1.340   4.174   2.298 -0.5487 -0.5656  0.6478
    1SOL    HW3 5215   1.258   4.292   2.346  0.3581  0.3652 -0.0377
    1SOL    MW4 5216   1.329   4.243   2.351  0.1789  0.1011 -0.0448
    1SOL     OW 5217   1.556   4.396   2.286 -0.3754 -0.0283  0.2231
    1SOL    HW2 5218   1.484   4.340   2.316 -0.4822  1.0038  1.9242
    1SOL    HW3 5219   1.545   4.478   2.333  1.6718  0.2979  0.2097
    1SOL    MW4 5220   1.545   4.399   2.296 -0.1194  0.1512  0.4456
    1SOL     OW 5221   2.008   4.618   2.374 -0.0896  0.0352  0.1198
    1SOL    HW2 5222   2.087   4.657   2.335 -1.2774  0.5229 -1.8472
    1SOL    HW3 5223   2.012   4.525   2.348  0.7344 -0.3283  1.5161
    1SOL    MW4 5224   2.019   4.611   2.365 -0.1376  0.0515  0.0446
    1SOL     OW 5225   1.809   0.105   2.269 -0.4943  0.0694 -0.1928
    1SOL    HW2 5226   1.804   0.187   2.317 -1.6956 -1.0300  1.6231
    1SOL    HW3 5227   1.881   0.057   2.310 -0.3306 -0.1401 -0.7112
    1SOL    MW4 5228   1.818   0.110   2.281 -0.6311 -0.1033 -0.0217
    1SOL     OW 5229   1.779   0.347   2.399  0.2067  0.1549  0.2811
    1SOL    HW2 5230   1.783   0.361   2.493  2.3967 -1.6539  0.4862
    1SOL    HW3 5231   1.860   0.385   2.365 -0.2481  0.1833 -0.7999
    1SOL    MW4 5232   1.790   0.354   2.407  0.4356 -0.0800  0.1657
    1SOL     OW 5233   1.997   0.472   2.281 -0.4590  0.1214 -0.7850
    1SOL    HW2 5234   2.016   0.557   2.322  0.4375 -0.0576 -0.8220
    1SOL    HW3 5235   2.004   0.489   2.187 -1.5113  0.2918 -0.8417
    1SOL    MW4 5236   2.000   0.486   2.274 -0.4797  0.1203 -0.7970
    1SOL     OW 5237   2.049   0.742   2.405 -0.0746 -0.2468 -0.2716
    1SOL    HW2 5238   2.106   0.793   2.348 -1.0256  0.3839 -0.6819
    1SOL    HW3 5239   1.960   0.764   2.375 -0.5189 -1.6721 -0.0629
    1SOL    MW4 5240   2.045   0.752   2.393 -0.2589 -0.3516 -0.2980
    1SOL     OW 5241   1.801   0.832   2.307  0.2646  0.0064 -0.3942
    1SOL    HW2 5242   1.807   0.924   2.333  0.3847 -0.2871  0.6285
    1SOL    HW3 5243   1.801   0.834   2.211  1.4723  1.0024 -0.3850
    1SOL    MW4 5244   1.802   0.844   2.298  0.4398  0.0991 -0.2580
    1SOL     OW 5245   1.821   1.100   2.361  0.5484 -0.2932 -0.2885
    1SOL    HW2 5246   1.893   1.151   2.322  0.2915  1.0271  0.9488
    1SOL    HW3 5247   1.742   1.147   2.336  0.1743 -1.0402 -0.5510
    1SOL    MW4 5248   1.820   1.113   2.352  0.4653 -0.2176 -0.1597
    1SOL     OW 5249   2.015   1.246   2.244  0.3198  0.2513  0.2600
    1SOL    HW2 5250   2.011   1.327   2.295 -2.7439 -0.0728  0.5996
    1SOL    HW3 5251   2.016   1.276   2.153  0.1475  0.7022  0.4051
    1SOL    MW4 5252   2.015   1.261   2.239 -0.1073  0.2681  0.3240
    1SOL     OW 5253   2.053   1.504   2.340 -0.6419 -0.4876 -0.3994
    1SOL    HW2 5254   2.036   1.535   2.429  0.0897 -0.5671 -0.2315
    1SOL    HW3 5255   1.986   1.547   2.287 -1.5318 -0.9897  0.2911
    1SOL    MW4 5256   2.042   1.514   2.345 -0.6626 -0.5643 -0.2861
    1SOL     OW 5257   1.829   1.629   2.227  0.2812  0.1502 -0.3604
    1SOL    HW2 5258   1.807   1.711   2.270  0.4681  0.5389 -0.9975
    1SOL    HW3 5259   1.809   1.644   2.135  1.1018 -0.2395 -0.6077
    1SOL    MW4 5260   1.823   1.642   2.221  0.4141  0.1501 -0.4773
    1SOL     OW 5261   1.784   1.873   2.335 -0.0019 -0.2648  0.3862
    1SOL    HW2 5262   1.788   1.873   2.430  0.4224  0.9355  0.3764
    1SOL    HW3 5263   1.857   1.929   2.307  0.8425 -1.8765 -0.6932
    1SOL    MW4 5264   1.794   1.881   2.344  0.1656 -0.3191  0.2425
    1SOL     OW 5265   2.002   2.053   2.275  0.5067  0.0136 -0.0678
    1SOL    HW2 5266   2.082   2.001   2.284  0.1569 -0.5780 -0.3284
    1SOL    HW3 5267   2.000   2.077   2.182  2.4589  3.4218  0.6621
    1SOL    MW4 5268   2.012   2.049   2.264  0.7179  0.3850 -0.0057
    1SOL     OW 5269   2.002   2.317   2.345 -0.2354  0.4181 -0.0896
    1SOL    HW2 5270   2.096   2.336   2.334 -0.4076  2.0503  1.1091
    1SOL    HW3 5271   1.995   2.223   2.327  1.7439  0.1179  0.5336
    1SOL    MW4 5272   2.014   2.307   2.341  0.0029  0.5939  0.1512
    1SOL     OW 5273   1.794   2.444   2.227  0.0199 -0.0520  0.3797
    1SOL    HW2 5274   1.871   2.406   2.269 -0.1056 -1.2598 -0.4549
    1SOL    HW3 5275   1.720   2.412   2.277 -0.0114  0.1391  0.4563
    1SOL    MW4 5276   1.795   2.435   2.239 -0.0008 -0.1860  0.2797
    1SOL     OW 5277   1.792   2.694   2.362 -0.3403 -0.0247  0.0038
    1SOL    HW2 5278   1.782   2.613   2.313  1.3140 -1.1549  1.4706
    1SOL    HW3 5279   1.728   2.754   2.324 -1.1979 -1.8439 -1.4535
    1SOL    MW4 5280   1.782   2.691   2.350 -0.2352 -0.4137  0.0048
    1SOL     OW 5281   2.026   2.791   2.240  0.1427 -0.0720 -0.1428
    1SOL    HW2 5282   2.097   2.736   2.274  0.8151  1.2013  0.5860
    1SOL    HW3 5283   1.946   2.747   2.268  0.6679 -0.6000  0.5520
    1SOL    MW4 5284   2.025   2.778   2.248  0.3006  0.0265  0.0453
    1SOL     OW 5285   2.028   3.066   2.355  0.2241  0.4712  0.2464
    1SOL    HW2 5286   2.089   3.116   2.300 -0.0285 -0.9954 -1.4133
    1SOL    HW3 5287   2.036   2.976   2.324 -2.3891  0.1625  0.3874
    1SOL    MW4 5288   2.037   3.061   2.344 -0.1543  0.2372  0.0463
    1SOL     OW 5289   1.782   3.220   2.306 -0.3787  0.0972 -0.2052
    1SOL    HW2 5290   1.856   3.160   2.322 -0.0971  0.9035  1.6948
    1SOL    HW3 5291   1.705   3.168   2.328 -0.1858  0.1760  0.6688
    1SOL    MW4 5292   1.782   3.205   2.311 -0.3163  0.2141  0.1607
    1SOL     OW 5293   1.839   3.506   2.362 -0.4562 -0.0096  0.1099
    1SOL    HW2 5294   1.824   3.413   2.347 -1.4163 -0.2313  2.3443
    1SOL    HW3 5295   1.763   3.550   2.323  0.3557 -0.0815 -1.6009
    1SOL    MW4 5296   1.827   3.500   2.355 -0.4758 -0.0479  0.1791
    1SOL     OW 5297   2.028   3.651   2.209  0.0885  0.1951 -0.0781
    1SOL    HW2 5298   1.963   3.590   2.243 -0.8777  1.1626 -0.1514
    1SOL    HW3 5299   2.038   3.627   2.117  0.0283 -0.1214 -0.0021
    1SOL    MW4 5300   2.020   3.640   2.202 -0.0467  0.2813 -0.0775
    1SOL     OW 5301   1.974   3.882   2.381  0.0090 -0.2227 -0.0938
    1SOL    HW2 5302   1.966   3.858   2.473 -1.5284 -0.6397 -0.3195
    1SOL    HW3 5303   1.998   3.800   2.337  0.2339 -0.1324 -0.1426
    1SOL    MW4 5304   1.976   3.868   2.387 -0.1642 -0.2658 -0.1302
    1SOL     OW 5305   1.770   4.042   2.285 -0.5003  0.0852 -0.1417
    1SOL    HW2 5306   1.846   4.001   2.327 -0.0278  1.9262  0.8479
    1SOL    HW3 5307   1.786   4.032   2.192 -0.3680 -1.8984  0.0703
    1SOL    MW4 5308   1.782   4.035   2.279 -0.4205  0.0668  0.0169
    1SOL     OW 5309   1.786   4.297   2.410 -0.0610 -0.0539 -0.5770
    1SOL    HW2 5310   1.776   4.203   2.391 -0.9735  0.1210 -0.9995
    1SOL    HW3 5311   1.706   4.337   2.375 -0.5302  0.6405  1.2396
    1SOL    MW4 5312   1.774   4.290   2.403 -0.2433  0.0610 -0.3929
    1SOL     OW 5313   2.042   4.364   2.309 -0.2482 -0.1545 -0.2134
    1SOL    HW2 5314   1.955   4.333   2.335 -0.5428  0.9111  0.0877
    1SOL    HW3 5315   2.037   4.373   2.214 -0.3465 -0.4692 -0.2365
    1SOL    MW4 5316   2.030   4.361   2.300 -0.3002 -0.0553 -0.1762
    1SOL     OW 5317   2.469   4.640   2.349 -0.4588 -0.1675 -0.1476
    1SOL    HW2 5318   2.543   4.689   2.314  1.0498 -1.4713  1.1615
    1SOL    HW3 5319   2.474   4.555   2.306 -2.0906  0.2025 -1.1500
    1SOL    MW4 5320   2.479   4.636   2.339 -0.4749 -0.2909 -0.1073
    1SOL     OW 5321   2.231   0.077   2.252 -0.2468  0.6374  0.1780
    1SOL    HW2 5322   2.215   0.163   2.289  0.3761  1.3797 -1.2604
    1SOL    HW3 5323   2.308   0.045   2.299 -1.0202  0.4616  1.3548
    1SOL    MW4 5324   2.239   0.084   2.263 -0.2666  0.7122  0.1435
    1SOL     OW 5325   2.219   0.328   2.365 -0.1239  0.3894  0.0761
    1SOL    HW2 5326   2.294   0.380   2.338 -0.5418  0.4459 -1.0050
    1SOL    HW3 5327   2.143   0.375   2.332 -0.5383 -0.6047 -0.4192
    1SOL    MW4 5328   2.219   0.341   2.357 -0.2339  0.2657 -0.1321
    1SOL     OW 5329   2.448   0.510   2.298 -0.4572 -0.0953 -0.0223
    1SOL    HW2 5330   2.519   0.456   2.331 -0.2358 -0.6534 -1.3595
    1SOL    HW3 5331   2.470   0.526   2.206 -1.7932  0.1453 -0.3198
    1SOL    MW4 5332   2.460   0.505   2.290 -0.6046 -0.1373 -0.2379
    1SOL     OW 5333   2.464   0.777   2.378 -0.2026 -0.1136  0.1039
    1SOL    HW2 5334   2.547   0.810   2.345  1.1958 -1.6055  2.0064
    1SOL    HW3 5335   2.462   0.685   2.351 -1.4046  0.0045 -0.2416
    1SOL    MW4 5336   2.474   0.769   2.370 -0.1767 -0.2948  0.3090
    1SOL     OW 5337   2.242   0.876   2.263 -0.5298  0.1441  0.1943
    1SOL    HW2 5338   2.240   0.970   2.283 -0.7332  0.1656  0.0771
    1SOL    HW3 5339   2.326   0.846   2.296 -1.2050  0.0048  1.8052
    1SOL    MW4 5340   2.253   0.884   2.270 -0.6456  0.1285  0.3917
    1SOL     OW 5341   2.263   1.142   2.323 -0.6086 -0.2085 -0.1244
    1SOL    HW2 5342   2.326   1.181   2.263 -0.0501 -0.8588  0.0301
    1SOL    HW3 5343   2.183   1.193   2.310 -0.0659  0.5972 -0.3476
    1SOL    MW4 5344   2.261   1.154   2.313 -0.4630 -0.1881 -0.1338
    1SOL     OW 5345   2.496   1.257   2.226 -0.1285  0.4126  0.2903
    1SOL    HW2 5346   2.556   1.202   2.276 -0.7974  0.5177  1.2108
    1SOL    HW3 5347   2.487   1.337   2.278 -1.8023  0.0224  0.6376
    1SOL    MW4 5348   2.503   1.260   2.239 -0.4375  0.3749  0.4575
    1SOL     OW 5349   2.496   1.510   2.343 -0.5247 -0.1102 -0.5366
    1SOL    HW2 5350   2.487   1.503   2.438  1.1083 -0.1637 -0.3673
    1SOL    HW3 5351   2.583   1.546   2.330  0.0490 -1.9515 -2.0652
    1SOL    MW4 5352   2.506   1.514   2.354 -0.2334 -0.3601 -0.7160
    1SOL     OW 5353   2.280   1.638   2.238  0.3010 -0.0477 -0.0908
    1SOL    HW2 5354   2.357   1.589   2.268  0.2690 -0.1744 -0.2121
    1SOL    HW3 5355   2.206   1.592   2.279  0.2123 -0.6130 -0.8750
    1SOL    MW4 5356   2.281   1.625   2.248  0.2854 -0.1389 -0.2100
    1SOL     OW 5357   2.242   1.904   2.323  0.3143 -0.3970  0.3344
    1SOL    HW2 5358   2.324   1.949   2.301 -0.0962 -0.5842 -1.6834
    1SOL    HW3 5359   2.253   1.815   2.289 -0.3370 -0.7068  0.9319
    1SOL    MW4 5360   2.254   1.898   2.315  0.1743 -0.4625  0.1471
    1SOL     OW 5361   2.471   2.040   2.227 -0.2475  0.3375  0.4753
    1SOL    HW2 5362   2.553   1.993   2.241  0.5049  1.0997 -1.2894
    1SOL    HW3 5363   2.455   2.033   2.133 -1.6404  1.1349  0.6452
    1SOL    MW4 5364   2.480   2.033   2.217 -0.3319  0.5429  0.2649
    1SOL     OW 5365   2.477   2.308   2.365 -0.4188  0.3756 -0.1939
    1SOL    HW2 5366   2.558   2.351   2.337  1.4259 -1.6610  1.7874
    1SOL    HW3 5367   2.475   2.226   2.315 -1.6163  0.7090 -0.7134
    1SOL    MW4 5368   2.488   2.303   2.355 -0.3333  0.1509 -0.0012
    1SOL     OW 5369   2.257   2.412   2.257 -0.2523  0.1618 -0.0713
    1SOL    HW2 5370   2.249   2.500   2.295 -0.5930  0.6626 -1.2764
    1SOL    HW3 5371   2.336   2.376   2.296 -0.4523  0.7662  0.9114
    1SOL    MW4 5372   2.266   2.419   2.267 -0.3240  0.3076 -0.1006
    1SOL     OW 5373   2.224   2.661   2.365  0.3966 -0.1650  0.3411
    1SOL    HW2 5374   2.215   2.666   2.460  0.1701  0.7576  0.2702
    1SOL    HW3 5375   2.306   2.706   2.346 -0.0761  0.5650  0.0035
    1SOL    MW4 5376   2.234   2.668   2.375  0.3042  0.0532  0.2875
    1SOL     OW 5377   2.464   2.833   2.289  0.4832 -0.3582 -0.2345
    1SOL    HW2 5378   2.546   2.798   2.325  1.8273  0.9986 -1.8527
    1SOL    HW3 5379   2.473   2.820   2.194 -0.2536  1.7090 -0.5981
    1SOL    MW4 5380   2.476   2.827   2.281  0.5634  0.0935 -0.4961
    1SOL     OW 5381   2.436   3.083   2.399 -0.7277 -0.0065 -0.0052
    1SOL    HW2 5382   2.513   3.134   2.375  0.0429 -1.2348 -0.1816
    1SOL    HW3 5383   2.452   2.996   2.363 -2.3489 -0.1970 -0.3333
    1SOL    MW4 5384   2.448   3.078   2.391 -0.8397 -0.1938 -0.0718
    1SOL     OW 5385   2.244   3.210   2.244 -0.0797  0.1913 -0.0451
    1SOL    HW2 5386   2.236   3.298   2.282  1.0726  0.4992 -0.4823
    1SOL    HW3 5387   2.322   3.174   2.287  0.0252 -0.2401 -0.6039
    1SOL    MW4 5388   2.254   3.217   2.255  0.0863  0.1748 -0.1764
    1SOL     OW 5389   2.232   3.483   2.332  0.7020 -0.1737  0.0630
    1SOL    HW2 5390   2.228   3.476   2.427  1.1574 -0.3043  0.0712
    1SOL    HW3 5391   2.167   3.551   2.311  0.5878 -0.1550  0.4605
    1SOL    MW4 5392   2.223   3.491   2.342  0.7472 -0.1888  0.1163
    1SOL     OW 5393   2.418   3.641   2.194  0.4135  0.2364 -0.0757
    1SOL    HW2 5394   2.431   3.717   2.252 -1.4701  0.5354 -0.0074
    1SOL    HW3 5395   2.363   3.582   2.245 -0.4369  0.0565 -1.1978
    1SOL    MW4 5396   2.413   3.644   2.209  0.0527  0.2522 -0.2151
    1SOL     OW 5397   2.463   3.860   2.362  0.0982 -0.0046  0.0589
    1SOL    HW2 5398   2.485   3.851   2.454  2.0804 -1.0501 -0.4967
    1SOL    HW3 5399   2.376   3.901   2.362  0.0054 -0.1453  2.3689
    1SOL    MW4 5400   2.454   3.864   2.374  0.3476 -0.1614  0.2902
    1SOL     OW 5401   2.211   3.967   2.284  0.0227 -0.2213 -0.1514
    1SOL    HW2 5402   2.230   4.058   2.307  0.4820 -0.5549  0.7781
    1SOL    HW3 5403   2.128   3.948   2.328  0.5086 -0.6137  0.5974
    1SOL    MW4 5404   2.202   3.977   2.293  0.1473 -0.3171  0.0701
    1SOL     OW 5405   2.277   4.230   2.376 -0.5850 -0.1465  0.0911
    1SOL    HW2 5406   2.288   4.238   2.471  2.0758  0.6107 -0.2333
    1SOL    HW3 5407   2.198   4.280   2.356 -0.6575  0.4559  1.7907
    1SOL    MW4 5408   2.268   4.237   2.386 -0.2437  0.0324  0.2725
    1SOL     OW 5409   2.475   4.370   2.242  0.0627  0.1618  0.3336
    1SOL    HW2 5410   2.560   4.347   2.281 -0.2315  1.6258  1.9595
    1SOL    HW3 5411   2.411   4.336   2.304 -0.4055  3.0683  1.5498
    1SOL    MW4 5412   2.478   4.363   2.256 -0.0379  0.7386  0.7086
    1SOL     OW 5413   2.909   4.661   2.383 -0.0116 -0.6657 -0.1369
    1SOL    HW2 5414   2.975   4.716   2.340  0.0860 -1.0797 -0.5190
    1SOL    HW3 5415   2.897   4.587   2.324  0.4914 -1.4977  0.7917
    1SOL    MW4 5416   2.916   4.659   2.370  0.0679 -0.8302 -0.0646
    1SOL     OW 5417   2.690   0.123   2.279  0.3430 -0.2116  0.3353
    1SOL    HW2 5418   2.681   0.210   2.317  0.7265 -0.1132  0.2102
    1SOL    HW3 5419   2.765   0.085   2.325 -1.5313 -1.5269  2.3297
    1SOL    MW4 5420   2.699   0.130   2.290  0.1464 -0.3722  0.5820
    1SOL     OW 5421   2.664   0.367   2.403  0.2872  0.0589 -0.9157
    1SOL    HW2 5422   2.680   0.373   2.497  0.4800 -0.3906 -0.9202
    1SOL    HW3 5423   2.739   0.413   2.364  0.8221 -0.7778 -0.8871
    1SOL    MW4 5424   2.676   0.374   2.410  0.3834 -0.1107 -0.9124
    1SOL     OW 5425   2.884   0.511   2.287  0.3848 -0.6413 -0.3651
    1SOL    HW2 5426   2.898   0.601   2.315  1.8445 -1.3612  1.2994
    1SOL    HW3 5427   2.902   0.512   2.193  1.4472  0.5753 -0.1547
    1SOL    MW4 5428   2.888   0.523   2.278  0.7176 -0.5757 -0.1180
    1SOL     OW 5429   2.931   0.768   2.387  0.1207 -0.1405  0.1518
    1SOL    HW2 5430   2.930   0.787   2.480  0.1179  0.7874 -0.0337
    1SOL    HW3 5431   2.856   0.814   2.351 -0.4392 -1.2709 -0.1689
    1SOL    MW4 5432   2.921   0.776   2.394  0.0463 -0.1672  0.0851
    1SOL     OW 5433   2.704   0.885   2.258 -0.2077  0.0051  0.3009
    1SOL    HW2 5434   2.715   0.976   2.285  0.7030 -0.1104  0.3354
    1SOL    HW3 5435   2.702   0.888   2.162 -0.3621  0.0864  0.3074
    1SOL    MW4 5436   2.705   0.897   2.249 -0.1078  0.0007  0.3064
    1SOL     OW 5437   2.705   1.129   2.362  0.1196  0.3423  0.2121
    1SOL    HW2 5438   2.726   1.136   2.455  1.1943 -1.1026  0.0886
    1SOL    HW3 5439   2.772   1.182   2.317  1.5418 -1.5555  0.0524
    1SOL    MW4 5440   2.716   1.137   2.368  0.4489 -0.0987  0.1748
    1SOL     OW 5441   2.916   1.252   2.249 -0.0899  0.2219  0.1311
    1SOL    HW2 5442   2.988   1.206   2.291 -0.2613  0.7876  1.0635
    1SOL    HW3 5443   2.935   1.248   2.155  0.0731 -1.4253  0.2322
    1SOL    MW4 5444   2.928   1.246   2.242 -0.0908  0.0792  0.2673
    1SOL     OW 5445   2.941   1.515   2.353 -0.4077  0.3844 -0.0602
    1SOL    HW2 5446   2.955   1.526   2.447  1.2097 -0.8990 -0.1224
    1SOL    HW3 5447   2.933   1.420   2.340 -2.1514  0.6407 -1.0293
    1SOL    MW4 5448   2.942   1.504   2.363 -0.4244  0.2489 -0.1962
    1SOL     OW 5449   2.724   1.645   2.258 -0.0416 -0.0930  0.1460
    1SOL    HW2 5450   2.808   1.609   2.287 -0.4092 -1.2743 -0.2128
    1SOL    HW3 5451   2.726   1.637   2.162 -0.0806  0.9844  0.0454
    1SOL    MW4 5452   2.735   1.639   2.249 -0.0954 -0.1066  0.0856
    1SOL     OW 5453   2.706   1.908   2.312 -0.3795 -0.8538  0.2512
    1SOL    HW2 5454   2.692   1.909   2.406 -0.9971 -0.0780  0.1594
    1SOL    HW3 5455   2.737   1.819   2.293 -1.0176 -1.2574  1.0699
    1SOL    MW4 5456   2.708   1.896   2.322 -0.5450 -0.8047  0.3469
    1SOL     OW 5457   2.939   2.058   2.290  0.8534 -0.2765  0.4837
    1SOL    HW2 5458   3.010   1.996   2.303  1.9150  0.8177 -0.0160
    1SOL    HW3 5459   2.860   2.008   2.308  1.8333 -0.9732  3.0609
    1SOL    MW4 5460   2.938   2.043   2.294  1.1227 -0.2239  0.7577
    1SOL     OW 5461   2.934   2.316   2.390  0.2222 -0.2696  0.3403
    1SOL    HW2 5462   2.936   2.313   2.486 -0.5692  2.1342  0.4464
    1SOL    HW3 5463   2.928   2.224   2.364 -1.3208 -0.8792  2.6656
    1SOL    MW4 5464   2.933   2.303   2.399 -0.0858 -0.0327  0.6614
    1SOL     OW 5465   2.711   2.447   2.285 -0.0598  0.1162 -0.5137
    1SOL    HW2 5466   2.782   2.388   2.313 -2.0741 -1.8382  0.6851
    1SOL    HW3 5467   2.704   2.433   2.191  3.7656  3.3488 -1.4092
    1SOL    MW4 5468   2.720   2.437   2.276  0.1791  0.2847 -0.4735
    1SOL     OW 5469   2.685   2.710   2.392  0.2371  0.0662 -0.2852
    1SOL    HW2 5470   2.758   2.757   2.352  0.8204 -0.7367 -0.1843
    1SOL    HW3 5471   2.688   2.623   2.352  0.8101 -0.7444  1.4248
    1SOL    MW4 5472   2.695   2.705   2.382  0.3898 -0.1466 -0.0463
    1SOL     OW 5473   2.897   2.837   2.266 -0.1200  0.1498  0.5650
    1SOL    HW2 5474   2.904   2.926   2.299  0.9654 -0.4168  1.9454
    1SOL    HW3 5475   2.914   2.844   2.172 -1.6913  1.5961  0.3659
    1SOL    MW4 5476   2.900   2.849   2.258 -0.1841  0.2656  0.7207
    1SOL     OW 5477   2.902   3.094   2.356  0.0530  0.1625  0.4336
    1SOL    HW2 5478   2.962   3.160   2.321 -0.8908  0.4588 -0.6733
    1SOL    HW3 5479   2.816   3.137   2.352 -0.4465 -0.8305  0.5107
    1SOL    MW4 5480   2.898   3.109   2.351 -0.1376  0.0703  0.2975
    1SOL     OW 5481   2.657   3.248   2.309  0.0993  0.1849  0.0605
    1SOL    HW2 5482   2.640   3.340   2.330  1.5411  0.2263  1.0678
    1SOL    HW3 5483   2.663   3.247   2.213 -2.7605  0.6204 -0.1728
    1SOL    MW4 5484   2.655   3.260   2.299 -0.0877  0.2477  0.1628
    1SOL     OW 5485   2.680   3.539   2.335 -0.4673 -0.1024  0.0594
    1SOL    HW2 5486   2.765   3.568   2.303  0.0818  0.6583  2.1534
    1SOL    HW3 5487   2.617   3.579   2.275  0.6945 -2.3087 -2.7332
    1SOL    MW4 5488   2.683   3.548   2.323 -0.2415 -0.2930 -0.0329
    1SOL     OW 5489   2.929   3.633   2.252 -0.0399 -0.4749  0.1351
    1SOL    HW2 5490   3.000   3.596   2.304 -0.5029 -0.9920  0.4092
    1SOL    HW3 5491   2.910   3.717   2.293  1.3753  0.3164 -0.8073
    1SOL    MW4 5492   2.936   3.639   2.264  0.0858 -0.4385  0.0472
    1SOL     OW 5493   2.876   3.892   2.350  0.2655 -0.4086  0.6506
    1SOL    HW2 5494   2.876   3.896   2.446  0.4132 -0.5280  0.6560
    1SOL    HW3 5495   2.792   3.929   2.324  0.0957 -0.6654  0.8376
    1SOL    MW4 5496   2.865   3.897   2.359  0.2625 -0.4582  0.6759
    1SOL     OW 5497   2.659   4.015   2.242  0.0994 -0.0657  0.7407
    1SOL    HW2 5498   2.588   3.960   2.274 -0.6730  0.8714  0.6625
    1SOL    HW3 5499   2.650   4.011   2.146 -0.3753  0.7264  0.7489
    1SOL    MW4 5500   2.648   4.007   2.233 -0.0651  0.1621  0.7312
    1SOL     OW 5501   2.703   4.271   2.357  0.3884  0.2293  0.4031
    1SOL    HW2 5502   2.662   4.276   2.443 -0.1281  0.7783  0.1322
    1SOL    HW3 5503   2.689   4.180   2.329  0.1522  0.1711  0.7018
    1SOL    MW4 5504   2.696   4.260   2.364  0.2890  0.2937  0.4070
    1SOL     OW 5505   2.904   4.415   2.251 -0.1308  0.3262 -0.1531
    1SOL    HW2 5506   2.987   4.375   2.278 -0.6957 -1.3302 -0.8448
    1SOL    HW3 5507   2.838   4.371   2.304 -0.7434  0.4540 -0.8121
    1SOL    MW4 5508   2.906   4.404   2.262 -0.2863  0.1245 -0.3314
    1SOL     OW 5509   3.379   4.648   2.361  0.1987  0.1767  0.2008
    1SOL    HW2 5510   3.350   4.667   2.450 -0.4691  0.2715 -0.0290
    1SOL    HW3 5511   3.467   4.684   2.355  0.2507  0.1446  0.8303
    1SOL    MW4 5512   3.386   4.655   2.372  0.1173  0.1850  0.2539
    1SOL     OW 5513   3.120   0.098   2.237  0.1636 -0.0188  0.0988
    1SOL    HW2 5514   3.126   0.192   2.255 -0.9983  0.2564 -0.9163
    1SOL    HW3 5515   3.198   0.061   2.278 -0.4040  1.1103  2.2715
    1SOL    MW4 5516   3.131   0.105   2.245 -0.0646  0.1665  0.2515
    1SOL     OW 5517   3.118   0.363   2.329  0.7999  0.3686 -0.1845
    1SOL    HW2 5518   3.189   0.427   2.324 -0.2173  1.4533 -0.9457
    1SOL    HW3 5519   3.038   0.416   2.327 -0.0454 -0.9120 -0.5475
    1SOL    MW4 5520   3.117   0.379   2.328  0.5543  0.3427 -0.3328
    1SOL     OW 5521   3.332   0.527   2.311  0.2847 -0.2962 -0.3007
    1SOL    HW2 5522   3.417   0.486   2.328 -0.0915 -0.6526  0.7989
    1SOL    HW3 5523   3.334   0.550   2.218  2.8025  2.5592  0.4056
    1SOL    MW4 5524   3.343   0.525   2.301  0.5670  0.0335 -0.0627
    1SOL     OW 5525   3.374   0.795   2.350  0.0708 -0.1547  0.0404
    1SOL    HW2 5526   3.457   0.811   2.304 -0.2281 -1.2451 -0.8925
    1SOL    HW3 5527   3.357   0.702   2.338 -1.1612  0.0041  0.4577
    1SOL    MW4 5528   3.383   0.785   2.343 -0.1311 -0.2776 -0.0277
    1SOL     OW 5529   3.137   0.894   2.252 -0.1536 -0.3061  0.4027
    1SOL    HW2 5530   3.218   0.853   2.280 -0.0242  0.6360  1.4666
    1SOL    HW3 5531   3.069   0.852   2.305  0.0697  1.3424  2.0758
    1SOL    MW4 5532   3.139   0.883   2.263 -0.1073  0.0356  0.7639
    1SOL     OW 5533   3.149   1.147   2.384 -0.5617 -0.4055  0.2997
    1SOL    HW2 5534   3.229   1.190   2.351 -0.4849 -0.1366  0.8393
    1SOL    HW3 5535   3.156   1.057   2.352  0.2570 -0.5460  0.8420
    1SOL    MW4 5536   3.161   1.141   2.375 -0.4437 -0.3885  0.4423
    1SOL     OW 5537   3.368   1.274   2.259  0.2890 -0.1747 -0.1014
    1SOL    HW2 5538   3.446   1.241   2.304 -0.4934 -1.3957  0.3681
    1SOL    HW3 5539   3.367   1.368   2.280  1.2588 -0.2733  0.4381
    1SOL    MW4 5540   3.378   1.282   2.268  0.3138 -0.3487  0.0319
    1SOL     OW 5541   3.394   1.554   2.329 -0.2777 -0.2146 -0.4537
    1SOL    HW2 5542   3.395   1.567   2.424  0.4086  0.5589 -0.5648
    1SOL    HW3 5543   3.303   1.569   2.303 -0.1329  1.2676 -0.1465
    1SOL    MW4 5544   3.382   1.558   2.338 -0.1678  0.0829 -0.4282
    1SOL     OW 5545   3.156   1.624   2.215  0.5880 -0.1913  0.0341
    1SOL    HW2 5546   3.152   1.718   2.236 -0.3854 -0.2944  0.3350
    1SOL    HW3 5547   3.086   1.585   2.268  2.1304 -1.3555  1.2673
    1SOL    MW4 5548   3.146   1.631   2.225  0.6630 -0.3585  0.2365
    1SOL     OW 5549   3.171   1.906   2.317 -0.0110  0.3716  0.1994
    1SOL    HW2 5550   3.171   1.912   2.413 -0.3344  0.1735  0.2124
    1SOL    HW3 5551   3.231   1.975   2.289  1.2244 -0.5244  0.6063
    1SOL    MW4 5552   3.179   1.916   2.326  0.1092  0.2273  0.2549
    1SOL     OW 5553   3.362   2.081   2.242  0.6085 -0.4407 -0.3097
    1SOL    HW2 5554   3.428   2.028   2.287  0.5996 -0.3579 -0.1984
    1SOL    HW3 5555   3.371   2.058   2.150  0.0498 -1.2543 -0.1731
    1SOL    MW4 5556   3.372   2.071   2.236  0.5333 -0.5369 -0.2770
    1SOL     OW 5557   3.352   2.340   2.341  0.1134  0.0752 -0.1683
    1SOL    HW2 5558   3.278   2.394   2.313  0.2261  0.1576 -0.3071
    1SOL    HW3 5559   3.333   2.253   2.307 -0.1584 -0.0170  0.2081
    1SOL    MW4 5560   3.340   2.336   2.333  0.0925  0.0741 -0.1369
    1SOL     OW 5561   3.117   2.491   2.278 -0.3734  0.3401 -0.3954
    1SOL    HW2 5562   3.120   2.572   2.328  0.4736  0.3102 -0.3950
    1SOL    HW3 5563   3.066   2.431   2.332  0.7113  0.2416  0.5287
    1SOL    MW4 5564   3.110   2.494   2.291 -0.1185  0.3231 -0.2732
    1SOL     OW 5565   3.120   2.747   2.382  0.1427 -0.2080 -0.0356
    1SOL    HW2 5566   3.106   2.725   2.474  0.1418 -1.4572 -0.3331
    1SOL    HW3 5567   3.033   2.766   2.348 -0.0998 -1.7353 -0.2858
    1SOL    MW4 5568   3.107   2.747   2.390  0.1106 -0.5741 -0.1080
    1SOL     OW 5569   3.355   2.861   2.285  0.3290 -0.4284  0.1704
    1SOL    HW2 5570   3.347   2.949   2.320  1.0523 -0.7255  1.0976
    1SOL    HW3 5571   3.279   2.814   2.318 -0.9033  0.2500 -1.5976
    1SOL    MW4 5572   3.344   2.866   2.294  0.2623 -0.3781  0.0596
    1SOL     OW 5573   3.325   3.109   2.397 -0.4324 -0.3782  0.2654
    1SOL    HW2 5574   3.396   3.145   2.343 -0.5444 -1.2358 -0.4588
    1SOL    HW3 5575   3.246   3.149   2.362 -0.4827 -0.7685 -0.0711
    1SOL    MW4 5576   3.324   3.119   2.385 -0.4537 -0.5429  0.1254
    1SOL     OW 5577   3.122   3.241   2.254  0.4378 -0.2105  0.2613
    1SOL    HW2 5578   3.109   3.335   2.270  0.0739 -0.3917  1.0718
    1SOL    HW3 5579   3.137   3.234   2.160 -1.0477  0.5129 -0.0494
    1SOL    MW4 5580   3.122   3.252   2.244  0.1936 -0.1390  0.3273
    1SOL     OW 5581   3.120   3.507   2.390  0.5573  0.5001  0.4877
    1SOL    HW2 5582   3.124   3.498   2.486  0.4831  0.3285  0.4742
    1SOL    HW3 5583   3.210   3.530   2.365  0.4278  1.2313  0.6675
    1SOL    MW4 5584   3.133   3.509   2.400  0.5302  0.5741  0.5095
    1SOL     OW 5585   3.350   3.606   2.284  0.0157 -0.2389 -0.1760
    1SOL    HW2 5586   3.436   3.569   2.304  0.3297  0.7392  0.2824
    1SOL    HW3 5587   3.351   3.617   2.189  0.3249 -0.4045 -0.1935
    1SOL    MW4 5588   3.361   3.603   2.274  0.0980 -0.1316 -0.1175
    1SOL     OW 5589   3.309   3.874   2.374 -0.1861 -0.2600 -0.3546
    1SOL    HW2 5590   3.396   3.911   2.360  0.0944 -0.4074  0.9482
    1SOL    HW3 5591   3.318   3.781   2.353 -0.2372 -0.1244 -1.0037
    1SOL    MW4 5592   3.321   3.867   2.369 -0.1559 -0.2615 -0.2685
    1SOL     OW 5593   3.102   4.014   2.260 -0.0627  0.0966  0.0903
    1SOL    HW2 5594   3.173   3.972   2.309 -0.3372  0.5370  0.8865
    1SOL    HW3 5595   3.022   3.977   2.296 -0.2296 -1.0058 -1.3806
    1SOL    MW4 5596   3.101   4.004   2.272 -0.1206  0.0095  0.0012
    1SOL     OW 5597   3.126   4.275   2.347 -0.2626  0.1892  0.3885
    1SOL    HW2 5598   3.215   4.304   2.326 -0.4315 -1.0168 -2.1863
    1SOL    HW3 5599   3.123   4.185   2.317 -2.2358  0.0667  0.9031
    1SOL    MW4 5600   3.137   4.267   2.340 -0.5450  0.0138  0.1168
    1SOL     OW 5601   3.363   4.405   2.231 -0.3640 -0.3331  0.4060
    1SOL    HW2 5602   3.392   4.492   2.258  0.0189 -0.0365 -0.9344
    1SOL    HW3 5603   3.344   4.414   2.137  0.1923 -1.8304  0.1404
    1SOL    MW4 5604   3.364   4.418   2.222 -0.2401 -0.4916  0.1941
    1SOL     OW 5605   3.756   4.637   2.393 -0.2816  0.3026  0.0077
    1SOL    HW2 5606   3.773   4.663   2.483 -1.6486  3.7931 -0.6191
    1SOL    HW3 5607   3.840   4.644   2.349  0.0155  0.5104  0.6125
    1SOL    MW4 5608   3.769   4.642   2.399 -0.4227  0.7911  0.0048
    1SOL     OW 5609   3.584   0.145   2.232  0.2614 -0.1792  0.2427
    1SOL    HW2 5610   3.580   0.233   2.271 -1.1889  0.1070 -0.4947
    1SOL    HW3 5611   3.641   0.095   2.290 -0.4232  0.7264  1.7294
    1SOL    MW4 5612   3.591   0.150   2.245 -0.0200 -0.0219  0.3417
    1SOL     OW 5613   3.562   0.393   2.333  0.2391  0.0410  0.3175
    1SOL    HW2 5614   3.577   0.409   2.427 -0.2222  2.3001  0.0483
    1SOL    HW3 5615   3.639   0.429   2.290 -0.4177  0.7737 -0.2779
    1SOL    MW4 5616   3.574   0.400   2.340  0.0916  0.4357  0.2034
    1SOL     OW 5617   3.821   0.504   2.245  0.2084  0.0978 -0.3983
    1SOL    HW2 5618   3.825   0.594   2.277 -0.2360 -0.2008  0.5097
    1SOL    HW3 5619   3.828   0.513   2.150  1.6891  0.9759 -0.2180
    1SOL    MW4 5620   3.822   0.517   2.237  0.3452  0.1743 -0.2549
    1SOL     OW 5621   3.847   0.761   2.344 -0.1168 -0.0785 -0.5007
    1SOL    HW2 5622   3.838   0.756   2.439  0.1393 -1.2578 -0.5299
    1SOL    HW3 5623   3.907   0.834   2.330 -0.2596  0.1868  0.2468
    1SOL    MW4 5624   3.854   0.770   2.355 -0.1018 -0.1991 -0.4060
    1SOL     OW 5625   3.606   0.888   2.251  0.2749  0.3158  0.2929
    1SOL    HW2 5626   3.685   0.838   2.269  0.2042 -0.1289 -0.5977
    1SOL    HW3 5627   3.610   0.906   2.157  0.4323  2.2179  0.6430
    1SOL    MW4 5628   3.617   0.884   2.241  0.2861  0.5081  0.2215
    1SOL     OW 5629   3.606   1.154   2.356 -0.4974  0.2559 -0.5521
    1SOL    HW2 5630   3.622   1.151   2.451 -0.8133 -1.2217 -0.5349
    1SOL    HW3 5631   3.602   1.062   2.330 -2.5501  0.6419 -1.6510
    1SOL    MW4 5632   3.608   1.141   2.365 -0.8099  0.1119 -0.6950
    1SOL     OW 5633   3.818   1.301   2.238  0.0665  0.6075 -0.4759
    1SOL    HW2 5634   3.821   1.391   2.270 -1.0791  0.4171  0.1839
    1SOL    HW3 5635   3.744   1.262   2.283  0.8388 -0.8099 -0.4059
    1SOL    MW4 5636   3.809   1.308   2.248  0.0172  0.3954 -0.3798
    1SOL     OW 5637   3.848   1.563   2.323 -0.3452  0.0588 -0.6661
    1SOL    HW2 5638   3.827   1.552   2.416 -0.3124 -1.4261 -0.8168
    1SOL    HW3 5639   3.776   1.615   2.288 -0.2018  0.8905  0.2478
    1SOL    MW4 5640   3.836   1.568   2.331 -0.3221 -0.0273 -0.5653
    1SOL     OW 5641   3.618   1.681   2.213  0.0208  0.1554 -0.2334
    1SOL    HW2 5642   3.543   1.626   2.237  1.3831 -1.4702  0.4169
    1SOL    HW3 5643   3.625   1.671   2.118  1.3569 -2.3456  0.0646
    1SOL    MW4 5644   3.609   1.672   2.204  0.3767 -0.3891 -0.1082
    1SOL     OW 5645   3.555   1.913   2.352  0.3164 -0.0287  0.7317
    1SOL    HW2 5646   3.633   1.960   2.324 -0.4145 -0.1363 -1.6073
    1SOL    HW3 5647   3.565   1.825   2.315 -0.2209 -0.4904  1.6598
    1SOL    MW4 5648   3.567   1.908   2.344  0.1493 -0.1038  0.5457
    1SOL     OW 5649   3.795   2.052   2.235 -0.1665  0.0561 -0.3782
    1SOL    HW2 5650   3.878   2.014   2.263 -0.7131 -1.2585 -0.4825
    1SOL    HW3 5651   3.801   2.057   2.140 -0.2134 -0.0661 -0.3880
    1SOL    MW4 5652   3.807   2.048   2.226 -0.2449 -0.1335 -0.3932
    1SOL     OW 5653   3.820   2.306   2.333  0.1490 -0.2252 -0.1247
    1SOL    HW2 5654   3.741   2.352   2.302  1.1137  0.4351 -1.6807
    1SOL    HW3 5655   3.809   2.217   2.300 -0.0708 -0.2025 -0.1186
    1SOL    MW4 5656   3.808   2.300   2.325  0.2470 -0.1349 -0.3293
    1SOL     OW 5657   3.590   2.447   2.241 -0.1541 -0.4357 -0.5295
    1SOL    HW2 5658   3.510   2.407   2.275  0.0356  0.4000  0.9643
    1SOL    HW3 5659   3.587   2.432   2.147 -1.6516 -1.1435 -0.3773
    1SOL    MW4 5660   3.579   2.440   2.233 -0.3266 -0.4189 -0.3123
    1SOL     OW 5661   3.550   2.692   2.382  0.2086 -0.0899 -0.0199
    1SOL    HW2 5662   3.574   2.615   2.331 -0.5758 -0.6265  0.4049
    1SOL    HW3 5663   3.482   2.735   2.331  2.0411  1.4502 -1.2402
    1SOL    MW4 5664   3.544   2.688   2.369  0.3469  0.0427 -0.1247
    1SOL     OW 5665   3.778   2.839   2.319 -0.0051  0.1172 -0.2428
    1SOL    HW2 5666   3.766   2.924   2.360  0.9988  0.2523 -0.2005
    1SOL    HW3 5667   3.718   2.780   2.365  0.3649  0.4866  0.7209
    1SOL    MW4 5668   3.769   2.842   2.330  0.1760  0.1841 -0.1099
    1SOL     OW 5669   3.787   3.125   2.400 -0.0095  0.0790  0.1984
    1SOL    HW2 5670   3.784   3.131   2.496  0.1332  3.6308  0.0176
    1SOL    HW3 5671   3.870   3.167   2.376 -1.1602  1.3436 -1.6447
    1SOL    MW4 5672   3.798   3.131   2.410 -0.1423  0.7148 -0.0684
    1SOL     OW 5673   3.554   3.225   2.285  0.1581  0.9074 -0.1705
    1SOL    HW2 5674   3.548   3.311   2.327 -0.6265  0.5021  0.5806
    1SOL    HW3 5675   3.632   3.185   2.324 -0.2649  0.7434  0.5248
    1SOL    MW4 5676   3.564   3.231   2.296 -0.0010  0.8323  0.0205
    1SOL     OW 5677   3.594   3.488   2.360 -0.3413  0.4402  0.0554
    1SOL    HW2 5678   3.609   3.472   2.454  0.2899  0.4729 -0.0357
    1SOL    HW3 5679   3.663   3.550   2.335 -2.8774  3.5511  0.4386
    1SOL    MW4 5680   3.605   3.494   2.369 -0.5927  0.8550  0.0942
    1SOL     OW 5681   3.811   3.654   2.285 -0.4348 -0.3954 -0.1874
    1SOL    HW2 5682   3.808   3.748   2.304  0.0109 -0.2804 -0.6893
    1SOL    HW3 5683   3.810   3.649   2.189 -2.0351 -0.9566 -0.1493
    1SOL    MW4 5684   3.811   3.666   2.275 -0.5870 -0.4544 -0.2484
    1SOL     OW 5685   3.800   3.921   2.360  0.1668  0.2545 -0.1834
    1SOL    HW2 5686   3.819   3.888   2.448 -0.5736 -0.2486 -0.2157
    1SOL    HW3 5687   3.881   3.965   2.334  1.4006 -2.0719 -0.3910
    1SOL    MW4 5688   3.814   3.923   2.368  0.2320 -0.1190 -0.2153
    1SOL     OW 5689   3.549   4.016   2.309  0.3969 -0.1857  0.1450
    1SOL    HW2 5690   3.552   4.106   2.341  0.3735  0.2895 -1.1690
    1SOL    HW3 5691   3.638   3.983   2.324  0.4282  0.0833  0.5622
    1SOL    MW4 5692   3.561   4.024   2.315  0.3979 -0.0873  0.0267
    1SOL     OW 5693   3.581   4.275   2.363 -0.2085  0.7333  0.7518
    1SOL    HW2 5694   3.658   4.316   2.323  0.1962  0.0970  0.8689
    1SOL    HW3 5695   3.506   4.318   2.322  0.1894 -0.7724 -1.6100
    1SOL    MW4 5696   3.581   4.286   2.353 -0.1025  0.4506  0.4559
    1SOL     OW 5697   3.803   4.404   2.267 -0.5347 -0.1511 -0.0135
    1SOL    HW2 5698   3.886   4.375   2.304 -0.9655 -1.5695 -0.1057
    1SOL    HW3 5699   3.775   4.477   2.322  1.1684  0.8907 -0.4994
    1SOL    MW4 5700   3.810   4.410   2.279 -0.3669 -0.2007 -0.0896
    1SOL     OW 5701   4.234   4.663   2.405  0.7308  0.0720 -0.2620
    1SOL    HW2 5702   4.238   4.649   2.500  0.7366  1.6442 -0.0279
    1SOL    HW3 5703   4.312   4.715   2.385  0.7233 -0.2390 -1.1296
    1SOL    MW4 5704   4.245   4.668   2.415  0.7305  0.2384 -0.3457
    1SOL     OW 5705   4.004   0.087   2.293 -0.2839  0.0063  0.2728
    1SOL    HW2 5706   3.994   0.181   2.306  1.2089  0.1790  0.2752
    1SOL    HW3 5707   4.084   0.065   2.342 -0.4002 -1.1843 -0.0644
    1SOL    MW4 5708   4.013   0.096   2.302 -0.1020 -0.1280  0.2286
    1SOL     OW 5709   4.039   0.369   2.328  0.2920 -0.3199 -0.1941
    1SOL    HW2 5710   4.117   0.409   2.291  0.0216  1.7825  1.3739
    1SOL    HW3 5711   3.966   0.416   2.287 -0.1019 -1.0788 -0.3647
    1SOL    MW4 5712   4.040   0.380   2.318  0.2046 -0.1426 -0.0095
    1SOL     OW 5713   4.276   0.504   2.243 -0.5758 -0.4735 -0.2136
    1SOL    HW2 5714   4.259   0.591   2.278 -0.6637 -0.5161 -0.1492
    1SOL    HW3 5715   4.345   0.469   2.299 -2.0208 -1.2712  1.1168
    1SOL    MW4 5716   4.283   0.511   2.255 -0.7782 -0.5843 -0.0298
    1SOL     OW 5717   4.262   0.764   2.350 -0.0304  0.1096  0.2716
    1SOL    HW2 5718   4.179   0.809   2.336 -0.3573 -0.2217  1.0995
    1SOL    HW3 5719   4.328   0.826   2.321 -0.5420  0.5901  0.1288
    1SOL    MW4 5720   4.260   0.778   2.344 -0.1411  0.1293  0.3619
    1SOL     OW 5721   4.054   0.926   2.274  0.2000 -0.5584  0.1158
    1SOL    HW2 5722   4.064   1.012   2.314  1.0895 -0.9958  0.8560
    1SOL    HW3 5723   4.068   0.941   2.181 -0.3660  0.2106  0.1465
    1SOL    MW4 5724   4.057   0.939   2.267  0.2432 -0.5146  0.2177
    1SOL     OW 5725   4.054   1.177   2.357 -0.2852  0.5507 -0.3712
    1SOL    HW2 5726   4.034   1.171   2.450  0.1394  0.4540 -0.2841
    1SOL    HW3 5727   3.983   1.229   2.320  0.0649  1.4085  0.1668
    1SOL    MW4 5728   4.042   1.183   2.364 -0.1831  0.6510 -0.2887
    1SOL     OW 5729   4.291   1.271   2.240  0.2253 -0.0199  0.8029
    1SOL    HW2 5730   4.220   1.222   2.283  0.9806  0.1137  2.2488
    1SOL    HW3 5731   4.370   1.241   2.285  0.9784  0.5866 -0.1109
    1SOL    MW4 5732   4.292   1.260   2.252  0.4239  0.0777  0.8731
    1SOL     OW 5733   4.276   1.524   2.311  0.5272 -0.1080  0.3024
    1SOL    HW2 5734   4.293   1.433   2.287 -0.4185  0.2232 -1.7356
    1SOL    HW3 5735   4.361   1.567   2.300  0.7000 -0.4989  0.0861
    1SOL    MW4 5736   4.290   1.518   2.306  0.4253 -0.1159  0.0052
    1SOL     OW 5737   4.078   1.670   2.204  0.1096 -0.1274 -0.0744
    1SOL    HW2 5738   4.146   1.615   2.243 -0.5079  0.1380  1.4055
    1SOL    HW3 5739   3.997   1.641   2.246 -0.0415  2.9276  1.8886
    1SOL    MW4 5740   4.076   1.659   2.215  0.0081  0.3107  0.3798
    1SOL     OW 5741   4.039   1.929   2.313  0.2906  0.3599  0.4074
    1SOL    HW2 5742   4.042   1.924   2.409  0.3256  0.7339  0.4293
    1SOL    HW3 5743   4.046   1.838   2.283  2.0025  0.3758  0.7048
    1SOL    MW4 5744   4.040   1.916   2.322  0.5207  0.4113  0.4499
    1SOL     OW 5745   4.281   2.054   2.234  0.3135  0.2386 -0.4064
    1SOL    HW2 5746   4.264   2.143   2.263 -0.4234  0.9956 -3.0533
    1SOL    HW3 5747   4.199   2.007   2.252 -0.0076  0.6025 -0.9159
    1SOL    MW4 5748   4.268   2.059   2.241  0.1736  0.3870 -0.8225
    1SOL     OW 5749   4.260   2.309   2.340 -0.3716 -0.2604  0.0692
    1SOL    HW2 5750   4.187   2.359   2.301 -0.7821  0.6284  1.9112
    1SOL    HW3 5751   4.338   2.353   2.308 -0.7172  0.8419  0.6747
    1SOL    MW4 5752   4.260   2.322   2.331 -0.4716  0.0024  0.3922
    1SOL     OW 5753   4.042   2.445   2.223 -0.0944  0.1718 -0.4728
    1SOL    HW2 5754   4.039   2.534   2.258  1.1490  0.6795 -1.6231
    1SOL    HW3 5755   3.959   2.407   2.250 -0.7439  1.7486 -0.1462
    1SOL    MW4 5756   4.031   2.452   2.231 -0.0162  0.4468 -0.5815
    1SOL     OW 5757   4.021   2.711   2.365 -0.1766 -0.1846  0.1404
    1SOL    HW2 5758   4.030   2.698   2.460  0.2716  0.7611  0.2312
    1SOL    HW3 5759   3.937   2.755   2.355  0.5078  1.1962  0.2528
    1SOL    MW4 5760   4.011   2.715   2.377 -0.0272  0.1223  0.1671
    1SOL     OW 5761   4.225   2.855   2.249  0.2915 -0.0101  0.0171
    1SOL    HW2 5762   4.147   2.809   2.279  0.6148 -0.5327  0.0659
    1SOL    HW3 5763   4.298   2.812   2.294  0.7085 -0.2721 -0.8956
    1SOL    MW4 5764   4.224   2.843   2.259  0.3886 -0.1137 -0.0970
    1SOL     OW 5765   4.253   3.090   2.388  0.1244  0.0565 -0.5875
    1SOL    HW2 5766   4.233   3.004   2.353  1.7973  0.0447 -1.5905
    1SOL    HW3 5767   4.332   3.117   2.341 -0.5896  2.2975 -0.5625
    1SOL    MW4 5768   4.261   3.082   2.378  0.2503  0.3505 -0.7167
    1SOL     OW 5769   4.031   3.236   2.309 -0.0234  0.4844  0.1588
    1SOL    HW2 5770   4.024   3.324   2.347  0.0246  0.1729  0.9026
    1SOL    HW3 5771   4.107   3.197   2.352  0.0443  0.1319 -0.2774
    1SOL    MW4 5772   4.040   3.242   2.320 -0.0086  0.3970  0.1991
    1SOL     OW 5773   3.995   3.490   2.403  0.8190  0.3575 -0.6299
    1SOL    HW2 5774   4.073   3.532   2.368 -0.0916  1.8733 -0.8512
    1SOL    HW3 5775   3.922   3.539   2.366 -0.3170 -2.1880 -1.8875
    1SOL    MW4 5776   3.996   3.502   2.394  0.5491  0.2213 -0.8249
    1SOL     OW 5777   4.213   3.602   2.288 -0.0150 -0.1057 -0.0960
    1SOL    HW2 5778   4.223   3.695   2.308 -1.0008  0.1430 -0.7755
    1SOL    HW3 5779   4.209   3.598   2.193  0.0169 -0.8470 -0.0681
    1SOL    MW4 5780   4.214   3.614   2.278 -0.1402 -0.1705 -0.1822
    1SOL     OW 5781   4.223   3.880   2.375 -0.6551  0.2054  0.1182
    1SOL    HW2 5782   4.216   3.882   2.470 -0.9890 -1.1286  0.1351
    1SOL    HW3 5783   4.303   3.929   2.355 -0.5075  0.3631  1.0878
    1SOL    MW4 5784   4.232   3.887   2.385 -0.6795  0.0501  0.2484
    1SOL     OW 5785   4.034   4.040   2.263 -0.3709 -0.2274  0.2999
    1SOL    HW2 5786   4.101   3.979   2.292  1.0533  1.6048  0.8919
    1SOL    HW3 5787   4.031   4.028   2.168  0.9126 -0.1860  0.2526
    1SOL    MW4 5788   4.042   4.030   2.254 -0.0138  0.0200  0.3719
    1SOL     OW 5789   4.028   4.301   2.366 -0.2200  0.3058  0.4282
    1SOL    HW2 5790   4.098   4.355   2.331  0.6622 -0.0924  1.5373
    1SOL    HW3 5791   4.047   4.213   2.333  0.0101  0.1355  0.9895
    1SOL    MW4 5792   4.040   4.296   2.357 -0.0730  0.2308  0.6485
    1SOL     OW 5793   4.253   4.434   2.239  0.3158 -0.8162  0.3093
    1SOL    HW2 5794   4.247   4.522   2.277 -0.4097 -0.2069 -1.1954
    1SOL    HW3 5795   4.322   4.391   2.290  1.5680  1.0474  0.2413
    1SOL    MW4 5796   4.261   4.440   2.251  0.3858 -0.4902  0.1016
    1SOL     OW 5797   0.254   0.016   2.654 -0.2167  0.4559  0.2119
    1SOL    HW2 5798   0.258  -0.075   2.685 -0.2464  0.7454  1.0938
    1SOL    HW3 5799   0.180   0.054   2.701 -0.4688  0.8186 -0.4818
    1SOL    MW4 5800   0.245   0.009   2.665 -0.2539  0.5417  0.2365
    1SOL     OW 5801   0.005   0.121   2.775 -0.5002  0.0217  0.3046
    1SOL    HW2 5802  -0.011   0.134   2.868  1.1699  0.5415  0.5431
    1SOL    HW3 5803  -0.012   0.206   2.735  0.0230  0.1334  0.3191
    1SOL    MW4 5804   0.001   0.134   2.782 -0.2108  0.1050  0.3381
    1SOL     OW 5805   4.444   0.392   2.667  0.0204  0.0722 -0.2287
    1SOL    HW2 5806   4.516   0.444   2.704 -1.6871  2.0949  0.3062
    1SOL    HW3 5807   4.459   0.395   2.572  0.3857  0.8576 -0.1513
    1SOL    MW4 5808   4.456   0.399   2.659 -0.1569  0.4427 -0.1481
    1SOL     OW 5809   0.184   0.544   2.749 -0.3325  0.1598 -0.5546
    1SOL    HW2 5810   0.184   0.564   2.843 -0.8722 -0.4493 -0.4211
    1SOL    HW3 5811   0.258   0.485   2.736  1.0427  1.9078 -0.8857
    1SOL    MW4 5812   0.193   0.539   2.760 -0.2223  0.3100 -0.5805
    1SOL     OW 5813   0.197   0.789   2.636 -0.4283  0.0256  0.4009
    1SOL    HW2 5814   0.271   0.839   2.671  0.5009 -0.1233 -1.2985
    1SOL    HW3 5815   0.211   0.700   2.670 -1.0939  0.4968  1.9452
    1SOL    MW4 5816   0.209   0.784   2.645 -0.3935  0.0681  0.3803
    1SOL     OW 5817   4.460   0.897   2.754 -0.5431 -0.1374 -0.1705
    1SOL    HW2 5818   4.387   0.860   2.704 -0.4959  0.0145 -0.3480
    1SOL    HW3 5819   4.538   0.856   2.717 -0.6313 -1.2889  0.8775
    1SOL    MW4 5820   4.461   0.886   2.743 -0.5479 -0.2694 -0.0556
    1SOL     OW 5821   0.019   1.136   2.658 -0.2460  0.2074 -0.2300
    1SOL    HW2 5822   0.092   1.171   2.709  0.1685 -0.8369 -0.0896
    1SOL    HW3 5823  -0.001   1.052   2.700 -0.1338 -0.4951 -1.5584
    1SOL    MW4 5824   0.026   1.129   2.670 -0.1765 -0.0231 -0.3867
    1SOL     OW 5825   0.238   1.235   2.780 -0.3781 -0.0581  0.4377
    1SOL    HW2 5826   0.305   1.171   2.756 -0.1217  0.0378  0.8921
    1SOL    HW3 5827   0.255   1.310   2.723  0.4851  0.3294  1.2000
    1SOL    MW4 5828   0.249   1.236   2.769 -0.2304  0.0056  0.5980
    1SOL     OW 5829   0.236   1.473   2.640  0.0472  0.2519  0.2263
    1SOL    HW2 5830   0.307   1.529   2.671 -0.5801  1.1520  0.0451
    1SOL    HW3 5831   0.156   1.521   2.662 -0.4384  0.5229 -2.0306
    1SOL    MW4 5832   0.234   1.486   2.647 -0.0996  0.4064 -0.0954
    1SOL     OW 5833   0.032   1.630   2.719  0.0283  0.9171  0.0729
    1SOL    HW2 5834   0.016   1.625   2.814 -4.3102  0.9203 -0.5523
    1SOL    HW3 5835   0.005   1.719   2.696 -1.0775  0.2001 -1.4732
    1SOL    MW4 5836   0.026   1.641   2.729 -0.6900  0.8229 -0.2131
    1SOL     OW 5837   4.463   1.884   2.656  0.5457  0.0803 -0.5109
    1SOL    HW2 5838   4.541   1.930   2.686  0.7698 -0.3412 -0.4452
    1SOL    HW3 5839   4.452   1.911   2.565  1.2070 -0.4530 -0.7474
    1SOL    MW4 5840   4.472   1.893   2.648  0.6628 -0.0457 -0.5336
    1SOL     OW 5841   0.195   2.000   2.767 -0.1866  0.1231  0.3842
    1SOL    HW2 5842   0.267   1.955   2.722 -1.2635 -1.2921  0.0281
    1SOL    HW3 5843   0.199   2.090   2.735  2.0197  0.3248  1.1115
    1SOL    MW4 5844   0.205   2.006   2.757 -0.0376 -0.0370  0.4332
    1SOL     OW 5845   0.189   2.274   2.667 -0.0612  0.2624 -0.4848
    1SOL    HW2 5846   0.270   2.311   2.702 -0.6511  1.2480 -0.1282
    1SOL    HW3 5847   0.122   2.337   2.691 -1.1391 -1.1593  0.3294
    1SOL    MW4 5848   0.191   2.287   2.675 -0.2813  0.2048 -0.3304
    1SOL     OW 5849   4.473   2.440   2.729  0.1950 -0.5330  0.2356
    1SOL    HW2 5850   4.461   2.429   2.824  0.6900 -0.9644  0.2454
    1SOL    HW3 5851   4.408   2.381   2.690 -0.9807  0.6914  0.3036
    1SOL    MW4 5852   4.463   2.430   2.736  0.1049 -0.4284  0.2458
    1SOL     OW 5853   4.462   2.694   2.627  1.0498  0.1509  0.0356
    1SOL    HW2 5854   4.389   2.732   2.676 -1.2702 -1.4713 -1.9999
    1SOL    HW3 5855   4.470   2.605   2.661  1.3341 -0.0356 -0.5204
    1SOL    MW4 5856   4.453   2.688   2.638  0.7811 -0.0875 -0.3061
    1SOL     OW 5857   0.210   2.809   2.727 -0.2238 -0.5234 -0.3079
    1SOL    HW2 5858   0.202   2.901   2.702 -0.3916 -0.4107  0.1675
    1SOL    HW3 5859   0.126   2.770   2.701 -0.5753 -0.3095  0.4827
    1SOL    MW4 5860   0.198   2.816   2.720 -0.2923 -0.4804 -0.1407
    1SOL     OW 5861   0.173   3.111   2.659  0.2991 -0.6582  0.4537
    1SOL    HW2 5862   0.252   3.155   2.689 -1.0723  1.4627  1.1100
    1SOL    HW3 5863   0.176   3.118   2.563  0.7252 -0.2614  0.4940
    1SOL    MW4 5864   0.184   3.118   2.650  0.1744 -0.3259  0.5455
    1SOL     OW 5865   4.440   3.239   2.762 -0.0230  0.0734  0.0114
    1SOL    HW2 5866   4.363   3.197   2.725 -0.7835  2.1568 -0.8640
    1SOL    HW3 5867   4.514   3.193   2.722 -0.8007 -1.4595  0.3075
    1SOL    MW4 5868   4.440   3.227   2.752 -0.2260  0.1462 -0.0648
    1SOL     OW 5869   4.456   3.480   2.651  0.2574 -0.1789 -0.0280
    1SOL    HW2 5870   4.539   3.514   2.686  0.5203 -1.0350  0.1959
    1SOL    HW3 5871   4.442   3.399   2.699 -0.7534 -0.0022 -0.0237
    1SOL    MW4 5872   4.465   3.474   2.662  0.1583 -0.2685  0.0021
    1SOL     OW 5873   0.214   3.573   2.757  0.2043 -0.2223  0.5526
    1SOL    HW2 5874   0.210   3.586   2.851 -0.8126 -0.5537  0.5653
    1SOL    HW3 5875   0.302   3.539   2.740  0.8576  1.0896  1.2126
    1SOL    MW4 5876   0.225   3.570   2.767  0.1564 -0.0927  0.6416
    1SOL     OW 5877   0.172   3.839   2.662 -0.3075 -0.1762  0.4837
    1SOL    HW2 5878   0.181   3.748   2.690 -0.5232 -0.3919 -0.1459
    1SOL    HW3 5879   0.190   3.838   2.568  1.0718  0.6468  0.7140
    1SOL    MW4 5880   0.176   3.827   2.653 -0.1539 -0.0961  0.4313
    1SOL     OW 5881   4.448   3.997   2.736  0.0749 -0.5058 -0.4902
    1SOL    HW2 5882   4.489   4.083   2.724  1.7307 -1.3259 -0.8330
    1SOL    HW3 5883   4.511   3.935   2.699 -0.2624 -2.0416  1.4358
    1SOL    MW4 5884   4.462   4.000   2.729  0.2489 -0.8166 -0.2813
    1SOL     OW 5885   0.018   4.289   2.660  0.2164 -0.0065  0.1774
    1SOL    HW2 5886  -0.056   4.330   2.705 -0.3926 -1.1582  0.2433
    1SOL    HW3 5887   0.096   4.333   2.695 -0.4583  1.5811 -0.2855
    1SOL    MW4 5888   0.019   4.300   2.670  0.0472  0.0515  0.1252
    1SOL     OW 5889   0.251   4.420   2.738 -0.0711  0.2915 -0.1458
    1SOL    HW2 5890   0.239   4.416   2.833  0.9508  0.5309  0.0008
    1SOL    HW3 5891   0.328   4.366   2.722 -0.9474 -0.7306 -0.9817
    1SOL    MW4 5892   0.260   4.412   2.749 -0.0519  0.1879 -0.2370
    1SOL     OW 5893   0.680   4.625   2.618  0.6086 -0.0100 -0.5254
    1SOL    HW2 5894   0.760   4.652   2.664  0.5746  1.0107 -1.0616
    1SOL    HW3 5895   0.613   4.686   2.649  0.1400 -0.5447 -0.4677
    1SOL    MW4 5896   0.682   4.636   2.628  0.5422  0.0539 -0.5887
    1SOL     OW 5897   0.479   0.142   2.746 -0.5434  0.0290  0.0606
    1SOL    HW2 5898   0.465   0.152   2.841 -1.6813 -0.9119  0.0064
    1SOL    HW3 5899   0.398   0.101   2.715 -0.0195  0.0065 -1.2659
    1SOL    MW4 5900   0.466   0.138   2.755 -0.6244 -0.0981 -0.1216
    1SOL     OW 5901   0.385   0.389   2.655  0.4927 -0.0897 -0.0220
    1SOL    HW2 5902   0.457   0.450   2.672  0.3119 -0.0338  0.5354
    1SOL    HW3 5903   0.412   0.308   2.699  0.2719 -0.1099  0.0743
    1SOL    MW4 5904   0.398   0.386   2.663  0.4397 -0.0850  0.0641
    1SOL     OW 5905   0.639   0.511   2.756 -0.2266  0.1650  0.3573
    1SOL    HW2 5906   0.650   0.507   2.851 -0.7860 -0.9879  0.3910
    1SOL    HW3 5907   0.719   0.471   2.722 -0.1292  0.3666  0.3500
    1SOL    MW4 5908   0.651   0.505   2.764 -0.2875  0.0395  0.3607
    1SOL     OW 5909   0.661   0.745   2.618  0.4316 -0.6372  0.3134
    1SOL    HW2 5910   0.731   0.792   2.663  0.6983 -0.3026 -0.4487
    1SOL    HW3 5911   0.649   0.666   2.670  0.7710 -0.2794  0.9480
    1SOL    MW4 5912   0.669   0.741   2.631  0.5115 -0.5459  0.2966
    1SOL     OW 5913   0.447   0.865   2.745 -0.8593 -0.0198  0.4407
    1SOL    HW2 5914   0.470   0.956   2.729 -1.5645  0.2191  0.7639
    1SOL    HW3 5915   0.519   0.815   2.705 -0.2539  0.6798  0.6306
    1SOL    MW4 5916   0.460   0.870   2.738 -0.8725  0.1040  0.5081
    1SOL     OW 5917   0.470   1.129   2.672 -0.2789  0.4164 -0.1690
    1SOL    HW2 5918   0.553   1.171   2.696  0.3725 -0.3572 -1.0639
    1SOL    HW3 5919   0.460   1.149   2.579 -0.8237  0.0363 -0.1905
    1SOL    MW4 5920   0.480   1.137   2.663 -0.2648  0.2642 -0.2899
    1SOL     OW 5921   0.705   1.248   2.738  0.3305  0.5189 -0.1669
    1SOL    HW2 5922   0.703   1.255   2.834  1.3627 -1.1427 -0.0004
    1SOL    HW3 5923   0.795   1.224   2.717 -0.0586  0.1779 -1.5018
    1SOL    MW4 5924   0.716   1.246   2.748  0.4154  0.2546 -0.3209
    1SOL     OW 5925   0.719   1.518   2.646  0.3303  0.0913  0.5205
    1SOL    HW2 5926   0.638   1.558   2.675 -0.2211 -1.1152  0.6832
    1SOL    HW3 5927   0.717   1.430   2.683  0.4336 -0.8732 -1.6741
    1SOL    MW4 5928   0.708   1.512   2.655  0.2712 -0.1951  0.2525
    1SOL     OW 5929   0.470   1.629   2.708 -0.3020  0.2456 -0.2428
    1SOL    HW2 5930   0.476   1.652   2.801  2.1937  1.1363 -0.5806
    1SOL    HW3 5931   0.458   1.713   2.664 -1.0587 -0.1350 -0.7585
    1SOL    MW4 5932   0.469   1.643   2.715 -0.0726  0.3128 -0.3552
    1SOL     OW 5933   0.421   1.880   2.626  0.0626 -0.3222 -0.2175
    1SOL    HW2 5934   0.494   1.936   2.654  0.7746 -0.5357 -1.5923
    1SOL    HW3 5935   0.404   1.906   2.536 -1.9257  0.0723  0.2365
    1SOL    MW4 5936   0.429   1.891   2.618 -0.1058 -0.2984 -0.3393
    1SOL     OW 5937   0.655   2.013   2.716 -0.2485  0.3233 -0.3391
    1SOL    HW2 5938   0.654   2.021   2.812 -2.2913 -0.2527 -0.2950
    1SOL    HW3 5939   0.737   1.968   2.697 -0.2832 -0.4264  1.2112
    1SOL    MW4 5940   0.666   2.008   2.726 -0.5226  0.1483 -0.1285
    1SOL     OW 5941   0.658   2.257   2.591  0.1479 -0.1957  0.4977
    1SOL    HW2 5942   0.730   2.309   2.626  1.0276  0.2626 -1.8747
    1SOL    HW3 5943   0.672   2.170   2.628  0.5791  0.4373  1.8761
    1SOL    MW4 5944   0.669   2.252   2.600  0.3209 -0.0513  0.3667
    1SOL     OW 5945   0.433   2.405   2.716 -0.1064  0.2313  0.0249
    1SOL    HW2 5946   0.437   2.496   2.687 -0.7891  0.0509 -0.6514
    1SOL    HW3 5947   0.510   2.363   2.676  0.1951  0.5082  0.3201
    1SOL    MW4 5948   0.444   2.411   2.707 -0.1567  0.2439 -0.0255
    1SOL     OW 5949   0.440   2.676   2.647  0.2881  0.1844  0.6252
    1SOL    HW2 5950   0.503   2.736   2.687  0.0070 -0.2888  1.8056
    1SOL    HW3 5951   0.356   2.699   2.687 -0.3595  0.9891 -1.1348
    1SOL    MW4 5952   0.437   2.687   2.658  0.1656  0.2282  0.5486
    1SOL     OW 5953   0.664   2.804   2.716 -0.1743 -0.0022  0.0742
    1SOL    HW2 5954   0.676   2.794   2.811 -3.4589 -0.8974  0.4392
    1SOL    HW3 5955   0.659   2.898   2.702  2.5893  0.2534  0.4342
    1SOL    MW4 5956   0.665   2.815   2.727 -0.2430 -0.0863  0.1698
    1SOL     OW 5957   0.668   3.081   2.672 -0.1910  0.7944 -0.2840
    1SOL    HW2 5958   0.753   3.118   2.697  1.2162 -2.6030  0.3429
    1SOL    HW3 5959   0.663   3.095   2.578  1.4080  0.4549 -0.4401
    1SOL    MW4 5960   0.679   3.088   2.663  0.2056  0.3014 -0.2220
    1SOL     OW 5961   0.440   3.217   2.741  0.3316  0.1082  0.2345
    1SOL    HW2 5962   0.448   3.218   2.837  0.9467 -0.5243  0.1901
    1SOL    HW3 5963   0.506   3.155   2.712  0.4130  0.6035 -0.6375
    1SOL    MW4 5964   0.450   3.209   2.750  0.4235  0.0901  0.1140
    1SOL     OW 5965   0.463   3.488   2.673  0.1673  0.0484  0.1972
    1SOL    HW2 5966   0.462   3.393   2.686 -0.7024  0.1586  0.9916
    1SOL    HW3 5967   0.453   3.500   2.579 -1.9558 -0.6223  0.2980
    1SOL    MW4 5968   0.461   3.477   2.662 -0.2276 -0.0255  0.3152
    1SOL     OW 5969   0.687   3.628   2.753 -0.0703 -0.0805  0.3510
    1SOL    HW2 5970   0.672   3.638   2.847 -0.1386 -0.0921  0.3407
    1SOL    HW3 5971   0.614   3.575   2.722 -0.1590  0.0987  0.2525
    1SOL    MW4 5972   0.676   3.622   2.761 -0.0910 -0.0584  0.3366
    1SOL     OW 5973   0.648   3.885   2.665 -0.1378 -0.1392 -0.4695
    1SOL    HW2 5974   0.566   3.905   2.710 -0.6966 -0.8686 -1.1631
    1SOL    HW3 5975   0.673   3.798   2.697  0.2546 -0.0084 -0.4173
    1SOL    MW4 5976   0.641   3.876   2.675 -0.1597 -0.2182 -0.5543
    1SOL     OW 5977   0.403   3.992   2.785 -0.1873  0.1990 -0.4118
    1SOL    HW2 5978   0.406   4.072   2.732 -0.8625  0.5073  0.0119
    1SOL    HW3 5979   0.325   3.946   2.755  0.5726 -0.6423 -1.1310
    1SOL    MW4 5980   0.393   3.997   2.774 -0.1761  0.1290 -0.4508
    1SOL     OW 5981   0.445   4.242   2.677  0.2514 -0.1844  0.3940
    1SOL    HW2 5982   0.522   4.294   2.701  1.2217 -1.3147 -0.1817
    1SOL    HW3 5983   0.436   4.254   2.582 -0.8650  0.7116  0.6129
    1SOL    MW4 5984   0.454   4.250   2.668  0.2321 -0.2155  0.3469
    1SOL     OW 5985   0.661   4.405   2.765  0.4970  0.0899 -0.1583
    1SOL    HW2 5986   0.725   4.337   2.747  0.9250  0.3547  0.3658
    1SOL    HW3 5987   0.682   4.475   2.702  0.4912  0.0286 -0.2291
    1SOL    MW4 5988   0.672   4.405   2.754  0.5527  0.1163 -0.0985
    1SOL     OW 5989   1.126   4.600   2.662 -0.2548 -0.1690  0.3486
    1SOL    HW2 5990   1.210   4.636   2.691 -0.4726  0.7418 -0.1243
    1SOL    HW3 5991   1.128   4.509   2.690  0.6730 -0.0136  0.8098
    1SOL    MW4 5992   1.138   4.593   2.669 -0.1612 -0.0281  0.3469
    1SOL     OW 5993   0.897   0.056   2.751  0.3120 -0.1448 -0.4568
    1SOL    HW2 5994   0.908   0.087   2.841 -0.7859 -0.0944 -0.3398
    1SOL    HW3 5995   0.985   0.027   2.725  0.4097 -1.1914  0.9971
    1SOL    MW4 5996   0.910   0.056   2.760  0.1801 -0.2763 -0.2494
    1SOL     OW 5997   0.852   0.333   2.663  0.0856  0.5001  0.1845
    1SOL    HW2 5998   0.859   0.244   2.697  0.2934  0.5161  0.1856
    1SOL    HW3 5999   0.837   0.322   2.570 -0.9967  0.4488  0.3679
    1SOL    MW4 6000   0.851   0.320   2.655 -0.0297  0.4954  0.2091
    1SOL     OW 6001   1.085   0.438   2.750  0.0739 -0.0822 -0.1222
    1SOL    HW2 6002   1.088   0.529   2.719 -0.3744  0.1108  0.3765
    1SOL    HW3 6003   1.010   0.399   2.705  0.3351 -0.2347 -0.4213
    1SOL    MW4 6004   1.076   0.445   2.740  0.0492 -0.0768 -0.0961
    1SOL     OW 6005   1.083   0.715   2.658 -0.2092  0.2051  0.1122
    1SOL    HW2 6006   1.159   0.767   2.685 -0.2049  0.5850 -0.6202
    1SOL    HW3 6007   1.085   0.716   2.562  0.6396 -2.4107  0.0797
    1SOL    MW4 6008   1.093   0.722   2.649 -0.0966 -0.0899  0.0114
    1SOL     OW 6009   0.875   0.872   2.726  0.1005  0.1352  0.4424
    1SOL    HW2 6010   0.880   0.886   2.821  0.1118 -0.5755  0.5436
    1SOL    HW3 6011   0.950   0.817   2.705  0.5789  0.9720 -0.1142
    1SOL    MW4 6012   0.886   0.867   2.736  0.1652  0.1518  0.3822
    1SOL     OW 6013   0.935   1.130   2.635  0.1939  0.0981 -0.4935
    1SOL    HW2 6014   0.924   1.037   2.654  0.2978 -0.0048 -0.9294
    1SOL    HW3 6015   0.893   1.142   2.549 -1.4163  0.8071  0.3605
    1SOL    MW4 6016   0.928   1.119   2.626 -0.0049  0.1781 -0.4385
    1SOL     OW 6017   1.149   1.264   2.784  0.0478 -0.0299  0.2595
    1SOL    HW2 6018   1.146   1.358   2.766  1.0847  0.0560  0.5092
    1SOL    HW3 6019   1.073   1.228   2.739 -1.1427  1.1209  1.3116
    1SOL    MW4 6020   1.138   1.271   2.776  0.0274  0.1332  0.4313
    1SOL     OW 6021   1.176   1.524   2.689 -0.3004 -0.1472 -0.1923
    1SOL    HW2 6022   1.102   1.579   2.716 -1.1888 -1.6557  0.4674
    1SOL    HW3 6023   1.172   1.525   2.593 -0.7919  0.3020 -0.1692
    1SOL    MW4 6024   1.166   1.532   2.680 -0.4826 -0.2867 -0.1020
    1SOL     OW 6025   0.932   1.670   2.761  0.3384  0.6994 -0.2425
    1SOL    HW2 6026   0.913   1.699   2.851  2.5256  0.6679  0.2656
    1SOL    HW3 6027   0.852   1.626   2.732 -1.3047  2.8811  0.7785
    1SOL    MW4 6028   0.919   1.668   2.769  0.4103  0.9832 -0.0408
    1SOL     OW 6029   0.916   1.916   2.609 -0.3042  0.2770 -0.0415
    1SOL    HW2 6030   0.979   1.972   2.653  0.9419 -0.4544 -0.8638
    1SOL    HW3 6031   0.915   1.835   2.660 -0.8372  0.4115  0.1661
    1SOL    MW4 6032   0.924   1.913   2.621 -0.2101  0.1982 -0.1228
    1SOL     OW 6033   1.119   2.066   2.743 -0.4687  0.2547  0.7090
    1SOL    HW2 6034   1.186   2.027   2.688 -0.9055  0.3815  0.0780
    1SOL    HW3 6035   1.104   2.153   2.705 -0.1884  0.6565  1.5197
    1SOL    MW4 6036   1.126   2.072   2.731 -0.4894  0.3242  0.7329
    1SOL     OW 6037   1.098   2.313   2.618  0.9278 -0.9655  0.5974
    1SOL    HW2 6038   1.179   2.361   2.636  0.6422 -0.0390 -0.4646
    1SOL    HW3 6039   1.085   2.323   2.523 -0.7579 -0.5442  0.8533
    1SOL    MW4 6040   1.107   2.321   2.608  0.6677 -0.7877  0.4909
    1SOL     OW 6041   0.849   2.422   2.695  0.3049 -0.1995 -0.1699
    1SOL    HW2 6042   0.864   2.514   2.670 -0.3429  0.1193  0.6047
    1SOL    HW3 6043   0.934   2.380   2.680  1.1660  0.9477  1.2705
    1SOL    MW4 6044   0.862   2.429   2.690  0.3330 -0.0060  0.1223
    1SOL     OW 6045   0.887   2.675   2.600  0.1128 -0.5752  0.5400
    1SOL    HW2 6046   0.949   2.724   2.654 -0.0503  0.6884 -0.4206
    1SOL    HW3 6047   0.801   2.707   2.627  0.0389  0.2418 -0.6383
    1SOL    MW4 6048   0.884   2.686   2.611  0.0816 -0.3006  0.2580
    1SOL     OW 6049   1.083   2.832   2.727  0.0000  0.0000 -0.1646
    1SOL    HW2 6050   1.106   2.825   2.820  0.0000  0.0000 -0.1651
    1SOL    HW3 6051   1.159   2.795   2.681  0.0000  0.0000 -0.1670
    1SOL    MW4 6052   1.096   2.826   2.733  0.0000  0.0000 -0.1650
    1SOL     OW 6053   1.148   3.096   2.628  0.0000  0.0000  0.2082
    1SOL    HW2 6054   1.122   3.007   2.651  0.0000  0.0000  0.2079
    1SOL    HW3 6055   1.136   3.101   2.533  0.0000  0.0000  0.2083
    1SOL    MW4 6056   1.143   3.085   2.618  0.0000  0.0000  0.2081
    1SOL     OW 6057   0.919   3.208   2.751  0.0000  0.0000 -0.1472
    1SOL    HW2 6058   0.902   3.286   2.698  0.0000  0.0000 -0.1569
    1SOL    HW3 6059   1.006   3.179   2.722  0.0000  0.0000 -0.1405
    1SOL    MW4 6060   0.928   3.214   2.740  0.0000  0.0000 -0.1478
    1SOL     OW 6061   0.887   3.462   2.653  0.0000  0.0000  0.4816
    1SOL    HW2 6062   0.961   3.507   2.694  0.0000  0.0000  0.4554
    1SOL    HW3 6063   0.810   3.511   2.682  0.0000  0.0000  0.5190
    1SOL    MW4 6064   0.887   3.475   2.662  0.0000  0.0000  0.4833
    1SOL     OW 6065   1.102   3.599   2.747  0.0000  0.0000 -0.6553
    1SOL    HW2 6066   1.101   3.626   2.839  0.0000  0.0000 -0.6558
    1SOL    HW3 6067   1.100   3.681   2.698  0.0000  0.0000 -0.6565
    1SOL    MW4 6068   1.102   3.613   2.752  0.0000  0.0000 -0.6557
    1SOL     OW 6069   1.098   3.851   2.631  0.0000  0.0000  0.3409
    1SOL    HW2 6070   1.178   3.889   2.669  0.0000  0.0000  0.3429
    1SOL    HW3 6071   1.110   3.859   2.537  0.0000  0.0000  0.3411
    1SOL    MW4 6072   1.110   3.857   2.624  0.0000  0.0000  0.3412
    1SOL     OW 6073   0.893   4.008   2.759  0.0000  0.0000  0.2271
    1SOL    HW2 6074   0.958   3.963   2.705  0.0000  0.0000  0.2464
    1SOL    HW3 6075   0.809   3.970   2.732  0.0000  0.0000  0.2049
    1SOL    MW4 6076   0.891   3.997   2.749  0.0000  0.0000  0.2265
    1SOL     OW 6077   0.888   4.266   2.685  0.0000  0.0000 -0.1250
    1SOL    HW2 6078   0.892   4.174   2.710  0.0000  0.0000 -0.1323
    1SOL    HW3 6079   0.884   4.265   2.589  0.0000  0.0000 -0.1249
    1SOL    MW4 6080   0.888   4.254   2.675  0.0000  0.0000 -0.1259
    1SOL     OW 6081   1.144   4.351   2.763  0.0000  0.0000 -0.0590
    1SOL    HW2 6082   1.137   4.378   2.854  0.0000  0.0000 -0.0585
    1SOL    HW3 6083   1.055   4.327   2.738  0.0000  0.0000 -0.0644
    1SOL    MW4 6084   1.131   4.351   2.771  0.0000  0.0000 -0.0596
    1SOL     OW 6085   1.598   4.603   2.662 -0.2908 -0.1543 -0.4830
    1SOL    HW2 6086   1.610   4.514   2.696 -0.0444  0.6143  1.4962
    1SOL    HW3 6087   1.598   4.592   2.566  0.2021 -2.2139 -0.2753
    1SOL    MW4 6088   1.600   4.590   2.654 -0.1934 -0.3247 -0.1943
    1SOL     OW 6089   1.360   0.050   2.742  0.0984  0.1400  0.3116
    1SOL    HW2 6090   1.359   0.141   2.712 -0.4926  0.1209  0.2772
    1SOL    HW3 6091   1.438   0.012   2.702 -0.1766  0.3750 -0.4395
    1SOL    MW4 6092   1.370   0.057   2.733 -0.0160  0.1685  0.2079
    1SOL     OW 6093   1.344   0.321   2.677 -0.5150  0.5071 -0.0576
    1SOL    HW2 6094   1.416   0.380   2.701 -1.4003  1.1854  1.0025
    1SOL    HW3 6095   1.266   0.364   2.712 -1.2041 -1.1551  0.4861
    1SOL    MW4 6096   1.344   0.334   2.685 -0.7228  0.3773  0.1543
    1SOL     OW 6097   1.567   0.504   2.727  0.3990  0.1458 -0.1621
    1SOL    HW2 6098   1.651   0.464   2.703  0.6029  0.8215 -0.5951
    1SOL    HW3 6099   1.569   0.590   2.685 -0.1195  0.5287  0.5856
    1SOL    MW4 6100   1.579   0.510   2.718  0.3575  0.2855 -0.1206
    1SOL     OW 6101   1.547   0.787   2.660 -0.1527 -0.2259  0.5785
    1SOL    HW2 6102   1.460   0.819   2.681 -0.1600 -0.2540  0.5915
    1SOL    HW3 6103   1.556   0.803   2.566 -0.3233 -0.5803  0.4993
    1SOL    MW4 6104   1.537   0.793   2.650 -0.1763 -0.2763  0.5696
    1SOL     OW 6105   1.286   0.902   2.737  0.0467  0.3673 -0.2045
    1SOL    HW2 6106   1.310   0.902   2.829 -1.8696  0.3486  0.3199
    1SOL    HW3 6107   1.300   0.993   2.708  0.1477  0.4909  0.2344
    1SOL    MW4 6108   1.291   0.914   2.745 -0.1929  0.3811 -0.0775
    1SOL     OW 6109   1.360   1.159   2.633 -0.0467  0.1598  0.2458
    1SOL    HW2 6110   1.434   1.190   2.685 -0.3200  1.3079 -0.0416
    1SOL    HW3 6111   1.285   1.207   2.667 -0.4327 -0.0048 -0.3652
    1SOL    MW4 6112   1.360   1.169   2.644 -0.1338  0.2896  0.1271
    1SOL     OW 6113   1.588   1.254   2.747 -0.2101  0.0705 -0.7572
    1SOL    HW2 6114   1.571   1.218   2.834 -0.4268  0.9438 -0.4365
    1SOL    HW3 6115   1.665   1.206   2.716 -0.2039 -0.3280 -0.1377
    1SOL    MW4 6116   1.596   1.243   2.754 -0.2378  0.1333 -0.6332
    1SOL     OW 6117   1.607   1.505   2.628 -0.1731  0.0154 -0.5980
    1SOL    HW2 6118   1.603   1.412   2.649  0.8217 -0.0361 -0.5767
    1SOL    HW3 6119   1.606   1.508   2.533  1.1114 -0.1122 -0.6322
    1SOL    MW4 6120   1.607   1.493   2.619  0.1274 -0.0083 -0.5996
    1SOL     OW 6121   1.399   1.670   2.758 -0.6547  0.3829  0.5595
    1SOL    HW2 6122   1.474   1.618   2.727  0.6950  1.5395  1.8110
    1SOL    HW3 6123   1.323   1.615   2.740  0.6618 -1.6623  1.0519
    1SOL    MW4 6124   1.399   1.655   2.752 -0.3030  0.2656  0.7894
    1SOL     OW 6125   1.333   1.917   2.632 -0.2648 -0.0747 -0.4675
    1SOL    HW2 6126   1.343   1.831   2.672  0.2712 -0.4479 -1.3767
    1SOL    HW3 6127   1.334   1.900   2.538  1.6571  1.0878 -0.7013
    1SOL    MW4 6128   1.334   1.903   2.625  0.0595  0.0294 -0.6182
    1SOL     OW 6129   1.569   2.067   2.720 -0.2184  0.0878 -0.3521
    1SOL    HW2 6130   1.643   2.006   2.721 -1.1920 -1.1117 -0.3273
    1SOL    HW3 6131   1.497   2.017   2.681 -0.8908  1.3963 -0.8237
    1SOL    MW4 6132   1.569   2.052   2.715 -0.4356  0.1023 -0.4110
    1SOL     OW 6133   1.571   2.322   2.613 -0.0234 -0.0965  0.4557
    1SOL    HW2 6134   1.625   2.371   2.675 -0.9132  0.3520  0.8934
    1SOL    HW3 6135   1.576   2.231   2.644  0.5365 -0.0712  0.4451
    1SOL    MW4 6136   1.579   2.316   2.625 -0.0669 -0.0339  0.5121
    1SOL     OW 6137   1.330   2.462   2.674  0.3330  0.2564 -0.1871
    1SOL    HW2 6138   1.348   2.549   2.639  0.5614  0.2664 -0.0489
    1SOL    HW3 6139   1.410   2.412   2.655  0.4280  0.2395  0.2455
    1SOL    MW4 6140   1.343   2.467   2.667  0.3757  0.2553 -0.1118
    1SOL     OW 6141   1.326   2.755   2.626 -0.0157 -0.2416  0.5620
    1SOL    HW2 6142   1.412   2.778   2.662 -0.7852  0.9745  1.6559
    1SOL    HW3 6143   1.341   2.744   2.532  1.8149 -2.4049  1.0425
    1SOL    MW4 6144   1.339   2.756   2.619  0.1242 -0.3667  0.7699
    1SOL     OW 6145   1.563   2.831   2.750 -0.0400 -0.6459  0.2531
    1SOL    HW2 6146   1.565   2.845   2.845  0.3587 -0.2249  0.1875
    1SOL    HW3 6147   1.651   2.801   2.728 -0.7401 -2.7765  0.3026
    1SOL    MW4 6148   1.575   2.829   2.760 -0.0799 -0.8714  0.2511
    1SOL     OW 6149   1.591   3.080   2.642 -0.3921  0.1099 -0.1596
    1SOL    HW2 6150   1.655   3.122   2.700  1.6652 -0.4434 -1.9646
    1SOL    HW3 6151   1.579   2.993   2.679 -0.2381  0.2810  0.2990
    1SOL    MW4 6152   1.598   3.074   2.654 -0.1004  0.0596 -0.3374
    1SOL     OW 6153   1.373   3.200   2.753  0.5823  0.0562 -0.0243
    1SOL    HW2 6154   1.446   3.157   2.710  1.5558  0.2717  1.3747
    1SOL    HW3 6155   1.295   3.165   2.710  1.4899 -0.3613 -1.3544
    1SOL    MW4 6156   1.372   3.190   2.742  0.8305  0.0293 -0.0153
    1SOL     OW 6157   1.336   3.464   2.657  0.2083  0.4152  0.4872
    1SOL    HW2 6158   1.332   3.377   2.699  0.2823  0.7674  1.2308
    1SOL    HW3 6159   1.261   3.511   2.694 -0.9252  0.0630 -1.3076
    1SOL    MW4 6160   1.326   3.459   2.667  0.0684  0.4151  0.3486
    1SOL     OW 6161   1.582   3.553   2.774 -0.2781 -0.0368  0.2449
    1SOL    HW2 6162   1.656   3.526   2.720 -0.9346  1.2102 -1.3084
    1SOL    HW3 6163   1.505   3.514   2.731 -0.8700  1.5053 -0.1091
    1SOL    MW4 6164   1.582   3.544   2.761 -0.4427  0.3309 -0.0064
    1SOL     OW 6165   1.586   3.820   2.630  0.0026 -0.1989 -0.2207
    1SOL    HW2 6166   1.502   3.851   2.665  0.5683  0.3469  0.6903
    1SOL    HW3 6167   1.600   3.735   2.673  1.2123  0.9644  1.7492
    1SOL    MW4 6168   1.577   3.813   2.641  0.2369  0.0265  0.1593
    1SOL     OW 6169   1.363   3.968   2.731 -0.3100  0.0239  0.1229
    1SOL    HW2 6170   1.356   4.003   2.820 -1.4410  1.1703 -0.3905
    1SOL    HW3 6171   1.393   4.043   2.679 -0.3743 -0.4405 -0.5817
    1SOL    MW4 6172   1.366   3.983   2.736 -0.4677  0.1140 -0.0379
    1SOL     OW 6173   1.370   4.242   2.642 -0.0174  0.1350 -0.4000
    1SOL    HW2 6174   1.290   4.276   2.683  0.6576  0.8500  0.3698
    1SOL    HW3 6175   1.348   4.233   2.550 -1.1596 -0.2120 -0.1021
    1SOL    MW4 6176   1.357   4.246   2.635 -0.0790  0.1836 -0.2589
    1SOL     OW 6177   1.596   4.348   2.752  0.4852  0.2083 -0.1382
    1SOL    HW2 6178   1.584   4.347   2.847  0.9831 -1.6198 -0.0756
    1SOL    HW3 6179   1.512   4.318   2.716  0.7337 -0.3687 -0.2296
    1SOL    MW4 6180   1.583   4.344   2.759  0.5836 -0.1087 -0.1419
    1SOL     OW 6181   2.038   4.629   2.646  0.8969  0.4116 -0.3358
    1SOL    HW2 6182   2.110   4.690   2.664  2.2520 -1.3432  0.2636
    1SOL    HW3 6183   2.023   4.638   2.552  0.4661  2.3361 -0.1025
    1SOL    MW4 6184   2.046   4.638   2.636  1.0188  0.4334 -0.2258
    1SOL     OW 6185   1.816   0.093   2.734  0.3846  0.3765 -0.2187
    1SOL    HW2 6186   1.892   0.042   2.706  1.3273  0.3942  2.1578
    1SOL    HW3 6187   1.741   0.038   2.713  1.1139 -0.0887 -1.6616
    1SOL    MW4 6188   1.816   0.079   2.728  0.6051  0.3175 -0.0956
    1SOL     OW 6189   1.799   0.370   2.671 -0.6713  0.2847  0.1325
    1SOL    HW2 6190   1.877   0.405   2.714 -0.7891 -0.4238  0.9519
    1SOL    HW3 6191   1.792   0.280   2.704 -0.6067 -0.3803 -1.6149
    1SOL    MW4 6192   1.808   0.363   2.681 -0.6783  0.1035  0.0103
    1SOL     OW 6193   2.029   0.488   2.773  0.5543  0.3519  0.2440
    1SOL    HW2 6194   2.104   0.438   2.741  0.0797  0.2811 -0.7754
    1SOL    HW3 6195   2.034   0.572   2.726  0.1128  0.4183  0.3093
    1SOL    MW4 6196   2.039   0.493   2.762  0.4332  0.3513  0.1180
    1SOL     OW 6197   2.029   0.750   2.691  0.5522 -0.2701 -0.0241
    1SOL    HW2 6198   1.944   0.784   2.717  1.0337  1.3445 -0.4644
    1SOL    HW3 6199   2.025   0.747   2.595  1.6867  1.8041 -0.1704
    1SOL    MW4 6200   2.017   0.754   2.682  0.7653  0.2166 -0.1013
    1SOL     OW 6201   1.794   0.858   2.757 -0.0405  0.6614 -0.6805
    1SOL    HW2 6202   1.799   0.941   2.710  0.1719  0.9991 -0.0661
    1SOL    HW3 6203   1.706   0.824   2.738  0.4541  0.2118 -2.2836
    1SOL    MW4 6204   1.783   0.864   2.748  0.0528  0.6465 -0.8109
    1SOL     OW 6205   1.795   1.106   2.628 -0.5021  0.5295 -0.3084
    1SOL    HW2 6206   1.857   1.171   2.659 -0.5310  1.1586 -1.5671
    1SOL    HW3 6207   1.808   1.103   2.533 -1.8559  0.1247 -0.4903
    1SOL    MW4 6208   1.805   1.114   2.619 -0.6845  0.5590 -0.4983
    1SOL     OW 6209   2.013   1.267   2.678 -0.1291 -0.1597 -0.3625
    1SOL    HW2 6210   2.006   1.242   2.771  0.1081 -0.8136 -0.5163
    1SOL    HW3 6211   2.100   1.237   2.652 -1.3568 -2.7850 -1.6180
    1SOL    MW4 6212   2.024   1.260   2.687 -0.2596 -0.5924 -0.5484
    1SOL     OW 6213   2.033   1.541   2.622  0.0638  0.1865 -0.4221
    1SOL    HW2 6214   1.954   1.581   2.658 -0.9334  0.8117 -3.1389
    1SOL    HW3 6215   2.027   1.449   2.647  0.5529  0.9641  2.8171
    1SOL    MW4 6216   2.022   1.534   2.630 -0.0033  0.3715 -0.3533
    1SOL     OW 6217   1.820   1.651   2.735  0.4985  0.2553  0.1981
    1SOL    HW2 6218   1.810   1.635   2.829  0.4007  1.5674  0.4207
    1SOL    HW3 6219   1.741   1.614   2.696  0.8028 -0.8002  0.5636
    1SOL    MW4 6220   1.808   1.644   2.742  0.5256  0.2891  0.2759
    1SOL     OW 6221   1.794   1.904   2.616  0.1844  0.0807  0.1908
    1SOL    HW2 6222   1.869   1.954   2.648 -0.3480  1.7444 -1.1059
    1SOL    HW3 6223   1.806   1.817   2.654  3.0716  0.1451 -0.4511
    1SOL    MW4 6224   1.805   1.899   2.626  0.4952  0.3089 -0.0648
    1SOL     OW 6225   2.038   2.039   2.691  0.3422 -0.1285 -0.1710
    1SOL    HW2 6226   2.039   2.047   2.787  0.6270 -0.0742 -0.1791
    1SOL    HW3 6227   2.001   2.122   2.661  0.2200 -0.1592 -0.1086
    1SOL    MW4 6228   2.033   2.051   2.700  0.3636 -0.1254 -0.1643
    1SOL     OW 6229   1.976   2.295   2.626  0.0847  0.1945  0.2156
    1SOL    HW2 6230   2.052   2.334   2.669 -1.1924  2.1456  0.7961
    1SOL    HW3 6231   1.994   2.305   2.532  0.8697 -0.0033  0.3443
    1SOL    MW4 6232   1.988   2.302   2.619  0.0198  0.4256  0.3092
    1SOL     OW 6233   1.778   2.463   2.755 -0.5093 -0.3455 -0.0790
    1SOL    HW2 6234   1.789   2.449   2.849 -2.2620 -0.2345  0.1646
    1SOL    HW3 6235   1.832   2.395   2.714 -0.5520 -1.0584  1.0156
    1SOL    MW4 6236   1.787   2.452   2.762 -0.7463 -0.4249  0.0975
    1SOL     OW 6237   1.790   2.714   2.644 -0.3119 -0.2540  0.0262
    1SOL    HW2 6238   1.795   2.630   2.688  0.1457 -0.9063 -1.2459
    1SOL    HW3 6239   1.790   2.693   2.550  1.0202  1.2123 -0.3260
    1SOL    MW4 6240   1.790   2.700   2.637 -0.0757 -0.1469 -0.1881
    1SOL     OW 6241   2.004   2.840   2.752  0.1035  0.1848 -0.0580
    1SOL    HW2 6242   2.086   2.805   2.717 -0.5531 -1.0830 -0.3685
    1SOL    HW3 6243   1.935   2.794   2.702 -0.8165 -0.2291  1.5686
    1SOL    MW4 6244   2.005   2.830   2.740 -0.1047 -0.0367  0.1156
    1SOL     OW 6245   1.994   3.106   2.646 -0.1329 -0.4011  0.2091
    1SOL    HW2 6246   1.974   3.016   2.672  0.1973 -0.6087 -0.2383
    1SOL    HW3 6247   2.000   3.102   2.550 -0.4777  0.1705  0.1593
    1SOL    MW4 6248   1.992   3.094   2.637 -0.1349 -0.3529  0.1438
    1SOL     OW 6249   1.783   3.241   2.766  0.8070  0.1906 -0.1154
    1SOL    HW2 6250   1.776   3.326   2.723  0.0958  0.5949  0.7798
    1SOL    HW3 6251   1.869   3.208   2.741  2.3095  2.4724  1.8650
    1SOL    MW4 6252   1.793   3.248   2.757  0.9114  0.5448  0.2639
    1SOL     OW 6253   1.809   3.484   2.651  0.3745 -0.5970  0.0438
    1SOL    HW2 6254   1.891   3.515   2.689  0.0660  0.9892 -0.5672
    1SOL    HW3 6255   1.818   3.502   2.557 -0.1917 -1.5018 -0.1920
    1SOL    MW4 6256   1.821   3.490   2.643  0.2592 -0.5071 -0.0679
    1SOL     OW 6257   2.034   3.621   2.743  0.2062  0.4382 -0.9145
    1SOL    HW2 6258   2.031   3.600   2.837 -2.0763  1.3301 -0.7598
    1SOL    HW3 6259   2.107   3.570   2.710  1.0862  0.1467  1.3711
    1SOL    MW4 6260   2.043   3.612   2.751  0.0210  0.5171 -0.5927
    1SOL     OW 6261   2.005   3.877   2.655  0.3907 -0.4767 -0.1607
    1SOL    HW2 6262   1.928   3.919   2.694  0.2711  0.2592 -1.1691
    1SOL    HW3 6263   2.003   3.788   2.689 -0.6198 -0.3218  0.2251
    1SOL    MW4 6264   1.995   3.871   2.665  0.2414 -0.3593 -0.2432
    1SOL     OW 6265   1.779   3.982   2.771  0.0819  0.1408 -0.2532
    1SOL    HW2 6266   1.798   4.064   2.727  0.4363  0.4048  0.3895
    1SOL    HW3 6267   1.721   3.935   2.711  1.1404  0.1793 -1.3372
    1SOL    MW4 6268   1.774   3.986   2.757  0.2685  0.1807 -0.3116
    1SOL     OW 6269   1.834   4.229   2.666 -0.1096 -0.3687 -0.0985
    1SOL    HW2 6270   1.753   4.260   2.708  0.8568  1.3046  0.6035
    1SOL    HW3 6271   1.829   4.264   2.577 -0.7101 -1.2787 -0.4255
    1SOL    MW4 6272   1.822   4.238   2.660 -0.0614 -0.2685 -0.0491
    1SOL     OW 6273   2.043   4.379   2.758  0.5107  0.0749  0.3427
    1SOL    HW2 6274   1.965   4.334   2.726  0.9523  0.6261 -1.5100
    1SOL    HW3 6275   2.035   4.468   2.727  0.4657  0.9098  2.6204
    1SOL    MW4 6276   2.032   4.385   2.750  0.5631  0.2570  0.3989
    1SOL     OW 6277   2.467   4.641   2.648 -0.3389 -0.0589 -0.0811
    1SOL    HW2 6278   2.528   4.700   2.691 -0.5204  0.0152  0.0753
    1SOL    HW3 6279   2.486   4.651   2.555 -0.2498  0.1139 -0.0446
    1SOL    MW4 6280   2.477   4.650   2.641 -0.3510 -0.0262 -0.0558
    1SOL     OW 6281   2.251   0.101   2.765 -0.1123  0.6727 -0.6498
    1SOL    HW2 6282   2.244   0.065   2.854  0.3232  0.7021 -0.6001
    1SOL    HW3 6283   2.336   0.069   2.734 -0.6649 -0.0972 -1.3949
    1SOL    MW4 6284   2.261   0.092   2.772 -0.1278  0.5750 -0.7417
    1SOL     OW 6285   2.248   0.376   2.648 -0.0775 -0.0071  0.2894
    1SOL    HW2 6286   2.248   0.286   2.681  0.4741 -1.2758 -2.9594
    1SOL    HW3 6287   2.226   0.367   2.555 -1.8748  3.4029  0.3170
    1SOL    MW4 6288   2.245   0.363   2.640 -0.2420  0.2754 -0.1352
    1SOL     OW 6289   2.472   0.509   2.740  0.3850  0.1976 -0.1343
    1SOL    HW2 6290   2.462   0.596   2.701 -1.1481  0.5627  0.9993
    1SOL    HW3 6291   2.403   0.457   2.698  1.0020 -0.3410 -0.4752
    1SOL    MW4 6292   2.461   0.514   2.729  0.2642  0.1747 -0.0300
    1SOL     OW 6293   2.468   0.778   2.672 -0.3417  0.1045 -0.2732
    1SOL    HW2 6294   2.392   0.815   2.718  0.1371 -0.8633  1.3460
    1SOL    HW3 6295   2.461   0.812   2.583 -2.1024  0.8681  0.1301
    1SOL    MW4 6296   2.457   0.787   2.667 -0.5109  0.0775 -0.0064
    1SOL     OW 6297   2.229   0.926   2.763  0.3469 -0.1444  0.4021
    1SOL    HW2 6298   2.236   0.929   2.858 -1.2276 -0.2381  0.5381
    1SOL    HW3 6299   2.152   0.872   2.746  0.6225 -0.1480 -0.9357
    1SOL    MW4 6300   2.220   0.919   2.773  0.1755 -0.1573  0.2437
    1SOL     OW 6301   2.263   1.165   2.628  0.7157 -0.3330  0.0096
    1SOL    HW2 6302   2.265   1.090   2.688 -0.1140 -0.4824 -0.1554
    1SOL    HW3 6303   2.270   1.127   2.541  0.2186 -0.2190 -0.0785
    1SOL    MW4 6304   2.264   1.150   2.625  0.5405 -0.3376 -0.0241
    1SOL     OW 6305   2.493   1.248   2.743  0.3916  0.6839  0.0128
    1SOL    HW2 6306   2.561   1.197   2.700  0.0407  1.7706 -1.9429
    1SOL    HW3 6307   2.413   1.225   2.695 -0.0384  1.8057  0.1782
    1SOL    MW4 6308   2.491   1.238   2.731  0.2885  0.9753 -0.2236
    1SOL     OW 6309   2.487   1.503   2.613  0.4509  0.2777  0.1342
    1SOL    HW2 6310   2.405   1.541   2.642  0.3604 -0.2442  0.5761
    1SOL    HW3 6311   2.500   1.427   2.670  0.8831 -0.0532 -0.3966
    1SOL    MW4 6312   2.478   1.498   2.624  0.4959  0.1653  0.1225
    1SOL     OW 6313   2.267   1.624   2.721  0.3451  0.0187 -0.3815
    1SOL    HW2 6314   2.257   1.713   2.689 -0.8893  0.9536  2.3882
    1SOL    HW3 6315   2.185   1.580   2.695  1.5025 -0.7377 -2.8933
    1SOL    MW4 6316   2.255   1.630   2.713  0.3350  0.0422 -0.3476
    1SOL     OW 6317   2.231   1.884   2.587 -0.1860 -0.3483  0.0647
    1SOL    HW2 6318   2.159   1.939   2.615  0.3519 -0.4678  1.7620
    1SOL    HW3 6319   2.234   1.893   2.492 -0.8372  1.6107  0.2253
    1SOL    MW4 6320   2.222   1.892   2.578 -0.2012 -0.1056  0.3097
    1SOL     OW 6321   2.448   1.984   2.718  0.0197 -0.5122 -0.2551
    1SOL    HW2 6322   2.436   2.073   2.685 -0.5103  0.2289  1.8493
    1SOL    HW3 6323   2.382   1.932   2.672  0.1270  0.2355 -1.2603
    1SOL    MW4 6324   2.438   1.989   2.708 -0.0360 -0.3158 -0.1101
    1SOL     OW 6325   2.476   2.259   2.640 -0.1852 -0.5809  0.5950
    1SOL    HW2 6326   2.557   2.297   2.674 -0.7948  0.8584  0.4560
    1SOL    HW3 6327   2.484   2.266   2.545 -0.8989  0.4721  0.6074
    1SOL    MW4 6328   2.488   2.265   2.632 -0.3595 -0.2525  0.5784
    1SOL     OW 6329   2.237   2.417   2.705 -0.0239  0.0256 -0.4699
    1SOL    HW2 6330   2.240   2.420   2.801  0.4698  2.6167 -0.5286
    1SOL    HW3 6331   2.312   2.363   2.680 -0.0309 -0.4789  0.5767
    1SOL    MW4 6332   2.247   2.410   2.714  0.0403  0.3009 -0.3395
    1SOL     OW 6333   2.205   2.680   2.635 -0.2439  0.8692  0.5995
    1SOL    HW2 6334   2.293   2.715   2.651  0.7346 -0.2658 -2.0544
    1SOL    HW3 6335   2.206   2.592   2.673  0.0802  0.5095 -0.2299
    1SOL    MW4 6336   2.217   2.673   2.642 -0.0722  0.6719  0.1397
    1SOL     OW 6337   2.435   2.827   2.736 -0.3578  0.1913 -0.3424
    1SOL    HW2 6338   2.521   2.790   2.715  0.1369  0.6664  0.7924
    1SOL    HW3 6339   2.443   2.920   2.713 -0.2517  0.4333  0.6707
    1SOL    MW4 6340   2.448   2.835   2.730 -0.2785  0.2859 -0.0587
    1SOL     OW 6341   2.452   3.085   2.663 -0.3316 -0.2244  0.4875
    1SOL    HW2 6342   2.383   3.141   2.699  0.2326 -0.1883  1.5226
    1SOL    HW3 6343   2.429   3.075   2.570 -1.1343  0.6637  0.5891
    1SOL    MW4 6344   2.440   3.091   2.656 -0.3629 -0.1028  0.6373
    1SOL     OW 6345   2.240   3.235   2.739  0.0265  0.2224  0.4613
    1SOL    HW2 6346   2.253   3.224   2.833  0.6762  1.8867  0.5913
    1SOL    HW3 6347   2.161   3.185   2.720 -0.1291 -0.1054  1.8987
    1SOL    MW4 6348   2.231   3.227   2.749  0.0918  0.3989  0.6680
    1SOL     OW 6349   2.233   3.465   2.611 -0.0362  0.5656  0.2244
    1SOL    HW2 6350   2.317   3.506   2.634  0.2190  0.2910 -0.2162
    1SOL    HW3 6351   2.237   3.379   2.654 -0.5728  0.9995  1.1522
    1SOL    MW4 6352   2.245   3.459   2.620 -0.0732  0.5865  0.2887
    1SOL     OW 6353   2.471   3.589   2.711  0.1737  1.2354  0.1569
    1SOL    HW2 6354   2.489   3.595   2.805  0.0723  1.1704  0.1806
    1SOL    HW3 6355   2.482   3.678   2.678 -0.3268  1.3603  0.3245
    1SOL    MW4 6356   2.475   3.601   2.719  0.0942  1.2434  0.1822
    1SOL     OW 6357   2.508   3.863   2.630  0.3175  0.0554 -0.0117
    1SOL    HW2 6358   2.573   3.911   2.682 -0.3775 -0.0013  0.9205
    1SOL    HW3 6359   2.424   3.901   2.657 -0.1919 -1.2574  0.2693
    1SOL    MW4 6360   2.506   3.875   2.641  0.1588 -0.1254  0.1485
    1SOL     OW 6361   2.248   3.986   2.701 -0.2334 -0.4599 -0.0423
    1SOL    HW2 6362   2.242   3.979   2.796  0.3246 -2.0645 -0.1117
    1SOL    HW3 6363   2.158   3.976   2.670 -0.5387  1.0169  0.3671
    1SOL    MW4 6364   2.235   3.984   2.709 -0.2000 -0.4768  0.0026
    1SOL     OW 6365   2.289   4.253   2.649  0.0639 -0.0083  0.1650
    1SOL    HW2 6366   2.283   4.162   2.677  1.5047 -0.4711 -1.0353
    1SOL    HW3 6367   2.199   4.286   2.656 -0.4474 -1.4902  0.6441
    1SOL    MW4 6368   2.276   4.245   2.654  0.1864 -0.2651  0.0699
    1SOL     OW 6369   2.459   4.410   2.799  0.0181 -0.5076 -0.0526
    1SOL    HW2 6370   2.389   4.357   2.761  0.6986 -0.1332 -1.8686
    1SOL    HW3 6371   2.446   4.497   2.762  0.3282  0.0280  1.0777
    1SOL    MW4 6372   2.448   4.414   2.789  0.1488 -0.3872 -0.1431
    1SOL     OW 6373   2.883   4.662   2.660 -0.3802  0.3723  0.1072
    1SOL    HW2 6374   2.968   4.697   2.689  0.1438 -0.6734 -0.1256
    1SOL    HW3 6375   2.892   4.651   2.566 -0.2549 -1.0909  0.2704
    1SOL    MW4 6376   2.896   4.665   2.652 -0.2944  0.0415  0.0985
    1SOL     OW 6377   2.671   0.142   2.751  0.3809 -0.5286 -0.2495
    1SOL    HW2 6378   2.680   0.140   2.846  1.7787  0.7722 -0.3355
    1SOL    HW3 6379   2.746   0.091   2.719 -0.6497 -1.8275 -0.6421
    1SOL    MW4 6380   2.682   0.135   2.759  0.4292 -0.5284 -0.3123
    1SOL     OW 6381   2.719   0.400   2.656  0.8887 -0.3107  0.2886
    1SOL    HW2 6382   2.694   0.314   2.689  0.8453 -0.3907  0.0467
    1SOL    HW3 6383   2.640   0.453   2.667  1.8610  0.5804  3.4421
    1SOL    MW4 6384   2.705   0.396   2.661  1.0114 -0.2037  0.6728
    1SOL     OW 6385   2.956   0.504   2.729 -0.1723  0.0575  0.8387
    1SOL    HW2 6386   2.950   0.593   2.696  1.1424  0.4662  1.6502
    1SOL    HW3 6387   2.883   0.458   2.688 -0.6980  1.4316  0.2000
    1SOL    MW4 6388   2.946   0.510   2.720 -0.0684  0.2927  0.8614
    1SOL     OW 6389   2.933   0.769   2.662  0.3329  0.1399  0.2584
    1SOL    HW2 6390   3.012   0.812   2.694  0.1458 -0.0884  1.0322
    1SOL    HW3 6391   2.862   0.803   2.717 -0.2724  1.1273 -1.1084
    1SOL    MW4 6392   2.934   0.779   2.673  0.2282  0.2401  0.1800
    1SOL     OW 6393   2.710   0.869   2.792 -0.3006  0.4777  0.2892
    1SOL    HW2 6394   2.702   0.892   2.884 -0.4138 -2.1320  0.9549
    1SOL    HW3 6395   2.622   0.843   2.766 -0.0757  0.3247 -0.3249
    1SOL    MW4 6396   2.698   0.869   2.800 -0.2856  0.1132  0.2959
    1SOL     OW 6397   2.696   1.109   2.636 -0.0405 -0.3446  0.3326
    1SOL    HW2 6398   2.755   1.175   2.673  1.2384 -0.5721 -1.2207
    1SOL    HW3 6399   2.711   1.031   2.690  0.9454 -0.3362  0.0917
    1SOL    MW4 6400   2.706   1.107   2.648  0.2582 -0.3735  0.0961
    1SOL     OW 6401   2.890   1.287   2.730 -0.6872  0.2360  0.2047
    1SOL    HW2 6402   2.881   1.300   2.825 -1.1981  0.5190  0.1214
    1SOL    HW3 6403   2.969   1.235   2.720 -0.9153 -0.2303  0.8247
    1SOL    MW4 6404   2.899   1.282   2.742 -0.7849  0.2120  0.2754
    1SOL     OW 6405   2.952   1.545   2.633 -0.2152 -0.1753  0.3114
    1SOL    HW2 6406   2.867   1.583   2.657  0.0431  0.3031  0.4713
    1SOL    HW3 6407   2.949   1.456   2.667 -0.9173 -0.3803 -0.2704
    1SOL    MW4 6408   2.940   1.539   2.641 -0.2735 -0.1392  0.2556
    1SOL     OW 6409   2.709   1.650   2.688 -0.3875 -0.1676 -0.2056
    1SOL    HW2 6410   2.710   1.649   2.783  2.2190 -1.3871 -0.1916
    1SOL    HW3 6411   2.630   1.603   2.664 -1.3897  0.7107  1.3525
    1SOL    MW4 6412   2.699   1.643   2.697 -0.1760 -0.2127  0.0017
    1SOL     OW 6413   2.691   1.911   2.621 -0.4008 -0.2388  0.0425
    1SOL    HW2 6414   2.708   1.819   2.641  0.1828 -0.0207  0.5839
    1SOL    HW3 6415   2.609   1.931   2.666  0.8776  0.2364  2.2323
    1SOL    MW4 6416   2.683   1.902   2.630 -0.1550 -0.1472  0.4025
    1SOL     OW 6417   2.915   2.022   2.752  0.0100 -0.2449  0.2107
    1SOL    HW2 6418   2.928   2.113   2.724  0.3873  0.1878  1.7503
    1SOL    HW3 6419   2.841   1.991   2.700  0.3178  0.7327 -0.8161
    1SOL    MW4 6420   2.907   2.030   2.742  0.1006 -0.0587  0.2780
    1SOL     OW 6421   2.926   2.291   2.660 -0.4272 -0.2958 -0.5165
    1SOL    HW2 6422   2.997   2.348   2.689 -0.7307  0.4680 -1.2354
    1SOL    HW3 6423   2.846   2.338   2.683 -0.7114 -1.2472  0.4753
    1SOL    MW4 6424   2.925   2.305   2.667 -0.5045 -0.3207 -0.4807
    1SOL     OW 6425   2.694   2.407   2.738  0.3033 -0.1088  0.3624
    1SOL    HW2 6426   2.708   2.412   2.833  0.8910  0.2676  0.2629
    1SOL    HW3 6427   2.696   2.499   2.709  0.9428 -0.2674 -0.1183
    1SOL    MW4 6428   2.696   2.420   2.747  0.4652 -0.0799  0.2859
    1SOL     OW 6429   2.663   2.666   2.662  0.4031  0.2031  0.0226
    1SOL    HW2 6430   2.741   2.707   2.699  1.6726 -1.2632 -0.9591
    1SOL    HW3 6431   2.668   2.685   2.568  0.6543 -1.5884 -0.3467
    1SOL    MW4 6432   2.674   2.674   2.654  0.6037 -0.2270 -0.1559
    1SOL     OW 6433   2.881   2.806   2.754 -0.8753  0.3874  0.1742
    1SOL    HW2 6434   2.891   2.840   2.843 -1.4197  0.3834  0.2377
    1SOL    HW3 6435   2.900   2.880   2.697 -0.5792  0.4044  0.2948
    1SOL    MW4 6436   2.885   2.820   2.758 -0.9079  0.3893  0.1986
    1SOL     OW 6437   2.932   3.075   2.635  0.1760  0.4491  0.0840
    1SOL    HW2 6438   2.858   3.129   2.663  0.1886  0.3730  0.2633
    1SOL    HW3 6439   2.927   3.075   2.540 -0.6495 -0.4013  0.1312
    1SOL    MW4 6440   2.922   3.082   2.626  0.0687  0.3269  0.1140
    1SOL     OW 6441   2.711   3.223   2.710  0.0656 -0.2849 -0.1464
    1SOL    HW2 6442   2.692   3.307   2.669  0.4698 -0.2697 -0.3011
    1SOL    HW3 6443   2.633   3.170   2.692 -0.5819  0.3432  0.7285
    1SOL    MW4 6444   2.698   3.227   2.702  0.0334 -0.2003 -0.0513
    1SOL     OW 6445   2.698   3.479   2.608 -0.2482 -0.2436 -0.1895
    1SOL    HW2 6446   2.623   3.515   2.655  0.4136  0.9927 -0.0643
    1SOL    HW3 6447   2.687   3.510   2.518 -0.8068 -1.5072 -0.5630
    1SOL    MW4 6448   2.687   3.488   2.603 -0.2344 -0.2472 -0.2224
    1SOL     OW 6449   2.915   3.610   2.707 -0.1778  0.1845 -0.3437
    1SOL    HW2 6450   2.910   3.598   2.802  1.6764 -0.9034 -0.3612
    1SOL    HW3 6451   2.840   3.562   2.673 -0.7018  0.3511  0.5440
    1SOL    MW4 6452   2.905   3.602   2.715 -0.0021  0.0629 -0.2289
    1SOL     OW 6453   2.910   3.881   2.623 -0.2627  0.2166  0.0799
    1SOL    HW2 6454   3.001   3.902   2.645  0.6550 -1.7248 -1.7646
    1SOL    HW3 6455   2.901   3.788   2.642 -1.5979  0.1742 -0.6832
    1SOL    MW4 6456   2.921   3.872   2.628 -0.3176 -0.0448 -0.2639
    1SOL     OW 6457   2.698   4.011   2.764 -0.2920 -0.4056  0.1235
    1SOL    HW2 6458   2.680   4.098   2.728 -1.6104 -1.4378 -1.7720
    1SOL    HW3 6459   2.776   3.981   2.718  0.3751 -0.1058  1.0354
    1SOL    MW4 6460   2.706   4.018   2.753 -0.3779 -0.5026 -0.0060
    1SOL     OW 6461   2.658   4.261   2.647  0.0434  0.1721 -0.5838
    1SOL    HW2 6462   2.744   4.287   2.682  0.0284  0.1676 -0.5443
    1SOL    HW3 6463   2.595   4.313   2.697 -0.0548 -0.7559  0.2834
    1SOL    MW4 6464   2.661   4.271   2.658  0.0284  0.0491 -0.4642
    1SOL     OW 6465   2.901   4.376   2.746 -0.2808  0.2224 -0.4535
    1SOL    HW2 6466   2.911   4.365   2.841 -0.0084 -0.5787 -0.5715
    1SOL    HW3 6467   2.911   4.470   2.732 -0.7563  0.3989  0.3623
    1SOL    MW4 6468   2.904   4.387   2.757 -0.3076  0.1402 -0.3617
    1SOL     OW 6469   3.345   4.660   2.635 -0.2106 -0.2378 -0.2457
    1SOL    HW2 6470   3.337   4.566   2.652  0.2753 -0.1969  0.2198
    1SOL    HW3 6471   3.267   4.698   2.675 -0.1321 -0.3831  0.0522
    1SOL    MW4 6472   3.334   4.652   2.643 -0.1361 -0.2513 -0.1450
    1SOL     OW 6473   3.129   0.089   2.752  0.1035 -0.0163  0.2866
    1SOL    HW2 6474   3.112   0.092   2.846 -1.1963 -1.1980  0.1070
    1SOL    HW3 6475   3.145   0.180   2.727  0.4268  0.3080  1.6379
    1SOL    MW4 6476   3.129   0.101   2.761 -0.0253 -0.1294  0.4411
    1SOL     OW 6477   3.173   0.336   2.640  0.4269 -0.0269  0.8130
    1SOL    HW2 6478   3.099   0.387   2.674 -0.8683 -0.7374 -0.8917
    1SOL    HW3 6479   3.157   0.330   2.546  0.5743 -3.5165  0.9406
    1SOL    MW4 6480   3.161   0.342   2.632  0.2754 -0.5810  0.6046
    1SOL     OW 6481   3.401   0.477   2.735 -0.0694  0.5450  0.4826
    1SOL    HW2 6482   3.382   0.560   2.693  0.8899  0.8283  0.6152
    1SOL    HW3 6483   3.330   0.419   2.706 -1.3453  1.6892  1.2362
    1SOL    MW4 6484   3.389   0.480   2.726 -0.1113  0.7334  0.5996
    1SOL     OW 6485   3.385   0.728   2.637 -0.6357  0.3879 -0.0407
    1SOL    HW2 6486   3.444   0.785   2.688  0.7634 -1.1447  0.1066
    1SOL    HW3 6487   3.377   0.772   2.553  1.6104  0.0921 -0.4374
    1SOL    MW4 6488   3.392   0.741   2.633 -0.1547  0.1467 -0.0734
    1SOL     OW 6489   3.168   0.904   2.735  0.0330 -0.3976  0.3624
    1SOL    HW2 6490   3.155   0.902   2.829 -0.5347 -1.1361  0.2723
    1SOL    HW3 6491   3.249   0.855   2.720  0.5140  0.3457  0.5285
    1SOL    MW4 6492   3.177   0.897   2.745  0.0215 -0.3970  0.3724
    1SOL     OW 6493   3.131   1.163   2.653  0.0719 -0.0027  0.2968
    1SOL    HW2 6494   3.141   1.075   2.689 -1.0442  0.2808  1.3159
    1SOL    HW3 6495   3.123   1.149   2.558  0.4350 -0.9402  0.3937
    1SOL    MW4 6496   3.132   1.150   2.645 -0.0274 -0.0890  0.4439
    1SOL     OW 6497   3.364   1.324   2.705 -0.1185 -0.3447 -0.2266
    1SOL    HW2 6498   3.378   1.315   2.799  1.2282 -1.3761 -0.5109
    1SOL    HW3 6499   3.278   1.285   2.689 -0.7099  0.5529  0.6658
    1SOL    MW4 6500   3.354   1.318   2.715 -0.0191 -0.3623 -0.1464
    1SOL     OW 6501   3.361   1.586   2.614  0.1013  0.0273 -0.2244
    1SOL    HW2 6502   3.285   1.626   2.655  0.0637 -0.3543  0.0739
    1SOL    HW3 6503   3.370   1.501   2.656  0.5724 -0.0137 -0.3982
    1SOL    MW4 6504   3.352   1.580   2.625  0.1588 -0.0285 -0.2081
    1SOL     OW 6505   3.141   1.685   2.756  0.2762 -0.3969  0.1951
    1SOL    HW2 6506   3.132   1.770   2.712 -0.6817  0.5908  2.2350
    1SOL    HW3 6507   3.076   1.629   2.714  1.6201 -0.4811 -1.8921
    1SOL    MW4 6508   3.132   1.689   2.745  0.3271 -0.2778  0.1888
    1SOL     OW 6509   3.146   1.926   2.608 -0.1445 -0.1619  0.2322
    1SOL    HW2 6510   3.219   1.971   2.650  0.1940 -1.0064  0.5413
    1SOL    HW3 6511   3.069   1.955   2.657 -0.1505  1.5235 -0.7370
    1SOL    MW4 6512   3.145   1.936   2.620 -0.1004 -0.0509  0.1452
    1SOL     OW 6513   3.362   2.060   2.717  0.3208  0.1757  0.4018
    1SOL    HW2 6514   3.339   2.069   2.810 -0.6196 -0.7837  0.2802
    1SOL    HW3 6515   3.340   2.145   2.679  2.6071  1.2614  1.4214
    1SOL    MW4 6516   3.356   2.072   2.725  0.4981  0.1924  0.5202
    1SOL     OW 6517   3.351   2.316   2.614 -0.2132 -0.4173 -0.2350
    1SOL    HW2 6518   3.437   2.350   2.636 -0.4253  1.2745 -1.9172
    1SOL    HW3 6519   3.346   2.320   2.518 -1.6044 -1.8903 -0.2708
    1SOL    MW4 6520   3.362   2.321   2.604 -0.4249 -0.3884 -0.4613
    1SOL     OW 6521   3.125   2.432   2.745 -0.3711  0.3499 -0.6635
    1SOL    HW2 6522   3.142   2.518   2.707  2.5405  0.3927  0.5659
    1SOL    HW3 6523   3.201   2.379   2.720 -1.4105 -1.4125 -0.1614
    1SOL    MW4 6524   3.137   2.436   2.737 -0.1240  0.1230 -0.4349
    1SOL     OW 6525   3.126   2.689   2.665 -0.4873  0.1669 -0.1481
    1SOL    HW2 6526   3.197   2.738   2.707 -0.0042 -0.9104  0.2897
    1SOL    HW3 6527   3.047   2.715   2.714 -0.2568  0.6198 -0.0122
    1SOL    MW4 6528   3.125   2.699   2.677 -0.3932  0.0846 -0.0725
    1SOL     OW 6529   3.359   2.796   2.741  0.5869 -0.1300  0.2058
    1SOL    HW2 6530   3.370   2.795   2.836 -0.4384 -0.1234  0.3259
    1SOL    HW3 6531   3.444   2.769   2.707  0.7078 -0.9415  1.1460
    1SOL    MW4 6532   3.372   2.792   2.749  0.4675 -0.2365  0.3455
    1SOL     OW 6533   3.382   3.100   2.667  0.1728  0.0466 -0.0485
    1SOL    HW2 6534   3.371   3.007   2.689 -2.0751  0.3991  0.4948
    1SOL    HW3 6535   3.368   3.104   2.572  1.5161 -0.3357 -0.2661
    1SOL    MW4 6536   3.378   3.088   2.657  0.0536  0.0424 -0.0052
    1SOL     OW 6537   3.140   3.218   2.730  0.3921 -0.4747  0.3036
    1SOL    HW2 6538   3.227   3.182   2.714  0.2341 -1.0976  0.8173
    1SOL    HW3 6539   3.080   3.154   2.691  0.1814  0.1647 -0.4270
    1SOL    MW4 6540   3.144   3.205   2.723  0.3433 -0.4725  0.2751
    1SOL     OW 6541   3.164   3.489   2.657 -0.0200  0.1245  0.0534
    1SOL    HW2 6542   3.157   3.397   2.685 -0.3470  0.3937  0.8799
    1SOL    HW3 6543   3.081   3.529   2.684  0.4322  0.8424  0.4076
    1SOL    MW4 6544   3.152   3.482   2.664 -0.0036  0.2546  0.2091
    1SOL     OW 6545   3.395   3.633   2.712  0.1603 -0.3135  0.2681
    1SOL    HW2 6546   3.410   3.620   2.806  0.9548  1.7797  0.4555
    1SOL    HW3 6547   3.313   3.587   2.694  0.2325 -1.1187  1.8904
    1SOL    MW4 6548   3.386   3.625   2.722  0.2744 -0.1435  0.5069
    1SOL     OW 6549   3.379   3.886   2.634 -0.0760  0.1708  0.5363
    1SOL    HW2 6550   3.375   3.794   2.662  1.1488 -0.2243 -0.5380
    1SOL    HW3 6551   3.340   3.886   2.546 -2.3525  1.1173  1.5161
    1SOL    MW4 6552   3.373   3.874   2.626 -0.2151  0.2434  0.5238
    1SOL     OW 6553   3.143   4.009   2.742 -0.2437 -0.7994  0.1402
    1SOL    HW2 6554   3.137   4.098   2.708 -0.7789 -0.4746  1.0433
    1SOL    HW3 6555   3.229   3.979   2.716 -0.0545 -0.0055 -0.1645
    1SOL    MW4 6556   3.153   4.017   2.734 -0.2892 -0.6514  0.2193
    1SOL     OW 6557   3.121   4.270   2.643  0.3194 -0.4992 -0.2051
    1SOL    HW2 6558   3.034   4.303   2.669  0.5459 -0.5863  0.6734
    1SOL    HW3 6559   3.118   4.271   2.547 -0.1233  0.9133 -0.2040
    1SOL    MW4 6560   3.109   4.275   2.634  0.2909 -0.3242 -0.0892
    1SOL     OW 6561   3.352   4.411   2.732  0.7116  0.0781 -0.0738
    1SOL    HW2 6562   3.374   4.400   2.824 -0.1024  1.6238  0.3226
    1SOL    HW3 6563   3.285   4.345   2.715  0.3938  0.2236  0.6088
    1SOL    MW4 6564   3.346   4.401   2.742  0.5622  0.3009  0.0684
    1SOL     OW 6565   3.814   4.661   2.666  0.3005 -0.1250 -0.4678
    1SOL    HW2 6566   3.806   4.571   2.699  0.2330  0.3418  0.7978
    1SOL    HW3 6567   3.735   4.705   2.696  0.9170  0.6938 -0.0315
    1SOL    MW4 6568   3.802   4.655   2.674  0.3729  0.0443 -0.2429
    1SOL     OW 6569   3.582   0.128   2.707 -0.3214 -0.0038  0.5038
    1SOL    HW2 6570   3.596   0.213   2.666  0.6583 -0.3121  0.1880
    1SOL    HW3 6571   3.498   0.098   2.671 -0.9117  1.0357  0.9961
    1SOL    MW4 6572   3.573   0.135   2.697 -0.2701  0.0927  0.5269
    1SOL     OW 6573   3.614   0.382   2.607 -0.0964 -0.2150 -0.3834
    1SOL    HW2 6574   3.687   0.418   2.656 -0.2976 -1.2047  0.6645
    1SOL    HW3 6575   3.536   0.421   2.646 -0.2076 -0.2450 -0.5724
    1SOL    MW4 6576   3.613   0.392   2.618 -0.1376 -0.3496 -0.2704
    1SOL     OW 6577   3.838   0.528   2.695  0.0159 -0.2084  0.1415
    1SOL    HW2 6578   3.834   0.522   2.791 -0.9942 -1.6783  0.0286
    1SOL    HW3 6579   3.916   0.478   2.671 -1.2222 -2.1885  0.0565
    1SOL    MW4 6580   3.848   0.520   2.705 -0.2809 -0.6636  0.1156
    1SOL     OW 6581   3.805   0.782   2.610  0.3561  0.1496  0.0032
    1SOL    HW2 6582   3.732   0.819   2.660  0.6394 -0.4498  0.8606
    1SOL    HW3 6583   3.810   0.691   2.638 -0.9067 -0.8407 -2.7626
    1SOL    MW4 6584   3.796   0.775   2.621  0.2267 -0.0602 -0.2487
    1SOL     OW 6585   3.575   0.891   2.724 -0.1402  0.1782 -0.6924
    1SOL    HW2 6586   3.586   0.917   2.816 -2.4577 -0.6366 -0.1641
    1SOL    HW3 6587   3.575   0.974   2.676 -0.3011  0.7000  0.1949
    1SOL    MW4 6588   3.576   0.906   2.730 -0.4671  0.1396 -0.5054
    1SOL     OW 6589   3.591   1.164   2.645 -0.4462  0.0731 -0.4263
    1SOL    HW2 6590   3.653   1.209   2.703 -0.0349 -0.2347 -0.6208
    1SOL    HW3 6591   3.512   1.218   2.647 -0.2893  0.2818  0.0974
    1SOL    MW4 6592   3.589   1.177   2.653 -0.3712  0.0602 -0.3829
    1SOL     OW 6593   3.814   1.291   2.781 -0.1125 -0.6935  0.5067
    1SOL    HW2 6594   3.879   1.234   2.739  1.0799 -0.2371  1.6926
    1SOL    HW3 6595   3.808   1.366   2.722 -0.7822 -1.4881 -0.4394
    1SOL    MW4 6596   3.822   1.294   2.767 -0.0434 -0.7380  0.5383
    1SOL     OW 6597   3.823   1.532   2.620 -0.0618 -0.2634  0.0299
    1SOL    HW2 6598   3.900   1.577   2.655 -1.0084  1.5585 -0.2076
    1SOL    HW3 6599   3.748   1.581   2.655 -1.0875 -0.5797 -1.6544
    1SOL    MW4 6600   3.823   1.544   2.630 -0.3223 -0.0648 -0.2236
    1SOL     OW 6601   3.610   1.684   2.696 -0.5557  0.2078  0.0086
    1SOL    HW2 6602   3.612   1.778   2.678 -1.1126  0.0758 -0.7685
    1SOL    HW3 6603   3.520   1.657   2.675 -0.3292 -0.5476 -0.0176
    1SOL    MW4 6604   3.598   1.693   2.691 -0.5994  0.0907 -0.0978
    1SOL     OW 6605   3.597   1.957   2.631 -0.3963  0.3200  0.8733
    1SOL    HW2 6606   3.521   2.006   2.662  0.2296  0.6063  1.9716
    1SOL    HW3 6607   3.581   1.945   2.537 -1.4858  0.9352  0.9724
    1SOL    MW4 6608   3.585   1.962   2.623 -0.4575  0.4390  1.0314
    1SOL     OW 6609   3.850   2.035   2.720 -0.3733 -0.0437  0.1895
    1SOL    HW2 6610   3.918   1.987   2.674 -0.0012  2.0054 -1.5142
    1SOL    HW3 6611   3.768   2.000   2.685 -0.0923  1.4197 -2.0389
    1SOL    MW4 6612   3.848   2.024   2.709 -0.2871  0.4199 -0.3295
    1SOL     OW 6613   3.841   2.311   2.622  0.1463  0.1112 -0.3939
    1SOL    HW2 6614   3.833   2.219   2.648  0.8238 -0.0618 -0.7988
    1SOL    HW3 6615   3.820   2.311   2.529  0.0955  0.3770 -0.3826
    1SOL    MW4 6616   3.837   2.299   2.613  0.2289  0.1233 -0.4456
    1SOL     OW 6617   3.586   2.428   2.715  0.5353 -0.3003  0.3443
    1SOL    HW2 6618   3.600   2.449   2.808  0.5665 -0.1846  0.3141
    1SOL    HW3 6619   3.672   2.399   2.685  0.7734  0.6463  0.0963
    1SOL    MW4 6620   3.599   2.427   2.724  0.5708 -0.1600  0.3076
    1SOL     OW 6621   3.606   2.699   2.657 -0.0631  0.0121 -0.3249
    1SOL    HW2 6622   3.578   2.610   2.681 -1.2609  0.2140 -0.9335
    1SOL    HW3 6623   3.608   2.698   2.562 -0.8841  0.8826 -0.3507
    1SOL    MW4 6624   3.603   2.687   2.648 -0.3297  0.1538 -0.4086
    1SOL     OW 6625   3.808   2.865   2.792  0.0016  0.0741  0.3554
    1SOL    HW2 6626   3.893   2.829   2.765 -0.5217 -0.3926 -0.6950
    1SOL    HW3 6627   3.744   2.801   2.761 -0.8496  1.2819 -0.4140
    1SOL    MW4 6628   3.811   2.852   2.784 -0.1798  0.1719  0.1154
    1SOL     OW 6629   3.767   3.101   2.671 -0.1747  0.0331  0.3849
    1SOL    HW2 6630   3.689   3.144   2.707 -0.9589 -0.7755 -0.3047
    1SOL    HW3 6631   3.773   3.019   2.719 -0.8467 -0.7496 -0.8307
    1SOL    MW4 6632   3.757   3.096   2.682 -0.3669 -0.1767  0.1338
    1SOL     OW 6633   3.559   3.236   2.807  0.0132  0.0993 -0.2081
    1SOL    HW2 6634   3.573   3.312   2.750  1.4184  0.5521  0.7109
    1SOL    HW3 6635   3.492   3.185   2.762  0.3158  0.9956 -1.7388
    1SOL    MW4 6636   3.552   3.239   2.793  0.2384  0.2775 -0.2890
    1SOL     OW 6637   3.604   3.469   2.640 -0.1711 -0.1890 -0.4989
    1SOL    HW2 6638   3.672   3.513   2.692 -0.4166 -0.4476  0.0342
    1SOL    HW3 6639   3.525   3.521   2.654 -0.2799 -0.3613 -0.4658
    1SOL    MW4 6640   3.603   3.482   2.649 -0.2179 -0.2458 -0.4244
    1SOL     OW 6641   3.802   3.610   2.754 -0.0358  0.1090 -0.5871
    1SOL    HW2 6642   3.881   3.566   2.721  0.8264  1.7336 -0.7368
    1SOL    HW3 6643   3.798   3.692   2.705 -2.4224 -0.4130 -1.3186
    1SOL    MW4 6644   3.812   3.615   2.743 -0.2367  0.2544 -0.7033
    1SOL     OW 6645   3.814   3.860   2.640 -0.4262 -0.6360 -0.1232
    1SOL    HW2 6646   3.885   3.903   2.687  0.1789 -1.5756 -0.1832
    1SOL    HW3 6647   3.736   3.910   2.664  0.3315  0.7773 -0.5322
    1SOL    MW4 6648   3.813   3.873   2.649 -0.2465 -0.5734 -0.1850
    1SOL     OW 6649   3.606   4.023   2.751 -0.3863 -0.2928  0.0777
    1SOL    HW2 6650   3.588   4.110   2.716 -0.6734 -0.3832  0.0026
    1SOL    HW3 6651   3.538   3.967   2.714 -0.0126 -0.6126 -0.1375
    1SOL    MW4 6652   3.595   4.027   2.741 -0.3750 -0.3467  0.0391
    1SOL     OW 6653   3.583   4.289   2.636  0.4378 -0.0910 -0.0418
    1SOL    HW2 6654   3.506   4.344   2.655  1.4595  0.7513  1.7797
    1SOL    HW3 6655   3.596   4.298   2.542 -1.4934  0.0387 -0.3174
    1SOL    MW4 6656   3.574   4.298   2.626  0.3178  0.0372  0.1624
    1SOL     OW 6657   3.846   4.389   2.751  0.2268 -0.3864 -0.1588
    1SOL    HW2 6658   3.916   4.359   2.693 -0.5258 -1.5677 -0.4546
    1SOL    HW3 6659   3.767   4.348   2.717 -0.7370  1.4618 -0.2156
    1SOL    MW4 6660   3.845   4.380   2.739  0.0002 -0.2980 -0.2053
    1SOL     OW 6661   4.279   4.648   2.691 -0.5417  0.2186 -0.2689
    1SOL    HW2 6662   4.208   4.696   2.735  1.1135  0.7996  1.8603
    1SOL    HW3 6663   4.358   4.693   2.718  0.6524 -0.3312 -2.7605
    1SOL    MW4 6664   4.280   4.660   2.700 -0.1655  0.2217 -0.3169
    1SOL     OW 6665   4.033   0.133   2.783  0.2884 -0.3920 -0.1238
    1SOL    HW2 6666   4.030   0.137   2.879  0.3393 -0.0698 -0.1339
    1SOL    HW3 6667   3.958   0.078   2.758 -0.5319  0.6480  0.0328
    1SOL    MW4 6668   4.022   0.126   2.792  0.1869 -0.2123 -0.1047
    1SOL     OW 6669   4.056   0.357   2.624  0.0260 -0.0020  0.3149
    1SOL    HW2 6670   4.060   0.265   2.649  1.0751 -0.3432 -1.0521
    1SOL    HW3 6671   4.070   0.357   2.529  1.0657  1.6444  0.4553
    1SOL    MW4 6672   4.058   0.345   2.614  0.3018  0.1703  0.1528
    1SOL     OW 6673   4.219   0.508   2.787  0.2959 -0.1353  0.1436
    1SOL    HW2 6674   4.153   0.455   2.745 -1.0100  0.5700  1.2632
    1SOL    HW3 6675   4.303   0.472   2.756 -0.5957 -0.6371 -1.7499
    1SOL    MW4 6676   4.222   0.496   2.777  0.0062 -0.1084  0.0417
    1SOL     OW 6677   4.217   0.764   2.624 -0.2120  0.4049  0.8286
    1SOL    HW2 6678   4.224   0.676   2.662 -1.5694  0.1698  0.5727
    1SOL    HW3 6679   4.233   0.752   2.531 -0.8872  0.3447  0.7173
    1SOL    MW4 6680   4.220   0.751   2.617 -0.4807  0.3659  0.7801
    1SOL     OW 6681   4.005   0.891   2.747  0.2160  0.1017  0.2294
    1SOL    HW2 6682   4.078   0.840   2.711  0.9891  1.5454 -0.2940
    1SOL    HW3 6683   3.928   0.861   2.698  0.3878 -1.5798  0.9236
    1SOL    MW4 6684   4.005   0.880   2.736  0.3405  0.0703  0.2518
    1SOL     OW 6685   4.005   1.141   2.626 -0.1117  0.3013 -0.2032
    1SOL    HW2 6686   4.087   1.189   2.640  0.9863 -1.8021  0.8891
    1SOL    HW3 6687   4.018   1.059   2.673 -2.3162 -0.6560 -1.2208
    1SOL    MW4 6688   4.018   1.136   2.634 -0.2575 -0.1024 -0.1934
    1SOL     OW 6689   4.263   1.260   2.689  0.6508  0.5260 -0.4932
    1SOL    HW2 6690   4.271   1.354   2.671  0.5275  0.9815  1.7455
    1SOL    HW3 6691   4.351   1.225   2.674  0.4333  0.7683 -2.4846
    1SOL    MW4 6692   4.275   1.268   2.685  0.6056  0.6181 -0.4606
    1SOL     OW 6693   4.280   1.523   2.611 -0.5366  0.0164 -0.0532
    1SOL    HW2 6694   4.370   1.553   2.619 -0.4534  0.0901 -1.1533
    1SOL    HW3 6695   4.264   1.521   2.517 -1.7139  0.0968  0.1388
    1SOL    MW4 6696   4.290   1.527   2.600 -0.6809  0.0366 -0.1731
    1SOL     OW 6697   4.062   1.661   2.697  0.4055  0.4009 -0.2318
    1SOL    HW2 6698   4.065   1.664   2.793 -1.2070 -0.5821 -0.1135
    1SOL    HW3 6699   4.143   1.617   2.672 -0.4683 -1.9415  0.8849
    1SOL    MW4 6700   4.073   1.655   2.706  0.0777 -0.0378 -0.0689
    1SOL     OW 6701   4.047   1.906   2.581 -0.3237 -0.7442  0.1679
    1SOL    HW2 6702   4.105   1.966   2.628 -1.7975  0.4721  0.4708
    1SOL    HW3 6703   4.045   1.827   2.634 -0.3873 -0.1186  1.1009
    1SOL    MW4 6704   4.054   1.904   2.594 -0.5260 -0.5013  0.3307
    1SOL     OW 6705   4.241   2.049   2.735  0.3496 -0.0855 -0.3026
    1SOL    HW2 6706   4.266   2.139   2.717 -0.3535 -0.1262 -1.5565
    1SOL    HW3 6707   4.317   1.997   2.711 -0.1184 -0.0234 -1.9821
    1SOL    MW4 6708   4.254   2.054   2.729  0.1950 -0.0830 -0.6895
    1SOL     OW 6709   4.278   2.302   2.619 -0.0405 -0.1298 -0.3120
    1SOL    HW2 6710   4.215   2.359   2.664 -0.1271 -1.0349  0.7444
    1SOL    HW3 6711   4.253   2.308   2.526  0.8844  2.6858 -0.4276
    1SOL    MW4 6712   4.266   2.310   2.613  0.0701  0.1221 -0.1879
    1SOL     OW 6713   4.068   2.444   2.734  0.2952 -0.4162  0.0123
    1SOL    HW2 6714   4.044   2.431   2.826  0.9167  1.4284  0.4626
    1SOL    HW3 6715   4.004   2.393   2.685 -1.1768  0.0568  1.3918
    1SOL    MW4 6716   4.056   2.436   2.740  0.1831 -0.1101  0.2537
    1SOL     OW 6717   4.015   2.714   2.671  0.5507  0.1465  0.2280
    1SOL    HW2 6718   4.092   2.758   2.708 -0.1076 -0.1325  1.9915
    1SOL    HW3 6719   4.027   2.622   2.695 -1.1671  0.3662  2.0296
    1SOL    MW4 6720   4.027   2.708   2.679  0.2370  0.1388  0.6983
    1SOL     OW 6721   4.252   2.827   2.778  0.1681  0.4972 -0.0185
    1SOL    HW2 6722   4.279   2.820   2.870  0.8964 -1.5335 -0.3619
    1SOL    HW3 6723   4.259   2.920   2.758 -0.2866  1.0085  2.0775
    1SOL    MW4 6724   4.256   2.838   2.788  0.2041  0.2971  0.2124
    1SOL     OW 6725   4.239   3.075   2.668  0.0363  0.0396  0.1416
    1SOL    HW2 6726   4.148   3.096   2.687  0.0902  0.5717 -0.1971
    1SOL    HW3 6727   4.245   3.077   2.572  0.6261  0.9194  0.1970
    1SOL    MW4 6728   4.228   3.078   2.658  0.1216  0.2258  0.1044
    1SOL     OW 6729   4.003   3.200   2.758 -0.4322  0.1131  0.5875
    1SOL    HW2 6730   4.002   3.287   2.717  0.8595 -0.1593 -0.0546
    1SOL    HW3 6731   3.925   3.156   2.723  0.0018  0.3097 -0.6535
    1SOL    MW4 6732   3.992   3.206   2.748 -0.2048  0.1030  0.3393
    1SOL     OW 6733   4.031   3.468   2.680  0.0328 -0.4838  0.1507
    1SOL    HW2 6734   4.095   3.531   2.713 -0.0944  0.1906 -0.8400
    1SOL    HW3 6735   4.027   3.486   2.586  0.2074 -2.1745 -0.2025
    1SOL    MW4 6736   4.039   3.479   2.672  0.0391 -0.6180 -0.0267
    1SOL     OW 6737   4.236   3.630   2.760 -0.0058 -1.0179 -0.4093
    1SOL    HW2 6738   4.259   3.624   2.853 -0.9047 -1.1219 -0.1926
    1SOL    HW3 6739   4.310   3.588   2.715  1.2926  0.6160  0.1302
    1SOL    MW4 6740   4.249   3.624   2.766  0.0472 -0.8161 -0.3097
    1SOL     OW 6741   4.221   3.884   2.653 -0.5202  0.5555  0.3504
    1SOL    HW2 6742   4.231   3.797   2.692 -0.6995  1.0397  1.4982
    1SOL    HW3 6743   4.295   3.934   2.687  0.2930  0.5136 -1.2953
    1SOL    MW4 6744   4.232   3.879   2.663 -0.4358  0.6137  0.2847
    1SOL     OW 6745   4.019   4.024   2.752  0.0306  0.0887  0.2871
    1SOL    HW2 6746   4.015   4.029   2.847 -1.3488 -0.0773  0.2535
    1SOL    HW3 6747   4.099   3.975   2.733 -0.3926 -1.0517  1.4002
    1SOL    MW4 6748   4.029   4.019   2.762 -0.2069 -0.0839  0.4294
    1SOL     OW 6749   4.070   4.273   2.652 -0.4983  0.0716 -0.1100
    1SOL    HW2 6750   4.050   4.183   2.678 -0.4921  0.1018  0.0011
    1SOL    HW3 6751   4.077   4.270   2.557  0.4202 -0.2350 -0.0371
    1SOL    MW4 6752   4.068   4.261   2.643 -0.3767  0.0353 -0.0858
    1SOL     OW 6753   4.283   4.380   2.788 -0.0593  0.3257  0.1335
    1SOL    HW2 6754   4.204   4.334   2.757  1.0928 -0.3848 -1.8374
    1SOL    HW3 6755   4.277   4.467   2.749 -0.0057  0.3586  0.2001
    1SOL    MW4 6756   4.272   4.385   2.779  0.0997  0.2365 -0.1175
    1SOL     OW 6757   0.236   4.663   3.127  0.0970  0.6114  0.5721
    1SOL    HW2 6758   0.238   4.670   3.222 -0.6349  1.1748  0.5546
    1SOL    HW3 6759   0.154   4.707   3.102  0.7409  1.2707 -0.3812
    1SOL    MW4 6760   0.225   4.670   3.136  0.0854  0.7725  0.4442
    1SOL     OW 6761   0.006   0.113   3.061  0.3578 -0.1099  0.1953
    1SOL    HW2 6762  -0.075   0.070   3.090  0.3593  0.0815  0.4856
    1SOL    HW3 6763  -0.004   0.204   3.090  0.7617 -0.1297  0.4049
    1SOL    MW4 6764  -0.006   0.120   3.069  0.4110 -0.0873  0.2613
    1SOL     OW 6765   4.478   0.374   3.173 -0.4228 -0.1044  0.4076
    1SOL    HW2 6766   4.472   0.373   3.268  1.7281 -0.6324  0.5679
    1SOL    HW3 6767   4.401   0.423   3.144 -0.1253  1.6758  2.4989
    1SOL    MW4 6768   4.467   0.381   3.182 -0.0992  0.0608  0.7045
    1SOL     OW 6769   0.193   0.526   3.036  0.4414  0.1511 -0.0599
    1SOL    HW2 6770   0.268   0.491   3.083  0.9616 -1.1736 -1.7988
    1SOL    HW3 6771   0.119   0.473   3.067  0.7974 -0.7745 -0.7339
    1SOL    MW4 6772   0.193   0.514   3.046  0.5570 -0.1457 -0.3781
    1SOL     OW 6773   0.219   0.776   3.165 -0.2179  0.3650  0.1107
    1SOL    HW2 6774   0.225   0.758   3.259 -0.4372  0.0793  0.0696
    1SOL    HW3 6775   0.201   0.691   3.126 -0.6306  0.5719 -0.1449
    1SOL    MW4 6776   0.218   0.762   3.172 -0.3013  0.3545  0.0718
    1SOL     OW 6777   4.490   0.918   3.024 -0.4470 -0.0411 -0.0184
    1SOL    HW2 6778   4.563   0.864   3.054 -0.8051 -0.4397  0.1389
    1SOL    HW3 6779   4.493   0.911   2.929 -0.7912 -0.7446  0.0144
    1SOL    MW4 6780   4.500   0.910   3.016 -0.5397 -0.1865  0.0067
    1SOL     OW 6781   4.487   1.189   3.116  0.4135 -0.3667 -0.3271
    1SOL    HW2 6782   4.416   1.226   3.064  0.1599  0.2748  0.4525
    1SOL    HW3 6783   4.499   1.101   3.081  0.2446  0.0490 -1.4464
    1SOL    MW4 6784   4.479   1.182   3.105  0.3572 -0.2272 -0.3722
    1SOL     OW 6785   0.240   1.296   3.054  0.3217 -0.4587  0.0676
    1SOL    HW2 6786   0.151   1.276   3.084  0.0494  1.2170  0.4060
    1SOL    HW3 6787   0.239   1.274   2.961 -0.6549  0.1780 -0.0854
    1SOL    MW4 6788   0.228   1.290   3.046  0.1569 -0.1537  0.0923
    1SOL     OW 6789   0.241   1.570   3.134  0.1777 -0.5430  0.1923
    1SOL    HW2 6790   0.162   1.610   3.097  0.7456  0.1914 -0.2541
    1SOL    HW3 6791   0.239   1.480   3.103 -0.1115 -0.3330 -0.4143
    1SOL    MW4 6792   0.230   1.563   3.125  0.2144 -0.4183  0.0534
    1SOL     OW 6793   0.023   1.661   3.004  0.4341  0.2189  0.4108
    1SOL    HW2 6794  -0.042   1.611   3.053  0.4342  0.8450  1.0644
    1SOL    HW3 6795   0.008   1.752   3.030  0.8742  0.4850 -0.2486
    1SOL    MW4 6796   0.013   1.666   3.014  0.4922  0.3365  0.4098
    1SOL     OW 6797   4.482   1.903   3.118  0.3588  0.4669 -0.0166
    1SOL    HW2 6798   4.411   1.966   3.108 -1.5195 -1.6238 -0.2400
    1SOL    HW3 6799   4.562   1.954   3.107 -1.1109  2.8537  0.2114
    1SOL    MW4 6800   4.483   1.918   3.115 -0.0825  0.5058 -0.0160
    1SOL     OW 6801   0.235   2.042   3.042 -0.1582 -0.3470 -0.0784
    1SOL    HW2 6802   0.216   2.136   3.051 -0.3252 -0.4636  0.7639
    1SOL    HW3 6803   0.209   2.022   2.952  0.4296  0.5444 -0.4599
    1SOL    MW4 6804   0.229   2.052   3.031 -0.1027 -0.2449 -0.0176
    1SOL     OW 6805   0.183   2.312   3.103 -0.0790 -0.4947  0.1404
    1SOL    HW2 6806   0.185   2.314   3.198  0.2211 -1.5645  0.1703
    1SOL    HW3 6807   0.266   2.353   3.076  0.4506 -1.3791  0.3812
    1SOL    MW4 6808   0.194   2.317   3.112  0.0305 -0.7524  0.1760
    1SOL     OW 6809   4.446   2.454   3.013  0.3326  0.0796  0.1690
    1SOL    HW2 6810   4.465   2.544   3.040  0.8930 -0.0752  0.3006
    1SOL    HW3 6811   4.523   2.404   3.041  0.2857 -0.3349 -0.4364
    1SOL    MW4 6812   4.458   2.459   3.020  0.4001  0.0045  0.1066
    1SOL     OW 6813   0.018   2.709   3.132 -0.1548 -0.3605 -0.5084
    1SOL    HW2 6814   0.015   2.737   3.223 -0.9402  0.9580 -0.9259
    1SOL    HW3 6815   0.087   2.763   3.093 -0.4866 -0.2316 -0.9198
    1SOL    MW4 6816   0.027   2.720   3.139 -0.3022 -0.1698 -0.6180
    1SOL     OW 6817   0.222   2.850   3.002 -0.4293  0.1370  0.7579
    1SOL    HW2 6818   0.279   2.775   3.018  0.2831  0.5985  0.4071
    1SOL    HW3 6819   0.209   2.851   2.907  1.4228  1.7868  0.4911
    1SOL    MW4 6820   0.228   2.840   2.992 -0.0909  0.4156  0.6764
    1SOL     OW 6821   0.239   3.098   3.121 -0.1306  0.0316  0.1749
    1SOL    HW2 6822   0.156   3.140   3.101 -0.1949 -0.0088  0.3608
    1SOL    HW3 6823   0.228   3.007   3.092  0.3655  0.3885 -1.2005
    1SOL    MW4 6824   0.227   3.092   3.114 -0.0736  0.0734  0.0179
    1SOL     OW 6825   0.008   3.257   3.070  0.3492  0.3651 -0.3497
    1SOL    HW2 6826  -0.059   3.202   3.110  1.4464 -0.3129  0.5926
    1SOL    HW3 6827  -0.023   3.272   2.981  0.1423 -2.0266 -0.7133
    1SOL    MW4 6828  -0.005   3.251   3.063  0.4668 -0.0398 -0.2735
    1SOL     OW 6829   4.483   3.514   3.152  0.0315 -0.4082 -0.6747
    1SOL    HW2 6830   4.416   3.559   3.101  1.2779  0.6743 -1.4031
    1SOL    HW3 6831   4.478   3.422   3.125 -0.1685 -0.0598 -1.8147
    1SOL    MW4 6832   4.474   3.508   3.142  0.1695 -0.2193 -0.9212
    1SOL     OW 6833   0.227   3.602   3.038 -0.0402 -0.0551  0.5077
    1SOL    HW2 6834   0.238   3.691   3.073 -1.3916 -0.2958  1.5528
    1SOL    HW3 6835   0.145   3.571   3.076  0.6417 -1.9242  0.4779
    1SOL    MW4 6836   0.218   3.610   3.047 -0.1286 -0.3335  0.6416
    1SOL     OW 6837   0.228   3.876   3.134 -0.1014 -0.0054 -0.3564
    1SOL    HW2 6838   0.217   3.878   3.229 -0.9475  1.2013 -0.4712
    1SOL    HW3 6839   0.316   3.912   3.119 -0.2849  0.5575 -0.0819
    1SOL    MW4 6840   0.238   3.881   3.144 -0.2373  0.2279 -0.3352
    1SOL     OW 6841   4.484   4.010   3.034  0.5949  0.3162 -0.3856
    1SOL    HW2 6842   4.563   3.973   3.073  0.5050 -0.4235 -0.9003
    1SOL    HW3 6843   4.498   4.001   2.940  0.0037  0.4060 -0.4811
    1SOL    MW4 6844   4.496   4.004   3.027  0.5054  0.2303 -0.4663
    1SOL     OW 6845   0.034   4.271   3.118  0.1154 -0.3969 -0.2422
    1SOL    HW2 6846   0.063   4.264   3.209  1.2151 -0.3425 -0.5801
    1SOL    HW3 6847   0.019   4.180   3.091 -0.7418 -0.3746  0.1622
    1SOL    MW4 6848   0.036   4.258   3.126  0.1474 -0.3867 -0.2334
    1SOL     OW 6849   0.251   4.402   3.011 -0.0948  0.3169  0.2995
    1SOL    HW2 6850   0.172   4.356   3.042 -0.8813  1.6810  0.3252
    1SOL    HW3 6851   0.243   4.490   3.046  0.5129  1.0189 -1.2899
    1SOL    MW4 6852   0.240   4.407   3.020 -0.1184  0.5898  0.0930
    1SOL     OW 6853   0.668   0.013   3.128 -0.2032 -0.1726 -0.3152
    1SOL    HW2 6854   0.663  -0.075   3.093 -0.4181 -0.2093 -0.1929
    1SOL    HW3 6855   0.588   0.056   3.097 -1.5854 -0.9207  2.0698
    1SOL    MW4 6856   0.657   0.007   3.120 -0.4138 -0.2761  0.0157
    1SOL     OW 6857   0.449   0.153   3.014 -0.0421  0.1184  0.1441
    1SOL    HW2 6858   0.441   0.239   3.055  1.3726  0.3843 -0.1316
    1SOL    HW3 6859   0.384   0.099   3.059  1.1197  0.5507  2.3738
    1SOL    MW4 6860   0.439   0.157   3.025  0.2979  0.2106  0.4020
    1SOL     OW 6861   0.421   0.411   3.143 -0.5456  0.5619  0.1529
    1SOL    HW2 6862   0.426   0.424   3.238 -0.2419  1.4210  0.0249
    1SOL    HW3 6863   0.505   0.442   3.110 -0.0715 -1.1129 -0.2611
    1SOL    MW4 6864   0.433   0.417   3.151 -0.4429  0.4542  0.0813
    1SOL     OW 6865   0.660   0.498   3.037 -0.0139 -0.1736  0.0756
    1SOL    HW2 6866   0.737   0.459   3.079  2.4885  2.6555 -1.6328
    1SOL    HW3 6867   0.656   0.587   3.073 -2.8394 -0.4449  0.5277
    1SOL    MW4 6868   0.670   0.505   3.047 -0.0566  0.1639 -0.0904
    1SOL     OW 6869   0.652   0.773   3.134  0.1027 -0.3253  0.0852
    1SOL    HW2 6870   0.651   0.806   3.224  0.2252 -1.1832  0.3961
    1SOL    HW3 6871   0.580   0.820   3.092  0.7087  0.8710  0.3410
    1SOL    MW4 6872   0.643   0.784   3.140  0.1988 -0.2806  0.1600
    1SOL     OW 6873   0.425   0.903   3.017 -0.8607 -0.1212  0.2447
    1SOL    HW2 6874   0.351   0.863   3.063 -0.5888  0.6006  1.3213
    1SOL    HW3 6875   0.410   0.882   2.925 -1.3841 -1.6310  0.6623
    1SOL    MW4 6876   0.413   0.895   3.011 -0.8939 -0.2252  0.4420
    1SOL     OW 6877   0.452   1.159   3.155  0.0230  0.6711  0.1236
    1SOL    HW2 6878   0.448   1.077   3.106 -0.7579 -0.0563  1.3785
    1SOL    HW3 6879   0.384   1.214   3.117 -0.4421  0.1880  0.2636
    1SOL    MW4 6880   0.443   1.156   3.144 -0.1414  0.5114  0.3078
    1SOL     OW 6881   0.687   1.265   3.019 -0.5420 -0.1529 -0.0250
    1SOL    HW2 6882   0.752   1.207   3.057  0.0601  0.6414  0.1631
    1SOL    HW3 6883   0.603   1.230   3.050 -0.0954  0.1136  1.5303
    1SOL    MW4 6884   0.684   1.253   3.029 -0.4036 -0.0130  0.2048
    1SOL     OW 6885   0.696   1.541   3.109 -0.4486 -0.2137 -0.2452
    1SOL    HW2 6886   0.689   1.544   3.205  0.2747 -0.7065 -0.1706
    1SOL    HW3 6887   0.694   1.448   3.088 -1.2743 -0.0815 -0.7663
    1SOL    MW4 6888   0.695   1.529   3.119 -0.4621 -0.2612 -0.3040
    1SOL     OW 6889   0.472   1.677   3.001 -0.4445  0.2536 -0.1945
    1SOL    HW2 6890   0.546   1.629   3.037 -0.6027  0.7780  0.8702
    1SOL    HW3 6891   0.395   1.634   3.038 -0.5894  1.2519  0.7260
    1SOL    MW4 6892   0.472   1.665   3.011 -0.4845  0.4544  0.0675
    1SOL     OW 6893   0.444   1.891   3.157 -0.1167 -0.1389  0.3441
    1SOL    HW2 6894   0.448   1.815   3.099  1.1537 -0.0223  0.2758
    1SOL    HW3 6895   0.383   1.951   3.114  1.5361  0.3462 -1.3593
    1SOL    MW4 6896   0.436   1.889   3.144  0.2689 -0.0596  0.1104
    1SOL     OW 6897   0.673   2.036   3.004  0.2239  0.2267  0.2152
    1SOL    HW2 6898   0.753   2.008   3.050  0.6785  0.7492 -0.2453
    1SOL    HW3 6899   0.604   1.981   3.040  0.5616  0.6790  1.5804
    1SOL    MW4 6900   0.675   2.025   3.015  0.3285  0.3552  0.3350
    1SOL     OW 6901   0.662   2.306   3.094 -0.4644 -0.1656  0.6278
    1SOL    HW2 6902   0.667   2.311   3.190 -2.5372 -0.5868  0.7683
    1SOL    HW3 6903   0.658   2.212   3.075  0.7887 -0.1180  0.0607
    1SOL    MW4 6904   0.662   2.294   3.104 -0.5725 -0.2146  0.5713
    1SOL     OW 6905   0.422   2.404   3.001  0.0130 -0.2690  0.0098
    1SOL    HW2 6906   0.511   2.371   3.013 -0.1165 -0.9447 -0.8248
    1SOL    HW3 6907   0.410   2.407   2.906 -0.0843  1.9585  0.0645
    1SOL    MW4 6908   0.432   2.400   2.990 -0.0169 -0.0644 -0.0927
    1SOL     OW 6909   0.411   2.667   3.074 -0.4431 -0.3617  0.0834
    1SOL    HW2 6910   0.488   2.706   3.034  0.1323 -1.0784  0.4861
    1SOL    HW3 6911   0.415   2.575   3.048 -1.8106 -0.1640 -0.9149
    1SOL    MW4 6912   0.421   2.660   3.065 -0.5476 -0.4301  0.0048
    1SOL     OW 6913   0.657   2.789   2.995 -0.3602  0.0913  0.0176
    1SOL    HW2 6914   0.725   2.730   3.028 -0.3147  0.0582 -0.1358
    1SOL    HW3 6915   0.672   2.872   3.040  0.2436  0.3082 -0.5739
    1SOL    MW4 6916   0.668   2.792   3.005 -0.2745  0.1159 -0.0806
    1SOL     OW 6917   0.691   3.049   3.094  0.3904 -0.1855 -0.3846
    1SOL    HW2 6918   0.697   3.070   3.188 -0.3225 -1.2551 -0.0845
    1SOL    HW3 6919   0.635   3.117   3.058  0.2016 -0.0898  0.0786
    1SOL    MW4 6920   0.684   3.061   3.102  0.2714 -0.3140 -0.2840
    1SOL     OW 6921   0.467   3.214   3.012  0.0120  0.2230  0.2462
    1SOL    HW2 6922   0.461   3.302   3.047 -0.8586  1.0339 -1.8248
    1SOL    HW3 6923   0.395   3.166   3.053  0.5205  0.4513  1.4096
    1SOL    MW4 6924   0.457   3.219   3.022 -0.0358  0.3600  0.1266
    1SOL     OW 6925   0.486   3.497   3.103  0.0340 -0.5682 -0.0807
    1SOL    HW2 6926   0.477   3.505   3.198  1.2040  1.4731 -0.1313
    1SOL    HW3 6927   0.401   3.524   3.069 -0.1718 -0.6601  0.3551
    1SOL    MW4 6928   0.474   3.501   3.111  0.1613 -0.3109 -0.0298
    1SOL     OW 6929   0.689   3.670   3.018 -0.0522 -0.6448 -0.1123
    1SOL    HW2 6930   0.764   3.627   3.060 -0.2182  0.5279  1.4612
    1SOL    HW3 6931   0.614   3.617   3.043 -0.0849 -0.2368  0.6900
    1SOL    MW4 6932   0.689   3.657   3.027 -0.0784 -0.4361  0.2012
    1SOL     OW 6933   0.713   3.916   3.133 -0.6016  0.1033  0.1034
    1SOL    HW2 6934   0.711   3.915   3.228 -0.1584  0.9351  0.1286
    1SOL    HW3 6935   0.711   3.824   3.108  0.6230 -0.1664  0.9549
    1SOL    MW4 6936   0.713   3.904   3.142 -0.3816  0.1771  0.2193
    1SOL     OW 6937   0.453   3.995   3.062 -0.6722  0.2636 -0.1184
    1SOL    HW2 6938   0.544   3.968   3.072 -0.9773 -0.5735  0.3863
    1SOL    HW3 6939   0.444   4.013   2.969  0.2216  1.1229 -0.0563
    1SOL    MW4 6940   0.464   3.994   3.051 -0.5945  0.2666 -0.0434
    1SOL     OW 6941   0.458   4.260   3.147  0.5325 -0.2590 -0.0576
    1SOL    HW2 6942   0.442   4.169   3.122  1.1398 -1.0281  2.2755
    1SOL    HW3 6943   0.391   4.310   3.101 -1.0903 -2.1119  0.2567
    1SOL    MW4 6944   0.447   4.255   3.137  0.3985 -0.6051  0.2918
    1SOL     OW 6945   0.671   4.421   3.054  0.1167 -0.4442  0.0587
    1SOL    HW2 6946   0.593   4.369   3.074 -1.5029  1.8810 -0.0777
    1SOL    HW3 6947   0.675   4.423   2.959  0.8073 -1.1994  0.0625
    1SOL    MW4 6948   0.662   4.414   3.044 -0.0059 -0.2370  0.0412
    1SOL     OW 6949   1.098   0.001   3.137 -0.4097 -0.0438 -0.3865
    1SOL    HW2 6950   1.186   0.019   3.103 -0.2482  0.3330  0.2259
    1SOL    HW3 6951   1.039   0.033   3.069 -0.0646 -0.9041 -1.0974
    1SOL    MW4 6952   1.102   0.008   3.124 -0.3428 -0.1078 -0.3996
    1SOL     OW 6953   0.905   0.149   3.022  0.3720  0.4331  0.5176
    1SOL    HW2 6954   0.921   0.227   3.074  0.3919  0.3150  0.6911
    1SOL    HW3 6955   0.819   0.118   3.052  0.0201  0.8108 -0.0867
    1SOL    MW4 6956   0.896   0.155   3.033  0.3282  0.4674  0.4606
    1SOL     OW 6957   0.871   0.401   3.156  0.1815  0.8406 -0.4816
    1SOL    HW2 6958   0.870   0.399   3.251 -0.1393 -0.4557 -0.5062
    1SOL    HW3 6959   0.951   0.448   3.133  0.9730 -0.0684  0.4096
    1SOL    MW4 6960   0.882   0.407   3.165  0.2435  0.5496 -0.3674
    1SOL     OW 6961   1.105   0.477   3.020 -0.0055  0.4675  0.2481
    1SOL    HW2 6962   1.182   0.421   3.028  0.3568  0.8536 -0.4824
    1SOL    HW3 6963   1.078   0.468   2.929 -0.7813  0.3995  0.4770
    1SOL    MW4 6964   1.111   0.468   3.009 -0.0601  0.5095  0.1817
    1SOL     OW 6965   1.113   0.736   3.117  0.5607 -0.0980 -0.4200
    1SOL    HW2 6966   1.113   0.745   3.213  1.2783  0.2588 -0.4492
    1SOL    HW3 6967   1.106   0.642   3.102 -1.5018 -0.0198 -0.0450
    1SOL    MW4 6968   1.112   0.725   3.128  0.3834 -0.0407 -0.3746
    1SOL     OW 6969   0.883   0.854   2.999  0.0136 -0.4225  0.0434
    1SOL    HW2 6970   0.961   0.818   3.040  0.1720 -2.4222 -1.9007
    1SOL    HW3 6971   0.810   0.820   3.051  0.3799  1.0510  1.5668
    1SOL    MW4 6972   0.884   0.845   3.011  0.0828 -0.4919 -0.0122
    1SOL     OW 6973   0.879   1.108   3.115 -0.0082  0.4056  0.1456
    1SOL    HW2 6974   0.958   1.156   3.090  0.7483 -1.0846 -0.3424
    1SOL    HW3 6975   0.881   1.028   3.063 -1.0523 -0.3696  1.2613
    1SOL    MW4 6976   0.889   1.104   3.105 -0.0462  0.1067  0.2286
    1SOL     OW 6977   1.105   1.259   3.057 -0.0948  0.4391  0.2375
    1SOL    HW2 6978   1.170   1.206   3.104 -1.5529 -1.3791  0.2458
    1SOL    HW3 6979   1.129   1.249   2.964 -0.2841 -0.1400  0.2474
    1SOL    MW4 6980   1.117   1.250   3.051 -0.3121  0.1228  0.2398
    1SOL     OW 6981   1.093   1.535   3.098  0.0089 -0.2716  0.3941
    1SOL    HW2 6982   1.181   1.556   3.067 -1.2325  2.3828 -1.5192
    1SOL    HW3 6983   1.081   1.443   3.076  1.8295 -0.3193 -0.4732
    1SOL    MW4 6984   1.103   1.526   3.091  0.0854  0.0725  0.0272
    1SOL     OW 6985   0.887   1.721   3.027 -0.2142  0.2791  0.2935
    1SOL    HW2 6986   0.969   1.680   3.056  0.7381  2.4979  0.8691
    1SOL    HW3 6987   0.818   1.665   3.063  1.0377 -1.6414 -0.2176
    1SOL    MW4 6988   0.889   1.708   3.036  0.0767  0.3185  0.3018
    1SOL     OW 6989   0.929   1.965   3.137 -0.3471 -0.1318 -0.5507
    1SOL    HW2 6990   0.935   1.954   3.232  1.2866  1.1486 -0.4766
    1SOL    HW3 6991   0.922   1.876   3.103 -2.8286 -0.5176  0.8587
    1SOL    MW4 6992   0.929   1.952   3.145 -0.4590 -0.0137 -0.3550
    1SOL     OW 6993   1.155   2.064   3.028  0.0950  0.3681  0.3055
    1SOL    HW2 6994   1.073   2.027   3.060  0.3464 -0.3824  0.0874
    1SOL    HW3 6995   1.148   2.061   2.933 -0.5207  2.3146  0.2751
    1SOL    MW4 6996   1.143   2.059   3.020  0.0468  0.5262  0.2728
    1SOL     OW 6997   1.137   2.334   3.104  0.6470  0.3306  0.1452
    1SOL    HW2 6998   1.056   2.361   3.061  1.5186  0.7872 -1.2246
    1SOL    HW3 6999   1.138   2.238   3.096 -0.3395  0.2112  1.2503
    1SOL    MW4 7000   1.126   2.325   3.097  0.6319  0.3750  0.1104
    1SOL     OW 7001   0.882   2.415   2.976  0.1925  0.1052 -0.5858
    1SOL    HW2 7002   0.804   2.376   3.015 -0.2952  2.5165  0.9815
    1SOL    HW3 7003   0.865   2.415   2.882 -0.6265 -1.6082 -0.4497
    1SOL    MW4 7004   0.870   2.410   2.969  0.0201  0.1972 -0.3607
    1SOL     OW 7005   0.904   2.677   3.101 -0.2441 -0.2451 -0.0495
    1SOL    HW2 7006   0.920   2.683   3.196 -1.6618 -1.5139  0.2741
    1SOL    HW3 7007   0.902   2.584   3.083 -1.3305 -0.0205 -1.1167
    1SOL    MW4 7008   0.906   2.666   3.111 -0.5745 -0.3831 -0.1476
    1SOL     OW 7009   1.123   2.837   3.015 -0.4041  0.2093 -0.4318
    1SOL    HW2 7010   1.132   2.919   3.063  0.1835 -1.5133  2.5276
    1SOL    HW3 7011   1.037   2.804   3.040 -0.4534 -0.2982 -1.2515
    1SOL    MW4 7012   1.113   2.843   3.024 -0.3332 -0.0846 -0.1497
    1SOL     OW 7013   1.133   3.068   3.147 -0.4520 -0.2619  0.1728
    1SOL    HW2 7014   1.211   3.122   3.136 -1.1472  0.2833 -2.1932
    1SOL    HW3 7015   1.060   3.123   3.118 -1.5255 -1.4214  0.5923
    1SOL    MW4 7016   1.133   3.082   3.142 -0.6852 -0.3431 -0.0842
    1SOL     OW 7017   0.926   3.224   3.027 -0.4355 -0.4251  0.5140
    1SOL    HW2 7018   0.845   3.179   3.053 -0.7795  0.2308  0.5955
    1SOL    HW3 7019   0.927   3.218   2.932 -0.7003 -0.2331  0.4970
    1SOL    MW4 7020   0.915   3.217   3.018 -0.5158 -0.3130  0.5226
    1SOL     OW 7021   0.885   3.504   3.133 -0.4559 -0.4625 -0.0047
    1SOL    HW2 7022   0.962   3.549   3.099  0.1115  0.2978  2.1779
    1SOL    HW3 7023   0.884   3.419   3.088  1.5351 -0.3889 -0.2138
    1SOL    MW4 7024   0.895   3.499   3.123 -0.1184 -0.3526  0.2556
    1SOL     OW 7025   1.106   3.639   3.013  0.2179 -0.0131  0.0752
    1SOL    HW2 7026   1.182   3.592   3.047  0.3942 -0.0020 -0.3069
    1SOL    HW3 7027   1.119   3.729   3.042  0.8469  0.1903 -0.8179
    1SOL    MW4 7028   1.118   3.645   3.021  0.3241  0.0150 -0.0930
    1SOL     OW 7029   1.150   3.880   3.127 -0.4578  0.6644 -0.0999
    1SOL    HW2 7030   1.148   3.891   3.222 -0.1126  0.0520 -0.0166
    1SOL    HW3 7031   1.087   3.944   3.094 -1.5931 -0.0416  0.6361
    1SOL    MW4 7032   1.141   3.890   3.135 -0.5621  0.4902  0.0083
    1SOL     OW 7033   0.928   4.062   3.037  0.4984  0.2413  0.6429
    1SOL    HW2 7034   0.854   4.012   3.073  0.8231  0.6969  1.9506
    1SOL    HW3 7035   0.926   4.043   2.943 -3.2677  2.8325  0.1097
    1SOL    MW4 7036   0.918   4.053   3.030  0.0443  0.6433  0.7453
    1SOL     OW 7037   0.879   4.294   3.180  0.1161 -0.2023  0.1618
    1SOL    HW2 7038   0.881   4.205   3.143 -0.8762 -0.5154  0.8369
    1SOL    HW3 7039   0.811   4.339   3.131 -0.0400 -0.1077  0.4654
    1SOL    MW4 7040   0.871   4.288   3.168 -0.0354 -0.2313  0.2909
    1SOL     OW 7041   1.096   4.400   3.046 -0.0436 -0.1491 -0.0903
    1SOL    HW2 7042   1.018   4.361   3.085 -0.5922  0.8318 -0.1774
    1SOL    HW3 7043   1.100   4.488   3.085  1.1662 -0.2851  0.1121
    1SOL    MW4 7044   1.086   4.407   3.057  0.0436 -0.0372 -0.0751
    1SOL     OW 7045   1.611   4.603   3.117  0.0921 -0.8689 -0.1973
    1SOL    HW2 7046   1.608   4.616   3.212  1.5062 -0.9408 -0.1350
    1SOL    HW3 7047   1.529   4.640   3.085  0.1439  0.2413  0.9235
    1SOL    MW4 7048   1.600   4.609   3.126  0.2855 -0.7319 -0.0412
    1SOL     OW 7049   1.347   0.037   3.029  0.4173 -0.4476 -0.2206
    1SOL    HW2 7050   1.346   0.131   3.048  2.4517 -0.3342 -0.4824
    1SOL    HW3 7051   1.347   0.032   2.933 -0.3799 -0.7301 -0.2030
    1SOL    MW4 7052   1.347   0.049   3.019  0.5807 -0.4699 -0.2527
    1SOL     OW 7053   1.348   0.317   3.092 -0.1270  0.1407  0.0376
    1SOL    HW2 7054   1.372   0.322   3.185 -0.3249  0.6984  0.0581
    1SOL    HW3 7055   1.420   0.361   3.047  0.6184 -1.2697 -0.1842
    1SOL    MW4 7056   1.361   0.324   3.098 -0.0547  0.0282  0.0110
    1SOL     OW 7057   1.559   0.450   2.988 -0.0219 -0.4501  0.5605
    1SOL    HW2 7058   1.538   0.530   3.037  0.9664 -0.6013  1.2394
    1SOL    HW3 7059   1.566   0.479   2.897  1.3014  0.4274  0.9286
    1SOL    MW4 7060   1.557   0.465   2.982  0.2831 -0.3543  0.6986
    1SOL     OW 7061   1.558   0.711   3.101 -0.0137  0.3000  0.5159
    1SOL    HW2 7062   1.560   0.735   3.193  0.7455  0.3490  0.4920
    1SOL    HW3 7063   1.499   0.775   3.060  0.7743  1.1650  0.7207
    1SOL    MW4 7064   1.551   0.723   3.108  0.1905  0.4206  0.5398
    1SOL     OW 7065   1.338   0.847   3.004 -0.2783  0.4597 -0.0867
    1SOL    HW2 7066   1.321   0.915   3.070  1.9607 -0.5665  1.6049
    1SOL    HW3 7067   1.278   0.776   3.028  0.7542 -0.0428  1.1123
    1SOL    MW4 7068   1.328   0.847   3.016  0.1533  0.2581  0.2949
    1SOL     OW 7069   1.294   1.082   3.158 -0.0555  0.2319 -0.4564
    1SOL    HW2 7070   1.319   1.101   3.248 -0.8421 -2.2934  0.3364
    1SOL    HW3 7071   1.372   1.100   3.107  1.0846 -0.4397  1.0248
    1SOL    MW4 7072   1.307   1.087   3.163 -0.0088 -0.1899 -0.1562
    1SOL     OW 7073   1.528   1.180   3.038  0.1472  0.1269 -0.2550
    1SOL    HW2 7074   1.621   1.160   3.043 -0.1567 -0.8734  2.2851
    1SOL    HW3 7075   1.520   1.267   3.077 -0.1014 -0.2023  0.4284
    1SOL    MW4 7076   1.539   1.189   3.044  0.0743 -0.0485  0.1705
    1SOL     OW 7077   1.556   1.474   3.120 -0.1191  0.4685  0.5152
    1SOL    HW2 7078   1.628   1.519   3.077 -1.0037  0.3109 -1.1928
    1SOL    HW3 7079   1.477   1.516   3.086 -0.9351 -1.7438 -0.4758
    1SOL    MW4 7080   1.555   1.485   3.110 -0.3434  0.1558  0.1595
    1SOL     OW 7081   1.352   1.651   3.031  0.4771 -0.3502  0.2793
    1SOL    HW2 7082   1.350   1.737   3.072  0.7103 -0.0561 -0.3204
    1SOL    HW3 7083   1.366   1.669   2.938 -2.5339 -0.8850 -0.3283
    1SOL    MW4 7084   1.353   1.665   3.024  0.1106 -0.3821  0.1199
    1SOL     OW 7085   1.363   1.909   3.115  0.0279 -0.2520 -0.0459
    1SOL    HW2 7086   1.364   1.922   3.209 -1.2365 -0.2254 -0.0358
    1SOL    HW3 7087   1.287   1.958   3.084 -0.4177 -1.4499 -0.9016
    1SOL    MW4 7088   1.353   1.917   3.123 -0.1978 -0.4066 -0.1576
    1SOL     OW 7089   1.577   2.046   3.016  0.1934 -0.5460  0.3599
    1SOL    HW2 7090   1.495   2.002   3.040 -0.6998  0.4342 -0.8206
    1SOL    HW3 7091   1.573   2.053   2.920  1.4319 -0.0466  0.3390
    1SOL    MW4 7092   1.566   2.041   3.006  0.2390 -0.3505  0.2010
    1SOL     OW 7093   1.555   2.332   3.108 -0.1087 -0.3087  0.1961
    1SOL    HW2 7094   1.492   2.376   3.051 -0.2381  1.6200  1.7719
    1SOL    HW3 7095   1.567   2.246   3.069 -1.6566  0.2850 -1.6450
    1SOL    MW4 7096   1.548   2.327   3.095 -0.3299  0.0243  0.1612
    1SOL     OW 7097   1.348   2.448   2.965 -0.2011  0.0337  0.0190
    1SOL    HW2 7098   1.267   2.415   3.003 -0.2123  0.4750  0.3706
    1SOL    HW3 7099   1.334   2.443   2.870  0.5628 -2.9635  0.0078
    1SOL    MW4 7100   1.336   2.443   2.958 -0.1019 -0.3035  0.0639
    1SOL     OW 7101   1.325   2.678   3.096  0.7281 -0.1032  0.1217
    1SOL    HW2 7102   1.325   2.597   3.045  0.3856  1.2709 -2.1721
    1SOL    HW3 7103   1.247   2.724   3.067  1.8117  1.7861  0.0981
    1SOL    MW4 7104   1.315   2.673   3.085  0.8259  0.3276 -0.1843
    1SOL     OW 7105   1.545   2.851   3.031 -0.0382 -0.1211  0.0072
    1SOL    HW2 7106   1.617   2.795   3.062 -1.0421 -1.3079  0.2356
    1SOL    HW3 7107   1.466   2.804   3.056 -0.9236  1.7838  0.9066
    1SOL    MW4 7108   1.544   2.838   3.039 -0.2874 -0.0262  0.1559
    1SOL     OW 7109   1.555   3.111   3.143 -0.2166  0.2035 -0.3837
    1SOL    HW2 7110   1.534   3.093   3.235 -1.3894  0.9482 -0.4978
    1SOL    HW3 7111   1.545   3.026   3.100  2.8150 -0.7182  0.5816
    1SOL    MW4 7112   1.551   3.097   3.149  0.0286  0.1800 -0.2716
    1SOL     OW 7113   1.339   3.210   3.035  0.4456  0.0768 -0.1866
    1SOL    HW2 7114   1.424   3.184   3.072  0.5453 -1.0673 -1.2171
    1SOL    HW3 7115   1.351   3.202   2.940 -1.2805 -1.4826 -0.2795
    1SOL    MW4 7116   1.352   3.206   3.027  0.2310 -0.2799 -0.3347
    1SOL     OW 7117   1.343   3.489   3.102  0.2523 -0.3258 -0.0838
    1SOL    HW2 7118   1.334   3.481   3.197 -0.2987  0.2177 -0.0919
    1SOL    HW3 7119   1.342   3.398   3.070 -0.4751 -0.4703  0.3469
    1SOL    MW4 7120   1.341   3.476   3.110  0.0837 -0.2732 -0.0284
    1SOL     OW 7121   1.551   3.641   3.032  0.2978 -0.0764 -0.1065
    1SOL    HW2 7122   1.479   3.593   3.074 -0.0082  0.1407 -0.3774
    1SOL    HW3 7123   1.557   3.603   2.944  1.3700 -0.9796  0.3461
    1SOL    MW4 7124   1.542   3.630   3.026  0.3989 -0.1669 -0.0825
    1SOL     OW 7125   1.587   3.903   3.118  0.2348 -0.2422  0.1896
    1SOL    HW2 7126   1.677   3.922   3.092  0.0177  0.1222 -0.3106
    1SOL    HW3 7127   1.571   3.814   3.085  0.5515 -0.4739  0.6589
    1SOL    MW4 7128   1.596   3.894   3.110  0.2480 -0.2251  0.1855
    1SOL     OW 7129   1.350   4.040   3.003 -0.2978 -0.1535  0.0499
    1SOL    HW2 7130   1.436   4.009   3.031 -0.3571  0.5092  0.9947
    1SOL    HW3 7131   1.288   3.981   3.046 -0.2848 -1.9374 -2.2862
    1SOL    MW4 7132   1.353   4.028   3.012 -0.3039 -0.3004 -0.1338
    1SOL     OW 7133   1.324   4.266   3.148 -0.5141  0.1576  0.4749
    1SOL    HW2 7134   1.323   4.184   3.099 -0.5648 -0.1074  0.9216
    1SOL    HW3 7135   1.243   4.310   3.124  0.1517  0.6971 -0.8213
    1SOL    MW4 7136   1.313   4.261   3.139 -0.4330  0.1936  0.3631
    1SOL     OW 7137   1.575   4.344   3.039 -0.6317 -0.0612  0.4539
    1SOL    HW2 7138   1.484   4.325   3.066 -0.5056 -0.3812  0.6588
    1SOL    HW3 7139   1.588   4.435   3.063 -1.0484  0.1162  0.0178
    1SOL    MW4 7140   1.564   4.353   3.046 -0.6701 -0.0801  0.4234
    1SOL     OW 7141   2.040   4.650   3.153  0.8333  0.3001 -0.6132
    1SOL    HW2 7142   2.031   4.669   3.246  1.1710 -0.3604 -0.4471
    1SOL    HW3 7143   1.962   4.690   3.113 -0.9856 -2.1493  0.3571
    1SOL    MW4 7144   2.028   4.658   3.160  0.6380 -0.1101 -0.4635
    1SOL     OW 7145   1.830   0.098   3.009  0.2081  0.3089 -0.2964
    1SOL    HW2 7146   1.757   0.039   3.030  1.1961 -0.7868  0.0693
    1SOL    HW3 7147   1.840   0.091   2.914  0.1781  0.0725 -0.2804
    1SOL    MW4 7148   1.821   0.090   2.999  0.3343  0.1332 -0.2458
    1SOL     OW 7149   1.794   0.358   3.125 -0.0110  0.0366  0.2233
    1SOL    HW2 7150   1.798   0.279   3.071  0.8104 -0.9145  1.6645
    1SOL    HW3 7151   1.723   0.409   3.086  0.0907 -0.9604 -1.3162
    1SOL    MW4 7152   1.785   0.354   3.112  0.1109 -0.2204  0.2105
    1SOL     OW 7153   2.012   0.495   3.048 -0.4343 -0.4098 -0.0750
    1SOL    HW2 7154   1.944   0.434   3.078 -0.2415 -0.5084  0.1646
    1SOL    HW3 7155   2.008   0.489   2.952 -0.1327 -1.1203 -0.0485
    1SOL    MW4 7156   2.002   0.486   3.039 -0.3693 -0.5165 -0.0398
    1SOL     OW 7157   2.030   0.744   3.165  0.5641 -0.5168 -0.0570
    1SOL    HW2 7158   1.963   0.791   3.115  1.4558  0.8645  0.0134
    1SOL    HW3 7159   2.038   0.660   3.121 -0.4258 -0.2702 -0.7366
    1SOL    MW4 7160   2.022   0.739   3.153  0.5515 -0.3020 -0.1376
    1SOL     OW 7161   1.811   0.874   3.028 -0.0409 -0.0851 -0.2610
    1SOL    HW2 7162   1.745   0.822   3.075  0.3025 -0.7482 -0.5059
    1SOL    HW3 7163   1.788   0.864   2.936  1.2625 -1.5002 -0.4367
    1SOL    MW4 7164   1.799   0.866   3.022  0.1763 -0.3593 -0.3166
    1SOL     OW 7165   1.803   1.140   3.089 -0.2855 -0.2820 -0.0993
    1SOL    HW2 7166   1.796   1.141   3.185  0.8026  1.6914 -0.0075
    1SOL    HW3 7167   1.809   1.048   3.066  0.4247 -0.7425  1.8281
    1SOL    MW4 7168   1.803   1.128   3.099 -0.0483 -0.0824  0.1674
    1SOL     OW 7169   2.009   1.238   2.949 -0.0243 -0.2988  0.5220
    1SOL    HW2 7170   2.088   1.211   2.996  0.8431 -1.6652 -1.6297
    1SOL    HW3 7171   1.937   1.199   2.999  0.8064 -0.9428  1.2339
    1SOL    MW4 7172   2.010   1.229   2.962  0.1998 -0.5640  0.3321
    1SOL     OW 7173   2.017   1.516   3.072 -0.3999 -0.0409 -0.2327
    1SOL    HW2 7174   2.033   1.525   3.166 -2.3654  0.0682  0.1128
    1SOL    HW3 7175   2.014   1.422   3.057  2.2819 -0.0919 -0.6320
    1SOL    MW4 7176   2.019   1.505   3.083 -0.3054 -0.0333 -0.2398
    1SOL     OW 7177   1.763   1.629   3.010 -0.0485  0.0114 -0.1801
    1SOL    HW2 7178   1.777   1.721   3.034 -0.1189  0.2646 -1.1061
    1SOL    HW3 7179   1.834   1.582   3.054  0.8967  0.7039 -0.9398
    1SOL    MW4 7180   1.774   1.635   3.019  0.0670  0.1361 -0.4027
    1SOL     OW 7181   1.787   1.889   3.094  0.2848 -0.6623  0.4453
    1SOL    HW2 7182   1.859   1.924   3.042  0.8809 -1.8849  0.4132
    1SOL    HW3 7183   1.711   1.940   3.069  0.8406 -0.3631 -0.6430
    1SOL    MW4 7184   1.787   1.900   3.084  0.4367 -0.7842  0.2975
    1SOL     OW 7185   2.012   2.012   2.979 -0.0450  0.0448 -0.2284
    1SOL    HW2 7186   2.092   1.973   3.016 -0.0383 -1.1382 -1.4744
    1SOL    HW3 7187   1.996   2.088   3.035  0.3497 -1.3125  1.8285
    1SOL    MW4 7188   2.021   2.017   2.992  0.0079 -0.2902 -0.1214
    1SOL     OW 7189   2.011   2.247   3.112  0.4841  0.4191 -0.3157
    1SOL    HW2 7190   2.097   2.280   3.085  0.2267  1.1564 -0.2595
    1SOL    HW3 7191   1.951   2.320   3.095  0.3293  0.9447  2.2490
    1SOL    MW4 7192   2.015   2.261   3.106  0.4296  0.5856  0.0300
    1SOL     OW 7193   1.801   2.435   3.038  0.2632 -0.1932  0.4503
    1SOL    HW2 7194   1.801   2.529   3.056  1.1178 -0.1770  0.3634
    1SOL    HW3 7195   1.714   2.406   3.066 -0.7898  0.9980 -1.4497
    1SOL    MW4 7196   1.789   2.444   3.044  0.2370 -0.0339  0.1884
    1SOL     OW 7197   1.770   2.704   3.119 -0.0142 -0.2798 -0.2002
    1SOL    HW2 7198   1.768   2.690   3.213 -1.2865 -0.1017 -0.1933
    1SOL    HW3 7199   1.856   2.741   3.102  1.1950 -2.6327  0.5610
    1SOL    MW4 7200   1.781   2.707   3.129 -0.0225 -0.5665 -0.0989
    1SOL     OW 7201   2.005   2.805   3.021  0.3292  0.3782  0.3525
    1SOL    HW2 7202   2.025   2.894   3.049  0.1742  0.7505 -0.7187
    1SOL    HW3 7203   2.000   2.810   2.926 -0.0343 -0.7050  0.3086
    1SOL    MW4 7204   2.007   2.817   3.012  0.2608  0.2842  0.2053
    1SOL     OW 7205   2.008   3.104   3.099 -0.1740  0.3544 -0.8048
    1SOL    HW2 7206   2.020   3.102   3.194  1.3219  0.5070 -0.9783
    1SOL    HW3 7207   1.922   3.143   3.086 -0.5609 -0.0483  0.4981
    1SOL    MW4 7208   1.998   3.109   3.110 -0.0277  0.3214 -0.6559
    1SOL     OW 7209   1.784   3.258   3.070 -0.3408  0.1309  0.2637
    1SOL    HW2 7210   1.710   3.203   3.096 -0.1023  0.1499  0.9867
    1SOL    HW3 7211   1.780   3.259   2.974 -1.1841  0.0082  0.2921
    1SOL    MW4 7212   1.773   3.251   3.060 -0.4206  0.1171  0.3629
    1SOL     OW 7213   1.797   3.517   3.158 -0.0294  0.2770 -0.3198
    1SOL    HW2 7214   1.798   3.423   3.137  1.0923  0.4783 -1.2583
    1SOL    HW3 7215   1.714   3.549   3.121 -0.8824 -0.5189  0.8718
    1SOL    MW4 7216   1.786   3.509   3.150  0.0061  0.1986 -0.2863
    1SOL     OW 7217   2.028   3.595   3.023 -0.2667 -0.2196  0.4557
    1SOL    HW2 7218   2.043   3.684   3.055 -2.2241 -0.1201  1.1138
    1SOL    HW3 7219   1.943   3.570   3.058 -0.5754 -1.6758 -1.2506
    1SOL    MW4 7220   2.019   3.604   3.032 -0.5655 -0.3986  0.3173
    1SOL     OW 7221   2.100   3.837   3.114 -0.0345  0.7853 -0.1987
    1SOL    HW2 7222   2.093   3.837   3.209  1.7727  1.4771 -0.0565
    1SOL    HW3 7223   2.020   3.882   3.085 -0.4562  0.8333  0.9833
    1SOL    MW4 7224   2.088   3.843   3.123  0.1481  0.8829 -0.0241
    1SOL     OW 7225   1.846   3.957   3.025  0.0774  0.1888 -0.0928
    1SOL    HW2 7226   1.873   4.047   3.042 -0.0925  0.1180  0.5614
    1SOL    HW3 7227   1.816   3.958   2.934  3.1605  0.0408 -1.1713
    1SOL    MW4 7228   1.845   3.969   3.015  0.4617  0.1600 -0.1490
    1SOL     OW 7229   1.817   4.246   3.120 -0.6138 -0.1842  0.1730
    1SOL    HW2 7230   1.885   4.310   3.096 -0.3907 -0.2420  0.6539
    1SOL    HW3 7231   1.738   4.279   3.077 -0.7192  0.9558  1.2104
    1SOL    MW4 7232   1.815   4.259   3.111 -0.5982 -0.0415  0.3731
    1SOL     OW 7233   2.060   4.366   3.040 -0.3316 -0.1287  0.0562
    1SOL    HW2 7234   2.078   4.456   3.066  1.3174 -0.0842 -1.1480
    1SOL    HW3 7235   2.063   4.368   2.944 -0.3928 -1.4410  0.0188
    1SOL    MW4 7236   2.063   4.378   3.030 -0.1221 -0.2961 -0.1073
    1SOL     OW 7237   2.486   4.645   3.162  0.4483 -0.5866 -0.2052
    1SOL    HW2 7238   2.499   4.551   3.152  0.1072 -0.5166 -1.4218
    1SOL    HW3 7239   2.404   4.663   3.116  1.0232  0.4502 -0.8527
    1SOL    MW4 7240   2.477   4.635   3.155  0.4790 -0.4406 -0.4513
    1SOL     OW 7241   2.262   0.082   3.029  0.3915 -0.5989 -0.1611
    1SOL    HW2 7242   2.266   0.178   3.028  1.7565 -0.6520 -0.1130
    1SOL    HW3 7243   2.182   0.063   3.079  0.6347  0.4986  0.6802
    1SOL    MW4 7244   2.252   0.092   3.036  0.6039 -0.4611 -0.0436
    1SOL     OW 7245   2.246   0.352   3.099 -0.0308  0.5452  0.0835
    1SOL    HW2 7246   2.253   0.349   3.195  1.1123  3.6917  0.1428
    1SOL    HW3 7247   2.165   0.399   3.083  0.1829  0.7070 -0.5174
    1SOL    MW4 7248   2.236   0.357   3.110  0.1483  0.9817  0.0119
    1SOL     OW 7249   2.493   0.477   3.013 -0.7087 -0.5057 -0.0737
    1SOL    HW2 7250   2.411   0.442   3.047 -1.0841  0.2825 -0.1488
    1SOL    HW3 7251   2.479   0.486   2.919 -2.1185  3.6277  0.3911
    1SOL    MW4 7252   2.480   0.474   3.005 -0.9441  0.1437 -0.0224
    1SOL     OW 7253   2.467   0.734   3.123  0.2976 -0.0409  0.4486
    1SOL    HW2 7254   2.554   0.771   3.107  0.5297 -0.8695 -0.3208
    1SOL    HW3 7255   2.476   0.642   3.098 -1.2001  0.1992 -1.1294
    1SOL    MW4 7256   2.480   0.727   3.117  0.1304 -0.1186  0.1390
    1SOL     OW 7257   2.260   0.883   3.053 -0.1500 -0.5572 -0.0137
    1SOL    HW2 7258   2.345   0.849   3.081 -0.5156  0.8366  2.9447
    1SOL    HW3 7259   2.196   0.823   3.092 -0.6281  0.4931  0.8255
    1SOL    MW4 7260   2.263   0.870   3.062 -0.2613 -0.2347  0.4873
    1SOL     OW 7261   2.238   1.155   3.077  0.3776 -0.4772 -0.3374
    1SOL    HW2 7262   2.239   1.152   3.172  1.1902  0.8272 -0.2881
    1SOL    HW3 7263   2.232   1.064   3.050 -2.1805 -0.7442  0.9606
    1SOL    MW4 7264   2.238   1.143   3.086  0.1473 -0.3402 -0.1597
    1SOL     OW 7265   2.476   1.280   3.009  0.2701 -0.3126 -0.1935
    1SOL    HW2 7266   2.398   1.230   3.035 -1.7350  1.7923 -1.9795
    1SOL    HW3 7267   2.485   1.263   2.915  0.9638  0.8133 -0.3356
    1SOL    MW4 7268   2.467   1.271   3.000  0.0970  0.1137 -0.4480
    1SOL     OW 7269   2.463   1.533   3.108 -0.1538 -0.0957  0.6839
    1SOL    HW2 7270   2.385   1.578   3.076  0.4267  0.4275 -0.0348
    1SOL    HW3 7271   2.456   1.445   3.071 -0.1378  0.1131  0.1782
    1SOL    MW4 7272   2.452   1.528   3.099 -0.0751  0.0008  0.5224
    1SOL     OW 7273   2.235   1.656   3.005 -0.2614 -0.3911 -0.0639
    1SOL    HW2 7274   2.153   1.614   3.029 -1.1025  1.3536  0.1612
    1SOL    HW3 7275   2.239   1.648   2.910 -0.9060 -0.0870 -0.1177
    1SOL    MW4 7276   2.225   1.649   2.996 -0.4573 -0.1209 -0.0415
    1SOL     OW 7277   2.236   1.922   3.114 -0.5251  0.3929 -0.0649
    1SOL    HW2 7278   2.307   1.969   3.069 -0.3224  0.2649  0.1185
    1SOL    HW3 7279   2.242   1.833   3.081 -1.3799  0.6649 -0.9694
    1SOL    MW4 7280   2.246   1.917   3.104 -0.6111  0.4120 -0.1602
    1SOL     OW 7281   2.443   2.050   2.998  0.5736  0.3401 -0.0108
    1SOL    HW2 7282   2.523   2.004   3.025  1.0625  0.9370 -0.4424
    1SOL    HW3 7283   2.434   2.030   2.905 -0.4302 -0.6911  0.2978
    1SOL    MW4 7284   2.452   2.041   2.989  0.5054  0.2828 -0.0269
    1SOL     OW 7285   2.499   2.314   3.128 -0.3843 -0.0515  0.1000
    1SOL    HW2 7286   2.483   2.306   3.222 -2.6058  0.4312 -0.2214
    1SOL    HW3 7287   2.488   2.225   3.094 -0.2438 -0.1067  0.1981
    1SOL    MW4 7288   2.496   2.301   3.136 -0.6590  0.0050  0.0703
    1SOL     OW 7289   2.232   2.381   3.000  0.1079  0.6315  0.1318
    1SOL    HW2 7290   2.224   2.474   3.022  0.2571  0.6601  0.0690
    1SOL    HW3 7291   2.315   2.355   3.041 -0.2381  0.3777  0.6723
    1SOL    MW4 7292   2.242   2.390   3.009  0.0820  0.6020  0.1948
    1SOL     OW 7293   2.225   2.649   3.096  0.6283  0.2491  0.4929
    1SOL    HW2 7294   2.299   2.696   3.059  1.3482 -1.5935 -0.4557
    1SOL    HW3 7295   2.148   2.702   3.073  1.4985  1.3750  0.1737
    1SOL    MW4 7296   2.224   2.662   3.088  0.8383  0.1545  0.3257
    1SOL     OW 7297   2.429   2.796   3.014 -0.2640  0.2250  0.6550
    1SOL    HW2 7298   2.436   2.889   3.036 -0.3517  0.0345  1.5023
    1SOL    HW3 7299   2.415   2.794   2.920  0.0309  1.0616  0.5938
    1SOL    MW4 7300   2.428   2.808   3.005 -0.2365  0.3102  0.7584
    1SOL     OW 7301   2.477   3.057   3.088  0.1208 -0.3943  0.7244
    1SOL    HW2 7302   2.551   3.096   3.040  0.5515 -0.3065  1.4620
    1SOL    HW3 7303   2.403   3.115   3.068  0.7025  0.6870  1.6275
    1SOL    MW4 7304   2.477   3.070   3.079  0.2544 -0.2403  0.9408
    1SOL     OW 7305   2.253   3.205   3.018 -0.2292  0.0180  0.6612
    1SOL    HW2 7306   2.249   3.285   3.070  0.6816  0.0565  0.6790
    1SOL    HW3 7307   2.175   3.155   3.044  1.4431 -1.0837  3.9170
    1SOL    MW4 7308   2.242   3.209   3.028  0.1118 -0.1223  1.0931
    1SOL     OW 7309   2.255   3.488   3.117 -0.1776  0.1067  0.2649
    1SOL    HW2 7310   2.318   3.554   3.088 -0.3212 -0.4035 -1.2432
    1SOL    HW3 7311   2.171   3.519   3.084 -0.3184 -0.5751 -0.0094
    1SOL    MW4 7312   2.252   3.501   3.109 -0.2153 -0.0508  0.0298
    1SOL     OW 7313   2.482   3.613   2.997  0.4383  0.0280 -0.2750
    1SOL    HW2 7314   2.549   3.565   3.046 -0.2440  0.9182  1.5555
    1SOL    HW3 7315   2.494   3.704   3.022 -0.9372  0.3046 -0.5626
    1SOL    MW4 7316   2.492   3.619   3.006  0.1669  0.1817 -0.0715
    1SOL     OW 7317   2.526   3.871   3.090 -0.5991  0.4681 -0.0187
    1SOL    HW2 7318   2.506   3.883   3.183 -0.8924  2.0294 -0.2608
    1SOL    HW3 7319   2.615   3.905   3.080 -0.1039 -0.8234 -0.0957
    1SOL    MW4 7320   2.535   3.877   3.101 -0.5727  0.5033 -0.0610
    1SOL     OW 7321   2.301   4.011   2.992  0.0425 -0.1234  0.2675
    1SOL    HW2 7322   2.389   3.971   2.994  0.0572 -0.0943  0.2192
    1SOL    HW3 7323   2.245   3.946   3.033  0.0066 -0.3497 -0.1317
    1SOL    MW4 7324   2.306   3.997   2.997  0.0398 -0.1495  0.2086
    1SOL     OW 7325   2.275   4.221   3.162  0.5113 -0.4187 -0.0905
    1SOL    HW2 7326   2.305   4.142   3.116  0.9986  0.5915 -1.5281
    1SOL    HW3 7327   2.194   4.246   3.117 -0.6110 -1.0795  1.4938
    1SOL    MW4 7328   2.268   4.214   3.150  0.4277 -0.3729 -0.0710
    1SOL     OW 7329   2.494   4.377   3.069  0.0532  0.0005  0.1479
    1SOL    HW2 7330   2.420   4.323   3.095  0.3191 -0.0036  0.9286
    1SOL    HW3 7331   2.484   4.390   2.975 -0.2525 -1.0345  0.0396
    1SOL    MW4 7332   2.483   4.372   3.060  0.0482 -0.1369  0.2367
    1SOL     OW 7333   2.925   4.654   3.159  0.0022  0.1885 -0.1121
    1SOL    HW2 7334   3.001   4.698   3.122  1.6829 -1.8146  0.8632
    1SOL    HW3 7335   2.917   4.573   3.109 -3.2057  1.6142 -2.0433
    1SOL    MW4 7336   2.934   4.649   3.148 -0.1991  0.1123 -0.2379
    1SOL     OW 7337   2.699   0.097   3.031  0.4015  0.2795 -0.3944
    1SOL    HW2 7338   2.770   0.054   3.077  0.6067  1.7895  0.7124
    1SOL    HW3 7339   2.619   0.061   3.071  0.5532 -0.0876 -0.4194
    1SOL    MW4 7340   2.698   0.087   3.042  0.4485  0.4303 -0.2518
    1SOL     OW 7341   2.715   0.355   3.112 -0.1206 -0.0713  0.0771
    1SOL    HW2 7342   2.718   0.262   3.087 -0.3154 -0.0692  0.0403
    1SOL    HW3 7343   2.630   0.385   3.079 -1.3495 -0.6053  2.6199
    1SOL    MW4 7344   2.704   0.347   3.104 -0.3083 -0.1415  0.4075
    1SOL     OW 7345   2.941   0.510   3.013 -0.2348  0.2009 -0.1608
    1SOL    HW2 7346   2.860   0.465   3.035  1.6585 -3.3120 -0.0694
    1SOL    HW3 7347   2.946   0.508   2.918 -0.1145  0.1798 -0.1544
    1SOL    MW4 7348   2.931   0.504   3.004  0.0308 -0.2653 -0.1481
    1SOL     OW 7349   2.932   0.782   3.111 -0.5673 -0.3033  0.5297
    1SOL    HW2 7350   2.924   0.765   3.204 -1.0257 -1.1684  0.3457
    1SOL    HW3 7351   2.919   0.696   3.070  0.6820 -0.1204 -0.2773
    1SOL    MW4 7352   2.929   0.768   3.118 -0.4625 -0.3933  0.3991
    1SOL     OW 7353   2.688   0.905   3.065  0.0990  0.3033 -0.8528
    1SOL    HW2 7354   2.688   0.993   3.102 -0.5740  0.1899 -0.5867
    1SOL    HW3 7355   2.776   0.871   3.085 -0.6730 -0.2521  1.8217
    1SOL    MW4 7356   2.700   0.912   3.072 -0.0916  0.2151 -0.4649
    1SOL     OW 7357   2.690   1.174   3.145 -0.1721 -0.0837 -0.4778
    1SOL    HW2 7358   2.764   1.218   3.105  0.6642 -1.9895 -1.0797
    1SOL    HW3 7359   2.614   1.203   3.095  0.1253  2.0014  0.2468
    1SOL    MW4 7360   2.690   1.183   3.133 -0.0224 -0.0601 -0.4618
    1SOL     OW 7361   2.895   1.289   3.004 -0.2339 -0.6948 -0.1085
    1SOL    HW2 7362   2.971   1.240   3.035 -0.5294  0.3205  2.3445
    1SOL    HW3 7363   2.902   1.373   3.048 -3.0513 -0.7660  0.5264
    1SOL    MW4 7364   2.906   1.294   3.014 -0.6447 -0.5702  0.2990
    1SOL     OW 7365   2.916   1.540   3.138  0.4218 -0.2388  0.0261
    1SOL    HW2 7366   2.941   1.525   3.229 -0.4155  1.1003  0.4924
    1SOL    HW3 7367   2.991   1.586   3.099  0.5066 -0.2073  0.2287
    1SOL    MW4 7368   2.930   1.544   3.145  0.3226 -0.0581  0.1144
    1SOL     OW 7369   2.696   1.650   2.986  0.5946  0.4728  0.1946
    1SOL    HW2 7370   2.772   1.627   3.039 -0.1391  0.8107  1.4162
    1SOL    HW3 7371   2.622   1.610   3.031 -0.1967  1.8338  0.1370
    1SOL    MW4 7372   2.696   1.642   2.999  0.3934  0.6970  0.3481
    1SOL     OW 7373   2.652   1.903   3.096  0.3874  0.1264 -0.2548
    1SOL    HW2 7374   2.741   1.935   3.081  1.4365 -1.1184  2.9148
    1SOL    HW3 7375   2.657   1.810   3.074 -0.4221  0.2628 -1.0431
    1SOL    MW4 7376   2.665   1.895   3.091  0.4189 -0.0199  0.0594
    1SOL     OW 7377   2.908   1.994   3.029 -0.1673 -0.1883 -0.4283
    1SOL    HW2 7378   2.891   2.081   3.063 -1.2976 -0.3155 -0.6644
    1SOL    HW3 7379   2.904   2.004   2.933  0.2296 -0.3936 -0.4693
    1SOL    MW4 7380   2.905   2.007   3.021 -0.2644 -0.2322 -0.4647
    1SOL     OW 7381   2.916   2.251   3.119 -0.1790 -0.1654 -0.2365
    1SOL    HW2 7382   2.995   2.284   3.077 -0.2041 -0.5349 -0.5749
    1SOL    HW3 7383   2.846   2.309   3.090 -0.0839 -0.0243 -0.1813
    1SOL    MW4 7384   2.917   2.263   3.110 -0.1695 -0.1955 -0.2739
    1SOL     OW 7385   2.729   2.423   3.011  0.2928  0.3486 -0.3023
    1SOL    HW2 7386   2.726   2.517   3.030 -0.0618  0.7906 -2.4855
    1SOL    HW3 7387   2.648   2.388   3.050  0.6334  0.8528  0.8886
    1SOL    MW4 7388   2.718   2.431   3.019  0.2911  0.4735 -0.4334
    1SOL     OW 7389   2.683   2.700   3.077 -0.6259 -0.0653 -0.3212
    1SOL    HW2 7390   2.688   2.688   3.172  0.8875 -2.0304 -0.5928
    1SOL    HW3 7391   2.591   2.719   3.059 -1.0090 -0.1462  1.4981
    1SOL    MW4 7392   2.672   2.701   3.087 -0.4768 -0.3352 -0.1168
    1SOL     OW 7393   2.919   2.863   3.017  0.2826 -0.0106  0.1288
    1SOL    HW2 7394   2.986   2.814   3.066  0.7085  0.8628  0.4278
    1SOL    HW3 7395   2.836   2.825   3.045  0.4661  1.1707  2.3100
    1SOL    MW4 7396   2.917   2.851   3.027  0.3629  0.2606  0.4561
    1SOL     OW 7397   2.940   3.096   3.136  0.0060  0.1472 -0.1758
    1SOL    HW2 7398   2.882   3.153   3.084  1.3188  0.8587 -0.8705
    1SOL    HW3 7399   2.928   3.009   3.098 -1.2198  0.1278  0.2121
    1SOL    MW4 7400   2.931   3.092   3.124  0.0176  0.2387 -0.2165
    1SOL     OW 7401   2.705   3.218   2.997  0.4829 -0.0961  0.4433
    1SOL    HW2 7402   2.702   3.308   3.029 -0.3775 -0.0653  0.2725
    1SOL    HW3 7403   2.698   3.226   2.902  0.8948 -0.3166  0.3923
    1SOL    MW4 7404   2.704   3.231   2.989  0.4239 -0.1211  0.4141
    1SOL     OW 7405   2.689   3.473   3.106  0.1691 -0.2865 -0.3155
    1SOL    HW2 7406   2.693   3.477   3.201 -1.4577  1.1730 -0.2744
    1SOL    HW3 7407   2.775   3.503   3.077  0.9029 -1.3843  0.6894
    1SOL    MW4 7408   2.701   3.477   3.114  0.0515 -0.2384 -0.1771
    1SOL     OW 7409   2.944   3.583   2.981  0.0851 -0.0493  0.2201
    1SOL    HW2 7410   3.022   3.532   3.003  0.8804  0.6193 -1.0116
    1SOL    HW3 7411   2.948   3.658   3.040  1.7184  1.2615 -1.5143
    1SOL    MW4 7412   2.955   3.586   2.992  0.4055  0.2117 -0.1714
    1SOL     OW 7413   2.943   3.812   3.139  0.0435  0.4136 -0.4335
    1SOL    HW2 7414   2.926   3.817   3.233  1.0298  0.6684 -0.2609
    1SOL    HW3 7415   2.875   3.867   3.099  1.1006  2.2873  0.3069
    1SOL    MW4 7416   2.932   3.820   3.146  0.3130  0.6945 -0.3130
    1SOL     OW 7417   2.753   3.994   3.042 -0.0567 -0.5899  0.0622
    1SOL    HW2 7418   2.760   4.076   3.091  0.9579  0.3309 -1.5924
    1SOL    HW3 7419   2.724   4.020   2.954 -0.7629 -2.1136 -0.1903
    1SOL    MW4 7420   2.750   4.008   3.037 -0.0160 -0.6690 -0.1895
    1SOL     OW 7421   2.721   4.241   3.162 -0.3919  0.1013 -0.2512
    1SOL    HW2 7422   2.731   4.260   3.255 -0.6530  2.8605 -0.7491
    1SOL    HW3 7423   2.633   4.271   3.140  0.3941  1.3222 -1.8184
    1SOL    MW4 7424   2.711   4.247   3.171 -0.3226  0.6261 -0.5236
    1SOL     OW 7425   2.918   4.391   3.023 -0.1505 -0.0719 -0.3325
    1SOL    HW2 7426   2.996   4.353   3.063 -0.3529 -0.2055 -0.0587
    1SOL    HW3 7427   2.845   4.341   3.060 -0.3883  0.2783 -0.3204
    1SOL    MW4 7428   2.918   4.379   3.033 -0.2086 -0.0434 -0.2949
    1SOL     OW 7429   3.359   4.652   3.131  0.1116 -0.2019  0.5573
    1SOL    HW2 7430   3.435   4.702   3.100  1.6516 -1.0819  2.8046
    1SOL    HW3 7431   3.361   4.572   3.079 -0.5728  0.7126 -0.9106
    1SOL    MW4 7432   3.370   4.648   3.120  0.2246 -0.1969  0.6599
    1SOL     OW 7433   3.148   0.111   3.030 -0.8283 -0.1473  0.2146
    1SOL    HW2 7434   3.146   0.201   3.062 -0.7138 -0.6776  1.7638
    1SOL    HW3 7435   3.226   0.073   3.071 -0.0371 -0.5327 -1.6033
    1SOL    MW4 7436   3.158   0.118   3.040 -0.7086 -0.2681  0.1791
    1SOL     OW 7437   3.140   0.373   3.149  0.1827  0.0699 -0.3666
    1SOL    HW2 7438   3.225   0.403   3.116  0.5370 -0.5741 -0.0468
    1SOL    HW3 7439   3.078   0.437   3.116  0.7325  0.2764 -1.0218
    1SOL    MW4 7440   3.143   0.385   3.140  0.3018  0.0122 -0.4110
    1SOL     OW 7441   3.360   0.478   3.010  0.0137  0.0603  0.0609
    1SOL    HW2 7442   3.446   0.448   3.042  0.5001  2.2034  0.8345
    1SOL    HW3 7443   3.369   0.478   2.915  0.8774  0.2925  0.1404
    1SOL    MW4 7444   3.373   0.474   3.001  0.1919  0.3737  0.1736
    1SOL     OW 7445   3.371   0.736   3.111 -0.2491  0.2830 -0.1377
    1SOL    HW2 7446   3.374   0.731   3.206 -0.1583  1.2478 -0.0790
    1SOL    HW3 7447   3.360   0.646   3.082 -0.2728 -0.0153  0.7858
    1SOL    MW4 7448   3.370   0.724   3.120 -0.2403  0.3709 -0.0081
    1SOL     OW 7449   3.162   0.897   3.026 -0.0053  0.0708 -0.2617
    1SOL    HW2 7450   3.230   0.840   3.063 -1.2578 -1.1824  0.1916
    1SOL    HW3 7451   3.080   0.855   3.053 -0.9505  1.7662 -0.4770
    1SOL    MW4 7452   3.160   0.884   3.035 -0.2952  0.1291 -0.2303
    1SOL     OW 7453   3.159   1.167   3.104  0.2875 -0.3301 -0.5594
    1SOL    HW2 7454   3.246   1.199   3.080 -0.0940  0.7053 -0.5727
    1SOL    HW3 7455   3.155   1.079   3.066  2.2451 -1.3732  1.5635
    1SOL    MW4 7456   3.170   1.159   3.096  0.4952 -0.3310 -0.2813
    1SOL     OW 7457   3.402   1.268   2.986 -0.1990 -0.0110 -0.0644
    1SOL    HW2 7458   3.470   1.226   3.038  1.0546  0.4755 -1.2859
    1SOL    HW3 7459   3.393   1.356   3.023 -0.3110 -0.1509  0.2370
    1SOL    MW4 7460   3.410   1.274   2.998 -0.0484  0.0347 -0.1857
    1SOL     OW 7461   3.401   1.517   3.101 -0.0236 -0.0184  0.0506
    1SOL    HW2 7462   3.394   1.531   3.196 -1.0814  0.0502 -0.0357
    1SOL    HW3 7463   3.482   1.560   3.077  0.3971 -0.2677  0.9779
    1SOL    MW4 7464   3.411   1.524   3.111 -0.1075 -0.0423  0.1614
    1SOL     OW 7465   3.163   1.663   3.036  0.9557  0.3882 -0.2520
    1SOL    HW2 7466   3.249   1.621   3.042  0.4504 -0.8694 -1.4719
    1SOL    HW3 7467   3.150   1.679   2.943 -1.2693 -1.9929 -0.4412
    1SOL    MW4 7468   3.172   1.659   3.025  0.5953 -0.0920 -0.4380
    1SOL     OW 7469   3.166   1.912   3.141  0.4102  0.1446 -0.6034
    1SOL    HW2 7470   3.178   1.825   3.103 -1.4860  0.9983 -3.3276
    1SOL    HW3 7471   3.074   1.934   3.122  1.4702  3.6672 -2.0465
    1SOL    MW4 7472   3.155   1.903   3.133  0.2997  0.7219 -1.1532
    1SOL     OW 7473   3.354   2.049   3.007 -0.6816  0.5375 -0.4122
    1SOL    HW2 7474   3.437   2.008   3.033 -0.4729  1.2815  0.0996
    1SOL    HW3 7475   3.288   2.002   3.057 -0.3753  1.3024  0.7347
    1SOL    MW4 7476   3.357   2.037   3.017 -0.6132  0.7367 -0.1929
    1SOL     OW 7477   3.382   2.319   3.089  0.2284 -0.5122  0.7411
    1SOL    HW2 7478   3.389   2.320   3.184  0.1016 -1.3616  0.7648
    1SOL    HW3 7479   3.369   2.226   3.067 -0.9447 -0.1803 -0.0122
    1SOL    MW4 7480   3.381   2.307   3.099  0.0567 -0.5805  0.6447
    1SOL     OW 7481   3.134   2.435   3.023  0.3087  0.3143 -0.5026
    1SOL    HW2 7482   3.220   2.405   3.054  0.1849  0.3345 -0.1405
    1SOL    HW3 7483   3.141   2.433   2.928  0.0045 -1.7216 -0.4996
    1SOL    MW4 7484   3.146   2.431   3.015  0.2522  0.0484 -0.4544
    1SOL     OW 7485   3.124   2.708   3.103 -0.1566  0.4278  0.5753
    1SOL    HW2 7486   3.139   2.709   3.198  0.4134 -2.2558  0.5305
    1SOL    HW3 7487   3.120   2.616   3.079 -1.3844  1.0659 -1.8766
    1SOL    MW4 7488   3.126   2.696   3.112 -0.2432  0.1578  0.2458
    1SOL     OW 7489   3.390   2.774   3.015 -0.0791  0.7874  0.0935
    1SOL    HW2 7490   3.401   2.863   3.047 -1.6243  1.2759 -0.6674
    1SOL    HW3 7491   3.296   2.756   3.027  0.3520 -0.9943  0.9188
    1SOL    MW4 7492   3.379   2.783   3.021 -0.2263  0.6166  0.1020
    1SOL     OW 7493   3.402   3.042   3.119  0.0385  0.0814  0.3296
    1SOL    HW2 7494   3.396   3.045   3.215  0.2857 -0.4574  0.3658
    1SOL    HW3 7495   3.326   3.092   3.089  0.0710  0.4246  0.8071
    1SOL    MW4 7496   3.391   3.049   3.128  0.0753  0.0556  0.3977
    1SOL     OW 7497   3.178   3.168   3.023 -0.4395  0.1982 -0.1617
    1SOL    HW2 7498   3.096   3.141   3.065 -0.2047  1.1552  0.9191
    1SOL    HW3 7499   3.152   3.188   2.933 -1.5741  1.3753  0.4138
    1SOL    MW4 7500   3.163   3.167   3.017 -0.5581  0.4797  0.0567
    1SOL     OW 7501   3.179   3.458   3.061  0.4361 -0.5010 -0.0091
    1SOL    HW2 7502   3.262   3.502   3.044  0.9186 -1.1948  0.4930
    1SOL    HW3 7503   3.201   3.365   3.064 -0.6772 -0.8508 -1.7164
    1SOL    MW4 7504   3.193   3.452   3.059  0.3529 -0.6385 -0.1683
    1SOL     OW 7505   3.407   3.596   2.985  0.5912 -0.2122 -0.1865
    1SOL    HW2 7506   3.484   3.559   3.028  1.6586  0.7486 -1.2505
    1SOL    HW3 7507   3.400   3.685   3.020 -1.0779 -0.8485  1.2104
    1SOL    MW4 7508   3.416   3.603   2.995  0.5119 -0.1695 -0.1426
    1SOL     OW 7509   3.393   3.833   3.091  0.1445  0.5555  0.0768
    1SOL    HW2 7510   3.387   3.835   3.186  1.5432  3.7492  0.1747
    1SOL    HW3 7511   3.313   3.878   3.061 -0.9944 -1.6907 -0.3331
    1SOL    MW4 7512   3.381   3.839   3.099  0.1788  0.6804  0.0358
    1SOL     OW 7513   3.150   3.958   3.018 -0.0642  0.0963 -0.1383
    1SOL    HW2 7514   3.075   3.918   3.061  0.0719 -1.0630 -0.9501
    1SOL    HW3 7515   3.123   3.964   2.926 -0.0001  1.6878 -0.0697
    1SOL    MW4 7516   3.137   3.954   3.011 -0.0377  0.1535 -0.2365
    1SOL     OW 7517   3.157   4.242   3.117  0.5611 -0.7017  0.1471
    1SOL    HW2 7518   3.151   4.247   3.212 -0.3709 -1.4501  0.1363
    1SOL    HW3 7519   3.160   4.148   3.098  0.4307 -0.5613 -0.5766
    1SOL    MW4 7520   3.157   4.230   3.127  0.4208 -0.7815  0.0503
    1SOL     OW 7521   3.359   4.401   3.011 -0.5723  0.3859 -0.1008
    1SOL    HW2 7522   3.446   4.379   3.044 -0.0679  0.1947 -1.5380
    1SOL    HW3 7523   3.299   4.350   3.066  0.2395  0.2048  0.6240
    1SOL    MW4 7524   3.362   4.392   3.023 -0.3986  0.3371 -0.1945
    1SOL     OW 7525   3.804   4.657   3.113 -0.3169  0.0764 -0.3097
    1SOL    HW2 7526   3.798   4.566   3.082  1.4705  0.2861 -1.3343
    1SOL    HW3 7527   3.726   4.699   3.077  0.1296 -0.4536 -1.9634
    1SOL    MW4 7528   3.793   4.651   3.104 -0.0222  0.0339 -0.6630
    1SOL     OW 7529   3.592   0.118   3.009 -0.2997  0.2707  0.1017
    1SOL    HW2 7530   3.596   0.207   3.045 -0.5271 -0.0957  1.0407
    1SOL    HW3 7531   3.590   0.131   2.914  0.5648  1.2331  0.2100
    1SOL    MW4 7532   3.592   0.132   3.001 -0.2158  0.3493  0.2401
    1SOL     OW 7533   3.587   0.362   3.105  0.3737  0.6707 -0.4277
    1SOL    HW2 7534   3.597   0.362   3.200 -0.8745  0.4234 -0.2828
    1SOL    HW3 7535   3.661   0.413   3.073  1.1854  0.1782  0.6339
    1SOL    MW4 7536   3.598   0.368   3.113  0.3161  0.5732 -0.2685
    1SOL     OW 7537   3.803   0.488   2.962 -0.3944 -0.0569 -0.0755
    1SOL    HW2 7538   3.882   0.448   2.998 -0.9649 -0.5788  0.5986
    1SOL    HW3 7539   3.789   0.566   3.016 -1.8944 -1.4430  1.6352
    1SOL    MW4 7540   3.811   0.493   2.974 -0.6676 -0.3086  0.2391
    1SOL     OW 7541   3.786   0.729   3.116 -0.5537 -0.0942 -0.0005
    1SOL    HW2 7542   3.790   0.726   3.212  0.5599  2.3138  0.0587
    1SOL    HW3 7543   3.861   0.783   3.091 -1.0162 -0.4561 -2.2278
    1SOL    MW4 7544   3.797   0.736   3.126 -0.4678  0.1758 -0.2863
    1SOL     OW 7545   3.591   0.908   3.015  0.3912  0.0838 -0.0812
    1SOL    HW2 7546   3.668   0.867   3.054  0.9003 -0.1846 -1.3639
    1SOL    HW3 7547   3.517   0.854   3.044  0.6027  0.7003  1.6591
    1SOL    MW4 7548   3.591   0.896   3.024  0.4864  0.1298 -0.0207
    1SOL     OW 7549   3.600   1.157   3.152 -0.0696 -0.1921  0.0845
    1SOL    HW2 7550   3.671   1.212   3.121  0.0975 -0.3074  0.2605
    1SOL    HW3 7551   3.616   1.072   3.111  0.2252 -0.3810  0.5887
    1SOL    MW4 7552   3.612   1.153   3.142 -0.0086 -0.2322  0.1743
    1SOL     OW 7553   3.810   1.322   3.053  0.2356 -0.0442 -0.0724
    1SOL    HW2 7554   3.835   1.413   3.071  0.4798 -0.3541  1.2264
    1SOL    HW3 7555   3.817   1.313   2.958  0.5226  1.2005 -0.1762
    1SOL    MW4 7556   3.814   1.333   3.043  0.3054  0.0790  0.0854
    1SOL     OW 7557   3.849   1.579   3.120 -0.0756 -0.4805  0.0169
    1SOL    HW2 7558   3.845   1.568   3.215  0.8496  1.4077  0.3046
    1SOL    HW3 7559   3.764   1.614   3.096  0.1606  0.3463  0.3580
    1SOL    MW4 7560   3.837   1.582   3.130  0.0775 -0.1223  0.1001
    1SOL     OW 7561   3.609   1.673   2.998  0.4887  0.6005 -0.1972
    1SOL    HW2 7562   3.608   1.760   3.038  0.3338  0.5142 -0.0087
    1SOL    HW3 7563   3.613   1.690   2.904  0.5422  0.8098 -0.1578
    1SOL    MW4 7564   3.609   1.687   2.991  0.4754  0.6169 -0.1671
    1SOL     OW 7565   3.589   1.922   3.121  0.0072  0.7679  0.6637
    1SOL    HW2 7566   3.593   1.914   3.216 -0.2543  1.6539  0.7552
    1SOL    HW3 7567   3.658   1.984   3.099  1.7475 -1.3302  0.0107
    1SOL    MW4 7568   3.598   1.929   3.131  0.2027  0.6080  0.5894
    1SOL     OW 7569   3.803   2.037   2.996 -0.2386 -0.1575  0.1872
    1SOL    HW2 7570   3.800   2.125   3.034 -0.8324 -0.1562  0.1416
    1SOL    HW3 7571   3.801   2.051   2.902  0.4147 -0.1920  0.1697
    1SOL    MW4 7572   3.802   2.050   2.989 -0.2308 -0.1621  0.1788
    1SOL     OW 7573   3.814   2.313   3.131  0.1340 -0.8642 -0.1035
    1SOL    HW2 7574   3.798   2.311   3.225 -1.3450 -0.8296 -0.3456
    1SOL    HW3 7575   3.743   2.367   3.095  0.5709 -1.0323 -1.2570
    1SOL    MW4 7576   3.803   2.320   3.139 -0.0036 -0.8817 -0.2878
    1SOL     OW 7577   3.600   2.457   3.007  0.4192 -0.2197  0.3332
    1SOL    HW2 7578   3.602   2.531   3.067 -0.7881  0.2629 -0.2112
    1SOL    HW3 7579   3.532   2.399   3.043  1.4191 -1.1072  0.8077
    1SOL    MW4 7580   3.591   2.459   3.020  0.3920 -0.2732  0.3238
    1SOL     OW 7581   3.615   2.686   3.157 -0.1931 -0.2356  0.0203
    1SOL    HW2 7582   3.696   2.727   3.126  0.7896 -0.6958  1.8580
    1SOL    HW3 7583   3.545   2.741   3.123  1.0123  1.8572  0.8024
    1SOL    MW4 7584   3.617   2.698   3.148  0.0956 -0.0203  0.3660
    1SOL     OW 7585   3.849   2.844   3.070  0.0284  0.1415  0.5880
    1SOL    HW2 7586   3.847   2.931   3.108  1.1586 -0.0361  1.0863
    1SOL    HW3 7587   3.842   2.858   2.975  2.3070  0.9274  0.4959
    1SOL    MW4 7588   3.848   2.857   3.062  0.4778  0.2217  0.6413
    1SOL     OW 7589   3.823   3.104   3.176  0.3738  0.1169 -0.2654
    1SOL    HW2 7590   3.902   3.143   3.139 -0.7154  2.2108 -0.4702
    1SOL    HW3 7591   3.751   3.149   3.132 -0.9345 -1.5639  0.1190
    1SOL    MW4 7592   3.824   3.115   3.165  0.0572  0.1712 -0.2418
    1SOL     OW 7593   3.583   3.242   3.084  0.1385  0.4086  0.7378
    1SOL    HW2 7594   3.512   3.181   3.103 -0.1631  0.7708  0.7811
    1SOL    HW3 7595   3.587   3.245   2.988  0.8582 -0.4899  0.7310
    1SOL    MW4 7596   3.574   3.235   3.074  0.1936  0.3376  0.7427
    1SOL     OW 7597   3.604   3.506   3.151 -0.0991  0.1994  0.0417
    1SOL    HW2 7598   3.691   3.532   3.122  0.3951 -0.5069  0.8560
    1SOL    HW3 7599   3.594   3.417   3.118  0.1323 -0.2999  1.2873
    1SOL    MW4 7600   3.614   3.498   3.143 -0.0033  0.0401  0.3135
    1SOL     OW 7601   3.827   3.624   3.036 -0.4372  0.4412  0.1728
    1SOL    HW2 7602   3.816   3.718   3.055  0.2750  0.5182  0.2152
    1SOL    HW3 7603   3.825   3.619   2.941  0.5751  0.6404  0.1314
    1SOL    MW4 7604   3.825   3.636   3.026 -0.2096  0.4776  0.1731
    1SOL     OW 7605   3.820   3.904   3.143  0.2109 -0.4652  0.3138
    1SOL    HW2 7606   3.821   3.920   3.238  0.1074 -0.4222  0.3083
    1SOL    HW3 7607   3.741   3.950   3.113 -0.3105 -1.3344  0.3536
    1SOL    MW4 7608   3.810   3.912   3.152  0.1285 -0.5741  0.3183
    1SOL     OW 7609   3.587   4.013   3.027  0.1849  0.7184 -0.0340
    1SOL    HW2 7610   3.519   3.953   3.057  0.3092  1.1213  1.0661
    1SOL    HW3 7611   3.596   3.994   2.933  0.3302 -1.0927  0.3331
    1SOL    MW4 7612   3.579   4.003   3.018  0.2203  0.5322  0.1597
    1SOL     OW 7613   3.584   4.272   3.125  0.0131  0.0352  0.0232
    1SOL    HW2 7614   3.662   4.299   3.077  0.7153  0.2492  1.2533
    1SOL    HW3 7615   3.570   4.181   3.098  0.8120 -0.0696 -0.0546
    1SOL    MW4 7616   3.592   4.264   3.115  0.2110  0.0501  0.1752
    1SOL     OW 7617   3.817   4.393   3.025 -0.1392 -0.3386 -0.3544
    1SOL    HW2 7618   3.888   4.355   3.077 -0.3021  0.3497  0.3832
    1SOL    HW3 7619   3.841   4.375   2.934  0.4439 -1.0428 -0.0674
    1SOL    MW4 7620   3.830   4.385   3.020 -0.0837 -0.3409 -0.2193
    1SOL     OW 7621   4.268   4.658   3.141  0.2701  0.1457 -0.2503
    1SOL    HW2 7622   4.255   4.667   3.236  1.2543  1.3244 -0.2156
    1SOL    HW3 7623   4.289   4.565   3.129  0.2029 -0.0010  0.6849
    1SOL    MW4 7624   4.269   4.647   3.152  0.3915  0.2818 -0.1225
    1SOL     OW 7625   4.053   0.116   3.051  0.2307  0.1977 -0.1050
    1SOL    HW2 7626   4.130   0.068   3.081  0.2177 -0.1832 -0.6691
    1SOL    HW3 7627   3.979   0.068   3.089  0.2673  0.4879  0.3307
    1SOL    MW4 7628   4.053   0.103   3.060  0.2341  0.1857 -0.1218
    1SOL     OW 7629   4.029   0.370   3.124 -0.2974  0.2172 -0.2955
    1SOL    HW2 7630   4.106   0.421   3.096 -1.4875  1.0805 -2.1104
    1SOL    HW3 7631   4.041   0.284   3.084  0.6803 -0.2638  1.0291
    1SOL    MW4 7632   4.041   0.366   3.115 -0.3257  0.2676 -0.3605
    1SOL     OW 7633   4.267   0.515   3.064 -0.0283  0.1555  0.3303
    1SOL    HW2 7634   4.280   0.608   3.079 -0.1711 -0.0244  1.5667
    1SOL    HW3 7635   4.263   0.507   2.968 -1.4414  1.5917  0.2480
    1SOL    MW4 7636   4.268   0.526   3.053 -0.2341  0.3213  0.4826
    1SOL     OW 7637   4.256   0.791   3.101  0.0959 -0.2106  0.3561
    1SOL    HW2 7638   4.175   0.821   3.060  0.3344 -0.3471 -0.2219
    1SOL    HW3 7639   4.325   0.838   3.055  0.4033 -0.7933  0.2092
    1SOL    MW4 7640   4.255   0.801   3.090  0.1674 -0.3055  0.2604
    1SOL     OW 7641   3.995   0.886   3.022 -0.5851 -0.0513 -0.3560
    1SOL    HW2 7642   4.002   0.981   3.036  0.7582 -0.2878  0.5932
    1SOL    HW3 7643   4.002   0.876   2.927  0.7433  0.6755 -0.3439
    1SOL    MW4 7644   3.997   0.898   3.012 -0.2325  0.0134 -0.2291
    1SOL     OW 7645   4.037   1.172   3.079 -0.1665  0.1778  0.5359
    1SOL    HW2 7646   4.055   1.158   3.172  1.5153  1.9978  0.5066
    1SOL    HW3 7647   3.968   1.239   3.077  0.8358  1.2203  0.4629
    1SOL    MW4 7648   4.030   1.179   3.091  0.1884  0.5555  0.5224
    1SOL     OW 7649   4.263   1.302   2.967  0.1411  0.0521 -0.0760
    1SOL    HW2 7650   4.197   1.245   3.007  1.0847 -0.1577  1.2396
    1SOL    HW3 7651   4.255   1.286   2.873 -1.2614 -0.4198  0.1151
    1SOL    MW4 7652   4.253   1.292   2.960  0.0806 -0.0378  0.1228
    1SOL     OW 7653   4.274   1.542   3.106 -0.3060  0.4815  0.4814
    1SOL    HW2 7654   4.214   1.603   3.064 -2.1426 -0.1029  2.1932
    1SOL    HW3 7655   4.258   1.458   3.063 -1.1919  0.1880  1.3635
    1SOL    MW4 7656   4.264   1.539   3.095 -0.6652  0.3657  0.8235
    1SOL     OW 7657   4.064   1.693   2.973 -0.4935  0.1019  0.0444
    1SOL    HW2 7658   4.068   1.773   3.025  0.0234  0.0703  0.0544
    1SOL    HW3 7659   3.981   1.652   2.998 -0.8377  0.7096 -0.0767
    1SOL    MW4 7660   4.053   1.698   2.983 -0.4706  0.1780  0.0300
    1SOL     OW 7661   4.022   1.912   3.134  0.0458 -0.3826  0.2298
    1SOL    HW2 7662   4.097   1.963   3.104  0.7785 -1.3781  0.3367
    1SOL    HW3 7663   3.947   1.949   3.088  0.8522 -0.5096 -1.1981
    1SOL    MW4 7664   4.022   1.924   3.124  0.2489 -0.5306  0.0558
    1SOL     OW 7665   4.247   2.035   3.034  0.4028 -0.3186 -0.2205
    1SOL    HW2 7666   4.255   2.124   3.068 -1.3199 -0.5044  0.6938
    1SOL    HW3 7667   4.230   2.046   2.940  1.6257  0.2704 -0.3763
    1SOL    MW4 7668   4.246   2.048   3.026  0.3366 -0.2654 -0.1204
    1SOL     OW 7669   4.235   2.307   3.122  0.2264 -0.0852  0.1697
    1SOL    HW2 7670   4.158   2.349   3.086  0.0296 -1.0171 -0.5167
    1SOL    HW3 7671   4.307   2.368   3.106 -0.4709  1.0716  1.3900
    1SOL    MW4 7672   4.234   2.320   3.115  0.1087 -0.0556  0.2401
    1SOL     OW 7673   4.030   2.454   3.012  0.5685 -0.0878  0.2057
    1SOL    HW2 7674   4.051   2.541   3.048 -0.0040  0.8373 -1.6411
    1SOL    HW3 7675   3.957   2.423   3.066 -0.7893  1.6212 -0.5889
    1SOL    MW4 7676   4.023   2.462   3.024  0.3138  0.2596 -0.1431
    1SOL     OW 7677   4.080   2.704   3.128  0.1443 -0.0955 -0.3775
    1SOL    HW2 7678   4.077   2.697   3.223 -0.9953  0.4129 -0.3804
    1SOL    HW3 7679   3.998   2.745   3.103 -0.1906 -1.5160 -1.6996
    1SOL    MW4 7680   4.069   2.708   3.137 -0.0505 -0.2158 -0.5524
    1SOL     OW 7681   4.298   2.857   3.050 -0.2916  0.1394 -0.4797
    1SOL    HW2 7682   4.221   2.803   3.070 -1.2056  1.8279  0.6708
    1SOL    HW3 7683   4.372   2.803   3.079 -1.1152 -0.9718 -0.3832
    1SOL    MW4 7684   4.297   2.843   3.057 -0.5207  0.2153 -0.3150
    1SOL     OW 7685   4.271   3.104   3.149  0.5499  0.1091  0.1637
    1SOL    HW2 7686   4.191   3.137   3.108  0.0057 -0.5992  0.6346
    1SOL    HW3 7687   4.274   3.011   3.123  0.2556 -0.3175  1.6162
    1SOL    MW4 7688   4.261   3.096   3.140  0.4396 -0.0408  0.4172
    1SOL     OW 7689   4.028   3.213   3.044 -0.4190  0.1567  0.5348
    1SOL    HW2 7690   4.020   3.306   3.068 -2.0736  0.1780 -0.0231
    1SOL    HW3 7691   4.023   3.213   2.948 -1.8967 -0.6364  0.6082
    1SOL    MW4 7692   4.026   3.225   3.034 -0.8326  0.0548  0.4709
    1SOL     OW 7693   4.051   3.495   3.084 -0.3635  0.3877 -0.2783
    1SOL    HW2 7694   4.058   3.490   3.180 -1.6652  0.3589 -0.1716
    1SOL    HW3 7695   3.969   3.541   3.069 -1.2841 -1.5352 -1.3881
    1SOL    MW4 7696   4.041   3.500   3.095 -0.6566  0.1304 -0.4106
    1SOL     OW 7697   4.283   3.617   3.020 -0.2623 -0.5656  0.1319
    1SOL    HW2 7698   4.268   3.701   3.063 -1.3360 -0.8990  0.4443
    1SOL    HW3 7699   4.207   3.564   3.045 -0.3372 -1.1445 -1.2531
    1SOL    MW4 7700   4.271   3.621   3.029 -0.4139 -0.6862 -0.0098
    1SOL     OW 7701   4.270   3.884   3.150  0.5039  0.1987  0.2643
    1SOL    HW2 7702   4.187   3.913   3.113  1.1586  0.1857 -1.2840
    1SOL    HW3 7703   4.335   3.941   3.110  1.3348 -0.4412  0.6827
    1SOL    MW4 7704   4.268   3.895   3.140  0.7000  0.1125  0.1154
    1SOL     OW 7705   4.046   4.016   3.032 -0.2698  0.1027 -0.1954
    1SOL    HW2 7706   4.047   4.104   3.071  0.1413 -0.1329  0.3312
    1SOL    HW3 7707   3.968   3.975   3.069 -0.8865  0.5047 -1.0310
    1SOL    MW4 7708   4.036   4.022   3.042 -0.2971  0.1245 -0.2360
    1SOL     OW 7709   4.036   4.262   3.144 -0.2500 -0.5754 -0.4628
    1SOL    HW2 7710   4.026   4.251   3.239 -0.8783  0.5927 -0.3784
    1SOL    HW3 7711   4.122   4.300   3.133 -0.3536 -0.3046 -0.3315
    1SOL    MW4 7712   4.046   4.265   3.155 -0.3462 -0.3858 -0.4344
    1SOL     OW 7713   4.282   4.392   3.079  0.0708  0.2973 -0.0660
    1SOL    HW2 7714   4.360   4.340   3.102 -0.0485  0.2583  0.2463
    1SOL    HW3 7715   4.281   4.392   2.983 -0.2957 -0.8356 -0.0665
    1SOL    MW4 7716   4.292   4.385   3.069  0.0067  0.1431 -0.0250
    1SOL     OW 7717   0.233   0.018   3.402 -0.9251  0.2730  0.2439
    1SOL    HW2 7718   0.318   0.054   3.430 -0.4958 -0.0757 -0.5920
    1SOL    HW3 7719   0.237  -0.074   3.427  0.1842 -0.4741 -2.5248
    1SOL    MW4 7720   0.245   0.011   3.409 -0.7221  0.1287 -0.2317
    1SOL     OW 7721   0.006   0.114   3.512 -0.3609  0.1964 -0.4274
    1SOL    HW2 7722  -0.013   0.203   3.481  0.7532  0.8414  0.6796
    1SOL    HW3 7723   0.090   0.092   3.471 -0.2625 -0.0436 -0.0986
    1SOL    MW4 7724   0.015   0.123   3.502 -0.2010  0.2498 -0.2382
    1SOL     OW 7725   4.446   0.384   3.447  0.2489  0.0836 -0.1395
    1SOL    HW2 7726   4.373   0.447   3.454 -0.0639 -0.0932 -1.7290
    1SOL    HW3 7727   4.520   0.429   3.488  0.0828  1.6042 -1.4675
    1SOL    MW4 7728   4.446   0.399   3.453  0.1855  0.2609 -0.5243
    1SOL     OW 7729   0.200   0.494   3.544  1.0077 -0.6150  0.5242
    1SOL    HW2 7730   0.275   0.460   3.494 -0.0401 -1.4263 -0.5167
    1SOL    HW3 7731   0.204   0.589   3.529  1.8339 -0.6465  0.4903
    1SOL    MW4 7732   0.211   0.502   3.535  0.9785 -0.7263  0.3824
    1SOL     OW 7733   0.220   0.773   3.463  0.0772  0.0344  0.2011
    1SOL    HW2 7734   0.289   0.830   3.497  0.7908 -0.9499  0.4140
    1SOL    HW3 7735   0.139   0.823   3.477  0.7784  1.3778 -0.4678
    1SOL    MW4 7736   0.218   0.787   3.470  0.2639  0.0818  0.1411
    1SOL     OW 7737   4.463   0.881   3.495  0.0757 -0.2304  0.0819
    1SOL    HW2 7738   4.474   0.878   3.590  0.2849 -2.2612  0.0096
    1SOL    HW3 7739   4.469   0.974   3.473  1.1212  0.1593  1.9350
    1SOL    MW4 7740   4.465   0.893   3.505  0.2413 -0.4469  0.3169
    1SOL     OW 7741   0.015   1.136   3.404 -0.6143 -0.2584  0.1695
    1SOL    HW2 7742   0.079   1.188   3.451 -0.5140 -0.9064  0.7600
    1SOL    HW3 7743   0.028   1.160   3.312 -1.6876  1.9594  0.5645
    1SOL    MW4 7744   0.025   1.146   3.398 -0.7426 -0.0514  0.2992
    1SOL     OW 7745   0.224   1.290   3.503 -0.3453 -0.2408  0.3517
    1SOL    HW2 7746   0.307   1.262   3.467 -1.0979 -0.4745 -1.2424
    1SOL    HW3 7747   0.214   1.381   3.472  0.3388  0.5388  2.3689
    1SOL    MW4 7748   0.233   1.298   3.494 -0.3543 -0.1687  0.4077
    1SOL     OW 7749   0.217   1.545   3.403  0.3379  0.4366  0.0459
    1SOL    HW2 7750   0.285   1.594   3.449  1.2462 -0.2438 -0.5479
    1SOL    HW3 7751   0.234   1.563   3.310  0.1998 -0.3774 -0.1417
    1SOL    MW4 7752   0.228   1.554   3.397  0.4395  0.2395 -0.0570
    1SOL     OW 7753   4.485   1.646   3.520 -0.2206 -0.2817 -0.2894
    1SOL    HW2 7754   4.411   1.595   3.486 -0.8549  1.0618 -0.9259
    1SOL    HW3 7755   4.560   1.615   3.470 -0.3153 -1.7212  0.4223
    1SOL    MW4 7756   4.485   1.635   3.509 -0.3161 -0.2943 -0.2794
    1SOL     OW 7757   4.483   1.893   3.410  0.2423  0.7035  0.0943
    1SOL    HW2 7758   4.487   1.804   3.447 -1.9422  0.6397  0.2100
    1SOL    HW3 7759   4.486   1.880   3.316  1.8555  0.6461  0.1291
    1SOL    MW4 7760   4.484   1.880   3.403  0.1674  0.6876  0.1140
    1SOL     OW 7761   0.189   2.091   3.487 -0.1300  0.0697 -0.0105
    1SOL    HW2 7762   0.173   2.090   3.582 -0.5128 -1.2664 -0.0678
    1SOL    HW3 7763   0.131   2.023   3.453 -0.5942  1.1032 -1.3182
    1SOL    MW4 7764   0.179   2.082   3.495 -0.2418  0.0293 -0.1907
    1SOL     OW 7765   0.191   2.342   3.376 -0.2361 -0.0503  0.3393
    1SOL    HW2 7766   0.112   2.386   3.406  0.2377  0.7853  0.3982
    1SOL    HW3 7767   0.192   2.258   3.423 -0.5065  0.4169  1.1936
    1SOL    MW4 7768   0.181   2.337   3.387 -0.2092  0.1216  0.4597
    1SOL     OW 7769   4.436   2.456   3.493 -0.0727 -0.1294 -0.0625
    1SOL    HW2 7770   4.438   2.453   3.589 -0.7074  0.8645 -0.0166
    1SOL    HW3 7771   4.376   2.385   3.469 -0.1706 -0.1673  0.2853
    1SOL    MW4 7772   4.428   2.446   3.502 -0.1688 -0.0031 -0.0107
    1SOL     OW 7773   4.471   2.728   3.415 -0.0468  0.2037  0.3730
    1SOL    HW2 7774   4.564   2.743   3.428 -0.0044  0.2853 -0.0501
    1SOL    HW3 7775   4.457   2.638   3.445  0.3069 -0.0764 -0.2987
    1SOL    MW4 7776   4.481   2.718   3.421  0.0055  0.1774  0.2284
    1SOL     OW 7777   0.226   2.812   3.497 -0.0853  0.1912 -0.4145
    1SOL    HW2 7778   0.297   2.778   3.443 -0.4588 -0.9138 -0.2344
    1SOL    HW3 7779   0.213   2.902   3.467  1.4664  0.4485 -0.3605
    1SOL    MW4 7780   0.233   2.819   3.486  0.0701  0.0796 -0.3836
    1SOL     OW 7781   0.181   3.081   3.398  0.2068 -0.2358  0.1237
    1SOL    HW2 7782   0.113   3.141   3.427 -0.0311 -0.2152 -0.4662
    1SOL    HW3 7783   0.198   3.106   3.307 -1.2055 -2.2238 -0.7321
    1SOL    MW4 7784   0.174   3.092   3.390 -0.0110 -0.4957 -0.0670
    1SOL     OW 7785   4.448   3.236   3.521 -0.0782  0.0716  0.2263
    1SOL    HW2 7786   4.364   3.207   3.485 -0.1428 -0.5703  0.8883
    1SOL    HW3 7787   4.456   3.327   3.491 -0.7746 -0.0197 -0.2566
    1SOL    MW4 7788   4.438   3.244   3.512 -0.1788 -0.0250  0.2501
    1SOL     OW 7789   4.473   3.493   3.421 -0.7977  0.2367 -0.0062
    1SOL    HW2 7790   4.404   3.551   3.453  0.3481  1.4039  0.3781
    1SOL    HW3 7791   4.476   3.510   3.327 -1.2427 -0.0565 -0.0779
    1SOL    MW4 7792   4.464   3.503   3.413 -0.7053  0.3521  0.0353
    1SOL     OW 7793   0.223   3.633   3.524 -0.3898  0.4272 -0.1045
    1SOL    HW2 7794   0.214   3.620   3.618  1.4082 -0.0255  0.0255
    1SOL    HW3 7795   0.142   3.599   3.487 -0.5154 -0.7128  1.1734
    1SOL    MW4 7796   0.211   3.627   3.531 -0.1692  0.2172  0.0815
    1SOL     OW 7797   0.224   3.886   3.400 -0.0134 -0.1204  0.0158
    1SOL    HW2 7798   0.155   3.929   3.451 -0.9004 -0.4397 -0.8985
    1SOL    HW3 7799   0.233   3.800   3.440 -2.2419 -1.1892 -1.6915
    1SOL    MW4 7800   0.216   3.880   3.412 -0.4245 -0.3035 -0.3302
    1SOL     OW 7801   0.015   4.019   3.531 -0.1133  0.0266 -0.6912
    1SOL    HW2 7802   0.002   4.027   3.625  0.6350 -1.0122 -0.4994
    1SOL    HW3 7803  -0.010   4.105   3.496  0.4052  0.6848  0.5375
    1SOL    MW4 7804   0.010   4.031   3.539  0.0537 -0.0238 -0.5038
    1SOL     OW 7805   0.002   4.259   3.409  0.3491  0.1692  0.0457
    1SOL    HW2 7806  -0.082   4.294   3.438 -0.7281 -0.5285 -2.1195
    1SOL    HW3 7807   0.067   4.317   3.448 -1.1749  1.2851  0.9714
    1SOL    MW4 7808  -0.001   4.271   3.418  0.0059  0.2241 -0.1178
    1SOL     OW 7809   0.208   4.415   3.510 -0.2090  0.6220 -0.2413
    1SOL    HW2 7810   0.198   4.413   3.605  0.8120  0.3446 -0.1348
    1SOL    HW3 7811   0.289   4.366   3.494 -0.9235 -0.2138 -1.3198
    1SOL    MW4 7812   0.217   4.408   3.520 -0.1685  0.4749 -0.3695
    1SOL     OW 7813   0.686   4.636   3.400 -0.0724 -0.1562  0.2528
    1SOL    HW2 7814   0.760   4.689   3.430 -0.6466  0.2785  0.9202
    1SOL    HW3 7815   0.694   4.634   3.305  0.8575 -0.1998  0.3281
    1SOL    MW4 7816   0.697   4.642   3.392 -0.0255 -0.1049  0.3507
    1SOL     OW 7817   0.465   0.137   3.489 -0.0721  0.2770 -0.1293
    1SOL    HW2 7818   0.463   0.140   3.585 -0.7689 -0.3413 -0.1219
    1SOL    HW3 7819   0.536   0.076   3.469 -1.9502 -1.9759  0.0369
    1SOL    MW4 7820   0.474   0.130   3.499 -0.4118 -0.1018 -0.1066
    1SOL     OW 7821   0.447   0.415   3.430 -0.2477  0.2809 -0.3004
    1SOL    HW2 7822   0.526   0.456   3.464 -0.8626  0.2239  1.2683
    1SOL    HW3 7823   0.457   0.322   3.451 -0.9839  0.3614  0.4258
    1SOL    MW4 7824   0.458   0.408   3.437 -0.4260  0.2840  0.0024
    1SOL     OW 7825   0.684   0.534   3.533  0.5993  0.1190  0.1156
    1SOL    HW2 7826   0.675   0.516   3.627 -0.0678 -0.6580 -0.0968
    1SOL    HW3 7827   0.761   0.483   3.507  0.5877  0.0750  0.1673
    1SOL    MW4 7828   0.693   0.525   3.542  0.5098  0.0107  0.0944
    1SOL     OW 7829   0.665   0.804   3.427  0.0129 -0.4793  0.0189
    1SOL    HW2 7830   0.587   0.841   3.468 -0.7369 -0.6339 -1.2200
    1SOL    HW3 7831   0.672   0.716   3.464 -0.0161 -0.2265  0.6287
    1SOL    MW4 7832   0.656   0.797   3.437 -0.0898 -0.4663 -0.0641
    1SOL     OW 7833   0.451   0.922   3.525 -0.0778 -0.4638 -0.2935
    1SOL    HW2 7834   0.461   0.930   3.620  0.5110 -0.4065 -0.3612
    1SOL    HW3 7835   0.450   1.013   3.493 -1.2102 -0.4469 -0.2523
    1SOL    MW4 7836   0.452   0.935   3.533 -0.1495 -0.4540 -0.2968
    1SOL     OW 7837   0.474   1.185   3.443  0.3327 -0.1038 -0.8348
    1SOL    HW2 7838   0.550   1.242   3.458  1.1950 -1.1527 -1.1807
    1SOL    HW3 7839   0.472   1.171   3.349 -0.9103  0.7508 -0.9443
    1SOL    MW4 7840   0.484   1.191   3.433  0.2825 -0.1295 -0.8953
    1SOL     OW 7841   0.695   1.336   3.531  0.1972 -0.2904 -0.0013
    1SOL    HW2 7842   0.772   1.288   3.499  0.0517  0.6486 -1.7847
    1SOL    HW3 7843   0.700   1.421   3.488 -0.3837  0.7713  1.9699
    1SOL    MW4 7844   0.706   1.341   3.521  0.1014 -0.0263  0.0236
    1SOL     OW 7845   0.681   1.577   3.392  0.1667 -0.0290  0.0952
    1SOL    HW2 7846   0.754   1.610   3.444  0.0510  1.7908 -0.8550
    1SOL    HW3 7847   0.604   1.618   3.429 -0.4310 -2.0730  1.1955
    1SOL    MW4 7848   0.681   1.587   3.403  0.0726 -0.0587  0.1152
    1SOL     OW 7849   0.433   1.680   3.530 -0.1044  0.5064 -0.0474
    1SOL    HW2 7850   0.464   1.676   3.620  0.7181 -1.0841 -0.3590
    1SOL    HW3 7851   0.436   1.772   3.507  1.5464  0.7307  0.9429
    1SOL    MW4 7852   0.438   1.691   3.538  0.2220  0.3262  0.0424
    1SOL     OW 7853   0.430   1.930   3.429 -0.0074 -0.6153 -0.1904
    1SOL    HW2 7854   0.350   1.982   3.437 -0.2041 -1.0401  0.6748
    1SOL    HW3 7855   0.448   1.928   3.335  0.5408  1.8272 -0.1599
    1SOL    MW4 7856   0.421   1.936   3.418  0.0390 -0.3490 -0.0722
    1SOL     OW 7857   0.691   2.031   3.482 -0.2732 -0.0361  0.0605
    1SOL    HW2 7858   0.706   2.046   3.576  0.6798 -1.6735  0.1778
    1SOL    HW3 7859   0.604   1.991   3.478  0.6842 -2.2253  0.4796
    1SOL    MW4 7860   0.682   2.028   3.494 -0.0212 -0.5410  0.1311
    1SOL     OW 7861   0.647   2.307   3.381  0.3808  0.1319  0.5586
    1SOL    HW2 7862   0.716   2.361   3.420  0.3963  0.9509 -0.6119
    1SOL    HW3 7863   0.662   2.220   3.420  0.8216  0.7638  1.8490
    1SOL    MW4 7864   0.658   2.302   3.391  0.4410  0.3231  0.5744
    1SOL     OW 7865   0.420   2.453   3.474  0.4799  0.5795 -0.1026
    1SOL    HW2 7866   0.491   2.394   3.448  0.1107 -0.6563  1.5891
    1SOL    HW3 7867   0.340   2.405   3.450  0.1911  1.4416 -0.8950
    1SOL    MW4 7868   0.419   2.439   3.467  0.3931  0.5302  0.0160
    1SOL     OW 7869   0.448   2.706   3.352 -0.3078  0.1830 -0.0749
    1SOL    HW2 7870   0.439   2.624   3.400 -0.8504  0.6318  0.6133
    1SOL    HW3 7871   0.428   2.683   3.262  0.1451 -0.5611  0.0103
    1SOL    MW4 7872   0.444   2.692   3.347 -0.3197  0.1442  0.0272
    1SOL     OW 7873   0.672   2.865   3.440 -0.4007  0.2126 -0.2968
    1SOL    HW2 7874   0.752   2.815   3.423 -0.1075  0.2816  0.8121
    1SOL    HW3 7875   0.605   2.823   3.385  0.5023  0.4780 -1.6090
    1SOL    MW4 7876   0.674   2.853   3.430 -0.2429  0.2568 -0.3235
    1SOL     OW 7877   0.685   3.125   3.357 -0.5846 -0.9831 -0.5552
    1SOL    HW2 7878   0.606   3.174   3.382 -0.8950 -1.3801 -0.7490
    1SOL    HW3 7879   0.668   3.036   3.387  0.7892 -0.5746  1.5490
    1SOL    MW4 7880   0.672   3.120   3.364 -0.4443 -0.9818 -0.3030
    1SOL     OW 7881   0.399   3.254   3.467  0.0966  0.2622  0.3785
    1SOL    HW2 7882   0.414   3.243   3.560 -1.5184  3.0825  1.0630
    1SOL    HW3 7883   0.330   3.191   3.446 -0.3670  0.4321  1.3638
    1SOL    MW4 7884   0.392   3.245   3.476 -0.1776  0.6568  0.5991
    1SOL     OW 7885   0.445   3.519   3.392  0.1483 -0.0385  0.1302
    1SOL    HW2 7886   0.425   3.428   3.412  0.2304  0.1012  0.8995
    1SOL    HW3 7887   0.374   3.569   3.433  0.4124  0.2705  0.2227
    1SOL    MW4 7888   0.433   3.514   3.400  0.1940  0.0210  0.2439
    1SOL     OW 7889   0.688   3.629   3.525  0.2017 -0.1414 -0.0123
    1SOL    HW2 7890   0.769   3.600   3.484  0.0538  0.8285 -1.0180
    1SOL    HW3 7891   0.618   3.585   3.477  0.0735  0.1107 -0.0590
    1SOL    MW4 7892   0.689   3.620   3.514  0.1652  0.0198 -0.1509
    1SOL     OW 7893   0.699   3.889   3.405 -0.2885  0.2169 -0.0262
    1SOL    HW2 7894   0.624   3.941   3.433 -0.1455  0.8964 -0.9113
    1SOL    HW3 7895   0.699   3.814   3.465 -0.6696  1.0623  1.0539
    1SOL    MW4 7896   0.689   3.886   3.417 -0.3198  0.4182 -0.0002
    1SOL     OW 7897   0.468   4.011   3.510  0.1929 -0.3963 -0.2270
    1SOL    HW2 7898   0.457   4.101   3.477  0.3476  0.1437  1.1754
    1SOL    HW3 7899   0.387   3.967   3.483 -0.3495  0.4465 -0.0229
    1SOL    MW4 7900   0.456   4.017   3.502  0.1417 -0.2141 -0.0150
    1SOL     OW 7901   0.457   4.306   3.415  0.1033  0.1068 -0.0094
    1SOL    HW2 7902   0.542   4.332   3.450 -0.0794  0.0606  0.4787
    1SOL    HW3 7903   0.471   4.299   3.321  0.2229  1.6569 -0.1127
    1SOL    MW4 7904   0.470   4.308   3.407  0.0950  0.3047  0.0412
    1SOL     OW 7905   0.684   4.394   3.545 -0.8199 -0.4339 -0.4779
    1SOL    HW2 7906   0.767   4.356   3.515 -1.0684 -0.5580 -1.0136
    1SOL    HW3 7907   0.680   4.479   3.500 -0.8004 -0.2638 -0.1561
    1SOL    MW4 7908   0.695   4.400   3.535 -0.8500 -0.4277 -0.5064
    1SOL     OW 7909   1.119   4.663   3.436  0.3528 -0.0464  0.3246
    1SOL    HW2 7910   1.208   4.697   3.436 -0.4342  2.1253 -0.8935
    1SOL    HW3 7911   1.099   4.647   3.344 -0.6902  0.0028  0.5258
    1SOL    MW4 7912   1.128   4.666   3.424  0.1112  0.2470  0.1905
    1SOL     OW 7913   0.901   0.128   3.502 -0.2124 -0.2259  0.0279
    1SOL    HW2 7914   0.884   0.133   3.596 -1.9149  0.3323 -0.3051
    1SOL    HW3 7915   0.982   0.077   3.496  0.6534  0.8529  1.8691
    1SOL    MW4 7916   0.910   0.122   3.514 -0.3227 -0.0099  0.2270
    1SOL     OW 7917   0.895   0.407   3.439 -0.0554  0.3337  0.2726
    1SOL    HW2 7918   0.984   0.439   3.451 -0.1898  1.7091 -2.1866
    1SOL    HW3 7919   0.900   0.314   3.461  2.4305 -0.0557 -1.7603
    1SOL    MW4 7920   0.908   0.399   3.444  0.2549  0.4638 -0.3202
    1SOL     OW 7921   1.151   0.505   3.504 -0.1265  0.6576 -0.4790
    1SOL    HW2 7922   1.138   0.501   3.598 -1.9864  0.3142 -0.7259
    1SOL    HW3 7923   1.132   0.596   3.481  1.0630  0.9252 -0.4324
    1SOL    MW4 7924   1.147   0.516   3.513 -0.2149  0.6476 -0.5054
    1SOL     OW 7925   1.130   0.753   3.391  0.0836 -0.0940 -0.1317
    1SOL    HW2 7926   1.209   0.790   3.431 -0.2732 -0.0655  0.5556
    1SOL    HW3 7927   1.061   0.818   3.408 -0.1132 -0.1577 -0.6519
    1SOL    MW4 7928   1.131   0.767   3.398  0.0105 -0.0986 -0.1097
    1SOL     OW 7929   0.916   0.906   3.474  0.4329 -0.2772 -0.1435
    1SOL    HW2 7930   0.908   0.996   3.441 -0.1387  0.1660  1.1483
    1SOL    HW3 7931   0.833   0.865   3.450  0.9921 -0.6991 -1.3973
    1SOL    MW4 7932   0.904   0.913   3.467  0.4312 -0.2744 -0.1385
    1SOL     OW 7933   0.872   1.163   3.393  0.4139  0.2394  0.4234
    1SOL    HW2 7934   0.962   1.193   3.390  0.2248  0.7654  0.0336
    1SOL    HW3 7935   0.853   1.134   3.303  0.5747 -0.9822  0.7750
    1SOL    MW4 7936   0.881   1.163   3.381  0.4101  0.1476  0.4182
    1SOL     OW 7937   1.095   1.283   3.471 -0.6249  0.2339 -0.0044
    1SOL    HW2 7938   1.108   1.292   3.566 -0.0042  1.1466 -0.1726
    1SOL    HW3 7939   1.101   1.372   3.438  0.3496 -0.2234 -1.0661
    1SOL    MW4 7940   1.098   1.296   3.479 -0.4146  0.2940 -0.1667
    1SOL     OW 7941   1.090   1.538   3.379  0.1301 -0.1076  0.0654
    1SOL    HW2 7942   1.165   1.594   3.398  1.0928 -1.3069 -0.1237
    1SOL    HW3 7943   1.087   1.533   3.284 -0.3218  0.1279  0.0705
    1SOL    MW4 7944   1.100   1.544   3.369  0.1976 -0.2348  0.0410
    1SOL     OW 7945   0.902   1.679   3.495  0.0968  0.5824  0.3777
    1SOL    HW2 7946   0.931   1.765   3.463  0.8092  0.1527 -0.1562
    1SOL    HW3 7947   0.969   1.618   3.463  0.0345 -0.0623  1.4380
    1SOL    MW4 7948   0.915   1.683   3.487  0.1826  0.4407  0.4470
    1SOL     OW 7949   0.930   1.941   3.413 -0.4166 -0.4058  0.3990
    1SOL    HW2 7950   0.994   2.003   3.449  0.6887 -1.2449 -0.1154
    1SOL    HW3 7951   0.846   1.973   3.445  0.0372  1.9475 -0.6604
    1SOL    MW4 7952   0.927   1.954   3.422 -0.2109 -0.2060  0.1910
    1SOL     OW 7953   1.136   2.095   3.529  0.1964 -0.2313 -0.0196
    1SOL    HW2 7954   1.211   2.052   3.489  0.1978  0.4175 -0.7234
    1SOL    HW3 7955   1.132   2.180   3.486 -1.2891 -0.4848 -0.3890
    1SOL    MW4 7956   1.146   2.100   3.518  0.0006 -0.1791 -0.1612
    1SOL     OW 7957   1.116   2.328   3.364 -0.8171  0.1024 -0.2152
    1SOL    HW2 7958   1.188   2.382   3.397 -0.2722 -0.9712  0.3784
    1SOL    HW3 7959   1.126   2.330   3.269 -0.4486  0.5584 -0.1692
    1SOL    MW4 7960   1.127   2.336   3.356 -0.6965  0.0210 -0.1307
    1SOL     OW 7961   0.869   2.434   3.483  0.0346 -0.1638  0.1707
    1SOL    HW2 7962   0.887   2.427   3.577  0.9941 -0.1872 -0.0018
    1SOL    HW3 7963   0.946   2.394   3.441  0.1771  0.9329 -0.6382
    1SOL    MW4 7964   0.882   2.428   3.490  0.1799 -0.0224  0.0412
    1SOL     OW 7965   0.894   2.709   3.388 -0.0892 -0.3102 -0.1667
    1SOL    HW2 7966   0.972   2.746   3.430 -0.0708 -0.1957 -0.3000
    1SOL    HW3 7967   0.874   2.631   3.439 -0.4271  0.1543  0.4268
    1SOL    MW4 7968   0.902   2.704   3.400 -0.1313 -0.2337 -0.1061
    1SOL     OW 7969   1.144   2.815   3.495  0.0349  0.0044  0.2729
    1SOL    HW2 7970   1.147   2.776   3.583  0.7542 -0.1088  0.1968
    1SOL    HW3 7971   1.223   2.782   3.452 -0.2932  0.1040 -0.3994
    1SOL    MW4 7972   1.155   2.805   3.501  0.0865  0.0024  0.1740
    1SOL     OW 7973   1.101   3.089   3.416  0.1723 -0.1415 -0.1137
    1SOL    HW2 7974   1.116   2.997   3.436  0.2863 -0.2725 -0.7658
    1SOL    HW3 7975   1.113   3.094   3.321 -2.1460  0.0845 -0.4365
    1SOL    MW4 7976   1.104   3.077   3.406 -0.1186 -0.1290 -0.2422
    1SOL     OW 7977   0.884   3.233   3.501  0.1958 -0.4232  0.1701
    1SOL    HW2 7978   0.959   3.177   3.480  0.0245 -0.0108 -1.6112
    1SOL    HW3 7979   0.811   3.196   3.451  0.2075  1.6715 -1.4908
    1SOL    MW4 7980   0.884   3.221   3.492  0.1747 -0.0925 -0.2842
    1SOL     OW 7981   0.929   3.495   3.401 -0.2096 -0.0779  0.5180
    1SOL    HW2 7982   0.940   3.402   3.420  0.4362 -0.1700 -0.2330
    1SOL    HW3 7983   0.918   3.498   3.306  0.5600  0.6746  0.4457
    1SOL    MW4 7984   0.929   3.483   3.391 -0.0228  0.0093  0.4094
    1SOL     OW 7985   1.141   3.640   3.505 -0.1503  0.2755  0.8811
    1SOL    HW2 7986   1.134   3.621   3.598 -0.7749  1.9911  1.2025
    1SOL    HW3 7987   1.069   3.591   3.464  0.2990 -0.7046  1.2492
    1SOL    MW4 7988   1.130   3.631   3.512 -0.1734  0.3726  0.9718
    1SOL     OW 7989   1.131   3.903   3.409 -0.2884  0.6839 -0.3209
    1SOL    HW2 7990   1.214   3.943   3.436  0.9065 -1.3324 -0.9023
    1SOL    HW3 7991   1.134   3.815   3.447 -0.7122 -0.5296 -2.9940
    1SOL    MW4 7992   1.143   3.897   3.418 -0.1867  0.2577 -0.7498
    1SOL     OW 7993   0.912   4.028   3.508 -0.1360  0.0901  0.1237
    1SOL    HW2 7994   0.993   3.984   3.481 -1.0300 -0.8122 -1.1486
    1SOL    HW3 7995   0.843   3.983   3.459 -1.5325  0.1170  2.0109
    1SOL    MW4 7996   0.913   4.016   3.498 -0.4382 -0.0257  0.2046
    1SOL     OW 7997   0.918   4.294   3.443  0.4105 -0.2708  0.2707
    1SOL    HW2 7998   0.906   4.204   3.474  0.5139 -0.1712  0.6060
    1SOL    HW3 7999   0.898   4.290   3.350  1.2659 -0.8149  0.1058
    1SOL    MW4 8000   0.914   4.282   3.435  0.5369 -0.3295  0.2933
    1SOL     OW 8001   1.137   4.394   3.554  0.2846 -0.0247  0.3963
    1SOL    HW2 8002   1.054   4.363   3.518 -0.1073 -0.4818  1.6558
    1SOL    HW3 8003   1.143   4.486   3.528  0.1464 -0.4258 -1.0506
    1SOL    MW4 8004   1.127   4.402   3.546  0.2146 -0.1383  0.3717
    1SOL     OW 8005   1.632   4.656   3.386 -0.4557 -0.1181  0.2313
    1SOL    HW2 8006   1.622   4.567   3.418 -1.8780 -0.9688 -2.3801
    1SOL    HW3 8007   1.551   4.700   3.414 -0.9633 -0.4132 -0.7387
    1SOL    MW4 8008   1.620   4.650   3.394 -0.7104 -0.2699 -0.2410
    1SOL     OW 8009   1.407   0.124   3.464  0.3782  0.4692 -0.1718
    1SOL    HW2 8010   1.369   0.119   3.552 -0.2107  0.5221 -0.4191
    1SOL    HW3 8011   1.381   0.210   3.432 -1.0334 -0.2936 -1.1208
    1SOL    MW4 8012   1.399   0.135   3.472  0.1143  0.3755 -0.3297
    1SOL     OW 8013   1.373   0.379   3.371  0.3002  0.0509 -0.3242
    1SOL    HW2 8014   1.451   0.412   3.415 -0.0413 -1.9832  1.9051
    1SOL    HW3 8015   1.302   0.434   3.403  0.0495 -1.4359  1.7512
    1SOL    MW4 8016   1.374   0.390   3.381  0.2221 -0.4136  0.2439
    1SOL     OW 8017   1.584   0.486   3.493 -0.0242 -0.5105  0.1211
    1SOL    HW2 8018   1.595   0.502   3.587  0.9856 -0.5706  0.0236
    1SOL    HW3 8019   1.672   0.463   3.462 -0.4271 -0.8949 -0.7639
    1SOL    MW4 8020   1.597   0.485   3.501  0.0560 -0.5692 -0.0086
    1SOL     OW 8021   1.603   0.745   3.396  0.1634 -0.2277 -0.0266
    1SOL    HW2 8022   1.526   0.785   3.438  2.8388  2.0190  2.9595
    1SOL    HW3 8023   1.601   0.654   3.424 -0.0730  0.4123  2.1350
    1SOL    MW4 8024   1.592   0.739   3.405  0.4852  0.1532  0.6526
    1SOL     OW 8025   1.378   0.882   3.509  0.2066  0.5606  0.1690
    1SOL    HW2 8026   1.369   0.873   3.604  1.1961  0.6869  0.2806
    1SOL    HW3 8027   1.363   0.975   3.492 -0.6253  0.4200  0.1222
    1SOL    MW4 8028   1.375   0.893   3.519  0.2275  0.5587  0.1776
    1SOL     OW 8029   1.325   1.146   3.412 -0.2139  0.3397 -0.2965
    1SOL    HW2 8030   1.394   1.209   3.429 -1.2099  1.3043  0.2482
    1SOL    HW3 8031   1.244   1.192   3.437 -0.8529 -1.5573  1.2521
    1SOL    MW4 8032   1.323   1.160   3.418 -0.4297  0.2168 -0.0203
    1SOL     OW 8033   1.543   1.299   3.503 -0.3339 -0.1082  0.0611
    1SOL    HW2 8034   1.557   1.272   3.594  0.5916  2.0220  0.5939
    1SOL    HW3 8035   1.609   1.250   3.453 -0.1914 -0.5564  0.6919
    1SOL    MW4 8036   1.554   1.289   3.508 -0.1929  0.1137  0.2146
    1SOL     OW 8037   1.579   1.564   3.399 -0.2599  0.4822  0.1803
    1SOL    HW2 8038   1.567   1.483   3.449  1.1225  1.2647  1.8046
    1SOL    HW3 8039   1.575   1.536   3.307 -0.0099 -1.4031  0.7299
    1SOL    MW4 8040   1.577   1.549   3.393 -0.0445  0.3366  0.4673
    1SOL     OW 8041   1.316   1.670   3.465 -0.0614  0.4772 -0.1753
    1SOL    HW2 8042   1.316   1.682   3.560 -2.4357 -2.5633  0.2931
    1SOL    HW3 8043   1.402   1.634   3.444  0.6770  1.7012  0.7379
    1SOL    MW4 8044   1.327   1.667   3.475 -0.2773  0.2375  0.0069
    1SOL     OW 8045   1.341   1.941   3.395 -0.3147  0.3082 -0.1518
    1SOL    HW2 8046   1.422   1.967   3.440 -0.6714  1.0634  0.0794
    1SOL    HW3 8047   1.330   1.848   3.415 -0.1491  0.4939  0.8418
    1SOL    MW4 8048   1.350   1.932   3.404 -0.3399  0.4323  0.0098
    1SOL     OW 8049   1.570   2.057   3.502  0.1027  0.0192 -0.0109
    1SOL    HW2 8050   1.650   2.018   3.469  1.8093  2.3606  1.2456
    1SOL    HW3 8051   1.572   2.148   3.471 -0.7527  0.8348  2.1916
    1SOL    MW4 8052   1.581   2.064   3.493  0.2149  0.4356  0.4454
    1SOL     OW 8053   1.578   2.317   3.379  0.5921 -0.2824 -0.2581
    1SOL    HW2 8054   1.495   2.351   3.412  0.7690  0.4408 -0.5440
    1SOL    HW3 8055   1.575   2.333   3.285  1.4249  0.5674 -0.1499
    1SOL    MW4 8056   1.567   2.323   3.371  0.7254 -0.0746 -0.2820
    1SOL     OW 8057   1.342   2.445   3.462  0.0156  0.0142 -0.6533
    1SOL    HW2 8058   1.349   2.454   3.557 -0.5070  0.0064 -0.6135
    1SOL    HW3 8059   1.335   2.535   3.430 -0.0712  0.0015 -0.6680
    1SOL    MW4 8060   1.342   2.458   3.470 -0.0647  0.0117 -0.6499
    1SOL     OW 8061   1.359   2.693   3.371  0.4502  0.6866 -0.2173
    1SOL    HW2 8062   1.431   2.738   3.414  0.0043  1.2784 -0.0987
    1SOL    HW3 8063   1.382   2.696   3.278  0.4492  1.0982 -0.2039
    1SOL    MW4 8064   1.372   2.699   3.364  0.3912  0.8190 -0.1996
    1SOL     OW 8065   1.580   2.797   3.498 -0.5224  0.0100 -0.2099
    1SOL    HW2 8066   1.664   2.769   3.462  0.2735 -0.0126  1.6537
    1SOL    HW3 8067   1.568   2.886   3.465  0.9503  0.5740  0.7232
    1SOL    MW4 8068   1.589   2.805   3.489 -0.2230  0.0813  0.1593
    1SOL     OW 8069   1.521   3.065   3.418 -0.2519  0.6382 -0.2296
    1SOL    HW2 8070   1.604   3.108   3.441 -1.1545  2.3935 -0.1654
    1SOL    HW3 8071   1.454   3.122   3.454 -1.4823 -2.1728  2.1492
    1SOL    MW4 8072   1.523   3.078   3.426 -0.5333  0.4990  0.0927
    1SOL     OW 8073   1.328   3.234   3.514  0.0058  0.5435 -0.0722
    1SOL    HW2 8074   1.324   3.211   3.607 -0.4344  0.2375 -0.1623
    1SOL    HW3 8075   1.261   3.178   3.473 -0.4781  1.3702 -0.4240
    1SOL    MW4 8076   1.319   3.223   3.521 -0.1162  0.6120 -0.1304
    1SOL     OW 8077   1.338   3.475   3.391 -0.2481  0.2048 -0.5813
    1SOL    HW2 8078   1.340   3.393   3.440  0.4885  0.8427  0.4734
    1SOL    HW3 8079   1.284   3.534   3.443 -0.6856  0.4263 -1.2780
    1SOL    MW4 8080   1.331   3.472   3.404 -0.2089  0.3183 -0.5341
    1SOL     OW 8081   1.581   3.578   3.488  0.5611  0.1698  0.3069
    1SOL    HW2 8082   1.573   3.583   3.583 -2.3156  0.9976  0.0828
    1SOL    HW3 8083   1.507   3.523   3.461  0.8103  0.7092 -1.5285
    1SOL    MW4 8084   1.570   3.571   3.497  0.2146  0.3502  0.0350
    1SOL     OW 8085   1.565   3.839   3.393 -0.0683  0.0239  0.1604
    1SOL    HW2 8086   1.585   3.746   3.399  1.8637  0.4108  0.3548
    1SOL    HW3 8087   1.572   3.859   3.299 -0.1476  0.0254  0.1557
    1SOL    MW4 8088   1.569   3.830   3.381  0.1761  0.0749  0.1855
    1SOL     OW 8089   1.369   4.013   3.511 -0.1303 -0.2888 -0.2175
    1SOL    HW2 8090   1.401   4.100   3.489 -0.3862 -0.0341  0.3975
    1SOL    HW3 8091   1.438   3.954   3.481 -0.2802  0.0685 -1.2926
    1SOL    MW4 8092   1.382   4.017   3.504 -0.1839 -0.2084 -0.2780
    1SOL     OW 8093   1.371   4.275   3.430 -0.0069  0.0917  0.6780
    1SOL    HW2 8094   1.290   4.315   3.462  0.1119  0.5586  0.3794
    1SOL    HW3 8095   1.359   4.268   3.336  0.0933 -0.3084  0.6935
    1SOL    MW4 8096   1.358   4.279   3.422  0.0221  0.1011  0.6406
    1SOL     OW 8097   1.605   4.408   3.503  0.1738  0.2275 -0.3076
    1SOL    HW2 8098   1.673   4.344   3.481  0.0498 -0.6132  1.6321
    1SOL    HW3 8099   1.524   4.369   3.470  0.4316  0.5228 -1.2907
    1SOL    MW4 8100   1.603   4.394   3.496  0.1916  0.1550 -0.1814
    1SOL     OW 8101   2.050   4.648   3.461  0.1533 -0.5480  0.1252
    1SOL    HW2 8102   2.122   4.701   3.496  1.1700 -2.5664  1.1827
    1SOL    HW3 8103   1.971   4.700   3.478  1.1926  0.9313  0.4983
    1SOL    MW4 8104   2.049   4.662   3.468  0.4244 -0.6191  0.3142
    1SOL     OW 8105   1.826   0.135   3.524 -0.1867 -0.3056 -0.2517
    1SOL    HW2 8106   1.812   0.132   3.618 -0.3205  1.2572 -0.2096
    1SOL    HW3 8107   1.751   0.089   3.486 -0.1160 -0.9598  0.4056
    1SOL    MW4 8108   1.814   0.129   3.531 -0.1949 -0.1857 -0.1597
    1SOL     OW 8109   1.815   0.379   3.409  0.1521  0.0644  0.0295
    1SOL    HW2 8110   1.819   0.295   3.455  2.9254  0.3864  0.4613
    1SOL    HW3 8111   1.809   0.356   3.317  0.4792 -0.6005  0.1711
    1SOL    MW4 8112   1.815   0.365   3.403  0.5611  0.0191  0.1051
    1SOL     OW 8113   2.044   0.487   3.526  0.2188 -0.0181  0.1298
    1SOL    HW2 8114   2.041   0.576   3.490  0.4316  0.3541  1.0129
    1SOL    HW3 8115   1.968   0.443   3.487 -0.5794  0.9123  0.6222
    1SOL    MW4 8116   2.033   0.493   3.516  0.1416  0.1538  0.3114
    1SOL     OW 8117   2.046   0.765   3.443 -0.5945 -0.6241  0.2035
    1SOL    HW2 8118   2.117   0.823   3.471 -2.1943  1.4855  0.0918
    1SOL    HW3 8119   2.053   0.762   3.348 -1.3173  0.5381  0.0961
    1SOL    MW4 8120   2.056   0.773   3.434 -0.9007 -0.1925  0.1745
    1SOL     OW 8121   1.811   0.912   3.481 -0.0937 -0.3360 -0.2129
    1SOL    HW2 8122   1.894   0.869   3.463 -0.2634 -1.2735  1.1455
    1SOL    HW3 8123   1.747   0.864   3.429 -0.3030 -1.8639  1.3877
    1SOL    MW4 8124   1.814   0.900   3.472 -0.1438 -0.6612  0.1774
    1SOL     OW 8125   1.773   1.168   3.386 -0.3338 -0.0307  0.2615
    1SOL    HW2 8126   1.856   1.207   3.412  0.3109 -0.3076 -1.2934
    1SOL    HW3 8127   1.773   1.081   3.426 -0.2709  0.2985  0.9817
    1SOL    MW4 8128   1.784   1.162   3.394 -0.2404 -0.0240  0.1514
    1SOL     OW 8129   2.028   1.263   3.476  0.2760 -0.6158  0.3754
    1SOL    HW2 8130   2.039   1.265   3.571 -0.9490 -0.0950  0.5243
    1SOL    HW3 8131   2.055   1.350   3.447  1.3199 -1.0080  0.1612
    1SOL    MW4 8132   2.033   1.275   3.485  0.2520 -0.5990  0.3664
    1SOL     OW 8133   2.066   1.533   3.348 -0.1891 -0.9093  0.1705
    1SOL    HW2 8134   2.127   1.591   3.393 -0.0486 -2.1561  1.6782
    1SOL    HW3 8135   1.980   1.571   3.364  0.1230  0.3915 -1.2341
    1SOL    MW4 8136   2.062   1.545   3.356 -0.1292 -0.9022  0.1841
    1SOL     OW 8137   1.839   1.669   3.431  0.0954 -0.4395 -0.0307
    1SOL    HW2 8138   1.835   1.761   3.407 -0.1313 -0.8029 -1.3899
    1SOL    HW3 8139   1.749   1.638   3.426 -0.2415 -0.1031  3.0249
    1SOL    MW4 8140   1.827   1.677   3.427  0.0210 -0.4432  0.1931
    1SOL     OW 8141   1.789   1.934   3.368 -0.0911  0.2368 -0.4368
    1SOL    HW2 8142   1.867   1.984   3.392  0.1704  0.4153 -1.6214
    1SOL    HW3 8143   1.800   1.915   3.275 -0.2154 -1.9783 -0.0316
    1SOL    MW4 8144   1.801   1.938   3.359 -0.0731 -0.0319 -0.5398
    1SOL     OW 8145   1.996   2.064   3.473 -0.2512 -0.3170  0.0415
    1SOL    HW2 8146   2.075   2.023   3.436 -0.4840  0.3079 -1.1718
    1SOL    HW3 8147   1.999   2.154   3.442  0.1417  0.5656  2.5109
    1SOL    MW4 8148   2.007   2.070   3.464 -0.2303 -0.1180  0.2074
    1SOL     OW 8149   2.003   2.321   3.385  0.1380  0.0266 -0.4934
    1SOL    HW2 8150   2.093   2.338   3.415 -0.4828  0.2250  1.3485
    1SOL    HW3 8151   2.012   2.301   3.292  2.1354 -0.3353 -0.2486
    1SOL    MW4 8152   2.016   2.321   3.377  0.3197  0.0050 -0.2179
    1SOL     OW 8153   1.789   2.434   3.521 -0.4414  0.2509  0.0231
    1SOL    HW2 8154   1.857   2.376   3.487  0.5094  0.5432  1.3694
    1SOL    HW3 8155   1.708   2.401   3.483  0.2661 -1.0681 -0.3823
    1SOL    MW4 8156   1.787   2.422   3.512 -0.2227  0.1152  0.1471
    1SOL     OW 8157   1.808   2.697   3.390  0.0492 -0.0527 -0.2613
    1SOL    HW2 8158   1.891   2.740   3.408 -0.0374 -0.4186  1.1030
    1SOL    HW3 8159   1.822   2.606   3.417 -1.1560  0.1497  1.0984
    1SOL    MW4 8160   1.821   2.690   3.396 -0.1212 -0.0744  0.0982
    1SOL     OW 8161   2.048   2.827   3.470 -0.0905  0.1274 -0.3348
    1SOL    HW2 8162   2.028   2.828   3.563 -0.3113 -0.0950 -0.3791
    1SOL    HW3 8163   2.041   2.918   3.443 -0.9634  0.0592 -0.3343
    1SOL    MW4 8164   2.045   2.839   3.479 -0.2351  0.0889 -0.3407
    1SOL     OW 8165   2.042   3.089   3.377 -0.0703 -0.1246 -0.2650
    1SOL    HW2 8166   2.108   3.139   3.426 -0.7980 -1.0635  1.7234
    1SOL    HW3 8167   1.959   3.114   3.417 -0.5753 -1.7878 -0.2590
    1SOL    MW4 8168   2.040   3.099   3.389 -0.2329 -0.4675 -0.0021
    1SOL     OW 8169   1.812   3.157   3.504  0.4318 -0.7052  0.5375
    1SOL    HW2 8170   1.821   3.176   3.598  1.2633 -0.9631  0.5097
    1SOL    HW3 8171   1.806   3.244   3.463 -0.6774 -0.6066  0.8993
    1SOL    MW4 8172   1.812   3.171   3.511  0.3951 -0.7262  0.5815
    1SOL     OW 8173   1.805   3.437   3.416  0.1301  0.1512 -0.2249
    1SOL    HW2 8174   1.737   3.485   3.464 -0.2176  0.0644 -0.6277
    1SOL    HW3 8175   1.808   3.479   3.330 -0.0396 -0.4239 -0.5119
    1SOL    MW4 8176   1.796   3.449   3.411  0.0620  0.0639 -0.3159
    1SOL     OW 8177   2.026   3.584   3.502 -0.0510 -0.4639  0.4429
    1SOL    HW2 8178   2.106   3.540   3.474  0.6133  0.9992  0.0157
    1SOL    HW3 8179   1.955   3.530   3.466  0.7543 -0.7487 -0.7439
    1SOL    MW4 8180   2.027   3.571   3.494  0.1428 -0.3083  0.2303
    1SOL     OW 8181   2.028   3.840   3.380 -0.2470  0.0427  0.0295
    1SOL    HW2 8182   1.944   3.881   3.401 -0.6998 -0.7451 -0.2161
    1SOL    HW3 8183   2.021   3.752   3.418  0.4441 -0.0452 -0.0518
    1SOL    MW4 8184   2.016   3.834   3.388 -0.2160 -0.0727 -0.0136
    1SOL     OW 8185   1.801   3.959   3.476 -0.4378 -0.6673 -0.4775
    1SOL    HW2 8186   1.813   3.962   3.570  1.9080 -1.1500 -0.7309
    1SOL    HW3 8187   1.714   3.920   3.464 -1.0204 -0.0166  1.4705
    1SOL    MW4 8188   1.791   3.954   3.487 -0.2052 -0.6452 -0.2539
    1SOL     OW 8189   1.784   4.238   3.400  0.1737 -0.3320 -0.3773
    1SOL    HW2 8190   1.783   4.147   3.430  1.2281 -0.9700 -2.1745
    1SOL    HW3 8191   1.804   4.232   3.307  0.3408  1.7541 -0.4997
    1SOL    MW4 8192   1.786   4.225   3.392  0.3350 -0.1407 -0.6306
    1SOL     OW 8193   2.018   4.369   3.507 -0.0889  0.0979  0.6061
    1SOL    HW2 8194   1.946   4.325   3.462  0.9248 -0.1448 -0.8415
    1SOL    HW3 8195   2.011   4.460   3.481  0.1135  0.0761  0.4726
    1SOL    MW4 8196   2.008   4.375   3.497  0.0715  0.0629  0.3974
    1SOL     OW 8197   2.459   0.014   3.457  0.0612 -0.0765 -0.0838
    1SOL    HW2 8198   2.457  -0.079   3.478 -0.8044 -0.2180 -0.7907
    1SOL    HW3 8199   2.482   0.017   3.364  1.7178  0.4760  0.3251
    1SOL    MW4 8200   2.462   0.002   3.447  0.1657 -0.0219 -0.1233
    1SOL     OW 8201   2.244   0.159   3.545 -0.0833 -0.6695  0.0988
    1SOL    HW2 8202   2.243   0.234   3.486  0.8076 -0.7401 -0.0152
    1SOL    HW3 8203   2.327   0.114   3.525 -0.5655 -1.6382  0.2151
    1SOL    MW4 8204   2.255   0.163   3.534 -0.0293 -0.8067  0.0992
    1SOL     OW 8205   2.256   0.379   3.372 -0.5640  0.0808 -0.0532
    1SOL    HW2 8206   2.339   0.399   3.414 -0.2303 -1.1841 -0.0753
    1SOL    HW3 8207   2.190   0.424   3.424  0.1810  1.5542 -0.3652
    1SOL    MW4 8208   2.258   0.387   3.384 -0.4218  0.1083 -0.0970
    1SOL     OW 8209   2.481   0.490   3.500 -0.0141  0.1064 -0.0332
    1SOL    HW2 8210   2.559   0.451   3.460 -0.3191  0.1684 -0.6901
    1SOL    HW3 8211   2.483   0.581   3.473  0.2244  0.3540  0.7849
    1SOL    MW4 8212   2.492   0.497   3.491 -0.0229  0.1473 -0.0122
    1SOL     OW 8213   2.452   0.749   3.417 -0.4445  0.2742  0.0494
    1SOL    HW2 8214   2.534   0.792   3.440 -0.9905  0.8462  0.9582
    1SOL    HW3 8215   2.462   0.726   3.324  0.4698  0.9298 -0.0193
    1SOL    MW4 8216   2.464   0.751   3.407 -0.3960  0.4361  0.1602
    1SOL     OW 8217   2.256   0.927   3.529 -0.1231 -0.3865 -0.2708
    1SOL    HW2 8218   2.238   1.004   3.474  0.0476 -0.1980 -0.0596
    1SOL    HW3 8219   2.326   0.881   3.484 -0.7261 -0.8122 -0.7887
    1SOL    MW4 8220   2.263   0.932   3.516 -0.1802 -0.4178 -0.3114
    1SOL     OW 8221   2.228   1.142   3.344 -0.0989 -0.2311  0.5300
    1SOL    HW2 8222   2.311   1.171   3.381 -0.1482  2.1860 -1.1021
    1SOL    HW3 8223   2.162   1.189   3.395 -0.3035  0.5426 -0.4402
    1SOL    MW4 8224   2.230   1.152   3.356 -0.1323  0.1899  0.1864
    1SOL     OW 8225   2.457   1.206   3.471  0.6293  0.0215 -0.2344
    1SOL    HW2 8226   2.457   1.216   3.566 -0.8473  0.0027 -0.2176
    1SOL    HW3 8227   2.547   1.182   3.449  1.3992  1.6515  0.9775
    1SOL    MW4 8228   2.469   1.204   3.480  0.5360  0.2341 -0.0720
    1SOL     OW 8229   2.463   1.491   3.395  0.2874  0.2987 -0.2187
    1SOL    HW2 8230   2.466   1.396   3.406 -0.8182  0.1567 -1.1738
    1SOL    HW3 8231   2.474   1.505   3.301 -0.9352  1.0540 -0.2554
    1SOL    MW4 8232   2.465   1.481   3.384 -0.0196  0.3796 -0.3498
    1SOL     OW 8233   2.258   1.666   3.491 -0.2636  0.2443 -0.2055
    1SOL    HW2 8234   2.252   1.668   3.586  1.0828 -0.1423 -0.0947
    1SOL    HW3 8235   2.343   1.625   3.474 -0.9525 -0.6390 -1.5783
    1SOL    MW4 8236   2.268   1.661   3.501 -0.1767  0.0768 -0.3717
    1SOL     OW 8237   2.213   1.932   3.386 -0.2094  0.3354  0.3240
    1SOL    HW2 8238   2.224   1.843   3.420  2.3993  0.8162  0.8641
    1SOL    HW3 8239   2.222   1.923   3.291 -1.1048 -0.1050  0.2690
    1SOL    MW4 8240   2.215   1.919   3.378  0.0167  0.3407  0.3881
    1SOL     OW 8241   2.473   2.020   3.458  0.4137  0.2122 -0.2488
    1SOL    HW2 8242   2.462   2.007   3.552  1.1682 -0.9136 -0.3073
    1SOL    HW3 8243   2.392   1.987   3.420  1.0143 -1.4285 -0.1495
    1SOL    MW4 8244   2.461   2.014   3.465  0.5927 -0.1528 -0.2437
    1SOL     OW 8245   2.487   2.279   3.397 -0.2251 -0.2037 -0.1875
    1SOL    HW2 8246   2.570   2.317   3.426 -0.0558 -0.3523 -0.4804
    1SOL    HW3 8247   2.494   2.186   3.418 -0.0914 -0.3165 -0.7311
    1SOL    MW4 8248   2.499   2.272   3.404 -0.1850 -0.2384 -0.2980
    1SOL     OW 8249   2.251   2.402   3.488  0.1258 -0.5365 -0.8127
    1SOL    HW2 8250   2.242   2.488   3.447 -0.5874 -0.2867 -0.1541
    1SOL    HW3 8251   2.340   2.374   3.469  0.8957  1.0697  0.3557
    1SOL    MW4 8252   2.261   2.409   3.480  0.1330 -0.2916 -0.5715
    1SOL     OW 8253   2.256   2.655   3.380  0.1747  0.0813 -0.0197
    1SOL    HW2 8254   2.183   2.716   3.396 -0.1841 -0.1879 -0.6266
    1SOL    HW3 8255   2.263   2.651   3.285 -0.1398 -1.2202  0.0083
    1SOL    MW4 8256   2.247   2.663   3.370  0.0861 -0.1259 -0.0961
    1SOL     OW 8257   2.463   2.784   3.497 -0.3273  0.1236 -0.1701
    1SOL    HW2 8258   2.448   2.875   3.471 -0.8414 -0.0740 -0.5663
    1SOL    HW3 8259   2.392   2.735   3.457 -1.1252 -0.1923  1.5649
    1SOL    MW4 8260   2.452   2.790   3.489 -0.5004  0.0556  0.0064
    1SOL     OW 8261   2.433   3.048   3.377  0.5013 -0.3672  0.2888
    1SOL    HW2 8262   2.505   3.106   3.403 -0.2299  1.0091 -0.6496
    1SOL    HW3 8263   2.440   3.043   3.282 -0.2394 -0.7575  0.2515
    1SOL    MW4 8264   2.443   3.055   3.368  0.3071 -0.2367  0.1602
    1SOL     OW 8265   2.246   3.229   3.478  0.2425 -0.0124 -0.1111
    1SOL    HW2 8266   2.237   3.226   3.573  0.6045  2.1894  0.0282
    1SOL    HW3 8267   2.313   3.164   3.459  0.1035 -0.5382  1.1360
    1SOL    MW4 8268   2.254   3.220   3.488  0.2718  0.2089  0.0720
    1SOL     OW 8269   2.268   3.482   3.394 -0.3177 -0.4035  0.0100
    1SOL    HW2 8270   2.253   3.391   3.420 -0.3512 -0.5292 -0.4532
    1SOL    HW3 8271   2.243   3.486   3.302 -0.7676  0.1830  0.1475
    1SOL    MW4 8272   2.262   3.471   3.386 -0.3817 -0.3428 -0.0329
    1SOL     OW 8273   2.501   3.612   3.471  0.4431 -0.0002  0.0577
    1SOL    HW2 8274   2.494   3.699   3.431 -1.5788  0.0545  0.4367
    1SOL    HW3 8275   2.420   3.568   3.444 -1.1230  0.1162  4.1961
    1SOL    MW4 8276   2.489   3.618   3.462 -0.0303  0.0224  0.6535
    1SOL     OW 8277   2.488   3.875   3.370  0.3145 -0.1838 -0.1306
    1SOL    HW2 8278   2.556   3.910   3.427  0.2522  0.0777 -0.2191
    1SOL    HW3 8279   2.406   3.897   3.414  0.2981 -0.8380  0.1725
    1SOL    MW4 8280   2.486   3.882   3.383  0.3040 -0.2356 -0.1023
    1SOL     OW 8281   2.249   3.974   3.498 -0.0081  0.2099  0.2056
    1SOL    HW2 8282   2.259   4.061   3.458 -0.3805  0.1247 -0.0629
    1SOL    HW3 8283   2.168   3.940   3.462 -1.1088  0.7300  2.1248
    1SOL    MW4 8284   2.240   3.981   3.488 -0.2024  0.2673  0.4234
    1SOL     OW 8285   2.253   4.246   3.435 -0.4041 -0.3369  0.1407
    1SOL    HW2 8286   2.171   4.286   3.465  0.5759  1.6552  0.2699
    1SOL    HW3 8287   2.244   4.238   3.340 -0.8174 -0.3180  0.1787
    1SOL    MW4 8288   2.241   4.250   3.427 -0.3293 -0.0715  0.1628
    1SOL     OW 8289   2.477   4.413   3.512 -0.0040  0.2816 -0.1836
    1SOL    HW2 8290   2.466   4.435   3.604 -0.3724 -1.2353  0.1596
    1SOL    HW3 8291   2.396   4.368   3.488 -0.1324  1.1165 -1.3966
    1SOL    MW4 8292   2.465   4.410   3.521 -0.0694  0.1912 -0.2985
    1SOL     OW 8293   2.917   4.659   3.436 -0.0259 -0.4461 -0.1438
    1SOL    HW2 8294   2.829   4.687   3.460  0.5829  0.0088  1.6596
    1SOL    HW3 8295   2.919   4.664   3.340 -1.9165 -0.3647 -0.1949
    1SOL    MW4 8296   2.906   4.663   3.427 -0.1953 -0.3753  0.0873
    1SOL     OW 8297   2.696   0.116   3.557  0.2452  0.0593 -0.0293
    1SOL    HW2 8298   2.696   0.196   3.504 -2.2734 -0.2986 -0.6119
    1SOL    HW3 8299   2.617   0.069   3.530  0.6161 -1.6498  1.7744
    1SOL    MW4 8300   2.685   0.121   3.547 -0.0377 -0.2134  0.1318
    1SOL     OW 8301   2.700   0.348   3.392  0.3738 -0.1636  0.0928
    1SOL    HW2 8302   2.782   0.385   3.425  0.1413 -0.1304  0.6276
    1SOL    HW3 8303   2.720   0.326   3.301  0.3770  1.7147 -0.3855
    1SOL    MW4 8304   2.714   0.350   3.384  0.3436  0.0886  0.1001
    1SOL     OW 8305   2.906   0.494   3.521  0.7374 -0.1178 -0.0998
    1SOL    HW2 8306   2.917   0.499   3.616 -0.0770  0.2769 -0.0250
    1SOL    HW3 8307   2.899   0.586   3.494  0.1219 -0.2675 -0.4436
    1SOL    MW4 8308   2.907   0.507   3.530  0.5486 -0.0855 -0.1352
    1SOL     OW 8309   2.907   0.751   3.378 -0.4609 -0.2278  0.4703
    1SOL    HW2 8310   2.987   0.796   3.406 -0.6424  0.2946  0.1651
    1SOL    HW3 8311   2.836   0.806   3.413 -0.6829 -0.0845 -0.2042
    1SOL    MW4 8312   2.908   0.764   3.386 -0.5140 -0.1400  0.3409
    1SOL     OW 8313   2.702   0.870   3.510  0.2738 -0.2867 -0.4896
    1SOL    HW2 8314   2.698   0.863   3.606 -0.3384 -0.5543 -0.5351
    1SOL    HW3 8315   2.699   0.964   3.493 -1.3028 -0.2879 -0.3148
    1SOL    MW4 8316   2.701   0.881   3.521 -0.0150 -0.3221 -0.4728
    1SOL     OW 8317   2.719   1.124   3.423  0.3806  0.4216 -0.0070
    1SOL    HW2 8318   2.804   1.160   3.451  0.7297 -0.1728 -0.3046
    1SOL    HW3 8319   2.724   1.123   3.328 -0.0886  0.6911 -0.0317
    1SOL    MW4 8320   2.731   1.129   3.414  0.3648  0.3787 -0.0494
    1SOL     OW 8321   2.945   1.241   3.502  0.1817  0.1253 -0.8855
    1SOL    HW2 8322   2.941   1.240   3.598 -0.5752  1.3140 -0.8837
    1SOL    HW3 8323   3.033   1.210   3.481 -0.4493 -2.4557  0.1020
    1SOL    MW4 8324   2.956   1.237   3.512 -0.0017 -0.0585 -0.7551
    1SOL     OW 8325   2.945   1.490   3.397  0.1937  0.2012 -0.3064
    1SOL    HW2 8326   2.860   1.523   3.423  0.1418 -0.2711  0.1331
    1SOL    HW3 8327   2.954   1.407   3.444  1.0877  0.4637 -0.0072
    1SOL    MW4 8328   2.935   1.483   3.406  0.3049  0.1736 -0.2091
    1SOL     OW 8329   2.713   1.594   3.524 -0.3935 -0.1518 -0.2991
    1SOL    HW2 8330   2.720   1.685   3.494  1.9192  0.0648  0.7833
    1SOL    HW3 8331   2.627   1.565   3.494 -1.0537  2.3169 -0.8627
    1SOL    MW4 8332   2.703   1.602   3.516 -0.1757  0.2027 -0.2308
    1SOL     OW 8333   2.701   1.865   3.416  0.1875 -0.0790  0.1627
    1SOL    HW2 8334   2.619   1.906   3.442  0.0266 -0.2927 -0.0059
    1SOL    HW3 8335   2.694   1.853   3.321 -0.1947 -1.4240  0.3417
    1SOL    MW4 8336   2.689   1.869   3.407  0.1161 -0.2848  0.1640
    1SOL     OW 8337   2.924   2.021   3.496 -0.4016 -0.3444  0.1841
    1SOL    HW2 8338   2.914   2.023   3.592  0.1077 -1.3417  0.2633
    1SOL    HW3 8339   2.841   1.985   3.464 -0.9332  0.8571  0.1826
    1SOL    MW4 8340   2.912   2.016   3.505 -0.4046 -0.3176  0.1943
    1SOL     OW 8341   2.950   2.280   3.400  0.0713  0.1100  0.2354
    1SOL    HW2 8342   2.956   2.189   3.428 -0.2358  0.5144  1.6096
    1SOL    HW3 8343   2.932   2.274   3.306  0.0027 -1.2452  0.3208
    1SOL    MW4 8344   2.948   2.267   3.391  0.0219 -0.0155  0.4282
    1SOL     OW 8345   2.714   2.427   3.452 -0.2518 -0.9246 -0.2384
    1SOL    HW2 8346   2.712   2.435   3.547 -0.0622 -1.3729 -0.1945
    1SOL    HW3 8347   2.797   2.383   3.433  0.0238 -0.2290 -0.6573
    1SOL    MW4 8348   2.725   2.422   3.462 -0.1905 -0.8919 -0.2878
    1SOL     OW 8349   2.686   2.700   3.370 -0.0473  0.8279 -0.5659
    1SOL    HW2 8350   2.700   2.608   3.393 -0.0517  0.2813 -2.6367
    1SOL    HW3 8351   2.602   2.723   3.411  0.3005  0.1234  0.5477
    1SOL    MW4 8352   2.677   2.691   3.379 -0.0019  0.6630 -0.6924
    1SOL     OW 8353   2.915   2.785   3.482 -0.2316  0.2717  0.6704
    1SOL    HW2 8354   2.891   2.781   3.575  1.2319  0.5195  1.0663
    1SOL    HW3 8355   2.838   2.750   3.437 -0.6454 -0.6422  2.0236
    1SOL    MW4 8356   2.902   2.780   3.488 -0.0932  0.1838  0.9015
    1SOL     OW 8357   2.898   3.068   3.409  0.2669 -0.0223 -0.3237
    1SOL    HW2 8358   2.914   2.978   3.437 -0.6993 -0.0480  0.1573
    1SOL    HW3 8359   2.904   3.065   3.314 -0.2476 -0.6880 -0.3391
    1SOL    MW4 8360   2.901   3.056   3.400  0.0713 -0.1135 -0.2625
    1SOL     OW 8361   2.664   3.191   3.489  0.5822 -0.2002  0.4585
    1SOL    HW2 8362   2.662   3.210   3.583  0.2638  0.4307  0.3296
    1SOL    HW3 8363   2.751   3.156   3.473 -0.1888 -2.6686  1.4347
    1SOL    MW4 8364   2.675   3.189   3.499  0.4387 -0.4425  0.5705
    1SOL     OW 8365   2.695   3.437   3.377  0.2581 -0.1633 -0.5056
    1SOL    HW2 8366   2.686   3.350   3.417  1.5452 -0.2110 -0.3116
    1SOL    HW3 8367   2.638   3.493   3.429 -0.3347 -0.8239 -0.4326
    1SOL    MW4 8368   2.686   3.433   3.389  0.3498 -0.2568 -0.4702
    1SOL     OW 8369   2.935   3.575   3.445 -0.0697  0.3802  0.0113
    1SOL    HW2 8370   2.924   3.666   3.416  0.1342 -0.2431 -2.1062
    1SOL    HW3 8371   2.856   3.530   3.414 -1.3174  0.2853  3.1244
    1SOL    MW4 8372   2.923   3.581   3.437 -0.2077  0.2856  0.1428
    1SOL     OW 8373   2.922   3.852   3.417  0.3863  0.3160  0.2893
    1SOL    HW2 8374   3.003   3.897   3.443  0.3450 -0.7755  2.3880
    1SOL    HW3 8375   2.853   3.896   3.466  0.0417 -0.4575  0.5082
    1SOL    MW4 8376   2.924   3.864   3.427  0.3352  0.0699  0.5951
    1SOL     OW 8377   2.697   3.967   3.505  0.0232 -0.5049  0.1210
    1SOL    HW2 8378   2.690   3.971   3.600 -0.5132  0.6471  0.0500
    1SOL    HW3 8379   2.716   4.058   3.479 -0.1958 -0.7402 -0.8896
    1SOL    MW4 8380   2.699   3.980   3.514 -0.0763 -0.3839 -0.0217
    1SOL     OW 8381   2.715   4.248   3.444 -0.2189 -0.2153  0.0703
    1SOL    HW2 8382   2.789   4.306   3.462 -0.2272  0.0013 -0.5709
    1SOL    HW3 8383   2.638   4.297   3.474 -0.4637  1.0694 -2.4238
    1SOL    MW4 8384   2.715   4.263   3.450 -0.2522 -0.0176 -0.3433
    1SOL     OW 8385   2.959   4.392   3.502  0.2986 -0.4947  0.1634
    1SOL    HW2 8386   2.937   4.386   3.595 -2.2799 -0.1534 -0.3760
    1SOL    HW3 8387   2.941   4.484   3.480 -0.0488 -0.8109 -0.8882
    1SOL    MW4 8388   2.954   4.404   3.512 -0.0873 -0.4916 -0.0465
    1SOL     OW 8389   3.347   4.621   3.426  0.1691 -0.0239 -0.4178
    1SOL    HW2 8390   3.270   4.666   3.460 -0.1458 -0.5237 -0.4716
    1SOL    HW3 8391   3.338   4.626   3.331 -0.2605 -0.8636 -0.4281
    1SOL    MW4 8392   3.336   4.628   3.418  0.0710 -0.2003 -0.4263
    1SOL     OW 8393   3.151   0.125   3.550 -0.5498 -0.7765 -0.1249
    1SOL    HW2 8394   3.152   0.214   3.515  1.0077 -0.7465 -0.0380
    1SOL    HW3 8395   3.070   0.087   3.517  0.2919 -0.3487 -2.7492
    1SOL    MW4 8396   3.140   0.132   3.541 -0.2329 -0.7161 -0.4597
    1SOL     OW 8397   3.139   0.376   3.436  0.3195 -0.2502  0.6281
    1SOL    HW2 8398   3.060   0.412   3.477 -0.0588 -1.2265  0.7797
    1SOL    HW3 8399   3.122   0.384   3.342  0.1741 -0.1676  0.6609
    1SOL    MW4 8400   3.126   0.382   3.429  0.2503 -0.3681  0.6523
    1SOL     OW 8401   3.407   0.485   3.486 -0.1953  0.5055  0.2726
    1SOL    HW2 8402   3.405   0.506   3.579  0.2922 -0.0320  0.4047
    1SOL    HW3 8403   3.325   0.439   3.469 -0.3204  0.6759  0.4166
    1SOL    MW4 8404   3.396   0.482   3.496 -0.1473  0.4571  0.3090
    1SOL     OW 8405   3.385   0.739   3.381 -0.6700  0.4565 -0.0653
    1SOL    HW2 8406   3.439   0.789   3.442 -0.1006 -0.2917  0.0467
    1SOL    HW3 8407   3.386   0.650   3.416  0.4503 -0.1935 -1.6955
    1SOL    MW4 8408   3.392   0.733   3.394 -0.4470  0.2720 -0.2656
    1SOL     OW 8409   3.157   0.870   3.470 -0.1419 -0.1843  0.4378
    1SOL    HW2 8410   3.172   0.963   3.451  1.3541 -0.0991  1.8965
    1SOL    HW3 8411   3.235   0.826   3.437 -0.3804 -0.7929  0.6812
    1SOL    MW4 8412   3.170   0.877   3.463  0.0241 -0.2533  0.6623
    1SOL     OW 8413   3.167   1.126   3.383 -0.3921  0.1715 -0.1482
    1SOL    HW2 8414   3.251   1.163   3.408 -0.3683 -0.3083  0.4825
    1SOL    HW3 8415   3.168   1.127   3.287  0.7282 -0.7240 -0.1565
    1SOL    MW4 8416   3.178   1.131   3.374 -0.2413 -0.0100 -0.0663
    1SOL     OW 8417   3.368   1.265   3.493 -0.1470  0.2550 -0.6526
    1SOL    HW2 8418   3.447   1.220   3.463  0.7250  1.8675 -0.7962
    1SOL    HW3 8419   3.363   1.344   3.440 -0.8751  1.0586  0.5845
    1SOL    MW4 8420   3.378   1.269   3.482 -0.1283  0.5738 -0.5085
    1SOL     OW 8421   3.356   1.516   3.381  0.8469 -0.1071 -0.1343
    1SOL    HW2 8422   3.430   1.562   3.419 -0.8082  2.3561  0.1923
    1SOL    HW3 8423   3.282   1.540   3.436 -0.4252 -1.5611 -1.1792
    1SOL    MW4 8424   3.356   1.525   3.393  0.4606  0.0261 -0.2291
    1SOL     OW 8425   3.142   1.639   3.544  0.2663 -0.1869  0.4527
    1SOL    HW2 8426   3.153   1.718   3.491 -0.8810 -0.7537 -0.6554
    1SOL    HW3 8427   3.067   1.594   3.505  0.0611 -1.1472  1.9131
    1SOL    MW4 8428   3.134   1.644   3.532  0.0880 -0.3885  0.4992
    1SOL     OW 8429   3.160   1.889   3.416 -0.2360 -0.6358 -0.8767
    1SOL    HW2 8430   3.074   1.923   3.440  0.4619  0.9612 -0.6378
    1SOL    HW3 8431   3.163   1.895   3.320 -0.4557 -0.8543 -0.8973
    1SOL    MW4 8432   3.149   1.894   3.407 -0.1724 -0.4539 -0.8478
    1SOL     OW 8433   3.392   2.036   3.507 -0.1165 -0.5133 -0.5011
    1SOL    HW2 8434   3.381   2.126   3.476  1.4172  0.1608  0.8281
    1SOL    HW3 8435   3.314   1.990   3.475 -0.0620  0.8471 -2.7189
    1SOL    MW4 8436   3.380   2.042   3.498  0.0935 -0.2451 -0.6185
    1SOL     OW 8437   3.375   2.328   3.377 -0.2623  0.3220 -0.5183
    1SOL    HW2 8438   3.435   2.377   3.434  0.9748 -1.9071  0.1720
    1SOL    HW3 8439   3.288   2.352   3.408  0.3872 -0.8447  2.3792
    1SOL    MW4 8440   3.371   2.338   3.389 -0.0131 -0.1259 -0.0451
    1SOL     OW 8441   3.162   2.429   3.524  0.3202 -0.2947  0.2439
    1SOL    HW2 8442   3.163   2.513   3.479 -0.7103 -0.7056 -0.5538
    1SOL    HW3 8443   3.082   2.386   3.495  0.5815 -1.3485  1.0285
    1SOL    MW4 8444   3.152   2.434   3.514  0.2186 -0.4878  0.2422
    1SOL     OW 8445   3.153   2.691   3.393  0.4079 -0.0064  0.3076
    1SOL    HW2 8446   3.226   2.733   3.439  1.3239  0.1290 -1.2370
    1SOL    HW3 8447   3.075   2.729   3.432  1.1838  0.8282  1.0780
    1SOL    MW4 8448   3.152   2.701   3.404  0.6311  0.1218  0.2053
    1SOL     OW 8449   3.343   2.827   3.535 -0.5710 -0.5431 -0.0851
    1SOL    HW2 8450   3.424   2.782   3.514 -0.8663 -1.4108  0.5852
    1SOL    HW3 8451   3.351   2.912   3.492  0.1878 -1.0552 -0.9832
    1SOL    MW4 8452   3.355   2.832   3.527 -0.5097 -0.7250 -0.1152
    1SOL     OW 8453   3.376   3.078   3.412 -0.0029  0.3452  0.1016
    1SOL    HW2 8454   3.443   3.132   3.454 -0.5287  0.2204  1.1029
    1SOL    HW3 8455   3.294   3.108   3.449 -0.4815  0.2592 -0.8726
    1SOL    MW4 8456   3.374   3.089   3.422 -0.1352  0.3173  0.1054
    1SOL     OW 8457   3.128   3.200   3.506  0.1849 -0.1382  0.0919
    1SOL    HW2 8458   3.160   3.279   3.461  0.2281  0.3486  0.9710
    1SOL    HW3 8459   3.046   3.179   3.461 -1.1852  1.9322  1.5240
    1SOL    MW4 8460   3.122   3.208   3.494  0.0100  0.1993  0.3970
    1SOL     OW 8461   3.170   3.448   3.340  0.0647 -0.3869 -0.3591
    1SOL    HW2 8462   3.080   3.473   3.361 -0.2086 -1.7990  0.1946
    1SOL    HW3 8463   3.175   3.457   3.245 -0.1632  1.2900 -0.2237
    1SOL    MW4 8464   3.159   3.452   3.330 -0.0014 -0.3519 -0.2682
    1SOL     OW 8465   3.346   3.589   3.510 -0.2515 -0.1801 -0.4593
    1SOL    HW2 8466   3.355   3.669   3.458 -2.5420  1.4645  1.5122
    1SOL    HW3 8467   3.278   3.539   3.465  2.1780 -1.7305 -2.4851
    1SOL    MW4 8468   3.338   3.593   3.497 -0.2332 -0.1678 -0.4666
    1SOL     OW 8469   3.377   3.839   3.375  0.1621  0.2727  0.0339
    1SOL    HW2 8470   3.444   3.885   3.426 -0.8075  1.6896  0.0363
    1SOL    HW3 8471   3.294   3.878   3.403 -0.6514 -1.1870 -0.2642
    1SOL    MW4 8472   3.375   3.850   3.386 -0.0732  0.2673 -0.0052
    1SOL     OW 8473   3.155   3.985   3.490  0.0426  0.2044 -0.2509
    1SOL    HW2 8474   3.173   3.988   3.584  2.0660 -0.4976 -0.5949
    1SOL    HW3 8475   3.156   4.077   3.462 -0.2158  0.3923  0.3568
    1SOL    MW4 8476   3.158   3.998   3.499  0.2754  0.1366 -0.2162
    1SOL     OW 8477   3.169   4.253   3.395 -0.2837 -0.1149  0.4137
    1SOL    HW2 8478   3.250   4.286   3.432 -0.3297  0.2236  0.2137
    1SOL    HW3 8479   3.100   4.305   3.437 -0.3463  0.1478 -0.0123
    1SOL    MW4 8480   3.170   4.264   3.405 -0.2980 -0.0353  0.3309
    1SOL     OW 8481   3.381   4.360   3.520 -0.2042  0.7386  0.0023
    1SOL    HW2 8482   3.369   4.339   3.613 -0.9616  0.7578 -0.0857
    1SOL    HW3 8483   3.355   4.452   3.512  0.8215  1.0305 -0.0504
    1SOL    MW4 8484   3.376   4.369   3.531 -0.1690  0.7796 -0.0165
    1SOL     OW 8485   3.836   4.643   3.402 -0.1817 -0.4709 -0.1391
    1SOL    HW2 8486   3.747   4.668   3.429  0.0282  0.5765 -0.3871
    1SOL    HW3 8487   3.834   4.652   3.306  0.6967  1.2553 -0.0056
    1SOL    MW4 8488   3.824   4.647   3.393 -0.0379 -0.1044 -0.1540
    1SOL     OW 8489   3.596   0.057   3.474 -0.1428  0.1278 -0.2942
    1SOL    HW2 8490   3.594   0.148   3.442  0.6370 -0.3613 -1.7593
    1SOL    HW3 8491   3.506   0.026   3.463 -0.4034  0.7055  0.1753
    1SOL    MW4 8492   3.584   0.065   3.469 -0.0741  0.1395 -0.4256
    1SOL     OW 8493   3.599   0.329   3.387 -0.0293  0.0344  0.1688
    1SOL    HW2 8494   3.676   0.376   3.419 -0.1580  0.2073  0.2282
    1SOL    HW3 8495   3.525   0.380   3.420 -0.1630  0.1293 -0.2873
    1SOL    MW4 8496   3.599   0.342   3.396 -0.0639  0.0697  0.1166
    1SOL     OW 8497   3.800   0.485   3.501  0.1824 -0.7974  0.1043
    1SOL    HW2 8498   3.810   0.514   3.592  1.9774  2.3383 -1.0045
    1SOL    HW3 8499   3.883   0.442   3.480  0.2722 -0.3542 -0.4512
    1SOL    MW4 8500   3.812   0.483   3.510  0.4311 -0.3252 -0.1152
    1SOL     OW 8501   3.802   0.740   3.409  0.0122  0.1734  0.8030
    1SOL    HW2 8502   3.883   0.785   3.434  0.3464 -0.6039  1.1599
    1SOL    HW3 8503   3.815   0.650   3.439 -1.1018  0.1010  1.0885
    1SOL    MW4 8504   3.815   0.734   3.416 -0.0906  0.0614  0.8881
    1SOL     OW 8505   3.579   0.864   3.546 -0.1035  0.2782  0.3630
    1SOL    HW2 8506   3.586   0.881   3.640  1.5131 -0.6454  0.4199
    1SOL    HW3 8507   3.664   0.829   3.521 -1.2817 -1.7051 -1.0124
    1SOL    MW4 8508   3.591   0.862   3.555 -0.0458 -0.1053  0.1891
    1SOL     OW 8509   3.593   1.109   3.426 -0.1790  0.2381 -0.1389
    1SOL    HW2 8510   3.577   1.018   3.449 -1.5255  0.9306  1.7268
    1SOL    HW3 8511   3.573   1.114   3.332 -0.3258 -1.3100 -0.2030
    1SOL    MW4 8512   3.588   1.098   3.416 -0.3760  0.1253  0.0992
    1SOL     OW 8513   3.820   1.251   3.496 -0.1897 -0.1957 -0.4301
    1SOL    HW2 8514   3.825   1.232   3.590 -0.7986  0.2752 -0.3021
    1SOL    HW3 8515   3.750   1.195   3.464 -0.6216  0.3334 -0.4239
    1SOL    MW4 8516   3.812   1.241   3.504 -0.3269 -0.0638 -0.4122
    1SOL     OW 8517   3.805   1.519   3.398 -0.3429 -0.0731  0.4696
    1SOL    HW2 8518   3.881   1.568   3.428  0.6514 -1.3383  0.0368
    1SOL    HW3 8519   3.817   1.432   3.435 -0.8902 -0.6602 -0.7288
    1SOL    MW4 8520   3.816   1.514   3.407 -0.2840 -0.3173  0.2546
    1SOL     OW 8521   3.577   1.631   3.512 -0.2892 -0.3973 -0.0337
    1SOL    HW2 8522   3.584   1.717   3.470 -1.1465 -0.2213  0.1809
    1SOL    HW3 8523   3.653   1.582   3.479  0.9509  0.8732  0.8706
    1SOL    MW4 8524   3.588   1.636   3.502 -0.2384 -0.2065  0.1137
    1SOL     OW 8525   3.610   1.892   3.409 -0.2966 -0.0624  0.2150
    1SOL    HW2 8526   3.675   1.960   3.426  1.1328 -1.6953  1.3476
    1SOL    HW3 8527   3.533   1.919   3.461  0.7109  0.0223  1.6876
    1SOL    MW4 8528   3.608   1.904   3.418  0.0248 -0.2668  0.5586
    1SOL     OW 8529   3.771   2.098   3.488 -0.2815  0.1590  0.1871
    1SOL    HW2 8530   3.761   2.083   3.582  0.3008 -0.7503  0.1095
    1SOL    HW3 8531   3.851   2.051   3.464 -0.7712 -0.1602 -0.8799
    1SOL    MW4 8532   3.780   2.090   3.497 -0.2694 -0.0031  0.0360
    1SOL     OW 8533   3.809   2.358   3.421  0.1113 -0.1588 -0.0696
    1SOL    HW2 8534   3.898   2.376   3.452 -0.1005 -0.7146  0.8887
    1SOL    HW3 8535   3.785   2.275   3.463 -0.9892  0.1729 -0.0218
    1SOL    MW4 8536   3.818   2.350   3.431 -0.0618 -0.1884  0.0632
    1SOL     OW 8537   3.578   2.468   3.535  0.3028 -0.1207  0.0666
    1SOL    HW2 8538   3.570   2.557   3.502 -1.4814 -1.2934 -2.8914
    1SOL    HW3 8539   3.658   2.434   3.495  1.3496  0.3695  1.7370
    1SOL    MW4 8540   3.587   2.475   3.525  0.2055 -0.2110 -0.1032
    1SOL     OW 8541   3.580   2.723   3.441  0.3237  0.1717 -0.1733
    1SOL    HW2 8542   3.667   2.733   3.479 -0.0846 -0.9151  1.0885
    1SOL    HW3 8543   3.596   2.703   3.349  1.3638  1.6787 -0.3369
    1SOL    MW4 8544   3.594   2.722   3.434  0.4070  0.2270 -0.0288
    1SOL     OW 8545   3.840   2.810   3.514  0.0209 -0.1928  0.1244
    1SOL    HW2 8546   3.831   2.803   3.609  0.5883 -0.1424  0.1854
    1SOL    HW3 8547   3.834   2.904   3.496 -1.3217 -0.3012 -0.0240
    1SOL    MW4 8548   3.838   2.821   3.524 -0.0815 -0.2005  0.1128
    1SOL     OW 8549   3.797   3.070   3.457  0.1550 -0.0841 -0.6487
    1SOL    HW2 8550   3.864   3.125   3.498  0.9151  0.1155 -2.1445
    1SOL    HW3 8551   3.805   3.087   3.364 -0.5123 -1.7244 -1.0262
    1SOL    MW4 8552   3.807   3.080   3.450  0.1671 -0.2744 -0.8960
    1SOL     OW 8553   3.571   3.212   3.536 -0.3297 -0.0030 -0.2758
    1SOL    HW2 8554   3.584   3.299   3.500  0.8444  0.7029  1.7674
    1SOL    HW3 8555   3.636   3.157   3.492 -1.2653  0.0775 -1.7740
    1SOL    MW4 8556   3.581   3.216   3.526 -0.2983  0.1009 -0.2038
    1SOL     OW 8557   3.590   3.475   3.438 -0.1960 -0.3348  0.0474
    1SOL    HW2 8558   3.507   3.510   3.470 -0.3006  0.0091 -0.5914
    1SOL    HW3 8559   3.588   3.491   3.344  0.3153 -0.9079 -0.0633
    1SOL    MW4 8560   3.579   3.481   3.430 -0.1421 -0.3650 -0.0515
    1SOL     OW 8561   3.825   3.630   3.472  0.5296  0.3189  0.1719
    1SOL    HW2 8562   3.837   3.627   3.567 -0.6014  0.0070  0.3083
    1SOL    HW3 8563   3.743   3.583   3.457  1.3274 -0.6751 -1.0781
    1SOL    MW4 8564   3.816   3.624   3.483  0.4857  0.1466  0.0248
    1SOL     OW 8565   3.833   3.908   3.419 -0.1852 -0.1444  0.2345
    1SOL    HW2 8566   3.744   3.926   3.451 -0.0045 -0.8657  1.1603
    1SOL    HW3 8567   3.842   3.813   3.426  0.2613 -0.1956 -0.9339
    1SOL    MW4 8568   3.822   3.898   3.424 -0.1025 -0.2465  0.2024
    1SOL     OW 8569   3.564   4.002   3.497  0.1447  0.4602 -0.0279
    1SOL    HW2 8570   3.576   3.994   3.591 -1.0677  1.8477  0.2727
    1SOL    HW3 8571   3.575   4.096   3.479 -0.8646  0.3986 -1.0662
    1SOL    MW4 8572   3.567   4.013   3.507 -0.1483  0.6351 -0.1256
    1SOL     OW 8573   3.601   4.245   3.397 -0.0110  0.1462  0.2263
    1SOL    HW2 8574   3.525   4.293   3.430  0.7087  2.1155 -0.9247
    1SOL    HW3 8575   3.591   4.246   3.302  1.1168 -0.1485  0.0975
    1SOL    MW4 8576   3.590   4.251   3.389  0.2327  0.3672  0.0572
    1SOL     OW 8577   3.810   4.394   3.488  0.3378  0.1933 -0.3504
    1SOL    HW2 8578   3.732   4.353   3.450 -0.1966  0.5844  0.3048
    1SOL    HW3 8579   3.812   4.482   3.452 -0.2626  0.6206  0.6323
    1SOL    MW4 8580   3.800   4.400   3.478  0.1881  0.3009 -0.1345
    1SOL     OW 8581   4.259   4.665   3.423 -0.2550 -0.3668  0.3906
    1SOL    HW2 8582   4.266   4.576   3.456  0.3478  0.2797  2.0322
    1SOL    HW3 8583   4.339   4.708   3.453  0.1515  0.3409 -1.6057
    1SOL    MW4 8584   4.271   4.659   3.431 -0.1221 -0.1884  0.3436
    1SOL     OW 8585   4.032   0.125   3.498 -0.0861  0.2197 -0.5020
    1SOL    HW2 8586   4.120   0.093   3.475 -0.5309  0.6133 -2.8809
    1SOL    HW3 8587   3.973   0.059   3.463 -0.7552 -0.8441  2.4510
    1SOL    MW4 8588   4.036   0.112   3.491 -0.2332  0.1313 -0.4263
    1SOL     OW 8589   4.044   0.377   3.402  0.0326 -0.1537 -0.3208
    1SOL    HW2 8590   4.044   0.284   3.424  1.1816 -0.5047 -1.6984
    1SOL    HW3 8591   4.022   0.380   3.309 -1.3993  1.0523  0.0476
    1SOL    MW4 8592   4.041   0.365   3.393 -0.0043 -0.0409 -0.4542
    1SOL     OW 8593   4.239   0.535   3.518 -0.0518  0.2620 -0.4396
    1SOL    HW2 8594   4.248   0.621   3.476 -0.2341  0.4478 -0.1000
    1SOL    HW3 8595   4.170   0.491   3.468  0.0111  0.3329 -0.5872
    1SOL    MW4 8596   4.231   0.541   3.506 -0.0677  0.2959 -0.4144
    1SOL     OW 8597   4.253   0.767   3.372 -0.0514 -0.3873 -0.1835
    1SOL    HW2 8598   4.331   0.803   3.416  1.0431 -1.9470 -0.7685
    1SOL    HW3 8599   4.270   0.780   3.279 -1.3729  0.9701 -0.2337
    1SOL    MW4 8600   4.266   0.773   3.366 -0.0811 -0.4140 -0.2675
    1SOL     OW 8601   4.009   0.897   3.481  0.3242 -0.3106 -0.2003
    1SOL    HW2 8602   4.013   0.987   3.449 -0.0141  0.1016  0.8886
    1SOL    HW3 8603   4.085   0.853   3.441 -0.0703  0.1959 -1.5031
    1SOL    MW4 8604   4.020   0.903   3.471  0.2275 -0.1893 -0.2284
    1SOL     OW 8605   4.053   1.154   3.365  0.0168  0.0050  0.7637
    1SOL    HW2 8606   4.125   1.182   3.420  1.5558 -0.5002 -0.9351
    1SOL    HW3 8607   3.975   1.189   3.407  1.4538  2.6202  1.3544
    1SOL    MW4 8608   4.052   1.163   3.378  0.4086  0.2834  0.6175
    1SOL     OW 8609   4.257   1.273   3.513 -0.1291  0.4291  0.0268
    1SOL    HW2 8610   4.243   1.355   3.467  1.2346 -0.2461 -1.6344
    1SOL    HW3 8611   4.332   1.233   3.470  0.1635 -1.0021  1.7759
    1SOL    MW4 8612   4.265   1.278   3.501  0.0901  0.1512  0.0389
    1SOL     OW 8613   4.267   1.520   3.382 -0.1153  0.2384  0.0801
    1SOL    HW2 8614   4.199   1.582   3.407  2.0663  2.7622  0.0069
    1SOL    HW3 8615   4.268   1.522   3.286  1.0741  1.4029  0.1005
    1SOL    MW4 8616   4.258   1.528   3.373  0.3295  0.7250  0.0734
    1SOL     OW 8617   4.020   1.658   3.476 -0.1989 -0.2361 -0.3296
    1SOL    HW2 8618   4.012   1.679   3.569  0.1309  1.2826 -0.6233
    1SOL    HW3 8619   4.028   1.743   3.433  1.8115 -1.0033 -1.5444
    1SOL    MW4 8620   4.020   1.672   3.482  0.1101 -0.1370 -0.5288
    1SOL     OW 8621   4.011   1.931   3.406 -0.3312 -0.1509 -0.8227
    1SOL    HW2 8622   4.089   1.958   3.453 -0.8431 -0.3901  0.1871
    1SOL    HW3 8623   4.033   1.940   3.313  0.8950 -0.2562 -0.5383
    1SOL    MW4 8624   4.024   1.936   3.400 -0.2370 -0.1965 -0.6518
    1SOL     OW 8625   4.257   2.021   3.504 -0.1337 -0.1118 -0.2260
    1SOL    HW2 8626   4.258   2.114   3.481 -1.6029 -0.0925 -0.2699
    1SOL    HW3 8627   4.338   1.986   3.468  0.5635  1.2108  0.0363
    1SOL    MW4 8628   4.268   2.029   3.497 -0.2356  0.0653 -0.1972
    1SOL     OW 8629   4.231   2.277   3.406  0.0336 -0.2492 -0.1834
    1SOL    HW2 8630   4.180   2.344   3.452 -1.2963 -1.3675  0.0026
    1SOL    HW3 8631   4.205   2.286   3.314  1.9691  1.3411 -0.6142
    1SOL    MW4 8632   4.221   2.287   3.400  0.1135 -0.1869 -0.2158
    1SOL     OW 8633   4.049   2.447   3.527  0.9539  0.2646 -0.0372
    1SOL    HW2 8634   4.038   2.465   3.620  0.4413 -0.6183  0.0753
    1SOL    HW3 8635   4.065   2.533   3.487  0.0859  0.7662  0.7037
    1SOL    MW4 8636   4.050   2.461   3.534  0.7720  0.2146  0.0751
    1SOL     OW 8637   4.073   2.697   3.405  0.3947 -0.4084  0.0776
    1SOL    HW2 8638   4.147   2.739   3.449  0.3443  1.3452 -1.4534
    1SOL    HW3 8639   3.996   2.725   3.455  0.6460 -1.2899  0.9714
    1SOL    MW4 8640   4.073   2.706   3.417  0.4210 -0.2935 -0.0062
    1SOL     OW 8641   4.261   2.864   3.537 -0.5509  0.0905 -0.4920
    1SOL    HW2 8642   4.282   2.865   3.630 -1.5798  0.7496 -0.2465
    1SOL    HW3 8643   4.342   2.839   3.494  0.3432  1.1944  0.4927
    1SOL    MW4 8644   4.274   2.861   3.544 -0.5689  0.3231 -0.3297
    1SOL     OW 8645   4.218   3.104   3.428  0.1437 -0.1162 -0.1913
    1SOL    HW2 8646   4.233   3.018   3.467  3.0015  0.6310  0.4643
    1SOL    HW3 8647   4.242   3.094   3.336  0.0598 -0.1331 -0.2115
    1SOL    MW4 8648   4.223   3.091   3.421  0.5097 -0.0198 -0.1075
    1SOL     OW 8649   4.009   3.270   3.501  0.0343 -0.1262  0.3845
    1SOL    HW2 8650   4.037   3.355   3.468 -0.3565  0.1790  0.8267
    1SOL    HW3 8651   4.078   3.209   3.474  0.1977  0.2897 -0.1332
    1SOL    MW4 8652   4.022   3.273   3.493  0.0043 -0.0312  0.3748
    1SOL     OW 8653   4.056   3.511   3.350 -0.0778  0.4299  0.1250
    1SOL    HW2 8654   4.126   3.563   3.389 -0.2801  0.0944  0.9356
    1SOL    HW3 8655   3.976   3.552   3.381 -0.2401  0.2354 -0.0380
    1SOL    MW4 8656   4.055   3.523   3.359 -0.1259  0.3598  0.2105
    1SOL     OW 8657   4.242   3.637   3.514 -0.2427  0.1325 -0.4413
    1SOL    HW2 8658   4.231   3.643   3.609 -1.5351 -0.0701 -0.5634
    1SOL    HW3 8659   4.262   3.727   3.487 -0.4997  0.3137 -0.0413
    1SOL    MW4 8660   4.243   3.650   3.523 -0.4473  0.1297 -0.4046
    1SOL     OW 8661   4.260   3.895   3.426 -0.0936  0.3059 -0.1059
    1SOL    HW2 8662   4.351   3.919   3.443  0.2164 -0.1463 -1.0929
    1SOL    HW3 8663   4.255   3.888   3.331 -1.2454  0.6527 -0.0697
    1SOL    MW4 8664   4.272   3.897   3.416 -0.2046  0.2918 -0.2315
    1SOL     OW 8665   4.049   4.030   3.556  0.2568  0.1493 -0.5541
    1SOL    HW2 8666   4.118   3.971   3.528  0.5114  0.4261 -0.5086
    1SOL    HW3 8667   3.970   3.996   3.515 -0.1206 -1.9327  1.7801
    1SOL    MW4 8668   4.047   4.018   3.547  0.2403 -0.0887 -0.2401
    1SOL     OW 8669   4.040   4.267   3.422 -0.1730  0.3524  0.2905
    1SOL    HW2 8670   4.039   4.182   3.467  1.1054  0.1612 -0.0236
    1SOL    HW3 8671   3.961   4.311   3.453  0.0821 -0.2347  1.8279
    1SOL    MW4 8672   4.029   4.261   3.432  0.0296  0.2499  0.4520
    1SOL     OW 8673   4.275   4.398   3.524 -0.5489 -0.3894 -0.6510
    1SOL    HW2 8674   4.287   4.393   3.619 -0.8215 -0.6864 -0.6314
    1SOL    HW3 8675   4.200   4.342   3.506 -0.1961 -0.7236 -1.1038
    1SOL    MW4 8676   4.267   4.390   3.534 -0.5379 -0.4735 -0.7083
    1SOL     OW 8677   0.248   4.667   3.879  0.1755  0.0619  0.0176
    1SOL    HW2 8678   0.235   4.659   3.973  1.3257 -1.9839  0.0334
    1SOL    HW3 8679   0.161   4.686   3.844 -0.8512 -2.2063  1.2055
    1SOL    MW4 8680   0.235   4.668   3.887  0.1918 -0.5073  0.1762
    1SOL     OW 8681   4.469   0.060   3.789  0.7440  0.3119  0.0402
    1SOL    HW2 8682   4.464   0.153   3.810 -2.0781  0.3511 -0.6532
    1SOL    HW3 8683   4.483   0.057   3.694  1.7294  0.0356  0.1920
    1SOL    MW4 8684   4.470   0.072   3.779  0.5016  0.2806 -0.0315
    1SOL     OW 8685   4.480   0.346   3.905 -0.3269  0.4283  0.0054
    1SOL    HW2 8686   4.413   0.404   3.868 -0.2964 -0.7217 -1.8899
    1SOL    HW3 8687   4.563   0.385   3.877 -0.2590  0.3906  0.1529
    1SOL    MW4 8688   4.483   0.359   3.896 -0.3140  0.2716 -0.2251
    1SOL     OW 8689   0.219   0.477   3.821 -0.5695  0.2655  0.3465
    1SOL    HW2 8690   0.221   0.562   3.864 -0.5250 -0.0352  0.9422
    1SOL    HW3 8691   0.195   0.497   3.730  1.2107  1.0849  0.0386
    1SOL    MW4 8692   0.216   0.491   3.814 -0.3288  0.3340  0.3841
    1SOL     OW 8693   0.211   0.750   3.907  0.3639 -0.1579  0.1299
    1SOL    HW2 8694   0.207   0.745   4.003  0.8846  0.3752  0.1739
    1SOL    HW3 8695   0.139   0.808   3.884  2.1211  2.1670  0.3894
    1SOL    MW4 8696   0.201   0.757   3.917  0.6644  0.2192  0.1700
    1SOL     OW 8697   4.478   0.882   3.788 -0.2334  0.0267 -0.2066
    1SOL    HW2 8698   4.395   0.850   3.823  0.5015 -1.7345 -0.0205
    1SOL    HW3 8699   4.485   0.971   3.820 -3.1821  1.0462 -2.1905
    1SOL    MW4 8700   4.468   0.889   3.797 -0.5255 -0.0711 -0.4439
    1SOL     OW 8701   0.020   1.133   3.887  0.4063  0.2056 -0.0565
    1SOL    HW2 8702  -0.048   1.194   3.858  0.1188  0.7631  1.7607
    1SOL    HW3 8703   0.102   1.174   3.861  0.1230  0.2952 -0.8281
    1SOL    MW4 8704   0.022   1.146   3.879  0.3310  0.2910  0.0811
    1SOL     OW 8705   0.233   1.281   3.786  0.1224 -0.2627 -0.3691
    1SOL    HW2 8706   0.239   1.370   3.822 -1.5064  0.1011 -0.9653
    1SOL    HW3 8707   0.218   1.294   3.692  0.4993 -1.1800 -0.5656
    1SOL    MW4 8708   0.232   1.295   3.778 -0.0428 -0.3357 -0.4737
    1SOL     OW 8709   0.244   1.537   3.919  0.1010 -0.3842  0.4559
    1SOL    HW2 8710   0.236   1.533   4.014 -0.9286 -0.0411  0.3843
    1SOL    HW3 8711   0.168   1.587   3.890  1.5813  1.4478 -0.3596
    1SOL    MW4 8712   0.233   1.543   3.927  0.1604 -0.0974  0.3390
    1SOL     OW 8713   0.025   1.657   3.793  0.0661 -0.1660 -0.2617
    1SOL    HW2 8714   0.016   1.750   3.814  1.3385 -0.3574  1.1943
    1SOL    HW3 8715   0.024   1.655   3.697 -0.8100  1.2526 -0.3043
    1SOL    MW4 8716   0.024   1.669   3.783  0.1187 -0.0041 -0.0751
    1SOL     OW 8717   0.001   1.921   3.846 -0.5882 -0.0114 -0.2597
    1SOL    HW2 8718  -0.003   1.942   3.939  0.4115 -2.0389  0.2544
    1SOL    HW3 8719  -0.083   1.951   3.811 -2.7156 -2.9712  2.0911
    1SOL    MW4 8720  -0.011   1.928   3.853 -0.7372 -0.6695  0.1185
    1SOL     OW 8721   0.244   2.033   3.777 -0.0906 -0.1355 -0.1302
    1SOL    HW2 8722   0.224   2.119   3.814  0.4354  0.4683 -1.2148
    1SOL    HW3 8723   0.164   1.981   3.790 -0.8910  0.9410 -0.6903
    1SOL    MW4 8724   0.231   2.037   3.784 -0.1268  0.0861 -0.3471
    1SOL     OW 8725   0.218   2.303   3.852 -0.2171  0.2654 -0.1064
    1SOL    HW2 8726   0.222   2.298   3.947 -1.3680 -1.6091 -0.1161
    1SOL    HW3 8727   0.147   2.365   3.834  1.2053  2.0216  0.2229
    1SOL    MW4 8728   0.209   2.310   3.862 -0.1813  0.2499 -0.0641
    1SOL     OW 8729   4.448   2.424   3.779 -0.1563 -0.0902  0.0871
    1SOL    HW2 8730   4.376   2.373   3.815  0.7703 -0.6156  1.2057
    1SOL    HW3 8731   4.449   2.504   3.832  0.7554 -0.5545  0.7819
    1SOL    MW4 8732   4.439   2.428   3.791  0.0858 -0.2208  0.3264
    1SOL     OW 8733   4.480   2.666   3.907 -0.4223 -0.0572  0.2308
    1SOL    HW2 8734   4.494   2.671   4.002 -0.0044 -1.0978  0.2336
    1SOL    HW3 8735   4.560   2.701   3.869 -0.0455 -0.8527  0.2685
    1SOL    MW4 8736   4.492   2.671   3.915 -0.3174 -0.2995  0.2363
    1SOL     OW 8737   0.223   2.803   3.791 -0.2037 -0.2121  0.0294
    1SOL    HW2 8738   0.307   2.780   3.831  0.1193  0.0425 -0.4966
    1SOL    HW3 8739   0.238   2.794   3.697 -1.0753 -1.1939 -0.0227
    1SOL    MW4 8740   0.236   2.799   3.784 -0.2761 -0.3080 -0.0472
    1SOL     OW 8741   0.203   3.078   3.845  0.1001  0.1275 -0.2917
    1SOL    HW2 8742   0.219   3.074   3.939 -1.2762  1.2837  0.0158
    1SOL    HW3 8743   0.212   2.988   3.815  0.2597 -0.2980  0.9913
    1SOL    MW4 8744   0.206   3.066   3.853 -0.0604  0.2239 -0.0823
    1SOL     OW 8745   4.464   3.206   3.811 -0.4216  0.0711  0.4336
    1SOL    HW2 8746   4.550   3.164   3.809  0.3220  1.5838  0.3999
    1SOL    HW3 8747   4.448   3.234   3.721 -0.8566  0.0046  0.4857
    1SOL    MW4 8748   4.473   3.204   3.799 -0.3805  0.2623  0.4361
    1SOL     OW 8749   4.465   3.465   3.887 -0.2871  0.0944 -0.0995
    1SOL    HW2 8750   4.553   3.496   3.865 -0.8104  1.4421 -0.2815
    1SOL    HW3 8751   4.465   3.373   3.858  0.6723  0.4095 -1.1561
    1SOL    MW4 8752   4.477   3.457   3.880 -0.2298  0.3138 -0.2632
    1SOL     OW 8753   0.193   3.613   3.794  1.0105  0.0168 -0.0846
    1SOL    HW2 8754   0.275   3.592   3.838  0.0295 -1.5700  1.0334
    1SOL    HW3 8755   0.181   3.707   3.807  2.2437  0.1017  0.4225
    1SOL    MW4 8756   0.202   3.622   3.801  1.0438 -0.1814  0.1299
    1SOL     OW 8757   0.214   3.870   3.893 -0.2737 -0.1005 -0.3176
    1SOL    HW2 8758   0.222   3.865   3.988  0.7828 -0.8764 -0.4353
    1SOL    HW3 8759   0.297   3.910   3.864 -1.2247  1.5903 -0.8043
    1SOL    MW4 8760   0.226   3.875   3.902 -0.2598  0.0205 -0.3977
    1SOL     OW 8761   0.010   4.037   3.815  0.0407 -0.7073 -0.1297
    1SOL    HW2 8762  -0.067   3.988   3.844 -0.5779  0.7254  0.6543
    1SOL    HW3 8763   0.084   3.984   3.845 -0.6173 -1.1216  0.7990
    1SOL    MW4 8764   0.010   4.023   3.823 -0.1277 -0.5732  0.0963
    1SOL     OW 8765   4.479   4.302   3.914  0.1390 -0.6945 -0.2032
    1SOL    HW2 8766   4.556   4.345   3.875  0.6289 -0.4544  0.9974
    1SOL    HW3 8767   4.483   4.212   3.883 -0.0086 -0.2662 -1.4685
    1SOL    MW4 8768   4.490   4.296   3.905  0.1845 -0.6065 -0.2115
    1SOL     OW 8769   0.212   4.414   3.802  0.5097  0.2504 -0.6968
    1SOL    HW2 8770   0.294   4.375   3.831 -0.0743  0.0497  0.7443
    1SOL    HW3 8771   0.221   4.507   3.821  0.3186  0.1926 -0.3114
    1SOL    MW4 8772   0.224   4.421   3.808  0.4075  0.2160 -0.4554
    1SOL     OW 8773   0.690   0.018   3.907  0.2974  0.3408  0.9078
    1SOL    HW2 8774   0.663  -0.073   3.897  0.5937  0.3855 -0.3872
    1SOL    HW3 8775   0.623   0.068   3.860  0.2982  0.7725  1.3597
    1SOL    MW4 8776   0.678   0.013   3.899  0.3366  0.4034  0.7963
    1SOL     OW 8777   0.470   0.138   3.781  0.1727 -0.2108 -0.2572
    1SOL    HW2 8778   0.449   0.216   3.833  0.2025 -1.2468  1.3382
    1SOL    HW3 8779   0.405   0.073   3.808  1.2930 -1.3218 -0.1965
    1SOL    MW4 8780   0.459   0.140   3.792  0.3245 -0.4941 -0.0389
    1SOL     OW 8781   0.449   0.363   3.928 -0.1041  0.5924 -0.2586
    1SOL    HW2 8782   0.518   0.403   3.875 -0.1910 -0.6014 -1.3151
    1SOL    HW3 8783   0.368   0.392   3.888 -0.1676 -1.0037 -1.3707
    1SOL    MW4 8784   0.448   0.372   3.916 -0.1239  0.2243 -0.5445
    1SOL     OW 8785   0.653   0.517   3.797 -0.0204 -0.5212 -0.2998
    1SOL    HW2 8786   0.734   0.478   3.831  0.2744 -0.1840 -0.6084
    1SOL    HW3 8787   0.656   0.607   3.826 -0.3306 -0.5321 -0.2358
    1SOL    MW4 8788   0.664   0.523   3.805 -0.0224 -0.4781 -0.3316
    1SOL     OW 8789   0.681   0.777   3.903 -0.3926 -0.1952 -0.2303
    1SOL    HW2 8790   0.740   0.822   3.842  1.3429  0.6029  1.9631
    1SOL    HW3 8791   0.594   0.810   3.881  0.4374  1.5367 -1.0033
    1SOL    MW4 8792   0.677   0.787   3.892 -0.0542  0.1387 -0.0429
    1SOL     OW 8793   0.452   0.906   3.805  0.6750  0.1068  0.0069
    1SOL    HW2 8794   0.466   0.988   3.851  1.9455 -0.5867  0.8902
    1SOL    HW3 8795   0.387   0.860   3.858  2.2340 -0.7479  1.2265
    1SOL    MW4 8796   0.445   0.911   3.818  1.0483 -0.0975  0.2842
    1SOL     OW 8797   0.452   1.169   3.908  0.0444  0.0833  0.3322
    1SOL    HW2 8798   0.532   1.209   3.874  0.3603 -0.2343  0.6936
    1SOL    HW3 8799   0.381   1.214   3.862  0.3649  1.5179  1.2087
    1SOL    MW4 8800   0.453   1.180   3.898  0.1284  0.2308  0.4957
    1SOL     OW 8801   0.687   1.272   3.814 -0.0367 -0.3363 -0.4810
    1SOL    HW2 8802   0.773   1.231   3.827  0.9930  2.3158  1.4338
    1SOL    HW3 8803   0.683   1.290   3.720  1.4263 -0.6384 -0.6108
    1SOL    MW4 8804   0.698   1.269   3.803  0.2922 -0.0263 -0.2456
    1SOL     OW 8805   0.710   1.532   3.935  0.0545  0.2197  0.0101
    1SOL    HW2 8806   0.769   1.589   3.887 -0.2661 -0.3660 -1.0913
    1SOL    HW3 8807   0.728   1.444   3.901  0.1863 -0.2698  1.3220
    1SOL    MW4 8808   0.720   1.528   3.924  0.0296  0.0778  0.0377
    1SOL     OW 8809   0.507   1.666   3.821  0.4207 -0.0055 -0.0319
    1SOL    HW2 8810   0.578   1.612   3.856  0.0330  0.0235  0.7896
    1SOL    HW3 8811   0.427   1.622   3.847  0.1188  0.3020 -0.4276
    1SOL    MW4 8812   0.506   1.653   3.829  0.3297  0.0390  0.0243
    1SOL     OW 8813   0.484   1.947   3.876  0.5002 -0.0133 -0.1280
    1SOL    HW2 8814   0.486   1.851   3.872  2.1333  0.0412 -0.8204
    1SOL    HW3 8815   0.396   1.970   3.845  0.0650 -1.2884  0.1231
    1SOL    MW4 8816   0.473   1.937   3.871  0.6583 -0.1742 -0.1864
    1SOL     OW 8817   0.722   2.065   3.771  0.2971  0.4146 -0.1002
    1SOL    HW2 8818   0.716   2.153   3.809  0.2491  0.3936 -0.0577
    1SOL    HW3 8819   0.644   2.020   3.803  1.3782 -0.3055  1.5594
    1SOL    MW4 8820   0.711   2.070   3.780  0.4334  0.3171  0.1242
    1SOL     OW 8821   0.704   2.327   3.856 -0.3770  0.3586 -0.0972
    1SOL    HW2 8822   0.778   2.368   3.811 -0.1911 -0.7918 -0.8685
    1SOL    HW3 8823   0.628   2.352   3.803 -0.3270  0.1480 -0.2707
    1SOL    MW4 8824   0.704   2.336   3.843 -0.3459  0.1788 -0.2217
    1SOL     OW 8825   0.468   2.426   3.751 -0.0193 -0.1629  0.0224
    1SOL    HW2 8826   0.386   2.378   3.768 -1.2204  1.3762 -1.2204
    1SOL    HW3 8827   0.465   2.444   3.657  0.9469  1.3868  0.2812
    1SOL    MW4 8828   0.456   2.422   3.741 -0.0503  0.2446 -0.1073
    1SOL     OW 8829   0.467   2.706   3.865 -0.1120 -0.0604 -0.0844
    1SOL    HW2 8830   0.534   2.758   3.820  0.1603 -0.5626 -0.2692
    1SOL    HW3 8831   0.471   2.620   3.822 -1.4103  0.1378 -0.6091
    1SOL    MW4 8832   0.476   2.701   3.854 -0.2474 -0.1004 -0.1781
    1SOL     OW 8833   0.674   2.840   3.743  0.0092  0.0113 -0.1776
    1SOL    HW2 8834   0.750   2.791   3.773  1.3302  2.0209 -0.1534
    1SOL    HW3 8835   0.679   2.837   3.648 -0.4375 -0.6644 -0.1866
    1SOL    MW4 8836   0.685   2.833   3.735  0.1245  0.1872 -0.1755
    1SOL     OW 8837   0.679   3.122   3.825  0.4028  0.4959 -0.3052
    1SOL    HW2 8838   0.675   3.139   3.919  0.3947 -0.5029 -0.1228
    1SOL    HW3 8839   0.668   3.027   3.817 -0.5317  0.6824 -1.3720
    1SOL    MW4 8840   0.677   3.112   3.836  0.2784  0.3886 -0.4220
    1SOL     OW 8841   0.441   3.247   3.750  0.2580 -0.4808  0.0477
    1SOL    HW2 8842   0.526   3.207   3.768  1.1693  1.1045 -0.6180
    1SOL    HW3 8843   0.377   3.181   3.776  1.7023 -1.9716 -0.1123
    1SOL    MW4 8844   0.443   3.233   3.756  0.5687 -0.4685 -0.0615
    1SOL     OW 8845   0.450   3.488   3.880 -0.4245 -0.2710 -0.1029
    1SOL    HW2 8846   0.524   3.536   3.843  0.1722  0.8137  2.3464
    1SOL    HW3 8847   0.445   3.407   3.830  0.4735  1.0229 -2.3298
    1SOL    MW4 8848   0.459   3.484   3.869 -0.2273  0.0427 -0.0734
    1SOL     OW 8849   0.695   3.627   3.797 -0.1689 -0.4061  0.1023
    1SOL    HW2 8850   0.688   3.716   3.833  0.4787 -0.2009 -0.2656
    1SOL    HW3 8851   0.692   3.639   3.702  0.2159 -0.7494  0.0445
    1SOL    MW4 8852   0.694   3.640   3.789 -0.0327 -0.4244  0.0460
    1SOL     OW 8853   0.691   3.895   3.877 -0.1458  0.0971  0.2998
    1SOL    HW2 8854   0.688   3.895   3.973  0.4614 -1.3224  0.3392
    1SOL    HW3 8855   0.773   3.938   3.855 -0.9974  1.7670  0.3736
    1SOL    MW4 8856   0.701   3.900   3.887 -0.1781  0.1299  0.3150
    1SOL     OW 8857   0.445   3.999   3.793 -0.3031  0.0603 -0.2836
    1SOL    HW2 8858   0.529   3.970   3.827 -1.0619 -1.7209  0.1089
    1SOL    HW3 8859   0.461   4.017   3.701  0.7964  0.9792  0.0736
    1SOL    MW4 8860   0.458   3.998   3.785 -0.2582 -0.0536 -0.1845
    1SOL     OW 8861   0.430   4.262   3.891  0.3223  0.1864 -0.1504
    1SOL    HW2 8862   0.514   4.292   3.857  1.0581 -2.4794 -0.7937
    1SOL    HW3 8863   0.422   4.171   3.861 -1.8975 -0.2279  1.5165
    1SOL    MW4 8864   0.440   4.254   3.883  0.1265 -0.2203 -0.0155
    1SOL     OW 8865   0.661   4.415   3.826  0.0037 -0.2631 -0.1030
    1SOL    HW2 8866   0.724   4.360   3.872  0.2608 -0.4822 -0.7121
    1SOL    HW3 8867   0.689   4.413   3.735 -0.4116  0.2936 -0.2460
    1SOL    MW4 8868   0.673   4.407   3.820 -0.0172 -0.2189 -0.2022
    1SOL     OW 8869   1.137   4.662   3.889 -0.2581 -0.1492 -0.3119
    1SOL    HW2 8870   1.207   4.690   3.830  2.1807  0.2200  2.6039
    1SOL    HW3 8871   1.128   4.568   3.873  1.4603 -0.3509 -0.2157
    1SOL    MW4 8872   1.145   4.653   3.879  0.2904 -0.1268  0.0854
    1SOL     OW 8873   0.922   0.108   3.775  0.0869  0.2131  0.0083
    1SOL    HW2 8874   0.999   0.073   3.820 -0.3223 -0.5670  0.1150
    1SOL    HW3 8875   0.848   0.067   3.820 -0.4593  2.4936  1.2219
    1SOL    MW4 8876   0.923   0.098   3.787 -0.0392  0.4111  0.1826
    1SOL     OW 8877   0.876   0.366   3.890 -0.4300 -0.1551  0.0672
    1SOL    HW2 8878   0.882   0.370   3.985  0.1572 -1.3306  0.0824
    1SOL    HW3 8879   0.895   0.275   3.868 -0.6128  0.0955 -1.1739
    1SOL    MW4 8880   0.879   0.355   3.900 -0.3766 -0.2771 -0.0944
    1SOL     OW 8881   1.088   0.494   3.769 -0.3204  0.2631  0.3608
    1SOL    HW2 8882   1.165   0.447   3.801 -0.9032 -0.9981 -0.0585
    1SOL    HW3 8883   1.014   0.454   3.816 -0.9899 -0.3292 -1.1616
    1SOL    MW4 8884   1.088   0.482   3.780 -0.4857  0.0186  0.1047
    1SOL     OW 8885   1.094   0.771   3.860 -0.4907  0.1668 -0.1955
    1SOL    HW2 8886   1.111   0.772   3.954  1.2030 -1.2201 -0.4624
    1SOL    HW3 8887   1.089   0.678   3.837 -0.5210  0.4808 -1.5270
    1SOL    MW4 8888   1.096   0.759   3.869 -0.2713  0.0252 -0.4065
    1SOL     OW 8889   0.870   0.903   3.756 -0.6335 -0.1206 -0.2025
    1SOL    HW2 8890   0.950   0.859   3.786 -1.0439 -0.4152  0.4770
    1SOL    HW3 8891   0.881   0.911   3.661  0.0100 -0.5498 -0.1663
    1SOL    MW4 8892   0.882   0.898   3.747 -0.6028 -0.2161 -0.1080
    1SOL     OW 8893   0.935   1.156   3.881 -0.2371  0.3426 -0.0398
    1SOL    HW2 8894   0.935   1.155   3.977  0.6425  1.1885 -0.0239
    1SOL    HW3 8895   0.926   1.064   3.857 -2.1585  0.2841  0.8406
    1SOL    MW4 8896   0.934   1.144   3.891 -0.3746  0.4466  0.0784
    1SOL     OW 8897   1.125   1.312   3.745  0.1295  0.0121 -0.4038
    1SOL    HW2 8898   1.132   1.399   3.783  0.8212 -0.3213  0.2410
    1SOL    HW3 8899   1.050   1.273   3.790  0.7501 -0.2661  0.4105
    1SOL    MW4 8900   1.116   1.318   3.756  0.3026 -0.0684 -0.2112
    1SOL     OW 8901   1.105   1.565   3.871  0.0623  0.3210 -0.0398
    1SOL    HW2 8902   1.108   1.558   3.967  1.2448 -0.5386 -0.1257
    1SOL    HW3 8903   1.185   1.612   3.848 -0.5621  1.1335 -0.5616
    1SOL    MW4 8904   1.116   1.570   3.881  0.1359  0.3148 -0.1199
    1SOL     OW 8905   0.876   1.673   3.769 -0.0605  0.0238  0.3099
    1SOL    HW2 8906   0.962   1.642   3.796 -0.5130 -0.3834  1.3114
    1SOL    HW3 8907   0.884   1.686   3.675  0.6339 -1.5650  0.1279
    1SOL    MW4 8908   0.888   1.671   3.760 -0.0287 -0.2397  0.4182
    1SOL     OW 8909   0.904   1.905   3.898  0.6345 -0.0545  0.0705
    1SOL    HW2 8910   0.889   1.827   3.844  2.5779  0.5699 -1.4113
    1SOL    HW3 8911   0.851   1.973   3.857  1.1978  0.1227 -0.3726
    1SOL    MW4 8912   0.895   1.903   3.885  0.9654  0.0513 -0.1833
    1SOL     OW 8913   1.114   2.073   3.800 -0.0999  0.3455 -0.0976
    1SOL    HW2 8914   1.046   2.007   3.808  1.2179 -1.1434 -0.9209
    1SOL    HW3 8915   1.123   2.087   3.706  1.3808 -0.1854 -0.0552
    1SOL    MW4 8916   1.106   2.066   3.789  0.2693  0.0789 -0.2007
    1SOL     OW 8917   1.144   2.336   3.880 -0.7438  0.1572 -0.1346
    1SOL    HW2 8918   1.138   2.336   3.975  0.0815 -0.3951 -0.0724
    1SOL    HW3 8919   1.120   2.247   3.854 -0.4036  0.1361 -0.3911
    1SOL    MW4 8920   1.140   2.324   3.889 -0.5901  0.0818 -0.1605
    1SOL     OW 8921   0.930   2.446   3.737 -0.5674  0.0002  0.3368
    1SOL    HW2 8922   0.916   2.530   3.781 -0.1794  0.1239  0.2302
    1SOL    HW3 8923   1.003   2.406   3.784 -1.2390 -0.6100  0.8550
    1SOL    MW4 8924   0.938   2.452   3.749 -0.6049 -0.0641  0.3912
    1SOL     OW 8925   0.877   2.695   3.861 -0.0622  0.0595  0.0649
    1SOL    HW2 8926   0.871   2.704   3.956 -0.3647  1.4155 -0.0796
    1SOL    HW3 8927   0.965   2.724   3.840 -0.1905  0.2932 -0.1412
    1SOL    MW4 8928   0.888   2.700   3.871 -0.1190  0.2689  0.0184
    1SOL     OW 8929   1.116   2.788   3.774  0.1083  0.1862  0.5141
    1SOL    HW2 8930   1.202   2.768   3.810  0.9266  2.1807 -0.3007
    1SOL    HW3 8931   1.113   2.883   3.769 -2.1251  0.1450  0.4722
    1SOL    MW4 8932   1.127   2.798   3.778 -0.0783  0.4437  0.4010
    1SOL     OW 8933   1.112   3.068   3.825 -0.3592 -0.0664 -0.1835
    1SOL    HW2 8934   1.196   3.114   3.824  0.2159 -1.0995  0.7003
    1SOL    HW3 8935   1.049   3.133   3.792  0.6887  0.8744 -0.3506
    1SOL    MW4 8936   1.115   3.083   3.820 -0.1451 -0.0784 -0.0889
    1SOL     OW 8937   0.912   3.247   3.773  0.0355  0.4828  0.6671
    1SOL    HW2 8938   0.826   3.217   3.801 -0.3339  2.1988  1.4541
    1SOL    HW3 8939   0.906   3.254   3.678 -0.8213  0.9482  0.7479
    1SOL    MW4 8940   0.900   3.244   3.764 -0.1264  0.7708  0.7818
    1SOL     OW 8941   0.920   3.490   3.897  0.0306 -0.5308  0.4815
    1SOL    HW2 8942   0.934   3.403   3.860 -0.1629 -0.5164  0.3752
    1SOL    HW3 8943   0.842   3.523   3.852  0.1087 -0.2996  0.5139
    1SOL    MW4 8944   0.912   3.483   3.886  0.0153 -0.4983  0.4716
    1SOL     OW 8945   1.126   3.648   3.783  0.1205 -0.5572 -0.6232
    1SOL    HW2 8946   1.126   3.730   3.832 -1.8513  0.4591 -2.2798
    1SOL    HW3 8947   1.061   3.594   3.827  0.0783 -0.5483 -0.6757
    1SOL    MW4 8948   1.118   3.652   3.795 -0.1453 -0.4220 -0.8488
    1SOL     OW 8949   1.128   3.895   3.907  0.0805 -0.2387 -0.2945
    1SOL    HW2 8950   1.131   3.895   4.003 -1.0361 -0.8040 -0.2511
    1SOL    HW3 8951   1.211   3.933   3.880 -0.0080  0.8301  0.9158
    1SOL    MW4 8952   1.139   3.900   3.916 -0.0784 -0.1719 -0.1292
    1SOL     OW 8953   0.917   4.027   3.785 -0.1271 -0.2654 -0.3938
    1SOL    HW2 8954   0.995   3.976   3.808 -0.7636 -1.5898 -1.1053
    1SOL    HW3 8955   0.919   4.031   3.689 -0.3227  0.7020 -0.3678
    1SOL    MW4 8956   0.927   4.021   3.776 -0.2369 -0.3123 -0.4842
    1SOL     OW 8957   0.878   4.261   3.915 -0.1265 -0.0504 -0.0780
    1SOL    HW2 8958   0.876   4.254   4.010  0.2484 -0.3520 -0.0904
    1SOL    HW3 8959   0.897   4.172   3.884 -1.7344 -0.2678 -0.4962
    1SOL    MW4 8960   0.880   4.249   3.923 -0.2892 -0.1187 -0.1349
    1SOL     OW 8961   1.126   4.400   3.825  0.1292 -0.0772 -0.6357
    1SOL    HW2 8962   1.054   4.343   3.853 -0.8559  1.3576 -0.1752
    1SOL    HW3 8963   1.120   4.401   3.730 -0.2160 -0.2804 -0.6183
    1SOL    MW4 8964   1.116   4.393   3.816 -0.0464  0.0854 -0.5727
    1SOL     OW 8965   1.520   4.653   3.876  0.1885  0.3418 -0.2078
    1SOL    HW2 8966   1.548   4.647   3.968  2.1840  1.4385 -0.7040
    1SOL    HW3 8967   1.552   4.572   3.836  0.0988  0.2598 -0.1101
    1SOL    MW4 8968   1.528   4.642   3.883  0.4400  0.4759 -0.2601
    1SOL     OW 8969   1.325   0.116   3.725 -0.2387  0.0611  0.0121
    1SOL    HW2 8970   1.336   0.205   3.760 -1.3690  0.4629 -0.6391
    1SOL    HW3 8971   1.390   0.064   3.772 -0.0853  1.0855  0.9552
    1SOL    MW4 8972   1.335   0.121   3.736 -0.3676  0.2492  0.0503
    1SOL     OW 8973   1.314   0.355   3.853 -0.1950  0.1427  0.3180
    1SOL    HW2 8974   1.317   0.354   3.949  0.6954  0.5247  0.2921
    1SOL    HW3 8975   1.381   0.417   3.827 -0.9641  0.6313 -0.5427
    1SOL    MW4 8976   1.323   0.363   3.862 -0.1789  0.2576  0.2007
    1SOL     OW 8977   1.569   0.516   3.770  0.5730 -0.2947  0.3187
    1SOL    HW2 8978   1.645   0.467   3.802  0.9027  0.2398  0.3842
    1SOL    HW3 8979   1.574   0.600   3.817 -0.9888 -0.8557  1.5385
    1SOL    MW4 8980   1.580   0.521   3.780  0.4104 -0.2982  0.4883
    1SOL     OW 8981   1.587   0.767   3.866  0.0554 -0.3451  0.7603
    1SOL    HW2 8982   1.652   0.823   3.822 -0.6807 -0.2472 -0.2210
    1SOL    HW3 8983   1.503   0.799   3.835 -0.3486 -2.6194 -0.5869
    1SOL    MW4 8984   1.585   0.778   3.856 -0.0951 -0.6323  0.4532
    1SOL     OW 8985   1.340   0.875   3.794  0.4194 -0.1418 -0.2194
    1SOL    HW2 8986   1.338   0.964   3.828  1.1197 -0.7791  1.5312
    1SOL    HW3 8987   1.255   0.838   3.818 -0.2286  0.3088 -1.7267
    1SOL    MW4 8988   1.329   0.882   3.801  0.4264 -0.1664 -0.1874
    1SOL     OW 8989   1.322   1.145   3.845 -0.6062 -0.3795  0.4521
    1SOL    HW2 8990   1.408   1.177   3.816 -0.0539 -0.8108  1.5899
    1SOL    HW3 8991   1.259   1.198   3.796  0.3063  1.2984  1.0462
    1SOL    MW4 8992   1.325   1.156   3.835 -0.4129 -0.2151  0.6807
    1SOL     OW 8993   1.553   1.263   3.771  0.0397 -0.2969 -0.3005
    1SOL    HW2 8994   1.607   1.231   3.843  1.3945  0.0808 -1.1333
    1SOL    HW3 8995   1.539   1.356   3.791 -0.8348 -0.5235  0.2179
    1SOL    MW4 8996   1.558   1.271   3.783  0.1031 -0.2770 -0.3421
    1SOL     OW 8997   1.554   1.561   3.815 -0.1155  0.3185  0.3349
    1SOL    HW2 8998   1.587   1.583   3.902 -1.4300 -1.4776  1.3423
    1SOL    HW3 8999   1.619   1.596   3.754  1.6916  0.1196  2.0982
    1SOL    MW4 9000   1.567   1.568   3.819 -0.0505  0.0553  0.7007
    1SOL     OW 9001   1.320   1.674   3.741 -0.0869  0.5271 -0.3833
    1SOL    HW2 9002   1.320   1.755   3.792 -2.0707  0.0217  0.4926
    1SOL    HW3 9003   1.394   1.624   3.776  1.8266  2.3611 -1.6765
    1SOL    MW4 9004   1.330   1.678   3.752 -0.0962  0.7024 -0.4387
    1SOL     OW 9005   1.354   1.949   3.886 -0.5188  0.4727  0.5221
    1SOL    HW2 9006   1.352   1.938   3.981 -0.6933  3.1139  0.8419
    1SOL    HW3 9007   1.268   1.984   3.863 -0.0067  1.1170 -0.4542
    1SOL    MW4 9008   1.343   1.952   3.895 -0.4743  0.9062  0.4354
    1SOL     OW 9009   1.599   2.028   3.783  0.3772  0.0173  0.0771
    1SOL    HW2 9010   1.509   2.011   3.811  0.0804  2.6422  0.8586
    1SOL    HW3 9011   1.593   2.042   3.689  0.3093 -1.8480 -0.2186
    1SOL    MW4 9012   1.586   2.027   3.774  0.3291  0.1178  0.1409
    1SOL     OW 9013   1.561   2.307   3.879  0.2823  0.1257  0.2297
    1SOL    HW2 9014   1.640   2.350   3.844  0.1118 -0.0248 -0.3345
    1SOL    HW3 9015   1.574   2.214   3.861 -1.1529  0.3308 -2.1387
    1SOL    MW4 9016   1.573   2.301   3.872  0.0705  0.1330 -0.1574
    1SOL     OW 9017   1.360   2.458   3.758  0.2737  0.0308 -0.0107
    1SOL    HW2 9018   1.435   2.406   3.786  0.4142  0.3536  0.2129
    1SOL    HW3 9019   1.285   2.417   3.802  0.4553  0.3550  0.6049
    1SOL    MW4 9020   1.360   2.446   3.767  0.3161  0.1161  0.1004
    1SOL     OW 9021   1.350   2.697   3.889 -0.2030 -0.3178 -0.2570
    1SOL    HW2 9022   1.349   2.697   3.984 -1.6925 -0.1084 -0.2587
    1SOL    HW3 9023   1.344   2.604   3.865  0.2791 -0.3770 -0.1444
    1SOL    MW4 9024   1.349   2.684   3.898 -0.3359 -0.2980 -0.2422
    1SOL     OW 9025   1.584   2.811   3.797  0.0201 -0.2426  0.1288
    1SOL    HW2 9026   1.502   2.767   3.818 -0.6445  0.5006 -0.8771
    1SOL    HW3 9027   1.588   2.811   3.701 -0.2591  2.3599  0.0922
    1SOL    MW4 9028   1.574   2.805   3.787 -0.1045  0.1988 -0.0086
    1SOL     OW 9029   1.579   3.098   3.874  0.6787 -0.1217  0.8662
    1SOL    HW2 9030   1.575   3.091   3.969 -2.4238 -0.2121  0.7771
    1SOL    HW3 9031   1.588   3.008   3.843 -0.0582 -0.2627  1.0418
    1SOL    MW4 9032   1.580   3.085   3.882  0.1723 -0.1523  0.8776
    1SOL     OW 9033   1.342   3.214   3.803  0.6386  0.2793 -0.0943
    1SOL    HW2 9034   1.341   3.305   3.831  1.6345  0.3574 -0.3102
    1SOL    HW3 9035   1.428   3.182   3.828  0.9929 -0.0777 -1.7101
    1SOL    MW4 9036   1.353   3.222   3.810  0.8168  0.2425 -0.3357
    1SOL     OW 9037   1.356   3.512   3.872 -0.3335  0.3648 -0.0567
    1SOL    HW2 9038   1.421   3.569   3.831 -1.7823  1.2748 -1.1040
    1SOL    HW3 9039   1.272   3.554   3.854 -1.2757 -1.1406  0.7388
    1SOL    MW4 9040   1.354   3.525   3.865 -0.6491  0.2863 -0.0901
    1SOL     OW 9041   1.558   3.646   3.759 -0.0888 -0.3848 -0.4058
    1SOL    HW2 9042   1.630   3.599   3.801 -1.3642 -0.7970  1.3520
    1SOL    HW3 9043   1.560   3.733   3.798  1.1861  0.5309 -2.4076
    1SOL    MW4 9044   1.568   3.651   3.770 -0.0888 -0.3183 -0.4385
    1SOL     OW 9045   1.574   3.901   3.871  0.1161 -0.4454  0.0391
    1SOL    HW2 9046   1.569   3.892   3.966 -0.4445  0.2806  0.0902
    1SOL    HW3 9047   1.494   3.949   3.848  0.2852 -0.5526 -0.7873
    1SOL    MW4 9048   1.562   3.906   3.880  0.0645 -0.3641 -0.0632
    1SOL     OW 9049   1.339   4.029   3.797  0.2579  0.0819  0.4432
    1SOL    HW2 9050   1.331   4.120   3.827 -1.5817  0.1887 -0.3119
    1SOL    HW3 9051   1.350   4.035   3.703  0.0838 -0.4909  0.3856
    1SOL    MW4 9052   1.340   4.042   3.789 -0.0076  0.0200  0.3359
    1SOL     OW 9053   1.373   4.273   3.897 -0.0099  0.0241 -0.2124
    1SOL    HW2 9054   1.432   4.320   3.839 -0.8434  0.1408 -0.9810
    1SOL    HW3 9055   1.290   4.321   3.890 -0.1702 -0.0775  0.9190
    1SOL    MW4 9056   1.370   4.285   3.888 -0.1410  0.0267 -0.1645
    1SOL     OW 9057   1.594   4.384   3.786  0.3007 -0.1635 -0.1359
    1SOL    HW2 9058   1.668   4.330   3.815  0.7081  0.5645  0.1869
    1SOL    HW3 9059   1.606   4.391   3.691  0.1419 -0.7927 -0.2046
    1SOL    MW4 9060   1.605   4.378   3.777  0.3334 -0.1507 -0.1025
    1SOL     OW 9061   1.986   4.646   3.923  0.3704 -0.6085  0.0643
    1SOL    HW2 9062   2.057   4.702   3.892  1.2282 -1.5800  0.2596
    1SOL    HW3 9063   2.002   4.562   3.882  0.2542 -1.2819  1.3653
    1SOL    MW4 9064   1.997   4.643   3.914  0.4683 -0.8254  0.2618
    1SOL     OW 9065   1.777   0.113   3.797 -0.6735 -0.4647 -0.4200
    1SOL    HW2 9066   1.839   0.058   3.843  0.2153  0.4173 -0.5361
    1SOL    HW3 9067   1.691   0.077   3.819 -0.0879 -2.2271 -0.9496
    1SOL    MW4 9068   1.774   0.101   3.806 -0.4787 -0.5809 -0.5052
    1SOL     OW 9069   1.805   0.392   3.865 -0.3015 -0.1295 -0.5594
    1SOL    HW2 9070   1.800   0.391   3.960 -1.1127 -1.5598 -0.6100
    1SOL    HW3 9071   1.830   0.303   3.841  0.3324  0.3326 -1.6658
    1SOL    MW4 9072   1.808   0.380   3.874 -0.3250 -0.2573 -0.7122
    1SOL     OW 9073   2.061   0.529   3.787 -0.0046  0.1868 -0.1563
    1SOL    HW2 9074   1.978   0.488   3.812 -0.3342  0.8782 -0.1165
    1SOL    HW3 9075   2.064   0.523   3.692  0.0925 -0.2038 -0.1303
    1SOL    MW4 9076   2.051   0.523   3.778 -0.0353  0.2266 -0.1476
    1SOL     OW 9077   2.018   0.785   3.888  0.0676  0.4121 -0.4614
    1SOL    HW2 9078   2.027   0.781   3.983  1.5051  1.2984 -0.5437
    1SOL    HW3 9079   2.029   0.695   3.858  0.4903  0.2659  0.1430
    1SOL    MW4 9080   2.021   0.773   3.896  0.3128  0.5098 -0.3922
    1SOL     OW 9081   1.792   0.917   3.767 -0.0411  0.2208 -0.2106
    1SOL    HW2 9082   1.871   0.869   3.790  0.4563  0.4732 -1.3509
    1SOL    HW3 9083   1.793   0.921   3.671 -1.9430 -0.6518 -0.3012
    1SOL    MW4 9084   1.802   0.911   3.757 -0.2264  0.1390 -0.3729
    1SOL     OW 9085   1.757   1.150   3.920  0.2922  0.1033 -0.2112
    1SOL    HW2 9086   1.775   1.135   4.013  0.6633 -0.2282 -0.3326
    1SOL    HW3 9087   1.763   1.064   3.880  0.9544  0.3618 -0.6772
    1SOL    MW4 9088   1.760   1.137   3.927  0.4286  0.0937 -0.2887
    1SOL     OW 9089   2.023   1.220   3.759 -0.0763  0.1014 -0.2395
    1SOL    HW2 9090   2.101   1.189   3.805 -0.0805  1.2212  0.5348
    1SOL    HW3 9091   1.950   1.188   3.813 -0.0521  3.5933  2.0430
    1SOL    MW4 9092   2.024   1.211   3.772 -0.0734  0.7099  0.1636
    1SOL     OW 9093   2.002   1.504   3.853  0.1981  0.1567 -0.0486
    1SOL    HW2 9094   1.927   1.542   3.808 -0.6028 -1.8191 -0.4226
    1SOL    HW3 9095   2.007   1.414   3.821  2.9449  0.3470 -0.2919
    1SOL    MW4 9096   1.993   1.497   3.843  0.4548 -0.0788 -0.1302
    1SOL     OW 9097   1.822   1.657   3.714 -0.3570  0.0164  0.3361
    1SOL    HW2 9098   1.815   1.743   3.757  1.0079  0.2128  0.2001
    1SOL    HW3 9099   1.838   1.678   3.622  0.1234 -0.3887  0.3286
    1SOL    MW4 9100   1.823   1.671   3.708 -0.1135 -0.0112  0.3171
    1SOL     OW 9101   1.818   1.889   3.867 -0.0129  0.6540  0.1656
    1SOL    HW2 9102   1.820   1.898   3.962 -0.4030  0.4857  0.1945
    1SOL    HW3 9103   1.737   1.932   3.840 -0.3997 -0.1525  0.0140
    1SOL    MW4 9104   1.808   1.896   3.876 -0.1154  0.5254  0.1493
    1SOL     OW 9105   2.008   2.044   3.747  0.3528 -0.1365 -0.0400
    1SOL    HW2 9106   1.936   1.983   3.766 -0.5198  1.0516  0.5731
    1SOL    HW3 9107   2.008   2.052   3.652 -0.2123 -0.3014 -0.0557
    1SOL    MW4 9108   1.998   2.037   3.737  0.1632 -0.0014  0.0386
    1SOL     OW 9109   2.032   2.270   3.887  0.4856  0.0425  0.1072
    1SOL    HW2 9110   1.959   2.315   3.845  0.8711 -0.7615 -1.4751
    1SOL    HW3 9111   2.027   2.180   3.854  1.4947 -0.3234  0.9031
    1SOL    MW4 9112   2.021   2.264   3.877  0.6697 -0.1118  0.0036
    1SOL     OW 9113   1.805   2.396   3.802  0.6051  0.1621  0.1821
    1SOL    HW2 9114   1.828   2.480   3.842  0.6055  0.0978  0.3181
    1SOL    HW3 9115   1.807   2.413   3.707  0.3438  0.3797  0.2164
    1SOL    MW4 9116   1.808   2.409   3.794  0.5708  0.1826  0.2046
    1SOL     OW 9117   1.800   2.669   3.882 -0.4418 -0.4052 -0.2615
    1SOL    HW2 9118   1.796   2.700   3.972  0.7590  0.7560 -0.5912
    1SOL    HW3 9119   1.730   2.718   3.837 -0.0446  0.1489 -0.2840
    1SOL    MW4 9120   1.790   2.680   3.888 -0.2310 -0.1791 -0.3080
    1SOL     OW 9121   2.007   2.814   3.744 -0.2124 -0.0116 -0.1170
    1SOL    HW2 9122   2.094   2.781   3.767 -0.4563 -1.0109 -0.5943
    1SOL    HW3 9123   1.948   2.768   3.803 -0.4994  0.0920 -0.3252
    1SOL    MW4 9124   2.011   2.804   3.755 -0.2825 -0.1299 -0.2077
    1SOL     OW 9125   2.022   3.065   3.912  0.0849 -0.1401  0.2022
    1SOL    HW2 9126   2.024   2.982   3.864  0.4532  0.4173 -0.7690
    1SOL    HW3 9127   2.101   3.111   3.883  0.2872  0.2391  1.3146
    1SOL    MW4 9128   2.033   3.060   3.902  0.1602 -0.0167  0.2203
    1SOL     OW 9129   1.823   3.194   3.794  0.2679 -0.0081  0.5634
    1SOL    HW2 9130   1.899   3.156   3.838 -0.1831 -3.1964 -1.2473
    1SOL    HW3 9131   1.748   3.160   3.842 -0.0913  1.6112  1.1854
    1SOL    MW4 9132   1.823   3.184   3.806  0.1609 -0.2151  0.4067
    1SOL     OW 9133   1.762   3.458   3.853  0.1960  0.0798 -0.1461
    1SOL    HW2 9134   1.845   3.505   3.846 -0.6843  1.5380 -1.2148
    1SOL    HW3 9135   1.783   3.368   3.828  1.3096  0.6033 -1.1470
    1SOL    MW4 9136   1.776   3.453   3.848  0.2266  0.3414 -0.4189
    1SOL     OW 9137   2.000   3.582   3.791 -0.2899 -0.4749 -0.3544
    1SOL    HW2 9138   2.072   3.540   3.837 -2.3310 -3.3346  0.3916
    1SOL    HW3 9139   2.024   3.578   3.699  0.9915 -0.3849 -0.0291
    1SOL    MW4 9140   2.013   3.576   3.785 -0.3901 -0.8402 -0.2131
    1SOL     OW 9141   2.012   3.873   3.914  0.4318  0.0998  0.1780
    1SOL    HW2 9142   2.085   3.912   3.867  0.5196 -1.2389 -0.8107
    1SOL    HW3 9143   2.011   3.782   3.886 -2.0811  0.2707 -0.4131
    1SOL    MW4 9144   2.021   3.866   3.904  0.1118 -0.0541 -0.0305
    1SOL     OW 9145   1.803   3.992   3.763 -0.3558  0.1777  0.1927
    1SOL    HW2 9146   1.875   3.948   3.808  0.9556  1.4226 -0.6401
    1SOL    HW3 9147   1.724   3.960   3.807  0.7432 -0.5863  1.6555
    1SOL    MW4 9148   1.802   3.982   3.775 -0.0377  0.2413  0.2754
    1SOL     OW 9149   1.803   4.262   3.900 -0.0412  0.2074  0.2479
    1SOL    HW2 9150   1.889   4.296   3.873  0.0072 -0.0024  0.1368
    1SOL    HW3 9151   1.802   4.172   3.869 -0.7481  0.5437 -0.7804
    1SOL    MW4 9152   1.814   4.255   3.892 -0.1281  0.2241  0.0975
    1SOL     OW 9153   2.047   4.395   3.801  0.3877  0.3422 -0.0539
    1SOL    HW2 9154   2.130   4.347   3.804  0.4002  0.2735 -1.3105
    1SOL    HW3 9155   2.027   4.402   3.708 -2.2874 -1.7719  0.3144
    1SOL    MW4 9156   2.055   4.390   3.789  0.0365  0.0544 -0.1709
    1SOL     OW 9157   2.405   4.644   3.887 -0.0501  0.0718  0.2573
    1SOL    HW2 9158   2.426   4.617   3.976  0.8187 -0.0469  0.0213
    1SOL    HW3 9159   2.484   4.689   3.856 -0.0856 -0.5104 -0.6951
    1SOL    MW4 9160   2.418   4.646   3.894  0.0601 -0.0205  0.1004
    1SOL     OW 9161   2.192   0.130   3.808  0.5099 -0.1803 -0.6562
    1SOL    HW2 9162   2.262   0.067   3.828 -0.4822 -1.0201  0.2524
    1SOL    HW3 9163   2.206   0.154   3.717  1.3120 -1.2009 -0.8084
    1SOL    MW4 9164   2.203   0.125   3.799  0.4847 -0.4257 -0.5562
    1SOL     OW 9165   2.274   0.372   3.904  0.2222 -0.1449  0.1899
    1SOL    HW2 9166   2.259   0.280   3.883  1.5232  0.0072 -1.5936
    1SOL    HW3 9167   2.201   0.418   3.863  0.6281 -0.2230 -0.6415
    1SOL    MW4 9168   2.263   0.366   3.896  0.4470 -0.1351 -0.1550
    1SOL     OW 9169   2.509   0.474   3.791  0.1212  0.0513 -0.2748
    1SOL    HW2 9170   2.432   0.430   3.828  0.9379 -0.3651  0.9375
    1SOL    HW3 9171   2.490   0.479   3.697 -1.4478  0.0759  0.0305
    1SOL    MW4 9172   2.496   0.469   3.784  0.0219 -0.0004 -0.0744
    1SOL     OW 9173   2.499   0.723   3.881  0.0250  0.1330  0.8615
    1SOL    HW2 9174   2.425   0.775   3.848  0.8178  0.6371 -0.1569
    1SOL    HW3 9175   2.489   0.638   3.838 -0.5335 -0.1350  1.5138
    1SOL    MW4 9176   2.488   0.719   3.871  0.0558  0.1642  0.8130
    1SOL     OW 9177   2.285   0.858   3.788  0.2553 -0.4512  0.2421
    1SOL    HW2 9178   2.204   0.823   3.825  0.6889 -1.5886  0.1259
    1SOL    HW3 9179   2.261   0.886   3.700 -0.3409  0.5384  0.7108
    1SOL    MW4 9180   2.271   0.857   3.782  0.2339 -0.4707  0.2885
    1SOL     OW 9181   2.251   1.104   3.865  0.0699  0.1519  0.0526
    1SOL    HW2 9182   2.247   1.098   3.961 -2.0108 -0.6987 -0.0634
    1SOL    HW3 9183   2.264   1.014   3.836  0.4414  0.3728 -0.4675
    1SOL    MW4 9184   2.252   1.091   3.874 -0.1557  0.0689 -0.0315
    1SOL     OW 9185   2.452   1.244   3.742 -0.2244 -0.0255 -0.2855
    1SOL    HW2 9186   2.440   1.334   3.773  0.1257  0.0704 -0.4322
    1SOL    HW3 9187   2.387   1.193   3.791  0.1258  0.1734  0.3970
    1SOL    MW4 9188   2.442   1.249   3.752 -0.1323  0.0135 -0.2146
    1SOL     OW 9189   2.424   1.494   3.883 -0.3772  0.6785  0.1746
    1SOL    HW2 9190   2.510   1.528   3.858  0.8513 -1.3137  1.4559
    1SOL    HW3 9191   2.362   1.561   3.856  1.5766  2.0854 -0.9343
    1SOL    MW4 9192   2.428   1.507   3.876  0.0427  0.6013  0.1972
    1SOL     OW 9193   2.223   1.656   3.771 -0.5050 -0.0239 -0.1188
    1SOL    HW2 9194   2.224   1.748   3.800  0.3707 -0.0705 -0.0011
    1SOL    HW3 9195   2.143   1.620   3.809 -0.8104  0.6761 -0.0982
    1SOL    MW4 9196   2.213   1.664   3.780 -0.4299  0.0622 -0.1004
    1SOL     OW 9197   2.235   1.923   3.833 -0.2109 -0.2066  0.2608
    1SOL    HW2 9198   2.234   1.926   3.929 -0.4060  0.2131  0.2481
    1SOL    HW3 9199   2.149   1.955   3.807 -0.4379 -1.0483 -0.0428
    1SOL    MW4 9200   2.224   1.928   3.842 -0.2663 -0.2624  0.2191
    1SOL     OW 9201   2.483   2.020   3.739  0.2216  0.1733  0.6321
    1SOL    HW2 9202   2.491   2.108   3.776 -0.0840 -0.3941  2.0775
    1SOL    HW3 9203   2.403   1.984   3.777  0.4556 -0.8173  0.2268
    1SOL    MW4 9204   2.474   2.027   3.749  0.2122 -0.0319  0.7694
    1SOL     OW 9205   2.521   2.267   3.862 -0.1277 -0.4390  0.4651
    1SOL    HW2 9206   2.590   2.326   3.832 -0.6368  0.2622  0.6590
    1SOL    HW3 9207   2.439   2.310   3.837 -0.5072 -0.9444  0.8168
    1SOL    MW4 9208   2.519   2.281   3.855 -0.2449 -0.4129  0.5369
    1SOL     OW 9209   2.273   2.373   3.775 -0.1131  0.5892 -0.0137
    1SOL    HW2 9210   2.194   2.331   3.808 -0.0503  0.0071 -0.6080
    1SOL    HW3 9211   2.264   2.371   3.679  1.9106 -1.9898 -0.2023
    1SOL    MW4 9212   2.261   2.367   3.766  0.1621  0.1724 -0.1173
    1SOL     OW 9213   2.235   2.659   3.835  0.0553 -0.2448 -0.5868
    1SOL    HW2 9214   2.186   2.670   3.916  0.3812  1.5908 -0.6320
    1SOL    HW3 9215   2.237   2.564   3.822  0.2409 -0.5811  1.6865
    1SOL    MW4 9216   2.229   2.648   3.844  0.1228 -0.0467 -0.2928
    1SOL     OW 9217   2.467   2.764   3.764 -0.2742  0.6173  0.1327
    1SOL    HW2 9218   2.383   2.723   3.787  0.2920 -0.8278 -0.3204
    1SOL    HW3 9219   2.468   2.763   3.668  1.1537 -1.2283  0.1581
    1SOL    MW4 9220   2.456   2.759   3.754 -0.0110  0.1829  0.0763
    1SOL     OW 9221   2.445   3.028   3.815 -0.0749  0.2250 -0.1915
    1SOL    HW2 9222   2.444   3.039   3.910  1.3154  0.2135 -0.1664
    1SOL    HW3 9223   2.439   2.933   3.802  0.4527  0.1817 -0.1035
    1SOL    MW4 9224   2.444   3.017   3.825  0.1781  0.2179 -0.1764
    1SOL     OW 9225   2.250   3.203   3.760  0.1478  0.0755 -0.0541
    1SOL    HW2 9226   2.251   3.276   3.821  0.4516 -0.1443  0.2036
    1SOL    HW3 9227   2.318   3.144   3.792  0.1287 -0.1626 -0.4513
    1SOL    MW4 9228   2.259   3.205   3.772  0.1855  0.0153 -0.0725
    1SOL     OW 9229   2.221   3.465   3.888  0.4271 -0.6492 -0.4682
    1SOL    HW2 9230   2.231   3.482   3.982 -1.8416 -0.6005 -0.2161
    1SOL    HW3 9231   2.279   3.529   3.846  1.4035 -0.6179  0.8774
    1SOL    MW4 9232   2.230   3.476   3.895  0.2570 -0.6385 -0.2575
    1SOL     OW 9233   2.427   3.634   3.748 -0.3826 -0.1969  0.1519
    1SOL    HW2 9234   2.484   3.575   3.798 -1.1507 -0.1051  1.1632
    1SOL    HW3 9235   2.448   3.617   3.657  0.6539 -0.7793  0.4933
    1SOL    MW4 9236   2.437   3.624   3.743 -0.3474 -0.2618  0.3302
    1SOL     OW 9237   2.449   3.861   3.891 -0.4558 -0.6018 -0.2036
    1SOL    HW2 9238   2.529   3.893   3.850 -0.7414  0.1968 -0.1532
    1SOL    HW3 9239   2.429   3.779   3.846 -0.3965 -0.0753 -1.1954
    1SOL    MW4 9240   2.457   3.854   3.880 -0.4857 -0.4270 -0.3278
    1SOL     OW 9241   2.218   3.981   3.779 -0.0734  0.4899 -0.0790
    1SOL    HW2 9242   2.298   3.949   3.820 -0.7580 -2.0935 -0.6436
    1SOL    HW3 9243   2.231   3.968   3.686 -1.3058 -0.4146 -0.1462
    1SOL    MW4 9244   2.230   3.975   3.772 -0.3264  0.0296 -0.1626
    1SOL     OW 9245   2.257   4.247   3.876  0.5108 -0.0313 -0.1215
    1SOL    HW2 9246   2.247   4.246   3.971  0.6105 -0.7042 -0.1146
    1SOL    HW3 9247   2.249   4.155   3.850 -2.5915  0.4783 -1.1022
    1SOL    MW4 9248   2.255   4.234   3.885  0.1147 -0.0525 -0.2499
    1SOL     OW 9249   2.474   4.400   3.801 -0.7759  0.1664  0.0531
    1SOL    HW2 9250   2.401   4.345   3.828 -1.4565  0.4576 -1.1605
    1SOL    HW3 9251   2.449   4.488   3.828 -1.6410  0.5229 -1.7970
    1SOL    MW4 9252   2.461   4.404   3.808 -0.9797  0.2518 -0.3512
    1SOL     OW 9253   2.930   4.643   3.897  0.1416  0.2001 -0.0144
    1SOL    HW2 9254   2.916   4.638   3.991  0.5160  0.1743  0.0396
    1SOL    HW3 9255   3.015   4.686   3.887 -0.0716  0.5554 -0.3484
    1SOL    MW4 9256   2.939   4.648   3.908  0.1631  0.2437 -0.0515
    1SOL     OW 9257   2.666   0.046   3.820 -0.0360  0.7130  0.2311
    1SOL    HW2 9258   2.755   0.034   3.851  0.8719  3.6493 -1.0174
    1SOL    HW3 9259   2.675   0.063   3.726 -1.9707  0.3431 -0.0482
    1SOL    MW4 9260   2.679   0.047   3.812 -0.1712  1.0516  0.0293
    1SOL     OW 9261   2.732   0.349   3.900  0.3135  0.3685  0.2664
    1SOL    HW2 9262   2.716   0.257   3.881  1.3154  0.0889  0.7064
    1SOL    HW3 9263   2.654   0.394   3.870 -0.3039 -0.6610  0.3005
    1SOL    MW4 9264   2.720   0.343   3.894  0.3641  0.1958  0.3290
    1SOL     OW 9265   2.929   0.522   3.795  0.0789 -0.3806  0.0028
    1SOL    HW2 9266   3.007   0.477   3.827 -0.1431  0.2844  1.5227
    1SOL    HW3 9267   2.856   0.474   3.835 -0.2436 -0.1339 -0.2890
    1SOL    MW4 9268   2.930   0.510   3.805  0.0069 -0.2604  0.1647
    1SOL     OW 9269   2.943   0.782   3.904 -0.0456 -0.4739  0.3837
    1SOL    HW2 9270   3.016   0.831   3.865 -0.3206  0.0985  0.5737
    1SOL    HW3 9271   2.947   0.695   3.864  0.7920 -0.4689  0.4548
    1SOL    MW4 9272   2.953   0.777   3.894  0.0286 -0.3977  0.4179
    1SOL     OW 9273   2.710   0.860   3.784  0.0493 -0.0679 -0.1539
    1SOL    HW2 9274   2.797   0.824   3.802  0.0280  0.2285  0.5350
    1SOL    HW3 9275   2.650   0.797   3.825 -0.0439  0.0020 -0.1842
    1SOL    MW4 9276   2.714   0.847   3.792  0.0343 -0.0196 -0.0672
    1SOL     OW 9277   2.668   1.123   3.880  0.7196  0.3339  0.4783
    1SOL    HW2 9278   2.677   1.037   3.837 -0.4548 -0.4482  1.7543
    1SOL    HW3 9279   2.593   1.163   3.838  0.0291 -0.1191  1.2660
    1SOL    MW4 9280   2.659   1.117   3.869  0.4735  0.1711  0.7508
    1SOL     OW 9281   2.938   1.235   3.851 -0.1940 -0.0035 -0.2583
    1SOL    HW2 9282   2.930   1.327   3.875 -0.6842 -0.0779 -0.1400
    1SOL    HW3 9283   2.849   1.201   3.856 -0.0184 -0.4755 -0.3370
    1SOL    MW4 9284   2.925   1.242   3.855 -0.2358 -0.0757 -0.2532
    1SOL     OW 9285   2.920   1.502   3.921 -0.7572 -0.0267 -0.4012
    1SOL    HW2 9286   2.927   1.520   4.015  1.5207 -1.7106 -0.1910
    1SOL    HW3 9287   2.969   1.573   3.879  0.6295 -0.7834 -0.1113
    1SOL    MW4 9288   2.928   1.514   3.928 -0.2737 -0.3487 -0.3352
    1SOL     OW 9289   2.693   1.597   3.802 -0.2246 -0.5565 -0.1722
    1SOL    HW2 9290   2.768   1.564   3.850  0.4662  0.8849 -0.2392
    1SOL    HW3 9291   2.720   1.595   3.710  0.2886  1.3421 -0.0745
    1SOL    MW4 9292   2.706   1.592   3.796 -0.0656 -0.1158 -0.1683
    1SOL     OW 9293   2.694   1.882   3.855 -0.3119  0.4962 -0.4174
    1SOL    HW2 9294   2.679   1.788   3.854 -1.5957  0.6916 -1.9590
    1SOL    HW3 9295   2.614   1.919   3.818  0.4846  2.1491 -0.5293
    1SOL    MW4 9296   2.682   1.875   3.850 -0.3762  0.7399 -0.6354
    1SOL     OW 9297   2.944   2.039   3.781 -0.2508 -0.1147  0.0882
    1SOL    HW2 9298   2.929   2.130   3.809 -0.5556 -0.3802  0.8138
    1SOL    HW3 9299   2.864   1.993   3.807  0.4840 -0.8770  1.0048
    1SOL    MW4 9300   2.931   2.045   3.788 -0.1941 -0.2501  0.3047
    1SOL     OW 9301   2.916   2.289   3.860 -0.2174  0.2040  0.1736
    1SOL    HW2 9302   2.879   2.282   3.948 -2.4322  0.5533 -0.7039
    1SOL    HW3 9303   2.999   2.334   3.873 -1.6765  2.5500  1.8150
    1SOL    MW4 9304   2.922   2.294   3.873 -0.7019  0.5596  0.2744
    1SOL     OW 9305   2.735   2.447   3.730 -0.3268  0.3636 -0.1261
    1SOL    HW2 9306   2.700   2.518   3.785 -1.8564 -0.7283  0.3697
    1SOL    HW3 9307   2.809   2.413   3.780 -0.3099  0.8609  0.1937
    1SOL    MW4 9308   2.740   2.452   3.744 -0.5262  0.2849 -0.0186
    1SOL     OW 9309   2.689   2.663   3.885  0.0742  0.2050  0.0097
    1SOL    HW2 9310   2.670   2.649   3.977  0.4736  1.8138  0.3630
    1SOL    HW3 9311   2.622   2.725   3.856 -0.3348 -0.6506 -0.9100
    1SOL    MW4 9312   2.678   2.670   3.893  0.0727  0.3045 -0.0651
    1SOL     OW 9313   2.923   2.766   3.777  0.2989 -0.0847  0.0357
    1SOL    HW2 9314   2.905   2.854   3.810 -0.4365  0.2697 -1.2895
    1SOL    HW3 9315   2.848   2.714   3.805  0.1708 -0.0193 -0.1849
    1SOL    MW4 9316   2.911   2.770   3.785  0.1850 -0.0293 -0.1683
    1SOL     OW 9317   2.902   3.035   3.869  0.1528  0.5231  0.3335
    1SOL    HW2 9318   2.970   3.094   3.837  0.6537  0.7494  1.7886
    1SOL    HW3 9319   2.820   3.077   3.842  0.5352  1.1568  0.1336
    1SOL    MW4 9320   2.900   3.048   3.861  0.2694  0.6366  0.4995
    1SOL     OW 9321   2.673   3.185   3.761 -0.0613  0.1182 -0.3022
    1SOL    HW2 9322   2.665   3.275   3.794 -0.0318 -0.0065  0.0447
    1SOL    HW3 9323   2.586   3.147   3.772  0.4836 -0.5960  1.5971
    1SOL    MW4 9324   2.660   3.192   3.766  0.0143  0.0074 -0.0057
    1SOL     OW 9325   2.635   3.450   3.843  0.4971 -0.2608  0.1162
    1SOL    HW2 9326   2.633   3.447   3.938  0.2874  0.5270  0.1395
    1SOL    HW3 9327   2.711   3.505   3.822 -0.4880  1.0231 -0.1337
    1SOL    MW4 9328   2.645   3.457   3.853  0.3395  0.0126  0.0863
    1SOL     OW 9329   2.863   3.566   3.730 -0.1461 -0.0476  0.3804
    1SOL    HW2 9330   2.948   3.552   3.771 -0.2747  0.9205  0.9951
    1SOL    HW3 9331   2.884   3.578   3.637  0.4123  0.4164  0.5620
    1SOL    MW4 9332   2.877   3.566   3.723 -0.0894  0.1411  0.4857
    1SOL     OW 9333   2.891   3.830   3.791 -0.0526  0.0678 -0.2013
    1SOL    HW2 9334   2.902   3.830   3.886 -0.9463  0.5552 -0.0917
    1SOL    HW3 9335   2.877   3.738   3.769 -1.1595  0.1122  0.3052
    1SOL    MW4 9336   2.891   3.818   3.801 -0.3164  0.1378 -0.1197
    1SOL     OW 9337   2.668   3.990   3.791  0.2961  0.2720  0.4501
    1SOL    HW2 9338   2.685   4.072   3.837  0.8269  1.5909 -2.0119
    1SOL    HW3 9339   2.750   3.941   3.795  0.6326  0.8039  0.1075
    1SOL    MW4 9340   2.681   3.994   3.797  0.4106  0.5162  0.0803
    1SOL     OW 9341   2.695   4.254   3.883  0.2808 -0.1655  0.2348
    1SOL    HW2 9342   2.767   4.293   3.834  0.1301 -0.8489 -0.5563
    1SOL    HW3 9343   2.618   4.306   3.859  0.6335  1.0301  1.6588
    1SOL    MW4 9344   2.694   4.266   3.873  0.3076 -0.0987  0.3185
    1SOL     OW 9345   2.902   4.402   3.767  0.1676 -0.3997  0.2905
    1SOL    HW2 9346   2.966   4.344   3.808 -1.0830 -0.8723  1.6203
    1SOL    HW3 9347   2.914   4.486   3.811 -0.5840 -0.6739  1.0324
    1SOL    MW4 9348   2.912   4.406   3.778 -0.0966 -0.4983  0.5639
    1SOL     OW 9349   3.417   4.623   3.880  0.1955  0.7000 -0.0356
    1SOL    HW2 9350   3.417   4.649   3.973  2.4159 -0.0214  0.2099
    1SOL    HW3 9351   3.481   4.682   3.840 -0.9825  1.2027 -1.1771
    1SOL    MW4 9352   3.426   4.634   3.887  0.3328  0.6714 -0.1540
    1SOL     OW 9353   3.188   0.120   3.828  0.4607 -0.0901  0.2453
    1SOL    HW2 9354   3.261   0.064   3.856  1.1835 -0.1017 -1.6028
    1SOL    HW3 9355   3.174   0.097   3.736 -0.6723  1.2180  0.0795
    1SOL    MW4 9356   3.196   0.110   3.819  0.4065  0.0810 -0.0205
    1SOL     OW 9357   3.158   0.400   3.880 -0.1011  0.1114  0.3049
    1SOL    HW2 9358   3.170   0.404   3.975 -0.7497  0.7892  0.3622
    1SOL    HW3 9359   3.175   0.308   3.858 -0.9894 -0.2864  1.2322
    1SOL    MW4 9360   3.162   0.388   3.890 -0.3035  0.1483  0.4351
    1SOL     OW 9361   3.390   0.534   3.769 -0.0509 -0.4505 -0.2466
    1SOL    HW2 9362   3.466   0.478   3.786  0.7161  0.3964 -0.7948
    1SOL    HW3 9363   3.315   0.483   3.799  0.7465 -1.2520  0.4184
    1SOL    MW4 9364   3.390   0.520   3.775  0.1554 -0.4445 -0.2315
    1SOL     OW 9365   3.347   0.777   3.902 -0.0512 -0.0524 -0.0907
    1SOL    HW2 9366   3.378   0.772   3.992 -0.5524  0.8701  0.1391
    1SOL    HW3 9367   3.380   0.697   3.861  0.5596 -0.2582  0.7857
    1SOL    MW4 9368   3.355   0.766   3.908 -0.0367  0.0422  0.0551
    1SOL     OW 9369   3.142   0.891   3.769  0.0285 -0.3888 -0.2372
    1SOL    HW2 9370   3.217   0.845   3.806  2.1874  1.8640 -1.5494
    1SOL    HW3 9371   3.154   0.882   3.674 -1.2113  0.2115 -0.4550
    1SOL    MW4 9372   3.154   0.884   3.761  0.1497 -0.0125 -0.4392
    1SOL     OW 9373   3.188   1.125   3.922  0.1872 -0.6333  0.2913
    1SOL    HW2 9374   3.168   1.045   3.873  0.8228 -0.0168 -0.9875
    1SOL    HW3 9375   3.108   1.177   3.917  0.0219 -0.8644  0.4983
    1SOL    MW4 9376   3.174   1.121   3.915  0.2491 -0.5823  0.1497
    1SOL     OW 9377   3.312   1.315   3.751  0.3521  0.3880  0.2256
    1SOL    HW2 9378   3.263   1.242   3.789 -1.8388  2.0247  0.6159
    1SOL    HW3 9379   3.328   1.289   3.661 -0.0784 -0.7433  0.4647
    1SOL    MW4 9380   3.308   1.302   3.744  0.0064  0.4547  0.3088
    1SOL     OW 9381   3.337   1.578   3.875 -0.0510  0.1549 -0.2876
    1SOL    HW2 9382   3.260   1.633   3.858  0.2664  0.1406 -1.8315
    1SOL    HW3 9383   3.326   1.504   3.816  1.3152  0.3195 -0.7549
    1SOL    MW4 9384   3.325   1.576   3.865  0.1714  0.1748 -0.5527
    1SOL     OW 9385   3.098   1.694   3.803  0.0269  0.6769 -0.0529
    1SOL    HW2 9386   3.131   1.783   3.814  0.0088  0.6711  0.0560
    1SOL    HW3 9387   3.105   1.677   3.710 -0.7269  1.0922 -0.1958
    1SOL    MW4 9388   3.103   1.704   3.792 -0.0751  0.7309 -0.0572
    1SOL     OW 9389   3.182   1.949   3.900 -0.6662  0.2906 -0.7247
    1SOL    HW2 9390   3.176   1.958   3.995 -0.0214 -0.0458 -0.6485
    1SOL    HW3 9391   3.095   1.971   3.869 -0.4496  1.9533 -0.1848
    1SOL    MW4 9392   3.170   1.953   3.909 -0.5527  0.4655 -0.6433
    1SOL     OW 9393   3.416   2.047   3.793 -0.1609 -0.0051  0.5348
    1SOL    HW2 9394   3.335   2.019   3.835 -0.6375 -0.3250 -0.5756
    1SOL    HW3 9395   3.404   2.024   3.701  0.9681  0.4505  0.2700
    1SOL    MW4 9396   3.404   2.040   3.787 -0.0751  0.0129  0.3533
    1SOL     OW 9397   3.395   2.292   3.912  0.1845  0.2008 -0.1256
    1SOL    HW2 9398   3.324   2.346   3.877 -0.1604 -0.4846 -0.4820
    1SOL    HW3 9399   3.398   2.216   3.854 -0.0269 -0.6807  1.0086
    1SOL    MW4 9400   3.386   2.289   3.900  0.1109 -0.0060 -0.0229
    1SOL     OW 9401   3.177   2.412   3.812  0.2702 -0.0101 -0.3677
    1SOL    HW2 9402   3.161   2.500   3.846 -1.0602 -0.4115  0.0558
    1SOL    HW3 9403   3.178   2.423   3.717 -0.4748  0.3753 -0.3369
    1SOL    MW4 9404   3.175   2.425   3.804 -0.0033 -0.0122 -0.3076
    1SOL     OW 9405   3.141   2.663   3.908  0.1145 -0.5337  0.1253
    1SOL    HW2 9406   3.110   2.666   3.998 -0.4771 -1.4742 -0.0439
    1SOL    HW3 9407   3.069   2.698   3.856  0.0127 -1.0765 -0.0988
    1SOL    MW4 9408   3.128   2.668   3.913  0.0229 -0.7293  0.0732
    1SOL     OW 9409   3.358   2.829   3.801 -0.3164 -0.2767 -0.0791
    1SOL    HW2 9410   3.288   2.773   3.836 -1.5093  0.8822 -0.5535
    1SOL    HW3 9411   3.346   2.824   3.706  0.1808  0.0219 -0.1577
    1SOL    MW4 9412   3.347   2.821   3.793 -0.4084 -0.0844 -0.1519
    1SOL     OW 9413   3.340   3.103   3.859  0.2422 -0.1867 -0.2394
    1SOL    HW2 9414   3.425   3.146   3.857  0.2721 -0.2885 -2.1550
    1SOL    HW3 9415   3.359   3.011   3.836 -0.0478 -0.8319  2.0105
    1SOL    MW4 9416   3.354   3.096   3.856  0.2081 -0.2854 -0.1953
    1SOL     OW 9417   3.100   3.219   3.799  0.3503 -0.1789  0.0493
    1SOL    HW2 9418   3.186   3.184   3.823  0.6422  1.3049  1.2510
    1SOL    HW3 9419   3.104   3.229   3.704  1.4714 -0.2140  0.0823
    1SOL    MW4 9420   3.112   3.215   3.789  0.5367  0.0122  0.2122
    1SOL     OW 9421   3.081   3.475   3.885  0.2464 -0.3592 -0.2027
    1SOL    HW2 9422   3.168   3.509   3.860  0.3122 -1.1789 -1.0999
    1SOL    HW3 9423   3.082   3.384   3.857 -0.3857 -0.7786  1.1032
    1SOL    MW4 9424   3.093   3.468   3.878  0.1719 -0.5226 -0.1488
    1SOL     OW 9425   3.337   3.567   3.792  0.6956  0.2676  0.0128
    1SOL    HW2 9426   3.361   3.654   3.824 -0.6757  0.9243 -0.7404
    1SOL    HW3 9427   3.343   3.574   3.697  0.8422 -0.5370 -0.0389
    1SOL    MW4 9428   3.341   3.579   3.784  0.5341  0.2482 -0.0937
    1SOL     OW 9429   3.390   3.825   3.879  0.0094 -0.3056  0.1161
    1SOL    HW2 9430   3.470   3.867   3.848 -0.0668  0.6015  1.1027
    1SOL    HW3 9431   3.319   3.879   3.843 -0.0813  0.6669  1.6768
    1SOL    MW4 9432   3.391   3.838   3.870 -0.0126 -0.0577  0.4525
    1SOL     OW 9433   3.169   3.965   3.763  0.0940  0.0570  0.3844
    1SOL    HW2 9434   3.138   4.046   3.803  0.1538 -0.5828  1.7733
    1SOL    HW3 9435   3.095   3.905   3.771 -0.0277  0.0413 -0.8423
    1SOL    MW4 9436   3.155   3.968   3.769  0.0861 -0.0293  0.4055
    1SOL     OW 9437   3.087   4.226   3.879  0.2198 -0.2338  0.3776
    1SOL    HW2 9438   3.094   4.242   3.973  0.1270  0.5900  0.2456
    1SOL    HW3 9439   3.166   4.264   3.841  1.9057 -3.5037  0.4727
    1SOL    MW4 9440   3.098   4.233   3.886  0.4301 -0.5569  0.3729
    1SOL     OW 9441   3.346   4.347   3.807 -0.1500  0.0999 -0.1088
    1SOL    HW2 9442   3.430   4.305   3.827 -0.6797 -0.4804  0.9436
    1SOL    HW3 9443   3.360   4.440   3.826  0.6244  0.1986 -1.1408
    1SOL    MW4 9444   3.359   4.354   3.812 -0.1178  0.0367 -0.1061
    1SOL     OW 9445   3.787   0.002   3.878 -0.3937 -0.5264  0.3386
    1SOL    HW2 9446   3.873   0.029   3.845 -0.6616  0.3154  0.3204
    1SOL    HW3 9447   3.771  -0.082   3.835  1.0338 -1.3815  1.4213
    1SOL    MW4 9448   3.797  -0.006   3.868 -0.2408 -0.5279  0.4792
    1SOL     OW 9449   3.582   0.138   3.741 -0.6838  0.1608  0.1272
    1SOL    HW2 9450   3.664   0.099   3.772  0.3085  1.4152 -0.9161
    1SOL    HW3 9451   3.577   0.114   3.649 -1.1320  0.6958  0.0100
    1SOL    MW4 9452   3.592   0.130   3.733 -0.6120  0.3969 -0.0260
    1SOL     OW 9453   3.612   0.389   3.842 -0.0824 -0.1553 -0.4209
    1SOL    HW2 9454   3.690   0.425   3.800  0.9363 -0.3942  1.2073
    1SOL    HW3 9455   3.603   0.302   3.803 -0.4665  0.4820 -1.7670
    1SOL    MW4 9456   3.621   0.382   3.831  0.0012 -0.1027 -0.3839
    1SOL     OW 9457   3.843   0.540   3.781 -0.1609 -0.4028 -0.0486
    1SOL    HW2 9458   3.928   0.505   3.808  0.3736 -0.0246 -1.2282
    1SOL    HW3 9459   3.837   0.625   3.825 -0.8566 -1.3170  1.7036
    1SOL    MW4 9460   3.854   0.546   3.790 -0.1822 -0.4734  0.0269
    1SOL     OW 9461   3.798   0.802   3.905 -0.3708  0.0399  0.1260
    1SOL    HW2 9462   3.869   0.842   3.856  0.4673 -0.6644  0.7488
    1SOL    HW3 9463   3.721   0.857   3.886  0.0766  0.1253 -1.4617
    1SOL    MW4 9464   3.797   0.815   3.896 -0.2015 -0.0418 -0.0010
    1SOL     OW 9465   3.567   0.924   3.837  0.0306 -0.8515 -0.3608
    1SOL    HW2 9466   3.544   1.017   3.846  0.9619 -0.4245 -2.2430
    1SOL    HW3 9467   3.484   0.878   3.852 -0.9204  0.4004 -1.6438
    1SOL    MW4 9468   3.553   0.930   3.840  0.0281 -0.6300 -0.7784
    1SOL     OW 9469   3.548   1.200   3.889 -0.1453  0.1344 -0.6622
    1SOL    HW2 9470   3.621   1.232   3.835 -0.6030  1.3436 -0.5872
    1SOL    HW3 9471   3.474   1.256   3.864 -1.0713 -1.1350 -0.7937
    1SOL    MW4 9472   3.548   1.211   3.879 -0.3276  0.1264 -0.6695
    1SOL     OW 9473   3.801   1.251   3.779 -0.1313  0.5791  0.1994
    1SOL    HW2 9474   3.870   1.220   3.838 -1.3574 -0.0879  1.3064
    1SOL    HW3 9475   3.816   1.346   3.773  0.9255  0.4284  0.3781
    1SOL    MW4 9476   3.812   1.260   3.786 -0.1535  0.4712  0.3693
    1SOL     OW 9477   3.826   1.525   3.846 -0.7200  0.4575 -0.5052
    1SOL    HW2 9478   3.845   1.529   3.940 -1.1531 -2.8985 -0.2080
    1SOL    HW3 9479   3.732   1.542   3.841 -0.9624 -0.6871 -0.1508
    1SOL    MW4 9480   3.816   1.528   3.858 -0.8094 -0.1363 -0.4194
    1SOL     OW 9481   3.574   1.638   3.776  0.3494  0.1289 -0.6234
    1SOL    HW2 9482   3.483   1.636   3.804  0.9833 -2.0862  1.3882
    1SOL    HW3 9483   3.570   1.620   3.682 -1.2685 -0.1892 -0.5047
    1SOL    MW4 9484   3.562   1.636   3.767  0.2193 -0.2054 -0.3421
    1SOL     OW 9485   3.611   1.885   3.915  0.2379 -0.2552 -0.1755
    1SOL    HW2 9486   3.618   1.811   3.854  0.2422 -0.9336  0.6392
    1SOL    HW3 9487   3.544   1.942   3.876  0.0849 -0.7882 -0.7007
    1SOL    MW4 9488   3.603   1.883   3.902  0.2182 -0.4150 -0.1373
    1SOL     OW 9489   3.789   2.020   3.756  0.2291 -0.7808  0.4166
    1SOL    HW2 9490   3.871   1.990   3.797  0.4361 -0.5647  0.1587
    1SOL    HW3 9491   3.720   1.979   3.808  0.4665  0.7066  1.9561
    1SOL    MW4 9492   3.791   2.011   3.769  0.2878 -0.5562  0.5858
    1SOL     OW 9493   3.830   2.285   3.899 -0.1783 -0.6698 -0.1488
    1SOL    HW2 9494   3.760   2.340   3.865 -0.0729 -0.5123 -0.1072
    1SOL    HW3 9495   3.816   2.200   3.856  0.6708 -0.1421 -1.5144
    1SOL    MW4 9496   3.819   2.281   3.889 -0.0525 -0.5794 -0.3235
    1SOL     OW 9497   3.603   2.455   3.812  0.2397 -0.0269  0.5901
    1SOL    HW2 9498   3.538   2.403   3.859  1.5834 -0.8899  1.5444
    1SOL    HW3 9499   3.575   2.452   3.721 -0.5166 -1.2175  0.8448
    1SOL    MW4 9500   3.591   2.447   3.806  0.3171 -0.2978  0.7496
    1SOL     OW 9501   3.586   2.718   3.897  0.0188  0.0144  0.2707
    1SOL    HW2 9502   3.588   2.634   3.852  1.4155  0.7295 -1.0795
    1SOL    HW3 9503   3.514   2.766   3.857  2.1735  1.2055 -2.3441
    1SOL    MW4 9504   3.577   2.713   3.886  0.4876  0.2661 -0.2527
    1SOL     OW 9505   3.821   2.844   3.791 -0.5560 -0.0314 -0.3411
    1SOL    HW2 9506   3.885   2.782   3.825 -1.6349 -1.6446 -1.1413
    1SOL    HW3 9507   3.737   2.811   3.824 -1.1195  1.1817 -0.5452
    1SOL    MW4 9508   3.818   2.831   3.800 -0.7727 -0.0842 -0.4735
    1SOL     OW 9509   3.835   3.116   3.885 -0.4571 -0.0096  0.0677
    1SOL    HW2 9510   3.752   3.149   3.852 -0.1945 -0.0976 -0.6780
    1SOL    HW3 9511   3.846   3.031   3.844  0.4609  0.4145 -0.5792
    1SOL    MW4 9512   3.825   3.110   3.875 -0.3014  0.0348 -0.1161
    1SOL     OW 9513   3.592   3.226   3.814  0.2698  0.5899 -0.1657
    1SOL    HW2 9514   3.592   3.318   3.842  0.9928  0.5686 -0.0881
    1SOL    HW3 9515   3.581   3.229   3.719 -1.2174  0.6982 -0.0031
    1SOL    MW4 9516   3.591   3.238   3.805  0.1690  0.6015 -0.1340
    1SOL     OW 9517   3.594   3.514   3.850 -0.2479  0.1456 -0.1201
    1SOL    HW2 9518   3.598   3.518   3.946 -0.7308  0.3057 -0.1051
    1SOL    HW3 9519   3.502   3.534   3.829  0.0469  0.9386 -0.6632
    1SOL    MW4 9520   3.582   3.517   3.860 -0.2728  0.2716 -0.1898
    1SOL     OW 9521   3.838   3.614   3.758  0.2621  0.2102 -0.1732
    1SOL    HW2 9522   3.835   3.706   3.784  1.5804  0.3836 -0.5715
    1SOL    HW3 9523   3.754   3.578   3.786  0.0597  1.3390  0.7044
    1SOL    MW4 9524   3.827   3.621   3.765  0.4094  0.3817 -0.1099
    1SOL     OW 9525   3.843   3.867   3.871 -0.0907 -0.4938 -0.0074
    1SOL    HW2 9526   3.830   3.876   3.965  0.0699 -2.0296  0.1693
    1SOL    HW3 9527   3.918   3.923   3.851  0.0913 -0.4415  0.8270
    1SOL    MW4 9528   3.851   3.876   3.880 -0.0455 -0.6895  0.1259
    1SOL     OW 9529   3.608   3.976   3.786  0.2125 -0.3814  0.2561
    1SOL    HW2 9530   3.606   4.064   3.824 -0.8825 -0.3389  0.1328
    1SOL    HW3 9531   3.694   3.942   3.808  0.1826  0.2551  1.3909
    1SOL    MW4 9532   3.619   3.983   3.794  0.0641 -0.2918  0.3896
    1SOL     OW 9533   3.574   4.230   3.891 -0.0982 -0.1038 -0.6002
    1SOL    HW2 9534   3.568   4.231   3.987  1.6049 -1.9709 -0.4358
    1SOL    HW3 9535   3.635   4.300   3.870 -1.7384  1.3939 -0.4503
    1SOL    MW4 9536   3.581   4.239   3.901 -0.0899 -0.1516 -0.5584
    1SOL     OW 9537   3.789   4.431   3.769 -0.0017 -0.2819 -0.1338
    1SOL    HW2 9538   3.861   4.384   3.811 -0.2275 -0.1169  0.4444
    1SOL    HW3 9539   3.790   4.400   3.678  0.1905 -1.0014  0.1064
    1SOL    MW4 9540   3.799   4.421   3.762 -0.0060 -0.3552 -0.0260
    1SOL     OW 9541   4.226   4.649   3.886  0.0371  0.0988 -0.2818
    1SOL    HW2 9542   4.245   4.646   3.980 -1.3868  2.0437  0.0875
    1SOL    HW3 9543   4.312   4.660   3.845  0.7355 -1.4307  0.7291
    1SOL    MW4 9544   4.240   4.650   3.893 -0.0587  0.1535 -0.0997
    1SOL     OW 9545   4.017   0.120   3.771  0.0686 -0.3976  0.4958
    1SOL    HW2 9546   4.094   0.075   3.807  0.1664  0.6582  1.6365
    1SOL    HW3 9547   4.036   0.128   3.678  0.3144 -2.1860  0.3735
    1SOL    MW4 9548   4.030   0.115   3.764  0.1135 -0.4942  0.6299
    1SOL     OW 9549   4.057   0.367   3.895  0.1230  0.1626  0.2902
    1SOL    HW2 9550   4.062   0.350   3.989 -0.5963 -1.7058 -0.0033
    1SOL    HW3 9551   4.056   0.280   3.855 -0.4171  0.9388 -1.4052
    1SOL    MW4 9552   4.058   0.353   3.902 -0.0429  0.0185  0.0279
    1SOL     OW 9553   4.276   0.505   3.806 -0.0962 -0.2474  0.0259
    1SOL    HW2 9554   4.207   0.446   3.837  0.4602 -0.4313  0.9299
    1SOL    HW3 9555   4.266   0.505   3.710 -0.3456 -1.4975  0.0401
    1SOL    MW4 9556   4.265   0.497   3.797 -0.0558 -0.4367  0.1471
    1SOL     OW 9557   4.247   0.755   3.915  0.1175 -0.1756 -0.1198
    1SOL    HW2 9558   4.175   0.804   3.877  0.8115 -0.3863 -1.7279
    1SOL    HW3 9559   4.242   0.668   3.875  0.5500 -0.5682  0.6484
    1SOL    MW4 9560   4.237   0.750   3.905  0.2661 -0.2552 -0.2306
    1SOL     OW 9561   4.051   0.907   3.781 -0.0845  0.0537  0.3365
    1SOL    HW2 9562   4.062   1.001   3.792 -0.7123  0.2018 -0.2724
    1SOL    HW3 9563   4.039   0.894   3.687 -0.2145 -0.6075  0.4348
    1SOL    MW4 9564   4.051   0.917   3.770 -0.1845 -0.0141  0.2692
    1SOL     OW 9565   4.051   1.184   3.882 -0.1477  0.3341  0.2641
    1SOL    HW2 9566   4.055   1.190   3.977 -1.8746 -0.2760  0.3904
    1SOL    HW3 9567   4.126   1.235   3.852  1.1196 -0.4527  1.9680
    1SOL    MW4 9568   4.061   1.191   3.891 -0.2079  0.1498  0.5054
    1SOL     OW 9569   4.315   1.294   3.791 -0.2929 -0.5266  0.2267
    1SOL    HW2 9570   4.309   1.389   3.807 -0.7634 -0.6344  0.6724
    1SOL    HW3 9571   4.300   1.285   3.697  1.4028 -0.0041 -0.1204
    1SOL    MW4 9572   4.312   1.306   3.781 -0.1311 -0.4721  0.2398
    1SOL     OW 9573   4.259   1.562   3.854 -0.1164  0.2354  0.1742
    1SOL    HW2 9574   4.198   1.612   3.799  1.1677 -0.3292 -1.8453
    1SOL    HW3 9575   4.344   1.601   3.836  0.5457 -1.0194  0.5278
    1SOL    MW4 9576   4.262   1.574   3.844  0.1402 -0.0045 -0.0455
    1SOL     OW 9577   4.016   1.703   3.768  0.2088  0.2705 -0.1006
    1SOL    HW2 9578   4.002   1.766   3.839 -0.7238  0.8495 -0.7852
    1SOL    HW3 9579   3.957   1.631   3.787 -0.1573  0.4968 -0.3597
    1SOL    MW4 9580   4.006   1.702   3.780  0.0372  0.3767 -0.2253
    1SOL     OW 9581   4.013   1.926   3.916  0.4158 -0.0676  0.0711
    1SOL    HW2 9582   4.037   1.923   4.009  0.0901 -0.5769  0.1374
    1SOL    HW3 9583   4.093   1.954   3.872  0.8297 -0.6981  0.4120
    1SOL    MW4 9584   4.027   1.929   3.923  0.4272 -0.2180  0.1249
    1SOL     OW 9585   4.239   2.012   3.790  0.1712  0.2893  0.0707
    1SOL    HW2 9586   4.249   2.100   3.826 -0.4465  0.4334 -0.1023
    1SOL    HW3 9587   4.238   2.025   3.695  0.5181  0.0458  0.0303
    1SOL    MW4 9588   4.240   2.025   3.782  0.1354  0.2761  0.0427
    1SOL     OW 9589   4.243   2.261   3.893  0.1011 -0.0234 -0.3122
    1SOL    HW2 9590   4.239   2.283   3.987 -0.1826  2.0473 -0.7796
    1SOL    HW3 9591   4.166   2.303   3.856 -0.0614 -1.2813 -1.3989
    1SOL    MW4 9592   4.232   2.270   3.901  0.0424  0.0839 -0.5174
    1SOL     OW 9593   4.050   2.420   3.814  0.2954  0.3119  0.0797
    1SOL    HW2 9594   4.056   2.510   3.846 -1.2162  0.8523 -1.1125
    1SOL    HW3 9595   3.973   2.384   3.858  0.2447 -0.0401 -0.2963
    1SOL    MW4 9596   4.040   2.427   3.824  0.0892  0.3369 -0.1273
    1SOL     OW 9597   4.038   2.676   3.894  0.1104 -0.1711 -0.0850
    1SOL    HW2 9598   4.032   2.707   3.985  0.2599 -1.0415  0.2314
    1SOL    HW3 9599   4.104   2.732   3.853 -0.5073  0.7280  0.1278
    1SOL    MW4 9600   4.046   2.687   3.901  0.0486 -0.1676 -0.0153
    1SOL     OW 9601   4.263   2.834   3.826  0.0999 -0.0847  0.3088
    1SOL    HW2 9602   4.262   2.916   3.877  1.7954  0.5015 -0.5383
    1SOL    HW3 9603   4.333   2.783   3.865 -0.3548 -0.7557  0.2499
    1SOL    MW4 9604   4.272   2.838   3.838  0.2632 -0.0961  0.1891
    1SOL     OW 9605   4.238   3.101   3.925  0.3304 -0.0533 -0.1472
    1SOL    HW2 9606   4.178   3.136   3.859 -2.4143 -0.3600  2.1067
    1SOL    HW3 9607   4.323   3.137   3.901 -1.1717  2.4176 -1.9806
    1SOL    MW4 9608   4.241   3.110   3.913 -0.2303  0.2320 -0.0916
    1SOL     OW 9609   4.053   3.250   3.782 -0.0394  0.9187  0.1755
    1SOL    HW2 9610   3.976   3.201   3.809  0.3841  1.1767  1.8583
    1SOL    HW3 9611   4.043   3.258   3.687 -0.4586 -1.8237 -0.0604
    1SOL    MW4 9612   4.041   3.245   3.773 -0.0391  0.5908  0.3667
    1SOL     OW 9613   4.030   3.504   3.907  0.3825  0.0726 -0.1718
    1SOL    HW2 9614   4.032   3.412   3.882 -0.2541  0.3313 -1.2051
    1SOL    HW3 9615   3.959   3.542   3.855  0.7993  1.1946  0.0614
    1SOL    MW4 9616   4.021   3.497   3.897  0.3533  0.2549 -0.2773
    1SOL     OW 9617   4.251   3.634   3.812  0.0973  0.0683 -0.1178
    1SOL    HW2 9618   4.169   3.597   3.846 -0.0487 -1.3858 -1.9602
    1SOL    HW3 9619   4.317   3.567   3.831  0.4533  0.3115 -0.5009
    1SOL    MW4 9620   4.249   3.620   3.819  0.1249 -0.0913 -0.4117
    1SOL     OW 9621   4.281   3.908   3.908 -0.1105  0.7041 -0.2464
    1SOL    HW2 9622   4.195   3.940   3.881  0.5129  0.6830 -2.3473
    1SOL    HW3 9623   4.278   3.814   3.889 -0.2997  0.3352  1.5351
    1SOL    MW4 9624   4.269   3.899   3.902 -0.0534  0.6526 -0.2882
    1SOL     OW 9625   4.060   4.031   3.841 -0.0820  0.1021  0.1441
    1SOL    HW2 9626   4.050   4.117   3.881 -1.5799  0.3316 -0.6695
    1SOL    HW3 9627   4.049   4.047   3.747 -1.7285 -1.1566  0.1044
    1SOL    MW4 9628   4.057   4.045   3.834 -0.4969 -0.0334  0.0315
    1SOL     OW 9629   4.002   4.301   3.890  0.5295  0.2963 -0.2876
    1SOL    HW2 9630   4.011   4.317   3.984  1.5018 -1.9353  0.0265
    1SOL    HW3 9631   4.084   4.332   3.852  0.4503  0.4722 -0.3197
    1SOL    MW4 9632   4.014   4.307   3.897  0.6471  0.0248 -0.2501
    1SOL     OW 9633   4.257   4.398   3.796  0.1301  0.0789 -0.2839
    1SOL    HW2 9634   4.239   4.487   3.826  0.3044  0.5748 -1.6096
    1SOL    HW3 9635   4.330   4.369   3.850  0.0062  0.7045  0.2255
    1SOL    MW4 9636   4.264   4.406   3.807  0.1364  0.2265 -0.3915
    1SOL     OW 9637   0.247   4.653   4.155  0.4018  0.3114  0.2488
    1SOL    HW2 9638   0.320   4.703   4.192 -0.0887  0.6525  0.7672
    1SOL    HW3 9639   0.259   4.565   4.189  0.9238  0.2199 -0.1703
    1SOL    MW4 9640   0.258   4.648   4.164  0.4059  0.3443  0.2623
    1SOL     OW 9641   0.006   0.088   4.267 -0.0982  0.2079 -0.3156
    1SOL    HW2 9642   0.013   0.079   4.362  1.9468  2.0049 -0.2783
    1SOL    HW3 9643   0.084   0.045   4.232 -0.5721  0.0170 -1.1730
    1SOL    MW4 9644   0.017   0.081   4.275  0.1087  0.4198 -0.4239
    1SOL     OW 9645   4.479   0.345   4.185  0.1181 -0.2064  0.2300
    1SOL    HW2 9646   4.489   0.254   4.212  2.7841  0.4504  1.5709
    1SOL    HW3 9647   4.483   0.342   4.089  1.1790 -1.3932  0.3017
    1SOL    MW4 9648   4.481   0.332   4.176  0.6104 -0.2763  0.4168
    1SOL     OW 9649   0.200   0.499   4.301  0.1088 -0.4415  0.0761
    1SOL    HW2 9650   0.277   0.449   4.272  0.2814 -0.0027 -0.2250
    1SOL    HW3 9651   0.126   0.456   4.259  0.2067 -0.7591  0.2275
    1SOL    MW4 9652   0.201   0.487   4.291  0.1445 -0.4255  0.0567
    1SOL     OW 9653   0.210   0.751   4.202 -0.0537  0.0786 -0.0449
    1SOL    HW2 9654   0.124   0.785   4.227  0.2376 -0.0977  1.1987
    1SOL    HW3 9655   0.213   0.664   4.241  1.5312  0.8917  1.6690
    1SOL    MW4 9656   0.199   0.744   4.210  0.1938  0.1626  0.3452
    1SOL     OW 9657   4.452   0.862   4.292 -0.0110 -0.1034  0.0398
    1SOL    HW2 9658   4.377   0.811   4.262  0.4042 -0.5221 -0.2670
    1SOL    HW3 9659   4.449   0.943   4.240 -0.3807 -0.0218  0.1881
    1SOL    MW4 9660   4.442   0.866   4.282 -0.0048 -0.1479  0.0191
    1SOL     OW 9661   4.480   1.102   4.162 -0.3830  0.1975 -0.2325
    1SOL    HW2 9662   4.549   1.158   4.197 -0.1804  0.3560 -0.8994
    1SOL    HW3 9663   4.471   1.127   4.070 -1.9268  0.7984  0.0539
    1SOL    MW4 9664   4.488   1.113   4.155 -0.5598  0.2977 -0.2828
    1SOL     OW 9665   0.187   1.284   4.263 -0.1977 -0.1030 -0.0398
    1SOL    HW2 9666   0.171   1.246   4.349  1.4458  1.2748  0.9156
    1SOL    HW3 9667   0.263   1.236   4.229  0.6670  0.9713  0.3386
    1SOL    MW4 9668   0.195   1.272   4.270  0.1333  0.2205  0.1369
    1SOL     OW 9669   4.456   1.739   4.538  0.1540  0.0930 -0.0250
    1SOL    HW2 9670   4.479   1.738   4.445 -1.2145 -0.9725 -0.3789
    1SOL    HW3 9671   4.430   1.829   4.555  0.2931  0.2716 -0.7096
    1SOL    MW4 9672   4.455   1.751   4.528 -0.0081 -0.0238 -0.1621
    1SOL     OW 9673   4.472   1.703   4.232  0.1977  0.0902  0.3824
    1SOL    HW2 9674   4.390   1.655   4.219  0.8871 -0.8738 -0.4637
    1SOL    HW3 9675   4.457   1.787   4.188 -0.6817  0.2937  1.0621
    1SOL    MW4 9676   4.459   1.707   4.224  0.1726 -0.0101  0.3605
    1SOL     OW 9677   0.213   2.024   4.237  0.1714  0.0186  0.7018
    1SOL    HW2 9678   0.212   2.053   4.328  1.9485  1.4310  0.3135
    1SOL    HW3 9679   0.304   1.997   4.222  0.0626  0.4472 -0.8409
    1SOL    MW4 9680   0.225   2.024   4.247  0.3915  0.2615  0.4468
    1SOL     OW 9681   0.505   1.713   4.512  0.1740  0.5597 -0.3663
    1SOL    HW2 9682   0.493   1.709   4.417  0.8105  0.7883 -0.4592
    1SOL    HW3 9683   0.420   1.742   4.546 -0.1926  0.0137 -0.8280
    1SOL    MW4 9684   0.492   1.717   4.504  0.2097  0.5178 -0.4396
    1SOL     OW 9685   0.250   2.288   4.125  0.0816 -0.2259 -0.0320
    1SOL    HW2 9686   0.328   2.334   4.155 -0.9595  0.5243  1.5676
    1SOL    HW3 9687   0.263   2.198   4.155  0.4901 -0.1860 -0.0800
    1SOL    MW4 9688   0.262   2.282   4.133 -0.0019 -0.1216  0.1726
    1SOL     OW 9689   0.020   2.400   4.241 -0.5653  0.4393 -0.0919
    1SOL    HW2 9690  -0.058   2.359   4.203 -0.7835  3.1837 -2.7689
    1SOL    HW3 9691   0.093   2.360   4.194 -0.3553 -1.5151  1.8280
    1SOL    MW4 9692   0.019   2.389   4.230 -0.5663  0.5436 -0.1917
    1SOL     OW 9693   0.014   2.673   4.179 -0.1732 -0.0066 -0.1370
    1SOL    HW2 9694   0.089   2.713   4.224  0.3078 -0.4175 -0.5595
    1SOL    HW3 9695   0.018   2.581   4.204 -0.4427 -0.0590 -0.2913
    1SOL    MW4 9696   0.025   2.666   4.188 -0.1453 -0.0675 -0.2131
    1SOL     OW 9697   0.242   2.834   4.269  0.1879  0.5383 -0.4769
    1SOL    HW2 9698   0.318   2.792   4.229 -1.3720 -2.2240 -0.6857
    1SOL    HW3 9699   0.221   2.906   4.210  2.0898  0.8169 -0.8696
    1SOL    MW4 9700   0.249   2.838   4.256  0.2331  0.2108 -0.5560
    1SOL     OW 9701   0.236   3.080   4.120  0.6375  0.0865  0.1153
    1SOL    HW2 9702   0.305   3.126   4.168  0.4717  0.9721 -0.4934
    1SOL    HW3 9703   0.156   3.126   4.144  0.4582  0.0549 -0.4224
    1SOL    MW4 9704   0.235   3.092   4.130  0.5920  0.1993 -0.0358
    1SOL     OW 9705   0.020   3.234   4.209  0.0414 -0.4353 -0.4611
    1SOL    HW2 9706  -0.072   3.210   4.217 -0.1301  0.2404 -0.3995
    1SOL    HW3 9707   0.020   3.329   4.200  0.6933 -0.5010 -1.1876
    1SOL    MW4 9708   0.008   3.243   4.209  0.1044 -0.3548 -0.5493
    1SOL     OW 9709   4.471   3.495   4.191  0.4260  0.1843  0.2764
    1SOL    HW2 9710   4.414   3.565   4.222  0.6682  0.1915  0.7124
    1SOL    HW3 9711   4.462   3.497   4.096 -0.4919  0.0159  0.3613
    1SOL    MW4 9712   4.462   3.505   4.183  0.3366  0.1628  0.3452
    1SOL     OW 9713   0.188   3.651   4.295  0.5092  0.1744 -0.2917
    1SOL    HW2 9714   0.264   3.606   4.258  1.1676  0.5724  0.5560
    1SOL    HW3 9715   0.113   3.611   4.252  1.0583 -2.0330  0.7113
    1SOL    MW4 9716   0.188   3.639   4.285  0.6685 -0.0641 -0.0472
    1SOL     OW 9717   0.249   3.886   4.158 -0.0728  0.2355 -0.0205
    1SOL    HW2 9718   0.175   3.939   4.186 -0.4737  0.4665 -1.4752
    1SOL    HW3 9719   0.234   3.800   4.199 -0.3004  0.7408  0.9620
    1SOL    MW4 9720   0.238   3.881   4.167 -0.1557  0.3328 -0.0830
    1SOL     OW 9721   0.050   4.042   4.265 -0.2881 -0.0999  0.2001
    1SOL    HW2 9722   0.049   4.031   4.360  0.7062 -2.2302 -0.0059
    1SOL    HW3 9723  -0.032   4.002   4.235 -0.6145  0.5960  0.1462
    1SOL    MW4 9724   0.039   4.035   4.273 -0.2000 -0.2890  0.1659
    1SOL     OW 9725   0.025   4.306   4.186  0.1369 -0.1362 -0.4414
    1SOL    HW2 9726   0.054   4.217   4.206 -1.8200 -0.9800 -1.2922
    1SOL    HW3 9727   0.002   4.304   4.093  0.1200  1.2790 -0.4866
    1SOL    MW4 9728   0.026   4.294   4.176 -0.1235 -0.0610 -0.5598
    1SOL     OW 9729   0.269   4.414   4.285 -0.2430  0.1365  0.4917
    1SOL    HW2 9730   0.272   4.419   4.381 -0.2037 -1.8735  0.6125
    1SOL    HW3 9731   0.180   4.382   4.266  0.0426 -0.3133 -0.0967
    1SOL    MW4 9732   0.257   4.410   4.295 -0.2001 -0.1879  0.4301
    1SOL     OW 9733   0.644   0.025   4.188  0.2185  0.1266  0.3987
    1SOL    HW2 9734   0.565   0.075   4.206 -1.1741 -1.8827  0.0150
    1SOL    HW3 9735   0.648   0.020   4.092  0.6015 -0.0734  0.4238
    1SOL    MW4 9736   0.634   0.031   4.178  0.0853 -0.1655  0.3514
    1SOL     OW 9737   0.426   0.168   4.289 -0.4761  0.0025 -0.4237
    1SOL    HW2 9738   0.410   0.148   4.382  0.4091  2.3084  0.2369
    1SOL    HW3 9739   0.416   0.263   4.282  0.0102 -0.0749 -2.6001
    1SOL    MW4 9740   0.422   0.178   4.300 -0.2952  0.2965 -0.6242
    1SOL     OW 9741   0.451   0.427   4.212  0.3267  0.2855 -0.1902
    1SOL    HW2 9742   0.527   0.484   4.223 -0.7155  2.0641 -1.8368
    1SOL    HW3 9743   0.459   0.394   4.122 -0.7060  0.3017 -0.2893
    1SOL    MW4 9744   0.462   0.431   4.201  0.0530  0.5223 -0.4206
    1SOL     OW 9745   0.701   0.565   4.294 -0.3726  0.2964 -0.0039
    1SOL    HW2 9746   0.759   0.507   4.246  0.3090  0.2612  0.8568
    1SOL    HW3 9747   0.706   0.649   4.247 -1.5768 -0.3955 -1.4076
    1SOL    MW4 9748   0.709   0.569   4.281 -0.4415  0.2005 -0.0758
    1SOL     OW 9749   0.701   0.817   4.190 -0.0773  0.6071  0.1157
    1SOL    HW2 9750   0.616   0.848   4.221 -1.6441 -2.3393 -1.0527
    1SOL    HW3 9751   0.690   0.808   4.095  1.9416  1.3196 -0.2217
    1SOL    MW4 9752   0.689   0.820   4.182 -0.0176  0.3123 -0.0830
    1SOL     OW 9753   0.448   0.875   4.269  0.6819 -0.1510 -0.1703
    1SOL    HW2 9754   0.441   0.970   4.257  1.7536 -0.2620 -1.8844
    1SOL    HW3 9755   0.363   0.841   4.243 -0.2059  0.4378  1.8476
    1SOL    MW4 9756   0.436   0.883   4.264  0.7062 -0.0880 -0.1297
    1SOL     OW 9757   0.429   1.158   4.187  0.3224  0.5851  0.2182
    1SOL    HW2 9758   0.507   1.207   4.216  1.0060 -0.3605  0.0192
    1SOL    HW3 9759   0.443   1.145   4.093  1.0306 -1.5391  0.5979
    1SOL    MW4 9760   0.441   1.163   4.178  0.5060  0.1801  0.2422
    1SOL     OW 9761   0.668   1.253   4.269 -0.0854  0.5687 -0.3060
    1SOL    HW2 9762   0.670   1.235   4.363  0.7099  0.4161 -0.3507
    1SOL    HW3 9763   0.660   1.348   4.262  0.6075  0.6466 -0.0826
    1SOL    MW4 9764   0.667   1.263   4.280  0.1110  0.5589 -0.2823
    1SOL     OW 9765   0.676   1.520   4.196 -0.6218  0.2370 -0.2578
    1SOL    HW2 9766   0.756   1.554   4.236 -0.5845 -0.9156  0.6583
    1SOL    HW3 9767   0.698   1.509   4.103  0.3233 -0.1906  0.0075
    1SOL    MW4 9768   0.689   1.523   4.189 -0.4923  0.0284 -0.1016
    1SOL     OW 9769   0.211   1.553   4.189  0.2946  0.0800 -0.0179
    1SOL    HW2 9770   0.204   1.463   4.220  0.7209 -0.5699 -1.7679
    1SOL    HW3 9771   0.125   1.591   4.206  0.3392 -0.4121  1.4087
    1SOL    MW4 9772   0.199   1.546   4.195  0.3568 -0.0706 -0.0601
    1SOL     OW 9773   0.463   1.953   4.156 -0.2243  0.0537  0.1977
    1SOL    HW2 9774   0.461   1.863   4.190 -0.8518  0.0500  0.1430
    1SOL    HW3 9775   0.473   1.943   4.062  0.4650  0.0517  0.2691
    1SOL    MW4 9776   0.464   1.940   4.148 -0.2161  0.0528  0.1998
    1SOL     OW 9777   0.714   2.093   4.243  0.0391 -0.4148 -0.4978
    1SOL    HW2 9778   0.715   2.129   4.332  0.2457  0.8251 -1.0004
    1SOL    HW3 9779   0.623   2.065   4.230 -0.1234 -0.0607 -0.1237
    1SOL    MW4 9780   0.702   2.094   4.253  0.0449 -0.2046 -0.5150
    1SOL     OW 9781   0.722   2.356   4.143 -0.0067 -0.3750  0.1553
    1SOL    HW2 9782   0.717   2.263   4.165 -0.9437 -0.3264  0.1419
    1SOL    HW3 9783   0.714   2.359   4.048 -2.7080 -0.0927  0.3613
    1SOL    MW4 9784   0.720   2.344   4.133 -0.4867 -0.3314  0.1807
    1SOL     OW 9785   0.474   2.421   4.218 -0.3402  0.0596  0.0928
    1SOL    HW2 9786   0.470   2.513   4.192  0.1596  0.3051  0.8884
    1SOL    HW3 9787   0.566   2.398   4.210 -0.4006 -0.2579  0.3049
    1SOL    MW4 9788   0.485   2.430   4.213 -0.2822  0.0501  0.2260
    1SOL     OW 9789   0.476   2.717   4.147  0.1207 -0.0846 -0.1888
    1SOL    HW2 9790   0.542   2.777   4.180 -1.5540  1.8938 -0.3618
    1SOL    HW3 9791   0.487   2.719   4.052 -0.7218  0.8869 -0.2697
    1SOL    MW4 9792   0.486   2.725   4.139 -0.2114  0.3047 -0.2222
    1SOL     OW 9793   0.691   2.882   4.268  0.0413  0.3620  0.2655
    1SOL    HW2 9794   0.736   2.876   4.352  0.5402  2.2981  0.1657
    1SOL    HW3 9795   0.701   2.974   4.242 -0.1758 -0.1768 -1.8616
    1SOL    MW4 9796   0.699   2.894   4.275  0.0784  0.5462 -0.0281
    1SOL     OW 9797   0.654   3.117   4.119  0.0740 -0.0946  0.0088
    1SOL    HW2 9798   0.726   3.161   4.165  0.5142 -2.3714  1.5737
    1SOL    HW3 9799   0.575   3.157   4.154  0.5238  2.1586 -1.4405
    1SOL    MW4 9800   0.653   3.128   4.129  0.1914 -0.0975  0.0238
    1SOL     OW 9801   0.423   3.227   4.236  0.7938 -0.1411  0.3733
    1SOL    HW2 9802   0.466   3.214   4.321  0.6065 -0.2735  0.4485
    1SOL    HW3 9803   0.414   3.322   4.228  0.3937 -0.1495  0.7130
    1SOL    MW4 9804   0.427   3.238   4.246  0.7163 -0.1597  0.4282
    1SOL     OW 9805   0.382   3.519   4.157 -0.2623  0.6835 -0.0647
    1SOL    HW2 9806   0.468   3.551   4.184  0.4038 -1.4129  0.3517
    1SOL    HW3 9807   0.394   3.491   4.066 -0.1166 -0.9560  0.4450
    1SOL    MW4 9808   0.395   3.520   4.148 -0.1552  0.1905  0.0572
    1SOL     OW 9809   0.623   3.615   4.273  0.0524 -0.3703 -0.1270
    1SOL    HW2 9810   0.636   3.638   4.365  0.2985  0.2345 -0.3119
    1SOL    HW3 9811   0.707   3.578   4.245  0.6845  1.4553 -0.7000
    1SOL    MW4 9812   0.636   3.613   4.281  0.1683 -0.0494 -0.2279
    1SOL     OW 9813   0.698   3.870   4.164  0.1667 -0.1245 -0.1257
    1SOL    HW2 9814   0.623   3.923   4.191  1.0844  0.0524  2.2293
    1SOL    HW3 9815   0.677   3.782   4.195  0.9319 -0.0687  0.5670
    1SOL    MW4 9816   0.685   3.865   4.172  0.3888 -0.0937  0.2766
    1SOL     OW 9817   0.470   4.004   4.249  0.5562  0.4425 -0.0201
    1SOL    HW2 9818   0.478   4.095   4.219  0.9446  0.2814 -0.4124
    1SOL    HW3 9819   0.386   3.975   4.214  1.2719  0.0662 -1.4953
    1SOL    MW4 9820   0.460   4.012   4.240  0.7018  0.3715 -0.2670
    1SOL     OW 9821   0.464   4.269   4.172 -0.0568 -0.2548 -0.3533
    1SOL    HW2 9822   0.393   4.304   4.227  0.1717 -0.0934 -0.1638
    1SOL    HW3 9823   0.440   4.295   4.083 -0.0037  0.1924 -0.2389
    1SOL    MW4 9824   0.451   4.277   4.167 -0.0197 -0.1740 -0.3133
    1SOL     OW 9825   0.685   4.423   4.258  0.0086  0.2127 -0.0202
    1SOL    HW2 9826   0.607   4.377   4.227 -1.2552  2.6157 -0.4471
    1SOL    HW3 9827   0.667   4.515   4.242  1.0035  1.2348  4.1399
    1SOL    MW4 9828   0.672   4.429   4.252 -0.0268  0.6642  0.4725
    1SOL     OW 9829   1.127   0.016   4.172  0.6468  0.4124  1.0860
    1SOL    HW2 9830   1.118  -0.076   4.197 -1.9231  1.0766  2.7596
    1SOL    HW3 9831   1.138   0.014   4.077  0.3914 -1.6082  1.0721
    1SOL    MW4 9832   1.128   0.003   4.163  0.2739  0.2332  1.3051
    1SOL     OW 9833   0.894   0.134   4.264 -0.0075 -0.0276 -0.3529
    1SOL    HW2 9834   0.970   0.088   4.229  0.9957  0.7444  0.7906
    1SOL    HW3 9835   0.819   0.088   4.225  1.0068 -1.4078 -0.7307
    1SOL    MW4 9836   0.894   0.122   4.254  0.2586 -0.1078 -0.2518
    1SOL     OW 9837   0.851   0.379   4.165  0.4751  0.2043 -0.3838
    1SOL    HW2 9838   0.926   0.431   4.196 -0.1021 -0.5470  2.4616
    1SOL    HW3 9839   0.852   0.301   4.220 -1.4511 -0.5632 -1.4052
    1SOL    MW4 9840   0.861   0.376   4.176  0.1448  0.0039 -0.1421
    1SOL     OW 9841   1.095   0.497   4.263 -0.1308 -0.1830  0.0616
    1SOL    HW2 9842   1.122   0.490   4.354  1.4752 -0.1426 -0.4060
    1SOL    HW3 9843   1.154   0.438   4.216 -0.4513  0.3695 -1.0536
    1SOL    MW4 9844   1.106   0.488   4.269  0.0387 -0.1048 -0.1473
    1SOL     OW 9845   1.157   0.744   4.130  0.7520 -0.5328  0.0066
    1SOL    HW2 9846   1.229   0.789   4.174 -0.5915  0.4557  1.2428
    1SOL    HW3 9847   1.150   0.660   4.176  0.7545 -0.3924  0.2679
    1SOL    MW4 9848   1.166   0.739   4.142  0.5752 -0.3839  0.2041
    1SOL     OW 9849   0.967   0.898   4.280  0.0963 -0.1540  0.0595
    1SOL    HW2 9850   1.030   0.849   4.227  1.9527  0.7592  1.3566
    1SOL    HW3 9851   0.882   0.864   4.253  1.2222 -2.7129 -0.4670
    1SOL    MW4 9852   0.964   0.887   4.269  0.4897 -0.3712  0.1612
    1SOL     OW 9853   0.929   1.151   4.150 -0.0308 -0.1040  0.1988
    1SOL    HW2 9854   0.949   1.065   4.187 -0.7231  0.8887  2.9721
    1SOL    HW3 9855   0.841   1.170   4.181  0.3875  1.9072  0.1902
    1SOL    MW4 9856   0.920   1.142   4.159 -0.0670  0.2923  0.5636
    1SOL     OW 9857   1.140   1.315   4.243 -0.0944  0.0103 -0.4349
    1SOL    HW2 9858   1.138   1.324   4.339 -2.2436  2.4193 -0.6606
    1SOL    HW3 9859   1.059   1.267   4.222 -0.1362  0.3701 -1.1104
    1SOL    MW4 9860   1.129   1.310   4.253 -0.3834  0.3756 -0.5541
    1SOL     OW 9861   1.097   1.560   4.146  0.0188  0.0261 -0.3991
    1SOL    HW2 9862   1.008   1.581   4.175  0.1360  0.8875 -0.6716
    1SOL    HW3 9863   1.109   1.468   4.172 -1.5636 -0.6390 -1.8295
    1SOL    MW4 9864   1.087   1.550   4.153 -0.1745  0.0520 -0.6237
    1SOL     OW 9865   0.894   1.684   4.293 -0.5855  0.2637  0.3463
    1SOL    HW2 9866   0.876   1.706   4.385  1.0932 -0.6239  0.8954
    1SOL    HW3 9867   0.891   1.768   4.248 -0.4724  0.8286  1.3735
    1SOL    MW4 9868   0.891   1.698   4.299 -0.3491  0.2211  0.5541
    1SOL     OW 9869   0.916   1.922   4.170  0.1116  0.1979  0.6719
    1SOL    HW2 9870   0.853   1.992   4.183 -1.0646 -0.9509  1.2505
    1SOL    HW3 9871   0.912   1.903   4.077 -0.2509  0.2544  0.6772
    1SOL    MW4 9872   0.907   1.929   4.160 -0.0914  0.0538  0.7491
    1SOL     OW 9873   1.139   2.084   4.198  0.3814 -0.3098 -0.0234
    1SOL    HW2 9874   1.167   2.083   4.290  0.7279  1.0799 -0.1007
    1SOL    HW3 9875   1.063   2.026   4.196  0.0745  0.0182  1.2541
    1SOL    MW4 9876   1.132   2.076   4.210  0.3867 -0.0830  0.1354
    1SOL     OW 9877   1.113   2.368   4.145  0.2252 -0.0987  0.0240
    1SOL    HW2 9878   1.194   2.388   4.192  0.3063 -0.8398  0.2055
    1SOL    HW3 9879   1.103   2.273   4.155  0.4104 -0.3128 -1.7244
    1SOL    MW4 9880   1.123   2.358   4.153  0.2604 -0.2246 -0.1831
    1SOL     OW 9881   0.917   2.505   4.286 -0.3267  0.3976  0.1705
    1SOL    HW2 9882   1.001   2.474   4.253 -0.3288 -0.0034  0.5449
    1SOL    HW3 9883   0.852   2.459   4.233 -0.3020  1.5011 -0.8381
    1SOL    MW4 9884   0.920   2.495   4.275 -0.3237  0.4904  0.0863
    1SOL     OW 9885   0.876   2.733   4.130  0.0481  0.0648 -0.3398
    1SOL    HW2 9886   0.882   2.661   4.193 -0.7650 -0.8801 -1.3245
    1SOL    HW3 9887   0.807   2.789   4.166 -0.2058 -0.3123 -0.2298
    1SOL    MW4 9888   0.867   2.731   4.143 -0.0926 -0.1097 -0.4549
    1SOL     OW 9889   1.119   2.822   4.234  0.0166  0.0747 -0.1736
    1SOL    HW2 9890   1.108   2.915   4.219 -0.3440 -0.0704 -0.8258
    1SOL    HW3 9891   1.048   2.781   4.184 -0.3971 -0.4894  0.8661
    1SOL    MW4 9892   1.108   2.829   4.225 -0.0857 -0.0188 -0.1221
    1SOL     OW 9893   1.089   3.090   4.136  0.1214 -0.1560 -0.0857
    1SOL    HW2 9894   1.173   3.132   4.155  0.2053 -0.1473 -0.4833
    1SOL    HW3 9895   1.087   3.081   4.041 -0.9787  1.2059 -0.2143
    1SOL    MW4 9896   1.100   3.094   4.126 -0.0129  0.0246 -0.1550
    1SOL     OW 9897   0.877   3.237   4.251 -0.1842  0.1838  0.0961
    1SOL    HW2 9898   0.861   3.220   4.344  0.4536 -1.0852 -0.0164
    1SOL    HW3 9899   0.944   3.174   4.227  0.0852  0.9177 -1.0853
    1SOL    MW4 9900   0.884   3.226   4.260 -0.0644  0.1135 -0.0749
    1SOL     OW 9901   0.896   3.508   4.183  0.4077  0.5178 -0.0254
    1SOL    HW2 9902   0.885   3.418   4.213 -1.1885  0.5591 -0.4575
    1SOL    HW3 9903   0.890   3.504   4.088 -2.6086  1.4418  0.0897
    1SOL    MW4 9904   0.894   3.496   4.175 -0.2009  0.6452 -0.0672
    1SOL     OW 9905   1.142   3.585   4.268 -0.4075  0.4304 -0.0145
    1SOL    HW2 9906   1.151   3.666   4.217 -0.7117  0.5491  0.1226
    1SOL    HW3 9907   1.058   3.549   4.241 -0.3395  0.2333  0.0354
    1SOL    MW4 9908   1.132   3.591   4.257 -0.4387  0.4199  0.0100
    1SOL     OW 9909   1.164   3.862   4.201 -0.2834 -0.1842 -0.0132
    1SOL    HW2 9910   1.237   3.920   4.221 -0.1711 -0.9845  2.0183
    1SOL    HW3 9911   1.089   3.904   4.243 -0.8729  0.2744 -1.5008
    1SOL    MW4 9912   1.164   3.875   4.209 -0.3464 -0.2291  0.0587
    1SOL     OW 9913   0.914   3.988   4.283  0.3323  0.3540  0.0926
    1SOL    HW2 9914   0.896   4.078   4.256 -1.3971  0.3910  1.3002
    1SOL    HW3 9915   0.843   3.937   4.244  0.6204 -0.3070  0.4358
    1SOL    MW4 9916   0.902   3.994   4.274  0.1420  0.2718  0.2971
    1SOL     OW 9917   0.905   4.259   4.217 -0.2159 -0.0376 -0.7192
    1SOL    HW2 9918   0.982   4.302   4.256 -0.4745 -0.7265  0.5631
    1SOL    HW3 9919   0.831   4.314   4.244 -0.3747 -0.3898 -0.4513
    1SOL    MW4 9920   0.905   4.272   4.225 -0.2710 -0.1750 -0.5145
    1SOL     OW 9921   1.152   4.427   4.275  0.2700 -0.1432 -0.3172
    1SOL    HW2 9922   1.181   4.468   4.357 -0.5451  0.0621 -0.1275
    1SOL    HW3 9923   1.221   4.363   4.255  0.5121 -0.1511  0.4954
    1SOL    MW4 9924   1.165   4.424   4.283  0.1945 -0.1168 -0.1850
    1SOL     OW 9925   1.587   4.653   4.149  0.1588 -0.4652 -0.1610
    1SOL    HW2 9926   1.661   4.700   4.188  0.6729 -0.5457 -1.0105
    1SOL    HW3 9927   1.510   4.701   4.179  0.6092  0.2028 -0.0379
    1SOL    MW4 9928   1.587   4.666   4.158  0.2861 -0.3877 -0.2565
    1SOL     OW 9929   1.376   0.133   4.238 -0.0268 -0.4397 -0.0859
    1SOL    HW2 9930   1.371   0.149   4.333 -0.1876 -1.8795  0.1590
    1SOL    HW3 9931   1.296   0.083   4.219 -0.2130  0.2309 -1.0629
    1SOL    MW4 9932   1.365   0.128   4.248 -0.0726 -0.5412 -0.1826
    1SOL     OW 9933   1.312   0.390   4.138 -0.4527  0.2923 -0.3332
    1SOL    HW2 9934   1.383   0.450   4.161 -1.1958  1.0499  0.0067
    1SOL    HW3 9935   1.340   0.305   4.172  0.0968  0.6675  0.1584
    1SOL    MW4 9936   1.325   0.387   4.146 -0.4783  0.4417 -0.2236
    1SOL     OW 9937   1.524   0.552   4.199  0.2081 -0.1459 -0.3255
    1SOL    HW2 9938   1.518   0.551   4.295 -0.3833 -0.3705 -0.3596
    1SOL    HW3 9939   1.533   0.644   4.176 -1.8426  0.1220 -0.1694
    1SOL    MW4 9940   1.524   0.564   4.209 -0.1404 -0.1402 -0.3090
    1SOL     OW 9941   1.522   0.820   4.139  0.0379  0.0404  0.2310
    1SOL    HW2 9942   1.607   0.847   4.173 -0.0680 -0.2380  0.7344
    1SOL    HW3 9943   1.536   0.805   4.046 -0.0852  2.6366 -0.2432
    1SOL    MW4 9944   1.535   0.821   4.131  0.0079  0.3462  0.2351
    1SOL     OW 9945   1.345   0.957   4.284 -0.0870 -0.5004 -0.1298
    1SOL    HW2 9946   1.334   1.040   4.238 -0.1702  0.1767  1.0809
    1SOL    HW3 9947   1.414   0.912   4.236  1.0874  0.9576  0.1192
    1SOL    MW4 9948   1.353   0.962   4.272  0.0570 -0.2187  0.0625
    1SOL     OW 9949   1.356   1.187   4.128 -0.0171  0.1779 -0.4700
    1SOL    HW2 9950   1.275   1.230   4.157 -0.9875 -1.6879 -0.3149
    1SOL    HW3 9951   1.344   1.173   4.034 -0.1250 -0.6100 -0.3429
    1SOL    MW4 9952   1.344   1.191   4.119 -0.1593 -0.1721 -0.4325
    1SOL     OW 9953   1.575   1.350   4.208 -0.0483  0.1547  0.1597
    1SOL    HW2 9954   1.553   1.379   4.297 -0.1353 -0.0468  0.2046
    1SOL    HW3 9955   1.509   1.284   4.187  0.0398  0.1196 -0.0105
    1SOL    MW4 9956   1.564   1.345   4.217 -0.0482  0.1234  0.1431
    1SOL     OW 9957   1.597   1.596   4.094  0.1557 -0.1025  0.0874
    1SOL    HW2 9958   1.509   1.619   4.125  0.0017 -0.8542  0.2152
    1SOL    HW3 9959   1.611   1.507   4.125  0.3998 -0.5064 -1.1624
    1SOL    MW4 9960   1.587   1.588   4.102  0.1676 -0.2549 -0.0610
    1SOL     OW 9961   1.347   1.652   4.243 -0.0018 -0.0863 -0.4339
    1SOL    HW2 9962   1.353   1.747   4.229 -1.0658 -0.0553 -0.7254
    1SOL    HW3 9963   1.256   1.631   4.224  0.2290 -1.1736 -0.3611
    1SOL    MW4 9964   1.336   1.662   4.238 -0.1117 -0.2255 -0.4630
    1SOL     OW 9965   1.346   1.913   4.162 -0.3572 -0.1129 -0.0773
    1SOL    HW2 9966   1.414   1.967   4.202  0.0979  0.0759 -1.0879
    1SOL    HW3 9967   1.266   1.964   4.174 -0.4278 -0.6001  1.6283
    1SOL    MW4 9968   1.345   1.927   4.169 -0.3065 -0.1523  0.0148
    1SOL     OW 9969   1.566   2.043   4.285 -0.0045  0.5367  0.4217
    1SOL    HW2 9970   1.647   2.021   4.241 -0.1600  0.3695  0.2190
    1SOL    HW3 9971   1.550   2.135   4.262  1.2836  1.2459  2.2602
    1SOL    MW4 9972   1.574   2.052   4.276  0.1448  0.6084  0.6375
    1SOL     OW 9973   1.578   2.309   4.180 -0.1795  0.4365  0.0096
    1SOL    HW2 9974   1.648   2.371   4.200 -0.6070  1.0163 -0.2933
    1SOL    HW3 9975   1.579   2.302   4.085  0.0080 -0.1856  0.0573
    1SOL    MW4 9976   1.588   2.316   4.170 -0.2111  0.4311 -0.0238
    1SOL     OW 9977   1.340   2.442   4.275 -0.5963  0.1984  0.2252
    1SOL    HW2 9978   1.364   2.530   4.246 -0.3938 -0.3790 -1.4181
    1SOL    HW3 9979   1.419   2.389   4.260 -0.8602 -0.3585  0.7801
    1SOL    MW4 9980   1.354   2.447   4.269 -0.6045  0.0489  0.0820
    1SOL     OW 9981   1.356   2.704   4.157 -0.2577 -0.1465  0.1789
    1SOL    HW2 9982   1.425   2.764   4.184  0.2685  0.2608 -1.9494
    1SOL    HW3 9983   1.274   2.749   4.181  0.1721 -0.0967  1.6058
    1SOL    MW4 9984   1.354   2.718   4.164 -0.1316 -0.0863  0.0858
    1SOL     OW 9985   1.540   2.242   4.587 -0.4429  0.1555 -0.0807
    1SOL    HW2 9986   1.616   2.288   4.552  0.2109  0.1900  1.3539
    1SOL    HW3 9987   1.576   2.162   4.626 -0.9074  0.9619  2.0628
    1SOL    MW4 9988   1.555   2.238   4.587 -0.4178  0.2666  0.3915
    1SOL     OW 9989   1.584   3.089   4.150  0.1028 -0.4523  0.1681
    1SOL    HW2 9990   1.642   3.140   4.207  0.4501 -0.3137 -0.3023
    1SOL    HW3 9991   1.496   3.112   4.179  0.2866 -0.9628  1.1421
    1SOL    MW4 9992   1.580   3.099   4.161  0.1730 -0.5012  0.2341
    1SOL     OW 9993   1.340   3.207   4.231  0.3845 -0.0922 -0.4113
    1SOL    HW2 9994   1.330   3.224   4.324  1.3240  0.0264 -0.3220
    1SOL    HW3 9995   1.351   3.294   4.192 -0.3520 -0.1161 -0.6794
    1SOL    MW4 9996   1.340   3.221   4.238  0.4114 -0.0796 -0.4349
    1SOL     OW 9997   1.360   3.473   4.156  0.2210 -0.1211  0.3212
    1SOL    HW2 9998   1.279   3.514   4.187  0.1321 -0.7437  0.9061
    1SOL    HW3 9999   1.360   3.489   4.062  0.7540  2.2415  0.6913
    1SOL    MW410000   1.349   3.481   4.148  0.2795  0.1085  0.4468
    1SOL     OW10001   1.578   3.610   4.247  0.6034  0.6611 -0.5358
    1SOL    HW210002   1.575   3.605   4.343  0.9030  0.0840 -0.5537
    1SOL    HW310003   1.502   3.560   4.218  0.4262  0.9643 -0.6000
    1SOL    MW410004   1.568   3.603   4.256  0.6195  0.6251 -0.5465
    1SOL     OW10005   1.569   3.879   4.151  0.1667  0.0430 -0.1212
    1SOL    HW210006   1.497   3.930   4.188  1.1780  1.9116 -0.6434
    1SOL    HW310007   1.553   3.789   4.180 -1.7203  0.6370  0.7333
    1SOL    MW410008   1.557   3.874   4.160  0.0511  0.3681 -0.0777
    1SOL     OW10009   1.387   4.032   4.284 -0.0640 -0.2185  0.4232
    1SOL    HW210010   1.341   4.043   4.368 -0.3672  1.5600  0.0515
    1SOL    HW310011   1.388   4.120   4.246  0.1303 -1.0039 -1.4225
    1SOL    MW410012   1.381   4.045   4.290 -0.0782 -0.0873  0.1307
    1SOL     OW10013   1.387   4.289   4.183  0.3077  0.3031  0.0138
    1SOL    HW210014   1.460   4.334   4.226 -0.9215  1.3045  1.1055
    1SOL    HW310015   1.406   4.298   4.090  1.4489  0.7854  0.2800
    1SOL    MW410016   1.399   4.296   4.176  0.2961  0.4992  0.1936
    1SOL     OW10017   1.626   4.417   4.293 -0.0174  0.3809 -0.6668
    1SOL    HW210018   1.637   4.487   4.228  1.1674 -0.2568 -1.1832
    1SOL    HW310019   1.695   4.354   4.271  1.1414  0.6729  1.9214
    1SOL    MW410020   1.637   4.418   4.281  0.2918  0.3352 -0.3934
    1SOL     OW10021   1.983   4.652   4.223 -0.2704 -0.0193 -0.3319
    1SOL    HW210022   1.918   4.704   4.270 -0.0631  0.3847 -0.4901
    1SOL    HW310023   1.952   4.654   4.132 -1.3284 -1.7956 -0.0267
    1SOL    MW410024   1.970   4.659   4.217 -0.3825 -0.2003 -0.3123
    1SOL     OW10025   1.765   0.127   4.322  0.6316  0.1723  0.1210
    1SOL    HW210026   1.711   0.132   4.400  0.3971 -0.5556  0.0072
    1SOL    HW310027   1.762   0.216   4.285  0.0761  0.3060  0.4865
    1SOL    MW410028   1.757   0.140   4.327  0.5273  0.0939  0.1540
    1SOL     OW10029   1.774   0.378   4.168 -0.6825  0.6764 -1.0474
    1SOL    HW210030   1.855   0.420   4.198 -0.2389 -0.4737 -0.6249
    1SOL    HW310031   1.708   0.446   4.177 -0.2323  0.8655  0.9733
    1SOL    MW410032   1.776   0.393   4.173 -0.5646  0.5496 -0.7248
    1SOL     OW10033   2.027   0.491   4.277 -0.1891  0.1505 -0.3011
    1SOL    HW210034   2.025   0.479   4.372  0.0211 -2.2035 -0.5419
    1SOL    HW310035   2.109   0.449   4.249  0.8192  2.7236 -1.3069
    1SOL    MW410036   2.038   0.484   4.286 -0.0286  0.1794 -0.4649
    1SOL     OW10037   2.039   0.757   4.175  0.3782  0.1008 -0.2388
    1SOL    HW210038   2.115   0.800   4.215  1.7082 -1.7649 -0.7001
    1SOL    HW310039   2.041   0.668   4.210 -0.2700 -0.6256 -2.0045
    1SOL    MW410040   2.050   0.751   4.185  0.4683 -0.2412 -0.5326
    1SOL     OW10041   1.775   0.891   4.224 -0.0726  0.0563  0.6598
    1SOL    HW210042   1.785   0.986   4.223 -0.4327  0.1049  1.3262
    1SOL    HW310043   1.863   0.857   4.207  0.0697  0.5109  0.4994
    1SOL    MW410044   1.788   0.899   4.222 -0.1014  0.1228  0.7272
    1SOL     OW10045   1.818   1.174   4.210 -0.4340  0.0669 -0.0431
    1SOL    HW210046   1.897   1.218   4.243 -1.3666  1.7492 -0.0436
    1SOL    HW310047   1.749   1.240   4.217 -1.5959 -1.0246 -1.1501
    1SOL    MW410048   1.820   1.189   4.215 -0.7104  0.1447 -0.1893
    1SOL     OW10049   2.061   1.276   4.265  0.5763  0.5173 -0.0833
    1SOL    HW210050   2.127   1.215   4.233  0.3106 -0.4048  1.1066
    1SOL    HW310051   2.057   1.344   4.198  0.6500 -0.9168 -1.5842
    1SOL    MW410052   2.069   1.277   4.252  0.5510  0.2064 -0.1249
    1SOL     OW10053   2.024   1.513   4.124 -0.0507  0.6350  0.1734
    1SOL    HW210054   2.095   1.569   4.153 -0.1298  0.5938  0.4603
    1SOL    HW310055   2.024   1.519   4.029  0.9135 -0.0703  0.1183
    1SOL    MW410056   2.033   1.521   4.115  0.0663  0.5364  0.2041
    1SOL     OW10057   1.823   1.650   4.256  0.0507  0.2558 -0.1813
    1SOL    HW210058   1.901   1.614   4.213  0.6642 -0.6562  1.6501
    1SOL    HW310059   1.750   1.625   4.198  0.8444 -1.0362 -0.6447
    1SOL    MW410060   1.824   1.642   4.242  0.2365 -0.0349 -0.0010
    1SOL     OW10061   1.798   1.902   4.129 -0.2342  0.5144 -0.2340
    1SOL    HW210062   1.809   1.816   4.170 -1.4463  0.5070  0.0931
    1SOL    HW310063   1.869   1.955   4.165  0.3088 -0.2401 -0.1614
    1SOL    MW410064   1.809   1.897   4.139 -0.3223  0.4140 -0.1817
    1SOL     OW10065   1.813   2.467   4.254  0.2837 -0.1436  0.3320
    1SOL    HW210066   1.833   2.550   4.211 -1.0430  0.1626  0.3110
    1SOL    HW310067   1.877   2.405   4.217 -0.2720  0.3138 -1.4195
    1SOL    MW410068   1.824   2.470   4.243  0.0352 -0.0427  0.0978
    1SOL     OW10069   2.001   2.299   4.158 -0.4573  0.3880 -0.0405
    1SOL    HW210070   2.014   2.282   4.064 -0.1522 -0.2795  0.1228
    1SOL    HW310071   2.076   2.354   4.182 -1.1319  1.4957 -0.4349
    1SOL    MW410072   2.013   2.304   4.148 -0.5062  0.4458 -0.0710
    1SOL     OW10073   2.094   2.678   4.073 -0.1166 -0.2410  0.0818
    1SOL    HW210074   2.142   2.685   4.156 -1.3210  0.7127  0.7292
    1SOL    HW310075   2.003   2.698   4.097 -0.8062 -1.8378 -1.1471
    1SOL    MW410076   2.088   2.682   4.087 -0.3664 -0.3259  0.0048
    1SOL     OW10077   1.832   2.732   4.171 -0.1037  0.2942 -0.1432
    1SOL    HW210078   1.886   2.759   4.245 -0.9251 -0.8818  0.8981
    1SOL    HW310079   1.743   2.757   4.195 -0.2219  1.0118 -1.2701
    1SOL    MW410080   1.827   2.739   4.184 -0.2277  0.2337 -0.1550
    1SOL     OW10081   1.687   3.160   4.677  0.4664  0.4074 -0.1554
    1SOL    HW210082   1.688   3.243   4.629  1.8398  0.5997  0.1885
    1SOL    HW310083   1.761   3.111   4.642 -0.3369 -0.6836 -0.3532
    1SOL    MW410084   1.697   3.165   4.666  0.5417  0.2887 -0.1359
    1SOL     OW10085   2.236   3.073   4.281  0.3782 -0.1218 -0.0405
    1SOL    HW210086   2.144   3.072   4.255  0.5349 -2.2991 -0.6134
    1SOL    HW310087   2.243   3.004   4.347  1.5834  0.0934  0.0650
    1SOL    MW410088   2.225   3.064   4.286  0.5579 -0.3808 -0.1025
    1SOL     OW10089   1.797   3.231   4.294  0.1371 -0.7705  0.2116
    1SOL    HW210090   1.797   3.317   4.251  0.1822 -0.0013  1.7262
    1SOL    HW310091   1.870   3.184   4.254 -0.2261 -0.3163 -1.0230
    1SOL    MW410092   1.806   3.236   4.283  0.0951 -0.6089  0.2489
    1SOL     OW10093   1.776   3.452   4.135 -0.4855  0.2512 -0.1575
    1SOL    HW210094   1.703   3.504   4.170 -0.2727 -0.5055  1.4722
    1SOL    HW310095   1.755   3.439   4.043 -1.9901  0.7478  0.1063
    1SOL    MW410096   1.764   3.457   4.128 -0.6560  0.2170  0.0925
    1SOL     OW10097   2.006   3.561   4.265 -0.1438  0.6762  0.0931
    1SOL    HW210098   1.999   3.655   4.244 -0.9414  0.2269 -1.7168
    1SOL    HW310099   1.931   3.521   4.221 -0.0866 -0.7491  1.2892
    1SOL    MW410100   1.995   3.568   4.256 -0.2414  0.4287  0.0119
    1SOL     OW10101   1.986   3.849   4.196  0.0756  0.4267  0.1995
    1SOL    HW210102   1.930   3.913   4.240 -0.8039  0.3621 -0.7972
    1SOL    HW310103   1.995   3.883   4.107  1.7276  0.4967  0.3857
    1SOL    MW410104   1.980   3.862   4.190  0.1775  0.4277  0.0925
    1SOL     OW10105   1.774   3.994   4.317  0.3312  0.5604 -0.5208
    1SOL    HW210106   1.777   4.074   4.264  0.5424  0.0906 -1.2277
    1SOL    HW310107   1.698   3.947   4.284 -0.4023  0.9452  0.6009
    1SOL    MW410108   1.765   3.999   4.305  0.2621  0.5491 -0.4659
    1SOL     OW10109   1.803   4.245   4.188 -0.1207 -0.2409 -0.0322
    1SOL    HW210110   1.882   4.291   4.215 -1.6930  1.2641  2.2724
    1SOL    HW310111   1.812   4.234   4.093  2.8382 -0.1660  0.2068
    1SOL    MW410112   1.814   4.250   4.179  0.0623 -0.0329  0.3037
    1SOL     OW10113   2.028   4.374   4.282 -0.6469 -0.2329  0.1617
    1SOL    HW210114   2.013   4.357   4.375 -2.3695  0.5331  0.0418
    1SOL    HW310115   2.021   4.469   4.274 -1.0402 -0.3356 -0.8263
    1SOL    MW410116   2.025   4.384   4.293 -0.9260 -0.1454  0.0153
    1SOL     OW10117   2.448   4.574   4.172 -0.6312  0.1463 -0.3417
    1SOL    HW210118   2.521   4.629   4.201 -1.5788  0.3623  1.7590
    1SOL    HW310119   2.458   4.493   4.221 -2.2198  0.4824  0.5825
    1SOL    MW410120   2.459   4.571   4.182 -0.9656  0.2193  0.0577
    1SOL     OW10121   2.238   0.106   4.251  0.5842 -0.0401 -0.3719
    1SOL    HW210122   2.304   0.038   4.236  0.6220 -0.2720  0.8135
    1SOL    HW310123   2.155   0.061   4.238  0.6283 -0.1179 -0.3872
    1SOL    MW410124   2.236   0.091   4.247  0.5951 -0.0809 -0.2174
    1SOL     OW10125   2.258   0.382   4.174 -0.2649  0.0512 -0.0682
    1SOL    HW210126   2.238   0.295   4.209 -3.6531  0.3482 -1.0873
    1SOL    HW310127   2.252   0.371   4.080 -1.7489  1.5678 -0.1778
    1SOL    MW410128   2.254   0.369   4.167 -0.9079  0.2905 -0.2170
    1SOL     OW10129   2.509   0.498   4.245 -0.5987  0.1480 -0.3204
    1SOL    HW210130   2.516   0.484   4.340  0.4787 -0.2549 -0.4553
    1SOL    HW310131   2.428   0.454   4.221 -1.3180  0.9702  0.5482
    1SOL    MW410132   2.499   0.490   4.255 -0.5515  0.2033 -0.2227
    1SOL     OW10133   2.505   0.773   4.149  0.1420  0.6386 -0.4008
    1SOL    HW210134   2.521   0.687   4.189  0.4858  0.8691 -0.0343
    1SOL    HW310135   2.509   0.757   4.055 -3.6601 -0.4879 -0.4574
    1SOL    MW410136   2.508   0.760   4.142 -0.3142  0.5203 -0.3600
    1SOL     OW10137   2.276   0.867   4.226  0.2317 -0.2351 -0.3703
    1SOL    HW210138   2.281   0.878   4.321  1.3134 -0.8079 -0.3512
    1SOL    HW310139   2.362   0.832   4.201 -0.2570 -0.6898 -1.4737
    1SOL    MW410140   2.288   0.864   4.235  0.3097 -0.3707 -0.5136
    1SOL     OW10141   2.263   1.128   4.156  0.1831  0.2562 -0.1647
    1SOL    HW210142   2.329   1.175   4.207 -1.0511 -0.0379  1.7590
    1SOL    HW310143   2.270   1.037   4.185 -0.9566  0.1991 -0.0229
    1SOL    MW410144   2.273   1.122   4.167 -0.1302  0.2098  0.1082
    1SOL     OW10145   2.495   1.231   4.261  0.2489  0.0365 -0.0263
    1SOL    HW210146   2.493   1.241   4.356 -1.8054 -1.2958  0.1071
    1SOL    HW310147   2.583   1.199   4.242  0.1835 -1.1443  1.5965
    1SOL    MW410148   2.506   1.228   4.271 -0.0308 -0.2950  0.2055
    1SOL     OW10149   2.458   1.484   4.173  0.4742 -0.4146  0.5001
    1SOL    HW210150   2.458   1.394   4.206  1.0161 -0.5832  0.0649
    1SOL    HW310151   2.449   1.475   4.078  1.9107 -0.0858  0.3137
    1SOL    MW410152   2.457   1.471   4.164  0.7355 -0.3935  0.4177
    1SOL     OW10153   2.244   1.650   4.219  0.0392 -0.0406 -0.9186
    1SOL    HW210154   2.320   1.596   4.198  0.6052  0.4775 -0.2287
    1SOL    HW310155   2.276   1.740   4.212 -0.4913  0.1811 -0.5668
    1SOL    MW410156   2.258   1.655   4.215  0.0441  0.0571 -0.7811
    1SOL     OW10157   2.261   1.932   4.114 -0.0921 -0.4686 -0.2916
    1SOL    HW210158   2.324   1.997   4.143 -0.7848  0.4570 -0.8063
    1SOL    HW310159   2.179   1.958   4.156 -0.7047 -0.1394 -1.6430
    1SOL    MW410160   2.258   1.944   4.123 -0.2642 -0.3031 -0.5379
    1SOL     OW10161   2.484   2.343   4.123  0.3055  0.1706 -0.3483
    1SOL    HW210162   2.490   2.314   4.032 -0.4047 -0.3952 -0.2149
    1SOL    HW310163   2.474   2.262   4.174  0.9261  0.4657  0.2553
    1SOL    MW410164   2.484   2.328   4.118  0.2935  0.1349 -0.2513
    1SOL     OW10165   2.459   2.075   4.219 -0.2690  0.1098 -0.1832
    1SOL    HW210166   2.540   2.035   4.188 -0.8287 -0.5168 -0.8636
    1SOL    HW310167   2.454   2.051   4.311  0.1882 -0.0725 -0.2045
    1SOL    MW410168   2.469   2.067   4.227 -0.2825  0.0031 -0.2756
    1SOL     OW10169   2.405   2.622   4.509 -0.0562  0.6091 -0.2320
    1SOL    HW210170   2.393   2.695   4.570 -1.6907 -0.3931  0.6939
    1SOL    HW310171   2.333   2.632   4.447 -0.8955 -0.7670  0.4968
    1SOL    MW410172   2.394   2.633   4.509 -0.3827  0.2952 -0.0134
    1SOL     OW10173   2.427   2.801   4.252  0.1288 -0.2474 -0.1048
    1SOL    HW210174   2.344   2.768   4.286  1.1271 -2.4371  0.2938
    1SOL    HW310175   2.470   2.842   4.327 -0.3180  0.3227 -0.1626
    1SOL    MW410176   2.422   2.802   4.266  0.2017 -0.4609 -0.0601
    1SOL     OW10177   2.663   2.552   4.450 -0.2608 -0.5045 -0.2224
    1SOL    HW210178   2.576   2.591   4.454 -0.5391 -1.0987 -0.4733
    1SOL    HW310179   2.675   2.511   4.535  0.4098  0.9140  0.3887
    1SOL    MW410180   2.653   2.552   4.462 -0.2091 -0.3958 -0.1750
    1SOL     OW10181   2.434   3.037   4.090  0.5004 -0.2564  0.2131
    1SOL    HW210182   2.367   3.074   4.147  0.7510  0.6832 -0.0931
    1SOL    HW310183   2.448   2.948   4.124 -1.9628 -1.0135 -0.6380
    1SOL    MW410184   2.427   3.030   4.102  0.2081 -0.2322  0.0601
    1SOL     OW10185   1.968   3.045   4.193  0.5064  0.0695 -0.5516
    1SOL    HW210186   1.971   3.038   4.097  1.4387  1.5440 -0.6413
    1SOL    HW310187   1.984   2.956   4.224  1.0306 -0.2638 -1.7423
    1SOL    MW410188   1.970   3.032   4.184  0.6984  0.2201 -0.7205
    1SOL     OW10189   2.243   3.476   4.151  0.3863  0.1470 -0.0570
    1SOL    HW210190   2.273   3.398   4.198 -2.1999 -0.9204 -0.1406
    1SOL    HW310191   2.171   3.510   4.204 -1.1161  0.2057 -2.0748
    1SOL    MW410192   2.238   3.470   4.164 -0.1533  0.0141 -0.3343
    1SOL     OW10193   2.456   3.623   4.261  0.3388 -0.4065 -0.0457
    1SOL    HW210194   2.372   3.588   4.232  0.8790  0.5855 -2.9446
    1SOL    HW310195   2.463   3.707   4.217  2.2620  0.1387  1.2425
    1SOL    MW410196   2.446   3.629   4.252  0.6638 -0.2036 -0.2580
    1SOL     OW10197   2.451   3.884   4.170 -0.1872 -0.3041 -0.2422
    1SOL    HW210198   2.537   3.902   4.206  0.0573  0.2201 -1.0874
    1SOL    HW310199   2.461   3.892   4.076 -0.5577 -2.7593 -0.5416
    1SOL    MW410200   2.463   3.887   4.163 -0.2036 -0.5586 -0.3929
    1SOL     OW10201   2.207   3.989   4.252  0.4109  0.5345 -0.0948
    1SOL    HW210202   2.284   3.947   4.216  0.4922  1.4391 -1.0040
    1SOL    HW310203   2.138   3.923   4.246  0.9291 -0.0268  0.0483
    1SOL    MW410204   2.208   3.975   4.247  0.4900  0.5801 -0.1960
    1SOL     OW10205   2.234   4.237   4.142 -0.0927  0.1478  0.0398
    1SOL    HW210206   2.214   4.146   4.161 -2.0347  0.4269 -0.5087
    1SOL    HW310207   2.165   4.286   4.188 -0.1631  1.2214 -1.1785
    1SOL    MW410208   2.222   4.232   4.151 -0.3586  0.3262 -0.1941
    1SOL     OW10209   2.459   4.310   4.317 -0.2590 -0.2163  0.1054
    1SOL    HW210210   2.536   4.279   4.270  0.0340  2.3300 -1.1676
    1SOL    HW310211   2.387   4.299   4.255 -0.3039  0.7751 -0.0216
    1SOL    MW410212   2.460   4.304   4.303 -0.2263  0.2503 -0.0796
    1SOL     OW10213   2.900   4.633   4.158 -0.0957 -0.0000 -0.0358
    1SOL    HW210214   2.976   4.681   4.191 -0.3708  0.5025 -0.1208
    1SOL    HW310215   2.912   4.544   4.190  0.2635  0.1991  0.3939
    1SOL    MW410216   2.911   4.628   4.167 -0.0849  0.0925  0.0091
    1SOL     OW10217   2.656   0.090   4.242 -0.3850  0.1566 -0.3103
    1SOL    HW210218   2.675   0.183   4.228  1.1838 -0.2513 -1.0168
    1SOL    HW310219   2.735   0.045   4.213 -1.1579 -1.4133 -0.0325
    1SOL    MW410220   2.669   0.096   4.237 -0.2801 -0.1044 -0.3667
    1SOL     OW10221   2.734   0.348   4.184 -0.0318 -0.3973 -0.1425
    1SOL    HW210222   2.658   0.401   4.209  0.4726  0.2158  0.0960
    1SOL    HW310223   2.730   0.345   4.088  0.2661  0.5664 -0.1925
    1SOL    MW410224   2.723   0.355   4.174  0.0741 -0.1892 -0.1173
    1SOL     OW10225   2.939   0.484   4.305  0.2835 -0.5193 -0.1369
    1SOL    HW210226   2.929   0.574   4.275 -1.6966  0.0368  2.0877
    1SOL    HW310227   2.873   0.435   4.256  1.6780 -0.8815 -1.6970
    1SOL    MW410228   2.929   0.489   4.295  0.2062 -0.4937 -0.0491
    1SOL     OW10229   2.935   0.765   4.182 -0.4002  0.2707 -0.2575
    1SOL    HW210230   3.020   0.790   4.218 -0.0810  0.1679 -0.9302
    1SOL    HW310231   2.942   0.785   4.089 -0.7457 -0.7441 -0.5010
    1SOL    MW410232   2.947   0.771   4.175 -0.4036  0.1232 -0.3786
    1SOL     OW10233   2.702   0.891   4.299  0.3741  0.3254 -0.1348
    1SOL    HW210234   2.776   0.844   4.261  0.1916 -0.1747  0.1134
    1SOL    HW310235   2.626   0.860   4.250  0.1416 -0.3062  0.6066
    1SOL    MW410236   2.701   0.880   4.288  0.3192  0.1761 -0.0043
    1SOL     OW10237   2.729   1.136   4.160  0.1880 -0.1011  0.1026
    1SOL    HW210238   2.734   1.048   4.198  0.6458 -0.5174 -0.8904
    1SOL    HW310239   2.700   1.121   4.070  0.3964  0.7606 -0.1083
    1SOL    MW410240   2.726   1.123   4.153  0.2759 -0.0423 -0.0563
    1SOL     OW10241   2.954   1.296   4.230  0.0398  0.0516  0.0382
    1SOL    HW210242   3.028   1.237   4.217 -0.5197 -0.8790  1.0175
    1SOL    HW310243   2.878   1.245   4.202 -0.1437  1.4086 -2.0826
    1SOL    MW410244   2.954   1.282   4.224 -0.0579  0.1079 -0.1121
    1SOL     OW10245   2.917   1.587   4.204 -1.0043 -0.0702  0.2092
    1SOL    HW210246   3.002   1.627   4.224 -1.5439  0.9256  0.5690
    1SOL    HW310247   2.930   1.494   4.219 -0.1618  0.1509  0.9162
    1SOL    MW410248   2.930   1.580   4.209 -0.9644  0.0904  0.3500
    1SOL     OW10249   2.653   1.672   4.225  0.0525  0.2501  0.2876
    1SOL    HW210250   2.740   1.635   4.206  0.2494  0.2888  1.1082
    1SOL    HW310251   2.592   1.605   4.193  0.3685  0.4175 -0.7005
    1SOL    MW410252   2.657   1.658   4.218  0.1199  0.2773  0.2656
    1SOL     OW10253   2.688   1.944   4.137  0.2508 -0.0448  0.4322
    1SOL    HW210254   2.669   1.852   4.158  0.8212 -0.0144  1.0805
    1SOL    HW310255   2.689   1.946   4.041 -0.6091 -0.5383  0.4041
    1SOL    MW410256   2.686   1.932   4.127  0.2124 -0.1059  0.5145
    1SOL     OW10257   2.925   2.036   4.262  0.0321 -0.3487 -1.0320
    1SOL    HW210258   2.919   2.119   4.215 -0.2397  0.5303  0.5416
    1SOL    HW310259   2.843   1.992   4.243 -1.1999  1.1341  0.6947
    1SOL    MW410260   2.914   2.041   4.253 -0.1659 -0.0367 -0.5960
    1SOL     OW10261   2.863   2.286   4.135 -0.4039 -0.3735  0.2469
    1SOL    HW210262   2.945   2.311   4.178 -0.2539  1.2936 -0.9625
    1SOL    HW310263   2.797   2.294   4.204  0.4029 -1.6674  1.2134
    1SOL    MW410264   2.866   2.290   4.150 -0.2775 -0.3242  0.2151
    1SOL     OW10265   2.702   2.272   4.346 -0.3353  0.0397 -0.4545
    1SOL    HW210266   2.654   2.354   4.359  1.2394  0.9697 -0.2815
    1SOL    HW310267   2.766   2.271   4.417  0.3835 -0.7938 -1.1003
    1SOL    MW410268   2.704   2.283   4.357 -0.0327  0.0527 -0.5169
    1SOL     OW10269   2.624   2.640   4.157  0.1692 -0.2655 -0.1753
    1SOL    HW210270   2.618   2.560   4.210  0.9907 -0.5720 -0.5363
    1SOL    HW310271   2.547   2.691   4.182  0.8675 -0.1235  1.7928
    1SOL    MW410272   2.613   2.636   4.167  0.3700 -0.2873  0.0367
    1SOL     OW10273   2.855   2.778   4.224  0.0540  0.2383 -0.0474
    1SOL    HW210274   2.868   2.764   4.318  2.1126 -0.2490 -0.3787
    1SOL    HW310275   2.778   2.726   4.203  0.4962 -0.9038  1.0813
    1SOL    MW410276   2.847   2.769   4.234  0.3839  0.0234  0.0577
    1SOL     OW10277   2.924   3.052   4.153  0.5481 -0.0682  0.2082
    1SOL    HW210278   2.893   2.965   4.181  0.4262  0.0559  0.4586
    1SOL    HW310279   2.926   3.046   4.057  0.3061 -0.2699  0.2129
    1SOL    MW410280   2.920   3.040   4.144  0.5002 -0.0787  0.2422
    1SOL     OW10281   2.659   3.170   4.194 -0.1529  0.0368  0.2726
    1SOL    HW210282   2.742   3.128   4.170  0.1945  1.2926 -0.8234
    1SOL    HW310283   2.592   3.114   4.155  0.3307  0.7539 -1.7015
    1SOL    MW410284   2.661   3.157   4.186 -0.0432  0.2971 -0.1326
    1SOL     OW10285   2.632   3.442   4.111 -0.3069 -0.4919 -0.2770
    1SOL    HW210286   2.631   3.351   4.141 -0.4282 -0.2222  0.5647
    1SOL    HW310287   2.559   3.484   4.157  1.5433  0.7413  1.7075
    1SOL    MW410288   2.622   3.436   4.121 -0.0789 -0.2935  0.0958
    1SOL     OW10289   2.852   3.634   4.209  0.2917  0.0298 -0.1944
    1SOL    HW210290   2.843   3.641   4.304  0.0477 -0.3753 -0.1855
    1SOL    HW310291   2.794   3.561   4.185  0.5451 -0.0298 -0.6216
    1SOL    MW410292   2.843   3.626   4.219  0.2930 -0.0317 -0.2499
    1SOL     OW10293   2.948   3.872   4.071 -0.0457  0.0465  0.0021
    1SOL    HW210294   3.018   3.907   4.125  0.9476 -0.0976 -1.1833
    1SOL    HW310295   2.926   3.787   4.111 -0.8137  0.9019  1.4454
    1SOL    MW410296   2.954   3.865   4.084 -0.0160  0.1402  0.0358
    1SOL     OW10297   2.737   3.967   4.227  0.1365 -0.2566  0.0521
    1SOL    HW210298   2.708   4.054   4.201  0.9534  0.1964  0.6244
    1SOL    HW310299   2.807   3.946   4.165 -0.0231 -0.4865 -0.0506
    1SOL    MW410300   2.743   3.976   4.215  0.2229 -0.2270  0.1149
    1SOL     OW10301   2.682   4.241   4.155 -0.0118 -0.2766  0.2718
    1SOL    HW210302   2.763   4.281   4.188 -0.6727  1.0916  0.2860
    1SOL    HW310303   2.681   4.265   4.062 -0.6692  0.1714  0.3950
    1SOL    MW410304   2.693   4.249   4.147 -0.1857 -0.0372  0.2899
    1SOL     OW10305   2.914   4.359   4.248  0.0519 -0.5658 -0.2767
    1SOL    HW210306   2.899   4.341   4.341 -0.2914 -1.4534 -0.5001
    1SOL    HW310307   2.988   4.304   4.224  0.9579  0.6064 -0.2319
    1SOL    MW410308   2.922   4.350   4.257  0.1261 -0.5279 -0.2999
    1SOL     OW10309   3.387   0.029   4.150  0.7286  0.7834 -0.0038
    1SOL    HW210310   3.460   0.073   4.192  0.1774  2.4674 -0.7663
    1SOL    HW310311   3.389  -0.060   4.185  1.6893  1.4835  1.7657
    1SOL    MW410312   3.397   0.023   4.160  0.7825  1.0986  0.1297
    1SOL     OW10313   3.136   0.113   4.243 -0.2239  0.6062 -0.2377
    1SOL    HW210314   3.159   0.089   4.333 -0.9512  0.4517 -0.0870
    1SOL    HW310315   3.215   0.094   4.192 -0.0176  0.0941  0.2658
    1SOL    MW410316   3.150   0.107   4.248 -0.2925  0.5183 -0.1516
    1SOL     OW10317   3.164   0.390   4.166 -0.1616 -0.3729  0.2319
    1SOL    HW210318   3.150   0.298   4.185 -0.2365 -0.8524 -1.9340
    1SOL    HW310319   3.096   0.436   4.214  1.1336 -1.2427  2.9907
    1SOL    MW410320   3.153   0.384   4.175 -0.0007 -0.5510  0.3104
    1SOL     OW10321   3.412   0.497   4.245  0.3689 -0.0174 -0.0125
    1SOL    HW210322   3.480   0.463   4.187  1.2504  0.8151  0.5004
    1SOL    HW310323   3.331   0.459   4.213  1.1107 -1.2338 -0.4893
    1SOL    MW410324   3.410   0.488   4.233  0.5832 -0.0681 -0.0076
    1SOL     OW10325   3.402   0.784   4.176  0.2424  0.1946 -0.5241
    1SOL    HW210326   3.322   0.819   4.215  0.5886  1.3325 -0.8217
    1SOL    HW310327   3.398   0.690   4.195 -0.1016  0.5603  1.3405
    1SOL    MW410328   3.391   0.776   4.183  0.2429  0.3929 -0.3171
    1SOL     OW10329   3.171   0.878   4.302 -0.2569  0.0433  0.5585
    1SOL    HW210330   3.168   0.865   4.396 -0.4947  0.4820  0.6088
    1SOL    HW310331   3.175   0.973   4.290  1.5969 -0.0611  0.1798
    1SOL    MW410332   3.171   0.889   4.313 -0.0436  0.0875  0.5145
    1SOL     OW10333   3.172   1.133   4.216  0.2992  0.0608 -0.2757
    1SOL    HW210334   3.246   1.183   4.251 -0.1500  0.2609  0.4049
    1SOL    HW310335   3.188   1.128   4.122  0.3714  1.4712 -0.3551
    1SOL    MW410336   3.184   1.139   4.209  0.2494  0.2733 -0.1965
    1SOL     OW10337   3.356   1.315   4.292 -0.4834  0.1816 -0.1082
    1SOL    HW210338   3.377   1.322   4.385 -0.2479 -0.8212 -0.0876
    1SOL    HW310339   3.381   1.401   4.256  0.4255  0.2055  0.5555
    1SOL    MW410340   3.362   1.327   4.300 -0.3321  0.0526 -0.0181
    1SOL     OW10341   3.388   1.559   4.140 -0.5969  0.0365  0.0309
    1SOL    HW210342   3.309   1.596   4.180 -1.1168 -1.1270  0.0808
    1SOL    HW310343   3.367   1.556   4.046 -0.1899  0.7629 -0.0836
    1SOL    MW410344   3.374   1.564   4.133 -0.6118 -0.0212  0.0219
    1SOL     OW10345   3.162   1.667   4.258  0.1083 -0.6814  0.4759
    1SOL    HW210346   3.150   1.674   4.353  0.8096  0.2226  0.5010
    1SOL    HW310347   3.180   1.756   4.229  2.6322 -1.3403 -0.1259
    1SOL    MW410348   3.163   1.679   4.266  0.5338 -0.6489  0.4005
    1SOL     OW10349   3.184   1.938   4.169 -0.0778 -0.5892 -0.1475
    1SOL    HW210350   3.246   1.974   4.233 -0.1127 -1.7473  0.5479
    1SOL    HW310351   3.098   1.967   4.201 -0.0237 -0.3569 -0.2090
    1SOL    MW410352   3.181   1.947   4.182 -0.0751 -0.7113 -0.0639
    1SOL     OW10353   3.376   2.017   4.354  0.0458 -0.0815  0.1354
    1SOL    HW210354   3.464   1.981   4.351  0.0747  0.0052 -0.0512
    1SOL    HW310355   3.387   2.110   4.334  0.0058  0.0949  0.9111
    1SOL    MW410356   3.389   2.024   4.351  0.0441 -0.0467  0.2131
    1SOL     OW10357   3.368   2.273   4.244  0.0221 -0.0006  0.1911
    1SOL    HW210358   3.450   2.318   4.265  0.3364 -0.3745 -0.2442
    1SOL    HW310359   3.369   2.264   4.149 -0.8197  0.5622  0.1254
    1SOL    MW410360   3.379   2.278   4.234 -0.0472  0.0243  0.1249
    1SOL     OW10361   3.101   2.366   4.267 -0.5485 -0.1167 -0.5522
    1SOL    HW210362   3.115   2.447   4.218 -2.0248 -0.6053 -1.8351
    1SOL    HW310363   3.189   2.337   4.291  0.0041  1.8606 -0.0497
    1SOL    MW410364   3.114   2.373   4.264 -0.6704  0.0799 -0.6552
    1SOL     OW10365   3.093   2.649   4.176 -0.0226 -0.1634  0.1601
    1SOL    HW210366   3.163   2.691   4.227 -0.0386  0.4188 -0.2869
    1SOL    HW310367   3.015   2.699   4.197 -0.2825 -0.7463  0.5718
    1SOL    MW410368   3.092   2.661   4.185 -0.0591 -0.1633  0.1550
    1SOL     OW10369   3.327   2.820   4.272  0.0649 -0.0842 -0.0295
    1SOL    HW210370   3.407   2.780   4.240  1.1194  0.1846  2.1734
    1SOL    HW310371   3.318   2.901   4.221  0.9153 -0.3642 -0.6225
    1SOL    MW410372   3.336   2.826   4.261  0.3161 -0.0856  0.1831
    1SOL     OW10373   3.316   3.072   4.137  0.2858  0.1376  0.2823
    1SOL    HW210374   3.248   3.128   4.176 -0.2395 -0.2291 -0.1077
    1SOL    HW310375   3.307   3.086   4.043  1.3719  0.8019  0.2652
    1SOL    MW410376   3.305   3.081   4.130  0.3595  0.1771  0.2289
    1SOL     OW10377   3.113   3.213   4.272 -0.0701  0.0868 -0.2834
    1SOL    HW210378   3.103   3.305   4.245  0.2544  0.1857 -0.0697
    1SOL    HW310379   3.045   3.166   4.223 -0.9067  0.5935  0.3880
    1SOL    MW410380   3.103   3.219   4.262 -0.1376  0.1667 -0.1669
    1SOL     OW10381   3.114   3.483   4.155 -0.1882 -0.2115 -0.5096
    1SOL    HW210382   3.042   3.536   4.191  0.2344  1.0713 -1.5042
    1SOL    HW310383   3.087   3.465   4.065  0.6979  0.2253 -0.8660
    1SOL    MW410384   3.101   3.488   4.148 -0.0155  0.0153 -0.6876
    1SOL     OW10385   3.374   3.595   4.223 -0.4322  0.3166 -0.1727
    1SOL    HW210386   3.363   3.588   4.318  0.2426 -0.0426 -0.1175
    1SOL    HW310387   3.295   3.553   4.188 -0.6591  0.3996  0.2286
    1SOL    MW410388   3.362   3.588   4.231 -0.3731  0.2804 -0.1121
    1SOL     OW10389   3.402   3.860   4.148 -0.2070  0.0241 -0.1246
    1SOL    HW210390   3.381   3.768   4.167 -0.2393  0.1873  0.6629
    1SOL    HW310391   3.383   3.871   4.055  0.0237 -0.8316 -0.2784
    1SOL    MW410392   3.397   3.849   4.138 -0.1810 -0.0672 -0.0410
    1SOL     OW10393   3.148   3.955   4.236 -0.2686  0.0758 -0.2229
    1SOL    HW210394   3.142   3.944   4.331  1.3964  2.1546  0.1732
    1SOL    HW310395   3.235   3.920   4.214 -0.4988 -0.0577 -0.9321
    1SOL    MW410396   3.159   3.949   4.246 -0.0796  0.3326 -0.2646
    1SOL     OW10397   3.126   4.213   4.167 -0.6081  0.2661  0.4948
    1SOL    HW210398   3.212   4.249   4.186 -1.3648  1.9547  0.8709
    1SOL    HW310399   3.136   4.118   4.177  1.2083  0.4425  0.4390
    1SOL    MW410400   3.138   4.205   4.171 -0.4683  0.5121  0.5374
    1SOL     OW10401   3.355   4.419   4.217 -0.3241 -0.2309  0.1104
    1SOL    HW210402   3.339   4.404   4.311 -1.5316  0.3574  0.0085
    1SOL    HW310403   3.430   4.363   4.197  0.2184 -0.0484  1.5264
    1SOL    MW410404   3.363   4.409   4.227 -0.4122 -0.1297  0.2837
    1SOL     OW10405   3.782   4.603   4.143 -0.3975  0.4797 -0.0070
    1SOL    HW210406   3.859   4.646   4.180 -0.8994  1.1559  0.2835
    1SOL    HW310407   3.780   4.632   4.052 -0.9370  1.3863  0.2822
    1SOL    MW410408   3.792   4.613   4.136 -0.5345  0.6881  0.0696
    1SOL     OW10409   3.624   0.131   4.276  0.4669 -0.0993  0.3772
    1SOL    HW210410   3.608   0.202   4.214 -0.1648  0.1886  0.8682
    1SOL    HW310411   3.676   0.068   4.226 -0.5329 -0.1445 -0.6399
    1SOL    MW410412   3.629   0.132   4.261  0.2515 -0.0673  0.3076
    1SOL     OW10413   3.608   0.363   4.131 -0.3685 -0.2462  0.1218
    1SOL    HW210414   3.677   0.424   4.156 -0.5683 -0.0145  0.1070
    1SOL    HW310415   3.613   0.358   4.036  0.2811 -0.9977  0.1902
    1SOL    MW410416   3.617   0.370   4.122 -0.3090 -0.3148  0.1287
    1SOL     OW10417   3.835   0.501   4.231  0.0416 -0.4545 -0.0445
    1SOL    HW210418   3.840   0.498   4.326  1.2984 -1.3142 -0.1310
    1SOL    HW310419   3.848   0.594   4.209  0.5065 -0.3677  0.5771
    1SOL    MW410420   3.837   0.513   4.240  0.2689 -0.5565  0.0267
    1SOL     OW10421   3.837   0.766   4.169 -0.1083 -0.3635  0.3607
    1SOL    HW210422   3.777   0.824   4.215 -0.6983 -0.5421 -0.1846
    1SOL    HW310423   3.813   0.774   4.077  0.2738 -0.9347  0.2070
    1SOL    MW410424   3.826   0.775   4.163 -0.1357 -0.4625  0.2685
    1SOL     OW10425   3.620   0.922   4.280  0.2132  0.5648 -0.2564
    1SOL    HW210426   3.594   1.003   4.237  1.6463  1.0318 -0.2799
    1SOL    HW310427   3.551   0.859   4.258  0.1473  1.2143 -1.9624
    1SOL    MW410428   3.608   0.924   4.272  0.3936  0.7121 -0.4845
    1SOL     OW10429   3.576   1.192   4.168 -0.2793  0.6202  0.2816
    1SOL    HW210430   3.495   1.236   4.196  0.8082  2.1306  1.0948
    1SOL    HW310431   3.563   1.177   4.074 -1.3926  1.1227  0.3433
    1SOL    MW410432   3.563   1.196   4.159 -0.2828  0.8858  0.3972
    1SOL     OW10433   3.796   1.300   4.278  0.1441  0.0947  0.2501
    1SOL    HW210434   3.714   1.276   4.237  0.4067 -0.4753  0.0446
    1SOL    HW310435   3.809   1.392   4.257  0.0482 -0.0761 -0.5438
    1SOL    MW410436   3.787   1.309   4.270  0.1659 -0.0031  0.1178
    1SOL     OW10437   3.790   1.551   4.119 -0.6989  0.0134 -0.0885
    1SOL    HW210438   3.867   1.600   4.147 -0.5828  1.7081 -3.0968
    1SOL    HW310439   3.718   1.613   4.130 -0.9628 -0.0691 -1.3300
    1SOL    MW410440   3.791   1.566   4.124 -0.7184  0.2263 -0.6490
    1SOL     OW10441   3.633   1.901   4.375  0.0647 -0.6007 -0.0414
    1SOL    HW210442   3.634   1.846   4.297 -1.2349 -0.1749 -0.3773
    1SOL    HW310443   3.645   1.840   4.448 -1.4449 -1.3399 -0.4025
    1SOL    MW410444   3.635   1.886   4.375 -0.3059 -0.6421 -0.1335
    1SOL     OW10445   3.598   1.750   4.147 -0.3522 -0.1483 -0.1101
    1SOL    HW210446   3.514   1.703   4.140 -1.2820  1.3121  1.0044
    1SOL    HW310447   3.602   1.804   4.068 -0.5325 -0.0894 -0.0786
    1SOL    MW410448   3.587   1.751   4.136 -0.4988  0.0522  0.0415
    1SOL     OW10449   3.835   2.087   4.355  0.1985 -0.0820 -0.1524
    1SOL    HW210450   3.858   2.133   4.435  0.8489  0.2738 -0.5467
    1SOL    HW310451   3.774   2.018   4.384  0.2328  0.2034  0.6058
    1SOL    MW410452   3.830   2.084   4.369  0.2890  0.0024 -0.1044
    1SOL     OW10453   3.818   2.301   4.186  0.3380 -0.0030 -0.0378
    1SOL    HW210454   3.823   2.220   4.238 -0.9080  0.5735  1.0053
    1SOL    HW310455   3.838   2.272   4.096  1.5984 -1.1647  0.5930
    1SOL    MW410456   3.821   2.286   4.181  0.3400 -0.0801  0.1831
    1SOL     OW10457   3.602   2.453   4.267 -0.6422  0.0073  0.4653
    1SOL    HW210458   3.632   2.445   4.358  0.9216  0.0964 -0.0305
    1SOL    HW310459   3.671   2.412   4.215 -0.8488  1.2243 -0.7958
    1SOL    MW410460   3.615   2.447   4.272 -0.4632  0.1793  0.2332
    1SOL     OW10461   3.585   2.713   4.177  0.4794 -0.1787  0.2800
    1SOL    HW210462   3.584   2.627   4.219  0.4030 -0.1033  0.4316
    1SOL    HW310463   3.611   2.695   4.086  1.7633 -0.2170  0.6431
    1SOL    MW410464   3.588   2.699   4.170  0.6387 -0.1740  0.3476
    1SOL     OW10465   3.820   2.862   4.246 -0.2561 -0.4207 -0.0498
    1SOL    HW210466   3.830   2.854   4.341 -0.3486 -1.5992 -0.1339
    1SOL    HW310467   3.730   2.835   4.229 -0.4499  0.4445 -0.4045
    1SOL    MW410468   3.810   2.857   4.257 -0.2940 -0.4621 -0.1073
    1SOL     OW10469   3.806   3.117   4.165  0.3927 -0.2159  0.0734
    1SOL    HW210470   3.794   3.024   4.182 -1.3667 -0.3240 -1.5522
    1SOL    HW310471   3.813   3.123   4.070 -0.8710  1.4202  0.0510
    1SOL    MW410472   3.805   3.106   4.155 -0.0062 -0.0143 -0.1445
    1SOL     OW10473   3.553   3.212   4.210  0.8938 -0.0163 -0.0987
    1SOL    HW210474   3.637   3.172   4.188  0.8988  0.4378 -0.9400
    1SOL    HW310475   3.488   3.152   4.174  0.8691 -0.1651  0.1979
    1SOL    MW410476   3.556   3.199   4.202  0.8910  0.0241 -0.1702
    1SOL     OW10477   3.605   3.476   4.125 -0.6414 -0.1400  0.4055
    1SOL    HW210478   3.599   3.387   4.161 -0.3524  0.3701  1.7458
    1SOL    HW310479   3.531   3.523   4.164 -0.2420  0.4609  0.4534
    1SOL    MW410480   3.594   3.471   4.135 -0.5505  0.0064  0.5884
    1SOL     OW10481   3.788   3.646   4.256 -0.1981 -0.1555 -0.2694
    1SOL    HW210482   3.880   3.619   4.245 -0.1273 -0.6176  1.4055
    1SOL    HW310483   3.739   3.579   4.208  0.2984 -0.1510 -0.8054
    1SOL    MW410484   3.794   3.633   4.248 -0.1233 -0.2160 -0.1197
    1SOL     OW10485   3.797   3.902   4.147 -0.4557  0.0847 -0.6951
    1SOL    HW210486   3.718   3.951   4.171 -1.4663 -0.8388 -2.0528
    1SOL    HW310487   3.783   3.815   4.183  0.9436  0.5100  0.9490
    1SOL    MW410488   3.785   3.897   4.155 -0.4046  0.0191 -0.6580
    1SOL     OW10489   3.585   4.020   4.285  0.3138 -0.6738 -0.0694
    1SOL    HW210490   3.583   4.021   4.381  1.5069  0.6260 -0.0334
    1SOL    HW310491   3.520   3.955   4.260 -1.4672  0.4212  1.5902
    1SOL    MW410492   3.576   4.012   4.294  0.2360 -0.3572  0.1545
    1SOL     OW10493   3.573   4.263   4.161  0.3900  0.0914  0.0797
    1SOL    HW210494   3.653   4.302   4.196  1.3735 -1.4030 -0.4486
    1SOL    HW310495   3.569   4.176   4.202 -0.0683 -0.4800 -1.1420
    1SOL    MW410496   3.583   4.256   4.171  0.4594 -0.1817 -0.1512
    1SOL     OW10497   3.806   4.366   4.279 -0.2537 -0.1692 -0.2290
    1SOL    HW210498   3.888   4.328   4.246  0.9206  0.4149  1.8650
    1SOL    HW310499   3.794   4.445   4.227  0.7947 -0.0059 -0.2447
    1SOL    MW410500   3.815   4.371   4.268  0.0393 -0.0706  0.0453
    1SOL     OW10501   4.280   4.633   4.153 -0.1117  0.1910 -0.4909
    1SOL    HW210502   4.282   4.549   4.198 -2.4082  0.4233  0.1082
    1SOL    HW310503   4.350   4.684   4.196 -0.5923 -0.4512  1.1004
    1SOL    MW410504   4.290   4.629   4.165 -0.4783  0.1369 -0.2022
    1SOL     OW10505   4.028   0.068   4.226 -0.0327 -0.2875  0.0870
    1SOL    HW210506   4.039   0.161   4.207 -0.1080 -0.3122 -0.0829
    1SOL    HW310507   4.116   0.032   4.219 -0.2390 -0.5380 -1.5655
    1SOL    MW410508   4.041   0.076   4.223 -0.0701 -0.3238 -0.1535
    1SOL     OW10509   4.053   0.339   4.171 -0.1703  0.4095 -0.4051
    1SOL    HW210510   4.127   0.384   4.211  0.2293  0.0016 -0.6774
    1SOL    HW310511   3.977   0.393   4.193  0.2581  1.0389 -0.4603
    1SOL    MW410512   4.053   0.352   4.179 -0.0610  0.4387 -0.4492
    1SOL     OW10513   4.270   0.472   4.305  0.2715  0.0965 -0.5689
    1SOL    HW210514   4.276   0.560   4.268  1.7311  1.2542  2.3153
    1SOL    HW310515   4.344   0.425   4.267  1.7095  1.2484  0.7802
    1SOL    MW410516   4.280   0.478   4.295  0.6537  0.4013 -0.0105
    1SOL     OW10517   4.232   0.720   4.188  0.2775  0.1713 -0.1535
    1SOL    HW210518   4.153   0.768   4.214 -0.8446 -2.0631  0.6837
    1SOL    HW310519   4.237   0.731   4.093  0.1688  2.1122  0.0513
    1SOL    MW410520   4.222   0.728   4.179  0.1154  0.1326 -0.0157
    1SOL     OW10521   4.045   0.909   4.269 -0.4589  0.4006  0.7432
    1SOL    HW210522   4.042   0.994   4.227  0.5113  0.3467  0.5516
    1SOL    HW310523   3.972   0.861   4.231 -1.2110  1.2592  1.1008
    1SOL    MW410524   4.035   0.914   4.258 -0.4306  0.5068  0.7648
    1SOL     OW10525   4.025   1.176   4.164 -0.3610 -0.5912 -0.0195
    1SOL    HW210526   4.096   1.213   4.217  0.7252 -1.3975 -0.8777
    1SOL    HW310527   3.946   1.221   4.194  0.5971  0.7309  0.5543
    1SOL    MW410528   4.024   1.187   4.175 -0.0920 -0.5231 -0.0567
    1SOL     OW10529   4.260   1.307   4.256  0.1559 -0.1019 -0.1787
    1SOL    HW210530   4.236   1.264   4.338  1.7094 -0.5736  0.0528
    1SOL    HW310531   4.316   1.243   4.212 -0.7937  0.0896 -1.6778
    1SOL    MW410532   4.264   1.293   4.261  0.2356 -0.1389 -0.3452
    1SOL     OW10533   4.220   1.550   4.129 -0.4376 -0.4881 -0.1418
    1SOL    HW210534   4.239   1.467   4.172 -1.9770 -0.7285  0.0992
    1SOL    HW310535   4.231   1.532   4.036 -0.0481 -0.7571 -0.0477
    1SOL    MW410536   4.224   1.537   4.122 -0.5894 -0.5554 -0.0973
    1SOL     OW10537   4.008   1.702   4.202 -0.1704 -0.1063  0.0859
    1SOL    HW210538   3.992   1.674   4.292  0.4201 -1.3357 -0.1731
    1SOL    HW310539   4.090   1.659   4.178 -0.6351 -0.2937 -1.2313
    1SOL    MW410540   4.017   1.692   4.211 -0.1535 -0.2933 -0.1225
    1SOL     OW10541   4.034   1.965   4.205  0.2894  0.1089  0.3045
    1SOL    HW210542   4.032   1.870   4.213  1.9799  0.0500  0.1140
    1SOL    HW310543   3.956   1.995   4.252 -0.3624 -1.3756  0.1762
    1SOL    MW410544   4.023   1.957   4.212  0.4268 -0.0948  0.2627
    1SOL     OW10545   4.455   1.963   4.117  0.3009 -0.4637 -0.7080
    1SOL    HW210546   4.534   1.980   4.168 -0.0407 -0.4318 -0.1944
    1SOL    HW310547   4.385   2.006   4.165  0.1882  0.7489 -1.9085
    1SOL    MW410548   4.457   1.971   4.130  0.2408 -0.2995 -0.7982
    1SOL     OW10549   4.258   2.304   4.171 -0.2182  0.2815 -0.0542
    1SOL    HW210550   4.183   2.360   4.192 -1.4857 -0.3995 -2.5313
    1SOL    HW310551   4.241   2.223   4.219 -0.1129  0.7940  0.8572
    1SOL    MW410552   4.246   2.300   4.180 -0.3719  0.2594 -0.2613
    1SOL     OW10553   4.034   2.451   4.252 -0.5597 -0.3680 -0.0330
    1SOL    HW210554   4.047   2.452   4.347 -1.2131  0.2873  0.0574
    1SOL    HW310555   3.960   2.392   4.238 -1.5247  0.8006  0.0215
    1SOL    MW410556   4.025   2.443   4.263 -0.7734 -0.1271 -0.0138
    1SOL     OW10557   4.049   2.750   4.170  0.0699 -0.0637 -0.2372
    1SOL    HW210558   4.032   2.664   4.208 -0.9195  0.0503 -0.4048
    1SOL    HW310559   3.973   2.802   4.196 -0.3706  0.1591 -1.9620
    1SOL    MW410560   4.037   2.745   4.179 -0.1187 -0.0193 -0.4869
    1SOL     OW10561   4.307   2.837   4.284 -0.2767 -0.5348 -0.1702
    1SOL    HW210562   4.227   2.799   4.249  0.2042  0.0620 -1.9800
    1SOL    HW310563   4.376   2.776   4.256 -0.0125 -0.6379  0.7022
    1SOL    MW410564   4.306   2.824   4.276 -0.1788 -0.4697 -0.2937
    1SOL     OW10565   4.256   3.105   4.210  0.1069  0.4777  0.2758
    1SOL    HW210566   4.289   3.019   4.238  1.6776  0.9774  0.0049
    1SOL    HW310567   4.223   3.091   4.121 -1.5901 -0.3021  0.9993
    1SOL    MW410568   4.256   3.092   4.202  0.0901  0.4406  0.3357
    1SOL     OW10569   3.997   3.275   4.284 -0.2001  0.0817  0.2575
    1SOL    HW210570   4.067   3.213   4.308 -0.1629 -0.4836 -1.2413
    1SOL    HW310571   3.939   3.224   4.227 -0.2061  1.4076 -0.9455
    1SOL    MW410572   3.999   3.260   4.279 -0.1960  0.1822 -0.0992
    1SOL     OW10573   4.043   3.542   4.208 -0.0103 -0.0618 -0.3534
    1SOL    HW210574   4.028   3.452   4.239 -1.8262  0.3897  0.1257
    1SOL    HW310575   4.054   3.533   4.114 -1.9605 -0.5900 -0.5352
    1SOL    MW410576   4.043   3.529   4.200 -0.5069 -0.0720 -0.3147
    1SOL     OW10577   4.288   3.684   4.285  0.0901  0.4465 -0.4949
    1SOL    HW210578   4.278   3.763   4.231  1.1167  0.8704 -0.0834
    1SOL    HW310579   4.203   3.640   4.279 -0.0111  0.8225 -1.9268
    1SOL    MW410580   4.275   3.689   4.277  0.2122  0.5522 -0.6294
    1SOL     OW10581   4.301   3.959   4.182 -0.0214  0.2687 -0.3684
    1SOL    HW210582   4.207   3.965   4.198  0.0544 -1.2349  0.7004
    1SOL    HW310583   4.309   3.971   4.087 -1.4138 -0.9191 -0.6539
    1SOL    MW410584   4.289   3.962   4.171 -0.1955 -0.0863 -0.2651
    1SOL     OW10585   4.035   3.999   4.243  0.4036  0.2361  0.4818
    1SOL    HW210586   4.032   3.987   4.338  1.8051 -1.2277  0.3734
    1SOL    HW310587   3.947   3.978   4.213 -0.1858  1.2116  1.5191
    1SOL    MW410588   4.023   3.994   4.252  0.5107  0.1717  0.6046
    1SOL     OW10589   4.047   4.275   4.152 -0.2666  0.3075  0.2270
    1SOL    HW210590   4.122   4.313   4.196 -0.0331 -0.0297  0.1227
    1SOL    HW310591   4.046   4.183   4.180 -1.5603  0.6787  1.4769
    1SOL    MW410592   4.057   4.268   4.162 -0.4067  0.3119  0.3781
    1SOL     OW10593   3.535   4.249   4.834  0.1397 -0.0497  0.1845
    1SOL    HW210594   3.481   4.170   4.824  0.0989  0.1918 -1.8768
    1SOL    HW310595   3.620   4.225   4.798  0.6634  0.3302  1.1508
    1SOL    MW410596   3.539   4.235   4.828  0.2036  0.0324  0.0401
    1SOL     OW10597   4.457   0.063   4.558  0.2315  0.1534 -0.0259
    1SOL    HW210598   4.474   0.151   4.593  0.4090  0.0855  0.0569
    1SOL    HW310599   4.370   0.041   4.591  0.0349  0.4453 -0.3420
    1SOL    MW410600   4.448   0.072   4.567  0.2294  0.1830 -0.0563
    1SOL     OW10601   4.276   4.403   4.587  0.1698 -0.5036  0.6018
    1SOL    HW210602   4.255   4.495   4.602  0.2779 -0.2496 -0.7155
    1SOL    HW310603   4.200   4.355   4.619  0.1965  0.0337  1.4728
    1SOL    MW410604   4.263   4.409   4.593  0.1874 -0.3991  0.5426
    1SOL     OW10605   3.930   0.028   4.502  0.2858  0.4455 -0.2102
    1SOL    HW210606   3.956   0.031   4.409 -2.4060  1.1817 -0.9640
    1SOL    HW310607   3.859   0.091   4.509 -1.5706 -1.7947  1.7215
    1SOL    MW410608   3.924   0.037   4.490 -0.3140  0.2471 -0.0553
    1SOL     OW10609   3.943   1.634   4.463 -0.4080  0.3390  0.1939
    1SOL    HW210610   3.850   1.651   4.473 -0.1545  1.8940  0.0108
    1SOL    HW310611   3.985   1.690   4.527  0.4595  0.3968 -0.4109
    1SOL    MW410612   3.936   1.644   4.472 -0.2601  0.5518  0.0896
    1SOL     OW10613   0.285   0.335   4.700  0.1742  0.1005  0.0541
    1SOL    HW210614   0.330   0.260   4.661  0.8906  0.0650  0.9400
    1SOL    HW310615   0.202   0.298   4.732  0.3748 -0.2527  0.1758
    1SOL    MW410616   0.280   0.320   4.699  0.2952  0.0492  0.1869
    1SOL     OW10617   0.107   0.829   4.542  0.0315  0.6156  0.6035
    1SOL    HW210618   0.164   0.755   4.566  1.7957  1.3101 -1.2698
    1SOL    HW310619   0.070   0.804   4.458 -1.7226  0.6104  1.3522
    1SOL    MW410620   0.110   0.816   4.534  0.0328  0.7066  0.4554
    1SOL     OW10621   4.328   0.731   4.629  0.8401 -0.2214 -0.2638
    1SOL    HW210622   4.339   0.641   4.601 -1.0163 -1.0328  1.5485
    1SOL    HW310623   4.417   0.767   4.630  1.4927 -1.7320 -1.8330
    1SOL    MW410624   4.341   0.724   4.625  0.6814 -0.5278 -0.2317
    1SOL     OW10625   0.697   1.183   4.531 -0.1479 -0.0214 -0.0930
    1SOL    HW210626   0.700   1.271   4.568  0.3287  0.3977 -1.1106
    1SOL    HW310627   0.624   1.141   4.575 -1.1781  1.2984 -0.5010
    1SOL    MW410628   0.688   1.189   4.542 -0.2209  0.2079 -0.2809
    1SOL     OW10629   0.896   2.025   4.618  0.5583  0.3475 -0.2786
    1SOL    HW210630   0.977   2.013   4.568 -0.3314 -1.9090 -1.2663
    1SOL    HW310631   0.922   2.008   4.709  1.2457 -0.1355 -0.5583
    1SOL    MW410632   0.910   2.021   4.623  0.5316 -0.0136 -0.4454
    1SOL     OW10633   4.209   1.183   4.487 -0.3466 -0.1164  0.3430
    1SOL    HW210634   4.198   1.089   4.505  1.1090 -0.4003 -0.1446
    1SOL    HW310635   4.125   1.222   4.512 -0.7371 -1.4496  1.2174
    1SOL    MW410636   4.197   1.176   4.493 -0.2060 -0.3300  0.3943
    1SOL     OW10637   0.244   1.806   4.559  0.5410 -0.0753 -0.0463
    1SOL    HW210638   0.159   1.779   4.594  0.6203 -0.8485 -0.4245
    1SOL    HW310639   0.240   1.901   4.557 -0.3014 -0.1032 -0.0295
    1SOL    MW410640   0.232   1.815   4.564  0.4403 -0.1811 -0.0935
    1SOL     OW10641   0.473   1.700   4.228  0.1360 -0.2781 -0.0882
    1SOL    HW210642   0.390   1.652   4.227 -0.0858  0.0741  0.8506
    1SOL    HW310643   0.539   1.633   4.213 -0.2381 -0.7443  0.3230
    1SOL    MW410644   0.471   1.685   4.226  0.0574 -0.2931  0.0896
    1SOL     OW10645   0.239   2.109   4.514 -0.3381 -0.1686  0.1221
    1SOL    HW210646   0.314   2.162   4.490 -0.7112  1.1645  1.8014
    1SOL    HW310647   0.166   2.171   4.521 -0.9483 -0.9984  1.3510
    1SOL    MW410648   0.239   2.124   4.512 -0.4679 -0.1023  0.5054
    1SOL     OW10649   4.409   2.186   4.741 -0.4656  0.1522  0.3709
    1SOL    HW210650   4.424   2.267   4.790  1.4449  0.0403  0.0034
    1SOL    HW310651   4.442   2.205   4.653 -0.1324 -0.9834  0.2525
    1SOL    MW410652   4.415   2.200   4.736 -0.1693 -0.0124  0.3066
    1SOL     OW10653   0.198   2.758   4.578 -0.0589  0.6716  0.7531
    1SOL    HW210654   0.221   2.849   4.598  1.2078  0.5772 -0.1856
    1SOL    HW310655   0.266   2.729   4.518 -1.1961 -0.4910 -0.0039
    1SOL    MW410656   0.210   2.766   4.573 -0.0418  0.5054  0.5293
    1SOL     OW10657   0.304   3.029   4.492 -0.1018 -0.0932 -0.7898
    1SOL    HW210658   0.295   2.965   4.422 -0.7888 -1.4623  0.5365
    1SOL    HW310659   0.222   3.078   4.492  0.7246  1.3691 -2.3224
    1SOL    MW410660   0.292   3.027   4.483 -0.0834 -0.0811 -0.8173
    1SOL     OW10661   0.046   2.313   4.508 -0.3940  0.3447 -0.0729
    1SOL    HW210662   0.054   2.319   4.413  1.5092 -0.5054  0.0202
    1SOL    HW310663   0.103   2.381   4.542 -0.6822  0.3160  0.4860
    1SOL    MW410664   0.054   2.322   4.500 -0.1809  0.2286  0.0134
    1SOL     OW10665   4.321   3.304   4.700  0.4208 -0.0997  0.0719
    1SOL    HW210666   4.323   3.208   4.703  0.8772 -0.0669  1.0894
    1SOL    HW310667   4.413   3.329   4.693  0.2529  0.2522 -0.9163
    1SOL    MW410668   4.333   3.294   4.700  0.4587 -0.0491  0.0758
    1SOL     OW10669   0.201   3.611   4.564 -0.6285 -0.1370  0.6907
    1SOL    HW210670   0.222   3.697   4.601  0.7825  0.6767 -1.8206
    1SOL    HW310671   0.195   3.627   4.470 -1.0603 -2.6761  0.2517
    1SOL    MW410672   0.203   3.625   4.556 -0.4993 -0.3648  0.3009
    1SOL     OW10673   4.324   3.873   4.593  0.2631  0.4664 -0.1980
    1SOL    HW210674   4.244   3.915   4.563  0.6449  1.4488  0.1486
    1SOL    HW310675   4.319   3.784   4.558 -0.6233  0.7497 -0.7968
    1SOL    MW410676   4.313   3.867   4.584  0.1965  0.6332 -0.2317
    1SOL     OW10677   4.188   0.233   4.832 -0.0733 -0.0514 -0.5000
    1SOL    HW210678   4.163   0.254   4.922  0.0034 -1.9400 -0.0169
    1SOL    HW310679   4.142   0.297   4.778 -1.0910  0.3285  0.8134
    1SOL    MW410680   4.179   0.244   4.836 -0.1974 -0.2505 -0.2627
    1SOL     OW10681   3.850   0.443   4.506 -0.0271 -0.2897 -0.7498
    1SOL    HW210682   3.794   0.366   4.512 -0.3509 -0.1528 -1.8880
    1SOL    HW310683   3.809   0.507   4.564 -1.6730  0.1717 -2.3603
    1SOL    MW410684   3.837   0.441   4.515 -0.2871 -0.2108 -1.1129
    1SOL     OW10685   3.786   4.212   4.678 -0.0370  0.3468 -0.4753
    1SOL    HW210686   3.730   4.158   4.622 -1.7567  1.7273 -0.1182
    1SOL    HW310687   3.796   4.294   4.629  0.3520  0.7040  0.2030
    1SOL    MW410688   3.780   4.216   4.664 -0.2124  0.5755 -0.3386
    1SOL     OW10689   4.063   4.221   4.661  0.0351  0.1755  0.2666
    1SOL    HW210690   4.125   4.176   4.718  0.9393  0.3139 -0.5926
    1SOL    HW310691   3.979   4.214   4.706  0.0356 -2.9275 -0.1541
    1SOL    MW410692   4.060   4.214   4.675  0.1540 -0.2151  0.0978
    1SOL     OW10693   0.400   0.105   4.553 -0.4039 -0.1953  0.3941
    1SOL    HW210694   0.493   0.084   4.567 -0.2800  0.5554  0.7167
    1SOL    HW310695   0.356   0.020   4.556  0.1542 -0.4624  1.1577
    1SOL    MW410696   0.407   0.091   4.555 -0.3140 -0.1315  0.5374
    1SOL     OW10697   0.169   1.103   4.501 -0.2818 -0.0453  0.0641
    1SOL    HW210698   0.095   1.156   4.530 -0.3642  0.6554 -1.3953
    1SOL    HW310699   0.153   1.017   4.539 -0.6758  0.6978  1.6151
    1SOL    MW410700   0.157   1.099   4.510 -0.3447  0.1451  0.0768
    1SOL     OW10701   1.391   0.980   4.702  0.0120  0.0893  0.4323
    1SOL    HW210702   1.372   0.925   4.625  0.6954  0.8619 -0.3020
    1SOL    HW310703   1.312   0.976   4.754 -0.4832 -0.4160 -0.3406
    1SOL    MW410704   1.378   0.972   4.698  0.0368  0.1246  0.2337
    1SOL     OW10705   0.758   0.719   4.548  0.2485 -0.2693  0.6535
    1SOL    HW210706   0.666   0.740   4.566  0.2797  0.4337  0.0000
    1SOL    HW310707   0.759   0.690   4.457  0.6039 -0.7386  0.8029
    1SOL    MW410708   0.746   0.718   4.539  0.2996 -0.2384  0.5879
    1SOL     OW10709   1.153   1.009   4.840 -0.0624 -0.2825  0.8062
    1SOL    HW210710   1.102   1.066   4.782  0.7286  0.9206  1.2743
    1SOL    HW310711   1.099   0.930   4.850 -0.7419 -0.0167 -0.6054
    1SOL    MW410712   1.139   1.006   4.833 -0.0477 -0.0887  0.6814
    1SOL     OW10713   0.490   0.785   4.532 -0.3045 -0.2951 -0.0304
    1SOL    HW210714   0.416   0.728   4.550  0.1211 -1.0479 -0.6731
    1SOL    HW310715   0.483   0.806   4.439 -0.4892  0.7497  0.2103
    1SOL    MW410716   0.479   0.780   4.522 -0.2727 -0.2565 -0.0834
    1SOL     OW10717   1.978   0.987   4.732 -0.6089 -0.1265 -0.3915
    1SOL    HW210718   2.043   1.053   4.708  0.4426 -1.3983 -1.0663
    1SOL    HW310719   2.008   0.906   4.690 -1.2874 -1.2985  1.3095
    1SOL    MW410720   1.991   0.985   4.724 -0.5597 -0.4489 -0.2561
    1SOL     OW10721   0.681   1.453   4.602 -0.1038 -0.0376 -0.0931
    1SOL    HW210722   0.765   1.498   4.601  0.1593 -0.3828  2.8002
    1SOL    HW310723   0.616   1.524   4.599  0.2963  0.3027 -0.7169
    1SOL    MW410724   0.683   1.469   4.602 -0.0163 -0.0384  0.2069
    1SOL     OW10725   1.360   1.284   4.675 -0.0155  0.2429 -0.1864
    1SOL    HW210726   1.376   1.194   4.702 -0.2493  0.0383 -0.7210
    1SOL    HW310727   1.269   1.285   4.647  0.0406  0.6019 -0.3559
    1SOL    MW410728   1.350   1.272   4.675 -0.0389  0.2635 -0.2794
    1SOL     OW10729   0.943   1.549   4.614 -0.5039 -0.3182 -0.1541
    1SOL    HW210730   0.902   1.634   4.598 -0.4917 -0.2652  0.0908
    1SOL    HW310731   0.996   1.562   4.692 -0.5144 -0.5564 -0.1056
    1SOL    MW410732   0.945   1.562   4.622 -0.5037 -0.3426 -0.1154
    1SOL     OW10733   0.724   2.210   4.491  0.0833  0.1741 -0.2907
    1SOL    HW210734   0.756   2.295   4.520  1.0469  0.0319 -0.8955
    1SOL    HW310735   0.782   2.146   4.534  1.3697 -0.0425 -2.2757
    1SOL    MW410736   0.736   2.213   4.501  0.3802  0.1268 -0.6323
    1SOL     OW10737   1.227   1.802   4.824  0.3561  0.2180  0.1520
    1SOL    HW210738   1.261   1.713   4.810  0.6627  0.6349 -1.9811
    1SOL    HW310739   1.274   1.855   4.760 -1.4311  1.5345 -0.0880
    1SOL    MW410740   1.238   1.797   4.814  0.1607  0.4468 -0.1612
    1SOL     OW10741   0.423   2.299   4.465 -0.1057  0.2172 -0.5062
    1SOL    HW210742   0.507   2.278   4.506 -0.5672  0.4950  0.5924
    1SOL    HW310743   0.444   2.370   4.403  0.3021  0.9935  0.5043
    1SOL    MW410744   0.437   2.306   4.462 -0.1128  0.3562 -0.2284
    1SOL     OW10745   1.082   2.779   4.514  0.6012 -0.0622 -0.6338
    1SOL    HW210746   1.115   2.845   4.574  0.6056  0.5087 -1.2597
    1SOL    HW310747   1.125   2.798   4.430  1.4402 -1.5212 -0.5615
    1SOL    MW410748   1.092   2.790   4.511  0.7125 -0.1793 -0.7067
    1SOL     OW10749   0.708   2.665   4.629  0.4436  0.7061  0.1239
    1SOL    HW210750   0.759   2.589   4.603  0.5923  1.3532 -1.5599
    1SOL    HW310751   0.698   2.657   4.724  1.7158 -0.6153  0.1520
    1SOL    MW410752   0.713   2.654   4.638  0.6312  0.6173 -0.0944
    1SOL     OW10753   1.050   3.231   4.628 -0.3967 -0.4138  0.0951
    1SOL    HW210754   1.048   3.325   4.648  1.2065 -0.6428  1.4561
    1SOL    HW310755   0.960   3.210   4.603 -0.5818  1.6607 -1.1229
    1SOL    MW410756   1.037   3.241   4.628 -0.2095 -0.1700  0.1140
    1SOL     OW10757   0.523   3.225   4.489  0.0088  0.0627 -0.1943
    1SOL    HW210758   0.498   3.313   4.516 -1.6710 -0.4769  0.0769
    1SOL    HW310759   0.458   3.168   4.529  0.5301 -1.2215 -1.1249
    1SOL    MW410760   0.511   3.229   4.498 -0.1440 -0.1779 -0.2813
    1SOL     OW10761   0.911   4.529   4.661  0.1242  0.1560  0.2464
    1SOL    HW210762   0.965   4.450   4.667 -0.2673 -0.1873 -0.6684
    1SOL    HW310763   0.850   4.522   4.734 -0.2382 -0.6512 -0.1208
    1SOL    MW410764   0.910   4.518   4.671  0.0247  0.0038  0.0772
    1SOL     OW10765   0.232   2.473   4.633 -0.1245 -0.6448  0.6240
    1SOL    HW210766   0.316   2.428   4.625 -0.2960 -0.8702  0.0984
    1SOL    HW310767   0.253   2.566   4.621  0.0241 -0.7156  0.3438
    1SOL    MW410768   0.246   2.479   4.631 -0.1275 -0.6838  0.5174
    1SOL     OW10769   0.112   3.359   4.642  0.2094  0.0752 -0.2891
    1SOL    HW210770   0.143   3.441   4.603  0.0834 -0.0077 -0.5676
    1SOL    HW310771   0.145   3.361   4.731  1.0296 -0.0207 -0.5831
    1SOL    MW410772   0.120   3.370   4.648  0.3010  0.0517 -0.3648
    1SOL     OW10773   0.722   4.367   4.539  0.2890  0.0874  0.0230
    1SOL    HW210774   0.699   4.397   4.451 -0.9730 -0.1350  0.2652
    1SOL    HW310775   0.794   4.424   4.566  2.3428 -1.4321 -2.0881
    1SOL    MW410776   0.728   4.379   4.531  0.3935 -0.1426 -0.2236
    1SOL     OW10777   0.060   4.323   4.546 -0.2507  0.0974  0.0992
    1SOL    HW210778   0.045   4.232   4.571  0.7573 -0.2666 -0.6035
    1SOL    HW310779  -0.025   4.365   4.557 -0.4240 -0.6135  1.7236
    1SOL    MW410780   0.047   4.317   4.551 -0.1406 -0.0439  0.2208
    1SOL     OW10781   0.062   4.041   4.569  0.7570 -0.1396 -0.0624
    1SOL    HW210782   0.137   3.992   4.602  0.2816 -0.3772  0.6995
    1SOL    HW310783  -0.012   3.982   4.582  0.5381 -0.1657 -1.4324
    1SOL    MW410784   0.062   4.027   4.575  0.6654 -0.1745 -0.1426
    1SOL     OW10785   0.199   4.569   4.564 -0.4237 -0.4492 -0.4060
    1SOL    HW210786   0.174   4.477   4.573  0.4768 -0.8847 -2.2953
    1SOL    HW310787   0.118   4.617   4.585 -1.0917 -1.6680 -0.1206
    1SOL    MW410788   0.185   4.563   4.568 -0.3930 -0.6676 -0.6180
    1SOL     OW10789   0.622   0.379   4.536 -0.3611  0.4932 -0.7822
    1SOL    HW210790   0.545   0.420   4.575 -0.6726  0.7993 -1.6906
    1SOL    HW310791   0.642   0.434   4.460  0.8829  0.5380 -0.4290
    1SOL    MW410792   0.614   0.392   4.531 -0.2380  0.5395 -0.8554
    1SOL     OW10793   1.040   0.069   4.530 -0.2777  0.4636 -0.3994
    1SOL    HW210794   0.993   0.099   4.452 -0.4229  0.2136 -0.4095
    1SOL    HW310795   0.981   0.005   4.570 -0.0328  0.3005 -0.2987
    1SOL    MW410796   1.026   0.065   4.525 -0.2646  0.4091 -0.3872
    1SOL     OW10797   1.011   0.833   4.571  0.2388  0.1459  0.1925
    1SOL    HW210798   0.994   0.847   4.477  0.5844  0.7472  0.2191
    1SOL    HW310799   0.931   0.792   4.603  0.7424 -1.5449 -0.6955
    1SOL    MW410800   0.998   0.830   4.563  0.3509  0.0022  0.0792
    1SOL     OW10801   1.725   1.043   4.627  0.3803 -0.3840  0.1734
    1SOL    HW210802   1.653   1.028   4.688  0.2797 -0.1059  0.1218
    1SOL    HW310803   1.802   1.012   4.674  0.4534  0.8044  0.8607
    1SOL    MW410804   1.726   1.037   4.642  0.3766 -0.1905  0.2575
    1SOL     OW10805   1.735   0.806   4.480  0.0640 -0.2702  0.1077
    1SOL    HW210806   1.747   0.890   4.524  0.1164  0.6242 -1.5635
    1SOL    HW310807   1.732   0.828   4.387 -0.9800 -2.0089 -0.2928
    1SOL    MW410808   1.736   0.820   4.474 -0.0669 -0.3816 -0.1650
    1SOL     OW10809   0.460   1.062   4.599  0.0470  0.1466  0.2534
    1SOL    HW210810   0.447   0.971   4.573  1.3037 -0.1189  0.5201
    1SOL    HW310811   0.383   1.108   4.566 -1.4708 -1.3185  1.6264
    1SOL    MW410812   0.449   1.056   4.591  0.0126 -0.0818  0.4692
    1SOL     OW10813   0.791   1.777   4.546 -0.2223 -0.3339 -0.0964
    1SOL    HW210814   0.700   1.769   4.575  0.1657 -0.1835  1.1947
    1SOL    HW310815   0.818   1.865   4.573  0.5289 -0.6394  0.1572
    1SOL    MW410816   0.782   1.787   4.553 -0.0720 -0.3543  0.1078
    1SOL     OW10817   0.977   1.102   4.625 -0.1954  0.2449  0.1622
    1SOL    HW210818   0.886   1.121   4.600 -0.3022 -0.7729 -0.2453
    1SOL    HW310819   0.982   1.007   4.625  0.6282  0.2912  1.1077
    1SOL    MW410820   0.965   1.092   4.621 -0.1009  0.1167  0.2327
    1SOL     OW10821   1.790   1.340   4.584 -0.5255  0.4584  0.1679
    1SOL    HW210822   1.711   1.366   4.537 -0.3776 -0.3366 -0.5291
    1SOL    HW310823   1.770   1.253   4.620  0.9158 -0.9449 -2.2323
    1SOL    MW410824   1.777   1.332   4.583 -0.3159  0.1684 -0.2408
    1SOL     OW10825   1.116   1.344   4.537 -0.6037 -0.2403  0.1098
    1SOL    HW210826   1.071   1.262   4.561 -0.8117  0.1914  1.2480
    1SOL    HW310827   1.052   1.413   4.557 -0.3419  0.2216 -0.6244
    1SOL    MW410828   1.101   1.342   4.543 -0.5965 -0.1224  0.1636
    1SOL     OW10829   1.107   2.497   4.683  0.0336 -0.2985  0.3322
    1SOL    HW210830   1.124   2.591   4.674 -2.4283  0.1097 -0.3515
    1SOL    HW310831   1.172   2.455   4.626  0.6259  1.0176  0.0211
    1SOL    MW410832   1.118   2.504   4.674 -0.2130 -0.0708  0.2012
    1SOL     OW10833   1.618   2.843   4.529 -0.2450 -0.1271  0.1906
    1SOL    HW210834   1.646   2.752   4.533 -0.6677 -0.2982 -0.6697
    1SOL    HW310835   1.697   2.893   4.509 -0.2334 -0.4260 -0.5041
    1SOL    MW410836   1.632   2.838   4.527 -0.2992 -0.1891 -0.0143
    1SOL     OW10837   1.587   2.838   4.253  0.2610  0.2157  0.4595
    1SOL    HW210838   1.596   2.931   4.232 -1.7112  0.4851  0.7131
    1SOL    HW310839   1.613   2.832   4.345  0.1041  0.5712  0.5297
    1SOL    MW410840   1.592   2.849   4.262 -0.0199  0.2980  0.5021
    1SOL     OW10841   1.072   3.505   4.584 -0.2962  0.1696 -0.8059
    1SOL    HW210842   1.160   3.500   4.621 -0.6447 -1.8151 -0.2043
    1SOL    HW310843   1.085   3.531   4.493  0.7635  1.8890 -0.1893
    1SOL    MW410844   1.085   3.508   4.577 -0.2024  0.1347 -0.6452
    1SOL     OW10845   0.825   2.877   4.505  0.3771  0.6379  0.1473
    1SOL    HW210846   0.910   2.837   4.490  0.8341  1.0939  1.5289
    1SOL    HW310847   0.776   2.812   4.556 -0.3337  0.1170 -1.1583
    1SOL    MW410848   0.830   2.863   4.509  0.3437  0.6292  0.1569
    1SOL     OW10849   0.520   3.959   4.525  0.5738  0.5336 -0.0735
    1SOL    HW210850   0.573   4.028   4.563 -0.5694  1.4824 -0.1811
    1SOL    HW310851   0.499   3.989   4.437  0.8828 -0.3883 -0.4678
    1SOL    MW410852   0.524   3.972   4.518  0.4638  0.5372 -0.1397
    1SOL     OW10853   1.150   2.972   4.709 -0.2223  0.1652 -0.5043
    1SOL    HW210854   1.246   2.972   4.713 -0.1786 -0.7634 -1.4786
    1SOL    HW310855   1.125   3.063   4.728  0.8695  0.5290 -0.8056
    1SOL    MW410856   1.159   2.984   4.712 -0.0726  0.0911 -0.6723
    1SOL     OW10857   0.796   3.154   4.518  0.2156 -0.2155 -0.1259
    1SOL    HW210858   0.702   3.172   4.527  0.3726  0.7152 -0.3363
    1SOL    HW310859   0.804   3.060   4.537 -0.8746 -0.4851 -0.9294
    1SOL    MW410860   0.784   3.144   4.522  0.0924 -0.1280 -0.2594
    1SOL     OW10861   1.533   3.566   4.517  0.2897 -0.2629 -0.1468
    1SOL    HW210862   1.457   3.533   4.565 -0.0053  0.4647 -0.1098
    1SOL    HW310863   1.598   3.495   4.522 -0.1667 -0.6453  0.3320
    1SOL    MW410864   1.532   3.552   4.524  0.1905 -0.2177 -0.0787
    1SOL     OW10865   0.631   3.698   4.525 -0.5708  0.0466 -0.1643
    1SOL    HW210866   0.720   3.702   4.561 -1.3298  1.0702  1.7045
    1SOL    HW310867   0.593   3.783   4.549 -1.0771  0.8648 -3.6122
    1SOL    MW410868   0.638   3.710   4.533 -0.7377  0.2894 -0.3729
    1SOL     OW10869   0.279   3.884   4.654 -0.0788 -0.0199  0.6399
    1SOL    HW210870   0.301   3.905   4.745  0.6710  0.5695  0.3291
    1SOL    HW310871   0.355   3.913   4.604 -0.4493 -0.4314 -0.1684
    1SOL    MW410872   0.292   3.890   4.659 -0.0288  0.0033  0.4921
    1SOL     OW10873   0.689   4.120   4.657 -0.1750 -0.0687  0.1235
    1SOL    HW210874   0.774   4.079   4.641 -0.8443 -1.4607  0.1002
    1SOL    HW310875   0.701   4.211   4.628  0.9888 -0.5217 -0.8720
    1SOL    MW410876   0.702   4.127   4.651 -0.1098 -0.3119 -0.0105
    1SOL     OW10877   0.672   0.100   4.565 -0.0476 -0.1670 -0.1109
    1SOL    HW210878   0.699   0.069   4.478 -2.2382 -0.2744 -0.7910
    1SOL    HW310879   0.649   0.192   4.551 -1.7897 -0.5587  0.0092
    1SOL    MW410880   0.672   0.108   4.551 -0.5665 -0.2328 -0.1850
    1SOL     OW10881   1.344   3.444   4.663 -0.4062 -0.1838  0.3558
    1SOL    HW210882   1.387   3.424   4.747  0.9505  0.2519 -0.2220
    1SOL    HW310883   1.335   3.359   4.620 -2.3777 -0.5924  1.5259
    1SOL    MW410884   1.349   3.430   4.669 -0.4873 -0.1800  0.4339
    1SOL     OW10885   1.249   4.550   4.518  0.2005 -0.2882  0.4410
    1SOL    HW210886   1.325   4.608   4.521 -0.0480  0.2365 -1.8173
    1SOL    HW310887   1.175   4.607   4.539 -0.0340  0.2649 -1.6975
    1SOL    MW410888   1.249   4.565   4.521  0.1369 -0.1464 -0.1392
    1SOL     OW10889   1.055   4.291   4.653 -0.0659  0.4375 -0.2349
    1SOL    HW210890   1.011   4.207   4.636 -0.4187  0.4891  0.3911
    1SOL    HW310891   1.147   4.275   4.631 -0.0267 -0.2923  0.4367
    1SOL    MW410892   1.061   4.278   4.648 -0.1073  0.3481 -0.0634
    1SOL     OW10893   0.895   0.479   4.578 -0.1222  0.3246  0.4590
    1SOL    HW210894   0.845   0.561   4.572 -0.3284  0.1822  0.2277
    1SOL    HW310895   0.829   0.411   4.590 -0.0565  0.0161 -0.9010
    1SOL    MW410896   0.880   0.481   4.579 -0.1408  0.2651  0.2489
    1SOL     OW10897   1.559   0.158   4.509  0.4280 -0.6085  0.2989
    1SOL    HW210898   1.467   0.177   4.493  0.4614 -0.0723  0.7316
    1SOL    HW310899   1.561   0.065   4.532 -0.0479 -0.5335  0.6539
    1SOL    MW410900   1.547   0.149   4.510  0.3695 -0.5278  0.4029
    1SOL     OW10901   1.176   0.507   4.523  0.4182  0.2699 -0.2711
    1SOL    HW210902   1.191   0.601   4.538 -1.0509  0.7529 -1.6689
    1SOL    HW310903   1.088   0.491   4.557  0.7434 -0.6446  0.1416
    1SOL    MW410904   1.166   0.517   4.529  0.2673  0.2129 -0.4010
    1SOL     OW10905   2.010   1.670   4.800  0.5518 -0.0371  0.1463
    1SOL    HW210906   2.090   1.621   4.779  1.0633  0.2636  1.3494
    1SOL    HW310907   1.939   1.614   4.770  1.2065 -0.4262 -0.6966
    1SOL    MW410908   2.012   1.656   4.794  0.7057 -0.0488  0.1941
    1SOL     OW10909   1.287   0.798   4.520 -0.2683  0.1952 -0.0810
    1SOL    HW210910   1.294   0.851   4.441  1.1629 -0.8148 -0.6602
    1SOL    HW310911   1.197   0.812   4.551 -0.7257  0.8926 -1.6789
    1SOL    MW410912   1.276   0.807   4.514 -0.1400  0.1540 -0.3681
    1SOL     OW10913   2.032   0.456   4.560  0.1152  0.2316  0.1068
    1SOL    HW210914   2.100   0.397   4.591  0.6352  0.0169 -1.4040
    1SOL    HW310915   1.953   0.402   4.557  0.4423 -0.2151 -0.6190
    1SOL    MW410916   2.030   0.441   4.563  0.2267  0.1443 -0.1884
    1SOL     OW10917   1.528   1.400   4.489 -0.4043 -0.0257 -0.4709
    1SOL    HW210918   1.476   1.350   4.552  1.4449 -1.2746  0.1285
    1SOL    HW310919   1.501   1.491   4.502  0.2244 -0.2079  2.4699
    1SOL    MW410920   1.518   1.406   4.499 -0.0775 -0.2145 -0.0033
    1SOL     OW10921   1.433   1.668   4.512  0.0532 -0.2122 -0.2815
    1SOL    HW210922   1.524   1.700   4.510 -0.2026  0.5966  0.5882
    1SOL    HW310923   1.405   1.670   4.420  0.6847  0.2132 -0.4680
    1SOL    MW410924   1.442   1.673   4.500  0.1028 -0.0495 -0.1917
    1SOL     OW10925   1.435   3.014   4.688 -0.6184 -0.0250 -0.1965
    1SOL    HW210926   1.505   3.069   4.725 -1.2746 -0.3731  1.6318
    1SOL    HW310927   1.481   2.941   4.646  0.2395  1.5134 -2.0152
    1SOL    MW410928   1.450   3.012   4.688 -0.5919  0.1321 -0.1950
    1SOL     OW10929   2.227   2.427   4.259  0.1979  0.1288 -0.4957
    1SOL    HW210930   2.309   2.441   4.211  1.0433  1.4721  1.3012
    1SOL    HW310931   2.193   2.514   4.276 -0.0128 -0.3033  1.4420
    1SOL    MW410932   2.234   2.440   4.255  0.2816  0.2494 -0.0029
    1SOL     OW10933   0.859   2.464   4.563  0.0591  0.0736  0.5073
    1SOL    HW210934   0.946   2.471   4.602  0.4068  1.0410 -0.4374
    1SOL    HW310935   0.873   2.472   4.469 -0.9178 -0.9976  0.2515
    1SOL    MW410936   0.872   2.466   4.556 -0.0240  0.0598  0.3495
    1SOL     OW10937   1.250   4.038   4.530 -0.1602 -0.1732  0.4571
    1SOL    HW210938   1.327   3.982   4.539 -0.1590 -0.9743 -3.4126
    1SOL    HW310939   1.284   4.127   4.538  1.1136 -0.5337 -0.6856
    1SOL    MW410940   1.265   4.042   4.532  0.0080 -0.3262 -0.2046
    1SOL     OW10941   1.272   2.326   4.534  0.7745  0.1087  0.0986
    1SOL    HW210942   1.276   2.343   4.440  1.7548 -1.1874 -0.1015
    1SOL    HW310943   1.362   2.312   4.561  0.3892 -0.8090  0.9822
    1SOL    MW410944   1.284   2.326   4.525  0.8531 -0.1833  0.1888
    1SOL     OW10945   1.632   1.977   4.568  0.2806 -0.0974 -0.1178
    1SOL    HW210946   1.692   1.902   4.566  0.2396 -0.1286 -0.1721
    1SOL    HW310947   1.598   1.982   4.478 -0.7309 -0.8347  0.2154
    1SOL    MW410948   1.636   1.968   4.556  0.1417 -0.1987 -0.0811
    1SOL     OW10949   1.314   3.204   4.519 -0.2367 -0.4787  0.2790
    1SOL    HW210950   1.223   3.208   4.547  0.0526  0.9404  1.0826
    1SOL    HW310951   1.355   3.141   4.578 -0.6189 -0.8929  0.1081
    1SOL    MW410952   1.307   3.196   4.530 -0.2490 -0.3462  0.3624
    1SOL     OW10953   1.497   3.872   4.535  0.3956  0.7003  0.0361
    1SOL    HW210954   1.524   3.780   4.542  0.8821  0.8190 -0.2559
    1SOL    HW310955   1.579   3.921   4.530  0.1350  0.8623 -3.5793
    1SOL    MW410956   1.512   3.866   4.535  0.4253  0.7374 -0.4792
    1SOL     OW10957   0.884   3.718   4.615 -0.1263  0.1954 -0.1736
    1SOL    HW210958   0.943   3.793   4.616 -0.0667  0.1772  2.0685
    1SOL    HW310959   0.942   3.642   4.620 -0.2595  0.1464  0.9742
    1SOL    MW410960   0.900   3.718   4.616 -0.1361  0.1867  0.2732
    1SOL     OW10961   2.441   3.721   4.724  0.1848 -0.0017 -0.1237
    1SOL    HW210962   2.355   3.704   4.686  0.9536 -2.3671 -0.8987
    1SOL    HW310963   2.454   3.650   4.787  0.8106  1.3637  1.3154
    1SOL    MW410964   2.432   3.709   4.728  0.3686 -0.1335 -0.0358
    1SOL     OW10965   1.717   3.376   4.516  0.1823  0.2823  0.3703
    1SOL    HW210966   1.794   3.421   4.551  1.7173 -1.7364 -0.3637
    1SOL    HW310967   1.746   3.338   4.433 -1.1936 -1.7396  0.7762
    1SOL    MW410968   1.731   3.377   4.510  0.2033 -0.2508  0.3271
    1SOL     OW10969   2.333   3.320   4.363 -0.2030  0.3665  0.1283
    1SOL    HW210970   2.426   3.324   4.387  0.4658  1.2667 -2.3765
    1SOL    HW310971   2.311   3.227   4.367  0.7499  0.1712  0.9849
    1SOL    MW410972   2.343   3.308   4.367  0.0107  0.4597 -0.0892
    1SOL     OW10973   0.982   3.991   4.558 -0.4138 -0.2853  0.2163
    1SOL    HW210974   0.944   3.982   4.471 -0.6566 -0.4043  0.3351
    1SOL    HW310975   1.075   4.011   4.542 -0.6460  0.5772 -0.0807
    1SOL    MW410976   0.990   3.993   4.544 -0.4765 -0.1869  0.1926
    1SOL     OW10977   1.588   4.323   4.699 -0.0360  0.2631  0.2978
    1SOL    HW210978   1.548   4.299   4.782 -0.3427 -0.8027 -0.1563
    1SOL    HW310979   1.647   4.251   4.678  0.6574  0.9128 -0.0127
    1SOL    MW410980   1.590   4.311   4.707  0.0150  0.2084  0.1969
    1SOL     OW10981   2.310   0.318   4.640 -0.1173  0.3585 -0.0658
    1SOL    HW210982   2.386   0.356   4.598  0.2317 -0.2027  0.0596
    1SOL    HW310983   2.309   0.357   4.728 -0.1027  0.5336 -0.1432
    1SOL    MW410984   2.320   0.329   4.646 -0.0694  0.3076 -0.0596
    1SOL     OW10985   1.294   0.238   4.478 -0.3527 -0.0213  0.5338
    1SOL    HW210986   1.291   0.334   4.480 -0.4151 -0.0529  2.7023
    1SOL    HW310987   1.207   0.211   4.504 -0.0422 -0.6742  0.8918
    1SOL    MW410988   1.282   0.247   4.481 -0.3200 -0.1116  0.8674
    1SOL     OW10989   1.758   0.374   4.537 -0.8847  0.1132  0.2594
    1SOL    HW210990   1.712   0.294   4.561 -0.7300 -0.4012 -1.1309
    1SOL    HW310991   1.691   0.431   4.500 -0.9222  0.4893  0.8894
    1SOL    MW410992   1.743   0.371   4.536 -0.8693  0.0950  0.1593
    1SOL     OW10993   2.327   0.059   4.506 -0.1130 -0.7585 -0.3512
    1SOL    HW210994   2.284   0.062   4.420 -0.3722 -1.5695 -0.2551
    1SOL    HW310995   2.305   0.143   4.546  0.1443 -0.3069 -1.1431
    1SOL    MW410996   2.318   0.070   4.500 -0.1135 -0.8059 -0.4425
    1SOL     OW10997   2.002   0.743   4.545 -0.2247 -0.2403  0.3951
    1SOL    HW210998   2.013   0.649   4.556  0.0379 -0.3245 -0.5488
    1SOL    HW310999   1.908   0.755   4.536 -0.1357 -0.6085 -1.1493
    1SOL    MW411000   1.991   0.732   4.546 -0.1785 -0.3000  0.0672
    1SOL     OW11001   1.522   0.589   4.492 -0.3459 -0.3242  0.4146
    1SOL    HW211002   1.582   0.662   4.506 -0.9340  0.4961 -1.2316
    1SOL    HW311003   1.446   0.608   4.547 -0.1019 -0.1818  0.7042
    1SOL    MW411004   1.520   0.601   4.501 -0.3912 -0.1971  0.2356
    1SOL     OW11005   2.232   1.564   4.638 -0.2263 -0.1651  0.3420
    1SOL    HW211006   2.244   1.629   4.569  0.0097 -0.3831  0.1772
    1SOL    HW311007   2.170   1.501   4.601  0.6040 -0.7804 -0.0231
    1SOL    MW411008   2.226   1.564   4.624 -0.0858 -0.2750  0.2723
    1SOL     OW11009   0.989   1.965   4.873 -0.1027  0.4501 -0.2484
    1SOL    HW211010   1.013   2.031   4.938 -0.5665  0.1156  0.2695
    1SOL    HW311011   1.072   1.926   4.845 -0.0120 -0.4590  1.2613
    1SOL    MW411012   1.003   1.968   4.878 -0.1519  0.2859  0.0191
    1SOL     OW11013   1.732   1.566   4.749 -0.5649 -0.0465 -0.3923
    1SOL    HW211014   1.739   1.475   4.720  0.7363  0.1818 -0.7989
    1SOL    HW311015   1.660   1.565   4.813 -0.8247 -1.2777 -0.6969
    1SOL    MW411016   1.724   1.554   4.754 -0.4276 -0.1787 -0.4869
    1SOL     OW11017   1.151   2.081   4.479 -0.6735  0.0197  0.1557
    1SOL    HW211018   1.233   2.041   4.509 -1.0900 -1.1051 -0.1760
    1SOL    HW311019   1.160   2.174   4.500  1.0184  0.0406 -0.5786
    1SOL    MW411020   1.163   2.088   4.485 -0.5052 -0.1261  0.0157
    1SOL     OW11021   1.703   1.715   4.518  0.5887 -0.2061 -0.4285
    1SOL    HW211022   1.723   1.667   4.598  0.9863 -0.4344 -0.6601
    1SOL    HW311023   1.767   1.683   4.454 -1.4407 -2.0637 -1.6251
    1SOL    MW411024   1.714   1.704   4.520  0.3735 -0.4812 -0.6170
    1SOL     OW11025   2.033   2.030   4.233 -0.1079 -0.2089 -0.3330
    1SOL    HW211026   2.018   2.019   4.327  0.1815  0.2449 -0.2339
    1SOL    HW311027   2.039   2.125   4.220  0.7566 -0.3095 -0.6761
    1SOL    MW411028   2.032   2.041   4.243  0.0441 -0.1621 -0.3653
    1SOL     OW11029   1.347   1.923   4.602  0.1664 -0.1032  0.1863
    1SOL    HW211030   1.361   1.836   4.565 -0.1916  0.6442 -1.8272
    1SOL    HW311031   1.434   1.953   4.628  0.4739 -0.5919 -0.2664
    1SOL    MW411032   1.360   1.916   4.600  0.1600 -0.0689 -0.1388
    1SOL     OW11033   2.574   2.910   4.503 -0.3547  0.1761 -0.4329
    1SOL    HW211034   2.582   3.005   4.491 -0.3266  0.3577  1.0327
    1SOL    HW311035   2.504   2.899   4.567 -0.6177 -0.8148 -0.8797
    1SOL    MW411036   2.566   2.921   4.510 -0.3855  0.0689 -0.2990
    1SOL     OW11037   1.841   2.990   4.495  0.5357  0.0607 -0.2024
    1SOL    HW211038   1.843   3.062   4.432 -1.7934  0.1205 -0.2628
    1SOL    HW311039   1.903   2.926   4.459  1.4256  1.3309 -0.9937
    1SOL    MW411040   1.850   2.991   4.482  0.3458  0.2363 -0.3152
    1SOL     OW11041   1.763   4.134   4.588 -0.6889 -0.3845  0.2173
    1SOL    HW211042   1.759   4.100   4.499 -0.4912 -0.8773  0.3950
    1SOL    HW311043   1.840   4.192   4.588 -2.1137  1.5430 -0.5901
    1SOL    MW411044   1.773   4.137   4.577 -0.8508 -0.1955  0.1340
    1SOL     OW11045   2.389   3.402   4.772  0.1916 -0.1031 -0.0141
    1SOL    HW211046   2.314   3.399   4.712 -0.3332 -0.2718  0.6515
    1SOL    HW311047   2.382   3.322   4.823 -0.9726  1.3921  2.2196
    1SOL    MW411048   2.378   3.391   4.771 -0.0315  0.0720  0.3686
    1SOL     OW11049   2.181   3.352   4.595 -0.1925  0.1858  0.3048
    1SOL    HW211050   2.132   3.270   4.592  1.0699 -0.5637 -0.6277
    1SOL    HW311051   2.242   3.346   4.521 -0.2565  2.0846  0.0655
    1SOL    MW411052   2.183   3.341   4.585 -0.0343  0.3374  0.1507
    1SOL     OW11053   2.555   3.401   4.538  0.5220 -0.1049  0.9261
    1SOL    HW211054   2.513   3.405   4.624 -1.4110  1.0974 -0.0342
    1SOL    HW311055   2.568   3.493   4.513  1.1781 -0.4454 -0.0188
    1SOL    MW411056   2.551   3.414   4.546  0.3538  0.0088  0.6742
    1SOL     OW11057   2.473   3.989   4.634  0.0796  0.0081 -0.1152
    1SOL    HW211058   2.554   3.994   4.585 -0.7637  0.6021 -1.4671
    1SOL    HW311059   2.475   3.902   4.675  1.0141 -0.2830 -0.7767
    1SOL    MW411060   2.484   3.978   4.633  0.0920  0.0479 -0.3810
    1SOL     OW11061   2.605   3.680   4.488  0.2030  0.0293  0.7351
    1SOL    HW211062   2.551   3.671   4.410 -0.8957 -1.3903  1.6271
    1SOL    HW311063   2.543   3.701   4.558  1.1258  0.9557  1.2856
    1SOL    MW411064   2.590   3.681   4.487  0.1798 -0.0358  0.9255
    1SOL     OW11065   1.965   3.516   4.527  0.0804  0.4807 -0.1639
    1SOL    HW211066   1.988   3.538   4.437  0.5917  0.6098 -0.0016
    1SOL    HW311067   2.042   3.471   4.561 -0.2154  0.1891  0.1229
    1SOL    MW411068   1.978   3.513   4.520  0.1090  0.4592 -0.1044
    1SOL     OW11069   2.194   3.696   4.613 -0.0521 -0.1632 -0.0396
    1SOL    HW211070   2.112   3.649   4.595  0.8292 -1.3960 -0.8876
    1SOL    HW311071   2.170   3.788   4.604 -1.2531 -0.5219 -0.7047
    1SOL    MW411072   2.180   3.702   4.609 -0.0944 -0.3731 -0.2389
    1SOL     OW11073   1.556   4.561   4.544 -0.1551 -0.1011 -0.1234
    1SOL    HW211074   1.563   4.497   4.615 -0.8005 -0.7986 -0.6752
    1SOL    HW311075   1.578   4.511   4.465 -1.4042  0.1644 -0.6567
    1SOL    MW411076   1.560   4.546   4.543 -0.4051 -0.1583 -0.2666
    1SOL     OW11077   2.019   4.279   4.553 -0.0366 -0.1234 -0.1400
    1SOL    HW211078   2.062   4.194   4.542  1.8914  0.4278  2.6681
    1SOL    HW311079   2.091   4.342   4.554 -1.0736  1.0891  2.0053
    1SOL    MW411080   2.035   4.276   4.552  0.0808  0.1101  0.5131
    1SOL     OW11081   2.239   4.459   4.571 -0.0979  0.2895  0.4670
    1SOL    HW211082   2.323   4.412   4.568  0.3948  1.1380  0.8970
    1SOL    HW311083   2.263   4.551   4.564 -1.0881  0.4647 -0.6396
    1SOL    MW411084   2.254   4.465   4.570 -0.1633  0.4244  0.3777
    1SOL     OW11085   1.391   1.553   4.767  0.3121 -0.2535  0.1743
    1SOL    HW211086   1.382   1.459   4.753  0.8623 -0.4503  1.1242
    1SOL    HW311087   1.413   1.588   4.681  1.2744 -1.1432  0.0473
    1SOL    MW411088   1.393   1.545   4.754  0.5116 -0.3970  0.2828
    1SOL     OW11089   2.629   0.067   4.515 -0.4332  0.3615 -0.4678
    1SOL    HW211090   2.535   0.053   4.526 -0.4894  0.3565 -0.9411
    1SOL    HW311091   2.640   0.081   4.421  0.0752  0.0972 -0.4475
    1SOL    MW411092   2.618   0.067   4.504 -0.3736  0.3260 -0.5274
    1SOL     OW11093   2.490   0.689   4.641  0.2138 -0.1884 -0.0713
    1SOL    HW211094   2.426   0.746   4.599  0.0103 -0.2833  0.1114
    1SOL    HW311095   2.570   0.742   4.644 -0.4333  0.7184  1.6509
    1SOL    MW411096   2.492   0.704   4.636  0.1013 -0.0812  0.1798
    1SOL     OW11097   2.952   0.707   4.598  0.1801 -0.1124  0.2375
    1SOL    HW211098   3.042   0.736   4.584  0.9843 -1.5209  2.2911
    1SOL    HW311099   2.958   0.612   4.604 -1.8251 -0.4480 -2.1132
    1SOL    MW411100   2.965   0.698   4.597  0.0217 -0.3425  0.1984
    1SOL     OW11101   2.202   1.144   4.615 -0.2466 -0.1710  0.1500
    1SOL    HW211102   2.148   1.218   4.587 -1.1133 -0.9973 -0.3773
    1SOL    HW311103   2.291   1.179   4.614 -0.8384  1.4553  1.8834
    1SOL    MW411104   2.207   1.158   4.611 -0.4394 -0.0653  0.3090
    1SOL     OW11105   2.486   1.251   4.546  0.7647  0.1467 -0.2121
    1SOL    HW211106   2.559   1.201   4.582 -1.6556 -1.4181  2.7472
    1SOL    HW311107   2.495   1.338   4.583  0.6967 -0.2571  0.7572
    1SOL    MW411108   2.497   1.256   4.555  0.4368 -0.1130  0.3061
    1SOL     OW11109   2.493   1.478   4.690  0.0379 -0.0565 -0.5464
    1SOL    HW211110   2.545   1.537   4.636  1.2204 -1.2636 -0.7344
    1SOL    HW311111   2.406   1.518   4.691  0.8529  1.7824 -0.5316
    1SOL    MW411112   2.488   1.491   4.683  0.3016  0.0268 -0.5689
    1SOL     OW11113   2.239   1.781   4.479 -0.1429 -0.2740  0.1601
    1SOL    HW211114   2.250   1.736   4.396  1.0666  0.5402 -0.1413
    1SOL    HW311115   2.156   1.827   4.471 -1.1238 -1.9930  0.2729
    1SOL    MW411116   2.230   1.781   4.467 -0.1128 -0.3934  0.1354
    1SOL     OW11117   2.432   2.370   4.647 -0.7618  0.0572  1.0578
    1SOL    HW211118   2.416   2.453   4.603 -0.5697 -1.3268 -1.7057
    1SOL    HW311119   2.369   2.309   4.609  0.6608 -1.6479  1.3388
    1SOL    MW411120   2.422   2.373   4.636 -0.5488 -0.3505  0.7300
    1SOL     OW11121   2.270   2.217   4.475 -0.1899  0.2287  0.9220
    1SOL    HW211122   2.289   2.272   4.399  2.4099 -2.0614 -0.1341
    1SOL    HW311123   2.174   2.220   4.483 -0.4749  0.8246 -2.1770
    1SOL    MW411124   2.260   2.225   4.466  0.1156  0.0055  0.3743
    1SOL     OW11125   2.688   2.438   4.701  0.1312 -0.1765  0.0783
    1SOL    HW211126   2.599   2.417   4.674 -0.3595  0.3097  1.2827
    1SOL    HW311127   2.681   2.526   4.739  1.0206 -0.3698  0.7009
    1SOL    MW411128   2.675   2.447   4.702  0.1838 -0.1378  0.3195
    1SOL     OW11129   1.785   2.614   4.482  0.2378  0.0912 -0.1490
    1SOL    HW211130   1.872   2.644   4.509  0.1251 -0.3950  0.7937
    1SOL    HW311131   1.802   2.551   4.412  0.5949  0.6478 -0.5683
    1SOL    MW411132   1.799   2.610   4.476  0.2700  0.1004 -0.0796
    1SOL     OW11133   2.294   3.102   4.804 -0.3273  0.1275 -0.4774
    1SOL    HW211134   2.329   3.021   4.766 -0.8009  0.6286 -2.0144
    1SOL    HW311135   2.223   3.127   4.745 -1.2735  0.7716  0.9192
    1SOL    MW411136   2.289   3.095   4.791 -0.5147  0.2789 -0.4964
    1SOL     OW11137   2.684   3.163   4.474  0.3547 -0.4949  0.2156
    1SOL    HW211138   2.669   3.167   4.380 -1.8817 -1.6634  0.5119
    1SOL    HW311139   2.652   3.247   4.507 -0.5215 -0.8092  0.1622
    1SOL    MW411140   2.678   3.175   4.466 -0.0558 -0.6902  0.2480
    1SOL     OW11141   2.823   2.914   4.675  0.2217  0.5415  0.0966
    1SOL    HW211142   2.860   3.002   4.676 -1.7073  1.3745 -0.4320
    1SOL    HW311143   2.760   2.915   4.604  0.5327 -1.4368 -0.2484
    1SOL    MW411144   2.820   2.926   4.666  0.0083  0.3901 -0.0191
    1SOL     OW11145   1.340   4.301   4.587 -0.0311 -0.5604  0.3620
    1SOL    HW211146   1.310   4.390   4.567 -0.2001 -0.7468 -0.2180
    1SOL    HW311147   1.434   4.311   4.602  0.4254 -0.6770 -2.2292
    1SOL    MW411148   1.349   4.314   4.587  0.0068 -0.6003 -0.0563
    1SOL     OW11149   2.708   4.471   4.593 -1.0134 -0.4240  0.0359
    1SOL    HW211150   2.691   4.556   4.554  0.2837  0.0256  0.4207
    1SOL    HW311151   2.623   4.427   4.594 -1.6911  0.8741 -0.1437
    1SOL    MW411152   2.694   4.476   4.588 -0.9315 -0.1936  0.0625
    1SOL     OW11153   2.080   3.093   4.574  0.0223  0.4793 -0.2035
    1SOL    HW211154   2.139   3.020   4.554  0.0770  0.3178  0.5598
    1SOL    HW311155   1.993   3.059   4.552 -0.0170 -0.0187  0.6691
    1SOL    MW411156   2.076   3.079   4.568  0.0241  0.3924  0.0124
    1SOL     OW11157   3.046   3.671   4.814 -0.1872 -0.1665  0.3095
    1SOL    HW211158   2.986   3.724   4.762  0.5148 -0.0795 -0.4244
    1SOL    HW311159   3.017   3.581   4.799  0.7965 -0.2389 -1.2708
    1SOL    MW411160   3.034   3.666   4.806  0.0350 -0.1645  0.0043
    1SOL     OW11161   2.909   3.853   4.634 -0.2972  0.0750  0.0080
    1SOL    HW211162   2.913   3.775   4.579  0.6779  0.4068 -0.4092
    1SOL    HW311163   2.985   3.905   4.607 -0.9124  1.1445  0.3104
    1SOL    MW411164   2.920   3.850   4.623 -0.2499  0.2601 -0.0076
    1SOL     OW11165   2.229   4.079   4.523 -0.0348 -0.4864 -0.0693
    1SOL    HW211166   2.308   4.038   4.557  0.2329 -0.4540 -0.6378
    1SOL    HW311167   2.231   4.060   4.429 -0.6305 -0.3695 -0.1074
    1SOL    MW411168   2.240   4.071   4.515 -0.0780 -0.4663 -0.1493
    1SOL     OW11169   2.491   4.315   4.596  0.0036 -0.2910 -0.2124
    1SOL    HW211170   2.476   4.235   4.646  0.1844 -0.1091  0.1339
    1SOL    HW311171   2.479   4.288   4.505 -0.8452 -0.5046 -0.0448
    1SOL    MW411172   2.488   4.301   4.591 -0.0844 -0.2952 -0.1445
    1SOL     OW11173   3.242   0.255   4.605  0.5795  0.0656 -0.4049
    1SOL    HW211174   3.159   0.292   4.634  0.2046 -0.0037 -1.3852
    1SOL    HW311175   3.293   0.330   4.575  0.3147 -0.0609 -1.1728
    1SOL    MW411176   3.238   0.270   4.605  0.4950  0.0398 -0.6347
    1SOL     OW11177   2.735   0.311   4.666  0.0959 -0.4845 -0.3076
    1SOL    HW211178   2.722   0.225   4.625  0.8560 -0.8349  0.1735
    1SOL    HW311179   2.718   0.297   4.759  1.0299 -0.3120 -0.1007
    1SOL    MW411180   2.731   0.298   4.673  0.3195 -0.5080 -0.2165
    1SOL     OW11181   3.202   4.665   4.509 -0.2772 -0.6213  0.0123
    1SOL    HW211182   3.121   4.637   4.550  0.1995 -0.0232  1.4025
    1SOL    HW311183   3.224   4.747   4.554  1.4636 -1.1514  0.1745
    1SOL    MW411184   3.194   4.672   4.521  0.0155 -0.6124  0.2170
    1SOL     OW11185   2.734   0.864   4.591 -0.1971  0.3009  0.8875
    1SOL    HW211186   2.819   0.821   4.581 -0.2304  0.2580  0.7889
    1SOL    HW311187   2.699   0.868   4.502  0.6626  2.2959  0.6025
    1SOL    MW411188   2.741   0.859   4.577 -0.0880  0.5584  0.8368
    1SOL     OW11189   3.730   0.625   4.683 -0.3227 -0.2424 -0.2160
    1SOL    HW211190   3.792   0.687   4.720 -0.4520 -0.8917  1.1247
    1SOL    HW311191   3.704   0.570   4.757  0.9876 -2.9129 -1.6942
    1SOL    MW411192   3.734   0.626   4.698 -0.1667 -0.6804 -0.2341
    1SOL     OW11193   2.277   0.832   4.509  0.2608  0.2459 -0.0249
    1SOL    HW211194   2.266   0.925   4.527 -0.3669  0.1319  0.1799
    1SOL    HW311195   2.189   0.795   4.515  0.4381 -0.2774 -0.5874
    1SOL    MW411196   2.264   0.839   4.512  0.2012  0.1618 -0.0725
    1SOL     OW11197   2.743   1.133   4.626  0.5219  0.0701 -0.3055
    1SOL    HW211198   2.813   1.173   4.573  0.4905  0.9267  0.2902
    1SOL    HW311199   2.752   1.039   4.610  1.9893  0.1488 -0.0100
    1SOL    MW411200   2.753   1.126   4.617  0.7112  0.1935 -0.1874
    1SOL     OW11201   3.011   1.269   4.532  0.1755 -0.3035 -0.0863
    1SOL    HW211202   2.982   1.259   4.441  1.6464 -1.3149 -0.4529
    1SOL    HW311203   2.971   1.352   4.560  0.2795  0.3811 -1.8731
    1SOL    MW411204   3.002   1.279   4.524  0.3831 -0.3467 -0.3700
    1SOL     OW11205   2.886   1.524   4.610 -0.0559 -0.2574 -0.0390
    1SOL    HW211206   2.807   1.561   4.572 -0.3167 -1.2158 -0.4329
    1SOL    HW311207   2.860   1.495   4.697 -0.0889 -0.4200 -0.1037
    1SOL    MW411208   2.872   1.525   4.616 -0.0949 -0.4053 -0.0992
    1SOL     OW11209   2.644   1.615   4.501  0.1877 -0.2127  0.4821
    1SOL    HW211210   2.659   1.704   4.531  1.3882 -0.3885  0.4156
    1SOL    HW311211   2.635   1.622   4.406 -0.7525 -0.0377  0.5746
    1SOL    MW411212   2.645   1.628   4.492  0.2220 -0.2129  0.4854
    1SOL     OW11213   2.662   1.871   4.616 -0.2435 -0.2211 -0.5838
    1SOL    HW211214   2.600   1.938   4.585  0.2477  0.6266  0.2343
    1SOL    HW311215   2.748   1.908   4.597  0.0305 -0.6398 -0.1578
    1SOL    MW411216   2.665   1.885   4.609 -0.1423 -0.1645 -0.4201
    1SOL     OW11217   2.427   1.990   4.502 -0.6039 -0.4162  0.4075
    1SOL    HW211218   2.369   1.915   4.500 -0.8595 -0.2062  0.0571
    1SOL    HW311219   2.369   2.066   4.514 -0.4519 -0.1581 -0.4563
    1SOL    MW411220   2.412   1.990   4.503 -0.6175 -0.3545  0.2475
    1SOL     OW11221   2.922   2.006   4.558 -0.3734 -0.0586  0.9630
    1SOL    HW211222   2.908   2.022   4.464  3.5315 -0.0645  0.2994
    1SOL    HW311223   2.933   2.093   4.595 -1.0466 -0.1010  1.2591
    1SOL    MW411224   2.922   2.020   4.550  0.0529 -0.0648  0.9146
    1SOL     OW11225   2.370   2.851   4.683 -0.1668 -0.3919 -0.0483
    1SOL    HW211226   2.325   2.806   4.754  0.4559  1.5093  1.6054
    1SOL    HW311227   2.302   2.863   4.616 -0.9569 -1.5530  0.5354
    1SOL    MW411228   2.355   2.847   4.684 -0.1888 -0.2944  0.2470
    1SOL     OW11229   3.261   2.641   4.666  0.2536  0.0187  0.6011
    1SOL    HW211230   3.240   2.638   4.759 -1.3737 -0.1761  0.2395
    1SOL    HW311231   3.198   2.581   4.625  1.9006 -1.0225 -0.4582
    1SOL    MW411232   3.250   2.633   4.673  0.2563 -0.1445  0.4134
    1SOL     OW11233   2.631   2.724   4.776 -0.2217  0.4763 -0.8284
    1SOL    HW211234   2.699   2.786   4.802 -0.0672 -0.2381  0.5025
    1SOL    HW311235   2.550   2.776   4.774 -0.3110  0.4892  1.4891
    1SOL    MW411236   2.629   2.739   4.779 -0.2134  0.3836 -0.3471
    1SOL     OW11237   2.983   3.435   4.699 -0.1925 -0.0509 -0.0738
    1SOL    HW211238   2.933   3.356   4.720 -0.7203  0.0760 -0.8140
    1SOL    HW311239   3.072   3.403   4.684 -0.8131 -0.8075 -2.3433
    1SOL    MW411240   2.988   3.420   4.700 -0.3438 -0.1338 -0.4706
    1SOL     OW11241   2.898   3.188   4.669  0.0926  0.7995  0.2162
    1SOL    HW211242   2.984   3.183   4.627  0.2483  1.8052  0.3928
    1SOL    HW311243   2.836   3.192   4.596  0.1506 -0.5516  0.0881
    1SOL    MW411244   2.901   3.188   4.654  0.1206  0.7539  0.2222
    1SOL     OW11245   2.878   4.268   4.517 -0.3764  0.3755  0.0415
    1SOL    HW211246   2.820   4.192   4.513 -0.3272  0.3038  0.5723
    1SOL    HW311247   2.823   4.337   4.554 -0.2989  0.4772 -0.0347
    1SOL    MW411248   2.863   4.267   4.522 -0.3595  0.3796  0.1020
    1SOL     OW11249   3.130   3.939   4.514  0.2565 -0.0701 -0.1091
    1SOL    HW211250   3.196   3.894   4.566  0.9001 -0.9542 -1.6373
    1SOL    HW311251   3.136   4.031   4.540  4.6650  0.5566 -2.7517
    1SOL    MW411252   3.140   3.945   4.524  0.9234 -0.1040 -0.6595
    1SOL     OW11253   3.798   3.872   4.615  0.1523  0.1416 -0.3256
    1SOL    HW211254   3.795   3.854   4.709  1.9167 -1.6671 -0.5734
    1SOL    HW311255   3.762   3.793   4.575 -2.3508  1.6532 -1.1365
    1SOL    MW411256   3.793   3.859   4.622  0.0544  0.1023 -0.4649
    1SOL     OW11257   2.876   3.620   4.512  0.1246 -0.0635 -0.1004
    1SOL    HW211258   2.781   3.619   4.512  0.1206 -0.3081 -1.3354
    1SOL    HW311259   2.901   3.534   4.547 -0.1202 -0.5010 -0.9786
    1SOL    MW411260   2.867   3.609   4.517  0.0918 -0.1538 -0.3796
    1SOL     OW11261   2.730   4.008   4.508  0.4225  0.3318 -0.0471
    1SOL    HW211262   2.785   3.944   4.552  0.2764  0.7454  0.7495
    1SOL    HW311263   2.726   3.978   4.417  0.6032 -0.6164  0.2502
    1SOL    MW411264   2.737   3.995   4.502  0.4270  0.2613  0.0968
    1SOL     OW11265   2.982   4.531   4.696  0.1360  0.6146 -0.0348
    1SOL    HW211266   2.985   4.435   4.704  1.4046  0.5168 -1.3717
    1SOL    HW311267   2.889   4.552   4.697 -0.1271 -0.5421  1.2538
    1SOL    MW411268   2.970   4.521   4.697  0.2685  0.4492 -0.0415
    1SOL     OW11269   3.418   0.463   4.516  0.0827 -0.4160  0.7480
    1SOL    HW211270   3.418   0.465   4.420  0.9982 -0.8784  0.7342
    1SOL    HW311271   3.424   0.554   4.542  1.6808 -0.3947  0.3484
    1SOL    MW411272   3.418   0.475   4.507  0.4141 -0.4742  0.6938
    1SOL     OW11273   2.530   0.447   4.518  0.0691 -0.1563  0.2752
    1SOL    HW211274   2.603   0.408   4.566  1.0697 -1.2138 -2.0887
    1SOL    HW311275   2.518   0.533   4.559  1.4478 -0.6854  1.8438
    1SOL    MW411276   2.538   0.454   4.530  0.3834 -0.3657  0.1702
    1SOL     OW11277   2.049   1.370   4.528 -0.5352 -0.0671  0.3162
    1SOL    HW211278   1.954   1.358   4.537 -0.6806 -0.4931 -1.4912
    1SOL    HW311279   2.068   1.338   4.440  1.2780  0.1426  0.6235
    1SOL    MW411280   2.039   1.364   4.517 -0.3152 -0.0957  0.1183
    1SOL     OW11281   3.009   0.406   4.595  0.3805  0.2714  0.6349
    1SOL    HW211282   2.994   0.431   4.504  0.8537 -1.2229  0.1465
    1SOL    HW311283   2.923   0.379   4.627  0.2463  0.6432  0.5978
    1SOL    MW411284   2.995   0.406   4.587  0.4251  0.1232  0.5655
    1SOL     OW11285   3.496   0.768   4.575 -0.2581  0.0435 -0.0590
    1SOL    HW211286   3.504   0.862   4.561  1.1210 -0.1176 -0.4439
    1SOL    HW311287   3.574   0.744   4.626 -0.7625 -0.8307  0.3213
    1SOL    MW411288   3.508   0.777   4.580 -0.1426 -0.0930 -0.0601
    1SOL     OW11289   3.400   1.260   4.560  0.2903  0.2847  0.0543
    1SOL    HW211290   3.318   1.230   4.599 -0.3966  0.9606 -0.8452
    1SOL    HW311291   3.455   1.182   4.558 -0.1941 -0.0906  1.0182
    1SOL    MW411292   3.396   1.246   4.565  0.1359  0.3242  0.0629
    1SOL     OW11293   2.754   1.377   4.820 -0.0924 -0.2729 -0.0429
    1SOL    HW211294   2.767   1.300   4.765 -0.3488 -0.0168 -0.4724
    1SOL    HW311295   2.669   1.412   4.791  0.1914  0.3704 -0.1000
    1SOL    MW411296   2.744   1.372   4.809 -0.0887 -0.1544 -0.1068
    1SOL     OW11297   4.114   0.693   4.791  0.0995 -0.1340  0.1971
    1SOL    HW211298   4.196   0.708   4.743 -0.7275 -0.8250 -1.4629
    1SOL    HW311299   4.052   0.754   4.752 -0.8508 -1.4144 -0.3482
    1SOL    MW411300   4.117   0.703   4.780 -0.1354 -0.3941 -0.0944
    1SOL     OW11301   3.409   1.545   4.552  0.2081 -0.2102 -0.4383
    1SOL    HW211302   3.316   1.568   4.561  0.3710 -0.0445  1.0028
    1SOL    HW311303   3.411   1.450   4.562  0.0724 -0.3336 -1.5705
    1SOL    MW411304   3.397   1.535   4.555  0.2115 -0.2047 -0.3977
    1SOL     OW11305   3.140   1.656   4.535 -0.1694 -0.3292  0.0654
    1SOL    HW211306   3.152   1.748   4.556  0.3575 -0.2872 -0.4049
    1SOL    HW311307   3.055   1.633   4.574 -0.2554  0.3246  0.2670
    1SOL    MW411308   3.130   1.665   4.543 -0.1111 -0.2375  0.0296
    1SOL     OW11309   3.192   1.924   4.575 -0.1936 -0.1025 -0.2548
    1SOL    HW211310   3.238   1.970   4.504  0.6659 -0.7281 -0.1159
    1SOL    HW311311   3.104   1.960   4.573  0.4829  1.6324 -0.0791
    1SOL    MW411312   3.187   1.935   4.565  0.0091  0.0440 -0.2141
    1SOL     OW11313   0.014   2.425   4.831 -0.3519 -0.7538 -0.3781
    1SOL    HW211314   0.090   2.441   4.775  0.1909  1.7569  0.9946
    1SOL    HW311315  -0.055   2.480   4.795 -0.6429 -0.7842  0.1191
    1SOL    MW411316   0.015   2.434   4.819 -0.3186 -0.4268 -0.1311
    1SOL     OW11317   3.299   2.889   4.551  0.3492 -0.1108 -0.7001
    1SOL    HW211318   3.285   2.807   4.599  1.4006 -0.9651 -1.8293
    1SOL    HW311319   3.293   2.865   4.459  0.7216  1.0841 -1.0519
    1SOL    MW411320   3.296   2.875   4.545  0.5372 -0.0658 -0.8950
    1SOL     OW11321   3.560   2.626   4.615  0.4632 -0.3523  0.0570
    1SOL    HW211322   3.467   2.615   4.632  0.6907 -0.6817  1.1374
    1SOL    HW311323   3.570   2.718   4.593 -0.2557 -0.5257 -1.0170
    1SOL    MW411324   3.549   2.637   4.615  0.3986 -0.4187  0.0577
    1SOL     OW11325   2.884   2.297   4.587 -0.0843 -0.0371 -0.2647
    1SOL    HW211326   2.815   2.346   4.631 -0.4877 -0.0654 -0.8600
    1SOL    HW311327   2.950   2.364   4.565  0.3511 -0.1028  0.8187
    1SOL    MW411328   2.884   2.312   4.590 -0.0801 -0.0491 -0.2003
    1SOL     OW11329   3.582   2.911   4.577  0.5921  0.0145 -0.0207
    1SOL    HW211330   3.586   3.003   4.603 -0.2914  0.0028  0.1539
    1SOL    HW311331   3.491   2.896   4.554  0.5720 -1.0270  0.6894
    1SOL    MW411332   3.571   2.921   4.577  0.4730 -0.1245  0.0963
    1SOL     OW11333   3.153   3.133   4.545 -0.0342 -0.2262  0.3649
    1SOL    HW211334   3.200   3.050   4.550 -1.2836 -0.9646  0.0404
    1SOL    HW311335   3.136   3.146   4.451  1.3984  1.1097  0.2706
    1SOL    MW411336   3.157   3.124   4.533 -0.0100 -0.1476  0.3095
    1SOL     OW11337   3.058   2.499   4.517  0.0924 -0.0122  0.3094
    1SOL    HW211338   3.008   2.578   4.498  0.3914  0.1101  0.0390
    1SOL    HW311339   3.085   2.466   4.431  0.3699 -0.1494  0.4473
    1SOL    MW411340   3.055   2.505   4.503  0.1681 -0.0141  0.2918
    1SOL     OW11341   4.341   2.500   4.594 -0.6835 -0.1007 -0.3359
    1SOL    HW211342   4.410   2.452   4.548 -0.8526  0.3614 -1.0816
    1SOL    HW311343   4.361   2.592   4.578 -1.2093  0.0456 -0.1594
    1SOL    MW411344   4.353   2.506   4.586 -0.7749 -0.0203 -0.4110
    1SOL     OW11345   3.587   3.214   4.498  0.4088  0.3267 -0.0863
    1SOL    HW211346   3.678   3.243   4.498  0.6190 -0.3408 -0.1261
    1SOL    HW311347   3.564   3.207   4.405  0.3365  0.4311 -0.0760
    1SOL    MW411348   3.596   3.217   4.486  0.4272  0.2522 -0.0901
    1SOL     OW11349   3.274   3.773   4.698  0.4238 -0.4339 -0.5866
    1SOL    HW211350   3.327   3.705   4.656  1.9718 -0.8028  1.8614
    1SOL    HW311351   3.215   3.724   4.756  1.3415  0.2624  0.9668
    1SOL    MW411352   3.273   3.757   4.700  0.7493 -0.3908 -0.0582
    1SOL     OW11353   3.363   4.019   4.763  0.1633 -0.5127  0.0668
    1SOL    HW211354   3.291   4.076   4.737  0.1442  0.0370  1.3343
    1SOL    HW311355   3.333   3.931   4.738 -0.8134 -0.2542  0.2904
    1SOL    MW411356   3.349   4.015   4.756  0.0322 -0.4063  0.2632
    1SOL     OW11357   3.152   4.205   4.593  0.1642  0.0941  0.4748
    1SOL    HW211358   3.203   4.283   4.573  1.1984 -0.8019 -0.4318
    1SOL    HW311359   3.065   4.224   4.558  0.2028  1.1249  0.9052
    1SOL    MW411360   3.147   4.218   4.586  0.3057  0.1121  0.4115
    1SOL     OW11361   3.310   4.400   4.494  0.2155 -0.6094  0.2830
    1SOL    HW211362   3.395   4.399   4.537  0.4469  1.4703 -0.0763
    1SOL    HW311363   3.276   4.488   4.510 -1.0776 -0.8375 -1.0908
    1SOL    MW411364   3.317   4.412   4.501  0.0753 -0.3648  0.0548
    1SOL     OW11365   3.579   4.050   4.573 -0.2090 -0.0735  0.1136
    1SOL    HW211366   3.643   3.985   4.599 -0.7654 -0.7054 -0.0850
    1SOL    HW311367   3.503   4.034   4.628 -0.5559  0.0437 -0.3218
    1SOL    MW411368   3.577   4.040   4.584 -0.3283 -0.1416  0.0296
    1SOL     OW11369   3.491   0.100   4.694 -0.7449 -0.0838  0.3642
    1SOL    HW211370   3.467   0.012   4.667  0.5245 -0.7132  1.2327
    1SOL    HW311371   3.410   0.150   4.691 -1.4087 -1.2092 -0.4211
    1SOL    MW411372   3.477   0.095   4.690 -0.6647 -0.3154  0.3753
    1SOL     OW11373   3.210   0.819   4.585 -0.1207  0.1309  0.1209
    1SOL    HW211374   3.204   0.902   4.632  1.3813 -1.1616  2.7228
    1SOL    HW311375   3.304   0.798   4.586 -0.7188 -2.7310  1.6181
    1SOL    MW411376   3.222   0.827   4.591 -0.0017 -0.4172  0.6614
    1SOL     OW11377   3.176   1.097   4.655  0.2628 -0.1271  0.0198
    1SOL    HW211378   3.158   1.123   4.746  0.0411 -0.7855  0.1682
    1SOL    HW311379   3.120   1.153   4.602 -0.8384 -0.8724  0.3782
    1SOL    MW411380   3.166   1.108   4.660  0.0882 -0.3123  0.0868
    1SOL     OW11381   3.682   1.665   4.534 -0.6067 -0.2959 -0.2237
    1SOL    HW211382   3.598   1.623   4.517 -0.6522 -0.1176 -0.4323
    1SOL    HW311383   3.689   1.666   4.630  0.2046 -2.3920 -0.2428
    1SOL    MW411384   3.672   1.660   4.544 -0.5057 -0.5490 -0.2537
    1SOL     OW11385   3.834   1.191   4.519 -0.1628  0.4529  0.1811
    1SOL    HW211386   3.822   1.237   4.436 -0.8788  1.0009  0.5777
    1SOL    HW311387   3.889   1.249   4.571 -0.7169  0.6651  0.5296
    1SOL    MW411388   3.839   1.205   4.515 -0.3302  0.5531  0.2789
    1SOL     OW11389   4.146   0.914   4.539 -0.0641 -0.0106  0.2104
    1SOL    HW211390   4.209   0.846   4.560  0.6864  1.1170  1.6734
    1SOL    HW311391   4.112   0.889   4.453  0.6269 -1.8995  0.4675
    1SOL    MW411392   4.150   0.902   4.530  0.1264 -0.1110  0.4373
    1SOL     OW11393   4.335   0.474   4.576  0.1648  0.1288  0.3329
    1SOL    HW211394   4.320   0.485   4.482 -0.5495 -1.0060  0.3029
    1SOL    HW311395   4.248   0.459   4.612  0.4123  0.7870  1.2195
    1SOL    MW411396   4.321   0.474   4.568  0.1035  0.0659  0.4458
    1SOL     OW11397   3.703   1.695   4.807 -0.0085  0.2969 -0.1256
    1SOL    HW211398   3.659   1.704   4.892 -2.1578 -0.9567 -1.0611
    1SOL    HW311399   3.716   1.784   4.777 -1.6402  0.7198  0.3540
    1SOL    MW411400   3.699   1.708   4.814 -0.5074  0.1872 -0.1860
    1SOL     OW11401   3.536   1.938   4.646  0.1306 -1.1527  0.5879
    1SOL    HW211402   3.476   1.877   4.689 -0.4426 -2.0610 -1.4124
    1SOL    HW311403   3.479   1.992   4.591  0.9894 -1.0927 -0.2541
    1SOL    MW411404   3.520   1.937   4.644  0.1681 -1.2646  0.2127
    1SOL     OW11405   3.363   1.746   4.745 -0.5700 -0.3734 -0.1154
    1SOL    HW211406   3.389   1.671   4.692 -1.5754 -0.1082 -0.9954
    1SOL    HW311407   3.273   1.766   4.717 -0.4829  0.8573  0.4463
    1SOL    MW411408   3.354   1.739   4.734 -0.6912 -0.1761 -0.1578
    1SOL     OW11409   3.966   1.594   4.812 -0.0659 -0.3495 -0.6160
    1SOL    HW211410   3.878   1.622   4.837  0.6317 -1.3673  3.3121
    1SOL    HW311411   3.953   1.508   4.773 -0.7908 -0.4273 -0.2165
    1SOL    MW411412   3.952   1.587   4.810 -0.0694 -0.4942 -0.0448
    1SOL     OW11413   4.126   2.334   4.677  0.4048  0.2675  0.0022
    1SOL    HW211414   4.190   2.398   4.646  0.9149 -0.3375 -0.1767
    1SOL    HW311415   4.178   2.264   4.715 -0.0576 -1.3035 -2.1613
    1SOL    MW411416   4.141   2.333   4.678  0.4110 -0.0193 -0.3071
    1SOL     OW11417   3.883   2.212   4.600  0.3314  0.2505  0.2130
    1SOL    HW211418   3.967   2.250   4.625  0.7119  1.0312 -2.1036
    1SOL    HW311419   3.827   2.288   4.582  0.1642 -0.2426 -1.4774
    1SOL    MW411420   3.886   2.227   4.601  0.3593  0.2882 -0.3157
    1SOL     OW11421   3.976   2.552   4.549 -0.0518 -0.5068 -0.3072
    1SOL    HW211422   3.955   2.645   4.553  1.4493 -0.0637 -1.7978
    1SOL    HW311423   4.009   2.531   4.636 -2.3690 -0.1669  0.6776
    1SOL    MW411424   3.978   2.562   4.561 -0.1595 -0.4034 -0.3743
    1SOL     OW11425   3.860   2.824   4.528  0.0152 -0.1998  0.0713
    1SOL    HW211426   3.910   2.895   4.567  0.9140 -0.0996 -1.2491
    1SOL    HW311427   3.770   2.840   4.556  0.2707  1.2256  0.1269
    1SOL    MW411428   3.855   2.835   4.537  0.1678  0.0014 -0.0958
    1SOL     OW11429   4.321   3.028   4.630 -0.1499  0.0241 -0.1463
    1SOL    HW211430   4.348   2.936   4.625  0.1850  0.1016  0.1985
    1SOL    HW311431   4.362   3.068   4.553  0.6902  0.1325  0.3529
    1SOL    MW411432   4.330   3.021   4.619  0.0057  0.0486 -0.0353
    1SOL     OW11433   3.346   3.336   4.588 -0.5261  0.1138  0.0294
    1SOL    HW211434   3.301   3.252   4.595 -0.5619  0.0853 -0.5284
    1SOL    HW311435   3.433   3.315   4.554 -1.0734  0.4501 -1.6402
    1SOL    MW411436   3.351   3.322   4.585 -0.6030  0.1545 -0.2646
    1SOL     OW11437   3.830   3.334   4.513 -0.0060  0.0214  0.0630
    1SOL    HW211438   3.885   3.323   4.436  1.1500  0.5018  0.8088
    1SOL    HW311439   3.886   3.311   4.587 -1.4468 -1.6100  0.6952
    1SOL    MW411440   3.844   3.329   4.513 -0.0434 -0.1307  0.2451
    1SOL     OW11441   3.413   3.608   4.514  0.3879  0.3980  0.4883
    1SOL    HW211442   3.395   3.519   4.542 -1.0712  0.9847  1.5135
    1SOL    HW311443   3.507   3.619   4.526  0.5904 -1.0212  0.2668
    1SOL    MW411444   3.423   3.598   4.520  0.2220  0.2880  0.5941
    1SOL     OW11445   3.691   3.628   4.510 -0.0239 -0.2941 -0.4243
    1SOL    HW211446   3.714   3.635   4.417  1.4622 -1.1902 -0.1464
    1SOL    HW311447   3.717   3.539   4.534  0.4223  0.2232  1.0631
    1SOL    MW411448   3.698   3.617   4.501  0.2308 -0.3440 -0.1917
    1SOL     OW11449   0.054   3.148   4.477  0.6097 -0.0889 -0.1839
    1SOL    HW211450   0.055   3.183   4.388 -1.7836  1.6620  0.4208
    1SOL    HW311451   0.083   3.220   4.532  1.1914 -0.8747  0.5683
    1SOL    MW411452   0.058   3.162   4.472  0.3707  0.0384 -0.0048
    1SOL     OW11453   4.051   3.974   4.527  0.2550  0.9609 -0.3271
    1SOL    HW211454   4.036   4.066   4.549  0.3129  0.9262 -0.1446
    1SOL    HW311455   3.973   3.928   4.558  0.5795  0.8332  0.3033
    1SOL    MW411456   4.039   3.980   4.534  0.3057  0.9394 -0.2193
    1SOL     OW11457   3.788   4.448   4.550  0.1289  0.5287 -0.0982
    1SOL    HW211458   3.796   4.439   4.455  0.1552  0.3471 -0.0788
    1SOL    HW311459   3.831   4.531   4.570 -1.1003  1.2571 -0.4084
    1SOL    MW411460   3.795   4.458   4.540 -0.0300  0.6013 -0.1369
    1SOL     OW11461   3.528   4.488   4.636 -0.3795  0.5775  0.1198
    1SOL    HW211462   3.547   4.425   4.705  0.5382 -1.7337 -2.1443
    1SOL    HW311463   3.606   4.485   4.580 -1.6548  1.3703 -1.7246
    1SOL    MW411464   3.541   4.479   4.638 -0.4270  0.3777 -0.4225
    1SOL     OW11465   3.587   1.046   4.529  0.0190 -0.3564  0.4535
    1SOL    HW211466   3.672   1.089   4.533 -0.4246  0.6729 -0.9178
    1SOL    HW311467   3.588   0.997   4.447 -0.7565 -0.2551  0.3805
    1SOL    MW411468   3.598   1.045   4.519 -0.1416 -0.2072  0.2632
    1SOL     OW11469   3.912   0.867   4.677 -0.2656  0.2160 -0.1645
    1SOL    HW211470   3.993   0.896   4.635  0.3678 -1.9948 -0.5074
    1SOL    HW311471   3.848   0.933   4.651  1.1938  1.4720 -0.6922
    1SOL    MW411472   3.915   0.880   4.668  0.0100  0.0900 -0.2794
    1SOL     OW11473   4.481   0.302   4.729  0.0690 -0.0314  0.8879
    1SOL    HW211474   4.418   0.269   4.792 -1.9967 -0.6697 -1.4381
    1SOL    HW311475   4.435   0.371   4.682  0.6437 -1.2664 -1.6052
    1SOL    MW411476   4.467   0.306   4.731 -0.1278 -0.2785  0.2522
    1SOL     OW11477   0.285   0.602   4.557  0.2580  0.2934 -0.1157
    1SOL    HW211478   0.269   0.526   4.614 -0.4922  1.4469  1.2445
    1SOL    HW311479   0.252   0.575   4.472 -0.4302 -0.7634  0.4672
    1SOL    MW411480   0.278   0.588   4.554  0.0682  0.3061  0.1407
    1SOL     OW11481   4.082   0.439   4.674  0.1454 -0.1601 -0.4120
    1SOL    HW211482   4.066   0.523   4.718  0.5591 -0.3942  0.1999
    1SOL    HW311483   4.003   0.423   4.623  0.1680  0.7310 -0.7375
    1SOL    MW411484   4.069   0.448   4.673  0.2027 -0.0734 -0.3743
    1SOL     OW11485   4.029   1.395   4.570 -0.0321 -0.1637 -0.2407
    1SOL    HW211486   4.118   1.431   4.572 -0.3737  0.7043 -0.2665
    1SOL    HW311487   3.978   1.463   4.526 -0.4262 -1.2947 -1.5208
    1SOL    MW411488   4.034   1.409   4.565 -0.1292 -0.1984 -0.4129
    1SOL     OW11489   4.442   1.241   4.611 -0.3431  0.0214 -0.1806
    1SOL    HW211490   4.410   1.257   4.699 -0.2058  0.6495 -0.2442
    1SOL    HW311491   4.365   1.218   4.560 -0.1897 -2.0837  0.5000
    1SOL    MW411492   4.428   1.240   4.616 -0.3042 -0.1736 -0.0992
    1SOL     OW11493   4.289   1.509   4.577  0.2797  0.0637  0.6000
    1SOL    HW211494   4.324   1.598   4.585 -0.0687  0.2523 -0.0033
    1SOL    HW311495   4.365   1.455   4.554  0.4746  0.2161  0.8870
    1SOL    MW411496   4.304   1.513   4.575  0.2599  0.1088  0.5579
    1SOL     OW11497   3.809   1.938   4.673 -0.5155 -0.2240 -0.2030
    1SOL    HW211498   3.847   2.025   4.685 -0.4647 -0.2109 -0.4641
    1SOL    HW311499   3.715   1.954   4.664 -0.6207 -0.2835  0.7565
    1SOL    MW411500   3.801   1.951   4.674 -0.5229 -0.2301 -0.1116
    1SOL     OW11501   2.883   2.714   4.487 -0.0435 -0.4758  0.2824
    1SOL    HW211502   2.804   2.660   4.492  0.3436 -1.0494  0.2768
    1SOL    HW311503   2.870   2.782   4.552 -0.0313 -1.2527  1.1021
    1SOL    MW411504   2.871   2.716   4.496  0.0095 -0.6542  0.3896
    1SOL     OW11505   4.262   2.057   4.308 -0.5616  0.2562  0.2488
    1SOL    HW211506   4.177   2.028   4.274 -0.1764 -0.3511 -0.1809
    1SOL    HW311507   4.267   2.018   4.395 -0.3017 -0.4829 -0.0981
    1SOL    MW411508   4.251   2.048   4.315 -0.4768  0.0787  0.1459
    1SOL     OW11509   4.293   1.966   4.584 -0.9529  0.1411  0.1419
    1SOL    HW211510   4.218   1.918   4.619 -0.1718 -0.0693  1.5515
    1SOL    HW311511   4.328   2.015   4.658  0.7091 -0.2778 -0.3406
    1SOL    MW411512   4.288   1.966   4.598 -0.6313  0.0582  0.2642
    1SOL     OW11513   4.059   1.800   4.641  0.1731 -0.0978 -0.4334
    1SOL    HW211514   3.985   1.860   4.649  1.1109  1.0406 -0.0680
    1SOL    HW311515   4.037   1.726   4.698  0.8063  1.7845  2.3530
    1SOL    MW411516   4.046   1.798   4.650  0.3800  0.3006 -0.0181
    1SOL     OW11517   3.728   2.437   4.528  0.0898 -0.2368 -0.1555
    1SOL    HW211518   3.680   2.501   4.581 -1.7306 -1.4037 -0.3746
    1SOL    HW311519   3.813   2.479   4.513 -0.4711  1.4329  1.0739
    1SOL    MW411520   3.733   2.451   4.533 -0.2244 -0.1707 -0.0224
    1SOL     OW11521   0.461   2.654   4.470  0.1899  0.2627  0.5251
    1SOL    HW211522   0.492   2.622   4.386  1.1633 -0.0425  0.9982
    1SOL    HW311523   0.540   2.667   4.522 -0.4013  0.4655  1.3906
    1SOL    MW411524   0.476   2.652   4.466  0.2403  0.2489  0.7019
    1SOL     OW11525   4.393   2.779   4.555 -0.4106 -0.3139 -0.0846
    1SOL    HW211526   4.489   2.780   4.556 -0.4096  1.8345  0.0842
    1SOL    HW311527   4.369   2.804   4.466 -0.8307 -1.4661 -0.3073
    1SOL    MW411528   4.403   2.782   4.543 -0.4659 -0.1824 -0.0916
    1SOL     OW11529   4.039   3.028   4.654 -0.0713  0.2665 -0.3205
    1SOL    HW211530   4.033   3.121   4.675  1.3332  0.2525  0.1947
    1SOL    HW311531   4.129   3.017   4.623 -0.5967 -0.6865 -1.5737
    1SOL    MW411532   4.050   3.039   4.652  0.0443  0.1390 -0.4172
    1SOL     OW11533   0.441   3.466   4.583 -0.1051  0.1348 -0.2783
    1SOL    HW211534   0.520   3.519   4.588  0.2075 -0.4893  1.4247
    1SOL    HW311535   0.370   3.530   4.572  0.5485  0.7202 -1.1709
    1SOL    MW411536   0.442   3.481   4.582  0.0223  0.1295 -0.1712
    1SOL     OW11537   4.192   0.004   4.650 -0.0500  0.5112 -0.1758
    1SOL    HW211538   4.165   0.066   4.717  0.5191  0.1130  0.4306
    1SOL    HW311539   4.123   0.009   4.583 -1.8254 -0.6923  1.4755
    1SOL    MW411540   4.179   0.013   4.650 -0.2084  0.2999  0.1216
    1SOL     OW11541   3.713   0.199   4.531  0.4445 -0.3061  0.0865
    1SOL    HW211542   3.649   0.171   4.596  0.0363 -0.4649 -0.3881
    1SOL    HW311543   3.671   0.185   4.447  1.2286 -0.7449 -0.2428
    1SOL    MW411544   3.699   0.193   4.529  0.4942 -0.3849 -0.0196
    1SOL     OW11545   4.027   3.301   4.724 -0.1274 -0.0022  0.5614
    1SOL    HW211546   4.116   3.327   4.702 -0.9555  1.0509 -1.6731
    1SOL    HW311547   4.027   3.293   4.819  2.6822 -1.3072  0.4849
    1SOL    MW411548   4.039   3.303   4.733  0.1345 -0.0355  0.2556
    1SOL     OW11549   3.586   0.385   4.767 -0.2124  0.3604  0.0104
    1SOL    HW211550   3.533   0.397   4.688  1.6524 -1.6295 -1.5858
    1SOL    HW311551   3.592   0.291   4.778  0.5666  0.6112  1.8550
    1SOL    MW411552   3.579   0.374   4.758  0.1361  0.1309  0.0424
    1SOL     OW11553   4.254   4.373   4.299 -0.1108  0.4252 -0.2398
    1SOL    HW211554   4.341   4.341   4.275 -0.1765 -0.3839  0.5924
    1SOL    HW311555   4.258   4.384   4.394 -0.5621  1.4806 -0.3339
    1SOL    MW411556   4.266   4.371   4.308 -0.1793  0.4578 -0.1426
    1NA      NA11557   2.682   4.302   0.760  0.0662  0.0528 -0.3219
    1NA      NA11558   0.823   2.562   0.340  0.3290  0.0056 -0.4137
   4.49070   4.66690  10.00000
