Gromacs Runs On Most of All Computer Systems in water
11584
    1RU5    O5'    1   3.023   2.054   4.270  0.6315 -1.0139 -0.4176
    1RU5    H5T    2   3.026   2.148   4.293  0.4530 -0.7724 -1.3388
    1RU5    C5'    3   2.944   2.039   4.157  0.1338 -0.7269 -0.1311
    1RU5   H5'1    4   3.004   2.083   4.077  2.0737  1.8079  2.6425
    1RU5   H5'2    5   2.850   2.093   4.171  0.3650 -0.5959  0.9512
    1RU5    C4'    6   2.919   1.885   4.144 -0.3029 -0.5961  0.4794
    1RU5    H4'    7   2.860   1.872   4.053 -0.3641  0.8366  0.2996
    1RU5    O4'    8   3.046   1.819   4.121  0.1188  0.3801 -0.1902
    1RU5    C1'    9   3.062   1.692   4.196  0.4597  0.4439  0.0468
    1RU5    H1'   10   3.079   1.604   4.133 -0.3134  1.2139 -1.2558
    1RU5     N1   11   3.167   1.695   4.299  0.2080 -0.2130  0.1931
    1RU5     C6   12   3.245   1.805   4.315 -0.0237 -0.5196  0.1212
    1RU5     H6   13   3.222   1.893   4.256  0.0488  0.1606  1.1080
    1RU5     C5   14   3.353   1.804   4.394 -0.0854 -0.3613  0.3990
    1RU5     H5   15   3.406   1.896   4.413 -1.0333 -0.3124  3.0144
    1RU5     C4   16   3.394   1.684   4.463  0.2253 -0.3365  0.1649
    1RU5     O4   17   3.486   1.674   4.541 -0.4881  0.1108 -0.3060
    1RU5     N3   18   3.319   1.571   4.431  0.1917 -0.0351 -0.4096
    1RU5     H3   19   3.354   1.485   4.472 -0.5096 -0.0138  0.2331
    1RU5     C2   20   3.204   1.573   4.355  0.0440 -0.1006 -0.2798
    1RU5     O2   21   3.148   1.458   4.336 -0.2374 -0.2447 -0.4891
    1RU5    C3'   22   2.846   1.809   4.253  0.1635 -0.0744  0.2159
    1RU5    H3'   23   2.865   1.854   4.350  0.7553 -0.9700  0.5279
    1RU5    C2'   24   2.920   1.673   4.259  0.1302 -0.1851  0.2177
    1RU5   H2'1   25   2.930   1.629   4.358 -0.2908 -0.0397  0.3258
    1RU5    O2'   26   2.859   1.574   4.179 -0.0905  0.0787  0.2504
    1RU5   HO'2   27   2.767   1.565   4.207 -0.4935  0.4703 -0.9220
    1RU5    O3'   28   2.706   1.784   4.245  0.3649 -0.0655 -0.1431
    2RG3      P   29   2.601   1.903   4.251 -0.1996  0.1520  0.1251
    2RG3    O1P   30   2.470   1.834   4.259 -0.4602 -0.4619 -0.6382
    2RG3    O2P   31   2.627   1.990   4.137  0.1297  0.0802 -0.4701
    2RG3    O5'   32   2.644   1.984   4.383 -0.1387  0.3233  0.0608
    2RG3    C5'   33   2.548   2.076   4.441  0.0357  0.0432 -0.4618
    2RG3   H5'1   34   2.457   2.021   4.465  0.7772 -0.4159  1.3295
    2RG3   H5'2   35   2.530   2.153   4.366  1.2230 -0.3079 -1.1279
    2RG3    C4'   36   2.612   2.137   4.568 -0.8775  0.2727 -0.7055
    2RG3    H4'   37   2.534   2.188   4.624 -0.2053 -0.2351  0.6991
    2RG3    O4'   38   2.659   2.034   4.657  0.3736  0.3306 -0.2909
    2RG3    C1'   39   2.807   2.038   4.653  0.0622 -0.0041  0.1900
    2RG3    H1'   40   2.843   2.078   4.747 -0.2417 -0.1046  0.3485
    2RG3     N9   41   2.855   1.898   4.635 -0.5078  0.4657 -0.1627
    2RG3     C8   42   2.790   1.780   4.609 -0.0776 -0.3772 -0.0082
    2RG3     H8   43   2.689   1.780   4.570 -0.0683 -0.7429 -0.0418
    2RG3     N7   44   2.859   1.670   4.625  0.0336 -0.3208  0.1421
    2RG3     C5   45   2.985   1.718   4.668 -0.2388 -0.2442 -0.4338
    2RG3     C6   46   3.114   1.655   4.701  0.3360 -0.2289 -0.2069
    2RG3     O6   47   3.138   1.537   4.716  0.5802  0.1354  0.3510
    2RG3     N1   48   3.216   1.743   4.721  0.1045 -0.1462 -0.0199
    2RG3     H1   49   3.309   1.707   4.737  0.2683  0.4283  0.3374
    2RG3     C2   50   3.200   1.874   4.721 -0.5192 -0.3174 -0.3675
    2RG3     N2   51   3.303   1.955   4.728 -0.1092 -0.1875  0.6322
    2RG3    H21   52   3.400   1.930   4.735  0.3576  1.9862  2.6890
    2RG3    H22   53   3.283   2.054   4.726  1.5699  0.1292 -0.8428
    2RG3     N3   54   3.086   1.938   4.704 -0.0108 -0.5561  0.5307
    2RG3     C4   55   2.983   1.855   4.671  0.0110  0.4937  0.1724
    2RG3    C3'   56   2.736   2.224   4.535 -1.0691  0.4232 -0.1641
    2RG3    H3'   57   2.729   2.255   4.431  1.2584 -0.7333 -0.6866
    2RG3    C2'   58   2.858   2.133   4.544  0.3473 -0.2192 -0.3437
    2RG3   H2'1   59   2.868   2.074   4.453 -1.5448  1.0521 -1.4294
    2RG3    O2'   60   2.976   2.200   4.595  0.2572  0.3295 -0.1838
    2RG3   HO'2   61   3.036   2.132   4.625 -1.1113 -1.2260 -0.8937
    2RG3    O3'   62   2.751   2.325   4.623 -0.3663 -0.3828  0.4006
    2RG3    H3T   63   2.845   2.336   4.639 -0.3968 -0.4092  0.6082
    5SOL     OW   64   3.387   0.835   0.847 -0.0980 -0.0094 -0.5842
    5SOL    HW2   65   3.436   0.877   0.777  0.9834  0.2643  0.3225
    5SOL    HW3   66   3.363   0.749   0.812  1.7305 -0.4625 -0.7366
    5SOL    MW4   67   3.390   0.829   0.833  0.2861 -0.0331 -0.4846
    6SOL     OW   68   2.952   3.234   0.466  0.1537 -0.4999  0.5992
    6SOL    HW2   69   2.883   3.270   0.411  0.0616 -0.4924  0.7196
    6SOL    HW3   70   2.927   3.259   0.555 -0.4270 -1.6953  0.7827
    6SOL    MW4   71   2.939   3.242   0.470  0.0646 -0.6566  0.6393
    7SOL     OW   72   4.342   3.737   0.874 -0.2295 -0.2597 -0.2611
    7SOL    HW2   73   4.328   3.807   0.811 -1.0373 -0.6391 -0.5165
    7SOL    HW3   74   4.433   3.709   0.861 -0.2475 -0.0073 -0.9156
    7SOL    MW4   75   4.352   3.742   0.864 -0.3381 -0.2766 -0.3811
    8SOL     OW   76   3.625   1.155   1.177 -0.2987  0.1263  0.2681
    8SOL    HW2   77   3.620   1.126   1.086 -0.5100  0.4905  0.1593
    8SOL    HW3   78   3.533   1.168   1.203 -0.2588 -0.4198  0.6792
    8SOL    MW4   79   3.612   1.153   1.169 -0.3214  0.1024  0.3080
    9SOL     OW   80   2.185   4.326   0.846 -0.3818  0.2831  0.0972
    9SOL    HW2   81   2.174   4.236   0.815  0.9685  0.3973 -0.7456
    9SOL    HW3   82   2.204   4.317   0.939 -0.3514 -0.2910  0.0378
    9SOL    MW4   83   2.186   4.313   0.854 -0.1998  0.2227 -0.0218
   10SOL     OW   84   2.447   0.750   1.101  0.3638 -0.5155 -0.1660
   10SOL    HW2   85   2.474   0.668   1.143  0.5597 -0.8490 -0.9419
   10SOL    HW3   86   2.431   0.727   1.010 -1.7850 -0.1525  0.0865
   10SOL    MW4   87   2.449   0.736   1.095  0.1061 -0.5116 -0.2351
   11SOL     OW   88   3.845   1.319   1.259 -0.1280  0.4786 -0.1646
   11SOL    HW2   89   3.772   1.264   1.229  0.6610  0.4754 -2.1727
   11SOL    HW3   90   3.839   1.316   1.354 -2.0437 -0.4762 -0.2787
   11SOL    MW4   91   3.835   1.311   1.267 -0.2763  0.3521 -0.4445
   12SOL     OW   92   0.193   2.319   0.873 -0.1795 -0.2719 -0.1888
   12SOL    HW2   93   0.278   2.280   0.851 -0.3744 -0.5889 -0.3841
   12SOL    HW3   94   0.192   2.323   0.968  0.2207  0.1009 -0.1998
   12SOL    MW4   95   0.204   2.314   0.882 -0.1524 -0.2644 -0.2160
   13SOL     OW   96   1.942   4.166   0.290 -0.3103  0.6271  0.3537
   13SOL    HW2   97   1.951   4.224   0.366  0.9480  0.8140  0.0600
   13SOL    HW3   98   2.018   4.185   0.235  1.0156 -2.4520  1.0010
   13SOL    MW4   99   1.953   4.176   0.292  0.0306  0.2456  0.4004
   14SOL     OW  100   3.320   1.517   0.864  0.3256  0.4611 -0.0344
   14SOL    HW2  101   3.350   1.490   0.951  0.4537  0.0354 -0.2083
   14SOL    HW3  102   3.315   1.435   0.814  0.2404  0.7023 -0.4240
   14SOL    MW4  103   3.323   1.503   0.869  0.3314  0.4368 -0.1087
   15SOL     OW  104   4.344   0.548   0.478  0.2961 -0.3124 -0.1694
   15SOL    HW2  105   4.337   0.563   0.572  0.3827 -2.5988  0.2264
   15SOL    HW3  106   4.322   0.632   0.439  1.0456  0.8814  1.9108
   15SOL    MW4  107   4.340   0.561   0.485  0.4063 -0.4565  0.1573
   16SOL     OW  108   0.849   2.455   0.647  0.3249 -0.2680 -0.5551
   16SOL    HW2  109   0.902   2.452   0.567  0.3728 -0.8186 -0.5025
   16SOL    HW3  110   0.906   2.497   0.712 -0.0129  0.9664 -1.0283
   16SOL    MW4  111   0.864   2.460   0.645  0.2867 -0.1779 -0.6106
   17SOL     OW  112   4.058   1.165   1.113  0.0198 -0.1628  0.0946
   17SOL    HW2  113   4.139   1.204   1.147  0.8088 -0.3781 -1.4679
   17SOL    HW3  114   3.990   1.230   1.133  0.6386  0.1924  1.0815
   17SOL    MW4  115   4.060   1.179   1.120  0.2055 -0.1444  0.0186
   18SOL     OW  116   3.889   0.484   1.260  0.5067  0.2508  0.3170
   18SOL    HW2  117   3.966   0.453   1.212  0.8823 -0.0930  1.1302
   18SOL    HW3  118   3.881   0.576   1.235  2.3223  0.8175  1.6774
   18SOL    MW4  119   3.898   0.492   1.250  0.7958  0.2802  0.6037
   19SOL     OW  120   3.875   2.325   1.144  0.2928  0.0049 -0.4130
   19SOL    HW2  121   3.952   2.363   1.188  1.1165 -0.9962 -0.9596
   19SOL    HW3  122   3.800   2.362   1.191  1.0791  1.6692 -0.3993
   19SOL    MW4  123   3.876   2.335   1.156  0.5052  0.0923 -0.4834
   20SOL     OW  124   0.154   0.504   0.473 -0.3324 -0.3696  0.4464
   20SOL    HW2  125   0.062   0.530   0.465 -0.1304  0.4425  0.6621
   20SOL    HW3  126   0.153   0.409   0.461 -1.0675 -0.2415 -0.6264
   20SOL    MW4  127   0.141   0.495   0.471 -0.4028 -0.2455  0.3332
   21SOL     OW  128   2.070   2.161   0.489 -0.1063 -0.2284 -0.7246
   21SOL    HW2  129   1.984   2.194   0.463 -0.1126  0.2731 -0.0600
   21SOL    HW3  130   2.119   2.239   0.514  0.1611 -0.6279  0.0123
   21SOL    MW4  131   2.065   2.175   0.489 -0.0718 -0.2151 -0.5397
   22SOL     OW  132   1.293   2.276   0.596 -0.1716 -0.2095 -0.2616
   22SOL    HW2  133   1.283   2.184   0.571 -0.6333 -0.4935  0.9457
   22SOL    HW3  134   1.387   2.287   0.609 -0.0039 -0.2438 -1.3944
   22SOL    MW4  135   1.304   2.265   0.595 -0.2105 -0.2515 -0.2518
   23SOL     OW  136   2.332   4.055   0.498 -0.3274  0.3467  0.6770
   23SOL    HW2  137   2.349   3.964   0.521 -1.3514  0.2445  1.0262
   23SOL    HW3  138   2.402   4.104   0.542  2.1492 -0.5311 -2.0841
   23SOL    MW4  139   2.344   4.050   0.507 -0.1359  0.2174  0.3588
   24SOL     OW  140   0.221   3.286   0.776 -0.2884 -0.1020 -0.0333
   24SOL    HW2  141   0.220   3.287   0.680 -0.1835  0.3164 -0.0318
   24SOL    HW3  142   0.203   3.195   0.799  0.9926 -0.4750 -0.4630
   24SOL    MW4  143   0.219   3.274   0.766 -0.1055 -0.0961 -0.0898
   25SOL     OW  144   1.325   1.968   1.020 -0.1738  0.1354 -0.0629
   25SOL    HW2  145   1.297   1.932   0.936  0.2034 -2.7518  1.0012
   25SOL    HW3  146   1.243   1.986   1.066 -0.3622  0.1770 -0.4082
   25SOL    MW4  147   1.310   1.965   1.015 -0.1489 -0.2402  0.0319
   26SOL     OW  148   3.856   1.566   1.144  0.1011  0.3680  0.2481
   26SOL    HW2  149   3.862   1.475   1.172  1.2185  0.0121 -1.0896
   26SOL    HW3  150   3.932   1.610   1.183 -0.5020  0.7611  0.9926
   26SOL    MW4  151   3.867   1.560   1.153  0.1690  0.3729  0.1696
   27SOL     OW  152   4.371   3.140   0.758  0.1815 -0.1341 -0.3552
   27SOL    HW2  153   4.446   3.095   0.797  0.7548 -0.4313 -1.8102
   27SOL    HW3  154   4.370   3.112   0.667 -0.1253  1.9254 -1.0066
   27SOL    MW4  155   4.380   3.130   0.751  0.2165  0.0985 -0.6331
   28SOL     OW  156   2.194   0.844   0.784 -0.0315  0.3179  0.5053
   28SOL    HW2  157   2.114   0.794   0.799  0.4600 -0.3831  0.8276
   28SOL    HW3  158   2.265   0.782   0.800  0.5779  0.8601 -0.0249
   28SOL    MW4  159   2.193   0.829   0.788  0.1135  0.2968  0.4779
   29SOL     OW  160   3.084   2.966   0.791  0.2771 -0.2042  0.1080
   29SOL    HW2  161   3.006   3.011   0.822  0.4421 -0.6910  1.2308
   29SOL    HW3  162   3.072   2.960   0.696 -0.5057  0.7456  0.1470
   29SOL    MW4  163   3.073   2.971   0.782  0.1955 -0.1431  0.2612
   30SOL     OW  164   1.977   3.214   0.632 -0.2880  0.3060  0.4234
   30SOL    HW2  165   2.024   3.298   0.635 -0.7676  0.5928  0.0760
   30SOL    HW3  166   1.888   3.238   0.605 -0.2411 -0.3925 -0.3758
   30SOL    MW4  167   1.971   3.228   0.629 -0.3451  0.2515  0.2722
   31SOL     OW  168   3.844   1.122   0.475 -0.3140  0.2190  0.1550
   31SOL    HW2  169   3.828   1.070   0.396 -1.1589  0.9436 -0.1509
   31SOL    HW3  170   3.931   1.160   0.462 -1.0409  1.4863 -1.0680
   31SOL    MW4  171   3.853   1.120   0.463 -0.5214  0.4817 -0.0467
   32SOL     OW  172   2.735   1.834   0.490 -0.0000 -0.1496 -0.0389
   32SOL    HW2  173   2.674   1.898   0.454 -0.4224  0.2063  1.2632
   32SOL    HW3  174   2.821   1.863   0.460  0.1416  2.6802  2.7491
   32SOL    MW4  175   2.739   1.846   0.482 -0.0374  0.2708  0.5007
   33SOL     OW  176   0.123   0.210   0.494 -0.2542  0.2180 -0.2895
   33SOL    HW2  177   0.153   0.212   0.584 -0.1620  0.4187 -0.3238
   33SOL    HW3  178   0.031   0.238   0.499  0.3308  2.2433 -0.4832
   33SOL    MW4  179   0.115   0.214   0.506 -0.1649  0.5117 -0.3195
   34SOL     OW  180   1.794   4.234   1.169  0.1624 -0.3539  0.0323
   34SOL    HW2  181   1.785   4.249   1.075  0.6886  1.3993  0.2436
   34SOL    HW3  182   1.768   4.142   1.181 -1.1748 -0.2296 -1.6337
   34SOL    MW4  183   1.789   4.223   1.158  0.0553 -0.1063 -0.1596
   35SOL     OW  184   3.193   4.583   0.711  0.1060 -0.3757  0.0830
   35SOL    HW2  185   3.122   4.647   0.701  2.0428  2.0114  1.2217
   35SOL    HW3  186   3.239   4.586   0.627  0.3253 -0.1362  0.2132
   35SOL    MW4  187   3.190   4.592   0.698  0.3908 -0.0296  0.2505
   36SOL     OW  188   0.450   2.716   1.096 -0.3476 -0.3801 -0.3290
   36SOL    HW2  189   0.369   2.745   1.139 -0.9069 -1.6422 -0.5083
   36SOL    HW3  190   0.449   2.621   1.106  2.1974 -0.2545  1.5652
   36SOL    MW4  191   0.439   2.708   1.103 -0.0856 -0.5298 -0.1026
   37SOL     OW  192   3.590   3.454   0.891  0.0100  0.0178  0.2077
   37SOL    HW2  193   3.512   3.403   0.870  0.2626  0.0589 -0.8995
   37SOL    HW3  194   3.579   3.535   0.842  1.0888 -0.2793 -0.5543
   37SOL    MW4  195   3.579   3.458   0.882  0.1857 -0.0160 -0.0389
   38SOL     OW  196   0.469   1.886   1.130 -0.4634 -0.4186 -0.0168
   38SOL    HW2  197   0.389   1.926   1.164 -1.1920 -1.2568 -0.7373
   38SOL    HW3  198   0.471   1.910   1.038  0.2983 -0.1185  0.0738
   38SOL    MW4  199   0.459   1.894   1.123 -0.4590 -0.4896 -0.0998
   39SOL     OW  200   4.005   2.618   0.393  0.3542  0.8091  0.1558
   39SOL    HW2  201   3.913   2.635   0.374 -0.0722 -0.5070  1.0007
   39SOL    HW3  202   4.011   2.523   0.403  1.9135  0.8278 -0.4476
   39SOL    MW4  203   3.994   2.608   0.392  0.5035  0.6378  0.1876
   40SOL     OW  204   0.161   2.578   0.222  0.5011 -0.2867  0.5011
   40SOL    HW2  205   0.110   2.497   0.225 -0.3398  0.2735  2.9938
   40SOL    HW3  206   0.094   2.647   0.221  1.2061  0.3901  0.3344
   40SOL    MW4  207   0.145   2.576   0.222  0.4831 -0.1235  0.8080
   41SOL     OW  208   3.789   3.295   0.775 -0.4372 -0.8349  0.7193
   41SOL    HW2  209   3.721   3.354   0.808  0.0119 -0.0486  0.2546
   41SOL    HW3  210   3.871   3.337   0.799 -0.1127 -1.2806  0.4072
   41SOL    MW4  211   3.791   3.309   0.782 -0.3352 -0.7901  0.6168
   42SOL     OW  212   3.655   0.917   0.754  0.2169  0.1694 -0.1509
   42SOL    HW2  213   3.667   0.856   0.827 -1.0795 -0.3390 -0.3494
   42SOL    HW3  214   3.631   1.000   0.796  3.7366  1.0507  0.2166
   42SOL    MW4  215   3.653   0.920   0.769  0.5105  0.2186 -0.1287
   43SOL     OW  216   1.580   2.118   1.225  0.2284  0.1018  0.2290
   43SOL    HW2  217   1.626   2.201   1.241  1.1828 -0.2641 -0.6321
   43SOL    HW3  218   1.514   2.140   1.159  1.5869 -0.1938 -1.2398
   43SOL    MW4  219   1.577   2.132   1.218  0.5335  0.0143 -0.0784
   44SOL     OW  220   0.471   1.154   0.915 -0.2030  0.2884  0.2080
   44SOL    HW2  221   0.470   1.063   0.885  0.2081  0.0944  0.7751
   44SOL    HW3  222   0.388   1.189   0.886 -0.4471 -0.3269  0.1427
   44SOL    MW4  223   0.460   1.146   0.908 -0.1810  0.1817  0.2742
   45SOL     OW  224   4.129   3.591   0.725  1.0357 -0.0763  0.4290
   45SOL    HW2  225   4.192   3.641   0.777  1.3461  0.1240 -0.1438
   45SOL    HW3  226   4.049   3.644   0.726  0.9210 -0.2603  1.0322
   45SOL    MW4  227   4.127   3.605   0.732  1.0614 -0.0741  0.4330
   46SOL     OW  228   4.226   0.813   0.471  0.3907 -0.0200  0.1410
   46SOL    HW2  229   4.131   0.820   0.464  0.5393  0.7766 -1.4010
   46SOL    HW3  230   4.247   0.852   0.556 -0.7671 -1.3946  1.0684
   46SOL    MW4  231   4.216   0.819   0.481  0.2580 -0.0963  0.0599
   47SOL     OW  232   3.101   2.129   0.276 -0.2642 -0.1761  0.1500
   47SOL    HW2  233   3.117   2.139   0.182  1.4254  2.5638  0.6736
   47SOL    HW3  234   3.035   2.194   0.297  0.5662  0.3710  1.1310
   47SOL    MW4  235   3.095   2.139   0.267  0.0682  0.2577  0.3484
   48SOL     OW  236   0.941   2.537   0.373  0.4210 -0.2532 -0.0656
   48SOL    HW2  237   1.036   2.533   0.369  0.3773 -2.3889  0.3455
   48SOL    HW3  238   0.911   2.457   0.330 -1.1836  0.2901 -0.0171
   48SOL    MW4  239   0.950   2.526   0.367  0.2035 -0.4635 -0.0050
   49SOL     OW  240   0.184   2.702   0.521 -0.0361  0.3699  0.5010
   49SOL    HW2  241   0.186   2.653   0.603 -1.8465  1.3790  1.1844
   49SOL    HW3  242   0.230   2.646   0.459  1.2242 -0.4708  2.1639
   49SOL    MW4  243   0.190   2.688   0.523 -0.1087  0.3924  0.8106
   50SOL     OW  244   4.401   4.199   0.841 -0.3888 -0.3378  0.2426
   50SOL    HW2  245   4.441   4.265   0.784 -0.2287 -1.2234 -0.6876
   50SOL    HW3  246   4.436   4.217   0.928 -0.0853  0.5876 -0.0629
   50SOL    MW4  247   4.411   4.210   0.845 -0.3276 -0.3328  0.0796
   51SOL     OW  248   2.228   1.145   0.835 -0.0095  0.5276 -0.2093
   51SOL    HW2  249   2.179   1.171   0.757  0.8697 -0.8831 -1.2571
   51SOL    HW3  250   2.216   1.050   0.840  0.9885  0.4397  0.6511
   51SOL    MW4  251   2.220   1.136   0.826  0.2382  0.3299 -0.2339
   52SOL     OW  252   0.585   4.380   0.353 -0.7557 -0.3738  0.1490
   52SOL    HW2  253   0.616   4.434   0.426 -0.9483 -0.0150 -0.0354
   52SOL    HW3  254   0.508   4.426   0.320  1.0185  1.0342 -2.1633
   52SOL    MW4  255   0.579   4.393   0.358 -0.5472 -0.1402 -0.1804
   53SOL     OW  256   1.798   3.528   0.846 -0.0978  0.4162 -0.1042
   53SOL    HW2  257   1.814   3.495   0.935  0.3697  0.8162 -0.0387
   53SOL    HW3  258   1.818   3.621   0.851 -3.1675  1.1053  0.1513
   53SOL    MW4  259   1.803   3.536   0.858 -0.4411  0.5598 -0.0618
   54SOL     OW  260   3.865   0.367   0.322  0.5723  0.1476 -0.3188
   54SOL    HW2  261   3.886   0.431   0.390  0.1344 -0.6842  0.6151
   54SOL    HW3  262   3.862   0.418   0.241  1.4493  1.0896  0.2314
   54SOL    MW4  263   3.867   0.382   0.321  0.6304  0.1621 -0.1230
   55SOL     OW  264   2.129   4.103   0.687  0.4409 -0.3312 -0.0035
   55SOL    HW2  265   2.214   4.072   0.656  1.5406  2.5836 -0.0231
   55SOL    HW3  266   2.104   4.038   0.754  1.0461 -3.0705 -2.3211
   55SOL    MW4  267   2.137   4.090   0.692  0.6657 -0.3085 -0.3119
   56SOL     OW  268   3.323   1.262   0.776  0.5112  0.0559 -0.3190
   56SOL    HW2  269   3.311   1.244   0.683 -0.5347  0.1465 -0.2128
   56SOL    HW3  270   3.267   1.198   0.820 -0.5556  1.3046  0.1720
   56SOL    MW4  271   3.314   1.251   0.770  0.2325  0.2326 -0.2402
   57SOL     OW  272   2.395   4.570   0.472  0.4668 -0.6528  0.2147
   57SOL    HW2  273   2.414   4.664   0.477  0.0989 -0.6288  1.3291
   57SOL    HW3  274   2.471   4.533   0.428  1.5988 -0.1020  1.6478
   57SOL    MW4  275   2.407   4.578   0.467  0.5672 -0.5765  0.5508
   58SOL     OW  276   0.002   2.421   1.227  0.3362 -0.3355 -0.3715
   58SOL    HW2  277   0.025   2.423   1.320 -0.2710 -0.4835 -0.2155
   58SOL    HW3  278  -0.014   2.513   1.204 -0.6621 -0.4220 -0.0361
   58SOL    MW4  279   0.003   2.434   1.236  0.1244 -0.3662 -0.3067
   59SOL     OW  280   1.978   2.822   1.271  0.2921 -0.0283 -0.3468
   59SOL    HW2  281   1.986   2.904   1.223  1.1587 -0.5425 -1.0937
   59SOL    HW3  282   2.037   2.762   1.225 -0.7598 -1.2229 -0.1484
   59SOL    MW4  283   1.987   2.825   1.259  0.2676 -0.2537 -0.4191
   60SOL     OW  284   4.478   1.515   0.322  0.6108  0.1008 -0.0316
   60SOL    HW2  285   4.570   1.542   0.328  0.2008  1.3026  1.1517
   60SOL    HW3  286   4.428   1.594   0.344 -0.6795 -1.1791  1.8259
   60SOL    MW4  287   4.483   1.529   0.325  0.3867  0.0906  0.3696
   61SOL     OW  288   2.640   2.346   0.727  0.0480 -0.3249 -0.3827
   61SOL    HW2  289   2.564   2.381   0.773  0.5843 -1.1379  1.1359
   61SOL    HW3  290   2.714   2.364   0.785  0.7346 -1.3518 -0.9177
   61SOL    MW4  291   2.640   2.353   0.741  0.2091 -0.5674 -0.2530
   62SOL     OW  292   0.433   2.622   0.199  0.1125  0.0565  0.4197
   62SOL    HW2  293   0.339   2.605   0.204  0.1336  0.0144  0.7106
   62SOL    HW3  294   0.473   2.543   0.236  0.2541  0.1560  0.4784
   62SOL    MW4  295   0.426   2.609   0.205  0.1340  0.0639  0.4658
   63SOL     OW  296   1.379   0.129   0.779  0.1592  0.1830 -0.1627
   63SOL    HW2  297   1.351   0.214   0.812 -1.5765 -0.0447 -1.0137
   63SOL    HW3  298   1.309   0.069   0.804  0.1686 -0.5133 -1.7686
   63SOL    MW4  299   1.366   0.133   0.787 -0.0685  0.0611 -0.4869
   64SOL     OW  300   0.827   1.685   0.493  0.4668 -0.0843 -0.3337
   64SOL    HW2  301   0.733   1.686   0.475  0.4857 -0.1449 -0.4335
   64SOL    HW3  302   0.833   1.693   0.588  0.3277 -1.4185 -0.2093
   64SOL    MW4  303   0.816   1.686   0.503  0.4510 -0.2682 -0.3304
   65SOL     OW  304   1.545   2.207   0.304 -0.5863 -0.0937 -0.2705
   65SOL    HW2  305   1.475   2.258   0.264 -0.3518  0.7029  0.3212
   65SOL    HW3  306   1.501   2.134   0.346 -0.9499 -0.2245 -0.8692
   65SOL    MW4  307   1.530   2.204   0.304 -0.6034 -0.0057 -0.2714
   66SOL     OW  308   2.571   3.168   0.396  0.1205 -0.0977  0.1623
   66SOL    HW2  309   2.652   3.217   0.384  0.1190  0.1788  1.3008
   66SOL    HW3  310   2.517   3.224   0.451 -0.6792 -0.4829 -0.2178
   66SOL    MW4  311   2.574   3.182   0.401  0.0148 -0.1121  0.2623
   67SOL     OW  312   3.605   1.623   1.235  0.5965 -0.2771 -0.4075
   67SOL    HW2  313   3.694   1.587   1.225  1.1824  1.7661 -3.3683
   67SOL    HW3  314   3.617   1.717   1.225 -2.0967 -0.0921 -2.2204
   67SOL    MW4  315   3.619   1.631   1.232  0.3185  0.0169 -1.0374
   68SOL     OW  316   2.026   3.860   1.147  0.0834 -0.2236 -0.0402
   68SOL    HW2  317   2.103   3.898   1.189 -1.6324  0.4452  2.6323
   68SOL    HW3  318   2.024   3.770   1.177  0.6326 -0.6714 -1.3163
   68SOL    MW4  319   2.036   3.853   1.157 -0.0708 -0.1945  0.1441
   69SOL     OW  320   2.082   0.161   0.794 -0.4614  0.3036  0.0288
   69SOL    HW2  321   2.060   0.158   0.701  1.3696 -1.0064 -0.3865
   69SOL    HW3  322   2.090   0.069   0.820  0.8408  0.6868  1.0324
   69SOL    MW4  323   2.080   0.149   0.785 -0.0479  0.1813  0.1065
   70SOL     OW  324   4.262   1.272   1.242 -0.2408 -0.3045 -0.0146
   70SOL    HW2  325   4.252   1.367   1.235  0.3266 -0.1912  0.6638
   70SOL    HW3  326   4.277   1.256   1.335  0.1435 -1.0116 -0.1966
   70SOL    MW4  327   4.263   1.282   1.253 -0.1154 -0.3829  0.0507
   71SOL     OW  328   3.140   1.696   0.487 -0.3711  0.1303 -0.2180
   71SOL    HW2  329   3.070   1.762   0.485 -0.7361 -0.2420  0.0496
   71SOL    HW3  330   3.210   1.737   0.539 -1.5199 -0.5825  1.9601
   71SOL    MW4  331   3.140   1.710   0.494 -0.5708 -0.0129  0.1046
   72SOL     OW  332   1.827   0.575   0.459  0.0548  0.0829 -0.0472
   72SOL    HW2  333   1.795   0.664   0.477  0.0717  0.2793 -0.9776
   72SOL    HW3  334   1.750   0.528   0.426  0.1094 -0.1761  0.1921
   72SOL    MW4  335   1.812   0.580   0.457  0.0643  0.0747 -0.1383
   73SOL     OW  336   2.594   2.074   0.742  0.0695  0.3800  0.0544
   73SOL    HW2  337   2.598   2.044   0.651  0.7545 -0.6174  0.4113
   73SOL    HW3  338   2.608   2.169   0.736 -1.1005  0.5017 -0.9788
   73SOL    MW4  339   2.597   2.083   0.729  0.0055  0.2644 -0.0349
   74SOL     OW  340   0.240   2.595   0.786  0.0024  0.0852  0.1983
   74SOL    HW2  341   0.165   2.643   0.823 -1.1190 -0.4890 -1.2886
   74SOL    HW3  342   0.220   2.503   0.802 -0.2053 -0.1338 -1.3059
   74SOL    MW4  343   0.227   2.589   0.793 -0.1729 -0.0196 -0.1963
   75SOL     OW  344   2.014   1.290   0.262  0.2780  0.0159  0.5380
   75SOL    HW2  345   2.016   1.198   0.288 -0.4947 -0.2998 -0.4674
   75SOL    HW3  346   2.104   1.320   0.273  0.1402 -0.3099  2.7384
   75SOL    MW4  347   2.026   1.282   0.267  0.1578 -0.0687  0.6957
   76SOL     OW  348   0.337   4.467   0.278 -0.5269 -0.5307 -0.4178
   76SOL    HW2  349   0.274   4.468   0.206 -1.2131 -1.1721  0.1579
   76SOL    HW3  350   0.288   4.429   0.351 -0.0249  0.6680  0.5554
   76SOL    MW4  351   0.322   4.462   0.278 -0.5512 -0.4568 -0.2134
   77SOL     OW  352   4.221   1.604   0.889 -0.1203  0.3931 -0.3762
   77SOL    HW2  353   4.168   1.563   0.820 -0.9515  1.5848 -0.4567
   77SOL    HW3  354   4.202   1.697   0.882  0.7343  0.6548  0.6746
   77SOL    MW4  355   4.211   1.611   0.879 -0.1168  0.5848 -0.2481
   78SOL     OW  356   1.691   2.246   0.853 -0.1437 -0.1037  0.1822
   78SOL    HW2  357   1.614   2.240   0.910 -2.1215  2.3247 -2.1142
   78SOL    HW3  358   1.688   2.167   0.800 -0.4581 -0.5182  0.8121
   78SOL    MW4  359   1.680   2.235   0.854 -0.4461  0.1621 -0.0377
   79SOL     OW  360   3.607   3.143   0.439  0.2435 -0.2461 -0.2090
   79SOL    HW2  361   3.530   3.197   0.457  1.1997  1.1597 -0.2525
   79SOL    HW3  362   3.578   3.083   0.370 -1.0766 -0.3572  0.4186
   79SOL    MW4  363   3.593   3.142   0.432  0.1955 -0.0753 -0.1320
   80SOL     OW  364   3.812   0.019   0.878 -0.4203 -0.3579 -0.3350
   80SOL    HW2  365   3.741  -0.029   0.834 -1.2190 -0.0372  0.5910
   80SOL    HW3  366   3.808   0.107   0.840 -1.1309 -0.0718  0.3870
   80SOL    MW4  367   3.802   0.025   0.867 -0.6192 -0.2779 -0.1176
   81SOL     OW  368   2.042   4.561   0.843  0.2498  0.5445 -0.5129
   81SOL    HW2  369   2.037   4.587   0.935  0.1655 -0.4913 -0.2171
   81SOL    HW3  370   2.097   4.483   0.843 -0.4007  0.0777 -1.2377
   81SOL    MW4  371   2.048   4.554   0.855  0.1528  0.3467 -0.5695
   82SOL     OW  372   1.569   3.480   0.664  0.4245 -0.4761  0.0373
   82SOL    HW2  373   1.643   3.506   0.720  1.5498 -2.5226 -0.4361
   82SOL    HW3  374   1.562   3.550   0.600  1.8253 -0.1405  0.2351
   82SOL    MW4  375   1.578   3.492   0.663  0.7579 -0.7021  0.0010
   83SOL     OW  376   1.067   0.779   0.884 -0.2134  0.5689  0.0826
   83SOL    HW2  377   1.139   0.834   0.853 -0.2124  0.8035  0.4950
   83SOL    HW3  378   1.085   0.766   0.977 -0.8268  0.8180  0.2391
   83SOL    MW4  379   1.079   0.785   0.892 -0.2942  0.6327  0.1576
   84SOL     OW  380   2.347   2.863   0.615 -0.3580  0.2730  0.2550
   84SOL    HW2  381   2.330   2.895   0.703  0.2223  0.9278  0.1318
   84SOL    HW3  382   2.325   2.770   0.618 -0.5243  0.3407  1.0355
   84SOL    MW4  383   2.342   2.855   0.627 -0.3035  0.3684  0.3417
   85SOL     OW  384   2.040   3.928   0.428 -0.8391  0.4133 -0.3352
   85SOL    HW2  385   2.008   3.969   0.348 -0.5633  0.9259 -0.1796
   85SOL    HW3  386   2.113   3.983   0.456 -1.4024  0.6498  0.6742
   85SOL    MW4  387   2.046   3.940   0.421 -0.8771  0.5121 -0.1814
   86SOL     OW  388   3.281   3.817   0.722  0.4008  0.1403  0.6486
   86SOL    HW2  389   3.202   3.768   0.745  1.5094 -1.1120  1.8815
   86SOL    HW3  390   3.253   3.909   0.721 -0.7646 -0.1603  2.5172
   86SOL    MW4  391   3.267   3.823   0.725  0.3934 -0.0648  1.0578
   87SOL     OW  392   2.937   2.314   1.155  0.2963  0.4450 -0.4944
   87SOL    HW2  393   2.943   2.222   1.178 -2.7437  0.5789  1.1528
   87SOL    HW3  394   3.023   2.350   1.176  0.9177 -1.6312  0.6491
   87SOL    MW4  395   2.949   2.307   1.160 -0.0226  0.1888 -0.1262
   88SOL     OW  396   1.300   1.228   0.877 -0.2099  0.1985  0.3291
   88SOL    HW2  397   1.223   1.285   0.880 -2.6808 -3.0271  0.6814
   88SOL    HW3  398   1.317   1.207   0.969  0.7438  0.4333  0.2084
   88SOL    MW4  399   1.292   1.233   0.890 -0.4100 -0.1960  0.3598
   89SOL     OW  400   4.228   3.438   0.505 -0.4279  0.2852  0.1719
   89SOL    HW2  401   4.173   3.456   0.428 -0.7863 -0.4976  0.2388
   89SOL    HW3  402   4.181   3.479   0.578  0.2052  1.5379 -0.1001
   89SOL    MW4  403   4.215   3.446   0.504 -0.3920  0.3471  0.1448
   90SOL     OW  404   0.280   2.953   0.433 -0.6471  0.2258 -0.2934
   90SOL    HW2  405   0.238   2.870   0.457 -0.2375 -0.0698 -0.5825
   90SOL    HW3  406   0.332   2.976   0.510  0.8085 -0.8150 -0.9292
   90SOL    MW4  407   0.281   2.945   0.446 -0.4010  0.0496 -0.4154
   91SOL     OW  408   0.522   2.865   0.327  0.1890 -0.5024  0.1029
   91SOL    HW2  409   0.443   2.908   0.360  0.3550  0.6184 -0.9300
   91SOL    HW3  410   0.490   2.803   0.261  0.1142 -0.4893  0.1266
   91SOL    MW4  411   0.507   2.863   0.323  0.2009 -0.3524 -0.0302
   92SOL     OW  412   1.677   1.602   0.461 -0.0957  0.4687 -0.4968
   92SOL    HW2  413   1.751   1.645   0.505  0.2739  0.1837 -0.8320
   92SOL    HW3  414   1.716   1.525   0.419 -0.5858  0.3168 -0.6729
   92SOL    MW4  415   1.692   1.598   0.461 -0.1116  0.4109 -0.5642
   93SOL     OW  416   1.796   2.693   0.464  0.7527 -0.0355 -0.4044
   93SOL    HW2  417   1.833   2.767   0.415  2.2740 -1.2776 -1.1948
   93SOL    HW3  418   1.701   2.701   0.451  0.9280  1.5102 -0.8628
   93SOL    MW4  419   1.788   2.704   0.456  0.9766  0.0045 -0.5692
   94SOL     OW  420   1.278   0.098   0.462  0.3879  0.4156 -0.3110
   94SOL    HW2  421   1.183   0.100   0.477  0.4885 -1.5819  0.6850
   94SOL    HW3  422   1.316   0.114   0.548  0.9602 -0.2260 -0.4442
   94SOL    MW4  423   1.270   0.101   0.476  0.4766  0.0674 -0.1972
   95SOL     OW  424   2.459   3.144   0.954 -0.4747 -0.1289  0.1747
   95SOL    HW2  425   2.522   3.092   0.905  0.6874  1.2097  0.2323
   95SOL    HW3  426   2.464   3.108   1.043  0.6216  0.3407  0.3088
   95SOL    MW4  427   2.468   3.132   0.960 -0.1767  0.1094  0.1999
   96SOL     OW  428   4.357   3.067   0.491 -0.4443 -0.0127 -0.1057
   96SOL    HW2  429   4.279   3.115   0.465 -0.4499 -0.4720 -0.9627
   96SOL    HW3  430   4.430   3.120   0.460 -0.4269  0.0808  0.0942
   96SOL    MW4  431   4.357   3.080   0.484 -0.4435 -0.0608 -0.1924
   97SOL     OW  432   0.758   1.247   0.560 -0.2470  0.7244  0.0034
   97SOL    HW2  433   0.741   1.265   0.653  1.1606 -0.2819  0.4638
   97SOL    HW3  434   0.831   1.304   0.538  0.7563 -0.4994  0.0749
   97SOL    MW4  435   0.765   1.257   0.570  0.0712  0.4301  0.0736
   98SOL     OW  436   3.474   2.982   0.247  0.0291 -0.5485 -0.4250
   98SOL    HW2  437   3.507   2.909   0.194 -1.6869 -1.3540 -0.4151
   98SOL    HW3  438   3.411   2.942   0.307  1.4605  0.4465  1.8111
   98SOL    MW4  439   3.470   2.967   0.248 -0.0083 -0.5233 -0.1287
   99SOL     OW  440   3.407   3.817   0.455 -0.0390 -0.1775  0.4074
   99SOL    HW2  441   3.326   3.827   0.405 -0.0619 -0.2194  0.4360
   99SOL    HW3  442   3.378   3.795   0.544 -0.0093  0.3687  0.5506
   99SOL    MW4  443   3.393   3.815   0.461 -0.0381 -0.1111  0.4301
  100SOL     OW  444   3.129   2.706   0.862 -0.0740  0.0652  0.1933
  100SOL    HW2  445   3.115   2.801   0.853 -0.6194 -0.1316 -1.2449
  100SOL    HW3  446   3.046   2.667   0.833  0.7059 -0.8899 -0.7991
  100SOL    MW4  447   3.116   2.714   0.857 -0.0432 -0.0870 -0.1273
  101SOL     OW  448   1.995   4.315   0.528 -0.3275  0.1287 -0.0677
  101SOL    HW2  449   2.030   4.246   0.584  0.5689  0.8077  0.2108
  101SOL    HW3  450   1.938   4.367   0.585 -1.1058 -0.4332 -0.3077
  101SOL    MW4  451   1.992   4.313   0.543 -0.3119  0.1435 -0.0626
  102SOL     OW  452   4.457   3.756   0.497  0.4003 -0.1579 -0.1169
  102SOL    HW2  453   4.466   3.668   0.534 -0.0518  0.0241  0.4250
  102SOL    HW3  454   4.393   3.799   0.553 -0.1279  0.1956 -0.9837
  102SOL    MW4  455   4.450   3.750   0.510  0.2708 -0.0875 -0.1597
  103SOL     OW  456   1.721   3.275   0.518 -0.3888  0.2707 -0.3653
  103SOL    HW2  457   1.709   3.181   0.530  2.7699  0.0769  2.3215
  103SOL    HW3  458   1.663   3.315   0.583  0.7220  0.0154  0.8053
  103SOL    MW4  459   1.712   3.268   0.528  0.1745  0.2117  0.1437
  104SOL     OW  460   1.952   2.453   0.498 -0.2193  0.3039 -0.3246
  104SOL    HW2  461   1.881   2.390   0.491 -0.1026  0.0725  0.5576
  104SOL    HW3  462   1.911   2.537   0.479 -0.4002 -0.0097 -1.3842
  104SOL    MW4  463   1.937   2.456   0.494 -0.2277  0.2317 -0.3480
  105SOL     OW  464   4.055   4.579   0.747  0.3460 -0.3945 -0.0260
  105SOL    HW2  465   4.093   4.508   0.799  0.7075  0.4052  0.8192
  105SOL    HW3  466   3.964   4.583   0.776  0.7927  0.6938  1.2829
  105SOL    MW4  467   4.048   4.570   0.758  0.4525 -0.1459  0.2582
  106SOL     OW  468   1.698   4.269   0.882  0.2044 -0.1381  0.4862
  106SOL    HW2  469   1.623   4.210   0.874  0.4747 -0.5471  0.9177
  106SOL    HW3  470   1.661   4.350   0.918  0.0809 -0.5952  1.4199
  106SOL    MW4  471   1.683   4.272   0.886  0.2239 -0.2527  0.6663
  107SOL     OW  472   4.223   4.665   0.331  0.6206  0.1136  0.3688
  107SOL    HW2  473   4.143   4.708   0.362 -1.1683 -0.5698 -2.9753
  107SOL    HW3  474   4.288   4.735   0.326 -0.4030  1.1274  1.1176
  107SOL    MW4  475   4.221   4.680   0.334  0.2494  0.1574  0.0263
  108SOL     OW  476   1.964   0.148   0.539 -0.5402 -0.6830  0.4825
  108SOL    HW2  477   2.002   0.070   0.499 -0.4368 -0.6602  0.5369
  108SOL    HW3  478   1.871   0.141   0.520 -0.3274 -0.0195 -0.8763
  108SOL    MW4  479   1.957   0.137   0.531 -0.4985 -0.5925  0.3104
  109SOL     OW  480   2.221   2.652   0.887 -0.2803  0.3982  0.0083
  109SOL    HW2  481   2.214   2.745   0.866  0.6638  0.3865 -0.3493
  109SOL    HW3  482   2.140   2.614   0.851  0.0926  0.8123 -1.3039
  109SOL    MW4  483   2.209   2.660   0.879 -0.1068  0.4513 -0.2119
  110SOL     OW  484   0.599   0.162   0.515 -0.3098 -0.2530 -0.4926
  110SOL    HW2  485   0.593   0.227   0.584  2.2593 -0.4692 -0.0235
  110SOL    HW3  486   0.510   0.156   0.479 -1.1477  1.5223  1.2414
  110SOL    MW4  487   0.587   0.170   0.519 -0.0814 -0.0473 -0.2019
  111SOL     OW  488   2.850   4.541   0.856  0.0363 -0.2576  0.8412
  111SOL    HW2  489   2.871   4.613   0.798  0.0956 -1.1732 -0.2871
  111SOL    HW3  490   2.757   4.551   0.875 -0.0670 -0.1657  0.2915
  111SOL    MW4  491   2.841   4.552   0.851  0.0305 -0.3662  0.6198
  112SOL     OW  492   2.882   4.494   0.374  0.5611  0.2368  0.2185
  112SOL    HW2  493   2.793   4.462   0.358  0.2578  1.3024 -0.2981
  112SOL    HW3  494   2.935   4.415   0.384 -0.6477 -0.4159  1.6922
  112SOL    MW4  495   2.877   4.480   0.373  0.3614  0.2909  0.3448
  113SOL     OW  496   1.496   1.253   0.684 -0.2545 -0.5731 -0.0708
  113SOL    HW2  497   1.468   1.227   0.597 -0.6784 -0.0372 -0.0946
  113SOL    HW3  498   1.415   1.256   0.736 -0.1260  0.0853  0.0897
  113SOL    MW4  499   1.482   1.250   0.680 -0.2935 -0.4153 -0.0528
  114SOL     OW  500   0.196   4.647   1.221  0.0089 -0.1999  0.0686
  114SOL    HW2  501   0.192   4.552   1.234 -1.8771 -0.2563 -0.7591
  114SOL    HW3  502   0.288   4.669   1.235  0.6857 -2.3011 -0.8317
  114SOL    MW4  503   0.208   4.637   1.225 -0.1506 -0.4845 -0.1593
  115SOL     OW  504   0.149   3.201   0.489 -0.0493  0.3379  0.0630
  115SOL    HW2  505   0.189   3.126   0.444  0.9512 -0.6008  2.4166
  115SOL    HW3  506   0.179   3.277   0.441  1.0148 -0.6320 -0.8335
  115SOL    MW4  507   0.158   3.201   0.477  0.2231  0.0863  0.2552
  116SOL     OW  508   0.109   0.625   0.750  0.2283 -1.0074 -0.5585
  116SOL    HW2  509   0.183   0.638   0.809 -0.9492 -0.2274  0.7992
  116SOL    HW3  510   0.145   0.575   0.677  2.1748 -0.2908 -0.1300
  116SOL    MW4  511   0.123   0.620   0.748  0.3298 -0.8100 -0.3228
  117SOL     OW  512   4.352   1.822   0.273  0.1320 -0.8146 -0.7160
  117SOL    HW2  513   4.389   1.908   0.291 -0.6479 -0.7881  0.8042
  117SOL    HW3  514   4.339   1.821   0.178  0.1930  0.7163 -0.7510
  117SOL    MW4  515   4.355   1.833   0.263  0.0377 -0.6090 -0.5201
  118SOL     OW  516   2.743   3.461   1.117  0.0668 -0.5455 -0.0629
  118SOL    HW2  517   2.720   3.372   1.142  1.4817 -0.8460  0.2139
  118SOL    HW3  518   2.741   3.460   1.021 -0.1326 -0.8126 -0.0561
  118SOL    MW4  519   2.739   3.450   1.107  0.2270 -0.6201 -0.0255
  119SOL     OW  520   1.291   3.721   0.727  0.3274 -0.3186 -0.4787
  119SOL    HW2  521   1.262   3.803   0.768  1.0765 -0.4973  0.4229
  119SOL    HW3  522   1.364   3.692   0.781 -0.5289 -2.0811 -0.2518
  119SOL    MW4  523   1.297   3.728   0.740  0.3134 -0.5746 -0.3297
  120SOL     OW  524   1.663   1.093   0.320  0.2546 -0.4704  0.5323
  120SOL    HW2  525   1.648   1.109   0.226  0.1426  1.8579  0.9077
  120SOL    HW3  526   1.697   1.176   0.353  0.5923 -1.3692  2.5129
  120SOL    MW4  527   1.665   1.106   0.312  0.2844 -0.2818  0.8431
  121SOL     OW  528   1.779   1.335   0.403 -0.3267  0.7393  0.1072
  121SOL    HW2  529   1.819   1.355   0.487 -0.8803 -2.5806  1.2431
  121SOL    HW3  530   1.849   1.344   0.339  0.4549  1.8668  1.1232
  121SOL    MW4  531   1.793   1.339   0.405 -0.2966  0.4499  0.3911
  122SOL     OW  532   2.205   3.073   0.474 -0.1692  0.4186  0.3090
  122SOL    HW2  533   2.259   3.010   0.523  0.5919  2.0060  1.5639
  122SOL    HW3  534   2.142   3.106   0.538 -0.6723  0.8138 -0.3807
  122SOL    MW4  535   2.204   3.069   0.489 -0.1354  0.6802  0.3836
  123SOL     OW  536   3.227   2.452   0.692 -0.1116 -0.2670  0.1092
  123SOL    HW2  537   3.292   2.399   0.738  0.2036  0.6731  0.7440
  123SOL    HW3  538   3.266   2.539   0.686 -1.3987  0.3633  0.6802
  123SOL    MW4  539   3.240   2.457   0.697 -0.2403 -0.0601  0.2683
  124SOL     OW  540   3.131   3.418   0.868 -0.1639  0.3786 -0.5539
  124SOL    HW2  541   3.138   3.457   0.955  0.6462  0.4045 -0.6272
  124SOL    HW3  542   3.212   3.370   0.857 -2.1843 -3.4976  0.5568
  124SOL    MW4  543   3.142   3.417   0.878 -0.3235 -0.1295 -0.4171
  125SOL     OW  544   2.106   4.574   0.486 -0.1053 -0.0980  0.6456
  125SOL    HW2  545   2.201   4.568   0.482 -0.2196 -1.3242 -0.8603
  125SOL    HW3  546   2.077   4.485   0.508 -0.9333  0.0497  0.1869
  125SOL    MW4  547   2.115   4.561   0.488 -0.2296 -0.2408  0.3864
  126SOL     OW  548   4.027   3.383   0.861  0.0342 -0.3635  0.4174
  126SOL    HW2  549   4.056   3.461   0.814 -1.5700  0.1516  0.2384
  126SOL    HW3  550   4.037   3.405   0.954  2.4612 -1.0919  0.3570
  126SOL    MW4  551   4.032   3.396   0.867  0.1431 -0.3915  0.3858
  127SOL     OW  552   1.544   4.527   0.929 -0.2319  0.1515  0.1362
  127SOL    HW2  553   1.478   4.486   0.873 -1.2055  0.3658  1.0971
  127SOL    HW3  554   1.575   4.603   0.879 -1.1777  0.4149 -0.0575
  127SOL    MW4  555   1.539   4.531   0.915 -0.4852  0.2146  0.2375
  128SOL     OW  556   1.291   1.838   0.783  0.0292  0.4035 -0.3924
  128SOL    HW2  557   1.223   1.774   0.804 -0.3226  0.5150 -1.1429
  128SOL    HW3  558   1.373   1.796   0.809 -0.2786  0.0313 -0.0174
  128SOL    MW4  559   1.293   1.824   0.789 -0.0579  0.3692 -0.4420
  129SOL     OW  560   2.960   0.063   0.692  0.4304  0.0338 -0.0749
  129SOL    HW2  561   2.921   0.062   0.605 -1.4214  0.2458  0.7111
  129SOL    HW3  562   2.969   0.157   0.713 -0.8139  0.0102  0.6511
  129SOL    MW4  563   2.956   0.076   0.683  0.0222  0.0586  0.1246
  130SOL     OW  564   0.658   0.579   0.655 -0.0735  0.3529 -0.4744
  130SOL    HW2  565   0.718   0.627   0.599  1.7476 -0.9046  0.3681
  130SOL    HW3  566   0.571   0.611   0.630  0.9894  2.9127 -0.9972
  130SOL    MW4  567   0.654   0.589   0.645  0.3070  0.5247 -0.4323
  131SOL     OW  568   0.687   0.749   0.883  0.3834 -0.1374 -0.2378
  131SOL    HW2  569   0.694   0.670   0.829  0.3112 -1.0900  1.1210
  131SOL    HW3  570   0.605   0.789   0.856 -0.1859 -1.1809 -0.0862
  131SOL    MW4  571   0.677   0.744   0.872  0.2987 -0.4007 -0.0386
  132SOL     OW  572   0.432   4.259   0.875  0.0726  0.2408  0.1574
  132SOL    HW2  573   0.510   4.226   0.831 -1.0710 -0.0335 -1.7514
  132SOL    HW3  574   0.366   4.190   0.862 -1.2865  1.6783 -0.7223
  132SOL    MW4  575   0.434   4.245   0.868 -0.2576  0.3943 -0.2105
  133SOL     OW  576   2.474   1.353   0.537  0.0374  0.2901  0.0845
  133SOL    HW2  577   2.480   1.337   0.631  0.0162 -0.4658 -0.0430
  133SOL    HW3  578   2.538   1.422   0.521  2.7160 -2.0934  0.0843
  133SOL    MW4  579   2.484   1.360   0.547  0.3879 -0.1241  0.0677
  134SOL     OW  580   4.257   2.047   0.707  0.0240  0.4455 -0.6520
  134SOL    HW2  581   4.328   2.107   0.728 -1.2631  1.1717  1.8253
  134SOL    HW3  582   4.226   2.075   0.621 -0.4548  3.2521  0.3777
  134SOL    MW4  583   4.262   2.058   0.699 -0.2098  0.9120 -0.1894
  135SOL     OW  584   3.079   1.009   0.627  0.3014 -0.4767  0.5107
  135SOL    HW2  585   3.123   1.016   0.711  0.7469  1.8730  0.1321
  135SOL    HW3  586   2.986   1.017   0.648  0.3432 -0.9123  0.8703
  135SOL    MW4  587   3.072   1.011   0.641  0.3655 -0.2241  0.5082
  136SOL     OW  588   0.962   0.039   0.751 -0.2682  0.3398 -0.0746
  136SOL    HW2  589   0.949   0.121   0.799 -0.4198 -0.8104  1.9061
  136SOL    HW3  590   0.891  -0.017   0.782 -0.5382 -0.3297 -1.8924
  136SOL    MW4  591   0.951   0.043   0.762 -0.3239  0.0998 -0.0532
  137SOL     OW  592   1.781   3.529   0.377  0.1768 -0.4431 -0.0392
  137SOL    HW2  593   1.744   3.446   0.406 -0.4498 -0.2052 -0.1555
  137SOL    HW3  594   1.711   3.593   0.391  0.6785  0.0782  0.1224
  137SOL    MW4  595   1.767   3.526   0.383  0.1602 -0.3431 -0.0332
  138SOL     OW  596   0.529   1.183   0.232 -0.2410 -0.4947 -0.0886
  138SOL    HW2  597   0.540   1.131   0.153 -0.5231 -0.1612 -0.3439
  138SOL    HW3  598   0.446   1.153   0.269 -0.6047  0.0628 -0.4514
  138SOL    MW4  599   0.520   1.172   0.227 -0.3262 -0.3772 -0.1702
  139SOL     OW  600   4.465   2.681   1.167  0.1454 -0.0979 -0.0288
  139SOL    HW2  601   4.487   2.698   1.075  0.7950 -1.2233 -0.0894
  139SOL    HW3  602   4.402   2.749   1.189  1.4056  1.3425 -0.7556
  139SOL    MW4  603   4.460   2.692   1.158  0.3972 -0.0563 -0.1328
  140SOL     OW  604   0.422   0.636   0.494  0.5643 -0.3446  0.8232
  140SOL    HW2  605   0.479   0.575   0.446  1.2528 -0.1719  1.4205
  140SOL    HW3  606   0.334   0.600   0.482  0.9003 -1.1221  0.6559
  140SOL    MW4  607   0.418   0.623   0.486  0.6995 -0.4243  0.8799
  141SOL     OW  608   1.347   3.442   1.073 -0.3527 -0.2078 -0.5428
  141SOL    HW2  609   1.341   3.355   1.115 -1.5375 -0.1235 -0.5083
  141SOL    HW3  610   1.349   3.423   0.980 -0.0788 -0.2974 -0.5190
  141SOL    MW4  611   1.346   3.428   1.067 -0.4729 -0.2086 -0.5352
  142SOL     OW  612   3.606   4.112   0.871 -0.1591 -0.1029 -0.0979
  142SOL    HW2  613   3.551   4.034   0.877 -1.5129  0.7459 -1.1711
  142SOL    HW3  614   3.613   4.129   0.777  1.5672  0.0828  0.0403
  142SOL    MW4  615   3.600   4.104   0.859 -0.1099  0.0339 -0.2212
  143SOL     OW  616   2.001   2.546   0.786  0.4572 -0.2815  0.0344
  143SOL    HW2  617   1.997   2.465   0.837  0.4580 -0.2137  0.1415
  143SOL    HW3  618   1.990   2.518   0.695 -0.4048 -0.3151  0.1428
  143SOL    MW4  619   1.999   2.532   0.780  0.3436 -0.2770  0.0629
  144SOL     OW  620   3.895   4.315   0.234  0.0497 -0.4207 -0.0204
  144SOL    HW2  621   3.899   4.350   0.145  1.5958  1.0584  0.5973
  144SOL    HW3  622   3.804   4.286   0.245 -0.4026  0.3239 -1.7232
  144SOL    MW4  623   3.884   4.316   0.224  0.1938 -0.1273 -0.1636
  145SOL     OW  624   2.324   3.602   0.451  0.1986 -0.2129  0.5967
  145SOL    HW2  625   2.358   3.513   0.453  0.8416  0.0369  1.2853
  145SOL    HW3  626   2.229   3.592   0.457  0.3488 -0.8140  2.2525
  145SOL    MW4  627   2.316   3.589   0.452  0.3033 -0.2589  0.9061
  146SOL     OW  628   1.994   3.090   0.865 -0.3968  0.1759 -0.0922
  146SOL    HW2  629   1.991   3.143   0.785 -1.0113  0.8573  0.3614
  146SOL    HW3  630   1.915   3.035   0.860 -0.7682  0.6575  0.3221
  146SOL    MW4  631   1.983   3.090   0.854 -0.5268  0.3295  0.0222
  147SOL     OW  632   4.051   2.713   1.129 -0.1138 -0.0641 -0.6305
  147SOL    HW2  633   3.971   2.747   1.168  1.0101  1.7581  0.1032
  147SOL    HW3  634   4.069   2.633   1.179 -0.4457  0.5238  0.4469
  147SOL    MW4  635   4.042   2.707   1.141 -0.0095  0.2542 -0.3916
  148SOL     OW  636   1.396   4.496   0.487  0.3452 -0.0873  0.1448
  148SOL    HW2  637   1.343   4.569   0.456 -0.3885 -0.4414  0.5712
  148SOL    HW3  638   1.357   4.418   0.446  1.8060 -0.1367 -1.2129
  148SOL    MW4  639   1.384   4.495   0.478  0.4411 -0.1402  0.0219
  149SOL     OW  640   1.799   0.888   0.475 -0.4875 -0.4117  0.0444
  149SOL    HW2  641   1.742   0.939   0.418 -0.0422  0.7979  0.6769
  149SOL    HW3  642   1.765   0.903   0.563  0.1857 -0.5098  0.3255
  149SOL    MW4  643   1.787   0.896   0.479 -0.3399 -0.2651  0.1650
  150SOL     OW  644   2.427   0.648   0.489  0.0878  0.4257 -0.3674
  150SOL    HW2  645   2.352   0.693   0.449 -0.4123  0.0873  0.1795
  150SOL    HW3  646   2.388   0.586   0.550  0.8573  1.4754  1.2277
  150SOL    MW4  647   2.412   0.646   0.492  0.1235  0.5195 -0.0848
  151SOL     OW  648   3.652   4.206   0.251 -0.0402  0.2375  0.1479
  151SOL    HW2  649   3.652   4.129   0.308 -0.8999  0.2267  0.1505
  151SOL    HW3  650   3.588   4.265   0.292  0.0455  0.6264 -0.2773
  151SOL    MW4  651   3.643   4.204   0.264 -0.1426  0.2875  0.0921
  152SOL     OW  652   4.486   3.503   0.591 -0.3359 -0.4336 -0.2993
  152SOL    HW2  653   4.476   3.485   0.685  1.2009 -0.1880 -0.0783
  152SOL    HW3  654   4.402   3.477   0.553 -1.0177 -0.4206  1.1600
  152SOL    MW4  655   4.473   3.497   0.598 -0.2236 -0.3996 -0.0776
  153SOL     OW  656   2.351   1.957   0.848 -0.0525  0.4493  0.7443
  153SOL    HW2  657   2.428   2.010   0.828 -0.7870  1.1892 -0.1515
  153SOL    HW3  658   2.282   1.993   0.792 -1.3112  0.4454  2.2571
  153SOL    MW4  659   2.352   1.969   0.838 -0.3152  0.5463  0.8257
  154SOL     OW  660   0.693   1.019   0.420  0.0252  0.1972  0.0829
  154SOL    HW2  661   0.638   1.063   0.355  0.4751  0.8808  0.1594
  154SOL    HW3  662   0.723   1.089   0.478  0.5706 -0.2402  0.3391
  154SOL    MW4  663   0.690   1.034   0.419  0.1566  0.2298  0.1267
  155SOL     OW  664   2.069   3.905   0.864 -0.5139  0.0309  0.2301
  155SOL    HW2  665   2.079   3.891   0.958  0.6970  2.2197  0.4446
  155SOL    HW3  666   1.984   3.865   0.844 -0.7618 -0.5258  2.2199
  155SOL    MW4  667   2.059   3.898   0.874 -0.3867  0.2465  0.5210
  156SOL     OW  668   2.627   0.579   0.719 -0.1893 -0.2464 -0.2383
  156SOL    HW2  669   2.640   0.564   0.625 -1.7012  2.0478 -0.8518
  156SOL    HW3  670   2.691   0.647   0.741 -0.4437 -0.1531  0.2116
  156SOL    MW4  671   2.637   0.586   0.710 -0.4225  0.0686 -0.2599
  157SOL     OW  672   2.235   1.991   0.348  0.0428 -0.2208  0.0971
  157SOL    HW2  673   2.235   2.028   0.260 -0.6640 -1.8641 -0.6094
  157SOL    HW3  674   2.185   2.053   0.400  1.1204  1.1584 -0.4827
  157SOL    MW4  675   2.229   2.004   0.343  0.0918 -0.2556 -0.0726
  158SOL     OW  676   3.025   0.320   0.293 -0.1029  0.0435  0.1222
  158SOL    HW2  677   2.959   0.323   0.224 -0.2743  0.3414  0.2989
  158SOL    HW3  678   2.997   0.387   0.356 -1.0008 -1.5155  1.4176
  158SOL    MW4  679   3.012   0.329   0.292 -0.2441 -0.1229  0.3165
  159SOL     OW  680   3.838   3.901   1.154  0.6059  0.2004 -0.1628
  159SOL    HW2  681   3.771   3.936   1.213 -0.5926 -1.7204 -0.3302
  159SOL    HW3  682   3.843   3.965   1.083 -1.0879  0.3589 -0.1634
  159SOL    MW4  683   3.830   3.914   1.153  0.2244 -0.0319 -0.1849
  160SOL     OW  684   0.597   2.429   0.851  0.2393 -0.3597  0.1259
  160SOL    HW2  685   0.641   2.391   0.927  0.7467 -1.7802 -0.8591
  160SOL    HW3  686   0.530   2.364   0.828 -0.5346  0.4974 -0.0920
  160SOL    MW4  687   0.594   2.415   0.858  0.2041 -0.4339 -0.0327
  161SOL     OW  688   1.522   0.578   0.704 -0.6634 -0.4106 -0.1188
  161SOL    HW2  689   1.452   0.605   0.645 -0.3615 -1.8656 -1.1671
  161SOL    HW3  690   1.476   0.540   0.779 -1.0273  0.1797 -0.0415
  161SOL    MW4  691   1.506   0.576   0.706 -0.6716 -0.5248 -0.2469
  162SOL     OW  692   1.232   2.510   0.423 -0.3307  0.2320  0.2071
  162SOL    HW2  693   1.240   2.589   0.477  0.7697 -0.2938  0.8192
  162SOL    HW3  694   1.257   2.438   0.481  1.5963 -0.2623 -1.1925
  162SOL    MW4  695   1.236   2.511   0.438  0.0687  0.0975  0.1032
  163SOL     OW  696   2.680   3.468   0.827 -0.6627  0.1122 -0.2292
  163SOL    HW2  697   2.682   3.552   0.782  0.0214 -0.3458 -1.0453
  163SOL    HW3  698   2.598   3.428   0.799 -0.6282  0.1794 -0.4243
  163SOL    MW4  699   2.669   3.474   0.818 -0.5679  0.0603 -0.3626
  164SOL     OW  700   2.711   0.348   0.845  0.1572  0.0808  0.0299
  164SOL    HW2  701   2.675   0.430   0.811 -1.0779 -0.5052 -0.0999
  164SOL    HW3  702   2.649   0.281   0.817 -0.1794 -0.5916  2.2422
  164SOL    MW4  703   2.698   0.350   0.837 -0.0503 -0.0852  0.3046
  165SOL     OW  704   3.565   3.585   0.487 -0.0122  0.4511 -0.1866
  165SOL    HW2  705   3.650   3.585   0.444 -0.2709  0.4940 -0.6964
  165SOL    HW3  706   3.525   3.668   0.462 -0.4841  0.1324 -0.4933
  165SOL    MW4  707   3.571   3.596   0.478 -0.1087  0.4146 -0.2943
  166SOL     OW  708   2.950   1.503   0.456 -0.2772  0.0244  0.0570
  166SOL    HW2  709   3.010   1.432   0.476  0.5790  1.0790  1.3497
  166SOL    HW3  710   3.005   1.582   0.458 -1.2147  0.7422 -1.2620
  166SOL    MW4  711   2.965   1.504   0.459 -0.2878  0.2583  0.0535
  167SOL     OW  712   4.027   2.734   0.656 -0.1263  0.5849  0.3847
  167SOL    HW2  713   4.020   2.830   0.651  1.0113  0.6824  0.6225
  167SOL    HW3  714   4.041   2.706   0.566 -0.4950  0.6330  0.3101
  167SOL    MW4  715   4.028   2.743   0.644 -0.0248  0.6042  0.4062
  168SOL     OW  716   1.049   3.591   0.643 -0.0578  0.0063  0.1895
  168SOL    HW2  717   1.132   3.628   0.674  1.0407 -1.6242 -0.7580
  168SOL    HW3  718   1.030   3.519   0.703 -1.2367  0.9123  0.9186
  168SOL    MW4  719   1.057   3.586   0.655 -0.0683 -0.0894  0.1608
  169SOL     OW  720   1.663   4.527   0.453 -0.4447 -0.1354  0.1085
  169SOL    HW2  721   1.705   4.519   0.538 -1.0177 -1.1431  0.3090
  169SOL    HW3  722   1.569   4.520   0.472 -0.6533  1.0292 -0.4491
  169SOL    MW4  723   1.656   4.525   0.467 -0.5480 -0.1149  0.0614
  170SOL     OW  724   4.114   0.152   0.644 -0.0925 -0.4472  0.0147
  170SOL    HW2  725   4.094   0.073   0.694  0.7153 -0.4476  0.3466
  170SOL    HW3  726   4.100   0.224   0.705 -0.1882 -0.3748 -0.0919
  170SOL    MW4  727   4.110   0.151   0.659  0.0014 -0.4377  0.0445
  171SOL     OW  728   4.447   4.642   0.855  0.0538 -0.1285  0.3835
  171SOL    HW2  729   4.393   4.639   0.935 -0.9441 -0.7172 -0.2991
  171SOL    HW3  730   4.435   4.730   0.821 -0.5903 -0.2921  0.1723
  171SOL    MW4  731   4.438   4.653   0.861 -0.1626 -0.2279  0.2655
  172SOL     OW  732   1.241   0.949   0.521 -0.1019 -0.1473 -0.2431
  172SOL    HW2  733   1.154   0.933   0.484  0.2523 -1.1989 -0.6570
  172SOL    HW3  734   1.225   0.968   0.613 -0.6223 -2.5495  0.1902
  172SOL    MW4  735   1.228   0.949   0.528 -0.1239 -0.6030 -0.2406
  173SOL     OW  736   1.726   1.237   0.847 -0.2752 -0.2854  0.0667
  173SOL    HW2  737   1.639   1.244   0.808 -0.7005 -1.0393  0.8452
  173SOL    HW3  738   1.784   1.283   0.787 -0.9551 -1.2015 -1.3151
  173SOL    MW4  739   1.722   1.244   0.834 -0.4210 -0.5058 -0.0129
  174SOL     OW  740   2.268   0.372   0.883  0.0690  0.0899 -0.1346
  174SOL    HW2  741   2.271   0.344   0.975  0.7052 -0.1136 -0.2165
  174SOL    HW3  742   2.193   0.325   0.846 -0.1332  0.1024  0.2590
  174SOL    MW4  743   2.258   0.362   0.890  0.1264  0.0647 -0.0934
  175SOL     OW  744   3.552   1.623   0.768 -0.0496  0.6435 -0.5896
  175SOL    HW2  745   3.484   1.563   0.797 -1.6239  1.8448 -1.7009
  175SOL    HW3  746   3.579   1.589   0.683  0.1157  0.6783 -0.5518
  175SOL    MW4  747   3.547   1.610   0.761 -0.2356  0.8067 -0.7312
  176SOL     OW  748   1.961   1.842   0.811  0.5892 -0.4134  0.0661
  176SOL    HW2  749   2.016   1.919   0.796  1.8502 -1.1731  0.7182
  176SOL    HW3  750   1.873   1.878   0.827  0.9934  0.8373 -0.4494
  176SOL    MW4  751   1.957   1.857   0.811  0.8088 -0.3487  0.0842
  177SOL     OW  752   4.092   1.290   0.450  0.5783 -0.2197  0.1244
  177SOL    HW2  753   4.113   1.261   0.539  1.3036 -0.4955 -0.1343
  177SOL    HW3  754   4.174   1.279   0.401  0.4317  0.7820 -0.3599
  177SOL    MW4  755   4.106   1.285   0.456  0.6547 -0.1240  0.0264
  178SOL     OW  756   1.781   3.805   0.801 -0.3962 -0.1390 -0.0070
  178SOL    HW2  757   1.693   3.817   0.835 -1.0791 -1.9711 -1.0618
  178SOL    HW3  758   1.777   3.832   0.710  0.3260  0.4638  0.1286
  178SOL    MW4  759   1.769   3.810   0.794 -0.3910 -0.3011 -0.1283
  179SOL     OW  760   1.119   0.502   0.796  0.3016  0.0850 -0.2528
  179SOL    HW2  761   1.099   0.491   0.703  0.9910 -0.3277 -0.3582
  179SOL    HW3  762   1.101   0.595   0.813  0.6022  0.2713 -0.9105
  179SOL    MW4  763   1.114   0.513   0.786  0.4323  0.0551 -0.3535
  180SOL     OW  764   3.332   1.788   0.691 -0.2501 -0.2608  0.1249
  180SOL    HW2  765   3.267   1.767   0.759 -0.4689  0.5836  0.1780
  180SOL    HW3  766   3.402   1.724   0.704 -0.7750 -0.7701  0.4761
  180SOL    MW4  767   3.333   1.777   0.702 -0.3483 -0.2166  0.1782
  181SOL     OW  768   3.445   0.294   0.788  0.2002 -0.0137 -0.0206
  181SOL    HW2  769   3.441   0.198   0.790  0.2832 -0.0159  0.0273
  181SOL    HW3  770   3.365   0.322   0.833 -0.3795 -0.0588 -1.0081
  181SOL    MW4  771   3.434   0.285   0.794  0.1347 -0.0199 -0.1446
  182SOL     OW  772   0.456   0.880   0.816  0.2901 -0.0323  0.6211
  182SOL    HW2  773   0.458   0.894   0.721 -0.2441 -0.0558  0.6072
  182SOL    HW3  774   0.404   0.800   0.827 -0.6986  0.6622  1.0180
  182SOL    MW4  775   0.450   0.871   0.805  0.0892  0.0563  0.6716
  183SOL     OW  776   2.762   3.369   0.319  0.3532  0.0191 -0.0298
  183SOL    HW2  777   2.698   3.372   0.248  0.9042  0.8046 -0.5026
  183SOL    HW3  778   2.761   3.457   0.357  0.2824 -0.3074  0.7431
  183SOL    MW4  779   2.754   3.381   0.315  0.4165  0.0796  0.0098
  184SOL     OW  780   2.685   0.533   0.452 -0.7580  0.0186 -0.4703
  184SOL    HW2  781   2.613   0.583   0.412 -1.3596 -0.8614 -0.4943
  184SOL    HW3  782   2.686   0.450   0.404 -0.0276 -0.1567 -0.1554
  184SOL    MW4  783   2.675   0.529   0.440 -0.7410 -0.1206 -0.4320
  185SOL     OW  784   4.109   3.122   0.877 -0.0487 -0.1026  0.7817
  185SOL    HW2  785   4.083   3.214   0.868 -0.5195 -0.3366 -0.3408
  185SOL    HW3  786   4.198   3.119   0.841 -1.0272 -0.5709 -1.7608
  185SOL    MW4  787   4.117   3.134   0.871 -0.2398 -0.1955  0.2981
  186SOL     OW  788   1.517   2.783   0.487  0.2683  0.2368  0.1774
  186SOL    HW2  789   1.502   2.738   0.570 -1.5230 -0.1870 -0.3604
  186SOL    HW3  790   1.430   2.802   0.454  0.9337 -0.8151 -2.2806
  186SOL    MW4  791   1.504   2.779   0.494  0.1197  0.0420 -0.2178
  187SOL     OW  792   1.488   1.963   0.436 -0.3804 -0.2894 -0.0993
  187SOL    HW2  793   1.397   1.962   0.466 -0.1033 -4.2787  0.8248
  187SOL    HW3  794   1.493   1.892   0.372  1.5441  1.4868 -2.0086
  187SOL    MW4  795   1.477   1.954   0.431 -0.0899 -0.5813 -0.2293
  188SOL     OW  796   2.033   1.589   1.166  0.5547  0.7052  0.1500
  188SOL    HW2  797   2.124   1.616   1.179  1.4057 -1.2890 -1.2357
  188SOL    HW3  798   2.036   1.493   1.176 -0.8818  0.3441 -2.5571
  188SOL    MW4  799   2.045   1.580   1.169  0.4776  0.3943 -0.3899
  189SOL     OW  800   3.744   2.696   0.362 -0.1066  0.4489 -0.0796
  189SOL    HW2  801   3.747   2.752   0.440  2.6620  0.6821 -0.3276
  189SOL    HW3  802   3.711   2.612   0.394  2.2452  0.1249  1.6454
  189SOL    MW4  803   3.740   2.692   0.377  0.5691  0.4370  0.1153
  190SOL     OW  804   0.147   2.098   0.524  0.0069 -0.1661 -0.5889
  190SOL    HW2  805   0.157   2.003   0.535 -0.1432 -0.0857  0.2400
  190SOL    HW3  806   0.109   2.128   0.607  1.6322  0.8481 -0.1893
  190SOL    MW4  807   0.144   2.089   0.537  0.2015 -0.0217 -0.4268
  191SOL     OW  808   2.900   3.311   0.741  0.1777 -0.2787  0.1562
  191SOL    HW2  809   2.980   3.341   0.782  0.3277 -0.0834 -0.2701
  191SOL    HW3  810   2.833   3.375   0.768  0.2825 -0.1317  0.0689
  191SOL    MW4  811   2.901   3.324   0.750  0.2117 -0.2337  0.0885
  192SOL     OW  812   1.566   0.410   0.473 -0.0259 -0.0374  0.2424
  192SOL    HW2  813   1.595   0.319   0.479  0.9937  0.3037  0.6613
  192SOL    HW3  814   1.567   0.442   0.563  1.8030  1.0311 -0.1174
  192SOL    MW4  815   1.570   0.403   0.485  0.3500  0.1486  0.2502
  193SOL     OW  816   1.826   0.275   0.893  0.2962  0.2978  0.2858
  193SOL    HW2  817   1.902   0.218   0.884  0.2885  0.6748 -2.4376
  193SOL    HW3  818   1.848   0.352   0.841 -1.2915  1.1257  0.8039
  193SOL    MW4  819   1.839   0.278   0.885  0.0856  0.4568 -0.0052
  194SOL     OW  820   3.846   2.050   1.254  0.4296 -0.3003 -0.1402
  194SOL    HW2  821   3.822   2.136   1.220  0.0951  0.1972  1.3344
  194SOL    HW3  822   3.841   2.059   1.349  1.7727 -1.5587  0.0665
  194SOL    MW4  823   3.842   2.062   1.262  0.5627 -0.4008  0.0817
  195SOL     OW  824   1.087   2.306   1.095  0.0367  0.0325 -0.3574
  195SOL    HW2  825   1.164   2.340   1.140 -0.8603 -0.4705  1.6070
  195SOL    HW3  826   1.087   2.212   1.114  0.1333 -0.3590 -2.1776
  195SOL    MW4  827   1.097   2.298   1.103 -0.0689 -0.0854 -0.3384
  196SOL     OW  828   3.211   4.173   0.432 -0.3292 -0.3803 -0.4708
  196SOL    HW2  829   3.235   4.176   0.525 -2.0811  1.7852 -0.0540
  196SOL    HW3  830   3.280   4.224   0.388 -1.5038  1.7901  0.1361
  196SOL    MW4  831   3.223   4.180   0.438 -0.7153  0.1917 -0.3357
  197SOL     OW  832   0.135   3.696   0.884 -0.2755  0.3156  0.6212
  197SOL    HW2  833   0.138   3.732   0.973 -1.4828 -3.6504  2.3906
  197SOL    HW3  834   0.221   3.656   0.871 -1.2494 -2.1928  1.4819
  197SOL    MW4  835   0.147   3.695   0.894 -0.5633 -0.5386  0.9683
  198SOL     OW  836   4.183   2.460   0.898 -0.0892 -0.0502 -0.2403
  198SOL    HW2  837   4.237   2.518   0.845 -0.2695 -0.1918 -0.5788
  198SOL    HW3  838   4.102   2.509   0.913  0.8547  0.9198  1.8370
  198SOL    MW4  839   4.179   2.474   0.893  0.0119  0.0591 -0.0109
  199SOL     OW  840   4.142   1.760   0.445  0.1721  0.2280  0.1825
  199SOL    HW2  841   4.082   1.829   0.474 -0.0672  0.6844 -1.3543
  199SOL    HW3  842   4.200   1.804   0.383 -0.4280 -1.0933 -1.3433
  199SOL    MW4  843   4.142   1.775   0.441  0.0615  0.1137 -0.2216
  200SOL     OW  844   4.299   4.633   1.124 -0.1439 -0.3343 -0.3089
  200SOL    HW2  845   4.220   4.680   1.149  0.4778  0.6329 -0.1273
  200SOL    HW3  846   4.284   4.543   1.154 -0.5697  0.1710  1.0186
  200SOL    MW4  847   4.287   4.627   1.131 -0.1183 -0.1402 -0.1097
  201SOL     OW  848   2.366   3.326   0.514  0.2634  0.6376  0.2908
  201SOL    HW2  849   2.307   3.253   0.494  0.5241  0.8934 -1.5592
  201SOL    HW3  850   2.385   3.318   0.607 -0.0320 -1.4239  0.1913
  201SOL    MW4  851   2.361   3.315   0.523  0.2592  0.3996  0.0336
  202SOL     OW  852   1.528   2.788   1.243 -0.3626 -0.2746 -0.2722
  202SOL    HW2  853   1.456   2.737   1.206 -1.6365  1.3319 -0.0772
  202SOL    HW3  854   1.606   2.736   1.225 -1.4996 -1.7761 -1.0036
  202SOL    MW4  855   1.529   2.774   1.236 -0.6807 -0.2608 -0.3428
  203SOL     OW  856   0.533   3.521   0.668  0.0637  0.2686  0.3672
  203SOL    HW2  857   0.471   3.542   0.738  0.1844 -0.1359  0.5970
  203SOL    HW3  858   0.587   3.600   0.660 -0.2115  0.4679  0.4521
  203SOL    MW4  859   0.532   3.534   0.676  0.0434  0.2418  0.4088
  204SOL     OW  860   2.380   1.727   0.687 -0.1542 -0.4173 -0.2897
  204SOL    HW2  861   2.473   1.706   0.699 -0.3737 -1.1426  0.1901
  204SOL    HW3  862   2.367   1.808   0.736  0.3575  0.0073 -0.8511
  204SOL    MW4  863   2.391   1.735   0.696 -0.1156 -0.4570 -0.3004
  205SOL     OW  864   0.162   1.914   0.870 -0.4193 -0.1371  0.4310
  205SOL    HW2  865   0.252   1.938   0.893 -0.4362  1.1935 -0.8012
  205SOL    HW3  866   0.170   1.869   0.786 -0.8141 -0.9584  0.8242
  205SOL    MW4  867   0.175   1.911   0.862 -0.4736 -0.0699  0.3203
  206SOL     OW  868   1.516   1.673   0.848  0.1061 -0.1320  0.1456
  206SOL    HW2  869   1.530   1.626   0.930  2.6694 -0.1501 -0.2582
  206SOL    HW3  870   1.494   1.605   0.784 -0.7402 -0.2398  0.5411
  206SOL    MW4  871   1.515   1.658   0.850  0.3327 -0.1485  0.1445
  207SOL     OW  872   3.983   4.215   0.691  0.0127  0.1588  0.1455
  207SOL    HW2  873   4.048   4.262   0.742  0.4209  0.1442 -0.3619
  207SOL    HW3  874   4.024   4.201   0.605 -0.0530 -1.1975  0.3109
  207SOL    MW4  875   3.997   4.219   0.686  0.0577 -0.0224  0.1004
  208SOL     OW  876   1.411   1.157   0.423  0.0634 -0.3917  0.2119
  208SOL    HW2  877   1.497   1.119   0.403 -0.2023 -0.8935  0.0010
  208SOL    HW3  878   1.353   1.081   0.433 -0.3436 -0.0570  0.4017
  208SOL    MW4  879   1.415   1.142   0.421 -0.0253 -0.4138  0.2091
  209SOL     OW  880   2.453   1.318   0.824  0.2845 -0.1812 -0.0073
  209SOL    HW2  881   2.409   1.396   0.858  1.6878  1.1904 -1.2504
  209SOL    HW3  882   2.386   1.250   0.824 -0.6617  0.7239  2.1437
  209SOL    MW4  883   2.439   1.319   0.828  0.3448  0.1192  0.1126
  210SOL     OW  884   1.786   3.913   0.542  0.4168 -0.2713  0.8962
  210SOL    HW2  885   1.752   4.003   0.548  0.2891 -0.2203 -0.3543
  210SOL    HW3  886   1.878   3.924   0.520 -0.1188 -0.4448 -1.5620
  210SOL    MW4  887   1.794   3.926   0.540  0.3293 -0.2875  0.4068
  211SOL     OW  888   4.169   0.354   0.830  0.4681  0.1153 -0.2341
  211SOL    HW2  889   4.201   0.444   0.829 -0.1289  0.3370  0.1531
  211SOL    HW3  890   4.138   0.340   0.919 -0.3136 -0.1634 -0.5433
  211SOL    MW4  891   4.169   0.364   0.842  0.2866  0.1078 -0.2239
  212SOL     OW  892   2.404   3.782   0.230 -0.3072 -0.1103 -0.0931
  212SOL    HW2  893   2.442   3.744   0.150  1.9033 -0.4758  1.0934
  212SOL    HW3  894   2.373   3.707   0.280 -0.1824  0.0006  0.1479
  212SOL    MW4  895   2.405   3.767   0.226  0.0012 -0.1440  0.0952
  213SOL     OW  896   3.411   0.525   1.268  0.2071  0.0864 -0.2086
  213SOL    HW2  897   3.328   0.492   1.234 -0.4919  2.0976 -0.5393
  213SOL    HW3  898   3.429   0.603   1.216  2.4338 -0.4331 -0.2853
  213SOL    MW4  899   3.403   0.531   1.256  0.4086  0.2832 -0.2624
  214SOL     OW  900   3.850   4.521   0.412 -0.1658 -0.1807 -0.0084
  214SOL    HW2  901   3.873   4.460   0.342  0.5583  1.2295 -1.0320
  214SOL    HW3  902   3.917   4.589   0.407 -1.1152  0.8498  0.9248
  214SOL    MW4  903   3.862   4.522   0.403 -0.1953  0.1411 -0.0203
  215SOL     OW  904   1.707   2.999   0.558  0.1771 -0.2594 -0.0715
  215SOL    HW2  905   1.633   2.940   0.540 -0.7947  1.3867 -1.6751
  215SOL    HW3  906   1.770   2.979   0.489  0.9212 -1.0966  0.8270
  215SOL    MW4  907   1.706   2.988   0.547  0.1471 -0.1526 -0.1644
  216SOL     OW  908   2.378   0.633   0.858  0.1858  0.2248 -0.1207
  216SOL    HW2  909   2.456   0.617   0.804  1.4016 -0.0262  1.6634
  216SOL    HW3  910   2.331   0.550   0.857 -0.1550  0.4194 -1.3313
  216SOL    MW4  911   2.382   0.620   0.851  0.3016  0.2174 -0.0450
  217SOL     OW  912   0.919   3.534   0.400  0.3405 -0.2217  0.0633
  217SOL    HW2  913   0.950   3.544   0.490 -0.1251  0.1158  0.1841
  217SOL    HW3  914   0.996   3.503   0.352  0.8882  0.6789  0.3485
  217SOL    MW4  915   0.933   3.531   0.406  0.3513 -0.0587  0.1168
  218SOL     OW  916   2.928   2.335   0.357  0.3254  0.9468  0.1081
  218SOL    HW2  917   2.924   2.308   0.449 -1.0993  1.2931  0.1659
  218SOL    HW3  918   2.971   2.420   0.359 -0.6488  1.4390  0.5809
  218SOL    MW4  919   2.933   2.342   0.370  0.0091  1.0571  0.1781
  219SOL     OW  920   2.852   3.867   0.869 -0.7085 -0.1392 -0.2995
  219SOL    HW2  921   2.917   3.809   0.828 -0.1065 -0.5727  1.2306
  219SOL    HW3  922   2.874   3.866   0.962 -1.3036  1.7914 -0.1132
  219SOL    MW4  923   2.863   3.859   0.875 -0.7074  0.0582 -0.0730
  220SOL     OW  924   3.784   1.263   0.798  0.1139 -0.0947 -0.6186
  220SOL    HW2  925   3.730   1.279   0.721 -0.6549 -0.7661 -0.2334
  220SOL    HW3  926   3.802   1.350   0.833 -2.1217  0.1107  0.1707
  220SOL    MW4  927   3.779   1.276   0.792 -0.2825 -0.1562 -0.4637
  221SOL     OW  928   3.718   0.611   0.560  0.3012  0.4524  0.0611
  221SOL    HW2  929   3.796   0.557   0.571 -0.3202 -0.2237  1.1775
  221SOL    HW3  930   3.741   0.696   0.598 -0.4201 -0.5858  2.8965
  221SOL    MW4  931   3.731   0.615   0.566  0.1242  0.2262  0.5825
  222SOL     OW  932   2.549   2.025   0.465  0.5271 -0.4075 -0.1689
  222SOL    HW2  933   2.463   1.990   0.444 -0.4158  1.5839  0.2392
  222SOL    HW3  934   2.552   2.110   0.420  2.1149 -0.2831  0.1434
  222SOL    MW4  935   2.538   2.032   0.456  0.6123 -0.1283 -0.0739
  223SOL     OW  936   2.006   0.772   1.126 -0.2639  0.6127  0.0761
  223SOL    HW2  937   1.978   0.762   1.035  0.8957  0.1399 -0.2326
  223SOL    HW3  938   2.006   0.683   1.161 -0.0299  0.7144  0.3374
  223SOL    MW4  939   2.002   0.759   1.119 -0.0799  0.5637  0.0699
  224SOL     OW  940   3.503   3.860   0.898 -0.1762 -0.1002  0.1153
  224SOL    HW2  941   3.418   3.840   0.859 -0.3904 -3.6262  2.2216
  224SOL    HW3  942   3.483   3.879   0.990  1.1548  0.4933  0.2893
  224SOL    MW4  943   3.489   3.860   0.905 -0.0286 -0.4876  0.4162
  225SOL     OW  944   0.982   3.386   0.835 -0.2167 -0.4878  0.0143
  225SOL    HW2  945   0.896   3.369   0.797  0.1871 -2.9126  0.0872
  225SOL    HW3  946   0.964   3.403   0.927 -0.9164  2.4608 -0.6282
  225SOL    MW4  947   0.968   3.386   0.842 -0.2557 -0.4187 -0.0608
  226SOL     OW  948   3.637   3.989   0.428  0.1758  0.3428 -0.2090
  226SOL    HW2  949   3.703   3.920   0.440  0.1132  0.5559  1.4764
  226SOL    HW3  950   3.554   3.947   0.449 -0.1068  0.3511 -1.3195
  226SOL    MW4  951   3.635   3.974   0.433  0.1302  0.3717 -0.1331
  227SOL     OW  952   2.688   0.280   0.357 -0.0434  1.1374  0.2849
  227SOL    HW2  953   2.607   0.231   0.375  0.2566  0.3763 -0.4021
  227SOL    HW3  954   2.758   0.219   0.381  0.3372  1.5412  0.2068
  227SOL    MW4  955   2.687   0.265   0.363  0.0465  1.0902  0.1839
  228SOL     OW  956   1.330   2.641   1.111  0.3277  0.0140  0.0940
  228SOL    HW2  957   1.262   2.696   1.150  0.1470  0.2229 -0.5121
  228SOL    HW3  958   1.316   2.648   1.017  1.2476  0.1254 -0.0364
  228SOL    MW4  959   1.319   2.649   1.104  0.4252  0.0565 -0.0031
  229SOL     OW  960   1.501   0.833   0.833 -0.0772 -0.2113  0.6270
  229SOL    HW2  961   1.509   0.744   0.799 -0.2451 -0.2656  0.7241
  229SOL    HW3  962   1.503   0.822   0.928  0.1164 -0.0900  0.6366
  229SOL    MW4  963   1.502   0.820   0.841 -0.0738 -0.2024  0.6411
  230SOL     OW  964   1.063   4.219   0.497 -0.0098  0.2446 -0.2499
  230SOL    HW2  965   1.007   4.285   0.457  0.2688 -0.2850 -1.5371
  230SOL    HW3  966   1.151   4.239   0.466  0.4933  0.9075  1.5399
  230SOL    MW4  967   1.068   4.230   0.488  0.0932  0.2627 -0.1836
  231SOL     OW  968   1.252   2.931   0.744  0.1539 -0.3069  0.4397
  231SOL    HW2  969   1.184   2.997   0.756  1.6233  1.1238  1.0015
  231SOL    HW3  970   1.334   2.978   0.755  1.2429 -2.1174  0.2892
  231SOL    MW4  971   1.254   2.946   0.747  0.4915 -0.3569  0.4940
  232SOL     OW  972   1.369   0.393   0.877  0.3822  0.3952 -0.2859
  232SOL    HW2  973   1.364   0.360   0.967  0.6423  0.2464 -0.3252
  232SOL    HW3  974   1.280   0.424   0.858  0.2350  0.0885 -0.1072
  232SOL    MW4  975   1.356   0.393   0.886  0.3972  0.3351 -0.2676
  233SOL     OW  976   4.255   1.555   1.167 -0.1527 -0.3729  0.1562
  233SOL    HW2  977   4.236   1.564   1.074  0.9049 -2.2412 -0.2592
  233SOL    HW3  978   4.190   1.610   1.210 -1.2498 -0.2372 -1.6271
  233SOL    MW4  979   4.244   1.564   1.161 -0.1574 -0.6016 -0.1339
  234SOL     OW  980   3.311   2.138   0.463 -0.3017  0.0808  0.2403
  234SOL    HW2  981   3.325   2.232   0.453 -0.2620  0.0709  0.2019
  234SOL    HW3  982   3.235   2.119   0.408  0.6772 -0.1882 -1.0401
  234SOL    MW4  983   3.303   2.148   0.454 -0.1671  0.0439  0.0663
  235SOL     OW  984   0.207   3.471   0.416  0.3510 -0.2229 -0.0375
  235SOL    HW2  985   0.128   3.478   0.469 -0.7375  0.2883 -1.7040
  235SOL    HW3  986   0.231   3.562   0.396  0.3103 -0.4314 -1.0656
  235SOL    MW4  987   0.200   3.484   0.420  0.2020 -0.1829 -0.3930
  236SOL     OW  988   2.235   3.994   1.251  0.0448 -0.1617 -0.2203
  236SOL    HW2  989   2.290   3.938   1.197 -0.1080 -0.2974 -0.2376
  236SOL    HW3  990   2.218   4.071   1.196 -0.1075 -0.2976 -0.3666
  236SOL    MW4  991   2.240   3.997   1.237  0.0048 -0.1974 -0.2419
  237SOL     OW  992   0.354   3.518   0.881 -0.5945 -0.5891 -0.3687
  237SOL    HW2  993   0.399   3.485   0.959 -0.8097 -0.2324 -0.0912
  237SOL    HW3  994   0.305   3.443   0.848  0.8362 -1.2068 -1.1418
  237SOL    MW4  995   0.354   3.504   0.887 -0.4342 -0.6232 -0.4341
  238SOL     OW  996   0.593   4.132   0.480 -0.1393  0.1770  0.3597
  238SOL    HW2  997   0.504   4.120   0.514 -0.3132  1.4598  0.3915
  238SOL    HW3  998   0.589   4.214   0.430  1.4996  1.3679  2.0955
  238SOL    MW4  999   0.581   4.141   0.478  0.0539  0.5031  0.5929
  239SOL     OW 1000   4.007   2.337   0.493  0.0644 -0.1438  0.5739
  239SOL    HW2 1001   3.922   2.294   0.482 -0.4455  0.7842  0.8892
  239SOL    HW3 1002   4.028   2.324   0.585  0.2724 -0.3875  0.4916
  239SOL    MW4 1003   3.998   2.329   0.504  0.0246 -0.0536  0.6046
  240SOL     OW 1004   1.312   0.660   0.556  0.3616  0.2522 -0.1263
  240SOL    HW2 1005   1.308   0.747   0.516 -2.1002  0.3452  0.2307
  240SOL    HW3 1006   1.301   0.599   0.483  0.0580  0.2898 -0.1098
  240SOL    MW4 1007   1.310   0.663   0.541 -0.0032  0.2694 -0.0770
  241SOL     OW 1008   1.755   1.936   1.101 -0.2266  0.2738  0.8016
  241SOL    HW2 1009   1.703   2.011   1.132 -3.0465 -1.2258 -0.1734
  241SOL    HW3 1010   1.724   1.921   1.012  1.0736 -1.3992  0.6175
  241SOL    MW4 1011   1.744   1.944   1.093 -0.4271 -0.1448  0.6487
  242SOL     OW 1012   4.286   3.940   0.696 -0.1515 -0.2250 -0.1240
  242SOL    HW2 1013   4.229   3.961   0.622  0.1854 -0.6605 -0.5127
  242SOL    HW3 1014   4.314   4.025   0.729  0.1284 -0.0349 -0.8404
  242SOL    MW4 1015   4.282   3.954   0.691 -0.0696 -0.2575 -0.2699
  243SOL     OW 1016   0.316   1.337   0.542  0.5290  0.2490  0.0373
  243SOL    HW2 1017   0.408   1.361   0.542  0.4854  0.4371  0.6958
  243SOL    HW3 1018   0.311   1.259   0.486  1.3575 -0.7452  1.3145
  243SOL    MW4 1019   0.327   1.330   0.535  0.6325  0.1426  0.2927
  244SOL     OW 1020   2.982   2.317   0.638  0.3461 -0.1152 -0.3281
  244SOL    HW2 1021   3.012   2.226   0.637  0.5097 -0.0941  1.0036
  244SOL    HW3 1022   3.059   2.368   0.664  0.2846  0.4176 -1.1727
  244SOL    MW4 1023   2.996   2.312   0.641  0.3595 -0.0424 -0.2639
  245SOL     OW 1024   0.225   0.240   0.793  0.0474  0.1289  0.1098
  245SOL    HW2 1025   0.137   0.271   0.815  0.0216  0.0202  0.1642
  245SOL    HW3 1026   0.229   0.152   0.832 -0.1463 -0.2295 -0.6824
  245SOL    MW4 1027   0.214   0.232   0.801  0.0184  0.0673  0.0125
  246SOL     OW 1028   1.749   0.972   0.757  0.2785 -0.3320 -0.1480
  246SOL    HW2 1029   1.661   0.940   0.779  0.5748 -1.0466  0.0237
  246SOL    HW3 1030   1.756   1.057   0.801 -0.3168 -0.2849 -0.1424
  246SOL    MW4 1031   1.738   0.979   0.766  0.2391 -0.4201 -0.1246
  247SOL     OW 1032   3.384   3.290   0.808  0.1576  0.3416 -0.4675
  247SOL    HW2 1033   3.384   3.293   0.712  3.0789 -0.3471 -0.5328
  247SOL    HW3 1034   3.377   3.197   0.829  1.3911  0.3392 -0.0548
  247SOL    MW4 1035   3.383   3.278   0.798  0.7055  0.2501 -0.4218
  248SOL     OW 1036   3.947   0.451   0.611 -0.4309 -0.4568  0.1913
  248SOL    HW2 1037   4.029   0.490   0.643  0.8713 -1.8184 -1.4316
  248SOL    HW3 1038   3.912   0.404   0.687 -0.1958  0.8416  1.1408
  248SOL    MW4 1039   3.953   0.450   0.626 -0.2282 -0.4651  0.1024
  249SOL     OW 1040   1.228   1.688   0.322 -0.0939 -0.4131 -0.0667
  249SOL    HW2 1041   1.310   1.726   0.291 -0.3625  0.0037 -0.2728
  249SOL    HW3 1042   1.246   1.595   0.328 -0.0913 -0.5331 -1.6700
  249SOL    MW4 1043   1.241   1.681   0.319 -0.1290 -0.3740 -0.3054
  250SOL     OW 1044   0.482   1.119   1.185  0.2982  0.2716 -0.0716
  250SOL    HW2 1045   0.488   1.119   1.090 -1.1883 -0.4894 -0.1817
  250SOL    HW3 1046   0.391   1.142   1.203  0.0143 -1.6623  1.1113
  250SOL    MW4 1047   0.471   1.122   1.175  0.0646 -0.0839  0.0699
  251SOL     OW 1048   2.408   4.442   0.701 -0.0066  0.0200 -0.0838
  251SOL    HW2 1049   2.320   4.418   0.730 -0.0317 -1.2563 -1.1363
  251SOL    HW3 1050   2.394   4.503   0.629 -0.0868 -1.1595 -1.0959
  251SOL    MW4 1051   2.395   4.447   0.695 -0.0205 -0.3047 -0.3563
  252SOL     OW 1052   1.968   2.287   0.888  0.4754  0.2966  0.4522
  252SOL    HW2 1053   1.877   2.274   0.863  0.8050  0.5832 -0.9110
  252SOL    HW3 1054   1.966   2.289   0.984 -0.7959 -0.8246  0.4712
  252SOL    MW4 1055   1.956   2.285   0.898  0.3512  0.1867  0.2748
  253SOL     OW 1056   1.261   0.952   0.797 -0.0316  0.0918 -0.0932
  253SOL    HW2 1057   1.349   0.917   0.791  0.2719  0.8229  0.0451
  253SOL    HW3 1058   1.273   1.044   0.820 -0.8030  0.4573 -1.1275
  253SOL    MW4 1059   1.274   0.960   0.799 -0.0935  0.2365 -0.2114
  254SOL     OW 1060   0.026   2.757   0.901  0.1997 -0.0321 -0.0170
  254SOL    HW2 1061  -0.050   2.741   0.847  1.7248 -1.0150 -1.9219
  254SOL    HW3 1062   0.058   2.843   0.872  0.1637  0.1139  0.3710
  254SOL    MW4 1063   0.020   2.767   0.890  0.3962 -0.1423 -0.2171
  255SOL     OW 1064   3.023   3.677   0.498  0.0688  0.3216  0.0985
  255SOL    HW2 1065   2.937   3.645   0.469  0.0930 -0.1118  0.5002
  255SOL    HW3 1066   3.044   3.748   0.436  0.6630 -1.3524 -1.6755
  255SOL    MW4 1067   3.014   3.682   0.486  0.1507  0.0436 -0.0826
  256SOL     OW 1068   3.614   1.900   1.183  0.3263 -0.7705  0.1453
  256SOL    HW2 1069   3.613   1.888   1.088 -0.1698 -1.1338  0.1974
  256SOL    HW3 1070   3.697   1.946   1.199  0.2907 -0.4714 -0.4854
  256SOL    MW4 1071   3.625   1.904   1.172  0.2563 -0.7790  0.0689
  257SOL     OW 1072   4.461   3.223   1.225 -0.2741  0.2484 -0.7707
  257SOL    HW2 1073   4.526   3.162   1.190 -0.3177  0.1085 -0.6082
  257SOL    HW3 1074   4.376   3.182   1.205 -0.2697 -0.6579  0.9936
  257SOL    MW4 1075   4.458   3.210   1.217 -0.2794  0.1106 -0.5164
  258SOL     OW 1076   1.043   3.104   0.866 -0.1329 -0.0907 -0.1485
  258SOL    HW2 1077   1.080   3.088   0.953  1.8540 -0.5718 -1.0589
  258SOL    HW3 1078   1.041   3.200   0.859 -1.0564 -0.0336  0.7219
  258SOL    MW4 1079   1.048   3.115   0.877  0.0074 -0.1466 -0.1537
  259SOL     OW 1080   1.752   2.945   0.819 -0.3152 -0.4920 -0.2796
  259SOL    HW2 1081   1.747   2.960   0.725  0.7610  0.8702 -0.1266
  259SOL    HW3 1082   1.754   2.849   0.828 -1.0952 -0.6315 -1.5941
  259SOL    MW4 1083   1.752   2.934   0.808 -0.2761 -0.3309 -0.4329
  260SOL     OW 1084   0.437   0.399   0.923 -0.5389  0.5172  0.4022
  260SOL    HW2 1085   0.358   0.347   0.908  0.9502 -1.1126 -2.0998
  260SOL    HW3 1086   0.463   0.378   1.013 -1.1478 -1.4914  0.1384
  260SOL    MW4 1087   0.430   0.389   0.933 -0.4227  0.0371  0.0373
  261SOL     OW 1088   1.641   0.087   0.801  0.3015 -0.0273  0.1362
  261SOL    HW2 1089   1.693   0.164   0.826  0.2864  0.4620 -1.2748
  261SOL    HW3 1090   1.552   0.120   0.793  0.7553  0.5259 -3.4139
  261SOL    MW4 1091   1.636   0.102   0.803  0.3595  0.1102 -0.5184
  262SOL     OW 1092   1.568   1.553   1.111  0.0042  0.1055 -0.1596
  262SOL    HW2 1093   1.547   1.479   1.168  0.3109  0.5321  0.5059
  262SOL    HW3 1094   1.640   1.598   1.155 -1.1262  1.6322  0.1783
  262SOL    MW4 1095   1.575   1.549   1.124 -0.1045  0.3632 -0.0272
  263SOL     OW 1096   4.083   3.195   0.486  0.5418  0.1597  0.3042
  263SOL    HW2 1097   4.143   3.266   0.511  0.6432 -0.3369  1.4801
  263SOL    HW3 1098   3.999   3.239   0.473  0.6602  0.5340  0.7813
  263SOL    MW4 1099   4.080   3.211   0.488  0.5708  0.1435  0.5222
  264SOL     OW 1100   3.751   0.899   0.293  0.1973 -0.3825 -0.0703
  264SOL    HW2 1101   3.803   0.833   0.338 -0.8644 -1.7926 -0.8529
  264SOL    HW3 1102   3.665   0.896   0.335  0.0250  0.2163 -0.3680
  264SOL    MW4 1103   3.746   0.890   0.304  0.0346 -0.4896 -0.2128
  265SOL     OW 1104   3.569   2.864   0.772  0.2324 -0.2575  0.2208
  265SOL    HW2 1105   3.616   2.788   0.806  2.4469  1.0217  0.1083
  265SOL    HW3 1106   3.613   2.886   0.691 -1.5254  0.1005 -0.6671
  265SOL    MW4 1107   3.581   2.857   0.766  0.2928 -0.0415  0.0888
  266SOL     OW 1108   1.699   0.126   0.528 -0.9546 -0.0147  0.0589
  266SOL    HW2 1109   1.681   0.113   0.622  0.1527  0.4312  0.3449
  266SOL    HW3 1110   1.686   0.039   0.490  2.2747 -1.1257  1.2742
  266SOL    MW4 1111   1.695   0.112   0.536 -0.3824 -0.1025  0.2570
  267SOL     OW 1112   1.801   0.090   1.225 -0.1593 -0.4333 -0.4589
  267SOL    HW2 1113   1.775   0.180   1.202 -0.8300 -0.6377 -0.5138
  267SOL    HW3 1114   1.718   0.045   1.240  0.1847 -1.0176 -0.3253
  267SOL    MW4 1115   1.787   0.096   1.224 -0.2023 -0.5374 -0.4485
  268SOL     OW 1116   3.698   1.582   0.524  0.1133  0.0962  0.0937
  268SOL    HW2 1117   3.662   1.667   0.497 -0.5097 -0.5518 -1.1438
  268SOL    HW3 1118   3.781   1.575   0.477 -0.5798 -0.6668 -1.0330
  268SOL    MW4 1119   3.704   1.593   0.514 -0.0601 -0.0899 -0.2183
  269SOL     OW 1120   0.829   2.066   0.415  0.6538  0.6057 -0.2174
  269SOL    HW2 1121   0.909   2.015   0.400  1.3063  1.3543  0.5974
  269SOL    HW3 1122   0.832   2.088   0.508 -1.4693 -0.9190  0.2492
  269SOL    MW4 1123   0.840   2.062   0.426  0.4597  0.5033 -0.0483
  270SOL     OW 1124   3.283   0.606   0.719 -0.0872 -0.1772 -0.3104
  270SOL    HW2 1125   3.267   0.543   0.790  0.6299  0.9087  0.8335
  270SOL    HW3 1126   3.197   0.645   0.703 -0.0007  0.5246  0.8917
  270SOL    MW4 1127   3.269   0.603   0.726  0.0188  0.0587 -0.0008
  271SOL     OW 1128   1.747   2.680   0.899 -0.0850  0.1868  0.6585
  271SOL    HW2 1129   1.824   2.651   0.850 -0.4997 -1.4898  0.9699
  271SOL    HW3 1130   1.673   2.659   0.842 -0.3770  1.0868  0.6950
  271SOL    MW4 1131   1.747   2.673   0.885 -0.1782  0.0842  0.7045
  272SOL     OW 1132   3.947   0.861   0.532  0.4437 -0.0847  0.1977
  272SOL    HW2 1133   3.958   0.845   0.626 -1.3889  0.5283  0.5477
  272SOL    HW3 1134   3.884   0.933   0.528  1.7121  0.9466 -1.4804
  272SOL    MW4 1135   3.940   0.868   0.544  0.3691  0.1323  0.0225
  273SOL     OW 1136   3.343   3.023   0.881 -0.3608  0.1195 -0.5491
  273SOL    HW2 1137   3.262   3.008   0.832 -0.5055  0.2850 -0.3616
  273SOL    HW3 1138   3.396   2.945   0.865 -0.9046 -0.3751  0.0288
  273SOL    MW4 1139   3.339   3.011   0.872 -0.4518  0.0761 -0.4480
  274SOL     OW 1140   0.656   0.330   0.754 -0.0636  0.4373  0.2120
  274SOL    HW2 1141   0.574   0.329   0.802  0.1605  0.2130  0.5928
  274SOL    HW3 1142   0.656   0.414   0.707 -0.6486  0.2973 -0.0408
  274SOL    MW4 1143   0.645   0.341   0.754 -0.1112  0.3892  0.2289
  275SOL     OW 1144   4.459   0.924   0.714  0.1542  0.3163  0.2936
  275SOL    HW2 1145   4.535   0.868   0.697  0.6211  1.0239 -0.0042
  275SOL    HW3 1146   4.409   0.878   0.782  0.3781 -0.5931 -0.1450
  275SOL    MW4 1147   4.462   0.911   0.720  0.2456  0.2896  0.1965
  276SOL     OW 1148   3.131   2.087   0.674  0.1516 -0.2401  0.2508
  276SOL    HW2 1149   3.141   2.035   0.754  0.1501  0.0905  0.4656
  276SOL    HW3 1150   3.218   2.086   0.634  0.6369  1.1932  1.2378
  276SOL    MW4 1151   3.144   2.080   0.679  0.2153 -0.0074  0.4094
  277SOL     OW 1152   0.556   3.919   0.877 -0.2781  0.5622  0.0122
  277SOL    HW2 1153   0.583   3.898   0.967 -1.4492 -0.5867  0.1089
  277SOL    HW3 1154   0.460   3.925   0.882 -0.2783  1.4512 -0.9689
  277SOL    MW4 1155   0.546   3.917   0.890 -0.4327  0.5279 -0.1045
  278SOL     OW 1156   4.259   2.858   1.246  0.1358  0.3866 -0.0910
  278SOL    HW2 1157   4.244   2.945   1.208 -1.1467  0.8988  1.5272
  278SOL    HW3 1158   4.191   2.803   1.207  1.9949 -0.3332 -2.4195
  278SOL    MW4 1159   4.248   2.862   1.236  0.2112  0.3591 -0.1848
  279SOL     OW 1160   1.369   4.227   1.110 -0.0019  0.1048 -0.5807
  279SOL    HW2 1161   1.431   4.267   1.171 -0.5176  0.6709 -0.4243
  279SOL    HW3 1162   1.285   4.268   1.130 -0.1689  0.3430 -1.7019
  279SOL    MW4 1163   1.367   4.238   1.120 -0.0920  0.2112 -0.7080
  280SOL     OW 1164   1.195   4.614   0.868 -0.3045  0.3306 -0.4585
  280SOL    HW2 1165   1.126   4.622   0.802 -2.1034 -2.3008  1.0230
  280SOL    HW3 1166   1.252   4.544   0.835 -0.5211 -0.1461  0.1663
  280SOL    MW4 1167   1.193   4.606   0.854 -0.5705 -0.0796 -0.1806
  281SOL     OW 1168   0.241   1.525   0.843 -0.1980 -0.4121  0.1411
  281SOL    HW2 1169   0.151   1.549   0.821 -0.6081 -0.6342  1.4909
  281SOL    HW3 1170   0.239   1.430   0.850  0.4607 -0.5233 -1.1561
  281SOL    MW4 1171   0.229   1.516   0.841 -0.1652 -0.4560  0.1481
  282SOL     OW 1172   3.791   1.549   0.867 -0.3293 -0.3005 -0.2678
  282SOL    HW2 1173   3.703   1.582   0.848 -0.5915  0.1957  1.7162
  282SOL    HW3 1174   3.805   1.570   0.959  0.7698 -2.9007  0.1869
  282SOL    MW4 1175   3.781   1.556   0.877 -0.2191 -0.5780  0.0539
  283SOL     OW 1176   3.562   1.137   0.900  0.7960 -0.4975 -0.4633
  283SOL    HW2 1177   3.642   1.185   0.881  1.0512 -0.8970 -0.4063
  283SOL    HW3 1178   3.497   1.173   0.839 -0.0374  2.5970  2.0902
  283SOL    MW4 1179   3.564   1.148   0.889  0.7195 -0.1420 -0.1189
  284SOL     OW 1180   3.545   4.197   0.611  0.0480  0.2420  0.1765
  284SOL    HW2 1181   3.581   4.130   0.553  0.0980 -0.9269  1.5324
  284SOL    HW3 1182   3.610   4.267   0.610  0.3032 -0.0059 -0.7615
  284SOL    MW4 1183   3.559   4.197   0.603  0.0882  0.0553  0.2317
  285SOL     OW 1184   3.288   4.104   0.696  0.0810 -0.1401 -0.1776
  285SOL    HW2 1185   3.227   4.169   0.732  0.4279  0.8126 -1.2687
  285SOL    HW3 1186   3.371   4.151   0.690  0.2309 -0.5549 -1.4031
  285SOL    MW4 1187   3.291   4.119   0.700  0.1466 -0.0687 -0.4833
  286SOL     OW 1188   2.228   3.550   0.908 -0.0763 -0.3896  0.6386
  286SOL    HW2 1189   2.256   3.642   0.904  1.4637 -0.9272 -1.8431
  286SOL    HW3 1190   2.162   3.543   0.839 -0.3838 -1.0939  1.0013
  286SOL    MW4 1191   2.223   3.562   0.898  0.0863 -0.5536  0.3590
  287SOL     OW 1192   2.629   3.887   0.385  0.0969  0.0985 -0.2105
  287SOL    HW2 1193   2.646   3.981   0.384 -0.8720  0.2870  0.3544
  287SOL    HW3 1194   2.554   3.876   0.326 -0.8590 -0.0974  1.0249
  287SOL    MW4 1195   2.622   3.898   0.377 -0.1571  0.0973  0.0270
  288SOL     OW 1196   0.656   2.050   1.244  0.4437 -0.0537 -0.0993
  288SOL    HW2 1197   0.664   2.042   1.339  0.4171  0.2951 -0.0675
  288SOL    HW3 1198   0.589   1.987   1.220  0.2617  0.0473  0.1476
  288SOL    MW4 1199   0.648   2.041   1.253  0.4161  0.0057 -0.0627
  289SOL     OW 1200   1.110   2.800   1.190 -0.1113  0.0406  0.2722
  289SOL    HW2 1201   1.042   2.750   1.145 -0.7693  1.4148 -0.2937
  289SOL    HW3 1202   1.096   2.782   1.283  2.0677 -3.8717 -0.0501
  289SOL    MW4 1203   1.099   2.791   1.196  0.0894 -0.2947  0.1551
  290SOL     OW 1204   2.657   1.561   0.459 -0.2405 -0.1123 -0.3693
  290SOL    HW2 1205   2.664   1.656   0.451 -0.1626 -0.1351 -0.5812
  290SOL    HW3 1206   2.747   1.530   0.446  0.0122 -0.1106  1.2180
  290SOL    MW4 1207   2.670   1.570   0.456 -0.1967 -0.1150 -0.1878
  291SOL     OW 1208   1.764   3.185   1.234 -0.1337  0.1119 -0.0367
  291SOL    HW2 1209   1.690   3.127   1.220  0.1533  0.0484 -1.3968
  291SOL    HW3 1210   1.778   3.184   1.328 -0.7748 -1.2269  0.0578
  291SOL    MW4 1211   1.756   3.177   1.244 -0.1804 -0.0732 -0.2036
  292SOL     OW 1212   3.819   3.306   0.500  0.2934  0.3589  0.4240
  292SOL    HW2 1213   3.791   3.300   0.591  0.9630 -1.7860  0.5044
  292SOL    HW3 1214   3.752   3.258   0.451  0.2724  0.9663 -0.1525
  292SOL    MW4 1215   3.806   3.299   0.506  0.3788  0.1562  0.3585
  293SOL     OW 1216   4.249   0.816   0.880  0.0453  0.2199  0.1193
  293SOL    HW2 1217   4.155   0.804   0.869  0.4272 -1.8688 -1.1478
  293SOL    HW3 1218   4.265   0.792   0.971 -0.6785  0.8940  0.4342
  293SOL    MW4 1219   4.239   0.812   0.890 -0.0010  0.0333 -0.0063
  294SOL     OW 1220   3.060   2.973   0.514  0.2599 -0.5635  0.1906
  294SOL    HW2 1221   2.991   2.909   0.498  0.0951 -0.4815  0.5699
  294SOL    HW3 1222   3.023   3.057   0.488  1.0256 -0.8342 -1.8022
  294SOL    MW4 1223   3.046   2.976   0.509  0.3393 -0.5884 -0.0223
  295SOL     OW 1224   2.438   0.179   0.487 -0.3188 -0.0340  0.5969
  295SOL    HW2 1225   2.376   0.250   0.471  1.0367  0.8701 -0.7170
  295SOL    HW3 1226   2.452   0.181   0.582  0.0023  1.6959  0.5237
  295SOL    MW4 1227   2.432   0.189   0.497 -0.0975  0.3135  0.4139
  296SOL     OW 1228   4.172   2.119   0.444 -0.0139 -0.3071 -0.0689
  296SOL    HW2 1229   4.144   2.210   0.447  0.1730 -0.2425 -0.2882
  296SOL    HW3 1230   4.091   2.068   0.451 -0.2516 -0.1244 -1.3367
  296SOL    MW4 1231   4.158   2.124   0.445 -0.0210 -0.2744 -0.2651
  297SOL     OW 1232   1.919   0.754   0.859  0.1557 -0.1641  0.0994
  297SOL    HW2 1233   1.891   0.672   0.818 -0.7388 -0.3779  1.1227
  297SOL    HW3 1234   1.855   0.818   0.831 -0.7814 -0.4319  1.6022
  297SOL    MW4 1235   1.907   0.751   0.850 -0.0858 -0.2276  0.4327
  298SOL     OW 1236   0.232   1.256   0.815  0.0384 -0.0502  0.0907
  298SOL    HW2 1237   0.249   1.272   0.722 -0.5696 -0.4225 -0.0934
  298SOL    HW3 1238   0.139   1.233   0.818  0.2893 -1.0264  0.6563
  298SOL    MW4 1239   0.222   1.255   0.803 -0.0087 -0.2280  0.1410
  299SOL     OW 1240   1.139   3.953   0.812  0.8217 -0.0738 -0.4155
  299SOL    HW2 1241   1.169   4.037   0.776  1.1322 -0.6988 -1.6318
  299SOL    HW3 1242   1.070   3.925   0.753  0.1425 -0.2773  0.4736
  299SOL    MW4 1243   1.134   3.960   0.800  0.7731 -0.1831 -0.4586
  300SOL     OW 1244   3.223   0.419   0.897  0.1969 -0.0124  0.1628
  300SOL    HW2 1245   3.224   0.430   0.992 -2.0100  0.4590  0.1396
  300SOL    HW3 1246   3.136   0.385   0.877  0.2203  1.0133 -1.8286
  300SOL    MW4 1247   3.212   0.416   0.907 -0.0911  0.1851 -0.1031
  301SOL     OW 1248   0.528   1.670   0.463 -0.0483  0.1190 -0.1023
  301SOL    HW2 1249   0.488   1.660   0.549  0.5408 -1.6384 -0.0126
  301SOL    HW3 1250   0.534   1.581   0.428  0.2112  0.7547 -1.7394
  301SOL    MW4 1251   0.524   1.657   0.470  0.0636 -0.0291 -0.3065
  302SOL     OW 1252   2.233   0.076   1.252  0.0235  0.1028  0.2062
  302SOL    HW2 1253   2.224   0.166   1.220 -0.6822 -0.0902 -0.1670
  302SOL    HW3 1254   2.165   0.028   1.204 -0.0923 -0.4764  0.9540
  302SOL    MW4 1255   2.223   0.082   1.241 -0.0849  0.0009  0.2557
  303SOL     OW 1256   1.547   3.039   1.127  0.1937  0.2396 -0.2471
  303SOL    HW2 1257   1.537   3.038   1.032 -0.8325  1.3981 -0.1607
  303SOL    HW3 1258   1.544   2.947   1.153 -0.0687 -0.0449 -1.2716
  303SOL    MW4 1259   1.546   3.027   1.118  0.0235  0.3550 -0.3709
  304SOL     OW 1260   4.311   1.272   0.273  0.2630  0.5412 -0.6266
  304SOL    HW2 1261   4.366   1.200   0.304 -1.3898 -0.0293  1.1201
  304SOL    HW3 1262   4.359   1.351   0.297  0.9224  0.0488 -0.3065
  304SOL    MW4 1263   4.325   1.273   0.280  0.1321  0.4011 -0.3539
  305SOL     OW 1264   3.972   1.064   0.870 -0.8446  0.0816 -0.0936
  305SOL    HW2 1265   3.986   1.086   0.962 -1.4988 -0.4615  0.1448
  305SOL    HW3 1266   3.904   1.125   0.842 -1.3886 -0.4343  0.0784
  305SOL    MW4 1267   3.965   1.075   0.879 -1.0026 -0.0582 -0.0395
  306SOL     OW 1268   2.662   2.481   0.467 -0.0443 -0.3531 -0.1578
  306SOL    HW2 1269   2.684   2.467   0.559 -0.1150  0.4565 -0.0142
  306SOL    HW3 1270   2.734   2.441   0.419 -0.3084 -1.3233  0.2296
  306SOL    MW4 1271   2.674   2.474   0.473 -0.0885 -0.3743 -0.0877
  307SOL     OW 1272   2.027   1.992   1.191  0.0954 -0.1222 -0.1949
  307SOL    HW2 1273   1.938   1.967   1.164 -0.5393  0.8094  0.9314
  307SOL    HW3 1274   2.020   2.003   1.286  1.4331 -0.0801 -0.0969
  307SOL    MW4 1275   2.014   1.990   1.200  0.1884  0.0062 -0.0335
  308SOL     OW 1276   3.817   3.561   0.380 -0.8093  0.6809  0.3524
  308SOL    HW2 1277   3.898   3.557   0.330 -1.8155  0.4677 -1.3257
  308SOL    HW3 1278   3.819   3.483   0.436  0.1236  0.6669  0.3012
  308SOL    MW4 1279   3.828   3.550   0.381 -0.8190  0.6509  0.1243
  309SOL     OW 1280   1.150   4.350   1.232  0.2617 -0.0374 -0.0506
  309SOL    HW2 1281   1.150   4.340   1.327  0.4784  0.3437 -0.0081
  309SOL    HW3 1282   1.062   4.324   1.205  0.3972 -0.7436  0.1869
  309SOL    MW4 1283   1.138   4.345   1.241  0.3083 -0.0801 -0.0135
  310SOL     OW 1284   1.498   1.735   0.281 -0.3033 -0.1040  0.3433
  310SOL    HW2 1285   1.542   1.671   0.337  0.9711  0.0482 -0.4759
  310SOL    HW3 1286   1.568   1.773   0.228 -1.4065  0.1796 -0.9341
  310SOL    MW4 1287   1.513   1.731   0.281 -0.2809 -0.0466  0.0667
  311SOL     OW 1288   3.671   1.967   0.903 -0.2816 -0.1157  0.1294
  311SOL    HW2 1289   3.704   1.923   0.826 -0.7561 -0.0106 -0.1348
  311SOL    HW3 1290   3.711   2.054   0.900 -0.9585  0.1801 -0.4511
  311SOL    MW4 1291   3.681   1.973   0.893 -0.4337 -0.0628  0.0179
  312SOL     OW 1292   3.336   2.630   0.263 -0.5898  0.0360  0.0671
  312SOL    HW2 1293   3.323   2.716   0.305 -1.1074  1.2190 -2.4347
  312SOL    HW3 1294   3.422   2.637   0.222 -0.8813 -0.4475 -0.6189
  312SOL    MW4 1295   3.346   2.642   0.263 -0.6967  0.1287 -0.3535
  313SOL     OW 1296   2.491   1.562   1.120 -0.0040 -0.1278 -0.1705
  313SOL    HW2 1297   2.440   1.563   1.039  0.6267 -0.5040 -0.5818
  313SOL    HW3 1298   2.475   1.476   1.157 -0.3181  0.0572  0.1156
  313SOL    MW4 1299   2.482   1.551   1.114  0.0379 -0.1531 -0.1870
  314SOL     OW 1300   2.574   0.865   0.645 -0.1365  0.0895  0.6202
  314SOL    HW2 1301   2.530   0.784   0.617  0.1570 -0.5373  1.9255
  314SOL    HW3 1302   2.513   0.935   0.621 -1.6260 -0.7228  1.9340
  314SOL    MW4 1303   2.560   0.863   0.638 -0.2940 -0.1004  0.9658
  315SOL     OW 1304   2.231   1.399   0.436  0.3116 -0.3045  0.3597
  315SOL    HW2 1305   2.210   1.489   0.459 -0.0019 -0.1552 -0.4954
  315SOL    HW3 1306   2.322   1.388   0.464  0.1091  0.0350  1.1654
  315SOL    MW4 1307   2.240   1.410   0.443  0.2434 -0.2400  0.3532
  316SOL     OW 1308   3.922   2.002   0.462  0.1869  0.1786 -0.2433
  316SOL    HW2 1309   3.870   2.073   0.422  0.1420 -0.1210 -0.7216
  316SOL    HW3 1310   3.858   1.952   0.513  0.3630  0.9488  0.7518
  316SOL    MW4 1311   3.906   2.005   0.463  0.2043  0.2408 -0.1751
  317SOL     OW 1312   4.080   3.992   1.252 -0.4500  0.5164 -0.3651
  317SOL    HW2 1313   4.003   3.954   1.211  0.9283 -0.4998 -2.0836
  317SOL    HW3 1314   4.154   3.948   1.209  1.0744  1.4815  1.2286
  317SOL    MW4 1315   4.080   3.981   1.241 -0.0672  0.5097 -0.3816
  318SOL     OW 1316   2.985   0.330   0.770 -0.0438 -0.8621 -0.0411
  318SOL    HW2 1317   2.900   0.350   0.809  0.8252 -1.3349  2.1530
  318SOL    HW3 1318   2.989   0.386   0.692 -2.2465 -0.6441 -0.0297
  318SOL    MW4 1319   2.975   0.340   0.765 -0.2196 -0.8957  0.2499
  319SOL     OW 1320   2.457   2.498   0.874  0.8365 -0.0814 -0.2278
  319SOL    HW2 1321   2.372   2.542   0.888  1.6980  1.2768  0.9507
  319SOL    HW3 1322   2.464   2.436   0.947  1.2536  0.4560  0.1929
  319SOL    MW4 1323   2.447   2.496   0.886  1.0052  0.1688 -0.0168
  320SOL     OW 1324   0.649   1.557   0.882  0.4078 -0.3114  0.0268
  320SOL    HW2 1325   0.726   1.602   0.846  0.2714  0.1833  0.3372
  320SOL    HW3 1326   0.651   1.579   0.975  0.3617 -0.9923  0.1878
  320SOL    MW4 1327   0.660   1.566   0.890  0.3837 -0.3359  0.0890
  321SOL     OW 1328   3.182   3.896   0.333  0.1270 -0.4284  0.1610
  321SOL    HW2 1329   3.199   3.912   0.241  1.2591 -2.5244 -0.0274
  321SOL    HW3 1330   3.173   3.983   0.372 -2.3562  0.4478 -2.2625
  321SOL    MW4 1331   3.183   3.910   0.326 -0.0510 -0.5891 -0.1836
  322SOL     OW 1332   0.046   1.072   0.392 -0.0278 -0.0088  0.1085
  322SOL    HW2 1333  -0.010   1.002   0.426  0.6297  0.2447  1.8127
  322SOL    HW3 1334   0.034   1.144   0.454  0.9378  0.6234 -0.4237
  322SOL    MW4 1335   0.037   1.073   0.405  0.1864  0.1081  0.2632
  323SOL     OW 1336   3.628   2.408   0.735  0.1623 -0.1306  0.1703
  323SOL    HW2 1337   3.691   2.350   0.778  0.4487  1.2234  1.6224
  323SOL    HW3 1338   3.542   2.376   0.762  0.3220  0.1412  1.0109
  323SOL    MW4 1339   3.625   2.396   0.744  0.2208  0.0839  0.4728
  324SOL     OW 1340   0.556   0.435   0.359  0.2593  0.1188  0.4972
  324SOL    HW2 1341   0.541   0.340   0.360  0.4223  0.0738 -0.7000
  324SOL    HW3 1342   0.645   0.445   0.327  1.4576  0.5618  3.7621
  324SOL    MW4 1343   0.566   0.424   0.355  0.4388  0.1713  0.7700
  325SOL     OW 1344   2.032   3.633   0.465 -0.3206 -0.0875 -0.5014
  325SOL    HW2 1345   2.040   3.727   0.452  0.8421 -0.3837 -2.0557
  325SOL    HW3 1346   1.944   3.612   0.435 -0.9169  0.6308  0.7091
  325SOL    MW4 1347   2.021   3.642   0.459 -0.2458 -0.0319 -0.5468
  326SOL     OW 1348   3.636   0.006   0.501  0.1417  0.2442 -0.5024
  326SOL    HW2 1349   3.702  -0.038   0.448 -0.6580 -0.7685 -0.6647
  326SOL    HW3 1350   3.657   0.099   0.492  1.2351 -0.0320 -0.9502
  326SOL    MW4 1351   3.648   0.013   0.493  0.1802  0.0744 -0.5829
  327SOL     OW 1352   3.575   2.742   0.139 -0.0140 -0.1823 -0.4006
  327SOL    HW2 1353   3.640   2.719   0.074  1.7644  1.3638  0.7603
  327SOL    HW3 1354   3.617   2.724   0.223 -1.5297 -0.2859  0.3684
  327SOL    MW4 1355   3.589   2.737   0.142  0.0205  0.0079 -0.1460
  328SOL     OW 1356   1.307   4.258   0.387  0.4357 -0.0392 -0.2894
  328SOL    HW2 1357   1.337   4.186   0.444 -0.6885 -0.8505 -0.7186
  328SOL    HW3 1358   1.358   4.247   0.307  0.9791  0.2464  0.0081
  328SOL    MW4 1359   1.318   4.247   0.384  0.3591 -0.1087 -0.3068
  329SOL     OW 1360   0.338   0.658   0.913  0.4704  0.0590  0.3561
  329SOL    HW2 1361   0.372   0.569   0.926  0.6879 -0.0312 -0.8244
  329SOL    HW3 1362   0.311   0.686   1.001  1.8742 -0.5694  1.0161
  329SOL    MW4 1363   0.339   0.650   0.926  0.6843 -0.0359  0.2874
  330SOL     OW 1364   4.310   0.513   1.237 -0.3101 -0.1421 -0.1981
  330SOL    HW2 1365   4.296   0.607   1.227  1.7510  0.1874 -0.1278
  330SOL    HW3 1366   4.281   0.495   1.327  0.2292  0.6307  0.1457
  330SOL    MW4 1367   4.304   0.523   1.248  0.0329  0.0034 -0.1435
  331SOL     OW 1368   1.273   0.396   0.400  0.6637  0.6062 -0.1795
  331SOL    HW2 1369   1.367   0.412   0.400  0.5763  1.1363 -0.4100
  331SOL    HW3 1370   1.264   0.301   0.389  1.1874  0.4547  0.7052
  331SOL    MW4 1371   1.284   0.385   0.399  0.7211  0.6562 -0.0932
  332SOL     OW 1372   1.074   1.388   0.789 -0.2306 -0.0876 -0.5753
  332SOL    HW2 1373   1.040   1.300   0.803 -0.0446 -0.0831 -0.0795
  332SOL    HW3 1374   1.044   1.412   0.701  1.3778 -1.4092 -1.5126
  332SOL    MW4 1375   1.066   1.380   0.779  0.0063 -0.2613 -0.6336
  333SOL     OW 1376   0.222   1.226   1.264 -0.0462 -0.4675 -0.1204
  333SOL    HW2 1377   0.153   1.191   1.208  0.0065  0.7964 -1.0086
  333SOL    HW3 1378   0.247   1.309   1.222  0.1626  0.3970  1.6562
  333SOL    MW4 1379   0.217   1.233   1.251 -0.0117 -0.1867 -0.0032
  334SOL     OW 1380   3.064   1.598   0.868  0.1443  0.3137  0.2338
  334SOL    HW2 1381   3.082   1.691   0.876 -0.6136  0.4428  0.4434
  334SOL    HW3 1382   3.151   1.557   0.870  0.3872  0.8599  2.1335
  334SOL    MW4 1383   3.078   1.605   0.869  0.0761  0.4028  0.5121
  335SOL     OW 1384   0.669   1.544   1.152  0.0133  1.2736  0.2164
  335SOL    HW2 1385   0.699   1.456   1.176 -0.1565  1.7298  2.2272
  335SOL    HW3 1386   0.593   1.559   1.209 -1.0456  2.0385 -1.3701
  335SOL    MW4 1387   0.663   1.534   1.163 -0.1488  1.4347  0.2724
  336SOL     OW 1388   0.025   0.392   1.104 -0.4535  0.1966 -0.1477
  336SOL    HW2 1389   0.020   0.304   1.140 -0.8891  0.2290 -0.1311
  336SOL    HW3 1390  -0.053   0.437   1.138 -0.7297  0.3019 -0.9077
  336SOL    MW4 1391   0.014   0.387   1.113 -0.5474  0.2147 -0.2459
  337SOL     OW 1392   1.557   4.340   1.290 -0.1267  0.2418  0.0122
  337SOL    HW2 1393   1.581   4.347   1.382 -0.1628 -1.4168  0.1544
  337SOL    HW3 1394   1.637   4.312   1.246 -0.4951 -0.4360 -0.2356
  337SOL    MW4 1395   1.571   4.337   1.296 -0.1800 -0.0663 -0.0018
  338SOL     OW 1396   3.370   4.642   1.166  0.0255 -0.2251 -0.3253
  338SOL    HW2 1397   3.440   4.684   1.215 -1.0772  0.1924  0.9292
  338SOL    HW3 1398   3.392   4.658   1.074  0.5452  1.5888  0.0947
  338SOL    MW4 1399   3.382   4.650   1.160 -0.0513  0.0696 -0.1043
  339SOL     OW 1400   3.573   2.083   0.573 -0.1792 -0.5376 -0.0192
  339SOL    HW2 1401   3.487   2.095   0.531 -0.4983  2.5887  1.4028
  339SOL    HW3 1402   3.553   2.076   0.666  1.1389  0.3613  0.3369
  339SOL    MW4 1403   3.559   2.084   0.580 -0.0472 -0.0064  0.2154
  340SOL     OW 1404   4.352   0.273   0.488 -0.4164 -0.1956  0.2956
  340SOL    HW2 1405   4.348   0.368   0.474 -1.0766 -0.3335 -0.5188
  340SOL    HW3 1406   4.294   0.257   0.562 -0.5550  0.0005  0.2306
  340SOL    MW4 1407   4.344   0.284   0.496 -0.5212 -0.1879  0.1795
  341SOL     OW 1408   3.177   1.051   0.874  0.2378  0.2955  0.1636
  341SOL    HW2 1409   3.244   0.983   0.882 -0.3613 -0.1216  1.9127
  341SOL    HW3 1410   3.135   1.054   0.961  0.2911  2.9303  0.1373
  341SOL    MW4 1411   3.180   1.043   0.887  0.1659  0.5882  0.3909
  342SOL     OW 1412   1.145   2.169   0.830  0.1499  0.3306  0.4841
  342SOL    HW2 1413   1.121   2.240   0.890  2.3030  0.0356  1.7620
  342SOL    HW3 1414   1.214   2.207   0.774  0.3280 -0.3252  0.2545
  342SOL    MW4 1415   1.151   2.184   0.831  0.4575  0.2053  0.6224
  343SOL     OW 1416   4.479   1.568   0.738 -0.1557 -0.5569  0.0451
  343SOL    HW2 1417   4.416   1.541   0.804  1.1386 -0.6124  1.2924
  343SOL    HW3 1418   4.438   1.642   0.694 -1.1507 -0.6927  0.7374
  343SOL    MW4 1419   4.465   1.575   0.741 -0.1159 -0.5821  0.3009
  344SOL     OW 1420   2.461   3.068   1.217 -0.2688 -0.2096  0.0484
  344SOL    HW2 1421   2.373   3.097   1.242 -0.3486 -1.4766  1.3143
  344SOL    HW3 1422   2.459   2.973   1.231  0.7797 -0.4786 -1.5309
  344SOL    MW4 1423   2.449   3.059   1.222 -0.1409 -0.4122  0.0070
  345SOL     OW 1424   2.628   2.994   0.763 -0.6691 -0.2147 -0.4876
  345SOL    HW2 1425   2.614   2.912   0.810 -0.6204 -0.1710 -0.3955
  345SOL    HW3 1426   2.629   2.969   0.671 -1.3602 -0.2161 -0.4984
  345SOL    MW4 1427   2.626   2.980   0.757 -0.7536 -0.2093 -0.4769
  346SOL     OW 1428   2.121   2.062   0.742  0.5590 -0.3088  0.4101
  346SOL    HW2 1429   2.089   2.094   0.658  1.5561  0.5220  0.3439
  346SOL    HW3 1430   2.096   2.130   0.805  0.1480 -0.7507  0.7285
  346SOL    MW4 1431   2.113   2.075   0.739  0.6366 -0.2573  0.4434
  347SOL     OW 1432   3.639   1.291   0.568 -0.0887  0.3022  0.0194
  347SOL    HW2 1433   3.674   1.377   0.544  0.4392 -0.6783 -2.8468
  347SOL    HW3 1434   3.703   1.228   0.534 -0.8034 -1.2917  1.4905
  347SOL    MW4 1435   3.652   1.294   0.561 -0.1135 -0.0374 -0.1647
  348SOL     OW 1436   0.562   2.644   0.501  0.1888  0.2230  0.1429
  348SOL    HW2 1437   0.559   2.563   0.450 -0.2963  0.5572 -0.3553
  348SOL    HW3 1438   0.558   2.714   0.437  0.0527  0.6447  0.6043
  348SOL    MW4 1439   0.561   2.642   0.486  0.1069  0.3231  0.1381
  349SOL     OW 1440   3.948   2.614   0.894  0.0803  0.2584 -0.0406
  349SOL    HW2 1441   3.967   2.658   0.810  1.7805  2.2964  1.3473
  349SOL    HW3 1442   3.985   2.673   0.960  0.1216 -2.0682  2.0632
  349SOL    MW4 1443   3.955   2.628   0.891  0.3099  0.2205  0.4201
  350SOL     OW 1444   4.064   1.937   1.120 -0.0349  0.2067 -0.3802
  350SOL    HW2 1445   4.143   1.971   1.163 -0.3204 -1.0224  1.1894
  350SOL    HW3 1446   3.992   1.983   1.163 -0.2036  0.8963 -1.3985
  350SOL    MW4 1447   4.065   1.948   1.132 -0.0944  0.1354 -0.3074
  351SOL     OW 1448   2.614   2.747   0.893  0.2598  0.0473  0.2485
  351SOL    HW2 1449   2.546   2.679   0.889  0.2944  0.0144  0.2236
  351SOL    HW3 1450   2.635   2.755   0.986 -0.2492  0.5223  0.3279
  351SOL    MW4 1451   2.608   2.739   0.905  0.1969  0.1054  0.2557
  352SOL     OW 1452   1.388   0.382   1.147  0.2429  0.0919 -0.4282
  352SOL    HW2 1453   1.401   0.302   1.198 -0.1621 -0.2201 -0.8099
  352SOL    HW3 1454   1.304   0.416   1.176  0.4512  0.4253 -0.2090
  352SOL    MW4 1455   1.379   0.376   1.158  0.2170  0.0947 -0.4494
  353SOL     OW 1456   3.979   0.119   0.407 -0.1102  0.0084  0.4429
  353SOL    HW2 1457   3.964   0.200   0.359 -1.9077  0.4968  1.7966
  353SOL    HW3 1458   4.011   0.148   0.493 -1.0977 -0.6883  1.0523
  353SOL    MW4 1459   3.981   0.133   0.412 -0.4778 -0.0191  0.7019
  354SOL     OW 1460   0.675   3.767   0.652 -0.1916 -0.5056  0.0708
  354SOL    HW2 1461   0.622   3.811   0.719 -0.7256 -1.7098  0.4510
  354SOL    HW3 1462   0.762   3.807   0.661 -0.5606  0.1922  0.6750
  354SOL    MW4 1463   0.680   3.778   0.662 -0.3107 -0.5727  0.2007
  355SOL     OW 1464   4.025   1.505   0.724 -0.3115  0.0390  0.1182
  355SOL    HW2 1465   3.962   1.541   0.786 -1.6201 -0.9951 -0.5688
  355SOL    HW3 1466   3.988   1.526   0.638  0.5352 -0.1514 -0.2997
  355SOL    MW4 1467   4.012   1.512   0.721 -0.3724 -0.1227 -0.0275
  356SOL     OW 1468   0.853   1.951   1.087  0.2051 -0.0659 -0.0135
  356SOL    HW2 1469   0.792   1.998   1.144 -0.7419 -0.4533 -0.6820
  356SOL    HW3 1470   0.855   1.862   1.121  0.8126  0.0758  0.3269
  356SOL    MW4 1471   0.845   1.945   1.099  0.1602 -0.0982 -0.0569
  357SOL     OW 1472   3.913   3.734   0.764 -0.2142  0.3176  0.5631
  357SOL    HW2 1473   3.916   3.809   0.822 -1.8444  0.6668  0.2151
  357SOL    HW3 1474   3.823   3.702   0.770  0.0074 -0.5720 -0.5887
  357SOL    MW4 1475   3.902   3.739   0.772 -0.4001  0.2460  0.3653
  358SOL     OW 1476   3.747   2.916   0.575  0.1522  0.0755 -0.5121
  358SOL    HW2 1477   3.830   2.949   0.610 -0.0484  1.3907 -1.2606
  358SOL    HW3 1478   3.710   2.990   0.528 -1.7041 -0.3360  0.2604
  358SOL    MW4 1479   3.753   2.930   0.574 -0.1194  0.1948 -0.5090
  359SOL     OW 1480   1.337   3.812   0.486 -0.7646 -0.8051 -0.2937
  359SOL    HW2 1481   1.252   3.849   0.463  0.0587  1.1532 -0.3137
  359SOL    HW3 1482   1.327   3.784   0.577 -0.9175  1.0530  0.2829
  359SOL    MW4 1483   1.324   3.813   0.495 -0.6762 -0.3018 -0.2203
  360SOL     OW 1484   2.996   1.939   0.488 -0.2017 -0.3611 -0.0171
  360SOL    HW2 1485   3.034   1.973   0.407  0.0418  0.3253  0.3797
  360SOL    HW3 1486   3.039   1.989   0.557 -2.4907  1.1257  0.4128
  360SOL    MW4 1487   3.006   1.950   0.486 -0.4716 -0.0745  0.0920
  361SOL     OW 1488   4.435   1.172   0.845 -0.4146  0.7950  0.1599
  361SOL    HW2 1489   4.456   1.088   0.804  0.6906  1.4114 -0.5802
  361SOL    HW3 1490   4.356   1.202   0.800 -0.6087  0.3081  0.1768
  361SOL    MW4 1491   4.428   1.165   0.833 -0.2947  0.8121  0.0644
  362SOL     OW 1492   3.617   2.677   1.148  0.2462 -0.2220 -0.5174
  362SOL    HW2 1493   3.530   2.717   1.155  0.5414  0.2924  0.3338
  362SOL    HW3 1494   3.632   2.668   1.054 -1.0123 -0.9556 -0.6659
  362SOL    MW4 1495   3.607   2.681   1.136  0.1192 -0.2508 -0.4246
  363SOL     OW 1496   3.164   3.417   0.427 -0.1958  0.3815  0.1209
  363SOL    HW2 1497   3.130   3.499   0.462 -0.4070 -0.2505  1.4120
  363SOL    HW3 1498   3.094   3.353   0.441  0.1221 -0.1163 -0.5159
  363SOL    MW4 1499   3.150   3.420   0.433 -0.1817  0.2325  0.2073
  364SOL     OW 1500   0.375   3.714   0.413  0.1362  0.1687 -0.0370
  364SOL    HW2 1501   0.453   3.766   0.392  0.7133 -0.5586  0.2521
  364SOL    HW3 1502   0.406   3.624   0.410 -0.5347 -0.0888  0.7796
  364SOL    MW4 1503   0.390   3.709   0.410  0.1238  0.0389  0.1089
  365SOL     OW 1504   2.577   4.437   0.304 -0.0467 -0.0590  0.2181
  365SOL    HW2 1505   2.513   4.427   0.234  2.5734  0.9019 -2.4297
  365SOL    HW3 1506   2.611   4.349   0.318  2.2006  0.3113 -2.5405
  365SOL    MW4 1507   2.573   4.424   0.296  0.5956  0.1173 -0.4952
  366SOL     OW 1508   0.943   0.908   0.477 -0.0222 -0.2179  0.0537
  366SOL    HW2 1509   0.870   0.949   0.430  0.9425  0.0525 -1.2447
  366SOL    HW3 1510   0.914   0.905   0.568 -0.8596  1.6777 -0.1258
  366SOL    MW4 1511   0.929   0.913   0.483 -0.0054  0.0678 -0.1413
  367SOL     OW 1512   3.046   3.671   0.769  0.2371  0.3429  0.8562
  367SOL    HW2 1513   3.031   3.657   0.676 -0.6115  2.4145  0.6520
  367SOL    HW3 1514   3.081   3.588   0.801 -1.2844 -1.0181 -0.9280
  367SOL    MW4 1515   3.048   3.658   0.761 -0.0756  0.4363  0.5938
  368SOL     OW 1516   2.253   0.337   1.168  0.1618 -0.1397  0.1927
  368SOL    HW2 1517   2.182   0.394   1.197  0.2426 -0.3919  0.8947
  368SOL    HW3 1518   2.333   0.387   1.182  0.3263 -0.8384  1.8918
  368SOL    MW4 1519   2.254   0.351   1.173  0.1941 -0.2652  0.5095
  369SOL     OW 1520   4.078   4.232   0.425  0.1174 -0.1950 -0.0288
  369SOL    HW2 1521   4.017   4.275   0.365  1.9903  1.1390 -1.0331
  369SOL    HW3 1522   4.137   4.302   0.454  0.0024 -1.0636  2.4458
  369SOL    MW4 1523   4.078   4.247   0.421  0.3495 -0.1330  0.1652
  370SOL     OW 1524   3.121   4.316   0.761 -0.0460  0.0977 -0.2300
  370SOL    HW2 1525   3.152   4.406   0.754  0.1600 -0.0238 -0.9015
  370SOL    HW3 1526   3.031   4.319   0.731 -0.5424  0.3543  1.2205
  370SOL    MW4 1527   3.113   4.328   0.756 -0.0844  0.1159 -0.1273
  371SOL     OW 1528   0.482   3.447   0.413 -0.0909  0.3741  0.0057
  371SOL    HW2 1529   0.504   3.436   0.505 -0.2649  0.7633  0.0925
  371SOL    HW3 1530   0.388   3.428   0.408  0.3011 -1.6203 -0.4189
  371SOL    MW4 1531   0.472   3.443   0.424 -0.0621  0.1624 -0.0389
  372SOL     OW 1532   3.134   2.659   1.144 -0.1322  0.0660  0.1275
  372SOL    HW2 1533   3.121   2.673   1.051 -0.3903  0.5716  0.2392
  372SOL    HW3 1534   3.070   2.716   1.187  1.5335  1.5776  0.6524
  372SOL    MW4 1535   3.124   2.668   1.138  0.0534  0.3324  0.2114
  373SOL     OW 1536   3.525   0.909   0.490  0.4330 -0.7710  0.0627
  373SOL    HW2 1537   3.573   0.910   0.573  1.3173 -2.2295 -0.4010
  373SOL    HW3 1538   3.492   0.819   0.482 -0.1159 -0.4969 -0.8949
  373SOL    MW4 1539   3.527   0.897   0.500  0.4773 -0.9272 -0.1248
  374SOL     OW 1540   2.926   4.203   0.451  0.5057  0.3087  0.1396
  374SOL    HW2 1541   3.018   4.206   0.427  0.4189  1.0530 -0.0992
  374SOL    HW3 1542   2.923   4.239   0.540  0.3775  0.7737 -0.0525
  374SOL    MW4 1543   2.937   4.208   0.460  0.4773  0.4683  0.0828
  375SOL     OW 1544   4.395   2.800   0.521 -0.5313  0.3247  0.1715
  375SOL    HW2 1545   4.488   2.776   0.515 -0.3704  0.3893  2.1901
  375SOL    HW3 1546   4.395   2.896   0.515 -0.3680  0.3933  1.1826
  375SOL    MW4 1547   4.408   2.809   0.519 -0.4888  0.3424  0.5712
  376SOL     OW 1548   0.213   4.374   1.247 -0.3929  0.5520 -0.1620
  376SOL    HW2 1549   0.294   4.333   1.214  0.1971  1.9298 -0.4349
  376SOL    HW3 1550   0.224   4.374   1.342 -0.3994  0.0612 -0.1593
  376SOL    MW4 1551   0.225   4.368   1.255 -0.3159  0.6695 -0.1976
  377SOL     OW 1552   0.263   0.773   1.159  0.3609 -0.2397  0.5691
  377SOL    HW2 1553   0.327   0.808   1.221  0.1678 -0.3599  0.8336
  377SOL    HW3 1554   0.181   0.818   1.181  0.3828  0.0278  0.1337
  377SOL    MW4 1555   0.261   0.784   1.170  0.3384 -0.2203  0.5467
  378SOL     OW 1556   0.662   3.834   1.135 -0.4394 -0.0357 -0.2206
  378SOL    HW2 1557   0.587   3.874   1.179  0.6994 -0.8635  2.6161
  378SOL    HW3 1558   0.737   3.888   1.159 -0.0081  0.4644 -2.5712
  378SOL    MW4 1559   0.662   3.846   1.144 -0.2323 -0.0789 -0.1564
  379SOL     OW 1560   4.453   3.402   0.841  0.6334 -0.1239 -0.3018
  379SOL    HW2 1561   4.543   3.377   0.820  0.9946  0.0908  0.9281
  379SOL    HW3 1562   4.402   3.322   0.828  1.2249 -0.5974  0.2688
  379SOL    MW4 1563   4.458   3.388   0.837  0.7591 -0.1578 -0.0643
  380SOL     OW 1564   0.333   4.129   0.579  0.0900 -0.1062  0.3080
  380SOL    HW2 1565   0.278   4.050   0.583  0.0063  0.0532  2.3737
  380SOL    HW3 1566   0.272   4.200   0.563 -0.0350 -0.2212  0.2710
  380SOL    MW4 1567   0.318   4.128   0.577  0.0625 -0.1001  0.5757
  381SOL     OW 1568   2.313   0.431   0.610  0.3285  0.1324  0.0061
  381SOL    HW2 1569   2.319   0.411   0.704 -0.1781 -0.2243 -0.0334
  381SOL    HW3 1570   2.219   0.425   0.591  0.4597 -0.0741 -0.5843
  381SOL    MW4 1571   2.301   0.427   0.620  0.2787  0.0581 -0.0771
  382SOL     OW 1572   0.775   1.963   0.817 -0.4561 -0.1200  0.2682
  382SOL    HW2 1573   0.802   1.976   0.908  0.3796  0.6733 -0.0858
  382SOL    HW3 1574   0.819   2.033   0.769 -3.5537  1.5639 -0.2699
  382SOL    MW4 1575   0.784   1.974   0.823 -0.7545  0.2067  0.1506
  383SOL     OW 1576   0.828   2.755   0.697  0.3378  0.1730 -0.0410
  383SOL    HW2 1577   0.853   2.783   0.609  0.7577  1.1164  0.3677
  383SOL    HW3 1578   0.823   2.837   0.748  0.1751 -0.3665  0.8251
  383SOL    MW4 1579   0.831   2.770   0.692  0.3716  0.2263  0.1272
  384SOL     OW 1580   2.945   0.466   0.502  0.5446  0.0331 -0.6689
  384SOL    HW2 1581   2.858   0.496   0.479  0.4259 -0.1236 -0.4252
  384SOL    HW3 1582   2.992   0.546   0.527  0.2728  0.0355 -0.1569
  384SOL    MW4 1583   2.940   0.481   0.502  0.4930  0.0128 -0.5692
  385SOL     OW 1584   0.353   4.491   0.733 -0.6166 -0.1682 -0.4644
  385SOL    HW2 1585   0.320   4.549   0.802  0.1011  0.2066 -0.4363
  385SOL    HW3 1586   0.397   4.421   0.779  1.4444  1.0251 -0.5660
  385SOL    MW4 1587   0.354   4.490   0.748 -0.2500  0.0386 -0.4741
  386SOL     OW 1588   1.667   4.179   0.589  0.1013 -0.2211  0.2571
  386SOL    HW2 1589   1.670   4.229   0.507 -1.1355 -0.6444 -0.0633
  386SOL    HW3 1590   1.701   4.240   0.655 -2.1236  1.3681  0.0037
  386SOL    MW4 1591   1.672   4.194   0.587 -0.3554 -0.0672  0.1814
  387SOL     OW 1592   1.805   3.434   1.101  0.7001 -0.0676  0.2233
  387SOL    HW2 1593   1.780   3.361   1.156  1.3360  0.3898  1.1295
  387SOL    HW3 1594   1.885   3.468   1.140 -0.3035  1.9452  0.6035
  387SOL    MW4 1595   1.812   3.429   1.113  0.6516  0.2582  0.3929
  388SOL     OW 1596   1.658   1.912   0.827 -0.3248 -0.2637  0.2121
  388SOL    HW2 1597   1.664   1.928   0.733  2.4782 -0.2081  0.3617
  388SOL    HW3 1598   1.614   1.827   0.834 -1.6153  0.2885 -1.0924
  388SOL    MW4 1599   1.653   1.903   0.816 -0.1252 -0.1836  0.0598
  389SOL     OW 1600   0.689   3.045   1.099 -0.0879  0.1881 -0.2477
  389SOL    HW2 1601   0.727   3.040   1.011  0.6895  0.5947  0.0608
  389SOL    HW3 1602   0.744   3.109   1.145 -0.2492 -0.3139  0.6504
  389SOL    MW4 1603   0.701   3.053   1.094 -0.0067  0.1755 -0.0886
  390SOL     OW 1604   0.859   1.696   0.777  0.2475 -0.4764  0.5392
  390SOL    HW2 1605   0.848   1.791   0.786 -1.4432 -0.5567 -0.5907
  390SOL    HW3 1606   0.942   1.678   0.822  1.0272  1.6522  0.0396
  390SOL    MW4 1607   0.869   1.706   0.784  0.1273 -0.2060  0.3242
  391SOL     OW 1608   3.423   0.369   0.497  0.0277  0.2700 -0.2691
  391SOL    HW2 1609   3.397   0.373   0.589 -0.0002  1.1601 -0.3141
  391SOL    HW3 1610   3.413   0.459   0.465  0.1703 -0.0064 -1.1045
  391SOL    MW4 1611   3.418   0.382   0.505  0.0427  0.3510 -0.3852
  392SOL     OW 1612   3.269   0.172   0.360 -0.6834  0.3080  0.1198
  392SOL    HW2 1613   3.186   0.213   0.335  0.9253  2.3388 -2.1494
  392SOL    HW3 1614   3.316   0.240   0.408  0.1865 -0.3826  0.2650
  392SOL    MW4 1615   3.264   0.187   0.363 -0.3564  0.4848 -0.1604
  393SOL     OW 1616   2.047   0.418   0.568 -0.0384 -0.3702 -0.1112
  393SOL    HW2 1617   1.996   0.481   0.518  0.1150 -0.6850 -0.6783
  393SOL    HW3 1618   2.006   0.333   0.549  0.8254 -0.6563 -0.7664
  393SOL    MW4 1619   2.035   0.415   0.559  0.0958 -0.4495 -0.2725
  394SOL     OW 1620   2.848   2.627   0.750 -0.1530  0.4509 -0.1173
  394SOL    HW2 1621   2.858   2.542   0.793 -1.1234 -0.0466 -0.8528
  394SOL    HW3 1622   2.761   2.657   0.778  0.9849  2.1190  1.7221
  394SOL    MW4 1623   2.838   2.620   0.759 -0.1307  0.6056  0.0283
  395SOL     OW 1624   1.281   2.667   0.818  0.3800  0.3827 -0.7463
  395SOL    HW2 1625   1.274   2.757   0.785  1.5730  0.3304 -1.1656
  395SOL    HW3 1626   1.192   2.645   0.845 -0.2825  1.0572 -2.3093
  395SOL    MW4 1627   1.268   2.676   0.817  0.4499  0.4647 -1.0079
  396SOL     OW 1628   0.936   3.848   0.659  0.0235  0.2774  0.0462
  396SOL    HW2 1629   0.973   3.762   0.674  0.7140  0.7324  0.9621
  396SOL    HW3 1630   0.975   3.876   0.576  1.3160  0.5185  0.7210
  396SOL    MW4 1631   0.946   3.841   0.650  0.2851  0.3693  0.2561
  397SOL     OW 1632   2.023   1.580   0.866 -0.0939  0.0801  0.2720
  397SOL    HW2 1633   1.990   1.665   0.836 -0.4366 -0.4767 -0.9458
  397SOL    HW3 1634   1.999   1.577   0.959 -0.9311  0.9145  0.0964
  397SOL    MW4 1635   2.015   1.591   0.874 -0.2496  0.1168  0.0882
  398SOL     OW 1636   2.788   1.918   0.869  0.4075  0.2895  0.0699
  398SOL    HW2 1637   2.748   1.986   0.815  2.0505  0.8036 -0.5388
  398SOL    HW3 1638   2.747   1.837   0.838  0.4282  0.7111 -1.1050
  398SOL    MW4 1639   2.777   1.916   0.858  0.6270  0.4129 -0.1655
  399SOL     OW 1640   1.829   4.479   0.690 -0.4157 -0.2684 -0.3312
  399SOL    HW2 1641   1.890   4.528   0.745  0.2799 -1.2552 -0.1976
  399SOL    HW3 1642   1.804   4.403   0.743 -1.0192 -0.3674 -0.7505
  399SOL    MW4 1643   1.834   4.475   0.704 -0.4036 -0.4115 -0.3689
  400SOL     OW 1644   3.637   0.435   0.929 -0.3020 -0.5314  0.1675
  400SOL    HW2 1645   3.563   0.400   0.879 -0.0301 -0.5022 -0.2618
  400SOL    HW3 1646   3.624   0.401   1.018 -1.4981  0.4934  0.3969
  400SOL    MW4 1647   3.625   0.426   0.934 -0.4239 -0.3923  0.1411
  401SOL     OW 1648   4.438   0.282   0.849 -0.4514  0.0772  0.1230
  401SOL    HW2 1649   4.347   0.310   0.836 -0.5111 -0.5680 -0.8848
  401SOL    HW3 1650   4.461   0.315   0.935 -1.1464  1.5839 -0.2553
  401SOL    MW4 1651   4.429   0.290   0.858 -0.5503  0.1909 -0.0598
  402SOL     OW 1652   3.374   3.083   1.161  0.1828 -0.3393 -0.3347
  402SOL    HW2 1653   3.438   3.149   1.188 -1.8984  1.8396 -0.5599
  402SOL    HW3 1654   3.386   3.076   1.066  0.0075  0.1597 -0.3946
  402SOL    MW4 1655   3.384   3.091   1.152 -0.1147  0.0138 -0.3723
  403SOL     OW 1656   3.764   2.227   0.425  0.4708  0.0058  0.1406
  403SOL    HW2 1657   3.700   2.181   0.480  1.6397 -0.0846  1.4428
  403SOL    HW3 1658   3.721   2.309   0.401 -0.8134 -0.8235 -0.4621
  403SOL    MW4 1659   3.750   2.232   0.429  0.4559 -0.1154  0.2329
  404SOL     OW 1660   1.504   3.053   0.847  0.1213 -0.1131 -0.5206
  404SOL    HW2 1661   1.595   3.028   0.833  0.3581 -0.4081  1.4674
  404SOL    HW3 1662   1.502   3.148   0.831  0.5796 -0.2475 -1.4279
  404SOL    MW4 1663   1.516   3.062   0.843  0.2130 -0.1698 -0.3780
  405SOL     OW 1664   0.354   0.092   0.401  0.5530 -0.2659 -0.1135
  405SOL    HW2 1665   0.270   0.129   0.428  0.3609  0.6585 -1.9650
  405SOL    HW3 1666   0.330   0.010   0.357  0.6805 -0.2873 -0.1411
  405SOL    MW4 1667   0.339   0.086   0.399  0.5445 -0.1468 -0.3614
  406SOL     OW 1668   1.599   3.709   0.479  0.0645  0.2113  0.0989
  406SOL    HW2 1669   1.516   3.750   0.454  0.3972  0.1146 -1.2017
  406SOL    HW3 1670   1.660   3.783   0.489 -0.1278  0.2685  0.8694
  406SOL    MW4 1671   1.596   3.724   0.477  0.0831  0.2062  0.0290
  407SOL     OW 1672   0.943   1.154   0.883  0.0740  0.2352  0.3882
  407SOL    HW2 1673   0.863   1.203   0.867  0.7163  1.0767 -0.2964
  407SOL    HW3 1674   0.926   1.067   0.847 -0.3632  0.5538 -0.1772
  407SOL    MW4 1675   0.931   1.149   0.876  0.1011  0.3881  0.2233
  408SOL     OW 1676   0.122   3.014   0.849  0.0945 -0.7859  0.1438
  408SOL    HW2 1677   0.207   3.003   0.807  0.9053  2.4143  0.8378
  408SOL    HW3 1678   0.142   3.034   0.941 -1.2682  1.9561 -0.0900
  408SOL    MW4 1679   0.136   3.015   0.856  0.0217 -0.0021  0.2045
  409SOL     OW 1680   2.695   0.888   1.200 -0.0814 -0.3990  0.0115
  409SOL    HW2 1681   2.612   0.855   1.168 -0.6468  0.1127  0.9441
  409SOL    HW3 1682   2.695   0.981   1.177 -0.1309 -0.2152  0.7143
  409SOL    MW4 1683   2.684   0.896   1.193 -0.1624 -0.3073  0.2272
  410SOL     OW 1684   3.407   3.338   0.543  0.4124 -0.1982 -0.1154
  410SOL    HW2 1685   3.319   3.357   0.512  0.4651 -0.7162 -0.5988
  410SOL    HW3 1686   3.458   3.415   0.520 -0.1827  0.6335  1.2903
  410SOL    MW4 1687   3.402   3.351   0.536  0.3412 -0.1566  0.0063
  411SOL     OW 1688   1.002   2.602   0.834  0.5993 -0.2154  0.1578
  411SOL    HW2 1689   0.961   2.663   0.773  2.3652  0.8731  0.0195
  411SOL    HW3 1690   0.950   2.609   0.914  0.9572  1.7105  0.2477
  411SOL    MW4 1691   0.990   2.611   0.837  0.8795  0.1824  0.1514
  412SOL     OW 1692   0.219   4.633   0.949 -0.1605  0.0770  0.0985
  412SOL    HW2 1693   0.221   4.637   1.044 -1.4549  0.0917  0.1259
  412SOL    HW3 1694   0.127   4.619   0.927  0.1076  0.2175 -1.1519
  412SOL    MW4 1695   0.207   4.632   0.959 -0.2959  0.0978 -0.0629
  413SOL     OW 1696   1.722   2.381   1.242  0.2498  0.6036  0.2281
  413SOL    HW2 1697   1.807   2.350   1.211 -0.3525  0.6941 -1.5571
  413SOL    HW3 1698   1.724   2.475   1.226 -0.0572  0.6577  0.5071
  413SOL    MW4 1699   1.733   2.389   1.236  0.1298  0.6225  0.0294
  414SOL     OW 1700   4.171   1.232   0.756 -0.3435  0.0089  0.4740
  414SOL    HW2 1701   4.124   1.314   0.770 -0.6910 -0.1809  0.3999
  414SOL    HW3 1702   4.119   1.165   0.801 -0.3509 -0.2622  0.0659
  414SOL    MW4 1703   4.158   1.234   0.764 -0.3905 -0.0520  0.4104
  415SOL     OW 1704   1.956   2.951   0.382  1.0174 -0.0696  0.4350
  415SOL    HW2 1705   2.044   2.971   0.413  0.4942  0.9017  1.3127
  415SOL    HW3 1706   1.931   3.028   0.331  1.0013 -0.7080 -0.5443
  415SOL    MW4 1707   1.964   2.964   0.379  0.9463 -0.0257  0.4216
  416SOL     OW 1708   4.441   2.097   0.334  0.1738  0.2827  0.6204
  416SOL    HW2 1709   4.353   2.121   0.363 -0.0780  1.0996 -0.7541
  416SOL    HW3 1710   4.497   2.115   0.409 -0.8290 -0.2328  1.5037
  416SOL    MW4 1711   4.437   2.103   0.348  0.0081  0.3223  0.5556
  417SOL     OW 1712   3.815   2.220   0.878 -0.0520 -0.2885 -0.0233
  417SOL    HW2 1713   3.896   2.234   0.829 -1.1902 -0.0508 -1.9123
  417SOL    HW3 1714   3.833   2.253   0.966  1.1445  1.9942 -1.0866
  417SOL    MW4 1715   3.828   2.226   0.883 -0.0446  0.0441 -0.4128
  418SOL     OW 1716   3.994   3.003   0.666  0.2146  0.2533 -0.0792
  418SOL    HW2 1717   4.019   3.068   0.600  1.4443  0.5617  0.6890
  418SOL    HW3 1718   4.020   3.042   0.749  0.6404 -1.0680  0.4159
  418SOL    MW4 1719   4.001   3.017   0.668  0.4330  0.1197  0.0875
  419SOL     OW 1720   4.097   3.541   0.289  0.2596  0.0308  0.0441
  419SOL    HW2 1721   4.102   3.533   0.194 -1.7097 -1.6218  0.0459
  419SOL    HW3 1722   4.161   3.609   0.311  1.3232 -0.1553 -2.3641
  419SOL    MW4 1723   4.106   3.549   0.279  0.1402 -0.2117 -0.2734
  420SOL     OW 1724   1.027   1.858   0.447 -0.2489  0.3177  0.0744
  420SOL    HW2 1725   0.963   1.795   0.479  1.3806 -1.3973  0.0749
  420SOL    HW3 1726   1.093   1.805   0.402  0.2329  2.2049 -1.5176
  420SOL    MW4 1727   1.027   1.843   0.446  0.0297  0.3403 -0.1356
  421SOL     OW 1728   2.669   3.703   0.696 -0.4271  0.1255  0.3734
  421SOL    HW2 1729   2.587   3.736   0.659 -1.7191 -0.9017  2.2401
  421SOL    HW3 1730   2.712   3.781   0.732 -0.7825  0.6055 -0.2321
  421SOL    MW4 1731   2.664   3.717   0.696 -0.6444  0.0536  0.5398
  422SOL     OW 1732   0.598   4.549   0.587  0.0163 -0.4544 -0.0872
  422SOL    HW2 1733   0.516   4.533   0.633  0.5879  0.3596  1.2688
  422SOL    HW3 1734   0.596   4.642   0.566  0.3977 -0.5170 -0.4150
  422SOL    MW4 1735   0.587   4.559   0.590  0.1420 -0.3552  0.0485
  423SOL     OW 1736   0.458   1.661   0.728  0.3042 -0.2201  0.6081
  423SOL    HW2 1737   0.376   1.620   0.752  0.3121 -0.5140  0.1373
  423SOL    HW3 1738   0.524   1.618   0.783  0.5004 -1.7736 -0.8248
  423SOL    MW4 1739   0.456   1.650   0.739  0.3312 -0.4640  0.3569
  424SOL     OW 1740   4.096   1.860   0.854 -0.1062  0.1252  0.0051
  424SOL    HW2 1741   4.069   1.893   0.939  0.1476  1.0779 -0.2843
  424SOL    HW3 1742   4.158   1.925   0.821  1.6541 -1.4466  0.1415
  424SOL    MW4 1743   4.101   1.873   0.861  0.1593  0.0435 -0.0151
  425SOL     OW 1744   2.736   3.636   0.437  0.3557 -0.4917 -0.2175
  425SOL    HW2 1745   2.724   3.647   0.531 -3.1150 -0.6358 -0.5781
  425SOL    HW3 1746   2.709   3.719   0.399  0.4079 -0.8915 -1.1532
  425SOL    MW4 1747   2.731   3.648   0.445 -0.0954 -0.5639 -0.3885
  426SOL     OW 1748   3.447   0.643   0.482 -0.5806  0.0417  0.3373
  426SOL    HW2 1749   3.531   0.610   0.513 -0.1046  1.3546  0.4608
  426SOL    HW3 1750   3.388   0.631   0.557 -0.5730 -1.0775  0.1770
  426SOL    MW4 1751   3.450   0.637   0.496 -0.5167  0.0672  0.3324
  427SOL     OW 1752   2.858   1.496   0.706 -0.3767  0.0587 -0.1505
  427SOL    HW2 1753   2.935   1.498   0.762 -1.1159 -0.6968  0.9192
  427SOL    HW3 1754   2.893   1.501   0.617  1.0268 -2.0292  0.2370
  427SOL    MW4 1755   2.873   1.497   0.701 -0.2890 -0.3165  0.0418
  428SOL     OW 1756   3.722   0.701   0.905 -0.0967 -0.2053  0.6291
  428SOL    HW2 1757   3.693   0.611   0.889 -0.5326  0.1270 -0.4906
  428SOL    HW3 1758   3.762   0.698   0.992  1.1716 -1.7830  0.0105
  428SOL    MW4 1759   3.723   0.689   0.914  0.0131 -0.3697  0.3998
  429SOL     OW 1760   0.570   2.425   0.359 -0.1665 -0.3470 -0.4645
  429SOL    HW2 1761   0.639   2.366   0.331 -0.8024 -1.2433 -0.1849
  429SOL    HW3 1762   0.504   2.368   0.399 -0.1357  0.6972  1.1262
  429SOL    MW4 1763   0.570   2.410   0.361 -0.2463 -0.3276 -0.2177
  430SOL     OW 1764   0.890   3.211   1.224  0.1583  0.1227  0.4195
  430SOL    HW2 1765   0.974   3.166   1.213 -0.5264 -1.1712  0.3551
  430SOL    HW3 1766   0.901   3.294   1.178  1.5460  0.1524  0.7790
  430SOL    MW4 1767   0.903   3.216   1.217  0.2510 -0.0439  0.4585
  431SOL     OW 1768   0.165   1.833   0.596  0.1065  0.3237 -0.1708
  431SOL    HW2 1769   0.071   1.814   0.593  0.1580  0.1622 -0.9105
  431SOL    HW3 1770   0.207   1.755   0.561  0.5408  0.2788  0.4348
  431SOL    MW4 1771   0.158   1.820   0.591  0.1706  0.2965 -0.1885
  432SOL     OW 1772   0.621   3.087   0.669  0.0971  0.3814  0.4081
  432SOL    HW2 1773   0.655   3.059   0.584 -1.4083  1.3792 -0.5622
  432SOL    HW3 1774   0.654   3.176   0.680  0.2694  0.2617  0.8476
  432SOL    MW4 1775   0.630   3.095   0.659 -0.0788  0.4973  0.3380
  433SOL     OW 1776   0.438   2.206   0.772  0.0875  0.0502 -0.0737
  433SOL    HW2 1777   0.432   2.113   0.795 -0.6970 -0.2318 -1.3791
  433SOL    HW3 1778   0.457   2.207   0.679 -0.6642  1.2028 -0.2331
  433SOL    MW4 1779   0.439   2.194   0.763 -0.1152  0.1650 -0.2669
  434SOL     OW 1780   1.802   0.367   1.159 -0.2748  0.6526 -0.0271
  434SOL    HW2 1781   1.719   0.411   1.176 -0.0921  0.7301  0.7073
  434SOL    HW3 1782   1.805   0.356   1.064 -1.6672 -0.4374  0.0379
  434SOL    MW4 1783   1.792   0.371   1.149 -0.4344  0.5190  0.0783
  435SOL     OW 1784   0.975   1.433   0.512  0.0175  0.0336  0.5701
  435SOL    HW2 1785   0.944   1.521   0.491 -0.5513 -0.6985 -1.7340
  435SOL    HW3 1786   1.066   1.432   0.481 -0.2969 -0.5106 -0.3486
  435SOL    MW4 1787   0.983   1.445   0.505 -0.0990 -0.1348  0.1448
  436SOL     OW 1788   0.724   3.016   0.446 -0.0350 -0.1334  0.1011
  436SOL    HW2 1789   0.662   2.961   0.399 -0.4996  0.2540  0.2492
  436SOL    HW3 1790   0.723   3.099   0.399  0.5238 -0.1903 -0.0143
  436SOL    MW4 1791   0.716   3.020   0.434 -0.0226 -0.0901  0.1054
  437SOL     OW 1792   3.401   0.003   0.893  0.3683 -0.1127  0.1911
  437SOL    HW2 1793   3.319  -0.026   0.854 -0.1131  0.9015  0.4394
  437SOL    HW3 1794   3.469  -0.045   0.845 -0.3109 -0.1738 -0.7167
  437SOL    MW4 1795   3.399  -0.007   0.881  0.2151  0.0131  0.1041
  438SOL     OW 1796   2.844   3.093   0.896  0.5978 -0.5070 -0.4001
  438SOL    HW2 1797   2.768   3.056   0.852 -1.0452  0.0163  1.9515
  438SOL    HW3 1798   2.861   3.176   0.850  0.2079 -0.9809 -1.3969
  438SOL    MW4 1799   2.837   3.099   0.884  0.3297 -0.5007 -0.2213
  439SOL     OW 1800   2.856   0.741   0.836 -0.2784  0.0843  0.1651
  439SOL    HW2 1801   2.818   0.821   0.800 -0.7849 -0.1930  0.0722
  439SOL    HW3 1802   2.882   0.764   0.925  0.7394  0.7020 -0.2873
  439SOL    MW4 1803   2.854   0.755   0.843 -0.2110  0.1292  0.0932
  440SOL     OW 1804   0.283   3.968   0.860  0.1814 -0.2730  0.0746
  440SOL    HW2 1805   0.241   3.918   0.931 -0.9059  0.0384 -0.3463
  440SOL    HW3 1806   0.231   3.948   0.783  0.8094  0.1311 -0.4558
  440SOL    MW4 1807   0.271   3.959   0.859  0.1208 -0.1788 -0.0509
  441SOL     OW 1808   1.244   2.805   0.475  0.0271  0.2898  0.1476
  441SOL    HW2 1809   1.225   2.846   0.559  0.2057  0.7502 -0.0364
  441SOL    HW3 1810   1.159   2.799   0.431 -0.0346  0.2352  0.2711
  441SOL    MW4 1811   1.230   2.809   0.480  0.0424  0.3436  0.1396
  442SOL     OW 1812   1.571   3.549   1.204 -0.0034  0.0814  0.1165
  442SOL    HW2 1813   1.503   3.513   1.146  0.2343 -0.6495  0.2945
  442SOL    HW3 1814   1.654   3.521   1.165  0.1845  0.4930  0.2162
  442SOL    MW4 1815   1.573   3.541   1.191  0.0527  0.0391  0.1531
  443SOL     OW 1816   4.052   4.232   1.102 -0.0391  0.4457 -0.0171
  443SOL    HW2 1817   3.973   4.268   1.141  1.1256  1.5092  1.4317
  443SOL    HW3 1818   4.063   4.147   1.144 -1.7195 -0.8110 -2.0125
  443SOL    MW4 1819   4.043   4.226   1.113 -0.1068  0.4206 -0.0892
  444SOL     OW 1820   0.918   0.341   1.171  0.0132  0.2653  0.0958
  444SOL    HW2 1821   0.907   0.338   1.076 -0.0661 -1.5034  0.1387
  444SOL    HW3 1822   0.931   0.249   1.196 -2.2040  0.4379  2.0623
  444SOL    MW4 1823   0.918   0.328   1.162 -0.2898  0.0547  0.3608
  445SOL     OW 1824   2.800   1.006   0.706  0.1129  1.0580 -0.3643
  445SOL    HW2 1825   2.725   0.976   0.655  1.1514 -0.8220 -0.8805
  445SOL    HW3 1826   2.771   1.085   0.749 -2.1834  0.3234 -0.5140
  445SOL    MW4 1827   2.787   1.012   0.705 -0.0532  0.7129 -0.4522
  446SOL     OW 1828   3.385   4.328   0.264  0.3676 -0.5304 -0.4294
  446SOL    HW2 1829   3.375   4.408   0.315 -0.2848 -0.9734  0.1521
  446SOL    HW3 1830   3.356   4.351   0.176 -0.7574 -0.3979 -0.0203
  446SOL    MW4 1831   3.380   4.341   0.259  0.1328 -0.5713 -0.2987
  447SOL     OW 1832   2.338   3.819   0.836  0.2606 -0.6663  0.1117
  447SOL    HW2 1833   2.380   3.825   0.750 -0.0783 -1.5823 -0.1270
  447SOL    HW3 1834   2.251   3.857   0.824  0.2798 -0.6278  0.0946
  447SOL    MW4 1835   2.332   3.825   0.823  0.2182 -0.7820  0.0779
  448SOL     OW 1836   1.529   2.624   0.714 -0.2672 -0.1135  0.3150
  448SOL    HW2 1837   1.438   2.634   0.744 -0.4548 -0.6985 -0.0533
  448SOL    HW3 1838   1.536   2.532   0.690  0.2266  0.0893 -0.3201
  448SOL    MW4 1839   1.518   2.613   0.715 -0.2269 -0.1638  0.1826
  449SOL     OW 1840   3.966   1.538   0.460  0.1231  0.2387 -0.7094
  449SOL    HW2 1841   4.005   1.452   0.447 -0.4421 -0.0255 -0.6452
  449SOL    HW3 1842   4.035   1.600   0.432  1.7883 -0.1288  2.3678
  449SOL    MW4 1843   3.981   1.535   0.455  0.2687  0.1553 -0.2950
  450SOL     OW 1844   3.181   2.415   1.271 -0.0280 -0.0004  0.2822
  450SOL    HW2 1845   3.179   2.505   1.239 -3.0276 -0.3032 -0.5924
  450SOL    HW3 1846   3.169   2.423   1.366 -0.2998  0.5480  0.2044
  450SOL    MW4 1847   3.179   2.428   1.279 -0.4597  0.0322  0.1565
  451SOL     OW 1848   1.644   4.273   0.330 -0.2927 -0.0228  0.7186
  451SOL    HW2 1849   1.728   4.248   0.292 -1.4326 -0.3493 -1.7041
  451SOL    HW3 1850   1.645   4.369   0.329 -1.4630  0.0292 -2.9997
  451SOL    MW4 1851   1.655   4.282   0.325 -0.5976 -0.0596 -0.0916
  452SOL     OW 1852   4.218   4.456   0.517  0.1327 -0.3422 -0.2896
  452SOL    HW2 1853   4.231   4.515   0.443  0.2790  0.8798  0.6768
  452SOL    HW3 1854   4.157   4.504   0.574 -0.4402 -1.5207  0.1002
  452SOL    MW4 1855   4.211   4.470   0.515  0.0758 -0.3362 -0.1106
  453SOL     OW 1856   0.188   3.074   1.131  0.1409 -0.0505 -0.0149
  453SOL    HW2 1857   0.273   3.117   1.144  0.4544 -0.1703 -1.5595
  453SOL    HW3 1858   0.202   2.984   1.162  0.5714 -0.0584 -0.2284
  453SOL    MW4 1859   0.201   3.068   1.136  0.2391 -0.0672 -0.2468
  454SOL     OW 1860   3.420   2.317   1.145  0.1774  0.3538 -0.0386
  454SOL    HW2 1861   3.346   2.355   1.193 -0.1402  0.3815 -0.5447
  454SOL    HW3 1862   3.495   2.370   1.172  0.0156  0.3301  0.4763
  454SOL    MW4 1863   3.420   2.329   1.155  0.1142  0.3543 -0.0373
  455SOL     OW 1864   1.744   2.250   0.486  0.1490  0.1582 -0.8528
  455SOL    HW2 1865   1.751   2.162   0.522 -0.2046  0.3910 -0.1907
  455SOL    HW3 1866   1.677   2.243   0.418  0.4228 -0.1731 -1.0860
  455SOL    MW4 1867   1.736   2.238   0.482  0.1384  0.1454 -0.7963
  456SOL     OW 1868   0.447   0.907   0.525  0.2914  0.2190  0.1428
  456SOL    HW2 1869   0.431   0.815   0.503  0.6856 -0.0022  0.7560
  456SOL    HW3 1870   0.535   0.925   0.492  0.6258  0.0738  0.9363
  456SOL    MW4 1871   0.457   0.897   0.518  0.3875  0.1706  0.3285
  457SOL     OW 1872   2.659   1.700   0.732 -0.1153 -0.0182 -0.3417
  457SOL    HW2 1873   2.673   1.750   0.651  0.1560 -0.6946 -0.7194
  457SOL    HW3 1874   2.728   1.634   0.731  0.6627  0.7570  1.0786
  457SOL    MW4 1875   2.670   1.698   0.721  0.0231 -0.0052 -0.2041
  458SOL     OW 1876   2.028   1.033   0.396 -0.0843  0.5922 -0.6895
  458SOL    HW2 1877   2.104   0.982   0.423 -0.8037 -0.3394 -0.4158
  458SOL    HW3 1878   1.953   0.984   0.428 -0.7727  2.3414  0.4785
  458SOL    MW4 1879   2.029   1.020   0.404 -0.2699  0.7000 -0.4993
  459SOL     OW 1880   2.494   3.575   1.239 -0.0707  0.7148  0.0537
  459SOL    HW2 1881   2.530   3.573   1.328 -1.1471 -0.6134  0.4586
  459SOL    HW3 1882   2.562   3.535   1.185  0.1131  0.5058  0.4403
  459SOL    MW4 1883   2.508   3.570   1.243 -0.1886  0.5119  0.1581
  460SOL     OW 1884   2.106   1.227   0.600  0.0641 -0.7346 -0.4274
  460SOL    HW2 1885   2.068   1.173   0.531  0.0530 -0.0744 -0.9360
  460SOL    HW3 1886   2.153   1.296   0.554 -2.1888  1.2980  0.1999
  460SOL    MW4 1887   2.107   1.229   0.585 -0.2344 -0.3793 -0.4117
  461SOL     OW 1888   3.817   0.290   0.801 -0.5334 -0.1699 -0.1830
  461SOL    HW2 1889   3.751   0.333   0.856  0.9295  0.8558  0.8341
  461SOL    HW3 1890   3.775   0.281   0.716 -1.8772  0.7633  0.3533
  461SOL    MW4 1891   3.803   0.295   0.797 -0.5176  0.0885  0.0219
  462SOL     OW 1892   4.387   1.810   0.625 -0.0156 -0.3904 -0.4399
  462SOL    HW2 1893   4.343   1.887   0.661  0.2713 -0.5412  0.2445
  462SOL    HW3 1894   4.327   1.777   0.558 -1.0136 -0.6629  0.5642
  462SOL    MW4 1895   4.373   1.816   0.621 -0.1092 -0.4463 -0.2171
  463SOL     OW 1896   2.460   1.295   1.186  0.4123  0.4937  0.0768
  463SOL    HW2 1897   2.377   1.246   1.183  0.8815 -0.2666 -0.7139
  463SOL    HW3 1898   2.522   1.240   1.137  1.7730  0.3553  1.9160
  463SOL    MW4 1899   2.457   1.281   1.179  0.6537  0.3752  0.2153
  464SOL     OW 1900   1.805   0.523   0.747  0.0022 -0.3370  0.1110
  464SOL    HW2 1901   1.819   0.513   0.653 -0.6333 -2.6698  0.2355
  464SOL    HW3 1902   1.711   0.540   0.755  0.3372  1.6160  0.2347
  464SOL    MW4 1903   1.794   0.524   0.736 -0.0377 -0.3871  0.1438
  465SOL     OW 1904   4.292   3.826   1.136  0.4213  0.1819  0.2837
  465SOL    HW2 1905   4.295   3.748   1.192  3.5577  0.5981  0.8075
  465SOL    HW3 1906   4.307   3.793   1.048  0.2244  0.0298  0.3060
  465SOL    MW4 1907   4.294   3.811   1.132  0.8092  0.2167  0.3557
  466SOL     OW 1908   3.638   2.439   1.256  0.2220 -0.2785  0.6508
  466SOL    HW2 1909   3.625   2.444   1.351 -4.0813 -0.9035  0.1668
  466SOL    HW3 1910   3.636   2.531   1.228  2.3880 -0.0235  1.1897
  466SOL    MW4 1911   3.636   2.452   1.265 -0.0598 -0.3273  0.6580
  467SOL     OW 1912   1.122   0.737   1.162  0.0705  0.3726 -0.2834
  467SOL    HW2 1913   1.137   0.648   1.194  0.5442  1.0426  1.3924
  467SOL    HW3 1914   1.042   0.765   1.207 -0.2128  0.7221 -0.9918
  467SOL    MW4 1915   1.113   0.729   1.172  0.0956  0.5071 -0.1557
  468SOL     OW 1916   0.382   2.968   0.707  0.5225  0.2423 -0.0809
  468SOL    HW2 1917   0.453   3.031   0.710  0.6954  0.0898 -0.8760
  468SOL    HW3 1918   0.422   2.884   0.730  0.6872  0.0827 -0.9423
  468SOL    MW4 1919   0.396   2.965   0.710  0.5670  0.2007 -0.2995
  469SOL     OW 1920   0.758   3.322   0.680 -0.4112  0.2886 -0.2751
  469SOL    HW2 1921   0.753   3.320   0.584 -0.0821  1.7265 -0.3244
  469SOL    HW3 1922   0.692   3.387   0.706  0.3638  0.8040  0.4103
  469SOL    MW4 1923   0.748   3.330   0.671 -0.2655  0.5462 -0.1912
  470SOL     OW 1924   4.393   2.422   0.531 -0.4558 -0.4251 -0.0901
  470SOL    HW2 1925   4.405   2.405   0.438  0.8520  2.3327 -0.4957
  470SOL    HW3 1926   4.356   2.511   0.534  2.1080  0.6281  2.0592
  470SOL    MW4 1927   4.389   2.432   0.519  0.0553  0.0780  0.1400
  471SOL     OW 1928   2.020   3.583   1.223 -0.7237 -0.3560  0.1226
  471SOL    HW2 1929   2.019   3.586   1.318 -1.0248 -0.7371  0.1327
  471SOL    HW3 1930   2.109   3.552   1.201 -0.6888 -0.3686  0.2820
  471SOL    MW4 1931   2.032   3.579   1.232 -0.7586 -0.4079  0.1450
  472SOL     OW 1932   2.879   2.756   0.501  0.0705  0.5920 -0.0502
  472SOL    HW2 1933   2.857   2.698   0.573  0.0090 -0.7216 -1.1056
  472SOL    HW3 1934   2.796   2.796   0.475 -0.2870 -0.6615 -0.8633
  472SOL    MW4 1935   2.865   2.754   0.507  0.0150  0.2537 -0.2968
  473SOL     OW 1936   1.376   3.339   0.799 -0.2219  0.8815 -0.7707
  473SOL    HW2 1937   1.294   3.311   0.760  0.5520  0.7925 -2.3776
  473SOL    HW3 1938   1.415   3.397   0.733  0.8199  1.2249  0.1315
  473SOL    MW4 1939   1.370   3.343   0.785  0.0176  0.9151 -0.8637
  474SOL     OW 1940   1.164   4.212   0.741 -0.1275 -0.4366 -0.4534
  474SOL    HW2 1941   1.129   4.205   0.653  0.2486 -1.0154 -0.5597
  474SOL    HW3 1942   1.093   4.249   0.793 -0.1019  0.6479 -1.1548
  474SOL    MW4 1943   1.150   4.216   0.736 -0.0746 -0.3700 -0.5599
  475SOL     OW 1944   4.076   2.259   0.750  0.4110 -0.0486  0.4169
  475SOL    HW2 1945   4.134   2.313   0.804  0.5074  1.4478 -1.1139
  475SOL    HW3 1946   4.127   2.180   0.732  0.5607 -0.3349  2.0944
  475SOL    MW4 1947   4.090   2.256   0.754  0.4435  0.1109  0.4362
  476SOL     OW 1948   0.884   2.177   0.671 -0.1454 -0.4894 -0.3303
  476SOL    HW2 1949   0.974   2.178   0.705 -0.3154 -1.4163  0.1857
  476SOL    HW3 1950   0.846   2.260   0.700 -0.3553 -1.3496  2.0065
  476SOL    MW4 1951   0.891   2.188   0.680 -0.1955 -0.7253  0.0461
  477SOL     OW 1952   4.271   2.060   1.234 -0.0715 -0.3947  0.2369
  477SOL    HW2 1953   4.355   2.031   1.198 -0.3359 -0.8679 -0.0209
  477SOL    HW3 1954   4.261   2.150   1.204 -0.3660 -0.8408 -1.0339
  477SOL    MW4 1955   4.281   2.068   1.225 -0.1445 -0.5159  0.0354
  478SOL     OW 1956   0.685   2.301   1.102 -0.1922 -0.5005 -0.3119
  478SOL    HW2 1957   0.672   2.210   1.128  0.1790 -0.7988 -1.1535
  478SOL    HW3 1958   0.753   2.333   1.160 -0.9622 -0.4856  0.5954
  478SOL    MW4 1959   0.692   2.293   1.113 -0.2449 -0.5379 -0.3030
  479SOL     OW 1960   2.194   1.680   0.467  0.2550 -0.9513 -0.3860
  479SOL    HW2 1961   2.243   1.701   0.546 -0.9820  0.4023  0.0350
  479SOL    HW3 1962   2.197   1.759   0.414 -0.7745 -1.1193 -0.7152
  479SOL    MW4 1963   2.201   1.693   0.470 -0.0439 -0.7949 -0.3739
  480SOL     OW 1964   0.436   2.219   0.485  0.0728 -0.2982  0.1816
  480SOL    HW2 1965   0.340   2.212   0.479 -0.0233  1.3511 -0.3651
  480SOL    HW3 1966   0.467   2.132   0.460 -1.3012 -1.0943  1.1328
  480SOL    MW4 1967   0.427   2.206   0.481 -0.1211 -0.1853  0.2350
  481SOL     OW 1968   2.237   2.941   0.854  0.2606 -0.0844  0.3397
  481SOL    HW2 1969   2.311   2.995   0.883 -0.6470  0.9623  0.7451
  481SOL    HW3 1970   2.160   2.993   0.874 -0.6698 -1.7246  1.1065
  481SOL    MW4 1971   2.237   2.955   0.860  0.0181 -0.1624  0.4944
  482SOL     OW 1972   2.905   0.102   0.416  0.1024  0.1870 -0.4519
  482SOL    HW2 1973   2.914   0.015   0.377 -1.5661 -0.3309  0.2592
  482SOL    HW3 1974   2.959   0.159   0.361  1.0104 -1.2570 -1.0716
  482SOL    MW4 1975   2.913   0.098   0.403  0.0024 -0.0718 -0.4399
  483SOL     OW 1976   2.572   4.593   0.887  0.5892  0.9214 -0.1691
  483SOL    HW2 1977   2.529   4.583   0.972 -0.0955  0.3666 -0.5756
  483SOL    HW3 1978   2.512   4.553   0.825  2.7607 -2.0351 -0.4747
  483SOL    MW4 1979   2.559   4.587   0.890  0.7854  0.4578 -0.2630
  484SOL     OW 1980   1.468   1.521   0.625 -0.0615 -0.1452  0.4064
  484SOL    HW2 1981   1.531   1.557   0.562 -1.5378 -0.4274 -1.2755
  484SOL    HW3 1982   1.501   1.433   0.644  0.0567 -0.2984 -0.4824
  484SOL    MW4 1983   1.481   1.514   0.619 -0.2408 -0.2025  0.0672
  485SOL     OW 1984   2.222   0.896   0.504 -0.2137  0.3584  0.2521
  485SOL    HW2 1985   2.198   0.902   0.596  1.4796  0.1829  0.7103
  485SOL    HW3 1986   2.289   0.964   0.492  1.7138 -1.5833 -0.1516
  485SOL    MW4 1987   2.228   0.906   0.514  0.2642  0.0790  0.2593
  486SOL     OW 1988   4.471   0.148   1.260 -0.0813  0.6488 -0.1108
  486SOL    HW2 1989   4.396   0.104   1.219 -0.4925  0.9489  0.3191
  486SOL    HW3 1990   4.543   0.086   1.249 -1.1049 -1.0234  2.2219
  486SOL    MW4 1991   4.471   0.134   1.253 -0.2706  0.4678  0.2537
  487SOL     OW 1992   4.278   4.358   1.205  0.1541  0.1348  0.4153
  487SOL    HW2 1993   4.200   4.316   1.169  0.7585  0.8257 -1.7909
  487SOL    HW3 1994   4.351   4.312   1.163  0.9093  0.4434  1.3723
  487SOL    MW4 1995   4.278   4.347   1.194  0.3333  0.2666  0.2505
  488SOL     OW 1996   0.235   0.505   1.243 -0.0078  0.1876  0.0615
  488SOL    HW2 1997   0.256   0.597   1.227 -0.7137  0.3038 -0.2577
  488SOL    HW3 1998   0.169   0.484   1.176  0.8496 -0.8216 -0.4689
  488SOL    MW4 1999   0.229   0.515   1.232  0.0122  0.0697 -0.0507
  489SOL     OW 2000   0.023   0.885   1.211  0.0887 -0.5927 -0.4714
  489SOL    HW2 2001   0.034   0.979   1.195  2.1327 -1.0853 -2.0685
  489SOL    HW3 2002   0.016   0.878   1.306  0.2634  1.1554 -0.3154
  489SOL    MW4 2003   0.024   0.897   1.222  0.3814 -0.4271 -0.6615
  490SOL     OW 2004   4.260   0.777   1.148 -0.4020 -0.4273 -0.1497
  490SOL    HW2 2005   4.182   0.830   1.165  0.5531  1.3418 -1.1278
  490SOL    HW3 2006   4.333   0.830   1.180  0.4312 -2.0298  0.6963
  490SOL    MW4 2007   4.260   0.791   1.154 -0.1664 -0.4054 -0.1670
  491SOL     OW 2008   4.089   0.393   1.104 -0.3927  0.0375  0.1958
  491SOL    HW2 2009   4.077   0.301   1.129  1.1340 -0.2046  0.1208
  491SOL    HW3 2010   4.170   0.419   1.149 -0.3074  1.0631 -0.5359
  491SOL    MW4 2011   4.098   0.384   1.113 -0.1793  0.1409  0.0894
  492SOL     OW 2012   0.701   1.284   0.820 -0.0179  0.1957 -0.1581
  492SOL    HW2 2013   0.621   1.241   0.849 -0.6906  1.2603 -0.3985
  492SOL    HW3 2014   0.694   1.373   0.854  1.3922  0.1026  0.3993
  492SOL    MW4 2015   0.689   1.290   0.828  0.0795  0.3239 -0.1163
  493SOL     OW 2016   0.424   1.653   1.257  0.1022 -0.1204 -0.0252
  493SOL    HW2 2017   0.446   1.738   1.220 -0.3489  0.8159  1.7964
  493SOL    HW3 2018   0.457   1.657   1.347 -1.5342 -1.1806  0.6414
  493SOL    MW4 2019   0.431   1.665   1.264 -0.1733 -0.1366  0.3030
  494SOL     OW 2020   0.007   1.662   1.248 -0.1382 -0.2163 -0.5978
  494SOL    HW2 2021   0.065   1.604   1.200  0.0536 -0.5997  0.0978
  494SOL    HW3 2022  -0.081   1.635   1.222 -0.1278 -2.2941  1.4012
  494SOL    MW4 2023   0.003   1.651   1.238 -0.1115 -0.5411 -0.2425
  495SOL     OW 2024   0.043   1.926   1.122  0.0959 -0.1478 -0.1721
  495SOL    HW2 2025   0.071   1.925   1.030  0.4124  1.8546 -0.1281
  495SOL    HW3 2026   0.031   1.834   1.145 -0.6038 -0.6489 -2.4189
  495SOL    MW4 2027   0.045   1.914   1.113  0.0453  0.0504 -0.4629
  496SOL     OW 2028   0.236   2.292   1.152  0.0660 -0.5054  0.4803
  496SOL    HW2 2029   0.312   2.344   1.180 -0.1721 -0.5148  1.1671
  496SOL    HW3 2030   0.161   2.349   1.169 -0.0832 -0.5093 -0.1725
  496SOL    MW4 2031   0.236   2.306   1.158  0.0149 -0.5071  0.4848
  497SOL     OW 2032   1.117   1.638   0.872  0.5858  0.6057  0.3137
  497SOL    HW2 2033   1.119   1.618   0.965  0.1667 -1.2107 -0.0341
  497SOL    HW3 2034   1.118   1.552   0.829 -0.0042  1.3922 -1.3390
  497SOL    MW4 2035   1.118   1.624   0.878  0.4526  0.4698  0.0498
  498SOL     OW 2036   2.861   2.381   0.891 -0.2776 -0.0922 -0.4440
  498SOL    HW2 2037   2.913   2.338   0.822  0.9005  0.3051  0.1727
  498SOL    HW3 2038   2.891   2.340   0.972  0.8573  1.8529  0.1495
  498SOL    MW4 2039   2.872   2.370   0.892  0.0279  0.2167 -0.2843
  499SOL     OW 2040   0.462   2.437   1.189 -0.0917  0.0663 -0.1565
  499SOL    HW2 2041   0.489   2.429   1.281  0.0718 -0.5268 -0.2533
  499SOL    HW3 2042   0.534   2.397   1.140 -0.5905 -0.4203 -0.4872
  499SOL    MW4 2043   0.475   2.431   1.195 -0.1359 -0.0761 -0.2128
  500SOL     OW 2044   0.237   2.806   1.222  0.2846 -0.0764 -0.1047
  500SOL    HW2 2045   0.235   2.827   1.316  0.0362  0.3884 -0.2085
  500SOL    HW3 2046   0.151   2.767   1.205  0.3327 -0.1674 -0.1376
  500SOL    MW4 2047   0.225   2.804   1.233  0.2582 -0.0274 -0.1228
  501SOL     OW 2048   1.083   3.924   0.441  0.0169  0.2599 -0.1442
  501SOL    HW2 2049   1.077   4.019   0.437 -0.1983  0.2216 -0.7957
  501SOL    HW3 2050   1.020   3.893   0.376  0.8314 -0.3076 -0.6827
  501SOL    MW4 2051   1.074   3.932   0.432  0.0958  0.1800 -0.3012
  502SOL     OW 2052   0.239   1.587   0.451  0.0062  0.6875  0.7286
  502SOL    HW2 2053   0.321   1.626   0.423  0.4314  0.3957  1.5490
  502SOL    HW3 2054   0.264   1.502   0.489 -0.8774 -0.2643 -0.7724
  502SOL    MW4 2055   0.253   1.581   0.452 -0.0543  0.5234  0.6388
  503SOL     OW 2056   0.047   3.471   1.137 -0.2958  0.0825  0.0062
  503SOL    HW2 2057   0.023   3.386   1.173  1.0256 -0.3033 -0.0289
  503SOL    HW3 2058   0.038   3.461   1.043 -0.7851  0.1908  0.0370
  503SOL    MW4 2059   0.042   3.459   1.130 -0.1860  0.0458  0.0056
  504SOL     OW 2060   0.264   3.598   1.251  0.0691  0.1327  0.1976
  504SOL    HW2 2061   0.250   3.597   1.346  0.3165 -2.3040  0.2472
  504SOL    HW3 2062   0.185   3.559   1.215 -0.2868  1.6197 -0.6697
  504SOL    MW4 2063   0.252   3.593   1.259  0.0548  0.0076  0.0896
  505SOL     OW 2064   0.203   3.838   1.110 -0.4421  0.2982  0.2671
  505SOL    HW2 2065   0.237   3.776   1.175 -0.2438  0.5772  0.4295
  505SOL    HW3 2066   0.135   3.886   1.157 -0.4136  0.3840  0.2204
  505SOL    MW4 2067   0.199   3.836   1.125 -0.4122  0.3462  0.2824
  506SOL     OW 2068   0.735   3.309   0.409 -0.2724  0.0501 -0.5302
  506SOL    HW2 2069   0.803   3.374   0.394 -0.7046  0.2253 -1.7474
  506SOL    HW3 2070   0.654   3.350   0.378 -0.9577 -0.1154  0.9970
  506SOL    MW4 2071   0.733   3.323   0.403 -0.4198  0.0510 -0.4893
  507SOL     OW 2072   4.172   4.350   0.877  0.2073 -0.4881 -0.1319
  507SOL    HW2 2073   4.136   4.311   0.956  1.4244  0.9372  1.1389
  507SOL    HW3 2074   4.257   4.306   0.865 -0.5844 -1.7109 -1.4620
  507SOL    MW4 2075   4.179   4.339   0.886  0.2637 -0.4611 -0.1398
  508SOL     OW 2076   0.012   4.229   1.116  0.0183  0.0526 -0.4669
  508SOL    HW2 2077   0.007   4.145   1.160 -1.0706 -0.4051 -1.4177
  508SOL    HW3 2078   0.086   4.274   1.156 -0.2340 -0.8124  0.9798
  508SOL    MW4 2079   0.021   4.224   1.127 -0.1588 -0.1221 -0.4016
  509SOL     OW 2080   0.703   4.600   1.112  0.5741  0.0890 -0.4606
  509SOL    HW2 2081   0.783   4.649   1.131  0.1913  1.4297 -2.1979
  509SOL    HW3 2082   0.705   4.586   1.017 -1.3525  0.3569 -0.5648
  509SOL    MW4 2083   0.714   4.605   1.102  0.2694  0.3014 -0.7036
  510SOL     OW 2084   0.450   0.064   1.257 -0.0189  0.1518 -0.0507
  510SOL    HW2 2085   0.466   0.157   1.237  1.1148  0.0212  0.1829
  510SOL    HW3 2086   0.516   0.017   1.205 -1.6441 -0.6440 -1.4432
  510SOL    MW4 2087   0.461   0.070   1.247 -0.0838  0.0296 -0.2036
  511SOL     OW 2088   3.057   2.571   0.378 -0.3007 -0.2891 -0.5704
  511SOL    HW2 2089   3.136   2.602   0.333 -0.0712  0.1321  0.0975
  511SOL    HW3 2090   3.014   2.652   0.407 -0.3149 -0.5594  0.1675
  511SOL    MW4 2091   3.062   2.586   0.376 -0.2723 -0.2692 -0.3849
  512SOL     OW 2092   0.475   0.339   1.184  0.0237  0.3185 -0.1983
  512SOL    HW2 2093   0.554   0.391   1.198  0.3191  0.2297 -1.4854
  512SOL    HW3 2094   0.403   0.394   1.217  0.5088  0.8562 -0.0383
  512SOL    MW4 2095   0.476   0.353   1.190  0.1267  0.3777 -0.3471
  513SOL     OW 2096   0.696   0.753   1.168 -0.3708 -0.1956  0.1689
  513SOL    HW2 2097   0.675   0.752   1.075  0.0242  0.4220  0.0686
  513SOL    HW3 2098   0.616   0.785   1.211 -0.3582  0.0888 -0.0158
  513SOL    MW4 2099   0.683   0.757   1.161 -0.3171 -0.0766  0.1314
  514SOL     OW 2100   0.472   0.860   1.303  0.1729  0.1343 -0.0347
  514SOL    HW2 2101   0.490   0.948   1.272 -0.9286  0.4368  0.1622
  514SOL    HW3 2102   0.477   0.867   1.398  0.8910 -0.2002 -0.0445
  514SOL    MW4 2103   0.475   0.872   1.312  0.1223  0.1301 -0.0101
  515SOL     OW 2104   0.693   1.293   1.252 -0.2450  0.4789 -0.4169
  515SOL    HW2 2105   0.766   1.249   1.207 -1.0306 -1.5881  0.2847
  515SOL    HW3 2106   0.614   1.252   1.217 -0.9444  0.2954  1.3092
  515SOL    MW4 2107   0.692   1.282   1.241 -0.4410  0.1820 -0.0966
  516SOL     OW 2108   2.504   0.171   0.788 -0.3411  0.2212 -0.2973
  516SOL    HW2 2109   2.529   0.085   0.821 -1.6817 -0.8842 -2.0704
  516SOL    HW3 2110   2.429   0.196   0.843  0.6550  0.6947  0.8506
  516SOL    MW4 2111   2.497   0.163   0.800 -0.3865  0.1378 -0.3797
  517SOL     OW 2112   1.340   4.418   0.752 -0.1483 -0.8222 -0.0925
  517SOL    HW2 2113   1.284   4.341   0.749 -0.5850 -0.5279  0.3143
  517SOL    HW3 2114   1.352   4.444   0.661  0.9011 -2.0111 -0.3077
  517SOL    MW4 2115   1.334   4.411   0.740 -0.0675 -0.9403 -0.0673
  518SOL     OW 2116   0.908   1.142   1.167 -0.0823 -0.0943 -0.0307
  518SOL    HW2 2117   0.935   1.127   1.076 -0.9226 -1.3490 -0.0912
  518SOL    HW3 2118   0.976   1.198   1.203 -0.0539  0.9407 -1.6137
  518SOL    MW4 2119   0.921   1.147   1.159 -0.1894 -0.1233 -0.2476
  519SOL     OW 2120   2.181   2.645   1.147  0.1273 -0.3046 -0.2316
  519SOL    HW2 2121   2.197   2.646   1.053  1.3166 -1.0495 -0.0504
  519SOL    HW3 2122   2.207   2.557   1.175  2.4791  0.7948  1.2177
  519SOL    MW4 2123   2.187   2.633   1.139  0.5946 -0.2577 -0.0166
  520SOL     OW 2124   0.259   2.034   1.243 -0.2361  0.1172  0.3103
  520SOL    HW2 2125   0.251   2.123   1.208  0.0098 -0.7811 -2.1478
  520SOL    HW3 2126   0.184   1.988   1.207  0.3277 -0.9897  0.5360
  520SOL    MW4 2127   0.248   2.040   1.234 -0.1293 -0.1473  0.0159
  521SOL     OW 2128   1.550   2.356   0.639 -0.0182  0.2959  0.4194
  521SOL    HW2 2129   1.585   2.325   0.723  0.9569  0.5174  0.0992
  521SOL    HW3 2130   1.609   2.318   0.573 -0.0199  1.1761 -0.0887
  521SOL    MW4 2131   1.563   2.347   0.641  0.1103  0.4413  0.3101
  522SOL     OW 2132   0.864   1.715   1.210 -0.0956  0.2094 -0.1502
  522SOL    HW2 2133   0.792   1.655   1.190  0.7485 -0.3806 -1.4773
  522SOL    HW3 2134   0.942   1.670   1.178  0.7915  1.1334  0.6888
  522SOL    MW4 2135   0.865   1.701   1.203  0.1329  0.2534 -0.2146
  523SOL     OW 2136   0.194   4.395   0.523  0.1917 -0.0595  0.2976
  523SOL    HW2 2137   0.108   4.379   0.561  0.7408 -2.2056  0.7674
  523SOL    HW3 2138   0.243   4.439   0.593 -0.8199  2.1133 -0.3438
  523SOL    MW4 2139   0.189   4.398   0.538  0.1307 -0.0558  0.2750
  524SOL     OW 2140   0.680   4.158   0.754 -0.7303  0.0556 -0.0591
  524SOL    HW2 2141   0.667   4.164   0.660 -2.8340  1.0370  0.2669
  524SOL    HW3 2142   0.653   4.069   0.777 -0.3889 -0.1235 -0.3460
  524SOL    MW4 2143   0.675   4.147   0.745 -0.9628  0.1616 -0.0539
  525SOL     OW 2144   3.863   3.819   0.469 -0.2871  0.4130 -0.4313
  525SOL    HW2 2145   3.835   3.735   0.433  1.2885  0.3999 -1.6336
  525SOL    HW3 2146   3.873   3.802   0.563 -2.0269 -0.1693 -0.3215
  525SOL    MW4 2147   3.860   3.806   0.477 -0.3088  0.3345 -0.5755
  526SOL     OW 2148   0.451   3.173   1.181 -0.2274 -0.2184 -0.2964
  526SOL    HW2 2149   0.517   3.115   1.142 -1.0641  0.4331 -2.7285
  526SOL    HW3 2150   0.485   3.261   1.165 -1.0388  0.0847 -0.3362
  526SOL    MW4 2151   0.464   3.177   1.174 -0.4449 -0.0925 -0.6225
  527SOL     OW 2152   0.471   3.455   1.138 -0.1490 -0.6004  0.0557
  527SOL    HW2 2153   0.393   3.489   1.181 -0.5010  1.1472 -1.9193
  527SOL    HW3 2154   0.543   3.502   1.179 -0.3419 -0.2533 -0.0016
  527SOL    MW4 2155   0.470   3.465   1.149 -0.2209 -0.3240 -0.2124
  528SOL     OW 2156   2.393   2.594   0.590  0.4511 -0.9007 -0.2358
  528SOL    HW2 2157   2.426   2.558   0.672  0.2271  0.4022  0.4486
  528SOL    HW3 2158   2.472   2.608   0.537  0.6621 -1.1496  0.0150
  528SOL    MW4 2159   2.408   2.591   0.593  0.4494 -0.7617 -0.1124
  529SOL     OW 2160   2.055   3.487   0.701 -0.2180  0.0667  0.2838
  529SOL    HW2 2161   2.048   3.535   0.619 -0.1711 -0.3188  0.0502
  529SOL    HW3 2162   1.966   3.482   0.734 -0.2522  0.1307  0.1999
  529SOL    MW4 2163   2.043   3.492   0.694 -0.2165  0.0241  0.2418
  530SOL     OW 2164   0.441   3.988   1.210  0.3093  0.3524  0.4531
  530SOL    HW2 2165   0.451   4.081   1.190  0.2771  0.4305  0.7978
  530SOL    HW3 2166   0.357   3.964   1.170  0.7295  0.2619 -0.3853
  530SOL    MW4 2167   0.431   3.997   1.202  0.3605  0.3510  0.3879
  531SOL     OW 2168   0.439   4.252   1.159  0.0613 -0.0605  0.1433
  531SOL    HW2 2169   0.519   4.299   1.184  0.3152 -0.4962  0.1501
  531SOL    HW3 2170   0.430   4.267   1.065 -0.0166  0.2374  0.1955
  531SOL    MW4 2171   0.448   4.260   1.150  0.0845 -0.0792  0.1509
  532SOL     OW 2172   0.663   4.378   1.248 -0.0370  0.0797  0.3924
  532SOL    HW2 2173   0.691   4.459   1.206 -2.1175 -0.2966 -1.8487
  532SOL    HW3 2174   0.692   4.387   1.339  0.9792  2.7186 -0.1398
  532SOL    MW4 2175   0.670   4.390   1.254 -0.1775  0.3781  0.0266
  533SOL     OW 2176   1.364   0.137   1.251  0.1820  0.6102  0.2289
  533SOL    HW2 2177   1.280   0.106   1.217 -0.0485  2.2022 -0.7656
  533SOL    HW3 2178   1.424   0.064   1.238 -0.9460 -0.3698  0.4930
  533SOL    MW4 2179   1.360   0.123   1.245  0.0027  0.6910  0.1326
  534SOL     OW 2180   0.916   0.069   1.233 -0.5010 -0.8882  0.1575
  534SOL    HW2 2181   0.910   0.074   1.328 -1.1196  0.5457  0.0485
  534SOL    HW3 2182   1.004   0.035   1.216  0.4109  0.8847  1.2002
  534SOL    MW4 2183   0.927   0.065   1.243 -0.4623 -0.4651  0.2809
  535SOL     OW 2184   0.691   0.495   1.243  0.0038 -0.1671 -0.1341
  535SOL    HW2 2185   0.776   0.460   1.213  0.4741  0.5920  0.2911
  535SOL    HW3 2186   0.693   0.587   1.215 -0.2435  0.1198  0.7842
  535SOL    MW4 2187   0.703   0.502   1.235  0.0332 -0.0291  0.0430
  536SOL     OW 2188   1.146   0.466   1.245 -0.0888  0.3998  0.0549
  536SOL    HW2 2189   1.080   0.407   1.208  1.3693 -0.4181 -1.3009
  536SOL    HW3 2190   1.133   0.461   1.339 -0.4565 -1.5299 -0.0825
  536SOL    MW4 2191   1.135   0.458   1.252  0.0550  0.0373 -0.1420
  537SOL     OW 2192   3.602   2.472   0.442 -0.7326  0.2708 -0.2662
  537SOL    HW2 2193   3.513   2.449   0.414 -0.3648 -0.4839 -0.8085
  537SOL    HW3 2194   3.600   2.463   0.537 -0.7672 -1.4096 -0.4135
  537SOL    MW4 2195   3.590   2.468   0.451 -0.6886 -0.0505 -0.3572
  538SOL     OW 2196   0.921   0.883   1.271 -0.6556 -0.5348  0.2443
  538SOL    HW2 2197   0.916   0.968   1.227 -0.4584 -0.0886  1.0767
  538SOL    HW3 2198   0.849   0.832   1.234 -0.9343  0.0825 -0.0662
  538SOL    MW4 2199   0.911   0.888   1.260 -0.6663 -0.3945  0.3132
  539SOL     OW 2200   1.135   1.330   1.258 -0.4124 -0.4175 -0.1729
  539SOL    HW2 2201   1.210   1.276   1.231 -0.7697  0.2072 -2.4830
  539SOL    HW3 2202   1.125   1.311   1.352  2.0910 -1.1636 -0.0085
  539SOL    MW4 2203   1.144   1.320   1.267 -0.1293 -0.4334 -0.4561
  540SOL     OW 2204   1.120   1.601   1.143 -0.0084  0.5096 -0.0033
  540SOL    HW2 2205   1.122   1.514   1.183  2.4612 -0.0123 -1.1602
  540SOL    HW3 2206   1.201   1.642   1.172 -0.1124  1.6089 -1.2300
  540SOL    MW4 2207   1.131   1.595   1.152  0.3037  0.5859 -0.3179
  541SOL     OW 2208   3.969   0.791   0.809 -0.1981  0.1826  0.1480
  541SOL    HW2 2209   3.887   0.750   0.837  0.2337 -0.4938  0.4373
  541SOL    HW3 2210   3.954   0.884   0.821 -0.3506 -0.0365  1.7620
  541SOL    MW4 2211   3.956   0.798   0.814 -0.1612  0.0644  0.3992
  542SOL     OW 2212   2.859   4.322   0.702  0.0684 -0.0043  0.0525
  542SOL    HW2 2213   2.834   4.250   0.760 -2.9624  0.0775 -1.0716
  542SOL    HW3 2214   2.852   4.400   0.756 -1.0430 -0.1093  0.0686
  542SOL    MW4 2215   2.855   4.323   0.717 -0.4780 -0.0072 -0.0937
  543SOL     OW 2216   1.239   1.987   0.563 -0.0199  0.1920 -0.2727
  543SOL    HW2 2217   1.166   1.947   0.517  1.6838 -0.9355 -2.0839
  543SOL    HW3 2218   1.240   1.944   0.649 -0.6920 -0.7159 -0.7153
  543SOL    MW4 2219   1.229   1.976   0.568  0.1161 -0.0765 -0.5701
  544SOL     OW 2220   1.112   2.038   1.177 -0.2088  0.1474  0.2326
  544SOL    HW2 2221   1.031   1.992   1.155  0.7405 -1.7291  0.5769
  544SOL    HW3 2222   1.107   2.051   1.272 -0.2557  0.3450  0.2041
  544SOL    MW4 2223   1.101   2.034   1.187 -0.0896 -0.0741  0.2742
  545SOL     OW 2224   1.332   2.374   1.204 -0.5219 -0.0943 -0.3283
  545SOL    HW2 2225   1.348   2.398   1.296 -0.4845  0.5407 -0.4981
  545SOL    HW3 2226   1.321   2.458   1.160 -1.3678 -0.4374 -0.7569
  545SOL    MW4 2227   1.333   2.388   1.211 -0.6285 -0.0558 -0.4072
  546SOL     OW 2228   0.893   2.439   1.244  0.2549 -0.0708 -0.3474
  546SOL    HW2 2229   0.906   2.418   1.336 -0.0859 -1.4067 -0.5894
  546SOL    HW3 2230   0.960   2.389   1.198  0.9709  1.2600 -0.7592
  546SOL    MW4 2231   0.903   2.430   1.250  0.3045 -0.0718 -0.4337
  547SOL     OW 2232   0.695   2.811   1.237 -0.1191 -0.6371  0.5296
  547SOL    HW2 2233   0.610   2.773   1.215 -0.5719  0.4259  0.3862
  547SOL    HW3 2234   0.696   2.895   1.190 -0.5787  1.1233  3.5930
  547SOL    MW4 2235   0.684   2.817   1.228 -0.2395 -0.2649  0.9149
  548SOL     OW 2236   1.902   1.384   0.683  0.1393  0.0811  0.5150
  548SOL    HW2 2237   1.953   1.449   0.732 -0.0253  1.2442 -0.8377
  548SOL    HW3 2238   1.968   1.325   0.646  0.3945  0.6094  0.1341
  548SOL    MW4 2239   1.917   1.385   0.685  0.1513  0.3041  0.2863
  549SOL     OW 2240   4.286   2.650   0.305  0.1875 -0.3298 -0.2281
  549SOL    HW2 2241   4.325   2.702   0.375  0.7458  1.1063 -1.5627
  549SOL    HW3 2242   4.193   2.647   0.325  0.1742  1.0547 -0.0233
  549SOL    MW4 2243   4.279   2.657   0.317  0.2589  0.0424 -0.3772
  550SOL     OW 2244   1.108   3.072   1.133  0.4375 -0.4824  0.0351
  550SOL    HW2 2245   1.112   2.976   1.138  1.4771 -0.3767  1.3648
  550SOL    HW3 2246   1.198   3.101   1.149  0.1318  0.7160 -0.3886
  550SOL    MW4 2247   1.120   3.063   1.136  0.5344 -0.3104  0.1546
  551SOL     OW 2248   0.927   3.461   1.101  0.5221  0.0067  0.2294
  551SOL    HW2 2249   0.994   3.514   1.142 -0.5981  0.9092  0.9117
  551SOL    HW3 2250   0.845   3.505   1.122 -0.2974 -1.1437 -0.4944
  551SOL    MW4 2251   0.925   3.474   1.109  0.2661 -0.0262  0.2240
  552SOL     OW 2252   1.127   3.608   1.483 -0.3683  0.3955  0.0909
  552SOL    HW2 2253   1.136   3.617   1.388  0.1606 -2.3624 -0.1532
  552SOL    HW3 2254   1.199   3.551   1.508 -1.5592 -0.3322  1.9242
  552SOL    MW4 2255   1.138   3.602   1.474 -0.4557 -0.0646  0.3006
  553SOL     OW 2256   1.155   3.615   1.206 -0.0979  0.2300 -0.3529
  553SOL    HW2 2257   1.208   3.549   1.162 -0.8190 -0.2049 -0.5923
  553SOL    HW3 2258   1.160   3.692   1.149 -0.2680 -0.0294 -0.7239
  553SOL    MW4 2259   1.162   3.617   1.193 -0.2155  0.1385 -0.4333
  554SOL     OW 2260   0.880   3.977   1.183 -0.2147 -0.0705 -0.1603
  554SOL    HW2 2261   0.956   3.939   1.139  0.5369  0.7402  0.4259
  554SOL    HW3 2262   0.896   3.960   1.276 -0.7076  0.1885 -0.0295
  554SOL    MW4 2263   0.892   3.970   1.189 -0.1807  0.0708 -0.0659
  555SOL     OW 2264   0.889   4.262   1.145 -0.4375  0.0481 -0.2121
  555SOL    HW2 2265   0.873   4.169   1.163  2.1855 -0.0748  1.9163
  555SOL    HW3 2266   0.812   4.307   1.180 -1.3998 -1.2786 -0.5944
  555SOL    MW4 2267   0.877   4.256   1.152 -0.2183 -0.1431  0.0184
  556SOL     OW 2268   0.625   3.876   0.392 -0.0889 -0.1298 -0.4336
  556SOL    HW2 2269   0.653   3.846   0.478 -1.0667 -0.5456 -0.2486
  556SOL    HW3 2270   0.610   3.970   0.402 -1.1708 -0.3546  0.1230
  556SOL    MW4 2271   0.626   3.884   0.404 -0.3606 -0.2141 -0.3357
  557SOL     OW 2272   1.109   3.859   1.072 -0.0145 -0.2521 -0.2993
  557SOL    HW2 2273   1.179   3.907   1.116  0.0516 -1.1004  0.5294
  557SOL    HW3 2274   1.116   3.885   0.980 -0.3240  1.7560  0.2105
  557SOL    MW4 2275   1.119   3.869   1.065 -0.0467 -0.0989 -0.1228
  558SOL     OW 2276   1.525   4.600   1.196 -0.3071  0.7415 -0.3955
  558SOL    HW2 2277   1.527   4.574   1.104 -0.1124 -0.5164 -0.0543
  558SOL    HW3 2278   1.531   4.517   1.244 -0.6401  1.3644  0.7490
  558SOL    MW4 2279   1.526   4.586   1.190 -0.3252  0.6576 -0.1996
  559SOL     OW 2280   1.601   0.542   1.257 -0.2315 -0.5010  0.6792
  559SOL    HW2 2281   1.597   0.546   1.353 -0.2161 -1.3066  0.7205
  559SOL    HW3 2282   1.522   0.492   1.232  0.8583 -2.1399  0.4171
  559SOL    MW4 2283   1.590   0.536   1.266 -0.0857 -0.8236  0.6500
  560SOL     OW 2284   1.578   0.776   1.099 -0.2462  0.0265 -0.0713
  560SOL    HW2 2285   1.587   0.699   1.155 -0.9776  0.2295  0.3349
  560SOL    HW3 2286   1.649   0.833   1.126  0.0249 -0.3124 -0.0597
  560SOL    MW4 2287   1.589   0.773   1.110 -0.3070  0.0085 -0.0161
  561SOL     OW 2288   4.437   4.418   0.674  0.0253 -0.1898 -0.1053
  561SOL    HW2 2289   4.354   4.427   0.628 -0.5510 -0.9150  0.7744
  561SOL    HW3 2290   4.436   4.488   0.740  0.3453  0.1285 -0.4360
  561SOL    MW4 2291   4.426   4.429   0.677 -0.0086 -0.2437 -0.0329
  562SOL     OW 2292   1.349   0.901   1.219  0.0259 -0.3124 -0.1397
  562SOL    HW2 2293   1.416   0.840   1.186 -0.1368 -0.2993 -0.5017
  562SOL    HW3 2294   1.266   0.855   1.205 -0.1101  0.0595 -0.5679
  562SOL    MW4 2295   1.347   0.886   1.213 -0.0135 -0.2617 -0.2439
  563SOL     OW 2296   1.360   1.165   1.142  0.9411 -0.0751 -0.0941
  563SOL    HW2 2297   1.436   1.204   1.185 -0.6534 -0.4938  3.3498
  563SOL    HW3 2298   1.355   1.076   1.179 -1.1242 -0.0809 -0.3343
  563SOL    MW4 2299   1.369   1.158   1.153  0.4581 -0.1309  0.3287
  564SOL     OW 2300   3.389   1.182   0.522  0.2622 -0.3457  0.1915
  564SOL    HW2 2301   3.413   1.092   0.499  0.2636 -0.6938  1.5310
  564SOL    HW3 2302   3.473   1.226   0.536  0.2344 -0.4462  0.6835
  564SOL    MW4 2303   3.403   1.176   0.521  0.2589 -0.4051  0.4331
  565SOL     OW 2304   2.728   1.255   0.810 -0.1272 -0.7203  0.0407
  565SOL    HW2 2305   2.635   1.277   0.814  0.0094 -0.3350  1.6318
  565SOL    HW3 2306   2.770   1.335   0.780 -0.1714 -0.4293  0.7379
  565SOL    MW4 2307   2.721   1.268   0.807 -0.1149 -0.6311  0.3426
  566SOL     OW 2308   1.358   1.748   1.205 -0.3241  0.7312  0.2370
  566SOL    HW2 2309   1.363   1.820   1.142  0.3042  0.4526 -0.0290
  566SOL    HW3 2310   1.430   1.690   1.181 -2.1243 -1.0875 -0.8923
  566SOL    MW4 2311   1.368   1.750   1.193 -0.4787  0.4547  0.0529
  567SOL     OW 2312   0.815   0.460   0.249  0.1954  0.1741  0.0160
  567SOL    HW2 2313   0.871   0.478   0.174  0.1014  0.8659  0.1064
  567SOL    HW3 2314   0.828   0.536   0.307 -1.7272  0.9351 -0.5078
  567SOL    MW4 2315   0.824   0.473   0.247 -0.0706  0.3658 -0.0412
  568SOL     OW 2316   1.449   2.210   1.010 -0.0290 -0.0805  0.2375
  568SOL    HW2 2317   1.406   2.263   1.077  1.7825  1.2481  0.4071
  568SOL    HW3 2318   1.397   2.130   1.005 -1.3487  0.6473  1.8016
  568SOL    MW4 2319   1.436   2.206   1.018  0.0358  0.1907  0.4661
  569SOL     OW 2320   0.879   2.663   1.076 -0.1141  0.1899 -0.2573
  569SOL    HW2 2321   0.863   2.597   1.143 -2.0051  0.1632 -0.7195
  569SOL    HW3 2322   0.815   2.732   1.094 -0.1404  0.5254 -1.5824
  569SOL    MW4 2323   0.869   2.664   1.087 -0.3671  0.2308 -0.4930
  570SOL     OW 2324   4.471   2.229   0.726  0.2303  0.2006  0.0475
  570SOL    HW2 2325   4.533   2.255   0.794  0.2410 -0.7743  0.4208
  570SOL    HW3 2326   4.455   2.309   0.675  3.4902 -0.0022 -1.4331
  570SOL    MW4 2327   4.477   2.243   0.728  0.6618  0.0453 -0.0986
  571SOL     OW 2328   3.688   0.284   0.540  0.2574 -0.1428  0.1805
  571SOL    HW2 2329   3.737   0.314   0.463 -0.4646  1.0185  0.1571
  571SOL    HW3 2330   3.599   0.317   0.525 -0.3145 -1.4864  0.6362
  571SOL    MW4 2331   3.682   0.293   0.528  0.0870 -0.1669  0.2376
  572SOL     OW 2332   1.770   2.657   1.190 -0.6339  0.2007 -0.1520
  572SOL    HW2 2333   1.826   2.730   1.218 -0.2375 -0.0476 -0.2847
  572SOL    HW3 2334   1.762   2.668   1.095 -0.7403  0.1897 -0.1436
  572SOL    MW4 2335   1.776   2.668   1.181 -0.5957  0.1667 -0.1683
  573SOL     OW 2336   2.954   3.097   1.153  0.5770 -0.3108  0.4741
  573SOL    HW2 2337   2.928   3.013   1.191 -1.3679  0.1072  0.1040
  573SOL    HW3 2338   2.942   3.085   1.059  0.0686  0.4520  0.4385
  573SOL    MW4 2339   2.949   3.084   1.145  0.2534 -0.1547  0.4206
  574SOL     OW 2340   3.079   1.258   0.503 -0.0358 -0.0293  0.1869
  574SOL    HW2 2341   3.089   1.179   0.555  1.9941 -0.6007 -1.0087
  574SOL    HW3 2342   3.144   1.249   0.433 -3.3536  0.2316 -3.0836
  574SOL    MW4 2343   3.089   1.247   0.501 -0.2058 -0.0701 -0.4023
  575SOL     OW 2344   1.332   3.193   1.210  0.4766 -0.5083  0.1824
  575SOL    HW2 2345   1.326   3.183   1.305 -0.0791 -2.0639 -0.0140
  575SOL    HW3 2346   1.412   3.147   1.186  0.7225  0.0544 -0.0803
  575SOL    MW4 2347   1.342   3.186   1.219  0.4356 -0.6390  0.1217
  576SOL     OW 2348   1.549   3.829   1.181  0.2364  0.2674 -0.1573
  576SOL    HW2 2349   1.569   3.736   1.190 -1.0235 -0.0676 -0.6160
  576SOL    HW3 2350   1.631   3.873   1.200  1.0004 -0.9678 -0.5065
  576SOL    MW4 2351   1.562   3.822   1.185  0.1709  0.0603 -0.2639
  577SOL     OW 2352   0.560   1.959   0.368  0.4654  0.1179  0.2514
  577SOL    HW2 2353   0.650   1.965   0.399  0.9907  0.2148 -1.2226
  577SOL    HW3 2354   0.544   1.865   0.358  0.2970  0.0872  0.8137
  577SOL    MW4 2355   0.570   1.948   0.371  0.5124  0.1266  0.1311
  578SOL     OW 2356   1.316   3.970   1.224  0.2514  0.1379  0.0491
  578SOL    HW2 2357   1.395   3.918   1.206  0.5146  0.1199  1.2015
  578SOL    HW3 2358   1.337   4.057   1.190  0.8275  0.1735  0.4927
  578SOL    MW4 2359   1.329   3.974   1.217  0.3620  0.1402  0.2596
  579SOL     OW 2360   4.249   3.760   0.307 -0.5437  0.5568 -0.2514
  579SOL    HW2 2361   4.332   3.752   0.353 -1.2943 -0.2644  1.0020
  579SOL    HW3 2362   4.209   3.839   0.343 -2.4768 -1.7131  2.7913
  579SOL    MW4 2363   4.255   3.769   0.318 -0.8979  0.1490  0.3154
  580SOL     OW 2364   0.750   4.541   0.831 -0.6398  0.1995  0.0417
  580SOL    HW2 2365   0.707   4.538   0.746 -1.5816  0.1534  0.5139
  580SOL    HW3 2366   0.785   4.453   0.843 -1.0036  0.0423 -0.0438
  580SOL    MW4 2367   0.749   4.529   0.821 -0.8121  0.1726  0.0927
  581SOL     OW 2368   2.469   4.328   1.232 -0.0039  0.4996 -0.1482
  581SOL    HW2 2369   2.453   4.416   1.196  1.2093  0.1616 -1.5973
  581SOL    HW3 2370   2.544   4.296   1.182 -2.0313 -2.3849 -1.4233
  581SOL    MW4 2371   2.477   4.335   1.221 -0.1111  0.0739 -0.5075
  582SOL     OW 2372   3.666   3.095   0.901  0.2266  0.1683  0.2342
  582SOL    HW2 2373   3.719   3.152   0.846 -0.4358  0.8718  0.3219
  582SOL    HW3 2374   3.635   3.027   0.842  1.6428 -0.5406  0.2873
  582SOL    MW4 2375   3.669   3.094   0.886  0.3264  0.1674  0.2527
  583SOL     OW 2376   0.492   2.733   0.820  0.2299  0.1193 -0.6284
  583SOL    HW2 2377   0.509   2.740   0.914  1.1654 -1.9074 -0.6150
  583SOL    HW3 2378   0.409   2.685   0.814  0.0524  0.4518 -0.8272
  583SOL    MW4 2379   0.483   2.727   0.831  0.3299 -0.1044 -0.6528
  584SOL     OW 2380   3.636   3.679   0.738 -0.0510 -0.3503  0.4067
  584SOL    HW2 2381   3.579   3.753   0.761  0.5905  0.8915 -1.7564
  584SOL    HW3 2382   3.601   3.649   0.653  1.0821 -1.0895  0.1998
  584SOL    MW4 2383   3.624   3.685   0.730  0.1831 -0.2842  0.0940
  585SOL     OW 2384   2.234   0.900   1.220  0.0600 -0.1329  0.1329
  585SOL    HW2 2385   2.295   0.839   1.179 -1.4936 -0.9256 -1.0553
  585SOL    HW3 2386   2.148   0.876   1.185 -0.5498  2.9749 -0.6523
  585SOL    MW4 2387   2.230   0.888   1.210 -0.2255  0.1726 -0.1274
  586SOL     OW 2388   1.785   0.947   1.217 -0.1388 -0.0598  0.2022
  586SOL    HW2 2389   1.785   0.942   1.312 -1.3011 -1.5536  0.1319
  586SOL    HW3 2390   1.863   0.897   1.190 -0.4184 -0.5541  0.3194
  586SOL    MW4 2391   1.795   0.940   1.226 -0.3290 -0.3221  0.2085
  587SOL     OW 2392   1.794   1.225   1.129  0.3116  0.1364  0.8208
  587SOL    HW2 2393   1.775   1.242   1.037  2.2366  0.6839  0.5169
  587SOL    HW3 2394   1.794   1.130   1.137  0.7479  0.0756  0.1189
  587SOL    MW4 2395   1.791   1.215   1.118  0.6232  0.2005  0.6881
  588SOL     OW 2396   2.619   2.907   0.508  0.1139 -0.0774 -0.0424
  588SOL    HW2 2397   2.532   2.881   0.537  0.5362  0.4305  1.7818
  588SOL    HW3 2398   2.605   2.982   0.451 -0.6064  0.3259  0.6573
  588SOL    MW4 2399   2.606   2.913   0.504  0.0744  0.0427  0.2906
  589SOL     OW 2400   1.567   1.307   1.261  0.1168 -0.5440 -0.3166
  589SOL    HW2 2401   1.574   1.299   1.356 -0.2232  0.0525 -0.2386
  589SOL    HW3 2402   1.652   1.278   1.228  0.8366  0.8545  0.2608
  589SOL    MW4 2403   1.579   1.302   1.269  0.1669 -0.2809 -0.2301
  590SOL     OW 2404   0.872   3.810   0.287  0.1769 -0.0266  0.0312
  590SOL    HW2 2405   0.783   3.845   0.299  0.4769  1.1320 -1.0042
  590SOL    HW3 2406   0.864   3.717   0.308 -1.4294 -0.0584 -0.6371
  590SOL    MW4 2407   0.859   3.803   0.291  0.0045  0.1221 -0.1936
  591SOL     OW 2408   1.798   1.712   1.261 -0.6586 -0.0386 -0.5695
  591SOL    HW2 2409   1.798   1.792   1.207  1.0041 -0.1375 -0.7279
  591SOL    HW3 2410   1.870   1.659   1.226 -1.0229 -1.1100  0.2840
  591SOL    MW4 2411   1.807   1.716   1.249 -0.4872 -0.1930 -0.4779
  592SOL     OW 2412   1.970   2.279   1.159  0.2712 -0.0960  0.3916
  592SOL    HW2 2413   2.049   2.324   1.187  0.4872 -0.8748  1.0490
  592SOL    HW3 2414   1.982   2.189   1.188  0.1852 -0.7776 -1.6045
  592SOL    MW4 2415   1.982   2.273   1.167  0.2884 -0.2885  0.2151
  593SOL     OW 2416   2.214   2.408   0.478  0.2157  0.0408 -0.0816
  593SOL    HW2 2417   2.276   2.471   0.515  2.0518 -1.9979  0.4292
  593SOL    HW3 2418   2.132   2.457   0.470  1.1929  2.0578  1.6915
  593SOL    MW4 2419   2.211   2.423   0.482  0.5870  0.0381  0.2198
  594SOL     OW 2420   4.329   0.579   0.776 -0.2834 -0.2853 -0.0247
  594SOL    HW2 2421   4.424   0.581   0.783 -0.1201 -1.2327 -1.5754
  594SOL    HW3 2422   4.300   0.664   0.809  1.2181  0.6025 -0.9216
  594SOL    MW4 2423   4.338   0.590   0.781 -0.0639 -0.2932 -0.3477
  595SOL     OW 2424   2.482   2.283   0.402 -0.1808 -0.1926  0.2581
  595SOL    HW2 2425   2.393   2.317   0.413 -0.3122 -1.2950  2.8307
  595SOL    HW3 2426   2.538   2.353   0.436 -0.2366 -0.8655  1.7319
  595SOL    MW4 2427   2.477   2.297   0.408 -0.2055 -0.4270  0.7920
  596SOL     OW 2428   1.994   3.071   1.150  0.1010  0.1817  0.3248
  596SOL    HW2 2429   1.997   3.063   1.054  0.6479  0.0552  0.3489
  596SOL    HW3 2430   1.909   3.111   1.168  0.0886  0.4188 -0.2314
  596SOL    MW4 2431   1.983   3.075   1.139  0.1714  0.1962  0.2546
  597SOL     OW 2432   3.329   2.409   0.424  0.2855 -0.1151  0.3617
  597SOL    HW2 2433   3.314   2.481   0.363 -0.2537 -0.6505 -0.1435
  597SOL    HW3 2434   3.275   2.430   0.501  1.6594  1.0134  1.0406
  597SOL    MW4 2435   3.320   2.421   0.426  0.3958 -0.0367  0.3846
  598SOL     OW 2436   3.842   1.833   0.706  0.2282  0.1900 -0.0461
  598SOL    HW2 2437   3.822   1.741   0.688 -3.0968  0.5089  1.6980
  598SOL    HW3 2438   3.923   1.829   0.757  0.0096 -1.7903  0.2104
  598SOL    MW4 2439   3.850   1.820   0.711 -0.2394 -0.0292  0.2179
  599SOL     OW 2440   0.945   2.814   0.457 -0.0134 -0.1877  0.7025
  599SOL    HW2 2441   0.935   2.738   0.399  0.1374 -0.4310  0.9956
  599SOL    HW3 2442   0.878   2.875   0.428 -0.0553 -0.3832  0.3831
  599SOL    MW4 2443   0.935   2.812   0.445  0.0010 -0.2456  0.6991
  600SOL     OW 2444   1.286   1.439   0.426 -0.1542  0.3250 -0.2602
  600SOL    HW2 2445   1.321   1.351   0.408 -0.6062 -0.0413  0.6370
  600SOL    HW3 2446   1.334   1.469   0.502 -2.2643 -0.4875  1.4530
  600SOL    MW4 2447   1.297   1.431   0.434 -0.4922  0.1694  0.0843
  601SOL     OW 2448   2.423   3.356   0.787  0.1172  0.1075 -0.3262
  601SOL    HW2 2449   2.418   3.289   0.855  2.4756  1.9418  1.7254
  601SOL    HW3 2450   2.349   3.414   0.805 -0.1786 -0.2697 -0.3104
  601SOL    MW4 2451   2.412   3.355   0.798  0.3893  0.2999 -0.0533
  602SOL     OW 2452   4.250   2.315   1.124  0.2932 -0.2964  0.1162
  602SOL    HW2 2453   4.338   2.335   1.154 -0.3538  0.9489  1.2380
  602SOL    HW3 2454   4.238   2.370   1.047 -0.2225  1.0428  1.1462
  602SOL    MW4 2455   4.260   2.325   1.118  0.1397  0.0446  0.4001
  603SOL     OW 2456   1.775   3.947   1.236  0.3563 -0.3831  0.0923
  603SOL    HW2 2457   1.776   3.973   1.328 -0.0672  0.1662 -0.0560
  603SOL    HW3 2458   1.866   3.928   1.215  0.3780 -1.0499  0.7759
  603SOL    MW4 2459   1.787   3.948   1.245  0.3033 -0.3986  0.1630
  604SOL     OW 2460   2.026   4.381   1.259 -0.1114  0.2019 -0.7297
  604SOL    HW2 2461   2.032   4.358   1.352 -0.5932  0.0578 -0.7304
  604SOL    HW3 2462   1.939   4.351   1.233 -1.3688  3.3588 -0.3603
  604SOL    MW4 2463   2.015   4.374   1.268 -0.3409  0.5999 -0.6810
  605SOL     OW 2464   2.440   4.592   1.144  0.1084  0.3372 -0.3095
  605SOL    HW2 2465   2.514   4.648   1.167  0.6227 -0.7684  0.7054
  605SOL    HW3 2466   2.363   4.640   1.176  0.4885  0.7605 -0.0272
  605SOL    MW4 2467   2.439   4.606   1.151  0.2267  0.2475 -0.1384
  606SOL     OW 2468   2.028   4.616   1.130  0.4112 -0.4228 -0.5674
  606SOL    HW2 2469   2.022   4.529   1.170  1.1278 -0.0748  0.3219
  606SOL    HW3 2470   1.947   4.660   1.157 -0.3254 -1.0710 -1.6761
  606SOL    MW4 2471   2.016   4.610   1.139  0.4089 -0.4621 -0.5964
  607SOL     OW 2472   2.027   0.504   1.244 -0.1139  0.3480  0.1217
  607SOL    HW2 2473   2.003   0.502   1.337 -0.3560  0.8232  0.0726
  607SOL    HW3 2474   1.957   0.455   1.201 -0.1742  0.4065  0.1531
  607SOL    MW4 2475   2.014   0.497   1.251 -0.1535  0.4185  0.1193
  608SOL     OW 2476   2.481   0.488   1.200  0.0906  0.1173  0.5111
  608SOL    HW2 2477   2.499   0.504   1.293  1.8073  1.4532 -0.0293
  608SOL    HW3 2478   2.552   0.430   1.172  0.1782  0.5840 -0.2329
  608SOL    MW4 2479   2.493   0.482   1.209  0.3285  0.3551  0.3417
  609SOL     OW 2480   2.222   1.169   1.121 -0.4291  0.0692 -0.3756
  609SOL    HW2 2481   2.206   1.169   1.026 -0.8761 -0.2381 -0.3017
  609SOL    HW3 2482   2.244   1.078   1.142  1.3702  0.4701 -0.4596
  609SOL    MW4 2483   2.223   1.157   1.111 -0.2508  0.0815 -0.3769
  610SOL     OW 2484   2.033   1.308   1.248 -0.1137  0.5792  0.3863
  610SOL    HW2 2485   2.091   1.239   1.215  0.6800  1.1742  0.5171
  610SOL    HW3 2486   1.947   1.286   1.212  0.1650 -0.3832  0.2871
  610SOL    MW4 2487   2.029   1.296   1.239  0.0277  0.5307  0.3905
  611SOL     OW 2488   1.737   1.980   0.573  0.1080 -0.2666 -0.3435
  611SOL    HW2 2489   1.648   1.971   0.538  0.2225  0.5791 -0.8662
  611SOL    HW3 2490   1.782   1.901   0.544 -0.3871 -0.5610 -0.3293
  611SOL    MW4 2491   1.731   1.969   0.565  0.0578 -0.1937 -0.4107
  612SOL     OW 2492   2.716   1.681   1.194  0.4722 -0.3951 -0.5577
  612SOL    HW2 2493   2.792   1.630   1.165  0.2831 -0.6788 -0.5541
  612SOL    HW3 2494   2.641   1.637   1.155  0.3045 -0.1340 -0.5332
  612SOL    MW4 2495   2.716   1.669   1.185  0.4251 -0.3980 -0.5541
  613SOL     OW 2496   0.208   3.878   0.574  0.1275  0.0777  0.6175
  613SOL    HW2 2497   0.115   3.857   0.566  0.1900  0.2990 -0.7527
  613SOL    HW3 2498   0.249   3.837   0.498  1.2458 -0.5458  1.5472
  613SOL    MW4 2499   0.201   3.870   0.563  0.2833  0.0248  0.5594
  614SOL     OW 2500   2.273   1.682   1.230  0.1542  0.5389 -0.2032
  614SOL    HW2 2501   2.352   1.628   1.224 -0.1318 -0.0504  1.0033
  614SOL    HW3 2502   2.296   1.764   1.187  1.0108 -0.0942 -0.9706
  614SOL    MW4 2503   2.286   1.686   1.224  0.2296  0.3778 -0.1454
  615SOL     OW 2504   2.290   1.936   1.125  0.0103  0.0581  0.1496
  615SOL    HW2 2505   2.199   1.956   1.147 -0.1098 -1.0490  0.7305
  615SOL    HW3 2506   2.295   1.943   1.030 -1.0551 -1.2868 -0.0272
  615SOL    MW4 2507   2.278   1.939   1.116 -0.1457 -0.2652  0.2029
  616SOL     OW 2508   2.478   2.089   1.233  0.9588 -0.5015  0.2165
  616SOL    HW2 2509   2.561   2.049   1.207  0.4273 -1.5585  0.1020
  616SOL    HW3 2510   2.411   2.027   1.202  0.0532  1.0883 -1.0501
  616SOL    MW4 2511   2.480   2.075   1.226  0.7689 -0.4313  0.0342
  617SOL     OW 2512   2.502   2.349   1.108 -0.5296  0.0479 -0.1711
  617SOL    HW2 2513   2.493   2.259   1.139  0.7768  0.3416  1.1185
  617SOL    HW3 2514   2.568   2.387   1.166 -1.7000  2.0964 -0.1670
  617SOL    MW4 2515   2.510   2.342   1.120 -0.5119  0.3569 -0.0005
  618SOL     OW 2516   2.243   2.384   1.217 -0.2372 -0.2548  0.5041
  618SOL    HW2 2517   2.256   2.396   1.311  1.8306 -0.5324  0.2706
  618SOL    HW3 2518   2.331   2.373   1.181 -1.1578 -2.5752 -1.1482
  618SOL    MW4 2519   2.256   2.384   1.224 -0.0858 -0.5977  0.2553
  619SOL     OW 2520   2.406   2.785   1.241 -0.6711 -0.3542  0.1900
  619SOL    HW2 2521   2.422   2.791   1.335 -1.4115  0.9734  0.2414
  619SOL    HW3 2522   2.319   2.745   1.234 -0.4200 -0.8844  0.0527
  619SOL    MW4 2523   2.397   2.780   1.253 -0.7358 -0.2491  0.1787
  620SOL     OW 2524   2.707   3.217   1.269 -0.0697 -0.8119  0.2690
  620SOL    HW2 2525   2.783   3.172   1.233 -0.2537 -0.3538 -0.7001
  620SOL    HW3 2526   2.632   3.161   1.247 -0.1415 -0.7217  0.2840
  620SOL    MW4 2527   2.707   3.204   1.261 -0.1035 -0.7398  0.1429
  621SOL     OW 2528   3.854   4.010   0.885  0.6182  0.1871 -0.1947
  621SOL    HW2 2529   3.904   4.063   0.823 -1.0482  1.2782 -0.6637
  621SOL    HW3 2530   3.765   4.044   0.877  0.0343 -0.9435  1.4326
  621SOL    MW4 2531   3.849   4.022   0.876  0.3214  0.1817 -0.0419
  622SOL     OW 2532   0.866   0.618   0.467  0.0074  0.2241  0.3696
  622SOL    HW2 2533   0.909   0.703   0.455  0.4575 -0.0907 -0.2832
  622SOL    HW3 2534   0.938   0.558   0.490  0.1174 -0.5641 -1.9164
  622SOL    MW4 2535   0.881   0.621   0.468  0.0812  0.0785 -0.0181
  623SOL     OW 2536   2.214   3.198   1.269  0.3854 -0.1176  0.3910
  623SOL    HW2 2537   2.228   3.286   1.235 -0.1497  0.4124  1.5174
  623SOL    HW3 2538   2.136   3.166   1.223  0.5409  0.0185  0.0328
  623SOL    MW4 2539   2.205   3.205   1.259  0.3350 -0.0298  0.4922
  624SOL     OW 2540   2.253   3.439   1.158 -0.3005  0.1620 -0.4331
  624SOL    HW2 2541   2.340   3.463   1.190  0.2857 -3.1964  0.7320
  624SOL    HW3 2542   2.254   3.466   1.066  1.6284  1.0040 -0.2029
  624SOL    MW4 2543   2.265   3.446   1.150  0.0312 -0.1700 -0.2490
  625SOL     OW 2544   2.540   4.184   0.663  0.7693 -0.3645  0.0182
  625SOL    HW2 2545   2.607   4.175   0.731  2.2644 -0.1974 -1.3838
  625SOL    HW3 2546   2.496   4.266   0.683  0.4946 -0.8271  1.3687
  625SOL    MW4 2547   2.543   4.193   0.675  0.9303 -0.4029  0.0114
  626SOL     OW 2548   1.518   3.842   0.897  0.0712  0.6061 -0.0908
  626SOL    HW2 2549   1.520   3.824   0.991  1.2402  0.3787 -0.1613
  626SOL    HW3 2550   1.507   3.936   0.891 -1.3057  0.4831  0.2682
  626SOL    MW4 2551   1.516   3.852   0.909  0.0437  0.5596 -0.0528
  627SOL     OW 2552   2.403   3.818   1.114 -0.9110  0.0603 -0.0578
  627SOL    HW2 2553   2.431   3.734   1.150  0.2911  0.8034  0.7922
  627SOL    HW3 2554   2.389   3.801   1.021  1.5901 -0.5557 -0.3460
  627SOL    MW4 2555   2.405   3.805   1.107 -0.4225  0.0772  0.0165
  628SOL     OW 2556   2.221   4.242   1.119 -0.0064 -0.4191  0.5749
  628SOL    HW2 2557   2.164   4.306   1.163  0.6068  0.1310  0.5777
  628SOL    HW3 2558   2.308   4.259   1.156  0.7059  0.7053 -1.5821
  628SOL    MW4 2559   2.225   4.253   1.130  0.1683 -0.1984  0.2905
  629SOL     OW 2560   0.468   1.933   0.848 -0.0346  0.2442 -0.2170
  629SOL    HW2 2561   0.563   1.944   0.843  0.2917 -1.4976  1.4920
  629SOL    HW3 2562   0.452   1.852   0.799 -0.4703 -0.2077  0.6730
  629SOL    MW4 2563   0.479   1.924   0.841 -0.0491 -0.0452  0.1259
  630SOL     OW 2564   2.665   0.067   1.215  0.0341  0.0255 -0.3246
  630SOL    HW2 2565   2.675   0.080   1.309 -2.6679 -0.4930  0.0588
  630SOL    HW3 2566   2.749   0.030   1.187  0.9319  0.3672  1.8364
  630SOL    MW4 2567   2.678   0.064   1.224 -0.2041  0.0022  0.0111
  631SOL     OW 2568   3.181   0.373   1.180 -0.3102  0.5270  0.7311
  631SOL    HW2 2569   3.167   0.280   1.200  0.8337  0.1822 -0.0427
  631SOL    HW3 2570   3.095   0.413   1.194 -1.0217 -0.7886  0.2314
  631SOL    MW4 2571   3.167   0.366   1.185 -0.2532  0.3079  0.5629
  632SOL     OW 2572   2.708   0.352   1.117 -0.1709  0.2834  0.1029
  632SOL    HW2 2573   2.688   0.264   1.150  2.2726 -0.2766  0.1307
  632SOL    HW3 2574   2.709   0.341   1.022  2.5033 -0.2693  0.1728
  632SOL    MW4 2575   2.705   0.339   1.109  0.5043  0.1366  0.1158
  633SOL     OW 2576   2.941   0.500   1.208  0.1275  0.1025 -0.1249
  633SOL    HW2 2577   2.874   0.445   1.168 -0.0927  0.0080  0.3649
  633SOL    HW3 2578   2.924   0.588   1.176 -0.6631  0.1992  0.5517
  633SOL    MW4 2579   2.930   0.504   1.199 -0.0055  0.1028  0.0290
  634SOL     OW 2580   2.919   0.753   1.107  0.5568 -0.4195  0.6499
  634SOL    HW2 2581   2.993   0.799   1.147  0.4486  2.0359 -1.8096
  634SOL    HW3 2582   2.842   0.796   1.145  0.4356 -0.3711  0.3511
  634SOL    MW4 2583   2.919   0.765   1.118  0.5264 -0.0892  0.2860
  635SOL     OW 2584   2.704   1.154   1.087  0.4672  0.1570  0.0919
  635SOL    HW2 2585   2.774   1.195   1.139  2.3144 -0.7157 -1.6458
  635SOL    HW3 2586   2.720   1.185   0.998  1.2245 -3.3902 -1.0602
  635SOL    MW4 2587   2.716   1.164   1.082  0.8109 -0.4262 -0.2893
  636SOL     OW 2588   2.924   1.273   1.229 -0.3156  0.3402  0.1259
  636SOL    HW2 2589   2.924   1.289   1.324  1.7835 -0.0599  0.2029
  636SOL    HW3 2590   2.931   1.360   1.190  0.8779  0.3676  0.3824
  636SOL    MW4 2591   2.925   1.286   1.237  0.1187  0.2910  0.1698
  637SOL     OW 2592   0.848   0.263   0.425 -0.1828 -0.6434  0.0027
  637SOL    HW2 2593   0.831   0.326   0.355  1.2719  1.7118  1.7117
  637SOL    HW3 2594   0.761   0.233   0.452 -0.9676  1.4842 -0.0872
  637SOL    MW4 2595   0.834   0.267   0.419 -0.0944 -0.0519  0.2163
  638SOL     OW 2596   0.817   2.305   0.266  0.1565 -0.1813  0.0571
  638SOL    HW2 2597   0.793   2.271   0.180  0.2058  0.9855 -0.4339
  638SOL    HW3 2598   0.837   2.227   0.318  0.8949 -0.8629 -1.2130
  638SOL    MW4 2599   0.816   2.290   0.262  0.2605 -0.1173 -0.1753
  639SOL     OW 2600   2.705   1.956   1.134  0.1936 -0.3084 -0.1751
  639SOL    HW2 2601   2.725   1.954   1.041  0.5293  0.0564 -0.1146
  639SOL    HW3 2602   2.704   1.864   1.161 -1.2498 -0.5030 -0.8136
  639SOL    MW4 2603   2.707   1.944   1.126  0.0477 -0.2859 -0.2513
  640SOL     OW 2604   2.958   2.037   1.225 -0.1123 -0.4190 -0.0893
  640SOL    HW2 2605   2.937   2.037   1.319  1.0187 -1.3590  0.1833
  640SOL    HW3 2606   2.876   2.014   1.182 -0.7150  0.3031  0.6488
  640SOL    MW4 2607   2.944   2.034   1.232 -0.0427 -0.4478  0.0442
  641SOL     OW 2608   3.404   2.303   0.850  0.5280  0.1170  0.2377
  641SOL    HW2 2609   3.410   2.323   0.944 -1.4932  1.1012  0.1898
  641SOL    HW3 2610   3.399   2.208   0.846  2.5889 -0.0519  0.9805
  641SOL    MW4 2611   3.404   2.293   0.862  0.5331  0.2246  0.3294
  642SOL     OW 2612   2.732   2.489   1.236  0.0179  0.3894 -0.0035
  642SOL    HW2 2613   2.728   2.475   1.330 -0.8882  1.0505  0.0574
  642SOL    HW3 2614   2.803   2.432   1.206 -0.8681 -1.1735  0.8242
  642SOL    MW4 2615   2.741   2.479   1.244 -0.2184  0.2706  0.1138
  643SOL     OW 2616   2.675   2.740   1.169  0.6199  0.1824 -0.3938
  643SOL    HW2 2617   2.590   2.761   1.208  1.3518 -1.6700  2.3919
  643SOL    HW3 2618   2.690   2.648   1.191  4.2430  1.0166  1.0335
  643SOL    MW4 2619   2.666   2.731   1.177  1.1945  0.0479  0.1619
  644SOL     OW 2620   2.943   2.828   1.248  0.0980 -0.5823 -0.5494
  644SOL    HW2 2621   2.946   2.833   1.344 -0.3764 -1.0851 -0.5065
  644SOL    HW3 2622   2.861   2.784   1.229 -0.1733  0.1855 -1.2153
  644SOL    MW4 2623   2.933   2.823   1.258 -0.0005 -0.5474 -0.6315
  645SOL     OW 2624   0.562   1.401   0.417  0.1669  0.1902 -0.1724
  645SOL    HW2 2625   0.552   1.346   0.340 -0.4868 -1.7224  1.2608
  645SOL    HW3 2626   0.634   1.362   0.466  1.2580  1.9836 -0.2808
  645SOL    MW4 2627   0.570   1.389   0.413  0.2246  0.1745  0.0024
  646SOL     OW 2628   2.932   3.612   1.262 -0.2774  0.1411 -0.7086
  646SOL    HW2 2629   3.012   3.568   1.233 -0.8066 -0.2269 -1.6672
  646SOL    HW3 2630   2.862   3.565   1.217 -0.9987  0.7217 -0.2038
  646SOL    MW4 2631   2.933   3.600   1.252 -0.4425  0.1690 -0.7684
  647SOL     OW 2632   3.140   3.496   1.138  0.1864  0.5203 -0.2545
  647SOL    HW2 2633   3.144   3.407   1.173 -1.7480  0.7001  0.4671
  647SOL    HW3 2634   3.224   3.535   1.162  1.4127 -1.3751 -1.3435
  647SOL    MW4 2635   3.152   3.490   1.146  0.0930  0.2940 -0.3029
  648SOL     OW 2636   3.601   4.541   0.733  0.2581 -0.1904 -0.3700
  648SOL    HW2 2637   3.619   4.597   0.657  1.6602 -0.9506 -0.6166
  648SOL    HW3 2638   3.645   4.459   0.713 -0.5810 -0.8995  0.6378
  648SOL    MW4 2639   3.609   4.537   0.721  0.3319 -0.3848 -0.2696
  649SOL     OW 2640   2.907   3.858   1.146  0.1174 -0.5074 -0.0735
  649SOL    HW2 2641   2.988   3.904   1.166 -1.0848  0.7790  1.9965
  649SOL    HW3 2642   2.917   3.772   1.187  0.4899 -0.3939  0.0718
  649SOL    MW4 2643   2.919   3.853   1.154  0.0081 -0.3228  0.2187
  650SOL     OW 2644   2.655   3.959   1.240  0.2830 -0.2655 -0.1272
  650SOL    HW2 2645   2.584   3.914   1.195 -0.4248  0.9332 -0.2173
  650SOL    HW3 2646   2.734   3.915   1.210 -0.2802 -0.3862 -1.4593
  650SOL    MW4 2647   2.656   3.947   1.230  0.1154 -0.1233 -0.3148
  651SOL     OW 2648   2.920   4.345   1.222  0.0434  0.1082 -0.0538
  651SOL    HW2 2649   2.997   4.318   1.173  0.0507 -0.6666  0.3687
  651SOL    HW3 2650   2.902   4.434   1.193  1.4575  0.5145  0.2833
  651SOL    MW4 2651   2.928   4.353   1.212  0.2310  0.0596  0.0465
  652SOL     OW 2652   2.706   4.210   1.105  0.0561 -0.0838  0.1275
  652SOL    HW2 2653   2.689   4.136   1.164 -1.6142  0.0302 -0.1775
  652SOL    HW3 2654   2.788   4.248   1.137 -0.1274 -0.8431  1.5473
  652SOL    MW4 2655   2.715   4.205   1.117 -0.1886 -0.1688  0.2747
  653SOL     OW 2656   3.135   0.117   1.250 -0.3451 -0.3550  0.1615
  653SOL    HW2 2657   3.209   0.067   1.216 -0.7802 -1.1009  0.3024
  653SOL    HW3 2658   3.143   0.110   1.345  0.4010  1.0409  0.2155
  653SOL    MW4 2659   3.146   0.109   1.258 -0.3042 -0.2693  0.1872
  654SOL     OW 2660   2.916   4.625   1.167  0.1915 -0.5004  0.4717
  654SOL    HW2 2661   2.945   4.623   1.076  0.1537 -0.0157  0.4460
  654SOL    HW3 2662   2.974   4.688   1.209  0.2665 -0.7915  0.8034
  654SOL    MW4 2663   2.928   4.633   1.160  0.1967 -0.4754  0.5121
  655SOL     OW 2664   3.763   4.351   0.621  0.4062 -0.0203 -0.1766
  655SOL    HW2 2665   3.784   4.399   0.541 -0.5164 -1.4489 -1.2962
  655SOL    HW3 2666   3.840   4.298   0.638  0.1265 -0.6437 -0.8240
  655SOL    MW4 2667   3.776   4.350   0.613  0.2475 -0.2909 -0.4098
  656SOL     OW 2668   3.405   0.761   1.123  0.2539 -0.4565 -0.1036
  656SOL    HW2 2669   3.414   0.767   1.028  0.9672  1.7749  0.0696
  656SOL    HW3 2670   3.326   0.812   1.142 -0.4871 -1.7810  0.4108
  656SOL    MW4 2671   3.396   0.769   1.113  0.2499 -0.3368 -0.0128
  657SOL     OW 2672   0.799   2.981   0.858 -0.1441  0.5149 -0.7221
  657SOL    HW2 2673   0.750   3.001   0.779  0.4086  0.9481 -0.9607
  657SOL    HW3 2674   0.879   3.033   0.850  0.2898 -0.0800 -0.2788
  657SOL    MW4 2675   0.803   2.991   0.846 -0.0139  0.4935 -0.6951
  658SOL     OW 2676   3.150   0.847   1.230 -0.4165 -0.7230  0.2008
  658SOL    HW2 2677   3.154   0.848   1.326  1.9960 -1.2935  0.1306
  658SOL    HW3 2678   3.119   0.934   1.207  1.2817  0.2571  1.4388
  658SOL    MW4 2679   3.146   0.859   1.240  0.1256 -0.6690  0.3549
  659SOL     OW 2680   3.109   1.093   1.154 -0.1714  0.2343  0.3774
  659SOL    HW2 2681   3.039   1.151   1.183 -1.1598 -1.2563  1.0452
  659SOL    HW3 2682   3.190   1.137   1.179 -0.8630  2.0046 -0.4563
  659SOL    MW4 2683   3.111   1.106   1.161 -0.3929  0.2711  0.3555
  660SOL     OW 2684   3.191   1.641   1.238  0.2906 -0.1181 -0.1641
  660SOL    HW2 2685   3.151   1.660   1.323  2.1491  1.2536  0.4181
  660SOL    HW3 2686   3.194   1.726   1.194  1.3864 -0.4465 -0.7191
  660SOL    MW4 2687   3.186   1.655   1.243  0.6807  0.0194 -0.1605
  661SOL     OW 2688   3.185   1.901   1.143 -0.2729  0.4260 -0.1121
  661SOL    HW2 2689   3.106   1.942   1.177 -0.3166 -1.3154  2.0393
  661SOL    HW3 2690   3.256   1.957   1.174 -0.5789  1.0812 -0.6145
  661SOL    MW4 2691   3.184   1.913   1.152 -0.3192  0.2828  0.1054
  662SOL     OW 2692   2.965   1.525   1.121  0.0976  0.5997  0.0893
  662SOL    HW2 2693   3.044   1.558   1.163 -0.8921  2.4482  0.5623
  662SOL    HW3 2694   2.981   1.536   1.028  0.9751 -0.4278  0.1036
  662SOL    MW4 2695   2.977   1.531   1.115  0.0827  0.7081  0.1535
  663SOL     OW 2696   0.927   0.294   0.867  0.0950  0.0654  0.4532
  663SOL    HW2 2697   0.845   0.309   0.820  0.0696 -1.2160  0.0844
  663SOL    HW3 2698   0.986   0.361   0.832 -0.5780  0.5502  0.2211
  663SOL    MW4 2699   0.924   0.305   0.856  0.0029 -0.0397  0.3739
  664SOL     OW 2700   3.387   2.065   1.256 -0.6200 -0.7171  0.0293
  664SOL    HW2 2701   3.470   2.022   1.233 -0.1430  0.0270  0.3246
  664SOL    HW3 2702   3.395   2.152   1.218 -1.6154 -0.9153 -0.6372
  664SOL    MW4 2703   3.399   2.071   1.248 -0.6883 -0.6452 -0.0194
  665SOL     OW 2704   3.372   2.696   0.710 -0.0330 -0.1156 -0.7804
  665SOL    HW2 2705   3.440   2.751   0.749 -1.2651  1.5483 -0.9675
  665SOL    HW3 2706   3.300   2.698   0.773 -0.6914 -0.2194 -1.5133
  665SOL    MW4 2707   3.371   2.703   0.723 -0.2825  0.0899 -0.9018
  666SOL     OW 2708   3.169   2.432   1.551 -0.1669 -0.0111  0.2412
  666SOL    HW2 2709   3.096   2.371   1.565 -1.1737  1.0957 -0.0927
  666SOL    HW3 2710   3.244   2.391   1.594 -1.3858 -0.3854  2.0417
  666SOL    MW4 2711   3.169   2.419   1.558 -0.4606  0.0856  0.4348
  667SOL     OW 2712   1.897   1.745   0.554  0.3182 -0.1518 -0.0671
  667SOL    HW2 2713   1.978   1.703   0.524 -0.4007 -0.7173 -1.2231
  667SOL    HW3 2714   1.919   1.778   0.642  1.9143  0.0290 -0.5105
  667SOL    MW4 2715   1.911   1.744   0.562  0.4339 -0.2025 -0.2781
  668SOL     OW 2716   0.871   0.903   0.746  0.2628  0.2590  0.2095
  668SOL    HW2 2717   0.811   0.860   0.806  0.8004  0.8383  1.1672
  668SOL    HW3 2718   0.956   0.862   0.763  0.0929 -0.8080 -1.3827
  668SOL    MW4 2719   0.874   0.892   0.756  0.3113  0.1947  0.1257
  669SOL     OW 2720   3.361   2.798   1.214 -0.4027  0.1546 -0.5237
  669SOL    HW2 2721   3.349   2.891   1.193 -1.2268  0.0350 -0.5741
  669SOL    HW3 2722   3.282   2.755   1.181  0.2267 -0.6502 -0.9878
  669SOL    MW4 2723   3.349   2.805   1.207 -0.4282  0.0329 -0.5916
  670SOL     OW 2724   3.160   3.240   1.239 -0.3979  0.1432 -0.0597
  670SOL    HW2 2725   3.084   3.193   1.203 -0.6505  0.3824  0.1594
  670SOL    HW3 2726   3.234   3.181   1.224 -0.7455 -0.4072  0.3855
  670SOL    MW4 2727   3.160   3.226   1.232 -0.4768  0.1020  0.0280
  671SOL     OW 2728   3.373   3.615   1.230  0.1529  0.0997  0.1275
  671SOL    HW2 2729   3.363   3.609   1.325  1.5439  1.1180  0.3536
  671SOL    HW3 2730   3.462   3.586   1.213 -0.7971 -2.2529 -1.1251
  671SOL    MW4 2731   3.383   3.611   1.240  0.2110 -0.0763 -0.0079
  672SOL     OW 2732   3.616   3.486   1.158  0.5221  0.4763 -0.3793
  672SOL    HW2 2733   3.697   3.536   1.172  1.3550 -0.4281 -1.8485
  672SOL    HW3 2734   3.606   3.482   1.063 -0.9778  0.1220 -0.2154
  672SOL    MW4 2735   3.626   3.492   1.147  0.4339  0.3102 -0.5516
  673SOL     OW 2736   3.425   3.904   1.177  0.2325 -0.0952 -0.4191
  673SOL    HW2 2737   3.340   3.947   1.165  0.2134 -0.4325 -1.5132
  673SOL    HW3 2738   3.403   3.812   1.188  0.5569 -0.4269 -2.3877
  673SOL    MW4 2739   3.411   3.898   1.177  0.2725 -0.1838 -0.8233
  674SOL     OW 2740   3.145   4.003   1.193  0.2731 -0.1232 -0.2161
  674SOL    HW2 2741   3.129   4.020   1.286  0.4742  1.0071 -0.3894
  674SOL    HW3 2742   3.135   4.088   1.150  0.8246 -0.5127 -1.1394
  674SOL    MW4 2743   3.142   4.016   1.200  0.3722 -0.0253 -0.3607
  675SOL     OW 2744   3.114   4.255   1.047 -0.0522  0.3327 -0.3026
  675SOL    HW2 2745   3.187   4.302   1.087 -2.4431  2.6669  1.4678
  675SOL    HW3 2746   3.116   4.283   0.955  1.2189  0.3998 -0.2704
  675SOL    MW4 2747   3.124   4.265   1.040 -0.2000  0.6495 -0.0648
  676SOL     OW 2748   3.340   4.365   1.180 -0.7645 -0.0343 -0.1534
  676SOL    HW2 2749   3.423   4.319   1.168 -0.9884 -0.7120  0.8570
  676SOL    HW3 2750   3.362   4.457   1.166 -0.3510 -0.4428 -2.3355
  676SOL    MW4 2751   3.354   4.371   1.176 -0.7393 -0.1779 -0.3080
  677SOL     OW 2752   3.849   4.644   1.157  0.2645  0.0784  0.3167
  677SOL    HW2 2753   3.858   4.549   1.167  1.5028  0.1174 -0.3242
  677SOL    HW3 2754   3.843   4.658   1.063 -0.9591  0.5584  0.4606
  677SOL    MW4 2755   3.850   4.633   1.146  0.2663  0.1469  0.2511
  678SOL     OW 2756   3.604   0.085   1.293 -0.1322  0.4759 -0.3427
  678SOL    HW2 2757   3.615   0.173   1.257 -1.2028  1.1473  0.9192
  678SOL    HW3 2758   3.683   0.039   1.268  0.7040  1.9813 -0.5309
  678SOL    MW4 2759   3.616   0.091   1.285 -0.1628  0.7631 -0.2010
  679SOL     OW 2760   3.649   0.340   1.204 -0.6271 -0.0476 -0.7157
  679SOL    HW2 2761   3.734   0.374   1.232  0.2894 -1.6169 -1.5001
  679SOL    HW3 2762   3.585   0.398   1.246  0.8335  1.8336 -0.9942
  679SOL    MW4 2763   3.652   0.352   1.213 -0.3135 -0.0065 -0.8559
  680SOL     OW 2764   3.846   0.758   1.146 -0.2044 -0.6528  0.3212
  680SOL    HW2 2765   3.917   0.814   1.176  0.8993 -1.3130 -1.0164
  680SOL    HW3 2766   3.767   0.796   1.185  0.8702  0.0712  1.8284
  680SOL    MW4 2767   3.845   0.770   1.155  0.0830 -0.6445  0.3436
  681SOL     OW 2768   2.448   3.802   0.574  0.2534 -0.4774 -0.2822
  681SOL    HW2 2769   2.401   3.731   0.531  1.0395 -0.9201 -0.4293
  681SOL    HW3 2770   2.514   3.830   0.510  1.9210 -1.6411  0.8968
  681SOL    MW4 2771   2.451   3.797   0.560  0.5770 -0.6893 -0.1460
  682SOL     OW 2772   3.622   0.883   1.252  0.2956  0.4849  0.0191
  682SOL    HW2 2773   3.616   0.977   1.240 -0.0045  0.5397  0.6064
  682SOL    HW3 2774   3.555   0.847   1.193 -1.8593  0.8070  2.2277
  682SOL    MW4 2775   3.613   0.890   1.242 -0.0286  0.5346  0.3879
  683SOL     OW 2776   3.364   1.206   1.221 -0.8479  0.0886  0.3094
  683SOL    HW2 2777   3.382   1.294   1.187 -1.6126 -0.0133 -0.3859
  683SOL    HW3 2778   3.358   1.218   1.316 -0.0790  0.6290  0.2914
  683SOL    MW4 2779   3.365   1.219   1.229 -0.8476  0.1465  0.2153
  684SOL     OW 2780   3.393   2.028   0.848 -0.3272 -0.3094  0.2391
  684SOL    HW2 2781   3.481   1.993   0.865 -0.2147  0.5799  1.5581
  684SOL    HW3 2782   3.342   1.952   0.821  1.0324 -0.7169 -1.3046
  684SOL    MW4 2783   3.398   2.013   0.847 -0.1330 -0.2458  0.2094
  685SOL     OW 2784   4.430   2.372   0.244 -0.3129 -0.1346 -0.1256
  685SOL    HW2 2785   4.353   2.394   0.191  0.0958 -0.6490 -0.9564
  685SOL    HW3 2786   4.438   2.277   0.234 -1.1922 -0.4810  2.2072
  685SOL    MW4 2787   4.421   2.362   0.236 -0.3753 -0.2477  0.0725
  686SOL     OW 2788   3.680   2.631   0.887 -0.4055  0.1821 -0.7123
  686SOL    HW2 2789   3.774   2.622   0.901 -0.4334  0.3512 -0.4012
  686SOL    HW3 2790   3.657   2.556   0.833 -0.3045 -0.5862  0.2831
  686SOL    MW4 2791   3.689   2.620   0.882 -0.3955  0.1028 -0.5400
  687SOL     OW 2792   2.735   4.122   0.843 -0.4822 -0.1122 -0.0967
  687SOL    HW2 2793   2.778   4.036   0.852 -0.6796 -0.2508 -0.4693
  687SOL    HW3 2794   2.717   4.149   0.933 -0.7279 -0.6183  0.0071
  687SOL    MW4 2795   2.738   4.114   0.856 -0.5405 -0.1969 -0.1321
  688SOL     OW 2796   4.058   1.706   1.262  0.6400 -0.4554  0.0194
  688SOL    HW2 2797   4.061   1.721   1.356 -0.2600  1.6971 -0.2725
  688SOL    HW3 2798   4.048   1.793   1.223 -0.5571 -1.4357 -1.9887
  688SOL    MW4 2799   4.057   1.719   1.269  0.3629 -0.3008 -0.2841
  689SOL     OW 2800   4.079   2.465   1.274  0.3586  0.3066 -0.4061
  689SOL    HW2 2801   4.144   2.412   1.229  0.7649  0.6590 -0.2355
  689SOL    HW3 2802   4.096   2.450   1.367 -1.2650 -1.3959 -0.3435
  689SOL    MW4 2803   4.090   2.456   1.281  0.1974  0.1285 -0.3753
  690SOL     OW 2804   3.581   1.823   0.449 -0.3482 -0.5964  0.0479
  690SOL    HW2 2805   3.532   1.874   0.384 -0.3395 -0.1926  0.3530
  690SOL    HW3 2806   3.592   1.883   0.523 -0.3275 -1.0402  0.4097
  690SOL    MW4 2807   3.576   1.838   0.450 -0.3440 -0.6016  0.1358
  691SOL     OW 2808   1.044   0.420   0.550  0.2923  0.1263 -0.0751
  691SOL    HW2 2809   0.978   0.357   0.523 -0.3578  1.1319 -0.8675
  691SOL    HW3 2810   1.115   0.409   0.486 -0.7686  1.7220 -1.5876
  691SOL    MW4 2811   1.045   0.410   0.538  0.0664  0.4696 -0.3792
  692SOL     OW 2812   1.157   4.638   1.149  0.0877  0.3158 -0.4521
  692SOL    HW2 2813   1.163   4.549   1.182  0.2514  1.0195  1.4624
  692SOL    HW3 2814   1.176   4.630   1.055 -0.0268 -1.6602 -0.3267
  692SOL    MW4 2815   1.160   4.626   1.141  0.0942  0.1483 -0.1830
  693SOL     OW 2816   3.997   3.253   1.245  0.2157 -0.1008 -0.0819
  693SOL    HW2 2817   3.993   3.261   1.340 -1.6329  0.6552 -0.2113
  693SOL    HW3 2818   3.919   3.203   1.221 -0.0395  0.8494 -1.3104
  693SOL    MW4 2819   3.986   3.247   1.254 -0.0618  0.1245 -0.2611
  694SOL     OW 2820   3.569   3.241   1.271 -0.5791  0.2886  0.0348
  694SOL    HW2 2821   3.580   3.325   1.227 -0.8058  0.0477 -0.4906
  694SOL    HW3 2822   3.642   3.187   1.240  0.0000  0.5345  0.9587
  694SOL    MW4 2823   3.580   3.245   1.261 -0.5326  0.2894  0.0875
  695SOL     OW 2824   2.657   4.188   0.397 -0.3731  0.2955 -0.7394
  695SOL    HW2 2825   2.630   4.192   0.489 -1.1757 -1.1147 -0.8945
  695SOL    HW3 2826   2.752   4.199   0.399 -0.4670  0.9646  0.1952
  695SOL    MW4 2827   2.666   4.190   0.409 -0.4914  0.1979 -0.6365
  696SOL     OW 2828   3.838   3.627   1.216  0.4198  0.0702 -0.1301
  696SOL    HW2 2829   3.829   3.622   1.311  0.1726 -2.5068 -0.2449
  696SOL    HW3 2830   3.844   3.720   1.197 -1.3224  0.7093  2.2467
  696SOL    MW4 2831   3.837   3.638   1.226  0.1571 -0.1853  0.1683
  697SOL     OW 2832   1.392   4.068   0.581  0.1027 -0.1611  0.4497
  697SOL    HW2 2833   1.387   3.979   0.545  0.4702 -0.7924  1.9040
  697SOL    HW3 2834   1.484   4.092   0.573 -0.0488  0.2345 -0.2282
  697SOL    MW4 2835   1.403   4.059   0.575  0.1311 -0.1926  0.5521
  698SOL     OW 2836   3.627   4.015   1.303  0.0408 -0.0101 -0.0316
  698SOL    HW2 2837   3.617   4.009   1.398 -0.5514  0.9046 -0.0368
  698SOL    HW3 2838   3.546   3.978   1.268  0.3352 -0.5181 -0.1929
  698SOL    MW4 2839   3.615   4.009   1.311  0.0017  0.0439 -0.0535
  699SOL     OW 2840   3.593   4.244   1.131 -0.1589 -0.0040 -0.4406
  699SOL    HW2 2841   3.604   4.202   1.046 -0.3739 -0.2876 -0.3280
  699SOL    HW3 2842   3.608   4.175   1.195  3.8933  1.0456 -0.1323
  699SOL    MW4 2843   3.596   4.229   1.129  0.3474  0.0973 -0.3850
  700SOL     OW 2844   3.837   4.372   1.208 -0.0253 -0.1512  0.1531
  700SOL    HW2 2845   3.822   4.378   1.303 -0.5836  0.2537  0.0369
  700SOL    HW3 2846   3.755   4.337   1.173 -0.8535  2.3437 -0.5156
  700SOL    MW4 2847   3.824   4.368   1.216 -0.2081  0.2313  0.0496
  701SOL     OW 2848   4.079   0.123   1.188 -0.2207 -0.1783 -0.0800
  701SOL    HW2 2849   3.997   0.075   1.174 -0.7483  0.2968  1.2927
  701SOL    HW3 2850   4.099   0.109   1.281  1.1438 -0.1095 -0.3577
  701SOL    MW4 2851   4.071   0.115   1.199 -0.1106 -0.1066  0.0645
  702SOL     OW 2852   0.005   1.348   0.543 -0.3639  0.2301 -0.3211
  702SOL    HW2 2853   0.003   1.400   0.462  3.0173 -0.2156 -0.7746
  702SOL    HW3 2854  -0.013   1.412   0.612  0.1361  1.3145 -1.1643
  702SOL    MW4 2855   0.003   1.364   0.541  0.1478  0.3142 -0.4922
  703SOL     OW 2856   3.309   2.851   0.426 -0.2852  0.4337 -0.0052
  703SOL    HW2 2857   3.326   2.784   0.493  1.0128  0.4856 -0.2608
  703SOL    HW3 2858   3.228   2.892   0.454 -0.7570 -0.8098  0.5149
  703SOL    MW4 2859   3.301   2.847   0.439 -0.1762  0.2763  0.0297
  704SOL     OW 2860   3.095   1.875   0.890 -0.1423 -0.2000  0.1747
  704SOL    HW2 2861   3.112   1.891   0.983 -1.3918 -1.7879  0.7107
  704SOL    HW3 2862   3.000   1.869   0.884 -0.3137  3.1841 -1.8075
  704SOL    MW4 2863   3.085   1.876   0.901 -0.3300  0.0370 -0.0161
  705SOL     OW 2864   3.397   1.454   1.132 -0.1990 -0.1100  0.3401
  705SOL    HW2 2865   3.336   1.507   1.184  1.0874 -0.6202  2.4167
  705SOL    HW3 2866   3.483   1.490   1.152  0.2894  0.1110 -1.9938
  705SOL    MW4 2867   3.400   1.466   1.142  0.0355 -0.1482  0.3061
  706SOL     OW 2868   4.055   0.929   1.247  0.9272 -0.3572 -0.1145
  706SOL    HW2 2869   4.055   1.012   1.200 -0.2188  0.1737  0.8246
  706SOL    HW3 2870   4.047   0.952   1.339 -2.1718 -1.5700 -0.0133
  706SOL    MW4 2871   4.054   0.943   1.253  0.3672 -0.4472  0.0228
  707SOL     OW 2872   0.011   1.157   1.126  0.3708  0.6045 -0.0377
  707SOL    HW2 2873  -0.021   1.163   1.036 -0.2760  0.7455  0.1983
  707SOL    HW3 2874  -0.058   1.198   1.178  0.0433 -0.8378  0.6791
  707SOL    MW4 2875  -0.002   1.164   1.121  0.2427  0.4327  0.0881
  708SOL     OW 2876   1.005   0.044   0.477 -0.2839 -0.0291 -0.4143
  708SOL    HW2 2877   1.001   0.024   0.571  0.3032  0.5895 -0.2519
  708SOL    HW3 2878   0.937   0.111   0.464  0.6488  0.9807 -0.1396
  708SOL    MW4 2879   0.995   0.050   0.488 -0.0834  0.1858 -0.3566
  709SOL     OW 2880   3.034   0.720   0.630  0.1345 -0.5425  0.5128
  709SOL    HW2 2881   3.064   0.810   0.615 -0.0108 -0.4812  0.5910
  709SOL    HW3 2882   2.970   0.728   0.701 -2.1614 -0.2984 -1.5155
  709SOL    MW4 2883   3.030   0.733   0.637 -0.1876 -0.5022  0.2555
  710SOL     OW 2884   0.319   1.099   0.381 -0.3801 -0.8455  0.2713
  710SOL    HW2 2885   0.225   1.087   0.386 -0.1109 -2.6771  1.2505
  710SOL    HW3 2886   0.355   1.038   0.446  1.4664 -0.1505 -0.0629
  710SOL    MW4 2887   0.312   1.089   0.390 -0.1010 -0.9956  0.3564
  711SOL     OW 2888   0.903   4.305   0.863 -0.3721  0.1672 -0.0472
  711SOL    HW2 2889   0.854   4.240   0.812  0.9116 -0.4212 -0.5504
  711SOL    HW3 2890   0.878   4.289   0.954 -1.8694  0.5312 -0.3705
  711SOL    MW4 2891   0.893   4.295   0.868 -0.4002  0.1378 -0.1562
  712SOL     OW 2892   2.431   1.069   0.490 -0.0935  0.0955  0.3571
  712SOL    HW2 2893   2.492   1.046   0.421  0.4142 -1.5908  1.3495
  712SOL    HW3 2894   2.440   1.164   0.499  1.5657  0.0097 -0.2729
  712SOL    MW4 2895   2.440   1.079   0.482  0.1924 -0.1383  0.4050
  713SOL     OW 2896   0.914   4.440   0.437  0.3043  0.1651 -0.1610
  713SOL    HW2 2897   0.932   4.534   0.445  0.6625  0.2446 -1.6905
  713SOL    HW3 2898   0.837   4.436   0.380 -0.1209 -0.4467  0.4519
  713SOL    MW4 2899   0.906   4.452   0.430  0.2955  0.0949 -0.2820
  714SOL     OW 2900   0.217   1.510   1.138 -0.5763  0.1533 -0.4604
  714SOL    HW2 2901   0.282   1.564   1.182 -0.0894 -0.0252 -0.9625
  714SOL    HW3 2902   0.220   1.536   1.047 -1.9810  0.9131 -0.3089
  714SOL    MW4 2903   0.226   1.520   1.132 -0.6974  0.2300 -0.5066
  715SOL     OW 2904   4.119   3.952   0.487 -0.0717  0.2100 -0.3935
  715SOL    HW2 2905   4.097   4.042   0.462  0.1760  0.1155 -0.9503
  715SOL    HW3 2906   4.036   3.904   0.479 -0.4935  0.6417  1.1047
  715SOL    MW4 2907   4.105   3.958   0.483 -0.0949  0.2544 -0.2693
  716SOL     OW 2908   4.214   3.098   1.142 -0.1288 -0.1895 -0.0006
  716SOL    HW2 2909   4.190   3.105   1.049  0.0065 -1.1451 -0.1125
  716SOL    HW3 2910   4.141   3.141   1.188 -1.0533 -1.2341 -0.4588
  716SOL    MW4 2911   4.201   3.105   1.136 -0.2332 -0.4535 -0.0758
  717SOL     OW 2912   1.477   4.101   0.869  0.1447 -0.1900  0.0794
  717SOL    HW2 2913   1.405   4.129   0.925 -1.0611 -1.0849 -0.9821
  717SOL    HW3 2914   1.440   4.101   0.781  0.7352 -2.9062 -0.2141
  717SOL    MW4 2915   1.462   4.105   0.865  0.0635 -0.6666 -0.0994
  718SOL     OW 2916   3.775   3.099   1.158  0.4937  0.1452 -0.3602
  718SOL    HW2 2917   3.783   3.008   1.184 -0.7974  0.1900  0.2333
  718SOL    HW3 2918   3.736   3.096   1.070  2.1580  0.0904 -1.1317
  718SOL    MW4 2919   3.771   3.087   1.150  0.5431  0.1438 -0.3836
  719SOL     OW 2920   4.304   3.569   1.266  0.1560  0.1088 -0.6773
  719SOL    HW2 2921   4.376   3.550   1.206  0.2746  1.1918 -0.8880
  719SOL    HW3 2922   4.225   3.558   1.212  0.1890 -0.5047 -0.6013
  719SOL    MW4 2923   4.303   3.565   1.251  0.1760  0.1707 -0.6951
  720SOL     OW 2924   4.075   3.502   1.126 -0.0392  0.3125  0.3238
  720SOL    HW2 2925   4.065   3.415   1.166  0.8799 -0.1745 -0.4709
  720SOL    HW3 2926   3.990   3.544   1.139 -1.0104 -1.2776 -0.6165
  720SOL    MW4 2927   4.062   3.496   1.133 -0.0458  0.0384  0.0949
  721SOL     OW 2928   0.008   3.990   1.250  0.2428  0.0311 -0.1822
  721SOL    HW2 2929   0.002   4.013   1.343 -1.1704 -1.0438  0.0127
  721SOL    HW3 2930  -0.076   3.949   1.230  0.8116 -0.4044 -1.7610
  721SOL    MW4 2931  -0.003   3.988   1.260  0.1311 -0.1683 -0.3648
  722SOL     OW 2932   4.289   2.693   0.776  0.3419  0.7527 -0.0027
  722SOL    HW2 2933   4.194   2.684   0.766  0.0636  1.4143  1.9238
  722SOL    HW3 2934   4.315   2.751   0.704 -0.2452 -1.7763 -2.3669
  722SOL    MW4 2935   4.280   2.700   0.765  0.2284  0.5064 -0.0604
  723SOL     OW 2936   2.311   1.551   0.889  0.5522 -0.0816  0.9064
  723SOL    HW2 2937   2.343   1.595   0.811  0.5759 -0.4583  0.7058
  723SOL    HW3 2938   2.217   1.566   0.888  0.4027 -1.0230  0.2190
  723SOL    MW4 2939   2.303   1.559   0.879  0.5357 -0.2556  0.7893
  724SOL     OW 2940   3.352   4.582   0.450  0.0617  0.3572 -0.0249
  724SOL    HW2 2941   3.297   4.653   0.416  1.4407  0.5311 -1.9999
  724SOL    HW3 2942   3.440   4.619   0.453  0.3640 -0.4657  1.4296
  724SOL    MW4 2943   3.356   4.596   0.446  0.2835  0.2718 -0.0936
  725SOL     OW 2944   0.267   4.627   1.626 -0.4322  0.2594  0.1899
  725SOL    HW2 2945   0.345   4.667   1.589 -0.6130  0.1068 -0.3645
  725SOL    HW3 2946   0.194   4.675   1.586 -0.5933  2.1225  2.6593
  725SOL    MW4 2947   0.268   4.638   1.615 -0.4773  0.4849  0.4426
  726SOL     OW 2948   0.029   0.089   1.530 -0.1442 -0.3295 -0.1887
  726SOL    HW2 2949  -0.048   0.037   1.550  0.5689 -1.5278 -0.4875
  726SOL    HW3 2950   0.020   0.114   1.438 -0.6603  0.3836  0.0532
  726SOL    MW4 2951   0.018   0.086   1.521 -0.1182 -0.3935 -0.1962
  727SOL     OW 2952   4.447   0.342   1.597  0.0349 -0.1065  0.3823
  727SOL    HW2 2953   4.463   0.351   1.691 -0.5010 -0.0160  0.4679
  727SOL    HW3 2954   4.465   0.250   1.578  0.7730  0.0267  0.4496
  727SOL    MW4 2955   4.451   0.331   1.607  0.0610 -0.0770  0.4025
  728SOL     OW 2956   0.224   0.452   1.507 -0.1878 -0.0517 -0.0686
  728SOL    HW2 2957   0.135   0.432   1.535 -0.1945 -1.1641 -0.8547
  728SOL    HW3 2958   0.217   0.470   1.413  0.5246 -0.8361 -0.2764
  728SOL    MW4 2959   0.212   0.452   1.498 -0.0947 -0.3019 -0.1998
  729SOL     OW 2960   0.240   0.701   1.612 -0.1524  0.2420 -0.1284
  729SOL    HW2 2961   0.317   0.749   1.583  0.2085  0.2779  0.8414
  729SOL    HW3 2962   0.244   0.618   1.564  2.0388 -0.9231  1.9077
  729SOL    MW4 2963   0.251   0.696   1.602  0.1844  0.0930  0.2681
  730SOL     OW 2964   0.018   0.863   1.496 -0.1055  0.3085  0.0848
  730SOL    HW2 2965   0.024   0.946   1.544  0.2940  0.0335  0.5199
  730SOL    HW3 2966   0.071   0.802   1.548  0.8478  0.1607 -1.0408
  730SOL    MW4 2967   0.026   0.866   1.509  0.0725  0.2527 -0.0064
  731SOL     OW 2968   0.005   1.118   1.636  0.1252 -0.7268 -0.3518
  731SOL    HW2 2969   0.019   1.118   1.731  0.6098 -0.9460 -0.4238
  731SOL    HW3 2970   0.081   1.164   1.601  1.7441 -3.7169 -0.9121
  731SOL    MW4 2971   0.017   1.124   1.644  0.4034 -1.1503 -0.4352
  732SOL     OW 2972   0.201   1.258   1.529  0.2700 -0.0892 -0.1696
  732SOL    HW2 2973   0.241   1.340   1.557 -0.7686  0.7815 -1.1717
  732SOL    HW3 2974   0.205   1.262   1.433  0.1822 -1.1972 -0.2208
  732SOL    MW4 2975   0.207   1.270   1.520  0.1214 -0.1205 -0.3085
  733SOL     OW 2976   0.261   1.525   1.635  0.1771  0.4279 -0.3875
  733SOL    HW2 2977   0.250   1.523   1.730  1.2361 -0.3520 -0.2738
  733SOL    HW3 2978   0.177   1.557   1.602  0.1814  1.7941  0.8670
  733SOL    MW4 2979   0.249   1.529   1.643  0.3174  0.5052 -0.2069
  734SOL     OW 2980   0.008   1.591   1.528 -0.1695  0.3315  0.1450
  734SOL    HW2 2981  -0.005   1.681   1.557 -0.1735  0.4376 -0.1834
  734SOL    HW3 2982   0.014   1.597   1.433 -1.3267 -0.1462  0.0280
  734SOL    MW4 2983   0.007   1.604   1.519 -0.3228  0.2825  0.0862
  735SOL     OW 2984   0.015   1.866   1.603  0.1054  0.3252  0.0460
  735SOL    HW2 2985   0.025   1.880   1.697  0.8087 -0.5251  0.1090
  735SOL    HW3 2986  -0.056   1.925   1.577  0.2041  0.8884  1.0243
  735SOL    MW4 2987   0.007   1.876   1.612  0.2117  0.2873  0.1835
  736SOL     OW 2988   0.232   2.033   1.522 -0.0553  0.8209 -0.1819
  736SOL    HW2 2989   0.150   1.988   1.540  1.0479 -1.1183  0.1087
  736SOL    HW3 2990   0.244   2.026   1.427  0.6270 -0.4320 -0.0128
  736SOL    MW4 2991   0.223   2.026   1.512  0.1803  0.3998 -0.1212
  737SOL     OW 2992   0.268   2.297   1.555 -0.2649 -0.2068  0.4911
  737SOL    HW2 2993   0.263   2.307   1.650 -0.7018  0.7844  0.3705
  737SOL    HW3 2994   0.253   2.204   1.539  1.8767 -0.7622  1.5375
  737SOL    MW4 2995   0.266   2.286   1.565 -0.0400 -0.1493  0.6132
  738SOL     OW 2996   0.045   2.443   1.494 -0.0922  0.1625 -0.1657
  738SOL    HW2 2997  -0.016   2.383   1.536  0.3604 -1.8404 -2.3065
  738SOL    HW3 2998   0.131   2.406   1.510  0.3099  1.0294 -0.2709
  738SOL    MW4 2999   0.048   2.430   1.502  0.0206  0.0126 -0.4621
  739SOL     OW 3000   0.017   2.687   1.621 -0.3117  0.2377 -0.3368
  739SOL    HW2 3001  -0.055   2.728   1.574 -1.5268 -0.5863  0.7801
  739SOL    HW3 3002   0.029   2.602   1.577 -0.5091  0.0614 -0.0470
  739SOL    MW4 3003   0.009   2.681   1.609 -0.4980  0.1056 -0.1513
  740SOL     OW 3004   0.233   2.837   1.504 -0.4960  0.3418  0.6370
  740SOL    HW2 3005   0.310   2.786   1.528  1.1750  1.3633 -2.1940
  740SOL    HW3 3006   0.160   2.793   1.547  1.5646 -1.0776  2.8191
  740SOL    MW4 3007   0.234   2.825   1.513 -0.0037  0.2894  0.5513
  741SOL     OW 3008   0.252   3.093   1.589 -0.9380 -0.0552  0.0056
  741SOL    HW2 3009   0.169   3.139   1.578 -0.1328  1.1237 -1.1732
  741SOL    HW3 3010   0.233   3.003   1.561 -1.1107  0.8758 -2.9837
  741SOL    MW4 3011   0.239   3.087   1.584 -0.8546  0.2229 -0.5441
  742SOL     OW 3012   0.009   3.215   1.516  0.2240 -0.0565 -0.4395
  742SOL    HW2 3013  -0.010   3.306   1.541  0.7513  0.3468 -1.5091
  742SOL    HW3 3014   0.005   3.215   1.421 -1.2023 -1.4756 -0.4025
  742SOL    MW4 3015   0.006   3.227   1.507  0.1054 -0.1903 -0.5757
  743SOL     OW 3016   0.005   3.481   1.580 -0.1502  0.2908  0.4997
  743SOL    HW2 3017   0.001   3.467   1.674  0.3516  1.3928  0.6914
  743SOL    HW3 3018  -0.075   3.529   1.559 -0.5131 -0.4030  0.2781
  743SOL    MW4 3019  -0.006   3.486   1.589 -0.1319  0.3448  0.4959
  744SOL     OW 3020   0.245   3.608   1.542 -0.0689 -0.2656 -0.0302
  744SOL    HW2 3021   0.250   3.702   1.562  0.3105 -0.1839 -0.5114
  744SOL    HW3 3022   0.152   3.587   1.554  0.2059 -0.3137  2.2068
  744SOL    MW4 3023   0.233   3.618   1.546  0.0174 -0.2611  0.2015
  745SOL     OW 3024   0.221   3.884   1.597  0.3763 -0.2757 -0.3297
  745SOL    HW2 3025   0.237   3.907   1.689  3.1272 -3.0696 -0.0260
  745SOL    HW3 3026   0.289   3.932   1.548 -0.6544  0.6662 -0.8541
  745SOL    MW4 3027   0.232   3.894   1.603  0.6033 -0.5200 -0.3589
  746SOL     OW 3028   4.481   4.024   1.531 -0.3548  0.0207  0.2140
  746SOL    HW2 3029   4.495   4.113   1.565  0.3147  0.8566 -2.1656
  746SOL    HW3 3030   4.556   3.975   1.563  0.0432  0.6899  0.3323
  746SOL    MW4 3031   4.493   4.029   1.540 -0.2136  0.2193 -0.0843
  747SOL     OW 3032   4.485   4.268   1.627  0.2781  0.2177 -0.1153
  747SOL    HW2 3033   4.458   4.261   1.718 -2.3169 -1.3372 -0.9584
  747SOL    HW3 3034   4.405   4.292   1.580  1.3493 -0.0125 -2.1185
  747SOL    MW4 3035   4.471   4.270   1.633  0.0768 -0.0172 -0.4907
  748SOL     OW 3036   0.230   4.354   1.522 -0.2506 -0.2721  0.0797
  748SOL    HW2 3037   0.161   4.302   1.564 -0.2158  0.0491  0.5349
  748SOL    HW3 3038   0.235   4.434   1.573  0.4443 -0.2798  0.0327
  748SOL    MW4 3039   0.222   4.357   1.534 -0.1543 -0.2303  0.1335
  749SOL     OW 3040   0.735   4.621   1.640  0.0614 -0.8617 -0.4700
  749SOL    HW2 3041   0.807   4.675   1.607 -0.8748  1.1771  0.7521
  749SOL    HW3 3042   0.658   4.649   1.591 -0.2027 -1.9725 -0.7075
  749SOL    MW4 3043   0.734   4.632   1.629 -0.0970 -0.7391 -0.3401
  750SOL     OW 3044   0.505   0.052   1.513 -0.2438  0.3118  0.1972
  750SOL    HW2 3045   0.485   0.144   1.532  0.4350  0.5373 -0.1496
  750SOL    HW3 3046   0.484   0.041   1.420 -0.3951  0.0987  0.2570
  750SOL    MW4 3047   0.500   0.063   1.503 -0.1742  0.3135  0.1593
  751SOL     OW 3048   0.432   0.308   1.584 -0.3216 -0.0744  0.0376
  751SOL    HW2 3049   0.504   0.367   1.559 -0.9120  1.0126  0.8941
  751SOL    HW3 3050   0.353   0.349   1.550 -0.6440 -0.8569 -0.1864
  751SOL    MW4 3051   0.431   0.321   1.576 -0.4420 -0.0342  0.1211
  752SOL     OW 3052   0.631   0.486   1.527  0.5773 -0.0366  0.3175
  752SOL    HW2 3053   0.643   0.571   1.570  3.6930 -0.3170  0.1703
  752SOL    HW3 3054   0.656   0.503   1.436  0.5787 -0.9712  0.1457
  752SOL    MW4 3055   0.636   0.500   1.520  0.9885 -0.1969  0.2754
  753SOL     OW 3056   0.672   0.704   1.671  0.1046  0.4914  0.5530
  753SOL    HW2 3057   0.675   0.718   1.765  0.3397 -2.0801  0.9456
  753SOL    HW3 3058   0.754   0.741   1.638  0.6929  0.0705  1.5469
  753SOL    MW4 3059   0.683   0.711   1.679  0.2131  0.0966  0.7359
  754SOL     OW 3060   0.461   0.865   1.577  0.4850 -0.3314  0.3522
  754SOL    HW2 3061   0.465   0.956   1.606  0.1716  0.5860 -2.3526
  754SOL    HW3 3062   0.539   0.824   1.616 -1.4238 -0.0013  4.8871
  754SOL    MW4 3063   0.472   0.871   1.586  0.1918 -0.1668  0.5937
  755SOL     OW 3064   0.447   1.130   1.672 -0.1454  0.5531  0.1749
  755SOL    HW2 3065   0.527   1.155   1.627  0.3153  0.3423  0.8715
  755SOL    HW3 3066   0.378   1.179   1.628  0.3988  0.9232 -0.2614
  755SOL    MW4 3067   0.448   1.139   1.660 -0.0128  0.5742  0.2093
  756SOL     OW 3068   0.665   1.257   1.543  0.1619  0.4470 -0.4915
  756SOL    HW2 3069   0.675   1.343   1.583 -0.1627  0.3354 -0.1629
  756SOL    HW3 3070   0.688   1.270   1.451  1.2667  0.6341 -0.2031
  756SOL    MW4 3071   0.670   1.270   1.537  0.2648  0.4569 -0.4101
  757SOL     OW 3072   0.674   1.534   1.622  0.0966 -0.0548  0.1726
  757SOL    HW2 3073   0.740   1.583   1.574 -0.4443  1.0580  0.5550
  757SOL    HW3 3074   0.590   1.568   1.590 -0.3639 -2.7483 -1.6690
  757SOL    MW4 3075   0.671   1.545   1.611 -0.0355 -0.2633 -0.0198
  758SOL     OW 3076   0.471   1.664   1.539  0.1782 -0.3422 -0.0306
  758SOL    HW2 3077   0.474   1.750   1.581 -1.2350 -0.3891  0.1909
  758SOL    HW3 3078   0.392   1.623   1.575  0.6011 -1.5530 -0.4788
  758SOL    MW4 3079   0.461   1.670   1.550  0.0475 -0.5082 -0.0606
  759SOL     OW 3080   0.452   1.925   1.664 -0.0052 -0.6483 -0.6737
  759SOL    HW2 3081   0.452   1.947   1.757  1.3179 -1.4297 -0.4631
  759SOL    HW3 3082   0.368   1.957   1.631 -0.2064  0.2326  0.6434
  759SOL    MW4 3083   0.441   1.932   1.672  0.1429 -0.6351 -0.4721
  760SOL     OW 3084   0.667   1.995   1.518  0.1342  0.6028  0.0284
  760SOL    HW2 3085   0.736   1.948   1.564  0.6042 -0.5805 -1.8393
  760SOL    HW3 3086   0.587   1.971   1.565  0.6343 -0.3930  0.3899
  760SOL    MW4 3087   0.665   1.986   1.530  0.2621  0.3153 -0.1702
  761SOL     OW 3088   0.708   2.256   1.617  0.4213 -0.4003  0.5662
  761SOL    HW2 3089   0.640   2.310   1.577  0.3121 -0.4957  0.6241
  761SOL    HW3 3090   0.690   2.168   1.586  0.2527 -0.4984  0.9343
  761SOL    MW4 3091   0.697   2.252   1.608  0.3846 -0.4261  0.6225
  762SOL     OW 3092   0.506   2.408   1.466  0.0776  0.3854 -0.0299
  762SOL    HW2 3093   0.477   2.499   1.473 -0.8594  0.1336 -0.5755
  762SOL    HW3 3094   0.428   2.356   1.483  0.4529 -0.3203 -0.4295
  762SOL    MW4 3095   0.492   2.413   1.469  0.0035  0.2592 -0.1546
  763SOL     OW 3096   0.449   2.659   1.587  0.3524 -0.5177  0.2799
  763SOL    HW2 3097   0.440   2.682   1.679 -1.7232  1.1826 -0.3021
  763SOL    HW3 3098   0.523   2.712   1.556 -0.6599  0.9909  0.3602
  763SOL    MW4 3099   0.458   2.669   1.595 -0.0550 -0.0944  0.2137
  764SOL     OW 3100   0.694   2.783   1.511  0.0010 -0.0129 -0.8787
  764SOL    HW2 3101   0.682   2.878   1.521 -1.6815 -0.2553 -0.5085
  764SOL    HW3 3102   0.712   2.771   1.418  2.3049  0.8631 -0.5879
  764SOL    MW4 3103   0.695   2.794   1.500  0.0830  0.0708 -0.7917
  765SOL     OW 3104   0.693   3.043   1.584 -0.1772  0.1165 -0.0734
  765SOL    HW2 3105   0.778   3.084   1.570 -0.1770  0.7121  1.6039
  765SOL    HW3 3106   0.631   3.099   1.537  0.3930 -0.5394 -1.6278
  765SOL    MW4 3107   0.696   3.056   1.576 -0.1020  0.1087 -0.0573
  766SOL     OW 3108   0.485   3.189   1.463  0.1715 -0.0335 -0.4082
  766SOL    HW2 3109   0.407   3.144   1.494  0.8113  0.0845  1.4127
  766SOL    HW3 3110   0.482   3.179   1.368 -2.2240  0.2726 -0.3877
  766SOL    MW4 3111   0.474   3.182   1.454 -0.0601  0.0224 -0.1653
  767SOL     OW 3112   0.463   3.433   1.628 -0.0309 -0.2781  0.0421
  767SOL    HW2 3113   0.479   3.357   1.572  0.9422 -0.5493  0.6575
  767SOL    HW3 3114   0.386   3.475   1.591 -1.6820 -2.5890  0.7486
  767SOL    MW4 3115   0.455   3.428   1.616 -0.1203 -0.6189  0.2165
  768SOL     OW 3116   0.707   3.577   1.228  0.0696  0.2256 -0.3391
  768SOL    HW2 3117   0.698   3.666   1.194  0.4559  0.2026 -0.5054
  768SOL    HW3 3118   0.705   3.588   1.323 -1.4442  0.2374 -0.3725
  768SOL    MW4 3119   0.706   3.590   1.236 -0.0792  0.2241 -0.3654
  769SOL     OW 3120   0.685   3.857   1.570  0.0864 -0.1142 -0.3302
  769SOL    HW2 3121   0.768   3.885   1.531 -0.4240  0.4785 -0.9935
  769SOL    HW3 3122   0.688   3.761   1.567  0.2768 -0.0813 -1.3402
  769SOL    MW4 3123   0.696   3.848   1.565  0.0442 -0.0317 -0.5510
  770SOL     OW 3124   0.456   3.982   1.480  0.1542 -0.1736  0.1542
  770SOL    HW2 3125   0.531   3.928   1.503 -1.3229 -2.1248  0.4770
  770SOL    HW3 3126   0.454   3.982   1.384 -0.3867 -1.4755  0.1614
  770SOL    MW4 3127   0.465   3.975   1.470 -0.1120 -0.6025  0.1979
  771SOL     OW 3128   0.452   4.217   1.623  0.2133  0.0355  0.0662
  771SOL    HW2 3129   0.459   4.134   1.575  0.2529 -0.1302  0.3531
  771SOL    HW3 3130   0.367   4.253   1.597  0.5411  0.2782 -0.6505
  771SOL    MW4 3131   0.442   4.211   1.613  0.2617  0.0453  0.0095
  772SOL     OW 3132   0.681   4.357   1.520 -0.2329  0.0145 -0.1613
  772SOL    HW2 3133   0.595   4.324   1.547 -1.4469  1.8320 -1.6810
  772SOL    HW3 3134   0.695   4.435   1.574 -0.4829  0.8966 -1.3613
  772SOL    MW4 3135   0.671   4.363   1.531 -0.4261  0.3710 -0.5201
  773SOL     OW 3136   1.143   4.664   1.609  0.1926  0.4563  0.0481
  773SOL    HW2 3137   1.138   4.670   1.704 -0.3635  0.2974  0.0272
  773SOL    HW3 3138   1.226   4.707   1.587  0.0419  1.0135  0.5543
  773SOL    MW4 3139   1.153   4.670   1.619  0.0995  0.5088  0.1122
  774SOL     OW 3140   0.917   0.112   1.512  0.1450  0.1064 -0.1170
  774SOL    HW2 3141   1.000   0.083   1.550  0.8989  0.2542 -1.6425
  774SOL    HW3 3142   0.902   0.198   1.552  0.5318 -0.0859  0.4512
  774SOL    MW4 3143   0.926   0.120   1.522  0.2955  0.1005 -0.2433
  775SOL     OW 3144   0.895   0.374   1.630  0.2479  0.2350 -0.1688
  775SOL    HW2 3145   0.886   0.382   1.725  0.9093  0.5468 -0.1319
  775SOL    HW3 3146   0.810   0.403   1.596 -0.3345 -0.7916  0.3644
  775SOL    MW4 3147   0.882   0.378   1.638  0.2583  0.1407 -0.0935
  776SOL     OW 3148   1.142   0.437   1.526  0.4494  0.0583 -0.3289
  776SOL    HW2 3149   1.051   0.421   1.550 -0.0940  0.0701 -2.2656
  776SOL    HW3 3150   1.156   0.530   1.543  0.7611 -0.3731  1.9618
  776SOL    MW4 3151   1.132   0.447   1.531  0.4188  0.0030 -0.2822
  777SOL     OW 3152   1.163   0.702   1.578  0.0285  0.6570  0.3852
  777SOL    HW2 3153   1.144   0.722   1.669 -0.3541  0.1965  0.4068
  777SOL    HW3 3154   1.233   0.763   1.554  0.4939  0.4146  1.1408
  777SOL    MW4 3155   1.170   0.713   1.587  0.0395  0.5642  0.4877
  778SOL     OW 3156   0.902   0.857   1.552  0.6047  0.1848 -0.2511
  778SOL    HW2 3157   0.992   0.825   1.561  0.8655  0.9213 -0.2038
  778SOL    HW3 3158   0.895   0.881   1.460  0.4492  0.1210 -0.2558
  778SOL    MW4 3159   0.913   0.856   1.541  0.6186  0.2735 -0.2453
  779SOL     OW 3160   0.894   1.128   1.637 -0.0824  0.3711 -0.1098
  779SOL    HW2 3161   0.893   1.041   1.598  1.5338  0.5353 -0.5430
  779SOL    HW3 3162   0.816   1.171   1.601 -0.8325 -0.8446  0.0237
  779SOL    MW4 3163   0.884   1.122   1.627  0.0318  0.2325 -0.1494
  780SOL     OW 3164   1.090   1.303   1.531  0.4120 -0.0509  0.2315
  780SOL    HW2 3165   1.174   1.257   1.539 -0.4842 -1.7919 -0.1115
  780SOL    HW3 3166   1.026   1.244   1.570 -0.9241  0.4685 -1.0945
  780SOL    MW4 3167   1.093   1.289   1.537  0.1174 -0.2122  0.0113
  781SOL     OW 3168   1.095   1.566   1.614 -0.1192 -0.1364 -0.2281
  781SOL    HW2 3169   1.180   1.595   1.583 -0.1421  0.9114  0.6997
  781SOL    HW3 3170   1.089   1.475   1.584  1.1549 -0.1000 -0.6132
  781SOL    MW4 3171   1.105   1.557   1.606  0.0459  0.0066 -0.1564
  782SOL     OW 3172   0.864   1.643   1.470 -0.6232  0.2057 -0.0008
  782SOL    HW2 3173   0.954   1.622   1.492 -0.1083  2.1297 -0.1573
  782SOL    HW3 3174   0.865   1.656   1.375 -1.0462  0.2914  0.0050
  782SOL    MW4 3175   0.876   1.642   1.460 -0.6111  0.4710 -0.0207
  783SOL     OW 3176   0.878   1.862   1.642  0.0278 -0.1595 -0.2733
  783SOL    HW2 3177   0.937   1.932   1.614  0.8400 -0.8600 -0.3323
  783SOL    HW3 3178   0.883   1.797   1.572  0.6880 -1.1083  0.6623
  783SOL    MW4 3179   0.886   1.863   1.629  0.2221 -0.3773 -0.1577
  784SOL     OW 3180   1.083   2.023   1.505 -0.4297 -0.0840 -0.3609
  784SOL    HW2 3181   1.172   1.991   1.516  0.1736  0.5298 -2.9903
  784SOL    HW3 3182   1.089   2.117   1.523 -0.9947 -0.3903  1.5221
  784SOL    MW4 3183   1.096   2.032   1.509 -0.4246 -0.0432 -0.4593
  785SOL     OW 3184   1.144   2.293   1.582 -0.6458 -0.6405  0.1776
  785SOL    HW2 3185   1.210   2.344   1.535  1.1442  0.9420  4.2700
  785SOL    HW3 3186   1.062   2.339   1.564  0.2862  1.0313  0.1618
  785SOL    MW4 3187   1.142   2.306   1.573 -0.2867 -0.2110  0.7155
  786SOL     OW 3188   0.911   2.403   1.529 -0.4174  0.3004 -0.4801
  786SOL    HW2 3189   0.898   2.487   1.573 -0.2862 -0.1833  0.4979
  786SOL    HW3 3190   0.839   2.348   1.561  0.5314 -0.5136  0.2967
  786SOL    MW4 3191   0.900   2.406   1.539 -0.2749  0.1290 -0.2486
  787SOL     OW 3192   0.913   2.664   1.631  0.1161 -0.5891  0.2434
  787SOL    HW2 3193   0.912   2.689   1.723  1.2711 -1.8165  0.6113
  787SOL    HW3 3194   0.829   2.694   1.597 -0.1603  0.2245  1.5985
  787SOL    MW4 3195   0.902   2.671   1.639  0.2320 -0.6435  0.4708
  788SOL     OW 3196   1.097   2.794   1.461 -0.4415 -0.1878 -0.0522
  788SOL    HW2 3197   1.110   2.887   1.481  0.3764 -0.5593  1.1942
  788SOL    HW3 3198   1.034   2.764   1.527 -0.6706 -0.5304 -0.4232
  788SOL    MW4 3199   1.090   2.802   1.472 -0.3639 -0.2820  0.0633
  789SOL     OW 3200   1.146   3.033   1.590 -0.7205 -0.2120  0.1764
  789SOL    HW2 3201   1.164   3.048   1.682 -2.2893 -1.5131  0.7060
  789SOL    HW3 3202   1.215   3.082   1.544 -1.4791  2.6000  1.9396
  789SOL    MW4 3203   1.158   3.041   1.596 -1.0276 -0.0124  0.4787
  790SOL     OW 3204   0.919   3.177   1.512  0.0220  0.3767  0.4407
  790SOL    HW2 3205   0.998   3.131   1.539 -1.2201 -0.8939  2.0370
  790SOL    HW3 3206   0.915   3.165   1.417  1.0574 -0.6597  0.5230
  790SOL    MW4 3207   0.929   3.169   1.503 -0.0052  0.0722  0.6622
  791SOL     OW 3208   0.687   3.569   1.507 -0.5232 -0.1127 -0.0524
  791SOL    HW2 3209   0.768   3.519   1.516 -0.1401  0.5078 -0.0068
  791SOL    HW3 3210   0.621   3.517   1.553 -0.2341 -0.8034 -0.4071
  791SOL    MW4 3211   0.689   3.556   1.514 -0.4345 -0.1221 -0.0933
  792SOL     OW 3212   0.911   3.444   1.591 -0.0762 -0.6312  0.2313
  792SOL    HW2 3213   0.992   3.471   1.548  0.7903 -1.1724  1.4753
  792SOL    HW3 3214   0.901   3.351   1.568  0.3151 -0.8852  1.0375
  792SOL    MW4 3215   0.920   3.435   1.582  0.0897 -0.7365  0.5018
  793SOL     OW 3216   1.132   3.854   1.591 -0.0418 -0.2112  0.3907
  793SOL    HW2 3217   1.210   3.892   1.552 -2.0738  1.3114 -2.3960
  793SOL    HW3 3218   1.133   3.762   1.564  0.8467 -0.2219  0.4631
  793SOL    MW4 3219   1.142   3.847   1.582 -0.1926 -0.0117  0.0327
  794SOL     OW 3220   0.906   3.967   1.455 -0.1763  0.1999  0.1129
  794SOL    HW2 3221   0.915   4.054   1.495 -0.7061 -0.1294  0.9512
  794SOL    HW3 3222   0.985   3.920   1.483 -0.5489 -0.0322  0.7921
  794SOL    MW4 3223   0.918   3.973   1.464 -0.2953  0.1256  0.3132
  795SOL     OW 3224   0.904   4.219   1.592 -0.0297 -0.1594 -0.2417
  795SOL    HW2 3225   0.922   4.246   1.682 -0.0398 -1.4212  0.1455
  795SOL    HW3 3226   0.819   4.257   1.572 -0.4273 -0.6108  0.5837
  795SOL    MW4 3227   0.895   4.228   1.601 -0.0835 -0.3858 -0.0817
  796SOL     OW 3228   1.136   4.378   1.513  0.3440 -0.0217 -0.9861
  796SOL    HW2 3229   1.053   4.335   1.533  0.0741  0.9105 -0.0432
  796SOL    HW3 3230   1.126   4.466   1.548  1.4516  0.3320 -1.5509
  796SOL    MW4 3231   1.124   4.384   1.520  0.4545  0.1478 -0.9362
  797SOL     OW 3232   1.609   4.652   1.588  0.4638  0.0357  0.6337
  797SOL    HW2 3233   1.616   4.663   1.683 -2.2883 -0.0286  0.8864
  797SOL    HW3 3234   1.529   4.700   1.564  1.2714  0.2955 -1.7026
  797SOL    MW4 3235   1.599   4.660   1.597  0.2073  0.0615  0.3588
  798SOL     OW 3236   1.382   0.119   1.528 -0.1214 -0.3581  0.0921
  798SOL    HW2 3237   1.380   0.205   1.570  0.1696 -1.0235  1.4900
  798SOL    HW3 3238   1.376   0.139   1.434 -1.7208  1.1202  0.4544
  798SOL    MW4 3239   1.381   0.133   1.521 -0.2940 -0.2509  0.3244
  799SOL     OW 3240   1.379   0.390   1.656 -0.0631  0.4793  0.6121
  799SOL    HW2 3241   1.289   0.414   1.633 -0.3772  0.0858  1.3942
  799SOL    HW3 3242   1.382   0.396   1.752  0.6533  0.1868  0.6120
  799SOL    MW4 3243   1.368   0.394   1.666 -0.0099  0.3888  0.7153
  800SOL     OW 3244   1.588   0.509   1.542  0.2894 -0.2815 -0.1862
  800SOL    HW2 3245   1.657   0.446   1.564  1.3493  1.2637  1.0998
  800SOL    HW3 3246   1.507   0.469   1.574  0.8713 -1.1784  0.1893
  800SOL    MW4 3247   1.587   0.495   1.549  0.5059 -0.1960  0.0330
  801SOL     OW 3248   1.563   0.750   1.662 -0.1091  0.6892  0.3969
  801SOL    HW2 3249   1.567   0.754   1.757  0.7363  0.0779  0.3945
  801SOL    HW3 3250   1.554   0.657   1.642  0.4523  0.7407 -0.1371
  801SOL    MW4 3251   1.563   0.738   1.672  0.0767  0.6153  0.3262
  802SOL     OW 3252   1.357   0.915   1.499 -0.3382 -0.2443  0.4119
  802SOL    HW2 3253   1.431   0.870   1.540  0.2995  0.0085 -0.4454
  802SOL    HW3 3254   1.362   0.889   1.407 -1.5250 -0.4975  0.4076
  802SOL    MW4 3255   1.368   0.905   1.492 -0.4107 -0.2443  0.2981
  803SOL     OW 3256   1.345   1.177   1.580  0.7325 -0.3393 -0.2759
  803SOL    HW2 3257   1.335   1.166   1.675 -0.3734 -2.9789 -0.6573
  803SOL    HW3 3258   1.364   1.089   1.548  1.6249  0.6228 -2.4655
  803SOL    MW4 3259   1.346   1.164   1.588  0.7042 -0.5608 -0.6150
  804SOL     OW 3260   1.612   1.295   1.534  0.1227 -0.0002 -0.0839
  804SOL    HW2 3261   1.531   1.248   1.552  1.1017 -0.8742  2.2091
  804SOL    HW3 3262   1.591   1.387   1.552 -0.5188 -0.1411 -0.1103
  804SOL    MW4 3263   1.598   1.301   1.538  0.1673 -0.1341  0.2152
  805SOL     OW 3264   1.548   1.554   1.596  0.1294  0.0234 -0.0935
  805SOL    HW2 3265   1.544   1.553   1.692  1.1671 -1.0154 -0.0497
  805SOL    HW3 3266   1.616   1.619   1.577 -0.5945  0.7770 -0.1635
  805SOL    MW4 3267   1.556   1.563   1.606  0.1708 -0.0142 -0.0969
  806SOL     OW 3268   1.335   1.667   1.473  0.2498 -0.0937 -0.3237
  806SOL    HW2 3269   1.408   1.612   1.504  0.7713 -0.2862 -1.8708
  806SOL    HW3 3270   1.368   1.708   1.394 -1.2414  0.0387 -0.8882
  806SOL    MW4 3271   1.349   1.665   1.467  0.1220 -0.1017 -0.6022
  807SOL     OW 3272   1.325   1.921   1.570  0.0895 -0.2712  0.5204
  807SOL    HW2 3273   1.334   1.921   1.665  0.9548  0.8791  0.4505
  807SOL    HW3 3274   1.304   1.830   1.548 -1.6419 -0.2470  1.9327
  807SOL    MW4 3275   1.324   1.909   1.579 -0.0248 -0.1162  0.6975
  808SOL     OW 3276   1.572   1.993   1.487 -0.1379 -0.2855  0.1265
  808SOL    HW2 3277   1.481   1.967   1.496 -0.8847  1.4121 -1.9925
  808SOL    HW3 3278   1.579   2.027   1.397  2.1020  1.4018  0.8627
  808SOL    MW4 3279   1.561   1.994   1.476  0.0591  0.1612 -0.0559
  809SOL     OW 3280   1.583   2.241   1.656  0.2461 -0.0581 -0.0135
  809SOL    HW2 3281   1.660   2.276   1.610 -0.2536  0.2567 -0.6217
  809SOL    HW3 3282   1.566   2.157   1.613 -0.5579  0.4902 -0.8042
  809SOL    MW4 3283   1.591   2.234   1.644  0.0740  0.0558 -0.1979
  810SOL     OW 3284   1.407   2.418   1.489  0.4076 -0.2174 -0.6342
  810SOL    HW2 3285   1.381   2.506   1.517  1.9687  0.2568 -0.5863
  810SOL    HW3 3286   1.447   2.379   1.567  1.2669 -0.3207 -1.1108
  810SOL    MW4 3287   1.409   2.424   1.503  0.7269 -0.1686 -0.6907
  811SOL     OW 3288   1.307   2.652   1.594 -0.1391  0.2601  0.1226
  811SOL    HW2 3289   1.305   2.663   1.689 -0.4302  1.9380 -0.0566
  811SOL    HW3 3290   1.238   2.710   1.562  0.3391  0.1336 -1.1492
  811SOL    MW4 3291   1.298   2.661   1.602 -0.1143  0.4647 -0.0689
  812SOL     OW 3292   1.561   3.067   1.602  0.1593 -0.4060  0.0506
  812SOL    HW2 3293   1.565   2.982   1.560  0.8824 -1.0774  1.4547
  812SOL    HW3 3294   1.644   3.109   1.580  0.5150 -0.7363  0.7404
  812SOL    MW4 3295   1.573   3.062   1.594  0.3016 -0.5381  0.3269
  813SOL     OW 3296   1.558   2.793   1.521 -0.3627  0.1605 -0.2698
  813SOL    HW2 3297   1.548   2.788   1.426 -0.5791  1.4125 -0.3156
  813SOL    HW3 3298   1.472   2.765   1.555 -0.4890  0.3170 -0.4584
  813SOL    MW4 3299   1.545   2.788   1.513 -0.4078  0.3462 -0.3008
  814SOL     OW 3300   1.344   3.182   1.486 -0.3345 -0.1898 -0.1927
  814SOL    HW2 3301   1.337   3.274   1.511  0.5984  0.4093 -2.0614
  814SOL    HW3 3302   1.427   3.152   1.522 -1.2494 -0.6973  1.5603
  814SOL    MW4 3303   1.354   3.190   1.494 -0.3320 -0.1779 -0.2079
  815SOL     OW 3304   1.326   3.433   1.582 -0.0471 -0.0658 -0.2902
  815SOL    HW2 3305   1.328   3.451   1.676 -2.9962 -0.1312 -0.1631
  815SOL    HW3 3306   1.392   3.491   1.544  0.1300  1.0232  1.6613
  815SOL    MW4 3307   1.335   3.443   1.589 -0.4128  0.0691 -0.0159
  816SOL     OW 3308   1.567   3.546   1.497  0.2451 -0.3045  0.2894
  816SOL    HW2 3309   1.582   3.638   1.518 -0.5782 -0.0909 -0.0746
  816SOL    HW3 3310   1.571   3.542   1.401  0.4274 -0.6766  0.3096
  816SOL    MW4 3311   1.570   3.558   1.487  0.1605 -0.3254  0.2441
  817SOL     OW 3312   1.581   3.807   1.581 -0.6033  0.6462 -0.6408
  817SOL    HW2 3313   1.610   3.807   1.673 -0.1872  3.6490 -0.7223
  817SOL    HW3 3314   1.501   3.859   1.581 -0.3349  1.0658 -2.0797
  817SOL    MW4 3315   1.574   3.814   1.593 -0.5130  1.0977 -0.8415
  818SOL     OW 3316   1.369   3.985   1.500 -0.7733 -0.0382  0.4978
  818SOL    HW2 3317   1.360   4.074   1.533 -1.9911  0.1585 -0.3263
  818SOL    HW3 3318   1.353   3.993   1.406  0.3067 -0.9484  0.2300
  818SOL    MW4 3319   1.365   3.998   1.492 -0.7915 -0.1323  0.3538
  819SOL     OW 3320   1.356   4.224   1.613  0.6302  0.1237  0.3310
  819SOL    HW2 3321   1.427   4.283   1.587 -0.0733  0.8914  0.1424
  819SOL    HW3 3322   1.276   4.274   1.596  0.0353 -0.8535  0.2665
  819SOL    MW4 3323   1.355   4.238   1.608  0.4590  0.0958  0.2977
  820SOL     OW 3324   1.580   4.371   1.561  0.2310  0.0185  0.2448
  820SOL    HW2 3325   1.647   4.326   1.613  1.1881  1.4835  0.3027
  820SOL    HW3 3326   1.590   4.463   1.584 -0.5740  0.4576 -1.1451
  820SOL    MW4 3327   1.590   4.377   1.571  0.2511  0.2694  0.0690
  821SOL     OW 3328   2.028   4.616   1.626 -0.3607 -0.0959 -0.4100
  821SOL    HW2 3329   2.018   4.616   1.722 -0.6192 -0.3311 -0.4343
  821SOL    HW3 3330   1.962   4.677   1.595 -0.2057  0.0597 -0.4327
  821SOL    MW4 3331   2.018   4.624   1.635 -0.3743 -0.1063 -0.4162
  822SOL     OW 3332   1.838   0.114   1.512  0.6920  0.1927  0.6202
  822SOL    HW2 3333   1.750   0.079   1.523  0.0941  1.5210  0.1309
  822SOL    HW3 3334   1.847   0.129   1.418  1.4821 -0.0430  0.6503
  822SOL    MW4 3335   1.828   0.111   1.501  0.7174  0.3369  0.5596
  823SOL     OW 3336   1.778   0.358   1.643  0.2815 -0.1231 -0.2996
  823SOL    HW2 3337   1.855   0.405   1.613  0.3557  0.0512  0.1567
  823SOL    HW3 3338   1.792   0.267   1.615  0.8479 -0.1755  0.1550
  823SOL    MW4 3339   1.790   0.352   1.636  0.3660 -0.1070 -0.1795
  824SOL     OW 3340   2.009   0.474   1.539  0.2484 -0.0227  0.0887
  824SOL    HW2 3341   2.099   0.445   1.553 -0.3352 -1.6370  0.6131
  824SOL    HW3 3342   2.003   0.558   1.585  1.0573 -0.6410  1.3509
  824SOL    MW4 3343   2.020   0.481   1.547  0.2780 -0.3172  0.3245
  825SOL     OW 3344   2.000   0.758   1.596 -0.0962 -0.2138 -0.1888
  825SOL    HW2 3345   2.084   0.782   1.557 -0.1735 -0.0266 -0.2398
  825SOL    HW3 3346   1.935   0.795   1.537 -0.2165  1.6810  1.0818
  825SOL    MW4 3347   2.003   0.766   1.583 -0.1221  0.0609 -0.0278
  826SOL     OW 3348   1.775   0.912   1.497  0.0851  0.0093  0.2979
  826SOL    HW2 3349   1.793   0.989   1.551 -1.1560  1.0493 -0.7220
  826SOL    HW3 3350   1.710   0.862   1.547  1.1582 -0.5777  1.1265
  826SOL    MW4 3351   1.769   0.916   1.511  0.0629  0.0691  0.2728
  827SOL     OW 3352   1.828   1.144   1.640 -0.3100 -0.2413 -0.3233
  827SOL    HW2 3353   1.906   1.177   1.595 -0.2237  0.3104  0.2226
  827SOL    HW3 3354   1.757   1.198   1.607  0.2248  2.3559  2.5608
  827SOL    MW4 3355   1.829   1.156   1.630 -0.2280  0.1742  0.1293
  828SOL     OW 3356   2.032   1.284   1.521 -0.0386 -0.3083 -0.2997
  828SOL    HW2 3357   2.030   1.372   1.558  0.7152 -0.1837 -0.5375
  828SOL    HW3 3358   2.027   1.297   1.427  1.0502 -0.4535 -0.3928
  828SOL    MW4 3359   2.031   1.297   1.514  0.2046 -0.3111 -0.3433
  829SOL     OW 3360   2.002   1.560   1.628 -0.2025 -0.2878 -0.5177
  829SOL    HW2 3361   2.087   1.595   1.602  0.3861 -0.6204  0.8712
  829SOL    HW3 3362   1.938   1.619   1.589  0.6795  0.0930 -1.4009
  829SOL    MW4 3363   2.005   1.572   1.620 -0.0086 -0.2815 -0.4511
  830SOL     OW 3364   1.778   1.702   1.543  0.3240  0.2489  0.4489
  830SOL    HW2 3365   1.812   1.788   1.567  0.6417  0.2684 -0.0769
  830SOL    HW3 3366   1.785   1.699   1.448 -0.3559 -0.0761  0.4053
  830SOL    MW4 3367   1.783   1.713   1.534  0.2763  0.2085  0.3736
  831SOL     OW 3368   1.827   1.950   1.638  0.1743 -0.1401  0.0539
  831SOL    HW2 3369   1.895   1.989   1.583 -0.7815  0.9131 -0.4076
  831SOL    HW3 3370   1.746   1.959   1.587 -0.8609  1.5410  1.9261
  831SOL    MW4 3371   1.825   1.956   1.624 -0.0885  0.2207  0.2400
  832SOL     OW 3372   2.029   2.050   1.464 -0.5059 -0.4757  0.2197
  832SOL    HW2 3373   2.115   2.018   1.490 -0.0118  0.2094 -0.5292
  832SOL    HW3 3374   2.020   2.134   1.510  0.2074  0.5530 -1.4639
  832SOL    MW4 3375   2.039   2.057   1.473 -0.3462 -0.2496 -0.1011
  833SOL     OW 3376   2.020   2.310   1.583  0.2505  0.2536 -0.3127
  833SOL    HW2 3377   2.022   2.327   1.677  0.1702 -0.7814 -0.1281
  833SOL    HW3 3378   1.935   2.345   1.555  0.4314  0.9007 -0.0745
  833SOL    MW4 3379   2.009   2.317   1.591  0.2639  0.2024 -0.2568
  834SOL     OW 3380   1.787   2.407   1.507 -0.2258  0.0200 -0.0459
  834SOL    HW2 3381   1.766   2.408   1.414 -2.1403 -0.4363  0.3728
  834SOL    HW3 3382   1.782   2.499   1.534 -0.0438  0.1047 -0.3038
  834SOL    MW4 3383   1.784   2.419   1.498 -0.4544 -0.0291 -0.0248
  835SOL     OW 3384   1.782   2.661   1.594  0.0989  0.2521  0.2628
  835SOL    HW2 3385   1.838   2.737   1.577  0.7389 -0.7937 -2.6084
  835SOL    HW3 3386   1.694   2.691   1.568  0.1570  0.3815  0.2122
  835SOL    MW4 3387   1.777   2.675   1.588  0.1910  0.1311 -0.1228
  836SOL     OW 3388   1.988   2.835   1.566 -0.1472 -0.1124 -0.1622
  836SOL    HW2 3389   1.978   2.926   1.593  0.1945 -0.0692 -0.1851
  836SOL    HW3 3390   1.987   2.837   1.471  0.8183 -0.0278 -0.1711
  836SOL    MW4 3391   1.987   2.847   1.557  0.0252 -0.0954 -0.1664
  837SOL     OW 3392   2.009   3.097   1.661 -0.0189  0.0665  0.0505
  837SOL    HW2 3393   2.034   3.062   1.747 -0.5857 -2.4309 -0.7519
  837SOL    HW3 3394   2.090   3.133   1.626  0.5732 -0.3022  0.9947
  837SOL    MW4 3395   2.023   3.097   1.668 -0.0155 -0.3116  0.0693
  838SOL     OW 3396   1.784   3.199   1.519  0.4040 -0.2506 -0.1488
  838SOL    HW2 3397   1.800   3.293   1.531  1.3800 -0.1920 -1.7583
  838SOL    HW3 3398   1.844   3.157   1.581  1.8186  0.1501 -1.2055
  838SOL    MW4 3399   1.794   3.206   1.529  0.7193 -0.1903 -0.5004
  839SOL     OW 3400   1.813   3.463   1.590 -0.3026  0.3523  0.4138
  839SOL    HW2 3401   1.813   3.462   1.686 -0.5826 -1.5629  0.4211
  839SOL    HW3 3402   1.723   3.486   1.567 -0.1802  1.0322  0.6065
  839SOL    MW4 3403   1.801   3.466   1.600 -0.3233  0.1893  0.4404
  840SOL     OW 3404   2.050   3.590   1.519 -0.0466  0.2695  0.0082
  840SOL    HW2 3405   2.129   3.557   1.563 -0.4786  0.7486  1.1356
  840SOL    HW3 3406   1.979   3.537   1.554 -0.2225 -0.2965 -1.1594
  840SOL    MW4 3407   2.051   3.578   1.529 -0.1266  0.2580  0.0030
  841SOL     OW 3408   2.027   3.856   1.599  0.3548  0.0504  0.0947
  841SOL    HW2 3409   2.100   3.902   1.560  0.6448  1.3872  2.1101
  841SOL    HW3 3410   2.040   3.764   1.575  2.2466  0.3903 -0.2339
  841SOL    MW4 3411   2.038   3.850   1.591  0.6428  0.2713  0.3175
  842SOL     OW 3412   1.787   3.975   1.499 -0.2556  0.0062 -0.6251
  842SOL    HW2 3413   1.865   3.940   1.542 -0.2204  1.4918  0.6077
  842SOL    HW3 3414   1.716   3.917   1.528 -0.0628  0.3754  0.6441
  842SOL    MW4 3415   1.788   3.963   1.509 -0.2257  0.2511 -0.2950
  843SOL     OW 3416   1.788   4.217   1.662 -0.0483 -0.5416  0.2152
  843SOL    HW2 3417   1.866   4.259   1.627 -0.0686 -0.2551  0.5098
  843SOL    HW3 3418   1.772   4.143   1.603 -0.0497 -0.1013 -0.3363
  843SOL    MW4 3419   1.796   4.213   1.650 -0.0510 -0.4458  0.1812
  844SOL     OW 3420   2.017   4.355   1.534  0.1880 -0.4632 -0.0929
  844SOL    HW2 3421   2.098   4.313   1.562 -0.0286  0.0069  1.2841
  844SOL    HW3 3422   2.022   4.444   1.569 -0.1398  0.1334 -1.4998
  844SOL    MW4 3423   2.028   4.361   1.542  0.1161 -0.3223 -0.0968
  845SOL     OW 3424   2.461   4.621   1.622 -0.9432  0.4538 -0.1718
  845SOL    HW2 3425   2.471   4.644   1.715  1.3152  2.6575 -0.9234
  845SOL    HW3 3426   2.381   4.667   1.595  0.7153  3.2848 -0.3575
  845SOL    MW4 3427   2.452   4.630   1.631 -0.4265  1.1182 -0.2955
  846SOL     OW 3428   2.243   0.089   1.532  0.0863  0.2192 -0.2261
  846SOL    HW2 3429   2.176   0.029   1.566  0.0145  0.8185  0.7108
  846SOL    HW3 3430   2.232   0.086   1.437 -0.2916 -0.8190 -0.1541
  846SOL    MW4 3431   2.233   0.081   1.524  0.0272  0.1613 -0.0930
  847SOL     OW 3432   2.276   0.371   1.602  0.3014  0.2594 -0.1311
  847SOL    HW2 3433   2.290   0.390   1.695  1.2195  0.1985 -0.2588
  847SOL    HW3 3434   2.258   0.277   1.600  0.7589  0.1698 -0.0681
  847SOL    MW4 3435   2.275   0.361   1.614  0.4833  0.2395 -0.1396
  848SOL     OW 3436   2.504   0.504   1.486  0.2557 -0.4574  0.3893
  848SOL    HW2 3437   2.578   0.444   1.497 -0.6393 -1.3127  1.9505
  848SOL    HW3 3438   2.427   0.452   1.512 -0.9020  0.4211 -1.1828
  848SOL    MW4 3439   2.504   0.489   1.491 -0.0155 -0.4544  0.3879
  849SOL     OW 3440   2.501   0.757   1.593 -0.4539 -0.0293  0.3243
  849SOL    HW2 3441   2.422   0.799   1.559 -0.5214  0.4444  1.0673
  849SOL    HW3 3442   2.498   0.668   1.558 -1.9903 -0.4157  1.4151
  849SOL    MW4 3443   2.490   0.750   1.584 -0.6659 -0.0178  0.5664
  850SOL     OW 3444   2.238   0.884   1.486  0.8199 -0.2389 -0.0513
  850SOL    HW2 3445   2.241   0.894   1.391  2.8011 -2.0545 -0.2410
  850SOL    HW3 3446   2.241   0.973   1.521  0.6472  0.4101 -1.6834
  850SOL    MW4 3447   2.239   0.897   1.478  1.0588 -0.3929 -0.2916
  851SOL     OW 3448   2.264   1.149   1.567  0.2462  0.3101 -0.6408
  851SOL    HW2 3449   2.266   1.151   1.663  0.5967  0.3349 -0.6451
  851SOL    HW3 3450   2.187   1.200   1.543  0.2172  0.3919 -0.3734
  851SOL    MW4 3451   2.254   1.156   1.577  0.2887  0.3240 -0.6062
  852SOL     OW 3452   2.504   1.262   1.459 -0.1816 -0.0332  0.2433
  852SOL    HW2 3453   2.423   1.216   1.484  0.2775 -0.5395  0.8092
  852SOL    HW3 3454   2.488   1.292   1.370 -1.6845  1.4035  0.9659
  852SOL    MW4 3455   2.491   1.260   1.451 -0.3192  0.0894  0.4134
  853SOL     OW 3456   2.493   1.516   1.582 -0.6021  0.0957 -0.0934
  853SOL    HW2 3457   2.557   1.578   1.549 -0.0330  0.2841  1.3484
  853SOL    HW3 3458   2.510   1.436   1.532 -0.8954  0.8761 -1.4680
  853SOL    MW4 3459   2.503   1.513   1.571 -0.5658  0.2235 -0.0845
  854SOL     OW 3460   2.260   1.653   1.526 -0.5641 -0.0020 -0.1731
  854SOL    HW2 3461   2.339   1.600   1.540  0.1371  0.7696 -1.1133
  854SOL    HW3 3462   2.253   1.659   1.431 -0.3353  2.0280 -0.0810
  854SOL    MW4 3463   2.270   1.647   1.515 -0.4416  0.3676 -0.2848
  855SOL     OW 3464   2.262   1.930   1.563  0.1425  0.0863  0.3364
  855SOL    HW2 3465   2.241   1.951   1.654 -0.7057  0.9428 -0.0497
  855SOL    HW3 3466   2.268   1.834   1.561 -2.0630 -0.0849  0.8255
  855SOL    MW4 3467   2.260   1.920   1.575 -0.2606  0.1767  0.3500
  856SOL     OW 3468   2.477   2.089   1.507  0.3240 -0.1787 -0.0407
  856SOL    HW2 3469   2.409   2.026   1.531 -1.1595  1.7405  0.9389
  856SOL    HW3 3470   2.471   2.097   1.412 -0.4288 -0.4442 -0.0170
  856SOL    MW4 3471   2.468   2.082   1.498  0.0291  0.0396  0.0917
  857SOL     OW 3472   2.471   2.348   1.615 -0.5244 -0.2031 -0.3551
  857SOL    HW2 3473   2.463   2.328   1.709  0.2865 -0.0264 -0.2484
  857SOL    HW3 3474   2.479   2.262   1.573 -1.2313 -0.2999 -0.2974
  857SOL    MW4 3475   2.471   2.334   1.622 -0.5107 -0.1926 -0.3335
  858SOL     OW 3476   2.230   2.466   1.491  0.2779  0.4672  0.0309
  858SOL    HW2 3477   2.294   2.410   1.534  0.4980  0.8649  0.2176
  858SOL    HW3 3478   2.145   2.432   1.520  0.4264  0.7987  0.8728
  858SOL    MW4 3479   2.227   2.454   1.500  0.3264  0.5634  0.1667
  859SOL     OW 3480   2.241   2.727   1.611 -0.0139  0.5238  0.0977
  859SOL    HW2 3481   2.227   2.642   1.570  0.1343 -0.6702  2.3951
  859SOL    HW3 3482   2.154   2.768   1.613 -0.1338  0.3119 -0.7788
  859SOL    MW4 3483   2.228   2.721   1.606 -0.0105  0.3386  0.2851
  860SOL     OW 3484   2.488   2.828   1.508  0.1231  0.1768  0.1319
  860SOL    HW2 3485   2.492   2.916   1.544 -1.2141  0.7210 -0.9774
  860SOL    HW3 3486   2.416   2.786   1.554  0.6564 -0.2927  0.5477
  860SOL    MW4 3487   2.479   2.834   1.518  0.0169  0.1867  0.0404
  861SOL     OW 3488   2.481   3.068   1.669  0.5681 -0.3147  0.1855
  861SOL    HW2 3489   2.552   3.115   1.625  0.2875 -1.4280 -1.5238
  861SOL    HW3 3490   2.402   3.095   1.622  0.1511 -0.7834  0.6125
  861SOL    MW4 3491   2.480   3.077   1.657  0.4761 -0.5233  0.0162
  862SOL     OW 3492   2.246   3.179   1.554  0.2501 -0.2692  0.0670
  862SOL    HW2 3493   2.251   3.273   1.571 -1.7059 -0.3136  1.0183
  862SOL    HW3 3494   2.247   3.172   1.458  0.7235  0.6982 -0.0008
  862SOL    MW4 3495   2.247   3.190   1.544  0.0548 -0.1476  0.1835
  863SOL     OW 3496   2.278   3.453   1.627  0.1030 -0.2709  0.2139
  863SOL    HW2 3497   2.301   3.482   1.715  0.0398  0.4476  0.0005
  863SOL    HW3 3498   2.362   3.453   1.580 -0.2201  1.7910 -0.4074
  863SOL    MW4 3499   2.292   3.457   1.632  0.0520  0.0961  0.1038
  864SOL     OW 3500   2.531   3.540   1.527 -0.0579  0.1299 -0.8333
  864SOL    HW2 3501   2.612   3.510   1.568  0.5255  0.0257 -2.0190
  864SOL    HW3 3502   2.512   3.624   1.569  0.0891 -0.3422  0.1890
  864SOL    MW4 3503   2.539   3.547   1.538  0.0386  0.0539 -0.8548
  865SOL     OW 3504   2.475   3.791   1.626  0.1707 -0.5503 -0.1699
  865SOL    HW2 3505   2.457   3.803   1.719 -0.0531 -1.9454 -0.0236
  865SOL    HW3 3506   2.543   3.856   1.606  0.7870 -0.7765  1.1478
  865SOL    MW4 3507   2.482   3.801   1.636  0.2227 -0.7639  0.0232
  866SOL     OW 3508   2.271   3.954   1.527 -0.2574  0.2921 -0.0441
  866SOL    HW2 3509   2.337   3.891   1.554  2.0664  2.9105  0.6068
  866SOL    HW3 3510   2.278   3.956   1.431 -0.6200 -0.6522 -0.1046
  866SOL    MW4 3511   2.280   3.946   1.518  0.0012  0.5131  0.0340
  867SOL     OW 3512   2.246   4.220   1.609  0.2981  0.2713  0.8319
  867SOL    HW2 3513   2.318   4.276   1.581  0.3450  0.2533  0.9163
  867SOL    HW3 3514   2.273   4.132   1.584 -0.5103  0.4572 -0.8342
  867SOL    MW4 3515   2.259   4.216   1.602  0.1976  0.2933  0.6232
  868SOL     OW 3516   2.479   4.356   1.521  0.0265 -1.1122  0.1995
  868SOL    HW2 3517   2.482   4.447   1.551 -3.3265 -0.9005  0.0273
  868SOL    HW3 3518   2.484   4.362   1.426  0.5878 -1.1561  0.2263
  868SOL    MW4 3519   2.480   4.369   1.513 -0.3417 -1.0900  0.1804
  869SOL     OW 3520   2.909   4.609   1.626  0.1235  0.2276 -0.0030
  869SOL    HW2 3521   2.891   4.606   1.720 -1.0685  0.2608 -0.2276
  869SOL    HW3 3522   2.835   4.658   1.589  0.9684  0.8742 -0.8662
  869SOL    MW4 3523   2.897   4.615   1.633  0.0777  0.3166 -0.1465
  870SOL     OW 3524   2.687   0.060   1.495  0.1364  0.3079 -0.2827
  870SOL    HW2 3525   2.686   0.154   1.513 -0.3350  0.6586 -2.0298
  870SOL    HW3 3526   2.603   0.028   1.529  1.1714  0.1182  2.1987
  870SOL    MW4 3527   2.676   0.068   1.502  0.2108  0.3291 -0.1857
  871SOL     OW 3528   2.693   0.320   1.558 -0.3586  0.1021  0.1862
  871SOL    HW2 3529   2.695   0.318   1.654  0.5880  0.9229  0.1857
  871SOL    HW3 3530   2.773   0.365   1.533 -1.3957  1.3333 -0.9607
  871SOL    MW4 3531   2.704   0.325   1.567 -0.3705  0.3729  0.0348
  872SOL     OW 3532   2.911   0.495   1.482  0.0868  0.3591 -0.4634
  872SOL    HW2 3533   2.940   0.582   1.510  0.5197  0.2916 -0.7020
  872SOL    HW3 3534   2.926   0.494   1.388 -1.3953  0.5939 -0.7171
  872SOL    MW4 3535   2.917   0.506   1.473 -0.0517  0.3811 -0.5285
  873SOL     OW 3536   2.966   0.720   1.621  0.0335 -0.0737  0.1614
  873SOL    HW2 3537   2.947   0.722   1.715  0.9914  0.2420  0.3508
  873SOL    HW3 3538   2.899   0.776   1.582 -0.7813 -0.7458  0.5821
  873SOL    MW4 3539   2.955   0.728   1.628  0.0525 -0.1206  0.2420
  874SOL     OW 3540   2.756   0.875   1.492 -0.4170  0.3758 -0.1210
  874SOL    HW2 3541   2.678   0.839   1.535  0.3293 -0.2580  0.7144
  874SOL    HW3 3542   2.735   0.874   1.399 -1.6175  0.7114  0.1341
  874SOL    MW4 3543   2.743   0.870   1.486 -0.4771  0.3365  0.0229
  875SOL     OW 3544   2.725   1.139   1.585  0.0298  0.3295  0.1761
  875SOL    HW2 3545   2.726   1.049   1.554  0.0583  0.4660 -0.2291
  875SOL    HW3 3546   2.645   1.176   1.548  0.5273  0.7536 -0.4939
  875SOL    MW4 3547   2.715   1.132   1.576  0.0989  0.4034  0.0342
  876SOL     OW 3548   2.937   1.307   1.507  0.2931  0.3261 -0.2432
  876SOL    HW2 3549   3.015   1.258   1.529  0.4780  0.8891  0.3932
  876SOL    HW3 3550   2.864   1.250   1.533  0.5047  0.5071  0.7840
  876SOL    MW4 3551   2.938   1.293   1.513  0.3455  0.4243 -0.0236
  877SOL     OW 3552   2.910   1.550   1.653 -0.1725  0.1453  0.2502
  877SOL    HW2 3553   2.837   1.598   1.614  0.2334  0.4510 -0.1362
  877SOL    HW3 3554   2.916   1.470   1.602  0.5434  0.6751 -0.5187
  877SOL    MW4 3555   2.901   1.546   1.641 -0.0246  0.2555  0.0978
  878SOL     OW 3556   2.706   1.676   1.476  0.1795  0.0522 -0.3333
  878SOL    HW2 3557   2.703   1.768   1.502 -1.3566  0.1360 -0.7753
  878SOL    HW3 3558   2.708   1.677   1.380  3.5947 -0.3149 -0.3294
  878SOL    MW4 3559   2.706   1.688   1.467  0.4272  0.0149 -0.3911
  879SOL     OW 3560   2.707   1.935   1.587 -0.2592 -0.1888 -0.5005
  879SOL    HW2 3561   2.682   1.920   1.678 -0.2811 -1.0675 -0.6509
  879SOL    HW3 3562   2.634   1.984   1.549 -0.3602 -0.0446 -0.1157
  879SOL    MW4 3563   2.694   1.939   1.594 -0.2756 -0.2856 -0.4694
  880SOL     OW 3564   2.922   2.071   1.488 -0.0038 -0.1705 -0.2245
  880SOL    HW2 3565   2.936   2.151   1.537  0.3265  0.1194 -0.7949
  880SOL    HW3 3566   2.839   2.036   1.522  0.2405  0.0114  0.5539
  880SOL    MW4 3567   2.913   2.077   1.499  0.0720 -0.1080 -0.1972
  881SOL     OW 3568   2.941   2.301   1.606  0.1207 -0.3817  0.1860
  881SOL    HW2 3569   2.930   2.293   1.701  0.8167  0.9023  0.3878
  881SOL    HW3 3570   2.863   2.348   1.577 -1.0839 -2.5434 -0.1783
  881SOL    MW4 3571   2.929   2.306   1.615  0.0534 -0.4976  0.1646
  882SOL     OW 3572   2.722   2.440   1.509  0.2083 -0.2410  0.0273
  882SOL    HW2 3573   2.723   2.529   1.543 -1.4482  0.4422 -1.6234
  882SOL    HW3 3574   2.653   2.396   1.558  0.9843 -0.6313  0.7985
  882SOL    MW4 3575   2.713   2.446   1.520  0.0920 -0.2022 -0.0888
  883SOL     OW 3576   2.718   2.689   1.615 -0.4186  0.3115  0.8719
  883SOL    HW2 3577   2.796   2.738   1.589  0.1379 -1.3737 -0.7170
  883SOL    HW3 3578   2.646   2.731   1.569  0.2738 -1.3106 -1.7831
  883SOL    MW4 3579   2.719   2.701   1.606 -0.2539 -0.1249  0.3121
  884SOL     OW 3580   2.927   2.850   1.517  0.4304 -0.2144 -0.0075
  884SOL    HW2 3581   3.006   2.805   1.547  0.4340 -1.1616 -1.3697
  884SOL    HW3 3582   2.916   2.923   1.578  1.5085 -0.9458  1.0895
  884SOL    MW4 3583   2.936   2.854   1.529  0.5729 -0.4358 -0.0424
  885SOL     OW 3584   2.912   3.085   1.667 -0.5437  0.1175 -0.4859
  885SOL    HW2 3585   2.937   3.088   1.760 -2.1102  0.6815 -0.0607
  885SOL    HW3 3586   2.982   3.132   1.622 -0.4019  0.9396  0.5695
  885SOL    MW4 3587   2.924   3.092   1.674 -0.7317  0.3006 -0.2906
  886SOL     OW 3588   2.698   3.211   1.548 -0.2333 -0.0311  0.1199
  886SOL    HW2 3589   2.779   3.164   1.568  1.3078  2.5643  0.2167
  886SOL    HW3 3590   2.700   3.223   1.453 -0.2124  0.5074  0.1852
  886SOL    MW4 3591   2.709   3.207   1.538 -0.0272  0.3822  0.1411
  887SOL     OW 3592   2.777   3.454   1.645  0.2806 -0.1970  0.2723
  887SOL    HW2 3593   2.760   3.459   1.739  1.6882 -1.9035  0.6531
  887SOL    HW3 3594   2.741   3.369   1.619 -1.5397  0.9529 -1.0802
  887SOL    MW4 3595   2.770   3.444   1.654  0.2260 -0.2706  0.1441
  888SOL     OW 3596   2.977   3.602   1.532 -0.2264 -0.0227  0.0702
  888SOL    HW2 3597   2.906   3.549   1.568 -0.8568  1.1646  0.5948
  888SOL    HW3 3598   2.955   3.611   1.439 -0.3821 -0.2495  0.0844
  888SOL    MW4 3599   2.965   3.596   1.525 -0.3302  0.1042  0.1413
  889SOL     OW 3600   2.933   3.856   1.618  0.2622  0.1075  0.4926
  889SOL    HW2 3601   2.841   3.873   1.595  0.2917 -0.4158 -0.0261
  889SOL    HW3 3602   2.947   3.765   1.593  0.8977  0.1560  0.6708
  889SOL    MW4 3603   2.923   3.846   1.612  0.3498  0.0448  0.4476
  890SOL     OW 3604   2.672   3.978   1.552  0.7058  0.2003 -0.8532
  890SOL    HW2 3605   2.689   4.070   1.570  3.6343 -0.1241 -1.5959
  890SOL    HW3 3606   2.670   3.973   1.456 -0.4412 -0.3407 -0.8004
  890SOL    MW4 3607   2.674   3.989   1.541  0.9408  0.0861 -0.9443
  891SOL     OW 3608   2.708   4.243   1.614 -0.0968 -0.0372  0.1344
  891SOL    HW2 3609   2.780   4.279   1.562 -0.6939  0.9621 -0.0239
  891SOL    HW3 3610   2.630   4.283   1.576 -0.7291 -1.0352  0.3702
  891SOL    MW4 3611   2.707   4.253   1.602 -0.2589 -0.0367  0.1447
  892SOL     OW 3612   2.953   4.357   1.512 -0.1196  0.2048  0.0789
  892SOL    HW2 3613   2.939   4.442   1.554  0.1361  0.3704 -0.1719
  892SOL    HW3 3614   2.940   4.374   1.419  1.2589  0.2579 -0.1139
  892SOL    MW4 3615   2.949   4.370   1.505  0.0958  0.2332  0.0204
  893SOL     OW 3616   3.333   0.013   1.663  0.4617  0.3158  0.7864
  893SOL    HW2 3617   3.407   0.071   1.644  0.3321  0.4154  0.5901
  893SOL    HW3 3618   3.354  -0.068   1.616  0.6199  0.2186  1.0240
  893SOL    MW4 3619   3.346   0.010   1.654  0.4652  0.3161  0.7918
  894SOL     OW 3620   3.109   0.110   1.528  0.2946  0.2513 -0.5003
  894SOL    HW2 3621   3.183   0.092   1.586  0.1517  2.0207  0.2579
  894SOL    HW3 3622   3.046   0.040   1.546  0.8171  0.0431  0.5170
  894SOL    MW4 3623   3.110   0.098   1.538  0.3445  0.4573 -0.2660
  895SOL     OW 3624   3.129   0.384   1.631  0.0549  0.1431  0.3887
  895SOL    HW2 3625   3.106   0.295   1.605 -1.0424  0.6890 -0.5776
  895SOL    HW3 3626   3.055   0.437   1.600  2.1405  1.8284 -1.8550
  895SOL    MW4 3627   3.116   0.379   1.623  0.1855  0.4374 -0.0349
  896SOL     OW 3628   3.382   0.483   1.530 -0.1524  0.2419  0.2256
  896SOL    HW2 3629   3.296   0.453   1.560  0.2386 -2.9654 -1.7271
  896SOL    HW3 3630   3.371   0.499   1.437  1.0255  1.2802  0.2463
  896SOL    MW4 3631   3.369   0.481   1.522  0.0546 -0.0443 -0.0293
  897SOL     OW 3632   3.398   0.749   1.628 -0.3806  0.5007  0.2855
  897SOL    HW2 3633   3.369   0.755   1.720  0.2339  0.5215  0.4820
  897SOL    HW3 3634   3.387   0.656   1.606  0.9187  0.1793  0.8786
  897SOL    MW4 3635   3.393   0.737   1.637 -0.1278  0.4610  0.3897
  898SOL     OW 3636   3.174   0.856   1.515 -0.6512 -0.1347  0.7330
  898SOL    HW2 3637   3.244   0.806   1.558 -0.3898  0.8123  1.4137
  898SOL    HW3 3638   3.095   0.829   1.561 -0.5764 -0.3045  0.7636
  898SOL    MW4 3639   3.173   0.846   1.527 -0.6068 -0.0322  0.8268
  899SOL     OW 3640   3.164   1.132   1.592  0.3406  0.0906  0.2597
  899SOL    HW2 3641   3.161   1.129   1.688  1.0551 -1.0974  0.2610
  899SOL    HW3 3642   3.178   1.041   1.566  1.2935  0.5594 -0.9268
  899SOL    MW4 3643   3.166   1.120   1.602  0.5605 -0.0043  0.1034
  900SOL     OW 3644   3.377   1.277   1.490 -0.0834 -0.5303  0.0861
  900SOL    HW2 3645   3.458   1.231   1.510 -0.4331 -1.0345  0.3694
  900SOL    HW3 3646   3.309   1.223   1.530 -0.5174  0.1366  0.2576
  900SOL    MW4 3647   3.379   1.264   1.498 -0.1867 -0.5089  0.1462
  901SOL     OW 3648   3.342   1.541   1.597 -0.3298 -0.1460 -0.8026
  901SOL    HW2 3649   3.339   1.528   1.692  2.7463  1.3169 -0.4567
  901SOL    HW3 3650   3.366   1.455   1.562  0.5132 -0.2047 -0.0924
  901SOL    MW4 3651   3.345   1.528   1.605  0.1872  0.0393 -0.6633
  902SOL     OW 3652   3.114   1.677   1.498  0.1171 -0.1037  0.3820
  902SOL    HW2 3653   3.191   1.634   1.537  0.3083 -1.8818 -1.8758
  902SOL    HW3 3654   3.040   1.623   1.525  0.1468 -0.8021 -0.9030
  902SOL    MW4 3655   3.115   1.665   1.507  0.1464 -0.4305 -0.0855
  903SOL     OW 3656   3.126   1.923   1.616  0.4982  0.3887 -0.4912
  903SOL    HW2 3657   3.045   1.964   1.584 -0.9017 -0.0363  2.2996
  903SOL    HW3 3658   3.137   1.845   1.563 -0.2752  1.0866 -1.6913
  903SOL    MW4 3659   3.117   1.918   1.605  0.2115  0.4247 -0.2815
  904SOL     OW 3660   3.345   2.093   1.548 -0.1536  0.0497  0.3594
  904SOL    HW2 3661   3.343   2.094   1.453 -1.4732  1.9740  0.3720
  904SOL    HW3 3662   3.273   2.035   1.573 -0.5036  0.4150  0.1971
  904SOL    MW4 3663   3.336   2.085   1.539 -0.3738  0.3519  0.3395
  905SOL     OW 3664   3.594   2.416   1.560  0.6082  0.1269  0.0558
  905SOL    HW2 3665   3.600   2.510   1.577  0.6374  0.1145  0.1134
  905SOL    HW3 3666   3.678   2.381   1.589 -0.3587 -0.2985  2.4774
  905SOL    MW4 3667   3.606   2.424   1.566  0.4847  0.0691  0.3829
  906SOL     OW 3668   3.390   2.317   1.688 -0.4110 -0.6451  0.0623
  906SOL    HW2 3669   3.466   2.344   1.637 -0.1076 -0.8390  0.4184
  906SOL    HW3 3670   3.370   2.229   1.657 -1.3898 -0.0418 -1.0849
  906SOL    MW4 3671   3.397   2.309   1.677 -0.5000 -0.5913 -0.0420
  907SOL     OW 3672   3.135   2.709   1.615  0.4545  0.4777 -0.1685
  907SOL    HW2 3673   3.219   2.752   1.593  0.0281  1.2481 -0.3216
  907SOL    HW3 3674   3.149   2.617   1.593  1.9211  0.2427  1.6758
  907SOL    MW4 3675   3.148   2.703   1.609  0.5918  0.5484  0.0547
  908SOL     OW 3676   3.363   2.823   1.500  0.0535  0.3788  0.2013
  908SOL    HW2 3677   3.361   2.912   1.535 -3.0707  0.5331 -0.2438
  908SOL    HW3 3678   3.355   2.834   1.405 -0.1105 -0.3697  0.1250
  908SOL    MW4 3679   3.362   2.836   1.492 -0.3800  0.3004  0.1326
  909SOL     OW 3680   3.345   3.086   1.589  0.0172 -0.1690 -0.3883
  909SOL    HW2 3681   3.336   3.094   1.684 -1.1270  2.1753 -0.6487
  909SOL    HW3 3682   3.421   3.139   1.567 -0.3492  0.1546 -0.8920
  909SOL    MW4 3683   3.354   3.094   1.599 -0.1819  0.1829 -0.4890
  910SOL     OW 3684   3.125   3.246   1.535  0.0315  0.8677 -0.6361
  910SOL    HW2 3685   3.196   3.182   1.546 -1.1456 -0.2279  0.8217
  910SOL    HW3 3686   3.122   3.262   1.441  1.8700  0.5329 -0.7789
  910SOL    MW4 3687   3.134   3.239   1.524  0.1187  0.6790 -0.4627
  911SOL     OW 3688   3.155   3.472   1.695 -0.1280  0.0688 -0.0966
  911SOL    HW2 3689   3.148   3.383   1.660 -0.1843 -0.2952  0.8079
  911SOL    HW3 3690   3.089   3.522   1.647 -1.0437 -0.6988  0.3348
  911SOL    MW4 3691   3.146   3.467   1.684 -0.2565 -0.0806  0.0796
  912SOL     OW 3692   3.331   3.619   1.515 -0.0764 -0.2668 -0.0780
  912SOL    HW2 3693   3.400   3.560   1.543 -1.2291 -0.7670  1.8068
  912SOL    HW3 3694   3.255   3.594   1.567 -1.0404  1.8194 -0.3987
  912SOL    MW4 3695   3.330   3.608   1.526 -0.3557 -0.0577  0.1284
  913SOL     OW 3696   3.344   3.874   1.597 -0.1279 -0.2915 -0.8431
  913SOL    HW2 3697   3.282   3.916   1.536  0.1408  0.6932 -0.4440
  913SOL    HW3 3698   3.341   3.782   1.573 -2.6265 -0.4675 -0.0855
  913SOL    MW4 3699   3.335   3.868   1.585 -0.4222 -0.1850 -0.6905
  914SOL     OW 3700   3.127   4.013   1.461  0.0771 -0.0603  0.0399
  914SOL    HW2 3701   3.148   4.087   1.518  1.7653 -1.3562  1.1641
  914SOL    HW3 3702   3.062   3.962   1.509 -0.9977  0.6048 -0.6820
  914SOL    MW4 3703   3.122   4.016   1.475  0.1578 -0.1440  0.0930
  915SOL     OW 3704   3.186   4.239   1.604 -0.1421  0.6652  0.1993
  915SOL    HW2 3705   3.183   4.246   1.699 -0.4888  0.8822  0.1740
  915SOL    HW3 3706   3.104   4.278   1.574 -0.6317 -0.5920 -0.1243
  915SOL    MW4 3707   3.175   4.245   1.613 -0.2527  0.5279  0.1531
  916SOL     OW 3708   3.367   4.458   1.506  0.2873 -0.0742  0.0213
  916SOL    HW2 3709   3.296   4.395   1.518  0.1173  0.1559  0.2217
  916SOL    HW3 3710   3.370   4.472   1.411 -0.6355  0.7119  0.0942
  916SOL    MW4 3711   3.358   4.452   1.495  0.1435  0.0596  0.0573
  917SOL     OW 3712   3.849   4.646   1.599 -0.0669  0.0576 -0.1245
  917SOL    HW2 3713   3.841   4.650   1.694  0.9902 -0.1746 -0.0145
  917SOL    HW3 3714   3.931   4.691   1.580 -0.8852  1.1872 -1.0420
  917SOL    MW4 3715   3.859   4.652   1.609 -0.0353  0.1760 -0.2310
  918SOL     OW 3716   3.592   0.093   1.563  0.1441  0.4188 -0.0862
  918SOL    HW2 3717   3.679   0.060   1.585  0.0523 -0.6505 -1.2488
  918SOL    HW3 3718   3.581   0.069   1.471 -1.5830  0.1149  0.1991
  918SOL    MW4 3719   3.602   0.086   1.554 -0.0958  0.2376 -0.2019
  919SOL     OW 3720   3.625   0.371   1.596  0.1835  0.3267 -0.1477
  919SOL    HW2 3721   3.620   0.278   1.574 -0.0231  0.8753 -2.5227
  919SOL    HW3 3722   3.538   0.405   1.576 -0.4606  0.6000  2.9239
  919SOL    MW4 3723   3.613   0.363   1.590  0.0710  0.4352 -0.0558
  920SOL     OW 3724   3.847   0.521   1.528  0.3074 -0.0987 -0.1930
  920SOL    HW2 3725   3.763   0.481   1.551  0.7177 -0.6750  0.3115
  920SOL    HW3 3726   3.865   0.490   1.439  0.8642 -1.4542  0.3805
  920SOL    MW4 3727   3.838   0.512   1.519  0.4351 -0.3536 -0.0508
  921SOL     OW 3728   3.843   0.773   1.652  0.1310 -0.0145 -0.1817
  921SOL    HW2 3729   3.759   0.796   1.611 -0.5991 -2.6324 -0.2183
  921SOL    HW3 3730   3.859   0.683   1.626  2.8121  0.3236  0.1379
  921SOL    MW4 3731   3.834   0.764   1.643  0.3884 -0.3152 -0.1445
  922SOL     OW 3732   3.615   0.895   1.539  0.5941 -0.4462 -0.0201
  922SOL    HW2 3733   3.542   0.840   1.567 -0.0432  0.6783  0.5774
  922SOL    HW3 3734   3.614   0.890   1.443 -0.2135 -0.4945 -0.0083
  922SOL    MW4 3735   3.605   0.887   1.530  0.4036 -0.3042  0.0603
  923SOL     OW 3736   3.582   1.141   1.628  0.2286  0.1586  0.3295
  923SOL    HW2 3737   3.657   1.187   1.592 -1.5083  1.8661 -1.2259
  923SOL    HW3 3738   3.594   1.050   1.601  1.6520  0.4406 -0.0263
  923SOL    MW4 3739   3.593   1.135   1.620  0.1872  0.4210  0.0774
  924SOL     OW 3740   3.800   1.295   1.542 -0.7530  0.6150 -0.3965
  924SOL    HW2 3741   3.877   1.261   1.588 -0.2912  0.1740 -1.4907
  924SOL    HW3 3742   3.794   1.386   1.571  0.6846  0.8976 -0.9636
  924SOL    MW4 3743   3.809   1.302   1.552 -0.5023  0.5941 -0.6156
  925SOL     OW 3744   3.786   1.583   1.631  0.2908  0.1124  0.0793
  925SOL    HW2 3745   3.797   1.573   1.726 -1.0441  1.2490  0.3709
  925SOL    HW3 3746   3.702   1.627   1.622  1.4713  2.0777 -1.5456
  925SOL    MW4 3747   3.776   1.588   1.643  0.2704  0.5218 -0.0967
  926SOL     OW 3748   3.563   1.691   1.507 -0.0000  0.3405  0.1229
  926SOL    HW2 3749   3.470   1.677   1.526 -0.5892  2.4648 -1.0648
  926SOL    HW3 3750   3.575   1.659   1.418 -0.0009  1.7081 -0.3768
  926SOL    MW4 3751   3.552   1.685   1.498 -0.0775  0.8012 -0.0997
  927SOL     OW 3752   3.594   1.965   1.619  0.0509  0.0406  0.1306
  927SOL    HW2 3753   3.588   1.882   1.571  0.0341 -0.5975  1.2293
  927SOL    HW3 3754   3.515   2.012   1.594  0.3889  0.0208 -1.0254
  927SOL    MW4 3755   3.583   1.960   1.609  0.0930 -0.0463  0.1231
  928SOL     OW 3756   3.845   2.073   1.546 -0.1859  0.4545 -0.2758
  928SOL    HW2 3757   3.847   2.168   1.555 -0.1178  0.6399 -1.9394
  928SOL    HW3 3758   3.765   2.046   1.591 -0.5438  1.3699 -0.3442
  928SOL    MW4 3759   3.835   2.082   1.553 -0.2241  0.5999 -0.5044
  929SOL     OW 3760   3.842   2.346   1.632  0.0136 -0.1263 -0.3444
  929SOL    HW2 3761   3.834   2.360   1.726  0.3580 -1.3549 -0.1189
  929SOL    HW3 3762   3.930   2.377   1.611 -0.2920  0.7371 -0.3872
  929SOL    MW4 3763   3.853   2.352   1.642  0.0186 -0.1745 -0.3204
  930SOL     OW 3764   3.617   2.705   1.573 -0.1330  0.9252  0.1123
  930SOL    HW2 3765   3.546   2.764   1.549 -1.7403 -0.8801  0.3073
  930SOL    HW3 3766   3.604   2.689   1.666  0.3916  0.4126  0.0969
  930SOL    MW4 3767   3.606   2.711   1.582 -0.2761  0.6194  0.1361
  931SOL     OW 3768   3.817   2.828   1.232 -0.1322  0.0169  0.2029
  931SOL    HW2 3769   3.803   2.836   1.326 -1.3159 -0.4342  0.0736
  931SOL    HW3 3770   3.751   2.765   1.203  0.0354  0.3699 -0.9768
  931SOL    MW4 3771   3.806   2.820   1.241 -0.2663  0.0038  0.0302
  932SOL     OW 3772   3.847   2.835   1.515  0.2956  0.0223  0.1515
  932SOL    HW2 3773   3.919   2.781   1.548  0.2916 -0.0504  0.0448
  932SOL    HW3 3774   3.768   2.791   1.546  0.3271  0.9240  1.5173
  932SOL    MW4 3775   3.846   2.822   1.523  0.2992  0.1316  0.3177
  933SOL     OW 3776   3.808   3.089   1.610 -0.0625 -0.0442  0.0187
  933SOL    HW2 3777   3.880   3.136   1.569 -0.0378  0.5742  0.7616
  933SOL    HW3 3778   3.824   2.997   1.587  0.5739  0.1658 -0.4003
  933SOL    MW4 3779   3.820   3.083   1.602  0.0246  0.0651  0.0613
  934SOL     OW 3780   3.568   3.247   1.548 -0.0327 -0.0593  0.0287
  934SOL    HW2 3781   3.642   3.190   1.569 -1.0824 -1.0246  1.1647
  934SOL    HW3 3782   3.570   3.254   1.453  2.2032  0.8760  0.0912
  934SOL    MW4 3783   3.578   3.241   1.538  0.1237 -0.0632  0.1867
  935SOL     OW 3784   3.578   3.517   1.603 -0.4688 -0.4927  0.3225
  935SOL    HW2 3785   3.661   3.551   1.570 -0.8870 -0.0904 -0.3145
  935SOL    HW3 3786   3.575   3.426   1.572  0.4832 -1.0257  1.7254
  935SOL    MW4 3787   3.589   3.509   1.595 -0.3984 -0.5100  0.4236
  936SOL     OW 3788   3.812   3.618   1.489  0.1647  0.6796  0.3907
  936SOL    HW2 3789   3.887   3.572   1.527 -1.0826 -0.3147  1.7393
  936SOL    HW3 3790   3.794   3.690   1.550 -1.1930 -0.2878  1.1736
  936SOL    MW4 3791   3.819   3.621   1.502 -0.1793  0.4208  0.6717
  937SOL     OW 3792   3.823   3.848   1.655  0.2862 -0.1646  0.2311
  937SOL    HW2 3793   3.905   3.877   1.614 -0.1601  1.1017  0.2025
  937SOL    HW3 3794   3.754   3.887   1.600 -0.3215  0.8202  1.6509
  937SOL    MW4 3795   3.825   3.857   1.642  0.1471  0.1323  0.4148
  938SOL     OW 3796   3.598   4.008   1.571  0.5167  0.1885  0.3847
  938SOL    HW2 3797   3.571   4.097   1.593  1.9483  0.2986  1.7504
  938SOL    HW3 3798   3.529   3.953   1.606 -0.4892  0.7588 -0.6575
  938SOL    MW4 3799   3.585   4.013   1.579  0.5732  0.2780  0.4274
  939SOL     OW 3800   3.558   4.282   1.625  0.4364  0.1597  0.1531
  939SOL    HW2 3801   3.546   4.288   1.720  0.3967  0.6113  0.1213
  939SOL    HW3 3802   3.486   4.334   1.589  0.8080  0.4805 -0.1129
  939SOL    MW4 3803   3.547   4.289   1.633  0.4802  0.2618  0.1138
  940SOL     OW 3804   3.775   4.401   1.481  0.0461 -0.5228 -0.2523
  940SOL    HW2 3805   3.714   4.367   1.546  0.8977 -0.0538  0.8173
  940SOL    HW3 3806   3.803   4.485   1.517 -0.1392  0.1401 -1.6538
  940SOL    MW4 3807   3.771   4.408   1.495  0.1340 -0.3734 -0.2959
  941SOL     OW 3808   4.298   4.613   1.615  0.1280  0.3200  0.4910
  941SOL    HW2 3809   4.300   4.600   1.710 -0.4934  1.6569  0.7071
  941SOL    HW3 3810   4.285   4.525   1.579 -0.6944 -0.0713  1.6979
  941SOL    MW4 3811   4.296   4.600   1.623 -0.0620  0.4449  0.6787
  942SOL     OW 3812   4.092   0.082   1.497 -0.3381  0.3310 -0.0859
  942SOL    HW2 3813   4.071   0.163   1.544 -0.0416  1.0945 -1.2466
  942SOL    HW3 3814   4.154   0.037   1.555  0.4293  1.5096  0.0375
  942SOL    MW4 3815   4.098   0.087   1.511 -0.1974  0.5873 -0.2229
  943SOL     OW 3816   4.016   0.309   1.622 -0.3763 -0.2558  0.2700
  943SOL    HW2 3817   4.043   0.307   1.714 -0.3759 -0.7602  0.2594
  943SOL    HW3 3818   3.943   0.371   1.620 -0.5775 -0.4825  0.6615
  943SOL    MW4 3819   4.010   0.317   1.634 -0.4025 -0.3522  0.3202
  944SOL     OW 3820   4.213   0.465   1.500 -0.1001 -0.3717 -0.1396
  944SOL    HW2 3821   4.146   0.409   1.539 -0.0401  0.1029  0.6729
  944SOL    HW3 3822   4.296   0.423   1.523 -0.1187 -1.3296 -1.7263
  944SOL    MW4 3823   4.215   0.452   1.508 -0.0944 -0.4355 -0.2419
  945SOL     OW 3824   4.266   0.743   1.604  0.0356  0.4761  0.4153
  945SOL    HW2 3825   4.249   0.653   1.576 -0.6453  0.1607  1.8234
  945SOL    HW3 3826   4.351   0.765   1.564 -0.3005 -0.4077 -0.8122
  945SOL    MW4 3827   4.275   0.734   1.595 -0.0987  0.3179  0.4393
  946SOL     OW 3828   4.050   0.927   1.527  0.4095 -0.0389 -0.6752
  946SOL    HW2 3829   4.122   0.864   1.528  2.0304  1.7924  0.5595
  946SOL    HW3 3830   3.977   0.881   1.568  1.2713 -1.4358 -0.7006
  946SOL    MW4 3831   4.050   0.913   1.532  0.7367  0.0184 -0.5156
  947SOL     OW 3832   4.042   1.183   1.641 -0.2387 -0.0188 -0.4908
  947SOL    HW2 3833   4.038   1.159   1.734 -1.6316 -0.3540 -0.6229
  947SOL    HW3 3834   4.047   1.099   1.595  2.1674  0.1883 -0.6670
  947SOL    MW4 3835   4.042   1.169   1.647 -0.1044 -0.0358 -0.5313
  948SOL     OW 3836   4.273   1.235   1.513  0.2000 -0.3792 -0.2414
  948SOL    HW2 3837   4.188   1.223   1.554 -0.3258 -0.0483 -1.2292
  948SOL    HW3 3838   4.333   1.182   1.566 -0.7475 -1.2267 -0.0078
  948SOL    MW4 3839   4.270   1.226   1.525  0.0057 -0.4474 -0.3409
  949SOL     OW 3840   4.246   1.505   1.601 -0.1828  0.0454 -0.1270
  949SOL    HW2 3841   4.245   1.418   1.562 -0.2639 -0.6156  1.3138
  949SOL    HW3 3842   4.325   1.546   1.565  0.2747 -0.9084 -0.2312
  949SOL    MW4 3843   4.257   1.499   1.591 -0.1335 -0.1676  0.0494
  950SOL     OW 3844   4.029   1.689   1.544  0.5196 -0.3143 -0.8294
  950SOL    HW2 3845   4.084   1.613   1.562  1.9761  1.2085  1.3018
  950SOL    HW3 3846   3.942   1.663   1.575  0.7107 -1.5967 -1.3575
  950SOL    MW4 3847   4.024   1.676   1.551  0.7372 -0.2825 -0.6179
  951SOL     OW 3848   4.082   1.946   1.641  0.1954  0.6279  0.7873
  951SOL    HW2 3849   4.054   1.856   1.626 -0.0514  0.9692 -0.9681
  951SOL    HW3 3850   4.004   1.999   1.625  0.7531  1.2699  0.1346
  951SOL    MW4 3851   4.068   1.941   1.637  0.2365  0.7577  0.4696
  952SOL     OW 3852   4.313   2.066   1.525  0.2246 -0.1894  0.1499
  952SOL    HW2 3853   4.304   2.051   1.430 -0.3404  0.4797  0.0944
  952SOL    HW3 3854   4.237   2.024   1.563 -0.7025  1.4080  0.1043
  952SOL    MW4 3855   4.302   2.059   1.517  0.0272  0.1094  0.1364
  953SOL     OW 3856   4.317   2.329   1.631  0.4032  0.2980  0.1653
  953SOL    HW2 3857   4.313   2.338   1.726 -0.5839 -0.3934  0.1916
  953SOL    HW3 3858   4.306   2.236   1.615  0.2318  0.4535 -0.6365
  953SOL    MW4 3859   4.315   2.318   1.641  0.2503  0.2272  0.0628
  954SOL     OW 3860   4.071   2.436   1.547 -0.3562 -0.1990 -0.0412
  954SOL    HW2 3861   4.076   2.528   1.573 -0.3543 -0.6237  1.4844
  954SOL    HW3 3862   4.157   2.400   1.570 -0.5130 -0.6882 -0.2269
  954SOL    MW4 3863   4.083   2.443   1.553 -0.3762 -0.3195  0.1354
  955SOL     OW 3864   4.063   2.690   1.629  0.1657 -0.2098 -0.2494
  955SOL    HW2 3865   4.072   2.707   1.723  1.5758 -0.9888 -0.2404
  955SOL    HW3 3866   4.135   2.738   1.589  0.6166 -1.3140 -0.7674
  955SOL    MW4 3867   4.073   2.698   1.636  0.4106 -0.4582 -0.3166
  956SOL     OW 3868   4.280   2.837   1.516  0.3899  0.1924  0.4831
  956SOL    HW2 3869   4.261   2.930   1.533 -1.8143  0.0162 -0.8045
  956SOL    HW3 3870   4.269   2.828   1.422 -1.2965 -1.7947  0.8523
  956SOL    MW4 3871   4.276   2.848   1.506 -0.1230 -0.0930  0.3619
  957SOL     OW 3872   4.247   3.101   1.589 -0.2904  0.2015  0.0554
  957SOL    HW2 3873   4.263   3.119   1.682  2.0057 -0.9243 -0.0863
  957SOL    HW3 3874   4.331   3.118   1.547 -0.4046 -2.4519 -1.3305
  957SOL    MW4 3875   4.260   3.105   1.596 -0.0024 -0.2971 -0.1462
  958SOL     OW 3876   4.019   3.259   1.530  0.4961 -0.1738 -0.5482
  958SOL    HW2 3877   4.030   3.347   1.567 -0.0087  0.4153 -1.7305
  958SOL    HW3 3878   4.093   3.209   1.563  1.0129  0.8213 -0.1797
  958SOL    MW4 3879   4.030   3.264   1.539  0.4973  0.0353 -0.6555
  959SOL     OW 3880   4.029   3.508   1.631  0.3737  0.2457  0.3025
  959SOL    HW2 3881   4.032   3.519   1.727 -0.7430  0.4811  0.3202
  959SOL    HW3 3882   4.116   3.535   1.601  1.5944 -2.2001  1.4781
  959SOL    MW4 3883   4.041   3.513   1.640  0.3877 -0.0460  0.4600
  960SOL     OW 3884   4.276   3.620   1.534 -0.6820  0.1985  0.3324
  960SOL    HW2 3885   4.288   3.709   1.565 -1.2422  0.7177 -0.9255
  960SOL    HW3 3886   4.284   3.625   1.439  0.4371 -1.2752  0.3252
  960SOL    MW4 3887   4.278   3.632   1.526 -0.6084  0.0725  0.1655
  961SOL     OW 3888   4.281   3.882   1.641 -0.2554  0.1951  0.1923
  961SOL    HW2 3889   4.205   3.917   1.596 -0.4373 -0.8758 -0.3390
  961SOL    HW3 3890   4.355   3.927   1.602 -0.5238  0.3990 -0.0841
  961SOL    MW4 3891   4.281   3.893   1.630 -0.3142  0.0808  0.0857
  962SOL     OW 3892   4.040   3.980   1.523 -0.7400  0.1139 -0.1049
  962SOL    HW2 3893   4.028   4.073   1.540  0.2547  0.2421 -0.0769
  962SOL    HW3 3894   4.050   3.974   1.428 -1.3240 -0.0335 -0.1636
  962SOL    MW4 3895   4.040   3.991   1.512 -0.6862  0.1113 -0.1090
  963SOL     OW 3896   3.987   4.248   1.583 -0.3412 -0.3387  0.1781
  963SOL    HW2 3897   3.957   4.247   1.673 -1.6711 -0.9540 -0.2740
  963SOL    HW3 3898   3.923   4.302   1.536  1.4281  1.6785 -0.0347
  963SOL    MW4 3899   3.975   4.255   1.588 -0.2832 -0.1540  0.0902
  964SOL     OW 3900   4.261   4.352   1.491  0.1645  0.1016 -0.3760
  964SOL    HW2 3901   4.171   4.320   1.502 -0.0145  0.8197  0.2902
  964SOL    HW3 3902   4.271   4.362   1.396  0.2322 -1.9278 -0.5998
  964SOL    MW4 3903   4.250   4.349   1.480  0.1497 -0.0715 -0.3176
  965SOL     OW 3904   0.241   4.633   1.899  0.1201 -0.5792  0.1853
  965SOL    HW2 3905   0.317   4.676   1.940  0.3063 -0.7929  0.0693
  965SOL    HW3 3906   0.259   4.638   1.805  0.5818 -1.7059  0.2109
  965SOL    MW4 3907   0.254   4.639   1.892  0.2056 -0.7563  0.1734
  966SOL     OW 3908   0.000   0.089   1.982 -0.2555  0.1802 -0.1470
  966SOL    HW2 3909  -0.003   0.173   1.937  1.4202  0.0141 -0.5982
  966SOL    HW3 3910   0.087   0.054   1.963  0.3857 -0.0876  2.8800
  966SOL    MW4 3911   0.011   0.095   1.974  0.0505  0.1229  0.1928
  967SOL     OW 3912   0.007   0.357   1.904  0.6433 -0.0231  0.0103
  967SOL    HW2 3913  -0.066   0.400   1.949  0.2527 -0.8890  0.2166
  967SOL    HW3 3914   0.086   0.396   1.943  0.2976  0.2861  0.4060
  967SOL    MW4 3915   0.008   0.368   1.915  0.5460 -0.0965  0.0898
  968SOL     OW 3916   0.257   0.462   2.009 -0.3854  0.3868  0.2792
  968SOL    HW2 3917   0.329   0.418   1.964 -0.4206 -0.4599  1.0331
  968SOL    HW3 3918   0.268   0.555   1.987 -0.3789  0.0034 -1.4264
  968SOL    MW4 3919   0.268   0.469   2.000 -0.3892  0.2245  0.1537
  969SOL     OW 3920   0.201   0.703   1.881 -0.0704  0.4164 -0.1467
  969SOL    HW2 3921   0.275   0.752   1.916  0.1133  1.1454 -1.5097
  969SOL    HW3 3922   0.203   0.720   1.787 -0.2267 -1.9050 -0.6078
  969SOL    MW4 3923   0.211   0.712   1.873 -0.0668  0.2064 -0.3873
  970SOL     OW 3924   0.004   0.844   2.047 -0.4006  0.1794 -0.2315
  970SOL    HW2 3925  -0.080   0.815   2.014 -0.6213  0.2829  0.2359
  970SOL    HW3 3926   0.069   0.803   1.990 -0.7605 -0.1000 -0.4332
  970SOL    MW4 3927   0.002   0.835   2.035 -0.4773  0.1562 -0.1967
  971SOL     OW 3928   0.013   1.130   1.916 -0.8475  0.3678  0.8931
  971SOL    HW2 3929  -0.065   1.176   1.946 -1.1470 -0.0608  0.7794
  971SOL    HW3 3930   0.005   1.042   1.953 -0.8394  0.0708  0.2014
  971SOL    MW4 3931   0.002   1.125   1.924 -0.8860  0.2720  0.7868
  972SOL     OW 3932   0.224   1.259   2.035 -0.7209  0.5995  0.2579
  972SOL    HW2 3933   0.241   1.338   1.983  1.1585 -0.2751 -0.5268
  972SOL    HW3 3934   0.158   1.212   1.984 -0.1352  0.5568 -0.4760
  972SOL    MW4 3935   0.218   1.263   2.021 -0.3956  0.4785  0.0577
  973SOL     OW 3936   0.230   1.512   1.919  0.7030  0.1149  0.7330
  973SOL    HW2 3937   0.282   1.588   1.946 -0.4929  0.0622  3.3147
  973SOL    HW3 3938   0.140   1.535   1.943  0.0177 -1.1921 -0.5462
  973SOL    MW4 3939   0.225   1.525   1.926  0.4548 -0.0646  0.9049
  974SOL     OW 3940   4.487   1.655   1.990  0.0359 -0.0296 -0.0399
  974SOL    HW2 3941   4.487   1.651   2.086 -0.4706 -1.0131 -0.0780
  974SOL    HW3 3942   4.409   1.606   1.965 -0.5659  1.3525 -0.9060
  974SOL    MW4 3943   4.477   1.648   2.000 -0.1111  0.0228 -0.1591
  975SOL     OW 3944   0.011   1.925   1.873  0.5076 -0.4465  0.2093
  975SOL    HW2 3945  -0.069   1.959   1.913  0.8111  0.0883  0.3693
  975SOL    HW3 3946   0.016   1.834   1.903 -0.5274 -0.7579 -0.5609
  975SOL    MW4 3947   0.001   1.917   1.882  0.4110 -0.4170  0.1287
  976SOL     OW 3948   0.187   2.062   2.033  0.0244  0.4435  0.1123
  976SOL    HW2 3949   0.187   2.149   1.995 -0.7049 -0.3216 -1.7060
  976SOL    HW3 3950   0.132   2.010   1.974 -0.0464 -1.0921  1.4963
  976SOL    MW4 3951   0.180   2.066   2.020 -0.0812  0.1402  0.0548
  977SOL     OW 3952   0.257   2.290   1.878  0.4504 -0.0960 -0.6042
  977SOL    HW2 3953   0.331   2.346   1.902  0.7604 -0.4218 -0.7846
  977SOL    HW3 3954   0.180   2.336   1.909  0.8102 -0.3066  0.6128
  977SOL    MW4 3955   0.257   2.303   1.885  0.5388 -0.1669 -0.4675
  978SOL     OW 3956   0.072   2.460   2.015  0.2636  0.3146  0.6838
  978SOL    HW2 3957   0.047   2.469   2.107  1.2402  1.5652  0.8261
  978SOL    HW3 3958   0.070   2.549   1.980 -0.7443 -0.2219 -0.6915
  978SOL    MW4 3959   0.068   2.473   2.022  0.2595  0.4091  0.5212
  979SOL     OW 3960   0.030   2.716   1.895 -0.1774  0.1597  0.1472
  979SOL    HW2 3961  -0.053   2.760   1.912 -0.9936 -1.3385  0.1276
  979SOL    HW3 3962   0.031   2.702   1.801  0.7616  1.4464 -0.0455
  979SOL    MW4 3963   0.019   2.720   1.885 -0.1612  0.1318  0.1192
  980SOL     OW 3964   0.240   2.834   2.002 -0.1990 -0.3136  0.0490
  980SOL    HW2 3965   0.239   2.921   1.962 -0.9631  0.5007  1.7941
  980SOL    HW3 3966   0.163   2.789   1.965 -0.5646  0.2301  0.1454
  980SOL    MW4 3967   0.229   2.839   1.992 -0.3481 -0.1345  0.2919
  981SOL     OW 3968   0.242   3.093   1.881 -0.2142 -0.1243  0.2749
  981SOL    HW2 3969   0.318   3.140   1.916 -0.8683  1.1336 -0.0030
  981SOL    HW3 3970   0.260   3.086   1.787  0.3548 -1.3171  0.4626
  981SOL    MW4 3971   0.255   3.098   1.873 -0.2254 -0.1156  0.2630
  982SOL     OW 3972   0.026   3.227   1.989  0.0205  0.1682  0.1659
  982SOL    HW2 3973  -0.057   3.198   1.951 -0.3696  0.6436  0.6395
  982SOL    HW3 3974   0.093   3.177   1.942 -0.5816 -0.7915  0.3067
  982SOL    MW4 3975   0.024   3.217   1.978 -0.1104  0.1042  0.2470
  983SOL     OW 3976   0.043   3.475   1.859  0.1938 -0.0342 -0.1385
  983SOL    HW2 3977   0.129   3.509   1.887 -0.1529 -0.2497  1.2265
  983SOL    HW3 3978   0.030   3.397   1.912  0.6732 -1.9781 -2.7631
  983SOL    MW4 3979   0.053   3.469   1.870  0.2113 -0.3188 -0.3046
  984SOL     OW 3980   0.229   3.648   1.957 -0.2581 -0.1009 -0.2676
  984SOL    HW2 3981   0.215   3.628   2.050 -2.3187 -0.5335 -0.6535
  984SOL    HW3 3982   0.311   3.605   1.935 -0.1095 -0.5808  1.1793
  984SOL    MW4 3983   0.238   3.640   1.967 -0.5104 -0.2215 -0.1276
  985SOL     OW 3984   0.253   3.909   1.862 -0.1846  0.1394  0.2775
  985SOL    HW2 3985   0.344   3.927   1.885  0.4700 -1.3448 -1.0338
  985SOL    HW3 3986   0.241   3.817   1.883 -0.8702 -0.1042 -1.1210
  985SOL    MW4 3987   0.264   3.899   1.868 -0.1887 -0.0887 -0.0801
  986SOL     OW 3988   0.012   3.996   1.997  0.3022 -0.1544  0.0616
  986SOL    HW2 3989  -0.001   4.075   1.945  0.9447  1.2596  1.9731
  986SOL    HW3 3990   0.103   3.971   1.981  0.5728  0.4210  0.6746
  986SOL    MW4 3991   0.022   4.003   1.988  0.4225  0.1078  0.3947
  987SOL     OW 3992   4.467   4.258   1.892  0.1761 -0.0663 -0.0102
  987SOL    HW2 3993   4.389   4.300   1.927  0.0326  0.5001 -0.9651
  987SOL    HW3 3994   4.540   4.310   1.927  0.2030 -1.2057  1.6998
  987SOL    MW4 3995   4.466   4.271   1.901  0.1607 -0.1416  0.0894
  988SOL     OW 3996   0.221   4.368   1.985  0.0560  0.3912  0.6112
  988SOL    HW2 3997   0.215   4.376   2.080 -0.7525 -0.0407  0.6032
  988SOL    HW3 3998   0.231   4.458   1.954  0.1564  0.5483  1.0946
  988SOL    MW4 3999   0.221   4.381   1.993 -0.0375  0.3548  0.6740
  989SOL     OW 4000   0.697   0.008   1.934  0.3170  0.2495 -0.2045
  989SOL    HW2 4001   0.700  -0.086   1.946 -0.5740  0.1235 -0.8968
  989SOL    HW3 4002   0.694   0.020   1.839  1.9159  1.0202 -0.1679
  989SOL    MW4 4003   0.697  -0.003   1.923  0.4104  0.3343 -0.2909
  990SOL     OW 4004   0.453   0.105   2.022 -0.7322 -0.6323 -0.5673
  990SOL    HW2 4005   0.467   0.195   1.994 -1.5032 -0.3505 -0.0828
  990SOL    HW3 4006   0.535   0.060   2.004  0.0390  0.4377  0.2380
  990SOL    MW4 4007   0.465   0.111   2.016 -0.7322 -0.4539 -0.3972
  991SOL     OW 4008   0.446   0.339   1.857  0.1841  0.3326  0.3161
  991SOL    HW2 4009   0.512   0.406   1.872  0.9381  0.0191 -1.5002
  991SOL    HW3 4010   0.438   0.333   1.762 -0.1610 -1.8494  0.4456
  991SOL    MW4 4011   0.454   0.347   1.847  0.2381  0.0034  0.0936
  992SOL     OW 4012   0.642   0.511   1.974  0.3181  0.7568 -0.1477
  992SOL    HW2 4013   0.635   0.488   2.067 -0.0791  0.0930 -0.3427
  992SOL    HW3 4014   0.725   0.472   1.946 -0.2197 -0.2006 -0.4089
  992SOL    MW4 4015   0.652   0.503   1.983  0.1947  0.5429 -0.2080
  993SOL     OW 4016   0.669   0.773   1.938  0.2736  0.5546  0.0814
  993SOL    HW2 4017   0.756   0.804   1.966 -0.3254  1.9616  0.4611
  993SOL    HW3 4018   0.666   0.682   1.966  0.4815  1.3384  2.8971
  993SOL    MW4 4019   0.680   0.765   1.945  0.2220  0.8436  0.5029
  994SOL     OW 4020   0.410   0.873   1.964 -0.0173  0.0040 -0.2453
  994SOL    HW2 4021   0.420   0.963   1.935 -1.0562  0.4849  0.8444
  994SOL    HW3 4022   0.499   0.840   1.974  0.3612  0.7086 -1.2457
  994SOL    MW4 4023   0.423   0.880   1.961 -0.1044  0.1604 -0.2335
  995SOL     OW 4024   0.449   1.139   1.941 -0.5639  0.2100  0.4058
  995SOL    HW2 4025   0.379   1.185   1.987 -2.5825 -3.2960  0.9990
  995SOL    HW3 4026   0.441   1.167   1.850 -0.4211  2.5233  1.0712
  995SOL    MW4 4027   0.439   1.149   1.935 -0.8113  0.0527  0.5717
  996SOL     OW 4028   0.690   1.283   1.966 -0.1335  0.2637  0.0656
  996SOL    HW2 4029   0.697   1.292   2.061 -1.0117  0.8435  0.0849
  996SOL    HW3 4030   0.614   1.226   1.954  0.7570 -0.8660 -0.2586
  996SOL    MW4 4031   0.681   1.276   1.977 -0.1319  0.1910  0.0255
  997SOL     OW 4032   0.661   1.553   1.895 -0.4896 -0.2767 -0.6351
  997SOL    HW2 4033   0.679   1.466   1.931 -0.9157 -0.2956 -0.4608
  997SOL    HW3 4034   0.658   1.541   1.801  2.9709  0.1855 -0.8749
  997SOL    MW4 4035   0.663   1.540   1.888 -0.0892 -0.2182 -0.6436
  998SOL     OW 4036   0.422   1.696   1.984  0.4763 -0.6542 -0.4313
  998SOL    HW2 4037   0.410   1.680   2.077 -0.0228  1.5741 -0.0848
  998SOL    HW3 4038   0.507   1.658   1.963  1.7680  1.0911  1.5015
  998SOL    MW4 4039   0.431   1.689   1.993  0.5809 -0.1299 -0.1307
  999SOL     OW 4040   0.430   1.974   1.940 -0.0299 -0.0625 -0.2232
  999SOL    HW2 4041   0.428   1.881   1.965 -0.7193 -0.5947 -2.1797
  999SOL    HW3 4042   0.346   2.008   1.968  0.7711  0.3327  1.7677
  999SOL    MW4 4043   0.419   1.966   1.947 -0.0152 -0.0805 -0.2186
 1000SOL     OW 4044   0.691   2.051   2.017  0.0543 -0.3431 -0.4704
 1000SOL    HW2 4045   0.697   2.054   2.112  2.0927 -1.2969 -0.5333
 1000SOL    HW3 4046   0.603   2.018   1.999 -0.6918  0.8202  1.0611
 1000SOL    MW4 4047   0.681   2.047   2.027  0.2249 -0.3154 -0.2766
 1001SOL     OW 4048   0.689   2.321   1.877  0.2381  0.0927 -0.5328
 1001SOL    HW2 4049   0.679   2.232   1.913 -0.5421  0.1901 -0.4896
 1001SOL    HW3 4050   0.674   2.310   1.783 -0.3025  0.2457 -0.4664
 1001SOL    MW4 4051   0.685   2.308   1.869  0.0638  0.1259 -0.5183
 1002SOL     OW 4052   0.472   2.457   1.980 -0.2542 -0.0900 -0.0461
 1002SOL    HW2 4053   0.467   2.459   2.075  1.1714  1.1379  0.0174
 1002SOL    HW3 4054   0.558   2.420   1.961 -0.6157 -0.5393 -0.8653
 1002SOL    MW4 4055   0.483   2.452   1.990 -0.1138  0.0126 -0.1458
 1003SOL     OW 4056   0.421   2.699   1.859 -0.3384  0.9445 -0.0307
 1003SOL    HW2 4057   0.451   2.618   1.899  0.2739  1.1465 -0.0753
 1003SOL    HW3 4058   0.357   2.734   1.921 -1.0966  0.0977 -0.3261
 1003SOL    MW4 4059   0.417   2.693   1.873 -0.3576  0.8590 -0.0756
 1004SOL     OW 4060   0.623   2.863   1.970  0.2071 -0.1200  0.6549
 1004SOL    HW2 4061   0.613   2.857   2.065 -1.0928  0.7760  0.5945
 1004SOL    HW3 4062   0.555   2.804   1.935 -1.2572  1.7246  0.2794
 1004SOL    MW4 4063   0.612   2.854   1.978 -0.1576  0.2415  0.5975
 1005SOL     OW 4064   0.612   3.113   1.832  0.2903  0.1414 -0.2106
 1005SOL    HW2 4065   0.618   3.025   1.871 -0.1064  0.4041  0.4627
 1005SOL    HW3 4066   0.624   3.099   1.738 -1.0980 -0.8017 -0.2631
 1005SOL    MW4 4067   0.615   3.099   1.825  0.0548  0.0515 -0.1286
 1006SOL     OW 4068   0.429   3.254   1.989  0.0189 -0.1416 -0.2881
 1006SOL    HW2 4069   0.415   3.344   1.959  0.6175  0.5339  1.3592
 1006SOL    HW3 4070   0.501   3.222   1.935  0.4143  0.6930 -0.2638
 1006SOL    MW4 4071   0.437   3.262   1.978  0.1500  0.0577 -0.0676
 1007SOL     OW 4072   0.458   3.513   1.889  0.0613  0.1104  0.0142
 1007SOL    HW2 4073   0.547   3.539   1.914  0.4705 -1.6332  0.4659
 1007SOL    HW3 4074   0.467   3.482   1.799  0.5089 -2.7453  0.9837
 1007SOL    MW4 4075   0.471   3.512   1.880  0.1744 -0.4966  0.2018
 1008SOL     OW 4076   0.702   3.600   1.974 -0.0916 -0.1992  0.4542
 1008SOL    HW2 4077   0.779   3.547   1.951  0.0182  0.3646 -0.5296
 1008SOL    HW3 4078   0.716   3.683   1.928 -2.4401 -0.9344 -1.7183
 1008SOL    MW4 4079   0.714   3.604   1.965 -0.3870 -0.2217  0.0379
 1009SOL     OW 4080   0.701   3.855   1.851 -0.3609 -0.3272  0.7300
 1009SOL    HW2 4081   0.777   3.903   1.883 -0.2957  0.0000  0.0828
 1009SOL    HW3 4082   0.708   3.858   1.755 -0.4181 -1.5109  0.6731
 1009SOL    MW4 4083   0.712   3.862   1.842 -0.3598 -0.4404  0.6372
 1010SOL     OW 4084   0.479   3.968   1.978 -0.2043 -0.1020  0.3309
 1010SOL    HW2 4085   0.465   4.059   1.954  0.2165 -0.0916  0.1284
 1010SOL    HW3 4086   0.560   3.943   1.935 -1.1259 -1.0445 -0.9077
 1010SOL    MW4 4087   0.488   3.976   1.969 -0.2704 -0.2248  0.1409
 1011SOL     OW 4088   0.453   4.236   1.909 -0.1518  0.1189  0.2928
 1011SOL    HW2 4089   0.375   4.286   1.936  1.5688  3.2679 -0.2380
 1011SOL    HW3 4090   0.446   4.231   1.814 -1.6024 -2.9737  0.5242
 1011SOL    MW4 4091   0.442   4.242   1.900 -0.1162  0.1259  0.2532
 1012SOL     OW 4092   0.688   4.402   1.962 -0.1062 -0.1170 -0.1253
 1012SOL    HW2 4093   0.753   4.345   1.921  0.9953  1.1025 -0.0909
 1012SOL    HW3 4094   0.604   4.359   1.945  0.5646 -0.9161 -1.4758
 1012SOL    MW4 4095   0.686   4.389   1.954  0.1276 -0.0615 -0.2989
 1013SOL     OW 4096   1.148   0.027   1.871 -0.2088  0.4110 -0.2178
 1013SOL    HW2 4097   1.218   0.085   1.900  0.2636  0.5681 -1.6290
 1013SOL    HW3 4098   1.169  -0.057   1.913  1.5938  0.0954 -1.6771
 1013SOL    MW4 4099   1.160   0.023   1.880  0.0913  0.3896 -0.5965
 1014SOL     OW 4100   0.940   0.145   2.003 -0.1568 -0.3227  0.1871
 1014SOL    HW2 4101   1.016   0.092   1.977  0.2239  0.1854  0.2423
 1014SOL    HW3 4102   0.864   0.095   1.973  0.1685 -1.2787  0.9564
 1014SOL    MW4 4103   0.940   0.131   1.995 -0.0636 -0.3818  0.2956
 1015SOL     OW 4104   0.895   0.405   1.894 -0.2986  0.1450  0.8401
 1015SOL    HW2 4105   0.982   0.444   1.896 -0.3850  0.4898 -0.9872
 1015SOL    HW3 4106   0.905   0.321   1.938  1.0418  0.0308  0.3403
 1015SOL    MW4 4107   0.908   0.399   1.900 -0.1332  0.1754  0.5331
 1016SOL     OW 4108   1.120   0.519   1.979 -0.4224  0.2021  0.0211
 1016SOL    HW2 4109   1.203   0.476   1.959 -0.2624  0.7084 -0.4145
 1016SOL    HW3 4110   1.126   0.604   1.935 -1.5660 -0.1567 -0.8220
 1016SOL    MW4 4111   1.132   0.524   1.971 -0.5522  0.2216 -0.1476
 1017SOL     OW 4112   1.127   0.769   1.852 -0.2520  0.1418 -0.4157
 1017SOL    HW2 4113   1.194   0.826   1.890 -0.4632  0.1024  0.0300
 1017SOL    HW3 4114   1.046   0.796   1.896 -0.3194 -0.6456 -0.0426
 1017SOL    MW4 4115   1.125   0.780   1.863 -0.2887  0.0328 -0.3077
 1018SOL     OW 4116   0.929   0.861   2.022  0.2569  0.4848 -0.5982
 1018SOL    HW2 4117   0.942   0.843   2.115  1.4741 -0.7657 -1.0035
 1018SOL    HW3 4118   0.928   0.957   2.016 -3.2047  0.6314  1.1598
 1018SOL    MW4 4119   0.930   0.872   2.033 -0.0392  0.3392 -0.4199
 1019SOL     OW 4120   0.898   1.118   1.950 -0.0606 -0.0165 -0.1694
 1019SOL    HW2 4121   0.823   1.175   1.966 -1.3605 -1.6038 -0.4714
 1019SOL    HW3 4122   0.903   1.113   1.854  0.1216 -0.3178 -0.1418
 1019SOL    MW4 4123   0.889   1.125   1.939 -0.2081 -0.2657 -0.2056
 1020SOL     OW 4124   1.118   1.293   2.010 -0.1670 -0.1955  0.0354
 1020SOL    HW2 4125   1.109   1.386   1.990 -0.1758 -0.2957 -0.4309
 1020SOL    HW3 4126   1.032   1.256   1.993  0.5571 -0.7934 -2.5076
 1020SOL    MW4 4127   1.106   1.301   2.005 -0.0727 -0.2877 -0.3614
 1021SOL     OW 4128   1.100   1.554   1.914  0.0469 -0.2593  0.1308
 1021SOL    HW2 4129   1.029   1.608   1.948  1.3027  1.3563  0.2673
 1021SOL    HW3 4130   1.096   1.566   1.820  0.8474  0.7749  0.2170
 1021SOL    MW4 4131   1.090   1.562   1.906  0.3183  0.0904  0.1601
 1022SOL     OW 4132   0.871   1.669   2.029  0.2635 -0.1362  0.4113
 1022SOL    HW2 4133   0.870   1.761   2.000  0.9790 -0.4727 -0.7319
 1022SOL    HW3 4134   0.798   1.629   1.982  0.2026 -0.2467  0.6011
 1022SOL    MW4 4135   0.862   1.676   2.019  0.3499 -0.1951  0.2854
 1023SOL     OW 4136   0.926   1.925   1.914 -0.1916 -0.0258  0.1232
 1023SOL    HW2 4137   0.848   1.977   1.936 -0.3592 -0.4249  0.4825
 1023SOL    HW3 4138   0.907   1.890   1.828  0.2732  1.1760 -0.4803
 1023SOL    MW4 4139   0.913   1.927   1.906 -0.1525  0.0801  0.0908
 1024SOL     OW 4140   1.150   2.055   2.002 -0.0332 -0.0905 -0.0315
 1024SOL    HW2 4141   1.072   2.005   1.977  0.2471  0.0378 -1.2142
 1024SOL    HW3 4142   1.135   2.142   1.964  0.9082 -0.2113 -0.6814
 1024SOL    MW4 4143   1.137   2.060   1.994  0.1279 -0.0896 -0.2735
 1025SOL     OW 4144   1.143   2.311   1.862 -0.0046 -0.3064  0.1274
 1025SOL    HW2 4145   1.212   2.368   1.896 -0.6785  1.1534 -0.9232
 1025SOL    HW3 4146   1.160   2.306   1.768 -0.9778 -0.4430 -0.0426
 1025SOL    MW4 4147   1.154   2.318   1.854 -0.2220 -0.1316 -0.0336
 1026SOL     OW 4148   0.922   2.448   1.989 -0.7202 -0.0990  0.3047
 1026SOL    HW2 4149   0.997   2.414   1.940 -0.7684  0.6514 -0.3014
 1026SOL    HW3 4150   0.847   2.398   1.956 -0.2297 -2.2133  2.2972
 1026SOL    MW4 4151   0.922   2.437   1.978 -0.6617 -0.2789  0.4876
 1027SOL     OW 4152   0.851   2.717   1.890  0.5041 -0.2054 -0.0756
 1027SOL    HW2 4153   0.856   2.631   1.931  1.1080 -1.4102 -2.5241
 1027SOL    HW3 4154   0.774   2.759   1.928  1.6224 -0.8031  2.9763
 1027SOL    MW4 4155   0.842   2.711   1.900  0.7313 -0.4435  0.0041
 1028SOL     OW 4156   1.075   2.852   1.932 -0.2661  0.1548 -0.3216
 1028SOL    HW2 4157   1.099   2.869   2.023  0.3658 -0.7590 -0.3060
 1028SOL    HW3 4158   0.991   2.806   1.938 -1.6727  2.6187 -0.3401
 1028SOL    MW4 4159   1.067   2.848   1.945 -0.3682  0.3591 -0.3219
 1029SOL     OW 4160   1.132   3.105   1.856  0.4145 -0.0675 -0.2995
 1029SOL    HW2 4161   1.048   3.150   1.866  0.7607  0.1588  1.6568
 1029SOL    HW3 4162   1.113   3.013   1.872  0.5440 -0.0193  0.1224
 1029SOL    MW4 4163   1.118   3.099   1.859  0.4773 -0.0312  0.0142
 1030SOL     OW 4164   0.879   3.179   1.930 -0.2594  0.1516  0.5344
 1030SOL    HW2 4165   0.856   3.188   2.022 -1.6743  0.2069  0.1918
 1030SOL    HW3 4166   0.797   3.154   1.887 -0.7406  4.4429 -1.3578
 1030SOL    MW4 4167   0.865   3.177   1.936 -0.5096  0.7253  0.2396
 1031SOL     OW 4168   0.922   3.458   1.876 -0.0599  0.4454  0.0400
 1031SOL    HW2 4169   0.928   3.369   1.910 -0.2202 -0.0517 -1.1981
 1031SOL    HW3 4170   0.917   3.447   1.781 -1.0884  1.7334 -0.0673
 1031SOL    MW4 4171   0.922   3.445   1.868 -0.2167  0.5498 -0.1374
 1032SOL     OW 4172   1.118   3.631   1.970  0.6302 -0.3970 -0.0062
 1032SOL    HW2 4173   1.115   3.630   2.066  1.2400  2.2683  0.0783
 1032SOL    HW3 4174   1.044   3.576   1.943  0.4919 -1.2253  1.9839
 1032SOL    MW4 4175   1.108   3.623   1.979  0.6926 -0.1547  0.2676
 1033SOL     OW 4176   1.171   3.883   1.858  0.4114  0.0700  0.6394
 1033SOL    HW2 4177   1.155   3.798   1.898  0.9018 -0.3947 -0.1214
 1033SOL    HW3 4178   1.147   3.870   1.766 -1.0926  1.2333  0.8610
 1033SOL    MW4 4179   1.166   3.870   1.851  0.2776  0.1624  0.5683
 1034SOL     OW 4180   0.921   3.990   1.932 -0.1445 -0.4216  0.0147
 1034SOL    HW2 4181   0.924   3.976   2.026 -1.1557 -1.3455 -0.0739
 1034SOL    HW3 4182   1.002   3.950   1.899 -0.2633 -0.9723  0.3874
 1034SOL    MW4 4183   0.932   3.983   1.940 -0.2936 -0.6163  0.0521
 1035SOL     OW 4184   0.919   4.268   1.873  0.2876  0.1608  0.0340
 1035SOL    HW2 4185   1.002   4.305   1.904  0.6285 -0.6022  0.0446
 1035SOL    HW3 4186   0.924   4.176   1.898 -1.0771  0.3666  1.1212
 1035SOL    MW4 4187   0.931   4.261   1.881  0.1525  0.0873  0.1788
 1036SOL     OW 4188   1.156   4.421   1.968 -0.1752 -0.1185 -0.4787
 1036SOL    HW2 4189   1.151   4.417   2.064 -2.2476  2.5134 -0.4213
 1036SOL    HW3 4190   1.232   4.367   1.946  0.3701 -0.7420  2.6367
 1036SOL    MW4 4191   1.165   4.413   1.978 -0.3766  0.1469 -0.0600
 1037SOL     OW 4192   1.584   4.659   1.865 -0.0560  0.2310 -0.1446
 1037SOL    HW2 4193   1.660   4.701   1.905 -0.5823  1.4982 -0.4726
 1037SOL    HW3 4194   1.576   4.575   1.911  1.3283  0.2365  0.1262
 1037SOL    MW4 4195   1.593   4.653   1.876  0.0571  0.3991 -0.1521
 1038SOL     OW 4196   1.373   0.142   1.972  0.1048 -0.1126  0.1615
 1038SOL    HW2 4197   1.380   0.126   2.067  0.9248  0.1227  0.1387
 1038SOL    HW3 4198   1.442   0.088   1.934 -0.5901 -0.6462 -0.3587
 1038SOL    MW4 4199   1.383   0.133   1.980  0.1214 -0.1520  0.0898
 1039SOL     OW 4200   1.376   0.409   1.933 -0.2400  0.3138  0.1996
 1039SOL    HW2 4201   1.386   0.315   1.944  0.9811  0.2132 -1.5083
 1039SOL    HW3 4202   1.453   0.447   1.976  0.2932  0.3934 -0.7981
 1039SOL    MW4 4203   1.387   0.402   1.940 -0.0087  0.3110 -0.1574
 1040SOL     OW 4204   1.608   0.523   2.040 -0.4976  0.1231 -0.0321
 1040SOL    HW2 4205   1.687   0.478   2.010 -1.0458 -0.1448 -1.1105
 1040SOL    HW3 4206   1.606   0.509   2.135 -1.3245 -3.2393 -0.4695
 1040SOL    MW4 4207   1.618   0.515   2.049 -0.6791 -0.3558 -0.2320
 1041SOL     OW 4208   1.570   0.777   1.944 -0.4573 -0.1989  0.0465
 1041SOL    HW2 4209   1.649   0.819   1.976 -0.9276 -0.5157  1.6438
 1041SOL    HW3 4210   1.576   0.687   1.975  0.0746 -1.0985 -2.5349
 1041SOL    MW4 4211   1.581   0.771   1.952 -0.4492 -0.3594 -0.0833
 1042SOL     OW 4212   1.319   0.912   1.971 -0.0090 -0.2404  0.4082
 1042SOL    HW2 4213   1.322   0.922   2.067 -0.2453 -1.4192  0.5369
 1042SOL    HW3 4214   1.406   0.878   1.949  0.6511  1.6017  0.0002
 1042SOL    MW4 4215   1.331   0.909   1.981  0.0468 -0.1529  0.3715
 1043SOL     OW 4216   1.312   1.161   1.849  0.0353  0.4774 -0.0452
 1043SOL    HW2 4217   1.317   1.071   1.882  1.2721  0.0548 -1.3593
 1043SOL    HW3 4218   1.234   1.198   1.891 -0.6237 -1.2859  0.2973
 1043SOL    MW4 4219   1.303   1.154   1.859  0.1115  0.1891 -0.1733
 1044SOL     OW 4220   1.554   1.264   1.942  0.3663 -0.1398  0.5570
 1044SOL    HW2 4221   1.535   1.350   1.905 -0.5443  0.1953  1.7527
 1044SOL    HW3 4222   1.474   1.213   1.927  0.4573 -0.3898  0.9087
 1044SOL    MW4 4223   1.541   1.268   1.935  0.2582 -0.1286  0.7613
 1045SOL     OW 4224   1.558   1.529   1.865 -0.0551  0.0207 -0.1037
 1045SOL    HW2 4225   1.634   1.567   1.910  0.0687 -1.5732  1.1010
 1045SOL    HW3 4226   1.483   1.571   1.906  0.1505  0.8358 -0.5636
 1045SOL    MW4 4227   1.558   1.539   1.877 -0.0117 -0.0820 -0.0054
 1046SOL     OW 4228   1.356   1.674   1.972  0.1041 -0.1081 -0.2353
 1046SOL    HW2 4229   1.360   1.706   2.062  0.0439  0.1492 -0.3223
 1046SOL    HW3 4230   1.269   1.635   1.965  0.6825 -1.4916  0.2668
 1046SOL    MW4 4231   1.345   1.673   1.983  0.1725 -0.2567 -0.1805
 1047SOL     OW 4232   1.353   1.912   1.850 -0.4622 -0.1479  0.0477
 1047SOL    HW2 4233   1.355   1.824   1.888 -1.1275 -0.3162 -0.2890
 1047SOL    HW3 4234   1.285   1.957   1.900 -1.2305 -0.3210 -0.8266
 1047SOL    MW4 4235   1.344   1.906   1.862 -0.6512 -0.1930 -0.1122
 1048SOL     OW 4236   1.531   2.035   2.008 -0.3367 -0.2135 -0.1060
 1048SOL    HW2 4237   1.523   2.128   1.986  0.0030 -0.3597 -0.8531
 1048SOL    HW3 4238   1.473   1.990   1.946 -0.8039 -0.4683  0.5093
 1048SOL    MW4 4239   1.523   2.041   1.997 -0.3537 -0.2663 -0.1234
 1049SOL     OW 4240   1.554   2.303   1.924 -0.0966 -0.5357  0.2255
 1049SOL    HW2 4241   1.632   2.354   1.946 -0.1818 -0.0873 -0.4961
 1049SOL    HW3 4242   1.566   2.278   1.832 -0.4107 -1.1798  0.3513
 1049SOL    MW4 4243   1.566   2.306   1.915 -0.1491 -0.5612  0.1467
 1050SOL     OW 4244   1.349   2.464   1.970  0.2323 -0.0286 -0.3353
 1050SOL    HW2 4245   1.348   2.455   2.065  0.5960 -0.4341 -0.3730
 1050SOL    HW3 4246   1.419   2.406   1.940 -0.0818 -0.1363 -0.8756
 1050SOL    MW4 4247   1.358   2.455   1.978  0.2387 -0.0966 -0.4116
 1051SOL     OW 4248   1.312   2.720   1.880 -0.3938 -0.4448 -0.6530
 1051SOL    HW2 4249   1.225   2.752   1.904 -0.4605  0.0031 -1.4658
 1051SOL    HW3 4250   1.321   2.637   1.926 -0.0057  0.9741  1.9591
 1051SOL    MW4 4251   1.302   2.713   1.889 -0.3513 -0.1984 -0.4156
 1052SOL     OW 4252   1.567   2.829   1.950 -0.2046 -0.2241 -0.0203
 1052SOL    HW2 4253   1.627   2.764   1.912 -0.0402  1.0474 -1.9879
 1052SOL    HW3 4254   1.480   2.791   1.937 -0.1868  0.3931 -2.1138
 1052SOL    MW4 4255   1.564   2.815   1.943 -0.1805  0.0253 -0.5560
 1053SOL     OW 4256   1.549   3.107   1.887  0.2514  0.0925  0.1864
 1053SOL    HW2 4257   1.560   3.018   1.922  0.8826  0.1563  0.1538
 1053SOL    HW3 4258   1.546   3.095   1.792 -0.3571  0.0367  0.2092
 1053SOL    MW4 4259   1.550   3.093   1.879  0.2544  0.0937  0.1853
 1054SOL     OW 4260   1.328   3.234   1.987 -0.3120  0.4887 -0.2927
 1054SOL    HW2 4261   1.404   3.183   1.958 -0.2824 -0.7360  1.8449
 1054SOL    HW3 4262   1.253   3.189   1.946  0.0596  1.4843 -2.1080
 1054SOL    MW4 4263   1.328   3.221   1.978 -0.2589  0.4585 -0.2502
 1055SOL     OW 4264   1.338   3.500   1.843 -0.4691  0.4008 -0.1591
 1055SOL    HW2 4265   1.344   3.414   1.884 -0.7085  0.6024  0.3051
 1055SOL    HW3 4266   1.268   3.545   1.890  0.5329  1.3183  0.4887
 1055SOL    MW4 4267   1.330   3.495   1.855 -0.3685  0.5486 -0.0123
 1056SOL     OW 4268   1.584   3.572   1.956 -0.2609 -0.1850  0.4538
 1056SOL    HW2 4269   1.565   3.579   2.050 -0.4091 -1.6022  0.5385
 1056SOL    HW3 4270   1.501   3.542   1.918 -0.5935  1.6383 -0.3249
 1056SOL    MW4 4271   1.570   3.569   1.963 -0.3244 -0.1314  0.3622
 1057SOL     OW 4272   1.629   3.812   1.839  0.1960  0.2467 -0.1689
 1057SOL    HW2 4273   1.700   3.849   1.891 -0.5555 -0.0105  1.0562
 1057SOL    HW3 4274   1.610   3.728   1.881 -0.1705 -0.1356 -1.0827
 1057SOL    MW4 4275   1.636   3.805   1.851  0.0485  0.1626 -0.1277
 1058SOL     OW 4276   1.425   3.985   1.942  0.0940  0.5294  0.6994
 1058SOL    HW2 4277   1.494   3.933   1.900  0.3742 -0.9085  2.8421
 1058SOL    HW3 4278   1.344   3.953   1.903  0.4275  0.0746  0.3738
 1058SOL    MW4 4279   1.424   3.974   1.931  0.1750  0.2794  0.9392
 1059SOL     OW 4280   1.393   4.263   1.886 -0.2295 -0.0806  0.2141
 1059SOL    HW2 4281   1.397   4.169   1.905 -0.1316  0.1582  1.4677
 1059SOL    HW3 4282   1.397   4.269   1.791  2.3089 -1.2177  0.2168
 1059SOL    MW4 4283   1.394   4.251   1.876  0.1185 -0.1993  0.3798
 1060SOL     OW 4284   1.601   4.405   1.987 -0.2650 -0.4186 -0.5164
 1060SOL    HW2 4285   1.577   4.399   2.079  2.6358 -1.6717  0.2006
 1060SOL    HW3 4286   1.540   4.347   1.942 -1.8873  0.4319  0.5324
 1060SOL    MW4 4287   1.589   4.397   1.993 -0.0963 -0.4716 -0.2834
 1061SOL     OW 4288   1.998   4.665   1.892  0.0241  0.9487  0.2535
 1061SOL    HW2 4289   2.072   4.719   1.919  1.7979 -0.6452 -1.2596
 1061SOL    HW3 4290   2.021   4.577   1.921 -1.0715  0.3750 -0.5979
 1061SOL    MW4 4291   2.011   4.660   1.899  0.1137  0.6628 -0.0583
 1062SOL     OW 4292   1.791   0.118   2.009 -0.0546  0.4079  0.4284
 1062SOL    HW2 4293   1.794   0.106   2.104  1.4833  2.2827  0.6399
 1062SOL    HW3 4294   1.861   0.062   1.976 -2.1061 -2.0952  0.1445
 1062SOL    MW4 4295   1.800   0.109   2.017 -0.1225  0.3250  0.4187
 1063SOL     OW 4296   1.821   0.382   1.937 -0.0485 -0.1706 -0.5298
 1063SOL    HW2 4297   1.819   0.291   1.965 -1.7869 -0.4144 -1.3812
 1063SOL    HW3 4298   1.802   0.379   1.843 -1.1558  1.1392 -0.3683
 1063SOL    MW4 4299   1.818   0.370   1.928 -0.4239 -0.0299 -0.6208
 1064SOL     OW 4300   2.059   0.532   1.999  0.7345 -0.2952 -0.2503
 1064SOL    HW2 4301   2.047   0.622   1.969  3.8376 -0.3095 -1.7973
 1064SOL    HW3 4302   1.985   0.484   1.960 -0.0901  1.2911 -0.7017
 1064SOL    MW4 4303   2.048   0.538   1.990  1.0355 -0.0878 -0.5139
 1065SOL     OW 4304   1.977   0.781   1.874  0.0864 -0.5936  0.2135
 1065SOL    HW2 4305   2.066   0.809   1.894 -0.3772  0.0519  1.4348
 1065SOL    HW3 4306   1.978   0.761   1.780  1.2090  0.5465 -0.0234
 1065SOL    MW4 4307   1.989   0.782   1.864  0.1733 -0.3580  0.3433
 1066SOL     OW 4308   1.802   0.917   2.028 -0.1842 -0.0114  0.0925
 1066SOL    HW2 4309   1.805   1.007   1.995  1.0577 -0.0827 -0.0343
 1066SOL    HW3 4310   1.860   0.868   1.969 -1.0705 -0.9547 -0.0074
 1066SOL    MW4 4311   1.810   0.922   2.015 -0.1372 -0.1453  0.0627
 1067SOL     OW 4312   1.818   1.173   1.910  0.1428  0.1422  0.3129
 1067SOL    HW2 4313   1.728   1.204   1.916  0.1843  0.2912  0.1412
 1067SOL    HW3 4314   1.831   1.152   1.817 -0.5276 -2.2858  0.7263
 1067SOL    MW4 4315   1.808   1.174   1.899  0.0597 -0.1584  0.3448
 1068SOL     OW 4316   2.043   1.283   2.007  0.1420 -0.4256  0.0561
 1068SOL    HW2 4317   2.117   1.231   1.974  1.3020 -0.3919  2.5274
 1068SOL    HW3 4318   1.966   1.229   1.986  0.8871 -0.7425 -2.0001
 1068SOL    MW4 4319   2.043   1.269   2.000  0.3934 -0.4630  0.1109
 1069SOL     OW 4320   1.990   1.533   1.916 -0.3852 -0.4125  0.4441
 1069SOL    HW2 4321   2.017   1.448   1.952  1.1052  0.1905  0.8104
 1069SOL    HW3 4322   1.991   1.521   1.821 -0.9908 -1.0308  0.5080
 1069SOL    MW4 4323   1.994   1.520   1.909 -0.2683 -0.4145  0.5008
 1070SOL     OW 4324   1.760   1.670   1.971  0.4955  0.4912  0.3159
 1070SOL    HW2 4325   1.767   1.757   1.932 -0.7631  0.3482 -0.2796
 1070SOL    HW3 4326   1.842   1.626   1.948 -0.2011  0.4155 -2.2462
 1070SOL    MW4 4327   1.772   1.675   1.963  0.2375  0.4624 -0.1007
 1071SOL     OW 4328   1.773   1.929   1.907 -0.3888 -0.0058 -0.2602
 1071SOL    HW2 4329   1.692   1.972   1.934 -0.7838 -0.0069 -1.4403
 1071SOL    HW3 4330   1.786   1.957   1.816  0.5866 -0.5263 -0.2857
 1071SOL    MW4 4331   1.764   1.938   1.899 -0.3121 -0.0746 -0.4193
 1072SOL     OW 4332   2.023   2.077   1.968 -0.3210 -0.0312 -0.1030
 1072SOL    HW2 4333   2.086   2.020   1.924 -0.1964 -0.0744  0.1341
 1072SOL    HW3 4334   1.946   2.022   1.981 -0.6120  0.1752 -0.8809
 1072SOL    MW4 4335   2.021   2.062   1.964 -0.3431 -0.0093 -0.1744
 1073SOL     OW 4336   2.008   2.325   1.861 -0.1070  0.2125 -0.3677
 1073SOL    HW2 4337   2.092   2.365   1.883 -0.2183 -0.4594  1.4287
 1073SOL    HW3 4338   2.015   2.236   1.895 -2.0332  0.5733  1.0526
 1073SOL    MW4 4339   2.020   2.319   1.869 -0.3760  0.1714  0.0566
 1074SOL     OW 4340   1.788   2.423   1.991 -0.1480 -0.1412  0.4245
 1074SOL    HW2 4341   1.818   2.420   2.082  2.8640 -1.3187 -0.5256
 1074SOL    HW3 4342   1.862   2.387   1.941 -2.4355 -1.1983 -2.3029
 1074SOL    MW4 4343   1.802   2.418   1.997 -0.0525 -0.4358 -0.0608
 1075SOL     OW 4344   1.783   2.665   1.867  0.2847  0.1635 -0.6935
 1075SOL    HW2 4345   1.783   2.577   1.906 -0.5657 -0.6329 -2.4141
 1075SOL    HW3 4346   1.776   2.649   1.773  0.0109  2.0900 -1.0194
 1075SOL    MW4 4347   1.782   2.651   1.860  0.1365  0.3126 -0.9637
 1076SOL     OW 4348   2.004   2.784   1.967  0.4331  0.1566  0.1918
 1076SOL    HW2 4349   2.000   2.797   2.061  0.9975 -1.9082  0.5264
 1076SOL    HW3 4350   1.925   2.733   1.947  1.4909 -1.4196 -0.0716
 1076SOL    MW4 4351   1.993   2.779   1.977  0.6471 -0.3238  0.2012
 1077SOL     OW 4352   2.054   3.062   1.937  0.7092 -0.3206  0.3470
 1077SOL    HW2 4353   2.040   2.968   1.932  0.0062 -0.2546  1.0353
 1077SOL    HW3 4354   1.967   3.099   1.951  0.9212  0.4664 -0.4026
 1077SOL    MW4 4355   2.041   3.055   1.938  0.6447 -0.2077  0.3390
 1078SOL     OW 4356   1.805   3.197   1.971 -0.5146  0.5576  0.0910
 1078SOL    HW2 4357   1.805   3.221   2.063  0.1487  0.0714  0.2215
 1078SOL    HW3 4358   1.713   3.190   1.947 -0.7046  1.7356  0.4403
 1078SOL    MW4 4359   1.793   3.199   1.980 -0.4522  0.6490  0.1544
 1079SOL     OW 4360   2.042   3.607   2.001  0.0759 -0.0445  0.3132
 1079SOL    HW2 4361   1.983   3.547   1.956  0.1889 -1.1322  1.6061
 1079SOL    HW3 4362   2.021   3.693   1.963 -0.7143 -0.7473 -0.8901
 1079SOL    MW4 4363   2.031   3.611   1.990 -0.0134 -0.2806  0.3250
 1080SOL     OW 4364   1.833   3.460   1.859 -0.0703 -0.0169 -0.2866
 1080SOL    HW2 4365   1.755   3.497   1.900 -0.2918  0.8288 -1.4119
 1080SOL    HW3 4366   1.839   3.371   1.893 -1.6762 -0.1770 -0.3767
 1080SOL    MW4 4367   1.824   3.453   1.869 -0.3115  0.0737 -0.4469
 1081SOL     OW 4368   2.027   3.851   1.871  0.2679 -0.3305 -0.1403
 1081SOL    HW2 4369   2.096   3.910   1.900  0.0636 -0.7748  1.2970
 1081SOL    HW3 4370   2.034   3.850   1.776 -0.0749  2.4278 -0.2392
 1081SOL    MW4 4371   2.037   3.858   1.862  0.1957 -0.0253  0.0364
 1082SOL     OW 4372   1.814   3.964   1.981  0.1697 -0.1538 -0.3706
 1082SOL    HW2 4373   1.811   4.057   1.959  0.3901  0.2757  1.3413
 1082SOL    HW3 4374   1.884   3.929   1.926 -0.5987  0.4671 -1.7791
 1082SOL    MW4 4375   1.823   3.972   1.971  0.0974 -0.0153 -0.3306
 1083SOL     OW 4376   1.812   4.230   1.939 -0.0295 -0.7331 -0.5404
 1083SOL    HW2 4377   1.738   4.289   1.956  0.5436 -0.2610  0.3192
 1083SOL    HW3 4378   1.820   4.229   1.843  0.0580  0.7064 -0.5581
 1083SOL    MW4 4379   1.803   4.237   1.928  0.0577 -0.4811 -0.4292
 1084SOL     OW 4380   2.011   4.401   1.980 -0.4627  0.1382 -0.4349
 1084SOL    HW2 4381   2.088   4.363   1.939 -0.2389 -0.1613  0.2624
 1084SOL    HW3 4382   1.942   4.335   1.969 -0.5464  0.2860 -0.8050
 1084SOL    MW4 4383   2.012   4.388   1.973 -0.4442  0.1183 -0.3916
 1085SOL     OW 4384   2.458   4.641   1.899  0.3955  0.7289 -0.1442
 1085SOL    HW2 4385   2.534   4.686   1.937  0.3447  0.6007  0.1129
 1085SOL    HW3 4386   2.477   4.548   1.911  0.9392  0.6560 -1.5394
 1085SOL    MW4 4387   2.470   4.635   1.906  0.4606  0.7019 -0.2943
 1086SOL     OW 4388   2.225   0.136   1.973  0.6793 -0.2454  0.4417
 1086SOL    HW2 4389   2.227   0.122   2.067 -0.3460 -2.1778  0.2050
 1086SOL    HW3 4390   2.301   0.088   1.940  0.7993  0.0814  0.2392
 1086SOL    MW4 4391   2.235   0.128   1.981  0.5598 -0.4572  0.3837
 1087SOL     OW 4392   2.267   0.402   1.878 -0.3072  0.2029  0.0394
 1087SOL    HW2 4393   2.253   0.315   1.916  0.0300  0.3166  0.4218
 1087SOL    HW3 4394   2.209   0.460   1.928  0.2512  0.3793  0.4749
 1087SOL    MW4 4395   2.257   0.398   1.889 -0.1888  0.2412  0.1475
 1088SOL     OW 4396   2.522   0.482   1.959 -0.0582 -0.4841 -0.2017
 1088SOL    HW2 4397   2.590   0.432   1.913 -0.1763  0.2318 -1.1823
 1088SOL    HW3 4398   2.440   0.453   1.919 -0.1348  0.3979 -0.7077
 1088SOL    MW4 4399   2.520   0.471   1.948 -0.0834 -0.2733 -0.3979
 1089SOL     OW 4400   2.493   0.751   1.900  0.2906  0.8457  0.4041
 1089SOL    HW2 4401   2.521   0.663   1.925 -2.9454 -0.2266  0.4468
 1089SOL    HW3 4402   2.514   0.756   1.807 -0.4740 -0.3797  0.1493
 1089SOL    MW4 4403   2.499   0.740   1.891 -0.2375  0.5426  0.3761
 1090SOL     OW 4404   2.237   0.863   1.975 -0.1896 -0.0236  0.3394
 1090SOL    HW2 4405   2.227   0.880   2.069 -1.7876 -0.5301  0.2796
 1090SOL    HW3 4406   2.328   0.834   1.965  0.2112  0.7690  1.6117
 1090SOL    MW4 4407   2.247   0.861   1.986 -0.3471  0.0141  0.4995
 1091SOL     OW 4408   2.253   1.133   1.869 -0.0014 -0.2886 -0.3423
 1091SOL    HW2 4409   2.336   1.169   1.897 -0.4295  0.3590  0.1110
 1091SOL    HW3 4410   2.246   1.050   1.917  0.0637 -0.0084  0.1580
 1091SOL    MW4 4411   2.263   1.126   1.879 -0.0494 -0.1663 -0.2165
 1092SOL     OW 4412   2.482   1.254   1.958  0.2067  0.2934  0.3563
 1092SOL    HW2 4413   2.481   1.271   2.052  0.0622  0.6382  0.2919
 1092SOL    HW3 4414   2.472   1.340   1.918  0.4269  0.1620  0.0237
 1092SOL    MW4 4415   2.480   1.267   1.965  0.2165  0.3216  0.3039
 1093SOL     OW 4416   2.459   1.507   1.860 -0.1391 -0.2871 -0.1104
 1093SOL    HW2 4417   2.383   1.563   1.874  1.9213  2.5086  0.2603
 1093SOL    HW3 4418   2.477   1.514   1.766  0.2520 -0.1601 -0.0263
 1093SOL    MW4 4419   2.451   1.515   1.849  0.1848  0.0985 -0.0502
 1094SOL     OW 4420   2.228   1.661   1.938  0.0089  0.1284  0.2932
 1094SOL    HW2 4421   2.235   1.680   2.032  2.4585 -1.1000  0.3828
 1094SOL    HW3 4422   2.140   1.625   1.928 -0.4934  0.8169  2.0050
 1094SOL    MW4 4423   2.217   1.659   1.949  0.2658  0.0571  0.5308
 1095SOL     OW 4424   2.218   1.933   1.843  0.0737 -0.0851 -0.9126
 1095SOL    HW2 4425   2.284   1.966   1.903 -1.6046  1.2239  0.2517
 1095SOL    HW3 4426   2.210   1.840   1.865  0.6336  0.0252 -0.2249
 1095SOL    MW4 4427   2.226   1.925   1.854 -0.0739  0.1020 -0.6683
 1096SOL     OW 4428   2.440   2.032   2.001 -0.0463 -0.0204 -0.5952
 1096SOL    HW2 4429   2.506   1.986   1.949 -1.5997 -1.0825 -1.6781
 1096SOL    HW3 4430   2.453   2.125   1.981  1.5686 -0.1603 -0.2386
 1096SOL    MW4 4431   2.450   2.038   1.992 -0.0381 -0.1788 -0.6908
 1097SOL     OW 4432   2.471   2.298   1.902  0.0134 -0.2097  0.2186
 1097SOL    HW2 4433   2.542   2.354   1.936 -0.0164  1.2031 -1.9345
 1097SOL    HW3 4434   2.391   2.339   1.935  0.0658  0.1234 -0.0602
 1097SOL    MW4 4435   2.470   2.311   1.911  0.0165  0.0205 -0.1023
 1098SOL     OW 4436   2.240   2.467   1.942  0.0403  0.2217 -0.3887
 1098SOL    HW2 4437   2.243   2.460   2.037 -2.6749 -0.1707 -0.2796
 1098SOL    HW3 4438   2.247   2.561   1.924 -1.4461  0.4734  0.3260
 1098SOL    MW4 4439   2.241   2.478   1.952 -0.5143  0.2034 -0.2800
 1099SOL     OW 4440   2.271   2.740   1.889 -0.3653  0.6144 -0.4084
 1099SOL    HW2 4441   2.187   2.768   1.925 -1.2114 -0.2407 -1.7190
 1099SOL    HW3 4442   2.260   2.743   1.794  0.6334 -0.7753 -0.5948
 1099SOL    MW4 4443   2.259   2.744   1.882 -0.3452  0.3183 -0.6059
 1100SOL     OW 4444   2.515   2.829   2.011 -0.5188  0.2526 -0.1023
 1100SOL    HW2 4445   2.509   2.924   2.005  0.9107  0.2638 -1.4351
 1100SOL    HW3 4446   2.437   2.797   1.965 -1.1073  0.7540  0.5204
 1100SOL    MW4 4447   2.504   2.837   2.004 -0.4079  0.3202 -0.1960
 1101SOL     OW 4448   2.473   3.088   1.954 -0.6385  0.3140  0.0682
 1101SOL    HW2 4449   2.395   3.134   1.985 -0.1305  1.3446 -0.1410
 1101SOL    HW3 4450   2.458   3.075   1.860  0.7657  3.3284 -0.6386
 1101SOL    MW4 4451   2.461   3.092   1.946 -0.3862  0.8478 -0.0527
 1102SOL     OW 4452   2.250   3.232   2.015 -0.7236 -0.3067  0.4549
 1102SOL    HW2 4453   2.246   3.222   2.110  2.1730 -0.2278  0.6201
 1102SOL    HW3 4454   2.168   3.194   1.984 -1.5806 -0.6004  2.9620
 1102SOL    MW4 4455   2.239   3.225   2.023 -0.4544 -0.3352  0.8075
 1103SOL     OW 4456   2.280   3.495   1.907  0.3638  0.1623  0.0539
 1103SOL    HW2 4457   2.267   3.410   1.949  0.4677 -0.5671 -1.3579
 1103SOL    HW3 4458   2.207   3.549   1.939  1.2828  0.0941  2.3094
 1103SOL    MW4 4459   2.269   3.491   1.916  0.4988  0.0570  0.1650
 1104SOL     OW 4460   2.494   3.624   2.022  0.6215 -0.0232  0.0277
 1104SOL    HW2 4461   2.498   3.611   2.117 -0.2698  0.9136  0.1982
 1104SOL    HW3 4462   2.414   3.580   1.995  1.2391 -0.9051 -0.4061
 1104SOL    MW4 4463   2.484   3.617   2.031  0.5853 -0.0157 -0.0069
 1105SOL     OW 4464   2.462   3.869   1.885 -0.3208 -0.0673  0.6535
 1105SOL    HW2 4465   2.382   3.911   1.913 -1.1179 -1.2053  0.1414
 1105SOL    HW3 4466   2.483   3.808   1.956 -0.1519 -0.0816  0.5914
 1105SOL    MW4 4467   2.454   3.866   1.898 -0.4034 -0.2193  0.5777
 1106SOL     OW 4468   2.230   4.002   1.973 -0.2872  0.0633  0.1004
 1106SOL    HW2 4469   2.232   3.993   2.068 -0.7269  2.3949  0.3827
 1106SOL    HW3 4470   2.221   4.097   1.959 -1.3238 -0.3445 -2.2347
 1106SOL    MW4 4471   2.229   4.014   1.984 -0.4821  0.3171 -0.1704
 1107SOL     OW 4472   2.260   4.283   1.877  0.0327 -0.0633  0.0587
 1107SOL    HW2 4473   2.349   4.296   1.909  0.0864 -0.9692  0.2865
 1107SOL    HW3 4474   2.271   4.261   1.784  0.0295  0.0799  0.0241
 1107SOL    MW4 4475   2.273   4.281   1.869  0.0393 -0.1640  0.0844
 1108SOL     OW 4476   2.509   4.369   1.964  0.3100  0.2261  0.4080
 1108SOL    HW2 4477   2.501   4.377   2.059 -0.3257 -0.3689  0.4043
 1108SOL    HW3 4478   2.599   4.340   1.951  0.2187 -0.2713  0.8649
 1108SOL    MW4 4479   2.520   4.366   1.975  0.2143  0.0820  0.4679
 1109SOL     OW 4480   2.915   4.663   1.924 -0.1966  0.0609  0.6386
 1109SOL    HW2 4481   2.972   4.736   1.949  0.7408 -0.5262  0.2461
 1109SOL    HW3 4482   2.952   4.587   1.968  0.1925 -0.5855 -0.7785
 1109SOL    MW4 4483   2.927   4.662   1.933 -0.0215 -0.1020  0.3998
 1110SOL     OW 4484   2.683   0.131   1.991  0.3087 -0.2212  0.3823
 1110SOL    HW2 4485   2.682   0.122   2.086 -0.1450 -0.8282  0.3259
 1110SOL    HW3 4486   2.758   0.077   1.963  1.0152  0.7142  0.4651
 1110SOL    MW4 4487   2.693   0.122   2.000  0.3421 -0.1779  0.3856
 1111SOL     OW 4488   2.724   0.338   1.834 -0.2052 -0.1190  0.0263
 1111SOL    HW2 4489   2.794   0.393   1.872  0.3000 -0.3222 -0.5950
 1111SOL    HW3 4490   2.717   0.264   1.894  0.9013 -0.6671 -0.5042
 1111SOL    MW4 4491   2.733   0.336   1.847  0.0074 -0.2182 -0.1256
 1112SOL     OW 4492   2.909   0.506   1.999 -0.3092  0.2696 -0.1350
 1112SOL    HW2 4493   2.994   0.477   1.967  1.0571  2.0074  1.8268
 1112SOL    HW3 4494   2.903   0.598   1.972 -1.0098  0.5233  0.8551
 1112SOL    MW4 4495   2.919   0.514   1.991 -0.2213  0.5323  0.2544
 1113SOL     OW 4496   2.905   0.754   1.897 -0.2258  0.2136  0.3124
 1113SOL    HW2 4497   2.977   0.799   1.941  0.0149  2.1860 -2.0011
 1113SOL    HW3 4498   2.827   0.805   1.920 -0.2480  0.6283 -0.6355
 1113SOL    MW4 4499   2.904   0.767   1.906 -0.1972  0.5285 -0.1179
 1114SOL     OW 4500   2.697   0.893   2.016  0.0936 -0.2577  0.5724
 1114SOL    HW2 4501   2.703   0.981   1.978  0.1909  0.5197  2.3381
 1114SOL    HW3 4502   2.622   0.853   1.973 -0.5039  1.0242  0.3935
 1114SOL    MW4 4503   2.688   0.900   2.005  0.0279  0.0140  0.7815
 1115SOL     OW 4504   2.722   1.126   1.864  0.1774  0.0353  0.2162
 1115SOL    HW2 4505   2.647   1.185   1.877  0.8716  1.1065 -0.5505
 1115SOL    HW3 4506   2.733   1.123   1.769 -0.4176 -2.0750  0.1954
 1115SOL    MW4 4507   2.714   1.134   1.853  0.1905 -0.1018  0.1125
 1116SOL     OW 4508   2.929   1.212   2.008 -0.1954 -0.2992 -0.0645
 1116SOL    HW2 4509   2.930   1.306   1.995  0.3894 -0.3808 -0.5914
 1116SOL    HW3 4510   2.856   1.181   1.954  0.1342 -0.2480 -0.5384
 1116SOL    MW4 4511   2.919   1.220   1.999 -0.0749 -0.3031 -0.1967
 1117SOL     OW 4512   2.921   1.480   1.926 -0.2766 -0.0762 -0.6291
 1117SOL    HW2 4513   2.980   1.550   1.952  0.5772 -1.0280  0.0179
 1117SOL    HW3 4514   2.913   1.489   1.831  1.1307 -0.1219 -0.7566
 1117SOL    MW4 4515   2.928   1.490   1.917  0.0219 -0.2079 -0.5605
 1118SOL     OW 4516   2.691   1.626   1.974 -0.5146 -0.0621 -0.3056
 1118SOL    HW2 4517   2.768   1.583   1.938 -1.3688 -0.0088 -2.2325
 1118SOL    HW3 4518   2.618   1.569   1.951 -1.2538  0.7087  0.0794
 1118SOL    MW4 4519   2.691   1.613   1.967 -0.7248  0.0466 -0.5090
 1119SOL     OW 4520   2.667   1.888   1.872  0.5973 -0.3111  0.2134
 1119SOL    HW2 4521   2.736   1.933   1.921  1.3815 -0.7882 -0.4552
 1119SOL    HW3 4522   2.670   1.797   1.903  1.5580 -0.7785 -1.2087
 1119SOL    MW4 4523   2.676   1.882   1.883  0.8276 -0.4358 -0.0625
 1120SOL     OW 4524   2.885   2.024   2.001 -0.1543  0.1660  0.3499
 1120SOL    HW2 4525   2.901   2.058   2.089 -0.4176 -0.1926  0.5383
 1120SOL    HW3 4526   2.967   1.983   1.975  0.3237  1.3813 -0.0793
 1120SOL    MW4 4527   2.898   2.023   2.009 -0.1256  0.2792  0.3178
 1121SOL     OW 4528   2.915   2.294   1.882 -0.0343 -0.0257 -0.1737
 1121SOL    HW2 4529   3.003   2.327   1.904 -0.1760  1.4847 -1.8081
 1121SOL    HW3 4530   2.912   2.207   1.923  2.1320 -0.0140  0.1010
 1121SOL    MW4 4531   2.926   2.287   1.891  0.2327  0.1752 -0.3531
 1122SOL     OW 4532   2.691   2.431   1.982  0.6878  0.1588 -0.3723
 1122SOL    HW2 4533   2.704   2.523   1.959  2.3431 -0.2131 -1.0590
 1122SOL    HW3 4534   2.770   2.387   1.949  0.1403 -1.4284  0.3683
 1122SOL    MW4 4535   2.703   2.437   1.975  0.8340 -0.0997 -0.3653
 1123SOL     OW 4536   2.728   2.687   1.902  0.1822 -0.7993 -0.1917
 1123SOL    HW2 4537   2.663   2.746   1.939  0.0603  0.1255 -1.8442
 1123SOL    HW3 4538   2.714   2.691   1.808  1.0645 -2.4357 -0.4216
 1123SOL    MW4 4539   2.718   2.695   1.895  0.2823 -0.8931 -0.4401
 1124SOL     OW 4540   2.958   2.794   1.994 -0.1241 -0.0208 -0.1449
 1124SOL    HW2 4541   2.957   2.890   1.993  0.1668  0.0116  1.2180
 1124SOL    HW3 4542   2.878   2.769   1.948  0.3562  0.8611 -1.4641
 1124SOL    MW4 4543   2.947   2.804   1.988 -0.0224  0.0999 -0.1391
 1125SOL     OW 4544   2.962   3.077   1.962  0.1784  0.3576 -0.0642
 1125SOL    HW2 4545   3.032   3.126   2.006  0.3646  0.4592 -0.4727
 1125SOL    HW3 4546   2.885   3.132   1.972  0.4792  0.9430 -0.8875
 1125SOL    MW4 4547   2.961   3.091   1.969  0.2427  0.4482 -0.2267
 1126SOL     OW 4548   2.722   3.229   1.971  0.7112 -1.0640 -0.6392
 1126SOL    HW2 4549   2.717   3.321   1.944 -0.5394 -0.6468  0.8816
 1126SOL    HW3 4550   2.639   3.191   1.942  0.5294 -1.2936  0.1693
 1126SOL    MW4 4551   2.710   3.236   1.964  0.5221 -1.0393 -0.3319
 1127SOL     OW 4552   2.708   3.501   1.905  0.1009  0.1875 -0.3769
 1127SOL    HW2 4553   2.785   3.551   1.933 -0.5531  1.8210 -1.3873
 1127SOL    HW3 4554   2.634   3.550   1.941 -0.4977 -0.7807 -0.2983
 1127SOL    MW4 4555   2.708   3.514   1.913 -0.0644  0.2751 -0.5000
 1128SOL     OW 4556   2.932   3.632   1.999 -0.5413 -0.6905 -0.1946
 1128SOL    HW2 4557   2.911   3.617   2.091  0.9564  0.0720  0.2833
 1128SOL    HW3 4558   3.010   3.579   1.983 -0.8565 -0.9043 -1.0675
 1128SOL    MW4 4559   2.940   3.623   2.009 -0.3853 -0.6182 -0.2468
 1129SOL     OW 4560   2.921   3.886   1.901 -0.2496 -0.0558 -0.3624
 1129SOL    HW2 4561   2.908   3.794   1.925 -2.3603  0.0423 -1.0540
 1129SOL    HW3 4562   2.918   3.887   1.806  1.2188  0.5517 -0.4192
 1129SOL    MW4 4563   2.919   3.874   1.892 -0.3343  0.0372 -0.4611
 1130SOL     OW 4564   2.668   4.019   1.974 -0.2211  0.2152  0.0911
 1130SOL    HW2 4565   2.750   3.976   1.953  0.1530  0.2346  1.4757
 1130SOL    HW3 4566   2.603   3.973   1.921  0.5332 -0.4515 -0.2692
 1130SOL    MW4 4567   2.670   4.007   1.965 -0.0722  0.1302  0.2263
 1131SOL     OW 4568   2.748   4.266   1.878  0.0217  0.6761 -0.3615
 1131SOL    HW2 4569   2.720   4.182   1.915 -0.9217  0.9485 -0.4419
 1131SOL    HW3 4570   2.740   4.254   1.783  0.0012  0.8199 -0.3777
 1131SOL    MW4 4571   2.743   4.253   1.870 -0.1054  0.7315 -0.3742
 1132SOL     OW 4572   2.947   4.407   2.037  0.1124 -0.2568  0.3566
 1132SOL    HW2 4573   2.955   4.383   2.129 -1.3726 -0.0157  0.5674
 1132SOL    HW3 4574   2.868   4.361   2.007 -0.5756  1.2677 -0.2550
 1132SOL    MW4 4575   2.938   4.398   2.045 -0.1743 -0.0238  0.3037
 1133SOL     OW 4576   3.309   4.664   1.937  0.2244  0.2092 -0.2922
 1133SOL    HW2 4577   3.305   4.579   1.980 -1.8443  0.2841 -0.3122
 1133SOL    HW3 4578   3.319   4.644   1.844  1.9923  0.0264 -0.0785
 1133SOL    MW4 4579   3.310   4.650   1.930  0.1848  0.1950 -0.2668
 1134SOL     OW 4580   3.103   0.175   2.031  0.8812  0.0630 -0.1724
 1134SOL    HW2 4581   3.107   0.167   2.127  0.3212  0.1993 -0.1374
 1134SOL    HW3 4582   3.174   0.119   2.000  1.0958  0.0539  0.3286
 1134SOL    MW4 4583   3.113   0.166   2.040  0.8359  0.0798 -0.1016
 1135SOL     OW 4584   3.157   0.412   1.896 -0.0040  0.4902 -0.2908
 1135SOL    HW2 4585   3.149   0.322   1.927  0.7459  1.1555  1.8779
 1135SOL    HW3 4586   3.153   0.404   1.800  0.7505 -1.9102 -0.1622
 1135SOL    MW4 4587   3.155   0.399   1.887  0.1948  0.2613  0.0123
 1136SOL     OW 4588   3.377   0.512   2.017 -0.0253 -0.2719  0.2155
 1136SOL    HW2 4589   3.460   0.469   1.999 -0.0398 -0.0426 -0.4216
 1136SOL    HW3 4590   3.312   0.461   1.968 -0.2489 -0.3960  0.6366
 1136SOL    MW4 4591   3.379   0.500   2.008 -0.0567 -0.2580  0.1869
 1137SOL     OW 4592   3.362   0.761   1.905 -0.2375 -0.5508 -0.3744
 1137SOL    HW2 4593   3.287   0.805   1.946  0.8680  0.7813  0.2556
 1137SOL    HW3 4594   3.375   0.683   1.958 -0.2767 -0.0374  0.4025
 1137SOL    MW4 4595   3.354   0.756   1.918 -0.0968 -0.3073 -0.1887
 1138SOL     OW 4596   3.126   0.876   1.989  0.1041  0.8896  0.4951
 1138SOL    HW2 4597   3.140   0.882   2.083  0.0119  0.1917  0.5583
 1138SOL    HW3 4598   3.124   0.967   1.958  0.2532  1.1110  1.1466
 1138SOL    MW4 4599   3.128   0.888   1.997  0.1116  0.8267  0.5895
 1139SOL     OW 4600   3.159   1.126   1.879  0.0956 -0.1059  0.0501
 1139SOL    HW2 4601   3.238   1.167   1.915  0.1894 -0.1199 -0.1441
 1139SOL    HW3 4602   3.087   1.171   1.924  0.2284 -0.6155  0.7897
 1139SOL    MW4 4603   3.160   1.138   1.890  0.1254 -0.1750  0.1221
 1140SOL     OW 4604   3.384   1.264   2.005 -0.3781 -0.2152  0.3693
 1140SOL    HW2 4605   3.364   1.287   2.096  0.0079 -0.3554  0.4888
 1140SOL    HW3 4606   3.376   1.347   1.957  0.6329  0.0939  0.7335
 1140SOL    MW4 4607   3.380   1.278   2.011 -0.1936 -0.1930  0.4332
 1141SOL     OW 4608   3.349   1.515   1.866  0.3568 -0.1700  0.3697
 1141SOL    HW2 4609   3.427   1.567   1.886  0.4389 -0.3853  0.6111
 1141SOL    HW3 4610   3.277   1.562   1.909  0.2116  0.5370 -0.6344
 1141SOL    MW4 4611   3.350   1.528   1.875  0.3481 -0.1050  0.2692
 1142SOL     OW 4612   3.144   1.659   1.971  0.0657  0.3999 -0.0779
 1142SOL    HW2 4613   3.125   1.656   2.065 -0.2040 -0.1539 -0.1518
 1142SOL    HW3 4614   3.135   1.752   1.948  0.4592  0.5931  0.5088
 1142SOL    MW4 4615   3.141   1.671   1.981  0.0820  0.3524 -0.0103
 1143SOL     OW 4616   3.140   1.914   1.908  0.2697 -0.5321 -0.4329
 1143SOL    HW2 4617   3.219   1.957   1.942 -0.3803 -0.6352  1.2944
 1143SOL    HW3 4618   3.136   1.939   1.816  0.2819  2.5348  0.3483
 1143SOL    MW4 4619   3.150   1.923   1.901  0.1857 -0.1410 -0.1019
 1144SOL     OW 4620   3.371   2.055   1.986 -0.1412 -0.3386 -0.2583
 1144SOL    HW2 4621   3.455   2.022   1.952 -0.0181  0.6226 -0.8881
 1144SOL    HW3 4622   3.377   2.150   1.976 -0.6197 -0.1358  1.2763
 1144SOL    MW4 4623   3.383   2.063   1.980 -0.1881 -0.1850 -0.1390
 1145SOL     OW 4624   3.390   2.349   1.968  0.1717  0.5309 -0.4139
 1145SOL    HW2 4625   3.298   2.373   1.981 -0.3306 -1.6297  0.2719
 1145SOL    HW3 4626   3.397   2.333   1.874 -0.3111  0.1470 -0.3885
 1145SOL    MW4 4627   3.379   2.350   1.957  0.0417  0.1950 -0.3201
 1146SOL     OW 4628   3.129   2.434   1.990 -0.4840 -0.1351 -0.3411
 1146SOL    HW2 4629   3.124   2.438   2.085  2.3203 -0.2641 -0.1524
 1146SOL    HW3 4630   3.144   2.524   1.963  0.1992 -0.3016 -0.5356
 1146SOL    MW4 4631   3.130   2.446   1.999 -0.0241 -0.1740 -0.3418
 1147SOL     OW 4632   3.185   2.680   1.885 -0.4108 -0.3013 -0.3383
 1147SOL    HW2 4633   3.107   2.721   1.923  0.0626 -0.5882  0.9595
 1147SOL    HW3 4634   3.166   2.675   1.791 -1.7585  0.0691 -0.0951
 1147SOL    MW4 4635   3.172   2.685   1.877 -0.5262 -0.2904 -0.1349
 1148SOL     OW 4636   3.404   2.831   1.972  0.0599  0.2903 -0.4727
 1148SOL    HW2 4637   3.414   2.808   2.064  3.7507  0.1417 -0.8462
 1148SOL    HW3 4638   3.330   2.777   1.942  0.9550 -2.1940  1.5764
 1148SOL    MW4 4639   3.395   2.821   1.980  0.6652 -0.0570 -0.2517
 1149SOL     OW 4640   3.367   3.102   1.861  0.1425 -0.0588 -0.2445
 1149SOL    HW2 4641   3.449   3.145   1.887  0.2596 -0.9153  0.8674
 1149SOL    HW3 4642   3.373   3.014   1.900 -0.3760 -0.8610 -1.9334
 1149SOL    MW4 4643   3.379   3.096   1.870  0.0894 -0.2775 -0.3207
 1150SOL     OW 4644   3.175   3.224   2.043 -0.1268 -0.3461  0.2682
 1150SOL    HW2 4645   3.148   3.311   2.013  0.4039 -0.1458  0.3580
 1150SOL    HW3 4646   3.237   3.194   1.977  0.8039 -0.0339  0.9811
 1150SOL    MW4 4647   3.180   3.232   2.031  0.0660 -0.2785  0.3741
 1151SOL     OW 4648   3.150   3.483   1.970  0.6556 -0.0278  0.2026
 1151SOL    HW2 4649   3.218   3.545   1.996  0.2114  0.2717  0.6620
 1151SOL    HW3 4650   3.147   3.489   1.875 -0.1774  1.4926  0.3185
 1151SOL    MW4 4651   3.159   3.492   1.961  0.4871  0.2124  0.2785
 1152SOL     OW 4652   3.375   3.645   2.029  0.0846 -0.1635  0.1190
 1152SOL    HW2 4653   3.438   3.603   1.970  1.6549 -0.9472  2.3122
 1152SOL    HW3 4654   3.344   3.721   1.980  2.2861 -0.0956 -1.2509
 1152SOL    MW4 4655   3.379   3.649   2.015  0.5822 -0.2580  0.2277
 1153SOL     OW 4656   3.352   3.854   1.860 -0.5250 -0.7654 -0.1217
 1153SOL    HW2 4657   3.290   3.922   1.888  0.8091  0.6854 -0.5661
 1153SOL    HW3 4658   3.357   3.863   1.765 -0.5920 -1.7151 -0.2145
 1153SOL    MW4 4659   3.345   3.864   1.851 -0.3579 -0.6993 -0.1925
 1154SOL     OW 4660   3.151   3.989   1.993  0.0025  0.2320  0.3833
 1154SOL    HW2 4661   3.123   3.980   2.084 -2.1208  0.5272 -0.1974
 1154SOL    HW3 4662   3.080   3.949   1.943  1.5823 -0.7479 -1.1085
 1154SOL    MW4 4663   3.138   3.983   1.999 -0.0691  0.1416  0.1100
 1155SOL     OW 4664   3.145   4.264   1.891 -0.0994  0.2045 -0.1080
 1155SOL    HW2 4665   3.143   4.179   1.934  0.6844 -0.1653 -0.7916
 1155SOL    HW3 4666   3.070   4.311   1.927 -0.0428 -0.4690  0.8960
 1155SOL    MW4 4667   3.134   4.259   1.901  0.0117  0.0672 -0.0656
 1156SOL     OW 4668   3.338   4.390   2.027 -0.3402 -0.2152  0.0420
 1156SOL    HW2 4669   3.419   4.349   1.996 -0.5687 -1.0257  0.5106
 1156SOL    HW3 4670   3.268   4.339   1.987 -0.6262  0.6817 -0.6117
 1156SOL    MW4 4671   3.339   4.378   2.018 -0.4082 -0.2036  0.0174
 1157SOL     OW 4672   3.799   0.003   1.912 -0.1076 -0.3050  0.1184
 1157SOL    HW2 4673   3.802  -0.092   1.924 -1.9110 -0.4264 -0.3176
 1157SOL    HW3 4674   3.710   0.027   1.935  0.0640  1.1673 -0.7185
 1157SOL    MW4 4675   3.788  -0.006   1.917 -0.3228 -0.1268 -0.0496
 1158SOL     OW 4676   3.544   0.125   1.991 -0.4043  0.4723 -0.1259
 1158SOL    HW2 4677   3.538   0.125   2.087  0.5977 -0.7033 -0.0596
 1158SOL    HW3 4678   3.467   0.076   1.963 -0.2498  0.0958  0.1064
 1158SOL    MW4 4679   3.533   0.118   2.000 -0.2518  0.2675 -0.0863
 1159SOL     OW 4680   3.606   0.369   1.881 -0.1464  0.1388  0.1344
 1159SOL    HW2 4681   3.583   0.280   1.908  0.4409 -0.3295 -0.8668
 1159SOL    HW3 4682   3.624   0.361   1.787 -0.5936  1.4192 -0.0607
 1159SOL    MW4 4683   3.606   0.356   1.872 -0.1276  0.2459 -0.0235
 1160SOL     OW 4684   3.838   0.459   1.985  0.2789  0.5698 -0.4497
 1160SOL    HW2 4685   3.845   0.552   1.967 -0.6873  0.9989  1.2679
 1160SOL    HW3 4686   3.753   0.434   1.947  0.2018  0.5591 -0.2720
 1160SOL    MW4 4687   3.827   0.468   1.977  0.1416  0.6250 -0.1996
 1161SOL     OW 4688   3.813   0.737   1.927 -0.2901 -0.2135 -0.1087
 1161SOL    HW2 4689   3.729   0.770   1.958  0.9180  1.1332  1.8476
 1161SOL    HW3 4690   3.817   0.762   1.835 -0.7550  2.4049  0.5412
 1161SOL    MW4 4691   3.803   0.745   1.919 -0.1919  0.3097  0.2351
 1162SOL     OW 4692   3.578   0.864   2.047 -0.0254 -0.1178  0.1540
 1162SOL    HW2 4693   3.589   0.942   1.994  0.9900 -0.0466  0.4565
 1162SOL    HW3 4694   3.500   0.821   2.011 -0.3235  0.7948 -0.2964
 1162SOL    MW4 4695   3.569   0.868   2.035  0.0694  0.0120  0.1345
 1163SOL     OW 4696   3.571   1.094   1.903 -0.1428 -0.0409  0.0979
 1163SOL    HW2 4697   3.496   1.144   1.934  0.1521  0.2724  0.3021
 1163SOL    HW3 4698   3.573   1.109   1.808 -1.3712 -1.4429 -0.1662
 1163SOL    MW4 4699   3.562   1.103   1.894 -0.2661 -0.1847  0.0900
 1164SOL     OW 4700   3.791   1.272   1.963 -0.3541  0.2091  0.1307
 1164SOL    HW2 4701   3.801   1.259   2.057 -1.7775  0.8018  0.3732
 1164SOL    HW3 4702   3.712   1.221   1.940  0.4806 -0.6553 -0.8964
 1164SOL    MW4 4703   3.782   1.263   1.972 -0.4315  0.1732  0.0273
 1165SOL     OW 4704   3.798   1.546   1.925 -0.1409  0.6199 -0.1332
 1165SOL    HW2 4705   3.882   1.569   1.963  0.1643  0.1078 -0.4987
 1165SOL    HW3 4706   3.795   1.450   1.929 -0.8870  0.6508  0.2772
 1165SOL    MW4 4707   3.808   1.536   1.931 -0.1991  0.5565 -0.1273
 1166SOL     OW 4708   3.561   1.679   1.974  0.4923 -1.0354 -0.0130
 1166SOL    HW2 4709   3.572   1.772   1.956  1.7752 -1.0090  0.8533
 1166SOL    HW3 4710   3.647   1.641   1.956  1.0214 -1.4595  3.1246
 1166SOL    MW4 4711   3.574   1.686   1.969  0.7315 -1.0878  0.5153
 1167SOL     OW 4712   3.608   1.934   1.897  0.2573  0.0992  0.0785
 1167SOL    HW2 4713   3.689   1.977   1.924  1.0449 -0.5804 -1.1506
 1167SOL    HW3 4714   3.608   1.940   1.801 -1.2299  0.2392  0.0692
 1167SOL    MW4 4715   3.619   1.941   1.888  0.1650  0.0280 -0.0850
 1168SOL     OW 4716   3.817   2.081   2.010 -0.1750  0.3555  0.2178
 1168SOL    HW2 4717   3.892   2.031   1.979 -0.4243 -0.4948  0.9686
 1168SOL    HW3 4718   3.831   2.169   1.977  0.0888 -0.2866 -1.4559
 1168SOL    MW4 4719   3.828   2.086   2.002 -0.1731  0.1583  0.0958
 1169SOL     OW 4720   3.834   2.365   1.905  0.2357 -0.0046 -0.4978
 1169SOL    HW2 4721   3.913   2.405   1.941  1.0382 -1.7762 -0.2364
 1169SOL    HW3 4722   3.762   2.415   1.944  1.1774  0.2860  0.9208
 1169SOL    MW4 4723   3.835   2.377   1.915  0.4656 -0.2000 -0.2762
 1170SOL     OW 4724   3.592   2.513   2.055  0.0257 -0.3242 -0.3666
 1170SOL    HW2 4725   3.592   2.594   2.005 -1.3446  0.3645  0.7069
 1170SOL    HW3 4726   3.525   2.459   2.014  0.2553 -0.5318 -0.4706
 1170SOL    MW4 4727   3.583   2.517   2.043 -0.1247 -0.2606 -0.2387
 1171SOL     OW 4728   3.624   2.708   1.854 -0.0105 -0.1934 -0.5919
 1171SOL    HW2 4729   3.706   2.752   1.878  0.2916 -0.5394 -0.9707
 1171SOL    HW3 4730   3.555   2.767   1.883  0.3921  0.4693 -0.9827
 1171SOL    MW4 4731   3.626   2.721   1.861  0.0825 -0.1521 -0.6937
 1172SOL     OW 4732   3.840   2.844   1.977  0.0357  0.3167 -0.3171
 1172SOL    HW2 4733   3.821   2.842   2.070  1.0410 -0.2081 -0.1128
 1172SOL    HW3 4734   3.822   2.934   1.950 -0.1843  0.4886  0.3975
 1172SOL    MW4 4735   3.835   2.855   1.985  0.1395  0.2704 -0.1959
 1173SOL     OW 4736   3.835   3.101   1.878 -0.0059  0.0217  0.0453
 1173SOL    HW2 4737   3.755   3.147   1.901 -0.0223  0.2887 -0.5356
 1173SOL    HW3 4738   3.839   3.105   1.783 -0.6427 -2.2761 -0.1014
 1173SOL    MW4 4739   3.825   3.108   1.869 -0.0920 -0.2460 -0.0505
 1174SOL     OW 4740   3.586   3.234   1.936 -0.0762 -0.3837  0.3744
 1174SOL    HW2 4741   3.568   3.233   2.030  0.1120 -0.6864  0.4087
 1174SOL    HW3 4742   3.593   3.327   1.914 -3.4055 -0.1619  0.0192
 1174SOL    MW4 4743   3.584   3.246   1.946 -0.4907 -0.3943  0.3322
 1175SOL     OW 4744   3.581   3.523   1.895  0.1507  0.0049  0.4044
 1175SOL    HW2 4745   3.668   3.545   1.927  0.4555  2.1676 -1.7048
 1175SOL    HW3 4746   3.591   3.518   1.800 -1.9200 -0.2722  0.1676
 1175SOL    MW4 4747   3.594   3.525   1.886 -0.0825  0.2539  0.0949
 1176SOL     OW 4748   3.826   3.593   2.025  0.0526 -0.1655  0.1755
 1176SOL    HW2 4749   3.904   3.559   1.981  0.0186 -1.0709  0.7895
 1176SOL    HW3 4750   3.811   3.679   1.986  1.2304 -0.0775 -0.0994
 1176SOL    MW4 4751   3.835   3.600   2.014  0.2036 -0.2730  0.2203
 1177SOL     OW 4752   3.810   3.851   1.920 -0.2072  0.1555 -0.1817
 1177SOL    HW2 4753   3.724   3.883   1.948 -0.2488  0.4701 -0.6636
 1177SOL    HW3 4754   3.807   3.857   1.825  1.2819  2.6215 -0.1189
 1177SOL    MW4 4755   3.798   3.856   1.911 -0.0162  0.5224 -0.2370
 1178SOL     OW 4756   3.580   3.974   2.006  0.0605 -0.1413  0.0303
 1178SOL    HW2 4757   3.570   3.986   2.101 -0.4252 -0.3237  0.0025
 1178SOL    HW3 4758   3.497   3.934   1.978  0.0298  0.3283 -0.5423
 1178SOL    MW4 4759   3.568   3.970   2.015 -0.0074 -0.1035 -0.0489
 1179SOL     OW 4760   3.554   4.243   1.904 -0.2685 -0.5785  0.1069
 1179SOL    HW2 4761   3.639   4.282   1.925 -0.5767  0.3230 -0.2692
 1179SOL    HW3 4762   3.560   4.152   1.934  0.2386 -0.0623  1.5893
 1179SOL    MW4 4763   3.566   4.236   1.911 -0.2422 -0.3910  0.2530
 1180SOL     OW 4764   3.780   4.384   1.978 -0.2471  0.2311  0.2051
 1180SOL    HW2 4765   3.795   4.387   2.072  1.5503  3.2987 -0.1113
 1180SOL    HW3 4766   3.854   4.334   1.944 -0.9085 -0.8967  0.4162
 1180SOL    MW4 4767   3.792   4.378   1.986 -0.0973  0.4869  0.1912
 1181SOL     OW 4768   4.283   4.598   1.883  0.3780  0.0378  0.0332
 1181SOL    HW2 4769   4.213   4.649   1.925 -0.5246 -2.5268  1.7551
 1181SOL    HW3 4770   4.364   4.634   1.919 -0.1327  1.5745 -0.3085
 1181SOL    MW4 4771   4.284   4.610   1.893  0.1922 -0.0978  0.2154
 1182SOL     OW 4772   4.051   0.076   1.988 -0.0799 -0.1510  0.3328
 1182SOL    HW2 4773   4.057   0.050   2.080  0.2506 -1.1140  0.0428
 1182SOL    HW3 4774   3.958   0.070   1.967 -0.1367 -0.0733  0.5627
 1182SOL    MW4 4775   4.040   0.072   1.997 -0.0434 -0.2678  0.3250
 1183SOL     OW 4776   4.078   0.350   1.897 -0.4909 -0.0992  0.0131
 1183SOL    HW2 4777   4.083   0.261   1.932  0.1823  0.4051  1.2127
 1183SOL    HW3 4778   3.991   0.381   1.923 -1.3729 -0.9785 -1.8180
 1183SOL    MW4 4779   4.067   0.342   1.905 -0.5183 -0.1487 -0.0702
 1184SOL     OW 4780   4.280   0.513   2.005  0.1516 -0.5361  0.0329
 1184SOL    HW2 4781   4.265   0.499   2.098 -0.7884  0.3266  0.0208
 1184SOL    HW3 4782   4.217   0.457   1.961  0.2116 -0.5158 -0.0806
 1184SOL    MW4 4783   4.270   0.504   2.011  0.0358 -0.4196  0.0162
 1185SOL     OW 4784   4.248   0.767   1.908 -0.0507 -0.1400  0.2792
 1185SOL    HW2 4785   4.261   0.678   1.942  0.4495 -0.0732  0.2535
 1185SOL    HW3 4786   4.247   0.756   1.813 -0.3535 -0.1675  0.2838
 1185SOL    MW4 4787   4.249   0.754   1.900 -0.0243 -0.1348  0.2764
 1186SOL     OW 4788   4.017   0.907   1.996  0.2244  0.3357 -0.3687
 1186SOL    HW2 4789   4.102   0.869   1.972  0.8516  1.8074 -0.4964
 1186SOL    HW3 4790   3.953   0.842   1.966  1.3378 -1.2403  0.6327
 1186SOL    MW4 4791   4.020   0.893   1.989  0.4539  0.3219 -0.2536
 1187SOL     OW 4792   4.035   1.163   1.911 -0.2891 -0.6872 -0.2092
 1187SOL    HW2 4793   4.017   1.072   1.931  0.3721 -0.6573  0.5681
 1187SOL    HW3 4794   3.951   1.208   1.920 -0.2301 -0.8769  1.4048
 1187SOL    MW4 4795   4.022   1.157   1.915 -0.1945 -0.7081  0.1062
 1188SOL     OW 4796   4.272   1.244   2.016 -0.3179 -0.4580 -0.2487
 1188SOL    HW2 4797   4.244   1.265   2.106 -0.8072 -1.0031 -0.2710
 1188SOL    HW3 4798   4.193   1.214   1.973 -0.0417 -0.3708 -0.8173
 1188SOL    MW4 4799   4.258   1.243   2.022 -0.3462 -0.5183 -0.3264
 1189SOL     OW 4800   4.266   1.530   1.877  0.1521 -0.0447 -0.2804
 1189SOL    HW2 4801   4.253   1.444   1.917 -0.0695  0.4213  0.6716
 1189SOL    HW3 4802   4.250   1.516   1.784  2.4914 -1.5363 -0.4898
 1189SOL    MW4 4803   4.262   1.517   1.870  0.4311 -0.1799 -0.1823
 1190SOL     OW 4804   4.051   1.638   2.026  0.2359  0.6267  0.2975
 1190SOL    HW2 4805   4.070   1.643   2.119 -0.2597  1.0769  0.3757
 1190SOL    HW3 4806   4.132   1.607   1.986  0.5229  0.6749  0.8483
 1190SOL    MW4 4807   4.064   1.634   2.033  0.2084  0.6926  0.3805
 1191SOL     OW 4808   4.003   1.915   1.903 -0.1261  0.1432  0.0361
 1191SOL    HW2 4809   4.032   1.832   1.941  1.1576 -0.1183 -1.4534
 1191SOL    HW3 4810   4.047   1.919   1.818 -0.8722  1.9350 -0.2878
 1191SOL    MW4 4811   4.013   1.905   1.897 -0.0553  0.3452 -0.2033
 1192SOL     OW 4812   4.287   2.076   2.006  0.3463 -0.1914  0.5165
 1192SOL    HW2 4813   4.275   2.085   2.100  0.3763 -1.5957  0.6667
 1192SOL    HW3 4814   4.199   2.062   1.971  0.3752 -0.0136  0.3644
 1192SOL    MW4 4815   4.274   2.075   2.013  0.3538 -0.3533  0.5162
 1193SOL     OW 4816   4.306   2.349   1.906 -0.3824 -0.9775 -0.4746
 1193SOL    HW2 4817   4.310   2.264   1.949  0.8223 -0.7074 -0.0262
 1193SOL    HW3 4818   4.369   2.403   1.954 -3.3795  1.1110  1.2631
 1193SOL    MW4 4819   4.315   2.345   1.918 -0.6194 -0.6664 -0.1860
 1194SOL     OW 4820   4.074   2.465   2.026 -0.0008  0.8849  0.3843
 1194SOL    HW2 4821   4.080   2.444   2.119 -1.1777 -0.0607  0.2551
 1194SOL    HW3 4822   4.153   2.427   1.988 -0.4336 -0.3684  0.7102
 1194SOL    MW4 4823   4.085   2.457   2.033 -0.2131  0.5946  0.4101
 1195SOL     OW 4824   4.081   2.715   1.890 -0.2258  0.2379 -0.2671
 1195SOL    HW2 4825   4.089   2.643   1.953  0.6104  0.6481  0.1011
 1195SOL    HW3 4826   4.018   2.775   1.931  0.9465  0.9135  0.5839
 1195SOL    MW4 4827   4.074   2.714   1.904  0.0396  0.3810 -0.1063
 1196SOL     OW 4828   4.310   2.873   1.972 -0.1152 -0.1598 -0.1620
 1196SOL    HW2 4829   4.310   2.882   2.067  0.0137 -0.7683 -0.1042
 1196SOL    HW3 4830   4.224   2.838   1.951  0.5877 -1.9818 -0.0787
 1196SOL    MW4 4831   4.299   2.870   1.982 -0.0062 -0.4804 -0.1434
 1197SOL     OW 4832   4.277   3.128   1.870 -0.4131 -0.1477  0.0392
 1197SOL    HW2 4833   4.203   3.168   1.917  1.2718  0.2228  2.4945
 1197SOL    HW3 4834   4.282   3.039   1.906 -0.3639 -0.5485 -0.9521
 1197SOL    MW4 4835   4.268   3.122   1.881 -0.1841 -0.1519  0.2323
 1198SOL     OW 4836   4.058   3.236   2.005 -0.4272 -0.3160 -0.5694
 1198SOL    HW2 4837   4.068   3.208   2.096 -0.2414 -1.9675 -1.0958
 1198SOL    HW3 4838   3.978   3.194   1.975 -0.5514  0.3142 -1.1552
 1198SOL    MW4 4839   4.049   3.227   2.013 -0.4187 -0.4506 -0.7162
 1199SOL     OW 4840   4.056   3.500   1.901 -0.1306  0.1695  0.1827
 1199SOL    HW2 4841   4.136   3.545   1.928 -0.8286  0.5394  1.7142
 1199SOL    HW3 4842   4.070   3.408   1.925  0.5399 -0.0880 -1.1918
 1199SOL    MW4 4843   4.068   3.494   1.908 -0.1345  0.1845  0.2034
 1200SOL     OW 4844   4.312   3.619   1.954  0.0862 -0.0880 -0.0700
 1200SOL    HW2 4845   4.307   3.714   1.948 -1.4187 -0.1888 -0.8535
 1200SOL    HW3 4846   4.396   3.596   1.914  0.7905  0.9562  0.7991
 1200SOL    MW4 4847   4.322   3.628   1.948 -0.0196  0.0365 -0.0588
 1201SOL     OW 4848   4.251   3.889   1.928  0.0375  0.0693  0.3489
 1201SOL    HW2 4849   4.334   3.930   1.952  1.2294 -1.3484 -1.1623
 1201SOL    HW3 4850   4.254   3.885   1.832 -0.3402 -2.8662  0.4229
 1201SOL    MW4 4851   4.262   3.894   1.918  0.1450 -0.5050  0.1593
 1202SOL     OW 4852   4.014   3.998   2.049 -0.3067 -0.2175 -0.2332
 1202SOL    HW2 4853   4.098   3.970   2.013 -0.4389 -0.1226 -0.6193
 1202SOL    HW3 4854   3.950   3.938   2.011 -0.2672 -1.0342  0.9895
 1202SOL    MW4 4855   4.016   3.987   2.039 -0.3185 -0.3130 -0.1228
 1203SOL     OW 4856   3.979   4.232   1.871 -0.0756 -0.3014  0.4475
 1203SOL    HW2 4857   4.064   4.255   1.909  0.2077 -1.9302  0.8710
 1203SOL    HW3 4858   3.952   4.154   1.921 -0.6396 -1.2854 -1.3587
 1203SOL    MW4 4859   3.987   4.225   1.883 -0.1128 -0.6466  0.2651
 1204SOL     OW 4860   4.217   4.336   1.975  0.2324  0.1211  0.5235
 1204SOL    HW2 4861   4.231   4.349   2.069 -0.6923  0.3714  0.6286
 1204SOL    HW3 4862   4.213   4.425   1.939  1.8251  0.0210  0.0509
 1204SOL    MW4 4863   4.218   4.350   1.982  0.3209  0.1416  0.4750
 1205SOL     OW 4864   0.222   4.644   2.380 -0.3967 -0.1720  0.1040
 1205SOL    HW2 4865   0.210   4.668   2.471  0.1655  0.9684 -0.1205
 1205SOL    HW3 4866   0.299   4.694   2.351 -0.8737 -0.1318 -1.1297
 1205SOL    MW4 4867   0.231   4.654   2.388 -0.3855 -0.0162 -0.0885
 1206SOL     OW 4868   0.004   0.138   2.261 -0.1470  0.2220 -0.1435
 1206SOL    HW2 4869   0.080   0.085   2.284  0.4065  1.0736 -0.0276
 1206SOL    HW3 4870   0.001   0.136   2.165 -0.3234 -0.2829 -0.1319
 1206SOL    MW4 4871   0.013   0.131   2.251 -0.0973  0.2677 -0.1266
 1207SOL     OW 4872   0.003   0.386   2.376 -0.1284 -0.0197 -0.1214
 1207SOL    HW2 4873   0.074   0.440   2.341 -0.2325  0.9053  1.0970
 1207SOL    HW3 4874   0.019   0.299   2.338 -0.4581  1.0312 -2.8001
 1207SOL    MW4 4875   0.015   0.381   2.366 -0.1856  0.2410 -0.3138
 1208SOL     OW 4876   0.250   0.549   2.288  0.0724  0.2981  0.3564
 1208SOL    HW2 4877   0.332   0.508   2.319 -0.3481 -0.2382  0.7767
 1208SOL    HW3 4878   0.243   0.520   2.197  0.3134  0.2850  0.3394
 1208SOL    MW4 4879   0.260   0.540   2.280  0.0488  0.2256  0.4096
 1209SOL     OW 4880   0.210   0.787   2.410 -0.6524  0.1505 -0.3051
 1209SOL    HW2 4881   0.198   0.776   2.504 -0.0462  0.8833 -0.1411
 1209SOL    HW3 4882   0.205   0.698   2.375 -2.5586  0.0289  0.2114
 1209SOL    MW4 4883   0.208   0.774   2.418 -0.8239  0.2311 -0.2153
 1210SOL     OW 4884   4.477   0.898   2.307 -0.0667 -0.0109  0.1791
 1210SOL    HW2 4885   4.560   0.873   2.348 -0.1350 -0.3431  0.1173
 1210SOL    HW3 4886   4.491   0.883   2.214 -0.1462  0.0720  0.1539
 1210SOL    MW4 4887   4.489   0.893   2.300 -0.0863 -0.0438  0.1676
 1211SOL     OW 4888   4.430   1.148   2.381 -0.1325 -0.0624  0.2309
 1211SOL    HW2 4889   4.455   1.130   2.472  0.6605 -0.0057  0.0306
 1211SOL    HW3 4890   4.433   1.063   2.337  2.0402  0.2785 -0.3407
 1211SOL    MW4 4891   4.433   1.135   2.387  0.2589 -0.0099  0.1292
 1212SOL     OW 4892   0.212   1.242   2.326  0.5091  0.1385 -0.6694
 1212SOL    HW2 4893   0.122   1.211   2.330  0.6896 -0.3221 -0.0352
 1212SOL    HW3 4894   0.225   1.267   2.235 -0.3335  0.4400 -0.7091
 1212SOL    MW4 4895   0.202   1.241   2.315  0.4217  0.1177 -0.5910
 1213SOL     OW 4896   0.193   1.518   2.392 -0.2516  0.0714 -0.3925
 1213SOL    HW2 4897   0.185   1.528   2.487  0.8991  0.8592 -0.3756
 1213SOL    HW3 4898   0.201   1.423   2.379  2.0381  0.1125  0.5109
 1213SOL    MW4 4899   0.193   1.507   2.403  0.2023  0.1807 -0.2711
 1214SOL     OW 4900   4.455   1.651   2.293 -0.1125  0.0187  0.1961
 1214SOL    HW2 4901   4.461   1.743   2.320 -1.4084  0.4601 -0.9511
 1214SOL    HW3 4902   4.535   1.611   2.327 -0.0585  1.3134  1.6824
 1214SOL    MW4 4903   4.466   1.658   2.301 -0.2761  0.2477  0.2410
 1215SOL     OW 4904   4.476   1.915   2.404 -0.1602  0.2567 -0.0823
 1215SOL    HW2 4905   4.410   1.974   2.368  0.1289  0.2942 -0.5534
 1215SOL    HW3 4906   4.559   1.959   2.388 -0.0802  0.6939  1.4314
 1215SOL    MW4 4907   4.478   1.929   2.397 -0.1121  0.3191  0.0553
 1216SOL     OW 4908   0.200   2.061   2.312  0.3757 -0.0382 -0.1991
 1216SOL    HW2 4909   0.279   2.011   2.333  0.2786 -0.3813 -0.6589
 1216SOL    HW3 4910   0.190   2.051   2.218 -0.3802 -0.2352 -0.0971
 1216SOL    MW4 4911   0.209   2.053   2.302  0.2632 -0.1094 -0.2460
 1217SOL     OW 4912   0.216   2.336   2.391  0.2275  0.1242  0.2081
 1217SOL    HW2 4913   0.207   2.327   2.486  0.4109 -1.3571  0.0869
 1217SOL    HW3 4914   0.207   2.247   2.357  0.4382  0.6090 -1.1438
 1217SOL    MW4 4915   0.213   2.323   2.399  0.2795 -0.0072  0.0136
 1218SOL     OW 4916   4.485   2.453   2.284  0.1775  0.0706 -0.0429
 1218SOL    HW2 4917   4.485   2.545   2.312 -0.4260 -0.2250  0.9489
 1218SOL    HW3 4918   4.562   2.416   2.327 -0.7787 -0.3971  1.2700
 1218SOL    MW4 4919   4.495   2.460   2.293 -0.0283 -0.0300  0.2611
 1219SOL     OW 4920   0.012   2.718   2.357  0.3302 -0.2624  0.1243
 1219SOL    HW2 4921   0.002   2.722   2.452  2.0555  0.2241  0.3002
 1219SOL    HW3 4922   0.096   2.759   2.340  0.5478 -1.3385 -1.5184
 1219SOL    MW4 4923   0.021   2.724   2.367  0.5866 -0.3402 -0.0691
 1220SOL     OW 4924   0.238   2.879   2.275 -0.3691  0.0004 -0.2666
 1220SOL    HW2 4925   0.319   2.831   2.292 -1.2127 -0.9014  1.2559
 1220SOL    HW3 4926   0.235   2.888   2.180  2.7676  2.2335 -0.2235
 1220SOL    MW4 4927   0.248   2.874   2.265 -0.0666  0.1760 -0.0601
 1221SOL     OW 4928   0.229   3.147   2.391 -0.2034  0.1005  0.0150
 1221SOL    HW2 4929   0.150   3.184   2.351 -0.0562  0.4134  0.0147
 1221SOL    HW3 4930   0.239   3.061   2.350 -1.4194 -0.5872  1.1319
 1221SOL    MW4 4931   0.220   3.140   2.380 -0.3444  0.0510  0.1624
 1222SOL     OW 4932   4.470   3.220   2.275  0.4319 -0.1680  0.0598
 1222SOL    HW2 4933   4.473   3.315   2.282 -2.0328 -0.1330  0.8898
 1222SOL    HW3 4934   4.474   3.203   2.181 -1.3655  0.8553 -0.2173
 1222SOL    MW4 4935   4.471   3.230   2.264 -0.1302 -0.0284  0.1328
 1223SOL     OW 4936   0.002   3.493   2.371 -0.2341  0.4286 -0.0336
 1223SOL    HW2 4937  -0.009   3.484   2.465  0.5187  2.0899  0.2218
 1223SOL    HW3 4938  -0.076   3.541   2.342 -0.1812  0.4247 -0.1809
 1223SOL    MW4 4939  -0.010   3.498   2.379 -0.1278  0.6473 -0.0193
 1224SOL     OW 4940   0.227   3.591   2.252  0.1035  0.1824  0.2227
 1224SOL    HW2 4941   0.307   3.562   2.297  0.2535 -1.3406 -1.0063
 1224SOL    HW3 4942   0.156   3.554   2.303  0.2727 -1.4096 -0.6485
 1224SOL    MW4 4943   0.228   3.583   2.265  0.1456 -0.2284 -0.0546
 1225SOL     OW 4944   0.230   3.844   2.359  0.0284 -0.0781 -0.5266
 1225SOL    HW2 4945   0.155   3.884   2.313 -0.9961 -2.3466 -0.8821
 1225SOL    HW3 4946   0.225   3.751   2.336  2.3977 -0.4118  0.2576
 1225SOL    MW4 4947   0.219   3.837   2.350  0.2059 -0.4215 -0.4702
 1226SOL     OW 4948   4.480   3.971   2.265  0.3527  0.0529  0.3544
 1226SOL    HW2 4949   4.497   4.062   2.289 -1.5474  0.6748 -0.5048
 1226SOL    HW3 4950   4.474   3.972   2.169 -0.8228 -0.7443  0.4087
 1226SOL    MW4 4951   4.481   3.983   2.255 -0.0529  0.0298  0.2482
 1227SOL     OW 4952   0.027   4.227   2.356 -0.3053 -0.0607  0.0762
 1227SOL    HW2 4953   0.031   4.234   2.452 -0.6478  0.9486  0.0194
 1227SOL    HW3 4954   0.102   4.277   2.325  1.3990 -2.6739 -0.1044
 1227SOL    MW4 4955   0.037   4.235   2.365 -0.1264 -0.2718  0.0448
 1228SOL     OW 4956   0.241   4.389   2.265  0.4894  0.7098  0.7209
 1228SOL    HW2 4957   0.327   4.356   2.290  1.7003  1.2744 -2.4408
 1228SOL    HW3 4958   0.236   4.476   2.305  0.6489 -0.0006  2.3237
 1228SOL    MW4 4959   0.251   4.396   2.273  0.6702  0.6905  0.5150
 1229SOL     OW 4960   0.698   4.625   2.360  0.0736  0.3401  0.1648
 1229SOL    HW2 4961   0.699   4.632   2.456 -0.3799  0.8751  0.1296
 1229SOL    HW3 4962   0.769   4.682   2.332  1.1796 -0.9715  0.2529
 1229SOL    MW4 4963   0.708   4.633   2.369  0.1597  0.2375  0.1717
 1230SOL     OW 4964   0.461   0.101   2.301  0.3228  0.3574  0.3524
 1230SOL    HW2 4965   0.544   0.055   2.315  0.1112 -0.1178  0.0624
 1230SOL    HW3 4966   0.456   0.111   2.205 -0.0632  0.1869  0.3568
 1230SOL    MW4 4967   0.471   0.096   2.290  0.2440  0.2722  0.3150
 1231SOL     OW 4968   0.455   0.367   2.374 -0.1978 -0.3986  0.2218
 1231SOL    HW2 4969   0.467   0.374   2.468  2.0890 -0.1325 -0.0484
 1231SOL    HW3 4970   0.464   0.274   2.354  0.9489 -0.2657  0.0873
 1231SOL    MW4 4971   0.458   0.356   2.384  0.2552 -0.3460  0.1686
 1232SOL     OW 4972   0.660   0.480   2.238 -0.3996  0.4486 -0.3313
 1232SOL    HW2 4973   0.656   0.570   2.270 -0.2867  0.0867  0.7101
 1232SOL    HW3 4974   0.598   0.432   2.294 -0.2403 -0.1813 -0.6880
 1232SOL    MW4 4975   0.651   0.485   2.249 -0.3636  0.3177 -0.2410
 1233SOL     OW 4976   0.632   0.750   2.343  0.0790 -0.0204 -0.0371
 1233SOL    HW2 4977   0.622   0.764   2.437  0.4191 -1.7176  0.2623
 1233SOL    HW3 4978   0.554   0.791   2.305  1.6697  3.8584  0.6338
 1233SOL    MW4 4979   0.620   0.758   2.350  0.3338  0.2675  0.0911
 1234SOL     OW 4980   0.414   0.878   2.229 -0.2281 -0.2849 -0.3176
 1234SOL    HW2 4981   0.330   0.849   2.264  0.3899 -0.3922  1.1249
 1234SOL    HW3 4982   0.401   0.881   2.134 -1.4275 -1.6453 -0.2088
 1234SOL    MW4 4983   0.401   0.875   2.221 -0.3048 -0.4786 -0.1125
 1235SOL     OW 4984   0.467   1.123   2.366  0.1647  0.2341 -0.2787
 1235SOL    HW2 4985   0.466   1.040   2.318  1.0220  0.1928 -0.2283
 1235SOL    HW3 4986   0.385   1.166   2.340  0.2967 -0.0846 -1.2566
 1235SOL    MW4 4987   0.456   1.118   2.356  0.2953  0.1867 -0.4013
 1236SOL     OW 4988   0.684   1.290   2.239 -0.0857  0.1821  0.2980
 1236SOL    HW2 4989   0.689   1.374   2.286 -1.3387 -0.3169  1.3564
 1236SOL    HW3 4990   0.604   1.249   2.272  1.0973 -1.9290  0.5907
 1236SOL    MW4 4991   0.674   1.296   2.249 -0.0950 -0.1622  0.4764
 1237SOL     OW 4992   0.650   1.515   2.381 -0.9013  0.2462 -0.6211
 1237SOL    HW2 4993   0.672   1.501   2.473  0.0913  0.3568 -0.8339
 1237SOL    HW3 4994   0.709   1.585   2.352 -1.8652  0.8800 -1.0913
 1237SOL    MW4 4995   0.661   1.523   2.389 -0.8975  0.3444 -0.7112
 1238SOL     OW 4996   0.412   1.639   2.264 -0.2517 -0.5049  0.2441
 1238SOL    HW2 4997   0.487   1.590   2.296 -0.3801 -0.2479  0.9452
 1238SOL    HW3 4998   0.336   1.590   2.297 -0.3812  0.1442  0.9337
 1238SOL    MW4 4999   0.412   1.626   2.273 -0.2857 -0.3853  0.4275
 1239SOL     OW 5000   0.410   1.891   2.377  0.4297 -0.9775 -0.4952
 1239SOL    HW2 5001   0.488   1.935   2.342  0.6518 -1.3672 -0.4844
 1239SOL    HW3 5002   0.411   1.804   2.337  0.7218 -1.4497  0.5314
 1239SOL    MW4 5003   0.421   1.886   2.367  0.4976 -1.0911 -0.3583
 1240SOL     OW 5004   0.656   2.043   2.296 -0.3158  0.0691  1.0300
 1240SOL    HW2 5005   0.739   2.004   2.324  0.7786  1.3378 -0.4045
 1240SOL    HW3 5006   0.668   2.137   2.312 -1.4759  0.2558  0.7945
 1240SOL    MW4 5007   0.669   2.050   2.302 -0.3244  0.2611  0.8099
 1241SOL     OW 5008   0.678   2.298   2.368 -0.4464  0.0606 -0.0105
 1241SOL    HW2 5009   0.660   2.308   2.461 -0.9428  0.7116 -0.1756
 1241SOL    HW3 5010   0.752   2.358   2.352 -0.2047 -0.2298  0.0118
 1241SOL    MW4 5011   0.686   2.308   2.378 -0.4799  0.1085 -0.0296
 1242SOL     OW 5012   0.450   2.442   2.261 -0.2082 -0.5857 -0.3023
 1242SOL    HW2 5013   0.517   2.388   2.301  0.2403  0.2297  0.0548
 1242SOL    HW3 5014   0.367   2.401   2.286  0.1188 -0.9239  0.2163
 1242SOL    MW4 5015   0.448   2.429   2.269 -0.1059 -0.5229 -0.1867
 1243SOL     OW 5016   0.442   2.694   2.358  0.1399  0.2398  0.4507
 1243SOL    HW2 5017   0.435   2.689   2.454 -0.3177  0.1544  0.4175
 1243SOL    HW3 5018   0.444   2.603   2.330  2.0736  0.2567  0.4901
 1243SOL    MW4 5019   0.441   2.681   2.367  0.3347  0.2306  0.4516
 1244SOL     OW 5020   0.662   2.829   2.257  0.5356  0.3307 -0.4021
 1244SOL    HW2 5021   0.745   2.783   2.271  0.5118 -0.1550 -1.7254
 1244SOL    HW3 5022   0.596   2.774   2.299  0.4712 -1.0321 -2.2312
 1244SOL    MW4 5023   0.664   2.816   2.264  0.5239  0.0870 -0.8183
 1245SOL     OW 5024   0.670   3.092   2.344 -0.2753 -0.6441 -0.0040
 1245SOL    HW2 5025   0.588   3.140   2.335 -0.2203 -0.3954  0.7607
 1245SOL    HW3 5026   0.654   3.007   2.302 -1.1282 -0.8403  0.7164
 1245SOL    MW4 5027   0.657   3.087   2.337 -0.3806 -0.6373  0.1917
 1246SOL     OW 5028   0.456   3.249   2.265 -0.5968  0.0896  0.3339
 1246SOL    HW2 5029   0.371   3.215   2.293 -1.0365  1.2060  0.3610
 1246SOL    HW3 5030   0.449   3.256   2.170 -0.6477  0.4671  0.3632
 1246SOL    MW4 5031   0.444   3.245   2.256 -0.6616  0.2868  0.3414
 1247SOL     OW 5032   0.489   3.518   2.383  0.7076  0.0279  0.0719
 1247SOL    HW2 5033   0.571   3.544   2.340  1.7048 -0.6838  1.5020
 1247SOL    HW3 5034   0.472   3.430   2.350 -0.1149  0.6003 -1.0933
 1247SOL    MW4 5035   0.498   3.510   2.373  0.7306  0.0095  0.1070
 1248SOL     OW 5036   0.702   3.614   2.251  0.7074 -0.2419 -0.3310
 1248SOL    HW2 5037   0.697   3.704   2.282 -1.7750 -0.0135 -1.3165
 1248SOL    HW3 5038   0.690   3.620   2.157  0.8135 -1.5775 -0.4404
 1248SOL    MW4 5039   0.700   3.627   2.243  0.3939 -0.3884 -0.4752
 1249SOL     OW 5040   0.700   3.876   2.342  0.0247  0.2822  0.2582
 1249SOL    HW2 5041   0.693   3.873   2.437  0.3955 -0.9467  0.2494
 1249SOL    HW3 5042   0.620   3.920   2.314  0.0514  0.9287  1.1429
 1249SOL    MW4 5043   0.689   3.882   2.351  0.0771  0.2055  0.3741
 1250SOL     OW 5044   0.460   3.973   2.246  0.0678 -0.2331  0.0458
 1250SOL    HW2 5045   0.383   3.920   2.268  0.0247 -0.2012 -0.0273
 1250SOL    HW3 5046   0.469   3.964   2.151  1.0179 -1.3992  0.2422
 1250SOL    MW4 5047   0.451   3.965   2.237  0.1875 -0.3831  0.0618
 1251SOL     OW 5048   0.460   4.240   2.345  0.3001  0.0629 -0.0703
 1251SOL    HW2 5049   0.545   4.280   2.325  0.9135 -1.1592 -0.0040
 1251SOL    HW3 5050   0.467   4.151   2.310 -0.4410 -0.4957  1.1589
 1251SOL    MW4 5051   0.472   4.234   2.338  0.2833 -0.1721  0.1009
 1252SOL     OW 5052   0.692   4.378   2.241  0.1135 -0.0660 -0.1405
 1252SOL    HW2 5053   0.695   4.465   2.279  0.8701  0.4235 -1.3062
 1252SOL    HW3 5054   0.681   4.393   2.147  2.7191 -1.1653 -0.6538
 1252SOL    MW4 5055   0.691   4.391   2.234  0.5571 -0.1469 -0.3619
 1253SOL     OW 5056   1.163   4.629   2.377  0.1818  0.1943  0.1210
 1253SOL    HW2 5057   1.177   4.627   2.471  1.5860 -0.4448 -0.0932
 1253SOL    HW3 5058   1.074   4.664   2.367 -0.4826 -0.9834  1.7095
 1253SOL    MW4 5059   1.153   4.634   2.388  0.2794 -0.0453  0.3023
 1254SOL     OW 5060   0.931   0.108   2.279  0.4593  0.2262  0.0600
 1254SOL    HW2 5061   0.927   0.200   2.305  0.9757  0.6239 -1.2778
 1254SOL    HW3 5062   0.918   0.109   2.184  1.9403 -0.9635 -0.1556
 1254SOL    MW4 5063   0.929   0.120   2.270  0.7228  0.1217 -0.1452
 1255SOL     OW 5064   0.892   0.376   2.366 -0.7535  0.0128  0.0137
 1255SOL    HW2 5065   0.963   0.422   2.322 -0.1864 -0.4571  0.4383
 1255SOL    HW3 5066   0.815   0.393   2.311 -0.1362 -0.2139 -0.9175
 1255SOL    MW4 5067   0.891   0.385   2.353 -0.5972 -0.0791 -0.0532
 1256SOL     OW 5068   1.130   0.481   2.261  0.1362 -0.2992 -0.0356
 1256SOL    HW2 5069   1.211   0.433   2.281  0.7038  0.5667 -0.2097
 1256SOL    HW3 5070   1.114   0.463   2.169  0.4239 -0.0565 -0.1354
 1256SOL    MW4 5071   1.139   0.473   2.252  0.2490 -0.1530 -0.0715
 1257SOL     OW 5072   1.158   0.749   2.407  0.0632  0.0192 -0.0750
 1257SOL    HW2 5073   1.072   0.779   2.375 -0.1884 -0.8369 -0.2097
 1257SOL    HW3 5074   1.172   0.666   2.362  1.2030  0.4042 -0.4367
 1257SOL    MW4 5075   1.148   0.742   2.397  0.1805 -0.0429 -0.1404
 1258SOL     OW 5076   0.909   0.862   2.298  0.2268 -0.3094 -0.3233
 1258SOL    HW2 5077   0.900   0.957   2.310  0.4910 -0.1770 -1.1595
 1258SOL    HW3 5078   0.823   0.827   2.323 -0.1148  0.2233 -0.7427
 1258SOL    MW4 5079   0.896   0.870   2.303  0.2166 -0.2217 -0.4890
 1259SOL     OW 5080   0.906   1.139   2.379 -0.0907 -0.3518  0.3638
 1259SOL    HW2 5081   0.984   1.189   2.358 -1.0635  2.1960  2.5026
 1259SOL    HW3 5082   0.838   1.176   2.323 -0.3579 -0.7346  0.4303
 1259SOL    MW4 5083   0.907   1.150   2.369 -0.2543 -0.0662  0.6549
 1260SOL     OW 5084   1.121   1.267   2.293 -0.0512 -0.0566 -0.2460
 1260SOL    HW2 5085   1.207   1.234   2.321  0.6976  0.9144 -1.3158
 1260SOL    HW3 5086   1.132   1.284   2.199 -0.7774  1.9937  0.0181
 1260SOL    MW4 5087   1.134   1.265   2.284 -0.0484  0.3419 -0.3524
 1261SOL     OW 5088   1.107   1.551   2.369 -0.3855  0.3626  0.2405
 1261SOL    HW2 5089   1.018   1.566   2.340 -0.6482 -0.0545  0.8037
 1261SOL    HW3 5090   1.124   1.459   2.350  0.1486  0.6036 -0.4498
 1261SOL    MW4 5091   1.098   1.541   2.363 -0.3496  0.3394  0.2239
 1262SOL     OW 5092   0.856   1.672   2.294 -0.6528  0.3890 -0.3661
 1262SOL    HW2 5093   0.871   1.762   2.325  1.0688  0.4405 -1.2936
 1262SOL    HW3 5094   0.856   1.679   2.199 -2.4240 -0.3258 -0.4383
 1262SOL    MW4 5095   0.858   1.685   2.286 -0.6593  0.3014 -0.4978
 1263SOL     OW 5096   0.878   1.925   2.374  0.3941  0.1992 -0.1186
 1263SOL    HW2 5097   0.887   1.939   2.468  1.5950 -1.8031  0.1002
 1263SOL    HW3 5098   0.951   1.972   2.335  0.0892  0.7516 -0.0267
 1263SOL    MW4 5099   0.889   1.933   2.381  0.5123  0.0080 -0.0775
 1264SOL     OW 5100   1.104   2.049   2.276 -0.6509 -0.1356  0.7239
 1264SOL    HW2 5101   1.173   1.995   2.316 -0.8297 -0.6174  0.3877
 1264SOL    HW3 5102   1.138   2.071   2.190 -0.6813  0.0900  0.7705
 1264SOL    MW4 5103   1.118   2.045   2.270 -0.6785 -0.1693  0.6857
 1265SOL     OW 5104   1.125   2.301   2.359 -0.4488  0.4976 -0.1422
 1265SOL    HW2 5105   1.114   2.294   2.454  1.6097  0.5294  0.1187
 1265SOL    HW3 5106   1.114   2.212   2.327 -0.9069  0.4458  0.1553
 1265SOL    MW4 5107   1.122   2.288   2.367 -0.2376  0.4952 -0.0687
 1266SOL     OW 5108   0.907   2.435   2.269 -0.3899 -0.0894  0.5919
 1266SOL    HW2 5109   0.985   2.388   2.299 -1.5347 -1.2232  1.8742
 1266SOL    HW3 5110   0.922   2.449   2.176  2.0264  1.0806  1.1146
 1266SOL    MW4 5111   0.919   2.431   2.261 -0.2221 -0.0846  0.8297
 1267SOL     OW 5112   0.933   2.705   2.329  0.2958  0.3243 -0.4438
 1267SOL    HW2 5113   0.949   2.723   2.422  0.2590  0.4687 -0.4666
 1267SOL    HW3 5114   0.912   2.611   2.327 -0.2007  0.4255 -0.2392
 1267SOL    MW4 5115   0.932   2.695   2.341  0.2255  0.3567 -0.4196
 1268SOL     OW 5116   1.138   2.842   2.204  0.5916  0.1440 -0.6362
 1268SOL    HW2 5117   1.218   2.804   2.242  1.1363  0.5052 -1.4035
 1268SOL    HW3 5118   1.067   2.798   2.250  1.2355 -0.1075  0.1352
 1268SOL    MW4 5119   1.139   2.831   2.215  0.7483  0.1583 -0.6354
 1269SOL     OW 5120   1.093   3.092   2.320 -0.8088 -0.3303 -0.8848
 1269SOL    HW2 5121   1.014   3.125   2.276 -0.7920 -0.1607 -0.7882
 1269SOL    HW3 5122   1.112   3.009   2.276 -0.0982  0.4212 -2.0366
 1269SOL    MW4 5123   1.085   3.086   2.308 -0.7126 -0.2086 -1.0242
 1270SOL     OW 5124   0.869   3.206   2.198 -0.7155 -0.0874 -0.0219
 1270SOL    HW2 5125   0.882   3.291   2.241  0.0014 -0.9122  1.4320
 1270SOL    HW3 5126   0.805   3.161   2.253 -1.7163 -0.1834 -1.2462
 1270SOL    MW4 5127   0.863   3.211   2.211 -0.7530 -0.2089  0.0083
 1271SOL     OW 5128   0.911   3.452   2.354 -0.2367  0.1645 -0.3469
 1271SOL    HW2 5129   0.911   3.462   2.449  0.9769  1.4524 -0.4633
 1271SOL    HW3 5130   0.832   3.498   2.325 -0.7454 -0.4514  0.0570
 1271SOL    MW4 5131   0.901   3.460   2.363 -0.1436  0.2532 -0.3090
 1272SOL     OW 5132   1.114   3.604   2.248 -0.1285  0.0390  0.9768
 1272SOL    HW2 5133   1.191   3.559   2.283 -0.3519 -2.1491 -1.2547
 1272SOL    HW3 5134   1.039   3.560   2.290 -0.2582  0.6825  1.4376
 1272SOL    MW4 5135   1.114   3.592   2.258 -0.1751 -0.1647  0.7434
 1273SOL     OW 5136   1.125   3.877   2.313  0.2012 -0.7483  0.2682
 1273SOL    HW2 5137   1.202   3.915   2.271 -1.0105  0.6672 -0.7190
 1273SOL    HW3 5138   1.126   3.785   2.286  2.0023 -0.9585  0.9710
 1273SOL    MW4 5139   1.136   3.869   2.304  0.2789 -0.5891  0.2306
 1274SOL     OW 5140   0.915   4.015   2.218  0.6456  0.0690 -0.0232
 1274SOL    HW2 5141   0.985   3.952   2.236  1.2242  0.4939 -0.7632
 1274SOL    HW3 5142   0.837   3.977   2.260  0.8989 -1.3450 -0.7935
 1274SOL    MW4 5143   0.914   4.001   2.226  0.7554 -0.0610 -0.2224
 1275SOL     OW 5144   0.922   4.263   2.344 -0.1794  0.3643  0.0156
 1275SOL    HW2 5145   0.923   4.178   2.300  2.2949  0.6732 -0.6142
 1275SOL    HW3 5146   0.841   4.304   2.315 -1.1897 -1.6051 -0.0102
 1275SOL    MW4 5147   0.912   4.257   2.334  0.0138  0.1450 -0.0710
 1276SOL     OW 5148   1.141   4.382   2.241  0.0233  0.4799  0.5149
 1276SOL    HW2 5149   1.061   4.341   2.273 -0.4638  0.4796 -0.6526
 1276SOL    HW3 5150   1.138   4.472   2.273 -2.5357  1.7321 -2.9426
 1276SOL    MW4 5151   1.130   4.388   2.249 -0.3786  0.6447 -0.0956
 1277SOL     OW 5152   1.586   4.646   2.377  0.0061 -0.5091 -0.1454
 1277SOL    HW2 5153   1.658   4.697   2.340 -0.7453 -0.8549 -2.1816
 1277SOL    HW3 5154   1.507   4.688   2.343 -0.7724 -0.1728  2.0134
 1277SOL    MW4 5155   1.585   4.658   2.368 -0.1957 -0.5107 -0.1292
 1278SOL     OW 5156   1.371   0.100   2.242 -0.1140 -0.0473 -0.5298
 1278SOL    HW2 5157   1.380   0.186   2.283  0.2332 -0.2634 -0.1484
 1278SOL    HW3 5158   1.298   0.059   2.287  1.9858 -1.3694  1.8180
 1278SOL    MW4 5159   1.363   0.106   2.253  0.2090 -0.2503 -0.1698
 1279SOL     OW 5160   1.357   0.362   2.354  0.3861  0.3441  0.0295
 1279SOL    HW2 5161   1.347   0.350   2.448  0.9304 -1.9569 -0.1687
 1279SOL    HW3 5162   1.440   0.409   2.344  1.1581 -0.8408  0.6579
 1279SOL    MW4 5163   1.367   0.367   2.365  0.5598 -0.1158  0.0863
 1280SOL     OW 5164   1.600   0.486   2.312 -0.2591 -0.3527 -0.0291
 1280SOL    HW2 5165   1.687   0.454   2.337 -0.0359 -0.4093 -0.8628
 1280SOL    HW3 5166   1.598   0.577   2.344  0.2050 -0.2707 -0.2227
 1280SOL    MW4 5167   1.612   0.494   2.320 -0.1684 -0.3493 -0.1645
 1281SOL     OW 5168   1.594   0.774   2.355  0.0899 -0.1729  0.7396
 1281SOL    HW2 5169   1.669   0.831   2.336 -0.0404 -0.1029  0.4340
 1281SOL    HW3 5170   1.593   0.767   2.450  1.1699 -1.0848  0.7023
 1281SOL    MW4 5171   1.604   0.781   2.365  0.2154 -0.2839  0.6945
 1282SOL     OW 5172   1.350   0.883   2.256 -0.2157 -0.1239 -0.3332
 1282SOL    HW2 5173   1.439   0.850   2.260 -0.2828 -0.2750 -0.0867
 1282SOL    HW3 5174   1.298   0.819   2.306 -0.4239  0.0867 -0.2781
 1282SOL    MW4 5175   1.355   0.870   2.263 -0.2520 -0.1161 -0.2937
 1283SOL     OW 5176   1.351   1.132   2.355  0.4259  0.1774 -0.2798
 1283SOL    HW2 5177   1.352   1.112   2.449 -0.8528 -0.5764 -0.4182
 1283SOL    HW3 5178   1.366   1.048   2.312  0.0960  0.3663 -0.7678
 1283SOL    MW4 5179   1.353   1.118   2.362  0.2137  0.1029 -0.3624
 1284SOL     OW 5180   1.563   1.268   2.229  0.7524  0.3482 -0.3877
 1284SOL    HW2 5181   1.496   1.210   2.263  1.5976  0.2703  1.2032
 1284SOL    HW3 5182   1.564   1.251   2.134  0.3350 -1.5258 -0.0739
 1284SOL    MW4 5183   1.555   1.258   2.221  0.8090  0.0906 -0.1364
 1285SOL     OW 5184   1.572   1.526   2.360  0.4969 -0.1700 -0.0753
 1285SOL    HW2 5185   1.649   1.563   2.318 -0.3743  0.3687 -1.2165
 1285SOL    HW3 5186   1.566   1.437   2.326  0.2298  0.0110 -0.4998
 1285SOL    MW4 5187   1.581   1.519   2.350  0.3468 -0.0751 -0.2820
 1286SOL     OW 5188   1.346   1.687   2.256 -0.6241  0.3433  0.4037
 1286SOL    HW2 5189   1.416   1.641   2.303  0.2170  0.0653 -1.0920
 1286SOL    HW3 5190   1.266   1.642   2.282  0.0049 -0.8520  0.3168
 1286SOL    MW4 5191   1.345   1.675   2.265 -0.4301  0.1489  0.1950
 1287SOL     OW 5192   1.340   1.933   2.396  0.2059 -0.4338  0.6635
 1287SOL    HW2 5193   1.421   1.969   2.360  0.2542 -0.7839  0.4149
 1287SOL    HW3 5194   1.331   1.848   2.353 -1.0180  0.1900 -0.3444
 1287SOL    MW4 5195   1.349   1.926   2.385  0.0508 -0.3978  0.4976
 1288SOL     OW 5196   1.553   2.021   2.279  0.4861  0.1641  0.1240
 1288SOL    HW2 5197   1.640   1.984   2.294  0.2167 -1.2152 -1.5251
 1288SOL    HW3 5198   1.541   2.017   2.184 -0.9351  1.3667  0.2312
 1288SOL    MW4 5199   1.563   2.016   2.268  0.2631  0.1404 -0.0794
 1289SOL     OW 5200   1.601   2.289   2.354 -0.2671 -0.4396 -0.1130
 1289SOL    HW2 5201   1.590   2.307   2.447  2.0202 -1.2825  0.3480
 1289SOL    HW3 5202   1.589   2.194   2.346 -0.0266 -0.4268 -0.6194
 1289SOL    MW4 5203   1.598   2.279   2.365  0.0663 -0.5488 -0.1190
 1290SOL     OW 5204   1.377   2.428   2.253  0.1989 -0.2056 -0.9232
 1290SOL    HW2 5205   1.450   2.373   2.281  0.8005  0.6715 -0.7141
 1290SOL    HW3 5206   1.302   2.398   2.304  0.6291 -0.5248 -0.4787
 1290SOL    MW4 5207   1.377   2.417   2.263  0.3351 -0.1323 -0.8366
 1291SOL     OW 5208   1.359   2.710   2.297 -0.1400  0.0297  0.8133
 1291SOL    HW2 5209   1.443   2.753   2.279 -0.4237  0.1062 -0.3966
 1291SOL    HW3 5210   1.379   2.616   2.294 -0.5084  0.0036 -1.6803
 1291SOL    MW4 5211   1.373   2.703   2.294 -0.2260  0.0365  0.3245
 1292SOL     OW 5212   1.583   2.842   2.224 -0.1656 -0.3340 -0.1932
 1292SOL    HW2 5213   1.596   2.932   2.255 -1.9234 -0.2650  0.4270
 1292SOL    HW3 5214   1.585   2.850   2.128 -1.5817  0.5971 -0.1680
 1292SOL    MW4 5215   1.585   2.855   2.215 -0.5842 -0.2022 -0.1080
 1293SOL     OW 5216   1.563   3.106   2.316 -0.0369  0.3427 -0.3175
 1293SOL    HW2 5217   1.575   3.109   2.411  0.0961  0.5824 -0.3415
 1293SOL    HW3 5218   1.481   3.152   2.301  1.0988  2.3384 -0.5266
 1293SOL    MW4 5219   1.554   3.112   2.327  0.1304  0.6378 -0.3481
 1294SOL     OW 5220   1.322   3.234   2.267  0.4499 -0.1883  0.4450
 1294SOL    HW2 5221   1.243   3.180   2.279  0.3260  0.1534  1.1961
 1294SOL    HW3 5222   1.324   3.251   2.173 -0.5707  0.0917  0.4625
 1294SOL    MW4 5223   1.312   3.229   2.256  0.2989 -0.1061  0.5465
 1295SOL     OW 5224   1.333   3.491   2.358 -0.5113 -0.0399 -0.1594
 1295SOL    HW2 5225   1.345   3.508   2.452  0.5293 -0.4900 -0.2054
 1295SOL    HW3 5226   1.328   3.396   2.351 -0.9163  0.0074 -0.5243
 1295SOL    MW4 5227   1.334   3.481   2.370 -0.4275 -0.0932 -0.2134
 1296SOL     OW 5228   1.550   3.599   2.242  0.2045  0.0651  0.4315
 1296SOL    HW2 5229   1.548   3.686   2.282 -0.6480 -0.2100  1.0089
 1296SOL    HW3 5230   1.465   3.560   2.264  0.1390 -0.5025 -0.7457
 1296SOL    MW4 5231   1.539   3.605   2.250  0.0833 -0.0463  0.3524
 1297SOL     OW 5232   1.563   3.861   2.347  0.2199 -0.0241 -0.0095
 1297SOL    HW2 5233   1.558   3.885   2.439  0.9091  0.1278 -0.0044
 1297SOL    HW3 5234   1.645   3.901   2.317  1.2336 -2.1272 -0.0723
 1297SOL    MW4 5235   1.573   3.870   2.355  0.4445 -0.2818 -0.0169
 1298SOL     OW 5236   1.362   3.998   2.205  0.2956 -0.0395  0.4535
 1298SOL    HW2 5237   1.436   3.954   2.247  0.0776  0.5157  1.4308
 1298SOL    HW3 5238   1.385   3.999   2.112  1.5056  0.1095  0.7399
 1298SOL    MW4 5239   1.375   3.992   2.198  0.4264  0.0536  0.6204
 1299SOL     OW 5240   1.362   4.224   2.361 -0.1072 -0.1973 -0.0608
 1299SOL    HW2 5241   1.363   4.153   2.297 -0.0805 -1.5591  1.4300
 1299SOL    HW3 5242   1.279   4.269   2.346 -0.5992 -1.1809 -0.3219
 1299SOL    MW4 5243   1.351   4.221   2.351 -0.1686 -0.5074  0.1018
 1300SOL     OW 5244   1.553   4.401   2.252 -0.5172 -0.0443  0.0500
 1300SOL    HW2 5245   1.492   4.338   2.292 -1.1507  1.3106  1.2647
 1300SOL    HW3 5246   1.557   4.474   2.314 -0.6155  1.6018 -1.8080
 1300SOL    MW4 5247   1.545   4.402   2.265 -0.6138  0.3519 -0.0348
 1301SOL     OW 5248   2.052   4.615   2.376  0.0330  0.2021 -0.5428
 1301SOL    HW2 5249   2.127   4.656   2.332 -0.6968  1.5043 -0.5743
 1301SOL    HW3 5250   2.047   4.527   2.337  0.1139  0.9374 -2.2462
 1301SOL    MW4 5251   2.061   4.609   2.365 -0.0525  0.4716 -0.7720
 1302SOL     OW 5252   1.833   0.108   2.283  0.0811  0.2883 -0.0702
 1302SOL    HW2 5253   1.841   0.194   2.326  1.0846  0.2954 -0.2476
 1302SOL    HW3 5254   1.910   0.060   2.313 -0.5634 -0.6149  0.1476
 1302SOL    MW4 5255   1.844   0.113   2.293  0.1284  0.1701 -0.0646
 1303SOL     OW 5256   1.845   0.377   2.371 -0.5470  0.0640 -0.1156
 1303SOL    HW2 5257   1.850   0.386   2.466  0.7536  0.5835 -0.2210
 1303SOL    HW3 5258   1.919   0.428   2.338  0.1865 -1.7143 -1.3108
 1303SOL    MW4 5259   1.855   0.385   2.379 -0.2786 -0.1021 -0.2873
 1304SOL     OW 5260   2.052   0.523   2.273 -0.0531  0.2812  0.4337
 1304SOL    HW2 5261   2.043   0.612   2.306  0.9675  0.8456 -0.7809
 1304SOL    HW3 5262   2.063   0.533   2.178  1.3257 -1.0564  0.4256
 1304SOL    MW4 5263   2.052   0.536   2.264  0.2635  0.1791  0.2723
 1305SOL     OW 5264   2.022   0.778   2.376  0.4084 -0.6339  0.3628
 1305SOL    HW2 5265   2.092   0.819   2.326  1.4845  0.3170  2.5608
 1305SOL    HW3 5266   1.944   0.829   2.353  1.2577  1.0621  1.1271
 1305SOL    MW4 5267   2.021   0.790   2.366  0.6626 -0.2847  0.7536
 1306SOL     OW 5268   1.816   0.939   2.301 -0.2786  0.1818 -0.1595
 1306SOL    HW2 5269   1.803   1.029   2.330  0.3230  0.2845 -0.1981
 1306SOL    HW3 5270   1.828   0.946   2.207  1.5980  0.2693  0.0669
 1306SOL    MW4 5271   1.816   0.952   2.293  0.0484  0.2068 -0.1349
 1307SOL     OW 5272   1.786   1.208   2.415  0.1823 -0.0093  0.0189
 1307SOL    HW2 5273   1.862   1.235   2.362  0.3032 -1.2235 -0.4432
 1307SOL    HW3 5274   1.711   1.224   2.358  0.1923  0.0020  0.0083
 1307SOL    MW4 5275   1.786   1.214   2.400  0.1996 -0.1680 -0.0439
 1308SOL     OW 5276   2.029   1.307   2.279  0.6778 -0.2064 -0.1146
 1308SOL    HW2 5277   2.042   1.398   2.303 -0.2201 -0.1532  0.1997
 1308SOL    HW3 5278   2.025   1.307   2.183 -1.3569  0.3886 -0.0633
 1308SOL    MW4 5279   2.030   1.319   2.269  0.2911 -0.1209 -0.0665
 1309SOL     OW 5280   2.034   1.577   2.355 -0.4319 -0.6537  0.1361
 1309SOL    HW2 5281   2.007   1.574   2.447  0.4921 -0.7325  0.4092
 1309SOL    HW3 5282   1.955   1.602   2.308 -0.9338 -0.6885  0.9463
 1309SOL    MW4 5283   2.020   1.580   2.361 -0.3765 -0.6686  0.2789
 1310SOL     OW 5284   1.786   1.664   2.245 -0.0110  0.0135  0.3973
 1310SOL    HW2 5285   1.791   1.752   2.284  0.5655  0.0918  0.1488
 1310SOL    HW3 5286   1.769   1.679   2.153  1.1232 -0.1016  0.1605
 1310SOL    MW4 5287   1.784   1.678   2.238  0.2147  0.0086  0.3333
 1311SOL     OW 5288   1.816   1.922   2.342 -0.8036 -0.1339 -0.5791
 1311SOL    HW2 5289   1.805   1.919   2.437 -0.6402 -1.1113 -0.5812
 1311SOL    HW3 5290   1.889   1.983   2.328 -0.6666 -0.1753 -0.0600
 1311SOL    MW4 5291   1.824   1.929   2.352 -0.7639 -0.2682 -0.5107
 1312SOL     OW 5292   2.028   2.063   2.251  0.7863 -0.4420  0.3993
 1312SOL    HW2 5293   2.110   2.038   2.293  1.5003 -0.3203 -0.8978
 1312SOL    HW3 5294   2.049   2.067   2.158 -0.6592 -0.2702  0.0668
 1312SOL    MW4 5295   2.041   2.060   2.244  0.6900 -0.4032  0.1843
 1313SOL     OW 5296   2.040   2.319   2.333 -0.2084 -0.2039 -0.3598
 1313SOL    HW2 5297   2.113   2.352   2.281  0.8565  0.0435  1.2850
 1313SOL    HW3 5298   2.028   2.229   2.303 -0.8008  0.4827 -2.3103
 1313SOL    MW4 5299   2.048   2.311   2.322 -0.1459 -0.0808 -0.4001
 1314SOL     OW 5300   1.807   2.448   2.265 -0.6442  0.4225 -0.2330
 1314SOL    HW2 5301   1.891   2.410   2.288  0.2424  1.7901 -1.1494
 1314SOL    HW3 5302   1.742   2.384   2.295  0.7138 -0.6303  0.4734
 1314SOL    MW4 5303   1.809   2.435   2.272 -0.3480  0.4642 -0.2608
 1315SOL     OW 5304   1.782   2.690   2.372 -0.1280  0.0158 -0.0772
 1315SOL    HW2 5305   1.790   2.605   2.329 -0.4519 -0.3793  0.6351
 1315SOL    HW3 5306   1.726   2.741   2.313  1.3517  0.2617 -1.2709
 1315SOL    MW4 5307   1.775   2.685   2.358  0.0247 -0.0038 -0.1407
 1316SOL     OW 5308   1.997   2.842   2.245  0.0926 -0.2064 -0.8078
 1316SOL    HW2 5309   2.082   2.800   2.257 -0.8000 -2.1784 -1.1224
 1316SOL    HW3 5310   1.938   2.792   2.302 -0.5227  2.2760  0.7990
 1316SOL    MW4 5311   2.000   2.830   2.254 -0.1066 -0.1392 -0.6373
 1317SOL     OW 5312   2.006   3.101   2.354 -0.7721 -0.0700  1.2170
 1317SOL    HW2 5313   2.093   3.132   2.330 -0.6463  0.1819  1.9724
 1317SOL    HW3 5314   1.998   3.015   2.312 -0.8172  0.6258 -0.2325
 1317SOL    MW4 5315   2.016   3.094   2.346 -0.7617  0.0551  1.1256
 1318SOL     OW 5316   1.795   3.261   2.242  0.0296  0.2182  0.5335
 1318SOL    HW2 5317   1.870   3.220   2.285 -0.8373 -1.2637  0.6466
 1318SOL    HW3 5318   1.719   3.216   2.276 -0.7364 -0.3871 -1.8554
 1318SOL    MW4 5319   1.795   3.250   2.252 -0.1858 -0.0572  0.2334
 1319SOL     OW 5320   1.785   3.511   2.368 -0.1664  0.2936  0.1858
 1319SOL    HW2 5321   1.796   3.423   2.332 -0.7696  0.2798  0.0262
 1319SOL    HW3 5322   1.700   3.540   2.334 -0.1124  0.8128  0.4942
 1319SOL    MW4 5323   1.775   3.503   2.359 -0.2390  0.3607  0.2055
 1320SOL     OW 5324   2.031   3.616   2.290 -0.1049  0.5740 -0.6272
 1320SOL    HW2 5325   1.942   3.587   2.307  0.2188 -0.5428 -0.8504
 1320SOL    HW3 5326   2.037   3.621   2.195  0.0163  0.8617 -0.6076
 1320SOL    MW4 5327   2.020   3.613   2.280 -0.0463  0.4647 -0.6540
 1321SOL     OW 5328   2.024   3.890   2.367 -0.3004 -0.3328 -0.2546
 1321SOL    HW2 5329   1.992   3.887   2.457 -0.7048 -0.8387 -0.4068
 1321SOL    HW3 5330   2.005   3.802   2.333  0.5787 -0.3931 -0.5824
 1321SOL    MW4 5331   2.017   3.878   2.374 -0.2375 -0.4075 -0.3181
 1322SOL     OW 5332   1.788   3.976   2.269 -0.0499  0.1412  0.2265
 1322SOL    HW2 5333   1.874   3.949   2.303 -0.3051 -2.1568 -0.8077
 1322SOL    HW3 5334   1.797   3.968   2.174 -1.0294  1.0847  0.0551
 1322SOL    MW4 5335   1.801   3.971   2.261 -0.2128 -0.0374  0.0675
 1323SOL     OW 5336   1.786   4.250   2.342 -0.2328  0.4580  0.1645
 1323SOL    HW2 5337   1.768   4.164   2.305  0.5084  0.5641 -0.4567
 1323SOL    HW3 5338   1.716   4.306   2.308  0.3404  0.5147 -0.9603
 1323SOL    MW4 5339   1.774   4.246   2.333 -0.0596  0.4792 -0.0660
 1324SOL     OW 5340   2.033   4.354   2.243 -0.4185 -0.0164 -0.1048
 1324SOL    HW2 5341   1.948   4.313   2.261  0.1329 -0.7141  0.9615
 1324SOL    HW3 5342   2.026   4.386   2.153 -1.7566 -0.2033 -0.0790
 1324SOL    MW4 5343   2.020   4.353   2.234 -0.5224 -0.1330  0.0391
 1325SOL     OW 5344   2.492   4.659   2.371  0.1230  0.3577  0.2102
 1325SOL    HW2 5345   2.558   4.709   2.323 -0.4320  0.8322 -0.0687
 1325SOL    HW3 5346   2.490   4.573   2.329 -0.1712  0.6860 -0.4462
 1325SOL    MW4 5347   2.500   4.654   2.359  0.0107  0.4635  0.0865
 1326SOL     OW 5348   2.248   0.094   2.259  0.4219  0.0417  0.1942
 1326SOL    HW2 5349   2.229   0.179   2.299 -0.3195 -0.3803  0.7737
 1326SOL    HW3 5350   2.333   0.069   2.293  0.3184  0.2288  0.5939
 1326SOL    MW4 5351   2.256   0.102   2.269  0.3104  0.0107  0.3233
 1327SOL     OW 5352   2.265   0.352   2.374 -0.0920 -0.0647  0.2890
 1327SOL    HW2 5353   2.341   0.391   2.330  0.4748 -0.3368  1.0139
 1327SOL    HW3 5354   2.190   0.405   2.345  0.4216  0.4148 -0.1676
 1327SOL    MW4 5355   2.265   0.364   2.364  0.0503 -0.0374  0.3245
 1328SOL     OW 5356   2.474   0.473   2.225  0.4655  0.2541 -0.4145
 1328SOL    HW2 5357   2.552   0.430   2.260  1.9919  1.5627 -2.0882
 1328SOL    HW3 5358   2.496   0.490   2.133 -1.1627  2.0738 -0.4867
 1328SOL    MW4 5359   2.488   0.470   2.217  0.4518  0.6668 -0.6452
 1329SOL     OW 5360   2.426   0.711   2.365  0.2452  0.1830 -0.1944
 1329SOL    HW2 5361   2.504   0.763   2.347  1.7854 -1.7026  0.8525
 1329SOL    HW3 5362   2.444   0.626   2.323  0.0977 -1.2909  2.6486
 1329SOL    MW4 5363   2.438   0.707   2.357  0.4292 -0.2604  0.3188
 1330SOL     OW 5364   2.243   0.908   2.254 -0.0169  0.3833 -0.3428
 1330SOL    HW2 5365   2.252   1.000   2.278 -2.0440  0.1205  1.5273
 1330SOL    HW3 5366   2.308   0.862   2.307 -0.4567  0.4942  0.2935
 1330SOL    MW4 5367   2.253   0.914   2.264 -0.3424  0.3632 -0.0122
 1331SOL     OW 5368   2.274   1.171   2.360  0.3728  0.1066  0.1274
 1331SOL    HW2 5369   2.342   1.221   2.315  0.9084 -0.3098  0.4637
 1331SOL    HW3 5370   2.192   1.212   2.333  0.7424  0.4430 -0.4903
 1331SOL    MW4 5371   2.272   1.183   2.351  0.4921  0.0960  0.0904
 1332SOL     OW 5372   2.513   1.283   2.225  0.2146 -0.2197  0.1007
 1332SOL    HW2 5373   2.570   1.225   2.274 -1.8632 -2.7438 -0.3407
 1332SOL    HW3 5374   2.509   1.363   2.277  0.8026 -1.5607  2.2645
 1332SOL    MW4 5375   2.520   1.286   2.238  0.0179 -0.7297  0.3281
 1333SOL     OW 5376   2.462   1.525   2.354  0.2069  0.0604 -0.0738
 1333SOL    HW2 5377   2.459   1.547   2.447  0.1017  0.1759 -0.1039
 1333SOL    HW3 5378   2.536   1.575   2.320  0.1473  0.1415 -0.0838
 1333SOL    MW4 5379   2.471   1.534   2.361  0.1850  0.0864 -0.0789
 1334SOL     OW 5380   2.243   1.656   2.209 -0.4600 -0.1103  0.1258
 1334SOL    HW2 5381   2.314   1.604   2.247 -0.0953 -0.5079 -1.0594
 1334SOL    HW3 5382   2.164   1.628   2.256  0.0525 -0.2280  0.9162
 1334SOL    MW4 5383   2.242   1.645   2.220 -0.3445 -0.1782  0.0739
 1335SOL     OW 5384   2.256   1.926   2.356  0.2067  0.2537  0.0741
 1335SOL    HW2 5385   2.339   1.968   2.335  0.6188 -0.4672  0.2757
 1335SOL    HW3 5386   2.262   1.839   2.317  0.4324 -0.6038  2.0229
 1335SOL    MW4 5387   2.268   1.920   2.348  0.2909  0.0454  0.3576
 1336SOL     OW 5388   2.469   2.072   2.278  0.4289 -0.2172  0.0998
 1336SOL    HW2 5389   2.556   2.041   2.304  0.0274 -0.1076  1.6435
 1336SOL    HW3 5390   2.468   2.064   2.183  1.2942 -2.4127  0.2422
 1336SOL    MW4 5391   2.480   2.067   2.269  0.4900 -0.4923  0.3223
 1337SOL     OW 5392   2.451   2.327   2.370  0.1123 -0.1233  0.2791
 1337SOL    HW2 5393   2.532   2.357   2.329 -0.5179  0.6937 -0.3954
 1337SOL    HW3 5394   2.454   2.232   2.363  1.7616 -0.1984  1.7044
 1337SOL    MW4 5395   2.462   2.319   2.364  0.2465 -0.0253  0.3784
 1338SOL     OW 5396   2.254   2.446   2.222 -0.0308 -0.3979  0.0126
 1338SOL    HW2 5397   2.231   2.529   2.263  1.1069 -0.0545 -0.0507
 1338SOL    HW3 5398   2.317   2.406   2.283  0.3522 -0.6641 -0.5571
 1338SOL    MW4 5399   2.259   2.451   2.236  0.1695 -0.3877 -0.0710
 1339SOL     OW 5400   2.237   2.691   2.319  0.8082 -0.0067 -0.7281
 1339SOL    HW2 5401   2.249   2.689   2.414 -0.1910 -1.0840 -0.6221
 1339SOL    HW3 5402   2.317   2.733   2.286 -0.0515  2.9616  0.7702
 1339SOL    MW4 5403   2.249   2.696   2.327  0.5629  0.2427 -0.5167
 1340SOL     OW 5404   2.497   2.807   2.304 -0.0187  0.0621  0.4111
 1340SOL    HW2 5405   2.575   2.755   2.327  0.8351  1.6819  1.2426
 1340SOL    HW3 5406   2.500   2.812   2.208  0.9303  0.1635  0.4384
 1340SOL    MW4 5407   2.508   2.801   2.294  0.2189  0.2890  0.5245
 1341SOL     OW 5408   2.493   3.076   2.381  0.2998 -0.3733 -0.4660
 1341SOL    HW2 5409   2.569   3.113   2.336  0.4505 -0.1859 -0.0595
 1341SOL    HW3 5410   2.495   2.983   2.359  0.5307 -0.3316 -0.6190
 1341SOL    MW4 5411   2.503   3.069   2.372  0.3500 -0.3428 -0.4327
 1342SOL     OW 5412   2.266   3.186   2.287 -0.7387 -0.1659 -0.0008
 1342SOL    HW2 5413   2.275   3.279   2.308 -0.8749 -0.0528 -0.4399
 1342SOL    HW3 5414   2.343   3.144   2.327 -0.7916  0.1052  0.3786
 1342SOL    MW4 5415   2.277   3.192   2.295 -0.7637 -0.1152 -0.0086
 1343SOL     OW 5416   2.240   3.448   2.351 -0.1056  0.2018  0.1873
 1343SOL    HW2 5417   2.241   3.453   2.447 -0.0193  0.8229  0.1553
 1343SOL    HW3 5418   2.163   3.500   2.325  0.8320  1.4423 -0.1569
 1343SOL    MW4 5419   2.230   3.456   2.360  0.0296  0.4473  0.1376
 1344SOL     OW 5420   2.494   3.585   2.311  0.1094  0.9050 -0.2017
 1344SOL    HW2 5421   2.477   3.676   2.336 -1.8724  0.2242  1.0300
 1344SOL    HW3 5422   2.409   3.542   2.316  1.0378 -1.0668 -0.6577
 1344SOL    MW4 5423   2.481   3.591   2.315 -0.0296  0.5550 -0.0994
 1345SOL     OW 5424   2.472   3.834   2.385 -0.3253 -0.7246  0.4859
 1345SOL    HW2 5425   2.459   3.846   2.479  1.3524  0.9737  0.5400
 1345SOL    HW3 5426   2.406   3.890   2.344  0.5659  0.4900  0.6837
 1345SOL    MW4 5427   2.462   3.843   2.392  0.0136 -0.3402  0.5190
 1346SOL     OW 5428   2.268   3.993   2.252  0.3120  1.1853  0.5567
 1346SOL    HW2 5429   2.272   4.088   2.267  0.2902  1.1922  0.5178
 1346SOL    HW3 5430   2.198   3.962   2.309 -0.5880  1.3852 -0.4355
 1346SOL    MW4 5431   2.260   4.001   2.261  0.1905  1.2121  0.4206
 1347SOL     OW 5432   2.270   4.254   2.312 -0.1618  0.3562 -0.0541
 1347SOL    HW2 5433   2.266   4.248   2.407 -1.2615 -0.5331 -0.1535
 1347SOL    HW3 5434   2.188   4.297   2.286 -0.6445 -0.9281 -0.7145
 1347SOL    MW4 5435   2.259   4.259   2.321 -0.3707  0.0687 -0.1543
 1348SOL     OW 5436   2.506   4.413   2.242  0.1192  0.1226 -0.2845
 1348SOL    HW2 5437   2.558   4.361   2.303  1.3141  0.8141 -0.7038
 1348SOL    HW3 5438   2.417   4.380   2.253  0.0043  1.3748  3.0317
 1348SOL    MW4 5439   2.501   4.402   2.251  0.2618  0.3791  0.0978
 1349SOL     OW 5440   2.910   4.649   2.369 -0.4935 -0.3708  0.5361
 1349SOL    HW2 5441   2.987   4.704   2.349 -0.3003 -0.4611  1.0218
 1349SOL    HW3 5442   2.935   4.562   2.339 -0.3799 -0.4121  0.7456
 1349SOL    MW4 5443   2.924   4.645   2.363 -0.4530 -0.3881  0.6278
 1350SOL     OW 5444   2.709   0.120   2.264  0.3360  0.6212  0.1907
 1350SOL    HW2 5445   2.729   0.211   2.284 -0.5269  0.7998  0.2747
 1350SOL    HW3 5446   2.778   0.070   2.308 -0.7621  1.0777  2.5406
 1350SOL    MW4 5447   2.720   0.125   2.273  0.0772  0.7050  0.5119
 1351SOL     OW 5448   2.712   0.385   2.333  0.4749  0.4101 -0.1383
 1351SOL    HW2 5449   2.718   0.384   2.428  2.2480 -0.9003 -0.2397
 1351SOL    HW3 5450   2.790   0.431   2.304  0.2460  0.2746 -0.9830
 1351SOL    MW4 5451   2.723   0.391   2.342  0.6785  0.2193 -0.2632
 1352SOL     OW 5452   2.957   0.518   2.270 -0.2128 -0.5308  0.1298
 1352SOL    HW2 5453   2.948   0.608   2.299 -2.5745 -1.2639  1.8376
 1352SOL    HW3 5454   2.925   0.519   2.180 -2.9980 -0.1350  1.0618
 1352SOL    MW4 5455   2.952   0.530   2.262 -0.8917 -0.5753  0.4780
 1353SOL     OW 5456   2.924   0.788   2.359  0.0348  0.4827 -0.2062
 1353SOL    HW2 5457   2.916   0.779   2.454  0.3118  1.5306 -0.0742
 1353SOL    HW3 5458   2.839   0.820   2.330 -0.1576 -0.1567 -0.3593
 1353SOL    MW4 5459   2.912   0.791   2.368  0.0460  0.5366 -0.2091
 1354SOL     OW 5460   2.665   0.870   2.300  0.6138 -0.1242  0.2716
 1354SOL    HW2 5461   2.667   0.957   2.340 -2.8901 -0.0090  0.3200
 1354SOL    HW3 5462   2.668   0.887   2.206 -1.0128  0.1523  0.2476
 1354SOL    MW4 5463   2.666   0.883   2.293 -0.0629 -0.0725  0.2749
 1355SOL     OW 5464   2.681   1.121   2.386 -0.7801  0.0266 -0.1582
 1355SOL    HW2 5465   2.684   1.152   2.477 -0.7100 -0.4911  0.0186
 1355SOL    HW3 5466   2.758   1.159   2.345 -1.2080  0.8680 -0.1967
 1355SOL    MW4 5467   2.691   1.130   2.393 -0.8273  0.0693 -0.1400
 1356SOL     OW 5468   2.906   1.240   2.274  0.0365  0.2616 -0.4098
 1356SOL    HW2 5469   2.986   1.219   2.323  0.1363 -0.5378 -0.9056
 1356SOL    HW3 5470   2.929   1.226   2.182 -1.0274 -1.1854 -0.4720
 1356SOL    MW4 5471   2.919   1.236   2.268 -0.0908 -0.0349 -0.4833
 1357SOL     OW 5472   2.900   1.513   2.351  0.4153  0.3168 -0.2698
 1357SOL    HW2 5473   2.904   1.503   2.446 -0.4176 -0.6010 -0.3202
 1357SOL    HW3 5474   2.904   1.423   2.317 -1.3540  0.4906 -0.9992
 1357SOL    MW4 5475   2.901   1.499   2.359  0.0718  0.2187 -0.3724
 1358SOL     OW 5476   2.694   1.939   2.368 -0.1163 -0.0296  0.6360
 1358SOL    HW2 5477   2.702   1.933   2.463  2.3685 -1.9355  0.3568
 1358SOL    HW3 5478   2.686   1.848   2.339  0.1201  0.4653 -1.0451
 1358SOL    MW4 5479   2.694   1.926   2.377  0.2429 -0.2156  0.3772
 1359SOL     OW 5480   2.664   1.660   2.244 -0.5333  0.0511  0.2932
 1359SOL    HW2 5481   2.741   1.612   2.275 -0.6197  0.5914  1.3823
 1359SOL    HW3 5482   2.677   1.668   2.149 -0.5581 -2.1632  0.0816
 1359SOL    MW4 5483   2.676   1.655   2.235 -0.5479 -0.1698  0.4091
 1360SOL     OW 5484   2.915   2.081   2.276 -0.0745  0.0696 -0.1276
 1360SOL    HW2 5485   2.994   2.032   2.301 -0.4689  0.2058  1.3924
 1360SOL    HW3 5486   2.842   2.029   2.310 -0.5878  0.5776 -0.4447
 1360SOL    MW4 5487   2.916   2.068   2.284 -0.1945  0.1545  0.0310
 1361SOL     OW 5488   2.921   2.343   2.381  0.0766 -0.3076 -0.0676
 1361SOL    HW2 5489   2.927   2.342   2.477 -2.5295  1.4926  0.1435
 1361SOL    HW3 5490   2.897   2.253   2.358 -1.2201 -0.2900  1.1263
 1361SOL    MW4 5491   2.919   2.331   2.391 -0.4385 -0.0677  0.1180
 1362SOL     OW 5492   2.682   2.392   2.258  0.2746 -0.0016 -0.2951
 1362SOL    HW2 5493   2.771   2.377   2.290  0.9033  0.6345 -1.7143
 1362SOL    HW3 5494   2.693   2.406   2.164 -1.3918 -0.4699 -0.5664
 1362SOL    MW4 5495   2.696   2.392   2.250  0.1378  0.0207 -0.5183
 1363SOL     OW 5496   2.743   2.645   2.368 -0.1093 -0.5155  0.2181
 1363SOL    HW2 5497   2.826   2.679   2.334 -0.1754 -0.0436  0.5264
 1363SOL    HW3 5498   2.745   2.552   2.348  0.6052 -0.5494  0.4468
 1363SOL    MW4 5499   2.754   2.637   2.361 -0.0238 -0.4578  0.2885
 1364SOL     OW 5500   2.967   2.764   2.286  0.6860  0.0220 -0.0145
 1364SOL    HW2 5501   2.945   2.856   2.298  0.6265 -0.0141  0.1516
 1364SOL    HW3 5502   2.984   2.756   2.192  3.4679  0.8013  0.4037
 1364SOL    MW4 5503   2.966   2.775   2.275  1.0452  0.1199  0.0627
 1365SOL     OW 5504   2.951   3.027   2.334  0.1794  0.5420  0.0773
 1365SOL    HW2 5505   3.029   3.082   2.331  1.4431 -1.1094  1.7536
 1365SOL    HW3 5506   2.879   3.086   2.312  1.5304  2.8028  1.5700
 1365SOL    MW4 5507   2.952   3.042   2.331  0.5243  0.6223  0.4954
 1366SOL     OW 5508   2.724   3.188   2.260 -0.1837  0.1870  0.1647
 1366SOL    HW2 5509   2.718   3.275   2.298  0.9116  0.2292  0.2657
 1366SOL    HW3 5510   2.698   3.200   2.168  3.2202  1.3076 -0.7480
 1366SOL    MW4 5511   2.720   3.201   2.253  0.4098  0.3402  0.0577
 1367SOL     OW 5512   2.714   3.444   2.387  0.1500  0.1506 -0.0248
 1367SOL    HW2 5513   2.791   3.491   2.355  0.6278 -0.5709  0.0366
 1367SOL    HW3 5514   2.639   3.493   2.353  0.6412 -0.0006 -1.3576
 1367SOL    MW4 5515   2.714   3.457   2.378  0.2778  0.0355 -0.1926
 1368SOL     OW 5516   2.925   3.580   2.263 -0.4186  0.2906 -0.1873
 1368SOL    HW2 5517   2.995   3.525   2.299 -0.0067  0.4962 -0.6710
 1368SOL    HW3 5518   2.947   3.668   2.292 -0.1403  0.4436 -0.8426
 1368SOL    MW4 5519   2.937   3.584   2.272 -0.3276  0.3378 -0.3374
 1369SOL     OW 5520   2.942   3.848   2.362 -0.0112 -0.2820  0.1936
 1369SOL    HW2 5521   2.932   3.853   2.457 -1.6257 -1.7626  0.1338
 1369SOL    HW3 5522   2.862   3.887   2.327 -0.1454 -1.1743 -0.5238
 1369SOL    MW4 5523   2.930   3.854   2.370 -0.2418 -0.5951  0.0911
 1370SOL     OW 5524   2.701   3.962   2.283 -0.2237 -0.7567  0.2339
 1370SOL    HW2 5525   2.624   3.922   2.324  0.3215 -2.0238  0.0585
 1370SOL    HW3 5526   2.680   3.966   2.190 -1.5985  2.4319  0.6252
 1370SOL    MW4 5527   2.688   3.957   2.276 -0.3331 -0.5031  0.2627
 1371SOL     OW 5528   2.700   4.247   2.376 -0.1840 -0.1835 -0.1672
 1371SOL    HW2 5529   2.683   4.252   2.470 -0.1752 -1.0893 -0.1099
 1371SOL    HW3 5530   2.709   4.153   2.359 -0.5262 -0.0419 -1.1355
 1371SOL    MW4 5531   2.699   4.235   2.386 -0.2282 -0.2837 -0.2875
 1372SOL     OW 5532   2.938   4.379   2.307  0.1146  0.3980 -0.6584
 1372SOL    HW2 5533   2.996   4.320   2.355  1.6895  3.0280  0.8550
 1372SOL    HW3 5534   2.850   4.354   2.335  0.6171 -2.2970 -1.3728
 1372SOL    MW4 5535   2.934   4.368   2.317  0.3886  0.3891 -0.5529
 1373SOL     OW 5536   3.365   0.008   2.380 -0.0127  0.0764  0.2242
 1373SOL    HW2 5537   3.379   0.011   2.475  0.4527 -0.3506  0.1725
 1373SOL    HW3 5538   3.428   0.071   2.345  0.6784 -0.6747  0.1089
 1373SOL    MW4 5539   3.375   0.017   2.388  0.1397 -0.0791  0.2022
 1374SOL     OW 5540   3.122   0.145   2.313  0.1800 -0.0617 -0.1974
 1374SOL    HW2 5541   3.145   0.226   2.358  0.5561 -0.5406  0.4890
 1374SOL    HW3 5542   3.198   0.088   2.327 -0.9257 -1.2490  1.0792
 1374SOL    MW4 5543   3.135   0.148   2.321  0.0839 -0.2815  0.0618
 1375SOL     OW 5544   3.178   0.410   2.401  0.0845 -0.3284 -0.3003
 1375SOL    HW2 5545   3.257   0.444   2.359  0.8440 -2.3591 -0.5619
 1375SOL    HW3 5546   3.106   0.450   2.353  0.9510  1.0400 -0.4791
 1375SOL    MW4 5547   3.179   0.420   2.389  0.2987 -0.4158 -0.3583
 1376SOL     OW 5548   3.402   0.551   2.289 -0.1944  0.4133 -0.4890
 1376SOL    HW2 5549   3.471   0.485   2.301 -2.0858 -1.3232  1.0479
 1376SOL    HW3 5550   3.382   0.547   2.195  0.8920  0.0357 -0.7168
 1376SOL    MW4 5551   3.409   0.542   2.278 -0.3004  0.1344 -0.3164
 1377SOL     OW 5552   3.382   0.781   2.407 -0.0593 -0.5825  0.2470
 1377SOL    HW2 5553   3.473   0.810   2.400 -0.2234 -0.4610 -1.8037
 1377SOL    HW3 5554   3.384   0.689   2.380 -0.4298 -0.8038  0.9588
 1377SOL    MW4 5555   3.394   0.773   2.402 -0.1299 -0.5957  0.0703
 1378SOL     OW 5556   3.174   0.918   2.269  0.6685  0.1919  0.2313
 1378SOL    HW2 5557   3.249   0.883   2.318 -0.1456 -1.1063  0.5640
 1378SOL    HW3 5558   3.099   0.869   2.303 -0.3605  1.6104  0.0268
 1378SOL    MW4 5559   3.174   0.907   2.280  0.4253  0.2077  0.2482
 1379SOL     OW 5560   3.140   1.175   2.381  0.2613  0.4465  0.2490
 1379SOL    HW2 5561   3.194   1.237   2.331 -0.0514  1.0050  0.5917
 1379SOL    HW3 5562   3.137   1.096   2.327 -1.5783  1.6550 -1.5093
 1379SOL    MW4 5563   3.146   1.173   2.367 -0.0226  0.6796  0.0622
 1380SOL     OW 5564   3.357   1.322   2.270  0.6352 -0.2007 -0.2197
 1380SOL    HW2 5565   3.431   1.275   2.308 -0.5556 -1.1481  0.9441
 1380SOL    HW3 5566   3.366   1.411   2.301  1.6518 -0.1572 -0.6193
 1380SOL    MW4 5567   3.368   1.327   2.279  0.6125 -0.3200 -0.1190
 1381SOL     OW 5568   3.354   1.586   2.347  0.3033  0.1053 -0.5690
 1381SOL    HW2 5569   3.333   1.564   2.438  1.9698 -0.2343 -0.2456
 1381SOL    HW3 5570   3.274   1.625   2.313  0.1101  1.6191  1.4960
 1381SOL    MW4 5571   3.341   1.589   2.355  0.4976  0.2602 -0.2539
 1382SOL     OW 5572   3.123   1.689   2.264 -0.0244 -0.4807  0.1353
 1382SOL    HW2 5573   3.126   1.783   2.285 -0.9371 -0.0008 -1.7792
 1382SOL    HW3 5574   3.043   1.658   2.306 -0.1366 -0.2314  0.1102
 1382SOL    MW4 5575   3.113   1.698   2.273 -0.1595 -0.3846 -0.1204
 1383SOL     OW 5576   3.147   1.941   2.333 -0.4672  0.1178  0.4528
 1383SOL    HW2 5577   3.153   1.935   2.429 -1.4298 -0.7855  0.4595
 1383SOL    HW3 5578   3.228   1.987   2.307  0.0255 -0.0540  1.6532
 1383SOL    MW4 5579   3.159   1.947   2.342 -0.5291 -0.0240  0.6123
 1384SOL     OW 5580   3.370   2.067   2.256  0.1499 -0.4489  0.1253
 1384SOL    HW2 5581   3.443   2.024   2.299 -0.3715 -0.9176  0.5478
 1384SOL    HW3 5582   3.385   2.052   2.162  0.8446 -0.1289  0.1829
 1384SOL    MW4 5583   3.381   2.060   2.249  0.1729 -0.4685  0.1888
 1385SOL     OW 5584   3.349   2.330   2.360  0.0715  0.4325  0.5206
 1385SOL    HW2 5585   3.272   2.371   2.319  0.8098 -0.4521 -1.8447
 1385SOL    HW3 5586   3.364   2.251   2.308  2.6759  0.6745  0.8412
 1385SOL    MW4 5587   3.340   2.325   2.348  0.5124  0.3481  0.2508
 1386SOL     OW 5588   3.133   2.472   2.252 -0.1880 -0.1123  0.1351
 1386SOL    HW2 5589   3.161   2.555   2.290 -2.1216  1.3427 -1.4667
 1386SOL    HW3 5590   3.057   2.446   2.304  0.0198 -0.5433  0.2251
 1386SOL    MW4 5591   3.126   2.479   2.264 -0.4156  0.0229 -0.0641
 1387SOL     OW 5592   3.215   2.709   2.364  0.2889  0.1090  0.0975
 1387SOL    HW2 5593   3.129   2.745   2.345  0.6516  1.7875  1.5240
 1387SOL    HW3 5594   3.216   2.698   2.459  1.0357 -1.5277 -0.0725
 1387SOL    MW4 5595   3.204   2.712   2.374  0.4349  0.1144  0.2635
 1388SOL     OW 5596   3.418   2.835   2.254  1.1189 -0.3565  0.7516
 1388SOL    HW2 5597   3.411   2.922   2.292  2.5579 -0.3065  0.9407
 1388SOL    HW3 5598   3.343   2.787   2.289 -0.2864  1.1056 -0.1885
 1388SOL    MW4 5599   3.407   2.840   2.263  1.1234 -0.1571  0.6526
 1389SOL     OW 5600   3.420   3.077   2.390 -0.3003 -0.3132  0.1229
 1389SOL    HW2 5601   3.487   3.133   2.349 -0.1923 -0.1509  0.5215
 1389SOL    HW3 5602   3.337   3.119   2.368 -0.2467 -0.2844 -0.0211
 1389SOL    MW4 5603   3.418   3.090   2.382 -0.2787 -0.2880  0.1566
 1390SOL     OW 5604   3.171   3.194   2.330 -0.0772 -0.2833 -0.3625
 1390SOL    HW2 5605   3.161   3.286   2.355 -1.3143 -0.3215 -0.7057
 1390SOL    HW3 5606   3.200   3.197   2.239 -1.3727 -0.2525 -0.7783
 1390SOL    MW4 5607   3.174   3.207   2.321 -0.4113 -0.2844 -0.4628
 1391SOL     OW 5608   3.146   3.455   2.415 -0.1816  0.2568  0.3712
 1391SOL    HW2 5609   3.149   3.475   2.509  0.6053 -2.4084  0.9534
 1391SOL    HW3 5610   3.215   3.508   2.377 -0.5567  1.4135  1.2799
 1391SOL    MW4 5611   3.155   3.464   2.423 -0.1273  0.0579  0.5679
 1392SOL     OW 5612   3.366   3.580   2.296  0.4271  0.1091 -0.0243
 1392SOL    HW2 5613   3.448   3.548   2.332 -0.3003 -2.0705 -0.2601
 1392SOL    HW3 5614   3.382   3.589   2.202  1.2304  2.4071  0.2920
 1392SOL    MW4 5615   3.379   3.577   2.288  0.4370  0.1247 -0.0136
 1393SOL     OW 5616   3.370   3.834   2.387 -0.6019  0.6315  0.6669
 1393SOL    HW2 5617   3.439   3.874   2.333 -1.1269  0.1799 -0.3396
 1393SOL    HW3 5618   3.367   3.743   2.359 -2.2779  0.8796  0.0272
 1393SOL    MW4 5619   3.379   3.827   2.376 -0.8924  0.6044  0.4497
 1394SOL     OW 5620   3.168   3.978   2.264 -0.2928  0.3521 -0.6115
 1394SOL    HW2 5621   3.239   3.924   2.300 -0.1265 -0.2489 -1.8022
 1394SOL    HW3 5622   3.088   3.942   2.302 -0.2215 -1.0492 -1.7531
 1394SOL    MW4 5623   3.167   3.966   2.274 -0.2613  0.0877 -0.9191
 1395SOL     OW 5624   3.148   4.232   2.375 -0.2157 -0.3110  0.2376
 1395SOL    HW2 5625   3.223   4.284   2.348  0.3114  0.0771  2.3427
 1395SOL    HW3 5626   3.160   4.147   2.332  0.7450  0.1817 -0.4701
 1395SOL    MW4 5627   3.159   4.227   2.366 -0.0196 -0.1950  0.4218
 1396SOL     OW 5628   3.356   4.388   2.310  0.2608 -0.1682 -0.1622
 1396SOL    HW2 5629   3.371   4.475   2.347 -1.2978  0.0080  0.1098
 1396SOL    HW3 5630   3.330   4.405   2.219  0.0855 -0.3492 -0.1465
 1396SOL    MW4 5631   3.354   4.402   2.303  0.0322 -0.1693 -0.1242
 1397SOL     OW 5632   3.820   0.005   2.368  0.0394  0.3660 -0.2204
 1397SOL    HW2 5633   3.821  -0.003   2.464 -1.1918 -1.2008 -0.3084
 1397SOL    HW3 5634   3.912   0.011   2.344  0.3721  0.6677  1.0507
 1397SOL    MW4 5635   3.832   0.005   2.378 -0.0792  0.1991 -0.0644
 1398SOL     OW 5636   3.589   0.132   2.263 -0.1631  0.0128 -0.1031
 1398SOL    HW2 5637   3.590   0.225   2.284 -0.8759  0.2919 -1.2330
 1398SOL    HW3 5638   3.664   0.096   2.309  0.6176  1.3127 -0.3297
 1398SOL    MW4 5639   3.599   0.140   2.272 -0.1540  0.2211 -0.2823
 1399SOL     OW 5640   3.586   0.385   2.370 -0.0497  0.2015 -0.2828
 1399SOL    HW2 5641   3.586   0.385   2.466  0.1395 -1.1440 -0.2792
 1399SOL    HW3 5642   3.674   0.416   2.346  0.4633 -1.0401 -0.0146
 1399SOL    MW4 5643   3.598   0.389   2.379  0.0432 -0.1399 -0.2470
 1400SOL     OW 5644   3.834   0.441   2.260 -0.3100  0.4044 -0.1650
 1400SOL    HW2 5645   3.837   0.535   2.278  0.1428  0.6891 -1.6590
 1400SOL    HW3 5646   3.825   0.435   2.165 -0.0856 -1.0699 -0.1058
 1400SOL    MW4 5647   3.833   0.453   2.250 -0.2205  0.2474 -0.3543
 1401SOL     OW 5648   3.826   0.706   2.360  0.4285  0.0411  0.2786
 1401SOL    HW2 5649   3.833   0.712   2.456  0.8710 -0.9011  0.3143
 1401SOL    HW3 5650   3.889   0.771   2.328  0.5119  0.1385  0.6349
 1401SOL    MW4 5651   3.835   0.715   2.369  0.4976 -0.0704  0.3304
 1402SOL     OW 5652   3.608   0.921   2.329  0.1405  0.8716  0.0857
 1402SOL    HW2 5653   3.677   0.864   2.363  0.4504  1.5110  0.5525
 1402SOL    HW3 5654   3.597   0.896   2.238  0.7146  0.4983  0.1236
 1402SOL    MW4 5655   3.615   0.910   2.321  0.2573  0.9068  0.1523
 1403SOL     OW 5656   3.582   1.176   2.377  0.0584  0.1188 -0.2854
 1403SOL    HW2 5657   3.594   1.169   2.472 -0.4716 -0.2941 -0.2466
 1403SOL    HW3 5658   3.564   1.087   2.349  1.1179  0.0973 -0.9040
 1403SOL    MW4 5659   3.581   1.164   2.386  0.1283  0.0614 -0.3622
 1404SOL     OW 5660   3.829   1.271   2.273 -0.1142  0.2130  0.0730
 1404SOL    HW2 5661   3.827   1.364   2.296 -0.1116  0.3156 -0.3469
 1404SOL    HW3 5662   3.746   1.237   2.307  0.2582  0.1856  0.9796
 1404SOL    MW4 5663   3.817   1.278   2.280 -0.0646  0.2228  0.1371
 1405SOL     OW 5664   3.806   1.540   2.363  0.0707  0.0333 -0.3996
 1405SOL    HW2 5665   3.814   1.531   2.458 -1.3981 -0.0680 -0.2743
 1405SOL    HW3 5666   3.730   1.596   2.350 -1.4334 -2.1863 -1.5618
 1405SOL    MW4 5667   3.797   1.546   2.374 -0.3214 -0.2729 -0.5367
 1406SOL     OW 5668   3.577   1.710   2.256  0.2349 -0.7828 -0.0084
 1406SOL    HW2 5669   3.497   1.678   2.298  0.3300 -0.0011  0.7776
 1406SOL    HW3 5670   3.568   1.684   2.164 -0.4418 -1.6093  0.2835
 1406SOL    MW4 5671   3.566   1.702   2.250  0.1583 -0.7887  0.1340
 1407SOL     OW 5672   3.588   1.956   2.378  0.3629  0.3566 -0.2959
 1407SOL    HW2 5673   3.670   1.996   2.351  0.2153  0.7488 -0.1645
 1407SOL    HW3 5674   3.589   1.869   2.337  0.2314  0.8660 -1.4020
 1407SOL    MW4 5675   3.599   1.950   2.369  0.3264  0.4755 -0.4244
 1408SOL     OW 5676   3.810   2.085   2.284  0.0851 -0.1438  0.3533
 1408SOL    HW2 5677   3.884   2.032   2.313  0.0295  0.2831  1.2781
 1408SOL    HW3 5678   3.820   2.090   2.189 -0.7109 -2.9795  0.1006
 1408SOL    MW4 5679   3.821   2.079   2.275 -0.0272 -0.4618  0.4423
 1409SOL     OW 5680   3.816   2.332   2.406  0.6467  0.3149  0.2724
 1409SOL    HW2 5681   3.732   2.376   2.397  0.3841  0.1704  1.9575
 1409SOL    HW3 5682   3.804   2.247   2.364  0.3222  0.7587 -0.5368
 1409SOL    MW4 5683   3.804   2.327   2.399  0.5691  0.3545  0.3881
 1410SOL     OW 5684   3.581   2.470   2.336  0.0242  0.1812  0.1006
 1410SOL    HW2 5685   3.498   2.424   2.345  0.4133 -0.6046 -0.2540
 1410SOL    HW3 5686   3.599   2.470   2.242 -0.0352  1.1690  0.0887
 1410SOL    MW4 5687   3.573   2.464   2.325  0.0675  0.2079  0.0520
 1411SOL     OW 5688   3.627   2.765   2.417  0.8162 -0.4176  0.4822
 1411SOL    HW2 5689   3.624   2.670   2.403  0.7978 -0.1750 -1.2559
 1411SOL    HW3 5690   3.552   2.798   2.367  0.1128  0.4167  2.0411
 1411SOL    MW4 5691   3.617   2.756   2.408  0.7210 -0.2754  0.4585
 1412SOL     OW 5692   3.838   2.850   2.266 -0.0581  0.5278 -0.2796
 1412SOL    HW2 5693   3.834   2.940   2.296  0.0211  0.1730  0.8024
 1412SOL    HW3 5694   3.766   2.806   2.312 -1.0556  0.3708 -1.9431
 1412SOL    MW4 5695   3.828   2.856   2.276 -0.1793  0.4601 -0.3564
 1413SOL     OW 5696   3.829   3.111   2.385 -0.0372 -0.0821 -0.0258
 1413SOL    HW2 5697   3.815   3.113   2.480 -1.4257  2.7428 -0.2117
 1413SOL    HW3 5698   3.915   3.151   2.372  0.1012 -0.3599  0.0440
 1413SOL    MW4 5699   3.838   3.117   2.396 -0.2024  0.2539 -0.0412
 1414SOL     OW 5700   3.617   3.226   2.246  0.1906 -0.6045  0.1238
 1414SOL    HW2 5701   3.610   3.317   2.274 -1.5716 -0.8301  0.4800
 1414SOL    HW3 5702   3.703   3.197   2.278  0.8420  0.9788 -0.1679
 1414SOL    MW4 5703   3.627   3.234   2.254  0.0441 -0.4256  0.1323
 1415SOL     OW 5704   3.577   3.452   2.407 -0.2161  0.4651  0.4214
 1415SOL    HW2 5705   3.581   3.442   2.502 -0.1985 -0.6995  0.3062
 1415SOL    HW3 5706   3.654   3.504   2.384 -0.4363  1.0838  1.0812
 1415SOL    MW4 5707   3.587   3.458   2.416 -0.2429  0.3932  0.4933
 1416SOL     OW 5708   3.799   3.588   2.305 -0.4700  0.0043  0.0942
 1416SOL    HW2 5709   3.801   3.679   2.332 -0.2985 -0.0042  0.1116
 1416SOL    HW3 5710   3.810   3.590   2.210 -0.3166 -0.0058  0.1114
 1416SOL    MW4 5711   3.801   3.600   2.296 -0.4270  0.0017  0.0989
 1417SOL     OW 5712   3.789   3.851   2.362  0.1661 -0.2171 -0.1861
 1417SOL    HW2 5713   3.782   3.862   2.456  0.6849  0.2709 -0.2009
 1417SOL    HW3 5714   3.860   3.910   2.336  0.6237 -1.0054 -0.7600
 1417SOL    MW4 5715   3.798   3.860   2.371  0.2949 -0.2565 -0.2637
 1418SOL     OW 5716   3.563   3.986   2.283  0.2427 -0.1849 -0.7392
 1418SOL    HW2 5717   3.574   4.074   2.319 -0.5918 -0.2731 -0.2706
 1418SOL    HW3 5718   3.641   3.938   2.312 -0.5050 -0.3155  1.1085
 1418SOL    MW4 5719   3.575   3.991   2.291  0.0341 -0.2141 -0.4339
 1419SOL     OW 5720   3.595   4.264   2.350 -0.2731 -0.4124 -0.1924
 1419SOL    HW2 5721   3.667   4.319   2.320 -1.1358  0.8467  0.0225
 1419SOL    HW3 5722   3.517   4.315   2.334 -1.0277 -1.2261  0.7970
 1419SOL    MW4 5723   3.595   4.278   2.344 -0.4861 -0.3538 -0.0334
 1420SOL     OW 5724   3.813   4.407   2.265  0.3439 -0.6629 -0.0669
 1420SOL    HW2 5725   3.890   4.373   2.312  1.9588  0.2823 -1.9477
 1420SOL    HW3 5726   3.809   4.500   2.291 -0.1315 -0.7023 -0.0083
 1420SOL    MW4 5727   3.823   4.415   2.275  0.4945 -0.5436 -0.3073
 1421SOL     OW 5728   4.304   4.623   2.384 -0.6146  0.3485 -0.2892
 1421SOL    HW2 5729   4.288   4.640   2.477 -1.2683  2.1401 -0.7031
 1421SOL    HW3 5730   4.368   4.690   2.359 -0.0203 -0.4798 -1.0093
 1421SOL    MW4 5731   4.310   4.634   2.393 -0.6223  0.4754 -0.4387
 1422SOL     OW 5732   4.084   0.057   2.271 -0.0810  0.3961  0.7414
 1422SOL    HW2 5733   4.088   0.148   2.299  0.3943  0.5794  0.0767
 1422SOL    HW3 5734   4.167   0.019   2.300 -0.0011  0.3432  0.4492
 1422SOL    MW4 5735   4.095   0.064   2.278 -0.0076  0.4133  0.6151
 1423SOL     OW 5736   4.074   0.322   2.384  0.0579 -0.0784 -0.1976
 1423SOL    HW2 5737   4.136   0.393   2.367  1.4668 -1.0385  0.8379
 1423SOL    HW3 5738   3.999   0.343   2.329  0.7920  1.7681 -0.5425
 1423SOL    MW4 5739   4.073   0.334   2.374  0.3409  0.0385 -0.1063
 1424SOL     OW 5740   4.258   0.503   2.289 -0.4359 -0.0297  0.0230
 1424SOL    HW2 5741   4.259   0.593   2.323  0.5033 -0.3735  0.9268
 1424SOL    HW3 5742   4.337   0.463   2.325 -0.4380 -0.9911 -1.0210
 1424SOL    MW4 5743   4.268   0.510   2.298 -0.3119 -0.2019  0.0045
 1425SOL     OW 5744   4.259   0.749   2.405  0.2899 -0.2125 -0.2057
 1425SOL    HW2 5745   4.185   0.799   2.369  0.9117  0.8608 -0.0104
 1425SOL    HW3 5746   4.336   0.801   2.384  0.9929 -1.3098 -0.3584
 1425SOL    MW4 5747   4.259   0.763   2.398  0.4644 -0.2156 -0.2000
 1426SOL     OW 5748   4.039   0.873   2.279  0.2956 -0.0525 -0.3933
 1426SOL    HW2 5749   4.034   0.963   2.310  0.0429  0.1226 -0.9551
 1426SOL    HW3 5750   4.034   0.879   2.184  0.7733 -0.6236 -0.4565
 1426SOL    MW4 5751   4.038   0.886   2.271  0.3252 -0.1048 -0.4759
 1427SOL     OW 5752   4.040   1.137   2.389  0.0465  0.6129  0.2399
 1427SOL    HW2 5753   4.049   1.136   2.484 -0.0351 -0.1623  0.2459
 1427SOL    HW3 5754   3.954   1.177   2.373 -0.0716  0.4640  0.5042
 1427SOL    MW4 5755   4.030   1.142   2.399  0.0200  0.4909  0.2754
 1428SOL     OW 5756   4.215   1.298   2.268  0.5484  0.0061  0.4831
 1428SOL    HW2 5757   4.146   1.240   2.300 -0.4397  0.0180 -1.5441
 1428SOL    HW3 5758   4.296   1.261   2.303 -0.3217 -0.9832  1.4889
 1428SOL    MW4 5759   4.217   1.286   2.277  0.3028 -0.1228  0.3483
 1429SOL     OW 5760   4.230   1.549   2.410  0.0836 -0.4026 -0.4236
 1429SOL    HW2 5761   4.223   1.457   2.384 -0.5966 -0.4178 -0.1925
 1429SOL    HW3 5762   4.315   1.577   2.377  0.4331 -1.2075 -0.2022
 1429SOL    MW4 5763   4.240   1.541   2.402  0.0401 -0.5109 -0.3638
 1430SOL     OW 5764   4.026   1.688   2.297  0.2786  0.6025  0.1064
 1430SOL    HW2 5765   4.093   1.644   2.349  0.3562 -0.1528 -0.6292
 1430SOL    HW3 5766   3.949   1.632   2.305  0.7473 -0.3778 -1.8792
 1430SOL    MW4 5767   4.025   1.675   2.305  0.3505  0.3736 -0.2525
 1431SOL     OW 5768   4.049   1.957   2.382 -0.1358  0.2646 -0.0430
 1431SOL    HW2 5769   4.040   1.952   2.477  1.3545 -1.0872  0.0479
 1431SOL    HW3 5770   4.043   1.866   2.353 -0.5340  0.6644 -1.2420
 1431SOL    MW4 5771   4.047   1.944   2.391  0.0086  0.1390 -0.1893
 1432SOL     OW 5772   4.278   2.072   2.272 -0.0237 -0.6622 -0.1224
 1432SOL    HW2 5773   4.277   2.147   2.332  0.6513 -1.2417  0.6091
 1432SOL    HW3 5774   4.193   2.030   2.285 -0.3063 -0.1692 -0.3572
 1432SOL    MW4 5775   4.267   2.077   2.282  0.0281 -0.6738 -0.0567
 1433SOL     OW 5776   4.295   2.307   2.411  0.0707  0.1719  0.6757
 1433SOL    HW2 5777   4.211   2.337   2.376  0.0301  1.8292  2.1198
 1433SOL    HW3 5778   4.360   2.359   2.363  0.2404 -0.6692 -0.0075
 1433SOL    MW4 5779   4.292   2.318   2.400  0.0877  0.2797  0.7763
 1434SOL     OW 5780   4.061   2.420   2.318 -0.0039  0.0753 -0.2119
 1434SOL    HW2 5781   4.072   2.513   2.337 -0.0851  0.5099 -2.2200
 1434SOL    HW3 5782   3.977   2.398   2.357  0.6611  0.4877  1.5089
 1434SOL    MW4 5783   4.051   2.429   2.326  0.0730  0.1872 -0.2499
 1435SOL     OW 5784   4.079   2.718   2.369  0.0024 -0.0403  0.6619
 1435SOL    HW2 5785   4.072   2.720   2.464  0.6628 -0.7541  0.7284
 1435SOL    HW3 5786   4.001   2.764   2.338 -1.1531 -1.3665  1.5181
 1435SOL    MW4 5787   4.068   2.724   2.377 -0.0629 -0.3095  0.7839
 1436SOL     OW 5788   4.275   2.855   2.247  0.2172 -0.4104  0.1833
 1436SOL    HW2 5789   4.207   2.831   2.310  0.5115  2.2006  1.5354
 1436SOL    HW3 5790   4.355   2.815   2.281  0.7647  2.5842  2.5804
 1436SOL    MW4 5791   4.277   2.846   2.260  0.3281  0.3290  0.6783
 1437SOL     OW 5792   4.296   3.070   2.430 -0.2328  0.3650 -0.2634
 1437SOL    HW2 5793   4.286   2.989   2.380  0.5101  0.0911  0.0244
 1437SOL    HW3 5794   4.363   3.119   2.383  0.1130  0.3216  0.1749
 1437SOL    MW4 5795   4.304   3.065   2.418 -0.0887  0.3231 -0.1674
 1438SOL     OW 5796   4.079   3.186   2.293 -0.2607 -0.1650 -0.2095
 1438SOL    HW2 5797   4.064   3.275   2.326  1.5305  0.2448 -0.4728
 1438SOL    HW3 5798   4.161   3.158   2.335 -0.4431 -1.4370 -0.6701
 1438SOL    MW4 5799   4.088   3.194   2.303 -0.0482 -0.2785 -0.3052
 1439SOL     OW 5800   4.050   3.455   2.377  0.2049  0.5182 -0.2384
 1439SOL    HW2 5801   4.113   3.512   2.333 -1.0439  1.2828 -1.0714
 1439SOL    HW3 5802   3.966   3.502   2.370 -0.0975  0.5025  2.6672
 1439SOL    MW4 5803   4.047   3.469   2.370  0.0005  0.6170  0.0348
 1440SOL     OW 5804   4.255   3.583   2.258 -0.4569 -0.4801 -0.1573
 1440SOL    HW2 5805   4.253   3.675   2.285  0.1736 -0.4840 -0.1044
 1440SOL    HW3 5806   4.295   3.584   2.171 -2.1035 -0.5138 -0.9390
 1440SOL    MW4 5807   4.260   3.595   2.250 -0.5908 -0.4849 -0.2532
 1441SOL     OW 5808   4.263   3.835   2.370 -0.2572  0.2380 -0.0247
 1441SOL    HW2 5809   4.267   3.850   2.465  0.1426  0.2827 -0.0495
 1441SOL    HW3 5810   4.333   3.889   2.334 -0.6413  0.4932 -0.3832
 1441SOL    MW4 5811   4.273   3.844   2.378 -0.2546  0.2775 -0.0753
 1442SOL     OW 5812   4.025   4.014   2.329 -0.4057  0.2050 -0.0520
 1442SOL    HW2 5813   4.089   3.945   2.348 -1.4714 -0.8760 -0.2959
 1442SOL    HW3 5814   4.039   4.035   2.237 -0.4334 -0.0669 -0.1191
 1442SOL    MW4 5815   4.035   4.008   2.319 -0.5498  0.0272 -0.0930
 1443SOL     OW 5816   4.055   4.285   2.409  0.3245  0.0097  0.5257
 1443SOL    HW2 5817   4.131   4.318   2.361  0.1838  0.3945  0.5661
 1443SOL    HW3 5818   4.044   4.195   2.378  1.1364 -0.2319  0.9283
 1443SOL    MW4 5819   4.064   4.277   2.399  0.4129  0.0281  0.5841
 1444SOL     OW 5820   4.267   4.371   2.262  0.1871  0.2032  0.3462
 1444SOL    HW2 5821   4.272   4.457   2.304  0.8264 -0.0295  0.7507
 1444SOL    HW3 5822   4.341   4.322   2.297 -0.3119 -0.6039  0.3063
 1444SOL    MW4 5823   4.277   4.376   2.272  0.2060  0.0658  0.3943
 1445SOL     OW 5824   0.222   0.033   2.657 -0.5748 -0.0099 -0.1847
 1445SOL    HW2 5825   0.210  -0.058   2.686 -0.2870  0.5240  1.6882
 1445SOL    HW3 5826   0.148   0.080   2.694  0.4605  0.9301  0.7218
 1445SOL    MW4 5827   0.211   0.027   2.666 -0.4002  0.1845  0.1822
 1446SOL     OW 5828   4.482   0.134   2.741 -0.3626 -0.8580 -0.2029
 1446SOL    HW2 5829   4.485   0.129   2.836 -1.4240 -1.2749 -0.1902
 1446SOL    HW3 5830   4.469   0.227   2.723  3.2950 -0.2366 -0.0516
 1446SOL    MW4 5831   4.481   0.146   2.751 -0.0201 -0.8310 -0.1817
 1447SOL     OW 5832   4.456   0.418   2.645  0.5410  0.1128  0.5063
 1447SOL    HW2 5833   4.538   0.453   2.679 -0.5422  2.4294  0.8432
 1447SOL    HW3 5834   4.474   0.400   2.553  2.4270 -2.7726  1.3757
 1447SOL    MW4 5835   4.469   0.420   2.637  0.6466  0.0377  0.6657
 1448SOL     OW 5836   0.210   0.499   2.742  0.5394 -0.5181 -0.0605
 1448SOL    HW2 5837   0.222   0.503   2.837  0.4186  1.0099 -0.0950
 1448SOL    HW3 5838   0.293   0.464   2.709  0.6093 -0.9782  0.6000
 1448SOL    MW4 5839   0.223   0.495   2.750  0.5327 -0.3772  0.0219
 1449SOL     OW 5840   0.215   0.763   2.676 -0.0553 -0.1555 -0.1888
 1449SOL    HW2 5841   0.295   0.789   2.721  0.2769 -0.9096 -0.3495
 1449SOL    HW3 5842   0.202   0.672   2.700 -1.9861  0.5197  1.4805
 1449SOL    MW4 5843   0.224   0.755   2.685 -0.2662 -0.1659  0.0103
 1450SOL     OW 5844   0.005   0.907   2.781 -0.3680  0.6340 -0.7012
 1450SOL    HW2 5845  -0.070   0.858   2.747 -0.4861 -0.8275  1.5668
 1450SOL    HW3 5846   0.081   0.865   2.740 -0.6582  0.9481 -1.5866
 1450SOL    MW4 5847   0.005   0.895   2.771 -0.4219  0.4827 -0.5188
 1451SOL     OW 5848   0.018   1.141   2.643 -0.1058  0.5331  0.4953
 1451SOL    HW2 5849   0.095   1.190   2.670  0.2107  0.0034  0.5594
 1451SOL    HW3 5850   0.014   1.067   2.703 -0.1133  0.0388 -0.1112
 1451SOL    MW4 5851   0.028   1.138   2.654 -0.0651  0.3982  0.4239
 1452SOL     OW 5852   0.250   1.267   2.769 -0.3234 -0.3097 -0.3786
 1452SOL    HW2 5853   0.329   1.218   2.748  1.1760  1.7093  0.3483
 1452SOL    HW3 5854   0.262   1.352   2.728 -2.1063  0.0641 -0.1974
 1452SOL    MW4 5855   0.262   1.272   2.761 -0.3608  0.0060 -0.2587
 1453SOL     OW 5856   0.240   1.546   2.653 -0.2484  0.7862  0.6495
 1453SOL    HW2 5857   0.323   1.585   2.682 -0.4147  1.0870  0.7286
 1453SOL    HW3 5858   0.175   1.584   2.712 -0.5125  0.9506  0.2548
 1453SOL    MW4 5859   0.243   1.556   2.665 -0.3052  0.8476  0.6080
 1454SOL     OW 5860   0.044   1.658   2.789 -0.0038  0.0009 -0.1470
 1454SOL    HW2 5861   0.023   1.662   2.882 -1.2877  0.4640 -0.4535
 1454SOL    HW3 5862   0.024   1.745   2.756 -1.6218 -0.7849 -1.2845
 1454SOL    MW4 5863   0.039   1.670   2.797 -0.3867 -0.0416 -0.3374
 1455SOL     OW 5864   4.464   1.912   2.704  0.1233 -0.1739 -0.2181
 1455SOL    HW2 5865   4.536   1.972   2.724 -2.5820  2.8476  0.9791
 1455SOL    HW3 5866   4.456   1.917   2.608  0.4540  0.7583 -0.2116
 1455SOL    MW4 5867   4.473   1.921   2.694 -0.1903  0.3479 -0.0591
 1456SOL     OW 5868   0.188   2.064   2.747 -0.4595  0.3605 -0.0677
 1456SOL    HW2 5869   0.274   2.034   2.718  0.7571  1.2012  2.5269
 1456SOL    HW3 5870   0.176   2.148   2.702 -0.3867 -0.2104 -1.1883
 1456SOL    MW4 5871   0.198   2.071   2.737 -0.2894  0.3960  0.1268
 1457SOL     OW 5872   0.185   2.333   2.666  0.2618  0.4461 -0.0740
 1457SOL    HW2 5873   0.269   2.370   2.693  0.4585  0.2484 -0.4247
 1457SOL    HW3 5874   0.120   2.391   2.706  0.5582  0.3834  0.5069
 1457SOL    MW4 5875   0.187   2.346   2.675  0.3268  0.4115 -0.0436
 1458SOL     OW 5876   4.450   2.484   2.748 -0.1632 -0.2371 -0.1890
 1458SOL    HW2 5877   4.466   2.481   2.843 -1.2861  1.3364  0.0658
 1458SOL    HW3 5878   4.378   2.422   2.734  0.0558 -0.5306 -0.0327
 1458SOL    MW4 5879   4.443   2.475   2.759 -0.2818 -0.0682 -0.1345
 1459SOL     OW 5880   4.470   2.728   2.644  0.0270 -0.1005 -0.5474
 1459SOL    HW2 5881   4.401   2.785   2.678  0.2002  0.1816 -0.6655
 1459SOL    HW3 5882   4.451   2.642   2.682 -1.6821 -0.5483 -2.3219
 1459SOL    MW4 5883   4.459   2.724   2.653 -0.1755 -0.1223 -0.7970
 1460SOL     OW 5884   0.236   2.826   2.756  0.2215 -0.2328 -0.0118
 1460SOL    HW2 5885   0.228   2.916   2.722  2.2413  0.3443  0.9556
 1460SOL    HW3 5886   0.154   2.784   2.731 -1.3478  2.2752  0.6570
 1460SOL    MW4 5887   0.224   2.833   2.748  0.2810  0.1740  0.2041
 1461SOL     OW 5888   0.250   3.096   2.671  0.2569 -0.3583  0.3442
 1461SOL    HW2 5889   0.343   3.117   2.674  0.6413 -2.0368  0.6314
 1461SOL    HW3 5890   0.227   3.102   2.578  0.6945 -0.1346  0.2521
 1461SOL    MW4 5891   0.259   3.099   2.659  0.3654 -0.5503  0.3700
 1462SOL     OW 5892   0.028   3.225   2.801  0.1100 -0.2304  0.0644
 1462SOL    HW2 5893  -0.055   3.192   2.769  0.4482  0.1149 -1.1912
 1462SOL    HW3 5894   0.094   3.171   2.759  0.5086 -1.3060  1.9944
 1462SOL    MW4 5895   0.026   3.214   2.792  0.2073 -0.3269  0.1535
 1463SOL     OW 5896   0.003   3.462   2.652  0.0591  0.3672 -0.1205
 1463SOL    HW2 5897   0.076   3.513   2.688 -0.7348  1.0434  0.5442
 1463SOL    HW3 5898   0.013   3.375   2.691 -0.2501  0.8328  1.0110
 1463SOL    MW4 5899   0.014   3.457   2.662 -0.0865  0.5178  0.1163
 1464SOL     OW 5900   0.206   3.605   2.744 -0.6838  0.0156 -0.2740
 1464SOL    HW2 5901   0.223   3.612   2.838 -2.0099  0.4412 -0.0598
 1464SOL    HW3 5902   0.266   3.535   2.714 -1.4592 -1.3096  1.1996
 1464SOL    MW4 5903   0.216   3.597   2.752 -0.9611 -0.1032 -0.0513
 1465SOL     OW 5904   0.249   3.852   2.637  0.1296 -0.1412  0.4674
 1465SOL    HW2 5905   0.234   3.767   2.677  1.9915 -0.8029 -0.2015
 1465SOL    HW3 5906   0.249   3.834   2.543  0.9309  0.5207  0.3378
 1465SOL    MW4 5907   0.247   3.838   2.630  0.4809 -0.1411  0.3619
 1466SOL     OW 5908   0.012   3.978   2.735 -0.2826 -0.0393 -0.1065
 1466SOL    HW2 5909   0.005   4.066   2.699 -1.3842 -0.4834 -0.9936
 1466SOL    HW3 5910   0.097   3.947   2.705  0.6217  1.1339  1.1642
 1466SOL    MW4 5911   0.023   3.986   2.726 -0.3086  0.0570 -0.0558
 1467SOL     OW 5912   0.007   4.238   2.626  0.1682 -0.1397  0.8160
 1467SOL    HW2 5913  -0.071   4.279   2.664 -0.1192 -0.8153  0.9600
 1467SOL    HW3 5914   0.076   4.303   2.639 -0.6220  0.9489 -0.3943
 1467SOL    MW4 5915   0.006   4.252   2.633  0.0260 -0.0854  0.6752
 1468SOL     OW 5916   0.214   4.409   2.704 -0.1327  0.2438  0.3328
 1468SOL    HW2 5917   0.210   4.397   2.799  0.7122  1.6654  0.5692
 1468SOL    HW3 5918   0.298   4.369   2.679 -0.5494 -0.5101  0.1060
 1468SOL    MW4 5919   0.225   4.402   2.713 -0.0762  0.3319  0.3343
 1469SOL     OW 5920   0.683   4.664   2.631  0.2362 -0.8516  0.1066
 1469SOL    HW2 5921   0.756   4.720   2.658  0.1472 -0.1868 -1.0017
 1469SOL    HW3 5922   0.609   4.694   2.683  0.1942  0.0728 -0.4604
 1469SOL    MW4 5923   0.683   4.675   2.641  0.2189 -0.6419 -0.1144
 1470SOL     OW 5924   0.472   0.103   2.744 -0.2673 -0.4032  0.4776
 1470SOL    HW2 5925   0.455   0.107   2.838 -1.4132 -1.1821  0.3057
 1470SOL    HW3 5926   0.390   0.074   2.705  0.0719  0.3313 -0.8143
 1470SOL    MW4 5927   0.459   0.099   2.751 -0.3738 -0.4091  0.2844
 1471SOL     OW 5928   0.451   0.369   2.639 -0.2000 -0.0194  0.4236
 1471SOL    HW2 5929   0.536   0.402   2.670 -1.2618  1.1886  2.1043
 1471SOL    HW3 5930   0.454   0.275   2.658  0.8205 -0.0155  0.3217
 1471SOL    MW4 5931   0.463   0.361   2.645 -0.2055  0.1405  0.6320
 1472SOL     OW 5932   0.673   0.500   2.728 -0.1530 -0.1033  0.3273
 1472SOL    HW2 5933   0.657   0.493   2.822 -0.8627  0.6470  0.2648
 1472SOL    HW3 5934   0.767   0.486   2.718  0.0293  0.4953  1.2229
 1472SOL    MW4 5935   0.683   0.497   2.739 -0.2225  0.0747  0.4375
 1473SOL     OW 5936   0.648   0.759   2.637  0.1125  0.2235 -0.1050
 1473SOL    HW2 5937   0.730   0.794   2.673  0.9828 -0.0002 -1.8214
 1473SOL    HW3 5938   0.647   0.667   2.664 -0.9978  0.9143  2.3550
 1473SOL    MW4 5939   0.659   0.752   2.645  0.0808  0.2851 -0.0069
 1474SOL     OW 5940   0.458   0.885   2.794  0.2550 -1.0625 -0.2550
 1474SOL    HW2 5941   0.445   0.970   2.752  0.9499 -0.9337 -0.2219
 1474SOL    HW3 5942   0.512   0.836   2.732 -1.1065 -1.8908 -0.7863
 1474SOL    MW4 5943   0.463   0.890   2.781  0.1670 -1.1548 -0.3209
 1475SOL     OW 5944   0.455   1.117   2.677 -0.2151 -0.0925 -0.3005
 1475SOL    HW2 5945   0.544   1.145   2.698 -0.1685 -0.1658 -0.3984
 1475SOL    HW3 5946   0.447   1.132   2.583 -0.7578  1.1536 -0.0606
 1475SOL    MW4 5947   0.466   1.123   2.668 -0.2806  0.0622 -0.2816
 1476SOL     OW 5948   0.666   1.267   2.777  0.9026  0.3352  0.0136
 1476SOL    HW2 5949   0.667   1.287   2.871 -0.8172 -0.8205  0.3082
 1476SOL    HW3 5950   0.753   1.232   2.759  1.5309  1.3617  0.9951
 1476SOL    MW4 5951   0.677   1.265   2.787  0.7586  0.3182  0.1819
 1477SOL     OW 5952   0.700   1.522   2.660  0.6837  0.2210  0.6928
 1477SOL    HW2 5953   0.618   1.566   2.680  0.4061  0.7096 -1.3669
 1477SOL    HW3 5954   0.689   1.433   2.695 -0.9503  0.1083 -0.0723
 1477SOL    MW4 5955   0.687   1.516   2.667  0.4315  0.2704  0.3202
 1478SOL     OW 5956   0.472   1.664   2.755 -0.1750  0.0969 -0.1522
 1478SOL    HW2 5957   0.476   1.681   2.849  2.4097 -0.6050 -0.0844
 1478SOL    HW3 5958   0.454   1.749   2.715 -0.8885  0.4699  0.9564
 1478SOL    MW4 5959   0.470   1.677   2.762  0.0719  0.0535  0.0033
 1479SOL     OW 5960   0.426   1.940   2.670  0.0750 -0.1701  0.2301
 1479SOL    HW2 5961   0.511   1.974   2.698 -0.5855  2.3319 -0.6338
 1479SOL    HW3 5962   0.436   1.925   2.576 -0.3924  0.0015  0.1505
 1479SOL    MW4 5963   0.438   1.943   2.661 -0.0739  0.1826  0.1056
 1480SOL     OW 5964   0.671   2.059   2.749 -0.1139  0.1614 -0.3139
 1480SOL    HW2 5965   0.691   2.077   2.841 -1.1012 -0.8976  0.1193
 1480SOL    HW3 5966   0.753   2.024   2.713 -0.6401 -2.6141  1.0328
 1480SOL    MW4 5967   0.685   2.057   2.756 -0.3136 -0.3445 -0.0792
 1481SOL     OW 5968   0.661   2.314   2.638 -0.6275  0.2607  0.1486
 1481SOL    HW2 5969   0.737   2.362   2.670  0.0129  0.5672 -1.8028
 1481SOL    HW3 5970   0.678   2.223   2.662  0.6773  0.2310 -0.8961
 1481SOL    MW4 5971   0.673   2.308   2.645 -0.3709  0.2971 -0.2468
 1482SOL     OW 5972   0.433   2.433   2.752  0.1757  0.5564 -0.1736
 1482SOL    HW2 5973   0.434   2.515   2.703  1.2036  0.4263 -0.3913
 1482SOL    HW3 5974   0.501   2.380   2.711  1.9091  0.8825  2.1018
 1482SOL    MW4 5975   0.442   2.437   2.740  0.5400  0.5825  0.0980
 1483SOL     OW 5976   0.440   2.688   2.628 -0.4844 -0.4743  0.1339
 1483SOL    HW2 5977   0.517   2.720   2.674 -1.5891  0.9434  1.0398
 1483SOL    HW3 5978   0.368   2.742   2.661 -2.1232 -2.7890  0.4745
 1483SOL    MW4 5979   0.441   2.699   2.639 -0.8464 -0.5925  0.2985
 1484SOL     OW 5980   0.669   2.809   2.745 -0.0067  0.4604  0.6250
 1484SOL    HW2 5981   0.679   2.828   2.838  2.0798  2.6304 -0.0125
 1484SOL    HW3 5982   0.655   2.894   2.704  1.4998 -0.2075 -1.3419
 1484SOL    MW4 5983   0.668   2.822   2.752  0.4674  0.6583  0.2816
 1485SOL     OW 5984   0.729   3.048   2.622 -0.2306  0.0446 -0.1566
 1485SOL    HW2 5985   0.801   3.108   2.644  1.8714 -2.0238 -1.2373
 1485SOL    HW3 5986   0.719   3.057   2.527  0.3629 -1.5777 -0.3828
 1485SOL    MW4 5987   0.737   3.057   2.612  0.1250 -0.4423 -0.3293
 1486SOL     OW 5988   0.494   3.189   2.717 -0.6479  0.5101 -0.1427
 1486SOL    HW2 5989   0.498   3.216   2.808 -1.3600 -0.7872  0.2978
 1486SOL    HW3 5990   0.580   3.152   2.698 -0.4286  0.9843 -0.0610
 1486SOL    MW4 5991   0.506   3.188   2.726 -0.7129  0.4017 -0.0737
 1487SOL     OW 5992   0.410   3.444   2.651  0.2171 -0.2359  0.1403
 1487SOL    HW2 5993   0.419   3.350   2.668  0.3165 -0.3040 -0.2792
 1487SOL    HW3 5994   0.443   3.455   2.562  2.0395  0.5225  0.8964
 1487SOL    MW4 5995   0.415   3.433   2.641  0.4707 -0.1450  0.1848
 1488SOL     OW 5996   0.683   3.614   2.732 -0.3475  0.4582 -0.0457
 1488SOL    HW2 5997   0.688   3.636   2.825  0.2175  1.0725 -0.2234
 1488SOL    HW3 5998   0.611   3.551   2.727  0.0629 -0.0952  0.9009
 1488SOL    MW4 5999   0.674   3.609   2.744 -0.2188  0.4661  0.0558
 1489SOL     OW 6000   0.662   3.866   2.607 -0.1512  0.5980 -0.4244
 1489SOL    HW2 6001   0.591   3.902   2.660 -0.2056 -0.8997  0.5683
 1489SOL    HW3 6002   0.671   3.776   2.639  2.7195  1.0035  0.0107
 1489SOL    MW4 6003   0.654   3.859   2.618  0.2204  0.4539 -0.2358
 1490SOL     OW 6004   0.453   4.026   2.740 -0.0993  0.8312 -0.0148
 1490SOL    HW2 6005   0.443   4.115   2.707 -1.2802  1.3234  1.6174
 1490SOL    HW3 6006   0.392   3.974   2.688  0.3378  1.0203 -0.7282
 1490SOL    MW4 6007   0.444   4.031   2.728 -0.1975  0.9217  0.1066
 1491SOL     OW 6008   0.442   4.275   2.619  0.3114 -0.4339 -0.0010
 1491SOL    HW2 6009   0.525   4.323   2.618  0.4653 -0.7248 -1.2903
 1491SOL    HW3 6010   0.422   4.258   2.527 -1.1044 -0.5048  0.3013
 1491SOL    MW4 6011   0.450   4.280   2.607  0.1449 -0.4821 -0.1314
 1492SOL     OW 6012   0.680   4.409   2.715  0.6080 -0.1925 -0.0687
 1492SOL    HW2 6013   0.755   4.368   2.672  0.0159 -0.1819 -1.1322
 1492SOL    HW3 6014   0.684   4.500   2.688  0.6673 -0.0115  0.5334
 1492SOL    MW4 6015   0.690   4.415   2.706  0.5378 -0.1674 -0.1295
 1493SOL     OW 6016   1.149   4.613   2.653  0.0737 -0.0269 -0.2481
 1493SOL    HW2 6017   1.215   4.662   2.702 -0.7291  0.1902  0.6283
 1493SOL    HW3 6018   1.161   4.522   2.682  0.1113 -0.0182 -0.2361
 1493SOL    MW4 6019   1.159   4.607   2.663 -0.0273  0.0029 -0.1309
 1494SOL     OW 6020   0.926   0.109   2.719 -0.3297 -0.1264  0.3001
 1494SOL    HW2 6021   0.920   0.111   2.815 -2.1172  0.7645  0.1870
 1494SOL    HW3 6022   1.006   0.059   2.702 -0.0558 -0.4262  2.2505
 1494SOL    MW4 6023   0.936   0.103   2.730 -0.5294 -0.0484  0.5424
 1495SOL     OW 6024   0.915   0.389   2.639 -0.3735  0.3384 -0.4755
 1495SOL    HW2 6025   0.917   0.298   2.669  1.6722  0.6698  0.4619
 1495SOL    HW3 6026   0.894   0.383   2.546  2.3207 -1.2934 -1.0481
 1495SOL    MW4 6027   0.913   0.376   2.631  0.2518  0.1668 -0.4272
 1496SOL     OW 6028   1.141   0.501   2.759 -0.1300  0.1630  0.1336
 1496SOL    HW2 6029   1.143   0.594   2.736  0.5329  0.1465  0.1108
 1496SOL    HW3 6030   1.058   0.469   2.724  0.4098  0.3672 -1.3832
 1496SOL    MW4 6031   1.131   0.509   2.751  0.0286  0.1878 -0.0691
 1497SOL     OW 6032   1.155   0.759   2.677  0.2482  0.0152  0.0116
 1497SOL    HW2 6033   1.236   0.805   2.699  0.6967 -0.2969 -0.9618
 1497SOL    HW3 6034   1.148   0.766   2.582 -0.2089 -1.0493 -0.0411
 1497SOL    MW4 6035   1.165   0.766   2.668  0.2471 -0.1665 -0.1235
 1498SOL     OW 6036   0.903   0.832   2.730 -0.7370 -0.5156 -0.7200
 1498SOL    HW2 6037   0.898   0.867   2.819 -1.1392 -2.7154  0.1512
 1498SOL    HW3 6038   0.996   0.812   2.719 -0.5123  0.7152 -1.2061
 1498SOL    MW4 6039   0.915   0.834   2.741 -0.7604 -0.6434 -0.6690
 1499SOL     OW 6040   0.905   1.145   2.659  0.3388  0.0761 -0.0593
 1499SOL    HW2 6041   0.884   1.052   2.671  0.1717 -0.1066 -1.6978
 1499SOL    HW3 6042   0.900   1.159   2.565  0.5352  1.7218  0.1615
 1499SOL    MW4 6043   0.902   1.134   2.648  0.3426  0.2691 -0.2463
 1500SOL     OW 6044   1.141   1.267   2.733 -0.7467 -0.1759 -0.1803
 1500SOL    HW2 6045   1.132   1.353   2.692 -2.1496 -0.1390  0.1855
 1500SOL    HW3 6046   1.059   1.222   2.713 -0.1787 -1.2811 -0.0303
 1500SOL    MW4 6047   1.129   1.272   2.725 -0.8568 -0.3169 -0.1121
 1501SOL     OW 6048   1.102   1.537   2.645  0.2947 -0.1124  0.2188
 1501SOL    HW2 6049   1.042   1.602   2.682 -0.4608 -1.3525  1.1869
 1501SOL    HW3 6050   1.092   1.547   2.550  0.9469  1.8778  0.3382
 1501SOL    MW4 6051   1.093   1.547   2.637  0.2810 -0.0135  0.3624
 1502SOL     OW 6052   0.915   1.711   2.773 -0.2211  0.4483 -0.0407
 1502SOL    HW2 6053   0.937   1.701   2.866  1.2424 -0.7799 -0.5117
 1502SOL    HW3 6054   0.833   1.662   2.764 -0.0124 -0.0064  0.4624
 1502SOL    MW4 6055   0.907   1.703   2.784 -0.0004  0.2261 -0.0365
 1503SOL     OW 6056   0.904   1.950   2.644  0.4699 -0.6237 -0.2312
 1503SOL    HW2 6057   0.972   2.000   2.689  0.0251 -0.5300  0.3464
 1503SOL    HW3 6058   0.902   1.866   2.689  0.4354 -0.7481 -0.4641
 1503SOL    MW4 6059   0.913   1.945   2.656  0.4066 -0.6276 -0.1857
 1504SOL     OW 6060   1.129   2.077   2.743 -0.1384  0.0051  0.2054
 1504SOL    HW2 6061   1.202   2.017   2.727 -0.4759 -0.0657 -1.1641
 1504SOL    HW3 6062   1.121   2.081   2.838 -0.1640 -2.1612  0.3119
 1504SOL    MW4 6063   1.138   2.070   2.753 -0.1862 -0.2897  0.0389
 1505SOL     OW 6064   1.093   2.329   2.632 -0.3844  0.7178  0.4523
 1505SOL    HW2 6065   1.163   2.390   2.657 -0.0166  0.1475  0.8361
 1505SOL    HW3 6066   1.117   2.247   2.675 -0.2049 -0.0603 -1.0993
 1505SOL    MW4 6067   1.105   2.326   2.641 -0.3123  0.5400  0.2983
 1506SOL     OW 6068   0.880   2.452   2.743  0.0438  0.5664  0.3607
 1506SOL    HW2 6069   0.888   2.532   2.692  1.0664  0.9889  1.1654
 1506SOL    HW3 6070   0.953   2.398   2.713 -0.6377 -0.0617 -0.1760
 1506SOL    MW4 6071   0.891   2.455   2.732  0.0889  0.5393  0.3960
 1507SOL     OW 6072   0.901   2.698   2.610 -0.2363  0.5251 -0.0741
 1507SOL    HW2 6073   0.975   2.756   2.629  0.7851 -0.6424 -0.4314
 1507SOL    HW3 6074   0.825   2.746   2.642  0.7195  1.5498  0.7237
 1507SOL    MW4 6075   0.901   2.712   2.617  0.0246  0.5064 -0.0160
 1508SOL     OW 6076   1.132   2.835   2.701 -0.0405  0.5182 -0.1705
 1508SOL    HW2 6077   1.150   2.840   2.795 -1.5805 -0.9572  0.2268
 1508SOL    HW3 6078   1.208   2.789   2.665 -0.4792 -0.9459  0.7128
 1508SOL    MW4 6079   1.144   2.829   2.709 -0.3016  0.1304 -0.0014
 1509SOL     OW 6080   1.148   3.096   2.597  0.0000  0.0000  0.1675
 1509SOL    HW2 6081   1.122   3.007   2.620  0.0000  0.0000  0.1752
 1509SOL    HW3 6082   1.136   3.101   2.502  0.0000  0.0000  0.1680
 1509SOL    MW4 6083   1.143   3.085   2.587  0.0000  0.0000  0.1688
 1510SOL     OW 6084   0.919   3.208   2.730  0.0000  0.0000  0.3475
 1510SOL    HW2 6085   0.903   3.287   2.678  0.0000  0.0000  0.3482
 1510SOL    HW3 6086   1.006   3.179   2.702  0.0000  0.0000  0.3574
 1510SOL    MW4 6087   0.928   3.215   2.719  0.0000  0.0000  0.3490
 1511SOL     OW 6088   0.887   3.462   2.624  0.0000  0.0000  0.0751
 1511SOL    HW2 6089   0.961   3.509   2.665  0.0000  0.0000  0.1130
 1511SOL    HW3 6090   0.810   3.512   2.653  0.0000  0.0000  0.0275
 1511SOL    MW4 6091   0.887   3.475   2.633  0.0000  0.0000  0.0737
 1512SOL     OW 6092   1.102   3.599   2.722  0.0000  0.0000 -0.1550
 1512SOL    HW2 6093   1.101   3.626   2.813  0.0000  0.0000 -0.1555
 1512SOL    HW3 6094   1.100   3.681   2.672  0.0000  0.0000 -0.1572
 1512SOL    MW4 6095   1.102   3.613   2.727  0.0000  0.0000 -0.1552
 1513SOL     OW 6096   1.098   3.851   2.576  0.0000  0.0000 -0.0833
 1513SOL    HW2 6097   1.178   3.889   2.614  0.0000  0.0000 -0.0898
 1513SOL    HW3 6098   1.110   3.859   2.481  0.0000  0.0000 -0.0846
 1513SOL    MW4 6099   1.110   3.857   2.568  0.0000  0.0000 -0.0846
 1514SOL     OW 6100   0.893   4.008   2.718  0.0000  0.0000 -0.1138
 1514SOL    HW2 6101   0.957   3.963   2.663  0.0000  0.0000 -0.1116
 1514SOL    HW3 6102   0.809   3.969   2.692  0.0000  0.0000 -0.1318
 1514SOL    MW4 6103   0.890   3.997   2.707  0.0000  0.0000 -0.1159
 1515SOL     OW 6104   0.888   4.266   2.640  0.0000  0.0000  0.8881
 1515SOL    HW2 6105   0.892   4.174   2.665  0.0000  0.0000  0.8877
 1515SOL    HW3 6106   0.884   4.265   2.545  0.0000  0.0000  0.8881
 1515SOL    MW4 6107   0.888   4.254   2.631  0.0000  0.0000  0.8879
 1516SOL     OW 6108   1.144   4.351   2.744  0.0000  0.0000 -0.1149
 1516SOL    HW2 6109   1.137   4.378   2.836  0.0000  0.0000 -0.1147
 1516SOL    HW3 6110   1.055   4.327   2.719  0.0000  0.0000 -0.1129
 1516SOL    MW4 6111   1.131   4.351   2.753  0.0000  0.0000 -0.1147
 1517SOL     OW 6112   1.593   4.643   2.658  0.0000  0.0000  0.0928
 1517SOL    HW2 6113   1.588   4.549   2.675  0.0000  0.0000  0.0971
 1517SOL    HW3 6114   1.581   4.652   2.564  0.0000  0.0000  0.0924
 1517SOL    MW4 6115   1.591   4.632   2.648  0.0000  0.0000  0.0935
 1518SOL     OW 6116   1.345   0.105   2.756 -0.6170 -0.1590  0.7327
 1518SOL    HW2 6117   1.332   0.189   2.712  1.5147 -0.1189  0.1358
 1518SOL    HW3 6118   1.431   0.075   2.727 -0.7430 -1.8975  2.0287
 1518SOL    MW4 6119   1.355   0.112   2.746 -0.3524 -0.3831  0.8247
 1519SOL     OW 6120   1.332   0.354   2.630 -0.0530  0.3998  0.1654
 1519SOL    HW2 6121   1.411   0.392   2.669 -0.3764  0.6933  0.5320
 1519SOL    HW3 6122   1.259   0.401   2.671 -0.4702 -0.8662  0.8902
 1519SOL    MW4 6123   1.333   0.365   2.640 -0.1507  0.2715  0.3090
 1520SOL     OW 6124   1.574   0.437   2.733  0.2214 -0.2490  0.3332
 1520SOL    HW2 6125   1.663   0.421   2.703  0.6694  0.3803  1.3407
 1520SOL    HW3 6126   1.581   0.447   2.828 -0.6417  1.6176  0.2299
 1520SOL    MW4 6127   1.586   0.436   2.741  0.1667  0.0803  0.4525
 1521SOL     OW 6128   1.573   0.732   2.623  0.0424  0.4150  0.3007
 1521SOL    HW2 6129   1.563   0.642   2.654 -1.1058  0.9318  1.4516
 1521SOL    HW3 6130   1.502   0.781   2.665 -0.5807  1.4602 -1.8900
 1521SOL    MW4 6131   1.562   0.727   2.633 -0.1913  0.6211  0.1636
 1522SOL     OW 6132   1.394   0.881   2.752 -0.1023 -0.3474  0.1645
 1522SOL    HW2 6133   1.405   0.890   2.847  2.1592  0.0550 -0.1040
 1522SOL    HW3 6134   1.388   0.971   2.720  1.9995 -0.3483 -0.3389
 1522SOL    MW4 6135   1.395   0.894   2.760  0.4734 -0.2944  0.0627
 1523SOL     OW 6136   1.352   1.132   2.642  0.0721 -0.2760 -0.0704
 1523SOL    HW2 6137   1.422   1.183   2.685 -0.3893 -1.5144  2.2245
 1523SOL    HW3 6138   1.271   1.168   2.679 -0.3675 -0.9716 -0.3628
 1523SOL    MW4 6139   1.351   1.144   2.653 -0.0467 -0.5312  0.1938
 1524SOL     OW 6140   1.579   1.269   2.738 -0.6158 -0.0896 -0.0710
 1524SOL    HW2 6141   1.656   1.213   2.728 -0.5208  0.2018 -1.1662
 1524SOL    HW3 6142   1.572   1.285   2.832 -0.3771 -1.5467  0.2060
 1524SOL    MW4 6143   1.589   1.264   2.749 -0.5717 -0.2434 -0.1791
 1525SOL     OW 6144   1.571   1.531   2.637 -0.9587 -0.0301  0.1770
 1525SOL    HW2 6145   1.575   1.538   2.542  2.1910  0.7027  0.3084
 1525SOL    HW3 6146   1.557   1.437   2.654 -1.6628 -0.1381 -0.9893
 1525SOL    MW4 6147   1.570   1.519   2.627 -0.6360  0.0523  0.0405
 1526SOL     OW 6148   1.337   1.630   2.773  0.1833  0.0270  0.4011
 1526SOL    HW2 6149   1.417   1.604   2.728  0.0898  0.2232  0.1249
 1526SOL    HW3 6150   1.266   1.594   2.719  0.0384  1.1832 -0.1875
 1526SOL    MW4 6151   1.338   1.621   2.760  0.1519  0.2055  0.2868
 1527SOL     OW 6152   1.363   1.919   2.701 -0.4227 -0.3865  0.0507
 1527SOL    HW2 6153   1.346   1.829   2.726 -1.1198 -0.5982 -1.1120
 1527SOL    HW3 6154   1.362   1.918   2.605  0.0703  0.7552  0.0208
 1527SOL    MW4 6155   1.360   1.907   2.692 -0.4495 -0.2637 -0.1066
 1528SOL     OW 6156   1.574   2.082   2.754  0.3181  0.0956 -0.1690
 1528SOL    HW2 6157   1.630   2.035   2.692  0.0918 -0.2696 -0.1015
 1528SOL    HW3 6158   1.490   2.035   2.750  0.7558 -0.8944  1.5397
 1528SOL    MW4 6159   1.570   2.069   2.745  0.3459 -0.0832  0.0656
 1529SOL     OW 6160   1.580   2.322   2.625 -0.2757  0.2062 -0.3242
 1529SOL    HW2 6161   1.638   2.379   2.674 -1.2057  1.7308 -0.9400
 1529SOL    HW3 6162   1.570   2.244   2.680  0.1274  1.1133  1.0588
 1529SOL    MW4 6163   1.586   2.319   2.639 -0.3451  0.5269 -0.2229
 1530SOL     OW 6164   1.342   2.441   2.710  0.1089  0.2919  0.4237
 1530SOL    HW2 6165   1.351   2.535   2.698  1.3073 -0.0160 -1.1767
 1530SOL    HW3 6166   1.428   2.406   2.692 -0.2902 -1.1207  1.1692
 1530SOL    MW4 6167   1.354   2.449   2.706  0.2142  0.0648  0.3109
 1531SOL     OW 6168   1.357   2.696   2.621 -0.0180  0.2930  0.1732
 1531SOL    HW2 6169   1.430   2.748   2.654 -0.9963  1.8784 -0.1397
 1531SOL    HW3 6170   1.350   2.720   2.529 -0.2735 -0.6436 -0.0619
 1531SOL    MW4 6171   1.366   2.706   2.613 -0.1807  0.3786  0.1009
 1532SOL     OW 6172   1.559   2.823   2.730  0.0600 -0.0686 -0.1385
 1532SOL    HW2 6173   1.571   2.816   2.825 -1.3521  1.9179  0.2138
 1532SOL    HW3 6174   1.639   2.786   2.693  1.1301  0.1836  1.8551
 1532SOL    MW4 6175   1.571   2.818   2.738  0.0148  0.2265  0.1709
 1533SOL     OW 6176   1.601   3.091   2.604 -0.2189  0.9103 -0.2462
 1533SOL    HW2 6177   1.679   3.133   2.640 -0.8418  1.8536  0.0042
 1533SOL    HW3 6178   1.588   3.013   2.659  1.9722 -0.6418 -1.8157
 1533SOL    MW4 6179   1.610   3.086   2.616 -0.0122  0.8302 -0.4201
 1534SOL     OW 6180   1.376   3.249   2.664 -0.1984  0.3467  0.4465
 1534SOL    HW2 6181   1.449   3.195   2.633  0.8833  1.1118  1.6218
 1534SOL    HW3 6182   1.298   3.198   2.643  0.7766 -1.3602  0.9397
 1534SOL    MW4 6183   1.376   3.235   2.657  0.0730  0.2224  0.6664
 1535SOL     OW 6184   1.359   3.525   2.675 -0.1262  0.2856  0.3601
 1535SOL    HW2 6185   1.361   3.429   2.677 -0.8908  0.2676  0.2515
 1535SOL    HW3 6186   1.270   3.548   2.700 -0.0768  0.9582 -0.0718
 1535SOL    MW4 6187   1.347   3.515   2.679 -0.2204  0.3719  0.2887
 1536SOL     OW 6188   1.590   3.639   2.768 -0.1180  0.6097 -0.5427
 1536SOL    HW2 6189   1.661   3.580   2.740  0.1796  0.1114  1.2366
 1536SOL    HW3 6190   1.511   3.597   2.733  0.2111 -0.2136 -0.3315
 1536SOL    MW4 6191   1.589   3.625   2.759 -0.0354  0.4356 -0.2799
 1537SOL     OW 6192   1.544   3.868   2.636  0.1033 -0.3642 -0.5283
 1537SOL    HW2 6193   1.460   3.893   2.675  0.3109  0.6717 -0.7285
 1537SOL    HW3 6194   1.570   3.790   2.684  0.3179  0.8276  1.3541
 1537SOL    MW4 6195   1.536   3.861   2.647  0.1590 -0.0701 -0.3064
 1538SOL     OW 6196   1.301   3.952   2.745  0.0479  0.2221  0.3015
 1538SOL    HW2 6197   1.299   3.947   2.840 -1.4067 -0.7787  0.2247
 1538SOL    HW3 6198   1.326   4.043   2.726 -0.0842  0.5396  1.6183
 1538SOL    MW4 6199   1.304   3.963   2.755 -0.1614  0.1321  0.4649
 1539SOL     OW 6200   1.353   4.223   2.631  0.2091 -0.2045 -0.1599
 1539SOL    HW2 6201   1.266   4.262   2.639  0.4767  0.4837 -0.5436
 1539SOL    HW3 6202   1.367   4.214   2.536  0.8381  0.3452 -0.1229
 1539SOL    MW4 6203   1.343   4.227   2.619  0.3273 -0.0415 -0.2055
 1540SOL     OW 6204   1.591   4.371   2.734  0.0025  0.0512  0.1418
 1540SOL    HW2 6205   1.588   4.375   2.830  0.0855 -1.1055  0.1985
 1540SOL    HW3 6206   1.507   4.331   2.710 -0.3260  1.0042 -0.3118
 1540SOL    MW4 6207   1.579   4.366   2.744 -0.0299  0.0248  0.0892
 1541SOL     OW 6208   2.042   0.007   2.657 -0.1733  0.1294 -0.0666
 1541SOL    HW2 6209   2.132   0.027   2.682 -0.4385 -0.5749  1.5143
 1541SOL    HW3 6210   2.045  -0.002   2.562  1.7404 -1.4147  0.1172
 1541SOL    MW4 6211   2.054   0.009   2.648  0.0441 -0.1669  0.1664
 1542SOL     OW 6212   1.801   0.151   2.736  0.0185 -0.3423 -0.0261
 1542SOL    HW2 6213   1.877   0.096   2.716  0.5129  0.4629 -0.3726
 1542SOL    HW3 6214   1.725   0.094   2.718  0.4919 -0.5022 -1.6605
 1542SOL    MW4 6215   1.801   0.136   2.731  0.1462 -0.2571 -0.2873
 1543SOL     OW 6216   1.830   0.406   2.655 -0.3989 -0.0588  0.3904
 1543SOL    HW2 6217   1.910   0.442   2.693  0.3872 -1.0592 -0.3208
 1543SOL    HW3 6218   1.826   0.316   2.686 -0.4004 -0.5059 -0.9045
 1543SOL    MW4 6219   1.840   0.399   2.664 -0.2953 -0.2497  0.1256
 1544SOL     OW 6220   2.050   0.517   2.770 -0.3079  0.0934  0.2610
 1544SOL    HW2 6221   2.127   0.471   2.737  0.2898  0.8645  0.5746
 1544SOL    HW3 6222   2.064   0.608   2.745 -0.8631  0.3276  0.7992
 1544SOL    MW4 6223   2.062   0.523   2.762 -0.3023  0.2260  0.3734
 1545SOL     OW 6224   2.049   0.780   2.663  0.2432  0.0207  0.0434
 1545SOL    HW2 6225   1.960   0.795   2.696  0.4753 -0.7589  1.0407
 1545SOL    HW3 6226   2.037   0.761   2.570 -0.5005  1.3266 -0.1448
 1545SOL    MW4 6227   2.035   0.780   2.655  0.1757  0.0900  0.1502
 1546SOL     OW 6228   1.793   0.842   2.767 -0.6326  0.0056  0.2642
 1546SOL    HW2 6229   1.799   0.924   2.718 -0.8680 -0.2215 -0.1475
 1546SOL    HW3 6230   1.719   0.796   2.728 -0.8686 -0.1489  0.8823
 1546SOL    MW4 6231   1.784   0.847   2.755 -0.6949 -0.0448  0.2916
 1547SOL     OW 6232   1.799   1.111   2.677  0.0321  0.2386 -0.1797
 1547SOL    HW2 6233   1.875   1.156   2.714 -0.3614  0.1413  0.7464
 1547SOL    HW3 6234   1.799   1.137   2.585  0.7291  0.8706 -0.0084
 1547SOL    MW4 6235   1.809   1.120   2.670  0.0721  0.3090 -0.0350
 1548SOL     OW 6236   2.014   1.268   2.759 -0.2758 -0.0743 -0.0704
 1548SOL    HW2 6237   2.033   1.277   2.852  0.5722  0.2943 -0.2785
 1548SOL    HW3 6238   2.096   1.235   2.720 -0.9446 -1.2504 -0.5230
 1548SOL    MW4 6239   2.027   1.265   2.766 -0.2522 -0.1810 -0.1578
 1549SOL     OW 6240   1.992   1.518   2.620  0.0941  0.3608 -0.4354
 1549SOL    HW2 6241   1.929   1.584   2.647  0.5546  0.2469  0.9187
 1549SOL    HW3 6242   1.969   1.440   2.671 -0.2348 -0.4432 -1.7671
 1549SOL    MW4 6243   1.980   1.516   2.630  0.1115  0.2397 -0.4325
 1550SOL     OW 6244   1.788   1.694   2.735 -0.1700 -0.3061 -0.0544
 1550SOL    HW2 6245   1.796   1.678   2.829  0.1925  0.6000  0.0801
 1550SOL    HW3 6246   1.717   1.638   2.706  0.0884 -1.0039  0.6635
 1550SOL    MW4 6247   1.780   1.685   2.743 -0.0881 -0.2787  0.0582
 1551SOL     OW 6248   1.791   1.940   2.620  0.2480 -0.5713 -0.3197
 1551SOL    HW2 6249   1.851   2.007   2.654 -0.1016 -0.7346  0.6477
 1551SOL    HW3 6250   1.813   1.861   2.670  0.2668 -1.0353 -1.0503
 1551SOL    MW4 6251   1.802   1.938   2.631  0.2044 -0.6541 -0.2882
 1552SOL     OW 6252   1.974   2.121   2.727 -0.3915  0.4691  0.2962
 1552SOL    HW2 6253   1.976   2.117   2.822 -1.6681 -0.3303  0.3116
 1552SOL    HW3 6254   1.983   2.214   2.706 -2.1873  0.8981  1.2959
 1552SOL    MW4 6255   1.975   2.132   2.737 -0.7969  0.4201  0.4301
 1553SOL     OW 6256   2.006   2.384   2.617 -0.2558  0.2245  0.4773
 1553SOL    HW2 6257   2.097   2.414   2.621  0.1710 -1.1019  1.2428
 1553SOL    HW3 6258   1.994   2.357   2.526  0.0864  0.5294  0.3436
 1553SOL    MW4 6259   2.016   2.384   2.605 -0.1545  0.0896  0.5608
 1554SOL     OW 6260   1.775   2.456   2.747  0.4097  0.3954  0.0063
 1554SOL    HW2 6261   1.794   2.449   2.841  0.8716 -0.2332 -0.1313
 1554SOL    HW3 6262   1.857   2.433   2.704 -0.1280 -0.4794 -0.5729
 1554SOL    MW4 6263   1.788   2.452   2.754  0.3996  0.1974 -0.0882
 1555SOL     OW 6264   1.804   2.720   2.642  0.2235 -0.0303  0.0709
 1555SOL    HW2 6265   1.789   2.630   2.671  0.8002  0.1435  0.9003
 1555SOL    HW3 6266   1.781   2.719   2.549  1.3124 -1.2961 -0.1912
 1555SOL    MW4 6267   1.799   2.708   2.633  0.4432 -0.1745  0.1457
 1556SOL     OW 6268   2.024   2.853   2.755 -0.0508  0.4565  0.1717
 1556SOL    HW2 6269   2.097   2.807   2.715  0.5059  0.1184  1.5287
 1556SOL    HW3 6270   1.947   2.802   2.729  0.3564 -0.0915  0.0170
 1556SOL    MW4 6271   2.023   2.840   2.747  0.0765  0.3397  0.3307
 1557SOL     OW 6272   2.040   3.104   2.632 -0.1957 -0.1475  0.2085
 1557SOL    HW2 6273   2.025   3.015   2.663 -0.7264 -0.1897 -0.1561
 1557SOL    HW3 6274   2.052   3.095   2.537  1.3928 -0.0192  0.3811
 1557SOL    MW4 6275   2.039   3.091   2.624 -0.0560 -0.1361  0.1831
 1558SOL     OW 6276   1.814   3.244   2.738 -0.5503  0.1284 -0.0685
 1558SOL    HW2 6277   1.810   3.333   2.703  0.6510  0.7752  1.4145
 1558SOL    HW3 6278   1.886   3.203   2.691 -0.3647  0.2942  0.0729
 1558SOL    MW4 6279   1.823   3.250   2.727 -0.3674  0.2356  0.1459
 1559SOL     OW 6280   1.795   3.504   2.652 -0.1701  0.2797 -0.1832
 1559SOL    HW2 6281   1.876   3.539   2.689  1.0501 -0.6390 -1.9333
 1559SOL    HW3 6282   1.801   3.525   2.559 -1.5657 -0.5182 -0.4569
 1559SOL    MW4 6283   1.807   3.512   2.645 -0.1932  0.0532 -0.4499
 1560SOL     OW 6284   2.037   3.613   2.746  0.1455 -0.1070 -0.7678
 1560SOL    HW2 6285   2.020   3.588   2.837  0.0501  0.3536 -0.6598
 1560SOL    HW3 6286   2.108   3.555   2.718  0.2426 -0.1807 -0.3701
 1560SOL    MW4 6287   2.044   3.602   2.754  0.1459 -0.0560 -0.7010
 1561SOL     OW 6288   1.971   3.867   2.630 -0.1295 -0.3896  0.0720
 1561SOL    HW2 6289   1.903   3.912   2.680  0.0385 -1.0219  0.8779
 1561SOL    HW3 6290   1.992   3.789   2.682 -0.8358 -1.7294 -1.5761
 1561SOL    MW4 6291   1.965   3.862   2.643 -0.2004 -0.6495 -0.0393
 1562SOL     OW 6292   1.768   4.008   2.747  0.3326 -0.0235 -0.3193
 1562SOL    HW2 6293   1.788   4.090   2.702  1.4555 -0.9120 -1.4811
 1562SOL    HW3 6294   1.685   3.979   2.708  0.5327 -0.0271 -0.7496
 1562SOL    MW4 6295   1.760   4.015   2.736  0.5071 -0.1416 -0.5298
 1563SOL     OW 6296   1.813   4.248   2.627  0.2504 -0.6897 -0.0992
 1563SOL    HW2 6297   1.742   4.302   2.662  0.8662  0.0498  0.0375
 1563SOL    HW3 6298   1.794   4.241   2.533  0.7414  0.7199 -0.3318
 1563SOL    MW4 6299   1.801   4.254   2.619  0.3964 -0.4063 -0.1118
 1564SOL     OW 6300   2.045   4.408   2.702 -0.1202  0.3797 -0.3503
 1564SOL    HW2 6301   1.963   4.369   2.673 -1.1192  1.8226  0.4679
 1564SOL    HW3 6302   2.040   4.499   2.673  0.3860  0.9462  1.2772
 1564SOL    MW4 6303   2.034   4.415   2.695 -0.1850  0.6452 -0.0279
 1565SOL     OW 6304   2.517   0.007   2.663  0.0065  0.3374  0.1645
 1565SOL    HW2 6305   2.601   0.043   2.692  0.3285  0.9517 -1.4474
 1565SOL    HW3 6306   2.515   0.025   2.569 -1.8172  0.0851  0.1381
 1565SOL    MW4 6307   2.528   0.014   2.654 -0.1919  0.3851 -0.0515
 1566SOL     OW 6308   2.275   0.113   2.738 -0.1915 -0.4967  0.2231
 1566SOL    HW2 6309   2.269   0.111   2.834  1.0055 -0.0736  0.3187
 1566SOL    HW3 6310   2.361   0.074   2.719 -0.8633 -1.5317 -0.7352
 1566SOL    MW4 6311   2.286   0.108   2.748 -0.1223 -0.5774  0.1092
 1567SOL     OW 6312   2.270   0.382   2.648  0.4760 -0.5612  0.2150
 1567SOL    HW2 6313   2.270   0.291   2.679  0.5396 -0.1151  1.5526
 1567SOL    HW3 6314   2.285   0.375   2.554  0.6459 -1.9319  0.3311
 1567SOL    MW4 6315   2.272   0.369   2.640  0.5066 -0.6832  0.4065
 1568SOL     OW 6316   2.500   0.488   2.771 -0.1755 -0.1538  0.0182
 1568SOL    HW2 6317   2.510   0.581   2.747 -2.0391  0.0060 -0.1668
 1568SOL    HW3 6318   2.419   0.461   2.728  0.5019 -1.9560 -0.1428
 1568SOL    MW4 6319   2.491   0.497   2.762 -0.3321 -0.3705 -0.0277
 1569SOL     OW 6320   2.493   0.726   2.647 -0.5661  0.3730  0.1806
 1569SOL    HW2 6321   2.428   0.794   2.667 -0.1819  1.0510 -0.8379
 1569SOL    HW3 6322   2.478   0.706   2.554  0.2675  0.0841  0.1101
 1569SOL    MW4 6323   2.482   0.732   2.637 -0.4058  0.4243  0.0372
 1570SOL     OW 6324   2.283   0.907   2.736  0.3091 -0.3045 -0.3066
 1570SOL    HW2 6325   2.289   0.904   2.832 -0.9932  0.4207 -0.1987
 1570SOL    HW3 6326   2.197   0.870   2.716  0.9504 -1.2999 -1.2576
 1570SOL    MW4 6327   2.273   0.902   2.746  0.2220 -0.3401 -0.4177
 1571SOL     OW 6328   2.250   1.184   2.639 -0.4922  0.3247 -0.0385
 1571SOL    HW2 6329   2.271   1.096   2.671  0.9555  0.5209 -0.4259
 1571SOL    HW3 6330   2.256   1.177   2.544 -0.0717  0.9223 -0.0569
 1571SOL    MW4 6331   2.253   1.171   2.631 -0.2456  0.4295 -0.0920
 1572SOL     OW 6332   2.455   1.290   2.778  0.2257 -0.3969  0.0812
 1572SOL    HW2 6333   2.536   1.249   2.747  1.0524  0.6343  0.8500
 1572SOL    HW3 6334   2.386   1.251   2.724  1.4003 -0.1393 -1.6255
 1572SOL    MW4 6335   2.457   1.279   2.767  0.4897 -0.2270 -0.0427
 1573SOL     OW 6336   2.469   1.553   2.625 -0.0912 -0.4864 -0.2813
 1573SOL    HW2 6337   2.382   1.587   2.645 -0.2881 -1.1968  0.0901
 1573SOL    HW3 6338   2.466   1.462   2.654  0.0343 -1.1800 -2.4109
 1573SOL    MW4 6339   2.457   1.546   2.632 -0.1006 -0.6716 -0.5133
 1574SOL     OW 6340   2.225   1.652   2.688 -0.2885 -0.6545 -0.0227
 1574SOL    HW2 6341   2.209   1.745   2.673 -0.4809 -0.9011 -1.3890
 1574SOL    HW3 6342   2.149   1.608   2.650  0.7747 -1.4789 -1.2319
 1574SOL    MW4 6343   2.213   1.659   2.681 -0.1733 -0.7958 -0.3626
 1575SOL     OW 6344   2.200   1.936   2.639 -0.1339  0.1433 -0.1130
 1575SOL    HW2 6345   2.133   1.996   2.670  0.5258  0.6929  0.2684
 1575SOL    HW3 6346   2.203   1.949   2.544  0.7711  1.5310  0.0856
 1575SOL    MW4 6347   2.192   1.946   2.631  0.0730  0.3989 -0.0365
 1576SOL     OW 6348   2.435   2.029   2.747 -0.2405 -0.2435  0.1390
 1576SOL    HW2 6349   2.455   2.117   2.713 -0.8524  0.5752  1.8393
 1576SOL    HW3 6350   2.355   2.003   2.701  0.6143 -0.4419 -1.2715
 1576SOL    MW4 6351   2.427   2.037   2.736 -0.2086 -0.1616  0.1771
 1577SOL     OW 6352   2.477   2.297   2.653  0.1492  0.4848 -0.3581
 1577SOL    HW2 6353   2.558   2.341   2.680  0.7457 -0.7562 -0.0977
 1577SOL    HW3 6354   2.474   2.308   2.558  1.1578 -0.3235 -0.5009
 1577SOL    MW4 6355   2.488   2.304   2.644  0.3610  0.2143 -0.3424
 1578SOL     OW 6356   2.258   2.467   2.696 -0.1986  0.1012  0.0527
 1578SOL    HW2 6357   2.255   2.475   2.791 -0.8220 -0.8177  0.1177
 1578SOL    HW3 6358   2.333   2.409   2.679  0.2826  0.7517 -0.0516
 1578SOL    MW4 6359   2.267   2.460   2.706 -0.2174  0.0658  0.0477
 1579SOL     OW 6360   2.265   2.727   2.622 -0.0064  0.1782 -0.0097
 1579SOL    HW2 6361   2.345   2.765   2.658 -0.3467 -0.2921  1.2461
 1579SOL    HW3 6362   2.274   2.633   2.638 -1.0531  0.1846  0.6400
 1579SOL    MW4 6363   2.277   2.719   2.629 -0.1891  0.1173  0.2418
 1580SOL     OW 6364   2.515   2.839   2.769  1.0000  0.1539  0.2154
 1580SOL    HW2 6365   2.581   2.789   2.720  1.4826  0.9001  0.0976
 1580SOL    HW3 6366   2.519   2.927   2.732  0.2604  0.3220  0.5303
 1580SOL    MW4 6367   2.525   2.844   2.758  0.9658  0.2747  0.2413
 1581SOL     OW 6368   2.481   3.112   2.672  0.7729 -0.1475  0.2289
 1581SOL    HW2 6369   2.392   3.144   2.689  0.4358  0.0802 -1.7776
 1581SOL    HW3 6370   2.483   3.098   2.577  2.9646  0.0912  0.2151
 1581SOL    MW4 6371   2.469   3.114   2.662  1.0176 -0.0858 -0.0377
 1582SOL     OW 6372   2.243   3.240   2.787 -0.1161 -0.2771 -0.1679
 1582SOL    HW2 6373   2.266   3.208   2.874 -0.3329 -1.8220 -0.6560
 1582SOL    HW3 6374   2.168   3.186   2.761  1.2614 -1.2996 -2.1631
 1582SOL    MW4 6375   2.236   3.228   2.795  0.0372 -0.6158 -0.4957
 1583SOL     OW 6376   2.233   3.464   2.634 -0.4804  0.0589 -0.7340
 1583SOL    HW2 6377   2.321   3.499   2.647 -0.2239 -0.9143  0.2215
 1583SOL    HW3 6378   2.231   3.385   2.688 -1.8870 -0.0120 -0.8844
 1583SOL    MW4 6379   2.245   3.458   2.643 -0.6323 -0.0787 -0.6278
 1584SOL     OW 6380   2.476   3.563   2.717  0.4462  0.1128 -0.1250
 1584SOL    HW2 6381   2.470   3.565   2.812 -1.5615 -0.2732 -0.2018
 1584SOL    HW3 6382   2.463   3.654   2.690 -1.6280 -0.1552 -0.1111
 1584SOL    MW4 6383   2.473   3.576   2.726 -0.0925  0.0262 -0.1330
 1585SOL     OW 6384   2.456   3.846   2.686  0.0461  0.1217 -0.5275
 1585SOL    HW2 6385   2.524   3.905   2.718 -0.5594  0.3402  0.3752
 1585SOL    HW3 6386   2.374   3.891   2.703 -0.3204  0.0933 -2.1066
 1585SOL    MW4 6387   2.454   3.860   2.693 -0.0823  0.1466 -0.6170
 1586SOL     OW 6388   2.213   4.000   2.716 -0.3743  0.4947 -0.2266
 1586SOL    HW2 6389   2.196   4.012   2.809 -1.5539  1.5613 -0.5765
 1586SOL    HW3 6390   2.133   3.958   2.682  0.6384 -1.3012 -0.4875
 1586SOL    MW4 6391   2.200   3.996   2.723 -0.3963  0.3986 -0.3071
 1587SOL     OW 6392   2.279   4.266   2.609 -0.2595  0.1704 -0.2877
 1587SOL    HW2 6393   2.261   4.176   2.634  0.6523 -0.0944 -0.5638
 1587SOL    HW3 6394   2.197   4.313   2.625 -0.9319 -0.8323 -0.7411
 1587SOL    MW4 6395   2.266   4.260   2.614 -0.2279  0.0033 -0.3841
 1588SOL     OW 6396   2.474   4.415   2.753  0.2841 -0.0985  0.4646
 1588SOL    HW2 6397   2.400   4.368   2.715  0.7023 -0.2222 -0.2014
 1588SOL    HW3 6398   2.468   4.503   2.715 -0.0646  0.1750  1.1375
 1588SOL    MW4 6399   2.463   4.420   2.743  0.2933 -0.0792  0.4652
 1589SOL     OW 6400   2.961   4.638   2.639 -0.0362 -0.2200 -0.4442
 1589SOL    HW2 6401   3.031   4.698   2.661 -1.2957  1.0899  0.0988
 1589SOL    HW3 6402   2.946   4.652   2.545  0.3965 -0.4596 -0.5467
 1589SOL    MW4 6403   2.968   4.648   2.629 -0.1452 -0.0782 -0.3860
 1590SOL     OW 6404   2.742   0.114   2.755 -0.1182 -0.3891 -0.0835
 1590SOL    HW2 6405   2.821   0.066   2.731 -1.5897 -2.5940 -0.7842
 1590SOL    HW3 6406   2.758   0.144   2.845  1.9541  0.2310 -0.6441
 1590SOL    MW4 6407   2.754   0.111   2.764 -0.0389 -0.5982 -0.2499
 1591SOL     OW 6408   2.714   0.372   2.625  0.2503 -0.1859  0.6908
 1591SOL    HW2 6409   2.719   0.280   2.651 -1.3911 -0.4575  0.1422
 1591SOL    HW3 6410   2.635   0.404   2.668  0.4957  0.8067  0.4041
 1591SOL    MW4 6411   2.704   0.364   2.634  0.0660 -0.0908  0.5805
 1592SOL     OW 6412   2.904   0.529   2.757  0.1202  0.0940  0.3426
 1592SOL    HW2 6413   2.913   0.613   2.712  0.4749 -0.0045  0.2245
 1592SOL    HW3 6414   2.832   0.485   2.712 -1.0144  0.9235  1.3307
 1592SOL    MW4 6415   2.896   0.534   2.745  0.0172  0.1904  0.4570
 1593SOL     OW 6416   2.925   0.775   2.625 -0.4904  0.2478 -0.0628
 1593SOL    HW2 6417   2.997   0.828   2.658  0.5251 -0.3589 -1.2665
 1593SOL    HW3 6418   2.846   0.823   2.651  0.3883  2.0185 -0.5799
 1593SOL    MW4 6419   2.924   0.788   2.633 -0.2406  0.4014 -0.2897
 1594SOL     OW 6420   2.707   0.908   2.734 -0.4273  0.3849  0.0159
 1594SOL    HW2 6421   2.696   0.920   2.828  0.6045  0.2194  0.1651
 1594SOL    HW3 6422   2.631   0.857   2.707 -0.3586 -0.1895  0.8939
 1594SOL    MW4 6423   2.696   0.903   2.743 -0.2820  0.2873  0.1514
 1595SOL     OW 6424   2.686   1.177   2.664 -0.4941  0.4482 -0.2202
 1595SOL    HW2 6425   2.770   1.208   2.697 -0.2596  0.1153 -0.4906
 1595SOL    HW3 6426   2.687   1.083   2.682 -0.7876  0.4360 -0.2664
 1595SOL    MW4 6427   2.697   1.168   2.671 -0.5016  0.4028 -0.2620
 1596SOL     OW 6428   2.912   1.523   2.632 -0.6715 -0.5489 -0.3796
 1596SOL    HW2 6429   2.836   1.573   2.662  0.0745 -0.1997  0.9633
 1596SOL    HW3 6430   2.922   1.453   2.696  0.8971  0.1584  0.1941
 1596SOL    MW4 6431   2.904   1.520   2.644 -0.3662 -0.4096 -0.1268
 1597SOL     OW 6432   2.917   1.275   2.784 -0.4489  0.2175  0.1604
 1597SOL    HW2 6433   2.944   1.269   2.876  1.0753  1.9697 -0.1393
 1597SOL    HW3 6434   2.991   1.238   2.736 -1.4438 -1.1233 -0.3547
 1597SOL    MW4 6435   2.930   1.270   2.790 -0.3788  0.2718  0.0529
 1598SOL     OW 6436   2.690   1.655   2.749  0.1872 -0.0926  0.1465
 1598SOL    HW2 6437   2.700   1.625   2.839 -1.9094  3.8285  1.8454
 1598SOL    HW3 6438   2.606   1.619   2.720 -1.3945  2.2918  1.5064
 1598SOL    MW4 6439   2.680   1.647   2.757 -0.2980  0.7393  0.5498
 1599SOL     OW 6440   2.681   1.917   2.659 -0.3096 -0.6533 -0.3633
 1599SOL    HW2 6441   2.688   1.828   2.694 -0.6051  0.0154  1.4729
 1599SOL    HW3 6442   2.605   1.954   2.704  1.2443  1.3023  0.7276
 1599SOL    MW4 6443   2.672   1.910   2.670 -0.1433 -0.3070  0.0229
 1600SOL     OW 6444   2.925   2.035   2.731  0.0161 -0.2662 -0.2559
 1600SOL    HW2 6445   2.927   2.122   2.693 -0.2049 -0.9954 -1.9839
 1600SOL    HW3 6446   2.835   2.004   2.718  0.0438 -0.6869  0.4985
 1600SOL    MW4 6447   2.914   2.042   2.724 -0.0091 -0.4179 -0.3846
 1601SOL     OW 6448   2.933   2.281   2.668 -0.0086 -0.1232  0.8239
 1601SOL    HW2 6449   3.004   2.339   2.697 -0.9140  0.6435  1.5525
 1601SOL    HW3 6450   2.853   2.326   2.695 -0.8269 -0.3833 -1.0808
 1601SOL    MW4 6451   2.932   2.295   2.676 -0.2360 -0.0563  0.6688
 1602SOL     OW 6452   2.715   2.421   2.720  0.1860  0.2006  0.0444
 1602SOL    HW2 6453   2.723   2.427   2.815  2.1437 -0.3444 -0.0663
 1602SOL    HW3 6454   2.740   2.508   2.688  2.1221 -0.3838 -0.0943
 1602SOL    MW4 6455   2.719   2.433   2.728  0.6998  0.0517  0.0114
 1603SOL     OW 6456   2.733   2.693   2.666 -0.1355  0.2048  0.1055
 1603SOL    HW2 6457   2.807   2.748   2.691  0.3753 -0.4456  0.0185
 1603SOL    HW3 6458   2.739   2.686   2.571 -0.3820  0.2430  0.0851
 1603SOL    MW4 6459   2.743   2.700   2.657 -0.1006  0.1242  0.0911
 1604SOL     OW 6460   2.961   2.863   2.740 -0.3972 -0.3023 -0.4259
 1604SOL    HW2 6461   2.971   2.866   2.835  2.9460 -0.4519 -0.7179
 1604SOL    HW3 6462   2.968   2.954   2.712 -0.4083 -0.3524 -0.5928
 1604SOL    MW4 6463   2.963   2.875   2.749  0.0424 -0.3285 -0.4864
 1605SOL     OW 6464   2.965   3.124   2.623  0.2553 -0.0985 -0.1467
 1605SOL    HW2 6465   2.887   3.172   2.653 -1.5128 -2.6686 -0.4343
 1605SOL    HW3 6466   2.955   3.119   2.528  0.9696 -0.1290 -0.2190
 1605SOL    MW4 6467   2.953   3.130   2.615  0.1161 -0.4416 -0.1941
 1606SOL     OW 6468   2.725   3.238   2.742 -0.2252 -0.0140 -0.1084
 1606SOL    HW2 6469   2.724   3.331   2.721 -1.0059 -0.1574 -0.7401
 1606SOL    HW3 6470   2.649   3.202   2.696  0.6352 -1.1439 -0.6859
 1606SOL    MW4 6471   2.715   3.246   2.733 -0.2146 -0.1822 -0.2677
 1607SOL     OW 6472   2.733   3.526   2.678  0.1440  0.0088 -0.4343
 1607SOL    HW2 6473   2.645   3.556   2.702  0.1999  1.2135 -1.7101
 1607SOL    HW3 6474   2.733   3.524   2.583  1.8200  1.0004 -0.4785
 1607SOL    MW4 6475   2.721   3.529   2.669  0.3724  0.2985 -0.6084
 1608SOL     OW 6476   2.957   3.664   2.768 -0.1813 -0.1712  0.2712
 1608SOL    HW2 6477   2.943   3.661   2.863 -1.4887 -0.6111  0.0713
 1608SOL    HW3 6478   2.882   3.618   2.731  0.4832 -0.2820 -0.9716
 1608SOL    MW4 6479   2.946   3.657   2.776 -0.2663 -0.2441  0.0808
 1609SOL     OW 6480   2.939   3.908   2.627 -0.2164 -0.5562 -0.0990
 1609SOL    HW2 6481   2.990   3.969   2.681  1.0063 -0.8938 -0.8545
 1609SOL    HW3 6482   2.950   3.823   2.670  1.7477 -1.0566 -1.4926
 1609SOL    MW4 6483   2.947   3.905   2.640  0.2041 -0.6666 -0.3824
 1610SOL     OW 6484   2.688   4.002   2.718  0.1041 -0.0461 -0.4284
 1610SOL    HW2 6485   2.692   4.096   2.699 -0.5125 -0.0584 -0.6556
 1610SOL    HW3 6486   2.770   3.967   2.686  0.3929  0.4385 -0.2291
 1610SOL    MW4 6487   2.699   4.010   2.711  0.0608  0.0167 -0.4323
 1611SOL     OW 6488   2.681   4.266   2.655 -0.1619  0.2979  0.5444
 1611SOL    HW2 6489   2.761   4.308   2.688 -0.4775  1.4405 -0.1006
 1611SOL    HW3 6490   2.610   4.316   2.696 -0.5602 -1.4374  2.0239
 1611SOL    MW4 6491   2.682   4.278   2.665 -0.2561  0.2198  0.6547
 1612SOL     OW 6492   2.917   4.384   2.738  0.4279 -0.2021  0.0759
 1612SOL    HW2 6493   2.945   4.388   2.830  0.6329  1.9382 -0.0611
 1612SOL    HW3 6494   2.924   4.474   2.707 -1.3829 -0.5809 -1.5324
 1612SOL    MW4 6495   2.921   4.397   2.746  0.2162  0.0305 -0.1543
 1613SOL     OW 6496   3.389   0.002   2.652  0.7055 -0.1362  0.5950
 1613SOL    HW2 6497   3.381  -0.089   2.682  0.9360 -0.4441 -0.2621
 1613SOL    HW3 6498   3.308   0.044   2.682  0.4183 -0.7217  0.6462
 1613SOL    MW4 6499   3.377  -0.005   2.660  0.6979 -0.2542  0.4888
 1614SOL     OW 6500   3.153   0.139   2.727 -0.0554 -0.2823  0.1830
 1614SOL    HW2 6501   3.151   0.129   2.822  0.9089 -0.8221  0.1552
 1614SOL    HW3 6502   3.154   0.234   2.713  0.7423 -0.2046  0.7338
 1614SOL    MW4 6503   3.153   0.150   2.738  0.1771 -0.3433  0.2520
 1615SOL     OW 6504   3.149   0.415   2.670 -0.0330  0.0246 -0.1879
 1615SOL    HW2 6505   3.073   0.470   2.690 -1.0190 -1.3906  0.0355
 1615SOL    HW3 6506   3.155   0.417   2.574  0.6547  1.4445 -0.1334
 1615SOL    MW4 6507   3.140   0.423   2.660 -0.0725  0.0252 -0.1514
 1616SOL     OW 6508   3.409   0.512   2.721  0.2886 -0.1601 -0.2208
 1616SOL    HW2 6509   3.413   0.606   2.704 -0.4928  0.3028  2.0124
 1616SOL    HW3 6510   3.320   0.487   2.696  0.2396 -0.1558 -0.0479
 1616SOL    MW4 6511   3.398   0.521   2.715  0.1793 -0.0986  0.0966
 1617SOL     OW 6512   3.375   0.784   2.681  0.0821  0.1903 -0.2422
 1617SOL    HW2 6513   3.453   0.839   2.687  0.1754  0.0969 -0.6069
 1617SOL    HW3 6514   3.356   0.779   2.587  0.9448 -1.6071 -0.3424
 1617SOL    MW4 6515   3.383   0.790   2.669  0.2084 -0.0591 -0.3035
 1618SOL     OW 6516   3.141   0.932   2.768  0.0999 -0.6614 -0.4414
 1618SOL    HW2 6517   3.165   0.929   2.861  0.5032  1.2948 -0.4558
 1618SOL    HW3 6518   3.210   0.883   2.724  1.9737  1.5211 -0.0626
 1618SOL    MW4 6519   3.153   0.925   2.774  0.4005 -0.1154 -0.3932
 1619SOL     OW 6520   3.137   1.182   2.662  0.4348 -0.2868 -0.1736
 1619SOL    HW2 6521   3.146   1.097   2.705  1.4846  0.4041  0.9889
 1619SOL    HW3 6522   3.154   1.163   2.569  0.8871 -1.3025  0.1071
 1619SOL    MW4 6523   3.140   1.168   2.655  0.6332 -0.3297  0.0167
 1620SOL     OW 6524   3.373   1.296   2.742 -0.5170  0.3792 -0.4997
 1620SOL    HW2 6525   3.377   1.295   2.837 -0.8394  0.5301 -0.4840
 1620SOL    HW3 6526   3.288   1.256   2.721 -0.2059 -0.1609 -0.7404
 1620SOL    MW4 6527   3.362   1.291   2.751 -0.5186  0.3278 -0.5295
 1621SOL     OW 6528   3.361   1.555   2.640  0.2456  0.0921  0.0540
 1621SOL    HW2 6529   3.284   1.594   2.680 -1.3511 -1.7326 -1.1949
 1621SOL    HW3 6530   3.369   1.468   2.680  0.9657 -0.1857 -0.6540
 1621SOL    MW4 6531   3.352   1.549   2.650  0.1299 -0.1853 -0.2041
 1622SOL     OW 6532   3.138   1.678   2.743 -0.0049  0.0669 -0.2689
 1622SOL    HW2 6533   3.148   1.755   2.688 -0.1665  0.2298 -0.0741
 1622SOL    HW3 6534   3.072   1.625   2.699 -0.7721  0.6069  0.2165
 1622SOL    MW4 6535   3.131   1.681   2.730 -0.1276  0.1597 -0.1793
 1623SOL     OW 6536   3.163   1.922   2.617 -0.0263 -0.2193  0.1969
 1623SOL    HW2 6537   3.239   1.949   2.668 -0.1439 -0.6688  0.6175
 1623SOL    HW3 6538   3.089   1.967   2.659  0.0875  0.7721 -0.6407
 1623SOL    MW4 6539   3.163   1.932   2.629 -0.0267 -0.1478  0.1419
 1624SOL     OW 6540   3.359   2.025   2.756 -0.6381  0.0341  0.0054
 1624SOL    HW2 6541   3.337   2.022   2.849 -1.5354 -1.1095 -0.2339
 1624SOL    HW3 6542   3.373   2.118   2.738 -0.1840  0.2376  1.3392
 1624SOL    MW4 6543   3.358   2.037   2.766 -0.6962 -0.0901  0.1495
 1625SOL     OW 6544   3.363   2.304   2.637 -0.0810  0.1861 -0.4434
 1625SOL    HW2 6545   3.440   2.359   2.654 -1.1009  2.1475 -1.9154
 1625SOL    HW3 6546   3.363   2.291   2.542 -0.2973 -1.7595 -0.2039
 1625SOL    MW4 6547   3.373   2.310   2.626 -0.2444  0.1881 -0.6061
 1626SOL     OW 6548   3.154   2.444   2.751  0.0780 -0.1617 -0.5167
 1626SOL    HW2 6549   3.162   2.528   2.706 -0.3868 -0.1703 -0.6184
 1626SOL    HW3 6550   3.222   2.389   2.711  0.3499  0.1467 -0.4846
 1626SOL    MW4 6551   3.164   2.448   2.740  0.0525 -0.1221 -0.5260
 1627SOL     OW 6552   3.184   2.700   2.664  0.4054  0.0433  0.1928
 1627SOL    HW2 6553   3.254   2.739   2.717  0.1794 -0.2129  0.6839
 1627SOL    HW3 6554   3.105   2.749   2.689  0.2949 -0.0929  0.1135
 1627SOL    MW4 6555   3.183   2.712   2.675  0.3610 -0.0088  0.2472
 1628SOL     OW 6556   3.406   2.819   2.787 -0.5216  0.1911 -0.0963
 1628SOL    HW2 6557   3.402   2.803   2.881 -0.7710 -2.5622 -0.5220
 1628SOL    HW3 6558   3.492   2.786   2.760 -0.3424  1.1984 -0.8053
 1628SOL    MW4 6559   3.417   2.813   2.796 -0.5307 -0.0393 -0.2458
 1629SOL     OW 6560   3.397   3.082   2.669 -0.7871  0.0895  0.5395
 1629SOL    HW2 6561   3.396   2.995   2.707  1.9512  0.1614  0.8207
 1629SOL    HW3 6562   3.393   3.068   2.575 -1.5196 -0.2829  0.6223
 1629SOL    MW4 6563   3.396   3.069   2.662 -0.5224  0.0498  0.5877
 1630SOL     OW 6564   3.169   3.259   2.764  0.1864  0.1929 -0.4374
 1630SOL    HW2 6565   3.256   3.226   2.740  0.5244  1.3826 -0.8759
 1630SOL    HW3 6566   3.110   3.215   2.702  0.4147 -0.9463  0.1382
 1630SOL    MW4 6567   3.173   3.249   2.752  0.2611  0.1996 -0.4196
 1631SOL     OW 6568   3.185   3.531   2.691 -0.4678 -0.5281 -0.2815
 1631SOL    HW2 6569   3.114   3.580   2.733  1.3252  1.2565  0.7384
 1631SOL    HW3 6570   3.173   3.441   2.722 -2.0397 -0.1608  0.2156
 1631SOL    MW4 6571   3.174   3.525   2.701 -0.4389 -0.2444 -0.0813
 1632SOL     OW 6572   3.431   3.648   2.761 -0.1768 -0.5689 -0.3645
 1632SOL    HW2 6573   3.413   3.658   2.854 -0.5290 -0.8043 -0.4087
 1632SOL    HW3 6574   3.347   3.622   2.722 -0.2843  0.5471 -0.9037
 1632SOL    MW4 6575   3.418   3.646   2.768 -0.2375 -0.4528 -0.4413
 1633SOL     OW 6576   3.377   3.889   2.671  0.2463 -0.3588 -0.2802
 1633SOL    HW2 6577   3.406   3.800   2.694  0.7077 -0.3418 -0.7784
 1633SOL    HW3 6578   3.368   3.887   2.576  1.8030  0.5727 -0.4722
 1633SOL    MW4 6579   3.380   3.877   2.662  0.5126 -0.2334 -0.3712
 1634SOL     OW 6580   3.149   4.013   2.791 -0.0758  0.0773  0.4178
 1634SOL    HW2 6581   3.162   4.099   2.751 -0.6187  0.2178  0.5260
 1634SOL    HW3 6582   3.213   3.956   2.749 -1.3719 -0.0425 -1.4589
 1634SOL    MW4 6583   3.159   4.017   2.781 -0.3183  0.0801  0.1845
 1635SOL     OW 6584   3.159   4.273   2.665  0.0691  0.2235  0.1417
 1635SOL    HW2 6585   3.074   4.318   2.667  0.3051  0.6624  0.2879
 1635SOL    HW3 6586   3.179   4.265   2.572 -0.1960 -0.0045  0.1023
 1635SOL    MW4 6587   3.151   4.278   2.653  0.0653  0.2518  0.1559
 1636SOL     OW 6588   3.378   4.410   2.722  0.3539  0.3418 -0.2015
 1636SOL    HW2 6589   3.380   4.413   2.818  0.0860 -0.2940 -0.1763
 1636SOL    HW3 6590   3.294   4.369   2.701  0.4385  0.4243 -0.7093
 1636SOL    MW4 6591   3.367   4.405   2.732  0.3297  0.2689 -0.2651
 1637SOL     OW 6592   3.836   0.002   2.651  0.2942 -0.1468 -0.0397
 1637SOL    HW2 6593   3.809  -0.082   2.687 -1.2173  1.0341  1.7016
 1637SOL    HW3 6594   3.771   0.064   2.685  2.4173  1.9950  0.1911
 1637SOL    MW4 6595   3.824  -0.001   2.660  0.3748  0.2918  0.2203
 1638SOL     OW 6596   3.617   0.133   2.757 -0.1208 -0.0711  0.4145
 1638SOL    HW2 6597   3.615   0.215   2.707  0.2284 -0.5426 -0.3787
 1638SOL    HW3 6598   3.542   0.084   2.725  0.0560 -0.3404  0.4153
 1638SOL    MW4 6599   3.607   0.138   2.747 -0.0513 -0.1689  0.3097
 1639SOL     OW 6600   3.632   0.363   2.637 -0.0418  0.1122 -0.2425
 1639SOL    HW2 6601   3.698   0.424   2.668 -0.1913  0.4505 -0.5770
 1639SOL    HW3 6602   3.549   0.398   2.670 -0.0340 -0.4244  0.3511
 1639SOL    MW4 6603   3.629   0.376   2.645 -0.0608  0.0861 -0.2084
 1640SOL     OW 6604   3.847   0.493   2.765  0.3664 -0.1387 -0.1276
 1640SOL    HW2 6605   3.857   0.495   2.860 -0.3593 -1.2745 -0.0232
 1640SOL    HW3 6606   3.919   0.439   2.733 -0.1803 -0.8922 -0.1035
 1640SOL    MW4 6607   3.858   0.486   2.773  0.1988 -0.3879 -0.1106
 1641SOL     OW 6608   3.825   0.763   2.662  0.2321  0.2196  0.2269
 1641SOL    HW2 6609   3.752   0.816   2.694  0.0567  0.3763 -0.4191
 1641SOL    HW3 6610   3.814   0.678   2.704 -0.2784  0.2665  0.1879
 1641SOL    MW4 6611   3.814   0.759   2.672  0.1419  0.2465  0.1364
 1642SOL     OW 6612   3.605   0.926   2.744  0.1298 -0.1223 -0.0679
 1642SOL    HW2 6613   3.620   0.932   2.839 -1.4744  0.2448  0.1779
 1642SOL    HW3 6614   3.611   1.016   2.714 -0.3431 -0.1265 -0.1658
 1642SOL    MW4 6615   3.608   0.939   2.753 -0.1440 -0.0744 -0.0484
 1643SOL     OW 6616   3.601   1.188   2.651  0.2712  0.0672 -0.1473
 1643SOL    HW2 6617   3.673   1.223   2.704 -0.4719  1.6210 -0.1107
 1643SOL    HW3 6618   3.523   1.232   2.685 -0.6595 -1.3582 -0.3919
 1643SOL    MW4 6619   3.600   1.199   2.662  0.0503  0.0842 -0.1748
 1644SOL     OW 6620   3.821   1.266   2.792 -0.0458  0.1709  0.3736
 1644SOL    HW2 6621   3.889   1.210   2.752 -0.4697 -0.5881  0.6984
 1644SOL    HW3 6622   3.833   1.351   2.750  0.9914 -0.0005  0.2922
 1644SOL    MW4 6623   3.832   1.270   2.781  0.0350  0.0480  0.4058
 1645SOL     OW 6624   3.829   1.504   2.636  0.3135  0.0644  0.0261
 1645SOL    HW2 6625   3.910   1.542   2.669  1.0859 -0.9495 -0.6803
 1645SOL    HW3 6626   3.760   1.544   2.690  1.3338  0.3901  1.1079
 1645SOL    MW4 6627   3.830   1.515   2.647  0.5500 -0.0265  0.0756
 1646SOL     OW 6628   3.608   1.649   2.725 -0.1592 -0.0231 -0.8667
 1646SOL    HW2 6629   3.615   1.742   2.702  0.2487 -0.0983 -1.0544
 1646SOL    HW3 6630   3.522   1.622   2.693 -0.9711  0.6974  0.6282
 1646SOL    MW4 6631   3.598   1.658   2.718 -0.2124  0.0622 -0.6940
 1647SOL     OW 6632   3.602   1.921   2.655 -0.0334  0.3895 -0.0615
 1647SOL    HW2 6633   3.523   1.963   2.689 -0.1869  0.7312 -0.8041
 1647SOL    HW3 6634   3.592   1.927   2.559 -0.3503 -1.9124 -0.1815
 1647SOL    MW4 6635   3.590   1.927   2.647 -0.0956  0.1309 -0.1752
 1648SOL     OW 6636   3.833   2.013   2.769  0.5756 -0.2994 -0.3970
 1648SOL    HW2 6637   3.906   1.961   2.737 -0.0867 -0.7845 -1.1306
 1648SOL    HW3 6638   3.755   1.972   2.731 -0.0048  0.8030 -0.4191
 1648SOL    MW4 6639   3.832   2.001   2.760  0.4113 -0.2177 -0.4969
 1649SOL     OW 6640   3.844   2.296   2.674  0.7228 -0.0034 -0.0286
 1649SOL    HW2 6641   3.845   2.202   2.694  0.4010 -0.0989 -0.4543
 1649SOL    HW3 6642   3.839   2.300   2.578 -1.2074  0.4476  0.0766
 1649SOL    MW4 6643   3.843   2.284   2.664  0.4256  0.0436 -0.0708
 1650SOL     OW 6644   3.586   2.415   2.735 -0.0632 -0.0364 -0.1955
 1650SOL    HW2 6645   3.587   2.428   2.830 -0.1446  0.0113 -0.2013
 1650SOL    HW3 6646   3.665   2.364   2.717  0.4603  0.7857 -0.2247
 1650SOL    MW4 6647   3.596   2.410   2.745 -0.0048  0.0784 -0.2000
 1651SOL     OW 6648   3.640   2.710   2.688 -0.0168  0.1268  0.7812
 1651SOL    HW2 6649   3.628   2.615   2.682  0.5563  0.1322 -0.8525
 1651SOL    HW3 6650   3.649   2.738   2.597  1.2150  1.5751  1.3331
 1651SOL    MW4 6651   3.639   2.701   2.675  0.2213  0.3185  0.6382
 1652SOL     OW 6652   3.857   2.829   2.797  0.2644 -0.2168  0.3642
 1652SOL    HW2 6653   3.927   2.801   2.738 -0.6856 -1.2837 -0.2672
 1652SOL    HW3 6654   3.777   2.792   2.760 -1.1307  3.6741 -0.7564
 1652SOL    MW4 6655   3.856   2.820   2.785 -0.0451  0.1559  0.1333
 1653SOL     OW 6656   3.859   3.077   2.664 -0.3917  0.4113  0.0205
 1653SOL    HW2 6657   3.787   3.135   2.689 -1.3482 -0.7121 -0.0903
 1653SOL    HW3 6658   3.836   2.992   2.703  0.8378  0.0202 -0.0782
 1653SOL    MW4 6659   3.847   3.074   2.673 -0.3557  0.2115 -0.0069
 1654SOL     OW 6660   3.640   3.202   2.759  0.0389  0.2379 -0.6203
 1654SOL    HW2 6661   3.620   3.290   2.729 -1.9845 -0.8981 -2.7628
 1654SOL    HW3 6662   3.562   3.151   2.736  1.1550 -2.0979  0.6202
 1654SOL    MW4 6663   3.627   3.207   2.752 -0.0808 -0.2198 -0.7396
 1655SOL     OW 6664   3.607   3.471   2.681 -0.1536 -0.0421  0.2797
 1655SOL    HW2 6665   3.682   3.527   2.701 -0.2656  0.4809 -0.7202
 1655SOL    HW3 6666   3.531   3.526   2.695 -0.2235  0.4639 -1.8774
 1655SOL    MW4 6667   3.607   3.486   2.685 -0.1776  0.0939 -0.1371
 1656SOL     OW 6668   3.816   3.626   2.755 -0.3248  0.1845  0.6185
 1656SOL    HW2 6669   3.900   3.606   2.714 -0.6691 -0.5128  0.2401
 1656SOL    HW3 6670   3.791   3.711   2.720  0.1271  0.3002  0.5798
 1656SOL    MW4 6671   3.823   3.634   2.745 -0.3107  0.1075  0.5634
 1657SOL     OW 6672   3.789   3.883   2.641  0.1804  0.3128  0.2883
 1657SOL    HW2 6673   3.876   3.916   2.663  0.3844 -1.1257  1.6970
 1657SOL    HW3 6674   3.729   3.934   2.697  0.1780  0.7389 -0.0975
 1657SOL    MW4 6675   3.792   3.894   2.651  0.2072  0.1793  0.4234
 1658SOL     OW 6676   3.578   4.026   2.778 -0.6455  0.2151 -0.3090
 1658SOL    HW2 6677   3.586   4.104   2.724  0.1784  0.6575  0.4405
 1658SOL    HW3 6678   3.501   3.981   2.743 -0.4884  0.8021 -1.4392
 1658SOL    MW4 6679   3.569   4.030   2.766 -0.5159  0.3505 -0.3591
 1659SOL     OW 6680   3.596   4.255   2.622  0.1231 -0.7784 -0.2802
 1659SOL    HW2 6681   3.528   4.320   2.640 -0.0478 -1.0392  0.0075
 1659SOL    HW3 6682   3.595   4.247   2.526 -0.1493 -0.6711 -0.2888
 1659SOL    MW4 6683   3.587   4.263   2.612  0.0648 -0.7987 -0.2434
 1660SOL     OW 6684   3.811   4.402   2.764 -0.0394 -0.1006  0.9004
 1660SOL    HW2 6685   3.901   4.377   2.744  0.0954  0.8399  0.3151
 1660SOL    HW3 6686   3.758   4.354   2.701  0.0225 -0.9405  1.4829
 1660SOL    MW4 6687   3.816   4.393   2.753 -0.0134 -0.0873  0.9003
 1661SOL     OW 6688   4.258   4.661   2.668 -0.1031 -0.3766  0.4391
 1661SOL    HW2 6689   4.184   4.711   2.703 -0.1924 -0.5961  0.5664
 1661SOL    HW3 6690   4.336   4.708   2.698 -0.1720 -0.6786  1.1154
 1661SOL    MW4 6691   4.258   4.674   2.677 -0.1245 -0.4454  0.5450
 1662SOL     OW 6692   4.046   0.152   2.776  0.4319  0.0857 -0.2467
 1662SOL    HW2 6693   4.055   0.119   2.865  0.1809  0.2419 -0.1623
 1662SOL    HW3 6694   3.966   0.112   2.744  0.0285  0.7511 -0.0817
 1662SOL    MW4 6695   4.037   0.142   2.783  0.3457  0.1941 -0.2139
 1663SOL     OW 6696   4.070   0.397   2.647  0.2046  0.0731  0.6865
 1663SOL    HW2 6697   4.068   0.307   2.679  2.0543 -0.3029 -0.1856
 1663SOL    HW3 6698   4.051   0.390   2.553  1.3615  0.4755  0.4139
 1663SOL    MW4 6699   4.067   0.385   2.639  0.6013  0.0765  0.5355
 1664SOL     OW 6700   4.260   0.513   2.803 -0.0682  0.9589 -0.2374
 1664SOL    HW2 6701   4.193   0.485   2.740 -0.1334  0.0459  0.2283
 1664SOL    HW3 6702   4.343   0.485   2.764 -0.0082  1.4821 -0.4910
 1664SOL    MW4 6703   4.262   0.505   2.789 -0.0691  0.9075 -0.2098
 1665SOL     OW 6704   4.266   0.758   2.673  0.2663 -0.7581  0.4230
 1665SOL    HW2 6705   4.244   0.674   2.714 -1.9010 -0.1884  0.5001
 1665SOL    HW3 6706   4.265   0.740   2.579 -1.8648 -0.4765  0.3648
 1665SOL    MW4 6707   4.263   0.745   2.666 -0.3009 -0.6458  0.4256
 1666SOL     OW 6708   4.041   0.895   2.785  0.2010  0.3163  0.3232
 1666SOL    HW2 6709   4.111   0.842   2.747 -0.0807  0.0229  0.2072
 1666SOL    HW3 6710   3.961   0.848   2.763  0.1025 -0.5859  2.4079
 1666SOL    MW4 6711   4.040   0.881   2.777  0.1512  0.1585  0.5832
 1667SOL     OW 6712   4.044   1.146   2.668  0.0258 -0.1274  0.5555
 1667SOL    HW2 6713   4.125   1.188   2.699 -0.8649  0.0510  2.6967
 1667SOL    HW3 6714   4.046   1.059   2.707 -0.0036 -0.7424 -0.7843
 1667SOL    MW4 6715   4.055   1.140   2.677 -0.0949 -0.1850  0.6611
 1668SOL     OW 6716   4.290   1.281   2.748  0.2072  0.0028 -0.3073
 1668SOL    HW2 6717   4.289   1.373   2.722 -0.4616  0.3037  0.7440
 1668SOL    HW3 6718   4.370   1.246   2.709  1.7767  1.6341  1.3646
 1668SOL    MW4 6719   4.300   1.289   2.739  0.3262  0.2577  0.0520
 1669SOL     OW 6720   4.285   1.554   2.683 -0.3163 -0.4735 -0.3275
 1669SOL    HW2 6721   4.359   1.608   2.711 -0.8237  0.0021  0.0807
 1669SOL    HW3 6722   4.279   1.569   2.589 -1.2638  1.1761 -0.0185
 1669SOL    MW4 6723   4.294   1.563   2.674 -0.5078 -0.1931 -0.2329
 1670SOL     OW 6724   4.039   1.635   2.756 -0.1608  0.7413 -0.1926
 1670SOL    HW2 6725   4.044   1.644   2.852 -0.4393  0.2772 -0.1376
 1670SOL    HW3 6726   4.120   1.590   2.732 -0.9462 -0.8165  0.0208
 1670SOL    MW4 6727   4.050   1.631   2.766 -0.3014  0.4747 -0.1574
 1671SOL     OW 6728   4.030   1.874   2.647 -0.3380  0.1657 -0.0103
 1671SOL    HW2 6729   4.093   1.914   2.707  1.7213 -0.3995 -1.7117
 1671SOL    HW3 6730   4.024   1.783   2.677  0.6593 -0.1068 -0.6059
 1671SOL    MW4 6731   4.038   1.867   2.659  0.0653  0.0553 -0.3130
 1672SOL     OW 6732   4.215   2.011   2.787  0.0356 -0.3436 -0.2940
 1672SOL    HW2 6733   4.227   2.103   2.765 -1.6168 -0.3006 -1.1040
 1672SOL    HW3 6734   4.292   1.968   2.750  0.3157  0.5737 -0.8020
 1672SOL    MW4 6735   4.226   2.017   2.779 -0.1454 -0.2170 -0.4678
 1673SOL     OW 6736   4.256   2.276   2.670 -0.1232 -0.2914  0.1495
 1673SOL    HW2 6737   4.181   2.334   2.680  0.0503 -0.4619  2.9384
 1673SOL    HW3 6738   4.280   2.282   2.578 -2.4924  1.0772 -0.3996
 1673SOL    MW4 6739   4.249   2.285   2.659 -0.4129 -0.1333  0.4451
 1674SOL     OW 6740   4.065   2.483   2.729 -0.0131  0.0678  0.0168
 1674SOL    HW2 6741   4.058   2.486   2.825 -0.5350 -0.0451 -0.0140
 1674SOL    HW3 6742   4.004   2.414   2.703 -0.4083  0.5802 -0.4437
 1674SOL    MW4 6743   4.056   2.474   2.738 -0.1340  0.1204 -0.0482
 1675SOL     OW 6744   4.060   2.735   2.646 -0.5035  0.2162 -0.3852
 1675SOL    HW2 6745   4.129   2.770   2.703  0.1028 -0.6129 -0.5857
 1675SOL    HW3 6746   4.054   2.642   2.671 -0.2872 -0.1358 -1.5994
 1675SOL    MW4 6747   4.068   2.727   2.657 -0.3953  0.0603 -0.5717
 1676SOL     OW 6748   4.256   2.873   2.796  0.5363 -0.1066 -0.4802
 1676SOL    HW2 6749   4.273   2.874   2.890  0.4532  0.3439 -0.4727
 1676SOL    HW3 6750   4.279   2.961   2.766 -0.4284  0.0662 -0.7072
 1676SOL    MW4 6751   4.262   2.884   2.804  0.3982 -0.0243 -0.5090
 1677SOL     OW 6752   4.278   3.126   2.697 -0.1609  0.1221 -0.2299
 1677SOL    HW2 6753   4.204   3.184   2.718  0.2607  0.4578  0.3372
 1677SOL    HW3 6754   4.269   3.109   2.603 -0.2344  1.1937 -0.4207
 1677SOL    MW4 6755   4.267   3.131   2.687 -0.1149  0.3076 -0.1805
 1678SOL     OW 6756   4.050   3.247   2.775  0.1827 -0.5056 -0.0592
 1678SOL    HW2 6757   3.997   3.186   2.724  0.4644 -0.0686 -0.8800
 1678SOL    HW3 6758   4.029   3.333   2.739  0.8423 -0.2516  0.1512
 1678SOL    MW4 6759   4.040   3.250   2.763  0.3066 -0.4146 -0.1400
 1679SOL     OW 6760   4.061   3.503   2.661  0.0495 -0.2084  0.0684
 1679SOL    HW2 6761   4.141   3.545   2.694  0.0185 -0.4881  0.4969
 1679SOL    HW3 6762   4.079   3.489   2.568  0.9325 -1.2717  0.3968
 1679SOL    MW4 6763   4.074   3.507   2.653  0.1621 -0.3855  0.1683
 1680SOL     OW 6764   4.301   3.641   2.767  0.3934 -0.2482 -0.0064
 1680SOL    HW2 6765   4.278   3.642   2.859 -1.2170  0.1073 -0.4009
 1680SOL    HW3 6766   4.373   3.578   2.761  0.2918 -0.5160  1.4233
 1680SOL    MW4 6767   4.307   3.633   2.778  0.1674 -0.2365  0.1299
 1681SOL     OW 6768   4.267   3.887   2.629  0.7266  0.2405  0.0427
 1681SOL    HW2 6769   4.272   3.800   2.668  2.3317  0.3558  0.1526
 1681SOL    HW3 6770   4.351   3.928   2.652  1.4604  0.5489 -3.0163
 1681SOL    MW4 6771   4.279   3.881   2.637  1.0347  0.2964 -0.3462
 1682SOL     OW 6772   4.032   3.992   2.749 -0.1929  0.1927  0.3405
 1682SOL    HW2 6773   4.047   3.989   2.844 -1.2610 -0.5394  0.4946
 1682SOL    HW3 6774   4.102   3.938   2.712 -0.5684 -0.6243  0.8150
 1682SOL    MW4 6775   4.044   3.985   2.757 -0.3839 -0.0117  0.4230
 1683SOL     OW 6776   4.069   4.269   2.677 -0.3088  0.2805 -0.0413
 1683SOL    HW2 6777   4.052   4.177   2.697 -0.3301  0.1384 -0.7118
 1683SOL    HW3 6778   4.088   4.270   2.583 -1.2660  1.0856 -0.2305
 1683SOL    MW4 6779   4.069   4.257   2.667 -0.4377  0.3686 -0.1545
 1684SOL     OW 6780   4.319   4.397   2.726  0.1371  0.4843 -0.5320
 1684SOL    HW2 6781   4.234   4.356   2.712  1.2992 -1.3043 -2.5697
 1684SOL    HW3 6782   4.301   4.491   2.725 -1.9983  0.1159  0.4447
 1684SOL    MW4 6783   4.305   4.404   2.724  0.0086  0.1998 -0.6721
 1685SOL     OW 6784   0.210   4.621   3.146 -0.1043  0.1101  0.0192
 1685SOL    HW2 6785   0.197   4.651   3.236  1.5901  0.6098  0.0969
 1685SOL    HW3 6786   0.134   4.655   3.098 -0.8681  0.0756  1.1891
 1685SOL    MW4 6787   0.198   4.629   3.151  0.0184  0.1712  0.1838
 1686SOL     OW 6788   0.007   0.107   3.022 -0.1598  0.6693 -0.5294
 1686SOL    HW2 6789  -0.074   0.062   3.044  0.1521 -0.0400 -0.8329
 1686SOL    HW3 6790   0.005   0.187   3.074 -0.2338 -0.1721  0.7805
 1686SOL    MW4 6791  -0.004   0.112   3.031 -0.1284  0.4647 -0.3967
 1687SOL     OW 6792   0.035   0.342   3.157  0.2361 -0.3492 -0.0878
 1687SOL    HW2 6793   0.055   0.354   3.249  0.0171 -1.6941  0.1529
 1687SOL    HW3 6794  -0.051   0.384   3.145  0.0278 -0.6183  0.4435
 1687SOL    MW4 6795   0.026   0.349   3.167  0.1797 -0.5621  0.0141
 1688SOL     OW 6796   0.247   0.490   3.016  0.3551  0.1811  0.4886
 1688SOL    HW2 6797   0.322   0.434   3.035  0.6472 -0.4868 -2.3674
 1688SOL    HW3 6798   0.173   0.447   3.058  0.9245 -1.2800  0.0053
 1688SOL    MW4 6799   0.247   0.477   3.024  0.4688 -0.0998  0.0479
 1689SOL     OW 6800   0.261   0.739   3.119 -0.6945 -0.0512  0.0602
 1689SOL    HW2 6801   0.249   0.720   3.212 -1.8358 -0.5385 -0.1725
 1689SOL    HW3 6802   0.270   0.652   3.078  0.9364  0.2099 -0.1360
 1689SOL    MW4 6803   0.260   0.725   3.125 -0.6299 -0.0810  0.0033
 1690SOL     OW 6804   0.074   0.926   3.062 -0.3420  0.0987  0.1385
 1690SOL    HW2 6805   0.145   0.862   3.073 -0.7284 -0.3627 -0.0491
 1690SOL    HW3 6806   0.054   0.923   2.968 -2.3254 -1.6204  0.5708
 1690SOL    MW4 6807   0.081   0.917   3.051 -0.6547 -0.1891  0.1707
 1691SOL     OW 6808   0.048   1.184   3.139  0.0069  0.2549  0.1380
 1691SOL    HW2 6809  -0.038   1.208   3.105  0.2094  1.4728  0.4596
 1691SOL    HW3 6810   0.059   1.092   3.115 -1.5493 -0.0217  0.4390
 1691SOL    MW4 6811   0.038   1.175   3.131 -0.1717  0.3791  0.2203
 1692SOL     OW 6812   0.267   1.323   3.027  0.2097  0.2925 -0.2193
 1692SOL    HW2 6813   0.196   1.274   3.067 -1.1925  2.1135 -0.3879
 1692SOL    HW3 6814   0.252   1.314   2.933  0.6865 -0.0148 -0.2647
 1692SOL    MW4 6815   0.256   1.316   3.020  0.0876  0.4922 -0.2477
 1693SOL     OW 6816   0.282   1.579   3.141 -0.2403 -0.1135  0.1654
 1693SOL    HW2 6817   0.194   1.613   3.125  0.0798 -0.0819 -1.5886
 1693SOL    HW3 6818   0.285   1.497   3.093  0.3317 -0.6824  1.1487
 1693SOL    MW4 6819   0.271   1.573   3.133 -0.1226 -0.1843  0.0637
 1694SOL     OW 6820   0.020   1.676   3.066  0.1215 -0.1998 -0.2671
 1694SOL    HW2 6821  -0.056   1.627   3.095  0.2391  0.4169  1.0904
 1694SOL    HW3 6822   0.008   1.764   3.101  0.6675  0.3414 -1.3938
 1694SOL    MW4 6823   0.009   1.681   3.074  0.2091 -0.0470 -0.2365
 1695SOL     OW 6824   0.020   1.942   3.157  0.4760 -0.1224 -0.0041
 1695SOL    HW2 6825  -0.055   1.974   3.107 -0.1737 -0.8010  0.5315
 1695SOL    HW3 6826   0.096   1.967   3.104 -0.1139  0.7144 -0.4670
 1695SOL    MW4 6827   0.020   1.950   3.143  0.3119 -0.1016  0.0052
 1696SOL     OW 6828   0.236   2.077   3.023 -0.0678  0.3092 -0.3608
 1696SOL    HW2 6829   0.232   2.161   3.069  0.7429  0.5651 -0.7415
 1696SOL    HW3 6830   0.210   2.098   2.933 -1.3170 -0.1250 -0.1102
 1696SOL    MW4 6831   0.232   2.091   3.017 -0.1257  0.2854 -0.3781
 1697SOL     OW 6832   0.219   2.358   3.120 -0.0991 -0.0630 -0.1292
 1697SOL    HW2 6833   0.220   2.353   3.215  1.1484 -1.8469 -0.2190
 1697SOL    HW3 6834   0.299   2.406   3.098 -0.7266  0.9395 -0.2609
 1697SOL    MW4 6835   0.230   2.364   3.129 -0.0173 -0.1659 -0.1585
 1698SOL     OW 6836   4.479   2.456   3.011  0.2424  0.2850 -0.3184
 1698SOL    HW2 6837   4.498   2.542   3.048 -1.1296  1.2376 -1.8097
 1698SOL    HW3 6838   4.556   2.403   3.034  1.5842  2.1898 -0.3197
 1698SOL    MW4 6839   4.492   2.460   3.019  0.2379  0.6621 -0.5155
 1699SOL     OW 6840   0.042   2.712   3.125 -0.2189 -0.1990 -0.2096
 1699SOL    HW2 6841   0.029   2.704   3.219  0.7760  1.1059  0.0339
 1699SOL    HW3 6842   0.115   2.771   3.114 -0.4510 -0.1610 -1.8207
 1699SOL    MW4 6843   0.050   2.719   3.136 -0.1182 -0.0219 -0.3901
 1700SOL     OW 6844   0.259   2.876   3.053  0.1271  0.1229  0.3671
 1700SOL    HW2 6845   0.335   2.838   3.098 -0.6305 -1.9462 -0.0599
 1700SOL    HW3 6846   0.272   2.853   2.961 -0.2804  1.0265  0.0824
 1700SOL    MW4 6847   0.271   2.868   3.047 -0.0266 -0.0308  0.2730
 1701SOL     OW 6848   0.266   3.131   3.139  0.2952 -0.0953  0.2966
 1701SOL    HW2 6849   0.183   3.172   3.118  0.1803 -0.4296  0.0920
 1701SOL    HW3 6850   0.259   3.042   3.103  1.0858  0.1608 -0.5134
 1701SOL    MW4 6851   0.254   3.125   3.132  0.3844 -0.1056  0.1624
 1702SOL     OW 6852   4.479   3.258   3.068 -0.0301  0.1799  0.1713
 1702SOL    HW2 6853   4.412   3.200   3.105  2.4178 -1.1943  2.5291
 1702SOL    HW3 6854   4.487   3.229   2.977 -0.1660 -1.9910  0.8132
 1702SOL    MW4 6855   4.471   3.247   3.061  0.2751 -0.2882  0.5672
 1703SOL     OW 6856   0.012   3.529   3.129  0.1359  0.1725 -0.6165
 1703SOL    HW2 6857  -0.073   3.565   3.105 -0.2343 -0.4040 -0.1896
 1703SOL    HW3 6858   0.009   3.439   3.096  0.3907  0.0020 -0.1766
 1703SOL    MW4 6859   0.000   3.522   3.121  0.1207  0.0741 -0.5021
 1704SOL     OW 6860   0.258   3.625   3.025  0.0943 -1.1210  0.0985
 1704SOL    HW2 6861   0.266   3.716   3.052 -0.1348 -1.0213 -0.1647
 1704SOL    HW3 6862   0.173   3.597   3.059  0.2574 -1.2978  0.3593
 1704SOL    MW4 6863   0.247   3.633   3.033  0.0856 -1.1311  0.0980
 1705SOL     OW 6864   0.258   3.888   3.096  0.0090  0.0894  0.0340
 1705SOL    HW2 6865   0.253   3.880   3.192  0.6242 -0.0023  0.0615
 1705SOL    HW3 6866   0.338   3.938   3.081  0.6587 -1.0935 -0.4992
 1705SOL    MW4 6867   0.268   3.894   3.107  0.1759 -0.0789 -0.0327
 1706SOL     OW 6868   0.021   4.012   3.019 -0.1323  0.3197 -0.2198
 1706SOL    HW2 6869   0.100   3.963   3.042  0.1019  0.1352 -1.3742
 1706SOL    HW3 6870   0.005   3.989   2.928 -0.8547  1.2728 -0.3378
 1706SOL    MW4 6871   0.029   4.002   3.010 -0.1969  0.4215 -0.3874
 1707SOL     OW 6872   4.483   4.257   3.123 -0.3358 -0.2140  0.0062
 1707SOL    HW2 6873   4.499   4.244   3.217  0.4729 -1.5784 -0.3163
 1707SOL    HW3 6874   4.494   4.171   3.084 -0.0144  0.4663 -1.4473
 1707SOL    MW4 6875   4.487   4.244   3.130 -0.1867 -0.3042 -0.2282
 1708SOL     OW 6876   0.222   4.403   2.985 -0.3656  0.0830  0.0644
 1708SOL    HW2 6877   0.161   4.343   3.028 -2.4828  1.0437 -1.5246
 1708SOL    HW3 6878   0.221   4.482   3.039  2.7050 -1.3412  2.3669
 1708SOL    MW4 6879   0.214   4.405   2.998 -0.2398  0.0219  0.1585
 1709SOL     OW 6880   0.696   4.645   3.097 -0.3199 -0.3504  0.1835
 1709SOL    HW2 6881   0.693   4.555   3.064 -1.5519 -0.7302  1.3293
 1709SOL    HW3 6882   0.614   4.685   3.066  0.7203  0.7383 -1.2787
 1709SOL    MW4 6883   0.685   4.639   3.088 -0.3453 -0.2565  0.1416
 1710SOL     OW 6884   0.453   0.079   3.021 -0.2951 -0.2059  0.3139
 1710SOL    HW2 6885   0.469   0.166   3.058 -0.3490 -0.0853  0.0592
 1710SOL    HW3 6886   0.387   0.041   3.077 -0.7093  0.1546  0.0742
 1710SOL    MW4 6887   0.447   0.086   3.033 -0.3569 -0.1425  0.2487
 1711SOL     OW 6888   0.494   0.349   3.105  0.0407 -0.1998 -0.4723
 1711SOL    HW2 6889   0.483   0.374   3.197  0.7907 -2.8234  0.3581
 1711SOL    HW3 6890   0.557   0.412   3.071 -1.1389  1.5379  0.4888
 1711SOL    MW4 6891   0.501   0.361   3.113 -0.0160 -0.3167 -0.2356
 1712SOL     OW 6892   0.667   0.537   3.012  0.1610  1.0039 -0.2769
 1712SOL    HW2 6893   0.738   0.479   3.043 -1.1079 -0.1975  0.4394
 1712SOL    HW3 6894   0.686   0.621   3.052  1.2984  0.7408 -0.2451
 1712SOL    MW4 6895   0.679   0.540   3.021  0.1437  0.8106 -0.1783
 1713SOL     OW 6896   0.717   0.792   3.126  0.5065 -0.3929  0.2977
 1713SOL    HW2 6897   0.711   0.776   3.220 -0.2989  0.0076  0.3223
 1713SOL    HW3 6898   0.633   0.832   3.103  1.3182  1.0396 -0.2863
 1713SOL    MW4 6899   0.705   0.795   3.135  0.5074 -0.1511  0.2239
 1714SOL     OW 6900   0.477   0.917   3.066 -0.2472  0.1305 -0.3527
 1714SOL    HW2 6901   0.400   0.863   3.086  0.8778 -1.3725  0.0212
 1714SOL    HW3 6902   0.484   0.915   2.971 -1.3655  1.2810 -0.4734
 1714SOL    MW4 6903   0.468   0.910   3.056 -0.2463  0.0840 -0.3195
 1715SOL     OW 6904   0.483   1.196   3.130  0.5057 -0.4838 -0.4123
 1715SOL    HW2 6905   0.465   1.106   3.105 -0.6194 -0.8274  1.5393
 1715SOL    HW3 6906   0.410   1.246   3.094 -0.4544 -0.8020  1.0391
 1715SOL    MW4 6907   0.471   1.191   3.122  0.2306 -0.5710  0.0367
 1716SOL     OW 6908   0.702   1.323   3.031 -0.6328  0.0399  0.3040
 1716SOL    HW2 6909   0.780   1.281   3.068 -0.5482  0.1518  0.2544
 1716SOL    HW3 6910   0.629   1.268   3.059 -0.6130  0.3643  1.0189
 1716SOL    MW4 6911   0.703   1.310   3.040 -0.6191  0.0975  0.3915
 1717SOL     OW 6912   0.709   1.554   3.175  0.7439 -0.3645 -0.2399
 1717SOL    HW2 6913   0.685   1.525   3.263 -2.1221  1.4151 -0.3865
 1717SOL    HW3 6914   0.694   1.477   3.119 -0.1899 -0.6550  0.4049
 1717SOL    MW4 6915   0.704   1.540   3.179  0.2425 -0.1680 -0.1740
 1718SOL     OW 6916   0.502   1.702   3.032 -0.1785  0.2482 -0.0803
 1718SOL    HW2 6917   0.561   1.670   3.100 -0.8697  0.0668  0.4394
 1718SOL    HW3 6918   0.415   1.674   3.060 -0.3511 -0.9015 -1.6641
 1718SOL    MW4 6919   0.498   1.694   3.044 -0.2925  0.0725 -0.2210
 1719SOL     OW 6920   0.471   1.984   3.132  0.0829 -0.5162 -0.1310
 1719SOL    HW2 6921   0.463   1.902   3.084 -1.3624 -0.0952 -0.6255
 1719SOL    HW3 6922   0.404   2.041   3.094  1.1523  0.9443  0.1017
 1719SOL    MW4 6923   0.461   1.981   3.120  0.0333 -0.2681 -0.1657
 1720SOL     OW 6924   0.702   2.105   3.022  0.0509 -0.4674  0.1319
 1720SOL    HW2 6925   0.774   2.059   3.065 -0.2555  2.4295  4.0373
 1720SOL    HW3 6926   0.624   2.057   3.047 -0.0335  0.6777  2.1832
 1720SOL    MW4 6927   0.702   2.093   3.031 -0.0007  0.0658  0.9179
 1721SOL     OW 6928   0.688   2.366   3.116  0.1872 -0.1050  0.8604
 1721SOL    HW2 6929   0.673   2.361   3.210  0.2600  1.7765  0.9886
 1721SOL    HW3 6930   0.692   2.275   3.088 -1.7481 -0.6940  2.3631
 1721SOL    MW4 6931   0.687   2.354   3.125 -0.0585  0.0656  1.0755
 1722SOL     OW 6932   0.451   2.491   3.018  0.0912 -0.2328  0.2429
 1722SOL    HW2 6933   0.532   2.460   3.060 -0.4389 -0.8343  0.8258
 1722SOL    HW3 6934   0.456   2.458   2.929  0.6533  0.0296  0.1700
 1722SOL    MW4 6935   0.463   2.483   3.012  0.0954 -0.2775  0.3104
 1723SOL     OW 6936   0.477   2.716   3.159  0.2888 -0.1365  0.2636
 1723SOL    HW2 6937   0.552   2.748   3.109 -0.7329  0.3942 -0.9849
 1723SOL    HW3 6938   0.447   2.639   3.110 -0.7241  0.3916  0.0300
 1723SOL    MW4 6939   0.483   2.710   3.146  0.0203  0.0026  0.0682
 1724SOL     OW 6940   0.696   2.852   3.037 -0.3390  0.5059  0.0428
 1724SOL    HW2 6941   0.784   2.816   3.051 -0.7184 -0.0877  0.9511
 1724SOL    HW3 6942   0.706   2.946   3.056  0.0765  0.4220  0.2631
 1724SOL    MW4 6943   0.709   2.860   3.042 -0.3342  0.4168  0.1915
 1725SOL     OW 6944   0.702   3.120   3.109  0.1231 -0.4538 -0.3061
 1725SOL    HW2 6945   0.708   3.126   3.204 -1.5661 -0.4730 -0.1913
 1725SOL    HW3 6946   0.624   3.171   3.086  1.6272  1.2357 -1.8666
 1725SOL    MW4 6947   0.692   3.128   3.118  0.0987 -0.2334 -0.4969
 1726SOL     OW 6948   0.478   3.251   2.995  0.1947 -0.3916 -0.1448
 1726SOL    HW2 6949   0.479   3.335   3.041 -1.1962 -1.0063  1.0383
 1726SOL    HW3 6950   0.408   3.201   3.037  0.4679 -1.8492 -1.3756
 1726SOL    MW4 6951   0.469   3.255   3.007  0.0472 -0.6649 -0.1509
 1727SOL     OW 6952   0.481   3.500   3.124 -1.0293 -0.1512  0.2721
 1727SOL    HW2 6953   0.470   3.501   3.219 -0.8852  0.8846  0.2866
 1727SOL    HW3 6954   0.401   3.538   3.090 -0.0305  1.8879  0.1124
 1727SOL    MW4 6955   0.469   3.505   3.132 -0.8785  0.2544  0.2530
 1728SOL     OW 6956   0.702   3.641   3.019 -0.0773 -0.0553 -0.3442
 1728SOL    HW2 6957   0.778   3.592   3.048  1.0234  1.3419 -0.8177
 1728SOL    HW3 6958   0.628   3.601   3.066  0.8221 -1.9093 -0.4648
 1728SOL    MW4 6959   0.702   3.629   3.029  0.1866 -0.1156 -0.4222
 1729SOL     OW 6960   0.678   3.911   3.118 -0.2746 -0.2285  0.4079
 1729SOL    HW2 6961   0.670   3.897   3.212  0.8825 -0.4246  0.4887
 1729SOL    HW3 6962   0.692   3.823   3.082  0.5941 -0.0216  0.2098
 1729SOL    MW4 6963   0.679   3.897   3.126 -0.0073 -0.2272  0.3924
 1730SOL     OW 6964   0.467   4.042   3.029  0.2713 -0.5091  0.1120
 1730SOL    HW2 6965   0.543   3.991   3.059  1.8364  0.2311 -2.4247
 1730SOL    HW3 6966   0.468   4.032   2.934 -2.9219 -0.5617  0.0376
 1730SOL    MW4 6967   0.477   4.034   3.021  0.0565 -0.4182 -0.2325
 1731SOL     OW 6968   0.447   4.290   3.134 -0.0484  0.0288  0.0409
 1731SOL    HW2 6969   0.451   4.199   3.106  0.2972  0.3025 -0.8453
 1731SOL    HW3 6970   0.368   4.325   3.093 -0.9299 -0.2250  1.5019
 1731SOL    MW4 6971   0.437   4.283   3.125 -0.1191  0.0315  0.1163
 1732SOL     OW 6972   0.696   4.397   3.006  0.3115 -0.0837  0.1115
 1732SOL    HW2 6973   0.612   4.365   3.039 -0.9731  2.8984 -0.0732
 1732SOL    HW3 6974   0.694   4.380   2.912  0.0898 -0.3967  0.1733
 1732SOL    MW4 6975   0.685   4.391   2.998  0.1127  0.2685  0.0951
 1733SOL     OW 6976   1.128   4.662   3.142 -0.2410 -0.3568  0.0924
 1733SOL    HW2 6977   1.137   4.576   3.102  1.3680  0.3446 -1.1394
 1733SOL    HW3 6978   1.048   4.698   3.105  0.5916 -0.2050 -1.6199
 1733SOL    MW4 6979   1.119   4.656   3.132  0.0812 -0.2437 -0.2959
 1734SOL     OW 6980   0.898   0.119   2.993  0.0722  0.4302 -0.2105
 1734SOL    HW2 6981   0.893   0.204   3.036 -1.0230  0.3773 -0.2206
 1734SOL    HW3 6982   0.823   0.071   3.026 -0.1728  0.0081 -1.3606
 1734SOL    MW4 6983   0.888   0.124   3.003 -0.1045  0.3675 -0.3638
 1735SOL     OW 6984   0.909   0.394   3.098 -0.5088  0.8188  0.1283
 1735SOL    HW2 6985   0.915   0.387   3.193  0.5321 -0.5154 -0.0058
 1735SOL    HW3 6986   0.984   0.449   3.074  1.5187 -1.9487 -0.1880
 1735SOL    MW4 6987   0.920   0.400   3.107 -0.1040  0.2775  0.0691
 1736SOL     OW 6988   1.145   0.519   3.025  0.0769 -0.2637 -0.6909
 1736SOL    HW2 6989   1.225   0.472   3.047  0.0834 -0.0151 -0.1777
 1736SOL    HW3 6990   1.135   0.508   2.930 -0.7909 -2.6493 -0.3514
 1736SOL    MW4 6991   1.154   0.511   3.015 -0.0367 -0.5456 -0.5784
 1737SOL     OW 6992   1.134   0.788   3.094 -0.1853  0.3542 -0.2531
 1737SOL    HW2 6993   1.151   0.700   3.061  1.7045  0.9826 -0.9716
 1737SOL    HW3 6994   1.119   0.775   3.188  0.7441 -0.6377 -0.2327
 1737SOL    MW4 6995   1.134   0.774   3.102  0.1867  0.3062 -0.3452
 1738SOL     OW 6996   0.920   0.937   2.996 -0.0483 -0.3362 -0.1345
 1738SOL    HW2 6997   1.006   0.901   3.016  0.1539  0.7776  1.0882
 1738SOL    HW3 6998   0.863   0.904   3.066 -0.0991  0.8280  0.3768
 1738SOL    MW4 6999   0.924   0.928   3.008 -0.0283 -0.0357  0.0944
 1739SOL     OW 7000   0.946   1.209   3.089  0.2696  0.7610  0.5722
 1739SOL    HW2 7001   1.028   1.250   3.064 -0.1329  2.3796  1.8454
 1739SOL    HW3 7002   0.949   1.123   3.047  1.5348  1.7053 -1.3610
 1739SOL    MW4 7003   0.957   1.203   3.080  0.3834  1.0993  0.4849
 1740SOL     OW 7004   1.182   1.324   3.017  0.2457  0.1175  0.0066
 1740SOL    HW2 7005   1.246   1.262   3.050  0.9906  0.7828 -0.1755
 1740SOL    HW3 7006   1.190   1.318   2.921  0.5212  0.7064 -0.0063
 1740SOL    MW4 7007   1.191   1.315   3.008  0.3803  0.2829 -0.0188
 1741SOL     OW 7008   1.154   1.575   3.137 -0.3883 -0.2494 -0.5193
 1741SOL    HW2 7009   1.156   1.553   3.231 -0.3138  0.7724 -0.2722
 1741SOL    HW3 7010   1.163   1.491   3.093 -0.5680 -0.7632  0.3929
 1741SOL    MW4 7011   1.155   1.561   3.144 -0.4022 -0.1824 -0.3662
 1742SOL     OW 7012   0.921   1.699   3.074  0.1214 -0.2302  0.0604
 1742SOL    HW2 7013   0.996   1.646   3.101 -0.2331 -1.2555 -0.9577
 1742SOL    HW3 7014   0.845   1.649   3.103 -0.1896  0.3621  0.2711
 1742SOL    MW4 7015   0.921   1.685   3.082  0.0335 -0.2873 -0.0465
 1743SOL     OW 7016   0.905   1.961   3.172  0.0006 -0.1045 -0.0404
 1743SOL    HW2 7017   0.913   1.873   3.136  0.1332  0.6166 -1.7774
 1743SOL    HW3 7018   0.875   1.947   3.262  1.4237 -1.9745  0.1577
 1743SOL    MW4 7019   0.902   1.948   3.179  0.2059 -0.2559 -0.2432
 1744SOL     OW 7020   1.107   2.089   3.019 -0.0704  0.4474  0.2936
 1744SOL    HW2 7021   1.185   2.042   3.049 -0.2699 -0.6283 -0.8465
 1744SOL    HW3 7022   1.034   2.045   3.062 -0.1873  0.3455 -0.0096
 1744SOL    MW4 7023   1.107   2.077   3.029 -0.1123  0.2921  0.1032
 1745SOL     OW 7024   1.119   2.348   3.106  0.4625 -0.2943 -0.1264
 1745SOL    HW2 7025   1.052   2.396   3.055  0.8899  1.1447  0.6329
 1745SOL    HW3 7026   1.116   2.259   3.071 -0.5461  0.2128 -1.3992
 1745SOL    MW4 7027   1.109   2.343   3.095  0.3859 -0.0377 -0.1941
 1746SOL     OW 7028   0.903   2.501   3.016  0.3251  0.2261 -0.5080
 1746SOL    HW2 7029   0.830   2.452   3.052  0.2931  0.5368 -0.1473
 1746SOL    HW3 7030   0.894   2.492   2.921 -1.2077  1.7311 -0.5266
 1746SOL    MW4 7031   0.892   2.493   3.008  0.1187  0.4654 -0.4628
 1747SOL     OW 7032   0.954   2.760   3.120  0.3407  0.1771  0.2360
 1747SOL    HW2 7033   0.956   2.752   3.215 -0.8808 -1.8006  0.1420
 1747SOL    HW3 7034   0.948   2.669   3.089 -0.6980  0.8602 -1.6672
 1747SOL    MW4 7035   0.953   2.747   3.128  0.0425  0.0062 -0.0277
 1748SOL     OW 7036   1.164   2.848   2.972 -0.3888 -0.1098 -0.9585
 1748SOL    HW2 7037   1.183   2.935   3.006  0.3584 -1.6977  2.9774
 1748SOL    HW3 7038   1.081   2.824   3.014  0.8469 -2.3865  0.2664
 1748SOL    MW4 7039   1.155   2.856   2.982 -0.1272 -0.6196 -0.2778
 1749SOL     OW 7040   1.176   3.095   3.078 -0.3759  0.1087 -0.0059
 1749SOL    HW2 7041   1.239   3.152   3.035  0.9713 -0.8666  0.6194
 1749SOL    HW3 7042   1.091   3.127   3.050  0.4284  0.5195 -2.0580
 1749SOL    MW4 7043   1.173   3.107   3.069 -0.0920  0.0341 -0.1943
 1750SOL     OW 7044   0.943   3.236   3.006  0.3967 -0.0468 -0.2132
 1750SOL    HW2 7045   0.866   3.193   3.042  0.5925  0.9907  1.4804
 1750SOL    HW3 7046   0.928   3.237   2.912 -0.3000 -2.4730 -0.1663
 1750SOL    MW4 7047   0.931   3.230   2.998  0.3307 -0.2298  0.0167
 1751SOL     OW 7048   0.932   3.492   3.093 -0.0170  0.1717 -0.2296
 1751SOL    HW2 7049   0.993   3.549   3.047 -1.4283  0.9122 -1.2619
 1751SOL    HW3 7050   0.946   3.405   3.054  0.5159  0.3000 -0.3197
 1751SOL    MW4 7051   0.942   3.488   3.081 -0.1329  0.2863 -0.3777
 1752SOL     OW 7052   1.120   3.660   2.988 -0.3246  0.2756 -0.0483
 1752SOL    HW2 7053   1.195   3.607   3.017 -1.3402 -0.7223  0.7624
 1752SOL    HW3 7054   1.111   3.727   3.056 -0.7243 -0.1354  0.2992
 1752SOL    MW4 7055   1.129   3.662   3.001 -0.5113  0.0896  0.1044
 1753SOL     OW 7056   1.092   3.858   3.190  0.1525 -0.2552 -0.2873
 1753SOL    HW2 7057   1.074   3.873   3.283  1.6446  0.3803 -0.0920
 1753SOL    HW3 7058   1.024   3.907   3.144  0.2547  0.5939  0.4489
 1753SOL    MW4 7059   1.080   3.866   3.196  0.3629 -0.0591 -0.1643
 1754SOL     OW 7060   0.927   4.008   3.020  0.0055  0.1531  0.2930
 1754SOL    HW2 7061   0.832   3.996   3.032  0.1311 -1.7245 -0.3494
 1754SOL    HW3 7062   0.941   4.000   2.926  0.7620  0.7760  0.3509
 1754SOL    MW4 7063   0.916   4.005   3.009  0.1218 -0.0129  0.2158
 1755SOL     OW 7064   0.924   4.276   3.122 -0.3194  0.0094 -0.2718
 1755SOL    HW2 7065   0.927   4.185   3.093  0.0549  0.1216 -0.5911
 1755SOL    HW3 7066   0.844   4.312   3.085 -1.6852 -0.8331  1.7645
 1755SOL    MW4 7067   0.914   4.269   3.113 -0.4501 -0.0873 -0.0455
 1756SOL     OW 7068   1.128   4.415   3.026  0.3997  0.5272 -0.0928
 1756SOL    HW2 7069   1.201   4.366   3.065 -0.4945  0.7304  1.8361
 1756SOL    HW3 7070   1.050   4.375   3.063 -0.4738  0.6817 -1.7382
 1756SOL    MW4 7071   1.128   4.403   3.036  0.1664  0.5741 -0.0556
 1757SOL     OW 7072   1.597   4.648   3.090 -0.0688 -0.2914 -0.4938
 1757SOL    HW2 7073   1.596   4.653   3.186 -0.1770 -0.5443 -0.4813
 1757SOL    HW3 7074   1.519   4.696   3.063 -0.3229 -0.6674 -0.4331
 1757SOL    MW4 7075   1.587   4.655   3.099 -0.1165 -0.3748 -0.4842
 1758SOL     OW 7076   1.360   0.099   3.035 -0.2606  0.3089  0.3618
 1758SOL    HW2 7077   1.277   0.071   3.072 -0.4429 -0.7401 -0.8200
 1758SOL    HW3 7078   1.344   0.104   2.941  1.7086 -2.4573 -0.1724
 1758SOL    MW4 7079   1.347   0.096   3.028 -0.0248 -0.1945  0.1354
 1759SOL     OW 7080   1.386   0.378   3.107 -0.1407  0.0133  0.0954
 1759SOL    HW2 7081   1.391   0.378   3.202  0.1196 -0.5463  0.0875
 1759SOL    HW3 7082   1.373   0.286   3.084 -0.4193  0.1716 -0.3989
 1759SOL    MW4 7083   1.385   0.366   3.116 -0.1431 -0.0396  0.0293
 1760SOL     OW 7084   1.623   0.482   3.009 -0.2351 -0.0052  0.1462
 1760SOL    HW2 7085   1.612   0.576   3.025  0.7407  0.4080 -1.4758
 1760SOL    HW3 7086   1.542   0.443   3.041 -0.6305  1.3715  0.9013
 1760SOL    MW4 7087   1.611   0.489   3.016 -0.1585  0.2310  0.0319
 1761SOL     OW 7088   1.581   0.741   3.113 -0.6504 -0.0491  0.1558
 1761SOL    HW2 7089   1.560   0.739   3.206  1.8312  0.9447  0.7861
 1761SOL    HW3 7090   1.531   0.814   3.079 -1.0042  0.0442  0.8631
 1761SOL    MW4 7091   1.572   0.750   3.121 -0.3695  0.0943  0.3321
 1762SOL     OW 7092   1.381   0.918   3.028  0.1607 -0.2991  0.1224
 1762SOL    HW2 7093   1.389   0.992   3.089 -1.5233  1.0548 -1.2507
 1762SOL    HW3 7094   1.295   0.880   3.047 -0.3377  0.0714 -1.3182
 1762SOL    MW4 7095   1.371   0.923   3.039 -0.1271 -0.0715 -0.2489
 1763SOL     OW 7096   1.380   1.185   3.131  0.0306 -0.1307  0.2028
 1763SOL    HW2 7097   1.399   1.178   3.224  1.0528  0.8137  0.0779
 1763SOL    HW3 7098   1.463   1.211   3.091 -0.9855  1.9384 -0.6513
 1763SOL    MW4 7099   1.393   1.187   3.138  0.0314  0.2668  0.0737
 1764SOL     OW 7100   1.590   1.286   3.012  0.4024  0.2664  0.3016
 1764SOL    HW2 7101   1.674   1.246   3.035  1.4962  2.0538 -0.4541
 1764SOL    HW3 7102   1.588   1.368   3.061 -0.0883  1.0820 -1.0572
 1764SOL    MW4 7103   1.601   1.292   3.021  0.4821  0.6099  0.0229
 1765SOL     OW 7104   1.576   1.550   3.123  0.0181 -0.1033 -0.3127
 1765SOL    HW2 7105   1.654   1.587   3.081  0.0461 -0.2991 -0.4330
 1765SOL    HW3 7106   1.506   1.613   3.104  0.7001  1.4228  2.0022
 1765SOL    MW4 7107   1.577   1.563   3.115  0.1117  0.0722 -0.0234
 1766SOL     OW 7108   1.366   1.711   3.051 -0.4821 -0.1475  0.5798
 1766SOL    HW2 7109   1.305   1.662   3.107 -2.1348  0.0643 -0.9753
 1766SOL    HW3 7110   1.357   1.670   2.965 -0.2213  1.4573 -0.2316
 1766SOL    MW4 7111   1.357   1.699   3.047 -0.6657  0.0921  0.2677
 1767SOL     OW 7112   1.334   1.981   3.117 -0.2043  0.1982  0.4826
 1767SOL    HW2 7113   1.353   1.891   3.089 -1.8621 -0.1280  0.3935
 1767SOL    HW3 7114   1.306   1.972   3.208 -0.5605  0.6093  0.4121
 1767SOL    MW4 7115   1.333   1.968   3.125 -0.4699  0.2093  0.4616
 1768SOL     OW 7116   1.575   2.081   3.032  0.1840 -0.3179  0.1503
 1768SOL    HW2 7117   1.487   2.057   3.059  0.2255 -0.8290 -0.1560
 1768SOL    HW3 7118   1.569   2.090   2.937 -0.1636  2.3254  0.4030
 1768SOL    MW4 7119   1.563   2.079   3.023  0.1435 -0.0367  0.1433
 1769SOL     OW 7120   1.592   2.339   3.133  0.3439 -0.1222  0.2016
 1769SOL    HW2 7121   1.509   2.380   3.110  1.8240  2.2456 -1.2299
 1769SOL    HW3 7122   1.592   2.256   3.087 -0.5089  0.6375 -1.2215
 1769SOL    MW4 7123   1.581   2.334   3.124  0.4267  0.2904 -0.1752
 1770SOL     OW 7124   1.359   2.423   2.983  0.0040  0.3316 -0.3361
 1770SOL    HW2 7125   1.277   2.389   3.019  0.9211 -2.2213 -0.5487
 1770SOL    HW3 7126   1.348   2.416   2.888  0.3912  0.1423 -0.3697
 1770SOL    MW4 7127   1.347   2.417   2.975  0.1762 -0.0303 -0.3686
 1771SOL     OW 7128   1.366   2.689   3.089 -0.1406 -0.2942  0.0477
 1771SOL    HW2 7129   1.352   2.604   3.047 -0.2964 -0.6361  0.7857
 1771SOL    HW3 7130   1.300   2.746   3.051  0.0289 -0.4820 -0.5247
 1771SOL    MW4 7131   1.356   2.685   3.079 -0.1386 -0.3641  0.0699
 1772SOL     OW 7132   1.610   2.830   3.010  0.0646  0.2097  0.3538
 1772SOL    HW2 7133   1.693   2.798   3.046  0.2559  1.5379  1.1234
 1772SOL    HW3 7134   1.543   2.774   3.049  0.5900 -0.8509 -0.2484
 1772SOL    MW4 7135   1.612   2.818   3.020  0.1593  0.2451  0.3757
 1773SOL     OW 7136   1.371   3.262   2.969 -0.1532  0.2140 -0.1628
 1773SOL    HW2 7137   1.444   3.206   2.996 -2.2546 -1.7580  1.6200
 1773SOL    HW3 7138   1.369   3.254   2.874  0.5514 -1.5080 -0.0541
 1773SOL    MW4 7139   1.381   3.254   2.960 -0.3376 -0.2732  0.0868
 1774SOL     OW 7140   1.571   3.099   3.078  0.2803 -0.3851 -0.3705
 1774SOL    HW2 7141   1.574   3.088   3.173  1.2900 -0.2406 -0.3785
 1774SOL    HW3 7142   1.595   3.013   3.043  3.7259  0.5369 -0.4541
 1774SOL    MW4 7143   1.575   3.086   3.086  0.8682 -0.2444 -0.3827
 1775SOL     OW 7144   1.331   3.517   3.096 -0.3572  0.0093  0.0623
 1775SOL    HW2 7145   1.327   3.505   3.191 -1.0311 -0.2687  0.0049
 1775SOL    HW3 7146   1.339   3.428   3.061 -2.3482 -0.0873 -0.2319
 1775SOL    MW4 7147   1.331   3.504   3.104 -0.7089 -0.0401  0.0160
 1776SOL     OW 7148   1.597   3.607   3.056  0.1839  0.0700 -0.0446
 1776SOL    HW2 7149   1.515   3.572   3.090  0.6201 -1.7755 -0.8431
 1776SOL    HW3 7150   1.585   3.609   2.961  0.2177  2.0063 -0.0316
 1776SOL    MW4 7151   1.585   3.603   3.048  0.2458  0.0820 -0.1483
 1777SOL     OW 7152   1.570   3.883   3.093 -0.0930  0.4473 -0.0309
 1777SOL    HW2 7153   1.587   3.905   3.185  1.9619  1.4096 -0.6150
 1777SOL    HW3 7154   1.556   3.788   3.094  0.8591  0.3060  1.1463
 1777SOL    MW4 7155   1.570   3.873   3.106  0.3039  0.5558  0.0470
 1778SOL     OW 7156   1.318   3.975   3.022 -0.1942  0.2835 -0.0816
 1778SOL    HW2 7157   1.396   3.923   3.041 -0.5941  0.1551  1.2568
 1778SOL    HW3 7158   1.256   3.950   3.090 -1.1502  0.9204 -0.7148
 1778SOL    MW4 7159   1.320   3.965   3.033 -0.3730  0.3507  0.0114
 1779SOL     OW 7160   1.347   4.255   3.120 -0.0493  0.1401  0.6075
 1779SOL    HW2 7161   1.345   4.164   3.093 -0.1351  0.6743 -1.2488
 1779SOL    HW3 7162   1.437   4.284   3.103 -0.5589  0.9614 -0.8172
 1779SOL    MW4 7163   1.359   4.247   3.114 -0.1279  0.3190  0.1748
 1780SOL     OW 7164   1.580   4.381   3.018  0.6145  0.6704  0.5186
 1780SOL    HW2 7165   1.652   4.340   3.065 -0.3346 -0.0437  1.3853
 1780SOL    HW3 7166   1.577   4.470   3.052  1.1627  0.7350  0.3937
 1780SOL    MW4 7167   1.589   4.387   3.029  0.5616  0.5846  0.6168
 1781SOL     OW 7168   2.081   4.658   3.125  0.1532  0.4189 -0.4333
 1781SOL    HW2 7169   2.074   4.639   3.219 -0.0264 -1.0021 -0.7286
 1781SOL    HW3 7170   1.998   4.700   3.102  0.2690  0.9310  0.0810
 1781SOL    MW4 7171   2.069   4.661   3.134  0.1450  0.2990 -0.4046
 1782SOL     OW 7172   1.843   0.097   3.039  0.2923  0.3303  0.1355
 1782SOL    HW2 7173   1.775   0.030   3.054  1.9717 -1.5122 -0.3246
 1782SOL    HW3 7174   1.832   0.122   2.947  0.8748 -0.7254 -0.2342
 1782SOL    MW4 7175   1.832   0.091   3.029  0.5907 -0.0521  0.0262
 1783SOL     OW 7176   1.825   0.347   3.164 -0.1125  0.4156 -0.0237
 1783SOL    HW2 7177   1.819   0.257   3.131  0.0719  0.0251  0.9944
 1783SOL    HW3 7178   1.752   0.392   3.122  0.2317 -0.0234 -1.1194
 1783SOL    MW4 7179   1.814   0.341   3.154 -0.0428  0.3062 -0.0341
 1784SOL     OW 7180   2.049   0.486   3.038 -0.3431 -0.5768  0.1760
 1784SOL    HW2 7181   1.971   0.438   3.063 -1.5206 -0.0215 -2.2985
 1784SOL    HW3 7182   2.044   0.493   2.943  1.3352  1.7954  0.2067
 1784SOL    MW4 7183   2.038   0.481   3.029 -0.2770 -0.1905 -0.1466
 1785SOL     OW 7184   2.078   0.753   3.127  0.0495 -0.5586  0.5319
 1785SOL    HW2 7185   2.068   0.664   3.093  0.5715 -0.3818 -0.1082
 1785SOL    HW3 7186   1.996   0.797   3.104 -0.1243 -0.8152  0.6622
 1785SOL    MW4 7187   2.066   0.747   3.119  0.0954 -0.5692  0.4647
 1786SOL     OW 7188   1.827   0.864   3.050  0.2577 -0.1816 -0.3506
 1786SOL    HW2 7189   1.754   0.811   3.084  1.5708 -1.9996 -0.3032
 1786SOL    HW3 7190   1.811   0.867   2.955  1.2412 -2.3507 -0.6012
 1786SOL    MW4 7191   1.815   0.857   3.042  0.5606 -0.7076 -0.3777
 1787SOL     OW 7192   1.797   1.126   3.124 -0.0512  0.5494  0.2661
 1787SOL    HW2 7193   1.804   1.127   3.220 -1.4790 -1.0854  0.4243
 1787SOL    HW3 7194   1.801   1.033   3.101 -1.6723  0.7876 -1.0721
 1787SOL    MW4 7195   1.798   1.114   3.134 -0.4534  0.3650  0.1104
 1788SOL     OW 7196   2.025   1.271   3.034  0.3054 -0.0787  0.4218
 1788SOL    HW2 7197   2.102   1.252   3.087  0.6041 -1.2819 -0.4149
 1788SOL    HW3 7198   1.959   1.210   3.065 -0.1819  0.6574  0.8432
 1788SOL    MW4 7199   2.027   1.261   3.045  0.2806 -0.1403  0.3672
 1789SOL     OW 7200   2.019   1.537   3.089  0.9463 -0.1981 -0.0705
 1789SOL    HW2 7201   2.024   1.543   3.184 -0.4193 -1.8451  0.1273
 1789SOL    HW3 7202   2.018   1.444   3.070  1.1168  0.1049 -1.6987
 1789SOL    MW4 7203   2.019   1.526   3.099  0.7887 -0.3754 -0.2594
 1790SOL     OW 7204   1.790   1.670   3.021 -0.2555 -0.4393  0.1423
 1790SOL    HW2 7205   1.798   1.755   3.065  1.2331 -0.2588 -0.4485
 1790SOL    HW3 7206   1.874   1.626   3.038 -0.9324 -1.6943  0.2571
 1790SOL    MW4 7207   1.802   1.676   3.029 -0.1484 -0.5810  0.0796
 1791SOL     OW 7208   1.774   1.940   3.143 -0.1813  0.1859 -0.1782
 1791SOL    HW2 7209   1.850   1.993   3.118  0.4170 -0.4169  0.3221
 1791SOL    HW3 7210   1.699   1.990   3.113  0.2999  2.0373  1.5467
 1791SOL    MW4 7211   1.774   1.954   3.136 -0.0387  0.3506  0.1156
 1792SOL     OW 7212   1.995   2.086   3.006  0.1865  0.7388  0.0079
 1792SOL    HW2 7213   2.066   2.023   3.016  1.0241  1.4467 -1.2874
 1792SOL    HW3 7214   2.025   2.163   3.053  0.2349  0.9968 -0.4380
 1792SOL    MW4 7215   2.008   2.088   3.013  0.3037  0.8664 -0.2217
 1793SOL     OW 7216   2.079   2.337   3.082 -0.2103  0.6423 -0.0537
 1793SOL    HW2 7217   2.153   2.373   3.033 -0.7611 -1.0834 -2.2423
 1793SOL    HW3 7218   2.002   2.377   3.042 -0.6008  0.2773  0.3278
 1793SOL    MW4 7219   2.079   2.347   3.071 -0.3345  0.3664 -0.2921
 1794SOL     OW 7220   1.839   2.463   3.003  0.4691  0.3764  0.0463
 1794SOL    HW2 7221   1.840   2.550   3.044  0.2400  0.1865  0.4613
 1794SOL    HW3 7222   1.770   2.417   3.049  0.3417  0.0939 -0.4314
 1794SOL    MW4 7223   1.830   2.469   3.014  0.4221  0.3140  0.0377
 1795SOL     OW 7224   1.839   2.726   3.105  0.6528 -0.0676  0.5318
 1795SOL    HW2 7225   1.827   2.739   3.199 -0.5545  0.9104  0.2676
 1795SOL    HW3 7226   1.920   2.773   3.085 -1.0761  2.9931  0.4576
 1795SOL    MW4 7227   1.848   2.734   3.115  0.2655  0.4654  0.4873
 1796SOL     OW 7228   2.079   2.855   3.041 -0.1728  1.0075 -0.3082
 1796SOL    HW2 7229   2.069   2.946   3.069  0.2872  1.2311 -0.8682
 1796SOL    HW3 7230   2.064   2.857   2.946 -1.6588  0.2651 -0.1090
 1796SOL    MW4 7231   2.076   2.867   3.032 -0.3083  0.9391 -0.3560
 1797SOL     OW 7232   2.053   3.131   3.131 -0.0356 -0.1279  0.1339
 1797SOL    HW2 7233   2.026   3.112   3.221 -0.4267 -0.1557  0.0115
 1797SOL    HW3 7234   1.976   3.171   3.090  0.7676  1.7328  0.3820
 1797SOL    MW4 7235   2.039   3.134   3.137  0.0186  0.1140  0.1507
 1798SOL     OW 7236   1.799   3.202   3.023 -0.7937 -0.0879  0.4316
 1798SOL    HW2 7237   1.709   3.175   3.043 -1.2977  0.8610 -0.5688
 1798SOL    HW3 7238   1.801   3.212   2.928  0.2121  0.4783  0.5048
 1798SOL    MW4 7239   1.788   3.199   3.013 -0.7275  0.1118  0.3095
 1799SOL     OW 7240   1.814   3.440   3.138 -0.1716  0.0962 -0.3873
 1799SOL    HW2 7241   1.806   3.355   3.094  0.4327 -0.3145  0.2709
 1799SOL    HW3 7242   1.740   3.491   3.106 -1.6219 -1.3081  0.5752
 1799SOL    MW4 7243   1.803   3.435   3.128 -0.2832 -0.1431 -0.1736
 1800SOL     OW 7244   2.022   3.576   3.037  0.1556  0.5220  0.1500
 1800SOL    HW2 7245   2.014   3.670   3.053 -0.7048  0.7553 -1.5914
 1800SOL    HW3 7246   1.947   3.538   3.082 -1.3158  1.0070 -1.8566
 1800SOL    MW4 7247   2.011   3.583   3.045 -0.1519  0.6170 -0.3443
 1801SOL     OW 7248   2.002   3.848   3.102  0.0379 -0.0973 -0.4022
 1801SOL    HW2 7249   2.011   3.845   3.197  0.8298  1.6794 -0.3936
 1801SOL    HW3 7250   1.919   3.893   3.087  0.3632  0.4550 -0.5514
 1801SOL    MW4 7251   1.993   3.854   3.112  0.1853  0.2100 -0.4208
 1802SOL     OW 7252   1.794   4.030   3.005 -0.0370  0.1344  0.6336
 1802SOL    HW2 7253   1.720   3.974   3.028  0.1442 -0.0884  0.6832
 1802SOL    HW3 7254   1.795   4.031   2.910 -1.5468  2.0727  0.6308
 1802SOL    MW4 7255   1.784   4.022   2.996 -0.2122  0.3610  0.6399
 1803SOL     OW 7256   1.819   4.275   3.135  0.1267 -0.1115  0.1877
 1803SOL    HW2 7257   1.821   4.190   3.091 -0.2847 -0.6442  1.1872
 1803SOL    HW3 7258   1.891   4.324   3.097  0.8792 -1.2028  0.2007
 1803SOL    MW4 7259   1.829   4.271   3.124  0.1718 -0.3252  0.3214
 1804SOL     OW 7260   2.035   4.413   3.002  0.1957 -0.2871  0.1138
 1804SOL    HW2 7261   2.049   4.502   3.034  0.7743 -0.3966  0.1741
 1804SOL    HW3 7262   2.029   4.422   2.907 -2.2318  0.1339  0.2653
 1804SOL    MW4 7263   2.036   4.426   2.994 -0.0484 -0.2456  0.1419
 1805SOL     OW 7264   2.504   0.013   3.134  0.0597 -0.3415  0.0590
 1805SOL    HW2 7265   2.502  -0.076   3.097 -0.6974  0.2702 -1.4162
 1805SOL    HW3 7266   2.440   0.061   3.083 -0.4016  0.7640  1.6535
 1805SOL    MW4 7267   2.495   0.008   3.122 -0.1011 -0.1149  0.0751
 1806SOL     OW 7268   2.289   0.147   3.019  0.3791 -0.0504  0.0436
 1806SOL    HW2 7269   2.294   0.239   3.045  1.2310  0.2285 -1.0552
 1806SOL    HW3 7270   2.218   0.110   3.071  0.8722  0.9256  1.4151
 1806SOL    MW4 7271   2.280   0.154   3.029  0.5565  0.1152  0.0794
 1807SOL     OW 7272   2.304   0.421   3.136  0.3040  0.5210 -0.4393
 1807SOL    HW2 7273   2.306   0.416   3.231  1.2794  1.1490 -0.4244
 1807SOL    HW3 7274   2.217   0.458   3.116 -0.5118 -1.0583  0.1192
 1807SOL    MW4 7275   2.293   0.425   3.146  0.3252  0.3955 -0.3636
 1808SOL     OW 7276   2.558   0.500   3.043 -0.2127 -0.2807  0.3628
 1808SOL    HW2 7277   2.470   0.490   3.081 -0.7951  1.5890 -0.4358
 1808SOL    HW3 7278   2.547   0.478   2.950 -0.5484  3.0485 -0.4243
 1808SOL    MW4 7279   2.545   0.495   3.036 -0.3338  0.4053  0.1535
 1809SOL     OW 7280   2.505   0.766   3.140  0.0354 -0.0055  0.1725
 1809SOL    HW2 7281   2.576   0.820   3.107 -1.0364  0.5638 -1.2594
 1809SOL    HW3 7282   2.519   0.680   3.101 -0.7248  0.4286 -1.0856
 1809SOL    MW4 7283   2.516   0.762   3.130 -0.2062  0.1268 -0.1824
 1810SOL     OW 7284   2.284   0.905   3.037  0.2242 -0.3230 -0.0501
 1810SOL    HW2 7285   2.358   0.860   3.078  1.7479  0.8694 -1.4211
 1810SOL    HW3 7286   2.207   0.855   3.065  1.7024 -2.6828 -0.0639
 1810SOL    MW4 7287   2.283   0.893   3.046  0.6204 -0.4771 -0.2327
 1811SOL     OW 7288   2.271   1.147   3.162  0.1772 -0.2250  0.7483
 1811SOL    HW2 7289   2.272   1.138   3.258 -0.2906 -1.1979  0.6719
 1811SOL    HW3 7290   2.296   1.060   3.130 -0.4452 -0.1233 -0.0286
 1811SOL    MW4 7291   2.275   1.134   3.171  0.0334 -0.3401  0.6354
 1812SOL     OW 7292   2.458   1.308   3.062 -0.2774  0.0245  0.4974
 1812SOL    HW2 7293   2.382   1.255   3.086 -1.3550  1.0305 -0.6226
 1812SOL    HW3 7294   2.457   1.310   2.966  1.1469  0.0704  0.4739
 1812SOL    MW4 7295   2.448   1.301   3.052 -0.2315  0.1634  0.3464
 1813SOL     OW 7296   2.419   1.568   3.161 -0.4921  0.2029 -0.1467
 1813SOL    HW2 7297   2.355   1.600   3.097 -2.6461 -0.5227  1.5857
 1813SOL    HW3 7298   2.425   1.474   3.144  0.1453  0.2792 -0.3358
 1813SOL    MW4 7299   2.411   1.560   3.150 -0.6921  0.1173  0.0570
 1814SOL     OW 7300   2.213   1.653   2.960  0.5997  0.0053  0.2330
 1814SOL    HW2 7301   2.143   1.597   2.991 -1.6631  3.0954  0.9754
 1814SOL    HW3 7302   2.210   1.647   2.865 -2.5359  2.1640  0.1327
 1814SOL    MW4 7303   2.204   1.645   2.952 -0.1125  0.6977  0.3176
 1815SOL     OW 7304   2.199   1.908   3.107 -0.1180  0.1719 -0.1159
 1815SOL    HW2 7305   2.282   1.947   3.080  0.3083 -0.0431  0.8835
 1815SOL    HW3 7306   2.191   1.828   3.054  1.1983 -0.7773  1.0807
 1815SOL    MW4 7307   2.209   1.902   3.096  0.1121  0.0182  0.1738
 1816SOL     OW 7308   2.430   2.055   3.038  0.1770  0.0912  0.3441
 1816SOL    HW2 7309   2.501   2.000   3.069  0.6876  1.0713  0.9441
 1816SOL    HW3 7310   2.425   2.039   2.944  0.2330 -1.0621  0.5321
 1816SOL    MW4 7311   2.438   2.045   3.030  0.2518  0.0684  0.4480
 1817SOL     OW 7312   2.506   2.319   3.089 -0.1274 -0.0939 -0.7377
 1817SOL    HW2 7313   2.504   2.322   3.185  0.0466 -0.0557 -0.7346
 1817SOL    HW3 7314   2.487   2.227   3.068 -0.6536  0.0028 -0.6832
 1817SOL    MW4 7315   2.503   2.307   3.099 -0.1738 -0.0761 -0.7303
 1818SOL     OW 7316   2.282   2.467   2.967  0.3221  0.2215 -0.5171
 1818SOL    HW2 7317   2.288   2.540   3.028 -1.1510  1.2217 -1.5461
 1818SOL    HW3 7318   2.331   2.396   3.010  1.5884  1.7255  0.5774
 1818SOL    MW4 7319   2.289   2.467   2.981  0.2949  0.5517 -0.5085
 1819SOL     OW 7320   2.279   2.685   3.130  0.1025  0.3084  0.2525
 1819SOL    HW2 7321   2.360   2.735   3.118  0.0690  0.3496  0.1947
 1819SOL    HW3 7322   2.210   2.744   3.099  0.2543 -0.5597 -1.8108
 1819SOL    MW4 7323   2.281   2.700   3.124  0.1180  0.1993 -0.0274
 1820SOL     OW 7324   2.502   2.809   3.040  0.0252 -0.3701  0.0920
 1820SOL    HW2 7325   2.496   2.902   3.063  0.8603 -0.4316  0.5924
 1820SOL    HW3 7326   2.501   2.807   2.944 -2.2584 -0.0127  0.0941
 1820SOL    MW4 7327   2.501   2.821   3.031 -0.1659 -0.3309  0.1583
 1821SOL     OW 7328   2.520   3.058   3.148  0.1038 -0.0916 -0.3646
 1821SOL    HW2 7329   2.597   3.107   3.118  0.4419  0.3146  1.1231
 1821SOL    HW3 7330   2.446   3.108   3.116  0.4599  0.4905 -0.2905
 1821SOL    MW4 7331   2.521   3.071   3.140  0.1953  0.0386 -0.1583
 1822SOL     OW 7332   2.306   3.184   3.055 -0.2297  0.2647 -0.3124
 1822SOL    HW2 7333   2.311   3.273   3.090  0.6989  0.0262  0.1651
 1822SOL    HW3 7334   2.220   3.152   3.085 -0.6890  1.0900 -0.7200
 1822SOL    MW4 7335   2.295   3.192   3.064 -0.1676  0.3421 -0.3030
 1823SOL     OW 7336   2.280   3.438   3.121 -0.1722  0.4441  0.0716
 1823SOL    HW2 7337   2.350   3.475   3.067 -0.7525 -0.9188 -1.6757
 1823SOL    HW3 7338   2.201   3.481   3.089 -0.7138 -1.4489 -1.2361
 1823SOL    MW4 7339   2.279   3.449   3.110 -0.3202  0.0145 -0.3316
 1824SOL     OW 7340   2.476   3.587   3.000 -0.2163 -0.2642  0.0435
 1824SOL    HW2 7341   2.557   3.555   3.040  0.0192 -0.0047 -0.2221
 1824SOL    HW3 7342   2.466   3.676   3.033 -2.1039 -1.3802  2.6198
 1824SOL    MW4 7343   2.485   3.595   3.009 -0.4342 -0.3769  0.3481
 1825SOL     OW 7344   2.441   3.852   3.102 -0.0430 -0.2341  0.0271
 1825SOL    HW2 7345   2.455   3.858   3.196 -0.1698 -0.7363  0.0771
 1825SOL    HW3 7346   2.519   3.894   3.064 -0.0402  0.0582  0.3510
 1825SOL    MW4 7347   2.453   3.858   3.109 -0.0591 -0.2620  0.0765
 1826SOL     OW 7348   2.206   3.992   2.998  0.1991  0.1993 -0.3969
 1826SOL    HW2 7349   2.276   3.938   3.036 -0.5572 -0.6774 -0.2559
 1826SOL    HW3 7350   2.125   3.950   3.026 -0.4255  2.2193  0.9146
 1826SOL    MW4 7351   2.205   3.979   3.007  0.0169  0.3500 -0.2055
 1827SOL     OW 7352   2.260   4.265   3.100  0.2694 -0.4622  0.0444
 1827SOL    HW2 7353   2.262   4.185   3.048  0.1430  0.7810 -1.9101
 1827SOL    HW3 7354   2.179   4.309   3.075 -0.0740 -0.0902  1.7118
 1827SOL    MW4 7355   2.250   4.260   3.090  0.2074 -0.2489  0.0067
 1828SOL     OW 7356   2.499   4.418   3.034 -0.1817  0.6951  0.7216
 1828SOL    HW2 7357   2.417   4.377   3.060  0.3728 -0.2505  1.0035
 1828SOL    HW3 7358   2.496   4.420   2.938  0.6816 -1.9332  0.5904
 1828SOL    MW4 7359   2.488   4.413   3.025  0.0052  0.2236  0.7412
 1829SOL     OW 7360   2.967   4.664   3.150 -0.6354  1.1614 -0.3314
 1829SOL    HW2 7361   3.040   4.696   3.097 -0.0421 -0.6906 -0.6663
 1829SOL    HW3 7362   2.942   4.580   3.110 -1.3924  0.6294  1.1891
 1829SOL    MW4 7363   2.973   4.657   3.138 -0.6568  0.8459 -0.1748
 1830SOL     OW 7364   2.739   0.137   3.046 -0.1104  0.0221 -0.3145
 1830SOL    HW2 7365   2.797   0.085   3.102 -0.6946 -0.9590 -0.6043
 1830SOL    HW3 7366   2.651   0.109   3.070 -0.4078  0.4262 -0.9227
 1830SOL    MW4 7367   2.735   0.126   3.057 -0.2267 -0.0540 -0.4330
 1831SOL     OW 7368   2.775   0.385   3.165  0.1505  0.3805  0.0700
 1831SOL    HW2 7369   2.775   0.297   3.127 -0.1063 -0.0896  1.1238
 1831SOL    HW3 7370   2.702   0.430   3.122  0.3512  0.1144 -0.5508
 1831SOL    MW4 7371   2.765   0.379   3.154  0.1431  0.2834  0.1273
 1832SOL     OW 7372   2.960   0.554   3.032  0.1862  0.0880 -0.3245
 1832SOL    HW2 7373   2.894   0.492   3.064 -0.2612  0.8239  0.1837
 1832SOL    HW3 7374   2.940   0.563   2.939 -1.1365  1.1514  0.0425
 1832SOL    MW4 7375   2.948   0.547   3.024 -0.0477  0.3254 -0.2091
 1833SOL     OW 7376   2.931   0.799   3.155 -0.3600  0.0455  0.0904
 1833SOL    HW2 7377   2.940   0.794   3.250  3.1043 -0.6086 -0.2012
 1833SOL    HW3 7378   2.939   0.709   3.125  1.0550  0.5089 -0.9879
 1833SOL    MW4 7379   2.933   0.787   3.163  0.2837  0.0203 -0.0904
 1834SOL     OW 7380   2.701   0.920   3.033  0.3047 -0.1983 -0.7114
 1834SOL    HW2 7381   2.697   1.015   3.047 -1.2746 -0.4301  0.4408
 1834SOL    HW3 7382   2.776   0.892   3.085  0.0795  0.2450 -0.1444
 1834SOL    MW4 7383   2.711   0.929   3.042  0.0665 -0.1704 -0.4845
 1835SOL     OW 7384   2.708   1.167   3.142 -0.0250 -0.0183  0.2136
 1835SOL    HW2 7385   2.780   1.221   3.110  0.3842  0.0618  1.2299
 1835SOL    HW3 7386   2.629   1.216   3.120  0.1996 -0.3462 -1.3596
 1835SOL    MW4 7387   2.707   1.180   3.135  0.0589 -0.0510  0.1402
 1836SOL     OW 7388   2.945   1.287   3.059  0.0254  0.5148 -0.4798
 1836SOL    HW2 7389   3.029   1.248   3.081  0.3710  0.6145 -1.5615
 1836SOL    HW3 7390   2.947   1.373   3.101  0.7261  0.7619 -1.0013
 1836SOL    MW4 7391   2.956   1.293   3.067  0.1636  0.5606 -0.6914
 1837SOL     OW 7392   2.866   1.538   3.155  0.1774  0.2965  0.1117
 1837SOL    HW2 7393   2.875   1.545   3.250  1.3386  0.8717 -0.0279
 1837SOL    HW3 7394   2.952   1.563   3.121  0.1630 -1.1521 -1.0416
 1837SOL    MW4 7395   2.878   1.543   3.163  0.3288  0.1813 -0.0589
 1838SOL     OW 7396   2.671   1.660   3.036  0.0939 -0.2027 -0.1068
 1838SOL    HW2 7397   2.743   1.621   3.085 -0.3021 -1.9272 -0.8505
 1838SOL    HW3 7398   2.593   1.634   3.085 -0.1736 -0.3568 -0.6129
 1838SOL    MW4 7399   2.670   1.651   3.049  0.0062 -0.4505 -0.2718
 1839SOL     OW 7400   2.675   1.939   3.113 -0.1683  0.4039 -0.2746
 1839SOL    HW2 7401   2.762   1.971   3.089 -0.0506  0.4861  0.2707
 1839SOL    HW3 7402   2.677   1.846   3.089  0.6792 -0.0304  1.3599
 1839SOL    MW4 7403   2.687   1.931   3.106 -0.0410  0.3575  0.0131
 1840SOL     OW 7404   2.922   2.059   3.022  0.1636 -0.6793 -0.3456
 1840SOL    HW2 7405   2.931   2.153   3.034  0.1538 -0.7022 -0.1566
 1840SOL    HW3 7406   2.914   2.047   2.928 -0.4362 -0.4382 -0.3256
 1840SOL    MW4 7407   2.922   2.070   3.011  0.0832 -0.6502 -0.3181
 1841SOL     OW 7408   2.925   2.327   3.144 -0.4727 -0.3996  0.3495
 1841SOL    HW2 7409   3.004   2.376   3.120 -0.4435 -0.2665  0.7235
 1841SOL    HW3 7410   2.853   2.380   3.110 -0.4314 -0.2118  0.5584
 1841SOL    MW4 7411   2.926   2.340   3.136 -0.4632 -0.3572  0.4265
 1842SOL     OW 7412   2.728   2.467   2.996 -0.1242  0.2962 -0.3043
 1842SOL    HW2 7413   2.720   2.559   3.023 -0.5964  0.3557 -0.6349
 1842SOL    HW3 7414   2.644   2.428   3.019 -0.6115  0.3987 -1.8486
 1842SOL    MW4 7415   2.716   2.474   3.003 -0.2506  0.3178 -0.5517
 1843SOL     OW 7416   2.750   2.714   3.112  0.2037 -0.2666  0.7111
 1843SOL    HW2 7417   2.743   2.699   3.207 -0.0960 -1.4467  0.5121
 1843SOL    HW3 7418   2.664   2.749   3.087  0.0529 -0.5860  0.7711
 1843SOL    MW4 7419   2.738   2.716   3.122  0.1442 -0.4642  0.6931
 1844SOL     OW 7420   2.971   2.860   3.037  0.0356 -0.4076  0.1811
 1844SOL    HW2 7421   3.044   2.818   3.083 -0.6507 -0.1629  1.5036
 1844SOL    HW3 7422   2.893   2.811   3.065 -0.1177 -2.0826 -2.8887
 1844SOL    MW4 7423   2.970   2.848   3.046 -0.0753 -0.5963 -0.0494
 1845SOL     OW 7424   2.941   3.113   3.135  0.0289 -0.0774 -0.3610
 1845SOL    HW2 7425   2.859   3.147   3.100  0.6271  0.0371 -1.6735
 1845SOL    HW3 7426   2.950   3.027   3.094  0.0773 -0.5191  0.5506
 1845SOL    MW4 7427   2.931   3.106   3.125  0.1140 -0.1204 -0.4141
 1846SOL     OW 7428   2.701   3.205   3.016 -0.3043 -0.0699  0.1251
 1846SOL    HW2 7429   2.688   3.296   3.043 -1.5639  0.0918 -0.9525
 1846SOL    HW3 7430   2.716   3.211   2.921  0.2911 -0.9364  0.1597
 1846SOL    MW4 7431   2.702   3.218   3.007 -0.3922 -0.1633 -0.0126
 1847SOL     OW 7432   2.695   3.469   3.107  0.5434 -0.1286 -0.3068
 1847SOL    HW2 7433   2.692   3.482   3.202  0.2617  0.5551 -0.4117
 1847SOL    HW3 7434   2.775   3.513   3.079  0.5760 -0.2483 -0.4069
 1847SOL    MW4 7435   2.705   3.476   3.116  0.5105 -0.0544 -0.3338
 1848SOL     OW 7436   2.930   3.635   3.039 -0.3178  0.1132 -0.2943
 1848SOL    HW2 7437   3.006   3.589   3.073  1.0224  0.3235 -2.9027
 1848SOL    HW3 7438   2.941   3.726   3.069 -0.2545 -0.1365  0.4517
 1848SOL    MW4 7439   2.941   3.641   3.048 -0.1328  0.1080 -0.5400
 1849SOL     OW 7440   2.934   3.908   3.122  0.1798 -0.3557  0.1113
 1849SOL    HW2 7441   2.921   3.904   3.217  2.0020  0.5259  0.4320
 1849SOL    HW3 7442   2.850   3.938   3.088 -0.4990 -0.6790  1.4511
 1849SOL    MW4 7443   2.921   3.911   3.130  0.3307 -0.2823  0.3304
 1850SOL     OW 7444   2.690   3.985   3.007  0.1091 -0.3344  0.1931
 1850SOL    HW2 7445   2.697   4.078   3.031  1.6317 -0.6503  1.0422
 1850SOL    HW3 7446   2.699   3.984   2.912  2.7987  0.1928  0.3843
 1850SOL    MW4 7447   2.692   3.997   2.998  0.6649 -0.3064  0.3302
 1851SOL     OW 7448   2.699   4.248   3.122 -0.1012  0.2388 -0.2470
 1851SOL    HW2 7449   2.689   4.249   3.217 -0.8300  1.1620 -0.3209
 1851SOL    HW3 7450   2.622   4.296   3.090  0.7001  0.8790 -1.2463
 1851SOL    MW4 7451   2.687   4.255   3.130 -0.0918  0.4449 -0.3884
 1852SOL     OW 7452   2.929   4.413   3.024  0.0938  0.2471 -0.2868
 1852SOL    HW2 7453   3.005   4.366   3.058  0.4277 -1.5552 -3.3493
 1852SOL    HW3 7454   2.855   4.374   3.070  0.6414 -1.1638 -0.5718
 1852SOL    MW4 7455   2.929   4.402   3.034  0.2100 -0.1769 -0.7286
 1853SOL     OW 7456   3.377   4.650   3.164  0.3608 -0.2206 -0.0758
 1853SOL    HW2 7457   3.449   4.685   3.112  0.4702  0.7030  0.6716
 1853SOL    HW3 7458   3.351   4.570   3.119  1.3505 -0.1576 -0.7730
 1853SOL    MW4 7459   3.383   4.644   3.151  0.5059 -0.0901 -0.0691
 1854SOL     OW 7460   3.190   0.100   3.012  0.3695 -0.2403  0.2198
 1854SOL    HW2 7461   3.170   0.186   3.046 -1.5831 -0.9872  1.0022
 1854SOL    HW3 7462   3.263   0.069   3.066  0.9615  0.8183  0.0460
 1854SOL    MW4 7463   3.197   0.107   3.023  0.1898 -0.1992  0.3002
 1855SOL     OW 7464   3.180   0.368   3.101  0.0600  0.2149 -0.1277
 1855SOL    HW2 7465   3.263   0.396   3.061  0.1979 -0.6372 -0.4634
 1855SOL    HW3 7466   3.115   0.431   3.069  0.6314  1.0786  0.3940
 1855SOL    MW4 7467   3.182   0.380   3.092  0.1535  0.2164 -0.1032
 1856SOL     OW 7468   3.406   0.495   3.001 -0.0980 -0.2979 -0.1039
 1856SOL    HW2 7469   3.479   0.447   3.040 -0.8586 -0.3750  1.2329
 1856SOL    HW3 7470   3.433   0.509   2.910  0.5886 -2.3446 -0.2477
 1856SOL    MW4 7471   3.419   0.491   2.994 -0.1080 -0.5781  0.0534
 1857SOL     OW 7472   3.400   0.742   3.101 -0.5925  0.1770  0.1581
 1857SOL    HW2 7473   3.424   0.729   3.193  2.0090  1.2534 -0.3281
 1857SOL    HW3 7474   3.410   0.656   3.061  1.9479  0.4799  0.1006
 1857SOL    MW4 7475   3.404   0.729   3.108  0.0858  0.3590  0.0865
 1858SOL     OW 7476   3.200   0.910   3.045  0.0548  0.5607 -0.0949
 1858SOL    HW2 7477   3.266   0.844   3.066 -0.5617  0.2180  0.7976
 1858SOL    HW3 7478   3.118   0.873   3.078 -0.7162  0.6619 -1.7961
 1858SOL    MW4 7479   3.198   0.896   3.052 -0.1283  0.5288 -0.2017
 1859SOL     OW 7480   3.172   1.174   3.145 -0.2076  0.2124 -0.0422
 1859SOL    HW2 7481   3.247   1.221   3.110 -0.1818  1.5964  1.8276
 1859SOL    HW3 7482   3.185   1.083   3.117  1.1559  0.7922 -1.3349
 1859SOL    MW4 7483   3.184   1.168   3.137 -0.0246  0.4715  0.0341
 1860SOL     OW 7484   3.409   1.275   3.017  0.3565 -0.0313  0.3223
 1860SOL    HW2 7485   3.487   1.232   3.054 -0.1433 -0.2747  1.1016
 1860SOL    HW3 7486   3.411   1.364   3.053 -0.1328 -0.2701  0.9477
 1860SOL    MW4 7487   3.420   1.281   3.027  0.2260 -0.0948  0.5076
 1861SOL     OW 7488   3.345   1.517   3.143  0.0342  0.3661 -0.5405
 1861SOL    HW2 7489   3.349   1.530   3.237  1.8282  0.3276 -0.5961
 1861SOL    HW3 7490   3.406   1.581   3.107  1.4779 -1.4533 -1.4615
 1861SOL    MW4 7491   3.353   1.527   3.150  0.4616  0.1210 -0.6695
 1862SOL     OW 7492   3.110   1.643   3.033 -0.1907  0.1781  0.4048
 1862SOL    HW2 7493   3.190   1.601   3.066 -0.9277 -0.8164  0.9336
 1862SOL    HW3 7494   3.122   1.647   2.938  0.2521 -0.4491  0.4331
 1862SOL    MW4 7495   3.122   1.638   3.025 -0.2296 -0.0358  0.4785
 1863SOL     OW 7496   3.156   1.919   3.084  0.1634 -1.1562 -0.1094
 1863SOL    HW2 7497   3.124   1.832   3.062 -2.3119 -0.5452  0.8614
 1863SOL    HW3 7498   3.079   1.976   3.074  1.5700  0.8105 -0.1125
 1863SOL    MW4 7499   3.142   1.915   3.079  0.0226 -0.8161  0.0184
 1864SOL     OW 7500   3.381   2.072   3.038 -0.1533  0.0392  0.4585
 1864SOL    HW2 7501   3.450   2.010   3.063 -0.3280 -0.8085 -1.0500
 1864SOL    HW3 7502   3.299   2.025   3.058 -0.2878 -0.3360 -0.8939
 1864SOL    MW4 7503   3.379   2.057   3.044 -0.1943 -0.1221  0.0811
 1865SOL     OW 7504   3.395   2.333   3.148  0.0383  0.1761  0.2483
 1865SOL    HW2 7505   3.387   2.319   3.242 -0.4159  0.0824  0.1953
 1865SOL    HW3 7506   3.383   2.247   3.109 -1.0909  0.4317  0.0242
 1865SOL    MW4 7507   3.393   2.320   3.155 -0.1709  0.1976  0.2117
 1866SOL     OW 7508   3.166   2.451   3.044 -0.8146  0.3559 -0.2806
 1866SOL    HW2 7509   3.241   2.400   3.075  0.0184  0.9584 -1.2945
 1866SOL    HW3 7510   3.163   2.434   2.950 -0.2501  2.5261 -0.7180
 1866SOL    MW4 7511   3.175   2.442   3.036 -0.6301  0.7215 -0.4721
 1867SOL     OW 7512   3.154   2.706   3.164  0.4623  0.2641 -0.4653
 1867SOL    HW2 7513   3.129   2.720   3.255 -0.2727  0.8108 -0.7397
 1867SOL    HW3 7514   3.138   2.613   3.149 -0.4074  0.3786 -0.3201
 1867SOL    MW4 7515   3.148   2.696   3.174  0.2506  0.3514 -0.4823
 1868SOL     OW 7516   3.398   2.774   3.061 -0.3503 -0.2281 -0.0857
 1868SOL    HW2 7517   3.388   2.867   3.081 -1.7744 -0.6983  1.5409
 1868SOL    HW3 7518   3.319   2.733   3.098  0.7831 -2.2230  0.1784
 1868SOL    MW4 7519   3.386   2.781   3.069 -0.3886 -0.5534  0.1640
 1869SOL     OW 7520   3.376   3.077   3.131  0.1593  0.5268 -0.3699
 1869SOL    HW2 7521   3.405   3.098   3.220 -1.7090 -0.6771  0.5512
 1869SOL    HW3 7522   3.306   3.139   3.114 -0.9720 -0.6787 -0.1411
 1869SOL    MW4 7523   3.371   3.088   3.141 -0.2363  0.2089 -0.2179
 1870SOL     OW 7524   3.167   3.247   3.045  0.1419 -0.1767 -0.4227
 1870SOL    HW2 7525   3.081   3.214   3.072 -0.2253  0.9469 -0.2027
 1870SOL    HW3 7526   3.164   3.246   2.949  0.6995 -2.2275 -0.4330
 1870SOL    MW4 7527   3.155   3.242   3.036  0.1671 -0.2990 -0.3948
 1871SOL     OW 7528   3.160   3.516   3.141 -0.0032 -0.4887 -0.1089
 1871SOL    HW2 7529   3.225   3.565   3.091  0.6993  0.1828  1.4165
 1871SOL    HW3 7530   3.164   3.427   3.105 -0.0244  0.1380 -1.6937
 1871SOL    MW4 7531   3.169   3.511   3.130  0.0868 -0.3173 -0.1168
 1872SOL     OW 7532   3.380   3.651   3.038  0.8446 -0.0168  0.3800
 1872SOL    HW2 7533   3.447   3.592   3.071  1.5909  0.4671 -0.2559
 1872SOL    HW3 7534   3.391   3.732   3.088  1.0081  0.2060 -0.0131
 1872SOL    MW4 7535   3.390   3.654   3.049  0.9646  0.0765  0.2441
 1873SOL     OW 7536   3.372   3.895   3.185  0.0854 -0.3952 -0.0137
 1873SOL    HW2 7537   3.359   3.875   3.278 -1.9741 -2.1600 -0.6408
 1873SOL    HW3 7538   3.293   3.944   3.161  1.3590  1.4917 -0.4681
 1873SOL    MW4 7539   3.360   3.899   3.194 -0.0184 -0.3791 -0.1562
 1874SOL     OW 7540   3.162   4.035   3.067 -0.1088  0.0421 -0.0605
 1874SOL    HW2 7541   3.076   4.004   3.095 -1.0597  1.8649 -0.9023
 1874SOL    HW3 7542   3.164   4.017   2.972  0.7746 -0.7238  0.0882
 1874SOL    MW4 7543   3.151   4.028   3.058 -0.1178  0.1822 -0.1519
 1875SOL     OW 7544   3.147   4.297   3.139 -0.1944 -0.4154 -0.8630
 1875SOL    HW2 7545   3.150   4.304   3.234 -0.4524  2.5299 -1.0096
 1875SOL    HW3 7546   3.146   4.203   3.121 -1.8858 -1.0089  2.0687
 1875SOL    MW4 7547   3.148   4.286   3.149 -0.4518 -0.1049 -0.4957
 1876SOL     OW 7548   3.352   4.408   2.994  0.2448  0.5125  0.2362
 1876SOL    HW2 7549   3.415   4.354   3.042  0.4223 -0.5120 -1.1135
 1876SOL    HW3 7550   3.267   4.381   3.027  0.3931  0.1938  0.3589
 1876SOL    MW4 7551   3.349   4.397   3.004  0.2878  0.3352  0.0744
 1877SOL     OW 7552   3.789   4.637   3.151 -0.3122 -0.0628 -1.0799
 1877SOL    HW2 7553   3.771   4.548   3.122  0.1157 -0.3514 -0.4514
 1877SOL    HW3 7554   3.725   4.691   3.104 -1.0658 -0.7807 -0.8729
 1877SOL    MW4 7555   3.778   4.633   3.141 -0.3552 -0.1955 -0.9696
 1878SOL     OW 7556   3.589   0.120   3.028  0.2036 -0.3517  0.1419
 1878SOL    HW2 7557   3.587   0.209   3.065  1.9957 -0.6094  0.8998
 1878SOL    HW3 7558   3.608   0.133   2.936 -0.2349  0.0758  0.1041
 1878SOL    MW4 7559   3.591   0.134   3.021  0.3822 -0.3293  0.2370
 1879SOL     OW 7560   3.602   0.374   3.137 -0.1743 -0.1724 -0.0795
 1879SOL    HW2 7561   3.600   0.367   3.232 -1.6934  1.5478  0.0619
 1879SOL    HW3 7562   3.688   0.412   3.117 -0.6647  1.4640  0.8017
 1879SOL    MW4 7563   3.613   0.378   3.147 -0.4394  0.2705  0.0553
 1880SOL     OW 7564   3.840   0.488   3.075  0.0681  0.3989  0.6447
 1880SOL    HW2 7565   3.911   0.433   3.109  0.9150  0.4992 -0.9116
 1880SOL    HW3 7566   3.864   0.577   3.102  1.4543  0.6547 -1.3489
 1880SOL    MW4 7567   3.853   0.492   3.083  0.3626  0.4458  0.1762
 1881SOL     OW 7568   3.876   0.755   3.159 -0.2856 -0.1408 -0.0764
 1881SOL    HW2 7569   3.864   0.769   3.252  1.4111 -0.6407  0.2365
 1881SOL    HW3 7570   3.970   0.763   3.145 -0.6321  1.1621 -1.9608
 1881SOL    MW4 7571   3.887   0.758   3.169 -0.1075 -0.0348 -0.2837
 1882SOL     OW 7572   3.645   0.887   3.021 -0.5062 -0.2001 -0.2155
 1882SOL    HW2 7573   3.710   0.835   3.067 -0.6032  1.3977  1.7814
 1882SOL    HW3 7574   3.561   0.848   3.046 -0.4484 -0.6210 -0.6833
 1882SOL    MW4 7575   3.642   0.875   3.030 -0.5114 -0.0448 -0.0138
 1883SOL     OW 7576   3.640   1.159   3.141  0.2293 -0.2936  0.2291
 1883SOL    HW2 7577   3.721   1.204   3.115 -0.8906  0.8916 -1.3287
 1883SOL    HW3 7578   3.647   1.073   3.101  0.1461  0.2663 -1.0281
 1883SOL    MW4 7579   3.652   1.154   3.132  0.0706 -0.0634 -0.1421
 1884SOL     OW 7580   3.873   1.279   3.053  0.1601 -0.3643  0.2769
 1884SOL    HW2 7581   3.839   1.367   3.072 -0.0417 -0.5906  0.9932
 1884SOL    HW3 7582   3.868   1.272   2.958  0.5596  0.5568  0.1765
 1884SOL    MW4 7583   3.867   1.290   3.043  0.1860 -0.2726  0.3586
 1885SOL     OW 7584   3.790   1.564   3.072 -0.4307 -0.3885 -0.3432
 1885SOL    HW2 7585   3.791   1.578   3.167  0.9737 -0.7823 -0.2945
 1885SOL    HW3 7586   3.709   1.606   3.043 -1.1083 -0.6646  1.0868
 1885SOL    MW4 7587   3.779   1.571   3.081 -0.3350 -0.4770 -0.1478
 1886SOL     OW 7588   3.534   1.680   2.990  0.1451  0.6865  0.0047
 1886SOL    HW2 7589   3.577   1.759   3.022  1.7431 -0.0599 -0.2536
 1886SOL    HW3 7590   3.556   1.677   2.897 -0.3867  0.2429 -0.1094
 1886SOL    MW4 7591   3.543   1.690   2.982  0.2859  0.5295 -0.0443
 1887SOL     OW 7592   3.606   1.919   3.090 -0.1633  0.1030 -0.0097
 1887SOL    HW2 7593   3.599   1.903   3.184  0.5132 -0.1663 -0.0033
 1887SOL    HW3 7594   3.691   1.963   3.079  0.2876 -0.9090 -0.6314
 1887SOL    MW4 7595   3.616   1.923   3.101 -0.0148 -0.0662 -0.0911
 1888SOL     OW 7596   3.852   2.037   3.051  0.4897  1.1259 -0.0078
 1888SOL    HW2 7597   3.854   2.129   3.077 -2.6107  0.9449  1.0275
 1888SOL    HW3 7598   3.835   2.038   2.957  0.0274  1.5967  0.0841
 1888SOL    MW4 7599   3.850   2.049   3.042  0.0198  1.1637  0.1409
 1889SOL     OW 7600   3.854   2.302   3.131  0.2993 -0.5755  0.2598
 1889SOL    HW2 7601   3.843   2.299   3.226  0.2255 -0.2963  0.2602
 1889SOL    HW3 7602   3.777   2.348   3.099  0.8832  0.3449  0.1642
 1889SOL    MW4 7603   3.842   2.308   3.140  0.3667 -0.4172  0.2472
 1890SOL     OW 7604   3.620   2.436   3.011 -0.1048 -0.0193  0.4097
 1890SOL    HW2 7605   3.646   2.517   3.056  0.8593 -0.5765  0.8545
 1890SOL    HW3 7606   3.550   2.400   3.066  0.9692 -0.6194  1.4062
 1890SOL    MW4 7607   3.614   2.442   3.024  0.1638 -0.1719  0.5999
 1891SOL     OW 7608   3.611   2.673   3.172  0.2511  0.4623  0.6739
 1891SOL    HW2 7609   3.686   2.715   3.132  0.2546 -0.0389  0.1440
 1891SOL    HW3 7610   3.535   2.716   3.132  0.2493 -0.4754 -0.3678
 1891SOL    MW4 7611   3.611   2.684   3.161  0.2513  0.2725  0.4666
 1892SOL     OW 7612   3.832   2.820   3.068 -0.2842 -0.0509  0.0602
 1892SOL    HW2 7613   3.821   2.911   3.096  0.3100  0.0129  0.0879
 1892SOL    HW3 7614   3.831   2.824   2.973  1.7546  0.2387  0.0411
 1892SOL    MW4 7615   3.830   2.833   3.059  0.0629 -0.0045  0.0615
 1893SOL     OW 7616   3.802   3.091   3.162 -0.6655 -0.1018  0.1251
 1893SOL    HW2 7617   3.882   3.126   3.122  0.0805 -0.1162  1.5708
 1893SOL    HW3 7618   3.731   3.142   3.122  0.1829  0.9682 -0.0459
 1893SOL    MW4 7619   3.803   3.103   3.152 -0.4554  0.0374  0.2933
 1894SOL     OW 7620   3.594   3.232   3.043 -0.2248  0.2968  0.3142
 1894SOL    HW2 7621   3.520   3.172   3.050 -1.3543  1.6036 -0.1785
 1894SOL    HW3 7622   3.625   3.223   2.953  0.3378 -0.3718  0.5674
 1894SOL    MW4 7623   3.588   3.223   3.032 -0.2997  0.3810  0.2828
 1895SOL     OW 7624   3.595   3.487   3.150 -0.1408  0.6288  0.2176
 1895SOL    HW2 7625   3.672   3.526   3.109 -0.1170  0.5864  0.2224
 1895SOL    HW3 7626   3.584   3.403   3.105  1.6078 -0.7536  2.2653
 1895SOL    MW4 7627   3.603   3.481   3.139  0.0932  0.4406  0.4885
 1896SOL     OW 7628   3.829   3.629   3.041  0.4920 -0.0024 -0.3920
 1896SOL    HW2 7629   3.839   3.720   3.068 -0.3107  0.7590 -2.6026
 1896SOL    HW3 7630   3.832   3.631   2.945  1.2072 -2.3884 -0.4591
 1896SOL    MW4 7631   3.831   3.641   3.032  0.4802 -0.2167 -0.6924
 1897SOL     OW 7632   3.846   3.885   3.137 -0.0497 -0.0172 -0.3660
 1897SOL    HW2 7633   3.844   3.889   3.232  0.5281 -1.3585 -0.2727
 1897SOL    HW3 7634   3.760   3.916   3.109 -0.1982  0.4352  0.5939
 1897SOL    MW4 7635   3.835   3.889   3.146  0.0069 -0.1347 -0.2272
 1898SOL     OW 7636   3.608   3.987   3.041  0.0705  0.2075  0.3381
 1898SOL    HW2 7637   3.530   3.940   3.069  0.6084  0.7211  2.8321
 1898SOL    HW3 7638   3.595   4.002   2.947 -1.2181 -2.7459 -0.0145
 1898SOL    MW4 7639   3.596   3.983   3.032 -0.0284 -0.1140  0.6206
 1899SOL     OW 7640   3.539   4.253   3.130  0.5204 -0.1424  0.4173
 1899SOL    HW2 7641   3.618   4.286   3.089  0.1109  0.8028  0.3726
 1899SOL    HW3 7642   3.540   4.158   3.113  1.2634 -0.0253 -0.2013
 1899SOL    MW4 7643   3.549   4.244   3.123  0.5646 -0.0029  0.3297
 1900SOL     OW 7644   3.781   4.368   3.044  0.0916 -0.3447 -0.3916
 1900SOL    HW2 7645   3.864   4.338   3.083 -0.5600 -0.8388  0.6264
 1900SOL    HW3 7646   3.798   4.369   2.950  1.2227 -0.5522 -0.1979
 1900SOL    MW4 7647   3.794   4.364   3.037  0.1547 -0.4373 -0.2320
 1901SOL     OW 7648   4.270   4.634   3.087 -0.0180 -0.1146  0.1564
 1901SOL    HW2 7649   4.279   4.642   3.181 -0.8827 -0.7081  0.2958
 1901SOL    HW3 7650   4.264   4.540   3.070  0.2457 -0.0190 -0.4973
 1901SOL    MW4 7651   4.270   4.623   3.097 -0.0978 -0.1802  0.0885
 1902SOL     OW 7652   4.023   0.091   3.052 -0.1291 -0.5210 -0.1452
 1902SOL    HW2 7653   4.095   0.034   3.078 -0.7911 -1.4836 -0.3905
 1902SOL    HW3 7654   3.944   0.043   3.078 -0.6779  0.8567  0.8378
 1902SOL    MW4 7655   4.022   0.077   3.059 -0.2885 -0.4662 -0.0479
 1903SOL     OW 7656   4.044   0.349   3.171 -0.4340  0.5016 -0.0804
 1903SOL    HW2 7657   4.124   0.396   3.146  0.2022  0.0945  1.1140
 1903SOL    HW3 7658   4.053   0.263   3.129  0.9731 -0.4364  2.0617
 1903SOL    MW4 7659   4.056   0.344   3.162 -0.1645  0.3242  0.3600
 1904SOL     OW 7660   4.286   0.492   3.099 -0.1871  0.7859 -0.4202
 1904SOL    HW2 7661   4.330   0.571   3.132  0.7862 -0.1063  0.4587
 1904SOL    HW3 7662   4.286   0.503   3.004  0.6161  1.5086 -0.3439
 1904SOL    MW4 7663   4.292   0.504   3.091  0.0477  0.7635 -0.2942
 1905SOL     OW 7664   4.365   0.739   3.154 -0.0456 -0.0894  0.5127
 1905SOL    HW2 7665   4.281   0.776   3.128  0.2631 -0.7197 -1.4695
 1905SOL    HW3 7666   4.431   0.798   3.116  0.4278 -1.9343 -1.6973
 1905SOL    MW4 7667   4.363   0.752   3.145  0.0572 -0.4160 -0.0405
 1906SOL     OW 7668   4.126   0.826   3.057  0.3566 -0.2112  0.3011
 1906SOL    HW2 7669   4.113   0.916   3.087  1.1124 -0.0920  0.2805
 1906SOL    HW3 7670   4.125   0.833   2.961 -0.3867 -0.3424  0.3008
 1906SOL    MW4 7671   4.124   0.839   3.048  0.3586 -0.2127  0.2983
 1907SOL     OW 7672   4.077   1.107   3.126  0.2455  0.4204 -0.0116
 1907SOL    HW2 7673   4.072   1.108   3.222  1.1122  0.6052  0.0392
 1907SOL    HW3 7674   3.997   1.149   3.098 -0.1958  0.0239  0.6277
 1907SOL    MW4 7675   4.066   1.113   3.135  0.3018  0.3926  0.0794
 1908SOL     OW 7676   4.282   1.262   3.028  0.4271 -0.1219  0.1271
 1908SOL    HW2 7677   4.218   1.194   3.050  0.8516 -0.3052  0.8001
 1908SOL    HW3 7678   4.289   1.258   2.933 -1.0176  0.3079 -0.0146
 1908SOL    MW4 7679   4.275   1.252   3.018  0.2928 -0.0895  0.1972
 1909SOL     OW 7680   4.286   1.511   3.126 -0.1097 -0.0720  0.2762
 1909SOL    HW2 7681   4.213   1.559   3.088 -0.5857 -0.6005  0.5296
 1909SOL    HW3 7682   4.272   1.420   3.102  0.7519 -0.1052 -0.1264
 1909SOL    MW4 7683   4.275   1.506   3.118 -0.0591 -0.1462  0.2565
 1910SOL     OW 7684   4.048   1.645   3.027  0.5555  0.4548  0.0878
 1910SOL    HW2 7685   4.046   1.735   3.060  1.0783  0.8154 -0.8540
 1910SOL    HW3 7686   3.959   1.612   3.041  0.4680  0.9886  0.7865
 1910SOL    MW4 7687   4.036   1.652   3.033  0.6132  0.5729  0.0556
 1911SOL     OW 7688   4.065   1.896   3.118 -0.2800 -0.3253  0.1874
 1911SOL    HW2 7689   4.142   1.952   3.110 -0.4355  0.3380  2.9100
 1911SOL    HW3 7690   3.992   1.951   3.089  0.0609 -0.4988 -1.0497
 1911SOL    MW4 7691   4.066   1.911   3.113 -0.2551 -0.2607  0.3834
 1912SOL     OW 7692   4.294   2.053   3.063  0.4452  0.0928 -0.0772
 1912SOL    HW2 7693   4.260   2.140   3.085 -1.3014 -0.1426 -1.7272
 1912SOL    HW3 7694   4.265   2.038   2.974  0.7648 -2.1847  0.1753
 1912SOL    MW4 7695   4.285   2.062   3.054  0.2570 -0.2387 -0.2615
 1913SOL     OW 7696   4.254   2.314   3.124 -0.1831  0.2631  0.0790
 1913SOL    HW2 7697   4.182   2.364   3.086  0.6420  0.3715 -1.3747
 1913SOL    HW3 7698   4.333   2.360   3.094  0.4864  0.3810  1.9852
 1913SOL    MW4 7699   4.255   2.327   3.115  0.0148  0.2930  0.1388
 1914SOL     OW 7700   4.042   2.468   3.019  0.3074  0.1548 -0.2959
 1914SOL    HW2 7701   4.062   2.545   3.073  2.6641 -1.8480  1.8512
 1914SOL    HW3 7702   3.976   2.420   3.070  0.2509 -0.1857 -0.6880
 1914SOL    MW4 7703   4.036   2.472   3.033  0.6108 -0.1545 -0.0646
 1915SOL     OW 7704   4.057   2.696   3.175 -0.1818 -0.1446  0.7548
 1915SOL    HW2 7705   4.041   2.691   3.269 -0.4699 -0.2605  0.6980
 1915SOL    HW3 7706   3.985   2.749   3.141 -0.0028  0.0105  0.6177
 1915SOL    MW4 7707   4.046   2.702   3.183 -0.1960 -0.1395  0.7291
 1916SOL     OW 7708   4.280   2.836   3.069  0.1638  0.2830 -0.4916
 1916SOL    HW2 7709   4.213   2.780   3.106  0.5338  0.3333  0.2687
 1916SOL    HW3 7710   4.363   2.794   3.092  0.4823  1.6438  0.9725
 1916SOL    MW4 7711   4.282   2.823   3.077  0.2546  0.4694 -0.1981
 1917SOL     OW 7712   4.253   3.105   3.169  0.3164 -0.0131  0.1308
 1917SOL    HW2 7713   4.176   3.151   3.136  0.7510  0.6405  0.0403
 1917SOL    HW3 7714   4.245   3.016   3.134  0.0261  0.2806 -0.5387
 1917SOL    MW4 7715   4.242   3.099   3.160  0.3352  0.1121  0.0308
 1918SOL     OW 7716   4.016   3.208   3.045  0.0901 -0.1793 -0.5146
 1918SOL    HW2 7717   4.018   3.293   3.090  0.2874 -0.2058 -0.4726
 1918SOL    HW3 7718   4.045   3.227   2.956 -0.3807 -0.1122 -0.6528
 1918SOL    MW4 7719   4.020   3.222   3.039  0.0539 -0.1740 -0.5274
 1919SOL     OW 7720   4.032   3.477   3.126 -0.6184  0.3546  0.3822
 1919SOL    HW2 7721   4.038   3.491   3.220 -1.7154 -1.8408  0.7999
 1919SOL    HW3 7722   3.959   3.533   3.099  0.2111  1.6143  0.6629
 1919SOL    MW4 7723   4.023   3.486   3.135 -0.6542  0.2313  0.4742
 1920SOL     OW 7724   4.255   3.618   3.037 -0.1260  0.0887  0.3930
 1920SOL    HW2 7725   4.255   3.706   3.075 -1.2372 -0.2942  1.2984
 1920SOL    HW3 7726   4.175   3.577   3.071 -0.0317 -0.9952 -0.6554
 1920SOL    MW4 7727   4.244   3.625   3.046 -0.2604 -0.1047  0.3743
 1921SOL     OW 7728   4.305   3.882   3.147 -0.2253 -0.3465  0.3484
 1921SOL    HW2 7729   4.234   3.938   3.117  0.6285  0.4169 -0.2478
 1921SOL    HW3 7730   4.383   3.916   3.104  0.3636 -1.7714  0.2543
 1921SOL    MW4 7731   4.306   3.894   3.138 -0.0348 -0.4337  0.2573
 1922SOL     OW 7732   4.078   4.012   3.034  0.3949  0.2445  0.4078
 1922SOL    HW2 7733   4.069   4.103   3.063  1.1134 -0.2382  2.2061
 1922SOL    HW3 7734   4.003   3.967   3.073 -1.2741  0.4882 -2.3890
 1922SOL    MW4 7735   4.067   4.018   3.043  0.2694  0.2127  0.2763
 1923SOL     OW 7736   4.035   4.289   3.117  0.1481 -0.0071  0.1194
 1923SOL    HW2 7737   4.053   4.293   3.211  0.1588 -0.0380  0.1187
 1923SOL    HW3 7738   4.112   4.327   3.076 -0.0708  0.4597  0.1451
 1923SOL    MW4 7739   4.047   4.294   3.124  0.1206  0.0510  0.1225
 1924SOL     OW 7740   4.262   4.374   2.993  0.0222 -0.4744 -0.3676
 1924SOL    HW2 7741   4.342   4.338   3.031 -0.3696 -0.8772  0.0797
 1924SOL    HW3 7742   4.280   4.378   2.899 -0.2105 -2.5976 -0.5263
 1924SOL    MW4 7743   4.275   4.370   2.985 -0.0601 -0.8082 -0.3297
 1925SOL     OW 7744   0.199   0.026   3.412  0.0113  0.3501  0.8456
 1925SOL    HW2 7745   0.282   0.074   3.406  1.0504 -1.6646 -1.9769
 1925SOL    HW3 7746   0.222  -0.056   3.455 -0.9043  0.5411  1.7199
 1925SOL    MW4 7747   0.213   0.022   3.417  0.0276  0.1097  0.5884
 1926SOL     OW 7748   4.472   0.149   3.522 -0.1104  0.2865  0.5328
 1926SOL    HW2 7749   4.487   0.241   3.500 -1.1026  0.1338 -0.9196
 1926SOL    HW3 7750   4.554   0.104   3.500  0.5218  0.8897  1.6583
 1926SOL    MW4 7751   4.484   0.155   3.516 -0.1579  0.3459  0.4897
 1927SOL     OW 7752   0.065   0.390   3.424 -0.1852 -0.1430  0.3611
 1927SOL    HW2 7753  -0.002   0.448   3.460 -0.4248 -0.6496  0.7272
 1927SOL    HW3 7754   0.144   0.411   3.475  0.2299  1.2399 -0.8080
 1927SOL    MW4 7755   0.067   0.401   3.435 -0.1621 -0.0274  0.2553
 1928SOL     OW 7756   0.263   0.493   3.575 -0.0232 -0.6481 -0.2988
 1928SOL    HW2 7757   0.342   0.456   3.536 -0.1944 -0.7767 -0.5225
 1928SOL    HW3 7758   0.250   0.576   3.529 -0.3568 -0.9101 -0.6767
 1928SOL    MW4 7759   0.272   0.499   3.564 -0.0898 -0.6996 -0.3781
 1929SOL     OW 7760   0.239   0.734   3.425  0.1854 -0.1183 -0.0953
 1929SOL    HW2 7761   0.312   0.796   3.425 -0.3947  0.6170 -2.6299
 1929SOL    HW3 7762   0.171   0.776   3.478  1.1664 -0.3093  1.3362
 1929SOL    MW4 7763   0.239   0.748   3.432  0.2383 -0.0466 -0.2410
 1930SOL     OW 7764   0.018   0.911   3.547  0.5780 -0.4383  0.1813
 1930SOL    HW2 7765  -0.009   0.925   3.638 -0.5383 -0.5676 -0.1353
 1930SOL    HW3 7766   0.018   0.999   3.508 -3.5648 -0.9030 -0.9920
 1930SOL    MW4 7767   0.015   0.925   3.554 -0.1159 -0.5168 -0.0150
 1931SOL     OW 7768   0.019   1.179   3.427  0.0567 -0.1796 -0.1187
 1931SOL    HW2 7769   0.102   1.217   3.457  1.0212 -2.2808 -0.0292
 1931SOL    HW3 7770   0.027   1.174   3.332 -0.0376 -0.2376 -0.1240
 1931SOL    MW4 7771   0.031   1.183   3.418  0.1715 -0.4646 -0.1078
 1932SOL     OW 7772   0.240   1.296   3.554 -0.4306  0.1903 -0.0239
 1932SOL    HW2 7773   0.321   1.257   3.521 -3.0932 -2.2916 -4.0576
 1932SOL    HW3 7774   0.237   1.383   3.515  0.4190  0.3906  0.3549
 1932SOL    MW4 7775   0.250   1.302   3.545 -0.6698 -0.1107 -0.5059
 1933SOL     OW 7776   0.220   1.545   3.408 -0.0503 -0.3096 -0.9224
 1933SOL    HW2 7777   0.279   1.612   3.444 -0.4415 -0.6808  0.4479
 1933SOL    HW3 7778   0.243   1.540   3.315  2.4934 -0.8654 -0.2931
 1933SOL    MW4 7779   0.231   1.553   3.401  0.2337 -0.4318 -0.6585
 1934SOL     OW 7780   4.462   1.647   3.513  0.4325  0.0425 -0.0768
 1934SOL    HW2 7781   4.388   1.607   3.468  0.6084 -0.1664 -0.1848
 1934SOL    HW3 7782   4.537   1.594   3.486  0.3216 -1.0615  1.7180
 1934SOL    MW4 7783   4.462   1.635   3.503  0.4406 -0.1308  0.1457
 1935SOL     OW 7784   4.480   1.935   3.437  0.4254  0.5670  0.3705
 1935SOL    HW2 7785   4.473   1.842   3.459  0.6458  0.9099  1.9502
 1935SOL    HW3 7786   4.503   1.936   3.344  0.3149 -0.9492  0.3092
 1935SOL    MW4 7787   4.482   1.922   3.427  0.4401  0.4122  0.5708
 1936SOL     OW 7788   0.221   2.061   3.530 -0.4113  0.5240  0.0247
 1936SOL    HW2 7789   0.219   2.073   3.625 -0.2523 -1.5935  0.3027
 1936SOL    HW3 7790   0.142   2.012   3.510  0.6440 -0.9175 -0.6657
 1936SOL    MW4 7791   0.210   2.056   3.540 -0.2511  0.0546 -0.0298
 1937SOL     OW 7792   0.216   2.311   3.394 -0.0577  0.2805  0.1643
 1937SOL    HW2 7793   0.147   2.354   3.444  0.2220  1.9216 -0.8233
 1937SOL    HW3 7794   0.220   2.223   3.430 -2.2900  0.3259  0.6083
 1937SOL    MW4 7795   0.207   2.305   3.406 -0.3153  0.5031  0.0927
 1938SOL     OW 7796   0.009   2.431   3.528  0.0516 -0.2925  0.1158
 1938SOL    HW2 7797  -0.004   2.441   3.622  0.1493  0.9187  0.0005
 1938SOL    HW3 7798  -0.065   2.377   3.499 -0.8131  0.6074  0.6369
 1938SOL    MW4 7799  -0.002   2.425   3.537 -0.0496 -0.0138  0.1693
 1939SOL     OW 7800   4.476   2.680   3.406  0.3233  0.3965  0.0463
 1939SOL    HW2 7801   4.553   2.727   3.439  0.4034  0.4650 -0.2341
 1939SOL    HW3 7802   4.480   2.594   3.448  1.0327  0.0897 -0.6393
 1939SOL    MW4 7803   4.487   2.675   3.416  0.4275  0.3650 -0.0811
 1940SOL     OW 7804   0.214   2.793   3.504  0.5268 -0.1888  0.0860
 1940SOL    HW2 7805   0.304   2.766   3.488  0.0754  0.1194 -3.3337
 1940SOL    HW3 7806   0.211   2.884   3.474 -0.7962  0.0112  0.7752
 1940SOL    MW4 7807   0.225   2.802   3.498  0.2927 -0.1218 -0.2739
 1941SOL     OW 7808   0.220   3.068   3.433  0.1432  0.0898 -0.1479
 1941SOL    HW2 7809   0.135   3.102   3.460 -1.3544 -2.2249 -1.7590
 1941SOL    HW3 7810   0.225   3.085   3.339  1.2080 -0.3282 -0.1777
 1941SOL    MW4 7811   0.210   3.075   3.424  0.0861 -0.2708 -0.3641
 1942SOL     OW 7812   0.009   3.225   3.549  0.0261  0.1500  0.3777
 1942SOL    HW2 7813  -0.082   3.197   3.538  0.2840 -0.1668 -1.1092
 1942SOL    HW3 7814   0.016   3.307   3.500  0.7239 -0.2337 -0.1853
 1942SOL    MW4 7815  -0.002   3.232   3.541  0.1521  0.0575  0.1070
 1943SOL     OW 7816   0.005   3.476   3.402  0.2192 -0.2614 -0.3444
 1943SOL    HW2 7817  -0.031   3.555   3.443  0.1073  0.2332 -1.3871
 1943SOL    HW3 7818  -0.011   3.488   3.308  1.2488 -0.9835 -0.6220
 1943SOL    MW4 7819  -0.002   3.488   3.395  0.3403 -0.2916 -0.5188
 1944SOL     OW 7820   0.234   3.634   3.454  0.1091 -0.4313 -0.5547
 1944SOL    HW2 7821   0.224   3.644   3.548 -0.9633  0.3424 -0.7481
 1944SOL    HW3 7822   0.162   3.576   3.428 -0.9177  1.1040 -1.2066
 1944SOL    MW4 7823   0.223   3.628   3.463 -0.1678 -0.1266 -0.6661
 1945SOL     OW 7824   0.284   3.905   3.368  0.5450 -0.3045  0.4433
 1945SOL    HW2 7825   0.203   3.949   3.394  1.0174  1.0214 -0.2812
 1945SOL    HW3 7826   0.271   3.814   3.393 -1.2920 -0.1611  0.0651
 1945SOL    MW4 7827   0.272   3.899   3.374  0.3650 -0.1104  0.2978
 1946SOL     OW 7828   0.031   4.014   3.475  0.1347 -0.0029  0.2899
 1946SOL    HW2 7829   0.007   4.003   3.567  0.6105 -0.5542  0.3486
 1946SOL    HW3 7830   0.017   4.107   3.458  0.5661  0.2066  1.0677
 1946SOL    MW4 7831   0.026   4.025   3.485  0.2544 -0.0486  0.4003
 1947SOL     OW 7832   0.020   4.281   3.407  0.3027  0.0008 -0.2512
 1947SOL    HW2 7833  -0.055   4.339   3.424 -0.3461 -0.6195 -0.9602
 1947SOL    HW3 7834   0.096   4.332   3.434 -0.2794  1.1122 -0.6983
 1947SOL    MW4 7835   0.020   4.296   3.413  0.1403  0.0653 -0.4036
 1948SOL     OW 7836   0.228   4.434   3.518 -0.3718 -0.3727 -0.5455
 1948SOL    HW2 7837   0.231   4.408   3.611  0.2082  0.0750 -0.4361
 1948SOL    HW3 7838   0.307   4.395   3.480 -0.7584 -0.7998 -0.9214
 1948SOL    MW4 7839   0.239   4.425   3.526 -0.3463 -0.3700 -0.5805
 1949SOL     OW 7840   0.697   0.036   3.362  0.0802  0.0738  0.1147
 1949SOL    HW2 7841   0.779   0.056   3.406 -0.5619  0.1342  1.3105
 1949SOL    HW3 7842   0.718   0.038   3.269  0.6464  3.6737  0.2462
 1949SOL    MW4 7843   0.710   0.039   3.355  0.0702  0.5568  0.2899
 1950SOL     OW 7844   0.442   0.158   3.458  0.3157 -0.0837  0.3735
 1950SOL    HW2 7845   0.439   0.149   3.553  1.8417  1.4776  0.5814
 1950SOL    HW3 7846   0.529   0.129   3.433  0.3088  0.5448 -0.4257
 1950SOL    MW4 7847   0.453   0.153   3.467  0.5161  0.2052  0.2956
 1951SOL     OW 7848   0.473   0.417   3.390  0.0565  0.2331 -0.0601
 1951SOL    HW2 7849   0.555   0.447   3.430  0.8978  1.4804 -2.5676
 1951SOL    HW3 7850   0.466   0.325   3.415  1.4226  0.5309  1.4762
 1951SOL    MW4 7851   0.483   0.409   3.398  0.3478  0.4369 -0.1884
 1952SOL     OW 7852   0.723   0.529   3.520 -0.5411 -0.1851  0.1221
 1952SOL    HW2 7853   0.723   0.535   3.615  0.6350  0.6157  0.0787
 1952SOL    HW3 7854   0.807   0.491   3.497 -0.6760 -0.0604 -0.6130
 1952SOL    MW4 7855   0.734   0.525   3.529 -0.4037 -0.0630  0.0193
 1953SOL     OW 7856   0.702   0.770   3.391  0.0058  0.3317  0.0531
 1953SOL    HW2 7857   0.624   0.799   3.439  0.5683  1.3223  0.3961
 1953SOL    HW3 7858   0.719   0.682   3.423 -1.9591 -0.5606 -1.2587
 1953SOL    MW4 7859   0.694   0.762   3.402 -0.1792  0.3447 -0.0744
 1954SOL     OW 7860   0.456   0.917   3.510  0.4552 -0.2270 -0.3496
 1954SOL    HW2 7861   0.450   0.924   3.605  2.7527  0.0151 -0.1958
 1954SOL    HW3 7862   0.438   1.006   3.478 -1.2988 -0.5253 -0.2091
 1954SOL    MW4 7863   0.453   0.930   3.518  0.5269 -0.2345 -0.3107
 1955SOL     OW 7864   0.434   1.165   3.415  0.1738 -0.0699 -0.0949
 1955SOL    HW2 7865   0.515   1.193   3.458  0.2989 -1.2214  0.4261
 1955SOL    HW3 7866   0.451   1.177   3.321  0.3134  1.3481  0.1026
 1955SOL    MW4 7867   0.447   1.170   3.408  0.2087 -0.0347 -0.0002
 1956SOL     OW 7868   0.663   1.243   3.519 -0.0500  0.1591 -0.0756
 1956SOL    HW2 7869   0.745   1.220   3.476 -0.6723 -0.1499 -1.0984
 1956SOL    HW3 7870   0.657   1.338   3.512  0.4125  0.2207  0.3509
 1956SOL    MW4 7871   0.673   1.252   3.513 -0.0711  0.1265 -0.1543
 1957SOL     OW 7872   0.671   1.496   3.462 -0.2082 -0.0157  0.1117
 1957SOL    HW2 7873   0.756   1.535   3.486 -0.6065  0.0284  1.4693
 1957SOL    HW3 7874   0.608   1.565   3.481 -0.5149  0.0971 -1.2948
 1957SOL    MW4 7875   0.674   1.511   3.468 -0.3012  0.0049  0.1051
 1958SOL     OW 7876   0.434   1.691   3.508 -0.0731 -0.1027 -0.2048
 1958SOL    HW2 7877   0.460   1.707   3.599 -0.0343 -1.0787 -0.0343
 1958SOL    HW3 7878   0.439   1.777   3.466  0.0256  0.3356  0.6859
 1958SOL    MW4 7879   0.438   1.704   3.515 -0.0550 -0.1737 -0.0648
 1959SOL     OW 7880   0.443   1.940   3.401  0.1325  0.5383  0.1967
 1959SOL    HW2 7881   0.361   1.982   3.428 -0.9675 -1.9522  0.8214
 1959SOL    HW3 7882   0.448   1.958   3.307 -1.4675  0.1722  0.0248
 1959SOL    MW4 7883   0.433   1.948   3.392 -0.2238  0.1615  0.2565
 1960SOL     OW 7884   0.654   2.106   3.513 -0.8946 -0.3205 -0.1404
 1960SOL    HW2 7885   0.656   2.100   3.609  0.5044 -1.3534 -0.2193
 1960SOL    HW3 7886   0.581   2.050   3.487 -2.1252  0.9933  0.3703
 1960SOL    MW4 7887   0.645   2.098   3.522 -0.8724 -0.2835 -0.0834
 1961SOL     OW 7888   0.652   2.348   3.384 -0.2895  0.5261  0.4244
 1961SOL    HW2 7889   0.716   2.388   3.443 -0.4677  1.2027  0.1608
 1961SOL    HW3 7890   0.653   2.255   3.408  0.3780  0.6255  0.8035
 1961SOL    MW4 7891   0.661   2.341   3.395 -0.2249  0.6285  0.4396
 1962SOL     OW 7892   0.427   2.449   3.511  0.0381  0.5028 -0.1122
 1962SOL    HW2 7893   0.498   2.405   3.465 -0.5318 -1.2063  0.6266
 1962SOL    HW3 7894   0.347   2.410   3.475 -0.4830  1.2172  0.2599
 1962SOL    MW4 7895   0.426   2.438   3.500 -0.1058  0.3717  0.0341
 1963SOL     OW 7896   0.467   2.729   3.443  0.4997  0.3046  0.6954
 1963SOL    HW2 7897   0.457   2.639   3.473 -2.0212  0.8956  1.7672
 1963SOL    HW3 7898   0.467   2.723   3.348 -0.6453 -0.7407  0.7579
 1963SOL    MW4 7899   0.466   2.717   3.434  0.0160  0.2446  0.8454
 1964SOL     OW 7900   0.698   2.865   3.497  0.2509 -0.1965  0.1382
 1964SOL    HW2 7901   0.767   2.805   3.466  1.0996  0.7263  0.2024
 1964SOL    HW3 7902   0.616   2.821   3.475  0.8560 -0.6435 -1.3053
 1964SOL    MW4 7903   0.697   2.851   3.490  0.4427 -0.1338 -0.0441
 1965SOL     OW 7904   0.696   3.141   3.390  0.4232  0.1064 -0.2219
 1965SOL    HW2 7905   0.628   3.184   3.441  0.9751  1.8827 -0.9396
 1965SOL    HW3 7906   0.701   3.053   3.425  0.1560  1.0130  2.1692
 1965SOL    MW4 7907   0.688   3.135   3.401  0.4608  0.4601 -0.0010
 1966SOL     OW 7908   0.447   3.224   3.530 -0.1280  0.4166  0.5661
 1966SOL    HW2 7909   0.423   3.229   3.622 -2.2763 -0.0978  0.0759
 1966SOL    HW3 7910   0.378   3.169   3.490  0.7268  0.6672 -1.3313
 1966SOL    MW4 7911   0.434   3.217   3.537 -0.2986  0.3817  0.2508
 1967SOL     OW 7912   0.473   3.480   3.413  0.1746 -0.1170 -0.1749
 1967SOL    HW2 7913   0.462   3.389   3.438 -0.9002 -0.0455 -0.3738
 1967SOL    HW3 7914   0.397   3.525   3.450  0.4053  0.5996 -0.5536
 1967SOL    MW4 7915   0.461   3.474   3.421  0.0633 -0.0134 -0.2511
 1968SOL     OW 7916   0.682   3.609   3.536 -0.4877 -0.0002  0.0505
 1968SOL    HW2 7917   0.756   3.570   3.488 -0.9800  0.5553 -1.1887
 1968SOL    HW3 7918   0.606   3.560   3.506 -0.7319 -0.0007  0.6738
 1968SOL    MW4 7919   0.682   3.598   3.526 -0.5849  0.0730 -0.0305
 1969SOL     OW 7920   0.674   3.860   3.393 -0.2709  0.2943 -0.2965
 1969SOL    HW2 7921   0.605   3.917   3.425 -0.4851 -0.3891  0.4872
 1969SOL    HW3 7922   0.668   3.782   3.449  0.2404 -0.3400 -1.1121
 1969SOL    MW4 7923   0.664   3.857   3.404 -0.2317  0.1204 -0.3009
 1970SOL     OW 7924   0.489   4.032   3.490  0.3568 -0.4686 -0.3433
 1970SOL    HW2 7925   0.499   4.121   3.455  0.8019 -0.7240 -0.8761
 1970SOL    HW3 7926   0.410   3.999   3.448  0.7259 -0.6684 -0.8853
 1970SOL    MW4 7927   0.480   4.040   3.480  0.4642 -0.5293 -0.4849
 1971SOL     OW 7928   0.457   4.288   3.412 -0.1249  0.1025  0.0858
 1971SOL    HW2 7929   0.543   4.324   3.432  0.3162 -0.3985 -0.8476
 1971SOL    HW3 7930   0.450   4.293   3.317 -0.0279 -2.2592 -0.0886
 1971SOL    MW4 7931   0.468   4.293   3.402 -0.0539 -0.2756 -0.0603
 1972SOL     OW 7932   0.688   4.426   3.472 -0.7733  0.3337  0.1799
 1972SOL    HW2 7933   0.766   4.383   3.435 -1.9176 -0.4520 -1.3835
 1972SOL    HW3 7934   0.687   4.512   3.431 -0.2705  0.6665  0.8517
 1972SOL    MW4 7935   0.698   4.432   3.462 -0.8580  0.2742  0.0622
 1973SOL     OW 7936   1.150   4.657   3.408  0.2531 -0.0996 -0.5171
 1973SOL    HW2 7937   1.227   4.705   3.438 -1.1692  2.6804 -1.1280
 1973SOL    HW3 7938   1.147   4.673   3.314 -0.8227 -0.5100 -0.5652
 1973SOL    MW4 7939   1.159   4.665   3.400 -0.0765  0.2131 -0.6042
 1974SOL     OW 7940   0.924   0.139   3.481 -0.2445 -0.2071 -0.3197
 1974SOL    HW2 7941   0.909   0.133   3.575 -0.6125  1.2319 -0.2774
 1974SOL    HW3 7942   1.003   0.086   3.466 -0.6395 -1.0884  0.6683
 1974SOL    MW4 7943   0.933   0.131   3.491 -0.3452 -0.1336 -0.1836
 1975SOL     OW 7944   0.938   0.405   3.371 -0.3566 -0.2118  0.2605
 1975SOL    HW2 7945   1.016   0.447   3.409 -1.2903  1.4279  0.4108
 1975SOL    HW3 7946   0.935   0.319   3.412  0.8169  0.0818  1.0011
 1975SOL    MW4 7947   0.948   0.399   3.381 -0.3250  0.0432  0.3779
 1976SOL     OW 7948   1.159   0.533   3.514 -0.0042 -0.2955 -0.3973
 1976SOL    HW2 7949   1.149   0.555   3.607  1.2362 -0.0042 -0.3336
 1976SOL    HW3 7950   1.156   0.618   3.469 -2.0755 -0.5344 -0.7766
 1976SOL    MW4 7951   1.157   0.547   3.520 -0.1140 -0.2885 -0.4389
 1977SOL     OW 7952   1.111   0.773   3.378  0.5836  0.1317 -0.2748
 1977SOL    HW2 7953   1.186   0.819   3.416  1.1069 -0.0960 -1.0415
 1977SOL    HW3 7954   1.035   0.818   3.416  1.0963  0.5693  0.2549
 1977SOL    MW4 7955   1.111   0.785   3.388  0.7204  0.1594 -0.3064
 1978SOL     OW 7956   0.912   0.912   3.482 -0.1934 -0.2594 -0.3972
 1978SOL    HW2 7957   0.917   1.000   3.444 -2.0630 -0.0282 -0.1475
 1978SOL    HW3 7958   0.835   0.872   3.442  0.8028 -1.9042 -0.7202
 1978SOL    MW4 7959   0.902   0.918   3.472 -0.3086 -0.4459 -0.4067
 1979SOL     OW 7960   0.914   1.159   3.349  0.7435  0.1128  0.0846
 1979SOL    HW2 7961   0.992   1.205   3.381  1.7683 -0.9203 -0.9208
 1979SOL    HW3 7962   0.917   1.170   3.254  0.8262 -1.7602 -0.1358
 1979SOL    MW4 7963   0.925   1.167   3.341  0.8895 -0.2706 -0.0772
 1980SOL     OW 7964   1.121   1.272   3.481 -0.5949  0.1149 -0.4490
 1980SOL    HW2 7965   1.106   1.270   3.576 -0.2782 -1.3838 -0.4190
 1980SOL    HW3 7966   1.124   1.365   3.460 -0.9510  0.4686  0.9717
 1980SOL    MW4 7967   1.120   1.284   3.491 -0.6001 -0.0362 -0.2577
 1981SOL     OW 7968   1.158   1.528   3.416  0.4091  0.6656  0.0015
 1981SOL    HW2 7969   1.215   1.583   3.470  0.4397  1.6543 -1.0223
 1981SOL    HW3 7970   1.070   1.562   3.432  0.4051  0.8744 -0.4791
 1981SOL    MW4 7971   1.154   1.540   3.426  0.4127  0.8237 -0.1967
 1982SOL     OW 7972   0.838   1.912   3.446 -0.2888 -0.0469  0.2972
 1982SOL    HW2 7973   0.922   1.950   3.474 -0.3899  0.8010 -0.4987
 1982SOL    HW3 7974   0.773   1.979   3.468 -0.6212 -0.2678 -0.0077
 1982SOL    MW4 7975   0.841   1.926   3.452 -0.3460  0.0358  0.1523
 1983SOL     OW 7976   1.101   2.082   3.513 -0.0133 -0.1276 -0.2481
 1983SOL    HW2 7977   1.172   2.036   3.468  1.0641 -0.0541  1.3459
 1983SOL    HW3 7978   1.104   2.170   3.476 -0.0717 -0.4519 -1.0565
 1983SOL    MW4 7979   1.111   2.087   3.502  0.1210 -0.1609 -0.1445
 1984SOL     OW 7980   1.107   2.334   3.413 -0.0024  0.2210  0.0565
 1984SOL    HW2 7981   1.190   2.375   3.437 -1.0424  2.4127 -0.0265
 1984SOL    HW3 7982   1.104   2.340   3.317 -0.1428 -0.0792  0.0414
 1984SOL    MW4 7983   1.117   2.340   3.404 -0.1581  0.4702  0.0436
 1985SOL     OW 7984   0.884   2.451   3.527  0.3648  0.1356 -0.2352
 1985SOL    HW2 7985   0.892   2.466   3.621  0.2540  0.3318 -0.2568
 1985SOL    HW3 7986   0.955   2.390   3.506 -0.4084 -0.9210  0.1981
 1985SOL    MW4 7987   0.894   2.445   3.537  0.2483  0.0219 -0.1807
 1986SOL     OW 7988   0.885   2.479   3.795 -0.0647 -0.1639 -0.2093
 1986SOL    HW2 7989   0.957   2.434   3.837 -2.0491 -2.1860  1.1486
 1986SOL    HW3 7990   0.891   2.570   3.826  1.2557 -0.5567  0.7065
 1986SOL    MW4 7991   0.895   2.485   3.804 -0.1523 -0.4823  0.0906
 1987SOL     OW 7992   0.945   2.722   3.427 -0.2065 -0.0535  0.3589
 1987SOL    HW2 7993   1.017   2.768   3.470  0.1531 -1.2862  1.1269
 1987SOL    HW3 7994   0.945   2.635   3.469 -1.3271 -0.4863 -0.5304
 1987SOL    MW4 7995   0.954   2.717   3.438 -0.3069 -0.2730  0.3428
 1988SOL     OW 7996   1.176   2.847   3.524  0.4178  0.6954 -0.2811
 1988SOL    HW2 7997   1.174   2.840   3.620  1.4355 -0.9686 -0.3634
 1988SOL    HW3 7998   1.236   2.778   3.496 -0.9685  0.2298 -2.2172
 1988SOL    MW4 7999   1.184   2.837   3.533  0.3691  0.4144 -0.5474
 1989SOL     OW 8000   1.162   3.114   3.364 -0.3988 -0.0299  0.0391
 1989SOL    HW2 8001   1.172   3.021   3.387  1.6519  0.4279  1.0480
 1989SOL    HW3 8002   1.160   3.114   3.268  2.0690 -0.9033 -0.0540
 1989SOL    MW4 8003   1.163   3.102   3.354  0.1974 -0.0846  0.1600
 1990SOL     OW 8004   0.931   3.225   3.515 -0.2286 -0.3123  0.0498
 1990SOL    HW2 8005   1.005   3.171   3.486 -0.6281 -0.8837  0.0857
 1990SOL    HW3 8006   0.857   3.195   3.463 -0.3921  0.4076 -0.1373
 1990SOL    MW4 8007   0.931   3.214   3.505 -0.3029 -0.2925  0.0296
 1991SOL     OW 8008   0.895   3.470   3.396 -0.2476  0.2003 -0.1458
 1991SOL    HW2 8009   0.921   3.382   3.425  0.3026  0.5553  0.4550
 1991SOL    HW3 8010   0.907   3.469   3.301  1.0419  0.0563  0.0159
 1991SOL    MW4 8011   0.900   3.458   3.387 -0.0049  0.2279 -0.0453
 1992SOL     OW 8012   1.123   3.586   3.462  0.0158  0.1298 -0.1607
 1992SOL    HW2 8013   1.129   3.575   3.557 -0.5229  1.5138  0.0548
 1992SOL    HW3 8014   1.041   3.543   3.438  0.4190 -0.6873 -0.0774
 1992SOL    MW4 8015   1.113   3.579   3.472 -0.0020  0.2046 -0.1211
 1993SOL     OW 8016   1.132   3.868   3.460 -0.2928  0.3468  0.1632
 1993SOL    HW2 8017   1.219   3.904   3.471 -0.4567  0.4645  1.0896
 1993SOL    HW3 8018   1.145   3.773   3.460 -0.2619  0.3484  1.1589
 1993SOL    MW4 8019   1.145   3.860   3.461 -0.3104  0.3624  0.4168
 1994SOL     OW 8020   0.901   4.014   3.451  0.1189  0.0078 -0.3222
 1994SOL    HW2 8021   0.982   3.964   3.447  0.0777 -0.1195  0.3453
 1994SOL    HW3 8022   0.832   3.948   3.444  0.0703  0.1216 -0.9494
 1994SOL    MW4 8023   0.902   3.998   3.449  0.1070  0.0064 -0.3169
 1995SOL     OW 8024   0.927   4.290   3.397 -0.5016  0.1951  0.2758
 1995SOL    HW2 8025   0.913   4.203   3.436 -1.1337  0.8798  1.5980
 1995SOL    HW3 8026   0.927   4.274   3.303 -0.3402 -1.2875  0.5188
 1995SOL    MW4 8027   0.925   4.276   3.390 -0.5637  0.0892  0.4823
 1996SOL     OW 8028   1.138   4.404   3.509  0.0867 -0.4764 -0.1248
 1996SOL    HW2 8029   1.070   4.363   3.456 -0.5422 -0.6892  0.8214
 1996SOL    HW3 8030   1.160   4.485   3.463 -0.9263 -0.3260 -0.3520
 1996SOL    MW4 8031   1.132   4.409   3.496 -0.1299 -0.4845 -0.0298
 1997SOL     OW 8032   1.601   4.659   3.368  0.2619 -0.4240 -0.2049
 1997SOL    HW2 8033   1.579   4.570   3.398 -0.4168 -0.4426 -0.7341
 1997SOL    HW3 8034   1.524   4.711   3.392  1.1515  0.2754  1.1675
 1997SOL    MW4 8035   1.588   4.654   3.375  0.2898 -0.3338 -0.0937
 1998SOL     OW 8036   1.389   0.124   3.470 -0.0530  0.2576  0.1110
 1998SOL    HW2 8037   1.396   0.136   3.564 -0.4029 -1.6526  0.4190
 1998SOL    HW3 8038   1.369   0.211   3.435  0.5471  1.0625  1.7369
 1998SOL    MW4 8039   1.387   0.137   3.478 -0.0200  0.1118  0.3664
 1999SOL     OW 8040   1.356   0.389   3.372  0.1602 -0.1446 -0.3386
 1999SOL    HW2 8041   1.425   0.420   3.429 -1.2368 -0.1068  1.3810
 1999SOL    HW3 8042   1.275   0.415   3.416 -1.0012 -3.5219 -0.3392
 1999SOL    MW4 8043   1.354   0.396   3.385 -0.1775 -0.5853 -0.1118
 2000SOL     OW 8044   1.573   0.516   3.508 -0.4332  0.0996 -0.0261
 2000SOL    HW2 8045   1.559   0.514   3.603 -1.0948 -0.2776 -0.1300
 2000SOL    HW3 8046   1.652   0.464   3.495  0.9551  2.0063  0.5383
 2000SOL    MW4 8047   1.581   0.509   3.519 -0.3371  0.3014  0.0348
 2001SOL     OW 8048   1.591   0.760   3.399  0.1167  0.3979  0.0306
 2001SOL    HW2 8049   1.518   0.803   3.444  0.1065 -0.2738  0.6715
 2001SOL    HW3 8050   1.585   0.668   3.427  1.1457  0.3155  0.0038
 2001SOL    MW4 8051   1.580   0.754   3.409  0.2511  0.2984  0.1116
 2002SOL     OW 8052   1.345   0.899   3.505 -0.1795  0.4671 -0.3782
 2002SOL    HW2 8053   1.359   0.909   3.599  1.0989  0.6931 -0.5754
 2002SOL    HW3 8054   1.359   0.987   3.469  0.9151  0.0850 -0.9420
 2002SOL    MW4 8055   1.349   0.912   3.513  0.1338  0.4465 -0.4785
 2003SOL     OW 8056   1.368   1.157   3.421 -0.2374 -0.3775  0.9024
 2003SOL    HW2 8057   1.441   1.213   3.445  0.4832 -1.2083  0.7006
 2003SOL    HW3 8058   1.290   1.205   3.447  0.3747  0.6607  0.8218
 2003SOL    MW4 8059   1.367   1.170   3.428 -0.0616 -0.3500  0.8652
 2004SOL     OW 8060   1.618   1.291   3.452  0.4376  0.2605 -0.6101
 2004SOL    HW2 8061   1.601   1.379   3.419  2.4238  0.7249 -0.4516
 2004SOL    HW3 8062   1.612   1.300   3.547 -1.2257 -0.2045 -0.6491
 2004SOL    MW4 8063   1.615   1.304   3.460  0.4802  0.2605 -0.5944
 2005SOL     OW 8064   1.521   1.528   3.383 -0.0901 -0.1170 -0.1581
 2005SOL    HW2 8065   1.607   1.556   3.415  0.1016 -1.2578  0.3412
 2005SOL    HW3 8066   1.525   1.542   3.288  0.5580  0.0467 -0.1082
 2005SOL    MW4 8067   1.533   1.534   3.374  0.0206 -0.2458 -0.0858
 2006SOL     OW 8068   1.312   1.717   3.532 -0.0043 -0.1175  0.1800
 2006SOL    HW2 8069   1.392   1.675   3.499 -0.5209 -0.0441 -1.2201
 2006SOL    HW3 8070   1.312   1.698   3.626  1.2263 -0.8272  0.0532
 2006SOL    MW4 8071   1.323   1.709   3.540  0.0900 -0.2013 -0.0217
 2007SOL     OW 8072   1.296   1.962   3.381  0.1932 -0.3257 -0.0330
 2007SOL    HW2 8073   1.372   1.997   3.428  0.8793  0.1989 -1.5160
 2007SOL    HW3 8074   1.286   1.873   3.415 -0.0537  0.4491  1.9743
 2007SOL    MW4 8075   1.305   1.955   3.392  0.2511 -0.1541  0.0360
 2008SOL     OW 8076   1.555   2.016   3.512  0.2918 -0.1341 -0.2589
 2008SOL    HW2 8077   1.631   1.961   3.491 -0.2310 -0.9314 -0.0788
 2008SOL    HW3 8078   1.579   2.103   3.480  1.4910 -0.2689  0.2671
 2008SOL    MW4 8079   1.568   2.020   3.505  0.3810 -0.2570 -0.1655
 2009SOL     OW 8080   1.581   2.296   3.409 -0.0970  0.5900  0.1130
 2009SOL    HW2 8081   1.493   2.326   3.429  0.0666  1.5343 -0.5473
 2009SOL    HW3 8082   1.586   2.298   3.313  0.1447 -0.8917  0.0896
 2009SOL    MW4 8083   1.570   2.300   3.399 -0.0435  0.5188  0.0229
 2010SOL     OW 8084   1.352   2.433   3.463  0.2791 -0.2851 -0.1624
 2010SOL    HW2 8085   1.329   2.458   3.553  2.1071  1.6549 -0.1978
 2010SOL    HW3 8086   1.361   2.516   3.417  1.2015 -1.2167 -1.6750
 2010SOL    MW4 8087   1.350   2.447   3.469  0.6419 -0.1521 -0.3664
 2011SOL     OW 8088   1.399   2.693   3.367 -0.2531 -0.4899 -0.5388
 2011SOL    HW2 8089   1.445   2.772   3.396  0.1714 -0.7424 -0.5103
 2011SOL    HW3 8090   1.398   2.700   3.272  1.1189 -1.1768 -0.6175
 2011SOL    MW4 8091   1.405   2.704   3.358 -0.0161 -0.6139 -0.5455
 2012SOL     OW 8092   1.573   2.883   3.495  0.1771 -0.2092 -0.3249
 2012SOL    HW2 8093   1.660   2.852   3.468 -1.0342 -2.1661 -2.1274
 2012SOL    HW3 8094   1.550   2.950   3.430  0.7027  0.9732  0.6898
 2012SOL    MW4 8095   1.582   2.888   3.483  0.0867 -0.3114 -0.4289
 2013SOL     OW 8096   1.556   3.111   3.345  0.4078 -0.2449  0.2345
 2013SOL    HW2 8097   1.629   3.166   3.372 -0.0473 -0.6667  2.4064
 2013SOL    HW3 8098   1.480   3.149   3.388 -0.3337 -0.9953 -0.3857
 2013SOL    MW4 8099   1.555   3.123   3.354  0.2499 -0.3996  0.4392
 2014SOL     OW 8100   1.372   3.251   3.485 -0.5926 -0.6830  0.1967
 2014SOL    HW2 8101   1.382   3.245   3.580  0.4038 -1.1148  0.0711
 2014SOL    HW3 8102   1.291   3.203   3.466 -1.3433  0.2709  0.9238
 2014SOL    MW4 8103   1.363   3.244   3.495 -0.5604 -0.6142  0.2759
 2015SOL     OW 8104   1.373   3.503   3.365  0.1178 -0.3274  0.0875
 2015SOL    HW2 8105   1.378   3.419   3.411  1.5235  0.5000  1.4807
 2015SOL    HW3 8106   1.293   3.543   3.398  1.1506  0.2929  1.9278
 2015SOL    MW4 8107   1.363   3.497   3.376  0.4395 -0.1364  0.5140
 2016SOL     OW 8108   1.617   3.638   3.454 -0.0206  0.3947  0.0551
 2016SOL    HW2 8109   1.611   3.626   3.549  0.4197 -2.0086 -0.1987
 2016SOL    HW3 8110   1.547   3.583   3.418  0.3138  0.6776 -1.0601
 2016SOL    MW4 8111   1.607   3.629   3.462  0.0818  0.1147 -0.1256
 2017SOL     OW 8112   1.605   3.898   3.389 -0.4137 -0.8732 -1.4504
 2017SOL    HW2 8113   1.613   3.807   3.418  2.6898  0.3073  1.7380
 2017SOL    HW3 8114   1.526   3.930   3.431  0.2910 -1.2027  0.1784
 2017SOL    MW4 8115   1.596   3.890   3.398  0.0887 -0.7610 -0.8149
 2018SOL     OW 8116   1.364   3.985   3.490  0.3401  0.0832 -0.1877
 2018SOL    HW2 8117   1.363   3.979   3.586 -0.4539  0.0785 -0.1943
 2018SOL    HW3 8118   1.364   4.079   3.472 -1.1808  0.1014 -0.1863
 2018SOL    MW4 8119   1.364   3.996   3.500  0.0345  0.0849 -0.1886
 2019SOL     OW 8120   1.351   4.252   3.416 -0.0094  0.0299  0.5510
 2019SOL    HW2 8121   1.281   4.299   3.461  0.1962 -0.3290  1.2520
 2019SOL    HW3 8122   1.330   4.261   3.323 -0.3914  0.8527  0.7086
 2019SOL    MW4 8123   1.339   4.259   3.410 -0.0325  0.0906  0.6645
 2020SOL     OW 8124   1.582   4.389   3.476  0.1615  0.4093 -0.6565
 2020SOL    HW2 8125   1.655   4.331   3.457  0.0542 -0.0211  0.2215
 2020SOL    HW3 8126   1.505   4.343   3.441 -0.1145 -0.6528  1.2794
 2020SOL    MW4 8127   1.581   4.375   3.469  0.1110  0.2122 -0.2854
 2021SOL     OW 8128   2.026   4.627   3.410  0.2297  0.2232  0.3763
 2021SOL    HW2 8129   2.096   4.672   3.459  0.1007  1.5755 -0.6667
 2021SOL    HW3 8130   1.946   4.671   3.438  0.0077 -0.0038  0.0914
 2021SOL    MW4 8131   2.025   4.639   3.420  0.1833  0.3715  0.2010
 2022SOL     OW 8132   1.811   0.108   3.500  0.4497 -0.0569 -0.6596
 2022SOL    HW2 8133   1.807   0.107   3.595 -0.5800 -0.4119 -0.6977
 2022SOL    HW3 8134   1.734   0.058   3.472 -0.4731  1.8535 -1.6745
 2022SOL    MW4 8135   1.800   0.102   3.509  0.1920  0.1483 -0.7987
 2023SOL     OW 8136   1.806   0.367   3.431  0.2615  0.4173 -0.2629
 2023SOL    HW2 8137   1.810   0.277   3.465  0.8570 -0.0916 -1.6279
 2023SOL    HW3 8138   1.831   0.359   3.339 -0.3063  1.9073 -0.5658
 2023SOL    MW4 8139   1.810   0.354   3.423  0.2650  0.5468 -0.4828
 2024SOL     OW 8140   2.059   0.496   3.521 -0.2658 -0.0984  0.3494
 2024SOL    HW2 8141   2.061   0.583   3.480  1.2073  0.1319  0.8536
 2024SOL    HW3 8142   1.972   0.462   3.503 -0.5185  1.0893 -0.7015
 2024SOL    MW4 8143   2.048   0.503   3.513 -0.1049  0.0886  0.2770
 2025SOL     OW 8144   2.044   0.742   3.401  0.2177  0.0502  0.3217
 2025SOL    HW2 8145   1.960   0.773   3.434  0.9602  2.0570  0.3835
 2025SOL    HW3 8146   2.036   0.748   3.306 -0.4314 -1.7520  0.2437
 2025SOL    MW4 8147   2.032   0.747   3.393  0.2298  0.0772  0.3197
 2026SOL     OW 8148   1.812   0.867   3.501  0.0070 -0.3616  0.0863
 2026SOL    HW2 8149   1.740   0.819   3.461 -0.2567 -0.6756  0.9107
 2026SOL    HW3 8150   1.814   0.951   3.455 -1.1853 -0.1684  0.3696
 2026SOL    MW4 8151   1.803   0.872   3.490 -0.1853 -0.3776  0.2327
 2027SOL     OW 8152   1.828   1.133   3.403  0.0735 -0.2447  0.0873
 2027SOL    HW2 8153   1.908   1.176   3.434 -1.1031  1.4284  0.8759
 2027SOL    HW3 8154   1.758   1.196   3.421 -1.5285 -1.9517  0.0489
 2027SOL    MW4 8155   1.829   1.147   3.410 -0.2930 -0.2491  0.1862
 2028SOL     OW 8156   2.199   1.707   3.805  0.0128  0.1235  0.2948
 2028SOL    HW2 8157   2.207   1.795   3.842  0.5130  1.3954 -2.7002
 2028SOL    HW3 8158   2.279   1.662   3.832  0.1347  0.8238  1.1415
 2028SOL    MW4 8159   2.210   1.713   3.814  0.0949  0.3837  0.0114
 2029SOL     OW 8160   2.023   1.528   3.383 -0.0053  0.3014 -0.4520
 2029SOL    HW2 8161   2.087   1.576   3.436 -0.7822  0.4450  0.3569
 2029SOL    HW3 8162   2.027   1.439   3.416  0.4137  0.1071 -1.0085
 2029SOL    MW4 8163   2.032   1.523   3.394 -0.0527  0.2948 -0.4187
 2030SOL     OW 8164   1.790   1.597   3.479  0.4070 -0.0566  0.1333
 2030SOL    HW2 8165   1.790   1.686   3.444 -0.1902  0.9914  2.6568
 2030SOL    HW3 8166   1.880   1.566   3.466  0.9171  1.3460  0.2071
 2030SOL    MW4 8167   1.802   1.604   3.473  0.3954  0.2667  0.4759
 2031SOL     OW 8168   1.816   1.872   3.400  0.5639  0.6159 -0.1381
 2031SOL    HW2 8169   1.864   1.954   3.407  0.2063  0.9412 -1.5398
 2031SOL    HW3 8170   1.778   1.872   3.312 -2.6940  0.7320  1.1926
 2031SOL    MW4 8171   1.817   1.883   3.390  0.0869  0.6741 -0.1476
 2032SOL     OW 8172   2.003   2.073   3.451  0.5168 -0.1347 -0.0237
 2032SOL    HW2 8173   2.087   2.033   3.429  0.6186  0.3416 -0.4958
 2032SOL    HW3 8174   2.009   2.163   3.418 -0.3901 -0.2636 -0.5516
 2032SOL    MW4 8175   2.015   2.080   3.444  0.4106 -0.0887 -0.1559
 2033SOL     OW 8176   2.038   2.332   3.374 -0.2524  0.6489  0.6925
 2033SOL    HW2 8177   2.113   2.377   3.412 -0.5505  1.9593 -0.2579
 2033SOL    HW3 8178   2.045   2.347   3.280 -0.8232 -0.5748  0.4464
 2033SOL    MW4 8179   2.049   2.340   3.367 -0.3669  0.6604  0.5348
 2034SOL     OW 8180   1.810   2.465   3.462  0.0655  0.0542 -0.5374
 2034SOL    HW2 8181   1.889   2.418   3.434  0.8878 -0.1052  1.9730
 2034SOL    HW3 8182   1.738   2.405   3.442  0.9134 -1.3400  0.5472
 2034SOL    MW4 8183   1.811   2.451   3.455  0.2859 -0.1507 -0.0629
 2035SOL     OW 8184   1.821   2.741   3.386  0.5914  0.0562  0.4174
 2035SOL    HW2 8185   1.894   2.780   3.434  0.0692 -0.1741  1.4121
 2035SOL    HW3 8186   1.820   2.649   3.413  1.6954 -0.6337 -1.7611
 2035SOL    MW4 8187   1.830   2.734   3.396  0.6682 -0.0651  0.2613
 2036SOL     OW 8188   2.038   2.869   3.514  0.0002 -0.4511  0.5412
 2036SOL    HW2 8189   2.040   2.878   3.609 -0.3846 -1.6594  0.6712
 2036SOL    HW3 8190   2.019   2.957   3.482  0.5978  0.0655  1.5537
 2036SOL    MW4 8191   2.036   2.882   3.522  0.0281 -0.5424  0.6919
 2037SOL     OW 8192   2.009   3.116   3.415  0.1458 -0.0568 -0.2518
 2037SOL    HW2 8193   2.080   3.167   3.454  0.0155  0.3223 -0.5085
 2037SOL    HW3 8194   1.929   3.162   3.440 -0.0537 -0.8655  0.6094
 2037SOL    MW4 8195   2.008   3.129   3.423  0.1023 -0.1135 -0.1719
 2038SOL     OW 8196   1.779   3.252   3.480 -0.3230  0.0300 -0.0702
 2038SOL    HW2 8197   1.792   3.262   3.575  0.9251 -0.8819 -0.1430
 2038SOL    HW3 8198   1.808   3.336   3.444  0.9364 -0.2800  0.1975
 2038SOL    MW4 8199   1.785   3.265   3.488  0.0077 -0.1309 -0.0446
 2039SOL     OW 8200   1.853   3.499   3.416  0.4264 -0.2173  0.2744
 2039SOL    HW2 8201   1.785   3.566   3.420 -0.4747 -1.1350  0.3787
 2039SOL    HW3 8202   1.846   3.461   3.329  0.0736 -1.0652  0.6661
 2039SOL    MW4 8203   1.843   3.503   3.405  0.2609 -0.4506  0.3400
 2040SOL     OW 8204   2.082   3.618   3.548 -0.0846 -0.1091  0.3529
 2040SOL    HW2 8205   2.166   3.586   3.514 -0.5276 -0.5415 -0.3572
 2040SOL    HW3 8206   2.020   3.548   3.528 -0.9098  0.8448 -0.4576
 2040SOL    MW4 8207   2.085   3.604   3.541 -0.2518 -0.0405  0.1519
 2041SOL     OW 8208   2.049   3.830   3.374 -0.0049  0.6435  0.1699
 2041SOL    HW2 8209   1.974   3.876   3.411 -0.4150 -0.3290  0.5594
 2041SOL    HW3 8210   2.063   3.756   3.432  0.0748 -0.2416 -0.9571
 2041SOL    MW4 8211   2.041   3.826   3.386 -0.0486  0.3984  0.0727
 2042SOL     OW 8212   1.841   3.983   3.494 -0.6276 -0.2901  0.0032
 2042SOL    HW2 8213   1.830   3.975   3.589  2.1287 -2.3083  0.2139
 2042SOL    HW3 8214   1.762   3.941   3.458 -1.8048  0.6808  1.3812
 2042SOL    MW4 8215   1.829   3.976   3.502 -0.4191 -0.4284  0.2129
 2043SOL     OW 8216   1.810   4.254   3.419 -0.1596  0.2707 -0.2567
 2043SOL    HW2 8217   1.801   4.163   3.447 -1.6956  0.6290  0.4775
 2043SOL    HW3 8218   1.811   4.250   3.323  0.2134 -0.5486 -0.2203
 2043SOL    MW4 8219   1.809   4.241   3.410 -0.3130  0.2093 -0.1550
 2044SOL     OW 8220   2.032   4.373   3.510  0.2718 -0.1928 -0.3192
 2044SOL    HW2 8221   1.953   4.328   3.478 -1.1675  1.0597  1.4313
 2044SOL    HW3 8222   2.020   4.464   3.482  1.2431 -0.0591 -0.2927
 2044SOL    MW4 8223   2.020   4.379   3.502  0.2100 -0.0100 -0.0846
 2045SOL     OW 8224   2.473   4.643   3.422  0.2457 -0.5983 -0.1798
 2045SOL    HW2 8225   2.465   4.551   3.449  2.7323 -1.1076 -1.0495
 2045SOL    HW3 8226   2.489   4.639   3.328  0.7765  0.7100 -0.1563
 2045SOL    MW4 8227   2.474   4.630   3.413  0.6437 -0.4929 -0.2913
 2046SOL     OW 8228   2.239   0.092   3.523 -0.0176  0.6679 -0.0585
 2046SOL    HW2 8229   2.240   0.183   3.493 -1.5904  0.4062 -0.9657
 2046SOL    HW3 8230   2.319   0.054   3.487  1.2155  1.9713  1.2541
 2046SOL    MW4 8231   2.249   0.099   3.514 -0.0625  0.8054 -0.0050
 2047SOL     OW 8232   2.290   0.340   3.422  0.4222  0.0264 -0.2739
 2047SOL    HW2 8233   2.360   0.383   3.472  0.4252  0.3206 -0.5283
 2047SOL    HW3 8234   2.214   0.397   3.433  0.1814 -0.3747  0.1279
 2047SOL    MW4 8235   2.290   0.353   3.430  0.3905  0.0123 -0.2542
 2048SOL     OW 8236   2.501   0.475   3.534 -0.1616  0.0036 -0.1076
 2048SOL    HW2 8237   2.583   0.432   3.510 -0.3502 -0.2445 -0.3017
 2048SOL    HW3 8238   2.511   0.565   3.502  0.4413  0.2498  0.7510
 2048SOL    MW4 8239   2.513   0.481   3.527 -0.1070  0.0033 -0.0198
 2049SOL     OW 8240   2.495   0.746   3.423 -0.3917  0.4175 -0.1235
 2049SOL    HW2 8241   2.576   0.796   3.438 -0.9381  1.1127  0.5439
 2049SOL    HW3 8242   2.482   0.750   3.329 -0.1222  1.0564 -0.1378
 2049SOL    MW4 8243   2.504   0.754   3.413 -0.4284  0.5935 -0.0374
 2050SOL     OW 8244   2.272   0.868   3.524  0.0486  0.0070  0.4938
 2050SOL    HW2 8245   2.197   0.822   3.485  0.1678 -1.0263  1.4574
 2050SOL    HW3 8246   2.348   0.820   3.490  0.1962 -0.1549  1.0560
 2050SOL    MW4 8247   2.272   0.855   3.514  0.0839 -0.1507  0.6955
 2051SOL     OW 8248   2.262   1.151   3.434  0.2407  0.2901 -0.1432
 2051SOL    HW2 8249   2.340   1.203   3.449  0.8203 -0.3258 -0.9831
 2051SOL    HW3 8250   2.286   1.062   3.462 -0.6761  0.4311  1.1149
 2051SOL    MW4 8251   2.275   1.146   3.440  0.1965  0.2275 -0.0882
 2052SOL     OW 8252   2.500   1.283   3.505 -0.1676  0.0446  0.6082
 2052SOL    HW2 8253   2.528   1.265   3.595  0.7099  0.3433  0.4047
 2052SOL    HW3 8254   2.561   1.232   3.451  0.4400  1.2659  0.1238
 2052SOL    MW4 8255   2.512   1.274   3.509  0.0284  0.2452  0.5174
 2053SOL     OW 8256   2.441   1.554   3.445 -0.6481  0.1267  0.4670
 2053SOL    HW2 8257   2.469   1.463   3.456  0.0382  0.0877 -1.4540
 2053SOL    HW3 8258   2.427   1.564   3.350 -0.7964  1.9965  0.6586
 2053SOL    MW4 8259   2.443   1.543   3.434 -0.5770  0.3684  0.2387
 2054SOL     OW 8260   2.196   1.682   3.521 -0.0667  0.3930 -0.1783
 2054SOL    HW2 8261   2.170   1.685   3.613  2.3243  2.8180  0.4768
 2054SOL    HW3 8262   2.272   1.623   3.520 -1.4735 -1.4851 -1.0351
 2054SOL    MW4 8263   2.202   1.674   3.533  0.0629  0.4652 -0.2050
 2055SOL     OW 8264   2.249   1.928   3.384  0.0085 -0.2583 -0.1014
 2055SOL    HW2 8265   2.239   1.847   3.435 -0.9097 -0.2494 -0.2498
 2055SOL    HW3 8266   2.222   1.904   3.295  1.4390 -0.2279 -0.5471
 2055SOL    MW4 8267   2.244   1.914   3.379  0.0763 -0.2531 -0.1798
 2056SOL     OW 8268   2.713   1.931   3.389 -0.0772  0.1140 -0.1148
 2056SOL    HW2 8269   2.689   1.848   3.431 -0.4334  0.6449  0.7536
 2056SOL    HW3 8270   2.685   1.921   3.298  0.5972 -1.0144 -0.2083
 2056SOL    MW4 8271   2.706   1.919   3.382 -0.0353  0.0353 -0.0126
 2057SOL     OW 8272   2.480   2.330   3.360 -0.0983 -0.4894 -0.0773
 2057SOL    HW2 8273   2.538   2.373   3.424 -0.6340 -0.7196  0.5671
 2057SOL    HW3 8274   2.464   2.244   3.397 -0.0499 -0.7874 -0.7517
 2057SOL    MW4 8275   2.486   2.325   3.373 -0.1628 -0.5591 -0.0813
 2058SOL     OW 8276   2.266   2.451   3.488  0.2455  0.1832  0.0484
 2058SOL    HW2 8277   2.268   2.540   3.454  0.6371  0.4608  0.7951
 2058SOL    HW3 8278   2.337   2.406   3.442 -0.0079  0.2293 -0.3915
 2058SOL    MW4 8279   2.275   2.457   3.477  0.2639  0.2260  0.0889
 2059SOL     OW 8280   2.260   2.734   3.418  0.5529  0.1460  0.0546
 2059SOL    HW2 8281   2.179   2.764   3.459  0.5829  1.0751 -0.5287
 2059SOL    HW3 8282   2.239   2.730   3.324  0.9559 -0.3631 -0.0183
 2059SOL    MW4 8283   2.246   2.737   3.411  0.6099  0.2012 -0.0319
 2060SOL     OW 8284   2.691   2.703   3.405 -0.1867 -0.6558  0.6065
 2060SOL    HW2 8285   2.613   2.756   3.422  0.5046  0.5073  0.1975
 2060SOL    HW3 8286   2.680   2.626   3.460 -0.8982  0.2191  1.7019
 2060SOL    MW4 8287   2.680   2.700   3.414 -0.1893 -0.3870  0.6969
 2061SOL     OW 8288   2.452   3.161   3.399 -0.5878  0.2532  0.1391
 2061SOL    HW2 8289   2.528   3.193   3.447 -1.4179  0.5744  1.2700
 2061SOL    HW3 8290   2.486   3.137   3.313  0.7863  0.3835  0.6347
 2061SOL    MW4 8291   2.466   3.162   3.394 -0.5159  0.3128  0.3538
 2062SOL     OW 8292   2.219   3.242   3.513 -0.1611 -0.1901 -0.1358
 2062SOL    HW2 8293   2.238   3.246   3.607 -2.1015  0.8102  0.2503
 2062SOL    HW3 8294   2.299   3.208   3.474  0.7844 -0.3535  1.8513
 2062SOL    MW4 8295   2.232   3.238   3.520 -0.2923 -0.0796  0.1774
 2063SOL     OW 8296   2.280   3.476   3.401 -0.5091 -0.4363 -0.1674
 2063SOL    HW2 8297   2.261   3.392   3.442  1.1674 -0.6825  0.1308
 2063SOL    HW3 8298   2.269   3.461   3.307 -2.2383 -0.4291  0.0113
 2063SOL    MW4 8299   2.276   3.463   3.394 -0.5162 -0.4680 -0.1044
 2064SOL     OW 8300   2.489   3.609   3.538 -0.5312  0.5017  0.0739
 2064SOL    HW2 8301   2.485   3.701   3.509 -1.3133  0.2348 -0.6719
 2064SOL    HW3 8302   2.420   3.565   3.489  0.1315 -0.5899  0.0905
 2064SOL    MW4 8303   2.480   3.616   3.528 -0.5469  0.3228 -0.0224
 2065SOL     OW 8304   2.488   3.865   3.411  0.2946 -0.2799  0.4462
 2065SOL    HW2 8305   2.562   3.915   3.445  1.1496 -2.5206  1.9971
 2065SOL    HW3 8306   2.411   3.911   3.444  1.0770 -0.1862  2.1860
 2065SOL    MW4 8307   2.487   3.878   3.420  0.5105 -0.5631  0.8802
 2066SOL     OW 8308   2.250   4.003   3.469 -0.2567 -0.2775  0.5193
 2066SOL    HW2 8309   2.241   4.089   3.428 -1.1165 -0.1481  0.9668
 2066SOL    HW3 8310   2.189   3.947   3.420  1.3667 -0.9945 -0.7288
 2066SOL    MW4 8311   2.241   4.007   3.457 -0.1559 -0.3552  0.4139
 2067SOL     OW 8312   2.235   4.261   3.381  0.2220 -0.3073  0.3205
 2067SOL    HW2 8313   2.154   4.303   3.407  0.8972  0.3641  1.3835
 2067SOL    HW3 8314   2.241   4.275   3.286 -1.1004 -0.7383  0.1701
 2067SOL    MW4 8315   2.225   4.268   3.372  0.1364 -0.2756  0.4408
 2068SOL     OW 8316   2.435   4.371   3.522  0.0135 -0.2948 -0.0317
 2068SOL    HW2 8317   2.419   4.397   3.613  0.5259 -1.4946  0.4179
 2068SOL    HW3 8318   2.355   4.324   3.496 -0.9681  1.8176 -0.8879
 2068SOL    MW4 8319   2.422   4.368   3.530 -0.0484 -0.1745 -0.0854
 2069SOL     OW 8320   2.943   4.654   3.436 -0.3426 -0.7641  0.0978
 2069SOL    HW2 8321   2.866   4.710   3.452 -0.7905 -1.6623  1.1471
 2069SOL    HW3 8322   2.955   4.657   3.341 -1.7868 -0.7430 -0.1019
 2069SOL    MW4 8323   2.934   4.662   3.426 -0.5922 -0.8798  0.2100
 2070SOL     OW 8324   2.712   0.120   3.504 -0.2828  0.3604 -0.0049
 2070SOL    HW2 8325   2.714   0.210   3.472  0.8186 -0.4033 -2.2132
 2070SOL    HW3 8326   2.638   0.080   3.458  2.6184 -1.3434 -3.4807
 2070SOL    MW4 8327   2.703   0.127   3.494  0.2456  0.0349 -0.7548
 2071SOL     OW 8328   2.728   0.377   3.431 -0.5251 -0.1743  0.0169
 2071SOL    HW2 8329   2.800   0.423   3.474 -1.3691 -0.6090  1.9437
 2071SOL    HW3 8330   2.741   0.394   3.338 -0.2010  3.0375  0.6024
 2071SOL    MW4 8331   2.739   0.385   3.425 -0.5939  0.1921  0.3483
 2072SOL     OW 8332   2.965   0.490   3.527  0.0062  0.1048  0.5563
 2072SOL    HW2 8333   2.958   0.504   3.622 -1.5998  1.9049  0.2166
 2072SOL    HW3 8334   2.933   0.572   3.489 -1.6047 -1.4670 -1.5634
 2072SOL    MW4 8335   2.960   0.503   3.535 -0.4182  0.1349  0.2320
 2073SOL     OW 8336   2.906   0.737   3.453  0.0859  0.3747 -0.1405
 2073SOL    HW2 8337   2.989   0.769   3.488 -0.7384  2.9822 -0.5131
 2073SOL    HW3 8338   2.842   0.804   3.476 -2.3121 -2.3815  1.6542
 2073SOL    MW4 8339   2.909   0.750   3.461 -0.3390  0.3550  0.0470
 2074SOL     OW 8340   2.698   0.895   3.527 -0.0458 -0.2806  0.3406
 2074SOL    HW2 8341   2.693   0.909   3.622 -3.7671  0.2045  0.1724
 2074SOL    HW3 8342   2.701   0.983   3.490  2.1186 -0.4767 -0.0103
 2074SOL    MW4 8343   2.697   0.909   3.535 -0.2513 -0.2424  0.2723
 2075SOL     OW 8344   2.734   1.138   3.420 -0.0464 -0.2272 -0.1823
 2075SOL    HW2 8345   2.818   1.174   3.448 -0.0699  0.0641 -0.4809
 2075SOL    HW3 8346   2.741   1.132   3.325 -0.3063 -0.3460 -0.1950
 2075SOL    MW4 8347   2.746   1.142   3.411 -0.0839 -0.2044 -0.2234
 2076SOL     OW 8348   2.978   1.265   3.506  0.2284 -0.2832  0.0346
 2076SOL    HW2 8349   2.978   1.285   3.599  0.6642 -1.4494  0.2954
 2076SOL    HW3 8350   3.055   1.209   3.493 -0.6246 -1.3167 -0.7601
 2076SOL    MW4 8351   2.988   1.260   3.516  0.1733 -0.5734 -0.0358
 2077SOL     OW 8352   2.923   1.531   3.412 -0.0031  0.0529 -0.2204
 2077SOL    HW2 8353   2.833   1.551   3.441 -0.0926  1.0052 -1.1436
 2077SOL    HW3 8354   2.939   1.443   3.445 -1.3571 -0.2074 -0.2148
 2077SOL    MW4 8355   2.913   1.522   3.420 -0.1936  0.1441 -0.3414
 2078SOL     OW 8356   2.680   1.676   3.506  0.1629 -0.1760 -0.3911
 2078SOL    HW2 8357   2.678   1.678   3.602  0.2109  1.0337 -0.4009
 2078SOL    HW3 8358   2.598   1.634   3.481 -0.5658  0.8815  0.1635
 2078SOL    MW4 8359   2.669   1.671   3.515  0.0732  0.1231 -0.3195
 2079SOL     OW 8360   2.919   2.075   3.498  0.1006  0.1734 -0.0894
 2079SOL    HW2 8361   2.886   2.068   3.587  0.4833  0.6232  0.0901
 2079SOL    HW3 8362   2.862   2.017   3.447 -0.9990  0.9950  0.1986
 2079SOL    MW4 8363   2.907   2.066   3.503  0.0062  0.3412 -0.0279
 2080SOL     OW 8364   2.705   0.444   4.190 -0.4422  0.2897  0.0937
 2080SOL    HW2 8365   2.704   0.535   4.221 -1.7587  0.4194 -0.3059
 2080SOL    HW3 8366   2.692   0.450   4.096 -1.0739 -0.3307  0.1352
 2080SOL    MW4 8367   2.703   0.457   4.182 -0.6993  0.2250  0.0463
 2081SOL     OW 8368   2.902   2.335   3.428 -0.2471  0.2829 -0.0152
 2081SOL    HW2 8369   2.906   2.243   3.452 -2.1701 -0.1152 -1.1129
 2081SOL    HW3 8370   2.903   2.335   3.332 -1.6845  1.2941 -0.0599
 2081SOL    MW4 8371   2.903   2.323   3.418 -0.6905  0.3636 -0.1657
 2082SOL     OW 8372   1.054   0.408   4.595 -0.4458  0.0242  0.4759
 2082SOL    HW2 8373   1.064   0.319   4.561  0.7032  0.3427 -0.0336
 2082SOL    HW3 8374   1.131   0.422   4.650 -1.2723  0.2525  1.6088
 2082SOL    MW4 8375   1.065   0.398   4.598 -0.4032  0.0964  0.5589
 2083SOL     OW 8376   2.656   2.455   3.532 -0.0490  0.0684  0.1737
 2083SOL    HW2 8377   2.726   2.399   3.497  0.8282  0.6270  1.0281
 2083SOL    HW3 8378   2.677   2.465   3.624 -1.8367 -0.6118  0.6916
 2083SOL    MW4 8379   2.668   2.449   3.539 -0.1690  0.0525  0.3548
 2084SOL     OW 8380   2.893   2.867   3.509 -0.0215 -0.5398 -0.1771
 2084SOL    HW2 8381   2.886   2.869   3.604  1.4754 -0.8022 -0.0416
 2084SOL    HW3 8382   2.820   2.813   3.480 -0.9768  0.2254  0.7589
 2084SOL    MW4 8383   2.883   2.860   3.517  0.0501 -0.4737 -0.0358
 2085SOL     OW 8384   2.901   3.132   3.419 -0.7121  0.3650 -0.3329
 2085SOL    HW2 8385   2.901   3.038   3.435  0.2941  0.6484  1.4618
 2085SOL    HW3 8386   2.922   3.141   3.326  1.8867 -1.1131  0.0745
 2085SOL    MW4 8387   2.904   3.121   3.409 -0.2363  0.2074 -0.0424
 2086SOL     OW 8388   2.675   3.260   3.536 -0.2700  0.2883 -0.0563
 2086SOL    HW2 8389   2.667   3.263   3.631  0.3274  2.5228 -0.0283
 2086SOL    HW3 8390   2.751   3.205   3.520 -0.4831 -0.2469  0.7558
 2086SOL    MW4 8391   2.684   3.253   3.546 -0.2191  0.5126  0.0546
 2087SOL     OW 8392   2.681   3.492   3.373  0.2684  0.2921 -0.2857
 2087SOL    HW2 8393   2.675   3.404   3.409 -1.4010  0.4225 -0.2270
 2087SOL    HW3 8394   2.618   3.544   3.424 -0.3877  1.0081 -1.7878
 2087SOL    MW4 8395   2.672   3.488   3.384 -0.0386  0.4036 -0.4761
 2088SOL     OW 8396   2.918   3.598   3.462  0.1337 -0.2257 -0.6187
 2088SOL    HW2 8397   2.902   3.688   3.434  0.2844  0.4927  1.5313
 2088SOL    HW3 8398   2.839   3.551   3.437 -0.8495  0.9798  0.1627
 2088SOL    MW4 8399   2.906   3.604   3.455  0.0241  0.0281 -0.2322
 2089SOL     OW 8400   2.880   3.879   3.390  0.2565 -0.0874 -0.2379
 2089SOL    HW2 8401   2.948   3.920   3.443 -0.1819  0.3100  0.0233
 2089SOL    HW3 8402   2.798   3.914   3.425 -0.0983 -0.7515 -0.3838
 2089SOL    MW4 8403   2.878   3.889   3.402  0.1521 -0.1225 -0.2227
 2090SOL     OW 8404   2.693   4.044   3.472 -0.2094  0.3130 -0.4859
 2090SOL    HW2 8405   2.688   4.062   3.566 -0.3079 -0.2792 -0.3730
 2090SOL    HW3 8406   2.681   4.129   3.430  0.7600  0.7300  0.0638
 2090SOL    MW4 8407   2.691   4.057   3.479 -0.0944  0.2894 -0.3986
 2091SOL     OW 8408   2.671   4.306   3.384  0.1794  0.3230  0.1382
 2091SOL    HW2 8409   2.744   4.339   3.435  1.6439 -1.8053 -0.4887
 2091SOL    HW3 8410   2.593   4.334   3.432  1.4935 -0.7032  2.9731
 2091SOL    MW4 8411   2.670   4.314   3.397  0.5462 -0.0935  0.4296
 2092SOL     OW 8412   2.894   4.388   3.517 -0.1062  0.2016 -0.1263
 2092SOL    HW2 8413   2.898   4.406   3.611  0.7595  0.2358 -0.1636
 2092SOL    HW3 8414   2.923   4.470   3.476  0.6556 -0.1989 -0.3874
 2092SOL    MW4 8415   2.899   4.401   3.524  0.1087  0.1535 -0.1659
 2093SOL     OW 8416   3.402   0.004   3.431  0.2799  0.6165 -0.0156
 2093SOL    HW2 8417   3.397   0.003   3.335 -0.8027 -0.8794  0.0423
 2093SOL    HW3 8418   3.322   0.050   3.458 -0.3524 -0.6094  0.2171
 2093SOL    MW4 8419   3.390   0.010   3.422  0.0536  0.2575  0.0226
 2094SOL     OW 8420   3.164   0.130   3.519 -0.1580 -0.1163 -0.1295
 2094SOL    HW2 8421   3.159   0.214   3.472 -1.2127  0.1654  0.4675
 2094SOL    HW3 8422   3.082   0.086   3.497  0.2301 -0.8347 -0.1343
 2094SOL    MW4 8423   3.153   0.135   3.510 -0.2460 -0.1739 -0.0513
 2095SOL     OW 8424   3.169   0.368   3.398  0.4211 -0.3136 -0.0887
 2095SOL    HW2 8425   3.092   0.412   3.433  2.9772  3.1918  1.5025
 2095SOL    HW3 8426   3.164   0.381   3.304 -1.4442 -1.0888 -0.1223
 2095SOL    MW4 8427   3.158   0.376   3.390  0.5124  0.0466  0.1171
 2096SOL     OW 8428   3.449   0.472   3.488 -0.0311  0.1817  0.5166
 2096SOL    HW2 8429   3.440   0.498   3.580  0.7557  1.5048  0.2313
 2096SOL    HW3 8430   3.366   0.429   3.467 -0.1471 -0.2871  1.8977
 2096SOL    MW4 8431   3.436   0.470   3.498  0.0575  0.2944  0.6611
 2097SOL     OW 8432   3.412   0.729   3.378  0.0398 -0.4103  0.0369
 2097SOL    HW2 8433   3.488   0.780   3.405 -0.2632 -0.6043  1.3191
 2097SOL    HW3 8434   3.430   0.640   3.410 -1.0498 -0.2900  1.0308
 2097SOL    MW4 8435   3.424   0.724   3.386 -0.1440 -0.4201  0.3371
 2098SOL     OW 8436   3.186   0.834   3.485 -0.3920 -0.4496  0.2013
 2098SOL    HW2 8437   3.178   0.924   3.454  0.9063 -0.6326 -0.6890
 2098SOL    HW3 8438   3.255   0.796   3.431 -0.3747 -1.7451  1.1156
 2098SOL    MW4 8439   3.194   0.841   3.474 -0.2184 -0.6446  0.2046
 2099SOL     OW 8440   3.187   1.084   3.408 -0.0081 -0.1346  0.5128
 2099SOL    HW2 8441   3.266   1.131   3.433  0.4108 -0.5945  0.0700
 2099SOL    HW3 8442   3.176   1.103   3.315  1.5348 -2.8297 -0.2952
 2099SOL    MW4 8443   3.196   1.093   3.399  0.2508 -0.5509  0.3479
 2100SOL     OW 8444   3.380   1.285   3.478  0.0903 -0.2246  0.4734
 2100SOL    HW2 8445   3.468   1.260   3.453 -0.0733 -0.4277  0.1014
 2100SOL    HW3 8446   3.374   1.379   3.458 -0.0602 -0.3998 -0.2962
 2100SOL    MW4 8447   3.391   1.294   3.472  0.0491 -0.2744  0.3228
 2101SOL     OW 8448   3.371   1.551   3.421 -0.1474  0.3896  0.1962
 2101SOL    HW2 8449   3.447   1.600   3.452  0.1606 -0.4897  0.8223
 2101SOL    HW3 8450   3.299   1.582   3.475 -0.0956  0.6805  0.1006
 2101SOL    MW4 8451   3.372   1.562   3.432 -0.1001  0.3120  0.2663
 2102SOL     OW 8452   3.124   1.703   3.518 -0.2091 -0.2012 -0.0985
 2102SOL    HW2 8453   3.136   1.783   3.467  0.3142 -0.3608 -0.2183
 2102SOL    HW3 8454   3.063   1.650   3.466 -0.5284  0.0979 -0.0360
 2102SOL    MW4 8455   3.117   1.707   3.505 -0.1822 -0.1827 -0.1061
 2103SOL     OW 8456   3.134   1.948   3.376  0.2087  0.3675  0.5889
 2103SOL    HW2 8457   3.057   1.983   3.420  0.1590  0.6672  0.2634
 2103SOL    HW3 8458   3.121   1.968   3.283  0.3459 -0.2022  0.4411
 2103SOL    MW4 8459   3.122   1.955   3.369  0.2203  0.3318  0.5264
 2104SOL     OW 8460   3.374   2.051   3.475 -0.2707 -0.0439 -0.7173
 2104SOL    HW2 8461   3.372   2.143   3.449  0.1236 -0.1572 -1.1575
 2104SOL    HW3 8462   3.292   2.015   3.442 -0.4338  0.1548 -0.5276
 2104SOL    MW4 8463   3.363   2.059   3.468 -0.2403 -0.0327 -0.7503
 2105SOL     OW 8464   3.366   2.346   3.442  0.1919 -0.2020  0.1200
 2105SOL    HW2 8465   3.442   2.385   3.484 -0.0678 -0.1794  0.5682
 2105SOL    HW3 8466   3.293   2.367   3.499 -0.2163  0.1153 -0.5110
 2105SOL    MW4 8467   3.366   2.354   3.455  0.1037 -0.1571  0.0958
 2106SOL     OW 8468   3.118   2.458   3.520  0.1014  0.0044 -0.0123
 2106SOL    HW2 8469   3.116   2.546   3.484  1.3627 -0.2818 -0.7947
 2106SOL    HW3 8470   3.041   2.415   3.484  0.4711  0.2290 -1.0711
 2106SOL    MW4 8471   3.108   2.464   3.511  0.3169 -0.0038 -0.2553
 2107SOL     OW 8472   3.102   2.719   3.418  0.0952 -0.2817  0.2794
 2107SOL    HW2 8473   3.172   2.766   3.464  0.6298 -1.9079  1.1711
 2107SOL    HW3 8474   3.022   2.765   3.444  0.6621  0.4565  0.7301
 2107SOL    MW4 8475   3.101   2.731   3.428  0.2406 -0.3991  0.4568
 2108SOL     OW 8476   3.342   2.838   3.517  0.2446 -0.2660 -0.5289
 2108SOL    HW2 8477   3.424   2.801   3.483  0.2673  0.3677 -1.1610
 2108SOL    HW3 8478   3.349   2.932   3.501 -0.2677 -0.1131  0.1363
 2108SOL    MW4 8479   3.354   2.845   3.510  0.1800 -0.1624 -0.5243
 2109SOL     OW 8480   3.394   3.090   3.411  0.2568  0.4776  0.1852
 2109SOL    HW2 8481   3.453   3.151   3.455 -0.2276  0.6103  0.6475
 2109SOL    HW3 8482   3.306   3.119   3.435  0.0114 -0.1060  0.0081
 2109SOL    MW4 8483   3.390   3.102   3.420  0.1605  0.4179  0.2229
 2110SOL     OW 8484   3.157   3.190   3.496 -0.1767 -0.7078  0.7132
 2110SOL    HW2 8485   3.172   3.282   3.475  1.7353 -0.9833  0.6993
 2110SOL    HW3 8486   3.066   3.173   3.471  0.3688  0.3731 -2.2529
 2110SOL    MW4 8487   3.147   3.200   3.490  0.1476 -0.6018  0.3202
 2111SOL     OW 8488   3.161   3.454   3.423  0.9041  0.3115  0.2197
 2111SOL    HW2 8489   3.083   3.488   3.465  2.1236  2.1752  1.0484
 2111SOL    HW3 8490   3.150   3.476   3.330  0.1662 -0.0083  0.2289
 2111SOL    MW4 8491   3.150   3.461   3.416  0.9677  0.5152  0.3302
 2112SOL     OW 8492   3.366   3.597   3.524 -0.0061 -0.3401 -0.4645
 2112SOL    HW2 8493   3.356   3.691   3.512 -1.7419  0.3353  4.8552
 2112SOL    HW3 8494   3.289   3.560   3.482  0.2989  0.6774 -1.9443
 2112SOL    MW4 8495   3.354   3.604   3.517 -0.1950 -0.1168  0.0422
 2113SOL     OW 8496   3.341   3.857   3.454 -0.1525 -0.6402  0.7045
 2113SOL    HW2 8497   3.420   3.911   3.460  0.6786 -1.8928  1.2979
 2113SOL    HW3 8498   3.269   3.917   3.472  0.6084  0.6688 -0.5337
 2113SOL    MW4 8499   3.342   3.872   3.457  0.0575 -0.6325  0.6194
 2114SOL     OW 8500   3.111   4.004   3.512  0.0510 -0.5410  0.1879
 2114SOL    HW2 8501   3.133   4.015   3.604 -1.7144  0.1448  0.5412
 2114SOL    HW3 8502   3.099   4.093   3.479 -2.9563 -0.8679  0.2360
 2114SOL    MW4 8503   3.112   4.017   3.520 -0.5786 -0.4935  0.2408
 2115SOL     OW 8504   3.106   4.274   3.418 -0.3988 -0.0042 -0.5794
 2115SOL    HW2 8505   3.178   4.316   3.464 -0.9174 -0.0357  0.2603
 2115SOL    HW3 8506   3.028   4.317   3.451 -0.7732 -0.0275 -1.4289
 2115SOL    MW4 8507   3.106   4.285   3.428 -0.5164 -0.0119 -0.5810
 2116SOL     OW 8508   3.331   4.419   3.512  0.4985  0.1684 -0.2814
 2116SOL    HW2 8509   3.321   4.437   3.606 -1.3025  1.3152 -0.6684
 2116SOL    HW3 8510   3.377   4.496   3.478  1.4091 -0.3757 -0.3126
 2116SOL    MW4 8511   3.336   4.432   3.520  0.3810  0.2480 -0.3364
 2117SOL     OW 8512   3.824   4.584   3.427 -0.0894 -0.5372  0.2150
 2117SOL    HW2 8513   3.748   4.638   3.451  0.8960  0.9086  0.1113
 2117SOL    HW3 8514   3.837   4.601   3.334  0.9410 -0.0555  0.4456
 2117SOL    MW4 8515   3.816   4.593   3.418  0.1762 -0.2828  0.2315
 2118SOL     OW 8516   3.621   0.094   3.529 -0.2571  0.0994  0.3421
 2118SOL    HW2 8517   3.650   0.173   3.484  1.9601  0.1282  1.7279
 2118SOL    HW3 8518   3.539   0.070   3.486 -0.2645  2.3803 -0.9850
 2118SOL    MW4 8519   3.614   0.101   3.517  0.0341  0.4041  0.3500
 2119SOL     OW 8520   3.678   0.349   3.415 -0.1584  0.1171  0.6115
 2119SOL    HW2 8521   3.762   0.394   3.429 -0.1414  1.3194 -2.9252
 2119SOL    HW3 8522   3.614   0.405   3.458  0.4268  1.1017  0.2154
 2119SOL    MW4 8523   3.681   0.362   3.423 -0.0787  0.4056  0.0925
 2120SOL     OW 8524   3.911   0.500   3.470  0.1572 -0.1987  0.3489
 2120SOL    HW2 8525   3.896   0.493   3.565  0.1866  0.9427  0.4431
 2120SOL    HW3 8526   3.988   0.444   3.454  0.5956  0.1703  1.1157
 2120SOL    MW4 8527   3.920   0.492   3.481  0.2191  0.0006  0.4623
 2121SOL     OW 8528   3.847   0.778   3.435  0.2171 -0.0290 -0.1273
 2121SOL    HW2 8529   3.913   0.831   3.479 -1.3005 -0.1984  2.5200
 2121SOL    HW3 8530   3.873   0.688   3.452 -0.1574 -0.0972  0.0999
 2121SOL    MW4 8531   3.859   0.773   3.443 -0.0324 -0.0603  0.2520
 2122SOL     OW 8532   3.614   0.907   3.477 -0.2411 -0.3447 -0.6779
 2122SOL    HW2 8533   3.619   0.916   3.573 -0.9711 -0.1285 -0.6544
 2122SOL    HW3 8534   3.696   0.864   3.453  0.1340 -0.0359  0.0030
 2122SOL    MW4 8535   3.626   0.903   3.487 -0.2878 -0.2755 -0.5848
 2123SOL     OW 8536   3.633   1.184   3.406 -0.1929  0.1277  0.6641
 2123SOL    HW2 8537   3.640   1.094   3.437  1.0535  0.3391  1.0147
 2123SOL    HW3 8538   3.628   1.177   3.311  0.3385 -0.2851  0.6655
 2123SOL    MW4 8539   3.633   1.171   3.398  0.0420  0.1011  0.7102
 2124SOL     OW 8540   3.887   1.316   3.452 -0.4472 -0.4264  0.0903
 2124SOL    HW2 8541   3.887   1.319   3.547  0.4575  0.8720  0.0665
 2124SOL    HW3 8542   3.811   1.262   3.429 -0.9687 -0.3135  1.5267
 2124SOL    MW4 8543   3.877   1.309   3.461 -0.3965 -0.2402  0.2768
 2125SOL     OW 8544   3.821   1.567   3.344 -0.1646  0.1398  0.1328
 2125SOL    HW2 8545   3.893   1.618   3.382  0.0338  1.3580 -1.8098
 2125SOL    HW3 8546   3.843   1.476   3.364  0.8865  0.6369  1.2957
 2125SOL    MW4 8547   3.833   1.562   3.351  0.0005  0.3661  0.0300
 2126SOL     OW 8548   3.603   1.673   3.499  0.2367 -0.3834  0.0900
 2126SOL    HW2 8549   3.603   1.766   3.475  0.1034 -0.2211  0.7030
 2126SOL    HW3 8550   3.680   1.637   3.454 -0.4239 -0.2557 -1.1679
 2126SOL    MW4 8551   3.613   1.681   3.490  0.1318 -0.3452  0.0052
 2127SOL     OW 8552   3.616   1.930   3.377 -0.1705 -0.2126  0.3794
 2127SOL    HW2 8553   3.685   1.976   3.425 -0.0694  1.6255 -1.4844
 2127SOL    HW3 8554   3.535   1.964   3.414 -0.0896  0.9554 -0.4998
 2127SOL    MW4 8555   3.614   1.940   3.389 -0.1466  0.1841  0.0176
 2128SOL     OW 8556   3.814   2.057   3.503 -0.1163 -0.2016  0.5896
 2128SOL    HW2 8557   3.836   2.063   3.596  0.7000 -2.2016  0.5344
 2128SOL    HW3 8558   3.883   2.003   3.465 -1.6634 -1.2838 -0.7549
 2128SOL    MW4 8559   3.826   2.051   3.510 -0.2129 -0.6082  0.4048
 2129SOL     OW 8560   3.812   2.327   3.402 -0.1366  0.2298 -0.5801
 2129SOL    HW2 8561   3.885   2.368   3.448 -0.6976  0.1454  0.4043
 2129SOL    HW3 8562   3.814   2.236   3.432  0.5917 -0.2583 -2.1073
 2129SOL    MW4 8563   3.822   2.320   3.412 -0.1144  0.1543 -0.6516
 2130SOL     OW 8564   3.599   2.444   3.562 -0.0031 -0.0807 -0.2494
 2130SOL    HW2 8565   3.600   2.534   3.531  1.0584 -0.5651 -1.6864
 2130SOL    HW3 8566   3.656   2.397   3.501 -0.3867 -1.6827  0.5956
 2130SOL    MW4 8567   3.607   2.450   3.550  0.0863 -0.3560 -0.3276
 2131SOL     OW 8568   3.582   2.699   3.443  0.2188 -0.2646  0.4046
 2131SOL    HW2 8569   3.669   2.728   3.470  0.5711 -1.7167  0.8336
 2131SOL    HW3 8570   3.593   2.672   3.352 -0.0341  0.5892  0.1140
 2131SOL    MW4 8571   3.595   2.700   3.434  0.2320 -0.3436  0.4227
 2132SOL     OW 8572   3.819   2.822   3.536 -0.0266 -0.3897 -0.1773
 2132SOL    HW2 8573   3.830   2.848   3.627  1.8709 -0.9351 -0.2438
 2132SOL    HW3 8574   3.808   2.905   3.489 -0.7686 -0.0933  0.5072
 2132SOL    MW4 8575   3.819   2.836   3.542  0.1259 -0.4225 -0.0958
 2133SOL     OW 8576   3.797   3.094   3.428  0.2683 -0.2126  0.0158
 2133SOL    HW2 8577   3.874   3.151   3.436 -1.1409  2.2056 -2.5052
 2133SOL    HW3 8578   3.779   3.093   3.334 -3.4371  0.1834  0.6799
 2133SOL    MW4 8579   3.805   3.102   3.416 -0.4067  0.1585 -0.2294
 2134SOL     OW 8580   3.582   3.264   3.519  0.5723  0.0783  0.5868
 2134SOL    HW2 8581   3.598   3.355   3.494  0.0728 -0.1161 -0.4533
 2134SOL    HW3 8582   3.657   3.217   3.482  0.8239  0.0659  1.1146
 2134SOL    MW4 8583   3.594   3.270   3.511  0.5398  0.0515  0.5190
 2135SOL     OW 8584   3.612   3.510   3.425  0.1881 -0.3741  0.0270
 2135SOL    HW2 8585   3.527   3.541   3.456  0.5457  0.1743  0.4758
 2135SOL    HW3 8586   3.604   3.507   3.330 -0.6402 -1.2329  0.1179
 2135SOL    MW4 8587   3.600   3.514   3.417  0.1261 -0.4151  0.0982
 2136SOL     OW 8588   3.863   3.617   3.465 -0.1022  0.2850 -0.1387
 2136SOL    HW2 8589   3.854   3.632   3.560  0.4715 -0.3828  0.0267
 2136SOL    HW3 8590   3.781   3.574   3.440 -1.1004  2.2354 -0.3263
 2136SOL    MW4 8591   3.851   3.613   3.474 -0.1585  0.4544 -0.1419
 2137SOL     OW 8592   3.837   3.900   3.417 -0.8297 -0.1399  0.1212
 2137SOL    HW2 8593   3.748   3.927   3.440 -1.0227 -0.7069  0.0686
 2137SOL    HW3 8594   3.836   3.805   3.428 -0.0136 -0.0688  0.8293
 2137SOL    MW4 8595   3.825   3.891   3.421 -0.7474 -0.2055  0.2077
 2138SOL     OW 8596   3.591   3.996   3.481 -0.0479  0.2057 -0.0723
 2138SOL    HW2 8597   3.589   4.005   3.576  0.3027 -1.1650  0.0674
 2138SOL    HW3 8598   3.607   4.085   3.449  1.9786  0.3358  1.2249
 2138SOL    MW4 8599   3.593   4.009   3.489  0.2658  0.0424  0.1173
 2139SOL     OW 8600   3.580   4.257   3.412 -0.0396  0.9579  0.1412
 2139SOL    HW2 8601   3.493   4.281   3.444  0.3363  2.3269  0.1669
 2139SOL    HW3 8602   3.569   4.247   3.318 -0.4940 -0.0957  0.3051
 2139SOL    MW4 8603   3.568   4.259   3.404 -0.0501  0.9999  0.1664
 2140SOL     OW 8604   4.051   4.276   3.388  0.0958 -0.3281  0.4105
 2140SOL    HW2 8605   4.075   4.193   3.428 -0.1070  0.2355  1.7325
 2140SOL    HW3 8606   3.975   4.306   3.439  0.2103  0.6875 -0.0077
 2140SOL    MW4 8607   4.044   4.269   3.400  0.0844 -0.1202  0.5298
 2141SOL     OW 8608   4.286   4.449   3.488 -0.0848 -0.3672 -0.3024
 2141SOL    HW2 8609   4.285   4.433   3.583  1.6365 -1.5974 -0.4551
 2141SOL    HW3 8610   4.217   4.393   3.453  0.7499 -1.6045  0.0050
 2141SOL    MW4 8611   4.277   4.440   3.496  0.2522 -0.6928 -0.2818
 2142SOL     OW 8612   4.054   0.046   3.531 -0.3439  0.0456  0.1807
 2142SOL    HW2 8613   4.110   0.001   3.467  0.8193  1.3671  0.2341
 2142SOL    HW3 8614   3.966   0.039   3.495  0.0858 -0.5908 -0.7823
 2142SOL    MW4 8615   4.050   0.039   3.518 -0.1335  0.1360  0.0610
 2143SOL     OW 8616   4.120   0.325   3.459  0.5821  0.1982  0.2840
 2143SOL    HW2 8617   4.092   0.244   3.502  1.2143 -0.2890 -0.2085
 2143SOL    HW3 8618   4.125   0.303   3.366 -0.9362  1.2966 -0.0620
 2143SOL    MW4 8619   4.117   0.311   3.453  0.4654  0.2788  0.1733
 2144SOL     OW 8620   4.334   0.496   3.538 -0.5890  0.1202  0.0897
 2144SOL    HW2 8621   4.309   0.579   3.499  0.4317  0.1563 -0.5394
 2144SOL    HW3 8622   4.259   0.438   3.524 -0.1366  0.0568 -2.2150
 2144SOL    MW4 8623   4.321   0.499   3.531 -0.3943  0.1166 -0.2973
 2145SOL     OW 8624   4.326   0.754   3.434 -0.2708  0.1808 -0.0499
 2145SOL    HW2 8625   4.400   0.796   3.480 -0.2732 -0.7118  0.7915
 2145SOL    HW3 8626   4.345   0.768   3.341  0.6379  0.5067  0.1704
 2145SOL    MW4 8627   4.338   0.762   3.428 -0.1516  0.1061  0.0901
 2146SOL     OW 8628   4.067   0.898   3.517 -0.1300 -0.0416  0.2333
 2146SOL    HW2 8629   4.094   0.982   3.482  0.5065 -0.3624 -0.0583
 2146SOL    HW3 8630   4.136   0.837   3.490  0.7333 -0.1855  2.6117
 2146SOL    MW4 8631   4.079   0.901   3.509  0.0677 -0.1029  0.5083
 2147SOL     OW 8632   4.122   1.151   3.424  0.3803 -0.2336 -0.0686
 2147SOL    HW2 8633   4.185   1.197   3.479 -0.8189  0.0742  1.0794
 2147SOL    HW3 8634   4.042   1.203   3.431  0.4283  0.2755 -2.7997
 2147SOL    MW4 8635   4.120   1.164   3.432  0.2284 -0.1256 -0.2773
 2148SOL     OW 8636   4.311   1.288   3.572 -0.3256 -0.4800 -0.2230
 2148SOL    HW2 8637   4.308   1.360   3.510  2.6352  1.3524  1.6052
 2148SOL    HW3 8638   4.383   1.233   3.541 -0.0285 -0.5347  0.5479
 2148SOL    MW4 8639   4.320   1.290   3.560  0.1040 -0.2455  0.1202
 2149SOL     OW 8640   4.256   1.485   3.392  0.5483  0.2465 -1.1301
 2149SOL    HW2 8641   4.175   1.533   3.407 -0.9227 -2.4426 -0.2839
 2149SOL    HW3 8642   4.264   1.481   3.297  0.2782  1.4656 -1.2109
 2149SOL    MW4 8643   4.247   1.491   3.381  0.3185  0.0526 -1.0293
 2150SOL     OW 8644   4.058   1.659   3.471 -0.2841 -0.0777  0.1786
 2150SOL    HW2 8645   4.081   1.650   3.563  0.8231  0.4013 -0.0386
 2150SOL    HW3 8646   4.060   1.753   3.455 -0.5656 -0.1529 -0.3084
 2150SOL    MW4 8647   4.061   1.670   3.481 -0.1750 -0.0244  0.0856
 2151SOL     OW 8648   4.008   1.920   3.396  0.0792  0.3158 -0.2118
 2151SOL    HW2 8649   4.088   1.957   3.433  1.1385 -1.2732 -0.8705
 2151SOL    HW3 8650   4.025   1.913   3.302 -0.9100  0.1372 -0.3921
 2151SOL    MW4 8651   4.021   1.924   3.388  0.0882  0.0826 -0.3226
 2152SOL     OW 8652   4.226   2.046   3.500  0.1043  0.1271 -0.3465
 2152SOL    HW2 8653   4.222   2.141   3.484  0.3762 -0.0015 -1.2056
 2152SOL    HW3 8654   4.308   2.019   3.459  0.3730 -0.3702  0.5134
 2152SOL    MW4 8655   4.236   2.055   3.493  0.1760  0.0446 -0.3464
 2153SOL     OW 8656   4.278   2.305   3.423 -0.3192  0.1133 -0.3685
 2153SOL    HW2 8657   4.207   2.359   3.457 -1.0220 -0.6048 -0.6953
 2153SOL    HW3 8658   4.285   2.331   3.331  0.9987  1.4213  0.0722
 2153SOL    MW4 8659   4.270   2.316   3.416 -0.2384  0.1910 -0.3536
 2154SOL     OW 8660   4.018   2.426   3.550  0.1458 -0.1489 -0.4652
 2154SOL    HW2 8661   4.041   2.438   3.642 -1.0059  0.3102 -0.2246
 2154SOL    HW3 8662   4.024   2.514   3.512  0.6391 -0.3393 -0.8384
 2154SOL    MW4 8663   4.022   2.439   3.557  0.0591 -0.1135 -0.4826
 2155SOL     OW 8664   4.049   2.675   3.467 -0.3674 -0.3296 -0.1445
 2155SOL    HW2 8665   4.125   2.729   3.491 -0.5813 -0.6853  1.3717
 2155SOL    HW3 8666   3.973   2.728   3.491 -0.5937 -0.4405 -0.6116
 2155SOL    MW4 8667   4.049   2.689   3.473 -0.4253 -0.3912 -0.0060
 2156SOL     OW 8668   4.269   2.815   3.518 -0.8061 -0.0522  0.3571
 2156SOL    HW2 8669   4.289   2.822   3.611 -0.3933  0.0685  0.2641
 2156SOL    HW3 8670   4.343   2.766   3.482  0.7059  2.7048 -0.4576
 2156SOL    MW4 8671   4.282   2.809   3.526 -0.5522  0.3278  0.2375
 2157SOL     OW 8672   4.246   3.118   3.484  0.5952  0.3982  0.7249
 2157SOL    HW2 8673   4.251   3.022   3.484 -0.8952  0.3130  1.2938
 2157SOL    HW3 8674   4.249   3.142   3.392 -1.1128 -0.3288  0.4584
 2157SOL    MW4 8675   4.247   3.108   3.472  0.1731  0.2911  0.7646
 2158SOL     OW 8676   4.023   3.253   3.540  0.4887  0.0536  0.4049
 2158SOL    HW2 8677   4.036   3.336   3.495 -0.2517 -0.2110 -0.3069
 2158SOL    HW3 8678   4.104   3.205   3.525  0.2751  0.0019 -0.5787
 2158SOL    MW4 8679   4.036   3.257   3.532  0.3629  0.0119  0.1812
 2159SOL     OW 8680   4.089   3.478   3.393  0.0061 -0.2400 -0.3552
 2159SOL    HW2 8681   4.167   3.517   3.434  0.4264 -0.4445 -0.9439
 2159SOL    HW3 8682   4.016   3.531   3.424  0.3313 -0.3442  0.5874
 2159SOL    MW4 8683   4.090   3.490   3.402  0.1044 -0.2809 -0.3085
 2160SOL     OW 8684   4.290   3.640   3.505 -0.4192  0.0889  0.0880
 2160SOL    HW2 8685   4.266   3.644   3.597  1.0347  0.0050  0.4765
 2160SOL    HW3 8686   4.283   3.730   3.474  0.8322  0.4101  0.7283
 2160SOL    MW4 8687   4.286   3.652   3.513 -0.0625  0.1204  0.2239
 2161SOL     OW 8688   4.276   3.898   3.417  0.1080  0.0245  0.2889
 2161SOL    HW2 8689   4.275   3.888   3.322  1.0506 -0.8446  0.3684
 2161SOL    HW3 8690   4.352   3.952   3.435 -0.3647  0.6195  0.5154
 2161SOL    MW4 8691   4.286   3.904   3.407  0.1702 -0.0117  0.3293
 2162SOL     OW 8692   4.049   4.038   3.794  0.3419 -0.4993  0.0253
 2162SOL    HW2 8693   4.115   3.972   3.815  1.7916  1.0557  0.3954
 2162SOL    HW3 8694   4.053   4.046   3.698  1.0293 -0.0668  0.0865
 2162SOL    MW4 8695   4.058   4.030   3.784  0.6242 -0.2370  0.0823
 2163SOL     OW 8696   4.051   4.044   3.504 -0.6492  0.1973 -0.3819
 2163SOL    HW2 8697   4.127   3.991   3.478  0.2059  1.5520 -0.6905
 2163SOL    HW3 8698   3.976   3.995   3.472  0.2416  0.2867 -2.6755
 2163SOL    MW4 8699   4.051   4.031   3.497 -0.4191  0.3881 -0.7255
 2164SOL     OW 8700   4.287   0.020   3.360 -0.3477  0.5351 -0.0667
 2164SOL    HW2 8701   4.345   0.081   3.405  1.3108 -1.3371  0.3975
 2164SOL    HW3 8702   4.299  -0.064   3.405 -1.6675 -0.4330 -1.4418
 2164SOL    MW4 8703   4.296   0.017   3.372 -0.3028  0.1602 -0.1872
 2165SOL     OW 8704   0.025   0.122   3.787  0.0430 -0.4664  0.2347
 2165SOL    HW2 8705  -0.003   0.196   3.842 -0.4673 -1.4254  1.2761
 2165SOL    HW3 8706  -0.003   0.147   3.699 -0.5943  0.3562  0.6572
 2165SOL    MW4 8707   0.017   0.135   3.783 -0.1082 -0.4844  0.4280
 2166SOL     OW 8708   0.220   4.403   3.794 -0.0111 -0.0808 -0.2347
 2166SOL    HW2 8709   0.292   4.351   3.829 -0.3251 -1.0721 -1.0292
 2166SOL    HW3 8710   0.240   4.492   3.821  1.6932 -0.2922 -0.7097
 2166SOL    MW4 8711   0.232   4.408   3.802  0.1723 -0.2394 -0.4025
 2167SOL     OW 8712   4.431   0.576   3.783 -0.4509  0.3742 -0.5323
 2167SOL    HW2 8713   4.411   0.554   3.692 -0.7663  0.1502 -0.4084
 2167SOL    HW3 8714   4.526   0.587   3.785 -0.3698 -0.2756 -0.7424
 2167SOL    MW4 8715   4.441   0.575   3.772 -0.4816  0.2589 -0.5436
 2168SOL     OW 8716   0.208   0.509   3.838  0.5452 -0.0721 -0.1462
 2168SOL    HW2 8717   0.224   0.600   3.863  0.3795 -0.3210  0.8584
 2168SOL    HW3 8718   0.228   0.507   3.744  1.6365  0.7425  0.0569
 2168SOL    MW4 8719   0.213   0.521   3.829  0.6673  0.0025  0.0131
 2169SOL     OW 8720   0.210   0.785   3.911 -0.0894  0.0275  0.0286
 2169SOL    HW2 8721   0.225   0.813   4.001  0.4125  1.3867 -0.4763
 2169SOL    HW3 8722   0.137   0.838   3.881  0.6234  0.5302 -0.8110
 2169SOL    MW4 8723   0.202   0.795   3.919  0.0709  0.2731 -0.1488
 2170SOL     OW 8724   0.005   0.923   3.830 -0.0551  0.0661 -0.0204
 2170SOL    HW2 8725  -0.067   0.876   3.872 -0.9862  1.6016  0.1295
 2170SOL    HW3 8726   0.006   1.009   3.872  0.0737  1.0349 -1.9547
 2170SOL    MW4 8727  -0.005   0.928   3.841 -0.1609  0.3965 -0.2558
 2171SOL     OW 8728   0.033   1.166   3.925  0.3967 -0.7130 -0.2043
 2171SOL    HW2 8729   0.108   1.206   3.882 -0.7396  0.6033 -0.9921
 2171SOL    HW3 8730   0.042   1.190   4.017  0.4393  0.2451 -0.4525
 2171SOL    MW4 8731   0.044   1.174   3.931  0.2524 -0.4129 -0.3409
 2172SOL     OW 8732   0.240   1.310   3.839 -0.0873 -0.1874 -0.4311
 2172SOL    HW2 8733   0.243   1.297   3.744  1.6847 -0.5989 -0.3396
 2172SOL    HW3 8734   0.253   1.404   3.851 -1.0584 -0.0279 -0.6257
 2172SOL    MW4 8735   0.242   1.321   3.828  0.0184 -0.2207 -0.4447
 2173SOL     OW 8736   1.391   3.466   4.625  0.0102  0.0373 -0.0862
 2173SOL    HW2 8737   1.313   3.424   4.662 -0.5174  0.5994 -0.5607
 2173SOL    HW3 8738   1.359   3.513   4.548  1.0134 -0.7276 -0.9920
 2173SOL    MW4 8739   1.377   3.466   4.620  0.0730  0.0103 -0.2685
 2174SOL     OW 8740   0.017   1.688   3.813 -0.1514  0.1305  0.3518
 2174SOL    HW2 8741  -0.054   1.647   3.864  0.4153 -1.8159 -0.3636
 2174SOL    HW3 8742  -0.002   1.664   3.722  2.0359 -1.4363  0.2637
 2174SOL    MW4 8743   0.005   1.679   3.808  0.2119 -0.3330  0.2458
 2175SOL     OW 8744   0.032   1.968   3.908 -0.4823  0.0565  0.3057
 2175SOL    HW2 8745   0.105   2.008   3.861  0.5027 -0.3832  1.4346
 2175SOL    HW3 8746   0.030   1.877   3.876  0.8631 -0.5468  1.8355
 2175SOL    MW4 8747   0.042   1.961   3.898 -0.1748 -0.0812  0.6566
 2176SOL     OW 8748   0.238   2.097   3.787  0.1795 -0.4419  0.2799
 2176SOL    HW2 8749   0.318   2.062   3.826  0.6102 -0.6325 -0.7800
 2176SOL    HW3 8750   0.227   2.182   3.829  0.5779 -0.6891  0.9042
 2176SOL    MW4 8751   0.247   2.103   3.798  0.2889 -0.4997  0.2224
 2177SOL     OW 8752   0.230   2.335   3.909  0.4747 -0.3800  0.1162
 2177SOL    HW2 8753   0.315   2.369   3.881  0.1921  1.0384  0.9147
 2177SOL    HW3 8754   0.240   2.318   4.003 -0.6063  1.4453  0.5955
 2177SOL    MW4 8755   0.243   2.338   3.918  0.2948  0.0479  0.2844
 2178SOL     OW 8756   4.478   2.725   3.892  0.1735  0.1848  0.0408
 2178SOL    HW2 8757   4.480   2.746   3.985  0.2579  0.5287 -0.0391
 2178SOL    HW3 8758   4.486   2.630   3.889  0.5492  0.2061  0.3687
 2178SOL    MW4 8759   4.479   2.715   3.904  0.2341  0.2329  0.0737
 2179SOL     OW 8760   4.292   2.323   3.917  0.0956 -0.2355 -0.2448
 2179SOL    HW2 8761   4.294   2.239   3.873 -0.8002 -0.1575 -0.4527
 2179SOL    HW3 8762   4.301   2.302   4.010 -1.3014 -0.6561 -0.1983
 2179SOL    MW4 8763   4.293   2.309   3.924 -0.2069 -0.2806 -0.2661
 2180SOL     OW 8764   3.166   4.262   4.154  0.4059  0.1030  0.1657
 2180SOL    HW2 8765   3.165   4.355   4.174  0.7425  0.0202  0.5922
 2180SOL    HW3 8766   3.076   4.233   4.170 -0.3035  0.8371 -2.3915
 2180SOL    MW4 8767   3.154   4.270   4.159  0.3564  0.1888 -0.1154
 2181SOL     OW 8768   0.670   3.116   3.895 -0.5791 -0.3225  0.0268
 2181SOL    HW2 8769   0.743   3.156   3.848 -0.1261 -0.4057  0.6455
 2181SOL    HW3 8770   0.594   3.171   3.875 -0.6205 -0.9939 -1.6754
 2181SOL    MW4 8771   0.670   3.129   3.886 -0.5248 -0.4218 -0.1159
 2182SOL     OW 8772   4.486   3.516   3.903 -0.0759  0.4423  0.1242
 2182SOL    HW2 8773   4.468   3.502   3.996 -0.6225  0.5829  0.0453
 2182SOL    HW3 8774   4.517   3.432   3.871  2.1424  0.9251  0.8855
 2182SOL    MW4 8775   4.488   3.503   3.911  0.1446  0.5248  0.2143
 2183SOL     OW 8776   0.407   3.508   3.899 -0.3339  0.2643 -0.2164
 2183SOL    HW2 8777   0.357   3.556   3.832  1.2250  0.4206 -1.3090
 2183SOL    HW3 8778   0.493   3.550   3.898  0.1822 -0.7632  0.7968
 2183SOL    MW4 8779   0.411   3.520   3.890 -0.0601  0.1495 -0.2267
 2184SOL     OW 8780   1.487   3.788   4.525 -0.3435 -0.1994  0.1032
 2184SOL    HW2 8781   1.526   3.735   4.595 -0.4175 -0.7844 -0.3021
 2184SOL    HW3 8782   1.562   3.812   4.470 -0.5404 -1.2662 -0.6374
 2184SOL    MW4 8783   1.502   3.784   4.527 -0.3792 -0.4172 -0.0482
 2185SOL     OW 8784   0.213   3.647   3.757 -0.2736  0.3181  0.3637
 2185SOL    HW2 8785   0.127   3.628   3.794 -0.1562 -1.0022 -0.0201
 2185SOL    HW3 8786   0.239   3.730   3.798 -1.7407  0.7645  0.4421
 2185SOL    MW4 8787   0.205   3.656   3.767 -0.4517  0.2027  0.3238
 2186SOL     OW 8788   4.255   3.883   3.871 -0.0247 -0.0768  0.0818
 2186SOL    HW2 8789   4.253   3.796   3.832 -0.6894  0.0981 -0.2806
 2186SOL    HW3 8790   4.331   3.926   3.830 -1.6449  0.6758 -2.3008
 2186SOL    MW4 8791   4.264   3.877   3.860 -0.3266  0.0455 -0.2804
 2187SOL     OW 8792   0.026   4.020   3.777 -0.7155  0.2467 -0.1701
 2187SOL    HW2 8793   0.024   4.112   3.806 -0.1747  0.8230 -1.9180
 2187SOL    HW3 8794   0.107   3.985   3.813 -1.6464  0.0217  1.7559
 2187SOL    MW4 8795   0.036   4.028   3.785 -0.7669  0.2928 -0.1464
 2188SOL     OW 8796   3.378   2.568   4.275  0.3184  0.1903 -0.3829
 2188SOL    HW2 8797   3.458   2.613   4.245 -0.9505  1.7001 -1.5750
 2188SOL    HW3 8798   3.365   2.599   4.364  1.2335 -0.3233 -0.0591
 2188SOL    MW4 8799   3.387   2.578   4.283  0.2716  0.3219 -0.4973
 2189SOL     OW 8800   0.686   0.004   3.815  0.5887  0.0502  0.1100
 2189SOL    HW2 8801   0.672  -0.087   3.790 -0.8468  0.1569  0.4793
 2189SOL    HW3 8802   0.612   0.051   3.777 -0.0021  0.6798  2.0069
 2189SOL    MW4 8803   0.675  -0.002   3.807  0.3214  0.1473  0.4086
 2190SOL     OW 8804   0.455   0.166   3.737 -0.1395  0.3540 -0.0236
 2190SOL    HW2 8805   0.460   0.238   3.799  1.6589  0.3969 -0.1972
 2190SOL    HW3 8806   0.397   0.102   3.779 -1.5161  1.7477  0.2582
 2190SOL    MW4 8807   0.448   0.167   3.751 -0.0839  0.5436 -0.0093
 2191SOL     OW 8808   3.772   0.277   4.590  0.1114  0.2480  0.3444
 2191SOL    HW2 8809   3.798   0.266   4.499  0.5375 -0.2825  0.5213
 2191SOL    HW3 8810   3.808   0.200   4.634 -2.2068 -0.8048  0.5122
 2191SOL    MW4 8811   3.780   0.265   4.584 -0.1383  0.0391  0.3901
 2192SOL     OW 8812   0.662   0.520   3.863 -0.6539 -0.2126  0.2348
 2192SOL    HW2 8813   0.594   0.454   3.878 -1.1257 -0.0287 -1.0256
 2192SOL    HW3 8814   0.743   0.478   3.893 -1.4009 -0.1678  2.4162
 2192SOL    MW4 8815   0.664   0.506   3.869 -0.8147 -0.1824  0.3562
 2193SOL     OW 8816   3.354   4.105   4.265  0.6680  0.1546  0.4507
 2193SOL    HW2 8817   3.440   4.141   4.244  0.2618  0.2392 -1.1577
 2193SOL    HW3 8818   3.292   4.172   4.235  0.0058 -0.5396  0.2425
 2193SOL    MW4 8819   3.357   4.118   4.258  0.5269  0.0744  0.2112
 2194SOL     OW 8820   0.430   0.915   3.806  0.0626 -0.3743  0.7893
 2194SOL    HW2 8821   0.508   0.872   3.841  0.2463 -0.6004  0.1174
 2194SOL    HW3 8822   0.356   0.866   3.843  0.2711 -1.2646  0.0423
 2194SOL    MW4 8823   0.430   0.903   3.815  0.1144 -0.5217  0.6018
 2195SOL     OW 8824   0.458   3.734   4.273 -0.5215  0.6257  0.5359
 2195SOL    HW2 8825   0.442   3.650   4.229 -2.0110  0.8624  0.5815
 2195SOL    HW3 8826   0.543   3.763   4.240 -0.3934 -0.4868 -0.1364
 2195SOL    MW4 8827   0.467   3.727   4.263 -0.7011  0.5100  0.4539
 2196SOL     OW 8828   0.683   1.254   3.804  0.1848 -0.1640  0.9571
 2196SOL    HW2 8829   0.678   1.234   3.711  0.1909 -0.7492  1.0794
 2196SOL    HW3 8830   0.605   1.212   3.842  0.3091 -0.1371  1.2474
 2196SOL    MW4 8831   0.672   1.246   3.797  0.2021 -0.2376  1.0116
 2197SOL     OW 8832   0.693   1.521   3.876  0.1006 -0.5170 -0.1257
 2197SOL    HW2 8833   0.680   1.517   3.971 -0.6908  2.3008 -0.0653
 2197SOL    HW3 8834   0.710   1.430   3.850  1.4748 -1.1676  2.8605
 2197SOL    MW4 8835   0.693   1.508   3.885  0.1775 -0.2310  0.2766
 2198SOL     OW 8836   0.495   1.682   3.789  0.1047  0.1104  0.5963
 2198SOL    HW2 8837   0.561   1.628   3.831 -2.3281 -1.3434  2.6914
 2198SOL    HW3 8838   0.412   1.653   3.827 -1.6210  2.8424 -0.8964
 2198SOL    MW4 8839   0.492   1.671   3.800 -0.4439  0.2789  0.6757
 2199SOL     OW 8840   0.452   1.932   3.901  0.1517 -0.0420 -0.2561
 2199SOL    HW2 8841   0.525   1.988   3.877  1.8737 -1.3258  1.7154
 2199SOL    HW3 8842   0.473   1.847   3.862  0.8358 -0.9807  2.0102
 2199SOL    MW4 8843   0.464   1.928   3.893  0.4691 -0.3352  0.3030
 2200SOL     OW 8844   0.881   1.943   3.868 -0.8393  0.0027  0.0177
 2200SOL    HW2 8845   0.890   1.944   3.964 -0.1574 -0.1296 -0.0474
 2200SOL    HW3 8846   0.888   1.851   3.844  1.3605  0.2459 -0.3795
 2200SOL    MW4 8847   0.883   1.931   3.878 -0.4590  0.0172 -0.0432
 2201SOL     OW 8848   0.662   2.338   3.945  0.2101 -0.1100 -0.0723
 2201SOL    HW2 8849   0.723   2.401   3.907  0.2568 -0.6416 -0.8995
 2201SOL    HW3 8850   0.580   2.352   3.898  0.1619 -0.5304 -0.1147
 2201SOL    MW4 8851   0.659   2.348   3.934  0.2099 -0.2356 -0.1872
 2202SOL     OW 8852   0.456   2.442   3.785 -0.5304  0.1287  0.1911
 2202SOL    HW2 8853   0.439   2.436   3.691  0.2507 -0.0084  0.0593
 2202SOL    HW3 8854   0.451   2.536   3.804 -0.8356  0.1449  0.0471
 2202SOL    MW4 8855   0.453   2.453   3.775 -0.4676  0.1128  0.1545
 2203SOL     OW 8856   0.452   2.726   3.846  0.3085 -0.1889 -0.4450
 2203SOL    HW2 8857   0.529   2.778   3.823 -0.4225  0.7996 -0.6798
 2203SOL    HW3 8858   0.378   2.782   3.824 -0.4613 -0.5461  1.2041
 2203SOL    MW4 8859   0.453   2.740   3.840  0.1105 -0.1054 -0.2582
 2204SOL     OW 8860   0.912   2.733   3.860  0.3734 -0.5538  0.0116
 2204SOL    HW2 8861   0.827   2.777   3.849  0.0159 -1.5287 -1.2553
 2204SOL    HW3 8862   0.918   2.716   3.954 -1.2750 -1.2902  0.0075
 2204SOL    MW4 8863   0.901   2.736   3.871  0.1087 -0.7794 -0.1562
 2205SOL     OW 8864   0.413   3.483   4.165  0.1536  0.0879  0.2667
 2205SOL    HW2 8865   0.399   3.485   4.070 -1.5445 -0.8836  0.4783
 2205SOL    HW3 8866   0.500   3.443   4.175 -0.3001 -1.2134 -0.8278
 2205SOL    MW4 8867   0.423   3.478   4.154 -0.1303 -0.2120  0.1497
 2206SOL     OW 8868   2.010   2.585   4.222 -0.1285  0.6018  0.2257
 2206SOL    HW2 8869   2.086   2.641   4.208  0.0427  0.9988  2.5639
 2206SOL    HW3 8870   2.023   2.548   4.309 -2.4109  0.3398  0.4885
 2206SOL    MW4 8871   2.021   2.587   4.231 -0.4070  0.6194  0.5689
 2207SOL     OW 8872   0.782   0.951   4.325  0.1944  0.6096  0.2088
 2207SOL    HW2 8873   0.792   0.882   4.261 -0.1835 -0.7216  1.5599
 2207SOL    HW3 8874   0.837   0.924   4.399 -0.7098  1.2603  1.1387
 2207SOL    MW4 8875   0.791   0.939   4.327  0.0253  0.5198  0.5097
 2208SOL     OW 8876   4.405   1.604   4.382 -0.2797 -0.4156  0.1834
 2208SOL    HW2 8877   4.463   1.548   4.433 -0.1744 -0.1258  0.3801
 2208SOL    HW3 8878   4.381   1.550   4.306 -1.1913 -1.1903  1.0042
 2208SOL    MW4 8879   4.410   1.589   4.379 -0.3862 -0.4797  0.3176
 2209SOL     OW 8880   3.588   4.213   4.156  0.5290 -0.2995  0.1605
 2209SOL    HW2 8881   3.678   4.191   4.178  0.5440  0.0478  0.4541
 2209SOL    HW3 8882   3.569   4.291   4.208  0.2902  0.0378 -0.4374
 2209SOL    MW4 8883   3.597   4.220   4.166  0.4995 -0.2093  0.1206
 2210SOL     OW 8884   0.490   4.044   3.782 -0.0891 -0.2196  0.3320
 2210SOL    HW2 8885   0.474   4.056   3.688 -0.5264 -0.8271  0.3296
 2210SOL    HW3 8886   0.491   4.133   3.818 -1.0515 -0.0467 -0.0622
 2210SOL    MW4 8887   0.488   4.058   3.774 -0.2737 -0.2770  0.2794
 2211SOL     OW 8888   2.675   2.979   4.301 -0.4132  0.3775  0.0059
 2211SOL    HW2 8889   2.679   2.891   4.264 -2.1220  0.2244  0.1502
 2211SOL    HW3 8890   2.747   3.026   4.259 -0.1460 -0.7961 -0.8708
 2211SOL    MW4 8891   2.685   2.974   4.290 -0.6034  0.2022 -0.0911
 2212SOL     OW 8892   3.576   3.487   4.709  0.4629 -0.2824  0.1120
 2212SOL    HW2 8893   3.489   3.521   4.688  0.5783 -0.2184 -0.2611
 2212SOL    HW3 8894   3.628   3.565   4.726  0.1363 -0.3638  1.5672
 2212SOL    MW4 8895   3.571   3.501   4.709  0.4349 -0.2844  0.2551
 2213SOL     OW 8896   1.166   0.044   3.882 -0.2487 -0.3867  0.2426
 2213SOL    HW2 8897   1.177  -0.045   3.848  2.2248 -0.0458  0.0882
 2213SOL    HW3 8898   1.157   0.033   3.976  1.2235 -0.7124  0.3437
 2213SOL    MW4 8899   1.166   0.031   3.890  0.2720 -0.3847  0.2353
 2214SOL     OW 8900   0.910   0.153   3.773 -0.1424  0.0627  0.0696
 2214SOL    HW2 8901   0.992   0.118   3.808  0.0721 -0.5303 -1.0142
 2214SOL    HW3 8902   0.844   0.090   3.801  0.0270 -0.4030 -0.5620
 2214SOL    MW4 8903   0.912   0.140   3.781 -0.0917 -0.0770 -0.1566
 2215SOL     OW 8904   0.901   0.395   3.890  0.2919  0.4139 -0.2212
 2215SOL    HW2 8905   0.916   0.376   3.982 -0.0009  0.1945 -0.2151
 2215SOL    HW3 8906   0.893   0.309   3.849 -0.1801  0.5125 -0.3456
 2215SOL    MW4 8907   0.902   0.381   3.896  0.1910  0.3980 -0.2370
 2216SOL     OW 8908   1.369   0.389   3.873  0.4241 -0.2969 -0.0589
 2216SOL    HW2 8909   1.375   0.373   3.967 -0.5811  1.0304  0.2574
 2216SOL    HW3 8910   1.453   0.429   3.850  1.2132 -1.8902 -0.0109
 2216SOL    MW4 8911   1.381   0.392   3.882  0.3957 -0.3320 -0.0107
 2217SOL     OW 8912   0.035   2.611   4.592 -0.0712 -0.3555 -0.6082
 2217SOL    HW2 8913   0.127   2.632   4.579 -0.0128  1.5681  2.3602
 2217SOL    HW3 8914  -0.010   2.695   4.583 -1.1710 -0.7812  0.7475
 2217SOL    MW4 8915   0.041   2.625   4.589 -0.2086 -0.1576 -0.0372
 2218SOL     OW 8916   0.881   0.887   3.772  0.0744  0.3983  0.0284
 2218SOL    HW2 8917   0.895   0.895   3.678 -0.3177 -1.6722 -0.2299
 2218SOL    HW3 8918   0.963   0.848   3.805  0.2423  1.1924  0.5558
 2218SOL    MW4 8919   0.894   0.883   3.764  0.0448  0.2299  0.0637
 2219SOL     OW 8920   0.912   1.136   3.913 -0.0696  0.4344 -0.3038
 2219SOL    HW2 8921   0.834   1.167   3.869 -0.9027  0.2070  0.9842
 2219SOL    HW3 8922   0.926   1.048   3.879 -0.3617  0.4752 -0.5272
 2219SOL    MW4 8923   0.904   1.129   3.903 -0.2180  0.4098 -0.1633
 2220SOL     OW 8924   1.339   0.877   3.789 -0.4112 -0.5634  0.0988
 2220SOL    HW2 8925   1.415   0.838   3.833 -0.2967  0.5995  0.9468
 2220SOL    HW3 8926   1.353   0.971   3.795 -1.8130 -0.3423  0.0780
 2220SOL    MW4 8927   1.351   0.884   3.796 -0.5811 -0.3808  0.2081
 2221SOL     OW 8928   0.913   1.646   3.496 -0.4936  0.2009 -0.2903
 2221SOL    HW2 8929   0.912   1.649   3.592 -2.6374 -0.7411 -0.2468
 2221SOL    HW3 8930   0.876   1.730   3.469  2.0500  1.3484 -0.3720
 2221SOL    MW4 8931   0.908   1.658   3.505 -0.4408  0.2279 -0.2954
 2222SOL     OW 8932   0.915   1.668   3.790  0.0068 -0.6892  0.0370
 2222SOL    HW2 8933   0.981   1.628   3.847  0.2090 -0.0810  0.2271
 2222SOL    HW3 8934   0.837   1.614   3.804  0.1098 -0.6662  0.7363
 2222SOL    MW4 8935   0.913   1.655   3.799  0.0471 -0.6061  0.1543
 2223SOL     OW 8936   0.725   0.266   4.281 -0.0280  0.3042  0.3399
 2223SOL    HW2 8937   0.807   0.302   4.247  0.3386 -1.0450 -0.2562
 2223SOL    HW3 8938   0.702   0.197   4.219 -2.1126  1.2790 -0.0087
 2223SOL    MW4 8939   0.733   0.262   4.268 -0.2547  0.2548  0.2151
 2224SOL     OW 8940   1.124   2.080   3.798  0.4127 -0.3509  0.4673
 2224SOL    HW2 8941   1.039   2.043   3.823  0.4289 -0.3582  0.5106
 2224SOL    HW3 8942   1.126   2.071   3.702  0.4345 -0.4983  0.4814
 2224SOL    MW4 8943   1.113   2.074   3.788  0.4177 -0.3715  0.4749
 2225SOL     OW 8944   1.081   2.325   3.904 -0.0679 -0.0032  0.3490
 2225SOL    HW2 8945   1.094   2.312   3.997  0.0859 -0.8988  0.2064
 2225SOL    HW3 8946   1.087   2.237   3.866 -0.0366  0.3635 -0.5120
 2225SOL    MW4 8947   1.083   2.311   3.911 -0.0435 -0.0730  0.2165
 2226SOL     OW 8948   3.179   0.428   4.162  0.0907  0.0449 -0.5661
 2226SOL    HW2 8949   3.183   0.510   4.211  0.4814  0.8619 -1.9321
 2226SOL    HW3 8950   3.196   0.454   4.071 -0.3745 -1.4717 -1.0942
 2226SOL    MW4 8951   3.182   0.442   4.156  0.0808 -0.0474 -0.8159
 2227SOL     OW 8952   3.956   2.708   4.548 -0.1936  0.0353 -0.1000
 2227SOL    HW2 8953   4.014   2.771   4.505 -0.0412 -0.1301 -0.1358
 2227SOL    HW3 8954   3.898   2.762   4.602 -0.6095  0.2782 -0.7738
 2227SOL    MW4 8955   3.956   2.724   4.549 -0.2282  0.0458 -0.1936
 2228SOL     OW 8956   1.152   3.104   3.833  0.2286 -0.0867  0.3960
 2228SOL    HW2 8957   1.168   3.012   3.814  0.8882 -0.0462  0.7485
 2228SOL    HW3 8958   1.153   3.109   3.929 -1.2597  0.0300  0.4113
 2228SOL    MW4 8959   1.154   3.093   3.843  0.1192 -0.0660  0.4447
 2229SOL     OW 8960   1.158   2.832   3.793  0.2464 -1.1513  0.0439
 2229SOL    HW2 8961   1.072   2.811   3.830  0.0927  0.2435  0.4957
 2229SOL    HW3 8962   1.216   2.767   3.832  0.1963  0.6562  3.2819
 2229SOL    MW4 8963   1.154   2.821   3.803  0.2196 -0.7288  0.5310
 2230SOL     OW 8964   0.908   3.226   3.781 -0.2137  0.1737  0.1151
 2230SOL    HW2 8965   0.983   3.176   3.812  0.2477  1.4877  1.1230
 2230SOL    HW3 8966   0.917   3.226   3.685 -0.1824 -1.5829  0.0958
 2230SOL    MW4 8967   0.919   3.219   3.772 -0.1487  0.1154  0.2456
 2231SOL     OW 8968   2.980   0.257   4.497 -0.1070 -0.2850  0.0794
 2231SOL    HW2 8969   2.975   0.258   4.401 -0.6711  0.4450  0.1111
 2231SOL    HW3 8970   2.893   0.228   4.525  0.4632 -1.8001  0.3522
 2231SOL    MW4 8971   2.968   0.253   4.488 -0.1059 -0.3886  0.1197
 2232SOL     OW 8972   1.117   3.827   3.846  0.2757  0.2372  0.0325
 2232SOL    HW2 8973   1.118   3.849   3.939  0.1415 -0.7603  0.2777
 2232SOL    HW3 8974   1.196   3.869   3.811  0.0074  1.1301  0.4665
 2232SOL    MW4 8975   1.128   3.836   3.854  0.2226  0.2236  0.1223
 2233SOL     OW 8976   2.878   2.561   4.314  0.2321 -0.4012  0.2404
 2233SOL    HW2 8977   2.962   2.604   4.298 -0.6987  0.9341 -1.1565
 2233SOL    HW3 8978   2.869   2.561   4.410  0.7073  1.6661  0.3142
 2233SOL    MW4 8979   2.888   2.567   4.325  0.1719  0.0479  0.0658
 2234SOL     OW 8980   0.907   3.975   3.737 -0.8049  0.3640 -0.0108
 2234SOL    HW2 8981   0.937   3.973   3.646 -2.1610  1.4125 -0.5005
 2234SOL    HW3 8982   0.975   3.929   3.786 -0.0210 -0.1328 -1.5440
 2234SOL    MW4 8983   0.920   3.969   3.732 -0.8804  0.4370 -0.2775
 2235SOL     OW 8984   0.669   4.392   3.745  0.0955 -0.2436 -0.0094
 2235SOL    HW2 8985   0.744   4.336   3.764  0.4718  0.3872  0.3843
 2235SOL    HW3 8986   0.662   4.392   3.650  0.2870 -0.6989 -0.0235
 2235SOL    MW4 8987   0.678   4.385   3.735  0.1704 -0.2203  0.0405
 2236SOL     OW 8988   1.157   4.437   3.777  0.1229 -0.1449 -0.1509
 2236SOL    HW2 8989   1.083   4.384   3.805 -0.6168  1.0935  0.2920
 2236SOL    HW3 8990   1.160   4.427   3.682 -1.1428  0.4406 -0.2717
 2236SOL    MW4 8991   1.148   4.429   3.768 -0.1417  0.0958 -0.1085
 2237SOL     OW 8992   1.078   4.243   4.440 -0.0116  0.1201  0.0713
 2237SOL    HW2 8993   1.076   4.178   4.511  0.1960  0.4687  0.3956
 2237SOL    HW3 8994   1.151   4.300   4.461  1.7901 -1.3858 -1.8546
 2237SOL    MW4 8995   1.087   4.242   4.452  0.2534 -0.0324 -0.1397
 2238SOL     OW 8996   1.370   0.149   3.741 -0.3922 -0.0557  0.6484
 2238SOL    HW2 8997   1.283   0.117   3.765 -0.0047 -0.3267  1.6972
 2238SOL    HW3 8998   1.378   0.233   3.785 -0.1404 -0.0134  0.5231
 2238SOL    MW4 8999   1.360   0.156   3.750 -0.3078 -0.0859  0.7703
 2239SOL     OW 9000   0.940   3.775   4.271 -0.4207  0.1935  0.1234
 2239SOL    HW2 9001   0.992   3.759   4.350 -0.3622  0.4944  0.1469
 2239SOL    HW3 9002   0.945   3.693   4.222  0.2188  0.2724  0.0465
 2239SOL    MW4 9003   0.948   3.762   4.275 -0.3285  0.2434  0.1163
 2240SOL     OW 9004   1.583   0.508   3.784  0.2217 -0.1247 -0.2038
 2240SOL    HW2 9005   1.570   0.597   3.815  0.8098 -0.1521  0.1241
 2240SOL    HW3 9006   1.670   0.483   3.815 -0.3617 -1.1880  0.6392
 2240SOL    MW4 9007   1.593   0.516   3.792  0.2222 -0.2686 -0.0491
 2241SOL     OW 9008   1.567   0.764   3.882  0.3379  0.1670  0.3234
 2241SOL    HW2 9009   1.643   0.813   3.850 -0.4052  1.6357  0.7398
 2241SOL    HW3 9010   1.577   0.766   3.978  0.5869 -0.9764  0.3262
 2241SOL    MW4 9011   1.578   0.771   3.891  0.2726  0.2099  0.3788
 2242SOL     OW 9012   0.462   0.890   4.437 -0.0267 -0.4234 -0.4527
 2242SOL    HW2 9013   0.368   0.907   4.433 -0.2111 -1.7426 -2.8445
 2242SOL    HW3 9014   0.503   0.976   4.438 -1.2541  0.1602  0.9408
 2242SOL    MW4 9015   0.455   0.904   4.437 -0.2129 -0.5204 -0.5841
 2243SOL     OW 9016   1.122   1.281   3.784 -0.2095  0.0028 -0.4475
 2243SOL    HW2 9017   1.052   1.238   3.835  1.3058  1.3365  2.9026
 2243SOL    HW3 9018   1.197   1.222   3.793  0.6202  1.1812  0.5358
 2243SOL    MW4 9019   1.122   1.267   3.792  0.1000  0.3341  0.1242
 2244SOL     OW 9020   0.319   4.213   4.522 -0.0404  0.0210 -0.1523
 2244SOL    HW2 9021   0.378   4.288   4.525  0.5642 -0.4697  0.3293
 2244SOL    HW3 9022   0.238   4.246   4.563  0.5408  0.1410  0.9327
 2244SOL    MW4 9023   0.316   4.228   4.528  0.1161 -0.0277  0.0548
 2245SOL     OW 9024   2.033   3.176   4.172 -0.1338 -0.2148  0.1665
 2245SOL    HW2 9025   1.963   3.113   4.186  0.3691 -0.7315  0.3871
 2245SOL    HW3 9026   2.012   3.249   4.229 -1.3788  0.3628 -0.9983
 2245SOL    MW4 9027   2.021   3.177   4.181 -0.2317 -0.2067  0.0415
 2246SOL     OW 9028   1.544   1.536   3.859  0.0007  0.7348  0.2296
 2246SOL    HW2 9029   1.564   1.524   3.952 -1.2639 -1.7665  0.2042
 2246SOL    HW3 9030   1.624   1.575   3.822  1.1594  0.0662  2.0109
 2246SOL    MW4 9031   1.557   1.540   3.866 -0.0134  0.3166  0.4616
 2247SOL     OW 9032   1.319   1.686   3.789 -0.0510  0.1099  0.6528
 2247SOL    HW2 9033   1.394   1.637   3.823 -0.2557 -0.5426  0.1709
 2247SOL    HW3 9034   1.329   1.773   3.826 -0.1682 -0.5315  2.2761
 2247SOL    MW4 9035   1.330   1.691   3.799 -0.0936 -0.0609  0.8035
 2248SOL     OW 9036   1.583   2.065   3.794 -0.1442  0.7064 -0.1039
 2248SOL    HW2 9037   1.502   2.025   3.826  0.3188 -0.9190 -0.8694
 2248SOL    HW3 9038   1.581   2.050   3.699  0.4451  1.8134 -0.2992
 2248SOL    MW4 9039   1.572   2.057   3.786 -0.0055  0.6382 -0.2308
 2249SOL     OW 9040   1.561   2.345   3.819  0.1933  0.4126 -0.5596
 2249SOL    HW2 9041   1.579   2.252   3.829  0.0521  0.6179  2.0060
 2249SOL    HW3 9042   1.641   2.381   3.781  0.5496 -0.6299 -0.8103
 2249SOL    MW4 9043   1.574   2.338   3.816  0.2218  0.3021 -0.2537
 2250SOL     OW 9044   1.310   2.455   3.745  0.0633 -0.0795 -0.1049
 2250SOL    HW2 9045   1.236   2.421   3.795 -0.0909 -1.7525 -1.4373
 2250SOL    HW3 9046   1.385   2.405   3.777  0.4858  0.9770  0.5945
 2250SOL    MW4 9047   1.310   2.444   3.756  0.0986 -0.1612 -0.1886
 2251SOL     OW 9048   3.191   4.015   4.690 -0.1662  0.2305  0.3851
 2251SOL    HW2 9049   3.271   4.031   4.640  0.2326  0.7078  1.1707
 2251SOL    HW3 9050   3.142   4.097   4.683  0.3487  0.6530  1.6108
 2251SOL    MW4 9051   3.195   4.028   4.682 -0.0458  0.3490  0.6504
 2252SOL     OW 9052   1.581   2.866   3.774  0.0884 -0.4211 -0.0848
 2252SOL    HW2 9053   1.504   2.812   3.786 -0.5625  0.6563  0.6823
 2252SOL    HW3 9054   1.587   2.880   3.680 -1.0988  0.1066 -0.0897
 2252SOL    MW4 9055   1.572   2.861   3.763 -0.1540 -0.2093  0.0157
 2253SOL     OW 9056   1.612   3.122   3.891  0.0208 -0.8268  0.0587
 2253SOL    HW2 9057   1.594   3.034   3.857 -1.4716 -0.6160  0.3021
 2253SOL    HW3 9058   1.544   3.177   3.854  1.8567  0.5480 -1.3266
 2253SOL    MW4 9059   1.601   3.117   3.882  0.0662 -0.6175 -0.0920
 2254SOL     OW 9060   1.382   3.230   3.753 -0.0409 -0.3581  0.0207
 2254SOL    HW2 9061   1.307   3.187   3.794 -0.2091 -0.2998 -0.2234
 2254SOL    HW3 9062   1.378   3.320   3.786 -0.6863 -0.0758 -0.7960
 2254SOL    MW4 9063   1.371   3.236   3.762 -0.1483 -0.3130 -0.1192
 2255SOL     OW 9064   1.601   3.628   3.742  0.0168  0.6602 -0.2219
 2255SOL    HW2 9065   1.520   3.583   3.767 -0.2978  1.0880 -0.4615
 2255SOL    HW3 9066   1.668   3.593   3.801  0.1492 -1.4824 -1.5916
 2255SOL    MW4 9067   1.599   3.617   3.753 -0.0072  0.4339 -0.4342
 2256SOL     OW 9068   1.366   3.978   3.766  0.2728  0.3557 -0.3161
 2256SOL    HW2 9069   1.438   3.936   3.814 -1.0364 -0.5348  0.8945
 2256SOL    HW3 9070   1.374   4.071   3.788  0.3672  0.1048  0.7630
 2256SOL    MW4 9071   1.377   3.985   3.775  0.1127  0.2048 -0.0138
 2257SOL     OW 9072   1.398   1.151   4.115  0.1269  0.0355  0.0076
 2257SOL    HW2 9073   1.338   1.104   4.173 -0.2322  0.3320 -0.1215
 2257SOL    HW3 9074   1.485   1.120   4.140 -0.1137 -0.7651 -0.1428
 2257SOL    MW4 9075   1.402   1.141   4.126  0.0477 -0.0310 -0.0291
 2258SOL     OW 9076   3.858   0.009   4.494 -0.6082  0.3464 -0.4682
 2258SOL    HW2 9077   3.952   0.011   4.507 -0.5918 -1.4066 -0.1779
 2258SOL    HW3 9078   3.844   0.055   4.411  0.5370  0.2780 -0.7063
 2258SOL    MW4 9079   3.868   0.015   4.484 -0.4549  0.1061 -0.4616
 2259SOL     OW 9080   3.118   3.749   4.236 -0.3130 -0.3298  0.5676
 2259SOL    HW2 9081   3.210   3.763   4.216 -0.6435 -0.3678 -1.1338
 2259SOL    HW3 9082   3.107   3.654   4.237 -0.2028 -0.3376  1.4647
 2259SOL    MW4 9083   3.128   3.738   4.233 -0.3421 -0.3359  0.4611
 2260SOL     OW 9084   1.591   4.411   3.752 -0.4695 -0.3277  0.0548
 2260SOL    HW2 9085   1.597   4.398   3.658  0.3469 -0.1212  0.0752
 2260SOL    HW3 9086   1.660   4.356   3.789  0.5334  1.1379  0.3888
 2260SOL    MW4 9087   1.601   4.402   3.745 -0.2295 -0.1078  0.1018
 2261SOL     OW 9088   1.786   0.123   3.772 -0.0289  0.0331 -0.1073
 2261SOL    HW2 9089   1.849   0.070   3.820  1.2853  1.5192 -0.1377
 2261SOL    HW3 9090   1.701   0.100   3.809  0.5922 -1.5524  0.3561
 2261SOL    MW4 9091   1.783   0.113   3.783  0.2266  0.0200 -0.0498
 2262SOL     OW 9092   1.982   4.656   3.903  0.1962  0.2198  0.1287
 2262SOL    HW2 9093   2.050   4.714   3.870 -0.6647  0.1581 -1.8376
 2262SOL    HW3 9094   1.992   4.575   3.852 -1.2657  0.1862 -0.1442
 2262SOL    MW4 9095   1.992   4.653   3.892 -0.1104  0.2069 -0.1667
 2263SOL     OW 9096   1.818   0.398   3.856 -0.1070  0.4702  0.5308
 2263SOL    HW2 9097   1.846   0.390   3.947  0.7633  0.9583  0.3083
 2263SOL    HW3 9098   1.796   0.308   3.830 -1.7228  0.5316  1.6485
 2263SOL    MW4 9099   1.819   0.385   3.865 -0.2055  0.5427  0.6487
 2264SOL     OW 9100   1.666   0.245   4.530  0.2554 -0.1096  0.0271
 2264SOL    HW2 9101   1.654   0.256   4.435 -1.6342 -0.7670  0.1714
 2264SOL    HW3 9102   1.660   0.334   4.565  1.1833  0.1618 -0.4909
 2264SOL    MW4 9103   1.663   0.258   4.522  0.1286 -0.1605 -0.0224
 2265SOL     OW 9104   2.019   0.755   3.859  0.5247  0.2432 -0.2389
 2265SOL    HW2 9105   2.031   0.756   3.954  0.4699  0.3589 -0.2331
 2265SOL    HW3 9106   2.032   0.664   3.834 -1.0478 -0.0694  0.0763
 2265SOL    MW4 9107   2.022   0.743   3.868  0.3099  0.2172 -0.1967
 2266SOL     OW 9108   1.771   0.931   3.758  0.1432  0.0393  0.4501
 2266SOL    HW2 9109   1.850   0.885   3.786 -0.5144 -1.0817  0.4818
 2266SOL    HW3 9110   1.775   0.927   3.662 -0.5373 -1.1919  0.4579
 2266SOL    MW4 9111   1.782   0.924   3.749 -0.0334 -0.2711  0.4549
 2267SOL     OW 9112   2.892   2.349   3.908 -0.3620  0.2780 -0.6376
 2267SOL    HW2 9113   2.976   2.387   3.881 -1.3847  2.2663 -1.0864
 2267SOL    HW3 9114   2.888   2.265   3.862  1.2668  0.2756 -0.8059
 2267SOL    MW4 9115   2.903   2.343   3.898 -0.2820  0.5398 -0.7191
 2268SOL     OW 9116   3.488   0.332   4.501  0.0388 -0.3824  0.5591
 2268SOL    HW2 9117   3.573   0.308   4.539  0.1666 -0.6670  0.0957
 2268SOL    HW3 9118   3.426   0.271   4.542 -0.0996  0.4946  1.6628
 2268SOL    MW4 9119   3.491   0.321   4.512  0.0372 -0.3042  0.6437
 2269SOL     OW 9120   2.003   2.073   3.734  0.3668 -0.3524 -0.8972
 2269SOL    HW2 9121   2.013   2.065   3.639  1.1269  0.0149 -0.8533
 2269SOL    HW3 9122   2.085   2.039   3.770 -0.1861 -1.1230 -0.3397
 2269SOL    MW4 9123   2.015   2.067   3.726  0.3941 -0.4055 -0.8175
 2270SOL     OW 9124   1.780   1.649   3.758 -0.0421 -0.0528  0.5399
 2270SOL    HW2 9125   1.802   1.740   3.773  1.2207 -0.1002 -0.9055
 2270SOL    HW3 9126   1.767   1.642   3.663 -1.2658 -1.1366  0.7621
 2270SOL    MW4 9127   1.781   1.660   3.747 -0.0370 -0.2019  0.3786
 2271SOL     OW 9128   0.447   2.706   4.128  0.4193 -0.1140 -0.4106
 2271SOL    HW2 9129   0.535   2.673   4.144  0.2452 -1.0096 -1.2411
 2271SOL    HW3 9130   0.441   2.715   4.033 -0.0032  1.0411 -0.2836
 2271SOL    MW4 9131   0.457   2.702   4.118  0.3406 -0.0801 -0.5035
 2272SOL     OW 9132   1.796   1.914   3.836  0.4989  0.5398  0.3263
 2272SOL    HW2 9133   1.870   1.964   3.799 -0.6107 -0.7691 -3.9573
 2272SOL    HW3 9134   1.723   1.975   3.835  0.8438  1.0065  2.0242
 2272SOL    MW4 9135   1.796   1.929   3.831  0.3980  0.4287 -0.0148
 2273SOL     OW 9136   2.512   2.465   4.618  0.1823 -0.0409  0.2077
 2273SOL    HW2 9137   2.598   2.422   4.620  0.5809  0.7545  0.6008
 2273SOL    HW3 9138   2.450   2.395   4.600  0.7490 -0.8887  1.5254
 2273SOL    MW4 9139   2.515   2.450   4.616  0.3099 -0.0479  0.4339
 2274SOL     OW 9140   1.792   2.448   3.721  0.2003  0.5162  0.2746
 2274SOL    HW2 9141   1.781   2.537   3.753  1.4089  0.7154  0.1823
 2274SOL    HW3 9142   1.789   2.456   3.625  0.5926  0.5068  0.2594
 2274SOL    MW4 9143   1.790   2.461   3.712  0.4116  0.5412  0.2604
 2275SOL     OW 9144   2.034   2.858   3.794  0.2143 -0.2334 -0.2880
 2275SOL    HW2 9145   2.114   2.820   3.830 -0.2549 -0.4482  0.5597
 2275SOL    HW3 9146   1.965   2.796   3.820 -0.6475  1.4365  1.5744
 2275SOL    MW4 9147   2.035   2.845   3.803  0.0386 -0.0415  0.0694
 2276SOL     OW 9148   1.792   2.716   3.852  0.7345  0.3314 -0.1833
 2276SOL    HW2 9149   1.726   2.781   3.830  1.4364  1.0658 -0.1346
 2276SOL    HW3 9150   1.801   2.721   3.947  0.1074 -0.5060 -0.0731
 2276SOL    MW4 9151   1.785   2.725   3.861  0.7443  0.3178 -0.1624
 2277SOL     OW 9152   2.689   3.516   4.170 -0.3771 -0.5239 -0.0318
 2277SOL    HW2 9153   2.607   3.467   4.174 -0.2376 -0.5863  3.0875
 2277SOL    HW3 9154   2.756   3.454   4.197  0.3574  0.2664 -0.0082
 2277SOL    MW4 9155   2.687   3.502   4.174 -0.2618 -0.4277  0.3824
 2278SOL     OW 9156   1.809   4.487   4.211  0.1869  0.1821 -0.0649
 2278SOL    HW2 9157   1.809   4.499   4.306  0.8318  0.5380 -0.1126
 2278SOL    HW3 9158   1.876   4.547   4.178  1.3303 -1.3398 -0.5766
 2278SOL    MW4 9159   1.818   4.496   4.219  0.4230  0.0277 -0.1392
 2279SOL     OW 9160   1.805   3.269   3.748 -0.2327 -0.0876 -0.0473
 2279SOL    HW2 9161   1.883   3.235   3.792  0.0787 -1.0399 -1.3014
 2279SOL    HW3 9162   1.732   3.222   3.789  0.1711 -2.0884 -1.5573
 2279SOL    MW4 9163   1.806   3.258   3.759 -0.1384 -0.4771 -0.4120
 2280SOL     OW 9164   2.309   3.496   3.932  0.0605 -0.2992  0.1254
 2280SOL    HW2 9165   2.286   3.486   4.025  0.3279  1.7544  0.4233
 2280SOL    HW3 9166   2.291   3.410   3.894  0.0269 -1.1961  2.1004
 2280SOL    MW4 9167   2.304   3.483   3.939  0.0913 -0.1466  0.4253
 2281SOL     OW 9168   1.680   1.798   4.513  0.1945  0.1047  0.1447
 2281SOL    HW2 9169   1.678   1.703   4.519 -0.6815  0.0114 -1.3968
 2281SOL    HW3 9170   1.621   1.828   4.583  0.1896 -0.4947  0.3962
 2281SOL    MW4 9171   1.672   1.789   4.523  0.0783  0.0134 -0.0253
 2282SOL     OW 9172   1.822   3.984   3.779  0.0326  0.1346  0.1116
 2282SOL    HW2 9173   1.896   3.972   3.838 -0.1634  2.1225  0.7799
 2282SOL    HW3 9174   1.747   3.949   3.827  0.1809  0.0073  0.2532
 2282SOL    MW4 9175   1.822   3.977   3.793  0.0262  0.3800  0.2184
 2283SOL     OW 9176   1.779   4.243   3.839  0.0461 -0.3018  0.2298
 2283SOL    HW2 9177   1.771   4.236   3.934 -0.9914  0.2089  0.1933
 2283SOL    HW3 9178   1.786   4.153   3.808 -0.2248 -0.4975  0.7408
 2283SOL    MW4 9179   1.779   4.231   3.847 -0.1266 -0.2599  0.2925
 2284SOL     OW 9180   2.018   4.390   3.771 -0.0566 -0.0299 -0.0990
 2284SOL    HW2 9181   2.023   4.392   3.675 -0.8199  0.3776 -0.1367
 2284SOL    HW3 9182   1.939   4.340   3.790  0.5622 -0.8483  0.3384
 2284SOL    MW4 9183   2.008   4.384   3.761 -0.0756 -0.0844 -0.0460
 2285SOL     OW 9184   2.449   4.432   3.806  0.0157  0.2596  0.4286
 2285SOL    HW2 9185   2.371   4.398   3.849  0.5229  0.3891  1.4679
 2285SOL    HW3 9186   2.451   4.525   3.828 -0.3899  0.5998 -0.9184
 2285SOL    MW4 9187   2.439   4.440   3.815  0.0291  0.3219  0.3879
 2286SOL     OW 9188   2.197   0.126   3.805  0.0342 -0.4036  0.1496
 2286SOL    HW2 9189   2.232   0.207   3.841  0.6373 -1.3201  1.6370
 2286SOL    HW3 9190   2.218   0.131   3.712  1.3745  0.4587  0.4873
 2286SOL    MW4 9191   2.204   0.138   3.797  0.2906 -0.4108  0.3903
 2287SOL     OW 9192   2.069   0.491   3.789 -0.0020 -0.0390  0.0445
 2287SOL    HW2 9193   1.992   0.438   3.811  0.5279 -1.1120 -0.6113
 2287SOL    HW3 9194   2.065   0.500   3.694  1.1901 -0.9318 -0.1045
 2287SOL    MW4 9195   2.058   0.485   3.779  0.2255 -0.2984 -0.0615
 2288SOL     OW 9196   2.283   0.379   3.887 -0.1527 -0.2017 -0.3102
 2288SOL    HW2 9197   2.277   0.379   3.983 -1.6091 -0.2560 -0.3872
 2288SOL    HW3 9198   2.205   0.426   3.859 -0.3766 -1.2697 -1.5071
 2288SOL    MW4 9199   2.272   0.385   3.896 -0.3743 -0.3497 -0.4785
 2289SOL     OW 9200   2.473   0.821   3.877  0.0530  0.1230 -0.0946
 2289SOL    HW2 9201   2.465   0.740   3.827 -1.0645 -0.0611  0.3714
 2289SOL    HW3 9202   2.388   0.864   3.867  0.5833  1.1552 -0.1956
 2289SOL    MW4 9203   2.461   0.816   3.869 -0.0248  0.2350 -0.0463
 2290SOL     OW 9204   2.219   0.936   3.782 -0.2069  0.1596 -0.3615
 2290SOL    HW2 9205   2.149   0.877   3.809  0.4939  0.1585  1.5670
 2290SOL    HW3 9206   2.229   0.921   3.688 -1.9407 -0.7281 -0.4208
 2290SOL    MW4 9207   2.211   0.926   3.773 -0.3431  0.0424 -0.1149
 2291SOL     OW 9208   3.755   2.218   4.845  0.6700  0.1666 -0.2383
 2291SOL    HW2 9209   3.807   2.266   4.782  0.1366  1.2220  0.1167
 2291SOL    HW3 9210   3.816   2.198   4.916  0.8861  0.3411 -0.3738
 2291SOL    MW4 9211   3.770   2.222   4.846  0.6282  0.3290 -0.2093
 2292SOL     OW 9212   0.472   0.885   4.711  0.0241 -0.0086  0.8144
 2292SOL    HW2 9213   0.550   0.834   4.732 -0.7632 -1.0294  1.2944
 2292SOL    HW3 9214   0.477   0.899   4.616  1.4198  1.0171  1.0164
 2292SOL    MW4 9215   0.483   0.880   4.701  0.1044 -0.0079  0.9036
 2293SOL     OW 9216   2.264   2.230   4.254  0.1499  0.2513  0.1199
 2293SOL    HW2 9217   2.200   2.269   4.194  0.1684  1.3052  0.7721
 2293SOL    HW3 9218   2.348   2.242   4.210 -0.0117 -0.4064 -0.3704
 2293SOL    MW4 9219   2.266   2.237   4.240  0.1311  0.3037  0.1407
 2294SOL     OW 9220   1.816   1.191   3.877 -0.4345  0.4387  0.1228
 2294SOL    HW2 9221   1.897   1.220   3.835 -0.9131 -0.2273 -1.2944
 2294SOL    HW3 9222   1.804   1.101   3.848 -1.0324  0.1076  1.3367
 2294SOL    MW4 9223   1.825   1.183   3.868 -0.5765  0.3071  0.0958
 2295SOL     OW 9224   2.274   2.482   3.775 -0.6714  0.2110  0.2423
 2295SOL    HW2 9225   2.294   2.486   3.681 -0.3189  0.3469  0.3202
 2295SOL    HW3 9226   2.196   2.427   3.781 -1.7392  1.6365 -0.2742
 2295SOL    MW4 9227   2.267   2.475   3.763 -0.7658  0.4170  0.1845
 2296SOL     OW 9228   2.457   2.072   3.486  0.0777  0.4428  0.2160
 2296SOL    HW2 9229   2.540   2.042   3.450 -0.4153 -1.8733  0.9245
 2296SOL    HW3 9230   2.391   2.017   3.444 -0.9278  0.8666  1.1878
 2296SOL    MW4 9231   2.459   2.061   3.476 -0.1199  0.1934  0.4375
 2297SOL     OW 9232   2.891   2.105   3.799 -0.3485 -0.3117 -0.4141
 2297SOL    HW2 9233   2.826   2.036   3.816  0.6290 -0.9516  0.8563
 2297SOL    HW3 9234   2.974   2.065   3.824  0.2866  1.2019 -0.0741
 2297SOL    MW4 9235   2.893   2.090   3.805 -0.1354 -0.1962 -0.2015
 2298SOL     OW 9236   2.498   2.232   4.116 -0.1588  0.4647 -0.3044
 2298SOL    HW2 9237   2.535   2.144   4.109  0.0426  0.5852 -0.7790
 2298SOL    HW3 9238   2.571   2.286   4.149 -0.1394  0.5488 -0.4848
 2298SOL    MW4 9239   2.513   2.228   4.120 -0.1299  0.4916 -0.3910
 2299SOL     OW 9240   3.861   0.746   4.145  0.2214  0.0071 -0.3094
 2299SOL    HW2 9241   3.779   0.707   4.176  0.2672  1.6712  2.1057
 2299SOL    HW3 9242   3.929   0.689   4.180  0.1479 -0.2249 -0.5473
 2299SOL    MW4 9243   3.859   0.733   4.154  0.2179  0.1960 -0.0219
 2300SOL     OW 9244   2.669   3.255   3.807 -0.3035 -0.1927 -0.2100
 2300SOL    HW2 9245   2.740   3.213   3.855  0.3533  1.3644  0.2370
 2300SOL    HW3 9246   2.670   3.346   3.838 -1.8532  0.0877 -0.9301
 2300SOL    MW4 9247   2.679   3.262   3.817 -0.4210  0.0496 -0.2463
 2301SOL     OW 9248   2.291   3.244   3.805 -0.0246 -0.0222 -0.1453
 2301SOL    HW2 9249   2.212   3.203   3.839 -0.0022  0.9479  1.1099
 2301SOL    HW3 9250   2.363   3.194   3.845  0.0083 -0.3614 -0.6185
 2301SOL    MW4 9251   2.290   3.232   3.815 -0.0169  0.0610 -0.0420
 2302SOL     OW 9252   2.714   3.080   4.712  0.6480  0.0463 -0.2602
 2302SOL    HW2 9253   2.629   3.038   4.709  0.5944  0.1554 -0.2765
 2302SOL    HW3 9254   2.768   3.030   4.651  0.9556 -0.8078  0.6964
 2302SOL    MW4 9255   2.710   3.068   4.704  0.6816 -0.0517 -0.1359
 2303SOL     OW 9256   2.276   1.162   4.183  0.3796 -0.0663 -0.2580
 2303SOL    HW2 9257   2.273   1.252   4.214  2.1473  0.3864 -1.3488
 2303SOL    HW3 9258   2.359   1.127   4.216  0.3659 -0.8396 -1.0037
 2303SOL    MW4 9259   2.286   1.169   4.191  0.6113 -0.1085 -0.5002
 2304SOL     OW 9260   1.601   1.309   3.725 -0.6812  0.2684  0.0207
 2304SOL    HW2 9261   1.664   1.273   3.788 -0.5796 -0.2307 -0.3582
 2304SOL    HW3 9262   1.577   1.394   3.761  2.7909  2.0157 -1.5241
 2304SOL    MW4 9263   1.606   1.315   3.738 -0.2097  0.4328 -0.2329
 2305SOL     OW 9264   0.197   1.288   4.757  0.0715  0.0472  0.2229
 2305SOL    HW2 9265   0.201   1.280   4.852 -0.0639  0.0888  0.2324
 2305SOL    HW3 9266   0.280   1.252   4.726  0.1353  0.0782  0.3604
 2305SOL    MW4 9267   0.208   1.282   4.765  0.0620  0.0569  0.2422
 2306SOL     OW 9268   2.246   4.037   3.781  0.1984 -0.3240  0.2636
 2306SOL    HW2 9269   2.245   4.015   3.687 -1.3459 -0.4967  0.2978
 2306SOL    HW3 9270   2.328   4.001   3.813  0.2734 -1.1826 -0.8314
 2306SOL    MW4 9271   2.256   4.029   3.773  0.0045 -0.4601  0.1235
 2307SOL     OW 9272   3.365   2.054   3.768 -0.1326  0.0428 -0.0576
 2307SOL    HW2 9273   3.279   2.019   3.789 -0.0930  0.4851  0.8461
 2307SOL    HW3 9274   3.371   2.047   3.673 -1.6614  1.1485 -0.2439
 2307SOL    MW4 9275   3.354   2.048   3.758 -0.3290  0.2470  0.0372
 2308SOL     OW 9276   1.904   1.946   4.483  0.2079 -0.1726  0.3730
 2308SOL    HW2 9277   1.952   1.924   4.404 -0.1377 -0.6172  0.2871
 2308SOL    HW3 9278   1.832   1.883   4.486 -1.2336  1.4233 -0.2827
 2308SOL    MW4 9279   1.901   1.935   4.473 -0.0280 -0.0206  0.2756
 2309SOL     OW 9280   3.163   0.149   3.822 -0.2427  0.2938 -0.4926
 2309SOL    HW2 9281   3.075   0.117   3.843  0.2423 -1.3308 -0.8414
 2309SOL    HW3 9282   3.168   0.145   3.727  0.2980  0.0971 -0.4603
 2309SOL    MW4 9283   3.152   0.144   3.812 -0.1075  0.0535 -0.5343
 2310SOL     OW 9284   2.685   0.162   3.780 -0.1800 -0.1654 -0.5592
 2310SOL    HW2 9285   2.761   0.122   3.823 -1.8059 -2.0351  0.6917
 2310SOL    HW3 9286   2.699   0.144   3.687  0.2752 -1.6924 -0.2241
 2310SOL    MW4 9287   2.697   0.154   3.773 -0.3345 -0.6135 -0.3500
 2311SOL     OW 9288   2.704   0.423   3.904  0.3278 -0.4708  0.4969
 2311SOL    HW2 9289   2.702   0.341   3.855 -0.2412  0.1821 -0.6045
 2311SOL    HW3 9290   2.630   0.474   3.869  0.6056  0.4673  1.2324
 2311SOL    MW4 9291   2.694   0.419   3.893  0.2894 -0.2609  0.4487
 2312SOL     OW 9292   2.953   0.501   3.801 -0.3361 -0.0436  0.3740
 2312SOL    HW2 9293   2.960   0.596   3.811 -0.1378  0.0646 -0.6909
 2312SOL    HW3 9294   2.874   0.477   3.848  0.4706  0.4342  2.0105
 2312SOL    MW4 9295   2.944   0.511   3.809 -0.2036  0.0336  0.4497
 2313SOL     OW 9296   2.948   0.781   3.885  0.1493  0.4246 -0.3221
 2313SOL    HW2 9297   2.967   0.789   3.978  2.6019 -2.5674 -0.4919
 2313SOL    HW3 9298   3.021   0.826   3.842  1.2403 -1.7460 -0.8144
 2313SOL    MW4 9299   2.960   0.788   3.891  0.6168 -0.2565 -0.4091
 2314SOL     OW 9300   2.721   0.918   3.803 -0.4435  0.1564 -0.0538
 2314SOL    HW2 9301   2.641   0.872   3.830 -0.4362  0.2112  0.0643
 2314SOL    HW3 9302   2.791   0.872   3.848 -0.4880  0.6144  0.4977
 2314SOL    MW4 9303   2.719   0.906   3.813 -0.4487  0.2241  0.0343
 2315SOL     OW 9304   4.282   1.077   4.548 -0.1502 -0.2360 -0.3358
 2315SOL    HW2 9305   4.214   1.143   4.553  0.4164  0.4475 -1.4220
 2315SOL    HW3 9306   4.239   0.996   4.573 -1.4471  0.1264 -1.3275
 2315SOL    MW4 9307   4.268   1.075   4.552 -0.2465 -0.0981 -0.6094
 2316SOL     OW 9308   2.978   1.320   3.774 -0.5163 -0.5912  0.5655
 2316SOL    HW2 9309   2.894   1.282   3.802 -0.4995 -1.0372 -0.0044
 2316SOL    HW3 9310   3.044   1.274   3.826 -0.5122 -1.1957  0.0256
 2316SOL    MW4 9311   2.975   1.309   3.785 -0.5136 -0.7298  0.4191
 2317SOL     OW 9312   2.048   1.005   4.260  0.0735  0.2919  0.1039
 2317SOL    HW2 9313   1.996   1.081   4.232  0.5305  0.3412 -0.6299
 2317SOL    HW3 9314   2.138   1.038   4.262  0.5779 -0.7862 -2.3538
 2317SOL    MW4 9315   2.053   1.020   4.256  0.2005  0.1563 -0.3171
 2318SOL     OW 9316   2.229   1.968   3.875 -0.0521  0.4534 -0.0145
 2318SOL    HW2 9317   2.220   1.972   3.970 -0.1381 -0.7577  0.0376
 2318SOL    HW3 9318   2.314   2.009   3.857  0.0531  0.5062  0.6057
 2318SOL    MW4 9319   2.239   1.974   3.885 -0.0498  0.3006  0.0741
 2319SOL     OW 9320   1.361   4.262   3.792 -0.0409  0.1400 -0.3053
 2319SOL    HW2 9321   1.437   4.310   3.760  1.3848 -0.7024  1.7253
 2319SOL    HW3 9322   1.288   4.324   3.784  1.2099  1.6106 -0.4619
 2319SOL    MW4 9323   1.361   4.277   3.787  0.3122  0.2232 -0.0579
 2320SOL     OW 9324   4.065   3.769   4.258  0.4246  0.0067 -0.0263
 2320SOL    HW2 9325   4.145   3.805   4.220  0.5517 -0.0663  0.1768
 2320SOL    HW3 9326   4.078   3.774   4.352  1.1202 -2.1235  0.0054
 2320SOL    MW4 9327   4.077   3.774   4.265  0.5331 -0.2837  0.0043
 2321SOL     OW 9328   3.099   2.486   3.792 -0.3672  0.2090 -0.6857
 2321SOL    HW2 9329   3.107   2.493   3.697 -0.8372  0.7322 -0.6942
 2321SOL    HW3 9330   3.169   2.426   3.818 -0.2416  0.0547 -1.3607
 2321SOL    MW4 9331   3.109   2.479   3.783 -0.4127  0.2577 -0.7761
 2322SOL     OW 9332   2.460   2.085   3.783  0.5166  0.1187 -0.5225
 2322SOL    HW2 9333   2.466   2.180   3.799 -1.7953  0.1844  0.1484
 2322SOL    HW3 9334   2.443   2.078   3.689  2.8889  0.2426 -0.9911
 2322SOL    MW4 9335   2.458   2.097   3.773  0.5248  0.1435 -0.4959
 2323SOL     OW 9336   3.559   4.472   4.267 -0.0169  0.1626  0.3309
 2323SOL    HW2 9337   3.483   4.530   4.265 -0.5460 -0.5458 -0.2280
 2323SOL    HW3 9338   3.634   4.529   4.248 -0.6165  0.5307 -0.9754
 2323SOL    MW4 9339   3.559   4.487   4.264 -0.1657  0.1178  0.0844
 2324SOL     OW 9340   2.703   2.508   3.791  0.2164 -0.1009 -0.1163
 2324SOL    HW2 9341   2.628   2.457   3.822  0.3169  0.5678  1.2623
 2324SOL    HW3 9342   2.780   2.463   3.826  0.2375  1.9323  2.5976
 2324SOL    MW4 9343   2.703   2.495   3.800  0.2325  0.2556  0.4237
 2325SOL     OW 9344   3.048   2.320   4.329 -0.0007 -0.0592  0.3886
 2325SOL    HW2 9345   3.003   2.386   4.277  0.6465  0.4024  0.3978
 2325SOL    HW3 9346   3.060   2.361   4.415  0.3250 -0.2174  0.4206
 2325SOL    MW4 9347   3.044   2.334   4.334  0.1278 -0.0191  0.3939
 2326SOL     OW 9348   1.435   2.244   4.273 -0.1042 -0.4414 -0.6809
 2326SOL    HW2 9349   1.410   2.155   4.249  0.1797 -0.6475 -0.2115
 2326SOL    HW3 9350   1.491   2.274   4.202 -0.9429 -0.3033 -1.2942
 2326SOL    MW4 9351   1.439   2.236   4.261 -0.1775 -0.4501 -0.6995
 2327SOL     OW 9352   3.121   3.229   3.775  0.5965 -0.0690 -0.5998
 2327SOL    HW2 9353   3.132   3.197   3.685  0.1709  1.2188 -1.1234
 2327SOL    HW3 9354   3.198   3.196   3.822  0.8412 -0.7190 -1.4405
 2327SOL    MW4 9355   3.133   3.220   3.769  0.5724  0.0153 -0.7796
 2328SOL     OW 9356   1.905   4.329   4.790 -0.7805  0.1475  0.0391
 2328SOL    HW2 9357   1.959   4.349   4.713 -0.2073 -1.1606  0.0883
 2328SOL    HW3 9358   1.968   4.311   4.859 -1.2893  1.9723  1.0172
 2328SOL    MW4 9359   1.920   4.329   4.789 -0.7720  0.2160  0.1740
 2329SOL     OW 9360   3.180   3.992   3.774  0.3987 -0.1378 -0.2697
 2329SOL    HW2 9361   3.175   4.083   3.804  2.4724  0.9236 -2.9577
 2329SOL    HW3 9362   3.243   3.951   3.833 -0.3889  0.2045  0.8305
 2329SOL    MW4 9363   3.187   3.999   3.786  0.5682  0.0474 -0.4792
 2330SOL     OW 9364   2.676   4.049   3.740 -0.5531  0.4071  0.4917
 2330SOL    HW2 9365   2.679   4.141   3.767  0.7487  0.6187 -0.2979
 2330SOL    HW3 9366   2.749   4.008   3.787  0.5369  0.3744 -1.1875
 2330SOL    MW4 9367   2.686   4.056   3.750 -0.2375  0.4306  0.1659
 2331SOL     OW 9368   2.687   4.310   3.830 -0.0756  0.4989 -0.1203
 2331SOL    HW2 9369   2.607   4.356   3.804  0.5342  1.2328 -0.7404
 2331SOL    HW3 9370   2.680   4.301   3.925 -0.4446  1.4055 -0.0574
 2331SOL    MW4 9371   2.675   4.315   3.839 -0.0439  0.7157 -0.1936
 2332SOL     OW 9372   2.944   4.442   3.795 -0.3122  0.0085  0.1815
 2332SOL    HW2 9373   2.861   4.400   3.818 -0.0627 -0.5785  0.0415
 2332SOL    HW3 9374   3.010   4.392   3.843 -0.0907  0.8382  0.7490
 2332SOL    MW4 9375   2.942   4.430   3.804 -0.2503  0.0405  0.2379
 2333SOL     OW 9376   0.279   3.917   4.152 -0.1182  0.1792  0.0566
 2333SOL    HW2 9377   0.196   3.873   4.168  0.4553 -0.8076  0.3933
 2333SOL    HW3 9378   0.344   3.859   4.191  0.8277  0.3709 -1.2071
 2333SOL    MW4 9379   0.277   3.904   4.159  0.0823  0.0744 -0.0658
 2334SOL     OW 9380   3.193   0.424   3.863  0.0691 -0.0974  0.3979
 2334SOL    HW2 9381   3.184   0.329   3.863 -0.4813 -0.0528  1.2890
 2334SOL    HW3 9382   3.104   0.456   3.850  0.2693  0.3017 -0.0219
 2334SOL    MW4 9383   3.180   0.416   3.861  0.0229 -0.0389  0.4601
 2335SOL     OW 9384   3.441   0.521   3.759  0.0235  0.0037  0.3434
 2335SOL    HW2 9385   3.364   0.483   3.801 -0.2831  0.1924 -0.0457
 2335SOL    HW3 9386   3.515   0.487   3.809 -0.2788 -0.6360  0.3614
 2335SOL    MW4 9387   3.441   0.511   3.771 -0.0567 -0.0558  0.2947
 2336SOL     OW 9388   4.360   0.650   4.543 -0.3273 -0.1433  0.1230
 2336SOL    HW2 9389   4.352   0.666   4.449  0.1857 -0.6854 -0.0160
 2336SOL    HW3 9390   4.454   0.644   4.559 -0.4702 -2.7892  0.1872
 2336SOL    MW4 9391   4.371   0.651   4.533 -0.2780 -0.5640  0.1130
 2337SOL     OW 9392   3.408   0.781   3.860 -0.5057  0.0963  0.0642
 2337SOL    HW2 9393   3.411   0.691   3.829 -1.5022  0.2021 -0.3323
 2337SOL    HW3 9394   3.422   0.774   3.955  0.2452 -0.4038 -0.0811
 2337SOL    MW4 9395   3.410   0.768   3.869 -0.5381  0.0443 -0.0072
 2338SOL     OW 9396   3.179   0.920   3.788  0.3753  0.1461  0.0824
 2338SOL    HW2 9397   3.256   0.877   3.826 -1.4558 -2.2714  1.1739
 2338SOL    HW3 9398   3.183   0.897   3.695  1.6039  1.0374 -0.0966
 2338SOL    MW4 9399   3.190   0.911   3.781  0.2959 -0.0552  0.2029
 2339SOL     OW 9400   3.185   1.185   3.902 -0.0228 -0.0894  0.1220
 2339SOL    HW2 9401   3.262   1.216   3.853  0.8344 -2.1470  0.1359
 2339SOL    HW3 9402   3.174   1.094   3.875 -0.5853 -0.7416  2.4459
 2339SOL    MW4 9403   3.194   1.177   3.892  0.0162 -0.4468  0.4306
 2340SOL     OW 9404   3.116   2.941   4.232 -0.0710  0.0291 -0.1700
 2340SOL    HW2 9405   3.095   2.848   4.242  0.5892 -0.1458 -0.4193
 2340SOL    HW3 9406   3.127   2.972   4.322 -0.9066  0.0146 -0.0551
 2340SOL    MW4 9407   3.115   2.933   4.245 -0.0942  0.0043 -0.1879
 2341SOL     OW 9408   1.816   1.249   4.516 -0.5206  0.3056  0.0396
 2341SOL    HW2 9409   1.836   1.296   4.436 -0.4864 -0.9171 -0.6872
 2341SOL    HW3 9410   1.895   1.256   4.569 -0.1775  0.2502 -0.4649
 2341SOL    MW4 9411   1.829   1.256   4.512 -0.4708  0.1370 -0.1230
 2342SOL     OW 9412   2.893   1.542   3.918  0.0202 -0.1864 -0.3467
 2342SOL    HW2 9413   2.892   1.533   4.013 -0.2965  0.7954 -0.2513
 2342SOL    HW3 9414   2.933   1.461   3.887 -0.4379 -0.7785  0.5905
 2342SOL    MW4 9415   2.898   1.530   3.926 -0.0820 -0.1351 -0.2103
 2343SOL     OW 9416   0.440   0.370   3.935  0.1552  0.2076  0.2452
 2343SOL    HW2 9417   0.360   0.419   3.919  1.2540  1.5956 -1.1522
 2343SOL    HW3 9418   0.459   0.383   4.028 -0.6368  0.7661  0.3301
 2343SOL    MW4 9419   0.432   0.378   3.945  0.1957  0.4645  0.0720
 2344SOL     OW 9420   2.062   0.787   4.117 -0.1841 -0.2094 -0.5379
 2344SOL    HW2 9421   2.041   0.868   4.164  1.8015  1.2544 -2.0456
 2344SOL    HW3 9422   2.131   0.746   4.169 -0.4797 -0.4044 -0.3021
 2344SOL    MW4 9423   2.069   0.792   4.130  0.0393 -0.0420 -0.7062
 2345SOL     OW 9424   0.788   1.715   4.558  0.0302 -0.0436  0.4195
 2345SOL    HW2 9425   0.812   1.623   4.563 -0.3076 -0.1921 -0.5922
 2345SOL    HW3 9426   0.853   1.760   4.613  0.7633 -0.7736  0.1529
 2345SOL    MW4 9427   0.800   1.709   4.566  0.0823 -0.1595  0.2508
 2346SOL     OW 9428   0.195   0.315   4.473  0.1577  0.1473  0.1225
 2346SOL    HW2 9429   0.222   0.245   4.532 -1.4755  0.1238  0.8770
 2346SOL    HW3 9430   0.266   0.378   4.477  2.3344 -2.0960 -1.6760
 2346SOL    MW4 9431   0.208   0.314   4.481  0.2294 -0.1518 -0.0153
 2347SOL     OW 9432   1.277   3.616   4.420 -0.3472 -0.0978 -0.4478
 2347SOL    HW2 9433   1.352   3.675   4.432  0.2565 -0.7116 -1.1467
 2347SOL    HW3 9434   1.308   3.550   4.359 -1.1185 -0.9873  0.1142
 2347SOL    MW4 9435   1.291   3.615   4.413 -0.3693 -0.2961 -0.4659
 2348SOL     OW 9436   2.893   3.102   3.886 -0.1284 -0.2170 -0.0315
 2348SOL    HW2 9437   2.894   3.009   3.862 -1.0777  0.1527 -1.5598
 2348SOL    HW3 9438   2.961   3.142   3.832  0.1019  0.0223  0.4376
 2348SOL    MW4 9439   2.902   3.095   3.876 -0.2232 -0.1364 -0.1714
 2349SOL     OW 9440   4.139   1.570   4.489  0.0262  0.2287 -0.1684
 2349SOL    HW2 9441   4.130   1.519   4.409 -0.8284 -0.5029  0.3857
 2349SOL    HW3 9442   4.228   1.606   4.485  0.5352 -1.0652 -0.7100
 2349SOL    MW4 9443   4.150   1.568   4.478 -0.0196 -0.0385 -0.1664
 2350SOL     OW 9444   1.704   4.524   4.750  0.0176  0.2207  0.4984
 2350SOL    HW2 9445   1.765   4.458   4.783  0.0712  0.4337  0.8270
 2350SOL    HW3 9446   1.751   4.607   4.758  0.4631  0.1441 -1.1896
 2350SOL    MW4 9447   1.718   4.526   4.755  0.0836  0.2384  0.3195
 2351SOL     OW 9448   3.899   3.567   4.548 -0.4846 -0.8520 -0.0640
 2351SOL    HW2 9449   3.864   3.576   4.636 -2.4193  0.6296 -0.9400
 2351SOL    HW3 9450   3.916   3.473   4.538  0.7685 -0.8957  2.2365
 2351SOL    MW4 9451   3.896   3.556   4.558 -0.5746 -0.6621  0.1240
 2352SOL     OW 9452   3.392   3.606   3.807  0.3480 -1.0613 -0.0251
 2352SOL    HW2 9453   3.322   3.548   3.838  0.5753 -1.0231  0.5639
 2352SOL    HW3 9454   3.371   3.622   3.715 -1.1976  0.0781  0.5121
 2352SOL    MW4 9455   3.380   3.601   3.799  0.1743 -0.9058  0.1235
 2353SOL     OW 9456   1.823   4.241   4.101  0.4578  0.0671  0.8132
 2353SOL    HW2 9457   1.741   4.206   4.136  0.0627 -0.2773 -0.4058
 2353SOL    HW3 9458   1.824   4.332   4.129 -0.1956 -0.0087  1.0963
 2353SOL    MW4 9459   1.812   4.248   4.109  0.3195  0.0119  0.6895
 2354SOL     OW 9460   3.129   4.236   3.881 -0.0721 -0.1321  0.0834
 2354SOL    HW2 9461   3.139   4.237   3.976  0.2216  1.1330  0.0380
 2354SOL    HW3 9462   3.174   4.314   3.850 -3.2325  1.4385 -0.7897
 2354SOL    MW4 9463   3.136   4.246   3.889 -0.4504  0.2418 -0.0379
 2355SOL     OW 9464   3.327   4.412   3.782  0.1827 -0.5023  0.2366
 2355SOL    HW2 9465   3.405   4.360   3.798  0.3371 -0.4328 -0.2933
 2355SOL    HW3 9466   3.347   4.497   3.821  0.3167 -0.5299  0.2296
 2355SOL    MW4 9467   3.340   4.416   3.789  0.2205 -0.4969  0.1659
 2356SOL     OW 9468   3.544   4.282   3.891 -0.2751  0.0020 -0.5966
 2356SOL    HW2 9469   3.635   4.300   3.868  0.0570 -1.0439 -0.1106
 2356SOL    HW3 9470   3.546   4.265   3.985 -1.0917  0.6836 -0.4432
 2356SOL    MW4 9471   3.556   4.282   3.900 -0.3390 -0.0467 -0.5121
 2357SOL     OW 9472   1.863   0.105   4.701  0.1841 -0.0491  0.5075
 2357SOL    HW2 9473   1.785   0.148   4.665  0.6278 -0.0421 -0.4418
 2357SOL    HW3 9474   1.936   0.144   4.654  0.7128 -0.5670  0.9018
 2357SOL    MW4 9475   1.862   0.116   4.690  0.3123 -0.1165  0.4339
 2358SOL     OW 9476   2.609   4.057   4.595 -0.2620  0.2001  0.2847
 2358SOL    HW2 9477   2.517   4.080   4.582 -1.2779 -2.4108  2.3297
 2358SOL    HW3 9478   2.613   3.963   4.577  1.6333 -0.0585  1.8682
 2358SOL    MW4 9479   2.598   4.048   4.591 -0.1459 -0.1788  0.7629
 2359SOL     OW 9480   0.879   1.416   4.549  0.2640 -0.2352 -0.0085
 2359SOL    HW2 9481   0.826   1.349   4.593 -0.5386  0.1418 -0.4034
 2359SOL    HW3 9482   0.872   1.395   4.456  1.0415 -0.3519 -0.0419
 2359SOL    MW4 9483   0.871   1.404   4.543  0.2607 -0.2010 -0.0653
 2360SOL     OW 9484   3.890   0.494   3.745 -0.0568 -0.3101 -0.3050
 2360SOL    HW2 9485   3.964   0.464   3.797 -0.5202 -1.0187 -0.0516
 2360SOL    HW3 9486   3.871   0.582   3.778  0.2341 -0.4014  0.0972
 2360SOL    MW4 9487   3.897   0.502   3.756 -0.0796 -0.4157 -0.2186
 2361SOL     OW 9488   3.841   0.736   3.874  0.1210 -0.1331 -0.2077
 2361SOL    HW2 9489   3.930   0.764   3.852 -0.2365  1.3047  0.1553
 2361SOL    HW3 9490   3.835   0.748   3.969 -1.2692  2.1425 -0.5527
 2361SOL    MW4 9491   3.852   0.741   3.884 -0.1094  0.3569 -0.2053
 2362SOL     OW 9492   3.633   0.904   3.756  0.4139  0.4177  0.4016
 2362SOL    HW2 9493   3.699   0.842   3.787 -0.0534 -0.9056 -1.1936
 2362SOL    HW3 9494   3.550   0.871   3.791  0.5550  1.9299  2.1846
 2362SOL    MW4 9495   3.631   0.891   3.764  0.3707  0.4426  0.4263
 2363SOL     OW 9496   3.629   1.169   3.841 -0.7029 -0.2821  0.0511
 2363SOL    HW2 9497   3.556   1.222   3.809  0.7588  2.1338  0.6351
 2363SOL    HW3 9498   3.629   1.092   3.784 -1.9095  1.0554 -1.8311
 2363SOL    MW4 9499   3.619   1.166   3.829 -0.6690  0.2131 -0.1199
 2364SOL     OW 9500   3.861   1.277   3.738 -0.0263 -0.0663 -0.2032
 2364SOL    HW2 9501   3.864   1.371   3.758  1.1931 -0.3568  1.0875
 2364SOL    HW3 9502   3.776   1.248   3.771 -0.1363  0.4596 -0.0089
 2364SOL    MW4 9503   3.850   1.286   3.745  0.1199 -0.0353 -0.0076
 2365SOL     OW 9504   0.400   2.933   4.501 -0.2143  0.0401  0.2316
 2365SOL    HW2 9505   0.347   2.855   4.513  1.2605 -0.9827  0.2929
 2365SOL    HW3 9506   0.416   2.938   4.407  0.3596 -0.2094  0.3078
 2365SOL    MW4 9507   0.395   2.924   4.490  0.0560 -0.1278  0.2494
 2366SOL     OW 9508   3.620   1.658   3.774  0.0619 -0.7140  0.0403
 2366SOL    HW2 9509   3.539   1.623   3.812 -0.9408  0.1465 -1.2582
 2366SOL    HW3 9510   3.609   1.646   3.679  1.5699 -0.8179 -0.1351
 2366SOL    MW4 9511   3.608   1.652   3.766  0.1285 -0.6142 -0.1540
 2367SOL     OW 9512   1.033   4.336   4.780 -0.2375 -0.4263 -0.1773
 2367SOL    HW2 9513   0.938   4.340   4.788 -0.0779  0.2204  1.6095
 2367SOL    HW3 9514   1.049   4.255   4.732 -1.6711 -0.7883 -0.0816
 2367SOL    MW4 9515   1.023   4.326   4.775 -0.4057 -0.3891  0.0710
 2368SOL     OW 9516   0.143   0.669   4.576  0.3587  0.2632  0.3660
 2368SOL    HW2 9517   0.218   0.618   4.547  0.6111  1.3963 -1.0663
 2368SOL    HW3 9518   0.176   0.723   4.648  0.5268 -0.3100  0.7230
 2368SOL    MW4 9519   0.157   0.670   4.582  0.4142  0.3371  0.2241
 2369SOL     OW 9520   0.489   4.572   4.214  0.2500 -0.3605 -0.2458
 2369SOL    HW2 9521   0.483   4.478   4.200 -0.3523 -0.2600 -0.6857
 2369SOL    HW3 9522   0.404   4.606   4.187 -0.2674  0.0812  1.8857
 2369SOL    MW4 9523   0.477   4.564   4.208  0.1023 -0.2890 -0.0234
 2370SOL     OW 9524   3.585   2.720   3.912 -0.4463  0.2378 -0.0130
 2370SOL    HW2 9525   3.570   2.627   3.895  0.8055  0.1051 -0.4321
 2370SOL    HW3 9526   3.508   2.764   3.876 -0.0290 -0.4604 -1.7863
 2370SOL    MW4 9527   3.573   2.714   3.905 -0.2260  0.1280 -0.3021
 2371SOL     OW 9528   1.462   0.188   4.722 -0.2186  0.1424 -0.0082
 2371SOL    HW2 9529   1.527   0.192   4.652  0.9434  1.2912  1.1102
 2371SOL    HW3 9530   1.511   0.210   4.802 -1.8052  0.2269  0.9623
 2371SOL    MW4 9531   1.477   0.192   4.723 -0.2747  0.3052  0.2675
 2372SOL     OW 9532   4.170   2.064   4.263  0.4291  0.6693  0.6079
 2372SOL    HW2 9533   4.233   2.001   4.227  0.5857  1.2516 -0.1563
 2372SOL    HW3 9534   4.090   2.048   4.213 -0.0812 -0.1693  1.6792
 2372SOL    MW4 9535   4.168   2.054   4.252  0.3824  0.6354  0.6485
 2373SOL     OW 9536   3.765   3.128   3.916  0.2434 -0.2092 -0.4921
 2373SOL    HW2 9537   3.682   3.166   3.887 -0.9870 -0.8644  1.9374
 2373SOL    HW3 9538   3.770   3.044   3.871 -0.4442 -0.1616 -0.6698
 2373SOL    MW4 9539   3.754   3.122   3.906 -0.0098 -0.2892 -0.1953
 2374SOL     OW 9540   3.548   3.235   3.781 -0.3309  0.4407 -0.5998
 2374SOL    HW2 9541   3.541   3.239   3.686 -2.2760  0.0697 -0.4842
 2374SOL    HW3 9542   3.555   3.327   3.809 -1.9261  0.6739 -0.9492
 2374SOL    MW4 9543   3.548   3.248   3.772 -0.7977  0.4225 -0.6306
 2375SOL     OW 9544   3.644   3.488   3.863  0.0516  0.0366  0.1503
 2375SOL    HW2 9545   3.565   3.537   3.838  0.8035  2.0586  1.5775
 2375SOL    HW3 9546   3.716   3.547   3.840  1.1449 -1.6048 -0.7277
 2375SOL    MW4 9547   3.643   3.503   3.857  0.2952  0.0868  0.2224
 2376SOL     OW 9548   3.823   3.671   3.758 -0.3339 -0.1052  0.1204
 2376SOL    HW2 9549   3.800   3.757   3.793 -0.5562  0.0895 -0.4962
 2376SOL    HW3 9550   3.895   3.641   3.814 -0.5059  0.3183  0.5726
 2376SOL    MW4 9551   3.830   3.679   3.770 -0.3860 -0.0236  0.0987
 2377SOL     OW 9552   3.812   4.341   3.539  0.9391 -0.5598 -0.2025
 2377SOL    HW2 9553   3.735   4.300   3.500 -0.2969  0.5245  1.0581
 2377SOL    HW3 9554   3.815   4.428   3.499  1.6341 -0.6601 -0.3796
 2377SOL    MW4 9555   3.802   4.347   3.528  0.8676 -0.4301 -0.0594
 2378SOL     OW 9556   3.581   4.023   3.752 -0.0801 -0.0914 -0.2221
 2378SOL    HW2 9557   3.658   3.984   3.794  0.4850  0.2796 -0.9109
 2378SOL    HW3 9558   3.575   4.111   3.790  0.0718  0.0242 -0.4637
 2378SOL    MW4 9559   3.591   4.030   3.763  0.0145 -0.0272 -0.3450
 2379SOL     OW 9560   1.595   1.803   4.225  0.2682  0.0388 -0.2880
 2379SOL    HW2 9561   1.662   1.858   4.185  1.1374  0.2499  1.4040
 2379SOL    HW3 9562   1.612   1.809   4.319 -1.5960 -0.5891  0.1172
 2379SOL    MW4 9563   1.606   1.811   4.232  0.1369 -0.0162 -0.0114
 2380SOL     OW 9564   3.798   4.358   3.819 -0.0072 -0.6937  0.1810
 2380SOL    HW2 9565   3.798   4.345   3.724 -0.5150 -0.3346  0.1281
 2380SOL    HW3 9566   3.796   4.453   3.831 -2.6528 -0.7471  0.5199
 2380SOL    MW4 9567   3.798   4.369   3.808 -0.4234 -0.6533  0.2189
 2381SOL     OW 9568   4.295   4.403   3.755 -0.1504 -0.1044 -0.2667
 2381SOL    HW2 9569   4.312   4.489   3.792 -0.3316  0.6988 -2.0129
 2381SOL    HW3 9570   4.207   4.380   3.785 -0.4488  0.7011 -0.5138
 2381SOL    MW4 9571   4.286   4.411   3.764 -0.2136  0.1082 -0.5298
 2382SOL     OW 9572   3.778   4.623   3.867 -0.1172 -0.1614 -0.1039
 2382SOL    HW2 9573   3.864   4.666   3.862 -0.9049  1.5371  0.4960
 2382SOL    HW3 9574   3.770   4.598   3.959 -0.7519  0.7222  0.0829
 2382SOL    MW4 9575   3.789   4.626   3.879 -0.3049  0.1792  0.0002
 2383SOL     OW 9576   1.828   0.670   4.198 -0.4065  0.1980 -0.5833
 2383SOL    HW2 9577   1.848   0.580   4.175  0.0886  0.3585 -0.8040
 2383SOL    HW3 9578   1.907   0.719   4.174 -0.7337  0.7153 -0.6247
 2383SOL    MW4 9579   1.841   0.665   4.192 -0.3842  0.2875 -0.6180
 2384SOL     OW 9580   3.791   4.621   4.161  0.3642 -0.0450 -0.1172
 2384SOL    HW2 9581   3.802   4.707   4.202 -1.9511 -0.0907  0.6585
 2384SOL    HW3 9582   3.868   4.572   4.188  0.2560  0.8426  1.8972
 2384SOL    MW4 9583   3.803   4.626   4.170  0.0446  0.0658  0.2508
 2385SOL     OW 9584   4.284   0.741   3.939 -0.3598 -0.1274 -0.2606
 2385SOL    HW2 9585   4.209   0.775   3.889 -1.0647 -0.5951  0.4621
 2385SOL    HW3 9586   4.308   0.660   3.894 -0.7287 -0.3288 -0.1058
 2385SOL    MW4 9587   4.277   0.735   3.927 -0.5012 -0.2157 -0.1452
 2386SOL     OW 9588   4.086   0.865   3.795 -0.4915 -0.2837 -0.4864
 2386SOL    HW2 9589   4.085   0.951   3.837 -1.2129 -0.2092 -0.6563
 2386SOL    HW3 9590   4.082   0.884   3.701 -1.0610 -0.5168 -0.5084
 2386SOL    MW4 9591   4.085   0.879   3.788 -0.6614 -0.3046 -0.5116
 2387SOL     OW 9592   0.506   0.404   4.187 -0.1095 -0.0230  0.2087
 2387SOL    HW2 9593   0.512   0.498   4.202 -0.3763 -0.4182  3.0844
 2387SOL    HW3 9594   0.575   0.367   4.242  0.5639 -1.4615 -1.5598
 2387SOL    MW4 9595   0.516   0.411   4.196 -0.0559 -0.2649  0.3543
 2388SOL     OW 9596   4.284   1.261   3.832 -0.0431 -0.1453  0.2994
 2388SOL    HW2 9597   4.365   1.245   3.879 -0.3295 -1.4212  0.3630
 2388SOL    HW3 9598   4.309   1.256   3.739 -0.3184 -1.9652  0.3142
 2388SOL    MW4 9599   4.298   1.258   3.826 -0.1173 -0.5537  0.3097
 2389SOL     OW 9600   4.309   1.539   3.927  0.2924 -0.3049  0.0441
 2389SOL    HW2 9601   4.235   1.595   3.903  0.5295  0.9830  2.1839
 2389SOL    HW3 9602   4.292   1.456   3.883 -2.5454 -0.1049  0.6674
 2389SOL    MW4 9603   4.297   1.536   3.918 -0.0505 -0.1086  0.4086
 2390SOL     OW 9604   4.106   1.678   3.775 -0.2798  0.0414 -0.0781
 2390SOL    HW2 9605   4.033   1.620   3.794 -0.6894  0.3067 -0.8109
 2390SOL    HW3 9606   4.085   1.760   3.820 -1.3949  0.7693 -1.8689
 2390SOL    MW4 9607   4.093   1.682   3.783 -0.4807  0.1726 -0.4110
 2391SOL     OW 9608   4.058   1.919   3.909 -0.3676 -0.2337  0.0073
 2391SOL    HW2 9609   4.133   1.967   3.872 -0.1029 -0.2002  0.5802
 2391SOL    HW3 9610   3.981   1.964   3.873 -0.1133  0.0105 -0.2351
 2391SOL    MW4 9611   4.058   1.931   3.900 -0.2990 -0.1971  0.0508
 2392SOL     OW 9612   4.277   2.050   3.792 -0.2629  0.2485 -0.0994
 2392SOL    HW2 9613   4.363   2.013   3.810 -0.7846 -1.6071 -1.3008
 2392SOL    HW3 9614   4.263   2.035   3.699 -1.9627  0.3355  0.1228
 2392SOL    MW4 9615   4.286   2.043   3.782 -0.5560  0.0153 -0.2286
 2393SOL     OW 9616   4.039   2.468   3.820  0.4516 -0.0849  0.4477
 2393SOL    HW2 9617   4.112   2.417   3.856 -0.1086 -0.1491  1.5197
 2393SOL    HW3 9618   3.960   2.420   3.847 -0.0101  0.2459 -0.2811
 2393SOL    MW4 9619   4.038   2.455   3.828  0.3166 -0.0496  0.4928
 2394SOL     OW 9620   2.026   1.853   4.266  1.0617 -0.0112  0.5937
 2394SOL    HW2 9621   1.960   1.871   4.198 -0.0240  0.6751  1.8174
 2394SOL    HW3 9622   2.107   1.887   4.229  0.0539  2.5006  0.5957
 2394SOL    MW4 9623   2.028   1.860   4.252  0.7854  0.4108  0.7548
 2395SOL     OW 9624   4.254   2.868   3.789  0.1851  0.1770 -0.1626
 2395SOL    HW2 9625   4.176   2.831   3.831 -0.0578  3.1189  2.1231
 2395SOL    HW3 9626   4.327   2.825   3.834 -0.1098  0.0767  0.2273
 2395SOL    MW4 9627   4.253   2.857   3.801  0.1144  0.5517  0.1903
 2396SOL     OW 9628   4.258   3.152   3.862 -0.0363 -0.1309  0.1555
 2396SOL    HW2 9629   4.165   3.168   3.845  0.6123  0.7655 -2.7066
 2396SOL    HW3 9630   4.274   3.063   3.831  0.0845 -0.2976  0.6784
 2396SOL    MW4 9631   4.248   3.142   3.856  0.0653 -0.0346 -0.1531
 2397SOL     OW 9632   0.024   3.254   3.828  0.6962  0.1056 -0.0792
 2397SOL    HW2 9633   0.027   3.243   3.733 -0.1461  1.9026 -0.3279
 2397SOL    HW3 9634  -0.064   3.226   3.853  0.2610  1.4409 -0.0836
 2397SOL    MW4 9635   0.013   3.248   3.819  0.5279  0.5188 -0.1125
 2398SOL     OW 9636   3.992   3.264   3.808 -0.0893  0.1990  0.1779
 2398SOL    HW2 9637   3.909   3.220   3.828 -0.8172  1.8067  0.8308
 2398SOL    HW3 9638   4.000   3.259   3.713 -1.1077  0.3088  0.0796
 2398SOL    MW4 9639   3.982   3.258   3.798 -0.3200  0.4256  0.2511
 2399SOL     OW 9640   3.999   3.515   3.902 -0.5514  0.3253  0.0512
 2399SOL    HW2 9641   3.995   3.430   3.859 -0.2618 -0.0865  0.8428
 2399SOL    HW3 9642   4.012   3.496   3.994 -1.4661  1.2081  0.3767
 2399SOL    MW4 9643   4.001   3.501   3.908 -0.6337  0.3874  0.1986
 2400SOL     OW 9644   4.245   3.620   3.792 -0.0182  0.4979  0.4501
 2400SOL    HW2 9645   4.324   3.597   3.841 -0.3498 -0.3091  0.6234
 2400SOL    HW3 9646   4.175   3.575   3.839 -0.6202  1.4420  0.4674
 2400SOL    MW4 9647   4.246   3.611   3.805 -0.1411  0.5157  0.4754
 2401SOL     OW 9648   3.758   3.422   4.138  0.2244 -0.0946 -0.4387
 2401SOL    HW2 9649   3.720   3.437   4.051  3.1551  1.0719 -1.5669
 2401SOL    HW3 9650   3.756   3.327   4.149 -1.0479 -0.1860 -1.3508
 2401SOL    MW4 9651   3.752   3.412   4.128  0.4432  0.0474 -0.7081
 2402SOL     OW 9652   2.337   2.691   4.515 -0.7436 -0.2012 -0.5515
 2402SOL    HW2 9653   2.390   2.771   4.519 -1.1161  0.0147  0.1506
 2402SOL    HW3 9654   2.387   2.627   4.565 -1.0817 -0.0281  0.0183
 2402SOL    MW4 9655   2.350   2.693   4.522 -0.8373 -0.1497 -0.3834
 2403SOL     OW 9656   4.055   4.303   3.839  0.3084  0.9747 -0.2084
 2403SOL    HW2 9657   4.058   4.209   3.823  2.0676  0.6299  1.8859
 2403SOL    HW3 9658   3.963   4.326   3.829 -0.0903 -0.9006 -1.0763
 2403SOL    MW4 9659   4.043   4.293   3.836  0.4878  0.6824 -0.0465
 2404SOL     OW 9660   3.809   3.916   3.889 -0.0199 -0.3817 -0.1982
 2404SOL    HW2 9661   3.817   3.914   3.985 -1.1951  2.6359  0.0081
 2404SOL    HW3 9662   3.886   3.964   3.859 -1.7108  2.3127 -0.4041
 2404SOL    MW4 9663   3.820   3.922   3.898 -0.3979  0.3719 -0.1984
 2405SOL     OW 9664   3.279   0.189   4.599 -0.3413 -0.0577  0.1970
 2405SOL    HW2 9665   3.227   0.109   4.603  0.0326 -0.2631  1.5556
 2405SOL    HW3 9666   3.230   0.252   4.652 -0.4720  0.5106 -0.6039
 2405SOL    MW4 9667   3.266   0.187   4.607 -0.3092 -0.0098  0.2704
 2406SOL     OW 9668   2.980   1.336   4.560 -0.2016 -0.2430  0.0657
 2406SOL    HW2 9669   3.048   1.366   4.500  0.9879  0.1132  1.5773
 2406SOL    HW3 9670   2.997   1.383   4.641 -0.8302 -1.9364  1.1886
 2406SOL    MW4 9671   2.991   1.346   4.562 -0.1276 -0.4195  0.4134
 2407SOL     OW 9672   0.707   1.227   4.659  0.1693 -0.0595 -0.3550
 2407SOL    HW2 9673   0.668   1.201   4.576  0.4524 -0.0818 -0.4815
 2407SOL    HW3 9674   0.783   1.169   4.669 -0.5978 -0.9349  0.5386
 2407SOL    MW4 9675   0.712   1.216   4.650  0.1055 -0.1779 -0.2537
 2408SOL     OW 9676   1.356   4.555   4.220  0.0601  0.1957  0.1342
 2408SOL    HW2 9677   1.442   4.595   4.207  0.1451  0.6211  1.8575
 2408SOL    HW3 9678   1.358   4.475   4.167  2.1056 -0.6130  1.4042
 2408SOL    MW4 9679   1.367   4.550   4.211  0.3413  0.1459  0.5288
 2409SOL     OW 9680   1.099   1.540   4.198  0.3375  0.1965  0.3325
 2409SOL    HW2 9681   1.056   1.623   4.219 -0.5993 -0.2052  0.0205
 2409SOL    HW3 9682   1.096   1.535   4.103  0.7665 -0.0069  0.3290
 2409SOL    MW4 9683   1.093   1.551   4.188  0.2704  0.1167  0.2909
 2410SOL     OW 9684   0.258   4.655   3.866  0.6262 -0.1388 -0.1461
 2410SOL    HW2 9685   0.172   4.689   3.839  0.5845  0.0222  0.1834
 2410SOL    HW3 9686   0.260   4.668   3.960  1.2039  0.2925 -0.2137
 2410SOL    MW4 9687   0.247   4.661   3.875  0.6969 -0.0606 -0.1116
 2411SOL     OW 9688   4.323   3.622   4.598 -0.2307  0.4348  0.2381
 2411SOL    HW2 9689   4.291   3.536   4.624 -0.4364 -0.3792 -2.5421
 2411SOL    HW3 9690   4.418   3.618   4.614 -0.5438  0.5380  2.2704
 2411SOL    MW4 9691   4.331   3.610   4.604 -0.2995  0.3409  0.1397
 2412SOL     OW 9692   4.401   1.926   4.157 -0.5865  0.0861  0.1221
 2412SOL    HW2 9693   4.464   1.881   4.213 -0.1265  0.9288  0.2751
 2412SOL    HW3 9694   4.448   1.943   4.076 -0.6599  0.5936  0.1874
 2412SOL    MW4 9695   4.415   1.922   4.154 -0.5360  0.2643  0.1512
 2413SOL     OW 9696   1.158   3.357   4.755 -0.4079  0.1426  0.5339
 2413SOL    HW2 9697   1.098   3.426   4.785  1.1900  1.8013 -0.0085
 2413SOL    HW3 9698   1.101   3.283   4.733 -2.1352  1.2288  1.2839
 2413SOL    MW4 9699   1.142   3.356   4.756 -0.4250  0.5050  0.5612
 2414SOL     OW 9700   4.345   1.044   4.285  0.2605 -0.0650  0.1324
 2414SOL    HW2 9701   4.265   1.058   4.234  0.5399 -0.0363 -0.2960
 2414SOL    HW3 9702   4.321   1.070   4.374  0.2144  1.3696 -0.2746
 2414SOL    MW4 9703   4.331   1.050   4.290  0.2909  0.1280  0.0224
 2415SOL     OW 9704   0.527   3.806   4.727 -0.2431  0.2952 -0.1579
 2415SOL    HW2 9705   0.488   3.727   4.691 -0.8842 -0.2408  1.6253
 2415SOL    HW3 9706   0.506   3.875   4.665 -0.1429 -0.8309 -1.4622
 2415SOL    MW4 9707   0.519   3.805   4.714 -0.3144  0.0761 -0.0944
 2416SOL     OW 9708   3.109   2.661   4.201  0.4725  0.2329  0.3964
 2416SOL    HW2 9709   3.200   2.636   4.220  0.0994 -0.4261  1.3418
 2416SOL    HW3 9710   3.104   2.661   4.105  1.3028 -0.3541  0.3446
 2416SOL    MW4 9711   3.121   2.658   4.191  0.5324  0.0682  0.5140
 2417SOL     OW 9712   2.068   2.357   4.083 -0.3747  0.2148 -0.5596
 2417SOL    HW2 9713   2.052   2.446   4.115  0.8077  0.7041 -1.2804
 2417SOL    HW3 9714   2.063   2.364   3.988  0.0856 -0.4147 -0.6355
 2417SOL    MW4 9715   2.066   2.370   4.075 -0.1578  0.1965 -0.6647
 2418SOL     OW 9716   4.467   3.012   4.296  0.0727 -0.2301 -0.2134
 2418SOL    HW2 9717   4.401   3.062   4.246 -0.7923 -1.4653 -0.3418
 2418SOL    HW3 9718   4.550   3.035   4.254 -0.5000 -0.2221 -1.3893
 2418SOL    MW4 9719   4.469   3.022   4.284 -0.1173 -0.3920 -0.3858
 2419SOL     OW 9720   3.282   2.220   4.652  0.1856  0.3164  0.0701
 2419SOL    HW2 9721   3.318   2.260   4.732  0.9061 -0.7611  0.2893
 2419SOL    HW3 9722   3.358   2.185   4.606 -0.3742 -0.2482 -0.4343
 2419SOL    MW4 9723   3.297   2.221   4.657  0.2065  0.0997  0.0324
 2420SOL     OW 9724   4.382   2.844   4.498  0.3862 -0.3582  0.0558
 2420SOL    HW2 9725   4.425   2.879   4.420 -2.0356  0.6319 -0.8906
 2420SOL    HW3 9726   4.368   2.921   4.553  0.2569 -0.7469  0.5650
 2420SOL    MW4 9727   4.386   2.859   4.495  0.0491 -0.2792 -0.0014
 2421SOL     OW 9728   1.138   0.533   3.792  0.0247  0.3157  0.2649
 2421SOL    HW2 9729   1.066   0.479   3.823  1.2203 -0.8569  1.0108
 2421SOL    HW3 9730   1.218   0.488   3.821  1.0709  1.5780 -0.5582
 2421SOL    MW4 9731   1.139   0.520   3.800  0.3204  0.3276  0.2546
 2422SOL     OW 9732   2.437   3.094   4.212 -0.2925 -0.2125 -0.4364
 2422SOL    HW2 9733   2.446   3.098   4.117  0.3512  0.2315 -0.3595
 2422SOL    HW3 9734   2.517   3.050   4.242 -0.1880  0.2390 -0.0503
 2422SOL    MW4 9735   2.449   3.088   4.204 -0.1936 -0.0944 -0.3753
 2423SOL     OW 9736   2.699   4.525   4.203  0.0207  0.0903  0.9990
 2423SOL    HW2 9737   2.620   4.570   4.173  0.2035 -0.5672 -0.4603
 2423SOL    HW3 9738   2.771   4.577   4.169  0.2416 -1.6665 -1.2871
 2423SOL    MW4 9739   2.698   4.538   4.195  0.0739 -0.2284  0.5050
 2424SOL     OW 9740   3.313   2.681   4.522 -0.0272 -0.5301  0.5542
 2424SOL    HW2 9741   3.254   2.616   4.559 -0.3280 -0.1182  0.7989
 2424SOL    HW3 9742   3.287   2.764   4.562  1.1169 -0.4412  1.1360
 2424SOL    MW4 9743   3.302   2.683   4.532  0.0842 -0.4642  0.6633
 2425SOL     OW 9744   0.161   3.796   4.480 -0.3675 -0.5614 -0.6033
 2425SOL    HW2 9745   0.249   3.832   4.492 -0.7805 -0.1547  1.2999
 2425SOL    HW3 9746   0.161   3.715   4.532 -1.3428 -0.1854 -0.0100
 2425SOL    MW4 9747   0.173   3.790   4.488 -0.5507 -0.4582 -0.2742
 2426SOL     OW 9748   0.646   0.792   3.907  0.0964  0.4309  0.2657
 2426SOL    HW2 9749   0.646   0.696   3.900 -1.2896  0.4934 -0.5509
 2426SOL    HW3 9750   0.728   0.819   3.866  2.2387 -0.6127  3.5928
 2426SOL    MW4 9751   0.657   0.783   3.901  0.1962  0.3014  0.5970
 2427SOL     OW 9752   0.904   4.255   4.104 -0.0061 -0.0498  0.2323
 2427SOL    HW2 9753   0.902   4.348   4.126  0.4653 -0.2020  0.9272
 2427SOL    HW3 9754   0.989   4.225   4.134  1.0177 -0.0875 -2.5446
 2427SOL    MW4 9755   0.915   4.263   4.111  0.1912 -0.0749 -0.0424
 2428SOL     OW 9756   3.389   0.285   4.241  0.4049  0.7334  0.4564
 2428SOL    HW2 9757   3.310   0.332   4.214 -0.4352 -0.6988  0.3155
 2428SOL    HW3 9758   3.403   0.312   4.332 -1.3035 -0.3210  1.0663
 2428SOL    MW4 9759   3.380   0.295   4.250  0.0687  0.4053  0.5183
 2429SOL     OW 9760   3.128   3.758   4.684  0.1881 -0.0564  0.1389
 2429SOL    HW2 9761   3.085   3.735   4.767 -0.0698  0.0990  0.0498
 2429SOL    HW3 9762   3.141   3.852   4.690 -2.5879  0.4741 -1.2627
 2429SOL    MW4 9763   3.124   3.767   4.696 -0.2122  0.0341 -0.0582
 2430SOL     OW 9764   2.786   2.660   4.583  0.3051  0.5660  0.1071
 2430SOL    HW2 9765   2.699   2.666   4.622 -0.1497  1.1489 -0.9798
 2430SOL    HW3 9766   2.837   2.611   4.647 -0.3940  1.5971  1.4946
 2430SOL    MW4 9767   2.781   2.655   4.596  0.1526  0.7789  0.1469
 2431SOL     OW 9768   2.061   3.891   3.929 -0.3764  0.5188  0.3016
 2431SOL    HW2 9769   2.070   3.801   3.896 -0.6690  0.2147  1.0263
 2431SOL    HW3 9770   2.134   3.939   3.890  0.6037 -0.3712  1.0158
 2431SOL    MW4 9771   2.072   3.885   3.919 -0.2856  0.3617  0.4914
 2432SOL     OW 9772   2.829   4.185   4.463  0.3610 -0.5319 -0.4187
 2432SOL    HW2 9773   2.757   4.125   4.484 -0.7251  1.2421  1.0584
 2432SOL    HW3 9774   2.859   4.157   4.376 -2.5587 -0.8857 -1.3539
 2432SOL    MW4 9775   2.824   4.174   4.454 -0.1676 -0.3443 -0.3471
 2433SOL     OW 9776   2.331   1.822   4.498  0.0356  0.5323 -0.4533
 2433SOL    HW2 9777   2.364   1.750   4.552 -1.0782 -0.7141 -1.3996
 2433SOL    HW3 9778   2.372   1.808   4.413  0.4688  1.5096 -0.4092
 2433SOL    MW4 9779   2.341   1.811   4.494 -0.0539  0.4967 -0.5722
 2434SOL     OW 9780   0.457   1.173   3.960 -0.2893  0.5976  0.2681
 2434SOL    HW2 9781   0.382   1.214   3.917  0.1249  1.2866  0.2029
 2434SOL    HW3 9782   0.458   1.083   3.926 -1.4430  0.3974  0.7239
 2434SOL    MW4 9783   0.447   1.166   3.950 -0.3869  0.6621  0.3197
 2435SOL     OW 9784   1.135   3.580   3.740 -0.2203  0.1894 -0.5559
 2435SOL    HW2 9785   1.058   3.553   3.790  0.5244  0.0035  0.5162
 2435SOL    HW3 9786   1.139   3.675   3.753 -0.6750  0.3015 -1.2079
 2435SOL    MW4 9787   1.125   3.589   3.749 -0.1819  0.1800 -0.5002
 2436SOL     OW 9788   2.189   2.996   4.294  0.1023  0.2682 -0.3618
 2436SOL    HW2 9789   2.123   3.055   4.259  0.1020 -0.1872 -1.1337
 2436SOL    HW3 9790   2.272   3.030   4.260  0.1464  0.1180 -0.4084
 2436SOL    MW4 9791   2.192   3.008   4.285  0.1080  0.1884 -0.4697
 2437SOL     OW 9792   0.109   3.574   4.656  0.0824 -0.1364  0.1309
 2437SOL    HW2 9793   0.174   3.606   4.719  0.6408 -0.1848 -0.4214
 2437SOL    HW3 9794   0.149   3.496   4.618 -0.2930 -0.1545 -0.2275
 2437SOL    MW4 9795   0.123   3.568   4.660  0.1066 -0.1452  0.0105
 2438SOL     OW 9796   3.950   2.233   4.629  0.2799 -0.2314 -0.1000
 2438SOL    HW2 9797   3.993   2.151   4.605 -0.2183 -0.7539  0.7634
 2438SOL    HW3 9798   3.881   2.244   4.564  0.1006 -0.7020  0.0078
 2438SOL    MW4 9799   3.947   2.223   4.618  0.1905 -0.3624  0.0281
 2439SOL     OW 9800   0.435   3.256   3.806  0.1862  0.1539 -0.7521
 2439SOL    HW2 9801   0.403   3.343   3.829 -0.4577  0.2193 -1.8785
 2439SOL    HW3 9802   0.373   3.195   3.846  1.5578  0.1484  1.4583
 2439SOL    MW4 9803   0.423   3.259   3.815  0.2822  0.1616 -0.6092
 2440SOL     OW 9804   1.408   0.620   4.528 -0.1173  0.2419 -0.2389
 2440SOL    HW2 9805   1.362   0.696   4.566 -2.3823 -0.9374 -0.5271
 2440SOL    HW3 9806   1.381   0.620   4.436  0.7438 -0.2816 -0.4952
 2440SOL    MW4 9807   1.398   0.630   4.521 -0.3026  0.0173 -0.3109
 2441SOL     OW 9808   4.389   0.007   4.672 -0.1241  0.8476 -0.3020
 2441SOL    HW2 9809   4.297  -0.011   4.648 -0.3204  0.1770  0.9355
 2441SOL    HW3 9810   4.384   0.067   4.745  0.4546  1.5379 -0.8239
 2441SOL    MW4 9811   4.376   0.012   4.678 -0.0739  0.8497 -0.2079
 2442SOL     OW 9812   0.927   3.524   4.163  0.1831 -0.0023 -0.0903
 2442SOL    HW2 9813   0.956   3.440   4.198 -1.5321 -0.5594  0.0266
 2442SOL    HW3 9814   0.943   3.518   4.069  0.4660 -0.2866 -0.0241
 2442SOL    MW4 9815   0.933   3.512   4.155 -0.0058 -0.1130 -0.0663
 2443SOL     OW 9816   0.946   2.202   4.303  0.2281 -0.1187 -0.0340
 2443SOL    HW2 9817   0.927   2.126   4.247  0.8656  0.1659 -0.6504
 2443SOL    HW3 9818   0.870   2.259   4.292  0.4527  0.0409 -0.7993
 2443SOL    MW4 9819   0.933   2.199   4.294  0.3418 -0.0601 -0.2160
 2444SOL     OW 9820   3.837   0.199   4.271  0.2131  0.1823 -0.4016
 2444SOL    HW2 9821   3.920   0.224   4.229  0.4748 -1.0436 -0.6392
 2444SOL    HW3 9822   3.776   0.269   4.248  1.1235  0.9874 -0.4073
 2444SOL    MW4 9823   3.840   0.212   4.263  0.3676  0.1268 -0.4334
 2445SOL     OW 9824   0.915   4.457   4.444 -0.2374  0.0023 -0.0175
 2445SOL    HW2 9825   0.949   4.367   4.441 -0.3166 -0.0156 -0.4370
 2445SOL    HW3 9826   0.977   4.504   4.499 -1.3423 -0.7971  1.9928
 2445SOL    MW4 9827   0.927   4.451   4.451 -0.3936 -0.1059  0.1926
 2446SOL     OW 9828   0.872   1.394   4.259  0.1996  0.6843 -0.5606
 2446SOL    HW2 9829   0.887   1.301   4.242 -0.1116  0.4142  0.6427
 2446SOL    HW3 9830   0.954   1.437   4.231  0.4133  0.0418 -0.9331
 2446SOL    MW4 9831   0.885   1.388   4.253  0.1867  0.5639 -0.4511
 2447SOL     OW 9832   4.340   1.416   4.168 -0.2207 -0.0255  0.1258
 2447SOL    HW2 9833   4.318   1.453   4.083 -0.5445  1.3094  0.7739
 2447SOL    HW3 9834   4.256   1.409   4.213  0.1643  1.2856  1.1090
 2447SOL    MW4 9835   4.326   1.420   4.163 -0.2127  0.3237  0.3409
 2448SOL     OW 9836   2.485   0.292   4.295 -0.0300  0.2006 -0.2647
 2448SOL    HW2 9837   2.561   0.344   4.268  0.0948 -0.8366 -1.9365
 2448SOL    HW3 9838   2.411   0.335   4.253 -0.2453  0.4780  0.3778
 2448SOL    MW4 9839   2.485   0.305   4.286 -0.0420  0.1004 -0.4005
 2449SOL     OW 9840   2.122   2.501   4.475 -0.1218  0.2865 -0.2971
 2449SOL    HW2 9841   2.176   2.577   4.494 -0.1311  0.3047 -0.3452
 2449SOL    HW3 9842   2.180   2.426   4.489 -0.3192  0.2743  0.4589
 2449SOL    MW4 9843   2.137   2.501   4.479 -0.1493  0.2873 -0.2036
 2450SOL     OW 9844   1.131   1.322   4.624 -0.5925  0.0049 -0.4138
 2450SOL    HW2 9845   1.049   1.366   4.601 -0.5666 -0.5588 -1.6769
 2450SOL    HW3 9846   1.198   1.388   4.611 -0.8796  0.6071  1.0717
 2450SOL    MW4 9847   1.129   1.337   4.619 -0.6270  0.0100 -0.3843
 2451SOL     OW 9848   3.721   3.720   4.737 -0.0743  0.1753 -0.5399
 2451SOL    HW2 9849   3.710   3.802   4.690  3.6590  0.7599 -0.5374
 2451SOL    HW3 9850   3.737   3.746   4.828  1.9326 -0.4538 -0.6849
 2451SOL    MW4 9851   3.722   3.734   4.743  0.6828  0.1695 -0.5584
 2452SOL     OW 9852   4.343   2.318   4.211 -0.0165  0.2833  0.0792
 2452SOL    HW2 9853   4.404   2.385   4.242 -1.1571  1.2872  0.2365
 2452SOL    HW3 9854   4.383   2.235   4.235  2.1976  0.8484 -1.5448
 2452SOL    MW4 9855   4.356   2.316   4.218  0.1259  0.4904 -0.1144
 2453SOL     OW 9856   1.205   0.873   4.640  0.0751 -0.4926 -0.2884
 2453SOL    HW2 9857   1.246   0.841   4.720  0.6182  0.8189 -0.0328
 2453SOL    HW3 9858   1.266   0.939   4.607 -1.9717  1.6897  0.2474
 2453SOL    MW4 9859   1.219   0.877   4.646 -0.1233 -0.0316 -0.1836
 2454SOL     OW 9860   2.278   1.418   4.281 -0.1623 -0.3946 -0.1484
 2454SOL    HW2 9861   2.199   1.457   4.245  0.1315  0.4033  0.0576
 2454SOL    HW3 9862   2.350   1.461   4.234  0.1531 -1.0379 -0.2641
 2454SOL    MW4 9863   2.277   1.429   4.270 -0.0818 -0.3741 -0.1369
 2455SOL     OW 9864   3.130   4.524   4.217 -0.3043  0.4718 -0.6530
 2455SOL    HW2 9865   3.203   4.584   4.202 -0.2639  0.5052 -0.3263
 2455SOL    HW3 9866   3.132   4.507   4.311  0.4301 -1.0151 -0.9305
 2455SOL    MW4 9867   3.140   4.530   4.228 -0.2017  0.2804 -0.6471
 2456SOL     OW 9868   4.036   0.064   3.827 -0.3144 -0.1021  0.2369
 2456SOL    HW2 9869   4.036   0.059   3.731 -1.6496 -0.7037  0.2567
 2456SOL    HW3 9870   4.118   0.020   3.853  0.2261  0.3769 -0.6299
 2456SOL    MW4 9871   4.047   0.057   3.818 -0.4187 -0.1183  0.1254
 2457SOL     OW 9872   2.483   3.098   3.927  0.0139 -0.6738  0.1950
 2457SOL    HW2 9873   2.548   3.155   3.886  0.1931 -1.2131 -0.2827
 2457SOL    HW3 9874   2.485   3.018   3.875 -2.1889 -0.1046 -0.8273
 2457SOL    MW4 9875   2.492   3.095   3.915 -0.2532 -0.6697 -0.0029
 2458SOL     OW 9876   3.930   2.033   4.113 -0.1167 -0.0130  0.1103
 2458SOL    HW2 9877   3.910   1.957   4.166 -1.4071  0.4340  0.2727
 2458SOL    HW3 9878   3.996   2.002   4.050 -1.2348 -1.4546 -0.3600
 2458SOL    MW4 9879   3.936   2.019   4.112 -0.4349 -0.1442  0.0696
 2459SOL     OW 9880   1.615   3.342   4.316  0.0314  0.4351  0.6549
 2459SOL    HW2 9881   1.627   3.312   4.406  2.1259 -0.1209  0.2240
 2459SOL    HW3 9882   1.616   3.262   4.264  0.8199  0.8928 -0.0457
 2459SOL    MW4 9883   1.617   3.327   4.321  0.4116  0.4222  0.5050
 2460SOL     OW 9884   4.052   2.741   3.909 -0.3215  0.4914  0.7039
 2460SOL    HW2 9885   4.085   2.728   3.998  0.5459  3.4703  0.8516
 2460SOL    HW3 9886   4.044   2.652   3.874 -2.3709 -0.9013  4.3209
 2460SOL    MW4 9887   4.055   2.727   3.916 -0.4773  0.7005  1.2009
 2461SOL     OW 9888   0.526   4.649   4.474 -0.3607  0.0599  0.3632
 2461SOL    HW2 9889   0.499   4.628   4.384 -0.3892  0.5463  0.2549
 2461SOL    HW3 9890   0.508   4.570   4.524  1.4283 -0.8715 -0.4326
 2461SOL    MW4 9891   0.520   4.636   4.468 -0.1284  0.0014  0.2441
 2462SOL     OW 9892   0.251   2.246   4.184 -0.2302  0.6662  0.3775
 2462SOL    HW2 9893   0.320   2.204   4.235  0.1493  1.0181  0.1618
 2462SOL    HW3 9894   0.170   2.208   4.216  0.1446 -0.7042 -0.2667
 2462SOL    MW4 9895   0.249   2.236   4.195 -0.1307  0.5319  0.2642
 2463SOL     OW 9896   0.231   4.665   4.147  0.0794 -0.3162 -0.8186
 2463SOL    HW2 9897   0.151   4.630   4.187 -0.5714 -0.6086 -2.3112
 2463SOL    HW3 9898   0.228   4.759   4.164  0.2057 -0.5418  0.4602
 2463SOL    MW4 9899   0.220   4.673   4.155  0.0102 -0.3846 -0.8464
 2464SOL     OW 9900   2.093   0.823   4.482 -0.6366 -0.1145 -0.0787
 2464SOL    HW2 9901   2.070   0.898   4.427 -0.3583  1.1582  1.5046
 2464SOL    HW3 9902   2.008   0.784   4.505 -0.7408 -0.8693 -1.6650
 2464SOL    MW4 9903   2.079   0.828   4.478 -0.6137 -0.0461 -0.0792
 2465SOL     OW 9904   1.104   0.782   3.904 -0.0361 -0.0998 -0.3728
 2465SOL    HW2 9905   1.107   0.688   3.885  1.8929 -0.1997  0.3452
 2465SOL    HW3 9906   1.189   0.815   3.875 -0.2098  1.1888  0.5685
 2465SOL    MW4 9907   1.116   0.774   3.898  0.1955  0.0570 -0.1538
 2466SOL     OW 9908   1.890   3.989   4.565  0.0274 -0.1587 -0.5444
 2466SOL    HW2 9909   1.952   4.059   4.543  0.1098 -0.2621 -0.6399
 2466SOL    HW3 9910   1.819   4.034   4.611  0.7948 -0.2114  0.7351
 2466SOL    MW4 9911   1.889   4.004   4.568  0.1396 -0.1793 -0.3886
 2467SOL     OW 9912   1.598   2.356   4.090  0.2225  0.3785 -0.2724
 2467SOL    HW2 9913   1.577   2.349   3.997 -1.4185 -1.1971  0.1722
 2467SOL    HW3 9914   1.685   2.318   4.098 -0.6590 -1.8576 -0.8325
 2467SOL    MW4 9915   1.607   2.350   4.079 -0.1103 -0.1245 -0.2880
 2468SOL     OW 9916   0.952   1.114   4.707 -0.4093 -0.2950  0.4533
 2468SOL    HW2 9917   1.003   1.189   4.676 -1.1733  0.2636  0.5275
 2468SOL    HW3 9918   1.017   1.045   4.721  0.3796  0.5373  0.9817
 2468SOL    MW4 9919   0.967   1.115   4.705 -0.4060 -0.1115  0.5331
 2469SOL     OW 9920   0.202   2.870   3.762 -0.0108 -0.1297 -0.3133
 2469SOL    HW2 9921   0.201   2.833   3.674  0.5437 -0.6040 -0.1162
 2469SOL    HW3 9922   0.123   2.836   3.803 -0.0087 -0.3058 -0.4570
 2469SOL    MW4 9923   0.191   2.861   3.756  0.0627 -0.2155 -0.3064
 2470SOL     OW 9924   0.006   2.536   4.317 -0.3044  0.3704  0.0892
 2470SOL    HW2 9925   0.001   2.554   4.411 -1.9463  0.1888  0.0594
 2470SOL    HW3 9926   0.099   2.526   4.299  0.0746  1.1073  1.5683
 2470SOL    MW4 9927   0.017   2.537   4.327 -0.4710  0.4437  0.2804
 2471SOL     OW 9928   4.420   3.133   4.554  0.2179  0.3083 -0.2961
 2471SOL    HW2 9929   4.358   3.205   4.561 -0.1728 -0.0040 -0.5241
 2471SOL    HW3 9930   4.418   3.108   4.461 -1.1296 -1.3061  0.1544
 2471SOL    MW4 9931   4.412   3.139   4.542 -0.0114  0.0539 -0.2661
 2472SOL     OW 9932   3.058   4.256   4.618 -0.6046  0.4824  0.2856
 2472SOL    HW2 9933   2.988   4.226   4.560 -0.4477  1.4408 -0.4236
 2472SOL    HW3 9934   3.015   4.271   4.702 -1.4715  1.9708 -0.3873
 2472SOL    MW4 9935   3.043   4.254   4.622 -0.6981  0.8049  0.1030
 2473SOL     OW 9936   3.650   1.178   4.115 -0.3351  0.2099 -0.1963
 2473SOL    HW2 9937   3.721   1.119   4.141 -0.0786  0.3015 -0.6834
 2473SOL    HW3 9938   3.645   1.170   4.020 -1.0686  0.1089 -0.1542
 2473SOL    MW4 9939   3.659   1.169   4.106 -0.3979  0.2087 -0.2546
 2474SOL     OW 9940   1.820   3.508   3.899 -0.1751  0.5107  0.6843
 2474SOL    HW2 9941   1.903   3.541   3.864 -0.3728  1.2207  0.8889
 2474SOL    HW3 9942   1.805   3.426   3.851 -0.0126  1.0431 -0.2845
 2474SOL    MW4 9943   1.829   3.501   3.888 -0.1796  0.6750  0.5834
 2475SOL     OW 9944   3.130   3.484   4.141 -0.1191  0.2595 -0.0951
 2475SOL    HW2 9945   3.125   3.484   4.046  0.5082 -0.6840 -0.1407
 2475SOL    HW3 9946   3.197   3.419   4.162 -0.8658 -0.1855  1.0135
 2475SOL    MW4 9947   3.138   3.475   4.131 -0.1349  0.0765  0.0448
 2476SOL     OW 9948   1.153   3.077   4.141 -0.1503 -0.7414  0.2106
 2476SOL    HW2 9949   1.088   3.023   4.186 -0.2567 -2.1479 -1.6135
 2476SOL    HW3 9950   1.237   3.036   4.163 -0.1614 -1.1144 -0.4553
 2476SOL    MW4 9951   1.156   3.064   4.150 -0.1657 -0.9761 -0.1183
 2477SOL     OW 9952   2.897   1.086   4.485  0.4938 -0.0648  0.0051
 2477SOL    HW2 9953   2.965   1.030   4.523  0.4511  0.1043  0.3284
 2477SOL    HW3 9954   2.925   1.175   4.504  0.7529  0.0356 -0.8426
 2477SOL    MW4 9955   2.910   1.090   4.493  0.5226 -0.0292 -0.0639
 2478SOL     OW 9956   1.624   2.576   4.237  0.1656  0.1891  0.4256
 2478SOL    HW2 9957   1.689   2.627   4.188  0.0163  0.9784  1.0280
 2478SOL    HW3 9958   1.613   2.496   4.186 -0.1152  1.0705 -0.9332
 2478SOL    MW4 9959   1.631   2.572   4.224  0.1088  0.4096  0.3257
 2479SOL     OW 9960   1.805   2.893   4.499 -0.2719 -0.4953 -0.5438
 2479SOL    HW2 9961   1.873   2.920   4.562 -0.3471 -0.4786 -0.4697
 2479SOL    HW3 9962   1.723   2.910   4.545 -0.3389  0.0437 -0.8554
 2479SOL    MW4 9963   1.803   2.899   4.513 -0.2905 -0.4218 -0.5751
 2480SOL     OW 9964   0.634   1.514   4.157 -0.4956 -0.5034 -0.1708
 2480SOL    HW2 9965   0.572   1.443   4.172 -0.8232 -0.0316  0.7461
 2480SOL    HW3 9966   0.714   1.485   4.200 -0.1411 -1.0006 -1.1387
 2480SOL    MW4 9967   0.636   1.501   4.164 -0.4920 -0.5068 -0.1779
 2481SOL     OW 9968   1.434   2.771   4.450 -0.3031 -0.2168 -0.0949
 2481SOL    HW2 9969   1.510   2.714   4.437 -0.5340 -0.6311  0.3234
 2481SOL    HW3 9970   1.371   2.716   4.497 -0.5836  0.3452  0.1939
 2481SOL    MW4 9971   1.436   2.756   4.455 -0.3705 -0.1972 -0.0019
 2482SOL     OW 9972   2.933   3.741   4.496  0.7238  0.2996 -0.1834
 2482SOL    HW2 9973   2.994   3.754   4.570 -0.1583  0.9754  0.4358
 2482SOL    HW3 9974   2.981   3.776   4.421  1.2304  0.5647  0.2472
 2482SOL    MW4 9975   2.948   3.748   4.496  0.6742  0.4237 -0.0448
 2483SOL     OW 9976   2.756   0.164   4.610  0.6535 -0.0681 -0.7545
 2483SOL    HW2 9977   2.666   0.150   4.580  0.3395  1.9526 -0.8189
 2483SOL    HW3 9978   2.787   0.077   4.632 -1.6537 -0.6871  0.2094
 2483SOL    MW4 9979   2.748   0.151   4.609  0.3078  0.1169 -0.6356
 2484SOL     OW 9980   2.047   4.420   4.567 -0.1002  0.1099 -0.0858
 2484SOL    HW2 9981   1.962   4.429   4.524  0.8237  0.8671 -1.7861
 2484SOL    HW3 9982   2.087   4.343   4.525  1.9185  2.4143 -2.5885
 2484SOL    MW4 9983   2.041   4.411   4.556  0.2878  0.5136 -0.6404
 2485SOL     OW 9984   0.384   3.173   4.617  0.3458  0.2024  0.1592
 2485SOL    HW2 9985   0.438   3.224   4.556  0.3923  0.5601  0.4943
 2485SOL    HW3 9986   0.375   3.087   4.576  0.4720  0.4070 -0.2956
 2485SOL    MW4 9987   0.390   3.168   4.604  0.3686  0.2763  0.1435
 2486SOL     OW 9988   1.365   1.145   3.812  0.5514 -0.0342  0.0089
 2486SOL    HW2 9989   1.429   1.203   3.772 -0.2385 -0.0716 -1.3516
 2486SOL    HW3 9990   1.385   1.148   3.906  0.9286  1.9187 -0.1042
 2486SOL    MW4 9991   1.376   1.153   3.819  0.4969  0.2184 -0.1857
 2487SOL     OW 9992   1.868   1.174   4.159 -0.1370 -0.1880 -0.1731
 2487SOL    HW2 9993   1.866   1.263   4.193  0.4249 -0.2796  0.1241
 2487SOL    HW3 9994   1.849   1.183   4.066  1.7030  0.4540 -0.5160
 2487SOL    MW4 9995   1.866   1.187   4.151  0.1800 -0.1155 -0.1798
 2488SOL     OW 9996   3.210   4.431   4.482  0.1766 -0.1833 -0.1932
 2488SOL    HW2 9997   3.185   4.517   4.517 -1.1783 -0.5147 -0.3268
 2488SOL    HW3 9998   3.156   4.368   4.530  1.4787 -1.0013  0.2029
 2488SOL    MW4 9999   3.199   4.434   4.493  0.1700 -0.3347 -0.1588
 2489SOL     OW10000   3.367   1.546   3.888 -0.1036  0.5591  0.0524
 2489SOL    HW210001   3.294   1.606   3.872  0.2818  1.2903  0.9939
 2489SOL    HW310002   3.391   1.561   3.979  0.5278 -0.4517  0.0606
 2489SOL    MW410003   3.361   1.556   3.898  0.0303  0.5223  0.1776
 2490SOL     OW10004   4.267   3.142   4.143  0.4956  0.2072 -0.2238
 2490SOL    HW210005   4.267   3.161   4.049  1.6137  0.0823 -0.2476
 2490SOL    HW310006   4.262   3.228   4.185  0.3788  0.2826 -0.3914
 2490SOL    MW410007   4.266   3.156   4.136  0.6275  0.2007 -0.2494
 2491SOL     OW10008   1.778   2.201   4.805 -0.0597  0.3540 -0.0063
 2491SOL    HW210009   1.803   2.217   4.896 -1.5649 -1.2087  0.7088
 2491SOL    HW310010   1.817   2.274   4.756  0.6560  1.2784  1.8982
 2491SOL    MW410011   1.786   2.213   4.810 -0.1639  0.2701  0.3395
 2492SOL     OW10012   0.052   4.283   4.647  0.3582 -0.0877  0.1359
 2492SOL    HW210013  -0.030   4.281   4.598  0.1880  0.1220  0.4035
 2492SOL    HW310014   0.075   4.192   4.662  0.7853 -0.1635 -0.9430
 2492SOL    MW410015   0.044   4.271   4.643  0.3921 -0.0701  0.0291
 2493SOL     OW10016   2.554   0.762   4.487 -0.3868  0.3884  0.0714
 2493SOL    HW210017   2.571   0.846   4.530 -1.6828  1.0066 -0.5951
 2493SOL    HW310018   2.639   0.736   4.450 -0.0001  1.4467  0.1918
 2493SOL    MW410019   2.568   0.769   4.488 -0.5066  0.6096 -0.0005
 2494SOL     OW10020   1.012   1.843   4.666 -0.4973 -0.1278 -0.1900
 2494SOL    HW210021   1.099   1.805   4.674  0.0148  1.5246  2.6313
 2494SOL    HW310022   1.028   1.935   4.644 -1.4409  0.5088  1.6500
 2494SOL    MW410023   1.025   1.850   4.664 -0.5541  0.1742  0.4244
 2495SOL     OW10024   4.288   4.158   4.261 -0.1062  0.2487 -0.2947
 2495SOL    HW210025   4.370   4.194   4.227  0.5350  0.2431  1.2001
 2495SOL    HW310026   4.285   4.187   4.353 -1.7426  0.1951 -0.3118
 2495SOL    MW410027   4.298   4.167   4.269 -0.2375  0.2403 -0.0997
 2496SOL     OW10028   4.302   4.645   3.880  0.1311 -0.1164  0.3501
 2496SOL    HW210029   4.317   4.650   3.975  0.7737  1.2876  0.1916
 2496SOL    HW310030   4.374   4.696   3.842 -0.6244  0.0617 -0.8472
 2496SOL    MW410031   4.314   4.653   3.888  0.1163  0.0920  0.1712
 2497SOL     OW10032   1.611   1.532   4.138 -0.4873  0.3252 -0.2648
 2497SOL    HW210033   1.530   1.487   4.160 -0.7134  0.0025 -1.7149
 2497SOL    HW310034   1.595   1.623   4.162 -1.0934  0.1731 -0.0771
 2497SOL    MW410035   1.598   1.538   4.144 -0.5970  0.2624 -0.4315
 2498SOL     OW10036   4.120   0.026   4.537  0.1228 -0.5441  0.0790
 2498SOL    HW210037   4.148   0.097   4.479 -0.9150  0.2359  0.4993
 2498SOL    HW310038   4.148  -0.054   4.493  0.5670  0.0961 -0.8200
 2498SOL    MW410039   4.127   0.025   4.523  0.0443 -0.3568  0.0157
 2499SOL     OW10040   4.083   0.337   3.888  0.2517  0.4942 -0.4144
 2499SOL    HW210041   4.054   0.248   3.866 -1.1870  0.8076  0.1432
 2499SOL    HW310042   4.179   0.332   3.885  0.2044 -1.1583 -0.1070
 2499SOL    MW410043   4.092   0.325   3.885  0.0558  0.3175 -0.3002
 2500SOL     OW10044   2.377   4.190   4.571 -0.2852 -0.1064 -0.2391
 2500SOL    HW210045   2.374   4.273   4.617  0.1787  0.1476 -0.6635
 2500SOL    HW310046   2.408   4.212   4.483 -1.5443 -0.5264 -0.8078
 2500SOL    MW410047   2.381   4.204   4.565 -0.3901 -0.1287 -0.3705
 2501SOL     OW10048   2.035   2.343   3.810  0.2208  0.5261  0.4384
 2501SOL    HW210049   1.949   2.372   3.779  1.1411  2.2717 -0.5438
 2501SOL    HW310050   2.034   2.248   3.799 -1.4212  0.5813  0.0456
 2501SOL    MW410051   2.024   2.334   3.805  0.1254  0.7634  0.2570
 2502SOL     OW10052   3.121   1.935   3.863  0.3721 -0.2503 -0.4311
 2502SOL    HW210053   3.111   1.928   3.958 -2.8305  1.3048 -0.5645
 2502SOL    HW310054   3.133   1.845   3.833 -0.0931 -0.9218  1.3238
 2502SOL    MW410055   3.121   1.922   3.872 -0.1116 -0.1338 -0.2172
 2503SOL     OW10056   2.038   3.132   3.877 -0.0159 -0.4508  0.7485
 2503SOL    HW210057   2.039   3.039   3.858  1.7143 -0.4442  0.7700
 2503SOL    HW310058   2.019   3.138   3.970 -1.4088 -0.7165  0.5007
 2503SOL    MW410059   2.035   3.121   3.887  0.0288 -0.4849  0.7186
 2504SOL     OW10060   1.363   3.898   4.877 -0.0559 -0.3415  0.1432
 2504SOL    HW210061   1.399   3.817   4.842 -0.7161 -0.6083  0.0639
 2504SOL    HW310062   1.344   3.879   4.969 -1.2086 -0.6296 -0.1387
 2504SOL    MW410063   1.365   3.885   4.885 -0.2952 -0.4151  0.0954
 2505SOL     OW10064   0.294   2.680   4.527 -0.2076 -0.1593 -0.3818
 2505SOL    HW210065   0.378   2.655   4.567  0.1038  0.8851 -0.3621
 2505SOL    HW310066   0.286   2.622   4.452  0.3273 -0.5641 -0.1365
 2505SOL    MW410067   0.304   2.669   4.523 -0.0959 -0.0746 -0.3471
 2506SOL     OW10068   2.155   3.407   4.668  0.5637 -0.2275  0.2836
 2506SOL    HW210069   2.133   3.499   4.675  0.3308 -0.2052 -0.6382
 2506SOL    HW310070   2.238   3.406   4.621 -0.2749 -0.5447 -1.2404
 2506SOL    MW410071   2.163   3.419   4.663  0.4222 -0.2666 -0.0396
 2507SOL     OW10072   1.334   3.408   4.256  0.0196 -0.0528 -0.0833
 2507SOL    HW210073   1.328   3.466   4.181 -2.4798 -0.0005  0.1043
 2507SOL    HW310074   1.427   3.389   4.265  0.4714  0.9203 -2.4225
 2507SOL    MW410075   1.345   3.413   4.248 -0.2506  0.0825 -0.3676
 2508SOL     OW10076   1.410   4.155   4.779 -0.3819 -0.1969  0.1947
 2508SOL    HW210077   1.347   4.209   4.827 -1.1193 -1.1811  0.3500
 2508SOL    HW310078   1.406   4.069   4.821  0.0154 -0.6671 -0.6993
 2508SOL    MW410079   1.401   4.151   4.791 -0.4267 -0.3886  0.0978
 2509SOL     OW10080   0.692   2.331   4.213  0.2503 -0.0074 -0.5431
 2509SOL    HW210081   0.667   2.338   4.121 -0.0268  0.2821 -0.4463
 2509SOL    HW310082   0.626   2.273   4.251  0.6796 -0.5634 -0.6437
 2509SOL    MW410083   0.680   2.324   4.206  0.2704 -0.0429 -0.5436
 2510SOL     OW10084   0.688   4.085   4.529  0.1255 -0.4893  0.0943
 2510SOL    HW210085   0.690   4.090   4.434  2.2933  1.5632  0.2135
 2510SOL    HW310086   0.762   4.029   4.552 -0.3079 -0.8653  0.6022
 2510SOL    MW410087   0.698   4.078   4.520  0.3543 -0.2675  0.1764
 2511SOL     OW10088   2.975   0.762   4.180 -0.1771  0.1657 -0.0311
 2511SOL    HW210089   3.056   0.735   4.223 -0.3754  0.6272  0.6315
 2511SOL    HW310090   2.967   0.855   4.200 -1.4070 -0.1047  0.7699
 2511SOL    MW410091   2.985   0.771   4.188 -0.3655  0.1910  0.1621
 2512SOL     OW10092   2.822   4.541   4.658  0.4030  0.3754  0.3892
 2512SOL    HW210093   2.818   4.489   4.739  0.6160 -1.8396 -0.9835
 2512SOL    HW310094   2.783   4.485   4.592  0.3168  2.1400 -1.0984
 2512SOL    MW410095   2.816   4.527   4.660  0.4196  0.3161  0.0119
 2513SOL     OW10096   1.570   4.188   4.194 -0.3961  0.1136 -0.0481
 2513SOL    HW210097   1.532   4.101   4.209 -1.8321  0.7081 -0.2166
 2513SOL    HW310098   1.575   4.228   4.280  0.0995 -0.0719  0.0082
 2513SOL    MW410099   1.566   4.182   4.207 -0.5202  0.1683 -0.0629
 2514SOL     OW10100   0.633   3.158   4.759  0.3989  0.0679 -0.6901
 2514SOL    HW210101   0.631   3.202   4.844  0.2368  0.2478 -0.7852
 2514SOL    HW310102   0.542   3.156   4.730  0.5003  0.3742 -1.0429
 2514SOL    MW410103   0.621   3.164   4.766  0.3909  0.1318 -0.7486
 2515SOL     OW10104   1.816   3.584   4.685  0.0335  0.5965 -0.0670
 2515SOL    HW210105   1.857   3.497   4.687 -0.1908  0.4844 -0.3184
 2515SOL    HW310106   1.879   3.639   4.638 -0.3957  0.2709 -1.0325
 2515SOL    MW410107   1.829   3.579   4.679 -0.0527  0.5388 -0.2275
 2516SOL     OW10108   1.395   2.667   4.138  0.2269 -0.0124  0.0500
 2516SOL    HW210109   1.466   2.625   4.187  0.0575  1.3711  1.5508
 2516SOL    HW310110   1.315   2.630   4.175  0.1202  0.4867  0.3359
 2516SOL    MW410111   1.394   2.657   4.149  0.1904  0.2360  0.2856
 2517SOL     OW10112   2.237   4.300   3.891  0.0940 -0.2462 -0.0243
 2517SOL    HW210113   2.249   4.211   3.859  0.7581  0.3095 -1.4131
 2517SOL    HW310114   2.157   4.331   3.848 -0.1623 -0.1859  0.4902
 2517SOL    MW410115   2.228   4.292   3.881  0.1481 -0.1650 -0.1397
 2518SOL     OW10116   2.724   1.436   4.550  0.4396  0.0276  0.0860
 2518SOL    HW210117   2.805   1.385   4.542  0.4306  0.1492 -0.8309
 2518SOL    HW310118   2.753   1.527   4.556  0.3666  0.0689 -0.2116
 2518SOL    MW410119   2.739   1.441   4.550  0.4292  0.0492 -0.0749
 2519SOL     OW10120   3.362   4.665   4.168 -0.5017  0.2592 -0.1515
 2519SOL    HW210121   3.385   4.645   4.077  1.0464  0.5432  0.1736
 2519SOL    HW310122   3.358   4.761   4.172 -1.5401  0.2292 -0.1390
 2519SOL    MW410123   3.364   4.675   4.156 -0.4346  0.2928 -0.1073
 2520SOL     OW10124   2.397   3.649   4.506  0.1284 -0.6903 -0.0887
 2520SOL    HW210125   2.407   3.553   4.508 -0.2184 -0.7289 -0.2033
 2520SOL    HW310126   2.483   3.682   4.531  0.5045 -1.0206 -0.9362
 2520SOL    MW410127   2.410   3.640   4.510  0.1323 -0.7386 -0.2160
 2521SOL     OW10128   3.513   0.762   4.559 -0.1682  0.3060  0.0119
 2521SOL    HW210129   3.439   0.701   4.554  0.0817  0.0162 -0.1921
 2521SOL    HW310130   3.584   0.711   4.598  0.3620  0.1457 -1.1495
 2521SOL    MW410131   3.513   0.747   4.563 -0.0651  0.2466 -0.1678
 2522SOL     OW10132   0.947   3.550   4.768  0.0849 -0.3198 -0.0363
 2522SOL    HW210133   0.890   3.623   4.793 -0.2930 -0.4673 -0.4678
 2522SOL    HW310134   0.888   3.488   4.726  0.5725 -0.4722 -0.4849
 2522SOL    MW410135   0.932   3.552   4.766  0.0994 -0.3595 -0.1526
 2523SOL     OW10136   2.485   2.889   3.472  0.2645  0.4085 -0.1880
 2523SOL    HW210137   2.406   2.841   3.446  1.2561 -1.1297 -0.4180
 2523SOL    HW310138   2.475   2.976   3.432 -0.7180 -0.1915 -1.2721
 2523SOL    MW410139   2.473   2.894   3.463  0.2658  0.1264 -0.3614
 2524SOL     OW10140   0.668   3.382   4.212  0.2589  0.3430 -0.2083
 2524SOL    HW210141   0.738   3.446   4.220  0.7152 -0.1723 -0.1188
 2524SOL    HW310142   0.711   3.301   4.187 -0.4033  0.2484 -1.0783
 2524SOL    MW410143   0.683   3.380   4.210  0.2317  0.2625 -0.3119
 2525SOL     OW10144   3.738   2.286   4.472  0.1719 -0.1901  0.0231
 2525SOL    HW210145   3.745   2.261   4.380  1.5808 -1.2411  0.3901
 2525SOL    HW310146   3.727   2.381   4.470 -0.7406 -0.3093 -1.2518
 2525SOL    MW410147   3.738   2.295   4.459  0.2375 -0.3448 -0.0968
 2526SOL     OW10148   2.753   2.359   4.169 -0.1627  0.0174 -0.5200
 2526SOL    HW210149   2.785   2.428   4.227  1.1072 -2.0363  1.3010
 2526SOL    HW310150   2.802   2.372   4.087 -1.1147  2.2225 -0.7718
 2526SOL    MW410151   2.764   2.370   4.166 -0.1206  0.0372 -0.3123
 2527SOL     OW10152   1.377   2.920   4.210 -0.8123 -0.2784 -0.1886
 2527SOL    HW210153   1.368   2.835   4.166 -0.2175 -0.4754  0.0527
 2527SOL    HW310154   1.395   2.897   4.301 -2.0347  0.1273  0.1523
 2527SOL    MW410155   1.378   2.905   4.216 -0.8951 -0.2508 -0.1116
 2528SOL     OW10156   0.786   3.813   4.848 -0.1048 -0.6148 -0.1550
 2528SOL    HW210157   0.695   3.813   4.817 -0.2993 -1.6014  0.4077
 2528SOL    HW310158   0.781   3.851   4.936  0.6456  3.6604 -1.8130
 2528SOL    MW410159   0.773   3.818   4.856 -0.0314 -0.1810 -0.2990
 2529SOL     OW10160   2.496   1.285   3.786 -0.1917  0.0599 -0.2765
 2529SOL    HW210161   2.424   1.234   3.822 -0.1672  0.7395  0.7447
 2529SOL    HW310162   2.479   1.375   3.815  0.5609  0.3806 -0.8146
 2529SOL    MW410163   2.484   1.290   3.795 -0.0889  0.1919 -0.2127
 2530SOL     OW10164   0.655   2.096   3.807  0.5280 -0.1074 -0.1626
 2530SOL    HW210165   0.726   2.035   3.825 -0.2159 -0.6926  0.8256
 2530SOL    HW310166   0.677   2.174   3.859  0.4264 -0.3069  0.1828
 2530SOL    MW410167   0.668   2.098   3.816  0.4163 -0.2108  0.0134
 2531SOL     OW10168   2.627   1.032   4.528 -0.1881 -0.2296  0.2464
 2531SOL    HW210169   2.721   1.053   4.529 -0.4744  1.0381  1.0077
 2531SOL    HW310170   2.584   1.111   4.559 -1.7027  0.1377 -2.5762
 2531SOL    MW410171   2.634   1.045   4.532 -0.4258 -0.0139 -0.0253
 2532SOL     OW10172   2.233   4.628   4.564 -0.0821 -0.5078 -0.0375
 2532SOL    HW210173   2.164   4.583   4.612 -0.4047 -0.6847 -0.6601
 2532SOL    HW310174   2.226   4.595   4.474 -1.1299  1.6721 -0.7916
 2532SOL    MW410175   2.223   4.618   4.559 -0.2630 -0.2432 -0.2189
 2533SOL     OW10176   1.155   2.580   4.234 -0.0811  0.1919  0.4835
 2533SOL    HW210177   1.165   2.494   4.192  0.6885  0.3276  0.3759
 2533SOL    HW310178   1.182   2.565   4.325  1.2175  0.5816  0.1734
 2533SOL    MW410179   1.160   2.567   4.241  0.1917  0.2613  0.4282
 2534SOL     OW10180   3.559   3.008   4.555  0.0963  0.2491 -0.8289
 2534SOL    HW210181   3.574   2.990   4.462  0.3883 -0.0665 -0.7268
 2534SOL    HW310182   3.574   3.102   4.564  1.9500 -0.0298 -0.7648
 2534SOL    MW410183   3.563   3.018   4.544  0.3791  0.1705 -0.8068
 2535SOL     OW10184   4.114   2.470   4.298 -0.4830  0.0277  0.1358
 2535SOL    HW210185   4.175   2.398   4.281 -0.7676 -0.3566  0.7217
 2535SOL    HW310186   4.092   2.461   4.391 -0.5200  0.8711  0.2092
 2535SOL    MW410187   4.119   2.459   4.308 -0.5250  0.0885  0.2222
 2536SOL     OW10188   1.306   0.434   4.727 -0.2453  0.3258 -0.1902
 2536SOL    HW210189   1.360   0.496   4.677 -1.0096  2.3694  1.4368
 2536SOL    HW310190   1.357   0.353   4.727  1.0246  1.0834 -1.9488
 2536SOL    MW410191   1.320   0.432   4.720 -0.1786  0.6954 -0.2079
 2537SOL     OW10192   3.128   3.335   4.480 -0.0299 -0.7083  0.5356
 2537SOL    HW210193   3.045   3.381   4.491 -0.0219 -0.5994  0.1464
 2537SOL    HW310194   3.194   3.396   4.512 -0.1015 -0.8201  0.9083
 2537SOL    MW410195   3.126   3.349   4.486 -0.0386 -0.7088  0.5336
 2538SOL     OW10196   0.232   0.273   4.222 -0.0765 -0.2031  0.0581
 2538SOL    HW210197   0.219   0.274   4.317  0.6864 -0.3927  0.1709
 2538SOL    HW310198   0.317   0.316   4.210  0.0593 -0.6304 -0.5020
 2538SOL    MW410199   0.242   0.279   4.233  0.0420 -0.2845 -0.0010
 2539SOL     OW10200   2.949   2.514   4.754  0.0769  0.0828 -0.1790
 2539SOL    HW210201   2.900   2.491   4.833  0.0209 -0.5600 -0.3986
 2539SOL    HW310202   3.019   2.571   4.785 -0.1487  0.1104  0.2866
 2539SOL    MW410203   2.951   2.519   4.769  0.0396  0.0017 -0.1469
 2540SOL     OW10204   3.398   1.358   4.886 -0.8112 -0.1791 -0.6307
 2540SOL    HW210205   3.432   1.366   4.975  0.0416 -1.1565 -0.8534
 2540SOL    HW310206   3.309   1.391   4.891 -0.5915  0.2594  0.4746
 2540SOL    MW410207   3.391   1.363   4.898 -0.6697 -0.2502 -0.5145
 2541SOL     OW10208   3.849   2.427   4.178 -0.0754  0.0102  0.5302
 2541SOL    HW210209   3.819   2.517   4.186  0.6786  0.3764 -0.6162
 2541SOL    HW310210   3.943   2.431   4.196  0.4405 -0.1304 -1.9763
 2541SOL    MW410211   3.858   2.439   4.181  0.0925  0.0398  0.0482
 2542SOL     OW10212   4.184   0.811   4.676 -0.3886  0.2995  0.8502
 2542SOL    HW210213   4.237   0.815   4.756 -0.1365 -0.9797  0.7417
 2542SOL    HW310214   4.240   0.770   4.611 -1.0895  0.0572  0.3893
 2542SOL    MW410215   4.198   0.806   4.678 -0.4482  0.0986  0.7749
 2543SOL     OW10216   3.406   1.037   4.512 -0.0971 -0.3029 -0.0780
 2543SOL    HW210217   3.424   1.057   4.420  2.1594  0.4533  0.4986
 2543SOL    HW310218   3.457   0.958   4.530 -0.7502 -0.6061  0.4474
 2543SOL    MW410219   3.415   1.029   4.502  0.1142 -0.2431  0.0677
 2544SOL     OW10220   4.016   3.084   4.259 -0.1352  0.1202 -0.0749
 2544SOL    HW210221   4.050   3.013   4.313  0.7844  0.1015 -0.6580
 2544SOL    HW310222   4.093   3.117   4.213 -0.6588  1.0979 -0.2605
 2544SOL    MW410223   4.031   3.079   4.260 -0.0825  0.2468 -0.1764
 2545SOL     OW10224   0.461   2.048   4.604  0.3783 -0.1024  0.2604
 2545SOL    HW210225   0.368   2.040   4.583  0.6542 -1.4380 -0.5071
 2545SOL    HW310226   0.462   2.075   4.696 -0.7585 -2.9111  1.1678
 2545SOL    MW410227   0.449   2.050   4.614  0.2647 -0.6492  0.2789
 2546SOL     OW10228   3.443   1.608   4.136 -0.4450 -0.5577 -0.2386
 2546SOL    HW210229   3.508   1.539   4.154  0.0798  0.0510  0.2363
 2546SOL    HW310230   3.493   1.689   4.138 -1.0947 -0.1436 -0.6297
 2546SOL    MW410231   3.458   1.610   4.139 -0.4616 -0.4226 -0.2279
 2547SOL     OW10232   0.054   1.066   4.662 -0.0986 -0.1606  0.3705
 2547SOL    HW210233   0.078   1.155   4.688 -0.3764 -0.3477  1.2577
 2547SOL    HW310234  -0.035   1.075   4.627  0.6868  0.2847 -1.6099
 2547SOL    MW410235   0.045   1.079   4.661 -0.0317 -0.1265  0.2260
 2548SOL     OW10236   2.472   3.359   4.250  0.0412 -0.6816 -0.0199
 2548SOL    HW210237   2.390   3.407   4.261  0.3852  0.0733 -0.6612
 2548SOL    HW310238   2.445   3.268   4.238 -0.6452 -0.5818  0.7227
 2548SOL    MW410239   2.458   3.354   4.250 -0.0038 -0.5689 -0.0067
 2549SOL     OW10240   0.183   0.931   4.441  0.1046 -0.3153  0.3312
 2549SOL    HW210241   0.165   0.845   4.478  0.6262  0.2467  1.9244
 2549SOL    HW310242   0.133   0.992   4.494 -1.8596  0.2237 -2.0366
 2549SOL    MW410243   0.174   0.927   4.453 -0.0857 -0.1701  0.2289
 2550SOL     OW10244   2.051   4.118   4.196 -0.7669 -0.4111  0.0893
 2550SOL    HW210245   1.970   4.159   4.166 -0.7393  0.4598  1.1444
 2550SOL    HW310246   2.028   4.026   4.211 -0.9750 -0.6775 -1.7670
 2550SOL    MW410247   2.037   4.111   4.194 -0.7906 -0.3309 -0.0167
 2551SOL     OW10248   1.199   1.031   4.311 -0.0582 -0.3768  0.4114
 2551SOL    HW210249   1.123   1.082   4.286  1.0571  0.4084 -1.5163
 2551SOL    HW310250   1.181   0.942   4.279 -0.0941 -0.1581 -0.1673
 2551SOL    MW410251   1.187   1.026   4.303  0.0843 -0.2443  0.0806
 2552SOL     OW10252   0.673   3.628   3.815  0.1546 -0.3121  0.4554
 2552SOL    HW210253   0.670   3.622   3.720  0.1638 -0.6757  0.4794
 2552SOL    HW310254   0.675   3.722   3.833 -0.8545 -0.2259  0.1288
 2552SOL    MW410255   0.673   3.640   3.805  0.0227 -0.3490  0.4156
 2553SOL     OW10256   0.885   3.921   4.618  0.2442 -0.2493 -0.4466
 2553SOL    HW210257   0.874   3.888   4.706  0.8195  0.0072 -0.2725
 2553SOL    HW310258   0.903   3.844   4.564 -0.9273 -0.5019 -0.4905
 2553SOL    MW410259   0.886   3.907   4.622  0.1655 -0.2489 -0.4292
 2554SOL     OW10260   2.879   3.886   4.122  0.0935  0.0461  0.3578
 2554SOL    HW210261   2.876   3.882   4.026  1.9742 -1.6973  0.3267
 2554SOL    HW310262   2.961   3.841   4.144 -1.5933 -1.8326  2.9276
 2554SOL    MW410263   2.890   3.879   4.112  0.1190 -0.4318  0.6928
 2555SOL     OW10264   1.334   4.333   4.076  0.2577 -0.2449 -0.5448
 2555SOL    HW210265   1.407   4.289   4.120 -0.0363 -0.5702 -0.3809
 2555SOL    HW310266   1.348   4.315   3.983 -0.4797 -1.6353 -0.3964
 2555SOL    MW410267   1.346   4.325   4.070  0.1216 -0.4711 -0.5035
 2556SOL     OW10268   3.942   1.780   4.508 -0.1578 -0.2137 -0.1567
 2556SOL    HW210269   3.895   1.761   4.589  0.7977 -2.3658 -0.0728
 2556SOL    HW310270   4.007   1.710   4.501  1.5276  1.4176 -1.4267
 2556SOL    MW410271   3.945   1.768   4.518  0.1905 -0.2823 -0.3133
 2557SOL     OW10272   2.479   2.945   4.544  0.1988 -0.1069  0.5051
 2557SOL    HW210273   2.404   3.002   4.528 -0.8703 -1.8142 -0.6575
 2557SOL    HW310274   2.539   2.963   4.471  0.7186  0.9037  1.1719
 2557SOL    MW410275   2.477   2.955   4.532  0.1264 -0.1988  0.4396
 2558SOL     OW10276   0.739   0.139   4.517 -0.1764  0.1136 -0.0579
 2558SOL    HW210277   0.668   0.077   4.501  0.2350 -0.2592 -0.4841
 2558SOL    HW310278   0.743   0.192   4.438 -0.9891  1.1507  0.5984
 2558SOL    MW410279   0.730   0.138   4.504 -0.2294  0.2012 -0.0277
 2559SOL     OW10280   2.180   1.036   4.663 -0.1372  0.0489 -0.1263
 2559SOL    HW210281   2.155   0.960   4.611 -0.3734 -0.1925  0.3407
 2559SOL    HW310282   2.258   1.007   4.712  0.5530  0.5232 -0.9284
 2559SOL    MW410283   2.187   1.022   4.663 -0.0775  0.0796 -0.1702
 2560SOL     OW10284   2.470   1.580   4.154 -0.2900  0.2958  0.1460
 2560SOL    HW210285   2.532   1.521   4.197  0.1079 -0.5460 -1.5586
 2560SOL    HW310286   2.495   1.667   4.185  0.1460 -0.2738  1.4254
 2560SOL    MW410287   2.481   1.584   4.164 -0.1798  0.1096  0.0896
 2561SOL     OW10288   0.923   2.710   4.149 -0.1226 -0.3461  0.5099
 2561SOL    HW210289   0.998   2.666   4.190 -0.1572 -0.5737  0.3345
 2561SOL    HW310290   0.847   2.669   4.189 -0.1608  1.2194  2.0879
 2561SOL    MW410291   0.923   2.699   4.160 -0.1321 -0.1695  0.6943
 2562SOL     OW10292   1.550   2.973   4.620 -0.4485  0.2252  0.0531
 2562SOL    HW210293   1.515   3.062   4.625  0.6784  0.7550 -1.1068
 2562SOL    HW310294   1.482   2.923   4.574 -0.0826  1.0442 -1.4076
 2562SOL    MW410295   1.536   2.978   4.615 -0.2517  0.4034 -0.2928
 2563SOL     OW10296   0.011   4.284   4.157 -0.3915 -0.3515  0.3817
 2563SOL    HW210297   0.095   4.247   4.183 -0.3230 -0.4339  0.0391
 2563SOL    HW310298   0.015   4.290   4.062 -1.4562 -2.0707  0.1902
 2563SOL    MW410299   0.022   4.280   4.148 -0.5230 -0.5889  0.3109
 2564SOL     OW10300   3.349   2.828   3.796 -0.2006  0.0406  0.0950
 2564SOL    HW210301   3.358   2.826   3.701 -0.0338  0.1936  0.1062
 2564SOL    HW310302   3.366   2.919   3.819  0.6904 -0.1877  0.3608
 2564SOL    MW410303   3.353   2.840   3.786 -0.0610  0.0303  0.1314
 2565SOL     OW10304   1.162   2.308   4.158 -0.0214  0.4815 -0.0562
 2565SOL    HW210305   1.242   2.285   4.204  0.2401 -0.5628 -1.0069
 2565SOL    HW310306   1.092   2.267   4.209  0.0313  1.4694  0.8240
 2565SOL    MW410307   1.163   2.299   4.171  0.0199  0.4740 -0.0648
 2566SOL     OW10308   1.574   0.780   4.180  0.0183 -0.0603 -0.0355
 2566SOL    HW210309   1.581   0.872   4.206  0.7989  0.4649 -2.0427
 2566SOL    HW310310   1.663   0.747   4.181 -0.4455 -1.4250  2.6944
 2566SOL    MW410311   1.586   0.788   4.183  0.0600 -0.1710  0.0596
 2567SOL     OW10312   3.436   1.048   4.231  0.0572  0.4994  0.3664
 2567SOL    HW210313   3.507   1.092   4.185  0.1102 -1.4821 -1.5473
 2567SOL    HW310314   3.357   1.095   4.204  0.3448  0.8953  0.2062
 2567SOL    MW410315   3.435   1.060   4.221  0.1020  0.2903  0.0925
 2568SOL     OW10316   0.598   1.116   4.433  0.0005 -0.3979 -0.4953
 2568SOL    HW210317   0.589   1.179   4.361 -1.2392 -2.1495 -1.9090
 2568SOL    HW310318   0.670   1.060   4.407 -1.9877 -2.5299 -1.5643
 2568SOL    MW410319   0.606   1.117   4.420 -0.4255 -0.9103 -0.8225
 2569SOL     OW10320   4.272   4.247   4.512 -0.0016 -0.3436 -0.2048
 2569SOL    HW210321   4.207   4.317   4.499  0.1405 -0.2798 -0.5766
 2569SOL    HW310322   4.224   4.179   4.559  0.0012  0.2293  0.6471
 2569SOL    MW410323   4.257   4.247   4.517  0.0176 -0.2599 -0.1411
 2570SOL     OW10324   0.584   0.348   4.605  0.2584  0.0592 -0.0338
 2570SOL    HW210325   0.620   0.345   4.693 -1.5265 -1.5203  0.6824
 2570SOL    HW310326   0.616   0.267   4.564 -1.0990 -0.5477  0.0795
 2570SOL    MW410327   0.593   0.337   4.611 -0.1562 -0.2292  0.0753
 2571SOL     OW10328   0.195   1.999   4.585 -0.4616  0.5178 -0.5640
 2571SOL    HW210329   0.120   2.045   4.624 -0.7057  0.5154 -1.0249
 2571SOL    HW310330   0.162   1.967   4.501 -0.3152 -0.5700 -0.2167
 2571SOL    MW410331   0.181   2.001   4.579 -0.4744  0.3738 -0.5794
 2572SOL     OW10332   2.887   3.467   4.503  0.1005  0.0091  0.1465
 2572SOL    HW210333   2.872   3.445   4.411 -0.0212 -1.9487  0.6030
 2572SOL    HW310334   2.897   3.562   4.504 -1.7323  0.2671 -1.6420
 2572SOL    MW410335   2.886   3.477   4.491 -0.1576 -0.2153 -0.0291
 2573SOL     OW10336   2.950   1.026   4.224 -0.3332  0.5152 -0.2234
 2573SOL    HW210337   2.914   1.050   4.310 -0.1818 -1.0868  0.2861
 2573SOL    HW310338   3.036   1.067   4.222 -0.5185  0.9348  0.2028
 2573SOL    MW410339   2.956   1.035   4.235 -0.3376  0.3592 -0.0997
 2574SOL     OW10340   3.669   0.419   3.882  0.3500  0.3133  0.1561
 2574SOL    HW210341   3.753   0.445   3.843  0.4309  0.3012  0.3229
 2574SOL    HW310342   3.658   0.328   3.856  0.8646  0.0118  0.9558
 2574SOL    MW410343   3.679   0.411   3.873  0.4284  0.2719  0.2837
 2575SOL     OW10344   1.339   1.489   4.534 -0.2293 -0.5456  0.2406
 2575SOL    HW210345   1.431   1.482   4.559 -0.5317 -2.3529  0.9010
 2575SOL    HW310346   1.332   1.441   4.452 -0.3653  0.5832 -0.4194
 2575SOL    MW410347   1.350   1.482   4.527 -0.2872 -0.6351  0.2408
 2576SOL     OW10348   2.826   2.920   4.526  0.3197 -0.1941  0.1040
 2576SOL    HW210349   2.756   2.930   4.461  0.7787  1.3290 -0.1711
 2576SOL    HW310350   2.830   2.826   4.542 -0.3719 -0.5026 -1.4459
 2576SOL    MW410351   2.817   2.909   4.520  0.2892 -0.0339 -0.1364
 2577SOL     OW10352   0.714   2.646   4.539 -0.0915 -0.1604 -0.1398
 2577SOL    HW210353   0.723   2.738   4.564  2.8698  0.0609 -1.7538
 2577SOL    HW310354   0.803   2.611   4.545 -0.8163 -2.3565 -1.6320
 2577SOL    MW410355   0.727   2.654   4.543  0.2035 -0.4208 -0.5493
 2578SOL     OW10356   2.903   3.095   4.156  0.2137 -0.4673 -0.6613
 2578SOL    HW210357   2.971   3.035   4.187  1.1789  1.0321  0.1729
 2578SOL    HW310358   2.909   3.090   4.061 -0.2629 -2.2866 -0.6177
 2578SOL    MW410359   2.912   3.086   4.148  0.2780 -0.5097 -0.5455
 2579SOL     OW10360   0.039   2.135   4.310 -0.0792  0.2514  0.0650
 2579SOL    HW210361   0.007   2.145   4.400  0.1128 -0.1246  0.1755
 2579SOL    HW310362   0.021   2.044   4.288 -0.2536  0.3806 -0.3301
 2579SOL    MW410363   0.032   2.124   4.319 -0.0769  0.2186  0.0272
 2580SOL     OW10364   2.132   3.678   4.654  0.1141  0.2510 -0.2492
 2580SOL    HW210365   2.225   3.696   4.645  0.2710 -0.4731 -0.1388
 2580SOL    HW310366   2.094   3.703   4.569  0.4650  0.2032 -0.4213
 2580SOL    MW410367   2.139   3.684   4.641  0.1812  0.1493 -0.2570
 2581SOL     OW10368   3.835   3.875   4.150 -0.1458 -0.2107  0.0490
 2581SOL    HW210369   3.773   3.858   4.221  0.9906  1.0729  1.3758
 2581SOL    HW310370   3.917   3.835   4.179  0.8063  1.8628  0.2981
 2581SOL    MW410371   3.838   3.867   4.163  0.1295  0.2322  0.2570
 2582SOL     OW10372   3.760   2.847   4.687 -0.1561  0.1520  0.5645
 2582SOL    HW210373   3.698   2.775   4.678  0.4355 -0.3895  0.7951
 2582SOL    HW310374   3.709   2.926   4.669 -0.6698 -0.3675 -0.2553
 2582SOL    MW410375   3.745   2.848   4.684 -0.1459  0.0122  0.4864
 2583SOL     OW10376   3.432   4.081   4.530  0.2406  0.2483  0.6362
 2583SOL    HW210377   3.432   4.176   4.546 -0.2879  0.3435  0.1165
 2583SOL    HW310378   3.393   4.072   4.443  0.9222 -0.4062  0.3960
 2583SOL    MW410379   3.427   4.093   4.521  0.2606  0.1750  0.5360
 2584SOL     OW10380   1.129   0.016   4.137 -0.1846 -0.1516 -0.4377
 2584SOL    HW210381   1.052  -0.039   4.150 -0.0025 -0.6395 -1.3486
 2584SOL    HW310382   1.201  -0.035   4.174 -0.3530  0.5009  0.8225
 2584SOL    MW410383   1.128   0.002   4.144 -0.1827 -0.1297 -0.3915
 2585SOL     OW10384   3.648   0.377   4.177 -0.3863 -0.5767 -0.4847
 2585SOL    HW210385   3.562   0.336   4.177 -0.0700 -1.2491 -0.9125
 2585SOL    HW310386   3.659   0.410   4.088  0.3927 -1.7599 -0.8358
 2585SOL    MW410387   3.638   0.376   4.165 -0.2418 -0.8215 -0.5875
 2586SOL     OW10388   0.943   2.957   4.256  0.0441  0.1945  0.0422
 2586SOL    HW210389   0.933   2.881   4.199 -1.0718 -0.3875  1.0007
 2586SOL    HW310390   0.877   3.019   4.225  0.1006  0.2750  0.0813
 2586SOL    MW410391   0.933   2.955   4.244 -0.0956  0.1283  0.1740
 2587SOL     OW10392   4.052   1.360   4.260 -0.5716  0.4104 -0.0951
 2587SOL    HW210393   4.068   1.274   4.221 -0.6108  0.0596  0.6496
 2587SOL    HW310394   4.000   1.407   4.195 -1.0841 -0.3509 -0.2385
 2587SOL    MW410395   4.048   1.355   4.247 -0.6447  0.2636 -0.0153
 2588SOL     OW10396   2.037   1.567   4.208  0.3134 -0.6304  0.1494
 2588SOL    HW210397   2.037   1.662   4.224 -1.2124 -0.7135  0.6847
 2588SOL    HW310398   2.032   1.559   4.113 -1.6284 -0.1637  0.1885
 2588SOL    MW410399   2.036   1.579   4.198 -0.1440 -0.5797  0.2246
 2589SOL     OW10400   0.484   4.293   4.167  0.1193 -0.0942  0.5378
 2589SOL    HW210401   0.555   4.235   4.195  0.3864  0.1434  0.3564
 2589SOL    HW310402   0.404   4.251   4.198  0.1298 -1.6841 -1.4655
 2589SOL    MW410403   0.483   4.280   4.174  0.1560 -0.2723  0.2499
 2590SOL     OW10404   2.021   3.022   4.681  0.0980  0.1536 -0.1706
 2590SOL    HW210405   2.035   3.007   4.774  0.8945 -0.0656 -0.3227
 2590SOL    HW310406   2.105   3.056   4.649 -0.1339  0.1172 -0.8249
 2590SOL    MW410407   2.034   3.025   4.689  0.1726  0.1199 -0.2770
 2591SOL     OW10408   1.608   3.301   4.586  0.2307 -0.0763  0.1559
 2591SOL    HW210409   1.691   3.344   4.604 -0.1828  0.6906  0.2736
 2591SOL    HW310410   1.542   3.363   4.618 -0.3737 -0.7693  0.2594
 2591SOL    MW410411   1.610   3.315   4.593  0.0964 -0.0665  0.1855
 2592SOL     OW10412   0.227   3.110   3.919  0.0766 -0.2925  0.1764
 2592SOL    HW210413   0.157   3.158   3.876 -0.1536 -1.1364 -0.4104
 2592SOL    HW310414   0.232   3.027   3.871  2.1977  0.1841 -0.5220
 2592SOL    MW410415   0.219   3.105   3.907  0.3261 -0.3409  0.0067
 2593SOL     OW10416   4.472   3.503   4.207  0.3559 -0.3379  0.4780
 2593SOL    HW210417   4.497   3.595   4.215 -0.3410 -0.1771  0.9596
 2593SOL    HW310418   4.543   3.455   4.249  0.7068 -0.0169  0.2548
 2593SOL    MW410419   4.484   3.509   4.214  0.3099 -0.2744  0.5126
 2594SOL     OW10420   2.107   0.196   4.556 -0.1265  0.1303 -0.1836
 2594SOL    HW210421   2.181   0.254   4.575  0.2202  0.1112 -1.4822
 2594SOL    HW310422   2.143   0.108   4.565 -0.3081  0.1086  0.3933
 2594SOL    MW410423   2.121   0.192   4.560 -0.1047  0.1249 -0.2789
 2595SOL     OW10424   0.920   3.486   3.884  0.3494  0.2698 -0.6408
 2595SOL    HW210425   0.917   3.399   3.844  1.3418  0.5532 -1.3546
 2595SOL    HW310426   0.837   3.527   3.860 -0.1382 -0.5025 -0.2614
 2595SOL    MW410427   0.909   3.480   3.875  0.4160  0.2053 -0.6850
 2596SOL     OW10428   0.496   2.159   4.300  0.2762  0.0574 -0.2024
 2596SOL    HW210429   0.529   2.094   4.238  1.3426  1.6474 -1.3211
 2596SOL    HW310430   0.512   2.121   4.386  0.1119 -1.5287 -0.8580
 2596SOL    MW410431   0.502   2.145   4.303  0.3952  0.0577 -0.4368
 2597SOL     OW10432   4.236   0.205   4.367 -0.1744 -0.0021 -0.4384
 2597SOL    HW210433   4.175   0.266   4.325 -0.5864  0.9340  1.4905
 2597SOL    HW310434   4.302   0.261   4.408  0.9453 -0.9511 -0.9210
 2597SOL    MW410435   4.236   0.220   4.367 -0.0815 -0.0038 -0.2475
 2598SOL     OW10436   4.067   0.331   4.181 -0.0454 -0.4515  0.2479
 2598SOL    HW210437   4.068   0.339   4.086  0.3791 -1.7051  0.1321
 2598SOL    HW310438   4.058   0.420   4.213 -1.3352 -0.1287 -0.9821
 2598SOL    MW410439   4.066   0.344   4.173 -0.1597 -0.5743  0.0706
 2599SOL     OW10440   2.471   4.172   4.299  0.1284  0.2545  0.2057
 2599SOL    HW210441   2.397   4.217   4.259  0.2517  1.0062  0.8136
 2599SOL    HW310442   2.461   4.080   4.272 -1.1262  0.3096  0.4340
 2599SOL    MW410443   2.460   4.166   4.290 -0.0207  0.3610  0.3157
 2600SOL     OW10444   0.448   4.292   3.886  0.1263  0.1576  0.8010
 2600SOL    HW210445   0.457   4.303   3.981  0.5818 -0.7891  0.8786
 2600SOL    HW310446   0.521   4.343   3.850  1.7659 -1.8730  1.1196
 2600SOL    MW410447   0.459   4.300   3.894  0.4027 -0.2351  0.8533
 2601SOL     OW10448   0.563   3.356   4.476  0.3215  0.1774 -0.2220
 2601SOL    HW210449   0.651   3.364   4.513  0.4011  0.8608 -0.5476
 2601SOL    HW310450   0.578   3.348   4.381 -0.0308  1.7848 -0.4259
 2601SOL    MW410451   0.577   3.356   4.468  0.2855  0.4797 -0.2913
 2602SOL     OW10452   3.289   2.895   4.683 -0.4559 -0.7863 -0.2907
 2602SOL    HW210453   3.231   2.948   4.629 -0.9723 -1.0092  0.0432
 2602SOL    HW310454   3.371   2.944   4.686 -1.4924  0.9067  1.5250
 2602SOL    MW410455   3.292   2.909   4.676 -0.6609 -0.5922 -0.0067
 2603SOL     OW10456   3.417   2.304   4.876  0.1467 -0.5989 -0.1871
 2603SOL    HW210457   3.413   2.389   4.920 -1.2216 -0.1005 -1.2513
 2603SOL    HW310458   3.510   2.294   4.853  0.5308  0.0216  1.0580
 2603SOL    MW410459   3.429   2.314   4.879  0.0167 -0.4513 -0.1631
 2604SOL     OW10460   0.006   4.268   3.886 -0.2753 -0.0990  0.4619
 2604SOL    HW210461   0.083   4.322   3.868 -0.7882  0.9914  1.5049
 2604SOL    HW310462  -0.066   4.314   3.844 -0.6348 -0.1948  0.9645
 2604SOL    MW410463   0.007   4.281   3.878 -0.3904  0.0329  0.6657
 2605SOL     OW10464   4.294   3.898   4.163  0.4895 -0.1562 -0.3147
 2605SOL    HW210465   4.288   3.901   4.067 -0.4128  1.0058 -0.2302
 2605SOL    HW310466   4.294   3.990   4.190 -1.6526 -0.4904  0.9253
 2605SOL    MW410467   4.293   3.910   4.154  0.0877 -0.0470 -0.1397
 2606SOL     OW10468   2.912   0.047   3.875 -0.0905  0.2097 -0.2304
 2606SOL    HW210469   2.928  -0.038   3.835 -0.6508 -0.6372  1.3350
 2606SOL    HW310470   2.931   0.034   3.968 -0.8230  1.6220  0.1280
 2606SOL    MW410471   2.917   0.034   3.882 -0.2611  0.2843  0.0234
 2607SOL     OW10472   3.263   2.334   4.156 -1.0733 -0.2519  0.0601
 2607SOL    HW210473   3.195   2.315   4.220 -0.9406  0.2184  0.3416
 2607SOL    HW310474   3.316   2.402   4.196 -0.4259 -0.6263 -0.1540
 2607SOL    MW410475   3.261   2.340   4.169 -0.9704 -0.2391  0.0682
 2608SOL     OW10476   2.506   3.659   3.815  0.0327 -0.1246  0.1598
 2608SOL    HW210477   2.499   3.643   3.720  0.7090 -3.6564  0.6201
 2608SOL    HW310478   2.448   3.594   3.854 -0.7070  1.7068  2.1824
 2608SOL    MW410479   2.497   3.648   3.807  0.0241 -0.3486  0.4873
 2609SOL     OW10480   3.638   3.284   4.541  0.3369  0.8020 -0.1708
 2609SOL    HW210481   3.594   3.338   4.607 -0.1364 -0.1334  0.2913
 2609SOL    HW310482   3.603   3.314   4.457 -1.0926  0.1508  0.1854
 2609SOL    MW410483   3.628   3.295   4.539  0.0858  0.5927 -0.0629
 2610SOL     OW10484   0.947   1.767   4.309  0.5836  0.1645 -0.1024
 2610SOL    HW210485   0.900   1.742   4.388 -0.0245  0.4619 -0.3646
 2610SOL    HW310486   1.023   1.816   4.340  0.3923  0.2053  0.2981
 2610SOL    MW410487   0.951   1.770   4.323  0.4781  0.2092 -0.0834
 2611SOL     OW10488   1.391   1.970   4.163  0.1102 -0.0458  0.0439
 2611SOL    HW210489   1.468   1.921   4.191  1.5021  2.0184 -0.1661
 2611SOL    HW310490   1.321   1.939   4.222  1.5281 -0.4500  1.5558
 2611SOL    MW410491   1.392   1.959   4.175  0.4811  0.1733  0.2160
 2612SOL     OW10492   0.270   1.384   4.326 -0.4140  0.6553 -0.0515
 2612SOL    HW210493   0.198   1.335   4.287 -0.3616 -0.5172  1.3172
 2612SOL    HW310494   0.233   1.425   4.404 -0.1050  1.7037 -0.4350
 2612SOL    MW410495   0.256   1.383   4.331 -0.3663  0.6388  0.0782
 2613SOL     OW10496   3.605   2.938   4.280 -0.1610  0.3866  0.0206
 2613SOL    HW210497   3.528   2.948   4.225  0.4746 -1.4919 -1.2667
 2613SOL    HW310498   3.657   3.017   4.264 -0.4495  0.3131 -1.3223
 2613SOL    MW410499   3.602   2.949   4.271 -0.1149  0.1287 -0.3262
 2614SOL     OW10500   1.699   2.613   4.496 -0.8661  0.6443 -0.2216
 2614SOL    HW210501   1.685   2.571   4.412 -2.5535 -0.1942  0.4600
 2614SOL    HW310502   1.741   2.696   4.475 -0.9091  0.2591 -1.8502
 2614SOL    MW410503   1.703   2.619   4.482 -1.0943  0.4826 -0.3462
 2615SOL     OW10504   3.710   3.759   4.425  0.3207  0.0746  0.0098
 2615SOL    HW210505   3.770   3.695   4.463  0.8822  1.4976  1.5999
 2615SOL    HW310506   3.706   3.829   4.490 -1.7676  0.7786 -0.8326
 2615SOL    MW410507   3.718   3.760   4.438  0.1192  0.3550  0.1082
 2616SOL     OW10508   0.904   4.535   4.180  0.6921 -0.0624  0.2393
 2616SOL    HW210509   0.913   4.497   4.267 -0.1159 -0.4792  0.1487
 2616SOL    HW310510   0.833   4.598   4.188  1.0963  0.4283  0.0472
 2616SOL    MW410511   0.896   4.538   4.192  0.6388 -0.0525  0.2017
 2617SOL     OW10512   1.143   4.156   4.190  0.0978 -0.3565 -0.0162
 2617SOL    HW210513   1.122   4.184   4.279 -2.3512  0.1027 -0.7039
 2617SOL    HW310514   1.209   4.218   4.160  0.8233 -0.4173  1.4233
 2617SOL    MW410515   1.149   4.168   4.198 -0.1297 -0.3042  0.0830
 2618SOL     OW10516   0.865   1.981   4.157  0.5434 -0.2407  0.1473
 2618SOL    HW210517   0.769   1.973   4.164  0.4521 -2.1688 -2.6523
 2618SOL    HW310518   0.899   1.909   4.210  0.4805  0.6076  1.3645
 2618SOL    MW410519   0.856   1.971   4.165  0.5231 -0.3831 -0.0610
 2619SOL     OW10520   2.433   1.534   3.888  0.4843 -0.4652 -0.3668
 2619SOL    HW210521   2.412   1.542   3.981 -1.4958 -1.0079 -0.7432
 2619SOL    HW310522   2.515   1.583   3.878  0.0843  0.6427  1.4313
 2619SOL    MW410523   2.441   1.542   3.899  0.1702 -0.3906 -0.1793
 2620SOL     OW10524   1.107   4.078   4.664 -0.4871 -0.0988 -0.0458
 2620SOL    HW210525   1.052   4.001   4.651 -0.3747 -0.3219  0.7683
 2620SOL    HW310526   1.194   4.051   4.632 -1.0995  0.6575 -2.4934
 2620SOL    MW410527   1.111   4.064   4.658 -0.5530 -0.0286 -0.2618
 2621SOL     OW10528   4.119   2.021   4.549 -0.2308 -0.2538  0.2450
 2621SOL    HW210529   4.073   1.940   4.572 -0.8794  0.0471  0.0444
 2621SOL    HW310530   4.111   2.027   4.454 -0.9295  0.4734  0.3408
 2621SOL    MW410531   4.112   2.011   4.540 -0.4086 -0.1180  0.2313
 2622SOL     OW10532   1.387   2.694   3.846 -0.2740  0.0693 -0.3875
 2622SOL    HW210533   1.390   2.672   3.939 -0.7680 -0.7467 -0.5662
 2622SOL    HW310534   1.369   2.611   3.801  0.4331  0.3660 -1.2506
 2622SOL    MW410535   1.385   2.680   3.852 -0.2457  0.0010 -0.5250
 2623SOL     OW10536   2.904   4.174   4.190  0.4151  0.0381 -0.0753
 2623SOL    HW210537   2.825   4.210   4.150 -0.3990  0.1417  1.5884
 2623SOL    HW310538   2.912   4.086   4.152 -0.0543  0.3109 -0.8254
 2623SOL    MW410539   2.894   4.167   4.180  0.2460  0.0887  0.0458
 2624SOL     OW10540   3.433   0.786   4.143 -0.8062  0.4152 -0.1135
 2624SOL    HW210541   3.424   0.877   4.170 -0.3024  0.2480  0.6356
 2624SOL    HW310542   3.495   0.748   4.206 -0.5806 -0.2969 -0.7554
 2624SOL    MW410543   3.440   0.793   4.155 -0.7100  0.2992 -0.0997
 2625SOL     OW10544   2.664   2.708   4.216 -0.0820 -0.2207  0.2553
 2625SOL    HW210545   2.684   2.700   4.122  0.7397  1.8950  0.2226
 2625SOL    HW310546   2.735   2.661   4.259  1.1502  1.2243 -0.1201
 2625SOL    MW410547   2.676   2.701   4.209  0.1888  0.2491  0.2012
 2626SOL     OW10548   1.072   2.103   4.519  0.5202  0.0398 -0.1948
 2626SOL    HW210549   1.024   2.146   4.448  0.7364 -0.3544 -0.5872
 2626SOL    HW310550   1.129   2.171   4.554 -0.9899  0.7538  0.8847
 2626SOL    MW410551   1.073   2.118   4.514  0.3494  0.0820 -0.1040
 2627SOL     OW10552   1.321   0.693   4.826 -0.2830  0.2807 -0.0123
 2627SOL    HW210553   1.295   0.601   4.832 -0.3807  0.4313  2.2812
 2627SOL    HW310554   1.411   0.695   4.858 -1.0684  1.3067  2.2152
 2627SOL    MW410555   1.329   0.681   4.831 -0.3996  0.4358  0.5841
 2628SOL     OW10556   2.609   4.259   4.791  0.2143 -0.0202 -0.4149
 2628SOL    HW210557   2.609   4.186   4.728 -0.8181 -0.4664  0.0788
 2628SOL    HW310558   2.556   4.326   4.748 -0.7246 -0.4306  0.0756
 2628SOL    MW410559   2.602   4.258   4.777 -0.0458 -0.1335 -0.2856
 2629SOL     OW10560   2.414   2.606   4.263 -0.2662  0.1755 -0.0581
 2629SOL    HW210561   2.501   2.645   4.259 -0.9461  1.9750  1.8899
 2629SOL    HW310562   2.387   2.615   4.354 -1.8598 -1.8128 -0.2770
 2629SOL    MW410563   2.422   2.612   4.274 -0.5662  0.1507  0.1702
 2630SOL     OW10564   2.052   1.339   3.764 -0.3351 -0.3019 -0.0069
 2630SOL    HW210565   2.122   1.292   3.809 -0.3626 -0.8332 -0.5153
 2630SOL    HW310566   2.043   1.421   3.813 -0.6220 -1.0234  1.1960
 2630SOL    MW410567   2.060   1.343   3.777 -0.3765 -0.4672  0.0846
 2631SOL     OW10568   3.412   1.313   4.608  0.3313 -0.4562 -0.5034
 2631SOL    HW210569   3.380   1.225   4.590 -1.8151  0.0081  0.8579
 2631SOL    HW310570   3.398   1.324   4.702  0.8402  1.2207 -0.6205
 2631SOL    MW410571   3.406   1.303   4.618  0.1154 -0.1738 -0.3390
 2632SOL     OW10572   2.900   3.366   4.245  0.0837 -0.1375 -0.6242
 2632SOL    HW210573   2.898   3.279   4.204  3.2581  0.0979 -1.4128
 2632SOL    HW310574   2.982   3.405   4.214  0.2000  1.9575  2.1420
 2632SOL    MW410575   2.911   3.360   4.236  0.5178  0.1700 -0.3633
 2633SOL     OW10576   0.017   2.445   3.797 -0.0076 -0.4761 -0.2268
 2633SOL    HW210577  -0.055   2.400   3.841  0.4429 -1.8992 -0.9381
 2633SOL    HW310578   0.096   2.413   3.841  0.2407  0.6012  0.1284
 2633SOL    MW410579   0.018   2.435   3.809  0.0849 -0.5214 -0.2737
 2634SOL     OW10580   2.232   3.748   4.293 -0.1419 -0.1055 -0.5167
 2634SOL    HW210581   2.274   3.734   4.378 -0.9775 -0.0054 -0.0903
 2634SOL    HW310582   2.290   3.809   4.248 -0.5313  1.1135  0.6002
 2634SOL    MW410583   2.246   3.754   4.298 -0.3037  0.0687 -0.3128
 2635SOL     OW10584   0.718   0.741   4.676  0.4259  0.9235  0.0008
 2635SOL    HW210585   0.795   0.795   4.663  0.8814  0.6379  1.3964
 2635SOL    HW310586   0.743   0.678   4.744 -0.6356  0.0489 -0.3934
 2635SOL    MW410587   0.731   0.740   4.683  0.3459  0.7704  0.1330
 2636SOL     OW10588   1.401   3.974   4.261 -0.3479  0.8002  0.5938
 2636SOL    HW210589   1.318   3.936   4.231  0.1695 -1.2195  1.6495
 2636SOL    HW310590   1.382   4.005   4.350  0.2103 -0.2513  1.0773
 2636SOL    MW410591   1.387   3.973   4.269 -0.2060  0.3948  0.7968
 2637SOL     OW10592   3.964   0.779   4.511 -0.6810  0.3365  0.5496
 2637SOL    HW210593   3.905   0.853   4.523  1.7523  2.2206  1.1923
 2637SOL    HW310594   4.029   0.788   4.581  0.4681 -1.6092 -0.2251
 2637SOL    MW410595   3.965   0.790   4.522 -0.2086  0.3284  0.5317
 2638SOL     OW10596   4.112   1.283   4.574 -1.0165  0.1530  0.1537
 2638SOL    HW210597   4.027   1.292   4.531  0.5305 -0.9863 -3.3050
 2638SOL    HW310598   4.131   1.370   4.608 -2.1613  1.1965 -1.7700
 2638SOL    MW410599   4.103   1.295   4.573 -0.9637  0.1404 -0.5569
 2639SOL     OW10600   2.317   0.372   4.588 -0.0134  0.0051  0.3383
 2639SOL    HW210601   2.407   0.345   4.573  0.1107 -0.0445  1.1723
 2639SOL    HW310602   2.314   0.464   4.561 -0.1562 -0.4846 -1.3925
 2639SOL    MW410603   2.328   0.381   4.582 -0.0160 -0.0660  0.2203
 2640SOL     OW10604   2.744   0.694   4.296 -0.3296 -0.2926 -0.9714
 2640SOL    HW210605   2.825   0.708   4.247  0.1981  0.9534  0.2326
 2640SOL    HW310606   2.676   0.735   4.242  0.2287  0.9699 -0.7211
 2640SOL    MW410607   2.745   0.701   4.282 -0.1864  0.0383 -0.7796
 2641SOL     OW10608   3.394   3.858   3.898  0.1797 -0.5549  0.1264
 2641SOL    HW210609   3.404   3.773   3.855  1.6683 -0.6513  0.6633
 2641SOL    HW310610   3.454   3.916   3.852  1.0165 -0.4054  1.3775
 2641SOL    MW410611   3.403   3.855   3.886  0.4866 -0.5481  0.3624
 2642SOL     OW10612   1.563   2.138   4.638 -0.4705  0.2034  0.9060
 2642SOL    HW210613   1.607   2.149   4.554 -0.7229  2.0469  0.9789
 2642SOL    HW310614   1.629   2.162   4.703 -0.6503  0.0202  1.1560
 2642SOL    MW410615   1.578   2.143   4.635 -0.5275  0.4225  0.9484
 2643SOL     OW10616   0.516   1.736   4.586 -0.0446 -0.2302  0.5018
 2643SOL    HW210617   0.610   1.724   4.600  0.0871 -0.6433 -0.6740
 2643SOL    HW310618   0.503   1.831   4.590  0.4167 -0.1750  0.6956
 2643SOL    MW410619   0.527   1.747   4.589  0.0336 -0.2774  0.3729
 2644SOL     OW10620   3.129   0.387   4.687 -0.0908 -0.0511 -0.5242
 2644SOL    HW210621   3.074   0.362   4.613 -1.4830  0.0595  0.4464
 2644SOL    HW310622   3.068   0.395   4.760  1.2693 -0.2164  0.6524
 2644SOL    MW410623   3.113   0.385   4.687 -0.0951 -0.0583 -0.2408
 2645SOL     OW10624   1.249   2.560   4.502  0.6532 -0.1886 -0.1372
 2645SOL    HW210625   1.164   2.572   4.546  0.7440  0.1577 -0.0526
 2645SOL    HW310626   1.283   2.478   4.537  1.3040  0.7177  1.3990
 2645SOL    MW410627   1.242   2.551   4.512  0.7510 -0.0234  0.0768
 2646SOL     OW10628   2.632   3.792   4.243  0.1958  0.4843 -0.1392
 2646SOL    HW210629   2.706   3.833   4.198  1.0017 -1.3845 -0.5579
 2646SOL    HW310630   2.644   3.698   4.228 -1.1399  0.0279  1.5136
 2646SOL    MW410631   2.643   3.785   4.235  0.1261  0.1776  0.0234
 2647SOL     OW10632   2.417   3.919   4.158  0.3213 -0.4281  0.4936
 2647SOL    HW210633   2.497   3.868   4.173 -0.0292 -1.6093 -1.5285
 2647SOL    HW310634   2.420   3.944   4.066 -1.1269  0.4313  0.6522
 2647SOL    MW410635   2.428   3.916   4.148  0.0842 -0.4709  0.2470
 2648SOL     OW10636   2.244   1.970   4.161  0.0310  0.3563 -0.6391
 2648SOL    HW210637   2.325   1.926   4.185 -0.2950 -1.0561 -2.0612
 2648SOL    HW310638   2.256   2.061   4.190  1.0067 -0.4707  1.6218
 2648SOL    MW410639   2.256   1.976   4.168  0.1163  0.0609 -0.5283
 2649SOL     OW10640   0.058   1.243   4.196  0.5097 -0.2426 -0.1039
 2649SOL    HW210641  -0.017   1.301   4.183  1.1563  0.5486 -0.3920
 2649SOL    HW310642   0.025   1.171   4.250 -0.4477  0.1008 -0.2314
 2649SOL    MW410643   0.044   1.241   4.201  0.4687 -0.0930 -0.1588
 2650SOL     OW10644   3.762   3.156   4.193  0.3831 -0.5303  0.0237
 2650SOL    HW210645   3.851   3.132   4.221  0.6990  0.3385 -0.2223
 2650SOL    HW310646   3.764   3.145   4.098  0.4454  0.2115 -0.0586
 2650SOL    MW410647   3.774   3.151   4.184  0.4330 -0.3178 -0.0196
 2651SOL     OW10648   2.500   1.281   4.611  0.2634  0.6018  0.5714
 2651SOL    HW210649   2.423   1.331   4.586  0.9405  0.7290 -1.3787
 2651SOL    HW310650   2.574   1.338   4.590  0.9944 -0.6903 -0.4996
 2651SOL    MW410651   2.500   1.295   4.605  0.4492  0.4481  0.1731
 2652SOL     OW10652   2.224   4.561   4.283  0.0015  0.6413 -0.3963
 2652SOL    HW210653   2.224   4.470   4.252 -0.5798 -0.4973  2.6985
 2652SOL    HW310654   2.299   4.601   4.240  0.1704 -1.2455 -1.9640
 2652SOL    MW410655   2.234   4.554   4.273 -0.0527  0.2422 -0.1950
 2653SOL     OW10656   2.482   0.550   3.795 -0.6492 -0.1872 -0.5323
 2653SOL    HW210657   2.415   0.489   3.827 -0.8983 -0.7110 -2.0380
 2653SOL    HW310658   2.495   0.526   3.704  1.4821  0.0281 -0.2960
 2653SOL    MW410659   2.475   0.539   3.787 -0.4010 -0.2279 -0.6998
 2654SOL     OW10660   3.292   3.266   4.227 -0.0347  0.2566  0.0008
 2654SOL    HW210661   3.369   3.313   4.258 -0.8180  1.9208 -0.4802
 2654SOL    HW310662   3.228   3.277   4.298 -0.4666  0.5556 -0.4344
 2654SOL    MW410663   3.293   3.274   4.241 -0.1955  0.5157 -0.1197
 2655SOL     OW10664   0.688   3.882   3.878  0.3170 -0.2231  0.2455
 2655SOL    HW210665   0.612   3.930   3.846  0.1733 -0.7449 -0.1970
 2655SOL    HW310666   0.762   3.923   3.833  0.1438 -0.7584 -0.5372
 2655SOL    MW410667   0.688   3.894   3.868  0.2751 -0.3626  0.0839
 2656SOL     OW10668   1.043   3.305   4.299 -0.3138  0.4868 -0.0048
 2656SOL    HW210669   1.122   3.360   4.299 -0.5451  0.8277  0.7818
 2656SOL    HW310670   1.070   3.225   4.254  0.0001  1.2712 -1.2326
 2656SOL    MW410671   1.057   3.301   4.293 -0.3029  0.6351 -0.0634
 2657SOL     OW10672   1.699   4.161   4.661 -0.1474 -0.0707  0.1866
 2657SOL    HW210673   1.623   4.156   4.719 -0.5904  0.8042 -0.3075
 2657SOL    HW310674   1.751   4.235   4.695 -0.5619  0.6408 -0.6944
 2657SOL    MW410675   1.696   4.170   4.673 -0.2606  0.1388  0.0048
 2658SOL     OW10676   1.661   1.525   4.568  0.3840 -0.1471  0.2892
 2658SOL    HW210677   1.714   1.491   4.496  0.5162  0.3991  0.1270
 2658SOL    HW310678   1.716   1.515   4.645  0.1193 -1.0381  0.3757
 2658SOL    MW410679   1.675   1.519   4.569  0.3664 -0.1925  0.2789
 2659SOL     OW10680   0.986   0.578   4.376  0.4061 -0.0216 -0.3075
 2659SOL    HW210681   0.895   0.560   4.399 -0.2337  1.0980 -1.8572
 2659SOL    HW310682   1.037   0.529   4.440 -1.2811 -0.8320  0.4533
 2659SOL    MW410683   0.981   0.569   4.388  0.0991  0.0193 -0.4120
 2660SOL     OW10684   3.369   3.833   4.171 -0.3285 -0.0004 -0.3227
 2660SOL    HW210685   3.399   3.847   4.081  1.6733 -0.3519  0.2476
 2660SOL    HW310686   3.358   3.921   4.207  1.3131  0.1528 -0.1614
 2660SOL    MW410687   3.372   3.847   4.164  0.1521 -0.0265 -0.2265
 2661SOL     OW10688   1.597   0.560   4.916  0.4008  0.0589 -0.1729
 2661SOL    HW210689   1.662   0.602   4.973  0.9319 -0.1369 -0.6236
 2661SOL    HW310690   1.639   0.557   4.830 -0.3078  0.1505 -0.5273
 2661SOL    MW410691   1.611   0.565   4.912  0.3774  0.0452 -0.2789
 2662SOL     OW10692   0.192   0.838   4.790 -0.0353  0.2229  0.5023
 2662SOL    HW210693   0.150   0.917   4.758 -0.2407 -0.3707 -0.7234
 2662SOL    HW310694   0.285   0.859   4.794  0.0235  0.2141 -0.7715
 2662SOL    MW410695   0.199   0.851   4.787 -0.0546  0.1434  0.1726
 2663SOL     OW10696   1.544   3.637   4.764 -0.2082  0.2801 -0.0262
 2663SOL    HW210697   1.631   3.604   4.743 -0.0532  0.9594 -0.4610
 2663SOL    HW310698   1.485   3.567   4.736  0.2261 -0.4811  0.9197
 2663SOL    MW410699   1.548   3.623   4.757 -0.1303  0.2692  0.0415
 2664SOL     OW10700   3.451   3.653   4.356 -0.0238  0.1336 -0.3136
 2664SOL    HW210701   3.542   3.670   4.377 -0.4575  0.6096  1.2434
 2664SOL    HW310702   3.427   3.720   4.292  0.9247 -0.4834 -1.3385
 2664SOL    MW410703   3.460   3.664   4.350  0.0441  0.1149 -0.2437
 2665SOL     OW10704   1.559   4.664   3.874 -0.3463 -0.3510 -0.1446
 2665SOL    HW210705   1.562   4.592   3.811  0.2616 -0.5556  0.1258
 2665SOL    HW310706   1.479   4.713   3.850 -0.0022 -0.3034 -1.2124
 2665SOL    MW410707   1.549   4.661   3.862 -0.2207 -0.3717 -0.2499
 2666SOL     OW10708   2.263   4.294   4.179 -0.2805 -0.3418  0.3383
 2666SOL    HW210709   2.265   4.312   4.085  2.1127 -0.1974  0.3798
 2666SOL    HW310710   2.188   4.236   4.191 -0.1593 -0.9752 -1.7629
 2666SOL    MW410711   2.253   4.289   4.168  0.0513 -0.4063  0.0668
 2667SOL     OW10712   1.862   2.403   4.587 -0.5875  0.2504 -0.2242
 2667SOL    HW210713   1.953   2.428   4.570 -0.8244  1.3786  0.1441
 2667SOL    HW310714   1.811   2.478   4.558 -1.4308 -0.5100 -0.7216
 2667SOL    MW410715   1.868   2.416   4.581 -0.7300  0.2987 -0.2413
 2668SOL     OW10716   2.888   4.285   4.838  0.1175  0.3031  0.1204
 2668SOL    HW210717   2.799   4.256   4.819  0.4932 -0.9732  0.2564
 2668SOL    HW310718   2.905   4.254   4.927  1.1019 -0.4726 -0.3280
 2668SOL    MW410719   2.878   4.277   4.847  0.2971  0.0324  0.0792
 2669SOL     OW10720   1.153   3.881   4.141 -0.1087 -0.5324  0.1979
 2669SOL    HW210721   1.071   3.861   4.186 -1.1054  1.7475 -0.4979
 2669SOL    HW310722   1.155   3.977   4.139  1.4991 -0.5940 -1.7393
 2669SOL    MW410723   1.142   3.891   4.147 -0.0281 -0.2396 -0.1493
 2670SOL     OW10724   1.395   0.372   4.185 -0.1532  0.0651  0.6632
 2670SOL    HW210725   1.403   0.462   4.217  0.8313 -0.0495  0.7356
 2670SOL    HW310726   1.312   0.341   4.222 -0.5200  0.9523  0.6079
 2670SOL    MW410727   1.385   0.380   4.194 -0.0716  0.1670  0.6657
 2671SOL     OW10728   3.651   1.436   4.207  0.6232  0.3755  0.1537
 2671SOL    HW210729   3.659   1.345   4.179  2.0711  0.3044  0.7373
 2671SOL    HW310730   3.644   1.431   4.302 -1.8824  0.7466  0.0221
 2671SOL    MW410731   3.651   1.423   4.216  0.4838  0.4151  0.2131
 2672SOL     OW10732   2.774   1.211   4.143 -0.1627  0.3476 -0.0204
 2672SOL    HW210733   2.758   1.217   4.049  2.9624  2.3483 -0.5170
 2672SOL    HW310734   2.842   1.144   4.151 -0.5947  0.0097  0.8201
 2672SOL    MW410735   2.781   1.203   4.132  0.1929  0.5670  0.0248
 2673SOL     OW10736   1.694   3.884   4.363  0.6451  0.5910 -0.0703
 2673SOL    HW210737   1.712   3.973   4.393  0.9001  0.2275  0.8659
 2673SOL    HW310738   1.760   3.830   4.407 -0.7748 -0.3301  0.9525
 2673SOL    MW410739   1.705   3.888   4.373  0.4914  0.4215  0.1879
 2674SOL     OW10740   1.824   2.211   4.152 -0.0972 -0.4697  0.0831
 2674SOL    HW210741   1.906   2.257   4.136 -0.9094  0.6717 -0.8236
 2674SOL    HW310742   1.806   2.224   4.245  0.5167 -0.3480  0.1824
 2674SOL    MW410743   1.832   2.219   4.162 -0.1234 -0.3030 -0.0229
 2675SOL     OW10744   1.657   0.523   4.640 -0.0030 -0.4321  0.1524
 2675SOL    HW210745   1.717   0.592   4.610 -0.4658  0.3271  0.9797
 2675SOL    HW310746   1.572   0.549   4.605 -0.3783 -0.0147  1.3733
 2675SOL    MW410747   1.654   0.536   4.631 -0.1136 -0.2769  0.4225
 2676SOL     OW10748   3.359   3.017   4.140 -0.2085 -0.0761 -0.2463
 2676SOL    HW210749   3.355   3.101   4.186 -0.2113  0.0437 -0.4620
 2676SOL    HW310750   3.275   2.976   4.158  0.4870 -0.8554  1.3933
 2676SOL    MW410751   3.347   3.023   4.148 -0.1168 -0.1631 -0.0577
 2677SOL     OW10752   1.162   0.241   4.286 -0.4356  0.5230 -0.1378
 2677SOL    HW210753   1.160   0.161   4.233 -0.4631  0.2746  0.2344
 2677SOL    HW310754   1.126   0.214   4.371  0.0483  0.8017  0.1575
 2677SOL    MW410755   1.157   0.227   4.290 -0.3755  0.5270 -0.0496
 2678SOL     OW10756   4.325   0.013   4.173 -0.1099 -0.1344  0.4425
 2678SOL    HW210757   4.300   0.092   4.221  0.4585  0.3947 -0.1282
 2678SOL    HW310758   4.383  -0.034   4.232  0.2995  0.3380  0.4201
 2678SOL    MW410759   4.329   0.017   4.187  0.0191 -0.0023  0.3643
 2679SOL     OW10760   0.251   3.903   3.866 -0.4891 -0.0447 -0.1436
 2679SOL    HW210761   0.249   3.912   3.961 -1.2697 -0.8345 -0.0805
 2679SOL    HW310762   0.332   3.947   3.840  0.9429 -1.8223  1.1063
 2679SOL    MW410763   0.261   3.910   3.875 -0.4031 -0.3836  0.0298
 2680SOL     OW10764   2.283   2.750   3.870 -0.1850 -0.3040  0.3146
 2680SOL    HW210765   2.281   2.660   3.837  0.1044  0.4234 -1.6973
 2680SOL    HW310766   2.270   2.740   3.965  1.0443 -2.5483  0.2810
 2680SOL    MW410767   2.281   2.737   3.878  0.0153 -0.5040  0.0446
 2681SOL     OW10768   0.680   2.597   4.266  0.4201  0.1377  0.3450
 2681SOL    HW210769   0.697   2.503   4.258  1.4847  0.2249  1.4657
 2681SOL    HW310770   0.674   2.612   4.361  1.2145  1.3544  0.2142
 2681SOL    MW410771   0.681   2.586   4.278  0.6654  0.3099  0.4754
 2682SOL     OW10772   2.392   3.368   4.507  0.3811  0.1914 -0.4916
 2682SOL    HW210773   2.434   3.361   4.421  2.4708  1.6092  0.3628
 2682SOL    HW310774   2.464   3.357   4.569 -1.1705 -1.2718  1.0981
 2682SOL    MW410775   2.407   3.366   4.504  0.4520  0.1853 -0.1693
 2683SOL     OW10776   1.030   0.145   4.511 -0.5917  0.2485  0.1586
 2683SOL    HW210777   1.055   0.061   4.548 -2.3260 -0.3432  0.0306
 2683SOL    HW310778   0.935   0.148   4.520 -0.5951  1.9879 -0.2763
 2683SOL    MW410779   1.021   0.135   4.517 -0.8210  0.3999  0.0844
 2684SOL     OW10780   4.484   0.385   4.143  0.5903  0.8063  0.6406
 2684SOL    HW210781   4.448   0.382   4.231 -2.2072  0.9509 -0.4459
 2684SOL    HW310782   4.566   0.335   4.148 -0.4635 -0.7419  2.8599
 2684SOL    MW410783   4.490   0.378   4.155  0.0825  0.6211  0.7901
 2685SOL     OW10784   3.778   4.410   4.592  0.0718 -0.2725 -0.4585
 2685SOL    HW210785   3.685   4.397   4.577 -0.1174 -2.0059  1.8781
 2685SOL    HW310786   3.790   4.505   4.591 -2.2659  0.1069  2.0342
 2685SOL    MW410787   3.767   4.421   4.590 -0.2618 -0.4506  0.1793
 2686SOL     OW10788   3.949   3.285   4.506  0.1119 -0.0685 -0.4333
 2686SOL    HW210789   3.857   3.270   4.530  0.4033 -1.0339  0.1131
 2686SOL    HW310790   3.968   3.219   4.441  0.1653  0.7223 -1.2317
 2686SOL    MW410791   3.939   3.275   4.501  0.1576 -0.0918 -0.4668
 2687SOL     OW10792   0.984   2.626   4.616 -0.5620 -0.0960  0.0748
 2687SOL    HW210793   1.024   2.633   4.703 -1.7882  0.1351  0.6268
 2687SOL    HW310794   0.987   2.715   4.581 -0.3628 -0.1280  0.0106
 2687SOL    MW410795   0.990   2.639   4.623 -0.6975 -0.0701  0.1388
 2688SOL     OW10796   1.814   1.479   4.807 -0.0470  0.0396  0.1663
 2688SOL    HW210797   1.875   1.552   4.818  0.3381  0.1064 -2.1068
 2688SOL    HW310798   1.870   1.402   4.798 -0.4603 -0.6168  2.7881
 2688SOL    MW410799   1.829   1.479   4.807 -0.0505 -0.0381  0.2127
 2689SOL     OW10800   1.752   2.176   4.438 -0.4181  0.3664  0.5646
 2689SOL    HW210801   1.795   2.249   4.482  0.5406 -0.2005  0.5892
 2689SOL    HW310802   1.810   2.102   4.453 -2.0373 -0.7009  1.6436
 2689SOL    MW410803   1.766   2.176   4.445 -0.5053  0.1509  0.7100
 2690SOL     OW10804   0.274   2.537   4.281 -0.0843  0.4311 -0.6335
 2690SOL    HW210805   0.331   2.593   4.228  1.0624 -0.2524 -0.1405
 2690SOL    HW310806   0.277   2.452   4.237 -2.4506  0.9268 -1.8349
 2690SOL    MW410807   0.282   2.533   4.268 -0.2452  0.4065 -0.7272
 2691SOL     OW10808   2.251   1.447   4.564  0.2545  0.0262 -0.3077
 2691SOL    HW210809   2.260   1.426   4.471  2.5988 -0.3219 -0.0167
 2691SOL    HW310810   2.184   1.516   4.566 -0.2989 -0.4165 -2.1733
 2691SOL    MW410811   2.243   1.453   4.552  0.4909 -0.0781 -0.5150
 2692SOL     OW10812   3.756   0.593   4.548  0.5867  0.3065 -0.1527
 2692SOL    HW210813   3.825   0.660   4.547 -0.2833  1.2149 -0.1668
 2692SOL    HW310814   3.802   0.512   4.567  1.7092  0.8591 -0.4506
 2692SOL    MW410815   3.771   0.591   4.550  0.6201  0.4992 -0.1941
 2693SOL     OW10816   1.857   0.404   4.148 -0.0518  0.0525 -0.0712
 2693SOL    HW210817   1.777   0.361   4.176 -0.6441 -0.8608 -2.9743
 2693SOL    HW310818   1.926   0.365   4.201 -1.1146 -1.4932  0.1919
 2693SOL    MW410819   1.855   0.393   4.159 -0.2704 -0.2719 -0.4196
 2694SOL     OW10820   4.074   4.424   4.432 -0.0502 -0.7064 -0.1464
 2694SOL    HW210821   3.986   4.420   4.470  0.3167 -0.2828  0.7688
 2694SOL    HW310822   4.059   4.444   4.340 -0.8821  0.1773  0.1692
 2694SOL    MW410823   4.060   4.426   4.425 -0.1121 -0.5336  0.0162
 2695SOL     OW10824   3.675   3.977   4.603  0.5052  0.0612  0.5226
 2695SOL    HW210825   3.592   4.007   4.567 -0.0809 -1.3908  0.6684
 2695SOL    HW310826   3.739   4.041   4.571 -0.2926 -0.1088 -1.5016
 2695SOL    MW410827   3.673   3.990   4.594  0.3223 -0.1531  0.2747
 2696SOL     OW10828   1.766   3.533   4.176  0.3069  0.2611 -0.6842
 2696SOL    HW210829   1.788   3.509   4.086 -1.8340 -1.0148 -0.9071
 2696SOL    HW310830   1.707   3.464   4.205  1.5573  0.2501  1.9840
 2696SOL    MW410831   1.761   3.521   4.168  0.1894  0.0913 -0.3614
 2697SOL     OW10832   2.225   2.065   4.645 -0.1342  0.4288  0.1544
 2697SOL    HW210833   2.150   2.051   4.702 -1.9089  1.7272 -1.7724
 2697SOL    HW310834   2.257   1.977   4.625 -1.1510 -0.1311  0.9909
 2697SOL    MW410835   2.220   2.052   4.650 -0.5023  0.5264  0.0105
 2698SOL     OW10836   3.630   0.641   4.283 -0.0558  0.4210  0.2978
 2698SOL    HW210837   3.632   0.550   4.253 -0.5639  0.5709 -0.2045
 2698SOL    HW310838   3.655   0.636   4.375 -0.7888 -0.3116  0.4701
 2698SOL    MW410839   3.633   0.628   4.291 -0.2198  0.3442  0.2546
 2699SOL     OW10840   0.228   0.834   4.186  0.1630 -0.2224 -0.1794
 2699SOL    HW210841   0.207   0.884   4.265 -0.4509 -0.4699 -0.1834
 2699SOL    HW310842   0.154   0.774   4.175  0.4254 -0.4502 -0.7289
 2699SOL    MW410843   0.215   0.833   4.195  0.1166 -0.2850 -0.2527
 2700SOL     OW10844   2.025   1.302   4.693 -0.1297  0.0138 -0.1682
 2700SOL    HW210845   2.053   1.211   4.688  0.3647  0.2100 -1.1009
 2700SOL    HW310846   2.106   1.353   4.686 -0.4179  0.5236  0.1701
 2700SOL    MW410847   2.039   1.297   4.691 -0.1025  0.1068 -0.2465
 2701SOL     OW10848   0.242   1.724   4.615 -0.2593  0.1272  0.5142
 2701SOL    HW210849   0.210   1.814   4.626  0.2513  0.4277 -0.4330
 2701SOL    HW310850   0.337   1.734   4.605  0.1143 -0.7188  2.8311
 2701SOL    MW410851   0.250   1.738   4.615 -0.1427  0.0552  0.6948
 2702SOL     OW10852   0.762   0.733   4.151  0.3710  0.0588  0.3507
 2702SOL    HW210853   0.683   0.698   4.191 -0.2155 -0.0677 -0.9150
 2702SOL    HW310854   0.735   0.762   4.064  1.8402 -0.5428 -0.3301
 2702SOL    MW410855   0.748   0.732   4.145  0.4874 -0.0374  0.0944
 2703SOL     OW10856   1.611   0.002   4.139 -0.1711 -0.1939 -0.1741
 2703SOL    HW210857   1.604  -0.008   4.044 -0.2292  0.0687 -0.1965
 2703SOL    HW310858   1.680  -0.059   4.164  1.2015  1.1640 -0.6246
 2703SOL    MW410859   1.619  -0.008   4.130  0.0024  0.0199 -0.2360
 2704SOL     OW10860   1.185   1.911   4.349 -0.1766 -0.2485  0.3438
 2704SOL    HW210861   1.230   1.851   4.410  0.3798 -0.6980 -0.5067
 2704SOL    HW310862   1.135   1.970   4.407 -0.6474 -1.4543  1.1963
 2704SOL    MW410863   1.184   1.911   4.365 -0.1653 -0.4671  0.3438
 2705SOL     OW10864   2.530   0.794   4.150  0.6093  0.4197 -0.1437
 2705SOL    HW210865   2.516   0.810   4.056 -0.7395  0.6168  0.0735
 2705SOL    HW310866   2.514   0.879   4.190  1.4777  0.4005  0.2390
 2705SOL    MW410867   2.526   0.808   4.143  0.5457  0.4432 -0.0644
 2706SOL     OW10868   1.961   3.413   4.337 -0.6569 -0.7689 -0.3041
 2706SOL    HW210869   1.933   3.395   4.426 -2.1296 -0.4871 -0.6968
 2706SOL    HW310870   1.890   3.465   4.299 -0.3358 -1.3961 -1.8252
 2706SOL    MW410871   1.948   3.417   4.344 -0.8087 -0.8144 -0.5569
 2707SOL     OW10872   1.345   0.634   4.256 -0.4502  0.0930  0.2352
 2707SOL    HW210873   1.415   0.694   4.234  0.1294 -0.4825  0.4948
 2707SOL    HW310874   1.268   0.669   4.211 -0.3073  1.4664  1.0265
 2707SOL    MW410875   1.344   0.646   4.247 -0.3548  0.1982  0.3743
 2708SOL     OW10876   1.836   2.989   4.247  0.3497 -0.1328 -0.1502
 2708SOL    HW210877   1.757   3.037   4.223  0.0177 -0.8001 -0.4051
 2708SOL    HW310878   1.817   2.950   4.332  0.0764 -0.9977 -0.5930
 2708SOL    MW410879   1.823   2.990   4.255  0.2700 -0.3350 -0.2422
 2709SOL     OW10880   0.674   2.866   3.778  0.9440  0.3451  0.1828
 2709SOL    HW210881   0.682   2.956   3.810  2.4525  0.2468  0.1343
 2709SOL    HW310882   0.689   2.873   3.683 -1.3739  0.3510 -0.2110
 2709SOL    MW410883   0.677   2.879   3.770  0.8373  0.3328  0.1247
 2710SOL     OW10884   3.784   1.018   4.493 -0.1533 -0.1700  0.2482
 2710SOL    HW210885   3.816   1.108   4.488  0.1008 -0.3548 -1.7119
 2710SOL    HW310886   3.688   1.027   4.493 -0.1266  0.1143  0.2201
 2710SOL    MW410887   3.775   1.031   4.492 -0.1163 -0.1568 -0.0143
 2711SOL     OW10888   2.654   1.437   4.282  0.0592  0.3151 -0.3220
 2711SOL    HW210889   2.700   1.365   4.241  0.9365 -0.3308  1.7500
 2711SOL    HW310890   2.677   1.432   4.375 -0.9778  2.4031  0.1009
 2711SOL    MW410891   2.663   1.427   4.289  0.0384  0.5054  0.0072
 2712SOL     OW10892   1.597   1.046   4.501  0.0613 -0.1920 -0.0654
 2712SOL    HW210893   1.670   1.106   4.514  0.3704 -0.9226  1.7209
 2712SOL    HW310894   1.521   1.093   4.536  0.3305 -0.8781  1.4785
 2712SOL    MW410895   1.596   1.061   4.507  0.1377 -0.3790  0.3734
 2713SOL     OW10896   0.320   0.080   4.623 -0.4190  0.0600 -0.4095
 2713SOL    HW210897   0.254   0.020   4.587  0.5155 -0.4423 -1.2923
 2713SOL    HW310898   0.398   0.065   4.570  0.3197  0.8858  0.4310
 2713SOL    MW410899   0.321   0.070   4.611 -0.1983  0.1027 -0.4153
 2714SOL     OW10900   0.692   4.125   4.240  0.0809  0.6162 -0.2242
 2714SOL    HW210901   0.688   4.034   4.211 -1.2500  0.9357 -1.1122
 2714SOL    HW310902   0.771   4.159   4.198 -0.9030  0.5981 -2.1548
 2714SOL    MW410903   0.702   4.117   4.230 -0.2245  0.6561 -0.5960
 2715SOL     OW10904   3.213   0.688   4.296 -0.2946  0.3311  0.0429
 2715SOL    HW210905   3.258   0.631   4.358  0.0733 -0.3421 -0.8256
 2715SOL    HW310906   3.281   0.716   4.235 -0.8533  0.1067 -0.6940
 2715SOL    MW410907   3.228   0.684   4.296 -0.3200  0.2127 -0.1688
 2716SOL     OW10908   0.472   2.971   4.232  0.0859  0.4900 -0.0369
 2716SOL    HW210909   0.453   2.883   4.198  0.0863  0.6863 -0.5479
 2716SOL    HW310910   0.389   3.018   4.224  0.1582  0.6203 -0.0200
 2716SOL    MW410911   0.458   2.966   4.226  0.0955  0.5331 -0.1020
 2717SOL     OW10912   4.113   4.025   4.611  0.0985  0.4237 -0.0254
 2717SOL    HW210913   4.122   3.935   4.580  2.6573  0.7872 -0.4119
 2717SOL    HW310914   4.036   4.058   4.565 -0.3569 -1.2808 -0.5323
 2717SOL    MW410915   4.104   4.017   4.601  0.3757  0.2470 -0.1431
 2718SOL     OW10916   0.153   3.308   4.541  0.3151 -0.4518 -0.1141
 2718SOL    HW210917   0.074   3.255   4.532  0.0956 -0.0945 -0.3279
 2718SOL    HW310918   0.213   3.254   4.591 -0.0228 -0.7748 -0.0566
 2718SOL    MW410919   0.151   3.294   4.546  0.2415 -0.4470 -0.1354
 2719SOL     OW10920   3.689   2.203   4.195  0.1852  0.1265  0.3265
 2719SOL    HW210921   3.750   2.131   4.177 -0.7425 -0.3060 -1.1159
 2719SOL    HW310922   3.742   2.282   4.186  0.8547 -0.3030  0.4348
 2719SOL    MW410923   3.704   2.204   4.192  0.1509  0.0129  0.1507
 2720SOL     OW10924   1.636   0.250   4.241  0.1421 -0.0566  0.2923
 2720SOL    HW210925   1.554   0.296   4.229  1.0192  1.5691  0.4099
 2720SOL    HW310926   1.620   0.162   4.207 -1.2619  0.6128 -0.8126
 2720SOL    MW410927   1.623   0.244   4.235  0.0727  0.2462  0.1621
 2721SOL     OW10928   1.110   0.798   4.185  0.5070  0.1780  0.0243
 2721SOL    HW210929   1.102   0.798   4.090  0.6421  2.0903  0.0040
 2721SOL    HW310930   1.027   0.761   4.216 -0.4460  1.6298 -0.7674
 2721SOL    MW410931   1.098   0.793   4.177  0.3992  0.6219 -0.0825
 2722SOL     OW10932   2.264   1.185   3.889  0.7793 -0.2336 -0.4409
 2722SOL    HW210933   2.272   1.180   3.984 -0.2545 -1.6223 -0.4027
 2722SOL    HW310934   2.236   1.097   3.863 -0.6310  0.5947 -1.8372
 2722SOL    MW410935   2.261   1.173   3.898  0.4568 -0.3077 -0.6199
 2723SOL     OW10936   2.940   3.639   3.727 -0.1274 -0.1556  0.1672
 2723SOL    HW210937   2.863   3.593   3.762 -0.1398 -0.2883 -0.0376
 2723SOL    HW310938   2.941   3.617   3.634  0.0925 -0.0581  0.1475
 2723SOL    MW410939   2.930   3.630   3.719 -0.1001 -0.1602  0.1378
 2724SOL     OW10940   1.995   1.562   3.933 -0.1924  0.0156  0.0047
 2724SOL    HW210941   1.916   1.585   3.883  0.5678  0.8222 -0.8235
 2724SOL    HW310942   2.065   1.611   3.892  0.5079  0.4322  1.6679
 2724SOL    MW410943   1.994   1.571   3.921  0.0004  0.1770  0.1149
 2725SOL     OW10944   4.444   2.765   4.170 -0.3175  0.0972  0.2241
 2725SOL    HW210945   4.468   2.689   4.223 -1.4106  0.0267  0.6207
 2725SOL    HW310946   4.470   2.840   4.224 -2.1944  0.0416  1.2680
 2725SOL    MW410947   4.451   2.765   4.184 -0.7095  0.0806  0.4139
 2726SOL     OW10948   1.350   3.641   4.097  0.2797  0.0736  0.3621
 2726SOL    HW210949   1.437   3.676   4.114  0.1769  0.2313  0.5565
 2726SOL    HW310950   1.290   3.713   4.115  0.1217  0.0223  0.0449
 2726SOL    MW410951   1.354   3.655   4.102  0.2453  0.0877  0.3462
 2727SOL     OW10952   0.230   3.082   4.185  0.4814 -0.3950  0.4255
 2727SOL    HW210953   0.232   3.071   4.090 -1.8012 -1.1245  0.4282
 2727SOL    HW310954   0.226   3.177   4.197 -3.9632 -0.3540 -0.4333
 2727SOL    MW410955   0.230   3.093   4.174 -0.4062 -0.4859  0.3123
 2728SOL     OW10956   3.834   4.148   4.231 -0.1098 -0.1704 -0.0228
 2728SOL    HW210957   3.904   4.178   4.173 -0.3576  0.1184 -0.1756
 2728SOL    HW310958   3.822   4.056   4.209  0.1508 -0.1919 -0.0724
 2728SOL    MW410959   3.842   4.140   4.220 -0.1080 -0.1349 -0.0496
 2729SOL     OW10960   1.593   3.090   4.168 -0.3923  0.3541 -0.2046
 2729SOL    HW210961   1.518   3.032   4.183  0.1953 -0.1748  0.7394
 2729SOL    HW310962   1.592   3.106   4.073 -1.3871 -0.0657 -0.2734
 2729SOL    MW410963   1.583   3.084   4.157 -0.4461  0.2291 -0.0892
 2730SOL     OW10964   2.475   3.933   3.884 -0.1280  0.1094  0.0930
 2730SOL    HW210965   2.483   3.845   3.848 -1.5117 -0.0086  0.0593
 2730SOL    HW310966   2.544   3.983   3.840  0.2102 -0.7788 -0.4072
 2730SOL    MW410967   2.485   3.928   3.873 -0.2656 -0.0234  0.0226
 2731SOL     OW10968   2.536   1.065   4.255 -0.1644 -0.6542 -0.5413
 2731SOL    HW210969   2.569   1.056   4.344  0.9564  0.0001 -0.8767
 2731SOL    HW310970   2.607   1.108   4.208 -1.4169  0.5744 -1.3383
 2731SOL    MW410971   2.550   1.070   4.260 -0.1814 -0.4059 -0.6909
 2732SOL     OW10972   0.945   1.125   4.200  0.5291  0.0261  0.1200
 2732SOL    HW210973   0.887   1.060   4.239  0.8035 -0.1844  0.1712
 2732SOL    HW310974   0.932   1.115   4.106  1.0069 -0.4964  0.1090
 2732SOL    MW410975   0.935   1.115   4.193  0.6285 -0.0706  0.1254
 2733SOL     OW10976   4.096   1.120   4.148  0.3337  0.6180 -0.3720
 2733SOL    HW210977   4.082   1.123   4.053 -0.9302 -0.2244 -0.2260
 2733SOL    HW310978   4.013   1.089   4.184 -0.0816  3.5200  1.2714
 2733SOL    MW410979   4.083   1.116   4.140  0.1121  0.8897 -0.1359
 2734SOL     OW10980   3.847   1.017   4.223  0.4149  0.3328  0.2555
 2734SOL    HW210981   3.834   1.010   4.318 -0.0970  0.0307  0.1641
 2734SOL    HW310982   3.871   0.929   4.195  0.0795  0.3074  0.0347
 2734SOL    MW410983   3.848   1.004   4.232  0.3030  0.2897  0.2146
 2735SOL     OW10984   2.707   2.720   3.950 -0.0215  0.3390 -0.5455
 2735SOL    HW210985   2.680   2.641   3.904  0.8903 -0.4011  0.1805
 2735SOL    HW310986   2.653   2.789   3.912 -2.3835 -0.9702  0.2886
 2735SOL    MW410987   2.696   2.719   3.939 -0.2127  0.0684 -0.3397
 2736SOL     OW10988   2.476   0.145   4.527 -0.9601 -0.0915  0.0739
 2736SOL    HW210989   2.497   0.190   4.445 -0.8266 -0.3209 -0.0174
 2736SOL    HW310990   2.398   0.093   4.507 -0.9338 -0.1394  0.0980
 2736SOL    MW410991   2.468   0.144   4.514 -0.9391 -0.1281  0.0653
 2737SOL     OW10992   3.387   1.304   3.769 -0.4482  0.3927  0.0491
 2737SOL    HW210993   3.385   1.306   3.674  1.0110  2.1889  0.0169
 2737SOL    HW310994   3.365   1.394   3.795  1.9764  0.6625  1.3156
 2737SOL    MW410995   3.384   1.316   3.760  0.0641  0.6653  0.2117
 2738SOL     OW10996   1.799   0.762   4.517  0.5649 -0.2898 -0.1873
 2738SOL    HW210997   1.784   0.730   4.428  1.1895  1.8794 -1.1013
 2738SOL    HW310998   1.760   0.849   4.519  0.1889 -0.4664  1.8033
 2738SOL    MW410999   1.792   0.769   4.506  0.5977 -0.0269 -0.0453
 2739SOL     OW11000   0.015   0.653   4.138 -0.2600  0.4244  0.0697
 2739SOL    HW211001   0.013   0.558   4.153 -2.1875  0.5567  0.6751
 2739SOL    HW311002  -0.037   0.666   4.059  0.1244  0.9852 -0.0960
 2739SOL    MW411003   0.008   0.642   4.130 -0.4635  0.5158  0.1278
 2740SOL     OW11004   3.818   2.875   3.826 -0.4707  0.1208 -0.2072
 2740SOL    HW211005   3.749   2.812   3.848 -0.0593  0.1306  1.1247
 2740SOL    HW311006   3.896   2.843   3.871  0.0765  0.8269 -0.6404
 2740SOL    MW411007   3.819   2.863   3.835 -0.3443  0.2153 -0.0887
 2741SOL     OW11008   1.649   0.279   4.888 -0.0534  0.4730  0.1833
 2741SOL    HW211009   1.742   0.259   4.877  0.1269  1.1595  0.4491
 2741SOL    HW311010   1.647   0.372   4.909 -0.6146 -0.0490  2.5546
 2741SOL    MW411011   1.661   0.288   4.889 -0.1037  0.4947  0.5317
 2742SOL     OW11012   2.272   0.672   4.229 -0.0484 -0.2176  0.4037
 2742SOL    HW211013   2.294   0.643   4.318  1.0190 -1.0325 -0.1163
 2742SOL    HW311014   2.350   0.720   4.200 -1.1009  1.6737  0.5862
 2742SOL    MW411015   2.285   0.675   4.237 -0.0463 -0.0755  0.3586
 2743SOL     OW11016   3.302   2.328   3.873  0.4112  0.4398  0.7281
 2743SOL    HW211017   3.278   2.308   3.963 -0.5793 -0.5673  0.2532
 2743SOL    HW311018   3.335   2.245   3.838 -1.3088  0.2430 -0.4878
 2743SOL    MW411019   3.303   2.315   3.880  0.0536  0.2809  0.5052
 2744SOL     OW11020   2.302   2.297   4.517  0.2937  0.4432  0.3044
 2744SOL    HW211021   2.269   2.219   4.563  1.2794  0.3711  0.9227
 2744SOL    HW311022   2.304   2.271   4.425 -0.2638  0.0561  0.3970
 2744SOL    MW411023   2.298   2.283   4.511  0.3500  0.3824  0.3982
 2745SOL     OW11024   0.118   4.550   4.568  0.2676  0.1449  0.3861
 2745SOL    HW211025   0.105   4.463   4.606 -1.7332  0.3190  0.1363
 2745SOL    HW311026   0.054   4.606   4.613  1.1167  1.3713  0.1073
 2745SOL    MW411027   0.108   4.546   4.579  0.1157  0.3295  0.3166
 2746SOL     OW11028   1.992   0.031   4.186 -0.0436 -0.1547  0.1162
 2746SOL    HW211029   1.992   0.020   4.091 -1.0229 -0.2681  0.1238
 2746SOL    HW311030   2.070  -0.017   4.216  0.5663  0.3212 -0.6697
 2746SOL    MW411031   2.003   0.023   4.178 -0.0925 -0.1068  0.0138
 2747SOL     OW11032   0.802   3.336   4.653 -0.4131 -0.3277  0.0171
 2747SOL    HW211033   0.879   3.294   4.614  0.3684  0.9602  0.1355
 2747SOL    HW311034   0.747   3.264   4.681  0.4908 -1.2697 -0.6003
 2747SOL    MW411035   0.805   3.321   4.651 -0.1907 -0.2820 -0.0486
 2748SOL     OW11036   1.342   2.288   4.528  0.1828  0.3462  0.4355
 2748SOL    HW211037   1.417   2.276   4.586 -0.0990 -0.6031  0.5995
 2748SOL    HW311038   1.374   2.266   4.441  0.3801  0.9711  0.3477
 2748SOL    MW411039   1.356   2.284   4.524  0.1715  0.3030  0.4454
 2749SOL     OW11040   3.860   1.543   3.826 -0.4991  0.2620 -0.0159
 2749SOL    HW211041   3.855   1.536   3.922  0.1540  1.6494  0.1401
 2749SOL    HW311042   3.780   1.591   3.802  0.0997  1.2882  0.0068
 2749SOL    MW411043   3.849   1.548   3.836 -0.3343  0.5803  0.0076
 2750SOL     OW11044   0.941   2.872   4.516  0.3696  0.3070  0.0018
 2750SOL    HW211045   0.950   2.890   4.423 -0.8286  0.1208 -0.1631
 2750SOL    HW311046   0.855   2.907   4.539 -0.0295 -1.0624  0.6803
 2750SOL    MW411047   0.931   2.879   4.507  0.1588  0.1016  0.0696
 2751SOL     OW11048   3.424   2.129   4.266  0.2630  0.1210 -0.2934
 2751SOL    HW211049   3.356   2.192   4.241 -0.6814 -0.3634  1.0213
 2751SOL    HW311050   3.505   2.167   4.233 -0.3817  1.7297 -0.0638
 2751SOL    MW411051   3.425   2.142   4.258  0.0534  0.2694 -0.0892
 2752SOL     OW11052   4.294   0.730   4.292 -0.4914 -0.5001 -0.2340
 2752SOL    HW211053   4.367   0.708   4.234  0.7443  0.4793  0.8980
 2752SOL    HW311054   4.303   0.825   4.305 -2.2971 -0.2767 -0.4998
 2752SOL    MW411055   4.305   0.740   4.286 -0.5665 -0.3414 -0.1197
 2753SOL     OW11056   1.354   1.422   4.246  0.2655 -0.6438 -0.0865
 2753SOL    HW211057   1.349   1.330   4.220 -1.4014 -0.4938 -0.3398
 2753SOL    HW311058   1.266   1.456   4.231  0.2515  0.4118  2.1864
 2753SOL    MW411059   1.342   1.414   4.241  0.0436 -0.4848  0.1798
 2754SOL     OW11060   3.613   2.678   4.195  0.2043 -0.5551  0.0273
 2754SOL    HW211061   3.612   2.769   4.224  0.2429 -0.7580  0.6796
 2754SOL    HW311062   3.612   2.683   4.099  1.1105  0.1490  0.0426
 2754SOL    MW411063   3.613   2.691   4.186  0.3293 -0.4888  0.1149
 2755SOL     OW11064   2.219   3.490   4.205 -0.5643  0.2069  0.0867
 2755SOL    HW211065   2.225   3.582   4.229 -0.9749  0.6422 -1.4479
 2755SOL    HW311066   2.145   3.456   4.257 -1.0226  0.9677 -0.0682
 2755SOL    MW411067   2.210   3.497   4.215 -0.6790  0.3648 -0.1354
 2756SOL     OW11068   1.810   1.427   4.279  0.0178 -0.4791  0.1283
 2756SOL    HW211069   1.886   1.481   4.257 -0.3923  0.5934  1.2999
 2756SOL    HW311070   1.739   1.464   4.228 -0.3229  0.2593  1.1342
 2756SOL    MW411071   1.811   1.439   4.269 -0.0814 -0.2402  0.4153
 2757SOL     OW11072   0.716   0.560   4.465  0.2401 -0.0044  0.0743
 2757SOL    HW211073   0.685   0.486   4.517 -0.0092  0.0924  0.0668
 2757SOL    HW311074   0.724   0.632   4.529  1.4624 -0.3090  0.2662
 2757SOL    MW411075   0.713   0.560   4.481  0.3685 -0.0319  0.0982
 2758SOL     OW11076   1.965   1.729   4.807 -0.0531 -0.2442 -0.3293
 2758SOL    HW211077   1.954   1.824   4.818  0.9177 -0.2621  1.0519
 2758SOL    HW311078   2.000   1.719   4.719 -0.2377  0.6885 -0.5183
 2758SOL    MW411079   1.968   1.740   4.797  0.0505 -0.1235 -0.1721
 2759SOL     OW11080   0.030   4.527   4.301 -0.1174 -0.1756  0.5361
 2759SOL    HW211081   0.051   4.514   4.393 -1.5660  0.1218  0.9318
 2759SOL    HW311082   0.026   4.438   4.264  2.2184 -0.2161  0.3243
 2759SOL    MW411083   0.032   4.513   4.308 -0.0003 -0.1416  0.5598
 2760SOL     OW11084   3.139   0.965   4.488  0.0764  0.1015  0.6375
 2760SOL    HW211085   3.230   0.989   4.505 -0.1971 -0.6420  3.3497
 2760SOL    HW311086   3.144   0.872   4.463  0.0441 -0.0467  1.1671
 2760SOL    MW411087   3.152   0.956   4.487  0.0360 -0.0162  1.0657
 2761SOL     OW11088   1.976   2.007   4.739  0.4597 -0.3251 -0.1976
 2761SOL    HW211089   1.902   2.065   4.757  1.8756  1.4418 -0.0053
 2761SOL    HW311090   1.965   1.982   4.647 -0.5261 -0.2903 -0.0910
 2761SOL    MW411091   1.965   2.011   4.729  0.5164 -0.0873 -0.1578
 2762SOL     OW11092   3.081   4.663   4.564 -0.1408  0.1333 -0.0001
 2762SOL    HW211093   3.043   4.744   4.529 -1.1400 -0.2051  0.2933
 2762SOL    HW311094   3.006   4.612   4.594  0.6435  0.0815  1.9480
 2762SOL    MW411095   3.066   4.667   4.563 -0.1690  0.0818  0.2961
 2763SOL     OW11096   3.726   2.553   4.455 -0.6393  0.2862 -0.7680
 2763SOL    HW211097   3.804   2.604   4.476  1.1164 -1.9604 -1.5955
 2763SOL    HW311098   3.681   2.603   4.387 -1.4102  2.9447  1.6041
 2763SOL    MW411099   3.730   2.566   4.449 -0.5095  0.3407 -0.5646
 2764SOL     OW11100   0.265   1.636   4.214  0.1507 -0.0711  0.1602
 2764SOL    HW211101   0.356   1.664   4.224  0.6797 -1.5132 -0.4316
 2764SOL    HW311102   0.262   1.550   4.257 -1.1525  0.3624  0.9510
 2764SOL    MW411103   0.277   1.628   4.221  0.0485 -0.2041  0.1864
 2765SOL     OW11104   0.500   1.284   4.195  0.2095 -0.4709 -0.2569
 2765SOL    HW211105   0.485   1.232   4.116 -0.6776 -0.9765  0.2371
 2765SOL    HW311106   0.413   1.313   4.222  0.4707 -0.6219  0.7611
 2765SOL    MW411107   0.486   1.281   4.188  0.1270 -0.5575 -0.0572
 2766SOL     OW11108   2.452   4.455   4.663  0.5709  0.0464  0.6801
 2766SOL    HW211109   2.523   4.464   4.599  1.1874  1.1868  1.5146
 2766SOL    HW311110   2.390   4.524   4.638  0.2307 -0.3003  0.5678
 2766SOL    MW411111   2.453   4.466   4.651  0.6073  0.1512  0.7753
 2767SOL     OW11112   2.316   0.630   4.501 -0.2462  0.0881  0.6873
 2767SOL    HW211113   2.403   0.670   4.489 -0.4852  0.3805 -0.0565
 2767SOL    HW311114   2.255   0.704   4.500 -0.8260 -0.3962 -2.0295
 2767SOL    MW411115   2.320   0.645   4.500 -0.3543  0.0628  0.2308
 2768SOL     OW11116   1.084   4.574   4.626  0.0216  0.3826 -0.0271
 2768SOL    HW211117   1.180   4.573   4.635 -0.0254  2.2304  0.9026
 2768SOL    HW311118   1.055   4.499   4.679  0.8588  0.9950  1.3417
 2768SOL    MW411119   1.093   4.564   4.634  0.1259  0.7067  0.2761
 2769SOL     OW11120   0.774   4.326   4.658  0.0039 -0.5353 -0.4373
 2769SOL    HW211121   0.810   4.376   4.585 -0.8745  0.9476  0.1100
 2769SOL    HW311122   0.744   4.244   4.619 -0.1108  0.0796 -1.6611
 2769SOL    MW411123   0.775   4.322   4.643 -0.1271 -0.2580 -0.5269
 2770SOL     OW11124   1.812   2.735   4.119 -0.1294  0.0444 -0.6069
 2770SOL    HW211125   1.819   2.820   4.162 -2.7374 -0.4662  0.9180
 2770SOL    HW311126   1.887   2.685   4.152 -0.0623  0.8728  0.5359
 2770SOL    MW411127   1.823   2.739   4.129 -0.4648  0.0861 -0.2551
 2771SOL     OW11128   2.960   0.278   4.219  0.0783 -0.4501  0.5944
 2771SOL    HW211129   3.027   0.340   4.191  0.6574 -1.2523  0.2036
 2771SOL    HW311130   2.877   0.322   4.197  0.3934  1.4884  3.0697
 2771SOL    MW411131   2.958   0.292   4.212  0.1960 -0.3002  0.8693
 2772SOL     OW11132   2.919   0.020   4.138 -0.3468 -0.2620  0.5148
 2772SOL    HW211133   2.989  -0.035   4.172  1.3204  0.7800 -1.1592
 2772SOL    HW311134   2.932   0.105   4.180 -1.0935 -0.2863  0.8060
 2772SOL    MW411135   2.930   0.024   4.148 -0.2255 -0.1283  0.3328
 2773SOL     OW11136   1.366   4.029   4.547 -0.0090 -0.0544 -0.1899
 2773SOL    HW211137   1.379   4.064   4.635 -1.0599 -0.8683  0.2941
 2773SOL    HW311138   1.400   3.939   4.552 -1.3546 -0.5719 -0.2279
 2773SOL    MW411139   1.372   4.022   4.560 -0.3252 -0.2308 -0.1311
 2774SOL     OW11140   3.639   1.448   4.489  0.1505  0.2350 -0.6836
 2774SOL    HW211141   3.574   1.394   4.535  0.6856 -0.4400 -0.7046
 2774SOL    HW311142   3.613   1.538   4.507 -1.1442 -0.0318 -1.2050
 2774SOL    MW411143   3.627   1.453   4.498  0.0505  0.1107 -0.7553
 2775SOL     OW11144   0.701   3.859   4.165  0.1743 -0.1070 -1.0147
 2775SOL    HW211145   0.785   3.826   4.198  0.5130 -0.6140 -2.3729
 2775SOL    HW311146   0.712   3.863   4.070 -1.5044 -0.6574 -1.2504
 2775SOL    MW411147   0.714   3.855   4.157 -0.0025 -0.2465 -1.2250
 2776SOL     OW11148   0.084   1.826   4.340 -0.1600  0.1050 -0.2284
 2776SOL    HW211149   0.038   1.750   4.375 -1.1828  0.1681 -1.4148
 2776SOL    HW311150   0.158   1.789   4.291 -0.9446 -0.1725 -1.2311
 2776SOL    MW411151   0.088   1.811   4.338 -0.3985  0.0768 -0.5174
 2777SOL     OW11152   0.258   3.767   4.806  0.0841  0.0411 -0.0760
 2777SOL    HW211153   0.202   3.842   4.782  1.6201  0.9257 -0.9569
 2777SOL    HW311154   0.346   3.803   4.810  0.8136 -1.6801 -0.2398
 2777SOL    MW411155   0.262   3.782   4.803  0.3830 -0.0694 -0.2136
 2778SOL     OW11156   0.392   3.952   4.509 -0.2923 -0.1243 -0.1278
 2778SOL    HW211157   0.461   3.935   4.445 -0.9059 -1.1028 -0.5316
 2778SOL    HW311158   0.376   4.046   4.503  1.4844  0.2387  0.4598
 2778SOL    MW411159   0.399   3.962   4.500 -0.1388 -0.2055 -0.1040
 2779SOL     OW11160   3.616   0.167   3.797 -0.1758  0.0304  0.2389
 2779SOL    HW211161   3.678   0.097   3.819 -0.5163 -0.3119  0.1154
 2779SOL    HW311162   3.604   0.159   3.702 -0.2975  0.1895  0.2415
 2779SOL    MW411163   3.622   0.157   3.787 -0.2367  0.0063  0.2229
 2780SOL     OW11164   3.120   1.670   3.797 -0.2687  0.5548 -0.0492
 2780SOL    HW211165   3.041   1.635   3.837 -0.4382  0.8823 -0.0978
 2780SOL    HW311166   3.110   1.655   3.703  0.0222  0.0018  0.0089
 2780SOL    MW411167   3.108   1.664   3.790 -0.2527  0.5251 -0.0482
 2781SOL     OW11168   0.045   3.772   4.225 -0.3090  0.5515  0.0213
 2781SOL    HW211169   0.074   3.789   4.315 -1.3955  1.0549  0.2807
 2781SOL    HW311170  -0.043   3.809   4.221 -0.2622  0.5258 -1.2552
 2781SOL    MW411171   0.037   3.779   4.237 -0.4462  0.6146 -0.1135
 2782SOL     OW11172   4.368   2.390   4.678  0.1533 -0.0136  0.0571
 2782SOL    HW211173   4.279   2.424   4.663 -0.2953 -1.2488 -0.1498
 2782SOL    HW311174   4.425   2.465   4.661 -0.7651  0.4391 -1.1306
 2782SOL    MW411175   4.364   2.404   4.673 -0.0267 -0.1166 -0.1268
 2783SOL     OW11176   2.091   3.633   3.830 -0.1601  0.1607 -0.5815
 2783SOL    HW211177   2.094   3.625   3.735 -0.6668 -1.0658 -0.5017
 2783SOL    HW311178   2.171   3.590   3.861 -0.8488 -0.9885 -0.3696
 2783SOL    MW411179   2.102   3.626   3.822 -0.3176 -0.1528 -0.5426
 2784SOL     OW11180   0.856   0.531   4.781  0.0228 -0.4603  0.3992
 2784SOL    HW211181   0.913   0.500   4.710 -0.9245 -3.1175  0.7406
 2784SOL    HW311182   0.905   0.511   4.861  0.0246  0.2841  0.5877
 2784SOL    MW411183   0.870   0.524   4.782 -0.1019 -0.7127  0.4697
 2785SOL     OW11184   0.952   0.386   4.174 -0.1568 -0.1762  0.1392
 2785SOL    HW211185   1.026   0.336   4.208  1.8322  2.1351 -0.6822
 2785SOL    HW311186   0.957   0.470   4.218 -1.3039  0.6039 -1.1801
 2785SOL    MW411187   0.962   0.390   4.184 -0.0457  0.2317 -0.1431
 2786SOL     OW11188   3.159   2.450   4.565 -0.2823  0.1751  0.2762
 2786SOL    HW211189   3.204   2.366   4.580 -0.8848 -0.3534 -0.8486
 2786SOL    HW311190   3.078   2.443   4.614 -0.5413 -0.0785 -0.1893
 2786SOL    MW411191   3.154   2.438   4.574 -0.3960  0.0718  0.0663
 2787SOL     OW11192   2.723   3.537   3.868 -0.2612  0.1852  0.1454
 2787SOL    HW211193   2.737   3.542   3.963 -1.5792 -0.8158  0.4153
 2787SOL    HW311194   2.649   3.595   3.851 -0.6217 -0.3397 -0.1195
 2787SOL    MW411195   2.715   3.545   3.878 -0.4826 -0.0162  0.1459
 2788SOL     OW11196   3.888   1.526   4.110  0.1173 -0.0238 -0.0445
 2788SOL    HW211197   3.806   1.483   4.132 -0.2065 -0.2865 -1.6963
 2788SOL    HW311198   3.881   1.613   4.150 -1.8841  0.7258 -1.9330
 2788SOL    MW411199   3.877   1.532   4.118 -0.1898  0.0404 -0.5121
 2789SOL     OW11200   0.259   1.572   3.917  0.1473  0.1448 -0.1070
 2789SOL    HW211201   0.178   1.617   3.894 -0.5839 -1.3189 -0.4662
 2789SOL    HW311202   0.259   1.569   4.013 -0.5135 -0.3732 -0.1220
 2789SOL    MW411203   0.249   1.578   3.927 -0.0364 -0.1167 -0.1566
 2790SOL     OW11204   2.459   0.042   3.886 -0.6010 -0.1203  0.2652
 2790SOL    HW211205   2.537   0.091   3.862 -0.9193  0.5569  0.6026
 2790SOL    HW311206   2.388   0.082   3.837 -0.9556  0.1304  0.9686
 2790SOL    MW411207   2.460   0.054   3.877 -0.6897  0.0022  0.4025
 2791SOL     OW11208   0.936   4.271   3.824  0.1831  0.3817 -0.4023
 2791SOL    HW211209   0.928   4.243   3.916  1.3498  2.0395  0.2386
 2791SOL    HW311210   0.927   4.191   3.773 -1.4609 -0.4276  1.1239
 2791SOL    MW411211   0.934   4.257   3.830  0.1200  0.4935 -0.1163
 2792SOL     OW11212   3.440   2.582   4.951 -0.0094 -0.2147  0.1711
 2792SOL    HW211213   3.481   2.627   4.877  0.8170 -0.1973  0.6278
 2792SOL    HW311214   3.481   2.621   5.028  1.1421 -2.1417  0.5683
 2792SOL    MW411215   3.451   2.593   4.952  0.2518 -0.4668  0.2837
 2793SOL     OW11216   0.498   1.742   4.295  0.0680  0.7925 -0.2577
 2793SOL    HW211217   0.513   1.741   4.390  0.0808  0.5132 -0.2628
 2793SOL    HW311218   0.546   1.666   4.263 -2.1419 -0.6936 -0.1460
 2793SOL    MW411219   0.506   1.732   4.304 -0.2220  0.5596 -0.2441
 2794SOL     OW11220   1.809   1.939   4.107  0.2677  0.3250 -0.6427
 2794SOL    HW211221   1.808   2.034   4.111  0.2687  0.2732  0.6393
 2794SOL    HW311222   1.809   1.919   4.013  0.1640  1.5780 -0.9132
 2794SOL    MW411223   1.809   1.949   4.095  0.2543  0.4833 -0.5097
 2795SOL     OW11224   3.499   4.348   4.518 -0.2120 -0.4247 -0.0728
 2795SOL    HW211225   3.410   4.382   4.525 -0.1956 -0.4115  0.0771
 2795SOL    HW311226   3.530   4.377   4.433 -0.2142 -0.1081  0.0367
 2795SOL    MW411227   3.492   4.356   4.508 -0.2105 -0.3810 -0.0386
 2796SOL     OW11228   3.863   4.143   4.501  0.5629 -0.3149 -0.0841
 2796SOL    HW211229   3.847   4.159   4.407 -0.1784 -1.6294 -0.1846
 2796SOL    HW311230   3.842   4.227   4.543  1.0767  0.3433 -1.1066
 2796SOL    MW411231   3.858   4.156   4.494  0.5329 -0.4010 -0.2322
 2797SOL     OW11232   4.078   4.252   4.111 -0.1906  0.2901  0.1418
 2797SOL    HW211233   4.092   4.233   4.018 -0.2411 -1.3248  0.4475
 2797SOL    HW311234   4.156   4.219   4.155 -1.3495 -1.4769  0.9580
 2797SOL    MW411235   4.090   4.245   4.105 -0.3505 -0.1559  0.2899
 2798SOL     OW11236   2.490   2.351   3.870 -0.3112 -0.1209 -0.1534
 2798SOL    HW211237   2.478   2.330   3.963 -2.2364 -1.4002 -0.6641
 2798SOL    HW311238   2.415   2.407   3.848 -0.4989 -0.7647 -1.1985
 2798SOL    MW411239   2.478   2.355   3.880 -0.5901 -0.3748 -0.3586
 2799SOL     OW11240   2.204   2.756   4.139  0.6134 -0.3592  0.1912
 2799SOL    HW211241   2.284   2.719   4.176  0.1035 -1.2845  0.3744
 2799SOL    HW311242   2.179   2.825   4.200  0.6783 -0.7916  0.7061
 2799SOL    MW411243   2.211   2.760   4.152  0.5548 -0.5383  0.2837
 2800SOL     OW11244   2.912   2.854   3.801  0.1373 -0.1679  0.5263
 2800SOL    HW211245   2.844   2.797   3.837  0.5403 -1.2914 -0.4444
 2800SOL    HW311246   2.992   2.828   3.845  0.2921 -0.2324  0.2120
 2800SOL    MW411247   2.913   2.843   3.811  0.2110 -0.3245  0.3569
 2801SOL     OW11248   1.374   3.509   3.840  0.3141 -0.1192  0.0943
 2801SOL    HW211249   1.285   3.533   3.812 -0.3047 -1.6775  0.6682
 2801SOL    HW311250   1.387   3.556   3.922 -0.6240 -1.1592  0.8545
 2801SOL    MW411251   1.364   3.519   3.847  0.1086 -0.4623  0.2701
 2802SOL     OW11252   3.316   3.549   4.580  0.2277 -0.1758  0.0255
 2802SOL    HW211253   3.349   3.591   4.501 -0.9502 -0.3071 -0.5620
 2802SOL    HW311254   3.253   3.612   4.616 -1.2048 -1.2040 -0.6082
 2802SOL    MW411255   3.312   3.563   4.575 -0.1168 -0.3290 -0.1359
 2803SOL     OW11256   0.697   0.043   4.117  0.2223 -0.5535 -0.8751
 2803SOL    HW211257   0.690   0.027   4.023  0.6896 -0.1923 -0.9711
 2803SOL    HW311258   0.625  -0.008   4.156 -1.4522  1.1961 -1.6270
 2803SOL    MW411259   0.687   0.034   4.110  0.0630 -0.2751 -0.9871
 2804SOL     OW11260   2.659   3.797   4.521 -0.3872  0.5886 -0.0833
 2804SOL    HW211261   2.651   3.803   4.426  1.5501 -1.3067 -0.3893
 2804SOL    HW311262   2.752   3.785   4.537 -0.8760 -0.7396  1.9856
 2804SOL    MW411263   2.670   3.796   4.511 -0.1960  0.1633  0.1488
 2805SOL     OW11264   1.583   4.301   4.452 -0.4876 -0.3795 -0.0760
 2805SOL    HW211265   1.496   4.337   4.469  0.4801  1.4008  1.2699
 2805SOL    HW311266   1.601   4.247   4.529 -0.1311 -0.2133 -0.0419
 2805SOL    MW411267   1.574   4.299   4.465 -0.3128 -0.1225  0.1059
 2806SOL     OW11268   4.099   3.764   4.524  0.1947  0.1379 -0.6703
 2806SOL    HW211269   4.183   3.723   4.543  0.9543  0.8988 -2.2721
 2806SOL    HW311270   4.035   3.693   4.532  0.6627  0.0592  2.8300
 2806SOL    MW411271   4.102   3.749   4.527  0.3567  0.2279 -0.4196
 2807SOL     OW11272   3.311   0.569   4.530 -0.3729 -0.6804 -0.3843
 2807SOL    HW211273   3.367   0.494   4.513  1.1855  0.1515  0.9412
 2807SOL    HW311274   3.245   0.536   4.592 -0.0458 -1.1076 -0.2598
 2807SOL    MW411275   3.310   0.555   4.536 -0.1242 -0.6270 -0.1931
 2808SOL     OW11276   1.941   3.747   4.458 -0.7572  0.1047  0.1404
 2808SOL    HW211277   1.936   3.838   4.489  0.9420  0.4665 -0.6082
 2808SOL    HW311278   1.958   3.753   4.365 -2.5244 -1.0086 -0.2851
 2808SOL    MW411279   1.943   3.760   4.450 -0.7660  0.0057 -0.0143
 2809SOL     OW11280   3.845   1.804   4.253 -0.0322  0.0215  0.2771
 2809SOL    HW211281   3.860   1.800   4.347  0.8257 -1.0232  0.1047
 2809SOL    HW311282   3.750   1.793   4.243 -0.5335  3.2326  1.1776
 2809SOL    MW411283   3.835   1.802   4.264  0.0148  0.3073  0.3729
 2810SOL     OW11284   3.394   4.663   3.872 -0.2586 -0.1205  0.0268
 2810SOL    HW211285   3.466   4.712   3.831 -0.1938 -2.0254 -2.2109
 2810SOL    HW311286   3.316   4.715   3.852  0.3650  1.7197  2.0820
 2810SOL    MW411287   3.393   4.676   3.864 -0.1676 -0.1291  0.0026
 2811SOL     OW11288   3.558   2.650   4.676  0.1978 -0.2930  0.4784
 2811SOL    HW211289   3.479   2.666   4.625  0.5204  0.7360  0.2851
 2811SOL    HW311290   3.607   2.585   4.626 -0.2634 -0.5204  0.3210
 2811SOL    MW411291   3.554   2.644   4.663  0.1795 -0.1869  0.4320
 2812SOL     OW11292   1.117   1.524   3.919  0.1748 -0.7529  0.9744
 2812SOL    HW211293   1.183   1.583   3.881 -0.6100 -0.4816  0.0144
 2812SOL    HW311294   1.122   1.445   3.866 -0.9047 -0.3856  0.3187
 2812SOL    MW411295   1.126   1.521   3.907 -0.0713 -0.6688  0.7613
 2813SOL     OW11296   0.957   0.824   4.521 -0.0077  0.3340  0.7407
 2813SOL    HW211297   1.045   0.839   4.556  0.1881  1.9699 -0.3977
 2813SOL    HW311298   0.966   0.745   4.468  0.4671 -0.2554  1.6835
 2813SOL    MW411299   0.970   0.815   4.518  0.0808  0.4721  0.7153
 2814SOL     OW11300   2.892   3.901   3.850  0.1756 -0.0762 -0.2651
 2814SOL    HW211301   2.892   3.812   3.814  0.5985  0.1816 -0.9105
 2814SOL    HW311302   2.979   3.935   3.830  0.5907 -0.1018  1.4611
 2814SOL    MW411303   2.903   3.894   3.843  0.2863 -0.0458 -0.1225
 2815SOL     OW11304   2.036   1.278   3.500  0.0603 -0.1699 -0.3151
 2815SOL    HW211305   2.111   1.221   3.483  0.1754 -0.5663  1.4169
 2815SOL    HW311306   2.041   1.296   3.594 -0.7440  1.6057 -0.5893
 2815SOL    MW411307   2.047   1.273   3.510 -0.0305  0.0122 -0.1228
 2816SOL     OW11308   0.714   3.111   4.179 -0.0213 -0.2375 -0.0633
 2816SOL    HW211309   0.632   3.076   4.213 -0.5853  1.5625  0.4746
 2816SOL    HW311310   0.701   3.114   4.084 -0.8730  0.7610  0.0779
 2816SOL    MW411311   0.702   3.107   4.171 -0.2081  0.1318  0.0262
 2817SOL     OW11312   2.525   2.871   3.782  0.3953  0.3986  0.4684
 2817SOL    HW211313   2.450   2.822   3.816  2.4370 -1.9459  1.7585
 2817SOL    HW311314   2.516   2.867   3.687 -1.0165  0.0115  0.6107
 2817SOL    MW411315   2.514   2.864   3.774  0.4783  0.0384  0.6571
 2818SOL     OW11316   1.631   1.048   4.213 -0.1310  0.7143 -0.4768
 2818SOL    HW211317   1.714   1.085   4.183  0.2110 -0.5362 -1.1060
 2818SOL    HW311318   1.645   1.030   4.306  0.6265 -0.3335 -0.7795
 2818SOL    MW411319   1.644   1.051   4.221  0.0141  0.4112 -0.5999
 2819SOL     OW11320   3.571   2.457   3.835  0.6979 -0.3641  0.3350
 2819SOL    HW211321   3.595   2.451   3.743  1.5876  0.4081  0.5037
 2819SOL    HW311322   3.484   2.416   3.841 -0.2878  1.4355 -1.2086
 2819SOL    MW411323   3.563   2.451   3.824  0.6852 -0.0248  0.1535
 2820SOL     OW11324   1.581   3.865   3.872  0.4061 -0.3252 -0.1103
 2820SOL    HW211325   1.600   3.784   3.824 -0.4966 -1.4832  1.4222
 2820SOL    HW311326   1.599   3.842   3.963  3.6846  2.3134 -0.0078
 2820SOL    MW411327   1.586   3.851   3.878  0.7195 -0.1299  0.1054
 2821SOL     OW11328   3.336   3.091   3.884  0.1411 -0.0078  0.5858
 2821SOL    HW211329   3.411   3.149   3.867 -1.1663  1.1741 -1.3143
 2821SOL    HW311330   3.337   3.079   3.979  2.0287  0.9579  0.7258
 2821SOL    MW411331   3.346   3.097   3.894  0.2179  0.2754  0.3536
 2822SOL     OW11332   1.770   4.484   4.489  0.6837 -0.0435  0.8611
 2822SOL    HW211333   1.756   4.514   4.578 -2.3276 -0.4216  0.5805
 2822SOL    HW311334   1.697   4.424   4.472  0.4800  0.9645 -2.2288
 2822SOL    MW411335   1.759   4.480   4.498  0.2595  0.0396  0.4163
 2823SOL     OW11336   1.615   3.756   4.130 -0.0536 -0.2950  0.4146
 2823SOL    HW211337   1.635   3.802   4.211 -2.0738 -0.7112  1.1914
 2823SOL    HW311338   1.668   3.677   4.134  1.3986  0.6630  0.3482
 2823SOL    MW411339   1.625   3.752   4.141 -0.1285 -0.2234  0.5083
 2824SOL     OW11340   0.138   1.473   4.543 -0.1032 -0.2638 -0.5565
 2824SOL    HW211341   0.144   1.408   4.614 -0.4105  2.1187  1.7032
 2824SOL    HW311342   0.184   1.550   4.577 -0.6230  1.0546 -2.7865
 2824SOL    MW411343   0.145   1.474   4.557 -0.2123  0.2245 -0.5527
 2825SOL     OW11344   0.474   1.173   4.809  0.2337  0.3283 -0.0896
 2825SOL    HW211345   0.554   1.206   4.768  0.7107  0.7872  1.1739
 2825SOL    HW311346   0.476   1.079   4.796  1.2717  0.2766  0.4179
 2825SOL    MW411347   0.485   1.165   4.802  0.4336  0.3819  0.1445
 2826SOL     OW11348   1.288   1.774   4.562 -0.2094 -0.2951 -0.0366
 2826SOL    HW211349   1.309   1.682   4.549  0.6730  0.1201 -1.7510
 2826SOL    HW311350   1.357   1.807   4.619 -0.1850 -0.5724  0.0922
 2826SOL    MW411351   1.300   1.767   4.567 -0.0899 -0.2770 -0.2465
 2827SOL     OW11352   1.415   4.547   4.704 -0.6298 -0.1899  0.6313
 2827SOL    HW211353   1.406   4.641   4.712 -0.2642 -0.0757 -0.2303
 2827SOL    HW311354   1.509   4.531   4.718 -0.6673 -0.4153  0.6306
 2827SOL    MW411355   1.426   4.557   4.707 -0.5865 -0.2041  0.5178
 2828SOL     OW11356   2.678   1.934   3.877  0.0213 -0.5032 -0.2687
 2828SOL    HW211357   2.614   1.989   3.831 -0.5119 -1.6718 -0.9239
 2828SOL    HW311358   2.668   1.960   3.969 -0.5449  0.1781 -0.5090
 2828SOL    MW411359   2.668   1.945   3.883 -0.1237 -0.5676 -0.3867
 2829SOL     OW11360   0.662   2.918   4.589 -0.0525  0.3546 -0.1924
 2829SOL    HW211361   0.658   2.994   4.648  0.0983  0.5296 -0.4073
 2829SOL    HW311362   0.581   2.924   4.537 -1.1885 -0.9181  1.3666
 2829SOL    MW411363   0.651   2.929   4.590 -0.1824  0.2098 -0.0153
 2830SOL     OW11364   4.153   2.715   4.174  0.3934  0.3540  0.0338
 2830SOL    HW211365   4.243   2.747   4.171  0.2322  1.2463  3.4233
 2830SOL    HW311366   4.160   2.627   4.212 -0.1298  0.2177 -0.1810
 2830SOL    MW411367   4.166   2.707   4.178  0.3037  0.4537  0.4530
 2831SOL     OW11368   1.022   3.671   4.514 -0.0725  0.1770  0.5944
 2831SOL    HW211369   1.103   3.642   4.473 -1.4822 -0.3950 -1.8744
 2831SOL    HW311370   1.008   3.609   4.586  1.4139  0.0040  0.7548
 2831SOL    MW411371   1.031   3.659   4.518 -0.0623  0.0784  0.2899
 2832SOL     OW11372   4.044   0.589   4.299  0.0278  0.3532 -0.4240
 2832SOL    HW211373   4.007   0.625   4.379  0.4182 -1.3200  0.5314
 2832SOL    HW311374   4.131   0.629   4.292  0.2825 -0.0446  0.3975
 2832SOL    MW411375   4.051   0.599   4.308  0.1130  0.0800 -0.1888
 2833SOL     OW11376   3.507   2.139   4.528  0.3846 -0.2464 -0.3992
 2833SOL    HW211377   3.581   2.200   4.532  1.1776 -1.1697 -0.9412
 2833SOL    HW311378   3.474   2.147   4.438 -0.1822  0.1615 -0.1594
 2833SOL    MW411379   3.513   2.148   4.517  0.4141 -0.3142 -0.4396
 2834SOL     OW11380   2.661   1.667   3.801 -0.1780  0.1663 -0.0089
 2834SOL    HW211381   2.721   1.610   3.850  0.1650  1.4551  1.1198
 2834SOL    HW311382   2.674   1.754   3.840 -0.4573  1.0897 -1.9085
 2834SOL    MW411383   2.671   1.671   3.813 -0.1695  0.4581 -0.1109
 2835SOL     OW11384   2.000   3.838   4.190  0.2033 -0.2157  0.2402
 2835SOL    HW211385   2.083   3.795   4.208 -0.0685 -1.3126 -0.9690
 2835SOL    HW311386   2.001   3.854   4.095 -0.8263  0.0299  0.2586
 2835SOL    MW411387   2.011   3.834   4.180  0.0312 -0.3281  0.0830
 2836SOL     OW11388   2.739   1.176   3.859  0.0311  0.0813  0.4237
 2836SOL    HW211389   2.656   1.211   3.825 -0.5427 -0.8569  0.8417
 2836SOL    HW311390   2.736   1.083   3.838  2.0035  0.4302 -1.5902
 2836SOL    MW411391   2.728   1.168   3.852  0.2158  0.0036  0.2131
 2837SOL     OW11392   4.427   0.394   4.430 -0.1680 -0.4517 -0.1160
 2837SOL    HW211393   4.408   0.472   4.483  0.7206  0.9409 -1.8014
 2837SOL    HW311394   4.516   0.369   4.455 -0.7764 -1.5050  1.0862
 2837SOL    MW411395   4.436   0.401   4.440 -0.1307 -0.4069 -0.1793
 2838SOL     OW11396   3.130   2.718   3.930 -0.4522  0.0262 -0.1827
 2838SOL    HW211397   3.118   2.652   3.863 -0.1328 -1.0556  0.8154
 2838SOL    HW311398   3.207   2.768   3.902  0.3257 -1.1011 -0.0724
 2838SOL    MW411399   3.139   2.716   3.917 -0.3073 -0.2651 -0.0365
 2839SOL     OW11400   1.633   1.731   4.902 -0.5179 -0.2639 -0.3393
 2839SOL    HW211401   1.718   1.713   4.863 -0.9580  0.1807 -1.5184
 2839SOL    HW311402   1.605   1.646   4.936 -0.2024 -0.7092 -1.1562
 2839SOL    MW411403   1.640   1.717   4.901 -0.5343 -0.2640 -0.6027
 2840SOL     OW11404   3.606   1.933   3.897  0.4922  0.0793  0.2132
 2840SOL    HW211405   3.606   1.843   3.865 -0.0803  0.5039 -1.0022
 2840SOL    HW311406   3.528   1.972   3.858  0.2524  0.8569  1.4469
 2840SOL    MW411407   3.595   1.926   3.888  0.3853  0.2379  0.2155
 2841SOL     OW11408   4.333   3.913   4.773 -0.1173  0.1074  0.1957
 2841SOL    HW211409   4.308   3.824   4.745 -0.3550  0.3020 -0.2264
 2841SOL    HW311410   4.259   3.967   4.747  0.2087  0.4971  0.0762
 2841SOL    MW411411   4.320   3.908   4.765 -0.1054  0.1845  0.1245
 2842SOL     OW11412   2.668   4.407   4.471  0.1469 -0.2531 -0.0026
 2842SOL    HW211413   2.717   4.324   4.467  1.6956  0.5698  1.4998
 2842SOL    HW311414   2.670   4.439   4.381 -0.0744 -1.6207 -0.5160
 2842SOL    MW411415   2.675   4.400   4.458  0.3219 -0.3252  0.1278
 2843SOL     OW11416   3.862   1.287   4.444 -0.1810  0.0852 -0.0915
 2843SOL    HW211417   3.901   1.323   4.365 -0.7970  0.2305 -0.3354
 2843SOL    HW311418   3.803   1.356   4.476  1.1522  0.6148  1.3200
 2843SOL    MW411419   3.859   1.301   4.438 -0.0868  0.1742  0.0625
 2844SOL     OW11420   1.499   1.869   4.703  0.0680  0.4072 -0.3534
 2844SOL    HW211421   1.515   1.963   4.700 -0.1473  0.4620  0.1081
 2844SOL    HW311422   1.542   1.840   4.784 -0.2424  0.1804 -0.2708
 2844SOL    MW411423   1.507   1.877   4.713 -0.0013  0.3844 -0.2818
 2845SOL     OW11424   1.355   1.949   3.884 -0.0011 -0.1434 -0.2563
 2845SOL    HW211425   1.351   1.960   3.979  0.2744 -0.9335 -0.1443
 2845SOL    HW311426   1.279   1.996   3.850  0.7850  1.4899  0.2297
 2845SOL    MW411427   1.345   1.956   3.892  0.1389 -0.0322 -0.1774
 2846SOL     OW11428   0.451   0.675   4.260 -0.1464 -0.5074 -0.2966
 2846SOL    HW211429   0.485   0.737   4.325  0.3313 -0.9775 -0.0885
 2846SOL    HW311430   0.381   0.722   4.216 -0.3346 -0.1080  0.4209
 2846SOL    MW411431   0.446   0.689   4.263 -0.1082 -0.5167 -0.1745
 2847SOL     OW11432   4.371   0.330   3.900  0.0997  0.1525 -0.4078
 2847SOL    HW211433   4.373   0.412   3.852  1.3898  1.3067  1.5642
 2847SOL    HW311434   4.397   0.353   3.989 -2.4576 -1.8872  0.9380
 2847SOL    MW411435   4.375   0.344   3.905 -0.0677  0.0356  0.0298
 2848SOL     OW11436   2.076   1.663   4.545  0.5116 -0.1010  0.0578
 2848SOL    HW211437   2.003   1.697   4.493  0.1384 -2.1465 -0.7952
 2848SOL    HW311438   2.150   1.718   4.521 -0.4445  1.1658 -0.0460
 2848SOL    MW411439   2.076   1.675   4.535  0.3362 -0.2037 -0.0682
 2849SOL     OW11440   3.168   2.682   4.862 -0.0226  0.1177 -0.0551
 2849SOL    HW211441   3.200   2.766   4.827  2.1175 -0.1143  1.2969
 2849SOL    HW311442   3.240   2.649   4.916 -1.1174 -2.2699 -0.0003
 2849SOL    MW411443   3.182   2.689   4.865  0.1156 -0.2279  0.1307
 2850SOL     OW11444   4.108   2.476   4.620  0.2109 -1.3943 -0.1460
 2850SOL    HW211445   4.054   2.554   4.607  1.1448 -0.9436 -1.4608
 2850SOL    HW311446   4.045   2.404   4.632 -0.6525 -0.5008  0.8297
 2850SOL    MW411447   4.093   2.477   4.620  0.2198 -1.2169 -0.1912
 2851SOL     OW11448   4.061   4.528   4.187 -0.2842 -0.6411 -0.1804
 2851SOL    HW211449   4.052   4.440   4.149 -1.4850  0.3046 -2.1747
 2851SOL    HW311450   4.152   4.552   4.169  0.4823 -2.0611  1.7135
 2851SOL    MW411451   4.072   4.519   4.179 -0.3414 -0.7038 -0.1936
 2852SOL     OW11452   3.803   1.762   4.742 -0.2617  0.2538 -0.1428
 2852SOL    HW211453   3.719   1.809   4.738 -0.3853 -0.0633 -1.2974
 2852SOL    HW311454   3.779   1.672   4.763 -0.2235  0.1094 -0.7274
 2852SOL    MW411455   3.789   1.757   4.744 -0.2730  0.1928 -0.3719
 2853SOL     OW11456   4.051   1.136   3.886 -0.1333 -0.6129  0.1061
 2853SOL    HW211457   3.985   1.174   3.828 -0.2614 -0.6648  0.2163
 2853SOL    HW311458   4.131   1.187   3.869  0.3374 -1.8738 -1.4951
 2853SOL    MW411459   4.053   1.148   3.876 -0.0882 -0.7861 -0.0906
 2854SOL     OW11460   0.485   4.421   4.619 -0.1377 -0.2135 -0.1034
 2854SOL    HW211461   0.435   4.451   4.695 -1.7853 -0.8973 -0.8808
 2854SOL    HW311462   0.569   4.392   4.655 -0.4200  0.6301  1.2789
 2854SOL    MW411463   0.489   4.421   4.633 -0.3923 -0.1917 -0.0238
 2855SOL     OW11464   3.129   3.480   3.852  0.5817  0.0980 -0.6242
 2855SOL    HW211465   3.081   3.542   3.797 -0.4689  0.1031  0.2775
 2855SOL    HW311466   3.119   3.396   3.806  0.3900  0.2464 -0.8587
 2855SOL    MW411467   3.121   3.477   3.838  0.4182  0.1183 -0.5364
 2856SOL     OW11468   0.199   3.352   4.280  0.0624  0.0713 -0.2173
 2856SOL    HW211469   0.188   3.362   4.375 -2.7375  1.7108 -0.6528
 2856SOL    HW311470   0.251   3.428   4.254  1.1840 -0.5990  0.0478
 2856SOL    MW411471   0.204   3.363   4.289 -0.1590  0.1991 -0.2394
 2857SOL     OW11472   2.638   3.357   4.646  0.1759  0.8142 -0.2405
 2857SOL    HW211473   2.668   3.275   4.685 -0.2302  0.9610  0.3813
 2857SOL    HW311474   2.719   3.402   4.621  0.4021  0.2407 -0.5720
 2857SOL    MW411475   2.653   3.352   4.648  0.1519  0.7579 -0.2022
 2858SOL     OW11476   3.806   2.333   3.919  0.3080  0.3435  0.0513
 2858SOL    HW211477   3.818   2.352   4.012  1.4680 -0.0641 -0.0094
 2858SOL    HW311478   3.721   2.373   3.897  0.5047  1.3233  1.0367
 2858SOL    MW411479   3.796   2.341   3.928  0.4869  0.4191  0.1731
 2859SOL     OW11480   0.253   4.164   4.260  0.0985  0.2505 -0.4716
 2859SOL    HW211481   0.277   4.158   4.352  1.4756  0.5706 -0.7943
 2859SOL    HW311482   0.264   4.075   4.226 -0.7222  0.0646 -0.2594
 2859SOL    MW411483   0.258   4.152   4.267  0.1719  0.2685 -0.4864
 2860SOL     OW11484   3.531   3.395   4.307 -0.2307 -0.0612  0.3265
 2860SOL    HW211485   3.500   3.483   4.328 -1.1007 -0.2537 -0.1370
 2860SOL    HW311486   3.610   3.409   4.255 -1.0429  0.4674 -0.7809
 2860SOL    MW411487   3.537   3.408   4.303 -0.4523 -0.0167  0.1197
 2861SOL     OW11488   0.392   0.551   4.529 -0.1555  0.1012  0.0738
 2861SOL    HW211489   0.446   0.495   4.585 -1.5519 -0.4819  0.8656
 2861SOL    HW311490   0.451   0.579   4.459  0.8910 -1.3734  0.3405
 2861SOL    MW411491   0.407   0.547   4.527 -0.2017 -0.1703  0.2136
 2862SOL     OW11492   2.659   4.275   4.098  0.0969 -0.1784  0.6112
 2862SOL    HW211493   2.681   4.362   4.132 -0.2216  0.7462 -1.4743
 2862SOL    HW311494   2.585   4.246   4.152 -0.9940  1.6470  0.1290
 2862SOL    MW411495   2.652   4.282   4.110 -0.0892  0.1850  0.2728
 2863SOL     OW11496   2.256   3.116   4.537 -0.5300 -0.3607 -0.0647
 2863SOL    HW211497   2.224   3.093   4.449 -0.4203 -0.0172 -0.1952
 2863SOL    HW311498   2.281   3.208   4.530 -0.7956 -0.2504  0.4079
 2863SOL    MW411499   2.255   3.125   4.524 -0.5505 -0.3011 -0.0191
 2864SOL     OW11500   2.462   0.018   4.170  0.5427 -0.1049  0.1498
 2864SOL    HW211501   2.462   0.030   4.075  0.0977  1.2386  0.3119
 2864SOL    HW311502   2.468   0.107   4.205 -0.9573 -0.4800  1.4003
 2864SOL    MW411503   2.463   0.031   4.162  0.2859  0.0229  0.3362
 2865SOL     OW11504   1.318   4.430   4.473 -0.3141  0.0667 -0.2294
 2865SOL    HW211505   1.350   4.487   4.403 -0.2282 -1.1903 -1.2288
 2865SOL    HW311506   1.363   4.461   4.551 -0.1168  1.2414 -0.8028
 2865SOL    MW411507   1.329   4.441   4.474 -0.2767  0.0553 -0.4373
 2866SOL     OW11508   4.254   3.378   4.292  0.0101  0.1909  0.5438
 2866SOL    HW211509   4.323   3.438   4.265  0.5528 -1.0337 -0.8774
 2866SOL    HW311510   4.173   3.416   4.256  0.2180  0.5610  0.4717
 2866SOL    MW411511   4.252   3.391   4.284  0.1097  0.0782  0.3467
 2867SOL     OW11512   3.200   1.188   4.186 -0.2691 -0.2314 -0.1830
 2867SOL    HW211513   3.197   1.277   4.220  3.1158 -0.7688  1.7545
 2867SOL    HW311514   3.197   1.198   4.091  1.8519  2.0802 -0.0421
 2867SOL    MW411515   3.199   1.201   4.178  0.4573  0.0029  0.0911
 2868SOL     OW11516   2.077   4.173   4.475  0.4714  0.4951 -0.0294
 2868SOL    HW211517   2.155   4.132   4.511 -1.1055 -1.7524  0.8937
 2868SOL    HW311518   2.071   4.139   4.385  1.1190  1.5018 -0.4655
 2868SOL    MW411519   2.087   4.163   4.468  0.3490  0.3314  0.0358
 2869SOL     OW11520   4.230   3.343   4.562  0.4193  0.9242 -0.4054
 2869SOL    HW211521   4.235   3.374   4.471  0.7318  0.9944 -0.3635
 2869SOL    HW311522   4.137   3.326   4.575 -0.0840  3.8504  0.2230
 2869SOL    MW411523   4.218   3.345   4.551  0.3943  1.3192 -0.3166
 2870SOL     OW11524   0.998   3.175   4.552 -0.1849  0.0438 -0.1469
 2870SOL    HW211525   1.030   3.217   4.472  2.3869 -2.1678 -0.3483
 2870SOL    HW311526   0.997   3.081   4.531 -2.2486 -0.3132  1.4782
 2870SOL    MW411527   1.002   3.168   4.539 -0.1178 -0.2954  0.0415
 2871SOL     OW11528   1.319   1.134   4.532  0.4837 -0.0514  0.2923
 2871SOL    HW211529   1.246   1.193   4.551  0.7694  0.2530  0.4631
 2871SOL    HW311530   1.288   1.079   4.460  0.2662  0.4039  0.0340
 2871SOL    MW411531   1.305   1.135   4.525  0.4927  0.0489  0.2809
 2872SOL     OW11532   4.117   2.862   4.400 -0.2288 -0.4650 -0.0518
 2872SOL    HW211533   4.205   2.846   4.435 -0.2363 -1.3288 -0.4246
 2872SOL    HW311534   4.115   2.814   4.317 -0.9008 -0.0820 -0.2599
 2872SOL    MW411535   4.129   2.853   4.394 -0.3181 -0.5283 -0.1287
 2873SOL     OW11536   3.832   2.066   3.802 -0.4161 -0.5712  0.2823
 2873SOL    HW211537   3.809   2.151   3.841 -0.5105  0.0817 -1.1379
 2873SOL    HW311538   3.756   2.011   3.817 -0.4015 -0.3613  1.1209
 2873SOL    MW411539   3.819   2.070   3.809 -0.4270 -0.4575  0.2055
 2874SOL     OW11540   0.583   1.956   4.151  0.2934  0.2951  0.3405
 2874SOL    HW211541   0.551   1.886   4.209  0.6930 -0.8480 -0.7844
 2874SOL    HW311542   0.527   1.951   4.074  0.7235  0.8157 -0.0097
 2874SOL    MW411543   0.572   1.946   4.148  0.4029  0.2130  0.1459
 2875SOL     OW11544   4.024   3.484   4.178  0.7649 -0.1223 -0.7255
 2875SOL    HW211545   4.018   3.578   4.196 -1.0592 -0.3633  0.0789
 2875SOL    HW311546   3.933   3.455   4.177  1.3356 -1.9390 -0.7184
 2875SOL    MW411547   4.011   3.493   4.180  0.5999 -0.3936 -0.6185
 2876SOL     OW11548   2.041   0.273   4.306 -0.0265  0.1270 -0.0162
 2876SOL    HW211549   2.073   0.255   4.395  0.1911  2.9976  0.5454
 2876SOL    HW311550   2.025   0.187   4.268  0.1133 -1.1542  2.7278
 2876SOL    MW411551   2.043   0.260   4.313  0.0212  0.3367  0.4201
 2877SOL     OW11552   0.110   3.992   4.686  0.0252 -0.1032 -0.4329
 2877SOL    HW211553   0.122   3.929   4.615 -0.8396  0.0153 -0.6887
 2877SOL    HW311554   0.025   3.971   4.723  1.3614 -1.5353  1.9684
 2877SOL    MW411555   0.101   3.981   4.682  0.0874 -0.2766 -0.1502
 2878SOL     OW11556   0.410   3.579   4.562  0.2806 -0.8053 -0.0033
 2878SOL    HW211557   0.416   3.618   4.475 -1.4067  0.4417  0.4116
 2878SOL    HW311558   0.455   3.495   4.554  3.0973  0.7432 -1.1956
 2878SOL    MW411559   0.417   3.573   4.550  0.4296 -0.4365 -0.1063
 2879SOL     OW11560   3.117   3.044   4.502  0.2866  0.1603 -0.4602
 2879SOL    HW211561   3.122   3.135   4.531 -0.0822 -0.2950  1.0420
 2879SOL    HW311562   3.031   3.014   4.531  1.3148 -1.3614  1.0882
 2879SOL    MW411563   3.106   3.052   4.510  0.3738 -0.1004 -0.0572
 2880SOL     OW11564   3.584   1.857   4.163  0.3252 -0.2665  0.2009
 2880SOL    HW211565   3.593   1.900   4.078  1.4457 -0.8934 -0.0036
 2880SOL    HW311566   3.536   1.921   4.217  1.3530  0.9564 -0.3047
 2880SOL    MW411567   3.579   1.871   4.159  0.6089 -0.1879  0.1068
 2881SOL     OW11568   4.416   2.134   4.580  0.5723  0.2342 -0.6122
 2881SOL    HW211569   4.424   2.222   4.617 -0.4237  0.2866 -0.5241
 2881SOL    HW311570   4.323   2.123   4.562  0.7771 -0.5486 -1.2535
 2881SOL    MW411571   4.405   2.144   4.582  0.4678  0.1378 -0.6843
 2882SOL     OW11572   2.256   0.387   4.171 -0.1135  0.2364  0.3530
 2882SOL    HW211573   2.199   0.352   4.239 -0.6134  2.0388  0.9017
 2882SOL    HW311574   2.260   0.481   4.190 -0.1682  0.7478 -2.0261
 2882SOL    MW411575   2.249   0.395   4.182 -0.1867  0.5417  0.1116
 2883SOL     OW11576   1.903   3.316   4.609  0.2017  0.1432  0.7118
 2883SOL    HW211577   1.905   3.221   4.597 -2.3301  0.2013 -0.3031
 2883SOL    HW311578   1.994   3.339   4.628  1.0487 -2.3316 -0.1762
 2883SOL    MW411579   1.916   3.307   4.610 -0.0205 -0.1760  0.4611
 2884SOL     OW11580   3.592   1.962   4.730 -0.5535 -0.3744 -0.3390
 2884SOL    HW211581   3.641   2.030   4.776 -0.5265 -0.6378  0.0271
 2884SOL    HW311582   3.579   1.997   4.642 -0.5876  0.1251 -0.1371
 2884SOL    MW411583   3.597   1.975   4.724 -0.5543 -0.3433 -0.2637
 2885NA      NA11584   0.650   2.572   0.689 -0.0818  0.1129  0.1225
   4.49070   4.66690  10.00000
