Gromacs Runs On Most of All Computer Systems in water
11622
    1U      O5'    1   2.973   2.316   4.623  0.2645 -0.0094 -0.4293
    1U      H5T    2   3.062   2.350   4.627  0.8467 -1.6201  1.2628
    1U      C5'    3   2.917   2.366   4.499 -0.2924 -0.2376 -0.0139
    1U     H5'1    4   2.966   2.315   4.417  0.4028  1.8233 -0.9007
    1U     H5'2    5   2.946   2.470   4.494 -2.5874  0.5993  2.6074
    1U      C4'    6   2.764   2.356   4.489  0.2287 -0.2921 -0.0997
    1U      H4'    7   2.735   2.409   4.398 -0.4897  1.0530  0.8936
    1U      O4'    8   2.713   2.225   4.481 -0.1501  0.1561  0.0770
    1U      C1'    9   2.591   2.222   4.550  0.2455 -0.0715 -0.4229
    1U      H1'   10   2.519   2.258   4.477  0.4869 -1.0171 -1.1286
    1U       N1   11   2.553   2.087   4.597  0.3447  0.0321  0.6493
    1U       C6   12   2.645   1.988   4.622 -0.1838 -0.3436 -0.2079
    1U       H6   13   2.749   2.016   4.619 -0.3379  0.0872 -2.3818
    1U       C5   14   2.606   1.858   4.650 -0.0033 -0.1956 -0.8085
    1U       H5   15   2.677   1.791   4.694 -0.9578  0.1364  1.2978
    1U       C4   16   2.468   1.818   4.630 -0.3403 -0.4564  0.4075
    1U       O4   17   2.418   1.706   4.653 -0.4082 -0.0496  0.0223
    1U       N3   18   2.385   1.923   4.588 -0.0666 -0.3126  0.4205
    1U       H3   19   2.287   1.902   4.576 -0.0531 -0.8320  1.1648
    1U       C2   20   2.419   2.057   4.588  0.0755 -0.1175 -0.1177
    1U       O2   21   2.331   2.139   4.573 -0.4172  0.1501  0.4522
    1U      C3'   22   2.698   2.421   4.616  0.7317  0.1569 -0.2850
    1U      H3'   23   2.771   2.440   4.696  0.8661 -0.5303 -0.2412
    1U      C2'   24   2.606   2.311   4.674  0.7785 -0.3674 -0.3078
    1U     H2'1   25   2.664   2.266   4.756  1.1638  1.6563  0.5648
    1U      O2'   26   2.485   2.372   4.716 -0.0656  0.5040 -0.4078
    1U     HO'2   27   2.494   2.465   4.697  0.8458  0.5529  0.2571
    1U      O3'   28   2.626   2.539   4.578  0.0995 -0.0110  0.0311
    2RG3      P   29   2.689   2.681   4.539  0.1751  0.0590  0.2469
    2RG3    O1P   30   2.569   2.771   4.510 -0.2950  0.6194 -0.0519
    2RG3    O2P   31   2.791   2.664   4.437  0.5873 -0.5105  0.0680
    2RG3    O5'   32   2.761   2.737   4.671 -0.0940 -0.1095 -0.0324
    2RG3    C5'   33   2.696   2.762   4.795  0.2941 -0.0508 -0.2406
    2RG3   H5'1   34   2.687   2.672   4.856 -1.4148 -0.4659 -1.0876
    2RG3   H5'2   35   2.596   2.796   4.769 -0.4086 -2.3493 -0.5891
    2RG3    C4'   36   2.767   2.878   4.867  0.5064 -0.1110 -0.1774
    2RG3    H4'   37   2.711   2.909   4.956  2.3668  1.5030  0.4637
    2RG3    O4'   38   2.894   2.834   4.917  0.3260  0.3220  0.5050
    2RG3    C1'   39   2.998   2.895   4.840 -0.2387  0.1942  0.9787
    2RG3    H1'   40   3.063   2.962   4.897 -0.0139  1.3756 -0.6254
    2RG3     N9   41   3.077   2.794   4.758  0.1817 -0.0417  0.2013
    2RG3     C8   42   3.048   2.661   4.746 -0.6920  0.1128  0.6065
    2RG3     H8   43   2.962   2.611   4.786 -0.1384 -0.6547  0.8529
    2RG3     N7   44   3.153   2.593   4.702 -0.3291 -0.2909  0.6521
    2RG3     C5   45   3.247   2.691   4.665  0.4480 -0.6523  0.0082
    2RG3     C6   46   3.376   2.682   4.603 -0.2757  0.1613  0.0661
    2RG3     O6   47   3.439   2.585   4.552 -0.1787  0.0692 -0.3077
    2RG3     N1   48   3.446   2.802   4.600  0.5603  0.3424 -0.5401
    2RG3     H1   49   3.531   2.801   4.546  0.6669  1.4467 -0.4188
    2RG3     C2   50   3.394   2.920   4.635  0.3119 -0.0622 -0.1183
    2RG3     N2   51   3.475   3.016   4.610 -0.0646  0.3254 -0.1210
    2RG3    H21   52   3.573   2.996   4.592  0.0723  2.0195 -1.3465
    2RG3    H22   53   3.445   3.110   4.629 -0.1686  0.2529  0.0728
    2RG3     N3   54   3.268   2.937   4.692 -0.2801  0.1231  0.7433
    2RG3     C4   55   3.202   2.817   4.703 -0.0414 -0.0704 -0.0527
    2RG3    C3'   56   2.782   3.007   4.784  0.0299  0.1606  0.1052
    2RG3    H3'   57   2.716   3.007   4.698  0.8380 -1.5101 -0.5335
    2RG3    C2'   58   2.927   2.989   4.733 -0.2460 -0.5441 -0.0251
    2RG3   H2'1   59   2.927   2.943   4.634  0.2878 -0.8472  0.1128
    2RG3    O2'   60   2.992   3.120   4.728 -0.9571  0.2126 -0.2364
    2RG3   HO'2   61   2.959   3.168   4.652 -0.7647 -0.6985 -0.8954
    2RG3    O3'   62   2.788   3.122   4.866 -0.6166  0.3721  0.4280
    2RG3    H3T   63   2.876   3.151   4.841 -0.1909  0.2579  1.7330
    3RG35     P   64   2.927   3.424   4.527  0.2461 -0.3557  0.1314
    3RG35   O1P   65   2.925   3.275   4.541 -0.1254  0.1979 -0.0227
    3RG35   O2P   66   2.795   3.488   4.534 -0.0993  0.2133  0.7974
    3RG35   O5'   67   3.002   3.465   4.655 -0.4381 -0.2434 -0.0904
    3RG35   C5'   68   2.936   3.453   4.780 -0.0338  0.3412 -0.3448
    3RG35  H5'1   69   2.924   3.348   4.806 -0.6595  0.8384  1.4618
    3RG35  H5'2   70   2.839   3.502   4.770 -0.4349  0.0225  1.7347
    3RG35   C4'   71   3.000   3.518   4.903 -0.0274 -0.0118 -0.3439
    3RG35   H4'   72   2.930   3.511   4.986  2.2882 -1.0416  1.5602
    3RG35   O4'   73   3.116   3.450   4.948  0.7208  0.3329  0.3095
    3RG35   C1'   74   3.227   3.530   4.908  0.6782  0.2964  0.2874
    3RG35   H1'   75   3.270   3.562   5.003 -0.6683 -1.3272  1.4750
    3RG35    N9   76   3.326   3.448   4.833 -0.1295 -0.6508 -0.4566
    3RG35    C8   77   3.304   3.329   4.781  0.0748 -0.3619 -0.1802
    3RG35    H8   78   3.216   3.268   4.798  0.5622 -0.0087  4.3468
    3RG35    N7   79   3.401   3.287   4.703  0.4739  0.2844 -0.7301
    3RG35    C5   80   3.493   3.388   4.705  0.2039  0.1613 -0.2100
    3RG35    C6   81   3.625   3.394   4.643 -0.6482 -0.3517 -0.1253
    3RG35    O6   82   3.686   3.318   4.569 -0.0594 -0.1918  0.2840
    3RG35    N1   83   3.684   3.520   4.659  0.1633  0.3803 -0.3163
    3RG35    H1   84   3.782   3.522   4.633  0.5146 -1.2673  0.8259
    3RG35    C2   85   3.631   3.620   4.731  0.1457 -0.0051 -0.3470
    3RG35    N2   86   3.708   3.727   4.743  0.0300  0.3212  0.5170
    3RG35   H21   87   3.792   3.732   4.688 -0.7046 -2.6655 -0.9911
    3RG35   H22   88   3.677   3.817   4.777  0.9296  1.0206 -0.4782
    3RG35    N3   89   3.514   3.612   4.796  0.8207 -0.2655 -0.2039
    3RG35    C4   90   3.448   3.493   4.777 -0.5182  0.0363  1.0102
    3RG35   C3'   91   3.040   3.666   4.877 -0.6847 -0.1678  0.0268
    3RG35   H3'   92   2.977   3.721   4.806 -0.5193 -0.8100 -0.6249
    3RG35   C2'   93   3.177   3.647   4.825 -0.7197  0.1616 -0.2610
    3RG35  H2'1   94   3.181   3.616   4.721 -2.9926  0.7529 -0.5483
    3RG35   O2'   95   3.266   3.755   4.849  0.2374  0.1643 -0.5570
    3RG35  HO'2   96   3.354   3.721   4.832 -0.2959 -1.8319  0.5347
    3RG35   O3'   97   3.041   3.742   5.000 -0.4371  0.3557 -0.0851
    3RG35   H3T   98   3.127   3.783   5.011  0.5239 -1.3968 -0.9465
    3RG35   O3P   99   3.015   3.474   4.422  0.3222  0.1625  0.6106
    7SOL     OW  100   0.893   0.122   0.791  0.2872 -0.4768  0.3276
    7SOL    HW2  101   0.805   0.109   0.828 -0.0404  0.1267 -0.2073
    7SOL    HW3  102   0.921   0.207   0.825  0.6870 -0.6907  0.5351
    7SOL    MW4  103   0.885   0.132   0.800  0.2967 -0.4254  0.2844
    8SOL     OW  104   0.203   0.086   0.626 -0.1457 -0.1248  0.7058
    8SOL    HW2  105   0.135   0.138   0.670  0.1762  0.5023  0.4564
    8SOL    HW3  106   0.267   0.150   0.597 -0.7340 -0.4464 -1.3883
    8SOL    MW4  107   0.202   0.101   0.628 -0.1808 -0.0845  0.3966
    9SOL     OW  108   0.061   0.733   0.434  0.4440 -0.0171  0.2054
    9SOL    HW2  109  -0.030   0.755   0.414  0.7661 -0.6940 -2.1800
    9SOL    HW3  110   0.064   0.637   0.430  1.0323 -0.0505  1.3200
    9SOL    MW4  111   0.050   0.723   0.431  0.5641 -0.1108  0.0377
   10SOL     OW  112   0.045   2.356   0.659  0.3380 -0.6731 -0.4144
   10SOL    HW2  113  -0.024   2.349   0.725 -0.4683  1.2106 -1.0252
   10SOL    HW3  114   0.126   2.341   0.708 -0.3084 -0.1109  0.8586
   10SOL    MW4  115   0.047   2.353   0.674  0.1463 -0.3505 -0.3270
   11SOL     OW  116   1.217   1.546   0.579  0.0163  0.6501 -0.8856
   11SOL    HW2  117   1.148   1.513   0.636  0.6627  0.1490 -0.3797
   11SOL    HW3  118   1.185   1.530   0.490 -0.5190  0.4424 -0.6557
   11SOL    MW4  119   1.204   1.540   0.575  0.0309  0.5566 -0.7886
   12SOL     OW  120   4.117   2.196   0.563 -0.2633  0.0140  0.0467
   12SOL    HW2  121   4.040   2.193   0.506  0.1859  2.3080 -0.7533
   12SOL    HW3  122   4.181   2.248   0.513  1.5429 -1.2581  0.9958
   12SOL    MW4  123   4.115   2.203   0.549  0.0343  0.1488  0.0663
   13SOL     OW  124   0.401   0.540   0.345  0.1394  0.0849 -0.3080
   13SOL    HW2  125   0.357   0.623   0.330 -0.7920 -0.1629  0.9652
   13SOL    HW3  126   0.344   0.475   0.303  0.2537 -0.0429 -0.2672
   13SOL    MW4  127   0.387   0.542   0.338  0.0316  0.0353 -0.1346
   14SOL     OW  128   0.756   0.497   0.766 -0.4850 -0.0179  0.2476
   14SOL    HW2  129   0.691   0.433   0.796 -0.0644  0.4494  2.2197
   14SOL    HW3  130   0.719   0.582   0.790  1.0705  0.2245  1.8260
   14SOL    MW4  131   0.742   0.500   0.773 -0.2243  0.0758  0.7160
   15SOL     OW  132   1.056   1.220   0.467 -0.2136 -0.4664  0.3756
   15SOL    HW2  133   1.068   1.300   0.414 -0.3417 -0.5827  0.1702
   15SOL    HW3  134   1.048   1.252   0.557 -3.6553  0.0287 -0.0319
   15SOL    MW4  135   1.057   1.235   0.472 -0.6846 -0.4165  0.2948
   16SOL     OW  136   0.681   1.827   0.575  0.1702 -0.1348  0.1305
   16SOL    HW2  137   0.591   1.817   0.544 -0.1322 -0.9753  1.2399
   16SOL    HW3  138   0.679   1.904   0.632  0.0569 -0.4122  0.5023
   16SOL    MW4  139   0.669   1.836   0.578  0.1153 -0.2822  0.3260
   17SOL     OW  140   4.070   4.641   0.335 -0.1286 -0.2820 -0.1890
   17SOL    HW2  141   4.012   4.711   0.364  1.4642  1.3782 -0.9291
   17SOL    HW3  142   4.011   4.574   0.301 -1.6186  1.2668 -0.7218
   17SOL    MW4  143   4.055   4.641   0.335 -0.1154  0.1416 -0.3570
   18SOL     OW  144   0.542   3.238   0.412  0.1938  0.2429 -0.1183
   18SOL    HW2  145   0.576   3.205   0.494  1.3630  0.5107 -0.4929
   18SOL    HW3  146   0.565   3.172   0.347  0.6602  0.7772 -0.5027
   18SOL    MW4  147   0.549   3.225   0.414  0.4096  0.3488 -0.2185
   19SOL     OW  148   0.841   1.867   0.347 -0.3468 -0.3401  0.4346
   19SOL    HW2  149   0.783   1.927   0.301 -0.9972  1.3693  3.3316
   19SOL    HW3  150   0.789   1.837   0.422  1.4759 -1.1719  1.3934
   19SOL    MW4  151   0.826   1.871   0.351 -0.1922 -0.2244  0.9433
   20SOL     OW  152   4.132   1.469   0.695 -0.5643 -0.5144  0.1724
   20SOL    HW2  153   4.182   1.388   0.705  1.2129  0.4672 -0.5376
   20SOL    HW3  154   4.104   1.468   0.603  1.2414  0.6488 -0.4180
   20SOL    MW4  155   4.135   1.458   0.684 -0.0916 -0.2315  0.0008
   21SOL     OW  156   1.582   3.559   0.473  0.1711  0.1391 -0.0877
   21SOL    HW2  157   1.602   3.574   0.565 -1.2107 -0.4136  0.3168
   21SOL    HW3  158   1.514   3.624   0.452  0.9651  0.7161 -0.9046
   21SOL    MW4  159   1.575   3.569   0.482  0.0937  0.1426 -0.1421
   22SOL     OW  160   3.037   2.808   0.485  0.0239 -0.4415  0.6882
   22SOL    HW2  161   2.976   2.865   0.439 -0.2211 -0.4803  0.9660
   22SOL    HW3  162   2.995   2.791   0.570  0.9070  0.4224  1.3167
   22SOL    MW4  163   3.024   2.814   0.490  0.1082 -0.3326  0.8078
   23SOL     OW  164   1.314   0.107   0.822 -0.2951 -0.4111 -0.5885
   23SOL    HW2  165   1.294   0.201   0.828 -0.2528 -0.3917 -0.7324
   23SOL    HW3  166   1.307   0.087   0.728 -0.7831 -0.6619 -0.4978
   23SOL    MW4  167   1.311   0.117   0.810 -0.3538 -0.4416 -0.5955
   24SOL     OW  168   0.987   3.007   0.405  0.1722 -0.1522 -0.0794
   24SOL    HW2  169   0.910   2.951   0.398  0.6533 -0.6708 -1.2513
   24SOL    HW3  170   0.971   3.078   0.343  0.8402 -0.5062 -0.6609
   24SOL    MW4  171   0.975   3.009   0.396  0.3238 -0.2675 -0.3108
   25SOL     OW  172   2.889   2.558   0.411 -0.0706 -0.1098  0.0852
   25SOL    HW2  173   2.929   2.644   0.427 -2.3013  1.1050 -0.7220
   25SOL    HW3  174   2.959   2.496   0.429  1.9824  1.9325 -0.5981
   25SOL    MW4  175   2.904   2.561   0.415 -0.0942  0.3200 -0.1114
   26SOL     OW  176   4.277   3.805   0.802 -0.0501  0.0350 -0.0551
   26SOL    HW2  177   4.258   3.813   0.895  0.3612 -0.7916  0.1006
   26SOL    HW3  178   4.370   3.829   0.794 -0.1151  0.2202 -0.2672
   26SOL    MW4  179   4.287   3.810   0.813 -0.0043 -0.0494 -0.0625
   27SOL     OW  180   0.023   3.903   0.730 -0.4468  0.0296 -0.5828
   27SOL    HW2  181   0.040   3.881   0.638  0.8422  0.4293 -0.4415
   27SOL    HW3  182   0.109   3.906   0.771 -1.0647 -0.9131  0.8264
   27SOL    MW4  183   0.036   3.901   0.723 -0.3582 -0.0422 -0.3782
   28SOL     OW  184   1.278   1.021   0.497  0.5013 -0.2595 -0.3778
   28SOL    HW2  185   1.218   1.096   0.488  0.5226 -0.1421  0.4499
   28SOL    HW3  186   1.358   1.049   0.451  0.9471  0.7109  0.9570
   28SOL    MW4  187   1.281   1.035   0.490  0.5628 -0.1160 -0.0925
   29SOL     OW  188   3.317   0.088   0.488 -0.7461 -0.6690 -0.0128
   29SOL    HW2  189   3.290   0.105   0.579  2.8309  0.7402  0.8976
   29SOL    HW3  190   3.311  -0.007   0.478 -1.2152 -0.8354  1.6674
   29SOL    MW4  191   3.312   0.078   0.499 -0.3359 -0.5050  0.3290
   30SOL     OW  192   0.826   4.430   0.378 -0.1060  0.2315  0.3822
   30SOL    HW2  193   0.747   4.484   0.372 -0.4322  0.0564  2.5224
   30SOL    HW3  194   0.793   4.340   0.378  0.2100  0.1172 -0.2254
   30SOL    MW4  195   0.811   4.425   0.377 -0.1074  0.1936  0.5844
   31SOL     OW  196   3.789   0.705   0.430 -0.0122 -0.1809 -0.0866
   31SOL    HW2  197   3.725   0.713   0.501  0.3374  1.0827  0.0991
   31SOL    HW3  198   3.782   0.787   0.382  0.4319 -0.6380 -0.9452
   31SOL    MW4  199   3.780   0.717   0.433  0.0925 -0.0745 -0.1754
   32SOL     OW  200   4.339   1.122   0.474 -0.0673  0.0121 -0.0091
   32SOL    HW2  201   4.318   1.158   0.560  1.5574 -2.4766  1.4672
   32SOL    HW3  202   4.419   1.167   0.448  0.1375 -0.1543  0.3390
   32SOL    MW4  203   4.347   1.133   0.482  0.1740 -0.3382  0.2316
   33SOL     OW  204   0.669   0.752   0.852 -0.0617 -0.0201 -0.4794
   33SOL    HW2  205   0.595   0.799   0.815 -0.5436 -0.3970  0.0022
   33SOL    HW3  206   0.745   0.806   0.830 -0.7020  1.4472  0.8429
   33SOL    MW4  207   0.670   0.765   0.844 -0.2097  0.1237 -0.2414
   34SOL     OW  208   0.828   3.936   0.445  0.4326  0.1745 -0.1837
   34SOL    HW2  209   0.857   3.912   0.533  1.7399 -1.1163 -0.9457
   34SOL    HW3  210   0.909   3.953   0.396 -0.2495  0.2964 -1.3073
   34SOL    MW4  211   0.843   3.935   0.450  0.5151  0.0200 -0.4325
   35SOL     OW  212   0.977   0.398   0.890 -0.0445  0.2788 -0.6250
   35SOL    HW2  213   0.907   0.450   0.850 -0.5429 -0.1401 -0.3154
   35SOL    HW3  214   0.940   0.370   0.974  0.7998  0.7188 -0.1065
   35SOL    MW4  215   0.963   0.401   0.895  0.0012  0.2816 -0.5158
   36SOL     OW  216   1.448   0.673   0.512  0.0686 -0.1703 -0.2830
   36SOL    HW2  217   1.489   0.599   0.468  1.1655  1.2755 -1.7115
   36SOL    HW3  218   1.361   0.679   0.473  0.7541  0.6156 -1.7391
   36SOL    MW4  219   1.442   0.664   0.501  0.3037  0.1241 -0.6636
   37SOL     OW  220   0.409   1.198   0.829  0.3223 -0.2504 -0.5358
   37SOL    HW2  221   0.484   1.249   0.797 -0.3597  0.7079 -0.6425
   37SOL    HW3  222   0.429   1.108   0.805  0.6563  0.2251 -2.1219
   37SOL    MW4  223   0.421   1.193   0.821  0.2764 -0.0612 -0.7591
   38SOL     OW  224   1.222   1.055   0.785  0.1257  0.1617  0.1166
   38SOL    HW2  225   1.203   0.987   0.850  2.6362 -1.1050 -0.4159
   38SOL    HW3  226   1.230   1.007   0.702 -0.2511  1.4071 -0.6585
   38SOL    MW4  227   1.221   1.039   0.783  0.4071  0.1589 -0.0558
   39SOL     OW  228   4.486   2.004   0.824 -0.0947 -0.0141  1.0048
   39SOL    HW2  229   4.403   2.052   0.816 -0.1273 -0.1847  0.3189
   39SOL    HW3  230   4.549   2.055   0.773 -0.3825 -1.2694 -0.6498
   39SOL    MW4  231   4.483   2.017   0.816 -0.1373 -0.2022  0.6961
   40SOL     OW  232   1.064   1.305   0.744 -0.8354 -0.4760 -0.1811
   40SOL    HW2  233   1.112   1.236   0.789 -0.2168  0.4019  0.5176
   40SOL    HW3  234   1.088   1.385   0.790 -1.8479  0.1596 -0.7410
   40SOL    MW4  235   1.073   1.307   0.756 -0.8874 -0.2764 -0.1628
   41SOL     OW  236   3.799   3.073   0.859 -0.2776 -0.0511 -0.4913
   41SOL    HW2  237   3.719   3.115   0.826 -0.0247  1.3812  0.6753
   41SOL    HW3  238   3.870   3.121   0.816 -0.0004  0.2148  0.2637
   41SOL    MW4  239   3.797   3.085   0.849 -0.2079  0.1729 -0.2378
   42SOL     OW  240   4.248   2.783   0.538 -0.4936 -0.1477  0.1456
   42SOL    HW2  241   4.187   2.714   0.514  0.7437 -0.9690 -0.7381
   42SOL    HW3  242   4.313   2.740   0.593 -0.5112  0.6333  0.7854
   42SOL    MW4  243   4.249   2.768   0.542 -0.3324 -0.1526  0.1134
   43SOL     OW  244   0.868   2.204   0.478 -0.2724 -0.3457 -0.2954
   43SOL    HW2  245   0.849   2.157   0.396 -1.3411  0.7298 -0.6975
   43SOL    HW3  246   0.892   2.292   0.449  0.4108 -0.2657  0.5083
   43SOL    MW4  247   0.868   2.209   0.463 -0.3233 -0.1934 -0.2424
   44SOL     OW  248   0.387   4.547   0.265 -0.2013 -0.2280 -0.4221
   44SOL    HW2  249   0.377   4.582   0.176 -2.1879  0.2913 -0.0340
   44SOL    HW3  250   0.384   4.452   0.253 -0.0500 -0.1700 -0.9652
   44SOL    MW4  251   0.385   4.539   0.251 -0.4434 -0.1516 -0.4426
   45SOL     OW  252   4.371   3.282   0.295 -0.0064 -0.6610  0.2179
   45SOL    HW2  253   4.396   3.314   0.209  0.1422 -1.2019  0.0589
   45SOL    HW3  254   4.435   3.321   0.355 -0.0313 -0.3922  0.0685
   45SOL    MW4  255   4.383   3.292   0.292  0.0095 -0.6967  0.1772
   46SOL     OW  256   0.307   2.600   0.778 -0.0739 -0.3249  0.5785
   46SOL    HW2  257   0.295   2.507   0.799  0.3359 -0.8781 -1.4754
   46SOL    HW3  258   0.222   2.629   0.747 -0.9951  0.8003  4.0186
   46SOL    MW4  259   0.294   2.591   0.776 -0.1414 -0.2496  0.7614
   47SOL     OW  260   1.558   4.148   0.414  0.4164  0.2035 -0.1234
   47SOL    HW2  261   1.539   4.241   0.423 -0.4942  0.1689 -1.4497
   47SOL    HW3  262   1.540   4.111   0.500 -1.0599  0.9457 -0.1000
   47SOL    MW4  263   1.553   4.155   0.426  0.1014  0.2975 -0.2953
   48SOL     OW  264   0.614   3.037   0.239 -0.0389 -0.0297 -0.0047
   48SOL    HW2  265   0.534   2.990   0.213 -0.1225  0.5655 -0.8347
   48SOL    HW3  266   0.677   2.967   0.257 -1.0625 -0.5405  1.7485
   48SOL    MW4  267   0.612   3.022   0.238 -0.1850 -0.0186  0.1171
   49SOL     OW  268   1.248   4.571   0.386 -0.2794  0.2615 -0.0845
   49SOL    HW2  269   1.201   4.490   0.402 -0.6228  0.4179 -0.2944
   49SOL    HW3  270   1.181   4.639   0.385 -0.0945  0.4404 -0.7261
   49SOL    MW4  271   1.233   4.569   0.388 -0.3003  0.3052 -0.1969
   50SOL     OW  272   1.584   0.761   0.848 -0.0164 -0.1812 -0.4279
   50SOL    HW2  273   1.502   0.712   0.846 -0.4996  0.5755  0.5778
   50SOL    HW3  274   1.587   0.806   0.763 -1.5638  1.2533  0.2350
   50SOL    MW4  275   1.574   0.761   0.836 -0.2842  0.1078 -0.2078
   51SOL     OW  276   1.317   3.711   0.399  0.5600  0.1539  0.0841
   51SOL    HW2  277   1.280   3.767   0.468 -2.5990 -1.8034  0.0873
   51SOL    HW3  278   1.331   3.770   0.325 -1.3252  1.2540  0.5683
   51SOL    MW4  279   1.314   3.726   0.399 -0.1054  0.0405  0.1485
   52SOL     OW  280   0.657   3.282   0.844  0.1468 -0.0509  0.0965
   52SOL    HW2  281   0.700   3.366   0.827 -1.3469  0.6733 -0.1721
   52SOL    HW3  282   0.665   3.235   0.761  0.1936  0.1816 -0.0326
   52SOL    MW4  283   0.664   3.287   0.831 -0.0441  0.0753  0.0440
   53SOL     OW  284   0.504   0.872   0.521 -0.7495  0.1515 -0.0799
   53SOL    HW2  285   0.552   0.805   0.471 -0.3460 -0.1402  0.6841
   53SOL    HW3  286   0.542   0.955   0.492  0.8303 -0.1221  1.1204
   53SOL    MW4  287   0.516   0.874   0.510 -0.4878  0.0769  0.1793
   54SOL     OW  288   2.134   0.634   0.721  0.1054 -0.3381 -0.5728
   54SOL    HW2  289   2.219   0.600   0.751 -0.3710 -1.6671 -0.7020
   54SOL    HW3  290   2.080   0.634   0.800 -0.1928 -0.8458 -0.7713
   54SOL    MW4  291   2.138   0.629   0.736  0.0031 -0.5804 -0.6160
   55SOL     OW  292   2.770   0.021   0.381 -0.2238  0.6011 -0.2252
   55SOL    HW2  293   2.765   0.101   0.435 -3.7090  0.5169 -0.3717
   55SOL    HW3  294   2.777   0.053   0.292 -1.7130  0.7692 -0.2914
   55SOL    MW4  295   2.771   0.036   0.377 -0.8800  0.6113 -0.2533
   56SOL     OW  296   4.219   2.101   0.796  0.3062 -0.3222  0.4057
   56SOL    HW2  297   4.186   2.016   0.826 -1.0108  0.3283  0.8451
   56SOL    HW3  298   4.176   2.115   0.712  0.5334 -0.0972  0.3259
   56SOL    MW4  299   4.209   2.092   0.789  0.1621 -0.2065  0.4531
   57SOL     OW  300   1.056   2.142   0.679 -0.0222 -0.4363 -0.2807
   57SOL    HW2  301   1.068   2.221   0.731  0.4316 -0.9095  0.3310
   57SOL    HW3  302   0.994   2.168   0.610 -0.5929  0.1962  0.4629
   57SOL    MW4  303   1.049   2.155   0.676 -0.0376 -0.4151 -0.1019
   58SOL     OW  304   2.201   0.035   0.890 -0.4271  0.1224  0.0032
   58SOL    HW2  305   2.222   0.124   0.861 -0.9403  0.4989  0.7704
   58SOL    HW3  306   2.225  -0.021   0.815 -1.3668  1.0325 -0.9953
   58SOL    MW4  307   2.207   0.039   0.876 -0.6189  0.2921 -0.0274
   59SOL     OW  308   0.814   0.165   0.513 -0.1629 -0.0031 -0.3127
   59SOL    HW2  309   0.838   0.131   0.600 -1.1555 -0.0890 -0.0645
   59SOL    HW3  310   0.756   0.098   0.477  0.0996  0.1265 -0.9732
   59SOL    MW4  311   0.810   0.151   0.520 -0.2592  0.0027 -0.3671
   60SOL     OW  312   2.073   1.054   0.485 -0.5209 -0.1806 -0.1750
   60SOL    HW2  313   2.034   0.967   0.481 -2.2242  0.4942  1.1524
   60SOL    HW3  314   2.126   1.053   0.565  1.0637 -0.6039 -1.1895
   60SOL    MW4  315   2.075   1.042   0.495 -0.5364 -0.1476 -0.1338
   61SOL     OW  316   2.009   1.421   0.472  0.4961 -0.4729 -0.3003
   61SOL    HW2  317   1.942   1.352   0.469  1.0548 -1.0147 -0.2436
   61SOL    HW3  318   2.083   1.385   0.424  1.8596 -1.0365  2.1715
   61SOL    MW4  319   2.010   1.407   0.465  0.7498 -0.6187  0.0333
   62SOL     OW  320   3.046   2.356   0.478 -0.4486  0.4914  0.5414
   62SOL    HW2  321   3.074   2.347   0.569 -1.5199 -1.2931  0.7075
   62SOL    HW3  322   2.978   2.291   0.467  0.9316 -0.5929 -2.0703
   62SOL    MW4  323   3.041   2.346   0.489 -0.4077  0.1128  0.2187
   63SOL     OW  324   0.666   3.123   0.622 -0.5194  0.0110 -0.9439
   63SOL    HW2  325   0.761   3.137   0.626 -0.7608  1.3031  1.1254
   63SOL    HW3  326   0.654   3.035   0.656  0.0677 -0.8047 -2.8153
   63SOL    MW4  327   0.677   3.114   0.627 -0.4738  0.0739 -0.9178
   64SOL     OW  328   0.106   3.832   0.475  0.4101  0.0103  0.2798
   64SOL    HW2  329   0.111   3.914   0.427  0.2723 -0.7175 -0.9844
   64SOL    HW3  330   0.073   3.768   0.412 -0.0611 -0.8960  1.4087
   64SOL    MW4  331   0.102   3.835   0.460  0.3298 -0.2055  0.2620
   65SOL     OW  332   1.332   2.236   0.303  0.7336  0.0425 -0.3592
   65SOL    HW2  333   1.312   2.177   0.375 -2.0926  0.6498 -0.5801
   65SOL    HW3  334   1.318   2.184   0.224  2.0720 -0.0990 -0.5184
   65SOL    MW4  335   1.328   2.222   0.302  0.5374  0.1040 -0.4094
   66SOL     OW  336   0.911   1.672   0.630 -0.2367 -0.0858  0.1230
   66SOL    HW2  337   0.961   1.742   0.672 -1.0381  0.5378  0.0528
   66SOL    HW3  338   0.821   1.706   0.626 -0.3070 -0.4243 -1.4568
   66SOL    MW4  339   0.905   1.686   0.635 -0.3518 -0.0483 -0.0948
   67SOL     OW  340   0.921   2.475   0.459  0.2494 -0.0478 -0.1679
   67SOL    HW2  341   1.015   2.492   0.460  0.3088 -0.4184  0.4360
   67SOL    HW3  342   0.890   2.508   0.543 -0.4915  1.9317 -1.1966
   67SOL    MW4  343   0.929   2.481   0.470  0.1595  0.1645 -0.2240
   68SOL     OW  344   0.654   2.033   0.753 -0.4030  0.3639 -0.1182
   68SOL    HW2  345   0.567   2.010   0.787 -0.0853 -0.3237  0.2452
   68SOL    HW3  346   0.714   1.979   0.804  0.2107  0.5556 -0.6346
   68SOL    MW4  347   0.650   2.023   0.764 -0.2801  0.2985 -0.1384
   69SOL     OW  348   0.571   2.773   0.480 -0.1860  0.7256 -0.3040
   69SOL    HW2  349   0.604   2.794   0.568  0.3612  0.4060 -0.4302
   69SOL    HW3  350   0.522   2.692   0.492  1.7088 -0.5191 -0.6683
   69SOL    MW4  351   0.569   2.765   0.493  0.1363  0.5190 -0.3687
   70SOL     OW  352   0.730   2.115   0.235 -0.3925 -0.1984  0.0643
   70SOL    HW2  353   0.648   2.136   0.280 -0.7215 -1.1218 -0.0981
   70SOL    HW3  354   0.738   2.183   0.168 -0.2813  0.7392  1.0219
   70SOL    MW4  355   0.720   2.127   0.232 -0.4212 -0.1965  0.1692
   71SOL     OW  356   1.968   0.157   0.616 -0.2973  0.0307  0.0027
   71SOL    HW2  357   1.943   0.158   0.708 -0.4441 -1.0704 -0.0203
   71SOL    HW3  358   1.886   0.147   0.568 -0.2553  0.9299 -0.2640
   71SOL    MW4  359   1.954   0.156   0.622 -0.3113  0.0041 -0.0355
   72SOL     OW  360   1.079   0.113   0.414  0.3938  0.0099 -0.2112
   72SOL    HW2  361   1.105   0.200   0.382  0.0875 -0.3275 -1.3939
   72SOL    HW3  362   0.983   0.116   0.418  0.3571 -0.4167 -0.6860
   72SOL    MW4  363   1.070   0.125   0.410  0.3486 -0.0909 -0.4299
   73SOL     OW  364   1.335   3.501   0.817 -0.0951  0.0648  0.1719
   73SOL    HW2  365   1.341   3.505   0.912  1.0226  0.2773  0.1043
   73SOL    HW3  366   1.353   3.410   0.795 -0.3715  0.0117  0.1655
   73SOL    MW4  367   1.339   3.490   0.826  0.0160  0.0861  0.1621
   74SOL     OW  368   1.071   3.561   0.753  0.0678  0.0958 -0.2672
   74SOL    HW2  369   1.164   3.545   0.772  0.0691 -1.6355 -1.6217
   74SOL    HW3  370   1.062   3.539   0.660 -1.3090  2.0728 -0.6171
   74SOL    MW4  371   1.082   3.556   0.743 -0.1137  0.1283 -0.4920
   75SOL     OW  372   1.139   0.810   0.941  0.1818 -0.1166  0.1001
   75SOL    HW2  373   1.137   0.790   1.035  1.2558  0.4958  0.2666
   75SOL    HW3  374   1.207   0.752   0.906  1.3466  1.2020  0.1015
   75SOL    MW4  375   1.148   0.800   0.949  0.4772  0.1382  0.1223
   76SOL     OW  376   2.905   0.495   0.615 -0.1621  0.1011  0.2664
   76SOL    HW2  377   2.875   0.410   0.582 -0.5000  0.4490 -0.3199
   76SOL    HW3  378   2.840   0.519   0.681 -0.2086  0.0332  0.2458
   76SOL    MW4  379   2.892   0.487   0.619 -0.2127  0.1381  0.1863
   77SOL     OW  380   0.711   4.182   0.447  0.2611  0.0033  0.0831
   77SOL    HW2  381   0.777   4.112   0.451  0.5519  0.2503 -0.3256
   77SOL    HW3  382   0.698   4.208   0.537  0.8799  0.0947  0.1522
   77SOL    MW4  383   0.718   4.176   0.459  0.3811  0.0482  0.0383
   78SOL     OW  384   2.463   0.587   0.800 -0.8791  0.1614 -0.3525
   78SOL    HW2  385   2.555   0.562   0.809 -1.2578 -1.0363  0.3803
   78SOL    HW3  386   2.461   0.645   0.725  0.3537 -0.5139 -0.9259
   78SOL    MW4  387   2.475   0.591   0.792 -0.7665 -0.0857 -0.3315
   79SOL     OW  388   0.590   1.103   0.379  0.3787 -0.0880  0.1394
   79SOL    HW2  389   0.513   1.077   0.328 -0.4370  0.7837  0.9198
   79SOL    HW3  390   0.570   1.191   0.410  2.5282  0.9732 -1.3284
   79SOL    MW4  391   0.577   1.111   0.376  0.5547  0.1670  0.0487
   80SOL     OW  392   0.829   1.571   0.383 -0.7352  0.1492  0.0968
   80SOL    HW2  393   0.857   1.610   0.466  1.1452 -0.1027 -0.3930
   80SOL    HW3  394   0.825   1.645   0.322 -1.5254  0.2432  0.2607
   80SOL    MW4  395   0.832   1.586   0.386 -0.5914  0.1284  0.0538
   81SOL     OW  396   1.174   0.753   0.527 -0.6688 -0.2929 -0.1954
   81SOL    HW2  397   1.084   0.741   0.498 -1.4913  2.3220  1.1188
   81SOL    HW3  398   1.195   0.843   0.505  1.5611 -0.8111 -0.2885
   81SOL    MW4  399   1.165   0.763   0.521 -0.4832 -0.0163 -0.0343
   82SOL     OW  400   1.355   4.004   0.260 -0.2432  0.6992 -0.2473
   82SOL    HW2  401   1.404   3.995   0.177 -0.7844 -0.6618 -0.4216
   82SOL    HW3  402   1.410   4.063   0.313  0.3272  1.2330 -1.3992
   82SOL    MW4  403   1.369   4.011   0.256 -0.2394  0.5898 -0.4223
   83SOL     OW  404   2.890   0.815   0.784  0.1073  0.1373 -0.3364
   83SOL    HW2  405   2.809   0.864   0.777  0.1785  0.2885 -0.1219
   83SOL    HW3  406   2.907   0.810   0.879  0.3070  0.0426 -0.3753
   83SOL    MW4  407   2.882   0.821   0.796  0.1426  0.1447 -0.3132
   84SOL     OW  408   1.937   0.938   0.788  0.1697 -0.3867 -0.2757
   84SOL    HW2  409   1.917   0.914   0.698  0.4876 -1.0092 -0.1845
   84SOL    HW3  410   1.855   0.975   0.822  0.4584  1.2361 -1.2611
   84SOL    MW4  411   1.923   0.940   0.781  0.2497 -0.2547 -0.3937
   85SOL     OW  412   1.546   0.427   0.417 -0.0240  0.2731 -0.1146
   85SOL    HW2  413   1.468   0.384   0.453 -1.2661  0.8405 -2.0605
   85SOL    HW3  414   1.571   0.373   0.342  0.2973  1.1747 -0.6650
   85SOL    MW4  415   1.539   0.414   0.412 -0.1453  0.4669 -0.4439
   86SOL     OW  416   0.658   0.648   0.390  0.1866 -0.2403 -0.0754
   86SOL    HW2  417   0.697   0.563   0.411 -0.3236 -0.9254 -1.7788
   86SOL    HW3  418   0.579   0.626   0.340 -1.6667  1.1558  2.1374
   86SOL    MW4  419   0.652   0.634   0.386 -0.1253 -0.1466 -0.0082
   87SOL     OW  420   1.824   3.413   0.472 -0.0715  0.0450 -0.1167
   87SOL    HW2  421   1.743   3.461   0.486 -0.4692 -1.1004  1.7050
   87SOL    HW3  422   1.796   3.330   0.433  0.4100  0.3914 -1.2239
   87SOL    MW4  423   1.809   3.408   0.469 -0.0604 -0.0606 -0.0224
   88SOL     OW  424   1.561   2.764   0.176 -0.1688  0.3160 -0.2803
   88SOL    HW2  425   1.638   2.726   0.218  0.5814  3.3047  1.2361
   88SOL    HW3  426   1.488   2.712   0.210  0.8983 -0.5022  0.8381
   88SOL    MW4  427   1.561   2.752   0.186  0.0709  0.6025  0.0673
   89SOL     OW  428   1.995   2.067   0.461 -0.7086  0.2671  0.2255
   89SOL    HW2  429   2.074   2.027   0.424 -0.3161  1.5245 -0.3130
   89SOL    HW3  430   1.997   2.043   0.554  0.1627  0.0661  0.1557
   89SOL    MW4  431   2.006   2.059   0.469 -0.5417  0.4065  0.1453
   90SOL     OW  432   2.448   2.382   0.882 -0.5642 -0.0271  0.0925
   90SOL    HW2  433   2.526   2.377   0.828  0.3755  0.1196  1.4249
   90SOL    HW3  434   2.378   2.347   0.826  0.4391 -0.1520 -1.1012
   90SOL    MW4  435   2.449   2.377   0.867 -0.3080 -0.0243  0.1107
   91SOL     OW  436   1.626   2.852   0.666 -0.7096  0.1170 -0.1371
   91SOL    HW2  437   1.623   2.937   0.710 -0.6087 -0.3823  0.8500
   91SOL    HW3  438   1.543   2.810   0.689 -0.1974 -0.5759  0.4447
   91SOL    MW4  439   1.615   2.857   0.675 -0.6287 -0.0405  0.0700
   92SOL     OW  440   1.307   2.682   0.304  0.2184  0.3162 -0.0826
   92SOL    HW2  441   1.248   2.676   0.229  1.0162  1.1961 -0.7871
   92SOL    HW3  442   1.300   2.772   0.334  1.5137  0.5528 -0.4392
   92SOL    MW4  443   1.298   2.693   0.298  0.4946  0.4635 -0.2226
   93SOL     OW  444   1.826   2.501   0.710  0.0103  0.3148 -0.4104
   93SOL    HW2  445   1.747   2.450   0.730  0.3888  0.3776  1.3852
   93SOL    HW3  446   1.898   2.442   0.730  0.4253  0.0431 -2.6732
   93SOL    MW4  447   1.825   2.486   0.715  0.1150  0.2871 -0.4720
   94SOL     OW  448   2.394   2.666   0.821 -0.6960  0.1636  0.2755
   94SOL    HW2  449   2.385   2.585   0.871  0.9256 -0.6135 -0.6685
   94SOL    HW3  450   2.312   2.714   0.838 -0.8789 -0.8130  2.3383
   94SOL    MW4  451   2.382   2.662   0.830 -0.5059 -0.0677  0.4231
   95SOL     OW  452   1.108   4.048   0.386  0.0065  0.6499 -0.0602
   95SOL    HW2  453   1.184   4.043   0.327 -0.6963 -0.5663 -0.8863
   95SOL    HW3  454   1.136   4.002   0.465 -0.1468 -0.5476 -0.6903
   95SOL    MW4  455   1.122   4.041   0.388 -0.1063  0.3314 -0.2523
   96SOL     OW  456   0.874   1.027   0.343 -0.0919  0.1581  0.2874
   96SOL    HW2  457   0.936   1.096   0.366  1.0005 -0.5248 -0.5470
   96SOL    HW3  458   0.789   1.060   0.373  0.4623  1.7137  0.2069
   96SOL    MW4  459   0.871   1.040   0.350  0.1253  0.2732  0.1667
   97SOL     OW  460   2.227   2.914   0.569 -0.2146 -0.2990  0.3541
   97SOL    HW2  461   2.252   2.983   0.508 -0.9819 -1.2061 -1.0225
   97SOL    HW3  462   2.280   2.839   0.544 -1.1226 -0.9236  0.2627
   97SOL    MW4  463   2.237   2.913   0.558 -0.4356 -0.5012  0.1605
   98SOL     OW  464   1.228   2.465   0.441 -0.1810  0.5284 -0.2394
   98SOL    HW2  465   1.251   2.541   0.388  0.6937  0.4758  0.0645
   98SOL    HW3  466   1.275   2.392   0.401 -1.4725  0.0238 -0.8836
   98SOL    MW4  467   1.237   2.465   0.429 -0.2360  0.4549 -0.2843
   99SOL     OW  468   2.370   2.673   0.506  0.6144  0.0413  0.0876
   99SOL    HW2  469   2.433   2.686   0.436  1.0178 -0.4109  0.3649
   99SOL    HW3  470   2.421   2.683   0.587  0.8178 -2.6220  0.3221
   99SOL    MW4  471   2.385   2.676   0.508  0.6943 -0.3698  0.1552
  100SOL     OW  472   2.502   3.094   0.842 -0.1423 -0.0429 -0.1650
  100SOL    HW2  473   2.507   3.085   0.937  1.0230  1.4005 -0.0755
  100SOL    HW3  474   2.580   3.144   0.818 -0.3155 -0.5635 -1.9069
  100SOL    MW4  475   2.513   3.099   0.851 -0.0117  0.0789 -0.3830
  101SOL     OW  476   0.387   4.277   0.271  0.5059 -0.3964 -0.1947
  101SOL    HW2  477   0.423   4.211   0.331  1.4298  0.0582 -0.2451
  101SOL    HW3  478   0.304   4.239   0.241 -0.1594 -0.4598  1.6610
  101SOL    MW4  479   0.381   4.263   0.275  0.5400 -0.3457  0.0435
  102SOL     OW  480   1.785   3.115   0.433 -0.1310  0.3045  0.5112
  102SOL    HW2  481   1.693   3.096   0.451 -0.4001 -0.6318 -1.6841
  102SOL    HW3  482   1.831   3.032   0.446  0.4171  0.7731  1.6265
  102SOL    MW4  483   1.779   3.102   0.437 -0.0942  0.2427  0.3687
  103SOL     OW  484   1.258   2.945   0.429  0.1180 -0.0336  0.5828
  103SOL    HW2  485   1.235   2.905   0.513  0.7595 -1.8835 -0.0884
  103SOL    HW3  486   1.174   2.959   0.386 -0.3208  2.3918  2.1535
  103SOL    MW4  487   1.244   2.941   0.434  0.1447  0.0427  0.7015
  104SOL     OW  488   2.621   2.695   0.352 -0.1695  0.0559  0.3141
  104SOL    HW2  489   2.647   2.787   0.352  1.1862 -0.2740 -2.4586
  104SOL    HW3  490   2.682   2.653   0.412  0.0653  0.7332  0.5613
  104SOL    MW4  491   2.632   2.702   0.360  0.0405  0.1018 -0.0192
  105SOL     OW  492   1.770   4.547   0.386  0.4535  0.1162  0.1015
  105SOL    HW2  493   1.692   4.513   0.429  0.9826  0.4748  1.3631
  105SOL    HW3  494   1.795   4.479   0.324 -1.5060  0.4729 -1.1386
  105SOL    MW4  495   1.763   4.534   0.383  0.2649  0.2108  0.1043
  106SOL     OW  496   3.287   0.772   0.761 -0.4841  0.0553 -0.2074
  106SOL    HW2  497   3.288   0.796   0.668  0.8191  1.4267  0.1331
  106SOL    HW3  498   3.371   0.730   0.776 -0.7647 -0.3166  0.3140
  106SOL    MW4  499   3.298   0.770   0.751 -0.3495  0.1872 -0.0937
  107SOL     OW  500   2.008   0.555   0.501  0.2241 -0.4083 -0.1917
  107SOL    HW2  501   2.050   0.574   0.585  0.9086 -1.1310 -0.3629
  107SOL    HW3  502   1.929   0.506   0.525  1.3519 -2.2043 -0.0520
  107SOL    MW4  503   2.003   0.551   0.516  0.4632 -0.7406 -0.1959
  108SOL     OW  504   0.128   1.157   0.372 -0.4196 -0.1808 -0.0010
  108SOL    HW2  505   0.118   1.080   0.428  0.8652 -0.7319 -0.5082
  108SOL    HW3  506   0.179   1.126   0.298  0.4660  1.2626 -0.0066
  108SOL    MW4  507   0.133   1.143   0.370 -0.1332 -0.0632 -0.0687
  109SOL     OW  508   3.185   3.290   0.519  0.6464 -0.2634 -0.2505
  109SOL    HW2  509   3.185   3.247   0.604 -0.1877 -1.7624 -0.9760
  109SOL    HW3  510   3.249   3.240   0.467  1.2667  0.7385 -0.4479
  109SOL    MW4  511   3.194   3.277   0.523  0.6180 -0.3288 -0.3722
  110SOL     OW  512   1.733   1.997   0.361 -0.1307  0.6766  0.4754
  110SOL    HW2  513   1.826   2.010   0.380 -0.0428  1.8120 -0.6797
  110SOL    HW3  514   1.696   2.085   0.361 -1.3700  0.1749  1.6980
  110SOL    MW4  515   1.740   2.010   0.363 -0.2826  0.7601  0.4843
  111SOL     OW  516   1.523   3.026   0.098 -0.3930 -0.1623 -0.2062
  111SOL    HW2  517   1.543   2.933   0.110 -0.7258 -0.2468 -0.3006
  111SOL    HW3  518   1.601   3.062   0.057 -0.0384 -0.2852  0.3512
  111SOL    MW4  519   1.536   3.018   0.095 -0.3899 -0.1895 -0.1451
  112SOL     OW  520   4.243   2.327   0.328 -0.2169 -0.1083  0.2487
  112SOL    HW2  521   4.249   2.238   0.292  0.3376 -0.0458  0.1753
  112SOL    HW3  522   4.333   2.359   0.327 -0.2314 -0.0001  1.4289
  112SOL    MW4  523   4.256   2.319   0.323 -0.1454 -0.0858  0.3947
  113SOL     OW  524   1.805   2.697   0.303  0.1067  0.7859  0.2190
  113SOL    HW2  525   1.894   2.694   0.269 -0.1144  2.5247 -0.5761
  113SOL    HW3  526   1.796   2.617   0.355  1.3109 -0.6554 -1.7132
  113SOL    MW4  527   1.815   2.686   0.306  0.2364  0.8249 -0.1408
  114SOL     OW  528   2.954   3.639   0.755  0.1246 -0.0700 -0.0360
  114SOL    HW2  529   2.878   3.590   0.788  0.6269  0.5541  2.0677
  114SOL    HW3  530   2.939   3.729   0.784  0.8805  0.3863 -1.0220
  114SOL    MW4  531   2.942   3.644   0.763  0.2904  0.0727  0.1115
  115SOL     OW  532   2.052   2.347   0.434 -0.1671 -0.1626 -0.1911
  115SOL    HW2  533   2.043   2.256   0.461  0.0281  0.0948  0.7721
  115SOL    HW3  534   2.141   2.354   0.401 -0.5135 -0.5596 -1.2633
  115SOL    MW4  535   2.062   2.336   0.433 -0.1869 -0.1810 -0.2055
  116SOL     OW  536   1.102   0.482   0.415  0.2737  0.5694 -0.0868
  116SOL    HW2  537   1.108   0.566   0.371 -0.6883  0.4453 -0.4612
  116SOL    HW3  538   1.013   0.478   0.449  0.5557  0.0389  0.6225
  116SOL    MW4  539   1.091   0.492   0.414  0.1841  0.4831 -0.0426
  117SOL     OW  540   0.656   2.865   0.715 -0.5151 -0.6242 -0.0245
  117SOL    HW2  541   0.737   2.833   0.755 -0.4203 -1.0881 -0.5865
  117SOL    HW3  542   0.589   2.852   0.783 -0.4862 -2.0540 -0.2527
  117SOL    MW4  543   0.658   2.859   0.730 -0.4988 -0.8740 -0.1287
  118SOL     OW  544   3.522   1.686   0.710  0.0794 -0.1803  0.0726
  118SOL    HW2  545   3.458   1.624   0.744 -1.3464  1.6192  0.7466
  118SOL    HW3  546   3.491   1.708   0.623 -0.1510  0.5772  0.3397
  118SOL    MW4  547   3.509   1.681   0.703 -0.1390  0.1570  0.1968
  119SOL     OW  548   1.778   2.436   0.441  0.0236 -0.2143  0.0795
  119SOL    HW2  549   1.769   2.469   0.530  0.2811 -0.9306  0.3677
  119SOL    HW3  550   1.865   2.397   0.437 -0.5334 -1.4716 -0.0569
  119SOL    MW4  551   1.788   2.435   0.452 -0.0161 -0.4747  0.0996
  120SOL     OW  552   0.414   2.465   0.201  0.6295  0.5620  0.0893
  120SOL    HW2  553   0.347   2.525   0.171  0.4669 -0.3692 -1.4976
  120SOL    HW3  554   0.419   2.479   0.295 -1.8348  0.6042  0.2498
  120SOL    MW4  555   0.406   2.475   0.209  0.2829  0.4447 -0.0989
  121SOL     OW  556   1.849   3.278   0.759  0.2878 -0.3212 -0.1040
  121SOL    HW2  557   1.847   3.362   0.805  1.3851 -0.5204  0.3251
  121SOL    HW3  558   1.826   3.299   0.668 -0.6192  0.2597  0.2616
  121SOL    MW4  559   1.846   3.292   0.753  0.3130 -0.2706  0.0008
  122SOL     OW  560   2.674   1.954   0.344 -0.3731  0.5927  0.2486
  122SOL    HW2  561   2.722   2.032   0.372  1.3055 -0.2515 -0.2380
  122SOL    HW3  562   2.603   1.989   0.289 -0.1150  1.8322  0.6833
  122SOL    MW4  563   2.671   1.969   0.340 -0.1175  0.6448  0.2417
  123SOL     OW  564   2.721   4.362   0.862  0.1405 -0.1184 -0.4386
  123SOL    HW2  565   2.705   4.346   0.955 -2.7902 -1.1994 -1.0938
  123SOL    HW3  566   2.638   4.396   0.829  0.2971 -2.3448 -3.2321
  123SOL    MW4  567   2.708   4.364   0.870 -0.2253 -0.5550 -0.8937
  124SOL     OW  568   2.091   3.915   0.849 -0.3957  0.0695  0.5136
  124SOL    HW2  569   2.066   3.912   0.941  0.5960 -1.0430  0.7604
  124SOL    HW3  570   2.093   3.823   0.822  1.8855  0.1976  0.1082
  124SOL    MW4  571   2.088   3.902   0.857  0.0362 -0.0603  0.4927
  125SOL     OW  572   2.977   3.959   0.443 -0.5160  0.1974  0.0563
  125SOL    HW2  573   3.003   3.868   0.457 -1.0521  0.3806  2.5247
  125SOL    HW3  574   3.060   4.006   0.434 -0.2479 -0.6144 -2.0106
  125SOL    MW4  575   2.992   3.953   0.443 -0.5517  0.1147  0.1093
  126SOL     OW  576   2.254   4.272   0.857 -0.1514  0.1820  0.0387
  126SOL    HW2  577   2.185   4.300   0.797  0.2350  0.8982 -0.0772
  126SOL    HW3  578   2.293   4.196   0.815 -0.5610  0.0601 -0.1230
  126SOL    MW4  579   2.250   4.266   0.844 -0.1543  0.2604  0.0020
  127SOL     OW  580   2.375   3.808   0.465  0.2123  0.0183  0.5444
  127SOL    HW2  581   2.461   3.790   0.426 -1.5585 -0.9918 -3.0123
  127SOL    HW3  582   2.365   3.903   0.458  0.3065 -0.0543 -0.6235
  127SOL    MW4  583   2.385   3.818   0.459 -0.0093 -0.1245 -0.0789
  128SOL     OW  584   2.360   4.034   0.759 -0.2461 -0.3675 -0.0352
  128SOL    HW2  585   2.282   3.982   0.778 -0.4342 -0.5405 -1.2527
  128SOL    HW3  586   2.359   4.045   0.664  1.8981 -1.4487 -0.2091
  128SOL    MW4  587   2.350   4.029   0.749  0.0119 -0.5331 -0.2188
  129SOL     OW  588   2.609   1.474   0.502 -0.1467 -0.1055  0.2743
  129SOL    HW2  589   2.665   1.426   0.442  0.4790  0.0129  0.7506
  129SOL    HW3  590   2.636   1.565   0.492 -1.5012  0.1924 -0.8133
  129SOL    MW4  591   2.620   1.480   0.493 -0.2427 -0.0507  0.1936
  130SOL     OW  592   2.999   0.819   0.535  0.3349  0.0011 -0.0301
  130SOL    HW2  593   2.971   0.806   0.625 -0.2398  0.4332 -0.1422
  130SOL    HW3  594   2.980   0.736   0.491 -3.3301  1.1406 -0.7559
  130SOL    MW4  595   2.993   0.807   0.541 -0.2244  0.2085 -0.1407
  131SOL     OW  596   2.748   0.553   0.834  0.3754 -0.5980 -0.2509
  131SOL    HW2  597   2.788   0.638   0.815 -0.7822  0.3031  1.1324
  131SOL    HW3  598   2.789   0.525   0.916 -1.3334  0.0632  0.8703
  131SOL    MW4  599   2.758   0.561   0.842 -0.0029 -0.3918  0.0796
  132SOL     OW  600   0.042   0.097   0.203 -0.3811 -0.1837 -0.4120
  132SOL    HW2  601   0.043   0.080   0.109 -0.3312  1.4351 -0.7167
  132SOL    HW3  602   0.109   0.164   0.216 -0.6444 -0.1383  0.7213
  132SOL    MW4  603   0.051   0.104   0.192 -0.4092  0.0359 -0.3027
  133SOL     OW  604   3.807   1.239   0.786 -0.1433 -0.2155  0.6396
  133SOL    HW2  605   3.727   1.190   0.802 -0.3468 -0.0876  0.0146
  133SOL    HW3  606   3.817   1.239   0.691  0.5422 -0.1456  0.7074
  133SOL    MW4  607   3.798   1.232   0.776 -0.0796 -0.1894  0.5661
  134SOL     OW  608   2.303   1.504   0.512  0.9669  0.0347 -0.0367
  134SOL    HW2  609   2.397   1.500   0.494  0.6965  0.7225 -1.6543
  134SOL    HW3  610   2.269   1.422   0.478  0.7847  0.3714 -0.6710
  134SOL    MW4  611   2.311   1.493   0.505  0.9069  0.1700 -0.3338
  135SOL     OW  612   3.275   4.476   0.473 -0.1445 -0.3233 -0.1581
  135SOL    HW2  613   3.281   4.432   0.557 -0.4575  1.0191  0.5768
  135SOL    HW3  614   3.181   4.490   0.460  0.0407  1.2076  0.1750
  135SOL    MW4  615   3.263   4.472   0.482 -0.1614  0.0558 -0.0172
  136SOL     OW  616   1.703   0.117   0.506 -0.1042 -0.1750 -0.9543
  136SOL    HW2  617   1.743   0.038   0.469  2.1115 -0.2904  1.5050
  136SOL    HW3  618   1.615   0.089   0.533  0.5249 -1.7068 -0.4328
  136SOL    MW4  619   1.697   0.103   0.504  0.2711 -0.3923 -0.5610
  137SOL     OW  620   1.994   2.015   0.724 -0.1740  0.4634  0.3269
  137SOL    HW2  621   1.994   2.101   0.766  0.1117 -0.5718  2.5339
  137SOL    HW3  622   1.906   1.981   0.741 -0.2612  0.2872 -0.4800
  137SOL    MW4  623   1.982   2.022   0.732 -0.1477  0.3037  0.5116
  138SOL     OW  624   3.705   0.949   0.598  0.1114  0.3817  0.3614
  138SOL    HW2  625   3.652   0.978   0.672 -1.0724 -0.2575 -0.2156
  138SOL    HW3  626   3.787   0.918   0.637  0.1770  1.6383  1.2408
  138SOL    MW4  627   3.709   0.948   0.613 -0.0365  0.4631  0.4013
  139SOL     OW  628   2.577   1.170   0.860 -0.5375 -0.0952  0.5299
  139SOL    HW2  629   2.602   1.255   0.824 -1.2475 -0.2922 -0.4780
  139SOL    HW3  630   2.482   1.165   0.844 -0.4078 -1.2930  0.1012
  139SOL    MW4  631   2.568   1.181   0.853 -0.6144 -0.2792  0.3403
  140SOL     OW  632   1.845   0.154   0.871  0.8328  0.3199  0.2473
  140SOL    HW2  633   1.754   0.125   0.868 -0.1212  3.2025 -0.2316
  140SOL    HW3  634   1.873   0.136   0.960 -0.0434 -1.0556  0.2525
  140SOL    MW4  635   1.837   0.148   0.882  0.5913  0.5188  0.1848
  141SOL     OW  636   2.358   1.969   0.693  0.0295  0.3856  0.0672
  141SOL    HW2  637   2.296   1.905   0.728  0.6931  0.1660  0.8339
  141SOL    HW3  638   2.332   1.979   0.601 -1.2610  0.4308  0.4221
  141SOL    MW4  639   2.346   1.962   0.685 -0.0532  0.3625  0.2152
  142SOL     OW  640   1.616   3.627   0.759 -0.1307  0.0938  0.5792
  142SOL    HW2  641   1.538   3.586   0.796  0.6348 -0.9064  1.1062
  142SOL    HW3  642   1.688   3.595   0.813  0.9076 -0.6958 -1.2169
  142SOL    MW4  643   1.616   3.617   0.771  0.1072 -0.1423  0.4117
  143SOL     OW  644   2.558   4.233   0.402  0.2675  0.1884  0.4839
  143SOL    HW2  645   2.636   4.198   0.444  1.3120  0.1411 -1.4634
  143SOL    HW3  646   2.554   4.324   0.429  1.8319  0.5860 -0.5784
  143SOL    MW4  647   2.567   4.240   0.411  0.6118  0.2346  0.0868
  144SOL     OW  648   2.736   3.511   0.846  0.0575 -0.0596 -0.0213
  144SOL    HW2  649   2.737   3.417   0.824  0.2156  0.1026 -0.7492
  144SOL    HW3  650   2.699   3.515   0.933  0.1751 -0.8197  0.0721
  144SOL    MW4  651   2.732   3.499   0.854  0.0939 -0.1385 -0.1051
  145SOL     OW  652   0.031   2.670   0.375 -0.2553  0.1844 -0.0436
  145SOL    HW2  653   0.090   2.664   0.300  0.7410  1.0918  0.6571
  145SOL    HW3  654   0.001   2.761   0.375  0.4499  0.4210  1.1879
  145SOL    MW4  655   0.035   2.682   0.365 -0.0308  0.3355  0.2113
  146SOL     OW  656   2.772   2.922   0.450  0.5049  0.7260  0.2706
  146SOL    HW2  657   2.802   3.012   0.465  0.7812  0.3366  2.2595
  146SOL    HW3  658   2.718   2.903   0.527 -0.1669 -0.5637 -0.5128
  146SOL    MW4  659   2.769   2.932   0.462  0.4528  0.5043  0.4297
  147SOL     OW  660   2.087   3.410   0.383  0.0175  0.3285 -0.2106
  147SOL    HW2  661   1.997   3.400   0.413 -0.1758 -0.8163 -1.1528
  147SOL    HW3  662   2.085   3.387   0.290  1.3867 -0.3061 -0.1027
  147SOL    MW4  663   2.075   3.406   0.375  0.1726  0.0937 -0.3207
  148SOL     OW  664   2.633   3.734   0.709  0.0979  0.6477  0.7295
  148SOL    HW2  665   2.660   3.647   0.739  0.7116  0.4072 -0.4826
  148SOL    HW3  666   2.674   3.743   0.623 -1.7059  1.2709 -0.0844
  148SOL    MW4  667   2.642   3.724   0.701 -0.0591  0.6981  0.4621
  149SOL     OW  668   2.332   4.100   0.485 -0.4059  0.0528 -0.2591
  149SOL    HW2  669   2.412   4.143   0.455 -0.5169 -0.3424 -1.1337
  149SOL    HW3  670   2.261   4.154   0.452 -0.5058  0.5217  0.7013
  149SOL    MW4  671   2.333   4.113   0.477 -0.4339  0.0625 -0.2478
  150SOL     OW  672   1.936   0.699   0.918  0.2677 -0.2043 -0.3941
  150SOL    HW2  673   1.924   0.772   0.858 -1.4050  0.7273  1.0321
  150SOL    HW3  674   1.867   0.636   0.896  0.4216 -0.4206 -0.2711
  150SOL    MW4  675   1.926   0.700   0.907  0.0672 -0.1099 -0.1896
  151SOL     OW  676   2.420   3.582   0.631 -0.0667  0.2330  0.2728
  151SOL    HW2  677   2.378   3.629   0.560 -0.6649  1.0804  1.1727
  151SOL    HW3  678   2.475   3.647   0.675 -1.0098  0.1593  1.6115
  151SOL    MW4  679   2.422   3.597   0.628 -0.2701  0.3352  0.5681
  152SOL     OW  680   3.489   0.635   0.866  0.0714  0.3197  0.2528
  152SOL    HW2  681   3.448   0.624   0.952  0.5868 -0.5707  0.3981
  152SOL    HW3  682   3.567   0.688   0.884 -0.3495  0.9674  0.1746
  152SOL    MW4  683   3.494   0.640   0.880  0.0839  0.2876  0.2617
  153SOL     OW  684   2.197   1.268   0.332 -0.0708 -0.3695  0.1997
  153SOL    HW2  685   2.154   1.258   0.248  0.1051 -1.1597  0.1992
  153SOL    HW3  686   2.164   1.196   0.385 -0.9979  0.7506  1.1641
  153SOL    MW4  687   2.187   1.257   0.328 -0.1700 -0.3260  0.3269
  154SOL     OW  688   0.211   4.509   0.485 -0.3167 -0.2023 -0.0421
  154SOL    HW2  689   0.253   4.522   0.400 -0.4302 -1.6149 -0.3197
  154SOL    HW3  690   0.213   4.596   0.526  0.3106  0.3494 -1.2175
  154SOL    MW4  691   0.217   4.522   0.479 -0.2489 -0.3161 -0.2339
  155SOL     OW  692   0.215   2.107   0.695 -0.5990  0.2517  0.1983
  155SOL    HW2  693   0.192   2.068   0.610  2.6674 -0.0877 -0.5660
  155SOL    HW3  694   0.277   2.046   0.734  0.4283  2.0226  1.3804
  155SOL    MW4  695   0.220   2.094   0.689 -0.0325  0.4404  0.2535
  156SOL     OW  696   3.322   0.350   0.851  0.4254  0.0798  0.3633
  156SOL    HW2  697   3.262   0.406   0.801 -0.6996 -0.9291  0.5489
  156SOL    HW3  698   3.283   0.347   0.939  0.5351 -0.8936  0.3828
  156SOL    MW4  699   3.309   0.357   0.856  0.2916 -0.1817  0.3903
  157SOL     OW  700   0.117   2.017   0.203  0.4368  0.2582 -0.4348
  157SOL    HW2  701   0.165   1.964   0.139 -0.4127  0.7934 -1.5293
  157SOL    HW3  702   0.170   2.096   0.212 -0.5117  1.1109 -2.0943
  157SOL    MW4  703   0.130   2.020   0.195  0.1995  0.4416 -0.7982
  158SOL     OW  704   2.914   1.768   0.431  0.0590  0.3274 -0.2724
  158SOL    HW2  705   2.840   1.757   0.491  0.8372  0.3439  0.7016
  158SOL    HW3  706   2.882   1.828   0.364 -0.8488  0.2558  0.0917
  158SOL    MW4  707   2.900   1.774   0.430  0.0417  0.3202 -0.0959
  159SOL     OW  708   2.523   2.330   0.240 -0.0867 -0.2734  0.4117
  159SOL    HW2  709   2.571   2.346   0.321 -0.2316 -0.9653  0.6408
  159SOL    HW3  710   2.559   2.393   0.177 -0.0041  0.2919  1.0235
  159SOL    MW4  711   2.534   2.340   0.242 -0.0951 -0.2902  0.5227
  160SOL     OW  712   2.794   0.251   0.557  0.4142 -0.2542  0.1408
  160SOL    HW2  713   2.857   0.203   0.610  0.1134  0.1565  0.8833
  160SOL    HW3  714   2.717   0.258   0.613  0.7409  1.7922  0.3781
  160SOL    MW4  715   2.792   0.246   0.572  0.4177  0.0699  0.2701
  161SOL     OW  716   2.271   2.251   0.712 -0.0986 -0.2654 -0.5222
  161SOL    HW2  717   2.285   2.158   0.731 -1.1798 -0.6651 -1.6137
  161SOL    HW3  718   2.275   2.257   0.617 -0.0818  0.8014 -0.4547
  161SOL    MW4  719   2.273   2.239   0.702 -0.2389 -0.1774 -0.6573
  162SOL     OW  720   2.147   1.811   0.833 -0.0741  0.3905 -0.6159
  162SOL    HW2  721   2.086   1.879   0.802 -0.4880  0.8943  1.2483
  162SOL    HW3  722   2.099   1.729   0.822  0.1268  0.4572 -2.1311
  162SOL    MW4  723   2.132   1.809   0.828 -0.1020  0.4656 -0.5699
  163SOL     OW  724   3.811   1.589   0.407 -0.3605 -0.2130  0.4937
  163SOL    HW2  725   3.818   1.591   0.502 -0.0481 -2.5039  0.5484
  163SOL    HW3  726   3.718   1.571   0.390 -0.1797 -1.0241  0.3815
  163SOL    MW4  727   3.799   1.587   0.417 -0.2954 -0.6223  0.4861
  164SOL     OW  728   2.267   3.188   0.479 -0.2237  0.1307  0.1491
  164SOL    HW2  729   2.199   3.249   0.447 -0.4580 -0.2521 -0.0955
  164SOL    HW3  730   2.262   3.195   0.574 -3.0607 -2.5028  0.2801
  164SOL    MW4  731   2.257   3.197   0.487 -0.6289 -0.2670  0.1341
  165SOL     OW  732   2.114   3.656   0.492 -0.5728  0.0343 -0.2405
  165SOL    HW2  733   2.118   3.570   0.449 -0.1224  0.2583 -0.6478
  165SOL    HW3  734   2.194   3.701   0.463 -2.0302  1.5385 -1.9806
  165SOL    MW4  735   2.125   3.650   0.482 -0.7057  0.2623 -0.5238
  166SOL     OW  736   2.534   3.326   0.479  0.1038  0.2090  0.0175
  166SOL    HW2  737   2.500   3.394   0.537  0.3905 -0.7156  1.2972
  166SOL    HW3  738   2.457   3.273   0.458  0.3648 -0.6836  1.2625
  166SOL    MW4  739   2.519   3.328   0.484  0.1760 -0.0308  0.3506
  167SOL     OW  740   3.694   3.043   0.380  0.3000 -0.3028  0.2899
  167SOL    HW2  741   3.707   3.060   0.286  0.8536 -0.9215  0.2554
  167SOL    HW3  742   3.669   3.129   0.416 -0.0455 -0.0885 -0.4413
  167SOL    MW4  743   3.692   3.057   0.372  0.3276 -0.3562  0.1889
  168SOL     OW  744   1.232   3.893   0.587 -0.6281 -0.5177 -0.3695
  168SOL    HW2  745   1.320   3.929   0.597  0.1787 -2.1694 -1.3359
  168SOL    HW3  746   1.200   3.882   0.676 -1.1303  3.0562 -0.0220
  168SOL    MW4  747   1.240   3.897   0.600 -0.5878 -0.2644 -0.4511
  169SOL     OW  748   2.066   3.652   0.765  0.4898  0.0775  0.5252
  169SOL    HW2  749   2.129   3.583   0.785  0.8487  0.3961  0.5217
  169SOL    HW3  750   2.070   3.660   0.670  2.1479  1.6477  0.6790
  169SOL    MW4  751   2.075   3.644   0.755  0.7558  0.3266  0.5451
  170SOL     OW  752   3.560   3.172   0.756 -0.1146 -0.2827 -0.0103
  170SOL    HW2  753   3.477   3.145   0.795  0.6354  0.4209  2.2050
  170SOL    HW3  754   3.579   3.257   0.798  1.2634 -0.0009 -1.1683
  170SOL    MW4  755   3.552   3.180   0.767  0.1662 -0.1523  0.1292
  171SOL     OW  756   3.808   4.605   0.794 -0.6189 -0.5540  0.3165
  171SOL    HW2  757   3.885   4.651   0.763  0.0255 -2.0831 -0.4348
  171SOL    HW3  758   3.736   4.668   0.786  0.5445  0.8870  1.0626
  171SOL    MW4  759   3.808   4.619   0.789 -0.3805 -0.5665  0.3158
  172SOL     OW  760   1.103   3.250   0.154  0.4155  0.1149 -0.1901
  172SOL    HW2  761   1.010   3.254   0.174  0.5143  0.1763  0.2705
  172SOL    HW3  762   1.138   3.334   0.186  0.8704 -0.4912  0.9169
  172SOL    MW4  763   1.096   3.262   0.161  0.4886  0.0429  0.0167
  173SOL     OW  764   3.946   3.604   0.526  0.1046  0.2690 -0.1866
  173SOL    HW2  765   4.036   3.635   0.524  0.3376 -0.4198 -0.4570
  173SOL    HW3  766   3.902   3.655   0.458 -0.0418  1.5751  0.8497
  173SOL    MW4  767   3.952   3.615   0.517  0.1161  0.3505 -0.0856
  174SOL     OW  768   3.302   3.571   0.537  0.0615  0.1456 -0.0401
  174SOL    HW2  769   3.288   3.477   0.539  0.7686  0.0105 -0.8969
  174SOL    HW3  770   3.393   3.581   0.506 -0.3523  1.1244 -0.9999
  174SOL    MW4  771   3.312   3.560   0.533  0.0999  0.2570 -0.2797
  175SOL     OW  772   2.778   3.205   0.503  0.2735 -0.1142  0.2706
  175SOL    HW2  773   2.829   3.274   0.461 -0.4506 -0.0475 -0.4960
  175SOL    HW3  774   2.688   3.235   0.497 -0.0196 -1.0237  0.1495
  175SOL    MW4  775   2.773   3.218   0.497  0.1395 -0.2253  0.1534
  176SOL     OW  776   2.525   4.503   0.449  0.0015  0.0922 -0.4739
  176SOL    HW2  777   2.609   4.543   0.426 -0.2760 -0.5302 -2.6721
  176SOL    HW3  778   2.462   4.574   0.446  0.3220  0.4299  0.5259
  176SOL    MW4  779   2.528   4.517   0.446  0.0072  0.0544 -0.6320
  177SOL     OW  780   3.217   1.049   0.836  0.1727 -0.3611 -0.1617
  177SOL    HW2  781   3.213   0.955   0.818 -0.1039 -0.6172  1.1543
  177SOL    HW3  782   3.197   1.056   0.930  1.0812  0.9309 -0.0488
  177SOL    MW4  783   3.214   1.038   0.846  0.2563 -0.2245  0.0268
  178SOL     OW  784   2.820   4.615   0.894 -0.1729  0.1138 -0.0567
  178SOL    HW2  785   2.738   4.664   0.895 -0.6403 -0.6652 -0.1114
  178SOL    HW3  786   2.794   4.525   0.877  0.7732 -0.0053 -0.9003
  178SOL    MW4  787   2.806   4.610   0.892 -0.1099 -0.0048 -0.1751
  179SOL     OW  788   1.929   0.819   0.540 -0.0058 -0.1033  0.5011
  179SOL    HW2  789   1.836   0.821   0.518  0.1482  0.2966 -0.0950
  179SOL    HW3  790   1.954   0.727   0.527  0.1377  0.1630 -1.2001
  179SOL    MW4  791   1.920   0.807   0.536  0.0334 -0.0154  0.1981
  180SOL     OW  792   3.525   1.337   0.457 -0.0991  0.3828 -0.5079
  180SOL    HW2  793   3.543   1.403   0.390  0.5915 -0.6664 -1.3794
  180SOL    HW3  794   3.609   1.293   0.470 -0.1265  0.8653  1.3859
  180SOL    MW4  795   3.538   1.340   0.450 -0.0114  0.3080 -0.3730
  181SOL     OW  796   4.187   0.761   0.662  0.0580 -0.1248  0.1955
  181SOL    HW2  797   4.231   0.791   0.582 -2.2259 -0.4423 -1.2288
  181SOL    HW3  798   4.171   0.668   0.647 -0.2644 -0.2198  1.1020
  181SOL    MW4  799   4.191   0.753   0.649 -0.2856 -0.1792  0.1273
  182SOL     OW  800   3.510   0.740   0.540  0.4124  0.3521  0.1795
  182SOL    HW2  801   3.566   0.816   0.559 -0.4943  0.8819  0.7455
  182SOL    HW3  802   3.427   0.777   0.513  0.3269 -0.4425 -0.6869
  182SOL    MW4  803   3.507   0.755   0.539  0.2813  0.3172  0.1398
  183SOL     OW  804   2.847   1.075   0.505 -0.1731 -0.0772 -0.0422
  183SOL    HW2  805   2.919   1.014   0.492 -2.5173 -2.5992 -1.9244
  183SOL    HW3  806   2.781   1.024   0.553 -1.1787  1.7820  0.5760
  183SOL    MW4  807   2.848   1.060   0.510 -0.6149 -0.1646 -0.2090
  184SOL     OW  808   3.519   1.894   0.876  0.2294  0.1182 -0.2484
  184SOL    HW2  809   3.452   1.942   0.827  0.7638  0.3609 -0.7498
  184SOL    HW3  810   3.535   1.814   0.825  1.6795  0.9534 -1.1596
  184SOL    MW4  811   3.513   1.890   0.863  0.4911  0.2604 -0.4348
  185SOL     OW  812   3.582   1.090   0.818 -0.0783 -0.3903 -0.0662
  185SOL    HW2  813   3.578   1.094   0.913  0.9885  0.1390 -0.0322
  185SOL    HW3  814   3.508   1.142   0.788  0.7375  1.1073  0.4807
  185SOL    MW4  815   3.572   1.097   0.827  0.1700 -0.1229  0.0104
  186SOL     OW  816   4.268   1.225   0.725 -0.0171  0.7683  0.4247
  186SOL    HW2  817   4.187   1.196   0.766 -0.1734 -0.5771 -0.7953
  186SOL    HW3  818   4.337   1.193   0.782 -0.2532 -0.4453  0.0382
  186SOL    MW4  819   4.266   1.217   0.738 -0.0691  0.4307  0.2127
  187SOL     OW  820   1.576   2.242   0.443 -0.2378 -0.0260 -0.3381
  187SOL    HW2  821   1.636   2.316   0.431 -0.4468  0.4349  1.3292
  187SOL    HW3  822   1.509   2.254   0.376  0.8773  0.1143 -1.4471
  187SOL    MW4  823   1.575   2.254   0.432 -0.1183  0.0532 -0.2645
  188SOL     OW  824   1.518   3.062   0.372 -0.1294 -0.0238  0.1028
  188SOL    HW2  825   1.519   3.049   0.277  0.9148  0.3916  0.0477
  188SOL    HW3  826   1.434   3.026   0.401 -0.2302 -0.6166 -0.9164
  188SOL    MW4  827   1.507   3.055   0.363 -0.0049 -0.0474 -0.0389
  189SOL     OW  828   4.288   0.849   0.412 -0.3206 -0.1568 -0.2587
  189SOL    HW2  829   4.311   0.934   0.449 -0.8618  0.0017 -0.2881
  189SOL    HW3  830   4.208   0.865   0.362  0.1247 -0.4687 -1.0877
  189SOL    MW4  831   4.280   0.862   0.410 -0.3333 -0.1771 -0.3720
  190SOL     OW  832   3.133   3.465   0.888  0.4371 -0.2321  0.2179
  190SOL    HW2  833   3.219   3.501   0.866  0.6342 -0.2144  0.9924
  190SOL    HW3  834   3.071   3.535   0.868  0.8961  0.9201  2.5892
  190SOL    MW4  835   3.137   3.479   0.883  0.5236 -0.0777  0.6330
  191SOL     OW  836   3.639   3.286   0.500 -0.4711  0.0244 -0.4344
  191SOL    HW2  837   3.615   3.249   0.585 -1.0083  1.9299  0.2600
  191SOL    HW3  838   3.734   3.297   0.505 -0.4389 -0.3134 -0.2716
  191SOL    MW4  839   3.648   3.283   0.512 -0.5379  0.2313 -0.3212
  192SOL     OW  840   0.226   0.309   0.276 -0.0628  0.4511 -0.4349
  192SOL    HW2  841   0.159   0.338   0.337 -0.1184  0.0350 -0.2999
  192SOL    HW3  842   0.292   0.265   0.330 -0.2488 -0.1652 -0.7029
  192SOL    MW4  843   0.226   0.307   0.291 -0.0947  0.3149 -0.4524
  193SOL     OW  844   3.305   2.791   0.547  0.1043  0.3194 -0.2787
  193SOL    HW2  845   3.336   2.708   0.511 -0.0264  0.2655 -0.2663
  193SOL    HW3  846   3.212   2.793   0.526  0.2567  0.7917 -0.9027
  193SOL    MW4  847   3.297   2.780   0.540  0.1070  0.3743 -0.3594
  194SOL     OW  848   1.639   0.228   0.237 -0.2663 -0.1366  0.1135
  194SOL    HW2  849   1.624   0.148   0.187 -1.3073  0.2005 -0.1249
  194SOL    HW3  850   1.690   0.200   0.313  0.5099 -0.8056 -0.6526
  194SOL    MW4  851   1.644   0.214   0.241 -0.3012 -0.1804 -0.0190
  195SOL     OW  852   3.380   3.879   0.848  0.3233 -0.3830  0.1489
  195SOL    HW2  853   3.376   3.877   0.943  1.3041  1.7539  0.2687
  195SOL    HW3  854   3.308   3.936   0.822  0.3458 -0.5873 -0.3667
  195SOL    MW4  855   3.370   3.886   0.857  0.4556 -0.1280  0.0967
  196SOL     OW  856   1.841   4.079   0.395  0.3867  0.3038 -0.8468
  196SOL    HW2  857   1.829   3.999   0.447 -0.3367  0.6044 -0.5483
  196SOL    HW3  858   1.753   4.114   0.385  0.7018  1.0446 -1.0163
  196SOL    MW4  859   1.828   4.073   0.400  0.3328  0.4411 -0.8297
  197SOL     OW  860   3.283   1.180   0.456 -0.1162 -0.4336 -0.2781
  197SOL    HW2  861   3.363   1.226   0.433  0.3578 -0.2567  1.6436
  197SOL    HW3  862   3.214   1.246   0.451  0.2018 -0.0649  0.2373
  197SOL    MW4  863   3.285   1.195   0.452 -0.0117 -0.3617  0.0435
  198SOL     OW  864   0.426   2.846   0.886 -0.3129  0.1727  0.1748
  198SOL    HW2  865   0.409   2.760   0.847  0.0336  0.0076  0.3869
  198SOL    HW3  866   0.361   2.904   0.846 -0.0621 -0.0319 -0.5336
  198SOL    MW4  867   0.415   2.842   0.875 -0.2341  0.1237  0.1093
  199SOL     OW  868   3.925   1.862   0.685 -0.1810 -0.1028  0.0658
  199SOL    HW2  869   3.872   1.783   0.690  1.0633 -0.8503  2.0361
  199SOL    HW3  870   3.877   1.925   0.740  0.5650 -0.5681  1.2840
  199SOL    MW4  871   3.912   1.860   0.693  0.0815 -0.2629  0.4866
  200SOL     OW  872   3.427   4.599   0.846  0.9225 -0.1818 -0.5096
  200SOL    HW2  873   3.408   4.606   0.940 -0.3921 -2.1685 -0.6043
  200SOL    HW3  874   3.351   4.638   0.804  0.9290 -0.4667 -0.7806
  200SOL    MW4  875   3.414   4.605   0.853  0.7503 -0.4816 -0.5580
  201SOL     OW  876   0.226   0.452   0.745 -0.1786 -0.0223 -0.1290
  201SOL    HW2  877   0.207   0.546   0.753 -2.1571 -0.3723 -0.4823
  201SOL    HW3  878   0.192   0.415   0.826  1.0432 -0.3843  0.2252
  201SOL    MW4  879   0.219   0.460   0.757 -0.2785 -0.1162 -0.1289
  202SOL     OW  880   3.691   0.111   0.489 -0.0054 -0.1950  0.5599
  202SOL    HW2  881   3.680   0.022   0.454  2.2956 -0.6385  0.9323
  202SOL    HW3  882   3.638   0.166   0.431  0.8067 -1.4291 -1.3843
  202SOL    MW4  883   3.682   0.106   0.477  0.4055 -0.4164  0.3525
  203SOL     OW  884   4.130   0.495   0.617  0.3733  0.4331  0.3319
  203SOL    HW2  885   4.091   0.445   0.689 -0.4491  0.8583  0.1931
  203SOL    HW3  886   4.199   0.438   0.583 -0.1459 -0.3564  0.5697
  203SOL    MW4  887   4.134   0.481   0.622  0.1965  0.3850  0.3451
  204SOL     OW  888   3.781   0.433   0.783  0.3100 -0.0200  0.1115
  204SOL    HW2  889   3.767   0.431   0.688 -0.6752  0.4190  0.2380
  204SOL    HW3  890   3.782   0.526   0.805 -0.1300 -0.1389  0.6302
  204SOL    MW4  891   3.779   0.445   0.773  0.1218  0.0223  0.1966
  205SOL     OW  892   0.254   2.252   0.293  0.0531 -0.2572 -0.1409
  205SOL    HW2  893   0.173   2.290   0.327 -0.9391 -0.7363 -1.9290
  205SOL    HW3  894   0.295   2.324   0.244  0.9739  0.1266  1.1523
  205SOL    MW4  895   0.249   2.267   0.291  0.0437 -0.2694 -0.2063
  206SOL     OW  896   2.994   1.190   0.726 -0.0378 -0.1220 -0.3799
  206SOL    HW2  897   3.070   1.138   0.751  0.4799  0.4772 -0.7230
  206SOL    HW3  898   2.946   1.134   0.665  0.1510 -0.4733 -0.2123
  206SOL    MW4  899   2.997   1.176   0.722  0.0556 -0.0892 -0.4030
  207SOL     OW  900   0.415   0.186   0.466  0.0418  0.4083 -0.3818
  207SOL    HW2  901   0.485   0.124   0.450 -0.1660  0.4517 -1.5149
  207SOL    HW3  902   0.459   0.265   0.498  0.4472  0.2394 -0.5226
  207SOL    MW4  903   0.430   0.188   0.468  0.0679  0.3917 -0.5499
  208SOL     OW  904   4.018   0.319   0.850  0.6263  0.4339 -0.6152
  208SOL    HW2  905   3.933   0.361   0.842  0.0303 -0.6987 -0.3695
  208SOL    HW3  906   4.007   0.234   0.808  1.4375  0.0162 -0.0033
  208SOL    MW4  907   4.006   0.313   0.843  0.6547  0.2294 -0.5020
  209SOL     OW  908   3.788   2.240   0.418 -0.2131 -0.4752 -0.1878
  209SOL    HW2  909   3.795   2.206   0.329  2.0544 -1.7685  0.4395
  209SOL    HW3  910   3.733   2.178   0.465  0.0716 -0.7721 -0.2450
  209SOL    MW4  911   3.782   2.228   0.413  0.1240 -0.6850 -0.1126
  210SOL     OW  912   0.054   2.629   0.645  0.3097 -0.5268 -0.5813
  210SOL    HW2  913   0.064   2.534   0.653  2.7541 -0.3060 -0.8038
  210SOL    HW3  914   0.040   2.643   0.551 -2.2107 -0.8262 -0.2817
  210SOL    MW4  915   0.053   2.618   0.634  0.2997 -0.5372 -0.5712
  211SOL     OW  916   4.424   3.308   0.720  0.2922 -0.0082 -0.3068
  211SOL    HW2  917   4.390   3.387   0.763 -1.2682 -0.8169 -0.0146
  211SOL    HW3  918   4.494   3.278   0.778 -0.1603  0.2792  0.4005
  211SOL    MW4  919   4.429   3.315   0.734  0.0267 -0.0768 -0.1750
  212SOL     OW  920   3.165   1.611   0.507  0.1072 -0.3376 -0.1226
  212SOL    HW2  921   3.088   1.658   0.475  1.3857  1.4945 -0.5801
  212SOL    HW3  922   3.144   1.519   0.493 -1.9643  0.1408 -0.3232
  212SOL    MW4  923   3.152   1.605   0.501  0.0026 -0.0329 -0.2094
  213SOL     OW  924   3.170   4.045   0.771  0.3153 -0.5668 -0.5108
  213SOL    HW2  925   3.187   4.043   0.677 -2.3859  2.1189 -1.1461
  213SOL    HW3  926   3.096   3.987   0.783  0.7032 -0.9600 -0.0267
  213SOL    MW4  927   3.163   4.037   0.760  0.0098 -0.2646 -0.5307
  214SOL     OW  928   3.496   2.220   0.196  0.0000  0.0487 -0.0918
  214SOL    HW2  929   3.567   2.170   0.235  0.3656 -1.3250 -2.3957
  214SOL    HW3  930   3.445   2.252   0.270  0.7025 -2.3570  1.4813
  214SOL    MW4  931   3.499   2.218   0.211  0.1409 -0.4497 -0.1882
  215SOL     OW  932   0.182   2.987   0.489  0.0475 -0.2453 -0.5171
  215SOL    HW2  933   0.199   3.080   0.474  2.2835 -0.5579 -0.1338
  215SOL    HW3  934   0.197   2.975   0.582 -0.5203 -0.9405 -0.5168
  215SOL    MW4  935   0.186   2.998   0.499  0.2676 -0.3784 -0.4665
  216SOL     OW  936   3.846   3.553   0.788  0.6757  0.4108  0.2676
  216SOL    HW2  937   3.923   3.512   0.828 -0.3267 -3.4837 -1.5681
  216SOL    HW3  938   3.874   3.572   0.698  0.6148  2.4895  0.6489
  216SOL    MW4  939   3.860   3.550   0.781  0.5352  0.1712  0.0757
  217SOL     OW  940   4.430   3.619   0.348  0.1946 -0.4793  0.3709
  217SOL    HW2  941   4.469   3.539   0.384 -0.3775 -0.9977 -0.1353
  217SOL    HW3  942   4.356   3.638   0.406  0.2309 -0.4154  0.3961
  217SOL    MW4  943   4.425   3.611   0.361  0.1240 -0.5391  0.3074
  218SOL     OW  944   3.123   3.200   0.794  0.0813  0.2058  0.3365
  218SOL    HW2  945   3.119   3.290   0.825 -0.9870  0.4549 -0.4942
  218SOL    HW3  946   3.202   3.164   0.833 -0.2198  1.0958  1.7698
  218SOL    MW4  947   3.132   3.207   0.803 -0.0997  0.3562  0.4160
  219SOL     OW  948   2.179   0.319   0.550 -0.1780  0.2743 -0.0148
  219SOL    HW2  949   2.130   0.400   0.533 -0.7546  0.1422  1.0036
  219SOL    HW3  950   2.114   0.259   0.586  0.6798  0.0164  1.1073
  219SOL    MW4  951   2.164   0.322   0.552 -0.1409  0.2229  0.2677
  220SOL     OW  952   4.080   3.441   0.909 -0.3464 -0.5017 -0.1995
  220SOL    HW2  953   4.169   3.473   0.890 -0.3466  0.2629  1.0646
  220SOL    HW3  954   4.067   3.459   1.002 -2.3375  0.6234 -0.6700
  220SOL    MW4  955   4.090   3.447   0.919 -0.6089 -0.2525 -0.0948
  221SOL     OW  956   0.126   4.097   0.371  0.3892  0.1053  0.1089
  221SOL    HW2  957   0.183   4.134   0.439  0.0911  1.4771 -0.3784
  221SOL    HW3  958   0.037   4.119   0.400  0.0682 -2.0893  0.9053
  221SOL    MW4  959   0.122   4.104   0.384  0.3075 -0.0033  0.1496
  222SOL     OW  960   4.429   4.487   0.521 -0.3273 -0.2658 -0.3930
  222SOL    HW2  961   4.523   4.472   0.529 -0.3955 -0.3479  0.2853
  222SOL    HW3  962   4.422   4.578   0.492 -0.1123  0.9190  3.0022
  222SOL    MW4  963   4.440   4.497   0.518 -0.3085 -0.1202  0.1445
  223SOL     OW  964   1.398   0.081   0.557 -0.4822 -0.6489 -0.5019
  223SOL    HW2  965   1.385   0.176   0.550  0.0862 -0.6071 -1.0387
  223SOL    HW3  966   1.347   0.044   0.485  1.0615 -0.5893 -1.6605
  223SOL    MW4  967   1.390   0.089   0.547 -0.2036 -0.6355 -0.7254
  224SOL     OW  968   4.015   3.943   0.781  0.5378  0.2610  0.0171
  224SOL    HW2  969   4.020   3.959   0.687  2.6702  0.0408  0.0699
  224SOL    HW3  970   4.089   3.886   0.800  0.7012  1.0812  1.9949
  224SOL    MW4  971   4.025   3.937   0.771  0.8407  0.3400  0.2851
  225SOL     OW  972   0.380   1.561   0.483 -0.1074 -0.2601 -0.2624
  225SOL    HW2  973   0.413   1.644   0.449 -1.2681  0.4680  0.3525
  225SOL    HW3  974   0.452   1.499   0.471  0.9155  0.9367 -0.3473
  225SOL    MW4  975   0.394   1.564   0.477 -0.1256 -0.0061 -0.1924
  226SOL     OW  976   0.138   1.426   0.505 -0.2442 -0.6070  0.0936
  226SOL    HW2  977   0.137   1.359   0.437  1.5040 -2.4699  1.8421
  226SOL    HW3  978   0.220   1.473   0.491 -0.5365 -0.1094  0.0651
  226SOL    MW4  979   0.149   1.423   0.495 -0.0522 -0.7871  0.3206
  227SOL     OW  980   0.151   1.307   0.761  0.1953  0.0117 -0.0943
  227SOL    HW2  981   0.149   1.338   0.671 -0.8715 -1.5525 -0.6332
  227SOL    HW3  982   0.239   1.271   0.773  0.8496  1.6016 -0.0077
  227SOL    MW4  983   0.162   1.307   0.751  0.1409  0.0150 -0.1540
  228SOL     OW  984   4.327   0.069   0.403  0.1869 -0.2656 -0.2052
  228SOL    HW2  985   4.250   0.025   0.366  0.7025 -0.8673 -0.5687
  228SOL    HW3  986   4.385   0.083   0.328  0.5385 -0.0262  0.1110
  228SOL    MW4  987   4.324   0.065   0.388  0.3014 -0.3134 -0.2114
  229SOL     OW  988   3.761   2.107   0.183  0.3303  0.6009 -0.1285
  229SOL    HW2  989   3.748   2.107   0.088  1.9131 -0.3299 -0.3551
  229SOL    HW3  990   3.782   2.017   0.205 -1.1138  0.5785  1.2907
  229SOL    MW4  991   3.762   2.095   0.173  0.3486  0.4749  0.0288
  230SOL     OW  992   0.803   1.854   0.894 -0.4025 -0.2603  0.3045
  230SOL    HW2  993   0.803   1.870   0.988  1.1374 -1.0955  0.4534
  230SOL    HW3  994   0.756   1.771   0.883 -0.6786 -0.1084  0.3069
  230SOL    MW4  995   0.796   1.846   0.905 -0.2357 -0.3506  0.3245
  231SOL     OW  996   3.729   2.049   0.797 -0.5196  0.5010 -0.0285
  231SOL    HW2  997   3.715   2.051   0.702  0.8626 -0.3900 -0.2665
  231SOL    HW3  998   3.663   1.988   0.829  1.5847 -2.3418 -0.9316
  231SOL    MW4  999   3.719   2.041   0.789 -0.0596  0.0083 -0.1791
  232SOL     OW 1000   2.290   1.438   0.781 -0.3006 -0.2406  0.1819
  232SOL    HW2 1001   2.308   1.451   0.688  2.0126 -2.9507  0.1699
  232SOL    HW3 1002   2.346   1.502   0.825  0.3308 -0.5056 -0.2293
  232SOL    MW4 1003   2.300   1.448   0.774  0.0877 -0.6330  0.1261
  233SOL     OW 1004   1.401   1.793   0.618  0.4020  0.0705  0.0419
  233SOL    HW2 1005   1.383   1.866   0.558  0.2732  1.0466  1.2318
  233SOL    HW3 1006   1.354   1.718   0.581 -0.9233  1.0326 -0.2816
  233SOL    MW4 1007   1.392   1.793   0.606  0.2100  0.3264  0.1562
  234SOL     OW 1008   3.558   1.551   0.292  0.5739 -0.1741 -0.6003
  234SOL    HW2 1009   3.499   1.614   0.332 -0.5651 -1.0824 -0.8318
  234SOL    HW3 1010   3.547   1.564   0.198  0.6196 -0.4671 -0.6461
  234SOL    MW4 1011   3.549   1.561   0.285  0.4296 -0.3325 -0.6368
  235SOL     OW 1012   0.390   2.895   0.323  0.7430 -0.0376 -0.3326
  235SOL    HW2 1013   0.327   2.931   0.386  0.3499  0.3128 -0.9191
  235SOL    HW3 1014   0.459   2.857   0.377  0.8180  0.9915  0.3003
  235SOL    MW4 1015   0.391   2.895   0.339  0.7011  0.1447 -0.3264
  236SOL     OW 1016   4.407   2.997   0.355 -0.3271  0.4685  0.1203
  236SOL    HW2 1017   4.492   2.984   0.397 -1.0626  0.3361  1.5992
  236SOL    HW3 1018   4.409   3.087   0.321  0.6630  0.2194 -0.4962
  236SOL    MW4 1019   4.418   3.007   0.356 -0.2942  0.4182  0.2341
  237SOL     OW 1020   0.295   3.256   0.516 -0.1319 -0.1088  0.3062
  237SOL    HW2 1021   0.377   3.247   0.466  0.2345 -2.0874  1.2096
  237SOL    HW3 1022   0.324   3.282   0.603 -0.5551  0.2854  0.3273
  237SOL    MW4 1023   0.310   3.259   0.521 -0.1394 -0.3178  0.4281
  238SOL     OW 1024   0.930   3.186   0.632 -0.2240 -0.2862 -0.4385
  238SOL    HW2 1025   0.945   3.122   0.562  0.7968  0.6463 -1.0891
  238SOL    HW3 1026   0.946   3.271   0.591 -2.4731  0.4748  0.1713
  238SOL    MW4 1027   0.934   3.189   0.617 -0.3861 -0.0629 -0.4439
  239SOL     OW 1028   3.377   3.102   0.408  0.7680  0.0380  0.3959
  239SOL    HW2 1029   3.472   3.107   0.397  0.5423  1.0084 -1.1900
  239SOL    HW3 1030   3.360   3.010   0.425  1.9380 -0.2263  0.1860
  239SOL    MW4 1031   3.387   3.091   0.409  0.8929  0.1311  0.1590
  240SOL     OW 1032   0.651   3.705   0.451 -0.2215  0.3135 -0.8001
  240SOL    HW2 1033   0.556   3.716   0.457 -0.0619  0.9334  0.8201
  240SOL    HW3 1034   0.682   3.784   0.406 -0.2622  1.1911  0.6718
  240SOL    MW4 1035   0.643   3.717   0.446 -0.2058  0.5112 -0.3921
  241SOL     OW 1036   4.116   2.555   0.473  0.2907  0.4016  0.0046
  241SOL    HW2 1037   4.146   2.487   0.412  0.4571  0.5369 -0.0664
  241SOL    HW3 1038   4.022   2.542   0.480  0.1610  0.8587 -0.8668
  241SOL    MW4 1039   4.108   2.544   0.466  0.2956  0.4795 -0.1197
  242SOL     OW 1040   0.446   1.829   0.429  0.0285 -0.3358 -0.5189
  242SOL    HW2 1041   0.485   1.912   0.401  0.3515 -0.3171 -0.0312
  242SOL    HW3 1042   0.353   1.848   0.438  0.2342  0.2301  0.4951
  242SOL    MW4 1043   0.439   1.842   0.427  0.0983 -0.2587 -0.3208
  243SOL     OW 1044   3.752   3.991   0.484  1.2185 -0.2870  0.4124
  243SOL    HW2 1045   3.704   3.997   0.566 -0.4305  0.3738 -0.5977
  243SOL    HW3 1046   3.737   4.075   0.440 -0.0853 -1.5885 -1.7302
  243SOL    MW4 1047   3.744   4.003   0.489  0.8285 -0.3715 -0.0036
  244SOL     OW 1048   0.736   3.456   0.357  0.0502  0.1199  0.0243
  244SOL    HW2 1049   0.704   3.544   0.376  0.9197  0.1449  1.4231
  244SOL    HW3 1050   0.658   3.401   0.358 -0.3653  0.7137  0.1230
  244SOL    MW4 1051   0.722   3.460   0.359  0.1100  0.2017  0.2219
  245SOL     OW 1052   0.641   2.339   0.547  0.2768  0.1582  0.1879
  245SOL    HW2 1053   0.718   2.291   0.514 -0.0480  0.1190 -0.5181
  245SOL    HW3 1054   0.646   2.329   0.642  0.9720 -0.1173  0.1264
  245SOL    MW4 1055   0.652   2.331   0.555  0.3256  0.1166  0.0867
  246SOL     OW 1056   3.961   2.914   0.439 -0.2507  0.2908  0.1858
  246SOL    HW2 1057   3.888   2.970   0.415 -0.3211  0.6533  1.2188
  246SOL    HW3 1058   3.924   2.827   0.445 -0.6311  0.4942  0.8338
  246SOL    MW4 1059   3.947   2.910   0.437 -0.3102  0.3657  0.4076
  247SOL     OW 1060   0.464   4.080   0.464 -0.2561  0.3613 -0.1676
  247SOL    HW2 1061   0.555   4.110   0.473 -0.2232  0.4479 -0.7453
  247SOL    HW3 1062   0.411   4.148   0.505 -0.0662  0.3701  0.0616
  247SOL    MW4 1063   0.469   4.093   0.471 -0.2267  0.3738 -0.2136
  248SOL     OW 1064   0.887   0.795   0.499  0.0783  0.1401 -0.1377
  248SOL    HW2 1065   0.881   0.867   0.435  3.3350  0.4720 -0.1496
  248SOL    HW3 1066   0.822   0.732   0.470  0.3055  1.0697 -2.8220
  248SOL    MW4 1067   0.878   0.796   0.487  0.5381  0.3065 -0.4934
  249SOL     OW 1068   0.280   4.268   0.591 -0.0360 -0.3064  0.6410
  249SOL    HW2 1069   0.273   4.274   0.686 -0.8600  0.7151  0.5249
  249SOL    HW3 1070   0.264   4.357   0.560  1.1383 -0.4401 -0.4062
  249SOL    MW4 1071   0.277   4.281   0.599  0.0103 -0.1893  0.4875
  250SOL     OW 1072   0.911   0.880   0.793 -0.1253  0.5292  0.0872
  250SOL    HW2 1073   0.929   0.856   0.702  0.2616  0.0086  0.2947
  250SOL    HW3 1074   0.989   0.851   0.841 -0.7260 -0.0561  0.7186
  250SOL    MW4 1075   0.924   0.873   0.787 -0.1535  0.3833  0.1979
  251SOL     OW 1076   4.371   0.809   0.854 -0.2763  0.0196  0.3667
  251SOL    HW2 1077   4.311   0.804   0.779  0.4930 -0.0513 -0.2526
  251SOL    HW3 1078   4.404   0.899   0.852 -0.0818 -0.0495  0.4884
  251SOL    MW4 1079   4.367   0.820   0.844 -0.1497  0.0011  0.3009
  252SOL     OW 1080   0.840   0.460   0.520  0.0316  0.0177  0.6915
  252SOL    HW2 1081   0.816   0.487   0.609 -1.3706  0.4102  0.2142
  252SOL    HW3 1082   0.816   0.368   0.516 -1.4452  0.4190  0.2036
  252SOL    MW4 1083   0.834   0.452   0.532 -0.3482  0.1225  0.5642
  253SOL     OW 1084   0.007   1.081   0.846  0.3457  0.0018 -0.2028
  253SOL    HW2 1085   0.050   1.164   0.823 -0.2298  0.2981 -0.2492
  253SOL    HW3 1086  -0.005   1.086   0.941 -0.0844  0.1691 -0.2650
  253SOL    MW4 1087   0.011   1.093   0.855  0.2127  0.0629 -0.2170
  254SOL     OW 1088   0.606   1.360   0.471  0.3732 -0.1320 -0.2132
  254SOL    HW2 1089   0.687   1.398   0.436  0.7688 -0.4648  0.3424
  254SOL    HW3 1090   0.624   1.344   0.563 -1.0245  1.7175  0.4099
  254SOL    MW4 1091   0.619   1.363   0.478  0.2410  0.0682 -0.0577
  255SOL     OW 1092   0.444   1.656   0.761  0.2580 -0.1520  0.5284
  255SOL    HW2 1093   0.375   1.612   0.810  0.2026  1.3206  1.8360
  255SOL    HW3 1094   0.419   1.645   0.669 -0.4892 -1.5957  0.8861
  255SOL    MW4 1095   0.431   1.649   0.755  0.1522 -0.1482  0.7481
  256SOL     OW 1096   3.824   2.630   0.469 -0.1433 -0.3563 -0.2477
  256SOL    HW2 1097   3.770   2.580   0.408 -0.3518 -1.5244  0.8674
  256SOL    HW3 1098   3.763   2.691   0.511 -0.3648 -0.8250  0.1182
  256SOL    MW4 1099   3.809   2.632   0.467 -0.2003 -0.5722 -0.0523
  257SOL     OW 1100   0.219   2.667   0.185  0.2349  0.0969 -0.5696
  257SOL    HW2 1101   0.186   2.693   0.100  0.3848  2.8054  0.1581
  257SOL    HW3 1102   0.272   2.741   0.214  0.3527 -0.8637  1.7962
  257SOL    MW4 1103   0.222   2.680   0.178  0.2702  0.3271 -0.1614
  258SOL     OW 1104   0.179   1.910   0.450 -0.1724 -0.2217 -0.0562
  258SOL    HW2 1105   0.159   1.947   0.364 -1.3206 -0.0045  0.2991
  258SOL    HW3 1106   0.129   1.829   0.453 -1.4883  0.6079  1.0629
  258SOL    MW4 1107   0.170   1.904   0.439 -0.4975 -0.0837  0.1383
  259SOL     OW 1108   0.275   2.334   0.823  0.1907  0.2389  0.1825
  259SOL    HW2 1109   0.284   2.326   0.918  0.5361 -0.8418  0.0662
  259SOL    HW3 1110   0.264   2.244   0.792  0.8723  0.5017 -0.8753
  259SOL    MW4 1111   0.275   2.321   0.831  0.3262  0.1314  0.0275
  260SOL     OW 1112   4.258   1.706   0.387  0.1981 -0.3583 -0.2191
  260SOL    HW2 1113   4.348   1.716   0.417  0.6773 -1.3786 -1.2577
  260SOL    HW3 1114   4.213   1.784   0.419  1.3424 -0.0638  0.6971
  260SOL    MW4 1115   4.264   1.718   0.395  0.4120 -0.4542 -0.2352
  261SOL     OW 1116   4.472   2.822   0.868 -0.4687 -0.1823  0.2622
  261SOL    HW2 1117   4.494   2.798   0.958 -0.9676 -2.7703 -0.2865
  261SOL    HW3 1118   4.497   2.747   0.815 -0.2522  1.2713 -1.7928
  261SOL    MW4 1119   4.478   2.809   0.873 -0.5069 -0.3321 -0.0814
  262SOL     OW 1120   0.037   3.386   0.473 -0.1084 -0.0341 -0.2015
  262SOL    HW2 1121  -0.001   3.374   0.560  1.3848  1.1485  0.6503
  262SOL    HW3 1122   0.130   3.366   0.485  0.1261  0.2660 -1.4906
  262SOL    MW4 1123   0.044   3.382   0.486  0.1195  0.1614 -0.2592
  263SOL     OW 1124   0.188   2.973   0.760  0.3853  0.2326 -0.5743
  263SOL    HW2 1125   0.184   3.063   0.793  1.5689  0.4245 -0.9196
  263SOL    HW3 1126   0.121   2.927   0.809 -0.4542  1.3761 -0.6157
  263SOL    MW4 1127   0.179   2.979   0.771  0.4307  0.4089 -0.6253
  264SOL     OW 1128   0.166   3.211   0.863 -0.1566 -0.4353 -0.3312
  264SOL    HW2 1129   0.174   3.216   0.958  0.9566  0.3736 -0.4578
  264SOL    HW3 1130   0.243   3.256   0.830 -0.7812 -0.2941 -1.6287
  264SOL    MW4 1131   0.177   3.217   0.871 -0.0921 -0.3099 -0.5192
  265SOL     OW 1132   4.240   2.971   0.900 -0.2758 -0.5924  0.3315
  265SOL    HW2 1133   4.320   2.919   0.891 -0.5928 -0.8085 -1.4012
  265SOL    HW3 1134   4.170   2.906   0.910 -0.4935 -0.4671 -0.3501
  265SOL    MW4 1135   4.242   2.956   0.900 -0.3462 -0.6044  0.0129
  266SOL     OW 1136   3.657   2.466   0.304  0.3378  0.1395 -0.1277
  266SOL    HW2 1137   3.627   2.434   0.219  2.2422  1.0972 -1.1932
  266SOL    HW3 1138   3.701   2.391   0.344 -0.2349 -0.2037 -0.1323
  266SOL    MW4 1139   3.658   2.452   0.298  0.5133  0.2205 -0.2688
  267SOL     OW 1140   0.974   3.424   0.499  0.4586  0.4185 -0.3353
  267SOL    HW2 1141   0.892   3.433   0.450  0.7636 -1.5554 -1.2753
  267SOL    HW3 1142   1.042   3.434   0.433  0.8791 -2.2217 -0.3527
  267SOL    MW4 1143   0.972   3.426   0.484  0.5543 -0.1905 -0.4616
  268SOL     OW 1144   4.375   4.194   0.468  0.4614 -0.4019  0.4201
  268SOL    HW2 1145   4.377   4.196   0.564 -3.7620  0.1121  0.6061
  268SOL    HW3 1146   4.389   4.285   0.442 -0.1705 -0.2308  0.6583
  268SOL    MW4 1147   4.377   4.206   0.477 -0.1788 -0.3114  0.4761
  269SOL     OW 1148   3.587   3.433   0.869  0.2645  0.2771  0.5373
  269SOL    HW2 1149   3.669   3.474   0.840  1.0844 -1.1318  0.8192
  269SOL    HW3 1150   3.518   3.490   0.834  1.3800  2.1740  1.3518
  269SOL    MW4 1151   3.589   3.446   0.861  0.5198  0.3417  0.6819
  270SOL     OW 1152   4.024   4.350   0.695 -0.5232 -0.0551 -0.0319
  270SOL    HW2 1153   4.064   4.299   0.765  0.1249 -0.4526 -0.6904
  270SOL    HW3 1154   3.930   4.331   0.703 -0.1326 -2.8048 -1.3914
  270SOL    MW4 1155   4.017   4.341   0.706 -0.3858 -0.4697 -0.2981
  271SOL     OW 1156   0.639   0.063   0.877  0.1899  0.2485 -0.4328
  271SOL    HW2 1157   0.671   0.027   0.959 -1.2317  1.0227  0.4683
  271SOL    HW3 1158   0.625  -0.014   0.821  1.5924 -0.2434 -0.1210
  271SOL    MW4 1159   0.641   0.048   0.880  0.1874  0.2858 -0.2728
  272SOL     OW 1160   4.082   1.478   0.433 -0.0079  0.1793 -0.3137
  272SOL    HW2 1161   3.991   1.506   0.424  0.2893  1.1249 -0.3905
  272SOL    HW3 1162   4.133   1.552   0.402  0.7993 -0.2879 -0.1125
  272SOL    MW4 1163   4.076   1.491   0.428  0.1378  0.2425 -0.2973
  273SOL     OW 1164   0.292   4.585   0.815  0.0167  0.2185  0.4824
  273SOL    HW2 1165   0.234   4.509   0.826  1.3118 -0.7856  0.5457
  273SOL    HW3 1166   0.243   4.644   0.758 -1.9382  0.3335  2.2231
  273SOL    MW4 1167   0.278   4.583   0.809 -0.0704  0.1011  0.7204
  274SOL     OW 1168   0.305   0.811   0.333 -0.1546  0.3478 -0.4353
  274SOL    HW2 1169   0.214   0.793   0.356 -0.5567  0.9593 -1.5371
  274SOL    HW3 1170   0.348   0.825   0.418 -1.4041  1.5531  0.0199
  274SOL    MW4 1171   0.299   0.810   0.348 -0.3725  0.5876 -0.5206
  275SOL     OW 1172   0.573   4.546   0.706  0.4333 -0.2461  0.1710
  275SOL    HW2 1173   0.483   4.560   0.735 -0.1363 -0.9105 -1.2736
  275SOL    HW3 1174   0.585   4.451   0.710  0.8226 -0.2215 -0.3849
  275SOL    MW4 1175   0.563   4.536   0.711  0.4095 -0.3314 -0.0929
  276SOL     OW 1176   0.454   0.916   0.802  0.7632  0.0042  0.1327
  276SOL    HW2 1177   0.466   0.903   0.708  0.4291 -0.1554  0.1087
  276SOL    HW3 1178   0.362   0.894   0.817  0.2914  1.9146  0.1791
  276SOL    MW4 1179   0.443   0.911   0.792  0.6569  0.2352  0.1355
  277SOL     OW 1180   0.664   1.335   0.748 -0.0787  0.3834 -0.1728
  277SOL    HW2 1181   0.725   1.280   0.797  0.0299 -0.1096 -0.8413
  277SOL    HW3 1182   0.676   1.423   0.783  0.0726  0.0559  0.5992
  277SOL    MW4 1183   0.674   1.339   0.759 -0.0444  0.2753 -0.1591
  278SOL     OW 1184   1.092   1.468   0.350  0.0631 -0.1476 -0.5159
  278SOL    HW2 1185   1.116   1.514   0.270 -0.5479 -0.6553 -0.9952
  278SOL    HW3 1186   0.999   1.485   0.361 -0.2104 -1.4019 -0.7990
  278SOL    MW4 1187   1.083   1.476   0.341 -0.0535 -0.3800 -0.6165
  279SOL     OW 1188   0.692   1.583   0.851  0.3479  0.3846 -0.2056
  279SOL    HW2 1189   0.681   1.552   0.941  0.0966  1.7041  0.2390
  279SOL    HW3 1190   0.605   1.613   0.826  0.0178 -1.6212 -1.5475
  279SOL    MW4 1191   0.679   1.583   0.860  0.2713  0.2941 -0.3241
  280SOL     OW 1192   0.393   1.938   0.813  0.3707  0.0348  0.3207
  280SOL    HW2 1193   0.398   1.937   0.909 -1.3874  0.1200  0.4245
  280SOL    HW3 1194   0.408   1.847   0.788  0.0809 -0.1277  0.7295
  280SOL    MW4 1195   0.395   1.926   0.822  0.1005  0.0246  0.3883
  281SOL     OW 1196   0.029   1.739   0.764 -0.1818  0.2892  0.6172
  281SOL    HW2 1197   0.027   1.833   0.786 -2.9839  0.6212 -0.8549
  281SOL    HW3 1198  -0.054   1.705   0.797  0.6650 -1.6448  0.8362
  281SOL    MW4 1199   0.018   1.747   0.771 -0.4398  0.0778  0.4518
  282SOL     OW 1200   4.126   3.177   0.347 -0.2899 -0.0979 -0.3277
  282SOL    HW2 1201   4.201   3.237   0.342  0.4462 -1.0509 -0.7198
  282SOL    HW3 1202   4.058   3.229   0.389  0.8236  0.5415  0.7218
  282SOL    MW4 1203   4.127   3.192   0.352 -0.0453 -0.1392 -0.2410
  283SOL     OW 1204   0.717   2.310   0.829 -0.1807 -0.1059  0.2340
  283SOL    HW2 1205   0.694   2.316   0.922 -1.5225 -1.6749  0.0219
  283SOL    HW3 1206   0.716   2.217   0.810 -0.5492  0.2396 -1.5176
  283SOL    MW4 1207   0.714   2.299   0.839 -0.4063 -0.2670 -0.0252
  284SOL     OW 1208   0.875   2.520   0.741 -0.3644  0.5318 -0.3350
  284SOL    HW2 1209   0.957   2.481   0.772  0.6603  2.5012 -0.4731
  284SOL    HW3 1210   0.808   2.456   0.765  1.2357 -1.2977 -0.5593
  284SOL    MW4 1211   0.877   2.506   0.748 -0.0181  0.5503 -0.3828
  285SOL     OW 1212   0.440   2.504   0.477  0.2340 -0.3626 -0.6393
  285SOL    HW2 1213   0.524   2.460   0.492  1.5247  2.1955 -0.1186
  285SOL    HW3 1214   0.399   2.506   0.564 -0.1741 -1.1941 -0.8067
  285SOL    MW4 1215   0.446   2.498   0.491  0.3505 -0.1347 -0.5927
  286SOL     OW 1216   0.385   3.370   0.764 -0.2203 -0.1808  0.3086
  286SOL    HW2 1217   0.396   3.463   0.781 -1.9085 -0.1691  1.5492
  286SOL    HW3 1218   0.469   3.331   0.787  0.8627  1.1636 -1.2983
  286SOL    MW4 1219   0.397   3.377   0.769 -0.3001 -0.0019  0.2602
  287SOL     OW 1220   1.511   4.431   0.454  0.1282  0.0040 -0.3371
  287SOL    HW2 1221   1.433   4.485   0.437  0.5650  0.9344  0.5442
  287SOL    HW3 1222   1.524   4.438   0.549  1.3572 -0.0438 -0.4972
  287SOL    MW4 1223   1.502   4.439   0.464  0.3481  0.1206 -0.2419
  288SOL     OW 1224   0.620   3.930   0.887 -0.4040  0.6037 -0.1688
  288SOL    HW2 1225   0.669   3.924   0.969  0.2094  0.9662 -0.5079
  288SOL    HW3 1226   0.619   3.840   0.853 -0.0973  0.5689 -0.0883
  288SOL    MW4 1227   0.626   3.917   0.893 -0.2826  0.6471 -0.2029
  289SOL     OW 1228   0.261   3.945   0.857 -0.0283  0.0497  0.0504
  289SOL    HW2 1229   0.326   4.014   0.847 -1.2145  1.1706 -0.0086
  289SOL    HW3 1230   0.259   3.927   0.951 -0.9147  1.2627  0.2647
  289SOL    MW4 1231   0.269   3.952   0.868 -0.3017  0.3576  0.0709
  290SOL     OW 1232   0.376   3.668   0.788 -0.4107 -0.1433  0.0863
  290SOL    HW2 1233   0.354   3.710   0.871 -0.3440  0.5480 -0.2469
  290SOL    HW3 1234   0.369   3.737   0.723  0.2100 -0.5195 -0.3916
  290SOL    MW4 1235   0.372   3.683   0.790 -0.3200 -0.1016 -0.0207
  291SOL     OW 1236   1.157   2.981   0.113  0.1284  0.1070  0.3188
  291SOL    HW2 1237   1.234   3.012   0.065 -0.1449 -0.0312 -0.2174
  291SOL    HW3 1238   1.125   3.058   0.159 -1.2345  0.9687 -1.9373
  291SOL    MW4 1239   1.163   2.995   0.113 -0.0875  0.2027 -0.0496
  292SOL     OW 1240   0.638   4.282   0.703 -0.1833 -0.8462 -0.5282
  292SOL    HW2 1241   0.568   4.236   0.750 -0.4986 -0.1216 -0.2819
  292SOL    HW3 1242   0.715   4.271   0.758 -0.6461  0.3658  0.4042
  292SOL    MW4 1243   0.639   4.275   0.716 -0.2859 -0.5903 -0.3727
  293SOL     OW 1244   0.445   4.142   0.838  0.3013 -0.5380  0.0784
  293SOL    HW2 1245   0.457   4.176   0.927 -0.7272 -0.6793  0.2819
  293SOL    HW3 1246   0.495   4.060   0.837  0.5139 -0.4166  0.4501
  293SOL    MW4 1247   0.453   4.135   0.850  0.1937 -0.5403  0.1543
  294SOL     OW 1248   0.111   4.376   0.860  0.0059  0.5537  0.2326
  294SOL    HW2 1249   0.056   4.455   0.857 -1.0540 -0.2242 -2.2980
  294SOL    HW3 1250   0.084   4.332   0.940 -1.9449  1.0060 -0.1243
  294SOL    MW4 1251   0.100   4.381   0.870 -0.3913  0.5112 -0.1484
  295SOL     OW 1252   1.088   4.611   0.885 -0.0670  0.0779  0.2998
  295SOL    HW2 1253   1.169   4.660   0.874 -0.2382  0.1919 -0.4760
  295SOL    HW3 1254   1.023   4.660   0.836 -0.3580 -0.6229 -0.0243
  295SOL    MW4 1255   1.090   4.624   0.877 -0.1279  0.0005  0.1547
  296SOL     OW 1256   1.594   0.891   0.612 -0.2763  0.6912  0.2898
  296SOL    HW2 1257   1.570   0.965   0.556 -1.4618  0.9620  1.1363
  296SOL    HW3 1258   1.539   0.819   0.581  0.0158  0.4856  0.2473
  296SOL    MW4 1259   1.583   0.891   0.600 -0.3941  0.6998  0.3959
  297SOL     OW 1260   1.725   1.108   0.879  0.3799 -0.4440  0.1440
  297SOL    HW2 1261   1.629   1.105   0.872  0.5356 -2.2615 -1.7047
  297SOL    HW3 1262   1.748   1.198   0.855 -0.7068 -0.7290 -2.1631
  297SOL    MW4 1263   1.715   1.119   0.875  0.2570 -0.7213 -0.4043
  298SOL     OW 1264   1.547   1.138   0.462  0.3715  0.2357 -0.1748
  298SOL    HW2 1265   1.498   1.215   0.492  0.6588 -0.4233  2.0692
  298SOL    HW3 1266   1.638   1.161   0.477  0.6034  0.3577 -1.7080
  298SOL    MW4 1267   1.552   1.151   0.468  0.4399  0.1650 -0.0810
  299SOL     OW 1268   1.824   1.197   0.520 -0.3216  0.1173  0.5412
  299SOL    HW2 1269   1.826   1.218   0.613 -1.0825  0.7527  0.4188
  299SOL    HW3 1270   1.897   1.136   0.508 -1.2362 -1.2579  1.8557
  299SOL    MW4 1271   1.834   1.192   0.531 -0.5426  0.0196  0.6984
  300SOL     OW 1272   0.856   1.137   0.851 -0.0098 -0.1247 -0.7633
  300SOL    HW2 1273   0.924   1.188   0.806  0.5508 -1.0933 -1.0239
  300SOL    HW3 1274   0.866   1.048   0.817 -0.8846 -0.4476 -0.1952
  300SOL    MW4 1275   0.866   1.132   0.841 -0.0513 -0.2950 -0.7227
  301SOL     OW 1276   2.459   0.778   0.613  0.2861 -0.5283 -0.0639
  301SOL    HW2 1277   2.444   0.752   0.522 -0.4016  0.2742 -0.1829
  301SOL    HW3 1278   2.393   0.846   0.630  0.1467 -0.9660  1.1602
  301SOL    MW4 1279   2.448   0.784   0.603  0.1771 -0.4802  0.0819
  302SOL     OW 1280   0.507   2.126   0.381 -0.2252 -0.2796  0.2688
  302SOL    HW2 1281   0.532   2.172   0.461  0.3729 -0.2065  0.0404
  302SOL    HW3 1282   0.427   2.170   0.352 -0.5009 -0.3659  0.8716
  302SOL    MW4 1283   0.500   2.138   0.388 -0.1827 -0.2813  0.3182
  303SOL     OW 1284   1.279   1.741   0.868  0.2376 -0.3830 -0.3154
  303SOL    HW2 1285   1.285   1.815   0.929 -1.0698  0.9912 -1.8102
  303SOL    HW3 1286   1.304   1.778   0.783 -2.2191 -1.1947 -1.4425
  303SOL    MW4 1287   1.283   1.756   0.865 -0.2590 -0.3089 -0.6613
  304SOL     OW 1288   0.780   2.839   0.321  0.0645 -0.5368  0.2667
  304SOL    HW2 1289   0.808   2.761   0.274  0.1978 -0.8109  0.7987
  304SOL    HW3 1290   0.714   2.807   0.383  1.5862 -0.5580  1.8944
  304SOL    MW4 1291   0.775   2.825   0.323  0.2829 -0.5758  0.5516
  305SOL     OW 1292   1.035   1.869   0.746  0.3607 -0.2386  0.4140
  305SOL    HW2 1293   1.037   1.963   0.729  0.3039  0.0970  2.1946
  305SOL    HW3 1294   0.971   1.858   0.817  1.8188 -1.3547  1.6002
  305SOL    MW4 1295   1.027   1.880   0.753  0.5454 -0.3415  0.8054
  306SOL     OW 1296   1.275   2.056   0.510 -0.1638 -0.1644  0.1709
  306SOL    HW2 1297   1.217   1.992   0.469 -0.1334 -0.3848  0.4722
  306SOL    HW3 1298   1.222   2.097   0.578 -0.0048 -0.2747  0.3616
  306SOL    MW4 1299   1.261   2.053   0.513 -0.1389 -0.2081  0.2357
  307SOL     OW 1300   1.101   2.376   0.812 -0.4589  0.6356  0.0796
  307SOL    HW2 1301   1.115   2.368   0.906  0.4487  0.5171 -0.0595
  307SOL    HW3 1302   1.187   2.399   0.777 -0.9494  1.4300 -0.6321
  307SOL    MW4 1303   1.114   2.378   0.820 -0.4039  0.7248 -0.0327
  308SOL     OW 1304   3.340   2.310   0.430 -0.8141 -0.2466  0.0165
  308SOL    HW2 1305   3.245   2.321   0.438 -0.8779 -0.5347 -0.2956
  308SOL    HW3 1306   3.377   2.391   0.463 -1.1180 -0.6399  1.3262
  308SOL    MW4 1307   3.332   2.322   0.435 -0.8626 -0.3366  0.1481
  309SOL     OW 1308   0.924   2.790   0.822  0.6933  0.0174  0.4622
  309SOL    HW2 1309   0.916   2.788   0.918 -0.0286  0.9598  0.4306
  309SOL    HW3 1310   0.918   2.698   0.796 -2.6398 -0.0019  1.0565
  309SOL    MW4 1311   0.922   2.777   0.831  0.1583  0.1390  0.5364
  310SOL     OW 1312   1.193   2.883   0.712  0.2091  0.4150 -0.2087
  310SOL    HW2 1313   1.185   2.971   0.748  0.8275  0.5824 -0.4857
  310SOL    HW3 1314   1.112   2.839   0.740 -0.7558  1.4890 -1.2709
  310SOL    MW4 1315   1.181   2.889   0.721  0.1634  0.5791 -0.3854
  311SOL     OW 1316   1.152   3.135   0.802  0.5532 -0.6006  0.0730
  311SOL    HW2 1317   1.075   3.158   0.751  0.7723 -1.6574 -0.7353
  311SOL    HW3 1318   1.224   3.183   0.760  0.5701 -0.6905  0.0002
  311SOL    MW4 1319   1.151   3.145   0.790  0.5844 -0.7517 -0.0433
  312SOL     OW 1320   0.633   3.692   0.731  0.0819 -0.4110 -0.1747
  312SOL    HW2 1321   0.641   3.694   0.636  0.6512 -1.3887 -0.1589
  312SOL    HW3 1322   0.541   3.671   0.747  0.2925 -1.6560 -0.5365
  312SOL    MW4 1323   0.622   3.689   0.720  0.1848 -0.7045 -0.2204
  313SOL     OW 1324   0.392   3.811   0.489  0.2000  0.4803  0.1542
  313SOL    HW2 1325   0.416   3.904   0.489 -3.3851  1.4623 -0.2251
  313SOL    HW3 1326   0.297   3.811   0.483  0.2302 -3.2821 -1.2200
  313SOL    MW4 1327   0.383   3.824   0.488 -0.2690  0.1137 -0.0771
  314SOL     OW 1328   1.465   4.036   0.671 -0.0428  0.7682 -0.3914
  314SOL    HW2 1329   1.423   4.112   0.713  0.4516  0.8494 -0.0459
  314SOL    HW3 1330   1.499   3.984   0.744  0.0891  0.4873 -0.6553
  314SOL    MW4 1331   1.464   4.039   0.686  0.0398  0.7424 -0.3806
  315SOL     OW 1332   4.098   4.225   0.441 -0.4397 -0.1698 -0.5889
  315SOL    HW2 1333   4.073   4.256   0.529 -0.7769  2.6668 -1.6339
  315SOL    HW3 1334   4.193   4.212   0.446 -0.3968  0.3924  0.0676
  315SOL    MW4 1335   4.108   4.227   0.454 -0.4787  0.2785 -0.6402
  316SOL     OW 1336   0.897   3.969   0.717  0.3252 -0.0994 -0.0103
  316SOL    HW2 1337   0.815   3.937   0.755 -0.1760  1.1477 -0.0493
  316SOL    HW3 1338   0.965   3.934   0.776 -0.2466 -0.7628  0.2676
  316SOL    MW4 1339   0.896   3.960   0.730  0.1836 -0.0224  0.0212
  317SOL     OW 1340   0.884   4.224   0.832  0.1642  0.4681  0.2611
  317SOL    HW2 1341   0.899   4.134   0.800  1.8207  0.1033  1.9589
  317SOL    HW3 1342   0.956   4.274   0.795 -0.3068  0.9376 -0.0199
  317SOL    MW4 1343   0.896   4.219   0.823  0.3206  0.4821  0.4481
  318SOL     OW 1344   1.097   4.367   0.713 -0.1245  0.1514 -0.2922
  318SOL    HW2 1345   1.098   4.372   0.618 -1.9229  1.2674 -0.2897
  318SOL    HW3 1346   1.091   4.459   0.742 -1.1017 -0.2432  0.8315
  318SOL    MW4 1347   1.096   4.380   0.704 -0.4907  0.2465 -0.1436
  319SOL     OW 1348   1.587   0.043   0.817  0.3345 -0.5712  0.2346
  319SOL    HW2 1349   1.587   0.028   0.911  1.5230  0.5815  0.4333
  319SOL    HW3 1350   1.497   0.069   0.797  0.2576 -0.0949  1.1727
  319SOL    MW4 1351   1.575   0.045   0.826  0.4811 -0.3563  0.3846
  320SOL     OW 1352   1.274   0.383   0.853 -0.0455 -0.0470 -0.0986
  320SOL    HW2 1353   1.184   0.407   0.875 -0.3356 -2.1150  1.0511
  320SOL    HW3 1354   1.319   0.378   0.937  0.6574 -0.8440 -0.5130
  320SOL    MW4 1355   1.268   0.385   0.867  0.0091 -0.4250 -0.0017
  321SOL     OW 1356   1.312   0.355   0.585 -0.0641 -0.2198  0.2120
  321SOL    HW2 1357   1.283   0.372   0.674  1.3499 -0.9574  0.8239
  321SOL    HW3 1358   1.246   0.397   0.530 -1.1726 -0.1211  1.5896
  321SOL    MW4 1359   1.299   0.363   0.589 -0.0237 -0.3042  0.4745
  322SOL     OW 1360   0.468   0.435   0.590 -0.2560 -0.3320  0.2535
  322SOL    HW2 1361   0.417   0.465   0.665  0.5747 -0.7568  1.0068
  322SOL    HW3 1362   0.452   0.500   0.522  0.1971  0.9069  1.3141
  322SOL    MW4 1363   0.460   0.448   0.591 -0.0866 -0.2246  0.4928
  323SOL     OW 1364   1.720   0.522   0.847  0.2775  0.0208 -0.2975
  323SOL    HW2 1365   1.683   0.610   0.838  0.2517  0.0743  0.2969
  323SOL    HW3 1366   1.725   0.489   0.757 -3.1056 -0.7705 -0.2757
  323SOL    MW4 1367   1.715   0.530   0.834 -0.1723 -0.0765 -0.2162
  324SOL     OW 1368   1.463   1.172   0.837  0.3500 -0.1660 -0.3735
  324SOL    HW2 1369   1.391   1.113   0.814  0.0365  0.0223  0.1268
  324SOL    HW3 1370   1.463   1.238   0.768  0.0710 -0.1878 -0.3941
  324SOL    MW4 1371   1.454   1.173   0.825  0.2719 -0.1441 -0.3102
  325SOL     OW 1372   1.119   1.840   0.405 -0.2444 -0.1842 -0.5613
  325SOL    HW2 1373   1.034   1.870   0.371  0.4677  1.7282 -0.7659
  325SOL    HW3 1374   1.099   1.802   0.490 -1.3208  0.2663 -0.5992
  325SOL    MW4 1375   1.105   1.839   0.411 -0.2924  0.1276 -0.5933
  326SOL     OW 1376   1.648   1.537   0.646  0.4805  0.6820  0.6090
  326SOL    HW2 1377   1.664   1.618   0.599  2.6257  0.5449  1.0513
  326SOL    HW3 1378   1.630   1.565   0.736 -1.8947  0.8310  0.1277
  326SOL    MW4 1379   1.648   1.551   0.652  0.4501  0.6834  0.6039
  327SOL     OW 1380   1.581   1.659   0.874 -0.2953 -0.0077 -0.4857
  327SOL    HW2 1381   1.585   1.612   0.957 -0.6508 -1.4318 -1.2562
  327SOL    HW3 1382   1.492   1.696   0.872 -0.5619 -0.6424 -0.5806
  327SOL    MW4 1383   1.570   1.658   0.884 -0.3773 -0.2794 -0.5999
  328SOL     OW 1384   1.085   1.555   0.850  0.0423  0.0092  0.3960
  328SOL    HW2 1385   1.146   1.627   0.836 -0.1063  0.1256  0.3328
  328SOL    HW3 1386   1.005   1.583   0.805 -0.0255 -0.1830  0.3954
  328SOL    MW4 1387   1.082   1.568   0.842  0.0138 -0.0007  0.3876
  329SOL     OW 1388   1.337   2.018   0.818  0.3860  0.3232  0.0172
  329SOL    HW2 1389   1.340   2.020   0.914  2.7491 -0.1175 -0.0300
  329SOL    HW3 1390   1.243   2.010   0.798 -0.0885 -0.2555  2.2878
  329SOL    MW4 1391   1.325   2.017   0.828  0.6353  0.1886  0.3106
  330SOL     OW 1392   1.584   2.076   0.674  0.2666  0.0845  0.2393
  330SOL    HW2 1393   1.496   2.056   0.704 -0.0115  0.0237 -0.6140
  330SOL    HW3 1394   1.572   2.118   0.589  1.1170 -1.1819 -0.5233
  330SOL    MW4 1395   1.571   2.079   0.667  0.3420 -0.0908  0.0260
  331SOL     OW 1396   1.596   2.358   0.784 -0.3552 -0.1781  0.0101
  331SOL    HW2 1397   1.509   2.381   0.750 -0.4447  0.6933  0.8301
  331SOL    HW3 1398   1.608   2.266   0.758 -1.2521 -0.1110 -0.6571
  331SOL    MW4 1399   1.586   2.349   0.776 -0.4854 -0.0544  0.0303
  332SOL     OW 1400   1.342   2.442   0.693  0.1866 -0.2034  0.1878
  332SOL    HW2 1401   1.359   2.534   0.712  0.5862 -0.2855  0.2352
  332SOL    HW3 1402   1.299   2.442   0.607  0.9803 -0.0383 -0.2089
  332SOL    MW4 1403   1.338   2.454   0.684  0.3440 -0.1924  0.1417
  333SOL     OW 1404   1.387   2.710   0.750  0.0165 -0.1336 -0.4177
  333SOL    HW2 1405   1.383   2.703   0.845 -0.8242 -3.7186 -0.6089
  333SOL    HW3 1406   1.318   2.773   0.728 -1.2311 -0.8665  1.2388
  333SOL    MW4 1407   1.377   2.717   0.760 -0.2590 -0.7031 -0.2244
  334SOL     OW 1408   2.633   2.556   0.120 -0.2789  0.0086  0.0395
  334SOL    HW2 1409   2.665   2.617   0.054  2.1207 -0.9421  0.2674
  334SOL    HW3 1410   2.635   2.605   0.202  0.0827  0.1248 -0.0387
  334SOL    MW4 1411   2.638   2.570   0.122  0.0854 -0.1016  0.0592
  335SOL     OW 1412   1.388   3.233   0.711 -0.6277 -0.1247  0.0947
  335SOL    HW2 1413   1.469   3.195   0.745 -0.1140  1.7705  1.0839
  335SOL    HW3 1414   1.407   3.250   0.618 -0.1510 -0.3985  0.1387
  335SOL    MW4 1415   1.402   3.230   0.703 -0.4972  0.0894  0.2309
  336SOL     OW 1416   2.082   2.629   0.631  0.3867  0.1884  0.3466
  336SOL    HW2 1417   2.176   2.616   0.615  0.1244  0.3344 -1.4081
  336SOL    HW3 1418   2.041   2.548   0.600 -0.0677  0.1132  1.1400
  336SOL    MW4 1419   2.089   2.616   0.625  0.2921  0.1974  0.2197
  337SOL     OW 1420   1.130   3.833   0.846  0.1215  0.7190  0.2038
  337SOL    HW2 1421   1.109   3.740   0.837  0.1825  0.6866  0.3845
  337SOL    HW3 1422   1.171   3.840   0.932  1.0696  0.7479 -0.2473
  337SOL    MW4 1423   1.132   3.822   0.856  0.2548  0.7184  0.1680
  338SOL     OW 1424   4.209   3.746   0.503 -0.5265  0.4148  0.0559
  338SOL    HW2 1425   4.232   3.755   0.595 -0.9792 -0.4402  0.2589
  338SOL    HW3 1426   4.145   3.816   0.487 -0.1554  0.8101  0.2843
  338SOL    MW4 1427   4.203   3.757   0.513 -0.5379  0.3541  0.1127
  339SOL     OW 1428   1.597   3.883   0.847  0.1376 -0.7287 -0.1538
  339SOL    HW2 1429   1.605   3.795   0.811  0.7941 -0.8111  0.1996
  339SOL    HW3 1430   1.675   3.929   0.818  0.5156 -0.6956  0.8852
  339SOL    MW4 1431   1.608   3.877   0.839  0.2741 -0.7350  0.0300
  340SOL     OW 1432   0.544   0.341   0.826 -0.2798  0.1049  0.4336
  340SOL    HW2 1433   0.567   0.248   0.834 -1.0077 -0.0741  0.5229
  340SOL    HW3 1434   0.535   0.355   0.732  0.1136  0.1538  0.4041
  340SOL    MW4 1435   0.546   0.330   0.815 -0.3239  0.0877  0.4414
  341SOL     OW 1436   1.345   4.256   0.819  0.3085 -0.1026 -0.1645
  341SOL    HW2 1437   1.411   4.325   0.826 -0.7371  0.8011  0.7965
  341SOL    HW3 1438   1.272   4.297   0.772 -0.6941 -0.2591  1.2351
  341SOL    MW4 1439   1.344   4.271   0.814  0.0381 -0.0038  0.1470
  342SOL     OW 1440   1.570   4.434   0.727 -0.1792  0.4409  0.4568
  342SOL    HW2 1441   1.656   4.396   0.748 -0.2567 -0.3786 -0.6677
  342SOL    HW3 1442   1.573   4.522   0.764  1.7881  1.0515 -1.0788
  342SOL    MW4 1443   1.582   4.440   0.735  0.0701  0.4129  0.1059
  343SOL     OW 1444   1.422   3.310   0.453  0.1790  0.0559 -0.2959
  343SOL    HW2 1445   1.452   3.240   0.395 -0.4023  0.1788 -0.7552
  343SOL    HW3 1446   1.484   3.382   0.438  0.1676  0.0039 -0.6021
  343SOL    MW4 1447   1.434   3.311   0.443  0.1010  0.0653 -0.3969
  344SOL     OW 1448   1.442   1.353   0.604  0.5330  0.1198  0.1013
  344SOL    HW2 1449   1.361   1.404   0.606  0.8443  0.7324 -1.8153
  344SOL    HW3 1450   1.511   1.419   0.595  1.2120 -0.4336  1.1488
  344SOL    MW4 1451   1.441   1.369   0.603  0.6638  0.1277 -0.0133
  345SOL     OW 1452   1.338   0.645   0.832  0.4582  0.1597  0.0985
  345SOL    HW2 1453   1.339   0.549   0.834 -0.8483  0.1326  0.0962
  345SOL    HW3 1454   1.329   0.667   0.739  0.5624  0.2843  0.1171
  345SOL    MW4 1455   1.337   0.635   0.820  0.2996  0.1726  0.1007
  346SOL     OW 1456   2.554   0.245   0.713  0.3425  0.0799  0.2236
  346SOL    HW2 1457   2.493   0.185   0.669  1.5987 -0.3785 -0.9045
  346SOL    HW3 1458   2.561   0.211   0.802 -1.9018  0.7775  0.7156
  346SOL    MW4 1459   2.547   0.233   0.719  0.2122  0.1114  0.1397
  347SOL     OW 1460   2.676   0.960   0.688 -0.0378 -0.0585 -0.4382
  347SOL    HW2 1461   2.601   0.904   0.667  0.4530 -0.5352 -0.9217
  347SOL    HW3 1462   2.640   1.026   0.747 -0.9349 -0.0399 -0.9950
  347SOL    MW4 1463   2.661   0.961   0.693 -0.0913 -0.1190 -0.5755
  348SOL     OW 1464   2.345   0.113   0.562 -0.3813  0.0605 -0.0487
  348SOL    HW2 1465   2.302   0.190   0.524  0.5908 -0.1514 -1.6159
  348SOL    HW3 1466   2.276   0.047   0.565 -0.7732  0.4477 -0.3743
  348SOL    MW4 1467   2.330   0.115   0.557 -0.3047  0.0837 -0.2984
  349SOL     OW 1468   1.829   1.365   0.774 -0.5386 -0.0814 -0.1544
  349SOL    HW2 1469   1.898   1.424   0.805 -1.7886  0.8262  0.9654
  349SOL    HW3 1470   1.767   1.423   0.729 -1.6449 -0.5680  0.7138
  349SOL    MW4 1471   1.830   1.381   0.772 -0.8494 -0.0261  0.1079
  350SOL     OW 1472   2.285   1.155   0.854  0.9036 -0.1223 -0.1544
  350SOL    HW2 1473   2.257   1.243   0.829  1.2010  0.1671  0.4954
  350SOL    HW3 1474   2.269   1.151   0.948 -1.7810 -1.7749 -0.6326
  350SOL    MW4 1475   2.279   1.166   0.863  0.5887 -0.3021 -0.1318
  351SOL     OW 1476   2.479   1.644   0.873 -0.1280  0.0310  0.0726
  351SOL    HW2 1477   2.537   1.574   0.844 -0.4930 -0.1910 -0.1256
  351SOL    HW3 1478   2.510   1.722   0.827 -0.5434 -0.2662 -0.7219
  351SOL    MW4 1479   2.491   1.645   0.863 -0.2308 -0.0373 -0.0584
  352SOL     OW 1480   1.666   1.796   0.550  0.0766  0.1001  0.2146
  352SOL    HW2 1481   1.677   1.868   0.488 -0.8048 -0.5439 -0.6939
  352SOL    HW3 1482   1.578   1.809   0.587  0.1384 -0.1934  0.4684
  352SOL    MW4 1483   1.656   1.807   0.547 -0.0315 -0.0236  0.1282
  353SOL     OW 1484   1.740   1.913   0.844 -0.0514 -0.6277  0.0916
  353SOL    HW2 1485   1.683   1.837   0.859 -0.5365 -0.3557 -0.3352
  353SOL    HW3 1486   1.692   1.966   0.780  0.2551  0.0693  0.4354
  353SOL    MW4 1487   1.726   1.910   0.837 -0.0750 -0.4997  0.0807
  354SOL     OW 1488   1.933   1.699   0.589  0.1269 -0.0854  0.1788
  354SOL    HW2 1489   1.931   1.619   0.538 -1.2498 -0.6740  1.1424
  354SOL    HW3 1490   1.842   1.724   0.599  0.3714 -0.0306  2.4282
  354SOL    MW4 1491   1.921   1.692   0.583 -0.0225 -0.1559  0.6027
  355SOL     OW 1492   1.829   2.757   0.812  0.2605  0.0578  0.1966
  355SOL    HW2 1493   1.754   2.785   0.759  1.0334  0.4610 -0.7014
  355SOL    HW3 1494   1.837   2.664   0.794  0.7761  0.2790 -0.7158
  355SOL    MW4 1495   1.820   2.749   0.803  0.4305  0.1400 -0.0423
  356SOL     OW 1496   2.675   2.404   0.462  0.1363  0.0976 -0.0005
  356SOL    HW2 1497   2.677   2.429   0.554  1.6104  0.0319 -0.0039
  356SOL    HW3 1498   2.754   2.443   0.425 -0.1315 -0.3947 -1.0991
  356SOL    MW4 1499   2.686   2.412   0.469  0.2956  0.0241 -0.1459
  357SOL     OW 1500   1.629   3.104   0.817 -0.1809 -0.3063  0.1258
  357SOL    HW2 1501   1.627   3.075   0.909  0.3262 -0.6929  0.0221
  357SOL    HW3 1502   1.711   3.153   0.810  0.0091 -0.6783 -0.2377
  357SOL    MW4 1503   1.640   3.107   0.828 -0.0889 -0.4063  0.0641
  358SOL     OW 1504   2.031   3.081   0.784 -0.3298  0.1824 -0.2009
  358SOL    HW2 1505   1.983   3.161   0.767 -1.2257 -0.1854  0.5863
  358SOL    HW3 1506   2.033   3.073   0.880 -0.2456 -0.7306 -0.2728
  358SOL    MW4 1507   2.025   3.090   0.795 -0.4368  0.0136 -0.1065
  359SOL     OW 1508   1.881   2.862   0.534  0.3207  0.1619  0.1000
  359SOL    HW2 1509   1.798   2.863   0.583  0.0108  1.0564 -0.4363
  359SOL    HW3 1510   1.863   2.807   0.458 -0.0950  1.1814 -0.5472
  359SOL    MW4 1511   1.868   2.855   0.531  0.2251  0.4144 -0.0561
  360SOL     OW 1512   1.842   3.519   0.894 -0.2641  0.2293  0.1104
  360SOL    HW2 1513   1.825   3.531   0.988 -0.9913 -0.1303  0.0296
  360SOL    HW3 1514   1.917   3.576   0.876 -0.0877  0.2665  0.9203
  360SOL    MW4 1515   1.849   3.528   0.904 -0.3368  0.1869  0.2066
  361SOL     OW 1516   3.780   3.720   0.350 -0.3411 -0.0232 -0.1843
  361SOL    HW2 1517   3.764   3.728   0.256  1.0767  1.5244 -0.3233
  361SOL    HW3 1518   3.763   3.808   0.385  0.9502 -0.1140  0.7037
  361SOL    MW4 1519   3.776   3.733   0.342  0.0162  0.1690 -0.0855
  362SOL     OW 1520   2.275   3.216   0.760 -0.0814  0.2748  0.0497
  362SOL    HW2 1521   2.349   3.164   0.792  0.3184 -0.0581 -1.3747
  362SOL    HW3 1522   2.200   3.157   0.764  0.2234 -0.1742 -0.8530
  362SOL    MW4 1523   2.275   3.202   0.765  0.0114  0.1719 -0.2573
  363SOL     OW 1524   2.776   4.130   0.535 -0.0841 -0.0866  0.6145
  363SOL    HW2 1525   2.761   4.085   0.618 -1.3026 -0.0750  0.4122
  363SOL    HW3 1526   2.852   4.086   0.498  0.6417  0.0901  1.8555
  363SOL    MW4 1527   2.784   4.118   0.541 -0.1490 -0.0620  0.7514
  364SOL     OW 1528   1.835   3.969   0.730 -0.1688 -0.0728 -0.4858
  364SOL    HW2 1529   1.835   3.898   0.666  0.5061 -0.2514 -0.2928
  364SOL    HW3 1530   1.921   3.964   0.771 -0.6365 -0.0225  0.5125
  364SOL    MW4 1531   1.846   3.959   0.727 -0.1415 -0.0899 -0.3286
  365SOL     OW 1532   1.790   4.291   0.789  0.4916 -0.3725 -0.4036
  365SOL    HW2 1533   1.818   4.292   0.881 -0.6656 -1.2784 -0.0304
  365SOL    HW3 1534   1.785   4.198   0.767 -0.8616 -0.2008 -0.8684
  365SOL    MW4 1535   1.793   4.279   0.798  0.1605 -0.4692 -0.4157
  366SOL     OW 1536   2.046   4.354   0.713  0.1229  0.3501 -0.1081
  366SOL    HW2 1537   2.044   4.294   0.639 -0.5018  0.6558 -0.3461
  366SOL    HW3 1538   1.959   4.346   0.753  0.8049 -0.5954  1.2206
  366SOL    MW4 1539   2.034   4.345   0.709  0.1302  0.2656  0.0359
  367SOL     OW 1540   2.551   0.033   0.897 -0.1231  0.1134 -0.1590
  367SOL    HW2 1541   2.490   0.034   0.970 -1.0975 -0.8664 -0.9456
  367SOL    HW3 1542   2.527  -0.044   0.846  0.5236  0.8002 -1.5428
  367SOL    MW4 1543   2.540   0.023   0.900 -0.1667  0.0748 -0.4453
  368SOL     OW 1544   2.144   4.590   0.615 -0.1393 -0.1700 -0.1324
  368SOL    HW2 1545   2.101   4.510   0.646 -0.8919 -0.4418 -1.8245
  368SOL    HW3 1546   2.076   4.657   0.618  0.2190  0.1720  0.3395
  368SOL    MW4 1547   2.129   4.588   0.619 -0.1912 -0.1607 -0.2934
  369SOL     OW 1548   2.256   0.305   0.821 -0.2974  0.1844  0.3417
  369SOL    HW2 1549   2.219   0.316   0.733  0.7855  0.9461 -0.0243
  369SOL    HW3 1550   2.350   0.316   0.809  0.1753 -2.5240  1.1359
  369SOL    MW4 1551   2.264   0.308   0.807 -0.0920 -0.0725  0.3981
  370SOL     OW 1552   3.551   0.454   0.597 -0.3360  0.1626 -0.1653
  370SOL    HW2 1553   3.520   0.537   0.558 -0.8430  0.2924  0.4976
  370SOL    HW3 1554   3.529   0.388   0.531  2.3722  0.8482 -1.8292
  370SOL    MW4 1555   3.544   0.456   0.583 -0.0455  0.2702 -0.2973
  371SOL     OW 1556   3.235   0.092   0.748 -0.6028  0.0698 -0.4106
  371SOL    HW2 1557   3.141   0.099   0.728 -0.4294  1.7547 -0.6879
  371SOL    HW3 1558   3.252   0.168   0.805  0.2965 -1.0186  0.7962
  371SOL    MW4 1559   3.225   0.103   0.753 -0.4616  0.1485 -0.2880
  372SOL     OW 1560   2.258   0.955   0.666  0.4518  0.3165  0.4484
  372SOL    HW2 1561   2.252   1.018   0.738  1.2075 -0.5038  1.2405
  372SOL    HW3 1562   2.184   0.895   0.680  0.1905  0.5679  0.1431
  372SOL    MW4 1563   2.247   0.955   0.677  0.5174  0.2414  0.5127
  373SOL     OW 1564   2.175   1.756   0.447 -0.0283 -0.5925 -0.1504
  373SOL    HW2 1565   2.228   1.678   0.460  0.6974 -0.0357  0.2890
  373SOL    HW3 1566   2.089   1.733   0.482  0.5068 -0.8018  1.0529
  373SOL    MW4 1567   2.171   1.743   0.453  0.1380 -0.5467  0.0663
  374SOL     OW 1568   3.824   1.867   0.307  0.4203  0.2183 -0.6350
  374SOL    HW2 1569   3.809   1.779   0.343  0.6575  0.3210 -0.2877
  374SOL    HW3 1570   3.913   1.889   0.334 -0.4033  1.4469  1.0860
  374SOL    MW4 1571   3.834   1.858   0.315  0.3428  0.3940 -0.3622
  375SOL     OW 1572   2.659   1.763   0.534  0.4250 -0.2658 -0.0632
  375SOL    HW2 1573   2.659   1.829   0.465 -0.9426 -0.3232 -0.1324
  375SOL    HW3 1574   2.637   1.811   0.613 -1.1217 -0.7343 -0.2077
  375SOL    MW4 1575   2.656   1.778   0.535  0.0405 -0.3351 -0.0914
  376SOL     OW 1576   2.856   2.041   0.710 -0.2969 -0.3283 -0.6366
  376SOL    HW2 1577   2.929   1.982   0.727  0.1236  0.3327 -0.0983
  376SOL    HW3 1578   2.778   1.986   0.715 -0.1053 -0.4341  2.2330
  376SOL    MW4 1579   2.855   2.026   0.713 -0.2162 -0.2551 -0.1870
  377SOL     OW 1580   2.323   2.400   0.444  0.5204 -0.0972  0.0201
  377SOL    HW2 1581   2.356   2.473   0.496  0.0650 -1.0348  1.6785
  377SOL    HW3 1582   2.385   2.392   0.371  1.3634  1.0491  0.6001
  377SOL    MW4 1583   2.336   2.408   0.441  0.5715 -0.0696  0.3154
  378SOL     OW 1584   2.286   2.008   0.436  0.0749 -0.3448 -0.0433
  378SOL    HW2 1585   2.338   2.022   0.356 -0.4222 -0.9284 -0.4727
  378SOL    HW3 1586   2.283   1.913   0.445 -0.7651 -0.3066  0.0873
  378SOL    MW4 1587   2.293   1.997   0.426 -0.1016 -0.4168 -0.0827
  379SOL     OW 1588   3.303   2.010   0.721  0.4495 -0.2242 -0.1317
  379SOL    HW2 1589   3.217   1.981   0.751 -0.6850  0.7612 -2.2792
  379SOL    HW3 1590   3.319   2.091   0.770 -0.2347  0.0326 -0.3254
  379SOL    MW4 1591   3.293   2.017   0.731  0.2096 -0.0603 -0.4405
  380SOL     OW 1592   2.454   2.072   0.208  0.2684 -0.4371  0.3166
  380SOL    HW2 1593   2.410   2.062   0.124  0.2949 -1.2941  0.3998
  380SOL    HW3 1594   2.471   2.166   0.216  0.2473 -0.3558 -0.6224
  380SOL    MW4 1595   2.451   2.083   0.198  0.2692 -0.5395  0.2037
  381SOL     OW 1596   2.136   2.764   0.885  0.0590 -0.1909  0.5321
  381SOL    HW2 1597   2.102   2.676   0.868 -3.0739  0.8553  1.2283
  381SOL    HW3 1598   2.174   2.758   0.973 -0.6833 -0.6916  0.8199
  381SOL    MW4 1599   2.137   2.752   0.894 -0.4523 -0.1190  0.6619
  382SOL     OW 1600   1.071   2.724   0.121 -0.2254  0.6070  0.2227
  382SOL    HW2 1601   1.078   2.704   0.028 -0.6874  1.5442 -0.0137
  382SOL    HW3 1602   1.092   2.817   0.127  0.3071  0.4387  1.1225
  382SOL    MW4 1603   1.075   2.733   0.110 -0.2162  0.7083  0.3102
  383SOL     OW 1604   2.737   3.237   0.795 -0.2148 -0.4436  0.1084
  383SOL    HW2 1605   2.798   3.190   0.851  1.0523  1.8033  0.6640
  383SOL    HW3 1606   2.766   3.217   0.706  1.2726  0.5128  0.3665
  383SOL    MW4 1607   2.749   3.228   0.790  0.1485 -0.0210  0.2158
  384SOL     OW 1608   2.960   3.902   0.886 -0.3088 -0.6862 -0.1960
  384SOL    HW2 1609   2.905   3.979   0.870  2.4629  1.2701 -0.7517
  384SOL    HW3 1610   2.956   3.889   0.980 -1.3440 -0.2921 -0.1759
  384SOL    MW4 1611   2.952   3.910   0.896 -0.0799 -0.3760 -0.2667
  385SOL     OW 1612   2.263   3.470   0.829  0.2334  0.0260 -0.0864
  385SOL    HW2 1613   2.340   3.504   0.783  0.9035  0.5798  1.4065
  385SOL    HW3 1614   2.253   3.381   0.796  0.8830  0.3150 -1.0740
  385SOL    MW4 1615   2.272   3.463   0.819  0.4077  0.1371 -0.0197
  386SOL     OW 1616   2.947   3.429   0.407 -0.4505  0.3931  0.2077
  386SOL    HW2 1617   2.961   3.516   0.445 -0.4239  0.1261  0.8177
  386SOL    HW3 1618   3.020   3.376   0.439  0.2123  0.4578 -1.1537
  386SOL    MW4 1619   2.959   3.433   0.416 -0.3598  0.3667  0.1085
  387SOL     OW 1620   3.751   4.265   0.415 -0.6649  0.2236 -0.1641
  387SOL    HW2 1621   3.810   4.319   0.362 -1.2396  0.8656 -0.1584
  387SOL    HW3 1622   3.755   4.305   0.502 -0.6994 -0.0570 -0.0348
  387SOL    MW4 1623   3.759   4.278   0.420 -0.7453  0.2713 -0.1463
  388SOL     OW 1624   1.844   3.794   0.524  0.0519 -0.0423 -0.5232
  388SOL    HW2 1625   1.929   3.753   0.504 -0.1620  0.0591 -1.6688
  388SOL    HW3 1626   1.779   3.727   0.500 -0.1606 -0.6351  1.6251
  388SOL    MW4 1627   1.847   3.780   0.518 -0.0045 -0.1073 -0.3909
  389SOL     OW 1628   2.560   3.928   0.928  0.1836  0.0927 -0.4394
  389SOL    HW2 1629   2.493   3.976   0.879 -0.7035 -0.7204 -0.0348
  389SOL    HW3 1630   2.574   3.848   0.876  1.0457  0.3929 -0.6719
  389SOL    MW4 1631   2.553   3.924   0.915  0.1802  0.0250 -0.4167
  390SOL     OW 1632   2.474   4.447   0.758 -0.4566  0.6760 -0.1731
  390SOL    HW2 1633   2.472   4.457   0.663  0.1462 -1.9262 -0.4817
  390SOL    HW3 1634   2.388   4.414   0.781 -0.0610 -0.2602 -0.0169
  390SOL    MW4 1635   2.463   4.444   0.749 -0.3250  0.2098 -0.1932
  391SOL     OW 1636   3.938   0.193   0.434 -0.5311 -0.1368  0.0778
  391SOL    HW2 1637   3.936   0.289   0.438 -2.1258 -0.1997  1.2065
  391SOL    HW3 1638   3.849   0.166   0.454  0.3998 -1.9202  2.1073
  391SOL    MW4 1639   3.926   0.202   0.437 -0.6187 -0.3804  0.4945
  392SOL     OW 1640   3.586   0.168   0.756  0.1347  0.5379 -0.1481
  392SOL    HW2 1641   3.588   0.153   0.662  0.7785 -1.5044  0.1576
  392SOL    HW3 1642   3.529   0.098   0.790  1.9423 -0.3282  1.2116
  392SOL    MW4 1643   3.579   0.157   0.748  0.4578  0.1542  0.0716
  393SOL     OW 1644   2.833   1.325   0.350  0.1512 -0.1695  0.0616
  393SOL    HW2 1645   2.869   1.288   0.270 -1.5004 -1.2370 -0.2334
  393SOL    HW3 1646   2.816   1.249   0.406  0.7520  0.5138  1.1908
  393SOL    MW4 1647   2.835   1.310   0.347  0.0126 -0.2202  0.1717
  394SOL     OW 1648   3.889   0.460   0.510 -0.6359  0.2418 -0.0146
  394SOL    HW2 1649   3.970   0.480   0.556 -1.1904  0.9268  0.6756
  394SOL    HW3 1650   3.865   0.541   0.466 -1.2273  0.2003  0.2183
  394SOL    MW4 1651   3.896   0.473   0.510 -0.7875  0.3267  0.1072
  395SOL     OW 1652   2.075   4.236   0.464  0.2978 -0.1794  0.1324
  395SOL    HW2 1653   2.082   4.303   0.397 -2.9883  0.8054  0.6689
  395SOL    HW3 1654   2.001   4.182   0.436 -0.5328 -0.3114  2.4658
  395SOL    MW4 1655   2.066   4.238   0.451 -0.2451 -0.0663  0.5111
  396SOL     OW 1656   2.659   1.432   0.774 -0.1753  0.1868 -0.0860
  396SOL    HW2 1657   2.752   1.442   0.795 -0.5750  2.7975  0.5696
  396SOL    HW3 1658   2.654   1.442   0.679  0.1488  0.6447 -0.0572
  396SOL    MW4 1659   2.671   1.434   0.765 -0.1855  0.5918  0.0044
  397SOL     OW 1660   1.775   0.427   0.586 -0.1728  0.2221  0.1966
  397SOL    HW2 1661   1.709   0.417   0.518  0.9434  0.0361 -0.8815
  397SOL    HW3 1662   1.785   0.339   0.623 -0.0042  0.0953 -0.1438
  397SOL    MW4 1663   1.768   0.414   0.582 -0.0032  0.1808  0.0094
  398SOL     OW 1664   2.927   1.419   0.852  0.2063  0.2977 -0.0122
  398SOL    HW2 1665   2.959   1.333   0.825 -1.4533 -0.6977  1.0060
  398SOL    HW3 1666   3.000   1.479   0.838  1.8366 -1.5292  0.4881
  398SOL    MW4 1667   2.941   1.416   0.847  0.2022 -0.0747  0.1881
  399SOL     OW 1668   3.395   2.031   0.467  0.5849  0.1266 -0.5767
  399SOL    HW2 1669   3.379   2.122   0.441 -0.3368 -0.1175 -0.9041
  399SOL    HW3 1670   3.359   2.025   0.556 -0.4789 -0.2258 -1.0203
  399SOL    MW4 1671   3.388   2.042   0.475  0.3228  0.0479 -0.6784
  400SOL     OW 1672   3.484   0.271   0.381  0.0471  0.4557 -0.0926
  400SOL    HW2 1673   3.422   0.217   0.430  1.1826  0.9948  1.9872
  400SOL    HW3 1674   3.429   0.320   0.320 -1.1910 -1.6815 -0.7626
  400SOL    MW4 1675   3.468   0.270   0.380  0.0336  0.2448  0.0934
  401SOL     OW 1676   2.603   1.886   0.777 -0.0973 -0.2049 -0.7916
  401SOL    HW2 1677   2.612   1.913   0.868  0.3278  0.6080 -1.0724
  401SOL    HW3 1678   2.519   1.921   0.749 -0.4669 -0.8955 -0.5660
  401SOL    MW4 1679   2.593   1.894   0.785 -0.0899 -0.1887 -0.7990
  402SOL     OW 1680   3.061   1.887   0.817  0.0911  0.1458  0.1535
  402SOL    HW2 1681   3.067   1.796   0.787 -0.7564 -0.4296  1.6882
  402SOL    HW3 1682   3.054   1.881   0.912 -0.0976  1.8221  0.2653
  402SOL    MW4 1683   3.061   1.874   0.826 -0.0458  0.2910  0.3709
  403SOL     OW 1684   2.688   2.442   0.736  0.0269  0.5768  0.1835
  403SOL    HW2 1685   2.751   2.392   0.789 -0.1345 -0.6596 -0.7519
  403SOL    HW3 1686   2.690   2.530   0.773  0.2648 -0.1410  1.9349
  403SOL    MW4 1687   2.697   2.447   0.748  0.0367  0.3190  0.2911
  404SOL     OW 1688   2.019   2.295   0.792  0.1229  0.0895  0.0174
  404SOL    HW2 1689   2.035   2.301   0.886 -0.0457  1.1204 -0.0070
  404SOL    HW3 1690   2.106   2.306   0.752  0.4986 -2.3602  0.0926
  404SOL    MW4 1691   2.033   2.297   0.799  0.1502 -0.0975  0.0242
  405SOL     OW 1692   2.938   2.776   0.757 -0.3752 -0.0841  0.4803
  405SOL    HW2 1693   2.985   2.709   0.807 -1.2789 -0.6813  0.5351
  405SOL    HW3 1694   2.846   2.756   0.770 -0.6365 -0.3377 -1.5273
  405SOL    MW4 1695   2.932   2.765   0.765 -0.5288 -0.1965  0.2227
  406SOL     OW 1696   0.837   3.206   0.257 -0.2247 -0.4100  0.5151
  406SOL    HW2 1697   0.763   3.155   0.224 -1.2676 -0.6517  3.1741
  406SOL    HW3 1698   0.798   3.282   0.300  0.9663 -1.2592  3.1922
  406SOL    MW4 1699   0.822   3.209   0.258 -0.2052 -0.5541  1.2191
  407SOL     OW 1700   2.633   2.882   0.669  0.1953 -0.2035 -0.5712
  407SOL    HW2 1701   2.645   2.812   0.733 -0.8203  0.5509  0.4607
  407SOL    HW3 1702   2.581   2.948   0.715  2.2954  1.8678 -1.0529
  407SOL    MW4 1703   2.628   2.881   0.684  0.3386  0.1693 -0.4987
  408SOL     OW 1704   2.902   3.042   0.902  0.0456 -0.0381 -0.5025
  408SOL    HW2 1705   2.916   2.951   0.877 -0.6030 -0.0594 -0.7782
  408SOL    HW3 1706   2.973   3.090   0.859  0.2966 -0.3876 -0.4805
  408SOL    MW4 1707   2.914   3.037   0.893 -0.0069 -0.0870 -0.5360
  409SOL     OW 1708   3.254   4.025   0.501 -0.1596 -0.1868 -0.6373
  409SOL    HW2 1709   3.306   4.095   0.461  0.0506  0.2338  0.3346
  409SOL    HW3 1710   3.316   3.954   0.514  0.0455  0.0912 -0.0412
  409SOL    MW4 1711   3.269   4.025   0.498 -0.1049 -0.0944 -0.4304
  410SOL     OW 1712   3.353   3.590   0.803 -0.1947 -0.4082  0.1367
  410SOL    HW2 1713   3.377   3.682   0.811 -1.8836 -0.0511  1.5029
  410SOL    HW3 1714   3.323   3.580   0.713  0.7602  0.1972 -0.2454
  410SOL    MW4 1715   3.352   3.601   0.793 -0.2916 -0.2813  0.2666
  411SOL     OW 1716   2.696   3.725   0.403 -0.2471  0.0897 -0.2759
  411SOL    HW2 1717   2.728   3.636   0.390 -0.9397 -0.3104  0.6927
  411SOL    HW3 1718   2.769   3.781   0.378  0.4343 -0.7691 -0.2092
  411SOL    MW4 1719   2.710   3.721   0.398 -0.2484 -0.0765 -0.1393
  412SOL     OW 1720   1.220   3.457   0.316 -0.0611  0.0389  0.0628
  412SOL    HW2 1721   1.262   3.394   0.375  0.4128  0.2572 -0.0340
  412SOL    HW3 1722   1.255   3.542   0.345 -0.9256  0.2879  0.3890
  412SOL    MW4 1723   1.230   3.460   0.328 -0.1128  0.1006  0.0931
  413SOL     OW 1724   2.770   4.083   0.808  0.2043  0.2934 -0.0569
  413SOL    HW2 1725   2.695   4.032   0.837  0.3330 -0.6139 -1.2836
  413SOL    HW3 1726   2.749   4.173   0.833  0.0021 -0.3350  2.1535
  413SOL    MW4 1727   2.758   4.088   0.815  0.1943  0.0906  0.0728
  414SOL     OW 1728   2.874   4.351   0.644 -0.0645 -0.2431 -0.2947
  414SOL    HW2 1729   2.846   4.275   0.594  0.1087 -1.3602  1.2771
  414SOL    HW3 1730   2.809   4.360   0.713  0.1279  0.8137 -0.2465
  414SOL    MW4 1731   2.862   4.342   0.646 -0.0165 -0.2513 -0.0810
  415SOL     OW 1732   0.158   0.977   0.587  0.0063  0.5018 -0.1029
  415SOL    HW2 1733   0.166   0.882   0.596  2.2652  0.7227  0.6682
  415SOL    HW3 1734   0.118   1.005   0.669  1.9968  0.4760  0.9107
  415SOL    MW4 1735   0.154   0.968   0.599  0.5670  0.5276  0.1327
  416SOL     OW 1736   3.731   4.342   0.671  0.4182 -0.7296  0.1230
  416SOL    HW2 1737   3.675   4.315   0.744 -1.3386  0.1805 -0.8484
  416SOL    HW3 1738   3.759   4.431   0.694 -0.6041 -0.2228 -0.5609
  416SOL    MW4 1739   3.727   4.351   0.684  0.0515 -0.5426 -0.0954
  417SOL     OW 1740   4.280   1.633   0.878  0.0444  0.0987 -0.1166
  417SOL    HW2 1741   4.276   1.583   0.960  2.6595  0.6721  0.4190
  417SOL    HW3 1742   4.233   1.580   0.815 -0.8736 -0.9978  1.4531
  417SOL    MW4 1743   4.273   1.619   0.881  0.2685  0.0297  0.1612
  418SOL     OW 1744   4.071   1.925   0.452  0.0087 -0.0044 -0.3918
  418SOL    HW2 1745   4.018   1.915   0.530 -1.2420  2.1042 -0.9411
  418SOL    HW3 1746   4.124   2.003   0.468  0.6258 -0.2580 -1.1479
  418SOL    MW4 1747   4.071   1.934   0.464 -0.0758  0.2403 -0.5641
  419SOL     OW 1748   3.790   1.202   0.512  0.0285  0.4928 -0.0966
  419SOL    HW2 1749   3.775   1.108   0.527 -1.1665  0.6550 -0.1956
  419SOL    HW3 1750   3.882   1.208   0.487 -0.1161 -0.7829 -1.0014
  419SOL    MW4 1751   3.800   1.190   0.511 -0.1481  0.3458 -0.2290
  420SOL     OW 1752   3.555   3.560   0.453 -0.2076  0.1172  0.2851
  420SOL    HW2 1753   3.633   3.595   0.411  0.4149 -0.4787  0.9167
  420SOL    HW3 1754   3.573   3.466   0.462 -0.2046  0.2580  2.0614
  420SOL    MW4 1755   3.568   3.552   0.449 -0.1252  0.0570  0.6028
  421SOL     OW 1756   3.067   1.365   0.497 -0.6239 -0.1898  0.0634
  421SOL    HW2 1757   2.982   1.353   0.455 -0.7337  0.5578  0.0593
  421SOL    HW3 1758   3.056   1.327   0.585 -0.2190 -2.2554 -0.7549
  421SOL    MW4 1759   3.054   1.358   0.503 -0.5853 -0.3636 -0.0451
  422SOL     OW 1760   4.057   1.200   0.455  0.2403 -0.1384  0.3656
  422SOL    HW2 1761   4.061   1.291   0.426  0.3448 -0.1169  0.4448
  422SOL    HW3 1762   4.149   1.173   0.461  0.1978 -0.3699 -0.0313
  422SOL    MW4 1763   4.070   1.209   0.452  0.2484 -0.1662  0.3237
  423SOL     OW 1764   3.683   2.004   0.500  0.2685 -0.1251 -0.4229
  423SOL    HW2 1765   3.589   1.999   0.485  0.2757 -0.5759 -0.3253
  423SOL    HW3 1766   3.721   1.952   0.429  0.5011  0.9826 -1.1121
  423SOL    MW4 1767   3.676   1.996   0.489  0.2999 -0.0384 -0.5010
  424SOL     OW 1768   2.029   1.555   0.822  0.3405  0.0402  0.1405
  424SOL    HW2 1769   1.993   1.595   0.742 -2.2018 -3.1580 -0.4529
  424SOL    HW3 1770   2.115   1.522   0.796  0.5906  1.2444 -0.5798
  424SOL    MW4 1771   2.035   1.556   0.808  0.0381 -0.2229 -0.0328
  425SOL     OW 1772   2.870   2.286   0.862 -0.0787 -0.1802 -0.2872
  425SOL    HW2 1773   2.864   2.198   0.826  2.4604 -0.8849  0.8902
  425SOL    HW3 1774   2.863   2.275   0.957 -0.9697  1.0431 -0.1845
  425SOL    MW4 1775   2.868   2.273   0.870  0.1388 -0.1118 -0.1183
  426SOL     OW 1776   3.118   2.361   0.759  0.7737  0.4108  0.0390
  426SOL    HW2 1777   3.038   2.327   0.800  0.1538 -0.1996 -1.6403
  426SOL    HW3 1778   3.189   2.314   0.803  0.1812  0.3842  0.9937
  426SOL    MW4 1779   3.117   2.351   0.770  0.6137  0.3266 -0.0567
  427SOL     OW 1780   3.356   2.246   0.838  0.0605 -0.2120 -0.4539
  427SOL    HW2 1781   3.413   2.305   0.789 -0.9420 -0.1252 -1.5466
  427SOL    HW3 1782   3.365   2.274   0.929  1.3081  0.1666 -0.6854
  427SOL    MW4 1783   3.364   2.258   0.844  0.0927 -0.1507 -0.6287
  428SOL     OW 1784   2.828   2.162   0.452  0.1788  0.1160 -0.1367
  428SOL    HW2 1785   2.757   2.225   0.462 -0.0993 -0.2746  0.3981
  428SOL    HW3 1786   2.848   2.134   0.541 -0.1400 -1.0226 -0.4058
  428SOL    MW4 1787   2.821   2.166   0.465  0.0999 -0.0861 -0.1017
  429SOL     OW 1788   3.079   2.589   0.923 -0.2407  0.1096 -0.3131
  429SOL    HW2 1789   3.096   2.507   0.876 -0.9356 -0.5114  0.5097
  429SOL    HW3 1790   3.151   2.647   0.897  1.5219 -1.5085  0.8441
  429SOL    MW4 1791   3.091   2.586   0.913 -0.0997 -0.1857 -0.0519
  430SOL     OW 1792   3.295   2.771   0.834  0.0410 -0.8067 -0.2201
  430SOL    HW2 1793   3.303   2.775   0.738  1.2668  1.0042 -0.0512
  430SOL    HW3 1794   3.376   2.730   0.863  0.6012  0.5848  0.1921
  430SOL    MW4 1795   3.307   2.766   0.825  0.2766 -0.3843 -0.1433
  431SOL     OW 1796   3.349   3.046   0.889 -0.2984 -0.0869  0.1814
  431SOL    HW2 1797   3.320   3.054   0.980 -0.3581  0.6772  0.1033
  431SOL    HW3 1798   3.322   2.958   0.863 -1.5622  0.1903  0.4738
  431SOL    MW4 1799   3.341   3.035   0.898 -0.4733  0.0505  0.2097
  432SOL     OW 1800   2.670   2.687   0.863 -0.1668  0.6499 -0.2260
  432SOL    HW2 1801   2.695   2.699   0.955 -0.5215 -0.7483  0.0649
  432SOL    HW3 1802   2.575   2.686   0.864 -0.1803  1.0753 -0.6829
  432SOL    MW4 1803   2.661   2.689   0.876 -0.2155  0.5214 -0.2479
  433SOL     OW 1804   3.416   4.239   0.373 -0.2351  0.2514 -0.6736
  433SOL    HW2 1805   3.370   4.322   0.382  0.3796  0.4711  0.6891
  433SOL    HW3 1806   3.504   4.257   0.407  0.5604 -0.3970 -2.3695
  433SOL    MW4 1807   3.422   4.252   0.379 -0.0489  0.1950 -0.7176
  434SOL     OW 1808   2.986   4.544   0.497  0.1478  0.0464  0.5749
  434SOL    HW2 1809   2.951   4.472   0.550  0.6478 -0.3228  0.3992
  434SOL    HW3 1810   2.911   4.575   0.446  0.4414 -1.8602 -1.0824
  434SOL    MW4 1811   2.971   4.539   0.497  0.2525 -0.2537  0.3331
  435SOL     OW 1812   3.631   3.968   0.749 -0.0462  0.0402  0.2177
  435SOL    HW2 1813   3.554   3.921   0.781 -0.5805  0.4359 -0.4727
  435SOL    HW3 1814   3.702   3.940   0.807 -0.7026 -0.3457  0.8455
  435SOL    MW4 1815   3.630   3.958   0.761 -0.2034  0.0415  0.2094
  436SOL     OW 1816   2.969   0.059   0.689  0.1902 -0.4383  0.1676
  436SOL    HW2 1817   2.909   0.018   0.750  0.8655 -0.2853  0.9373
  436SOL    HW3 1818   2.971   0.001   0.613 -1.0440 -0.3625  0.0732
  436SOL    MW4 1819   2.962   0.046   0.687  0.1168 -0.4081  0.2568
  437SOL     OW 1820   3.104   4.294   0.827 -0.3713 -0.5115  0.0968
  437SOL    HW2 1821   3.130   4.203   0.818  0.0277 -0.3095 -0.8084
  437SOL    HW3 1822   3.034   4.306   0.763 -1.5882 -0.6231  1.3933
  437SOL    MW4 1823   3.098   4.284   0.818 -0.4792 -0.4992  0.1484
  438SOL     OW 1824   3.355   4.355   0.729 -0.0914 -0.4018  0.2951
  438SOL    HW2 1825   3.386   4.439   0.765 -1.5000  0.4502 -0.4426
  438SOL    HW3 1826   3.271   4.340   0.772  0.0359 -1.3115  0.2308
  438SOL    MW4 1827   3.348   4.364   0.740 -0.2604 -0.4096  0.1892
  439SOL     OW 1828   4.434   4.603   0.865  0.3637  0.2232 -0.1149
  439SOL    HW2 1829   4.366   4.587   0.800  0.9258  2.3898 -1.2969
  439SOL    HW3 1830   4.386   4.611   0.948 -0.6355 -0.0287 -0.6594
  439SOL    MW4 1831   4.418   4.602   0.867  0.3057  0.4764 -0.3427
  440SOL     OW 1832   4.003   0.076   0.685 -0.6105  0.2440 -0.1224
  440SOL    HW2 1833   3.999   0.115   0.597 -2.3520 -0.2386 -0.2898
  440SOL    HW3 1834   4.086   0.029   0.687  0.5346  2.2120 -0.6684
  440SOL    MW4 1835   4.013   0.075   0.674 -0.6895  0.4400 -0.2165
  441SOL     OW 1836   0.081   0.450   0.486 -0.1201 -0.0007 -0.5425
  441SOL    HW2 1837   0.135   0.449   0.565 -0.2735  1.3533 -0.4187
  441SOL    HW3 1838   0.005   0.397   0.508 -0.4527  0.8680  0.4344
  441SOL    MW4 1839   0.078   0.443   0.499 -0.1842  0.2925 -0.3973
  442SOL     OW 1840   3.366   1.254   0.738  0.4326  0.2499 -0.1004
  442SOL    HW2 1841   3.312   1.189   0.783  2.0470 -1.1499 -0.1463
  442SOL    HW3 1842   3.355   1.234   0.645  1.3897 -0.3507 -0.0920
  442SOL    MW4 1843   3.357   1.243   0.732  0.7718 -0.0139 -0.1053
  443SOL     OW 1844   3.279   0.892   0.486  0.2279  0.2016  0.0750
  443SOL    HW2 1845   3.189   0.860   0.479  0.3085  0.1283 -0.7617
  443SOL    HW3 1846   3.272   0.987   0.480  0.2616  0.1589 -0.7403
  443SOL    MW4 1847   3.266   0.900   0.484  0.2429  0.1863 -0.1429
  444SOL     OW 1848   3.948   0.877   0.715  0.2619 -0.0815 -0.2843
  444SOL    HW2 1849   3.982   0.952   0.764  1.5066 -0.3102 -0.7817
  444SOL    HW3 1850   4.025   0.822   0.699 -0.4490 -0.9012 -0.9130
  444SOL    MW4 1851   3.963   0.880   0.719  0.3324 -0.2198 -0.4329
  445SOL     OW 1852   3.371   1.504   0.857  0.2698 -0.1752 -0.1395
  445SOL    HW2 1853   3.373   1.504   0.953  0.5866 -1.2333 -0.1341
  445SOL    HW3 1854   3.397   1.415   0.833 -1.0882 -0.2890 -1.1944
  445SOL    MW4 1855   3.375   1.492   0.867  0.1323 -0.3299 -0.2779
  446SOL     OW 1856   4.306   2.042   0.228  0.0352 -0.0559  0.0520
  446SOL    HW2 1857   4.401   2.031   0.229  0.0469  0.0254 -0.0835
  446SOL    HW3 1858   4.272   1.956   0.255  0.1048 -0.8772 -2.3299
  446SOL    MW4 1859   4.314   2.029   0.231  0.0463 -0.1535 -0.2801
  447SOL     OW 1860   3.927   1.478   0.880 -0.2916  0.0635 -0.1691
  447SOL    HW2 1861   3.880   1.396   0.865  1.3342 -1.4002  2.4164
  447SOL    HW3 1862   4.008   1.470   0.829  0.6832 -0.7228  1.4692
  447SOL    MW4 1863   3.932   1.466   0.871  0.0515 -0.2333  0.3881
  448SOL     OW 1864   4.124   1.860   0.877 -0.1690 -0.5019  0.4193
  448SOL    HW2 1865   4.047   1.845   0.822  0.4748 -0.3900 -0.5307
  448SOL    HW3 1866   4.170   1.776   0.878  1.1654  0.1814 -1.3397
  448SOL    MW4 1867   4.120   1.847   0.870  0.0920 -0.3970  0.0619
  449SOL     OW 1868   3.626   2.817   0.562  0.0788  0.2056 -0.0846
  449SOL    HW2 1869   3.644   2.891   0.505  0.4029  0.7310  0.6995
  449SOL    HW3 1870   3.547   2.777   0.525  0.0356  0.7986 -0.6405
  449SOL    MW4 1871   3.618   2.821   0.549  0.1159  0.3533 -0.0545
  450SOL     OW 1872   3.790   1.618   0.676  0.1005  0.1406 -0.1990
  450SOL    HW2 1873   3.830   1.569   0.748  1.3120 -0.4723 -1.2664
  450SOL    HW3 1874   3.698   1.626   0.701  0.0216 -2.0505  0.3325
  450SOL    MW4 1875   3.783   1.613   0.689  0.2499 -0.2292 -0.2697
  451SOL     OW 1876   3.797   2.320   0.860  0.2846 -0.0855  0.4629
  451SOL    HW2 1877   3.798   2.332   0.955  2.4204 -0.9034  0.5832
  451SOL    HW3 1878   3.797   2.225   0.848 -0.1622  0.0128 -0.3659
  451SOL    MW4 1879   3.797   2.309   0.871  0.5076 -0.1802  0.3695
  452SOL     OW 1880   3.546   2.436   0.740  0.1448 -0.8479  0.4137
  452SOL    HW2 1881   3.548   2.518   0.789 -1.3377  0.7447 -2.1101
  452SOL    HW3 1882   3.635   2.401   0.749  0.5367  0.5667  2.2701
  452SOL    MW4 1883   3.558   2.442   0.747  0.0012 -0.4508  0.3256
  453SOL     OW 1884   3.569   2.659   0.904  0.3479 -0.0539 -0.1305
  453SOL    HW2 1885   3.566   2.685   0.996  0.9234  0.6979 -0.3137
  453SOL    HW3 1886   3.651   2.696   0.872 -0.4450  0.7740 -1.2562
  453SOL    MW4 1887   3.580   2.668   0.912  0.3192  0.1547 -0.3033
  454SOL     OW 1888   3.788   2.816   0.796  0.0936 -0.2663 -0.4518
  454SOL    HW2 1889   3.735   2.815   0.717  0.5089 -0.3251 -0.7323
  454SOL    HW3 1890   3.786   2.907   0.826  0.5670 -0.0911 -0.9560
  454SOL    MW4 1891   3.781   2.828   0.790  0.2110 -0.2508 -0.5553
  455SOL     OW 1892   4.000   3.222   0.742  0.5125 -0.2714  0.1713
  455SOL    HW2 1893   4.087   3.185   0.729 -0.0725 -2.0733  1.1762
  455SOL    HW3 1894   4.010   3.282   0.816  1.0912  0.2604 -0.3332
  455SOL    MW4 1895   4.012   3.225   0.750  0.5116 -0.4392  0.2373
  456SOL     OW 1896   0.027   2.389   0.380  0.4875 -0.1530 -0.0632
  456SOL    HW2 1897   0.034   2.371   0.474  1.3832  1.3524  0.1573
  456SOL    HW3 1898   0.026   2.484   0.373 -1.8473 -0.2138 -1.4215
  456SOL    MW4 1899   0.028   2.399   0.391  0.2976  0.0377 -0.2133
  457SOL     OW 1900   4.220   4.535   0.694  0.0081 -0.1554 -0.7508
  457SOL    HW2 1901   4.269   4.515   0.615 -0.3030 -0.1877 -0.9348
  457SOL    HW3 1902   4.152   4.468   0.699 -1.4147  1.1881 -1.7035
  457SOL    MW4 1903   4.218   4.524   0.685 -0.2208  0.0176 -0.9007
  458SOL     OW 1904   3.951   4.391   0.272  0.5536  0.0735 -0.0822
  458SOL    HW2 1905   4.008   4.329   0.318  1.3773  0.2152 -0.8891
  458SOL    HW3 1906   3.940   4.352   0.185 -1.0100 -0.2121  0.2217
  458SOL    MW4 1907   3.957   4.377   0.266  0.4561  0.0544 -0.1486
  459SOL     OW 1908   0.594   4.646   0.437 -0.0796  0.2415 -0.2413
  459SOL    HW2 1909   0.540   4.581   0.394 -0.4038  1.1059 -1.1695
  459SOL    HW3 1910   0.596   4.619   0.529  0.5794 -1.5896 -0.7757
  459SOL    MW4 1911   0.587   4.634   0.444 -0.0355  0.1135 -0.4342
  460SOL     OW 1912   4.346   0.315   0.563 -0.3250 -0.2838  0.4204
  460SOL    HW2 1913   4.375   0.285   0.649 -0.1182  0.6941  0.6984
  460SOL    HW3 1914   4.324   0.235   0.516 -0.0775 -0.8492  1.2535
  460SOL    MW4 1915   4.347   0.300   0.568 -0.2646 -0.2294  0.5670
  461SOL     OW 1916   3.050   3.677   0.504  0.1366  0.1964  0.0613
  461SOL    HW2 1917   3.132   3.628   0.504 -0.6630 -1.1784  0.2619
  461SOL    HW3 1918   3.018   3.670   0.594 -1.8536 -2.1662 -0.7656
  461SOL    MW4 1919   3.057   3.669   0.516 -0.2315 -0.2968 -0.0213
  462SOL     OW 1920   3.567   4.221   0.872  0.0244  0.6512  0.2269
  462SOL    HW2 1921   3.569   4.137   0.826  0.2478  0.7267  0.0980
  462SOL    HW3 1922   3.496   4.270   0.829 -0.1422  0.5098  0.3379
  462SOL    MW4 1923   3.558   4.216   0.860  0.0319  0.6418  0.2245
  463SOL     OW 1924   0.312   1.040   0.194  0.0297  0.6298  0.3820
  463SOL    HW2 1925   0.329   1.028   0.101  2.4348 -0.4464  0.9124
  463SOL    HW3 1926   0.314   0.951   0.230  0.9385  1.1686  1.7165
  463SOL    MW4 1927   0.315   1.027   0.187  0.4669  0.5589  0.6281
  464SOL     OW 1928   4.482   0.193   0.774  0.3906 -0.2599  0.7139
  464SOL    HW2 1929   4.480   0.104   0.811  0.7257 -0.8710 -0.7121
  464SOL    HW3 1930   4.478   0.251   0.851 -0.1659 -1.4999  1.6422
  464SOL    MW4 1931   4.481   0.189   0.789  0.3614 -0.5042  0.6482
  465SOL     OW 1932   0.141   0.709   0.780 -0.4584 -0.2118 -0.0253
  465SOL    HW2 1933   0.050   0.725   0.804 -0.1742  0.7464  0.4450
  465SOL    HW3 1934   0.190   0.725   0.860  0.1586 -0.3542 -0.3726
  465SOL    MW4 1935   0.136   0.713   0.793 -0.3395 -0.1042 -0.0091
  466SOL     OW 1936   3.769   0.714   0.861  0.0171 -0.4683  0.0478
  466SOL    HW2 1937   3.778   0.729   0.955 -2.0936 -0.5516  0.2831
  466SOL    HW3 1938   3.835   0.771   0.822 -0.3004  0.9473  1.4858
  466SOL    MW4 1939   3.779   0.723   0.869 -0.3033 -0.2926  0.2685
  467SOL     OW 1940   1.100   4.332   0.436  0.1854  0.1407  0.8989
  467SOL    HW2 1941   1.025   4.354   0.381 -0.6481 -0.8816  1.5955
  467SOL    HW3 1942   1.114   4.238   0.419  1.9312  0.5349  0.0326
  467SOL    MW4 1943   1.092   4.322   0.426  0.3060  0.0582  0.8765
  468SOL     OW 1944   3.174   0.526   0.712  0.2777 -0.1304  0.1678
  468SOL    HW2 1945   3.193   0.613   0.747  1.0971 -0.2162 -0.0459
  468SOL    HW3 1946   3.083   0.531   0.684  1.0868  1.5352 -2.3954
  468SOL    MW4 1947   3.164   0.538   0.713  0.4926  0.0781 -0.1985
  469SOL     OW 1948   4.053   1.122   0.880  0.3542 -0.2715 -0.1327
  469SOL    HW2 1949   4.047   1.150   0.972 -2.9123 -0.7233 -0.1578
  469SOL    HW3 1950   3.971   1.151   0.841  1.3799 -0.7702 -2.7496
  469SOL    MW4 1951   4.042   1.130   0.887  0.0591 -0.3970 -0.4813
  470SOL     OW 1952   0.214   1.569   0.886  0.5895  0.5777 -0.2437
  470SOL    HW2 1953   0.155   1.633   0.847 -0.4576 -0.0447  0.3025
  470SOL    HW3 1954   0.184   1.485   0.852  1.6194  0.3156 -0.5310
  470SOL    MW4 1955   0.202   1.567   0.876  0.5872  0.4610 -0.2096
  471SOL     OW 1956   3.121   1.609   0.774  0.0832 -0.3955  0.0258
  471SOL    HW2 1957   3.131   1.604   0.679  0.6214  0.2861  0.0430
  471SOL    HW3 1958   3.205   1.578   0.809 -0.0397 -0.4493  0.2758
  471SOL    MW4 1959   3.134   1.604   0.766  0.1380 -0.3128  0.0610
  472SOL     OW 1960   0.035   1.689   0.484  0.2046 -0.0328 -0.4301
  472SOL    HW2 1961   0.054   1.595   0.482  0.5109  0.0268 -0.1985
  472SOL    HW3 1962   0.025   1.710   0.577  0.6823  0.2762 -0.4493
  472SOL    MW4 1963   0.036   1.679   0.496  0.3080  0.0159 -0.4020
  473SOL     OW 1964   0.686   2.363   0.114 -0.0611 -0.2140  0.1751
  473SOL    HW2 1965   0.750   2.427   0.145  0.3967 -0.4632 -0.2703
  473SOL    HW3 1966   0.601   2.405   0.131  0.2636  1.3594 -1.9386
  473SOL    MW4 1967   0.683   2.377   0.121  0.0421 -0.0391 -0.1625
  474SOL     OW 1968   3.413   1.749   0.450  0.0453 -0.1150  0.5536
  474SOL    HW2 1969   3.405   1.845   0.445  0.3104 -0.1937 -2.1762
  474SOL    HW3 1970   3.327   1.719   0.477 -0.4750  0.8225 -0.0366
  474SOL    MW4 1971   3.401   1.758   0.453  0.0117 -0.0017  0.1156
  475SOL     OW 1972   4.300   2.361   0.827 -0.3952  0.0967  0.2371
  475SOL    HW2 1973   4.216   2.401   0.805 -0.2723 -0.6434 -1.7274
  475SOL    HW3 1974   4.285   2.267   0.821  0.3931 -0.0606  0.5864
  475SOL    MW4 1975   4.287   2.354   0.823 -0.2751 -0.0215  0.0240
  476SOL     OW 1976   3.479   2.556   0.497 -0.0560  0.6614  0.4384
  476SOL    HW2 1977   3.543   2.521   0.436  0.4850  0.2585  1.2308
  476SOL    HW3 1978   3.505   2.521   0.582 -0.2324  1.9743  1.0507
  476SOL    MW4 1979   3.491   2.547   0.500 -0.0079  0.7815  0.6237
  477SOL     OW 1980   4.048   2.759   0.883 -0.4024 -0.1205  0.2269
  477SOL    HW2 1981   4.046   2.670   0.849 -1.4989  0.5423 -1.5090
  477SOL    HW3 1982   3.965   2.797   0.856 -0.5436  1.0261  2.1324
  477SOL    MW4 1983   4.037   2.752   0.875 -0.5655  0.1180  0.2493
  478SOL     OW 1984   4.038   2.460   0.793  0.4846 -0.2047 -0.1745
  478SOL    HW2 1985   3.965   2.406   0.822 -0.3090  1.8511  1.8460
  478SOL    HW3 1986   4.020   2.479   0.701 -2.1786  1.2898  0.6284
  478SOL    MW4 1987   4.026   2.455   0.785  0.0286  0.2637  0.1980
  479SOL     OW 1988   4.244   3.089   0.641  0.1406  0.1710 -0.2312
  479SOL    HW2 1989   4.314   3.153   0.655  0.5028 -0.1947 -0.3390
  479SOL    HW3 1990   4.246   3.034   0.719 -0.3136  0.4281 -0.0407
  479SOL    MW4 1991   4.254   3.090   0.653  0.1283  0.1564 -0.2202
  480SOL     OW 1992   3.802   3.803   0.915  0.1210 -0.2506 -0.6763
  480SOL    HW2 1993   3.870   3.842   0.860  0.1298 -1.5308 -1.5753
  480SOL    HW3 1994   3.802   3.710   0.893 -2.3212 -0.1889 -1.0893
  480SOL    MW4 1995   3.811   3.796   0.905 -0.2000 -0.4115 -0.8494
  481SOL     OW 1996   3.915   3.315   0.483 -0.4016 -0.4045  0.4958
  481SOL    HW2 1997   3.933   3.409   0.488 -1.2026 -0.2954  1.5229
  481SOL    HW3 1998   3.943   3.281   0.568  1.1838 -1.3280 -0.3889
  481SOL    MW4 1999   3.921   3.323   0.495 -0.2983 -0.5121  0.5146
  482SOL     OW 2000   4.329   3.529   0.841  0.2328 -0.1524 -0.6343
  482SOL    HW2 2001   4.376   3.513   0.923 -0.4710 -0.0052 -0.2036
  482SOL    HW3 2002   4.332   3.624   0.830  0.6584 -0.2033 -0.9786
  482SOL    MW4 2003   4.336   3.540   0.850  0.1960 -0.1397 -0.6229
  483SOL     OW 2004   4.025   3.955   0.498 -0.0095  0.3380  0.2749
  483SOL    HW2 2005   3.933   3.975   0.486  0.1462  0.7520 -0.2284
  483SOL    HW3 2006   4.072   4.026   0.455  0.5480  0.7523  1.5334
  483SOL    MW4 2007   4.019   3.967   0.491  0.0844  0.4473  0.3745
  484SOL     OW 2008   0.854   2.579   0.206 -0.1892  0.3476  0.1137
  484SOL    HW2 2009   0.885   2.548   0.290  0.9566  0.4027 -0.2887
  484SOL    HW3 2010   0.925   2.634   0.172 -1.2183  1.4809 -0.2496
  484SOL    MW4 2011   0.867   2.582   0.212 -0.1738  0.5045  0.0127
  485SOL     OW 2012   4.152   4.183   0.896 -0.1053  0.0118 -0.2509
  485SOL    HW2 2013   4.238   4.192   0.854  0.9222 -1.4893  1.4779
  485SOL    HW3 2014   4.121   4.096   0.869 -0.7684  0.2499 -0.2694
  485SOL    MW4 2015   4.159   4.173   0.887 -0.0572 -0.1545 -0.0253
  486SOL     OW 2016   4.398   4.205   0.745  0.5841 -0.1493  0.6029
  486SOL    HW2 2017   4.473   4.262   0.763  0.3613  0.1646  0.5332
  486SOL    HW3 2018   4.433   4.116   0.751  1.2637  0.0121 -0.7260
  486SOL    MW4 2019   4.412   4.200   0.748  0.6442 -0.0868  0.4184
  487SOL     OW 2020   0.246   4.630   1.091 -0.0134  0.3005  0.1278
  487SOL    HW2 2021   0.326   4.658   1.136  0.6610 -1.5429  0.1194
  487SOL    HW3 2022   0.263   4.648   0.999  0.5321 -0.3840  0.0901
  487SOL    MW4 2023   0.259   4.636   1.085  0.1476 -0.0329  0.1220
  488SOL     OW 2024   0.043   0.127   1.192 -0.0127  0.0782 -0.2841
  488SOL    HW2 2025  -0.032   0.075   1.164 -0.5938  1.6484 -1.6912
  488SOL    HW3 2026   0.119   0.072   1.173 -0.7381 -1.3323  0.7302
  488SOL    MW4 2027   0.044   0.113   1.186 -0.1850  0.0993 -0.3359
  489SOL     OW 2028   0.010   0.358   1.034 -0.6363 -0.0144  0.6336
  489SOL    HW2 2029  -0.059   0.404   1.082 -1.9761 -2.6264  1.2954
  489SOL    HW3 2030   0.032   0.283   1.090  2.0800  0.2196 -0.0349
  489SOL    MW4 2031   0.004   0.354   1.048 -0.4547 -0.3282  0.6326
  490SOL     OW 2032   0.236   0.505   1.163 -0.1907  0.5451  0.3706
  490SOL    HW2 2033   0.233   0.595   1.129  0.1335  0.6916  0.7205
  490SOL    HW3 2034   0.173   0.457   1.110  0.2891  0.7804 -0.4202
  490SOL    MW4 2035   0.228   0.511   1.152 -0.0846  0.5955  0.3123
  491SOL     OW 2036   0.235   0.757   1.034 -0.0046  0.4725 -0.1200
  491SOL    HW2 2037   0.301   0.809   1.080 -0.0098  1.4065 -1.1556
  491SOL    HW3 2038   0.153   0.775   1.079  0.3847 -0.4900  1.0091
  491SOL    MW4 2039   0.233   0.766   1.046  0.0461  0.4687 -0.1078
  492SOL     OW 2040   0.011   0.835   1.196  0.2083 -0.1535  0.0543
  492SOL    HW2 2041   0.027   0.849   1.289 -0.7602 -0.9080  0.3411
  492SOL    HW3 2042  -0.081   0.810   1.190 -0.3616  2.1115 -1.3576
  492SOL    MW4 2043   0.001   0.833   1.207  0.0057  0.0458 -0.0942
  493SOL     OW 2044   4.484   1.093   1.128  0.4632  0.2635 -0.0891
  493SOL    HW2 2045   4.412   1.121   1.184  0.4306  0.3643 -0.1791
  493SOL    HW3 2046   4.499   1.001   1.150 -1.2890 -0.4475 -1.7701
  493SOL    MW4 2047   4.477   1.085   1.138  0.2275  0.1830 -0.3228
  494SOL     OW 2048   0.197   1.297   1.208  0.1480 -0.2084  0.3432
  494SOL    HW2 2049   0.273   1.242   1.188 -0.8966 -1.2188 -0.9173
  494SOL    HW3 2050   0.122   1.247   1.176 -0.9567  1.2818  0.5487
  494SOL    MW4 2051   0.197   1.283   1.201 -0.1356 -0.1452  0.2040
  495SOL     OW 2052   0.185   1.570   1.163  0.4348 -0.2268  0.0253
  495SOL    HW2 2053   0.188   1.478   1.189 -0.6581 -0.0034  0.9819
  495SOL    HW3 2054   0.192   1.568   1.067 -0.3476 -1.3473 -0.0177
  495SOL    MW4 2055   0.187   1.558   1.154  0.1874 -0.3452  0.1459
  496SOL     OW 2056   4.437   1.711   1.229  0.2961  0.0319  0.0685
  496SOL    HW2 2057   4.444   1.797   1.186 -0.5477 -0.6560 -1.4721
  496SOL    HW3 2058   4.521   1.668   1.210 -0.0115 -0.2073 -0.7456
  496SOL    MW4 2059   4.449   1.717   1.221  0.1445 -0.0904 -0.2421
  497SOL     OW 2060   4.488   1.955   1.101 -0.2980 -0.2743 -0.0312
  497SOL    HW2 2061   4.413   2.006   1.134  0.6438  0.3222  1.2410
  497SOL    HW3 2062   4.504   1.989   1.014 -0.2686  0.9828  0.4574
  497SOL    MW4 2063   4.480   1.966   1.094 -0.1698 -0.0297  0.2010
  498SOL     OW 2064   0.225   2.057   1.212  0.4063 -0.4008  0.3471
  498SOL    HW2 2065   0.239   2.133   1.155  0.5934 -1.5016 -1.0905
  498SOL    HW3 2066   0.142   2.019   1.182  0.4631 -0.9389  0.8632
  498SOL    MW4 2067   0.216   2.062   1.201  0.4385 -0.6173  0.2255
  499SOL     OW 2068   0.252   2.322   1.103 -0.1213 -0.2965 -0.7931
  499SOL    HW2 2069   0.314   2.377   1.151 -0.0130 -1.5882  0.5875
  499SOL    HW3 2070   0.166   2.358   1.126 -0.0228 -0.2878 -0.4438
  499SOL    MW4 2071   0.249   2.334   1.112 -0.0940 -0.4656 -0.5649
  500SOL     OW 2072   0.004   2.472   1.192 -0.1497 -0.5670 -0.4628
  500SOL    HW2 2073  -0.005   2.483   1.287 -0.2330 -0.3908 -0.4897
  500SOL    HW3 2074  -0.074   2.422   1.166 -0.9823  0.8202 -0.6733
  500SOL    MW4 2075  -0.007   2.467   1.201 -0.2699 -0.3605 -0.4941
  501SOL     OW 2076   0.057   2.737   1.111  0.1462 -0.2242 -0.5411
  501SOL    HW2 2077  -0.019   2.764   1.163  0.4313  1.3379 -0.9389
  501SOL    HW3 2078   0.050   2.641   1.108 -1.7323 -0.1091 -0.4529
  501SOL    MW4 2079   0.046   2.728   1.117 -0.0641 -0.0026 -0.5819
  502SOL     OW 2080   0.223   2.894   1.258 -0.6084 -0.6935  0.0014
  502SOL    HW2 2081   0.239   2.866   1.348 -0.2196 -0.2579  0.0727
  502SOL    HW3 2082   0.156   2.834   1.225 -1.2968 -0.3775  0.8260
  502SOL    MW4 2083   0.216   2.883   1.265 -0.6479 -0.5944  0.1196
  503SOL     OW 2084   0.196   3.160   1.140 -0.5534  0.2989  0.4501
  503SOL    HW2 2085   0.273   3.204   1.177 -1.5076  1.8530  0.6217
  503SOL    HW3 2086   0.206   3.069   1.167  1.1159  0.5253  0.6607
  503SOL    MW4 2087   0.208   3.154   1.149 -0.4591  0.5338  0.5006
  504SOL     OW 2088   4.462   3.280   1.274  0.3090 -0.0610  0.1216
  504SOL    HW2 2089   4.546   3.244   1.245  0.6145 -0.9160  1.9958
  504SOL    HW3 2090   4.396   3.219   1.241  0.5464 -0.2664  0.0261
  504SOL    MW4 2091   4.465   3.267   1.266  0.3805 -0.2010  0.3562
  505SOL     OW 2092   4.476   3.495   1.086 -0.5016 -0.1341  0.7686
  505SOL    HW2 2093   4.557   3.522   1.129  0.9092 -1.9083 -0.7053
  505SOL    HW3 2094   4.439   3.429   1.144 -0.2090 -0.2637  0.8102
  505SOL    MW4 2095   4.482   3.490   1.099 -0.2769 -0.3850  0.5797
  506SOL     OW 2096   0.225   3.581   1.218  0.4620 -0.0697 -0.1677
  506SOL    HW2 2097   0.235   3.600   1.311 -0.7579 -0.6616  0.0998
  506SOL    HW3 2098   0.294   3.518   1.199  1.1074  0.5204  0.1882
  506SOL    MW4 2099   0.235   3.575   1.228  0.3862 -0.0696 -0.0854
  507SOL     OW 2100   0.299   3.831   1.116  0.3128 -0.1062  0.0113
  507SOL    HW2 2101   0.228   3.869   1.168  0.4470  0.6703 -0.3595
  507SOL    HW3 2102   0.301   3.739   1.142 -0.0740  0.1199  0.8715
  507SOL    MW4 2103   0.290   3.824   1.126  0.2795  0.0262  0.0758
  508SOL     OW 2104   0.038   3.920   1.180  0.3482 -0.0966  0.2013
  508SOL    HW2 2105   0.044   3.932   1.275  0.3338 -1.3138  0.3756
  508SOL    HW3 2106  -0.036   3.860   1.169 -0.1464  0.6611 -0.6368
  508SOL    MW4 2107   0.029   3.913   1.191  0.2809 -0.1574  0.1138
  509SOL     OW 2108   0.021   4.226   1.076 -0.1171  0.0809 -0.1507
  509SOL    HW2 2109   0.092   4.262   1.128 -0.9100  0.7567  0.4779
  509SOL    HW3 2110   0.034   4.131   1.079  0.7449  0.2053 -0.0316
  509SOL    MW4 2111   0.032   4.218   1.083 -0.1080  0.1864 -0.0521
  510SOL     OW 2112   0.234   4.364   1.176 -0.3996 -0.0626 -0.0997
  510SOL    HW2 2113   0.240   4.356   1.271  0.8905 -0.9283 -0.2404
  510SOL    HW3 2114   0.224   4.458   1.160 -1.9757 -0.0316  0.9494
  510SOL    MW4 2115   0.233   4.375   1.186 -0.4373 -0.1726  0.0203
  511SOL     OW 2116   0.693   4.651   1.125 -0.1961  0.3718  0.3403
  511SOL    HW2 2117   0.761   4.673   1.188  0.1867 -0.5449  0.2631
  511SOL    HW3 2118   0.688   4.555   1.128 -0.6994  0.3667 -0.4638
  511SOL    MW4 2119   0.702   4.641   1.134 -0.2121  0.2503  0.2240
  512SOL     OW 2120   0.462   0.075   1.230 -0.1779 -0.0722 -0.0480
  512SOL    HW2 2121   0.469   0.165   1.199 -1.3977  0.2543  0.5973
  512SOL    HW3 2122   0.538   0.031   1.192  0.5311  1.2649 -0.2179
  512SOL    MW4 2123   0.473   0.081   1.221 -0.2453  0.1473  0.0147
  513SOL     OW 2124   0.451   0.341   1.097 -0.1290 -0.0389  0.0141
  513SOL    HW2 2125   0.393   0.416   1.106  2.3827  1.7213  2.5027
  513SOL    HW3 2126   0.477   0.341   1.005 -2.3327  0.4067 -0.6368
  513SOL    MW4 2127   0.447   0.351   1.086 -0.0884  0.2522  0.2567
  514SOL     OW 2128   0.673   0.461   1.208 -0.0732 -0.1343 -0.3528
  514SOL    HW2 2129   0.669   0.549   1.170 -0.5550  0.2845  0.6228
  514SOL    HW3 2130   0.599   0.414   1.169 -1.1198  0.5756  0.7335
  514SOL    MW4 2131   0.662   0.467   1.198 -0.2749  0.0146 -0.0807
  515SOL     OW 2132   0.656   0.747   1.141  0.3105  0.1790 -0.3424
  515SOL    HW2 2133   0.571   0.784   1.163  0.7642  0.4773  0.9571
  515SOL    HW3 2134   0.665   0.759   1.046 -0.4636  1.4443 -0.2535
  515SOL    MW4 2135   0.646   0.753   1.131  0.2683  0.3853 -0.1594
  516SOL     OW 2136   0.410   0.900   1.178  0.2034  0.4602  0.2974
  516SOL    HW2 2137   0.412   0.897   1.274 -0.2087 -0.7151  0.2729
  516SOL    HW3 2138   0.420   0.993   1.157 -0.7134  0.8398  1.5003
  516SOL    MW4 2139   0.412   0.912   1.188  0.0281  0.3552  0.4529
  517SOL     OW 2140   0.428   1.176   1.108 -0.4543 -0.1640  0.3247
  517SOL    HW2 2141   0.511   1.214   1.137 -0.7007  0.2916  0.4304
  517SOL    HW3 2142   0.425   1.192   1.014 -0.2883 -0.4357  0.2735
  517SOL    MW4 2143   0.438   1.183   1.099 -0.4649 -0.1398  0.3319
  518SOL     OW 2144   0.654   1.286   1.238  0.5407  0.0997 -0.0552
  518SOL    HW2 2145   0.738   1.240   1.226 -0.3197 -0.9726 -2.2424
  518SOL    HW3 2146   0.667   1.371   1.195  0.8090  0.3173  0.4503
  518SOL    MW4 2147   0.667   1.291   1.231  0.4626 -0.0131 -0.2772
  519SOL     OW 2148   0.679   1.537   1.122  0.3147 -0.0628  0.1624
  519SOL    HW2 2149   0.759   1.578   1.156  0.1665  0.3912 -0.0350
  519SOL    HW3 2150   0.608   1.587   1.162  0.1369  0.2945 -0.5940
  519SOL    MW4 2151   0.680   1.549   1.132  0.2716  0.0441  0.0365
  520SOL     OW 2152   0.464   1.678   1.229 -0.0254 -0.7895 -0.4287
  520SOL    HW2 2153   0.462   1.669   1.324  0.2142 -0.0251 -0.3504
  520SOL    HW3 2154   0.382   1.639   1.200 -0.9822  0.6717  0.2451
  520SOL    MW4 2155   0.453   1.671   1.238 -0.1200 -0.4959 -0.3295
  521SOL     OW 2156   0.436   1.926   1.096  0.6308 -0.1274  0.1732
  521SOL    HW2 2157   0.435   1.837   1.132 -1.3016 -0.7424 -1.2819
  521SOL    HW3 2158   0.362   1.969   1.139  0.9997  0.4961  0.1811
  521SOL    MW4 2159   0.426   1.920   1.107  0.4245 -0.1262 -0.0179
  522SOL     OW 2160   0.642   2.093   1.214  0.0978 -0.1148 -0.1849
  522SOL    HW2 2161   0.638   2.082   1.309 -0.5171  1.2970 -0.0341
  522SOL    HW3 2162   0.564   2.049   1.181 -0.1229  0.1065  0.0400
  522SOL    MW4 2163   0.631   2.086   1.222 -0.0124  0.1006 -0.1353
  523SOL     OW 2164   0.660   2.350   1.111  0.0147 -0.0543  0.1400
  523SOL    HW2 2165   0.592   2.410   1.142 -1.9286 -1.0890 -1.9831
  523SOL    HW3 2166   0.645   2.270   1.161 -0.9084 -0.5799 -0.9744
  523SOL    MW4 2167   0.649   2.347   1.122 -0.3635 -0.2601 -0.2872
  524SOL     OW 2168   0.438   2.502   1.211  0.3592  0.1430  0.1968
  524SOL    HW2 2169   0.465   2.513   1.302  0.2698  0.2094  0.2157
  524SOL    HW3 2170   0.415   2.590   1.182  0.2572  0.1015  0.1514
  524SOL    MW4 2171   0.438   2.515   1.219  0.3339  0.1462  0.1932
  525SOL     OW 2172   0.450   2.774   1.144 -0.1708 -0.0413  0.0562
  525SOL    HW2 2173   0.373   2.815   1.183 -1.1182  0.0842 -1.8786
  525SOL    HW3 2174   0.444   2.796   1.051  1.4796 -1.1799 -0.3375
  525SOL    MW4 2175   0.439   2.783   1.136 -0.0781 -0.1748 -0.2512
  526SOL     OW 2176   0.692   2.919   1.173 -0.1502 -0.0320  0.0239
  526SOL    HW2 2177   0.677   3.013   1.165  0.4122  0.2457  2.0216
  526SOL    HW3 2178   0.605   2.882   1.186 -0.2698  0.3338  0.2835
  526SOL    MW4 2179   0.679   2.927   1.173 -0.0918  0.0529  0.3216
  527SOL     OW 2180   0.673   3.206   1.105 -0.5497 -0.1972  0.0785
  527SOL    HW2 2181   0.753   3.232   1.150  0.7226 -2.4812 -0.7521
  527SOL    HW3 2182   0.690   3.225   1.013 -0.8471 -0.9643 -0.1385
  527SOL    MW4 2183   0.686   3.212   1.099 -0.4210 -0.6001 -0.0600
  528SOL     OW 2184   0.432   3.340   1.230  0.4842 -0.0064  0.3492
  528SOL    HW2 2185   0.491   3.289   1.173  1.3694  0.9380  0.4128
  528SOL    HW3 2186   0.455   3.312   1.318 -0.8867 -1.4684  0.2629
  528SOL    MW4 2187   0.443   3.329   1.234  0.4201 -0.0746  0.3463
  529SOL     OW 2188   0.626   3.593   1.239  0.2610 -0.3091  0.0353
  529SOL    HW2 2189   0.667   3.606   1.324  0.6356 -0.1161 -0.1688
  529SOL    HW3 2190   0.569   3.518   1.250  0.7309 -0.6270  0.3072
  529SOL    MW4 2191   0.624   3.585   1.251  0.3724 -0.3254  0.0441
  530SOL     OW 2192   0.869   3.528   1.099 -0.5759 -0.2131  0.1732
  530SOL    HW2 2193   0.779   3.543   1.127 -0.4000  1.0997  0.0524
  530SOL    HW3 2194   0.861   3.509   1.005 -0.7015  0.1622  0.1074
  530SOL    MW4 2195   0.856   3.528   1.090 -0.5693  0.0098  0.1485
  531SOL     OW 2196   0.688   3.869   1.157  0.5179 -0.0088 -0.2889
  531SOL    HW2 2197   0.614   3.929   1.168  0.7522  0.1069  0.7057
  531SOL    HW3 2198   0.653   3.783   1.180 -0.0381 -0.4182 -2.4968
  531SOL    MW4 2199   0.673   3.866   1.161  0.4755 -0.0474 -0.4491
  532SOL     OW 2200   0.465   4.016   1.239 -0.9186 -0.5620  0.1124
  532SOL    HW2 2201   0.462   4.096   1.187  0.3557  0.3105  1.3401
  532SOL    HW3 2202   0.419   3.951   1.186  1.3880 -0.0390 -2.6727
  532SOL    MW4 2203   0.459   4.018   1.225 -0.4462 -0.3777 -0.0931
  533SOL     OW 2204   0.446   4.241   1.079 -0.0546 -0.1236 -0.1167
  533SOL    HW2 2205   0.525   4.295   1.090 -0.0950  0.0440 -0.6455
  533SOL    HW3 2206   0.375   4.297   1.110 -0.0695  0.0415 -0.4503
  533SOL    MW4 2207   0.447   4.255   1.085 -0.0619 -0.0801 -0.2303
  534SOL     OW 2208   0.676   4.379   1.144 -0.2355  0.2211 -0.2895
  534SOL    HW2 2209   0.663   4.380   1.239 -0.9701 -0.7101 -0.3679
  534SOL    HW3 2210   0.745   4.315   1.129 -0.5687 -0.1016 -0.4380
  534SOL    MW4 2211   0.683   4.371   1.154 -0.3764  0.0558 -0.3194
  535SOL     OW 2212   1.091   4.604   1.155  0.3850  0.5299  0.1395
  535SOL    HW2 2213   1.115   4.514   1.175  1.7200  0.6999 -0.6319
  535SOL    HW3 2214   1.089   4.608   1.060 -1.7801  0.7827  0.1774
  535SOL    MW4 2215   1.094   4.593   1.145  0.2755  0.5856  0.0426
  536SOL     OW 2216   0.880   0.087   1.282 -0.6242  0.2774 -0.3746
  536SOL    HW2 2217   0.888   0.113   1.374  1.4003  0.4094 -0.5572
  536SOL    HW3 2218   0.966   0.050   1.260 -1.2833 -0.3055 -2.0411
  536SOL    MW4 2219   0.893   0.086   1.292 -0.4441  0.2179 -0.6186
  537SOL     OW 2220   0.919   0.330   1.163  0.3097  0.7417 -0.0811
  537SOL    HW2 2221   0.909   0.246   1.208  1.6792  0.7102  0.2019
  537SOL    HW3 2222   0.837   0.376   1.180  0.9044  0.8742  2.8244
  537SOL    MW4 2223   0.907   0.325   1.171  0.5689  0.7550  0.3396
  538SOL     OW 2224   1.135   0.472   1.248  0.2338  0.0182  0.0730
  538SOL    HW2 2225   1.137   0.468   1.344  0.6271  1.4717  0.1371
  538SOL    HW3 2226   1.049   0.438   1.224 -0.1136  0.2465  0.9876
  538SOL    MW4 2227   1.124   0.467   1.257  0.2397  0.2401  0.2021
  539SOL     OW 2228   1.115   0.755   1.227  0.2267  0.0661  0.2947
  539SOL    HW2 2229   1.028   0.792   1.243 -0.3307 -0.7059 -0.9261
  539SOL    HW3 2230   1.109   0.664   1.255  0.4353 -0.1692 -0.3929
  539SOL    MW4 2231   1.103   0.748   1.233  0.1807 -0.0668  0.0427
  540SOL     OW 2232   0.862   0.885   1.251 -0.5654  0.3604  0.6773
  540SOL    HW2 2233   0.861   0.972   1.210  1.5881 -0.1990 -0.6615
  540SOL    HW3 2234   0.798   0.834   1.202  1.8467 -0.2437 -1.9806
  540SOL    MW4 2235   0.853   0.890   1.239  0.0370  0.2069  0.1498
  541SOL     OW 2236   0.868   1.130   1.123 -0.1454 -0.4003 -0.1802
  541SOL    HW2 2237   0.944   1.184   1.144 -0.6101  0.3703 -0.4687
  541SOL    HW3 2238   0.870   1.122   1.028  0.9863 -2.4598  0.0001
  541SOL    MW4 2239   0.878   1.136   1.113 -0.0574 -0.5704 -0.1944
  542SOL     OW 2240   1.117   1.281   1.199  0.2459  0.0843  0.2577
  542SOL    HW2 2241   1.093   1.274   1.292 -0.1205  2.0530  0.3469
  542SOL    HW3 2242   1.192   1.223   1.189  0.2147 -0.2501  1.7706
  542SOL    MW4 2243   1.124   1.273   1.210  0.1935  0.2999  0.4690
  543SOL     OW 2244   1.112   1.557   1.132  0.0729  0.5724  0.8202
  543SOL    HW2 2245   1.121   1.463   1.146  0.7674  0.6834  1.1507
  543SOL    HW3 2246   1.107   1.566   1.037 -1.0577  0.1204  0.8211
  543SOL    MW4 2247   1.112   1.546   1.121  0.0153  0.5273  0.8638
  544SOL     OW 2248   0.901   1.662   1.262 -0.3992 -0.1016  0.7251
  544SOL    HW2 2249   0.886   1.751   1.229 -0.1735  0.0445  1.0105
  544SOL    HW3 2250   0.975   1.631   1.210 -0.0435  0.1286  1.0907
  544SOL    MW4 2251   0.909   1.670   1.251 -0.3224 -0.0521  0.8110
  545SOL     OW 2252   0.869   1.910   1.143  0.1448  0.4737 -0.4331
  545SOL    HW2 2253   0.953   1.956   1.148  0.5572 -0.1196 -1.6931
  545SOL    HW3 2254   0.807   1.969   1.187  1.0855  1.2301 -0.1029
  545SOL    MW4 2255   0.872   1.924   1.149  0.3233  0.4952 -0.5558
  546SOL     OW 2256   1.093   2.066   1.204 -0.1149 -0.3931 -0.3257
  546SOL    HW2 2257   1.081   2.071   1.299  1.3178 -1.4934 -0.0719
  546SOL    HW3 2258   1.118   2.155   1.179 -1.3930  0.1216  0.1894
  546SOL    MW4 2259   1.095   2.078   1.213 -0.0944 -0.4706 -0.2244
  547SOL     OW 2260   1.140   2.332   1.110  0.0077 -0.1195 -0.1354
  547SOL    HW2 2261   1.223   2.378   1.118 -0.9617  1.6666 -0.1759
  547SOL    HW3 2262   1.073   2.399   1.123 -1.4472 -1.7481  1.0801
  547SOL    MW4 2263   1.142   2.347   1.113 -0.3122 -0.0987  0.0196
  548SOL     OW 2264   0.907   2.481   1.166 -0.0037 -0.1760  0.1685
  548SOL    HW2 2265   0.921   2.477   1.261 -0.0787 -2.6372  0.1192
  548SOL    HW3 2266   0.833   2.422   1.151 -0.3361  0.6093 -1.3635
  548SOL    MW4 2267   0.899   2.473   1.177 -0.0575 -0.3970 -0.0403
  549SOL     OW 2268   0.913   2.750   1.089  0.4427  0.0026  0.0108
  549SOL    HW2 2269   0.895   2.660   1.115 -1.9739 -0.1872 -2.0985
  549SOL    HW3 2270   0.835   2.799   1.114  1.8173  1.6097  1.3527
  549SOL    MW4 2271   0.901   2.745   1.096  0.3052  0.1898 -0.0904
  550SOL     OW 2272   1.139   2.876   1.168 -0.2586 -0.2054  0.1444
  550SOL    HW2 2273   1.136   2.864   1.263 -0.2184 -0.8092  0.0753
  550SOL    HW3 2274   1.053   2.846   1.138 -0.1043 -0.4595 -0.0525
  550SOL    MW4 2275   1.127   2.870   1.177 -0.2331 -0.3185  0.1092
  551SOL     OW 2276   1.130   3.137   1.086 -0.0843 -0.1596  0.3235
  551SOL    HW2 2277   1.139   3.043   1.103 -1.3990 -0.5372 -1.0230
  551SOL    HW3 2278   1.135   3.146   0.991 -0.3213  1.1063  0.4129
  551SOL    MW4 2279   1.132   3.126   1.076 -0.2890 -0.0424  0.1577
  552SOL     OW 2280   0.912   3.287   1.222  0.6462  0.2454  0.3016
  552SOL    HW2 2281   0.911   3.370   1.175 -1.2243 -0.7507 -1.4913
  552SOL    HW3 2282   0.991   3.243   1.191 -0.3553 -0.2280 -1.6242
  552SOL    MW4 2283   0.923   3.292   1.212  0.2673  0.0517 -0.1889
  553SOL     OW 2284   0.812   3.509   0.820 -0.1526  0.2484 -0.1897
  553SOL    HW2 2285   0.895   3.528   0.775 -0.1919  2.1474  0.4688
  553SOL    HW3 2286   0.752   3.577   0.788 -1.8326 -1.8319 -1.5852
  553SOL    MW4 2287   0.815   3.521   0.810 -0.3794  0.2246 -0.2869
  554SOL     OW 2288   1.138   3.568   1.200 -0.4114 -0.1277 -0.5702
  554SOL    HW2 2289   1.119   3.568   1.294  0.0262  0.4880 -0.4819
  554SOL    HW3 2290   1.051   3.565   1.159 -0.5878 -1.1627 -0.1505
  554SOL    MW4 2291   1.124   3.568   1.207 -0.3769 -0.1829 -0.5032
  555SOL     OW 2292   1.168   3.833   1.127 -0.0814  0.6021  0.3920
  555SOL    HW2 2293   1.091   3.882   1.156 -0.0438  0.9453 -0.0804
  555SOL    HW3 2294   1.155   3.744   1.161  0.0752  1.0547  1.6548
  555SOL    MW4 2295   1.157   3.828   1.136 -0.0558  0.7069  0.4963
  556SOL     OW 2296   0.954   3.977   1.231  0.0896  0.1241 -0.3969
  556SOL    HW2 2297   0.954   4.009   1.321  0.1989  1.6529 -0.9243
  556SOL    HW3 2298   0.876   3.922   1.225  0.7619 -1.0050  0.9757
  556SOL    MW4 2299   0.944   3.974   1.242  0.1927  0.1769 -0.2854
  557SOL     OW 2300   0.891   4.211   1.116  0.3349 -0.5171 -0.2788
  557SOL    HW2 2301   0.914   4.119   1.131 -1.6060 -0.9999 -0.1375
  557SOL    HW3 2302   0.896   4.221   1.021 -0.4611 -1.0513 -0.3836
  557SOL    MW4 2303   0.895   4.200   1.106 -0.0262 -0.6518 -0.2741
  558SOL     OW 2304   1.134   4.333   1.214  0.4794  0.3810 -0.0006
  558SOL    HW2 2305   1.140   4.343   1.309 -0.0034 -1.7151  0.2663
  558SOL    HW3 2306   1.045   4.301   1.198  0.7443  0.1701 -1.1070
  558SOL    MW4 2307   1.123   4.330   1.224  0.4506  0.0763 -0.1113
  559SOL     OW 2308   1.578   4.643   1.100  0.1678 -0.1048 -0.1582
  559SOL    HW2 2309   1.638   4.699   1.150 -1.8133  1.3928  0.6303
  559SOL    HW3 2310   1.585   4.557   1.142 -0.7722  0.9077  2.2069
  559SOL    MW4 2311   1.587   4.639   1.112 -0.2178  0.2270  0.2580
  560SOL     OW 2312   1.347   0.086   1.202 -0.5277 -0.1236 -0.0529
  560SOL    HW2 2313   1.416   0.049   1.148 -0.6566  1.3798 -1.2897
  560SOL    HW3 2314   1.271   0.030   1.186  0.0163 -0.9529  0.2363
  560SOL    MW4 2315   1.346   0.074   1.193 -0.4729 -0.0347 -0.1780
  561SOL     OW 2316   1.350   0.345   1.114  0.0714 -0.1810 -0.3546
  561SOL    HW2 2317   1.350   0.258   1.154  1.3693  0.4254  1.0103
  561SOL    HW3 2318   1.274   0.389   1.151 -0.7285 -0.7895 -1.2304
  561SOL    MW4 2319   1.340   0.339   1.124  0.1371 -0.1813 -0.2902
  562SOL     OW 2320   1.544   0.489   1.238  0.1009  0.0590 -0.3954
  562SOL    HW2 2321   1.555   0.568   1.185  0.9763 -0.7486 -1.4236
  562SOL    HW3 2322   1.477   0.439   1.192  0.3878 -0.3398 -0.3805
  562SOL    MW4 2323   1.536   0.493   1.225  0.2542 -0.1001 -0.5289
  563SOL     OW 2324   1.588   0.729   1.126 -0.0721 -0.1366 -0.1124
  563SOL    HW2 2325   1.661   0.774   1.168  0.0549 -1.5764  1.2981
  563SOL    HW3 2326   1.600   0.744   1.032  2.1658 -0.5306  0.0839
  563SOL    MW4 2327   1.600   0.737   1.119  0.2400 -0.3785  0.0995
  564SOL     OW 2328   1.373   0.894   1.228  0.3309  0.1206  0.1327
  564SOL    HW2 2329   1.443   0.836   1.197  0.8278  0.9803 -0.3830
  564SOL    HW3 2330   1.295   0.839   1.230  0.6702 -0.4203 -0.9451
  564SOL    MW4 2331   1.372   0.879   1.224  0.4413  0.1627 -0.0774
  565SOL     OW 2332   1.316   1.130   1.101  0.3915 -0.5013  0.1781
  565SOL    HW2 2333   1.340   1.047   1.142 -0.8017 -0.9067  0.0806
  565SOL    HW3 2334   1.356   1.127   1.014  0.6314 -0.8245  0.2995
  565SOL    MW4 2335   1.324   1.118   1.095  0.2656 -0.5975  0.1812
  566SOL     OW 2336   1.559   1.269   1.206  0.1926 -0.0269 -0.3240
  566SOL    HW2 2337   1.639   1.232   1.170  0.3385  0.5330 -0.5919
  566SOL    HW3 2338   1.488   1.224   1.160  0.3832  1.0385 -1.6863
  566SOL    MW4 2339   1.560   1.258   1.195  0.2370  0.1875 -0.5392
  567SOL     OW 2340   1.573   1.536   1.144  0.0488  0.0648  0.6718
  567SOL    HW2 2341   1.637   1.582   1.198  2.3191 -1.2339 -0.8289
  567SOL    HW3 2342   1.574   1.446   1.176 -0.0533 -0.2650 -0.2193
  567SOL    MW4 2343   1.581   1.530   1.155  0.3349 -0.1502  0.3562
  568SOL     OW 2344   1.346   1.671   1.197 -0.2639 -0.4912  0.2187
  568SOL    HW2 2345   1.416   1.611   1.171 -0.3486 -1.1828  1.5782
  568SOL    HW3 2346   1.265   1.627   1.169 -0.3140 -0.9135  1.0328
  568SOL    MW4 2347   1.344   1.657   1.190 -0.2816 -0.6381  0.5054
  569SOL     OW 2348   1.338   1.944   1.113  0.2289  0.6374  0.6778
  569SOL    HW2 2349   1.358   1.864   1.162 -0.1702  0.1058 -0.0242
  569SOL    HW3 2350   1.256   1.975   1.150 -0.4695 -0.1872 -0.1865
  569SOL    MW4 2351   1.330   1.938   1.125  0.0840  0.4585  0.4710
  570SOL     OW 2352   1.554   2.098   1.216  0.1183  0.1720  0.2501
  570SOL    HW2 2353   1.549   2.178   1.164 -0.5479  0.6904  1.0943
  570SOL    HW3 2354   1.482   2.044   1.184  1.2673 -0.5824 -1.1095
  570SOL    MW4 2355   1.544   2.101   1.205  0.1819  0.1407  0.1822
  571SOL     OW 2356   1.581   2.348   1.060 -0.1244 -0.4243 -0.1532
  571SOL    HW2 2357   1.512   2.406   1.093 -0.7583 -0.3158 -1.6724
  571SOL    HW3 2358   1.579   2.358   0.965  0.9766 -1.5693 -0.3191
  571SOL    MW4 2359   1.571   2.357   1.052 -0.0627 -0.5608 -0.3756
  572SOL     OW 2360   1.365   2.486   1.158  0.0073 -0.1249 -0.2959
  572SOL    HW2 2361   1.358   2.496   1.253 -1.2894  0.2023 -0.4046
  572SOL    HW3 2362   1.354   2.575   1.123 -0.2323 -0.3323 -0.7684
  572SOL    MW4 2363   1.362   2.499   1.166 -0.1953 -0.1092 -0.3724
  573SOL     OW 2364   1.352   2.737   1.029 -0.1269 -0.4766  0.0691
  573SOL    HW2 2365   1.424   2.765   1.085 -0.5662 -1.6357  1.2526
  573SOL    HW3 2366   1.277   2.787   1.060 -0.1117 -0.2521 -0.2623
  573SOL    MW4 2367   1.352   2.747   1.041 -0.1829 -0.5999  0.1814
  574SOL     OW 2368   1.554   2.811   1.208 -0.2679  0.0903 -0.7891
  574SOL    HW2 2369   1.638   2.782   1.171  0.8014  0.8579  0.9631
  574SOL    HW3 2370   1.543   2.900   1.175 -0.1245  0.1778 -0.6057
  574SOL    MW4 2371   1.564   2.819   1.199 -0.1080  0.2031 -0.5337
  575SOL     OW 2372   1.589   3.072   1.090 -0.1618  0.1250  0.0733
  575SOL    HW2 2373   1.655   3.116   1.143 -0.3500 -1.9057  2.0677
  575SOL    HW3 2374   1.509   3.123   1.104  0.0695  0.2929  0.8060
  575SOL    MW4 2375   1.587   3.085   1.099 -0.1562 -0.1209  0.4332
  576SOL     OW 2376   1.368   3.213   1.184 -0.5072 -0.1744 -0.2551
  576SOL    HW2 2377   1.354   3.203   1.278 -0.1810  0.5063 -0.1301
  576SOL    HW3 2378   1.284   3.190   1.145 -0.7086 -0.2505  0.2178
  576SOL    MW4 2379   1.355   3.209   1.191 -0.4908 -0.0944 -0.1763
  577SOL     OW 2380   1.384   3.487   1.096  0.4604  0.1277 -0.2446
  577SOL    HW2 2381   1.372   3.395   1.117  0.5149 -0.2862 -1.9612
  577SOL    HW3 2382   1.313   3.532   1.143 -0.7067 -1.0012 -0.9203
  577SOL    MW4 2383   1.373   3.481   1.105  0.3138 -0.0756 -0.5603
  578SOL     OW 2384   1.575   3.625   1.236 -0.5831 -0.1457 -0.0438
  578SOL    HW2 2385   1.594   3.710   1.197  0.9825 -0.7694 -0.6816
  578SOL    HW3 2386   1.516   3.582   1.173  0.5799 -0.4786 -0.9291
  578SOL    MW4 2387   1.569   3.630   1.223 -0.2230 -0.2720 -0.2447
  579SOL     OW 2388   1.612   3.861   1.142  0.2366  0.2438  0.4646
  579SOL    HW2 2389   1.523   3.882   1.170 -0.0337 -1.2042  0.7580
  579SOL    HW3 2390   1.609   3.871   1.047  0.2493  1.9102  0.6233
  579SOL    MW4 2391   1.599   3.865   1.133  0.2025  0.2723  0.5244
  580SOL     OW 2392   1.368   3.977   1.248 -0.2666  0.2092  0.9826
  580SOL    HW2 2393   1.355   4.061   1.203  0.3320 -0.3688 -0.3108
  580SOL    HW3 2394   1.305   3.918   1.208 -0.5729 -0.0011  1.7732
  580SOL    MW4 2395   1.358   3.980   1.237 -0.2280  0.1054  0.9161
  581SOL     OW 2396   1.349   4.233   1.087 -0.5453 -0.3077 -0.1038
  581SOL    HW2 2397   1.273   4.279   1.121  0.1280  0.8771 -0.1813
  581SOL    HW3 2398   1.338   4.235   0.991 -0.4161 -0.1302 -0.1154
  581SOL    MW4 2399   1.338   4.239   1.078 -0.4394 -0.1278 -0.1156
  582SOL     OW 2400   1.590   4.363   1.155 -0.1180  0.3340 -0.6153
  582SOL    HW2 2401   1.565   4.357   1.247  3.1721 -3.2228  0.2214
  582SOL    HW3 2402   1.519   4.321   1.108 -0.6157 -0.1833  0.5812
  582SOL    MW4 2403   1.577   4.357   1.161  0.2506 -0.2041 -0.3471
  583SOL     OW 2404   1.993   0.024   1.097  0.0158  0.6387 -0.3347
  583SOL    HW2 2405   2.009  -0.063   1.134 -0.7051  0.3922 -0.5841
  583SOL    HW3 2406   2.052   0.029   1.022  2.1650  1.5153  1.3736
  583SOL    MW4 2407   2.003   0.013   1.092  0.2043  0.7224 -0.1422
  584SOL     OW 2408   1.762   0.125   1.250 -0.1267 -0.3284 -0.0140
  584SOL    HW2 2409   1.757   0.220   1.241 -0.3784 -0.4016 -0.6623
  584SOL    HW3 2410   1.848   0.102   1.213 -0.6529 -0.5003 -1.1402
  584SOL    MW4 2411   1.773   0.134   1.244 -0.2295 -0.3607 -0.2482
  585SOL     OW 2412   1.789   0.420   1.125  0.0951  0.2095  0.3651
  585SOL    HW2 2413   1.709   0.449   1.169 -0.2091  0.7946 -0.5543
  585SOL    HW3 2414   1.772   0.435   1.032  1.1846  0.1260  0.1414
  585SOL    MW4 2415   1.776   0.426   1.119  0.1987  0.2756  0.2143
  586SOL     OW 2416   2.033   0.449   1.222 -0.2250  0.7158  0.0502
  586SOL    HW2 2417   2.024   0.474   1.314  0.5380  2.4532 -0.3218
  586SOL    HW3 2418   1.943   0.442   1.190 -0.4779  2.6541  0.2945
  586SOL    MW4 2419   2.020   0.451   1.230 -0.1576  1.2008  0.0334
  587SOL     OW 2420   2.029   0.742   1.189  0.2030 -0.4715  0.0625
  587SOL    HW2 2421   2.045   0.650   1.208 -0.7807 -0.6092  0.2611
  587SOL    HW3 2422   2.002   0.743   1.097 -0.4578 -0.4640  0.2558
  587SOL    MW4 2423   2.028   0.730   1.179 -0.0141 -0.4887  0.1142
  588SOL     OW 2424   1.796   0.855   1.245  0.1427  0.1573 -0.1592
  588SOL    HW2 2425   1.785   0.860   1.340 -0.0652 -0.7841 -0.1334
  588SOL    HW3 2426   1.878   0.807   1.233 -1.1916 -2.1062 -0.4718
  588SOL    MW4 2427   1.805   0.850   1.256 -0.0607 -0.2655 -0.1971
  589SOL     OW 2428   1.800   1.134   1.167  0.3893  0.1676 -0.1267
  589SOL    HW2 2429   1.791   1.053   1.217  1.0290  0.1341 -0.0545
  589SOL    HW3 2430   1.793   1.107   1.075 -0.3871  0.1730 -0.0694
  589SOL    MW4 2431   1.798   1.120   1.161  0.3713  0.1638 -0.1097
  590SOL     OW 2432   2.026   1.299   1.208 -0.6357  0.0306 -0.5954
  590SOL    HW2 2433   2.091   1.234   1.181 -0.3115  0.2723 -0.4007
  590SOL    HW3 2434   1.942   1.254   1.199 -0.4157 -0.3963 -0.5120
  590SOL    MW4 2435   2.023   1.284   1.203 -0.5639  0.0062 -0.5587
  591SOL     OW 2436   2.031   1.573   1.105  0.2641  0.1060 -0.4087
  591SOL    HW2 2437   2.023   1.483   1.135  1.1696  0.1497 -0.0269
  591SOL    HW3 2438   2.018   1.568   1.010 -0.3930 -0.3208 -0.3016
  591SOL    MW4 2439   2.028   1.560   1.096  0.2968  0.0556 -0.3444
  592SOL     OW 2440   1.802   1.659   1.252  0.1807 -0.5265  0.2137
  592SOL    HW2 2441   1.771   1.737   1.205 -0.8265 -1.3049 -0.4176
  592SOL    HW3 2442   1.883   1.635   1.207 -0.0956 -0.4976 -0.3110
  592SOL    MW4 2443   1.809   1.666   1.240  0.0113 -0.6254  0.0612
  593SOL     OW 2444   1.745   1.902   1.122  0.1456  0.0659 -0.4741
  593SOL    HW2 2445   1.688   1.970   1.157  1.3444  0.9522 -0.2142
  593SOL    HW3 2446   1.759   1.927   1.030  1.0958  0.5270 -0.2112
  593SOL    MW4 2447   1.739   1.914   1.114  0.4292  0.2437 -0.4051
  594SOL     OW 2448   1.987   2.030   1.185 -0.0687 -0.2045 -0.1240
  594SOL    HW2 2449   2.004   2.040   1.278  0.7290  0.8103 -0.3576
  594SOL    HW3 2450   1.902   1.986   1.180 -0.9697  1.3447  1.0721
  594SOL    MW4 2451   1.978   2.026   1.196 -0.0823  0.1340  0.0030
  595SOL     OW 2452   2.033   2.291   1.072  0.0310 -0.3154 -0.6263
  595SOL    HW2 2453   2.096   2.325   1.135  0.2624 -1.6119 -0.1548
  595SOL    HW3 2454   2.013   2.203   1.102 -1.8579  0.0020 -0.8825
  595SOL    MW4 2455   2.039   2.284   1.084 -0.1876 -0.4444 -0.5978
  596SOL     OW 2456   1.841   2.467   1.173  0.3462  0.2231 -0.1779
  596SOL    HW2 2457   1.906   2.412   1.129 -0.3531 -1.5992  1.0461
  596SOL    HW3 2458   1.757   2.428   1.149 -0.1010  0.0211  1.6641
  596SOL    MW4 2459   1.839   2.455   1.164  0.1949 -0.0441  0.2265
  597SOL     OW 2460   1.802   2.744   1.108 -0.2849 -0.2605  0.5427
  597SOL    HW2 2461   1.821   2.652   1.128  0.1698 -0.3406 -0.2396
  597SOL    HW3 2462   1.806   2.749   1.012 -2.0012  0.2067  0.4859
  597SOL    MW4 2463   1.805   2.732   1.098 -0.4514 -0.2096  0.4319
  598SOL     OW 2464   2.022   2.850   1.207 -0.1504 -0.0993 -0.3006
  598SOL    HW2 2465   2.029   2.938   1.169 -0.4403  0.1787  0.2954
  598SOL    HW3 2466   1.934   2.821   1.184 -0.9495  0.7447  1.6048
  598SOL    MW4 2467   2.011   2.858   1.199 -0.2942  0.0486  0.0294
  599SOL     OW 2468   2.032   3.085   1.082 -0.2742  0.0297 -0.0768
  599SOL    HW2 2469   2.109   3.125   1.123 -0.5890 -0.9527  1.5199
  599SOL    HW3 2470   1.958   3.135   1.116 -0.4827 -0.2946 -0.0547
  599SOL    MW4 2471   2.032   3.097   1.092 -0.3431 -0.1426  0.1369
  600SOL     OW 2472   1.806   3.206   1.208  0.3077 -0.0004  0.2848
  600SOL    HW2 2473   1.802   3.210   1.303  1.2586 -0.5382  0.3547
  600SOL    HW3 2474   1.815   3.298   1.180 -0.8064  0.2225  0.6691
  600SOL    MW4 2475   1.807   3.219   1.217  0.2862 -0.0420  0.3448
  601SOL     OW 2476   1.820   3.486   1.174  0.1083  0.1069  0.5427
  601SOL    HW2 2477   1.894   3.541   1.199 -0.0560  0.6078 -0.0615
  601SOL    HW3 2478   1.745   3.525   1.218  0.1262 -0.1161  0.7697
  601SOL    MW4 2479   1.820   3.498   1.183  0.0889  0.1438  0.4930
  602SOL     OW 2480   2.053   3.630   1.250  0.1704  0.0375  0.1791
  602SOL    HW2 2481   2.049   3.590   1.337  0.4635  0.4696  0.3910
  602SOL    HW3 2482   2.110   3.573   1.200  0.7546  0.3030  0.5402
  602SOL    MW4 2483   2.060   3.618   1.255  0.2861  0.1297  0.2548
  603SOL     OW 2484   2.036   3.883   1.113 -0.1269  0.1870 -0.5360
  603SOL    HW2 2485   2.030   3.802   1.164  2.2328  0.3036 -0.0060
  603SOL    HW3 2486   1.958   3.933   1.138 -0.3296 -0.8714  1.0137
  603SOL    MW4 2487   2.025   3.879   1.123  0.1578  0.0627 -0.2617
  604SOL     OW 2488   1.827   4.030   1.195  0.4230 -0.3272 -0.2050
  604SOL    HW2 2489   1.830   4.027   1.291 -1.3081  1.1965 -0.0953
  604SOL    HW3 2490   1.755   3.971   1.172  0.6703 -0.4894 -0.5573
  604SOL    MW4 2491   1.818   4.022   1.205  0.2273 -0.1478 -0.2370
  605SOL     OW 2492   1.826   4.272   1.072 -0.5574  0.1977  0.5831
  605SOL    HW2 2493   1.827   4.182   1.106  0.0634  0.4041  1.1367
  605SOL    HW3 2494   1.744   4.309   1.105 -0.1004  0.3023  1.6343
  605SOL    MW4 2495   1.816   4.265   1.081 -0.4152  0.2384  0.7950
  606SOL     OW 2496   2.029   4.436   1.209  0.1385  0.4850 -0.3473
  606SOL    HW2 2497   2.038   4.426   1.304 -0.6131  1.0513 -0.2087
  606SOL    HW3 2498   1.971   4.365   1.183  2.1752 -1.0844 -0.7389
  606SOL    MW4 2499   2.023   4.425   1.218  0.3080  0.3524 -0.3806
  607SOL     OW 2500   2.422   0.045   1.146  0.7473  0.1195 -0.3700
  607SOL    HW2 2501   2.502   0.077   1.188  1.0396 -0.3417 -0.5712
  607SOL    HW3 2502   2.351   0.091   1.191  1.0524 -0.4400  0.7101
  607SOL    MW4 2503   2.423   0.055   1.158  0.8261 -0.0151 -0.2540
  608SOL     OW 2504   2.195   0.143   1.276 -0.1446 -0.2309  0.0429
  608SOL    HW2 2505   2.206   0.223   1.225  1.6800 -1.1665 -1.0496
  608SOL    HW3 2506   2.130   0.092   1.227 -1.5184  0.6613  0.8856
  608SOL    MW4 2507   2.188   0.147   1.263 -0.0851 -0.2366  0.0100
  609SOL     OW 2508   2.290   0.372   1.116 -0.1436 -0.1923  0.0922
  609SOL    HW2 2509   2.221   0.436   1.131 -0.5749 -0.9011  1.2154
  609SOL    HW3 2510   2.275   0.339   1.028  0.7452  2.0450 -0.9193
  609SOL    MW4 2511   2.279   0.376   1.107 -0.0832  0.0093  0.1068
  610SOL     OW 2512   2.475   0.516   1.256 -0.3625  0.2173  0.2942
  610SOL    HW2 2513   2.438   0.539   1.341  1.5231 -0.8248  1.4394
  610SOL    HW3 2514   2.422   0.441   1.227 -0.7593  0.3134  0.7498
  610SOL    MW4 2515   2.463   0.509   1.264 -0.1662  0.0926  0.5052
  611SOL     OW 2516   2.491   0.704   1.047 -0.0222  0.1095 -0.1788
  611SOL    HW2 2517   2.469   0.639   1.113 -2.5520  1.0143 -0.0724
  611SOL    HW3 2518   2.475   0.660   0.963  0.6388 -0.1955 -0.1434
  611SOL    MW4 2519   2.486   0.690   1.045 -0.2685  0.1886 -0.1602
  612SOL     OW 2520   2.287   0.854   1.192  0.2503 -0.2842 -0.0465
  612SOL    HW2 2521   2.350   0.822   1.127  1.6351  1.0083  0.6163
  612SOL    HW3 2522   2.205   0.810   1.170  1.1845 -1.3804 -1.4409
  612SOL    MW4 2523   2.285   0.844   1.180  0.5565 -0.2583 -0.1432
  613SOL     OW 2524   2.246   1.135   1.132  0.4949 -0.0735 -0.0743
  613SOL    HW2 2525   2.337   1.163   1.144  1.1583 -0.7322 -2.9669
  613SOL    HW3 2526   2.247   1.042   1.154  0.9878 -0.5248 -1.8839
  613SOL    MW4 2527   2.258   1.126   1.136  0.6475 -0.2199 -0.6946
  614SOL     OW 2528   2.480   1.254   1.216  0.2635  0.3719  0.0930
  614SOL    HW2 2529   2.566   1.217   1.194  0.3725  0.5566  0.2092
  614SOL    HW3 2530   2.480   1.341   1.174  0.4384  0.6919  0.7552
  614SOL    MW4 2531   2.492   1.261   1.207  0.3006  0.4386  0.1956
  615SOL     OW 2532   2.470   1.519   1.118 -0.3114  0.1100 -0.3710
  615SOL    HW2 2533   2.387   1.539   1.161 -0.4459  1.0122 -1.0429
  615SOL    HW3 2534   2.467   1.568   1.036  1.6423  1.6640  0.4284
  615SOL    MW4 2535   2.459   1.528   1.113 -0.0715  0.4340 -0.3542
  616SOL     OW 2536   2.267   1.654   1.236  0.5710 -0.2124 -0.1695
  616SOL    HW2 2537   2.278   1.739   1.194  0.9503 -0.3942 -0.4417
  616SOL    HW3 2538   2.192   1.614   1.192 -0.1041  0.3000  0.4901
  616SOL    MW4 2539   2.258   1.660   1.225  0.5322 -0.1687 -0.1184
  617SOL     OW 2540   2.215   1.895   1.088 -0.2967 -0.4777 -0.4182
  617SOL    HW2 2541   2.144   1.931   1.141  0.9470  0.3985  0.7070
  617SOL    HW3 2542   2.173   1.868   1.006 -1.4438  2.6929 -0.9371
  617SOL    MW4 2543   2.200   1.896   1.084 -0.2840  0.0563 -0.3381
  618SOL     OW 2544   2.429   2.017   1.206 -0.1036 -0.3376  0.2136
  618SOL    HW2 2545   2.501   1.974   1.159 -1.1635 -1.5402 -0.3426
  618SOL    HW3 2546   2.350   1.980   1.167 -1.0101 -0.6103  2.2548
  618SOL    MW4 2547   2.428   2.006   1.195 -0.3629 -0.5322  0.4096
  619SOL     OW 2548   2.438   2.285   1.148  0.5316 -0.4147  0.4021
  619SOL    HW2 2549   2.419   2.193   1.167 -1.7547 -0.0269  0.1777
  619SOL    HW3 2550   2.428   2.293   1.053 -0.1739  0.2286  0.5209
  619SOL    MW4 2551   2.434   2.274   1.138  0.1369 -0.2787  0.3881
  620SOL     OW 2552   2.203   2.411   1.226 -0.0374 -0.7334  0.1227
  620SOL    HW2 2553   2.209   2.436   1.318  0.2651 -0.4266  0.0235
  620SOL    HW3 2554   2.285   2.365   1.208  1.0491  1.4569 -0.6507
  620SOL    MW4 2555   2.215   2.408   1.235  0.1457 -0.4041  0.0075
  621SOL     OW 2556   2.220   2.674   1.148  0.2989  0.0970 -0.1882
  621SOL    HW2 2557   2.206   2.584   1.177 -0.9073  0.1366 -0.6333
  621SOL    HW3 2558   2.144   2.722   1.179  3.7906  2.4034  5.6109
  621SOL    MW4 2559   2.208   2.668   1.156  0.6003  0.4067  0.5182
  622SOL     OW 2560   2.454   2.830   1.220 -0.0395 -0.1644 -0.7770
  622SOL    HW2 2561   2.466   2.800   1.311  0.5202 -1.6030 -1.3186
  622SOL    HW3 2562   2.370   2.791   1.194  0.1945 -0.4175 -1.1445
  622SOL    MW4 2563   2.444   2.821   1.229  0.0653 -0.3877 -0.8970
  623SOL     OW 2564   2.496   3.091   1.133 -0.3687  0.3194  0.3340
  623SOL    HW2 2565   2.415   3.135   1.160 -0.9521 -0.1171 -0.6586
  623SOL    HW3 2566   2.483   2.999   1.159 -0.9271 -0.1000 -1.3455
  623SOL    MW4 2567   2.483   3.084   1.140 -0.5193  0.2065 -0.0185
  624SOL     OW 2568   2.256   3.196   1.190 -0.7014  0.1101 -0.3546
  624SOL    HW2 2569   2.240   3.284   1.158 -0.4571 -0.0318 -0.8764
  624SOL    HW3 2570   2.245   3.202   1.285  0.1364  0.8799 -0.3033
  624SOL    MW4 2571   2.253   3.208   1.198 -0.5589  0.1931 -0.4168
  625SOL     OW 2572   2.224   3.451   1.119 -0.3958  0.3014  0.1733
  625SOL    HW2 2573   2.303   3.490   1.157 -0.4929 -0.8741  1.6064
  625SOL    HW3 2574   2.240   3.452   1.024  1.8447 -1.0378  0.5151
  625SOL    MW4 2575   2.237   3.456   1.111 -0.1130 -0.0305  0.4075
  626SOL     OW 2576   2.427   3.832   1.139  0.1443 -0.3011  0.0215
  626SOL    HW2 2577   2.357   3.891   1.168  1.1931 -0.7799  3.8097
  626SOL    HW3 2578   2.470   3.879   1.068 -2.7589  0.8571 -1.0449
  626SOL    MW4 2579   2.424   3.846   1.134 -0.1004 -0.2117  0.3806
  627SOL     OW 2580   2.433   3.591   1.239 -0.5809  0.2489 -0.3682
  627SOL    HW2 2581   2.447   3.609   1.332  1.3178  1.8470 -0.9293
  627SOL    HW3 2582   2.435   3.677   1.197  1.5327 -0.6547 -2.2300
  627SOL    MW4 2583   2.435   3.605   1.245 -0.0513  0.3407 -0.6880
  628SOL     OW 2584   2.238   4.040   1.209  0.3037 -0.9763  0.1839
  628SOL    HW2 2585   2.246   4.135   1.196  1.5991 -0.8667  1.5161
  628SOL    HW3 2586   2.163   4.014   1.157 -0.1916  0.8303 -0.0306
  628SOL    MW4 2587   2.229   4.049   1.201  0.4094 -0.7234  0.3313
  629SOL     OW 2588   2.267   4.299   1.121 -0.3217  0.6696  0.4621
  629SOL    HW2 2589   2.189   4.353   1.134 -1.2763 -0.4137 -0.6518
  629SOL    HW3 2590   2.268   4.280   1.027  0.2188 -0.9038  0.7663
  629SOL    MW4 2591   2.257   4.303   1.110 -0.3765  0.3195  0.3554
  630SOL     OW 2592   2.453   4.444   1.258  0.2000  0.0414 -0.2050
  630SOL    HW2 2593   2.380   4.395   1.219 -0.7822  1.2606  0.0620
  630SOL    HW3 2594   2.450   4.529   1.215  0.7544  0.4919  0.6360
  630SOL    MW4 2595   2.443   4.448   1.247  0.1433  0.2613 -0.0588
  631SOL     OW 2596   2.866   4.664   1.170 -0.2314  0.0914  0.5658
  631SOL    HW2 2597   2.890   4.575   1.194 -0.2027  0.3599  1.5303
  631SOL    HW3 2598   2.846   4.659   1.076  0.4279 -0.7875  0.4656
  631SOL    MW4 2599   2.867   4.652   1.161 -0.1407  0.0109  0.6799
  632SOL     OW 2600   2.656   0.163   1.257 -0.2829 -0.0899 -0.4346
  632SOL    HW2 2601   2.639   0.150   1.351  0.5528  0.6150 -0.1806
  632SOL    HW3 2602   2.732   0.108   1.238  0.7535  1.2562 -0.2554
  632SOL    MW4 2603   2.664   0.154   1.267 -0.0358  0.1807 -0.3774
  633SOL     OW 2604   2.745   0.417   1.223 -0.3223 -0.2582  0.6494
  633SOL    HW2 2605   2.708   0.329   1.226 -0.8502 -0.0287  0.9725
  633SOL    HW3 2606   2.669   0.475   1.229  0.1333  0.2245  1.9213
  633SOL    MW4 2607   2.730   0.413   1.224 -0.3319 -0.1642  0.8597
  634SOL     OW 2608   2.938   0.459   1.022 -0.1345  0.4659 -0.3770
  634SOL    HW2 2609   2.957   0.552   1.031  0.4163  0.4582 -1.3925
  634SOL    HW3 2610   2.879   0.439   1.095 -0.7679  1.7457 -0.5320
  634SOL    MW4 2611   2.932   0.468   1.033 -0.1454  0.6338 -0.5314
  635SOL     OW 2612   2.876   0.762   1.048 -0.3058 -0.4178 -0.0343
  635SOL    HW2 2613   2.944   0.783   1.112  0.2127 -2.5404  0.1528
  635SOL    HW3 2614   2.794   0.772   1.097 -0.0451  0.3895  0.2471
  635SOL    MW4 2615   2.874   0.766   1.063 -0.2031 -0.5913  0.0277
  636SOL     OW 2616   2.664   0.826   1.223  0.1743  0.1113  0.1508
  636SOL    HW2 2617   2.661   0.915   1.187 -0.5319 -0.0732 -0.2498
  636SOL    HW3 2618   2.601   0.776   1.171  0.0121 -0.4454  0.8667
  636SOL    MW4 2619   2.655   0.831   1.211  0.0596  0.0136  0.1925
  637SOL     OW 2620   2.678   1.078   1.107 -0.2131 -0.3461 -0.1029
  637SOL    HW2 2621   2.770   1.102   1.117 -0.5680  1.2108 -0.3994
  637SOL    HW3 2622   2.658   1.098   1.016 -0.8792 -0.5433 -0.0002
  637SOL    MW4 2623   2.687   1.084   1.096 -0.3476 -0.1668 -0.1285
  638SOL     OW 2624   2.917   1.199   1.204 -0.0550  0.5811  0.0342
  638SOL    HW2 2625   2.907   1.219   1.298 -2.2550  2.0925 -0.4957
  638SOL    HW3 2626   2.911   1.284   1.161  0.7978 -0.1324 -1.5096
  638SOL    MW4 2627   2.915   1.213   1.211 -0.2325  0.6863 -0.2393
  639SOL     OW 2628   2.878   1.467   1.113  0.1815 -0.1736 -0.3594
  639SOL    HW2 2629   2.954   1.515   1.145  0.7950 -0.6248 -1.1127
  639SOL    HW3 2630   2.897   1.450   1.021 -1.3980  0.8176 -0.8869
  639SOL    MW4 2631   2.890   1.471   1.105  0.0539 -0.1023 -0.5283
  640SOL     OW 2632   2.670   1.687   1.166  0.1077  0.5109 -0.5848
  640SOL    HW2 2633   2.742   1.628   1.143  0.3659  0.7214 -0.3248
  640SOL    HW3 2634   2.591   1.636   1.153  0.3579 -0.1056  0.2770
  640SOL    MW4 2635   2.669   1.673   1.161  0.1748  0.4574 -0.4369
  641SOL     OW 2636   2.648   1.926   1.067  0.4916  0.1698 -0.4772
  641SOL    HW2 2637   2.720   1.968   1.114  0.1007  0.7340 -0.3684
  641SOL    HW3 2638   2.660   1.833   1.083  0.5928  0.3305  0.4219
  641SOL    MW4 2639   2.659   1.919   1.075  0.4535  0.2654 -0.3442
  642SOL     OW 2640   2.873   2.028   1.200  0.0402  0.2833  0.2561
  642SOL    HW2 2641   2.887   2.015   1.293 -1.7367 -2.2598  0.2251
  642SOL    HW3 2642   2.867   2.123   1.189 -1.8498  0.5523  3.0713
  642SOL    MW4 2643   2.874   2.038   1.211 -0.4435 -0.0167  0.6235
  643SOL     OW 2644   2.867   2.295   1.144 -0.1138  0.1814 -0.2905
  643SOL    HW2 2645   2.953   2.323   1.172 -0.3231  0.1585  0.3732
  643SOL    HW3 2646   2.806   2.347   1.197 -0.5050 -0.0026 -0.5548
  643SOL    MW4 2647   2.870   2.305   1.154 -0.1929  0.1543 -0.2378
  644SOL     OW 2648   2.656   2.426   1.262 -0.0905  0.1534 -0.3238
  644SOL    HW2 2649   2.649   2.406   1.355 -0.7910 -0.2370 -0.4562
  644SOL    HW3 2650   2.582   2.381   1.222 -0.2108  0.9182 -0.9755
  644SOL    MW4 2651   2.646   2.417   1.269 -0.1986  0.2027 -0.4274
  645SOL     OW 2652   2.689   2.684   1.143  0.4298 -0.0522  0.6826
  645SOL    HW2 2653   2.665   2.596   1.174 -0.0203 -0.1960 -0.0573
  645SOL    HW3 2654   2.610   2.737   1.158  1.2858  0.6925  2.8258
  645SOL    MW4 2655   2.675   2.679   1.149  0.4833  0.0269  0.8678
  646SOL     OW 2656   2.900   2.826   1.263  0.1821  0.0493 -0.4377
  646SOL    HW2 2657   2.891   2.811   1.357  1.6017 -0.4212 -0.3643
  646SOL    HW3 2658   2.829   2.776   1.223 -2.2417  2.5624  0.5462
  646SOL    MW4 2659   2.889   2.818   1.270  0.0496  0.3185 -0.2980
  647SOL     OW 2660   2.908   3.093   1.176 -0.1552  0.4588 -0.0917
  647SOL    HW2 2661   2.902   3.005   1.214  2.0336  1.1658  2.0114
  647SOL    HW3 2662   2.899   3.079   1.082  2.2931 -2.2785  0.0064
  647SOL    MW4 2663   2.906   3.080   1.169  0.4566  0.1907  0.1988
  648SOL     OW 2664   2.694   3.227   1.261 -0.1662 -0.1317 -0.6124
  648SOL    HW2 2665   2.771   3.175   1.237  0.2025 -0.1801  0.6340
  648SOL    HW3 2666   2.621   3.185   1.215  0.3884 -0.7478 -0.9352
  648SOL    MW4 2667   2.695   3.215   1.252 -0.0443 -0.2193 -0.4907
  649SOL     OW 2668   2.660   3.480   1.137  0.2589  0.4088 -0.0527
  649SOL    HW2 2669   2.690   3.403   1.185  1.0340  0.4004 -0.5483
  649SOL    HW3 2670   2.577   3.503   1.179 -0.6514 -1.4818 -0.7405
  649SOL    MW4 2671   2.653   3.473   1.149  0.2410  0.1583 -0.2089
  650SOL     OW 2672   2.859   3.594   1.270  0.2810 -0.2586  0.5346
  650SOL    HW2 2673   2.942   3.565   1.231  0.8979  1.2933  0.6484
  650SOL    HW3 2674   2.793   3.574   1.204  1.0336  0.3973 -0.4327
  650SOL    MW4 2675   2.861   3.588   1.256  0.4616  0.0324  0.4220
  651SOL     OW 2676   2.865   3.858   1.165  0.2553  0.4807  0.1676
  651SOL    HW2 2677   2.950   3.894   1.190  0.2153  0.2599  0.6180
  651SOL    HW3 2678   2.861   3.773   1.209 -0.5555  0.8594  0.8148
  651SOL    MW4 2679   2.876   3.851   1.174  0.1428  0.5016  0.3124
  652SOL     OW 2680   2.630   4.028   1.241  0.1239  0.0970 -0.6058
  652SOL    HW2 2681   2.710   3.980   1.220 -0.4970 -1.8588  1.3006
  652SOL    HW3 2682   2.560   3.964   1.228 -0.8186  0.7799  0.9876
  652SOL    MW4 2683   2.631   4.013   1.237 -0.0823 -0.0710 -0.1440
  653SOL     OW 2684   2.672   4.284   1.126  0.8159  0.1914 -0.0677
  653SOL    HW2 2685   2.653   4.195   1.155  2.0143 -0.5641 -1.5538
  653SOL    HW3 2686   2.601   4.337   1.163  1.3719 -0.9911  2.7704
  653SOL    MW4 2687   2.660   4.279   1.135  1.0471 -0.0644  0.1105
  654SOL     OW 2688   2.906   4.405   1.218  0.0011 -0.4785 -0.1655
  654SOL    HW2 2689   2.973   4.348   1.182 -0.1879 -0.2276 -0.9272
  654SOL    HW3 2690   2.823   4.361   1.197 -0.1417  0.0548 -0.7205
  654SOL    MW4 2691   2.904   4.392   1.210 -0.0424 -0.3748 -0.3392
  655SOL     OW 2692   3.367   4.629   1.120  0.1775  0.6643  0.3058
  655SOL    HW2 2693   3.438   4.691   1.141 -0.5345  1.1579  1.2826
  655SOL    HW3 2694   3.290   4.666   1.162 -0.5277 -0.2295 -0.1914
  655SOL    MW4 2695   3.366   4.642   1.128 -0.0091  0.6118  0.3691
  656SOL     OW 2696   3.131   0.096   1.211 -0.2591 -0.0451  0.6571
  656SOL    HW2 2697   3.138   0.110   1.305 -0.0053  1.5166  0.4139
  656SOL    HW3 2698   3.043   0.061   1.198 -0.5330  0.3555  1.4089
  656SOL    MW4 2699   3.120   0.093   1.221 -0.2615  0.2138  0.7243
  657SOL     OW 2700   3.189   0.352   1.092 -0.0776  0.2654 -0.0871
  657SOL    HW2 2701   3.169   0.265   1.127  1.4042 -0.1943 -0.3364
  657SOL    HW3 2702   3.106   0.383   1.056 -0.7295 -0.8488  0.4192
  657SOL    MW4 2703   3.176   0.345   1.092  0.0319  0.0577 -0.0532
  658SOL     OW 2704   3.379   0.434   1.266 -0.2333 -0.3786  0.4795
  658SOL    HW2 2705   3.393   0.525   1.240 -0.9165  0.0037  1.3912
  658SOL    HW3 2706   3.299   0.408   1.220 -1.0258  0.0595  1.5856
  658SOL    MW4 2707   3.370   0.443   1.257 -0.4280 -0.2703  0.7457
  659SOL     OW 2708   3.368   0.679   1.141  0.0494 -0.0090  0.5143
  659SOL    HW2 2709   3.439   0.740   1.163  0.9996 -0.7306 -0.5055
  659SOL    HW3 2710   3.288   0.728   1.157  0.7735  0.7220  1.9876
  659SOL    MW4 2711   3.367   0.693   1.146  0.2704 -0.0077  0.5740
  660SOL     OW 2712   3.129   0.837   1.182  0.0543  0.0257  0.8091
  660SOL    HW2 2713   3.130   0.843   1.278  0.5872  2.0071  0.7001
  660SOL    HW3 2714   3.163   0.921   1.152 -0.1535 -0.5523 -1.1344
  660SOL    MW4 2715   3.133   0.849   1.191  0.0973  0.2109  0.5383
  661SOL     OW 2716   3.164   1.098   1.102 -0.0110  0.1979 -0.0326
  661SOL    HW2 2717   3.228   1.148   1.154 -0.1684 -0.3502  0.7043
  661SOL    HW3 2718   3.080   1.117   1.144  0.0363 -1.3416  0.7676
  661SOL    MW4 2719   3.162   1.107   1.115 -0.0253 -0.0775  0.1702
  662SOL     OW 2720   3.353   1.260   1.201  0.2947  0.3881  0.2859
  662SOL    HW2 2721   3.360   1.275   1.296  0.2551  0.6895  0.2407
  662SOL    HW3 2722   3.318   1.342   1.166 -0.2643  0.0634  0.0841
  662SOL    MW4 2723   3.350   1.273   1.209  0.2158  0.3850  0.2533
  663SOL     OW 2724   3.317   1.533   1.135 -0.3969 -0.0524  0.0017
  663SOL    HW2 2725   3.391   1.589   1.157 -0.4316  0.9041 -2.1383
  663SOL    HW3 2726   3.240   1.583   1.161 -0.3560 -0.1026  0.2174
  663SOL    MW4 2727   3.317   1.547   1.141 -0.3960  0.0672 -0.2522
  664SOL     OW 2728   3.075   1.643   1.199 -0.0892  0.2365  0.0231
  664SOL    HW2 2729   3.047   1.655   1.289  0.2364  1.5868 -0.0397
  664SOL    HW3 2730   3.080   1.732   1.163 -2.1202 -0.3976 -1.9182
  664SOL    MW4 2731   3.072   1.657   1.206 -0.3142  0.3309 -0.2415
  665SOL     OW 2732   3.108   1.921   1.106  0.1539 -0.0277  0.4249
  665SOL    HW2 2733   3.186   1.965   1.139 -0.3303 -0.0662  1.6384
  665SOL    HW3 2734   3.034   1.969   1.144 -0.4477  0.5818 -1.4372
  665SOL    MW4 2735   3.108   1.933   1.115  0.0105  0.0477  0.3393
  666SOL     OW 2736   3.322   2.054   1.207 -0.2650 -0.5380 -0.4407
  666SOL    HW2 2737   3.403   2.003   1.204  0.4569  0.4707  1.2353
  666SOL    HW3 2738   3.342   2.134   1.158 -1.1049 -1.4368 -2.2869
  666SOL    MW4 2739   3.335   2.058   1.200 -0.2806 -0.5233 -0.4631
  667SOL     OW 2740   3.360   2.304   1.112  0.0996 -0.0848  0.2208
  667SOL    HW2 2741   3.437   2.347   1.148  0.8992  0.0619 -1.5964
  667SOL    HW3 2742   3.287   2.337   1.164  1.2915 -0.5500  2.2413
  667SOL    MW4 2743   3.360   2.314   1.123  0.3622 -0.1264  0.2475
  668SOL     OW 2744   3.127   2.393   1.236  0.1231  0.1657 -0.3362
  668SOL    HW2 2745   3.128   2.403   1.332  1.9085  0.4762 -0.3763
  668SOL    HW3 2746   3.126   2.483   1.203 -0.8795  0.0550 -0.6152
  668SOL    MW4 2747   3.127   2.406   1.245  0.2263  0.1919 -0.3784
  669SOL     OW 2748   3.121   2.686   1.174  0.3070 -0.1716 -0.3475
  669SOL    HW2 2749   3.050   2.743   1.201  0.5559 -0.4411  0.9015
  669SOL    HW3 2750   3.096   2.656   1.087 -0.8103  0.2145 -0.1626
  669SOL    MW4 2751   3.108   2.689   1.166  0.1926 -0.1564 -0.1584
  670SOL     OW 2752   3.344   2.826   1.278  0.0792 -0.4124 -0.2924
  670SOL    HW2 2753   3.321   2.915   1.251 -0.6489 -0.6248 -0.3871
  670SOL    HW3 2754   3.271   2.772   1.246 -0.0972 -0.8618  0.8521
  670SOL    MW4 2755   3.331   2.830   1.270 -0.0401 -0.4995 -0.1539
  671SOL     OW 2756   3.306   3.073   1.163 -0.3473  0.3148 -0.4615
  671SOL    HW2 2757   3.386   3.119   1.188 -1.3975  1.6694  0.5716
  671SOL    HW3 2758   3.235   3.132   1.193 -1.7096 -0.9709 -1.0994
  671SOL    MW4 2759   3.307   3.087   1.170 -0.6657  0.3240 -0.4095
  672SOL     OW 2760   3.123   3.250   1.287 -0.3592 -0.3730 -0.3080
  672SOL    HW2 2761   3.124   3.325   1.227 -0.2138 -0.0135  0.1380
  672SOL    HW3 2762   3.043   3.203   1.266  1.6210 -2.4990 -3.5555
  672SOL    MW4 2763   3.113   3.254   1.276 -0.0787 -0.6058 -0.6775
  673SOL     OW 2764   3.100   3.513   1.157  0.6118 -0.5797 -0.8723
  673SOL    HW2 2765   3.184   3.548   1.185 -0.1992  0.3039  0.4945
  673SOL    HW3 2766   3.110   3.497   1.063  2.0492  0.2217 -0.8523
  673SOL    MW4 2767   3.112   3.515   1.148  0.6940 -0.3572 -0.6894
  674SOL     OW 2768   3.363   3.599   1.200 -0.1243  0.3163  0.9814
  674SOL    HW2 2769   3.371   3.609   1.295 -2.3126 -0.4516  1.2799
  674SOL    HW3 2770   3.442   3.552   1.174  0.0819 -0.2489  2.5509
  674SOL    MW4 2771   3.375   3.594   1.209 -0.3858  0.1404  1.2279
  675SOL     OW 2772   3.342   3.883   1.125 -0.2608 -0.1416  0.0746
  675SOL    HW2 2773   3.261   3.927   1.153 -1.0286 -1.5300  0.0848
  675SOL    HW3 2774   3.345   3.804   1.178 -0.5022 -1.6427 -2.0895
  675SOL    MW4 2775   3.332   3.878   1.136 -0.3941 -0.5231 -0.2096
  676SOL     OW 2776   3.118   4.025   1.207  0.0783  0.7346 -0.4830
  676SOL    HW2 2777   3.125   4.024   1.302  0.6581  1.0315 -0.5199
  676SOL    HW3 2778   3.110   4.117   1.184  0.4118  0.6988 -0.7508
  676SOL    MW4 2779   3.118   4.037   1.216  0.1991  0.7691 -0.5232
  677SOL     OW 2780   3.119   4.278   1.110 -0.2511 -0.5264 -0.0669
  677SOL    HW2 2781   3.206   4.311   1.129  0.3005 -1.7175 -0.4302
  677SOL    HW3 2782   3.113   4.278   1.014 -0.1129 -1.7265 -0.0935
  677SOL    MW4 2783   3.130   4.282   1.100 -0.1600 -0.8416 -0.1183
  678SOL     OW 2784   3.352   4.378   1.231  0.0892 -0.0516 -0.6611
  678SOL    HW2 2785   3.444   4.353   1.220  0.1285 -0.0528 -0.3537
  678SOL    HW3 2786   3.344   4.462   1.186 -0.1764 -0.8938 -2.2029
  678SOL    MW4 2787   3.363   4.386   1.224  0.0596 -0.1631 -0.8239
  679SOL     OW 2788   4.042   0.075   1.201 -0.5671  0.0084  0.7957
  679SOL    HW2 2789   4.032   0.069   1.296  0.3269  0.4645  0.9296
  679SOL    HW3 2790   3.960   0.040   1.166 -1.2347  0.5784  1.7468
  679SOL    MW4 2791   4.030   0.070   1.209 -0.5374  0.1438  0.9389
  680SOL     OW 2792   3.586   0.116   1.178  0.1612  0.1113 -0.4921
  680SOL    HW2 2793   3.575   0.203   1.141 -0.6651  0.3638  0.3338
  680SOL    HW3 2794   3.670   0.085   1.142  1.6573  2.1763  1.0864
  680SOL    MW4 2795   3.596   0.123   1.169  0.2499  0.4171 -0.1749
  681SOL     OW 2796   3.574   0.366   1.065  0.4836 -0.2249 -0.5152
  681SOL    HW2 2797   3.644   0.404   1.118  0.0825 -1.3665  0.8899
  681SOL    HW3 2798   3.495   0.377   1.119  0.2994 -2.6803 -0.2289
  681SOL    MW4 2799   3.573   0.372   1.079  0.4065 -0.6994 -0.2921
  682SOL     OW 2800   3.803   0.454   1.196  0.3081 -0.2142  0.0651
  682SOL    HW2 2801   3.882   0.403   1.177 -0.1918 -1.1391  0.4070
  682SOL    HW3 2802   3.826   0.544   1.174  0.4474 -0.9015 -2.8285
  682SOL    MW4 2803   3.816   0.459   1.191  0.2606 -0.4269 -0.2714
  683SOL     OW 2804   3.801   0.724   1.139  0.7968 -0.1598  0.6127
  683SOL    HW2 2805   3.880   0.778   1.140  0.0523  0.9626 -0.2020
  683SOL    HW3 2806   3.730   0.785   1.160  0.1572 -1.1916  1.5368
  683SOL    MW4 2807   3.802   0.739   1.142  0.6142 -0.1478  0.6270
  684SOL     OW 2808   3.566   0.865   1.195 -0.0584 -0.0404 -0.2712
  684SOL    HW2 2809   3.566   0.953   1.156  1.3703  0.2867  0.4726
  684SOL    HW3 2810   3.564   0.881   1.289  2.7494 -0.7679 -0.0624
  684SOL    MW4 2811   3.565   0.879   1.202  0.5007 -0.0933 -0.1456
  685SOL     OW 2812   3.601   1.138   1.095 -0.4415 -0.0117 -0.1222
  685SOL    HW2 2813   3.680   1.178   1.131 -0.3302 -0.6409  0.3341
  685SOL    HW3 2814   3.530   1.196   1.124 -0.0122  1.4971 -1.9323
  685SOL    MW4 2815   3.602   1.151   1.104 -0.3705  0.1043 -0.3009
  686SOL     OW 2816   3.812   1.267   1.215 -0.5706  0.5506  0.0202
  686SOL    HW2 2817   3.809   1.258   1.310 -0.7226  1.5827  0.1201
  686SOL    HW3 2818   3.830   1.360   1.200  1.6698 -0.0054 -0.9461
  686SOL    MW4 2819   3.814   1.278   1.226 -0.2949  0.6136 -0.0941
  687SOL     OW 2820   3.832   1.530   1.129 -0.0732  0.4022 -0.4714
  687SOL    HW2 2821   3.897   1.571   1.187  0.4217 -1.5970  0.4399
  687SOL    HW3 2822   3.878   1.521   1.045  0.6207 -0.4077 -0.0134
  687SOL    MW4 2823   3.847   1.535   1.125  0.0839  0.0316 -0.2908
  688SOL     OW 2824   3.582   1.638   1.208  0.0370  0.3063 -0.2898
  688SOL    HW2 2825   3.594   1.726   1.172  1.2354 -0.1649 -1.0661
  688SOL    HW3 2826   3.661   1.590   1.181  0.0938 -0.5815  1.4009
  688SOL    MW4 2827   3.594   1.643   1.200  0.2029  0.1270 -0.1690
  689SOL     OW 2828   3.568   1.934   1.140  0.3427  0.5937  0.1657
  689SOL    HW2 2829   3.649   1.984   1.130  0.9490 -0.5583 -0.7414
  689SOL    HW3 2830   3.533   1.925   1.052  0.4186 -0.8614  0.2648
  689SOL    MW4 2831   3.574   1.939   1.127  0.4327  0.2499  0.0590
  690SOL     OW 2832   3.814   2.087   1.194 -0.1718  0.0897  0.6292
  690SOL    HW2 2833   3.820   2.079   1.289  0.2974 -0.1841  0.5779
  690SOL    HW3 2834   3.887   2.035   1.161 -0.1155  0.4794  0.1318
  690SOL    MW4 2835   3.824   2.079   1.202 -0.1023  0.1051  0.5567
  691SOL     OW 2836   3.784   2.366   1.142 -0.1346 -0.0236  0.4805
  691SOL    HW2 2837   3.863   2.403   1.181  0.9696 -1.1520 -0.6126
  691SOL    HW3 2838   3.791   2.272   1.158 -0.4649 -0.3131 -0.9506
  691SOL    MW4 2839   3.796   2.359   1.149 -0.0327 -0.2108  0.1473
  692SOL     OW 2840   3.554   2.437   1.257 -0.3373  0.8572 -0.0625
  692SOL    HW2 2841   3.572   2.442   1.351  0.2086 -1.2332 -0.0422
  692SOL    HW3 2842   3.637   2.411   1.217 -1.4831 -2.0121 -0.7007
  692SOL    MW4 2843   3.567   2.434   1.264 -0.4168  0.2029 -0.1440
  693SOL     OW 2844   3.576   2.713   1.170  0.4952  0.3266  0.3302
  693SOL    HW2 2845   3.567   2.623   1.201  1.9865 -0.0726 -0.3451
  693SOL    HW3 2846   3.505   2.760   1.214 -0.4458 -1.2121  0.5213
  693SOL    MW4 2847   3.566   2.707   1.180  0.5677  0.0706  0.2662
  694SOL     OW 2848   3.833   2.796   1.236 -0.0877 -0.1135 -0.2222
  694SOL    HW2 2849   3.823   2.813   1.330  0.8237 -0.9899  0.0382
  694SOL    HW3 2850   3.747   2.764   1.208 -0.8502  1.6910 -0.0337
  694SOL    MW4 2851   3.820   2.794   1.245 -0.0679  0.0088 -0.1631
  695SOL     OW 2852   3.819   3.078   1.139  0.1432  0.2969  0.1537
  695SOL    HW2 2853   3.821   3.084   1.043  2.3173 -0.4960  0.1216
  695SOL    HW3 2854   3.809   2.985   1.157  1.8008  0.2020  0.6760
  695SOL    MW4 2855   3.818   3.067   1.129  0.6487  0.1798  0.2185
  696SOL     OW 2856   3.568   3.179   1.245 -0.1181  0.4470  0.1794
  696SOL    HW2 2857   3.568   3.273   1.224  2.1048  0.0990 -1.5149
  696SOL    HW3 2858   3.653   3.148   1.214 -0.0371 -1.7554  2.5261
  696SOL    MW4 2859   3.579   3.188   1.238  0.1860  0.1104  0.2655
  697SOL     OW 2860   3.591   3.448   1.152 -0.1051  0.3758 -0.1800
  697SOL    HW2 2861   3.666   3.501   1.180  0.3406 -0.2506 -0.1858
  697SOL    HW3 2862   3.592   3.454   1.056 -0.5136  0.9760 -0.1547
  697SOL    MW4 2863   3.601   3.456   1.143 -0.1001  0.3724 -0.1773
  698SOL     OW 2864   3.797   3.583   1.265 -0.1764 -0.4373 -0.2873
  698SOL    HW2 2865   3.817   3.576   1.359  0.2531  1.3088 -0.2508
  698SOL    HW3 2866   3.794   3.677   1.247 -1.4054 -0.7345 -1.7880
  698SOL    MW4 2867   3.799   3.594   1.275 -0.2820 -0.2458 -0.4804
  699SOL     OW 2868   3.819   3.861   1.180  0.0793 -0.1219 -0.3484
  699SOL    HW2 2869   3.737   3.907   1.198  0.2814  0.4118 -0.7823
  699SOL    HW3 2870   3.824   3.855   1.085  0.6545  0.0554 -0.3353
  699SOL    MW4 2871   3.809   3.866   1.170  0.1817 -0.0281 -0.4040
  700SOL     OW 2872   3.586   3.986   1.237 -0.2478 -0.0617  0.3198
  700SOL    HW2 2873   3.581   3.968   1.331  0.9113  0.3402  0.4592
  700SOL    HW3 2874   3.508   3.945   1.201 -0.3732 -0.7639  1.3778
  700SOL    MW4 2875   3.575   3.978   1.244 -0.1111 -0.1011  0.4778
  701SOL     OW 2876   3.611   4.254   1.155 -0.5066  0.1885 -0.2550
  701SOL    HW2 2877   3.603   4.165   1.190 -0.1922  0.0262 -0.5908
  701SOL    HW3 2878   3.589   4.245   1.063 -0.9057  0.5412 -0.1930
  701SOL    MW4 2879   3.607   4.241   1.148 -0.5178  0.2141 -0.2910
  702SOL     OW 2880   3.806   4.422   1.236 -0.4952  0.2235 -0.4715
  702SOL    HW2 2881   3.812   4.401   1.329  0.4249  0.4854 -0.4750
  702SOL    HW3 2882   3.748   4.355   1.200 -0.8509  0.1186  0.2858
  702SOL    MW4 2883   3.799   4.410   1.244 -0.4208  0.2441 -0.3721
  703SOL     OW 2884   4.314   4.648   1.124  0.2986 -0.0371  0.9157
  703SOL    HW2 2885   4.306   4.555   1.148  1.0786 -0.4002 -0.1837
  703SOL    HW3 2886   4.226   4.683   1.138 -0.2958 -1.2141  0.3025
  703SOL    MW4 2887   4.301   4.640   1.129  0.3228 -0.2398  0.6896
  704SOL     OW 2888   3.807   4.664   1.087 -0.0983  0.3210  0.2446
  704SOL    HW2 2889   3.791   4.581   1.131 -1.6604  0.2536 -0.4123
  704SOL    HW3 2890   3.822   4.641   0.995 -0.8830  0.7811 -0.0058
  704SOL    MW4 2891   3.807   4.650   1.081 -0.4079  0.3729  0.1248
  705SOL     OW 2892   4.054   0.338   1.124  0.4395 -0.1353  0.0152
  705SOL    HW2 2893   4.057   0.248   1.157  0.5621 -0.1230  0.0375
  705SOL    HW3 2894   4.049   0.328   1.029 -2.6047 -0.2141  0.1606
  705SOL    MW4 2895   4.054   0.325   1.116  0.0534 -0.1441  0.0372
  706SOL     OW 2896   4.313   0.482   1.169  0.1491  0.3232  0.5275
  706SOL    HW2 2897   4.329   0.479   1.263 -1.0363 -0.7410  0.7067
  706SOL    HW3 2898   4.226   0.445   1.158 -1.0116  3.2888 -0.7150
  706SOL    MW4 2899   4.304   0.477   1.180 -0.1602  0.5741  0.3872
  707SOL     OW 2900   4.245   0.760   1.100  0.0134  0.0078  0.2278
  707SOL    HW2 2901   4.271   0.671   1.120  1.8083  0.2357 -0.9484
  707SOL    HW3 2902   4.276   0.775   1.010 -1.2761  1.4218 -0.0094
  707SOL    MW4 2903   4.253   0.751   1.091  0.0801  0.2245  0.0414
  708SOL     OW 2904   4.020   0.892   1.180  0.1180 -0.4758  0.5455
  708SOL    HW2 2905   4.033   0.887   1.275  0.0424 -1.3760  0.5151
  708SOL    HW3 2906   4.091   0.838   1.144  0.5183  0.3617  0.0609
  708SOL    MW4 2907   4.031   0.884   1.188  0.1612 -0.4840  0.4776
  709SOL     OW 2908   4.080   1.173   1.155  0.0737  0.2619 -0.0070
  709SOL    HW2 2909   4.060   1.079   1.159 -0.6258  0.3117 -1.9607
  709SOL    HW3 2910   3.998   1.216   1.179  0.6264  0.3964  1.7385
  709SOL    MW4 2911   4.067   1.166   1.159  0.0544  0.2862 -0.0345
  710SOL     OW 2912   4.308   1.272   1.259  0.0139 -0.1203 -0.0625
  710SOL    HW2 2913   4.307   1.271   1.355  0.1090 -0.0201 -0.0598
  710SOL    HW3 2914   4.222   1.239   1.234 -0.3638  0.7545  0.0662
  710SOL    MW4 2915   4.297   1.267   1.268 -0.0229  0.0083 -0.0451
  711SOL     OW 2916   4.267   1.506   1.121 -0.0915 -0.1305 -0.6392
  711SOL    HW2 2917   4.298   1.423   1.158  0.6065  0.7891  0.8805
  711SOL    HW3 2918   4.315   1.573   1.169 -1.6654  1.2045 -0.8765
  711SOL    MW4 2919   4.277   1.504   1.132 -0.2069  0.1671 -0.4700
  712SOL     OW 2920   4.039   1.633   1.269  0.1561  0.6807  0.3650
  712SOL    HW2 2921   4.054   1.646   1.363  0.6449  0.4698  0.3190
  712SOL    HW3 2922   4.110   1.575   1.242 -1.2797 -1.1149  0.3142
  712SOL    MW4 2923   4.050   1.627   1.278  0.0310  0.4159  0.3520
  713SOL     OW 2924   4.017   1.889   1.144 -0.2879 -0.2351  0.2443
  713SOL    HW2 2925   4.031   1.815   1.203  0.8239 -0.4637 -0.2931
  713SOL    HW3 2926   4.052   1.860   1.060 -0.2371  0.7405 -0.0794
  713SOL    MW4 2927   4.023   1.876   1.141 -0.1349 -0.1365  0.1307
  714SOL     OW 2928   4.248   2.065   1.213  0.6758 -0.1945 -0.1392
  714SOL    HW2 2929   4.223   2.152   1.182 -0.1713 -0.1805  0.5837
  714SOL    HW3 2930   4.188   2.005   1.168 -0.3438 -0.2028  1.2165
  714SOL    MW4 2931   4.237   2.068   1.203  0.4296 -0.1938  0.1349
  715SOL     OW 2932   4.276   2.335   1.111  0.0935  0.3499  0.0617
  715SOL    HW2 2933   4.198   2.381   1.141  0.4772  0.7534  0.4360
  715SOL    HW3 2934   4.274   2.345   1.015 -0.0091  0.8380  0.1162
  715SOL    MW4 2935   4.265   2.342   1.102  0.1302  0.4675  0.1184
  716SOL     OW 2936   4.027   2.451   1.234 -0.2169 -0.9607 -0.1118
  716SOL    HW2 2937   4.030   2.432   1.328 -1.4010 -0.6780 -0.0098
  716SOL    HW3 2938   4.048   2.545   1.229  0.1001 -1.0326 -0.1564
  716SOL    MW4 2939   4.030   2.461   1.246 -0.3314 -0.9325 -0.1043
  717SOL     OW 2940   4.082   2.714   1.171 -0.7383  0.2209  0.7661
  717SOL    HW2 2941   3.998   2.740   1.210 -1.1035  0.4028 -0.1258
  717SOL    HW3 2942   4.066   2.716   1.076  0.5180  1.0615  0.5674
  717SOL    MW4 2943   4.069   2.718   1.163 -0.6208  0.3557  0.6223
  718SOL     OW 2944   4.321   2.816   1.257  0.0123 -0.0650 -0.5708
  718SOL    HW2 2945   4.301   2.909   1.246  1.2102  0.1809 -0.6706
  718SOL    HW3 2946   4.242   2.771   1.227  0.1662  0.8460 -2.3810
  718SOL    MW4 2947   4.308   2.823   1.252  0.1912  0.0875 -0.8228
  719SOL     OW 2948   4.278   3.089   1.160  0.4745  0.0602 -0.3470
  719SOL    HW2 2949   4.190   3.113   1.190  0.8286  1.6642 -0.5674
  719SOL    HW3 2950   4.265   3.054   1.072 -0.1623 -1.4775  0.3506
  719SOL    MW4 2951   4.265   3.088   1.153  0.4373  0.0689 -0.2841
  720SOL     OW 2952   4.040   3.205   1.260  0.2323 -0.2961 -0.0085
  720SOL    HW2 2953   4.046   3.210   1.356 -1.2583 -0.0661  0.0775
  720SOL    HW3 2954   3.965   3.149   1.244  0.0056  0.3051 -1.0530
  720SOL    MW4 2955   4.031   3.198   1.271  0.0057 -0.1864 -0.1349
  721SOL     OW 2956   4.055   3.465   1.180 -0.6114 -0.3110  0.0048
  721SOL    HW2 2957   3.982   3.520   1.209 -0.2316  0.3256 -0.2257
  721SOL    HW3 2958   4.050   3.387   1.235 -0.4758  0.4508  1.1211
  721SOL    MW4 2959   4.045   3.462   1.191 -0.5431 -0.1266  0.1217
  722SOL     OW 2960   4.280   3.619   1.241  0.3910  0.2993 -0.0295
  722SOL    HW2 2961   4.211   3.569   1.197  0.3412  0.8135 -0.5441
  722SOL    HW3 2962   4.362   3.588   1.201  0.3077  1.1468 -0.8731
  722SOL    MW4 2963   4.282   3.608   1.230  0.3738  0.4790 -0.2087
  723SOL     OW 2964   4.228   3.839   1.077 -0.0985 -0.0762 -0.2390
  723SOL    HW2 2965   4.167   3.899   1.119 -0.0881 -1.0304  1.1639
  723SOL    HW3 2966   4.242   3.770   1.141  1.4457 -0.5449 -1.0541
  723SOL    MW4 2967   4.222   3.838   1.091  0.1063 -0.2639 -0.1614
  724SOL     OW 2968   4.049   3.977   1.244 -0.1616  0.1596  0.3278
  724SOL    HW2 2969   4.042   4.066   1.209 -0.4029 -0.0813 -0.2554
  724SOL    HW3 2970   3.965   3.937   1.223  0.8748 -1.0203 -1.7416
  724SOL    MW4 2971   4.037   3.984   1.236 -0.0567 -0.0279 -0.0222
  725SOL     OW 2972   4.025   4.259   1.157 -0.3768  0.5156 -0.0644
  725SOL    HW2 2973   3.949   4.310   1.187 -1.3646 -0.8458 -0.1671
  725SOL    HW3 2974   4.018   4.258   1.062  0.1147  0.9107 -0.1021
  725SOL    MW4 2975   4.014   4.265   1.149 -0.4430  0.3881 -0.0830
  726SOL     OW 2976   4.314   4.364   1.207  0.1192  0.2175  0.0026
  726SOL    HW2 2977   4.232   4.320   1.185  0.1808  0.1160 -0.0254
  726SOL    HW3 2978   4.382   4.310   1.167  0.1442  0.7644 -0.6949
  726SOL    MW4 2979   4.312   4.351   1.199  0.1307  0.2761 -0.0932
  727SOL     OW 2980   0.240   4.620   1.612 -0.2615  0.4558  0.4843
  727SOL    HW2 2981   0.319   4.661   1.576 -0.2137  1.9344  2.2400
  727SOL    HW3 2982   0.169   4.652   1.556  0.1770  0.3216 -0.1652
  727SOL    MW4 2983   0.241   4.629   1.600 -0.1973  0.6332  0.6304
  728SOL     OW 2984   0.015   0.073   1.462  0.0345  0.5563  0.2931
  728SOL    HW2 2985  -0.069   0.036   1.491  0.4683 -1.2542 -0.6637
  728SOL    HW3 2986   0.002   0.093   1.370  0.7089  0.0417  0.0764
  728SOL    MW4 2987   0.002   0.071   1.454  0.1807  0.2495  0.1384
  729SOL     OW 2988   0.012   0.353   1.528 -0.3402  0.0690 -0.2365
  729SOL    HW2 2989   0.020   0.343   1.623 -1.3645  0.1071 -0.1377
  729SOL    HW3 2990   0.026   0.265   1.493 -0.6840 -0.0799  0.0035
  729SOL    MW4 2991   0.015   0.340   1.536 -0.5207  0.0544 -0.1918
  730SOL     OW 2992   0.228   0.504   1.461  0.2758 -0.4585  0.2950
  730SOL    HW2 2993   0.163   0.437   1.482 -1.3334  1.5446  1.8321
  730SOL    HW3 2994   0.226   0.510   1.366 -1.3086 -0.8938  0.2885
  730SOL    MW4 2995   0.219   0.496   1.451 -0.1456 -0.2517  0.4970
  731SOL     OW 2996   0.236   0.765   1.581 -0.3489 -0.3893  0.2340
  731SOL    HW2 2997   0.313   0.802   1.538 -0.0366 -1.4680 -0.1511
  731SOL    HW3 2998   0.226   0.677   1.543 -1.0497 -0.7248  1.1551
  731SOL    MW4 2999   0.245   0.758   1.570 -0.4001 -0.5760  0.3048
  732SOL     OW 3000   4.484   0.898   1.489 -0.3099  0.1956 -0.3833
  732SOL    HW2 3001   4.479   0.982   1.536 -1.0663 -0.5427  0.8853
  732SOL    HW3 3002   4.561   0.854   1.525 -0.3162  0.0434 -0.5523
  732SOL    MW4 3003   4.493   0.904   1.500 -0.4106  0.0781 -0.2382
  733SOL     OW 3004   0.020   1.138   1.617  0.6361 -0.4266 -0.2128
  733SOL    HW2 3005   0.017   1.148   1.712  1.0075 -0.0990 -0.2322
  733SOL    HW3 3006   0.102   1.182   1.592  0.5834 -0.5946 -0.6704
  733SOL    MW4 3007   0.031   1.145   1.626  0.6782 -0.4057 -0.2757
  734SOL     OW 3008   0.233   1.267   1.476 -0.5494 -0.1229 -0.0771
  734SOL    HW2 3009   0.220   1.358   1.499  2.6281  0.7963 -1.6692
  734SOL    HW3 3010   0.217   1.264   1.381 -0.5463 -1.1752 -0.0497
  734SOL    MW4 3011   0.229   1.278   1.466 -0.1298 -0.1404 -0.2835
  735SOL     OW 3012   0.203   1.567   1.559 -0.2943 -0.0237  0.4270
  735SOL    HW2 3013   0.219   1.571   1.653  0.1690 -0.1091  0.3518
  735SOL    HW3 3014   0.126   1.623   1.545  0.2967  0.8810  0.7133
  735SOL    MW4 3015   0.195   1.575   1.569 -0.1552  0.0843  0.4548
  736SOL     OW 3016   4.463   1.707   1.515 -0.4312  0.5908 -0.3801
  736SOL    HW2 3017   4.477   1.798   1.544 -0.1312  0.8354 -1.2624
  736SOL    HW3 3018   4.455   1.714   1.419  1.2802 -0.5048 -0.6165
  736SOL    MW4 3019   4.464   1.720   1.506 -0.1655  0.4783 -0.5277
  737SOL     OW 3020   0.045   1.970   1.590 -0.0261  0.1837 -0.1682
  737SOL    HW2 3021   0.033   1.961   1.685 -0.1565  2.0692  0.0099
  737SOL    HW3 3022  -0.038   2.005   1.558  0.2001  0.0493 -0.9142
  737SOL    MW4 3023   0.033   1.973   1.598 -0.0135  0.4146 -0.2432
  738SOL     OW 3024   0.245   2.124   1.480 -0.5175  0.4798  0.1349
  738SOL    HW2 3025   0.170   2.076   1.516  0.3028 -0.5703  0.4659
  738SOL    HW3 3026   0.247   2.099   1.388 -0.5889  0.5310  0.1192
  738SOL    MW4 3027   0.235   2.114   1.473 -0.4187  0.3481  0.1765
  739SOL     OW 3028   0.251   2.384   1.548 -0.2754 -0.1725 -0.1379
  739SOL    HW2 3029   0.235   2.384   1.643 -0.8926  1.1950 -0.2449
  739SOL    HW3 3030   0.262   2.291   1.526 -1.1216 -0.5714  1.1020
  739SOL    MW4 3031   0.250   2.372   1.558 -0.4685 -0.0448  0.0116
  740SOL     OW 3032   0.010   2.475   1.473  0.4082 -0.2715  0.4685
  740SOL    HW2 3033  -0.057   2.420   1.515  0.5336 -0.6001  0.2462
  740SOL    HW3 3034   0.093   2.434   1.497  0.4748 -0.5264 -0.1873
  740SOL    MW4 3035   0.012   2.462   1.482  0.4335 -0.3486  0.3527
  741SOL     OW 3036   0.045   2.708   1.592  0.1800  0.4282  0.0359
  741SOL    HW2 3037  -0.041   2.746   1.577 -0.4185 -0.5632  0.9435
  741SOL    HW3 3038   0.038   2.618   1.561  0.9484  0.4044 -0.0776
  741SOL    MW4 3039   0.033   2.701   1.586  0.2027  0.2942  0.1407
  742SOL     OW 3040   0.285   2.843   1.535  0.3250  0.1391  0.2916
  742SOL    HW2 3041   0.367   2.795   1.536  0.5050  0.4196 -0.5121
  742SOL    HW3 3042   0.221   2.782   1.572  0.2817 -1.2305 -1.9652
  742SOL    MW4 3043   0.287   2.828   1.540  0.3430 -0.0045 -0.1123
  743SOL     OW 3044   0.259   3.126   1.617  0.3518  0.3915 -0.0452
  743SOL    HW2 3045   0.170   3.156   1.595  1.1521  2.3079 -0.8101
  743SOL    HW3 3046   0.260   3.035   1.589 -1.3340  0.3928 -0.2044
  743SOL    MW4 3047   0.247   3.118   1.610  0.2349  0.6447 -0.1671
  744SOL     OW 3048   0.018   3.232   1.551 -0.1547  0.1554  0.2979
  744SOL    HW2 3049   0.039   3.317   1.589  0.6506  0.0470  0.1045
  744SOL    HW3 3050  -0.005   3.252   1.460 -1.1614  0.3046  0.5805
  744SOL    MW4 3051   0.018   3.246   1.544 -0.1813  0.1607  0.3097
  745SOL     OW 3052   0.066   3.499   1.615  0.2938 -0.4382  0.0236
  745SOL    HW2 3053   0.045   3.498   1.709 -0.1376 -1.4380 -0.0699
  745SOL    HW3 3054  -0.012   3.536   1.574  0.8883  0.9494  0.1482
  745SOL    MW4 3055   0.053   3.503   1.622  0.3153 -0.3872  0.0278
  746SOL     OW 3056   0.285   3.599   1.488 -0.1721 -0.4705  0.1685
  746SOL    HW2 3057   0.279   3.692   1.511 -1.3455 -0.3988 -0.4120
  746SOL    HW3 3058   0.208   3.559   1.530 -1.2931 -0.6663 -2.0024
  746SOL    MW4 3059   0.274   3.606   1.497 -0.4748 -0.4869 -0.1944
  747SOL     OW 3060   0.260   3.849   1.586 -0.1834 -0.5733 -0.0514
  747SOL    HW2 3061   0.250   3.831   1.680  0.2796 -0.6598 -0.0159
  747SOL    HW3 3062   0.348   3.887   1.579 -0.4979  0.1023 -0.3539
  747SOL    MW4 3063   0.271   3.852   1.597 -0.1638 -0.4957 -0.0865
  748SOL     OW 3064   0.032   3.984   1.470 -0.2412  0.1037 -0.0276
  748SOL    HW2 3065   0.037   4.073   1.506 -0.5936 -0.4939  1.5471
  748SOL    HW3 3066   0.097   3.934   1.520 -1.0098 -0.8344  0.0519
  748SOL    MW4 3067   0.041   3.989   1.482 -0.3891 -0.0987  0.1907
  749SOL     OW 3068   0.036   4.233   1.581  0.0143  0.9522  0.2213
  749SOL    HW2 3069   0.040   4.220   1.675  0.8413 -0.2647  0.0375
  749SOL    HW3 3070  -0.041   4.288   1.567 -0.5687  0.4853  1.5292
  749SOL    MW4 3071   0.027   4.238   1.591  0.0465  0.7296  0.3694
  750SOL     OW 3072   0.235   4.372   1.456  0.1788  0.5992  0.1681
  750SOL    HW2 3073   0.164   4.327   1.502 -1.9369  2.4452 -1.1915
  750SOL    HW3 3074   0.236   4.460   1.494  2.0135  0.5156  0.4002
  750SOL    MW4 3075   0.226   4.378   1.467  0.1417  0.8321  0.0193
  751SOL     OW 3076   0.684   4.610   1.588 -0.2370  0.3925 -0.0271
  751SOL    HW2 3077   0.744   4.683   1.573  0.0521 -0.0286 -0.9606
  751SOL    HW3 3078   0.597   4.647   1.574 -0.1589  0.8425  0.6638
  751SOL    MW4 3079   0.681   4.625   1.584 -0.1885  0.3967 -0.0590
  752SOL     OW 3080   0.451   0.067   1.507 -0.1289  0.2254  0.0674
  752SOL    HW2 3081   0.430   0.161   1.508  0.0294  0.2636 -0.2845
  752SOL    HW3 3082   0.446   0.042   1.415 -1.0479 -0.3091  0.2464
  752SOL    MW4 3083   0.447   0.076   1.495 -0.2293  0.1599  0.0446
  753SOL     OW 3084   0.447   0.349   1.544 -0.8735 -0.0790  0.0347
  753SOL    HW2 3085   0.530   0.393   1.526 -0.2448 -0.8279  1.0661
  753SOL    HW3 3086   0.380   0.417   1.530 -0.0982  0.5360 -0.7637
  753SOL    MW4 3087   0.449   0.364   1.539 -0.6883 -0.0966  0.0654
  754SOL     OW 3088   0.681   0.496   1.482 -0.1530 -0.1375 -0.3620
  754SOL    HW2 3089   0.671   0.591   1.495 -0.9611  0.0088 -1.9629
  754SOL    HW3 3090   0.691   0.485   1.388 -1.7374 -1.7831 -0.3782
  754SOL    MW4 3091   0.681   0.507   1.471 -0.4686 -0.3353 -0.5753
  755SOL     OW 3092   0.649   0.762   1.580 -0.1058  0.1494  0.0796
  755SOL    HW2 3093   0.633   0.751   1.674 -0.6258  2.0544  0.2315
  755SOL    HW3 3094   0.731   0.810   1.575 -0.3411  0.5078 -0.4178
  755SOL    MW4 3095   0.658   0.767   1.592 -0.2055  0.4480  0.0340
  756SOL     OW 3096   0.447   0.896   1.460 -0.0602  0.3007 -0.0282
  756SOL    HW2 3097   0.440   0.975   1.512 -1.0596  1.4032 -1.7676
  756SOL    HW3 3098   0.530   0.856   1.486  1.6486  3.2005 -0.8431
  756SOL    MW4 3099   0.457   0.901   1.470  0.0334  0.8287 -0.3651
  757SOL     OW 3100   0.437   1.146   1.598  0.2554 -0.2985  0.2736
  757SOL    HW2 3101   0.522   1.190   1.589 -0.5423  1.2420  0.1439
  757SOL    HW3 3102   0.376   1.200   1.548 -1.0180 -0.7814  1.2639
  757SOL    MW4 3103   0.440   1.159   1.590 -0.0178 -0.1589  0.3871
  758SOL     OW 3104   0.663   1.284   1.532  0.1288  0.0887  0.2924
  758SOL    HW2 3105   0.671   1.376   1.556  1.4325  0.1415 -0.3181
  758SOL    HW3 3106   0.661   1.285   1.436  0.4617 -0.5401  0.2781
  758SOL    MW4 3107   0.664   1.297   1.522  0.3448  0.0128  0.2099
  759SOL     OW 3108   0.699   1.557   1.618  0.0139  0.0635  0.8763
  759SOL    HW2 3109   0.769   1.608   1.578  1.1137 -0.4752  2.0797
  759SOL    HW3 3110   0.619   1.604   1.596  0.6061 -0.0692 -1.7116
  759SOL    MW4 3111   0.698   1.570   1.610  0.2372 -0.0250  0.6936
  760SOL     OW 3112   0.453   1.671   1.504 -0.0768  0.5202 -0.2707
  760SOL    HW2 3113   0.440   1.763   1.527  1.2527  0.0020  2.8338
  760SOL    HW3 3114   0.368   1.630   1.520 -0.4907  1.0571 -1.0341
  760SOL    MW4 3115   0.440   1.678   1.509  0.0440  0.5229  0.0381
  761SOL     OW 3116   0.426   1.943   1.582  0.1148 -0.0344 -0.4122
  761SOL    HW2 3117   0.426   1.942   1.678  0.5596 -1.1050 -0.4163
  761SOL    HW3 3118   0.364   2.011   1.559 -0.7707 -0.4660  0.6334
  761SOL    MW4 3119   0.418   1.952   1.592  0.0567 -0.2325 -0.2748
  762SOL     OW 3120   0.642   2.060   1.479 -0.0683 -0.0404  0.1382
  762SOL    HW2 3121   0.720   2.021   1.519 -0.2090  0.0482  0.4978
  762SOL    HW3 3122   0.570   2.006   1.510 -0.1681 -0.0268 -0.0708
  762SOL    MW4 3123   0.643   2.047   1.488 -0.1001 -0.0267  0.1580
  763SOL     OW 3124   0.718   2.303   1.590  0.1079 -0.2114 -0.0589
  763SOL    HW2 3125   0.648   2.353   1.547  0.2714  0.3491  0.3158
  763SOL    HW3 3126   0.710   2.215   1.554  0.7213  0.4202 -1.7931
  763SOL    MW4 3127   0.708   2.298   1.580  0.2105 -0.0539 -0.2384
  764SOL     OW 3128   0.516   2.461   1.485 -0.5610 -0.0436 -0.0717
  764SOL    HW2 3129   0.524   2.548   1.523 -0.1175 -0.2342  0.2838
  764SOL    HW3 3130   0.428   2.432   1.509 -0.8425  0.4462 -0.4979
  764SOL    MW4 3131   0.505   2.468   1.493 -0.5397 -0.0043 -0.0811
  765SOL     OW 3132   0.514   2.715   1.581  0.5277 -0.1478 -0.0267
  765SOL    HW2 3133   0.488   2.747   1.668 -1.0622  1.6580 -1.1328
  765SOL    HW3 3134   0.584   2.773   1.554  1.5194 -1.1614  0.3283
  765SOL    MW4 3135   0.520   2.727   1.589  0.4487 -0.0432 -0.1258
  766SOL     OW 3136   0.721   2.874   1.478 -0.3563  0.3558  0.5083
  766SOL    HW2 3137   0.706   2.963   1.508  0.2328  0.4383  0.5688
  766SOL    HW3 3138   0.735   2.882   1.384 -0.0459  0.3585  0.5548
  766SOL    MW4 3139   0.721   2.887   1.470 -0.2376  0.3672  0.5225
  767SOL     OW 3140   0.684   3.114   1.612  0.0647 -0.2695 -0.3808
  767SOL    HW2 3141   0.759   3.158   1.571  0.2811 -0.4098 -0.1356
  767SOL    HW3 3142   0.608   3.164   1.583  0.4211  1.0613  0.9558
  767SOL    MW4 3143   0.684   3.126   1.603  0.1404 -0.1128 -0.1721
  768SOL     OW 3144   0.489   3.236   1.479  0.3884  0.0020  0.4184
  768SOL    HW2 3145   0.407   3.197   1.508  0.5589 -0.4773  0.2622
  768SOL    HW3 3146   0.493   3.321   1.523 -0.6944  0.4772 -0.3855
  768SOL    MW4 3147   0.479   3.242   1.489  0.2681  0.0014  0.2918
  769SOL     OW 3148   0.511   3.481   1.618  0.3579  0.3075  0.7694
  769SOL    HW2 3149   0.501   3.478   1.714 -0.6851  0.1402  0.6630
  769SOL    HW3 3150   0.432   3.526   1.587  0.2388 -0.4632 -0.0755
  769SOL    MW4 3151   0.499   3.486   1.627  0.2046  0.1838  0.6438
  770SOL     OW 3152   0.725   3.601   1.490 -0.2218  0.0547 -0.2630
  770SOL    HW2 3153   0.802   3.559   1.529  0.0441  0.0570 -0.7838
  770SOL    HW3 3154   0.652   3.570   1.544  0.2083  0.5363  0.6121
  770SOL    MW4 3155   0.725   3.591   1.502 -0.1299  0.1185 -0.2160
  771SOL     OW 3156   0.731   3.848   1.618  0.3185 -0.1226 -0.2064
  771SOL    HW2 3157   0.793   3.913   1.586  0.5067 -0.3695 -0.3446
  771SOL    HW3 3158   0.758   3.766   1.576  0.8831 -0.5586  0.9799
  771SOL    MW4 3159   0.742   3.846   1.608  0.4177 -0.2127 -0.0682
  772SOL     OW 3160   0.496   3.961   1.513 -0.3995  0.1855  0.5448
  772SOL    HW2 3161   0.581   3.922   1.530  0.5545  1.5567 -0.9689
  772SOL    HW3 3162   0.493   3.974   1.418 -1.7215  1.4343  0.7299
  772SOL    MW4 3163   0.507   3.958   1.503 -0.4480  0.5312  0.3697
  773SOL     OW 3164   0.455   4.257   1.573 -0.1883  0.0477  0.4295
  773SOL    HW2 3165   0.467   4.164   1.553 -0.8788  0.2192 -0.8223
  773SOL    HW3 3166   0.370   4.279   1.534  0.0908  1.2632  0.5082
  773SOL    MW4 3167   0.445   4.248   1.566 -0.2426  0.2308  0.2748
  774SOL     OW 3168   0.658   4.377   1.415 -0.1127 -0.5880 -0.3955
  774SOL    HW2 3169   0.588   4.338   1.467 -0.6709  0.6726 -0.1792
  774SOL    HW3 3170   0.675   4.461   1.457  0.3656 -0.1496 -1.4451
  774SOL    MW4 3171   0.651   4.383   1.427 -0.1233 -0.3638 -0.5054
  775SOL     OW 3172   1.119   4.650   1.602  0.2412  0.1492 -0.6659
  775SOL    HW2 3173   1.115   4.629   1.695  1.0682 -2.1977 -1.1222
  775SOL    HW3 3174   1.202   4.696   1.591  1.1534 -1.4398 -0.5651
  775SOL    MW4 3175   1.129   4.653   1.613  0.4708 -0.3695 -0.7128
  776SOL     OW 3176   0.887   0.140   1.554 -0.2824  0.4556  0.3404
  776SOL    HW2 3177   0.918   0.225   1.583  2.2064 -0.0958 -0.5773
  776SOL    HW3 3178   0.958   0.080   1.576 -1.4521 -1.1660 -0.2019
  776SOL    MW4 3179   0.901   0.143   1.561 -0.1084  0.1689  0.1479
  777SOL     OW 3180   0.908   0.407   1.639 -0.2510 -0.3030  0.7407
  777SOL    HW2 3181   0.893   0.423   1.732 -0.5857  2.3451  0.2738
  777SOL    HW3 3182   0.832   0.446   1.596  1.0762  0.6354 -0.7877
  777SOL    MW4 3183   0.896   0.414   1.646 -0.1201  0.1702  0.4773
  778SOL     OW 3184   1.123   0.500   1.515  0.4428 -0.1253  0.9076
  778SOL    HW2 3185   1.150   0.586   1.549 -1.1120  0.9381 -0.4493
  778SOL    HW3 3186   1.042   0.480   1.561  0.2832 -0.3875  0.5197
  778SOL    MW4 3187   1.116   0.509   1.525  0.2165 -0.0196  0.6775
  779SOL     OW 3188   1.163   0.783   1.589 -0.0325  0.0223 -0.0358
  779SOL    HW2 3189   1.153   0.788   1.684  0.2908  0.5810 -0.0259
  779SOL    HW3 3190   1.231   0.848   1.569 -0.8017  0.6216 -0.7579
  779SOL    MW4 3191   1.171   0.793   1.599 -0.0914  0.1751 -0.1298
  780SOL     OW 3192   0.904   0.892   1.511 -0.2611  0.0898  0.2663
  780SOL    HW2 3193   0.991   0.853   1.523 -0.6967 -1.2171 -0.6916
  780SOL    HW3 3194   0.881   0.873   1.420 -1.6950  0.1339  0.6004
  780SOL    MW4 3195   0.912   0.884   1.500 -0.5078 -0.0769  0.1841
  781SOL     OW 3196   0.890   1.147   1.616 -0.3983 -0.1783 -0.0009
  781SOL    HW2 3197   0.876   1.058   1.584  1.1350  0.1924 -1.7913
  781SOL    HW3 3198   0.811   1.194   1.591 -0.1816 -0.4611 -1.2712
  781SOL    MW4 3199   0.878   1.141   1.609 -0.1675 -0.1668 -0.4047
  782SOL     OW 3200   1.084   1.291   1.475 -0.6515 -0.4166  0.4720
  782SOL    HW2 3201   1.165   1.253   1.506 -0.7317 -1.3352 -0.4154
  782SOL    HW3 3202   1.015   1.243   1.521 -0.7129 -0.1386  0.6725
  782SOL    MW4 3203   1.085   1.280   1.485 -0.6701 -0.5012  0.3814
  783SOL     OW 3204   1.112   1.555   1.610 -0.1787 -0.4660 -0.3559
  783SOL    HW2 3205   1.200   1.567   1.574 -0.2298  0.3963 -0.1977
  783SOL    HW3 3206   1.079   1.476   1.567  1.5824 -2.1796  1.3223
  783SOL    MW4 3207   1.119   1.546   1.600  0.0468 -0.5783 -0.1137
  784SOL     OW 3208   0.919   1.706   1.528 -0.1370  0.1511 -0.0960
  784SOL    HW2 3209   0.996   1.658   1.560  1.0228  2.0115 -0.0333
  784SOL    HW3 3210   0.915   1.686   1.434  1.1559  1.0226 -0.3415
  784SOL    MW4 3211   0.928   1.697   1.520  0.1866  0.5114 -0.1203
  785SOL     OW 3212   0.883   1.975   1.586 -0.2544 -0.0979 -0.2626
  785SOL    HW2 3213   0.969   2.017   1.577 -0.1040  0.3050  2.5971
  785SOL    HW3 3214   0.899   1.883   1.561  1.0058 -0.0229  0.2318
  785SOL    MW4 3215   0.897   1.968   1.581 -0.0683 -0.0349  0.1799
  786SOL     OW 3216   1.128   2.087   1.490 -0.1072 -0.0160  0.1542
  786SOL    HW2 3217   1.200   2.042   1.535 -0.8478 -0.8522  0.5109
  786SOL    HW3 3218   1.136   2.178   1.518 -1.3300 -0.7373  3.0087
  786SOL    MW4 3219   1.139   2.093   1.499 -0.3663 -0.2213  0.5779
  787SOL     OW 3220   1.148   2.360   1.539 -0.2528 -0.2466 -0.2875
  787SOL    HW2 3221   1.219   2.407   1.495  0.7421 -2.3637 -1.0251
  787SOL    HW3 3222   1.069   2.407   1.514  0.7319  1.1506 -0.8204
  787SOL    MW4 3223   1.147   2.372   1.530  0.0085 -0.3414 -0.4551
  788SOL     OW 3224   0.909   2.469   1.473 -0.1029 -0.4966  0.0839
  788SOL    HW2 3225   0.914   2.550   1.524 -0.0967 -0.9317  0.7702
  788SOL    HW3 3226   0.847   2.414   1.521 -2.6649  0.3534 -2.1007
  788SOL    MW4 3227   0.901   2.472   1.486 -0.4401 -0.4420 -0.1137
  789SOL     OW 3228   0.924   2.717   1.588 -0.2589 -0.3228  0.3296
  789SOL    HW2 3229   0.932   2.714   1.684 -1.0713 -1.8618  0.3681
  789SOL    HW3 3230   0.852   2.779   1.572  0.5011  0.6536  0.6716
  789SOL    MW4 3231   0.915   2.725   1.599 -0.2658 -0.3970  0.3798
  790SOL     OW 3232   1.122   2.865   1.433  0.3522  0.3291  0.1125
  790SOL    HW2 3233   1.134   2.951   1.473  1.4323  0.4110 -0.3620
  790SOL    HW3 3234   1.051   2.825   1.483 -0.0376  1.4244  0.4561
  790SOL    MW4 3235   1.114   2.871   1.445  0.4432  0.4845  0.0954
  791SOL     OW 3236   1.153   3.116   1.563  0.5500 -0.2388 -0.0203
  791SOL    HW2 3237   1.155   3.117   1.659  1.8591 -0.7020 -0.0299
  791SOL    HW3 3238   1.238   3.153   1.538 -0.2826  1.0322 -1.0126
  791SOL    MW4 3239   1.165   3.121   1.573  0.6130 -0.1323 -0.1525
  792SOL     OW 3240   0.916   3.244   1.506  0.7243 -0.2002 -0.0261
  792SOL    HW2 3241   0.991   3.186   1.522  0.1570 -0.9052  0.1259
  792SOL    HW3 3242   0.925   3.268   1.414 -0.1698 -2.2121 -0.6716
  792SOL    MW4 3243   0.927   3.239   1.496  0.5314 -0.5584 -0.0912
  793SOL     OW 3244   0.943   3.484   1.620  0.5214 -0.4481  0.3545
  793SOL    HW2 3245   1.015   3.522   1.571 -0.4097  1.2029  0.2259
  793SOL    HW3 3246   0.940   3.393   1.593  1.7705 -0.2113 -0.5646
  793SOL    MW4 3247   0.952   3.477   1.610  0.5633 -0.1988  0.2162
  794SOL     OW 3248   1.141   3.600   1.473 -0.2893  0.4743  0.1070
  794SOL    HW2 3249   1.146   3.691   1.503  1.5030  0.9007 -1.3741
  794SOL    HW3 3250   1.226   3.563   1.495 -0.1679 -0.1596 -1.3923
  794SOL    MW4 3251   1.153   3.607   1.480 -0.0367  0.4470 -0.2861
  795SOL     OW 3252   1.149   3.847   1.603 -0.3888  0.6028 -0.0869
  795SOL    HW2 3253   1.231   3.887   1.573 -0.8463  2.1180  0.6312
  795SOL    HW3 3254   1.154   3.852   1.699 -2.1291  2.4521 -0.0578
  795SOL    MW4 3255   1.161   3.853   1.612 -0.6788  1.0467  0.0117
  796SOL     OW 3256   0.933   4.013   1.516  0.3277  0.1717  0.4674
  796SOL    HW2 3257   0.934   4.102   1.553  0.0154  0.1858  0.4460
  796SOL    HW3 3258   1.007   3.969   1.558  0.7307  0.5631  0.1742
  796SOL    MW4 3259   0.943   4.019   1.527  0.3396  0.2255  0.4258
  797SOL     OW 3260   0.905   4.289   1.574  0.2062  0.2774  0.2142
  797SOL    HW2 3261   0.884   4.293   1.668 -0.3123 -1.7696  0.2054
  797SOL    HW3 3262   0.826   4.322   1.531  0.8702  2.3589  0.4899
  797SOL    MW4 3263   0.892   4.294   1.581  0.2254  0.2823  0.2495
  798SOL     OW 3264   1.136   4.404   1.469 -0.2261 -0.2377 -0.0093
  798SOL    HW2 3265   1.050   4.367   1.488 -0.7494  0.6986 -0.5757
  798SOL    HW3 3266   1.136   4.489   1.512  0.3915 -0.2027 -0.0792
  798SOL    MW4 3267   1.125   4.410   1.477 -0.2135 -0.1097 -0.0932
  799SOL     OW 3268   1.550   4.635   1.575 -0.0696 -0.0727  0.3384
  799SOL    HW2 3269   1.552   4.630   1.671  1.3645 -0.4297  0.3110
  799SOL    HW3 3270   1.467   4.678   1.555 -1.6022 -2.3316  1.6303
  799SOL    MW4 3271   1.539   4.640   1.585 -0.0825 -0.4182  0.5052
  800SOL     OW 3272   1.333   0.138   1.483  0.2822  0.3032 -0.0525
  800SOL    HW2 3273   1.331   0.226   1.521 -1.9547 -0.0730  0.7754
  800SOL    HW3 3274   1.351   0.152   1.390  3.1123  1.4046  0.5947
  800SOL    MW4 3275   1.335   0.151   1.476  0.3603  0.3989  0.1421
  801SOL     OW 3276   1.337   0.350   1.669  0.4802 -0.1035  0.2143
  801SOL    HW2 3277   1.402   0.406   1.628  0.2630  1.4445  1.9343
  801SOL    HW3 3278   1.253   0.386   1.640  0.3541 -0.7554 -0.2476
  801SOL    MW4 3279   1.334   0.362   1.660  0.4349  0.0148  0.3803
  802SOL     OW 3280   1.529   0.522   1.520  0.3900  0.1865 -0.1303
  802SOL    HW2 3281   1.615   0.489   1.545 -0.3176 -1.9680 -0.3900
  802SOL    HW3 3282   1.530   0.522   1.424  0.6590  1.7251 -0.1357
  802SOL    MW4 3283   1.540   0.518   1.511  0.3321  0.1052 -0.1653
  803SOL     OW 3284   1.560   0.781   1.613 -0.2460  0.2868 -0.1672
  803SOL    HW2 3285   1.554   0.782   1.708 -0.0404  0.6764 -0.1588
  803SOL    HW3 3286   1.542   0.690   1.589  1.8953 -0.3058  0.3773
  803SOL    MW4 3287   1.556   0.770   1.622  0.0637  0.2599 -0.0942
  804SOL     OW 3288   1.381   0.945   1.500 -0.3597  0.0637 -0.3848
  804SOL    HW2 3289   1.442   0.884   1.541  1.0622  2.2546  0.8224
  804SOL    HW3 3290   1.398   0.936   1.406  1.0527 -0.1548 -0.1218
  804SOL    MW4 3291   1.391   0.936   1.493  0.0143  0.3240 -0.1909
  805SOL     OW 3292   1.332   1.194   1.565 -0.2911  0.1426  0.2599
  805SOL    HW2 3293   1.343   1.200   1.660 -0.4798 -0.1650  0.3013
  805SOL    HW3 3294   1.353   1.103   1.543  2.8669  0.9618 -0.4275
  805SOL    MW4 3295   1.336   1.183   1.574  0.1006  0.2103  0.1746
  806SOL     OW 3296   1.570   1.298   1.503  0.2292 -0.5617 -0.2176
  806SOL    HW2 3297   1.485   1.260   1.524  0.9003 -2.1522 -0.3177
  806SOL    HW3 3298   1.572   1.300   1.407  0.5163 -1.0256 -0.2228
  806SOL    MW4 3299   1.559   1.293   1.493  0.3556 -0.8328 -0.2316
  807SOL     OW 3300   1.551   1.550   1.619  0.0017  0.1414  0.4010
  807SOL    HW2 3301   1.564   1.548   1.714  0.9767  1.0186  0.2914
  807SOL    HW3 3302   1.546   1.458   1.594  1.3846 -0.1375  1.0891
  807SOL    MW4 3303   1.552   1.538   1.628  0.3127  0.2203  0.4773
  808SOL     OW 3304   1.348   1.688   1.471  0.4029 -0.2110 -0.3369
  808SOL    HW2 3305   1.418   1.632   1.505  1.0088 -0.8063 -2.4321
  808SOL    HW3 3306   1.360   1.685   1.376 -1.3608  1.1582 -0.6293
  808SOL    MW4 3307   1.359   1.680   1.463  0.2501 -0.1087 -0.6521
  809SOL     OW 3308   1.330   1.951   1.606  0.1154  0.2500  0.1702
  809SOL    HW2 3309   1.341   1.944   1.700 -2.5859 -1.2224  0.4298
  809SOL    HW3 3310   1.323   1.861   1.575  0.5614  0.7202 -1.3756
  809SOL    MW4 3311   1.330   1.938   1.614 -0.1823  0.1177  0.0006
  810SOL     OW 3312   1.555   2.085   1.500 -0.0677  0.3688  0.3367
  810SOL    HW2 3313   1.484   2.033   1.538 -0.8021  1.2189  0.1493
  810SOL    HW3 3314   1.538   2.084   1.406  0.1657  0.5816  0.2919
  810SOL    MW4 3315   1.543   2.078   1.493 -0.1339  0.5095  0.3060
  811SOL     OW 3316   1.580   2.376   1.562  0.2041  0.3105  0.0747
  811SOL    HW2 3317   1.660   2.403   1.517 -0.2926 -0.2504 -1.1767
  811SOL    HW3 3318   1.569   2.284   1.538 -2.2031  1.0602 -1.9359
  811SOL    MW4 3319   1.589   2.368   1.552 -0.1789  0.3355 -0.3556
  812SOL     OW 3320   1.367   2.492   1.417 -0.2199  0.2306 -0.1245
  812SOL    HW2 3321   1.348   2.572   1.467 -0.0413  0.7534 -0.8862
  812SOL    HW3 3322   1.437   2.450   1.466 -0.9945  0.0253  0.8308
  812SOL    MW4 3323   1.374   2.497   1.430 -0.2986  0.2730 -0.0989
  813SOL     OW 3324   1.353   2.745   1.552  0.2859  0.0075 -0.0099
  813SOL    HW2 3325   1.432   2.785   1.517  0.6003  0.0166  0.6912
  813SOL    HW3 3326   1.281   2.796   1.516  0.6006  0.0185 -0.6227
  813SOL    MW4 3327   1.354   2.757   1.543  0.3690  0.0100  0.0018
  814SOL     OW 3328   1.601   2.855   1.485 -0.4089 -0.0445 -0.6797
  814SOL    HW2 3329   1.678   2.802   1.504  0.7328  1.6523 -0.4635
  814SOL    HW3 3330   1.594   2.853   1.390 -0.0516 -0.1521 -0.7055
  814SOL    MW4 3331   1.610   2.848   1.475 -0.2112  0.1650 -0.6546
  815SOL     OW 3332   1.578   3.107   1.597  0.2463  0.1927  0.8483
  815SOL    HW2 3333   1.654   3.153   1.562 -0.3108  0.3872 -0.0991
  815SOL    HW3 3334   1.573   3.026   1.547 -0.1982  0.1989  0.8788
  815SOL    MW4 3335   1.587   3.103   1.586  0.1143  0.2191  0.7273
  816SOL     OW 3336   1.382   3.216   1.460  0.1514 -0.2029 -0.2926
  816SOL    HW2 3337   1.396   3.309   1.474 -1.3798 -0.1176  0.8195
  816SOL    HW3 3338   1.442   3.173   1.521  0.3707  0.0666 -0.3184
  816SOL    MW4 3339   1.392   3.222   1.470 -0.0217 -0.1564 -0.1494
  817SOL     OW 3340   1.378   3.481   1.547  0.3513  0.9737 -0.4341
  817SOL    HW2 3341   1.352   3.491   1.639  0.6536  1.1522 -0.3669
  817SOL    HW3 3342   1.458   3.532   1.540  1.9254 -1.3678 -0.0886
  817SOL    MW4 3343   1.385   3.489   1.559  0.5989  0.6883 -0.3796
  818SOL     OW 3344   1.623   3.604   1.516  0.2447 -0.4983  0.8460
  818SOL    HW2 3345   1.628   3.698   1.535  2.2400 -0.1989 -1.0159
  818SOL    HW3 3346   1.608   3.600   1.421 -1.4564 -2.0547  1.1555
  818SOL    MW4 3347   1.621   3.616   1.506  0.2836 -0.6642  0.6411
  819SOL     OW 3348   1.627   3.867   1.585 -0.1265 -0.2441 -0.3536
  819SOL    HW2 3349   1.625   3.854   1.680 -0.8475 -2.0578 -0.5936
  819SOL    HW3 3350   1.543   3.908   1.564  0.3041  0.7548 -0.1304
  819SOL    MW4 3351   1.616   3.871   1.594 -0.1650 -0.3517 -0.3557
  820SOL     OW 3352   1.385   3.971   1.514 -0.5058  0.1592 -0.0740
  820SOL    HW2 3353   1.352   4.057   1.539 -0.3879  0.2898 -0.3614
  820SOL    HW3 3354   1.375   3.968   1.419 -0.4532 -0.1212 -0.0720
  820SOL    MW4 3355   1.380   3.982   1.505 -0.4832  0.1392 -0.1117
  821SOL     OW 3356   1.349   4.251   1.584 -0.5251 -0.3551  0.2354
  821SOL    HW2 3357   1.425   4.292   1.543 -1.0086 -0.2054 -0.5161
  821SOL    HW3 3358   1.274   4.291   1.541 -1.0391 -0.2151  1.2592
  821SOL    MW4 3359   1.349   4.261   1.573 -0.6567 -0.3171  0.2712
  822SOL     OW 3360   1.565   4.383   1.446 -0.2028  0.4377  0.3787
  822SOL    HW2 3361   1.653   4.352   1.468 -1.1670 -2.4330  0.3734
  822SOL    HW3 3362   1.557   4.466   1.493  1.8630 -0.1076  1.7856
  822SOL    MW4 3363   1.576   4.390   1.455 -0.0573 -0.0134  0.5639
  823SOL     OW 3364   1.959   4.647   1.606  0.0100 -0.5171  0.3902
  823SOL    HW2 3365   1.964   4.637   1.701 -0.8943 -0.9359  0.3988
  823SOL    HW3 3366   1.877   4.694   1.591 -0.1604 -1.0006 -0.2188
  823SOL    MW4 3367   1.949   4.652   1.616 -0.1318 -0.6362  0.3110
  824SOL     OW 3368   1.760   0.141   1.508  0.3138 -0.0083  0.2262
  824SOL    HW2 3369   1.686   0.090   1.542  1.1611 -1.7394 -0.4743
  824SOL    HW3 3370   1.763   0.120   1.415 -0.3301  2.6361 -0.4458
  824SOL    MW4 3371   1.751   0.131   1.500  0.3405  0.1122  0.0451
  825SOL     OW 3372   1.769   0.408   1.600  0.2906 -0.0297 -0.1616
  825SOL    HW2 3373   1.849   0.445   1.561 -0.2201 -0.8519 -2.0461
  825SOL    HW3 3374   1.772   0.315   1.577 -0.8214 -0.2142  0.4255
  825SOL    MW4 3375   1.780   0.401   1.592  0.0765 -0.1625 -0.3327
  826SOL     OW 3376   2.005   0.523   1.489  0.2207  0.4063  0.1785
  826SOL    HW2 3377   2.078   0.477   1.532  0.4252  0.5850  0.0245
  826SOL    HW3 3378   2.017   0.615   1.513 -1.0429  0.1921  1.7187
  826SOL    MW4 3379   2.016   0.529   1.497  0.0811  0.4017  0.3614
  827SOL     OW 3380   2.049   0.764   1.622  0.6288 -0.2122 -0.1053
  827SOL    HW2 3381   2.118   0.809   1.572  0.3594 -0.1778 -0.4505
  827SOL    HW3 3382   1.972   0.820   1.611  0.5652 -0.2193  0.3333
  827SOL    MW4 3383   2.048   0.778   1.614  0.5851 -0.2086 -0.0930
  828SOL     OW 3384   1.807   0.881   1.526 -0.4703  0.2895  0.4892
  828SOL    HW2 3385   1.810   0.971   1.557 -0.3169 -0.4473  2.6788
  828SOL    HW3 3386   1.727   0.844   1.564 -0.0421 -0.7807  0.3819
  828SOL    MW4 3387   1.797   0.888   1.535 -0.3935  0.0511  0.7640
  829SOL     OW 3388   1.799   1.156   1.577 -0.3608 -0.3655  0.0991
  829SOL    HW2 3389   1.876   1.203   1.544 -0.0408 -0.0574  1.2568
  829SOL    HW3 3390   1.725   1.201   1.537  0.0540 -0.4420 -0.7501
  829SOL    MW4 3391   1.799   1.168   1.568 -0.2639 -0.3350  0.1397
  830SOL     OW 3392   2.034   1.292   1.481 -0.2591  0.1205  0.1878
  830SOL    HW2 3393   2.027   1.384   1.509 -0.7738  0.3659 -0.7262
  830SOL    HW3 3394   2.040   1.297   1.386  0.0090 -0.7846  0.1581
  830SOL    MW4 3395   2.034   1.305   1.472 -0.2918  0.0335  0.0633
  831SOL     OW 3396   1.999   1.540   1.597  0.0728 -0.3860 -0.4375
  831SOL    HW2 3397   2.072   1.598   1.573 -0.7807  1.8127  1.9907
  831SOL    HW3 3398   1.922   1.582   1.560 -0.4498 -0.4117  0.5916
  831SOL    MW4 3399   1.999   1.553   1.589 -0.1086 -0.0994  0.0185
  832SOL     OW 3400   1.765   1.701   1.544  0.2189  0.2691 -0.4412
  832SOL    HW2 3401   1.685   1.652   1.567  0.3842  0.4465  0.5573
  832SOL    HW3 3402   1.769   1.697   1.449 -1.4500  0.9746 -0.5539
  832SOL    MW4 3403   1.755   1.694   1.535  0.0205  0.3856 -0.3242
  833SOL     OW 3404   1.783   1.982   1.601 -0.0433 -0.4197  0.1630
  833SOL    HW2 3405   1.758   1.890   1.586 -0.2401 -0.5167  1.0529
  833SOL    HW3 3406   1.705   2.032   1.576 -0.6328 -0.6276  1.5180
  833SOL    MW4 3407   1.769   1.976   1.596 -0.1470 -0.4599  0.4593
  834SOL     OW 3408   2.005   2.070   1.465 -0.0748  0.4398  0.5953
  834SOL    HW2 3409   2.081   2.020   1.494 -0.6072 -0.2919  0.7396
  834SOL    HW3 3410   1.931   2.030   1.511 -0.7601  0.0943 -0.7764
  834SOL    MW4 3411   2.005   2.058   1.475 -0.2351  0.2980  0.4333
  835SOL     OW 3412   2.022   2.321   1.567 -0.2208  0.2498  0.0296
  835SOL    HW2 3413   2.032   2.297   1.659  3.7664  0.9611 -0.1379
  835SOL    HW3 3414   2.013   2.238   1.521 -2.2279 -0.1138  0.9991
  835SOL    MW4 3415   2.022   2.307   1.573  0.0405  0.2956  0.1354
  836SOL     OW 3416   1.822   2.475   1.452 -0.0769 -0.0564  0.3275
  836SOL    HW2 3417   1.899   2.428   1.484 -0.2984 -0.0252  0.9006
  836SOL    HW3 3418   1.836   2.482   1.357  0.3359 -0.5837  0.3489
  836SOL    MW4 3419   1.834   2.469   1.444 -0.0517 -0.1218  0.4060
  837SOL     OW 3420   1.826   2.713   1.585  0.2604 -0.4262  0.1405
  837SOL    HW2 3421   1.911   2.753   1.567 -0.6346  0.3347 -2.6952
  837SOL    HW3 3422   1.820   2.640   1.523 -1.3534 -0.1506 -0.0475
  837SOL    MW4 3423   1.837   2.708   1.574 -0.0706 -0.2897 -0.2584
  838SOL     OW 3424   2.066   2.827   1.494  0.2969 -0.0425  0.3935
  838SOL    HW2 3425   2.065   2.919   1.522 -2.7759 -0.0321  0.4378
  838SOL    HW3 3426   2.042   2.831   1.401 -0.4574 -0.8101  0.5497
  838SOL    MW4 3427   2.062   2.840   1.486 -0.2081 -0.1423  0.4200
  839SOL     OW 3428   2.025   3.082   1.588 -0.1271  0.4094  0.0391
  839SOL    HW2 3429   2.007   3.067   1.681 -2.4423  3.0155  0.0805
  839SOL    HW3 3430   2.103   3.137   1.588 -0.8303  1.4236  0.5170
  839SOL    MW4 3431   2.033   3.088   1.601 -0.5252  0.8869  0.1076
  840SOL     OW 3432   1.798   3.218   1.479  0.0378  0.1969  0.5868
  840SOL    HW2 3433   1.806   3.297   1.531  0.9013  1.3905 -1.3123
  840SOL    HW3 3434   1.877   3.168   1.499  0.3795  0.6637  0.4114
  840SOL    MW4 3435   1.810   3.222   1.489  0.1967  0.4160  0.3132
  841SOL     OW 3436   1.798   3.436   1.647  0.1099 -0.2273  0.2437
  841SOL    HW2 3437   1.787   3.443   1.742  1.4595 -1.2760  0.4956
  841SOL    HW3 3438   1.735   3.498   1.611  0.0748  0.7023  1.8465
  841SOL    MW4 3439   1.789   3.446   1.655  0.2834 -0.2434  0.4883
  842SOL     OW 3440   2.002   3.599   1.526 -0.5105  0.4279  0.2186
  842SOL    HW2 3441   2.091   3.568   1.543 -0.5729 -0.2170 -0.6055
  842SOL    HW3 3442   1.945   3.539   1.575 -0.5590  0.0611 -0.2864
  842SOL    MW4 3443   2.006   3.587   1.535 -0.5250  0.2944  0.0434
  843SOL     OW 3444   2.030   3.863   1.613 -0.3706 -0.3216 -0.1157
  843SOL    HW2 3445   2.112   3.896   1.576  1.0389 -2.5839  0.8810
  843SOL    HW3 3446   2.018   3.778   1.571 -1.7629 -0.3785  0.4007
  843SOL    MW4 3447   2.040   3.856   1.602 -0.3684 -0.6278  0.0838
  844SOL     OW 3448   1.831   4.011   1.469 -0.0759 -0.4366 -0.0151
  844SOL    HW2 3449   1.909   3.971   1.508 -0.6327  0.4649  2.0762
  844SOL    HW3 3450   1.757   3.964   1.509 -0.6643  0.6653  0.2081
  844SOL    MW4 3451   1.831   4.000   1.480 -0.2269 -0.1721  0.2904
  845SOL     OW 3452   1.784   4.284   1.581  0.1061 -0.7767 -0.4288
  845SOL    HW2 3453   1.854   4.340   1.550 -0.0968 -0.0977  0.3085
  845SOL    HW3 3454   1.806   4.196   1.549  0.0178 -0.1429 -2.2536
  845SOL    MW4 3455   1.796   4.279   1.573  0.0676 -0.6037 -0.5723
  846SOL     OW 3456   2.001   4.413   1.479 -0.1256 -0.4881  0.5566
  846SOL    HW2 3457   2.066   4.379   1.541 -0.7389  2.0508  2.6977
  846SOL    HW3 3458   1.985   4.503   1.508  0.5944  1.3116 -4.1334
  846SOL    MW4 3459   2.008   4.420   1.491 -0.1116  0.0844  0.2204
  847SOL     OW 3460   2.442   4.661   1.639  0.2725 -0.3013  0.1388
  847SOL    HW2 3461   2.442   4.662   1.735  0.1745  1.2119  0.1359
  847SOL    HW3 3462   2.356   4.695   1.615  0.3953 -0.4340 -0.4843
  847SOL    MW4 3463   2.431   4.666   1.649  0.2759 -0.1192  0.0561
  848SOL     OW 3464   2.190   0.106   1.560  0.2874 -0.2805  0.8859
  848SOL    HW2 3465   2.113   0.058   1.588  0.6185 -0.0785  2.1776
  848SOL    HW3 3466   2.176   0.123   1.467 -1.1565 -0.3575  1.0871
  848SOL    MW4 3467   2.178   0.102   1.552  0.1404 -0.2640  1.0830
  849SOL     OW 3468   2.181   0.373   1.633 -0.4081  0.0672  0.3180
  849SOL    HW2 3469   2.197   0.376   1.727  0.3167  0.1900  0.1906
  849SOL    HW3 3470   2.190   0.281   1.609 -2.9765 -0.3346  0.7784
  849SOL    MW4 3471   2.184   0.361   1.642 -0.6511  0.0304  0.3620
  850SOL     OW 3472   2.397   0.507   1.532  0.3993 -0.4652  0.6303
  850SOL    HW2 3473   2.473   0.453   1.555 -0.5084 -1.5785  1.0109
  850SOL    HW3 3474   2.323   0.462   1.572 -0.4723  0.6065  0.2178
  850SOL    MW4 3475   2.398   0.494   1.541  0.1645 -0.4706  0.6260
  851SOL     OW 3476   2.461   0.758   1.621 -0.5808 -0.3326 -0.1938
  851SOL    HW2 3477   2.387   0.810   1.590 -0.3168 -0.2949 -0.7480
  851SOL    HW3 3478   2.440   0.668   1.594  0.7585  0.0382 -2.5273
  851SOL    MW4 3479   2.449   0.753   1.614 -0.3691 -0.2787 -0.5748
  852SOL     OW 3480   2.247   0.898   1.482  0.3827 -0.4376  0.3006
  852SOL    HW2 3481   2.266   0.991   1.491 -1.0191 -0.0633 -0.4521
  852SOL    HW3 3482   2.265   0.879   1.390  2.3509 -1.3266  0.8409
  852SOL    MW4 3483   2.252   0.908   1.471  0.4575 -0.5056  0.2725
  853SOL     OW 3484   2.249   1.157   1.588 -0.1798  0.5341 -0.2082
  853SOL    HW2 3485   2.221   1.144   1.678 -0.5874 -1.6493 -0.6224
  853SOL    HW3 3486   2.178   1.208   1.548 -1.6818 -1.5121 -0.2035
  853SOL    MW4 3487   2.236   1.162   1.594 -0.4318 -0.0241 -0.2623
  854SOL     OW 3488   2.456   1.299   1.502 -0.1250 -0.0474 -0.4071
  854SOL    HW2 3489   2.375   1.256   1.530 -0.5906  0.2531 -1.2718
  854SOL    HW3 3490   2.468   1.270   1.411  1.3127 -0.9370  0.0623
  854SOL    MW4 3491   2.447   1.289   1.493  0.0033 -0.1252 -0.4592
  855SOL     OW 3492   2.471   1.569   1.594  0.0071  0.1248 -0.0211
  855SOL    HW2 3493   2.548   1.602   1.547  0.1178 -1.0512 -0.6943
  855SOL    HW3 3494   2.459   1.480   1.561 -2.4668  0.7548 -0.9050
  855SOL    MW4 3495   2.480   1.562   1.584 -0.3049  0.0527 -0.2266
  856SOL     OW 3496   2.241   1.672   1.498 -0.9991  0.0464 -0.0471
  856SOL    HW2 3497   2.321   1.635   1.537 -0.5732 -0.2512 -1.1880
  856SOL    HW3 3498   2.249   1.652   1.405 -1.8357  1.0845 -0.3406
  856SOL    MW4 3499   2.253   1.664   1.491 -1.0533  0.1441 -0.2365
  857SOL     OW 3500   2.230   1.954   1.582  0.2640  0.2600  0.0770
  857SOL    HW2 3501   2.223   1.957   1.678 -0.2610  0.7138  0.0290
  857SOL    HW3 3502   2.251   1.863   1.562 -0.9929 -0.1413  0.5430
  857SOL    MW4 3503   2.232   1.943   1.592  0.0288  0.2670  0.1321
  858SOL     OW 3504   2.470   2.036   1.506 -0.3706 -0.5821  0.2328
  858SOL    HW2 3505   2.395   1.988   1.542 -1.1439  0.6217  0.2725
  858SOL    HW3 3506   2.462   2.026   1.412 -1.2699  0.5113  0.1764
  858SOL    MW4 3507   2.459   2.028   1.499 -0.5913 -0.2789  0.2306
  859SOL     OW 3508   2.437   2.290   1.599  0.1744 -0.0556 -0.0217
  859SOL    HW2 3509   2.440   2.287   1.695  0.1767 -0.5188 -0.0378
  859SOL    HW3 3510   2.450   2.200   1.571  2.1967  0.3467 -0.5087
  859SOL    MW4 3511   2.439   2.278   1.608  0.4418 -0.0637 -0.0881
  860SOL     OW 3512   2.242   2.458   1.493  0.7159  0.0431 -0.1599
  860SOL    HW2 3513   2.313   2.404   1.527 -1.5833 -2.4515  0.9282
  860SOL    HW3 3514   2.162   2.410   1.518 -1.3553  2.9676 -0.9231
  860SOL    MW4 3515   2.241   2.444   1.501  0.1395  0.0997 -0.1168
  861SOL     OW 3516   2.251   2.691   1.645 -0.2983  0.1307 -0.5788
  861SOL    HW2 3517   2.256   2.607   1.600 -0.0843 -0.0506 -0.2193
  861SOL    HW3 3518   2.194   2.745   1.589  1.4695  0.5332 -2.0323
  861SOL    MW4 3519   2.244   2.687   1.632 -0.0370  0.1600 -0.7231
  862SOL     OW 3520   2.459   2.793   1.497 -0.2223 -0.2897  0.8833
  862SOL    HW2 3521   2.458   2.882   1.533 -0.2405 -0.2706  0.8358
  862SOL    HW3 3522   2.393   2.746   1.547 -0.6478 -0.1111  0.4921
  862SOL    MW4 3523   2.450   2.798   1.508 -0.2806 -0.2637  0.8255
  863SOL     OW 3524   2.480   3.061   1.573 -0.0611  0.0292  0.3632
  863SOL    HW2 3525   2.551   3.124   1.567 -2.0805  2.2101 -1.3832
  863SOL    HW3 3526   2.448   3.069   1.663 -0.3228  1.5565  0.1466
  863SOL    MW4 3527   2.485   3.070   1.584 -0.3619  0.5183  0.1042
  864SOL     OW 3528   2.250   3.212   1.478 -0.0669  0.3831  0.3620
  864SOL    HW2 3529   2.263   3.303   1.503  2.7775  0.7505 -2.1392
  864SOL    HW3 3530   2.327   3.167   1.514  0.1727 -0.4271 -1.1290
  864SOL    MW4 3531   2.262   3.218   1.486  0.3402  0.3245 -0.1646
  865SOL     OW 3532   2.242   3.475   1.569  0.5266 -0.2857  0.1382
  865SOL    HW2 3533   2.243   3.486   1.664 -0.8291  0.7365  0.0537
  865SOL    HW3 3534   2.295   3.548   1.536 -0.5699  0.4671  0.0263
  865SOL    MW4 3535   2.250   3.486   1.577  0.2029 -0.0513  0.1123
  866SOL     OW 3536   2.443   3.651   1.506 -0.2003  0.3870 -0.2564
  866SOL    HW2 3537   2.497   3.589   1.556 -1.4819 -0.1891  0.4395
  866SOL    HW3 3538   2.448   3.732   1.556 -2.0436 -0.3750  1.2522
  866SOL    MW4 3539   2.451   3.653   1.520 -0.6127  0.2103  0.0346
  867SOL     OW 3540   2.432   3.902   1.641  0.0264 -0.3478 -0.5565
  867SOL    HW2 3541   2.443   3.898   1.736 -1.2866  0.6493 -0.3581
  867SOL    HW3 3542   2.516   3.936   1.609 -0.3510  1.6213  0.4600
  867SOL    MW4 3543   2.445   3.906   1.649 -0.1962  0.0432 -0.3960
  868SOL     OW 3544   2.236   4.029   1.522  0.1478 -0.1174  0.1369
  868SOL    HW2 3545   2.314   3.992   1.564 -0.6375 -1.0745  0.7832
  868SOL    HW3 3546   2.243   4.001   1.430 -0.0265 -1.2152  0.4443
  868SOL    MW4 3547   2.247   4.020   1.515  0.0212 -0.3881  0.2627
  869SOL     OW 3548   2.206   4.305   1.635  0.0383 -0.6347  0.0000
  869SOL    HW2 3549   2.293   4.338   1.614 -0.2203 -0.3185 -0.6087
  869SOL    HW3 3550   2.198   4.225   1.584 -1.0201  0.7254 -2.0582
  869SOL    MW4 3551   2.216   4.299   1.625 -0.1354 -0.4139 -0.3519
  870SOL     OW 3552   2.447   4.408   1.546 -0.4147 -0.2416  0.0472
  870SOL    HW2 3553   2.437   4.499   1.573 -0.3855 -0.3389  0.3868
  870SOL    HW3 3554   2.448   4.412   1.450  1.7894  0.3541  0.0619
  870SOL    MW4 3555   2.445   4.421   1.537 -0.1199 -0.1755  0.0938
  871SOL     OW 3556   2.912   4.652   1.616  0.1177  0.3741  0.4067
  871SOL    HW2 3557   2.903   4.667   1.710  0.6734 -1.0663  0.7047
  871SOL    HW3 3558   2.858   4.720   1.575 -0.5254  0.6979  1.7726
  871SOL    MW4 3559   2.904   4.663   1.623  0.1061  0.2267  0.6260
  872SOL     OW 3560   2.663   0.136   1.528 -0.0142  0.0974  0.2379
  872SOL    HW2 3561   2.646   0.216   1.578 -0.1217 -0.2360  0.7373
  872SOL    HW3 3562   2.588   0.080   1.546 -0.4759  0.3029 -0.9801
  872SOL    MW4 3563   2.651   0.139   1.537 -0.0892  0.0805  0.1429
  873SOL     OW 3564   2.615   0.387   1.653  0.5555  0.0974 -0.1907
  873SOL    HW2 3565   2.617   0.405   1.747 -0.6703  1.6090 -0.4333
  873SOL    HW3 3566   2.697   0.423   1.620  1.4772 -1.3799  0.4448
  873SOL    MW4 3567   2.626   0.394   1.661  0.5155  0.1019 -0.1389
  874SOL     OW 3568   2.851   0.440   1.493  0.3957  0.0242  0.1219
  874SOL    HW2 3569   2.883   0.530   1.499 -1.4085  0.6227  1.0162
  874SOL    HW3 3570   2.825   0.430   1.401  0.5996  0.4177  0.0226
  874SOL    MW4 3571   2.852   0.451   1.481  0.1845  0.1551  0.2267
  875SOL     OW 3572   2.910   0.698   1.572  0.1051 -0.7350  0.1756
  875SOL    HW2 3573   2.906   0.719   1.666 -0.5173  3.0702 -0.6230
  875SOL    HW3 3574   2.832   0.739   1.535  1.1010 -0.9568 -2.2769
  875SOL    MW4 3575   2.899   0.706   1.580  0.1545 -0.2622 -0.2533
  876SOL     OW 3576   2.687   0.853   1.487  0.6420 -0.5391 -0.0540
  876SOL    HW2 3577   2.617   0.815   1.540  0.6586 -0.7875 -0.2120
  876SOL    HW3 3578   2.659   0.841   1.396  0.7429 -0.3615 -0.1092
  876SOL    MW4 3579   2.674   0.847   1.482  0.6573 -0.5484 -0.0821
  877SOL     OW 3580   2.679   1.130   1.590 -0.1215  0.8446  0.3990
  877SOL    HW2 3581   2.674   1.039   1.560  1.3882  0.5671  0.9437
  877SOL    HW3 3582   2.607   1.174   1.544 -0.9683 -0.6485  0.2453
  877SOL    MW4 3583   2.669   1.124   1.580 -0.0341  0.6109  0.4507
  878SOL     OW 3584   2.901   1.257   1.491  0.2500 -0.2383 -0.0054
  878SOL    HW2 3585   2.974   1.202   1.520 -0.0333 -0.1191  0.9281
  878SOL    HW3 3586   2.823   1.216   1.529 -0.0463  0.3372  0.0178
  878SOL    MW4 3587   2.900   1.244   1.500  0.1736 -0.1466  0.1210
  879SOL     OW 3588   2.875   1.514   1.614  0.2788  0.2752 -0.1601
  879SOL    HW2 3589   2.806   1.546   1.556 -0.8961 -1.2376  0.3641
  879SOL    HW3 3590   2.894   1.426   1.582  1.2016  0.2664  0.3877
  879SOL    MW4 3591   2.868   1.507   1.602  0.2456  0.0745 -0.0186
  880SOL     OW 3592   2.687   1.656   1.442 -0.5031 -0.1291  0.1753
  880SOL    HW2 3593   2.696   1.746   1.474  0.3839  0.2436 -1.0794
  880SOL    HW3 3594   2.668   1.666   1.349 -1.4527 -1.2268  0.2527
  880SOL    MW4 3595   2.686   1.670   1.434 -0.5114 -0.2247  0.0200
  881SOL     OW 3596   2.687   1.900   1.613  0.1449 -0.0010 -0.0630
  881SOL    HW2 3597   2.676   1.903   1.709  0.9823 -1.3087  0.0773
  881SOL    HW3 3598   2.611   1.948   1.580 -1.0766 -0.9954  1.2025
  881SOL    MW4 3599   2.675   1.907   1.622  0.0942 -0.3048  0.1224
  882SOL     OW 3600   2.939   2.006   1.469  0.0288  0.1240 -0.2003
  882SOL    HW2 3601   2.957   2.093   1.505  1.1406 -0.6372  1.1568
  882SOL    HW3 3602   2.859   1.978   1.513 -0.3301  0.4601 -0.6380
  882SOL    MW4 3603   2.931   2.014   1.480  0.1285  0.0677 -0.0790
  883SOL     OW 3604   2.917   2.262   1.590  0.2107 -0.6162  0.3346
  883SOL    HW2 3605   2.914   2.271   1.685  1.2738  0.2127  0.2990
  883SOL    HW3 3606   2.829   2.287   1.561  0.0630 -0.2954  1.0588
  883SOL    MW4 3607   2.905   2.267   1.599  0.3314 -0.4647  0.4253
  884SOL     OW 3608   2.681   2.421   1.531  0.4255 -0.2662  0.3509
  884SOL    HW2 3609   2.670   2.515   1.541 -1.2237 -0.4037 -0.0566
  884SOL    HW3 3610   2.599   2.383   1.562  0.9646 -1.5540  0.2422
  884SOL    MW4 3611   2.669   2.428   1.536  0.2792 -0.4542  0.2828
  885SOL     OW 3612   2.688   2.687   1.632 -0.4175  0.6572  0.0742
  885SOL    HW2 3613   2.760   2.742   1.600 -1.2652  0.6964 -1.8835
  885SOL    HW3 3614   2.609   2.728   1.597 -1.0650 -1.7934 -1.4707
  885SOL    MW4 3615   2.687   2.700   1.623 -0.6149  0.3393 -0.3880
  886SOL     OW 3616   2.901   2.809   1.536 -0.0887  0.0472  0.2916
  886SOL    HW2 3617   2.972   2.763   1.582  0.8984  0.0309 -1.2188
  886SOL    HW3 3618   2.918   2.902   1.551 -0.3918  0.0115  0.8652
  886SOL    MW4 3619   2.913   2.815   1.544  0.0017  0.0403  0.1681
  887SOL     OW 3620   2.947   3.076   1.579 -0.3821  0.5108  0.2902
  887SOL    HW2 3621   2.933   3.068   1.674 -0.8146 -0.1471  0.1687
  887SOL    HW3 3622   3.019   3.138   1.572 -1.2398  1.6176  1.0137
  887SOL    MW4 3623   2.955   3.083   1.591 -0.5519  0.5701  0.3697
  888SOL     OW 3624   2.702   3.222   1.533 -0.1391 -0.2852  0.0359
  888SOL    HW2 3625   2.778   3.171   1.559 -0.6063 -0.6755  0.6397
  888SOL    HW3 3626   2.709   3.228   1.437  1.1901  0.5508  0.1784
  888SOL    MW4 3627   2.713   3.216   1.524 -0.0253 -0.2265  0.1345
  889SOL     OW 3628   2.619   3.469   1.626 -0.4733  0.2181 -0.2265
  889SOL    HW2 3629   2.615   3.445   1.719  1.3832 -0.3184 -0.2734
  889SOL    HW3 3630   2.640   3.387   1.581  2.1114  1.1147 -0.7593
  889SOL    MW4 3631   2.621   3.455   1.632  0.1128  0.2656 -0.3030
  890SOL     OW 3632   2.869   3.582   1.550 -0.3167  0.1749  0.0980
  890SOL    HW2 3633   2.790   3.544   1.588  0.0428 -0.4066  0.2820
  890SOL    HW3 3634   2.851   3.589   1.457 -1.1465  1.4569  0.3479
  890SOL    MW4 3635   2.857   3.578   1.543 -0.3786  0.2673  0.1553
  891SOL     OW 3636   2.851   3.867   1.607 -0.3844 -0.4202  0.3076
  891SOL    HW2 3637   2.781   3.923   1.573 -0.7555 -0.3567  1.1726
  891SOL    HW3 3638   2.827   3.779   1.577 -0.7288 -0.3710  0.4319
  891SOL    MW4 3639   2.838   3.863   1.598 -0.4787 -0.4055  0.4381
  892SOL     OW 3640   2.652   4.005   1.522  0.3020  0.4374 -0.1628
  892SOL    HW2 3641   2.662   4.095   1.555 -0.6126  1.2498 -1.9738
  892SOL    HW3 3642   2.633   4.017   1.429 -0.1461 -1.6461 -0.3518
  892SOL    MW4 3643   2.651   4.019   1.514  0.1221  0.2699 -0.4268
  893SOL     OW 3644   2.680   4.276   1.615 -0.0060  0.0472 -0.5603
  893SOL    HW2 3645   2.755   4.331   1.590 -0.0080 -0.1850 -1.0641
  893SOL    HW3 3646   2.604   4.331   1.599 -0.1161 -0.6994 -2.6742
  893SOL    MW4 3647   2.680   4.291   1.610 -0.0207 -0.0815 -0.9056
  894SOL     OW 3648   2.910   4.386   1.498 -0.2463 -0.4662 -0.1144
  894SOL    HW2 3649   2.910   4.475   1.533  0.6304 -0.1706 -0.8267
  894SOL    HW3 3650   2.917   4.397   1.403  2.2220 -1.2933 -0.0781
  894SOL    MW4 3651   2.911   4.399   1.490  0.1950 -0.5364 -0.2036
  895SOL     OW 3652   3.352   4.625   1.580 -0.4624  0.0348  0.2286
  895SOL    HW2 3653   3.428   4.672   1.547 -0.8850  0.3522 -0.2924
  895SOL    HW3 3654   3.364   4.534   1.551 -0.4278  0.1460 -0.1021
  895SOL    MW4 3655   3.363   4.619   1.572 -0.5133  0.0906  0.1162
  896SOL     OW 3656   3.138   0.096   1.486  0.0904 -0.2096 -0.2601
  896SOL    HW2 3657   3.216   0.044   1.503  0.5326  0.1628 -1.1057
  896SOL    HW3 3658   3.071   0.058   1.542  0.7843 -0.7648  0.2021
  896SOL    MW4 3659   3.139   0.084   1.496  0.2403 -0.2337 -0.3107
  897SOL     OW 3660   3.098   0.351   1.602 -0.3996 -0.5691  0.3813
  897SOL    HW2 3661   3.118   0.270   1.555 -1.0596 -0.4889 -0.0596
  897SOL    HW3 3662   3.025   0.389   1.552  0.8253  1.0032 -0.2508
  897SOL    MW4 3663   3.091   0.346   1.589 -0.3250 -0.3510  0.2397
  898SOL     OW 3664   3.369   0.428   1.544 -0.3036 -0.3258 -0.2637
  898SOL    HW2 3665   3.281   0.395   1.564  0.5212 -2.5951 -0.3082
  898SOL    HW3 3666   3.369   0.439   1.449 -0.9330  0.9000 -0.1369
  898SOL    MW4 3667   3.357   0.425   1.534 -0.2778 -0.4635 -0.2528
  899SOL     OW 3668   3.347   0.708   1.583 -0.0290  0.1473 -0.1858
  899SOL    HW2 3669   3.370   0.718   1.675 -1.4188 -0.8067  0.2865
  899SOL    HW3 3670   3.336   0.614   1.571 -0.3750  0.3131 -1.1950
  899SOL    MW4 3671   3.348   0.697   1.594 -0.2580  0.0433 -0.2567
  900SOL     OW 3672   3.133   0.845   1.468 -0.3590  0.3084  0.1216
  900SOL    HW2 3673   3.198   0.797   1.520 -0.5116 -0.8812 -0.7771
  900SOL    HW3 3674   3.049   0.813   1.500 -0.4727  0.3651 -0.1233
  900SOL    MW4 3675   3.131   0.834   1.479 -0.3943  0.1589 -0.0293
  901SOL     OW 3676   3.129   1.108   1.558  0.0188  0.0618  0.2645
  901SOL    HW2 3677   3.149   1.121   1.650  0.7493 -0.8888  0.2468
  901SOL    HW3 3678   3.134   1.014   1.545  0.4761  0.2288 -0.8658
  901SOL    MW4 3679   3.133   1.097   1.568  0.1757 -0.0416  0.1131
  902SOL     OW 3680   3.358   1.252   1.488 -0.0298 -0.0767  0.0530
  902SOL    HW2 3681   3.429   1.204   1.531 -0.0720 -0.2387 -0.0607
  902SOL    HW3 3682   3.280   1.199   1.504 -0.0222 -0.2074 -0.3445
  902SOL    MW4 3683   3.357   1.239   1.496 -0.0343 -0.1154 -0.0144
  903SOL     OW 3684   3.349   1.518   1.585  0.5583  0.3913 -0.2574
  903SOL    HW2 3685   3.339   1.518   1.680  1.6477  0.1944 -0.1358
  903SOL    HW3 3686   3.350   1.426   1.560 -3.1398  0.4586 -0.8604
  903SOL    MW4 3687   3.348   1.506   1.594  0.2141  0.3741 -0.3210
  904SOL     OW 3688   3.090   1.662   1.517  0.2719 -0.0977  0.8137
  904SOL    HW2 3689   3.151   1.589   1.518 -0.0521 -0.3451  2.3003
  904SOL    HW3 3690   3.016   1.633   1.571 -1.2040  0.1714 -0.9903
  904SOL    MW4 3691   3.088   1.649   1.524  0.0348 -0.0948  0.7719
  905SOL     OW 3692   3.179   1.930   1.611 -0.0939 -0.0085  0.2898
  905SOL    HW2 3693   3.173   1.837   1.591 -1.3727  0.1468 -0.1319
  905SOL    HW3 3694   3.105   1.969   1.563  0.7871  1.2963 -0.0184
  905SOL    MW4 3695   3.168   1.923   1.602 -0.1464  0.1842  0.1935
  906SOL     OW 3696   3.398   2.083   1.498  0.4108 -0.4804 -0.2565
  906SOL    HW2 3697   3.339   2.015   1.531 -0.9727  1.0768  0.5691
  906SOL    HW3 3698   3.367   2.099   1.408  0.6556 -0.8366 -0.4067
  906SOL    MW4 3699   3.386   2.076   1.490  0.2604 -0.3219 -0.1673
  907SOL     OW 3700   3.350   2.331   1.606  0.3520 -0.5568 -0.0453
  907SOL    HW2 3701   3.427   2.387   1.598  0.2367 -0.3697  0.1431
  907SOL    HW3 3702   3.377   2.247   1.567  0.6687 -0.5129  0.0788
  907SOL    MW4 3703   3.364   2.327   1.600  0.3784 -0.5267 -0.0038
  908SOL     OW 3704   3.101   2.441   1.503  0.5072 -0.0343  0.0759
  908SOL    HW2 3705   3.181   2.396   1.528 -0.3932 -1.5335  0.3349
  908SOL    HW3 3706   3.033   2.374   1.509 -0.2467  0.2731 -3.5148
  908SOL    MW4 3707   3.102   2.426   1.507  0.2890 -0.1915 -0.3637
  909SOL     OW 3708   3.132   2.674   1.645  0.3577 -0.1236 -0.3418
  909SOL    HW2 3709   3.205   2.720   1.603 -0.8874  1.1375 -1.1723
  909SOL    HW3 3710   3.134   2.586   1.606  1.0072  0.1206 -0.8748
  909SOL    MW4 3711   3.142   2.668   1.634  0.2792  0.0749 -0.5218
  910SOL     OW 3712   3.373   2.818   1.557  0.1416 -0.1470  0.0850
  910SOL    HW2 3713   3.360   2.910   1.580  1.1979  0.3113 -1.0385
  910SOL    HW3 3714   3.359   2.815   1.462 -1.1964 -1.4030  0.3181
  910SOL    MW4 3715   3.370   2.830   1.547  0.1044 -0.2522 -0.0325
  911SOL     OW 3716   3.380   3.077   1.632  0.1225  0.1835  0.4477
  911SOL    HW2 3717   3.355   3.103   1.720  0.1397 -0.9709  0.8022
  911SOL    HW3 3718   3.471   3.108   1.622 -0.0773  0.8189  0.6199
  911SOL    MW4 3719   3.389   3.085   1.642  0.0982  0.1152  0.5172
  912SOL     OW 3720   3.175   3.247   1.556  0.2903  0.2416  0.1092
  912SOL    HW2 3721   3.260   3.205   1.570  0.1742  0.0653  0.2981
  912SOL    HW3 3722   3.167   3.252   1.461  1.4530  2.1964  0.0853
  912SOL    MW4 3723   3.185   3.242   1.546  0.4287  0.4761  0.1309
  913SOL     OW 3724   3.116   3.508   1.648  0.2248 -0.7440 -0.4616
  913SOL    HW2 3725   3.142   3.425   1.608  2.2186 -0.3184 -0.1009
  913SOL    HW3 3726   3.038   3.535   1.598 -0.3843 -2.7590 -0.6425
  913SOL    MW4 3727   3.109   3.501   1.636  0.4077 -0.9537 -0.4379
  914SOL     OW 3728   3.328   3.585   1.494  0.1453  0.0101 -0.7567
  914SOL    HW2 3729   3.400   3.557   1.551 -0.1941  0.2249 -0.2187
  914SOL    HW3 3730   3.249   3.561   1.543 -0.1519  1.4933 -0.4948
  914SOL    MW4 3731   3.327   3.578   1.508  0.0613  0.2341 -0.6512
  915SOL     OW 3732   3.336   3.868   1.585 -0.2392 -0.0533 -0.0172
  915SOL    HW2 3733   3.257   3.911   1.550  0.3074  0.1712 -0.9785
  915SOL    HW3 3734   3.318   3.775   1.578 -0.2905 -0.0064 -0.5510
  915SOL    MW4 3735   3.323   3.862   1.579 -0.1738 -0.0174 -0.2146
  916SOL     OW 3736   3.097   3.974   1.487 -0.1859  0.0314 -0.2372
  916SOL    HW2 3737   3.089   4.060   1.528 -0.7906  0.2020 -0.7032
  916SOL    HW3 3738   3.017   3.928   1.513 -0.6966  0.2317 -1.4326
  916SOL    MW4 3739   3.085   3.979   1.496 -0.3331  0.0803 -0.4565
  917SOL     OW 3740   3.105   4.222   1.594  0.1208  0.1535  0.1459
  917SOL    HW2 3741   3.104   4.210   1.689 -2.0020 -1.7164 -0.0818
  917SOL    HW3 3742   3.027   4.275   1.576  0.9227  1.1326 -0.4973
  917SOL    MW4 3743   3.095   4.227   1.604 -0.0534  0.0358  0.0309
  918SOL     OW 3744   3.355   4.369   1.518 -0.2569 -0.5779  0.0291
  918SOL    HW2 3745   3.266   4.340   1.540 -0.6048 -0.0361 -0.6490
  918SOL    HW3 3746   3.356   4.374   1.422 -0.2194  1.7071  0.1426
  918SOL    MW4 3747   3.343   4.366   1.508 -0.2978 -0.2046 -0.0453
  919SOL     OW 3748   3.806   4.634   1.527 -0.3937 -0.0124 -0.1980
  919SOL    HW2 3749   3.794   4.638   1.622 -0.7251  0.7851 -0.2738
  919SOL    HW3 3750   3.887   4.683   1.511 -0.3371 -0.1469 -0.3317
  919SOL    MW4 3751   3.815   4.641   1.537 -0.4299  0.0744 -0.2257
  920SOL     OW 3752   3.570   0.095   1.446 -0.3212  0.5408  0.9362
  920SOL    HW2 3753   3.648   0.041   1.462  0.2148  1.2153  0.5940
  920SOL    HW3 3754   3.564   0.100   1.350 -0.4483  0.9781  0.9688
  920SOL    MW4 3755   3.579   0.088   1.435 -0.2675  0.6875  0.8954
  921SOL     OW 3756   3.631   0.343   1.579 -0.5695  0.4763  0.2777
  921SOL    HW2 3757   3.617   0.259   1.536  0.9662 -0.2482  1.1468
  921SOL    HW3 3758   3.547   0.389   1.571 -0.5108  0.1564 -2.9601
  921SOL    MW4 3759   3.618   0.338   1.572 -0.3588  0.3385 -0.0347
  922SOL     OW 3760   3.824   0.501   1.464 -0.2662 -0.8324  0.0664
  922SOL    HW2 3761   3.763   0.454   1.521 -0.4309  0.3676  0.9062
  922SOL    HW3 3762   3.797   0.478   1.375 -0.7824 -1.7649  0.4626
  922SOL    MW4 3763   3.812   0.492   1.460 -0.3562 -0.7971  0.2295
  923SOL     OW 3764   3.789   0.754   1.550  0.2648 -0.1742  0.7958
  923SOL    HW2 3765   3.694   0.765   1.538  0.3442 -1.6852 -1.4474
  923SOL    HW3 3766   3.806   0.663   1.526  2.4633  0.4289 -0.0344
  923SOL    MW4 3767   3.778   0.744   1.545  0.5655 -0.2940  0.3903
  924SOL     OW 3768   3.549   0.860   1.466  0.4068  0.4209 -0.4936
  924SOL    HW2 3769   3.476   0.808   1.500  1.1522 -1.0906 -1.1581
  924SOL    HW3 3770   3.550   0.939   1.520  0.8008 -1.3549  2.1818
  924SOL    MW4 3771   3.539   0.863   1.477  0.5572 -0.0128 -0.2282
  925SOL     OW 3772   3.565   1.101   1.598  0.4120 -0.3390 -0.1139
  925SOL    HW2 3773   3.642   1.152   1.574 -0.4314  1.4389  0.8537
  925SOL    HW3 3774   3.564   1.102   1.694 -0.7258 -0.4582 -0.1193
  925SOL    MW4 3775   3.575   1.108   1.607  0.1504 -0.1200  0.0130
  926SOL     OW 3776   3.784   1.246   1.492 -0.0568 -0.1675 -0.3138
  926SOL    HW2 3777   3.863   1.208   1.531 -0.0095  0.4002  0.1717
  926SOL    HW3 3778   3.786   1.338   1.520 -0.3668  0.0961 -1.1318
  926SOL    MW4 3779   3.795   1.253   1.501 -0.0916 -0.0578 -0.3576
  927SOL     OW 3780   3.751   1.502   1.581  0.7028  0.6985  0.7393
  927SOL    HW2 3781   3.749   1.518   1.675  0.8744 -0.1748  0.8911
  927SOL    HW3 3782   3.681   1.557   1.546 -0.5467 -0.3460  1.5862
  927SOL    MW4 3783   3.742   1.512   1.589  0.5605  0.4455  0.8711
  928SOL     OW 3784   3.552   1.665   1.464 -0.3908  0.0355  0.3284
  928SOL    HW2 3785   3.464   1.632   1.483 -0.3773  0.4948  1.2444
  928SOL    HW3 3786   3.570   1.638   1.374 -1.0064 -1.0616  0.5355
  928SOL    MW4 3787   3.543   1.657   1.455 -0.4702 -0.0488  0.4767
  929SOL     OW 3788   3.593   1.918   1.585  0.6507 -0.4756  0.4771
  929SOL    HW2 3789   3.592   1.846   1.522  0.0118 -1.6127  1.7533
  929SOL    HW3 3790   3.530   1.982   1.550  1.1279 -0.5819 -0.5917
  929SOL    MW4 3791   3.585   1.917   1.572  0.6294 -0.6397  0.5045
  930SOL     OW 3792   3.824   2.081   1.491 -0.3841 -0.0989 -0.4960
  930SOL    HW2 3793   3.815   2.173   1.519  0.5824  0.0175 -0.5501
  930SOL    HW3 3794   3.741   2.040   1.517 -1.3171  1.0660 -1.5408
  930SOL    MW4 3795   3.812   2.088   1.498 -0.3798  0.0703 -0.6410
  931SOL     OW 3796   3.804   2.349   1.588  0.4541 -0.1172  0.2093
  931SOL    HW2 3797   3.818   2.342   1.682  0.6614  0.9269  0.2532
  931SOL    HW3 3798   3.887   2.381   1.553 -0.5126  2.2448  0.0059
  931SOL    MW4 3799   3.817   2.352   1.596  0.3541  0.3321  0.1882
  932SOL     OW 3800   3.566   2.483   1.547 -0.0503 -0.3202  0.3011
  932SOL    HW2 3801   3.570   2.570   1.585 -0.1304  0.4887 -1.5052
  932SOL    HW3 3802   3.652   2.444   1.565  0.3846  0.5528  0.1078
  932SOL    MW4 3803   3.578   2.489   1.554 -0.0031 -0.0985  0.0373
  933SOL     OW 3804   3.608   2.721   1.656 -0.1605  0.7849  0.6697
  933SOL    HW2 3805   3.604   2.714   1.752 -0.3914  0.8141  0.6619
  933SOL    HW3 3806   3.526   2.762   1.631 -1.2204 -1.5022  0.2531
  933SOL    MW4 3807   3.597   2.725   1.666 -0.3309  0.4871  0.6137
  934SOL     OW 3808   3.813   2.840   1.513  0.0390 -0.0812 -0.1554
  934SOL    HW2 3809   3.893   2.793   1.536  0.0121 -0.3904 -0.6812
  934SOL    HW3 3810   3.744   2.794   1.560  0.1967  0.3147  0.4651
  934SOL    MW4 3811   3.815   2.828   1.522  0.0563 -0.0699 -0.1429
  935SOL     OW 3812   3.831   3.084   1.641  0.2190  0.0552 -0.0328
  935SOL    HW2 3813   3.910   3.120   1.600 -0.6930  0.2160 -1.7056
  935SOL    HW3 3814   3.828   2.993   1.612  0.0341 -0.0819  0.4152
  935SOL    MW4 3815   3.841   3.077   1.632  0.0739  0.0584 -0.1943
  936SOL     OW 3816   3.629   3.219   1.541 -0.1032  0.0589 -0.0793
  936SOL    HW2 3817   3.704   3.164   1.563  0.7675  1.2438 -0.0226
  936SOL    HW3 3818   3.609   3.196   1.450  0.2759 -0.3355 -0.0644
  936SOL    MW4 3819   3.637   3.209   1.532  0.0618  0.1631 -0.0699
  937SOL     OW 3820   3.574   3.484   1.609 -0.6929  0.1543  0.5508
  937SOL    HW2 3821   3.659   3.511   1.574 -0.9825 -0.9599 -1.0823
  937SOL    HW3 3822   3.577   3.388   1.604 -2.0314  0.1177  0.5193
  937SOL    MW4 3823   3.586   3.475   1.604 -0.9077  0.0024  0.3312
  938SOL     OW 3824   3.861   3.565   1.539  0.2402  0.1839 -0.1333
  938SOL    HW2 3825   3.936   3.537   1.592  0.6266  2.1916  0.4059
  938SOL    HW3 3826   3.829   3.644   1.582 -1.4524  0.0221 -1.0653
  938SOL    MW4 3827   3.867   3.572   1.551  0.0682  0.4275 -0.1851
  939SOL     OW 3828   3.817   3.840   1.624 -0.0370 -0.3343 -0.2700
  939SOL    HW2 3829   3.894   3.881   1.584 -0.5947  0.3536 -0.6377
  939SOL    HW3 3830   3.743   3.891   1.593 -0.6362 -0.8840  0.2323
  939SOL    MW4 3831   3.818   3.852   1.615 -0.1898 -0.3159 -0.2524
  940SOL     OW 3832   3.594   3.960   1.517 -0.3264 -0.4731 -0.1558
  940SOL    HW2 3833   3.595   4.049   1.553  1.0778 -0.8027  0.6685
  940SOL    HW3 3834   3.506   3.928   1.533 -0.7142  0.6189 -0.0813
  940SOL    MW4 3835   3.583   3.967   1.524 -0.1924 -0.3729 -0.0371
  941SOL     OW 3836   3.578   4.225   1.588  0.0391 -0.2945  0.2365
  941SOL    HW2 3837   3.585   4.247   1.681 -0.2365 -1.8805  0.6415
  941SOL    HW3 3838   3.498   4.269   1.559 -0.9031 -1.3249  1.2137
  941SOL    MW4 3839   3.568   4.234   1.597 -0.1216 -0.6394  0.4189
  942SOL     OW 3840   3.792   4.364   1.492  0.2455  0.2432  0.5110
  942SOL    HW2 3841   3.712   4.330   1.531  0.3976 -0.2304  0.4221
  942SOL    HW3 3842   3.790   4.458   1.509  0.2135  0.0773  1.4882
  942SOL    MW4 3843   3.781   4.372   1.500  0.2613  0.1588  0.6282
  943SOL     OW 3844   4.269   4.637   1.553 -0.6009  0.3973  0.4139
  943SOL    HW2 3845   4.267   4.637   1.648  0.4077  1.0858  0.4372
  943SOL    HW3 3846   4.282   4.545   1.529  0.4429  0.3877  0.9821
  943SOL    MW4 3847   4.271   4.625   1.562 -0.3300  0.4869  0.4920
  944SOL     OW 3848   4.034   0.085   1.473  0.1087 -0.3258  0.1325
  944SOL    HW2 3849   4.039   0.176   1.501  2.2173 -0.5049  0.4357
  944SOL    HW3 3850   4.109   0.043   1.515  0.2518 -1.7849 -1.5201
  944SOL    MW4 3851   4.045   0.091   1.482  0.4058 -0.5419 -0.0455
  945SOL     OW 3852   4.068   0.358   1.523  0.0470  0.3760 -0.2745
  945SOL    HW2 3853   4.058   0.383   1.615  1.1796  1.2024 -0.3756
  945SOL    HW3 3854   3.987   0.388   1.481 -1.3564 -1.7792  0.8227
  945SOL    MW4 3855   4.056   0.365   1.530  0.0114  0.2007 -0.1432
  946SOL     OW 3856   4.296   0.508   1.451  0.0203  0.2572  0.3716
  946SOL    HW2 3857   4.214   0.460   1.463  0.1156  0.6334  2.7282
  946SOL    HW3 3858   4.364   0.448   1.482  0.3910  0.9587  0.9126
  946SOL    MW4 3859   4.294   0.493   1.456  0.0815  0.3994  0.7538
  947SOL     OW 3860   4.259   0.757   1.591 -0.1151 -0.0590 -0.2464
  947SOL    HW2 3861   4.259   0.670   1.551  0.8932 -0.5085  0.6990
  947SOL    HW3 3862   4.337   0.800   1.555  0.6479 -0.3709  0.9883
  947SOL    MW4 3863   4.270   0.751   1.581  0.1187 -0.1594  0.0411
  948SOL     OW 3864   4.051   0.913   1.458  0.4162 -0.3521 -0.0429
  948SOL    HW2 3865   4.115   0.867   1.512  0.4585 -1.1282 -0.7496
  948SOL    HW3 3866   3.969   0.864   1.470  0.3024 -0.2221 -0.2788
  948SOL    MW4 3867   4.048   0.900   1.466  0.4063 -0.4373 -0.1674
  949SOL     OW 3868   4.028   1.157   1.566 -0.2591 -0.2474  0.3418
  949SOL    HW2 3869   4.016   1.158   1.661 -1.8307 -0.4368  0.1692
  949SOL    HW3 3870   4.023   1.064   1.543 -0.7925 -0.1327 -0.0170
  949SOL    MW4 3871   4.026   1.145   1.576 -0.5364 -0.2573  0.2716
  950SOL     OW 3872   4.274   1.275   1.536 -0.2763  0.3290  0.3000
  950SOL    HW2 3873   4.189   1.231   1.546  0.3149 -1.1418 -0.8955
  950SOL    HW3 3874   4.337   1.214   1.574  0.3787  0.8667  0.0830
  950SOL    MW4 3875   4.271   1.261   1.542 -0.1116  0.2059  0.1136
  951SOL     OW 3876   4.232   1.587   1.614 -0.2227  0.1165  0.2030
  951SOL    HW2 3877   4.240   1.495   1.590  0.6326  0.3602 -0.4461
  951SOL    HW3 3878   4.311   1.628   1.580 -1.4004  1.4208 -1.0581
  951SOL    MW4 3879   4.243   1.580   1.606 -0.2651  0.3209 -0.0491
  952SOL     OW 3880   3.979   1.677   1.562 -0.0755  0.2150  0.1136
  952SOL    HW2 3881   4.051   1.615   1.570  0.1438  0.5015  0.3878
  952SOL    HW3 3882   3.900   1.624   1.570  0.1033 -0.1143 -0.2969
  952SOL    MW4 3883   3.978   1.662   1.564 -0.0229  0.2093  0.0956
  953SOL     OW 3884   4.043   1.945   1.552  0.6231  0.4923 -0.0253
  953SOL    HW2 3885   4.010   1.855   1.552  1.2892  0.2391 -1.9947
  953SOL    HW3 3886   3.968   1.999   1.529  0.1600  0.4867  1.4081
  953SOL    MW4 3887   4.029   1.940   1.549  0.6499  0.4580 -0.0960
  954SOL     OW 3888   4.298   2.057   1.490 -0.2943  0.1349  0.5378
  954SOL    HW2 3889   4.219   2.020   1.529 -0.5382  0.2312  0.1404
  954SOL    HW3 3890   4.281   2.057   1.396 -0.0087  0.5863  0.4821
  954SOL    MW4 3891   4.285   2.052   1.483 -0.2890  0.2072  0.4781
  955SOL     OW 3892   4.275   2.330   1.562 -0.5419  0.3285 -0.6409
  955SOL    HW2 3893   4.280   2.332   1.658  0.2512  0.3809 -0.6790
  955SOL    HW3 3894   4.294   2.239   1.539 -1.1108  0.2309 -0.7317
  955SOL    MW4 3895   4.278   2.318   1.572 -0.5126  0.3226 -0.6578
  956SOL     OW 3896   4.039   2.435   1.494  0.4776 -0.3891  0.5247
  956SOL    HW2 3897   4.047   2.524   1.527  1.3640  0.5826 -2.2486
  956SOL    HW3 3898   4.124   2.395   1.513  0.6836 -0.1126  0.1636
  956SOL    MW4 3899   4.051   2.441   1.501  0.6213 -0.2244  0.1112
  957SOL     OW 3900   4.044   2.699   1.588  0.0365  0.0467  0.1031
  957SOL    HW2 3901   4.030   2.695   1.683  0.6093 -2.4868  0.1295
  957SOL    HW3 3902   4.133   2.732   1.578  0.7680 -1.7337  0.5474
  957SOL    MW4 3903   4.054   2.703   1.599  0.2084 -0.5221  0.1652
  958SOL     OW 3904   4.290   2.832   1.539  0.2241  0.1449 -0.1491
  958SOL    HW2 3905   4.289   2.926   1.561  0.3986  0.2944 -0.7682
  958SOL    HW3 3906   4.299   2.830   1.443  0.2829 -0.5076 -0.1310
  958SOL    MW4 3907   4.291   2.844   1.529  0.2551  0.0784 -0.2283
  959SOL     OW 3908   4.260   3.092   1.629 -0.3501  0.0346 -0.0294
  959SOL    HW2 3909   4.251   3.100   1.724  0.2882 -0.5590  0.0877
  959SOL    HW3 3910   4.327   3.156   1.606  1.6997 -1.9230  0.3404
  959SOL    MW4 3911   4.268   3.101   1.638  0.0048 -0.3018  0.0348
  960SOL     OW 3912   4.046   3.218   1.541  0.0928 -0.6297  0.3480
  960SOL    HW2 3913   4.051   3.308   1.573  0.5715 -0.3652 -0.4329
  960SOL    HW3 3914   4.122   3.174   1.578  0.9792 -0.1646 -0.8778
  960SOL    MW4 3915   4.057   3.224   1.550  0.2732 -0.5333  0.0832
  961SOL     OW 3916   4.103   3.470   1.636 -0.3094 -0.0876  0.3521
  961SOL    HW2 3917   4.104   3.490   1.730 -0.5921  0.9162  0.1435
  961SOL    HW3 3918   4.171   3.525   1.599 -1.6554  1.1372 -0.3494
  961SOL    MW4 3919   4.112   3.480   1.644 -0.5245  0.2065  0.2320
  962SOL     OW 3920   4.319   3.614   1.516 -0.5927 -0.2926 -0.2691
  962SOL    HW2 3921   4.315   3.703   1.552  1.8644  0.0014 -0.6409
  962SOL    HW3 3922   4.311   3.625   1.422 -1.3565 -0.5690 -0.2409
  962SOL    MW4 3923   4.318   3.627   1.509 -0.3695 -0.2902 -0.3145
  963SOL     OW 3924   4.296   3.872   1.608 -0.4367  0.3083  0.4481
  963SOL    HW2 3925   4.208   3.907   1.590 -0.3569 -0.2269 -1.0577
  963SOL    HW3 3926   4.355   3.934   1.565 -0.1692 -0.2752 -0.0288
  963SOL    MW4 3927   4.292   3.885   1.600 -0.3905  0.1605  0.1864
  964SOL     OW 3928   4.036   3.984   1.513  0.4517  0.0306 -0.5199
  964SOL    HW2 3929   4.025   4.078   1.530 -2.3031 -0.3511  0.1152
  964SOL    HW3 3930   4.031   3.976   1.418  1.4302  0.5970 -0.6250
  964SOL    MW4 3931   4.033   3.996   1.503  0.2179  0.0551 -0.4500
  965SOL     OW 3932   4.049   4.257   1.563 -0.2439 -0.3085  0.0143
  965SOL    HW2 3933   4.031   4.258   1.657 -0.7208 -0.4433 -0.0734
  965SOL    HW3 3934   3.969   4.292   1.523  0.2721  0.5213 -0.2929
  965SOL    MW4 3935   4.036   4.262   1.570 -0.2389 -0.2165 -0.0379
  966SOL     OW 3936   4.303   4.378   1.489  0.0496 -0.6405  0.1638
  966SOL    HW2 3937   4.220   4.332   1.500 -1.0126  1.1293 -0.2078
  966SOL    HW3 3938   4.310   4.393   1.395 -0.2132  1.0144  0.4025
  966SOL    MW4 3939   4.293   4.374   1.478 -0.1249 -0.1879  0.1462
  967SOL     OW 3940   0.220   4.646   1.876 -0.2592 -0.0614 -0.2852
  967SOL    HW2 3941   0.289   4.712   1.881  1.4527 -1.8793  0.7116
  967SOL    HW3 3942   0.213   4.626   1.783 -1.0039  1.7067 -0.6311
  967SOL    MW4 3943   0.228   4.652   1.864 -0.1316 -0.0680 -0.1992
  968SOL     OW 3944   4.470   0.091   1.927 -0.3611 -0.7462  0.2170
  968SOL    HW2 3945   4.472   0.174   1.879 -1.7216 -0.1407  1.1825
  968SOL    HW3 3946   4.551   0.046   1.901  0.6335  1.0874  0.0476
  968SOL    MW4 3947   4.481   0.096   1.918 -0.4096 -0.4244  0.3220
  969SOL     OW 3948   0.011   0.324   1.796 -0.2439 -0.5381  0.1613
  969SOL    HW2 3949  -0.066   0.372   1.828 -0.1888  0.0221 -0.5222
  969SOL    HW3 3950   0.086   0.375   1.828 -0.1703 -0.5887  0.0684
  969SOL    MW4 3951   0.011   0.337   1.804 -0.2269 -0.4708  0.0589
  970SOL     OW 3952   0.199   0.510   1.928 -0.2669  0.5361 -0.2546
  970SOL    HW2 3953   0.283   0.482   1.892 -0.9444  0.4082 -1.7622
  970SOL    HW3 3954   0.203   0.606   1.926 -0.9203  0.5439 -2.1980
  970SOL    MW4 3955   0.211   0.519   1.923 -0.4425  0.5202 -0.7099
  971SOL     OW 3956   0.214   0.839   1.849 -0.1637 -0.1986 -0.1561
  971SOL    HW2 3957   0.298   0.875   1.878  0.4889 -1.3368 -0.5942
  971SOL    HW3 3958   0.225   0.829   1.754 -0.8030 -0.3231 -0.2154
  971SOL    MW4 3959   0.227   0.842   1.840 -0.1619 -0.3653 -0.2218
  972SOL     OW 3960   4.454   0.917   1.962  0.7538 -0.0649  0.1259
  972SOL    HW2 3961   4.395   0.850   1.929  0.5785  1.5004 -2.8815
  972SOL    HW3 3962   4.541   0.886   1.940  0.9006 -0.8288  1.6855
  972SOL    MW4 3963   4.458   0.904   1.955  0.7501  0.0409 -0.0651
  973SOL     OW 3964   0.013   1.171   1.889 -0.0723 -0.1177  0.1299
  973SOL    HW2 3965  -0.060   1.225   1.918 -0.3660 -0.2578 -0.3391
  973SOL    HW3 3966  -0.006   1.084   1.924 -0.1463 -0.1613 -0.0182
  973SOL    MW4 3967   0.001   1.167   1.898 -0.1206 -0.1419  0.0485
  974SOL     OW 3968   0.237   1.314   1.919  0.0911 -0.2406  0.0019
  974SOL    HW2 3969   0.217   1.400   1.883 -2.1537 -0.6990  0.1349
  974SOL    HW3 3970   0.158   1.262   1.906  1.5138 -2.4005 -0.3631
  974SOL    MW4 3971   0.224   1.319   1.913 -0.0174 -0.5860 -0.0286
  975SOL     OW 3972   0.227   1.594   1.836 -0.0823  0.3279  0.0974
  975SOL    HW2 3973   0.306   1.622   1.881  0.3620  0.6141 -0.8535
  975SOL    HW3 3974   0.155   1.629   1.890  0.4206 -0.1540  1.0963
  975SOL    MW4 3975   0.228   1.603   1.849  0.0427  0.3022  0.1037
  976SOL     OW 3976   0.026   1.705   1.999  0.0399 -0.4039  0.0499
  976SOL    HW2 3977   0.028   1.713   2.094 -1.6360  0.8645 -0.0012
  976SOL    HW3 3978  -0.062   1.671   1.980  0.1879 -0.1732 -1.0790
  976SOL    MW4 3979   0.014   1.702   2.009 -0.1616 -0.2061 -0.1059
  977SOL     OW 3980   4.487   1.946   1.873  0.1743 -0.4719  0.8006
  977SOL    HW2 3981   4.407   1.996   1.890 -0.2418 -1.5987  2.1742
  977SOL    HW3 3982   4.480   1.869   1.929  1.0341 -1.8614 -0.9438
  977SOL    MW4 3983   4.476   1.942   1.883  0.2328 -0.8038  0.7519
  978SOL     OW 3984   0.208   2.102   1.956 -0.7992 -0.5243 -0.3248
  978SOL    HW2 3985   0.215   2.186   1.910 -0.7820  0.4581  1.4540
  978SOL    HW3 3986   0.129   2.062   1.920 -0.6413  0.1125 -1.4010
  978SOL    MW4 3987   0.198   2.108   1.945 -0.7761 -0.3104 -0.2321
  979SOL     OW 3988   0.226   2.360   1.849 -0.3558  0.4113 -0.3944
  979SOL    HW2 3989   0.307   2.398   1.883 -0.2645 -0.1345  0.0167
  979SOL    HW3 3990   0.157   2.398   1.903 -0.1543 -0.9448  0.8602
  979SOL    MW4 3991   0.228   2.370   1.861 -0.3171  0.1605 -0.1746
  980SOL     OW 3992   4.474   2.457   1.969  0.2163 -1.0203  0.1571
  980SOL    HW2 3993   4.477   2.455   2.064  0.1621  0.6970  0.2058
  980SOL    HW3 3994   4.480   2.550   1.946 -0.7173 -1.3313 -1.4751
  980SOL    MW4 3995   4.475   2.469   1.978  0.0858 -0.8349 -0.0517
  981SOL     OW 3996   0.029   2.724   1.876  0.4256 -0.3114 -0.0495
  981SOL    HW2 3997  -0.036   2.791   1.897  0.0624  0.1556 -2.5309
  981SOL    HW3 3998   0.026   2.716   1.781  2.0283 -2.2951  0.0278
  981SOL    MW4 3999   0.020   2.732   1.866  0.5898 -0.5116 -0.3666
  982SOL     OW 4000   0.249   2.834   1.977 -0.2246  0.2539 -0.4623
  982SOL    HW2 4001   0.232   2.924   1.948  1.1990  0.3622 -0.9930
  982SOL    HW3 4002   0.182   2.782   1.932 -0.5892  0.9498 -0.7401
  982SOL    MW4 4003   0.238   2.839   1.967 -0.0849  0.3598 -0.5690
  983SOL     OW 4004   0.211   3.090   1.900  0.3683 -0.1655 -0.3265
  983SOL    HW2 4005   0.289   3.132   1.937  1.0960 -0.7445 -1.1929
  983SOL    HW3 4006   0.226   3.092   1.805 -1.0336  0.4301 -0.5457
  983SOL    MW4 4007   0.223   3.096   1.892  0.2793 -0.1636 -0.4696
  984SOL     OW 4008   4.468   3.253   1.942 -0.2802  0.6842 -0.3929
  984SOL    HW2 4009   4.391   3.199   1.924 -0.6966  1.4251 -0.8519
  984SOL    HW3 4010   4.540   3.208   1.900 -0.6694  0.6079 -0.9748
  984SOL    MW4 4011   4.467   3.240   1.934 -0.3862  0.7720 -0.5302
  985SOL     OW 4012   4.480   3.518   1.887 -0.0270  0.3257  0.0661
  985SOL    HW2 4013   4.412   3.562   1.938  0.7452 -0.4508  1.7679
  985SOL    HW3 4014   4.479   3.427   1.917  0.6309 -0.0865 -1.1035
  985SOL    MW4 4015   4.471   3.512   1.897  0.1616  0.1688  0.1364
  986SOL     OW 4016   0.234   3.585   1.992  0.2277  0.3210 -0.1690
  986SOL    HW2 4017   0.222   3.609   2.084  0.0691 -0.0857 -0.0822
  986SOL    HW3 4018   0.145   3.570   1.960  0.2716  0.6294 -0.4348
  986SOL    MW4 4019   0.221   3.586   2.000  0.2125  0.3080 -0.1926
  987SOL     OW 4020   0.236   3.825   1.872 -0.2178  0.2235  0.4390
  987SOL    HW2 4021   0.300   3.884   1.913 -0.8759  0.7328  0.7337
  987SOL    HW3 4022   0.253   3.740   1.913  0.4983  0.2803  0.2690
  987SOL    MW4 4023   0.247   3.821   1.883 -0.2101  0.2983  0.4555
  988SOL     OW 4024   0.025   3.992   1.985 -0.6150  0.1863 -0.4155
  988SOL    HW2 4025   0.059   4.072   1.946  0.4169  0.3423  0.7850
  988SOL    HW3 4026   0.080   3.922   1.949 -0.5447  0.1777 -0.2901
  988SOL    MW4 4027   0.037   3.993   1.975 -0.4696  0.2058 -0.2406
  989SOL     OW 4028   0.024   4.244   1.857 -0.4078 -0.1077  0.5665
  989SOL    HW2 4029  -0.056   4.280   1.895 -0.3967 -0.4889  0.9396
  989SOL    HW3 4030   0.094   4.294   1.898 -0.4315 -0.0527  0.5407
  989SOL    MW4 4031   0.023   4.256   1.867 -0.4095 -0.1507  0.6124
  990SOL     OW 4032   0.227   4.383   1.969 -0.9022  0.0656  0.1942
  990SOL    HW2 4033   0.185   4.391   2.055 -1.4266 -0.4005 -0.0192
  990SOL    HW3 4034   0.230   4.473   1.935  1.0662  0.5336  1.5256
  990SOL    MW4 4035   0.222   4.396   1.976 -0.7117  0.0658  0.3417
  991SOL     OW 4036   0.691   4.617   1.866  1.0005 -0.2210  0.0744
  991SOL    HW2 4037   0.667   4.539   1.917  0.4380 -0.6279 -0.7843
  991SOL    HW3 4038   0.688   4.587   1.775  2.3344  0.4032 -0.1793
  991SOL    MW4 4039   0.687   4.603   1.861  1.1023 -0.1926 -0.0724
  992SOL     OW 4040   0.437   0.127   1.939 -0.5870 -0.1437  0.0661
  992SOL    HW2 4041   0.439   0.217   1.907 -1.3082 -0.0332  0.3282
  992SOL    HW3 4042   0.513   0.085   1.898  0.0102  0.7026  0.3078
  992SOL    MW4 4043   0.447   0.133   1.929 -0.6034 -0.0175  0.1326
  993SOL     OW 4044   0.423   0.403   1.819  0.0130 -0.0151  0.0277
  993SOL    HW2 4045   0.504   0.445   1.847 -0.0522  0.9898 -1.2282
  993SOL    HW3 4046   0.437   0.385   1.726 -0.8400 -0.6951  0.0301
  993SOL    MW4 4047   0.436   0.407   1.810 -0.1082  0.0277 -0.1377
  994SOL     OW 4048   0.643   0.497   1.965  0.1949  0.2089  0.1667
  994SOL    HW2 4049   0.632   0.479   2.058  0.5320  0.8664  0.3325
  994SOL    HW3 4050   0.727   0.457   1.943  0.0978  0.0210  0.1308
  994SOL    MW4 4051   0.653   0.489   1.974  0.2266  0.2709  0.1838
  995SOL     OW 4052   0.661   0.763   1.917  0.0225 -0.4958  0.3801
  995SOL    HW2 4053   0.738   0.797   1.964 -0.3061 -1.2020  1.4345
  995SOL    HW3 4054   0.651   0.674   1.949 -1.3343 -0.3584  0.3558
  995SOL    MW4 4055   0.670   0.756   1.927 -0.1999 -0.5709  0.5161
  996SOL     OW 4056   0.427   0.913   1.996  0.4140 -0.2073  0.3826
  996SOL    HW2 4057   0.455   0.998   1.961 -1.3019 -0.3098 -1.3295
  996SOL    HW3 4058   0.496   0.853   1.970 -0.6061 -0.1888 -2.5470
  996SOL    MW4 4059   0.440   0.916   1.988  0.0530 -0.2184 -0.2300
  997SOL     OW 4060   0.467   1.159   1.886 -0.3016 -0.1829  0.2400
  997SOL    HW2 4061   0.392   1.209   1.917  0.5588  1.2708  0.0120
  997SOL    HW3 4062   0.466   1.170   1.791 -1.1765 -2.1406  0.0016
  997SOL    MW4 4063   0.457   1.167   1.878 -0.3035 -0.2494  0.1785
  998SOL     OW 4064   0.685   1.297   1.977  0.0371 -0.2347  0.2138
  998SOL    HW2 4065   0.686   1.307   2.072  0.5684  0.2324  0.1638
  998SOL    HW3 4066   0.611   1.239   1.959 -0.7161  0.5430  0.8270
  998SOL    MW4 4067   0.675   1.291   1.987  0.0079 -0.0706  0.2881
  999SOL     OW 4068   0.696   1.560   1.906  0.2647  0.1226  0.6011
  999SOL    HW2 4069   0.700   1.471   1.940  2.2691 -0.1920 -0.4094
  999SOL    HW3 4070   0.709   1.551   1.811 -0.7146  1.3811  0.3242
  999SOL    MW4 4071   0.698   1.547   1.898  0.3999  0.2471  0.4313
 1000SOL     OW 4072   0.469   1.690   1.959 -0.2051  0.7544  0.4320
 1000SOL    HW2 4073   0.478   1.689   2.054 -1.4497 -1.7206  0.5722
 1000SOL    HW3 4074   0.540   1.633   1.927 -1.6233 -0.9067  0.1275
 1000SOL    MW4 4075   0.480   1.682   1.967 -0.5564  0.2087  0.4103
 1001SOL     OW 4076   0.419   1.953   1.850  0.1041 -0.1061 -0.5155
 1001SOL    HW2 4077   0.423   1.861   1.874 -0.6219 -0.8018 -2.8636
 1001SOL    HW3 4078   0.347   1.988   1.902 -0.3767 -1.1542 -0.4626
 1001SOL    MW4 4079   0.410   1.946   1.860 -0.0551 -0.3361 -0.8184
 1002SOL     OW 4080   0.650   2.064   1.983  0.2585  0.2482  0.3700
 1002SOL    HW2 4081   0.634   2.071   2.077 -1.5234 -1.4856  0.2298
 1002SOL    HW3 4082   0.570   2.024   1.948  1.4006 -0.2929 -1.6944
 1002SOL    MW4 4083   0.638   2.060   1.991  0.1741 -0.0520  0.0793
 1003SOL     OW 4084   0.688   2.355   1.848  0.0990 -0.0142  0.3788
 1003SOL    HW2 4085   0.662   2.271   1.885 -0.7435 -0.2957 -0.8059
 1003SOL    HW3 4086   0.702   2.337   1.755 -0.5241  1.2303  0.0303
 1003SOL    MW4 4087   0.686   2.342   1.841 -0.0944  0.1130  0.1765
 1004SOL     OW 4088   0.463   2.484   1.928  0.2451  0.0940 -0.1177
 1004SOL    HW2 4089   0.487   2.485   2.021  0.5260  0.4087 -0.1906
 1004SOL    HW3 4090   0.541   2.450   1.884  0.2291  0.2574 -0.2693
 1004SOL    MW4 4091   0.476   2.480   1.935  0.2800  0.1571 -0.1473
 1005SOL     OW 4092   0.478   2.756   1.865  0.4519 -0.1322  0.5282
 1005SOL    HW2 4093   0.481   2.662   1.884 -1.9563 -0.8689 -2.4278
 1005SOL    HW3 4094   0.394   2.785   1.901  0.8919  0.7675  0.8465
 1005SOL    MW4 4095   0.467   2.748   1.872  0.1923 -0.1106  0.1801
 1006SOL     OW 4096   0.690   2.888   1.991  0.3340 -0.2528  0.0715
 1006SOL    HW2 4097   0.681   2.891   2.087 -0.1363 -0.0036  0.0173
 1006SOL    HW3 4098   0.615   2.837   1.961 -0.1996  0.7329 -0.2672
 1006SOL    MW4 4099   0.679   2.882   2.000  0.2015 -0.0896  0.0197
 1007SOL     OW 4100   0.714   3.132   1.871 -0.2338  0.0413  0.1120
 1007SOL    HW2 4101   0.699   3.048   1.915 -0.2086  0.5722  1.1676
 1007SOL    HW3 4102   0.706   3.113   1.778 -0.4307 -1.0915  0.3570
 1007SOL    MW4 4103   0.711   3.118   1.865 -0.2564 -0.0381  0.2836
 1008SOL     OW 4104   0.464   3.214   1.973 -0.4420 -0.5292 -0.4460
 1008SOL    HW2 4105   0.468   3.305   1.944  0.8956  0.3204  2.2047
 1008SOL    HW3 4106   0.549   3.177   1.947 -0.1238 -0.3876  0.3683
 1008SOL    MW4 4107   0.476   3.221   1.966 -0.2235 -0.3984  0.0113
 1009SOL     OW 4108   0.472   3.479   1.889 -0.0896  0.0264  0.0722
 1009SOL    HW2 4109   0.387   3.518   1.914 -0.2957 -0.0431 -0.5180
 1009SOL    HW3 4110   0.533   3.512   1.955 -0.5811  0.0525  0.5240
 1009SOL    MW4 4111   0.469   3.489   1.901 -0.1816  0.0205  0.0539
 1010SOL     OW 4112   0.649   3.659   1.982 -0.4713  0.1986 -0.3123
 1010SOL    HW2 4113   0.657   3.750   1.955 -0.3054  0.0338 -0.8030
 1010SOL    HW3 4114   0.726   3.615   1.947  0.7556  0.3811  2.0375
 1010SOL    MW4 4115   0.660   3.665   1.974 -0.2876  0.2010 -0.0670
 1011SOL     OW 4116   0.650   3.917   1.898  0.0936  0.1824  0.4320
 1011SOL    HW2 4117   0.735   3.945   1.933  0.3104  0.4937 -0.3373
 1011SOL    HW3 4118   0.668   3.892   1.808 -0.9963  2.2171 -0.3932
 1011SOL    MW4 4119   0.663   3.918   1.891 -0.0216  0.4919  0.2217
 1012SOL     OW 4120   0.413   4.008   1.978  0.4760 -0.0305 -0.1365
 1012SOL    HW2 4121   0.424   4.098   1.949  1.3077  0.3870  1.3821
 1012SOL    HW3 4122   0.497   3.966   1.960  0.4597 -0.1984  0.1630
 1012SOL    MW4 4123   0.425   4.014   1.972  0.5836  0.0024  0.1032
 1013SOL     OW 4124   0.440   4.270   1.845  0.2256  0.4251 -0.5774
 1013SOL    HW2 4125   0.358   4.304   1.881 -0.2233 -1.2013 -0.0003
 1013SOL    HW3 4126   0.426   4.270   1.750 -0.6079 -0.2048 -0.4664
 1013SOL    MW4 4127   0.427   4.274   1.837  0.0564  0.1278 -0.4865
 1014SOL     OW 4128   0.644   4.382   1.983 -0.2899 -0.0028 -0.0210
 1014SOL    HW2 4129   0.727   4.342   1.957  0.1176  0.4774  0.5273
 1014SOL    HW3 4130   0.577   4.325   1.945  0.2896  0.3061 -1.5152
 1014SOL    MW4 4131   0.646   4.369   1.975 -0.1598  0.1011 -0.1457
 1015SOL     OW 4132   1.113   4.654   1.902  0.4931  0.3079 -0.5844
 1015SOL    HW2 4133   1.195   4.685   1.941  0.1330  0.1653  0.2930
 1015SOL    HW3 4134   1.108   4.562   1.927  0.4326  0.1260 -1.2707
 1015SOL    MW4 4135   1.123   4.646   1.911  0.4377  0.2651 -0.5592
 1016SOL     OW 4136   0.884   0.127   1.981 -0.3568 -0.0923 -0.0266
 1016SOL    HW2 4137   0.967   0.090   1.950  0.1066  1.8134 -1.1732
 1016SOL    HW3 4138   0.817   0.079   1.933  0.0682 -1.7911  1.0575
 1016SOL    MW4 4139   0.886   0.116   1.970 -0.2396 -0.0650 -0.0348
 1017SOL     OW 4140   0.894   0.394   1.916  0.5552 -1.0163 -0.0454
 1017SOL    HW2 4141   0.982   0.427   1.936  0.8430 -0.8157 -1.5650
 1017SOL    HW3 4142   0.898   0.302   1.939  1.0352 -0.9137  0.3045
 1017SOL    MW4 4143   0.906   0.386   1.922  0.6565 -0.9763 -0.1998
 1018SOL     OW 4144   1.133   0.507   1.932 -0.2459 -0.3515 -0.0933
 1018SOL    HW2 4145   1.217   0.465   1.951 -0.8010 -1.0436  0.8333
 1018SOL    HW3 4146   1.157   0.596   1.906  0.7794 -0.5353  0.1942
 1018SOL    MW4 4147   1.147   0.513   1.931 -0.1838 -0.4670  0.0669
 1019SOL     OW 4148   1.148   0.776   1.864 -0.0105  0.6337  0.1814
 1019SOL    HW2 4149   1.220   0.822   1.908 -0.2836 -0.8025  2.2072
 1019SOL    HW3 4150   1.069   0.814   1.902 -0.3146  0.9626 -0.7580
 1019SOL    MW4 4151   1.147   0.787   1.875 -0.0867  0.4876  0.3246
 1020SOL     OW 4152   0.897   0.888   1.992  0.0755  0.3744  0.1350
 1020SOL    HW2 4153   0.888   0.895   2.087  0.3826  1.0013  0.1236
 1020SOL    HW3 4154   0.907   0.979   1.962  1.6075  0.0842 -0.3253
 1020SOL    MW4 4155   0.897   0.901   2.000  0.3182  0.4188  0.0730
 1021SOL     OW 4156   0.908   1.165   1.883  0.1241 -0.1448  0.2422
 1021SOL    HW2 4157   0.820   1.190   1.912  0.2321 -0.8728  1.1998
 1021SOL    HW3 4158   0.903   1.170   1.787 -0.9349 -0.0955  0.2874
 1021SOL    MW4 4159   0.896   1.169   1.874 -0.0014 -0.2342  0.3744
 1022SOL     OW 4160   1.144   1.291   1.965  0.0566  0.1137  0.0545
 1022SOL    HW2 4161   1.121   1.382   1.949 -0.6792 -0.0423  0.2412
 1022SOL    HW3 4162   1.066   1.241   1.943  0.2246 -0.4134  0.6265
 1022SOL    MW4 4163   1.131   1.296   1.960 -0.0184  0.0236  0.1546
 1023SOL     OW 4164   1.098   1.581   1.898  0.1110 -0.0475  0.0483
 1023SOL    HW2 4165   1.023   1.636   1.917  1.1264  1.1250  0.7273
 1023SOL    HW3 4166   1.099   1.575   1.802 -1.8546 -1.5403  0.0793
 1023SOL    MW4 4167   1.088   1.588   1.888 -0.0144 -0.0898  0.1422
 1024SOL     OW 4168   0.887   1.728   2.003 -0.5081 -0.2327 -0.1442
 1024SOL    HW2 4169   0.888   1.815   1.962 -0.8048  0.2465  0.8492
 1024SOL    HW3 4170   0.811   1.684   1.964 -0.6719  0.1437 -0.2525
 1024SOL    MW4 4171   0.877   1.734   1.992 -0.5688 -0.1198 -0.0274
 1025SOL     OW 4172   0.872   1.981   1.890 -0.0758  0.0787 -0.3640
 1025SOL    HW2 4173   0.786   2.012   1.919 -0.9128 -0.7347 -1.8656
 1025SOL    HW3 4174   0.856   1.945   1.802  1.0040 -3.5603  0.8203
 1025SOL    MW4 4175   0.858   1.980   1.882 -0.0438 -0.5088 -0.4058
 1026SOL     OW 4176   1.116   2.119   1.953  0.1676  0.3260 -0.1849
 1026SOL    HW2 4177   1.115   2.203   1.907 -0.7500  0.7941  0.6644
 1026SOL    HW3 4178   1.031   2.080   1.933 -0.7484  1.0835  2.0748
 1026SOL    MW4 4179   1.104   2.125   1.945 -0.0743  0.4876  0.2252
 1027SOL     OW 4180   1.114   2.352   1.832 -0.0619  0.1135 -0.3505
 1027SOL    HW2 4181   1.190   2.403   1.860 -0.9656  1.0588  0.4161
 1027SOL    HW3 4182   1.129   2.337   1.738  1.7024 -0.8519  0.0705
 1027SOL    MW4 4183   1.126   2.357   1.823  0.0516  0.1109 -0.1938
 1028SOL     OW 4184   0.899   2.490   1.996  0.0179 -0.3284  0.3536
 1028SOL    HW2 4185   0.967   2.442   1.948 -0.5469 -0.5822 -0.1981
 1028SOL    HW3 4186   0.817   2.455   1.962 -0.3898 -0.1822  1.1872
 1028SOL    MW4 4187   0.897   2.479   1.985 -0.1103 -0.3426  0.3909
 1029SOL     OW 4188   0.890   2.740   1.872  0.0236  0.2293  0.0560
 1029SOL    HW2 4189   0.906   2.677   1.942  0.1242  0.6544  0.4224
 1029SOL    HW3 4190   0.818   2.795   1.906 -1.1768 -0.7064 -0.9354
 1029SOL    MW4 4191   0.882   2.739   1.886 -0.1215  0.1624 -0.0266
 1030SOL     OW 4192   1.113   2.871   1.962  0.0274  0.5585  0.3522
 1030SOL    HW2 4193   1.136   2.852   2.054 -0.9834 -0.2868  0.4406
 1030SOL    HW3 4194   1.032   2.821   1.947  0.5954  0.0795 -1.2225
 1030SOL    MW4 4195   1.105   2.862   1.973 -0.0310  0.3839  0.1563
 1031SOL     OW 4196   1.123   3.122   1.850 -0.1371 -0.3287  0.1845
 1031SOL    HW2 4197   1.065   3.175   1.905 -0.1306  0.2306 -0.3391
 1031SOL    HW3 4198   1.108   3.032   1.878 -2.1234 -0.3024 -0.7761
 1031SOL    MW4 4199   1.114   3.117   1.861 -0.3983 -0.2513 -0.0112
 1032SOL     OW 4200   0.937   3.275   1.994  0.3143  0.6664 -0.4540
 1032SOL    HW2 4201   0.936   3.255   2.087 -1.8005  3.4952  0.2009
 1032SOL    HW3 4202   0.854   3.240   1.961  0.1921  1.3398 -0.8757
 1032SOL    MW4 4203   0.926   3.268   2.002  0.0191  1.1287 -0.4232
 1033SOL     OW 4204   0.870   3.524   1.895 -0.0151  0.4647 -0.4249
 1033SOL    HW2 4205   0.896   3.454   1.955 -0.2994  1.4934  0.9395
 1033SOL    HW3 4206   0.880   3.486   1.808  3.2805 -0.0884  0.1302
 1033SOL    MW4 4207   0.874   3.510   1.892  0.3823  0.5276 -0.1717
 1034SOL     OW 4208   1.116   3.651   1.923  0.2055  0.2713 -0.3868
 1034SOL    HW2 4209   1.107   3.648   2.019  1.7606  1.3146 -0.1855
 1034SOL    HW3 4210   1.039   3.605   1.890  0.9590 -2.3901  1.4116
 1034SOL    MW4 4211   1.105   3.645   1.932  0.5100  0.0579 -0.1230
 1035SOL     OW 4212   1.115   3.922   1.864 -0.1404  0.2289 -0.2356
 1035SOL    HW2 4213   1.110   3.836   1.906 -0.9847  1.4121  2.1930
 1035SOL    HW3 4214   1.204   3.952   1.881 -0.4968  0.7282  0.7607
 1035SOL    MW4 4215   1.126   3.914   1.872 -0.2989  0.4508  0.2164
 1036SOL     OW 4216   0.898   4.001   2.004 -0.1738  0.1508 -0.0577
 1036SOL    HW2 4217   0.917   4.009   2.097 -0.2587 -1.3252  0.0881
 1036SOL    HW3 4218   0.984   3.993   1.963  0.0488  3.5856 -0.4153
 1036SOL    MW4 4219   0.912   4.001   2.011 -0.1556  0.4096 -0.0856
 1037SOL     OW 4220   0.880   4.259   1.877  0.0974  0.3185 -0.1142
 1037SOL    HW2 4221   0.968   4.290   1.900  0.9099 -0.7726 -1.6051
 1037SOL    HW3 4222   0.874   4.173   1.919 -0.2286  0.3575 -0.0841
 1037SOL    MW4 4223   0.891   4.251   1.886  0.1616  0.1793 -0.3070
 1038SOL     OW 4224   1.118   4.370   1.967  0.0925 -0.1095 -0.2878
 1038SOL    HW2 4225   1.131   4.367   2.062 -0.0397 -0.5366 -0.2814
 1038SOL    HW3 4226   1.195   4.325   1.931  0.4403  0.5744 -0.4117
 1038SOL    MW4 4227   1.130   4.363   1.975  0.1209 -0.0758 -0.3034
 1039SOL     OW 4228   1.559   4.635   1.865 -0.0875  0.0627  0.2322
 1039SOL    HW2 4229   1.628   4.689   1.902  0.7140 -0.6450 -0.2100
 1039SOL    HW3 4230   1.582   4.546   1.891  0.4405 -0.4414 -1.8812
 1039SOL    MW4 4231   1.571   4.630   1.874  0.0879 -0.0978 -0.1050
 1040SOL     OW 4232   1.353   0.107   1.993 -0.2384  0.2058  0.1084
 1040SOL    HW2 4233   1.378   0.094   2.084  0.2645 -1.1823 -0.2142
 1040SOL    HW3 4234   1.426   0.072   1.943  0.8538  3.6343 -0.8658
 1040SOL    MW4 4235   1.366   0.101   1.998 -0.0280  0.4750 -0.0625
 1041SOL     OW 4236   1.367   0.374   1.935 -0.7856 -0.0683  0.2156
 1041SOL    HW2 4237   1.366   0.282   1.964 -0.9566 -0.1607 -0.0888
 1041SOL    HW3 4238   1.360   0.370   1.840  0.0042  0.2334  0.1407
 1041SOL    MW4 4239   1.366   0.361   1.927 -0.7038 -0.0407  0.1656
 1042SOL     OW 4240   1.580   0.528   2.006 -0.4697  0.6798 -0.1734
 1042SOL    HW2 4241   1.660   0.484   1.978  0.3585  0.4247  2.4354
 1042SOL    HW3 4242   1.509   0.472   1.975  0.4999 -1.0823  0.7580
 1042SOL    MW4 4243   1.581   0.515   1.998 -0.2326  0.4137  0.2939
 1043SOL     OW 4244   1.573   0.775   1.890 -0.3983  0.7094  0.1241
 1043SOL    HW2 4245   1.644   0.819   1.937 -1.3019  1.1342  1.1253
 1043SOL    HW3 4246   1.567   0.689   1.931 -1.7181  1.3741  1.3357
 1043SOL    MW4 4247   1.582   0.769   1.902 -0.6917  0.8532  0.4160
 1044SOL     OW 4248   1.353   0.912   1.962 -0.2336 -0.3413  0.2222
 1044SOL    HW2 4249   1.367   0.924   2.056  1.2561 -0.6784  0.0575
 1044SOL    HW3 4250   1.425   0.856   1.934 -2.0873 -2.3853 -0.6704
 1044SOL    MW4 4251   1.364   0.906   1.971 -0.2817 -0.6554  0.0826
 1045SOL     OW 4252   1.326   1.152   1.839  0.2554  0.4335  0.2521
 1045SOL    HW2 4253   1.325   1.069   1.886  0.5717  0.4513  0.2914
 1045SOL    HW3 4254   1.265   1.208   1.887 -0.1914  0.1235  0.0431
 1045SOL    MW4 4255   1.318   1.149   1.852  0.2381  0.3949  0.2298
 1046SOL     OW 4256   1.551   1.292   1.959 -0.3733  0.2136 -0.6779
 1046SOL    HW2 4257   1.548   1.384   1.931  0.0420  0.1428 -0.9509
 1046SOL    HW3 4258   1.475   1.252   1.918 -0.7945  0.5279 -0.2230
 1046SOL    MW4 4259   1.540   1.299   1.950 -0.3741  0.2457 -0.6539
 1047SOL     OW 4260   1.566   1.565   1.899 -0.6534 -0.0358  0.3711
 1047SOL    HW2 4261   1.645   1.597   1.942 -1.1600 -0.2457  1.4832
 1047SOL    HW3 4262   1.496   1.621   1.933 -0.9995  0.0911 -0.5350
 1047SOL    MW4 4263   1.567   1.577   1.909 -0.7660 -0.0467  0.3983
 1048SOL     OW 4264   1.357   1.722   2.000  0.2075  0.5272  0.0366
 1048SOL    HW2 4265   1.380   1.685   2.085  0.2631  1.5289  0.4651
 1048SOL    HW3 4266   1.277   1.676   1.975 -0.2715  0.8067  1.0228
 1048SOL    MW4 4267   1.349   1.711   2.008  0.1516  0.6964  0.2232
 1049SOL     OW 4268   1.339   1.963   1.880 -0.7765  0.1625  0.4218
 1049SOL    HW2 4269   1.317   1.882   1.927 -1.4103  0.6429  0.9484
 1049SOL    HW3 4270   1.272   2.025   1.906 -1.4236  0.2939 -1.4982
 1049SOL    MW4 4271   1.327   1.960   1.890 -0.9456  0.2431  0.2379
 1050SOL     OW 4272   1.574   2.095   1.987  0.1644  0.2436 -0.2792
 1050SOL    HW2 4273   1.573   2.165   1.922  1.7939 -0.4756 -1.1261
 1050SOL    HW3 4274   1.500   2.039   1.964 -1.1065  1.6279  0.3632
 1050SOL    MW4 4275   1.564   2.097   1.975  0.2117  0.3314 -0.3061
 1051SOL     OW 4276   1.570   2.320   1.823  0.5254 -0.5454  0.1116
 1051SOL    HW2 4277   1.646   2.363   1.862  0.0654  1.1568 -0.8150
 1051SOL    HW3 4278   1.573   2.345   1.730  0.2824 -2.5780 -0.4740
 1051SOL    MW4 4279   1.580   2.329   1.816  0.4326 -0.5889 -0.0879
 1052SOL     OW 4280   1.357   2.466   1.949 -0.2954  0.7934 -0.1370
 1052SOL    HW2 4281   1.376   2.558   1.933  1.3238  0.6180  0.6531
 1052SOL    HW3 4282   1.439   2.421   1.931 -0.8515 -0.4029  0.2477
 1052SOL    MW4 4283   1.370   2.472   1.944 -0.1551  0.6127  0.0180
 1053SOL     OW 4284   1.328   2.735   1.851 -0.2540  0.0714  0.0982
 1053SOL    HW2 4285   1.239   2.765   1.869 -0.1967  1.3885 -1.6507
 1053SOL    HW3 4286   1.326   2.708   1.759  1.4767  1.3812 -0.3566
 1053SOL    MW4 4287   1.316   2.735   1.841 -0.0180  0.4182 -0.1926
 1054SOL     OW 4288   1.561   2.830   1.985  0.1237 -0.0262  0.2567
 1054SOL    HW2 4289   1.633   2.790   1.938 -0.8236 -0.9364 -0.4438
 1054SOL    HW3 4290   1.484   2.811   1.932 -0.8711 -0.5412  1.8398
 1054SOL    MW4 4291   1.560   2.822   1.972 -0.1326 -0.2146  0.3731
 1055SOL     OW 4292   1.579   3.094   1.870 -0.2358  0.0591  0.2606
 1055SOL    HW2 4293   1.576   3.004   1.904  1.1924  0.4626  1.5510
 1055SOL    HW3 4294   1.595   3.083   1.776  0.8909 -1.0408  0.5570
 1055SOL    MW4 4295   1.581   3.080   1.862  0.1012 -0.0329  0.4700
 1056SOL     OW 4296   1.343   3.236   1.982 -0.3555  0.0811 -0.5993
 1056SOL    HW2 4297   1.421   3.187   1.955 -0.5763 -2.1851  2.6504
 1056SOL    HW3 4298   1.270   3.186   1.947 -0.5108 -0.8634  1.0337
 1056SOL    MW4 4299   1.344   3.223   1.974 -0.4052 -0.3426  0.0449
 1057SOL     OW 4300   1.311   3.482   1.845 -0.2221  0.2005 -0.2424
 1057SOL    HW2 4301   1.311   3.397   1.889 -0.7502  0.2111 -0.2221
 1057SOL    HW3 4302   1.243   3.532   1.890 -0.8504  0.1677 -1.1641
 1057SOL    MW4 4303   1.302   3.477   1.857 -0.3747  0.1976 -0.3613
 1058SOL     OW 4304   1.536   3.622   1.975 -0.0206 -0.0017  0.0559
 1058SOL    HW2 4305   1.539   3.615   2.070  1.2840 -0.6284 -0.0310
 1058SOL    HW3 4306   1.458   3.572   1.950  0.5706 -1.2429  0.6619
 1058SOL    MW4 4307   1.526   3.615   1.984  0.2294 -0.2480  0.1246
 1059SOL     OW 4308   1.610   3.873   1.871  0.3120  0.6497 -0.2128
 1059SOL    HW2 4309   1.685   3.909   1.919  1.1327 -0.0840 -0.9264
 1059SOL    HW3 4310   1.594   3.788   1.912 -0.0507  0.7487 -0.1484
 1059SOL    MW4 4311   1.618   3.866   1.883  0.3725  0.5660 -0.2985
 1060SOL     OW 4312   1.366   3.996   1.955 -0.1955 -0.5635  0.0474
 1060SOL    HW2 4313   1.445   3.948   1.930  0.3024  0.4055 -0.2472
 1060SOL    HW3 4314   1.366   3.993   2.050  1.6724  1.7378  0.1823
 1060SOL    MW4 4315   1.377   3.989   1.964  0.1166 -0.1323  0.0265
 1061SOL     OW 4316   1.351   4.279   1.867  0.4003 -0.5789  0.0695
 1061SOL    HW2 4317   1.364   4.189   1.897  1.2992 -0.3165  0.4771
 1061SOL    HW3 4318   1.348   4.272   1.771  0.6441 -1.0138  0.0951
 1061SOL    MW4 4319   1.352   4.266   1.858  0.5510 -0.6022  0.1266
 1062SOL     OW 4320   1.599   4.370   1.978  0.2037  0.3834 -0.1219
 1062SOL    HW2 4321   1.581   4.385   2.071  1.1124  1.1469 -0.0626
 1062SOL    HW3 4322   1.514   4.347   1.941 -0.1884  0.1976  0.8756
 1062SOL    MW4 4323   1.585   4.369   1.985  0.2718  0.4601  0.0175
 1063SOL     OW 4324   1.968   4.650   1.881  0.1514  0.2261 -0.2639
 1063SOL    HW2 4325   2.050   4.679   1.921 -0.3527  0.4608  0.6139
 1063SOL    HW3 4326   1.960   4.558   1.907 -1.3095  0.9618  2.1711
 1063SOL    MW4 4327   1.978   4.641   1.890 -0.1079  0.3543  0.1732
 1064SOL     OW 4328   1.755   0.135   1.974 -0.0292  0.3882 -0.0267
 1064SOL    HW2 4329   1.751   0.133   2.070 -0.9010 -0.5497 -0.0772
 1064SOL    HW3 4330   1.839   0.092   1.953  0.9334  2.0393  0.3543
 1064SOL    MW4 4331   1.766   0.129   1.984 -0.0173  0.4823  0.0168
 1065SOL     OW 4332   1.785   0.390   1.882  0.0364  0.3666  0.0004
 1065SOL    HW2 4333   1.780   0.295   1.894  1.0922  0.4713  1.4626
 1065SOL    HW3 4334   1.796   0.402   1.788  1.6732 -1.0471 -0.0108
 1065SOL    MW4 4335   1.786   0.379   1.871  0.3916  0.1939  0.1919
 1066SOL     OW 4336   1.995   0.512   1.999  0.3073 -0.7014  0.3664
 1066SOL    HW2 4337   2.005   0.600   1.962  2.0434 -1.0261  0.0001
 1066SOL    HW3 4338   1.918   0.476   1.956  0.3213  0.1840 -0.4106
 1066SOL    MW4 4339   1.987   0.519   1.989  0.5381 -0.6274  0.2155
 1067SOL     OW 4340   2.010   0.782   1.898 -0.3976 -0.1207  0.1130
 1067SOL    HW2 4341   2.068   0.849   1.935 -0.0729 -0.3841  0.0831
 1067SOL    HW3 4342   2.042   0.769   1.809 -1.1445  0.4742 -0.2508
 1067SOL    MW4 4343   2.022   0.789   1.891 -0.4532 -0.0769  0.0612
 1068SOL     OW 4344   1.784   0.896   2.010 -0.2126 -0.0567  0.5554
 1068SOL    HW2 4345   1.789   0.987   1.980 -0.4565 -0.3548 -0.3867
 1068SOL    HW3 4346   1.858   0.852   1.967 -0.4628 -0.4474  0.5241
 1068SOL    MW4 4347   1.795   0.902   2.000 -0.2778 -0.1475  0.4270
 1069SOL     OW 4348   1.780   1.152   1.858  0.2168  0.3443  0.7276
 1069SOL    HW2 4349   1.690   1.173   1.884  0.0460  0.1215  0.3211
 1069SOL    HW3 4350   1.780   1.161   1.763  0.0501 -1.8840  0.4951
 1069SOL    MW4 4351   1.768   1.156   1.849  0.1724  0.0207  0.6433
 1070SOL     OW 4352   2.010   1.286   1.995  0.2061  0.0806  0.1069
 1070SOL    HW2 4353   2.082   1.251   1.942  0.9681  0.9811  0.5254
 1070SOL    HW3 4354   1.930   1.258   1.949  0.8413  0.0495 -1.0007
 1070SOL    MW4 4355   2.009   1.278   1.982  0.3905  0.1951  0.0160
 1071SOL     OW 4356   2.031   1.540   1.870 -0.0579  0.6529  0.4607
 1071SOL    HW2 4357   2.013   1.452   1.903  0.1047  0.8829  1.1832
 1071SOL    HW3 4358   2.003   1.538   1.778  1.1117 -0.5134  0.1199
 1071SOL    MW4 4359   2.025   1.528   1.862  0.1180  0.5294  0.5111
 1072SOL     OW 4360   1.804   1.678   1.975 -0.6313 -0.2357 -0.1000
 1072SOL    HW2 4361   1.800   1.765   1.937  0.6145  0.2937  0.9261
 1072SOL    HW3 4362   1.883   1.639   1.936  0.1037 -0.0452  1.1829
 1072SOL    MW4 4363   1.814   1.684   1.965 -0.3700 -0.1408  0.2047
 1073SOL     OW 4364   1.774   1.939   1.878  0.0046  0.2163 -0.3657
 1073SOL    HW2 4365   1.708   2.002   1.904 -0.6425 -0.6597  0.1282
 1073SOL    HW3 4366   1.787   1.955   1.784 -0.4211  0.8201 -0.3246
 1073SOL    MW4 4367   1.767   1.949   1.869 -0.1370  0.1804 -0.2952
 1074SOL     OW 4368   2.012   2.039   1.984  0.4601 -0.1261  0.0173
 1074SOL    HW2 4369   2.076   1.987   1.936  0.6197  1.1448 -1.1905
 1074SOL    HW3 4370   1.927   2.009   1.950  0.5693  0.7017 -1.0230
 1074SOL    MW4 4371   2.009   2.028   1.973  0.4957  0.1512 -0.2794
 1075SOL     OW 4372   2.041   2.292   1.853 -0.1856 -0.3699 -0.2013
 1075SOL    HW2 4373   2.109   2.334   1.906  0.3156 -1.2518 -0.1287
 1075SOL    HW3 4374   2.029   2.206   1.894  0.1864 -1.0484 -1.4972
 1075SOL    MW4 4375   2.049   2.286   1.865 -0.0703 -0.5758 -0.3628
 1076SOL     OW 4376   1.790   2.422   1.915  0.1409  0.8374  0.3080
 1076SOL    HW2 4377   1.811   2.404   2.007 -0.8457 -1.4146  0.1303
 1076SOL    HW3 4378   1.868   2.395   1.867 -0.1792 -0.0846  0.3028
 1076SOL    MW4 4379   1.803   2.416   1.921 -0.0315  0.4187  0.2841
 1077SOL     OW 4380   1.796   2.707   1.867  0.1507  0.0613 -0.2791
 1077SOL    HW2 4381   1.781   2.612   1.872 -0.0881  0.0501 -1.0975
 1077SOL    HW3 4382   1.801   2.725   1.773  1.4540  0.6658 -0.1082
 1077SOL    MW4 4383   1.795   2.697   1.855  0.2911  0.1397 -0.3647
 1078SOL     OW 4384   2.010   2.805   2.002  0.2173  0.2531 -0.2094
 1078SOL    HW2 4385   2.006   2.793   2.097 -0.7775 -1.5164 -0.4693
 1078SOL    HW3 4386   1.940   2.750   1.968  1.6092 -0.3964 -2.0836
 1078SOL    MW4 4387   2.001   2.796   2.010  0.2697 -0.0658 -0.4909
 1079SOL     OW 4388   2.013   3.059   1.876 -0.2143  0.2134 -0.3732
 1079SOL    HW2 4389   1.944   3.109   1.919 -1.5557 -1.4946 -0.5116
 1079SOL    HW3 4390   2.013   2.974   1.920  2.2360  0.3932  0.0610
 1079SOL    MW4 4391   2.004   3.055   1.888 -0.0679  0.0117 -0.3341
 1080SOL     OW 4392   1.816   3.222   2.001  0.4944  0.1866 -0.2369
 1080SOL    HW2 4393   1.812   3.219   2.096  1.3692 -1.4320 -0.2263
 1080SOL    HW3 4394   1.733   3.185   1.972  0.3376  0.4351 -0.1065
 1080SOL    MW4 4395   1.804   3.217   2.009  0.5891  0.0062 -0.2184
 1081SOL     OW 4396   1.782   3.469   1.912  0.2813 -0.1662 -0.2148
 1081SOL    HW2 4397   1.778   3.380   1.947 -1.0502  0.1966  0.6199
 1081SOL    HW3 4398   1.715   3.517   1.961  1.7738  1.5946  0.1547
 1081SOL    MW4 4399   1.772   3.464   1.923  0.3026  0.1140 -0.0559
 1082SOL     OW 4400   2.026   3.572   1.968  0.4432  0.4136 -0.8178
 1082SOL    HW2 4401   2.030   3.662   1.937 -1.6833  0.6432 -0.4758
 1082SOL    HW3 4402   1.939   3.542   1.945  0.8811 -1.3343 -0.2792
 1082SOL    MW4 4403   2.015   3.580   1.961  0.2205  0.2134 -0.7018
 1083SOL     OW 4404   2.025   3.841   1.898  0.8215  0.1629  0.0828
 1083SOL    HW2 4405   2.097   3.897   1.928  0.8005 -0.7339  1.8902
 1083SOL    HW3 4406   2.016   3.861   1.805  1.8734  1.9862  0.3475
 1083SOL    MW4 4407   2.033   3.851   1.890  0.9575  0.2854  0.3562
 1084SOL     OW 4408   1.845   4.020   1.996  0.2185 -0.1663 -0.1666
 1084SOL    HW2 4409   1.853   4.095   1.937  0.9981  0.0701  0.2406
 1084SOL    HW3 4410   1.914   3.960   1.968 -0.7726 -0.9965 -0.8688
 1084SOL    MW4 4411   1.855   4.022   1.985  0.1906 -0.2446 -0.2056
 1085SOL     OW 4412   1.822   4.247   1.860  0.2804  0.0224 -0.0589
 1085SOL    HW2 4413   1.746   4.286   1.904 -0.8071 -2.1123  0.0479
 1085SOL    HW3 4414   1.808   4.266   1.767  0.3557  0.8346  0.0895
 1085SOL    MW4 4415   1.810   4.255   1.854  0.1467 -0.1516 -0.0253
 1086SOL     OW 4416   1.996   4.398   1.988 -0.2434 -0.5054  0.0951
 1086SOL    HW2 4417   2.081   4.374   1.951 -0.1868  0.8638 -0.6670
 1086SOL    HW3 4418   1.934   4.338   1.948  0.1893 -0.7011 -0.2757
 1086SOL    MW4 4419   1.999   4.387   1.978 -0.1789 -0.3505 -0.0545
 1087SOL     OW 4420   2.445   0.014   1.907  0.3577  0.0693 -0.3027
 1087SOL    HW2 4421   2.528   0.058   1.926 -0.3970  0.9676  1.0617
 1087SOL    HW3 4422   2.459  -0.077   1.933  0.4727  0.5300  1.3155
 1087SOL    MW4 4423   2.458   0.008   1.913  0.2730  0.2480  0.0910
 1088SOL     OW 4424   2.205   0.097   1.968 -0.1439  0.1641  0.7474
 1088SOL    HW2 4425   2.208   0.092   2.063 -1.3068 -2.2102  0.7004
 1088SOL    HW3 4426   2.293   0.073   1.940  0.3746  1.4631  1.2119
 1088SOL    MW4 4427   2.217   0.093   1.977 -0.2291  0.0222  0.8025
 1089SOL     OW 4428   2.227   0.366   1.899  0.3121 -0.4291 -0.1799
 1089SOL    HW2 4429   2.224   0.277   1.935 -2.0957 -0.5438 -0.5804
 1089SOL    HW3 4430   2.149   0.409   1.935  0.9638  1.2307 -0.7282
 1089SOL    MW4 4431   2.216   0.360   1.909  0.0806 -0.2253 -0.3051
 1090SOL     OW 4432   2.415   0.537   1.992  0.1381 -0.0296  0.2919
 1090SOL    HW2 4433   2.502   0.504   1.970 -0.3265 -0.8340 -0.3702
 1090SOL    HW3 4434   2.356   0.467   1.965 -0.7588  0.7601  0.1984
 1090SOL    MW4 4435   2.419   0.524   1.986 -0.0412 -0.0316  0.1923
 1091SOL     OW 4436   2.452   0.799   1.892  0.2323  0.2990 -0.5294
 1091SOL    HW2 4437   2.438   0.710   1.926  0.6055  0.2558 -0.4889
 1091SOL    HW3 4438   2.463   0.788   1.798  0.7259  0.2518 -0.4682
 1091SOL    MW4 4439   2.452   0.786   1.884  0.3467  0.2871 -0.5161
 1092SOL     OW 4440   2.231   0.933   1.999 -0.3815  0.0378 -0.2023
 1092SOL    HW2 4441   2.233   0.926   2.094 -0.3448 -0.8726 -0.2688
 1092SOL    HW3 4442   2.299   0.873   1.969 -1.0498 -0.4154 -0.8332
 1092SOL    MW4 4443   2.240   0.924   2.008 -0.4652 -0.1422 -0.2942
 1093SOL     OW 4444   2.222   1.164   1.860 -0.5811  0.6632  0.0258
 1093SOL    HW2 4445   2.290   1.229   1.878 -0.1956  0.3737 -0.3755
 1093SOL    HW3 4446   2.245   1.090   1.916 -0.0667  0.2299 -0.7445
 1093SOL    MW4 4447   2.234   1.163   1.870 -0.4625  0.5680 -0.1287
 1094SOL     OW 4448   2.438   1.293   1.938 -0.0901  0.4575 -0.1223
 1094SOL    HW2 4449   2.451   1.286   2.032 -0.3075  0.3669 -0.0978
 1094SOL    HW3 4450   2.443   1.387   1.920 -0.9359  0.5502  0.1130
 1094SOL    MW4 4451   2.440   1.305   1.948 -0.2303  0.4579 -0.0880
 1095SOL     OW 4452   2.451   1.553   1.868  0.3545  0.0741  0.4624
 1095SOL    HW2 4453   2.371   1.589   1.906  0.9310  0.6595  1.1558
 1095SOL    HW3 4454   2.450   1.583   1.777  0.8059  1.8538  1.0238
 1095SOL    MW4 4455   2.441   1.562   1.861  0.4902  0.3860  0.6278
 1096SOL     OW 4456   2.239   1.668   1.982 -0.1610 -0.1654  0.0116
 1096SOL    HW2 4457   2.225   1.667   2.077  1.1657  0.0704  0.2194
 1096SOL    HW3 4458   2.161   1.626   1.946 -1.6739  1.6356  1.0676
 1096SOL    MW4 4459   2.227   1.662   1.990 -0.1857  0.1035  0.1783
 1097SOL     OW 4460   2.236   1.904   1.855  0.3018 -0.3513  0.2362
 1097SOL    HW2 4461   2.296   1.943   1.919  1.7348 -1.6014 -0.3028
 1097SOL    HW3 4462   2.224   1.814   1.885  2.0205 -1.3428 -1.9050
 1097SOL    MW4 4463   2.243   1.897   1.867  0.7176 -0.6471 -0.1173
 1098SOL     OW 4464   2.446   2.016   2.012 -0.2511  0.3054  0.1529
 1098SOL    HW2 4465   2.530   1.978   1.987 -0.7678  0.0677 -1.2975
 1098SOL    HW3 4466   2.441   2.098   1.962 -1.3256 -0.1934 -0.5918
 1098SOL    MW4 4467   2.456   2.022   2.002 -0.4611  0.2084 -0.1369
 1099SOL     OW 4468   2.464   2.255   1.869  0.0277  0.1284  0.0047
 1099SOL    HW2 4469   2.537   2.299   1.912 -0.4493  1.2046 -0.2923
 1099SOL    HW3 4470   2.386   2.301   1.900 -0.4697 -0.4737 -0.3388
 1099SOL    MW4 4471   2.463   2.267   1.879 -0.1009  0.1910 -0.0799
 1100SOL     OW 4472   2.252   2.415   1.974 -0.0455  0.0721  0.2248
 1100SOL    HW2 4473   2.267   2.406   2.068  1.5967 -2.0823 -0.2247
 1100SOL    HW3 4474   2.268   2.508   1.956  1.4109  0.1415  1.7902
 1100SOL    MW4 4475   2.256   2.426   1.984  0.3631 -0.2031  0.3722
 1101SOL     OW 4476   2.258   2.681   1.911  0.2423  0.2311  0.4777
 1101SOL    HW2 4477   2.182   2.720   1.954 -0.4176 -0.7502  0.2391
 1101SOL    HW3 4478   2.242   2.694   1.818  0.9858  1.1224  0.4673
 1101SOL    MW4 4479   2.246   2.688   1.904  0.2532  0.2191  0.4448
 1102SOL     OW 4480   2.472   2.839   1.985  0.4905 -0.3294 -0.1662
 1102SOL    HW2 4481   2.442   2.924   1.951  1.0295 -0.0440  0.0575
 1102SOL    HW3 4482   2.399   2.780   1.969 -0.7254  0.6437  1.5889
 1102SOL    MW4 4483   2.459   2.843   1.978  0.4013 -0.1636  0.0949
 1103SOL     OW 4484   2.414   3.084   1.848  0.0883  0.2993  0.0535
 1103SOL    HW2 4485   2.344   3.131   1.894  0.4647  0.7247  0.1894
 1103SOL    HW3 4486   2.494   3.107   1.895  0.1835 -1.0675  0.5673
 1103SOL    MW4 4487   2.415   3.093   1.860  0.1502  0.1752  0.1391
 1104SOL     OW 4488   2.216   3.236   1.960 -0.5026  0.7100  0.3803
 1104SOL    HW2 4489   2.201   3.237   2.055 -0.1642  0.5665  0.4399
 1104SOL    HW3 4490   2.147   3.180   1.925  1.2245 -1.8267  0.8963
 1104SOL    MW4 4491   2.205   3.229   1.968 -0.2301  0.3564  0.4562
 1105SOL     OW 4492   2.227   3.475   1.836  0.0278  0.8032  0.3908
 1105SOL    HW2 4493   2.233   3.382   1.859 -0.1536  0.5136 -0.6954
 1105SOL    HW3 4494   2.151   3.507   1.885 -0.2203  0.2475  0.3750
 1105SOL    MW4 4495   2.217   3.467   1.845 -0.0288  0.6917  0.2456
 1106SOL     OW 4496   2.406   3.598   2.006  0.5628  0.1798  0.0353
 1106SOL    HW2 4497   2.402   3.585   2.101  0.0234 -0.1140 -0.0243
 1106SOL    HW3 4498   2.335   3.543   1.971  3.0263 -2.5869 -0.8394
 1106SOL    MW4 4499   2.396   3.589   2.014  0.8168 -0.2239 -0.0880
 1107SOL     OW 4500   2.445   3.885   1.912 -0.5232 -0.3116 -0.1691
 1107SOL    HW2 4501   2.378   3.946   1.942 -0.3715  0.6212 -1.7189
 1107SOL    HW3 4502   2.411   3.799   1.938 -1.8909  0.2189 -0.1464
 1107SOL    MW4 4503   2.432   3.881   1.919 -0.6838 -0.1185 -0.3705
 1108SOL     OW 4504   2.213   4.018   1.988  0.1558  0.2580 -0.2244
 1108SOL    HW2 4505   2.250   4.026   2.076  0.3776 -0.4870 -0.2489
 1108SOL    HW3 4506   2.219   4.107   1.952  1.9536  0.1622 -0.2319
 1108SOL    MW4 4507   2.219   4.031   1.995  0.4220  0.1469 -0.2286
 1109SOL     OW 4508   2.245   4.293   1.907  0.0848  0.3693  0.5278
 1109SOL    HW2 4509   2.324   4.344   1.924  0.1585  0.1782  0.7540
 1109SOL    HW3 4510   2.244   4.282   1.812  0.4407  0.2018  0.5405
 1109SOL    MW4 4511   2.256   4.298   1.896  0.1414  0.3223  0.5593
 1110SOL     OW 4512   2.484   4.429   1.985  0.1782 -0.2143 -0.0232
 1110SOL    HW2 4513   2.482   4.408   2.078  1.1225  0.5659  0.1775
 1110SOL    HW3 4514   2.560   4.383   1.951  1.5811  1.8608  0.1920
 1110SOL    MW4 4515   2.494   4.420   1.993  0.4878  0.1626  0.0316
 1111SOL     OW 4516   2.896   4.660   1.898  0.2886  0.3233  0.2523
 1111SOL    HW2 4517   2.955   4.731   1.924  1.3058 -0.8773  1.2464
 1111SOL    HW3 4518   2.934   4.581   1.935 -1.0385 -0.7185 -0.5289
 1111SOL    MW4 4519   2.909   4.659   1.906  0.2475  0.0277  0.2803
 1112SOL     OW 4520   2.680   0.142   1.992  0.6732  0.1540 -0.0712
 1112SOL    HW2 4521   2.682   0.130   2.087 -0.0559  0.2201 -0.0505
 1112SOL    HW3 4522   2.747   0.082   1.959  0.1175 -0.7258  0.3940
 1112SOL    MW4 4523   2.689   0.132   2.000  0.5035  0.0466 -0.0072
 1113SOL     OW 4524   2.647   0.425   1.917  0.2450 -0.0462 -0.0026
 1113SOL    HW2 4525   2.736   0.459   1.917  0.0374  0.5011 -0.6547
 1113SOL    HW3 4526   2.657   0.331   1.931  0.9555 -0.0916 -0.8091
 1113SOL    MW4 4527   2.660   0.417   1.919  0.3116  0.0200 -0.1951
 1114SOL     OW 4528   2.908   0.511   1.928  0.0628  0.3064  0.9296
 1114SOL    HW2 4529   2.998   0.490   1.904 -0.3132  0.7754 -1.0189
 1114SOL    HW3 4530   2.898   0.603   1.906 -1.0836  0.0908  0.5069
 1114SOL    MW4 4531   2.919   0.520   1.922 -0.1383  0.3399  0.6168
 1115SOL     OW 4532   2.906   0.774   1.846  0.2447 -0.2570  0.1502
 1115SOL    HW2 4533   2.984   0.822   1.872 -0.3351  2.1352 -2.2440
 1115SOL    HW3 4534   2.835   0.816   1.894  0.0331 -0.2898 -0.1341
 1115SOL    MW4 4535   2.907   0.786   1.855  0.1404  0.0543 -0.2030
 1116SOL     OW 4536   2.692   0.921   1.972  0.1397 -0.4655 -0.3003
 1116SOL    HW2 4537   2.688   1.013   1.949  1.6041 -0.2849  0.0978
 1116SOL    HW3 4538   2.605   0.887   1.952 -0.2701  0.8958 -0.8696
 1116SOL    MW4 4539   2.680   0.928   1.967  0.2789 -0.2621 -0.3229
 1117SOL     OW 4540   2.683   1.181   1.861 -0.0032 -0.0724  0.0469
 1117SOL    HW2 4541   2.603   1.225   1.890  0.4335  0.1492  0.9670
 1117SOL    HW3 4542   2.677   1.179   1.766 -1.7998 -1.3707  0.1510
 1117SOL    MW4 4543   2.672   1.186   1.853 -0.1829 -0.2145  0.1820
 1118SOL     OW 4544   2.916   1.255   1.986  0.2085  0.1450  0.4919
 1118SOL    HW2 4545   2.922   1.339   1.940  1.7981 -0.5526 -0.6359
 1118SOL    HW3 4546   2.830   1.220   1.961  0.1216  0.8035 -0.1453
 1118SOL    MW4 4547   2.905   1.261   1.977  0.4067  0.1400  0.2590
 1119SOL     OW 4548   2.909   1.522   1.888 -0.4804  0.0156 -0.6523
 1119SOL    HW2 4549   2.980   1.579   1.918  0.7681 -1.5227 -0.6257
 1119SOL    HW3 4550   2.926   1.511   1.795  1.2370 -2.9607 -0.0485
 1119SOL    MW4 4551   2.921   1.528   1.880 -0.0892 -0.5801 -0.5691
 1120SOL     OW 4552   2.698   1.663   1.967 -0.1984  0.1511 -0.1914
 1120SOL    HW2 4553   2.764   1.599   1.940 -0.8944 -1.0626  0.9588
 1120SOL    HW3 4554   2.620   1.640   1.917  0.7738  2.8847 -3.1656
 1120SOL    MW4 4555   2.696   1.652   1.957 -0.1619  0.3517 -0.4321
 1121SOL     OW 4556   2.690   1.926   1.893  0.3156 -0.9413 -0.3424
 1121SOL    HW2 4557   2.774   1.964   1.916 -0.1937  0.5874 -0.9802
 1121SOL    HW3 4558   2.698   1.834   1.919  1.9915 -0.7003  0.0630
 1121SOL    MW4 4559   2.702   1.919   1.899  0.4694 -0.7079 -0.3730
 1122SOL     OW 4560   2.916   2.059   1.987  0.3566 -0.1968 -0.0133
 1122SOL    HW2 4561   2.918   2.061   2.082  1.8385 -0.1710 -0.0289
 1122SOL    HW3 4562   3.002   2.024   1.962  0.6848  1.5261 -1.3676
 1122SOL    MW4 4563   2.927   2.055   1.996  0.5953  0.0336 -0.1941
 1123SOL     OW 4564   2.908   2.306   1.868  0.0381  0.3752  0.1759
 1123SOL    HW2 4565   2.973   2.355   1.919  0.7575 -0.8949  0.5022
 1123SOL    HW3 4566   2.917   2.216   1.898 -1.3213  0.0457 -0.3724
 1123SOL    MW4 4567   2.918   2.301   1.879 -0.0465  0.1643  0.1465
 1124SOL     OW 4568   2.679   2.392   1.972 -0.1435 -0.5899  0.1059
 1124SOL    HW2 4569   2.655   2.475   1.932  0.4842 -0.3154  0.2868
 1124SOL    HW3 4570   2.763   2.370   1.932 -0.4419 -1.2747 -0.1442
 1124SOL    MW4 4571   2.687   2.400   1.961 -0.1001 -0.6442  0.0968
 1125SOL     OW 4572   2.668   2.669   1.901  0.0340  0.2478 -0.0338
 1125SOL    HW2 4573   2.599   2.726   1.935 -1.7130 -1.4836 -0.5757
 1125SOL    HW3 4574   2.671   2.688   1.807  0.7510  0.7667  0.0870
 1125SOL    MW4 4575   2.659   2.679   1.893 -0.1020  0.0877 -0.0893
 1126SOL     OW 4576   2.896   2.832   1.956 -0.2149  0.0755  0.2048
 1126SOL    HW2 4577   2.896   2.916   1.910 -0.8271 -0.0868 -0.0926
 1126SOL    HW3 4578   2.812   2.792   1.933 -0.0782 -0.4608  0.6336
 1126SOL    MW4 4579   2.885   2.838   1.947 -0.2775 -0.0167  0.2222
 1127SOL     OW 4580   2.909   3.081   1.855  0.0552 -0.3918  0.3462
 1127SOL    HW2 4581   2.971   3.146   1.890  0.5424 -0.5479 -0.2288
 1127SOL    HW3 4582   2.824   3.109   1.889  0.1972  0.7939 -0.2448
 1127SOL    MW4 4583   2.906   3.093   1.864  0.1380 -0.2561  0.1924
 1128SOL     OW 4584   2.661   3.161   1.953 -0.1169  0.4744 -0.1226
 1128SOL    HW2 4585   2.635   3.246   1.916 -0.7688  0.8836  1.2139
 1128SOL    HW3 4586   2.683   3.181   2.044 -0.2915 -0.7920  0.2069
 1128SOL    MW4 4587   2.660   3.175   1.960 -0.2260  0.3612  0.0972
 1129SOL     OW 4588   2.608   3.438   1.894 -0.0308 -0.5447 -0.0690
 1129SOL    HW2 4589   2.685   3.492   1.911  0.2373 -1.0058  0.1878
 1129SOL    HW3 4590   2.535   3.488   1.932  0.0073  0.3092 -1.0754
 1129SOL    MW4 4591   2.609   3.452   1.902  0.0098 -0.4930 -0.1677
 1130SOL     OW 4592   2.835   3.572   1.976 -0.1200  0.1844 -0.2796
 1130SOL    HW2 4593   2.843   3.584   2.071 -0.9274 -2.2600  0.1462
 1130SOL    HW3 4594   2.925   3.570   1.944  0.2348 -0.8528  0.7333
 1130SOL    MW4 4595   2.848   3.573   1.984 -0.1798 -0.2749 -0.0896
 1131SOL     OW 4596   2.867   3.841   1.895  0.2829 -0.3577 -0.0129
 1131SOL    HW2 4597   2.845   3.749   1.913  0.2003 -0.9350 -2.8904
 1131SOL    HW3 4598   2.867   3.848   1.800  1.1728  2.4395  0.1424
 1131SOL    MW4 4599   2.864   3.830   1.885  0.3893 -0.0646 -0.3721
 1132SOL     OW 4600   2.677   4.007   2.001  0.4263 -0.3672 -0.1012
 1132SOL    HW2 4601   2.737   3.949   1.954  0.8746  0.4054 -0.5019
 1132SOL    HW3 4602   2.592   3.966   1.992 -0.0441  1.2288 -4.1732
 1132SOL    MW4 4603   2.674   3.994   1.994  0.4234 -0.0548 -0.6913
 1133SOL     OW 4604   2.708   4.273   1.895  0.0560  0.1496  0.0305
 1133SOL    HW2 4605   2.680   4.193   1.938 -2.3395  1.6418  1.3417
 1133SOL    HW3 4606   2.705   4.253   1.802  0.4288 -1.5463  0.3645
 1133SOL    MW4 4607   2.704   4.260   1.888 -0.2108  0.1230  0.2475
 1134SOL     OW 4608   2.949   4.397   2.011  0.1959 -0.0052 -0.0697
 1134SOL    HW2 4609   2.918   4.400   2.101  0.0404 -0.0597 -0.1204
 1134SOL    HW3 4610   2.872   4.371   1.960  0.0980  0.7628 -0.3120
 1134SOL    MW4 4611   2.935   4.394   2.016  0.1626  0.0892 -0.1082
 1135SOL     OW 4612   3.371   4.640   1.858  0.6618  0.2858 -0.1789
 1135SOL    HW2 4613   3.345   4.550   1.879  0.8825  0.3501  0.3819
 1135SOL    HW3 4614   3.369   4.644   1.762 -0.0839 -0.0936 -0.1773
 1135SOL    MW4 4615   3.367   4.628   1.848  0.5925  0.2441 -0.1048
 1136SOL     OW 4616   3.166   0.138   1.966  0.1905 -0.7416 -0.2357
 1136SOL    HW2 4617   3.165   0.106   2.056 -0.5816  0.3923  0.1783
 1136SOL    HW3 4618   3.239   0.092   1.925 -0.8081 -2.9447  0.3420
 1136SOL    MW4 4619   3.176   0.128   1.973 -0.0427 -0.8827 -0.1050
 1137SOL     OW 4620   3.142   0.391   1.868 -0.3161  0.0410  0.5617
 1137SOL    HW2 4621   3.165   0.304   1.900 -0.2072  0.6387  2.1244
 1137SOL    HW3 4622   3.135   0.380   1.773 -1.5387 -1.9521  0.8529
 1137SOL    MW4 4623   3.144   0.378   1.860 -0.4630 -0.1431  0.8063
 1138SOL     OW 4624   3.384   0.514   1.939 -0.3760 -0.3683  0.4273
 1138SOL    HW2 4625   3.458   0.457   1.916 -0.9412 -0.4569 -1.2029
 1138SOL    HW3 4626   3.307   0.468   1.907 -0.8873  1.0422 -0.3997
 1138SOL    MW4 4627   3.384   0.501   1.931 -0.5181 -0.1939  0.1031
 1139SOL     OW 4628   3.398   0.773   1.857  0.1009  0.2479  0.6074
 1139SOL    HW2 4629   3.321   0.818   1.891  0.3520 -0.2620  1.8687
 1139SOL    HW3 4630   3.392   0.685   1.893  1.9431  0.5705  1.7664
 1139SOL    MW4 4631   3.387   0.767   1.866  0.3769  0.2233  0.9267
 1140SOL     OW 4632   3.159   0.873   1.928  0.5897  0.3431  0.2193
 1140SOL    HW2 4633   3.165   0.868   2.024 -0.1098  0.0538  0.2461
 1140SOL    HW3 4634   3.171   0.966   1.909  1.7568  0.2657  0.5141
 1140SOL    MW4 4635   3.162   0.885   1.938  0.6514  0.2946  0.2619
 1141SOL     OW 4636   3.141   1.160   1.854 -0.2684 -0.4217 -0.1515
 1141SOL    HW2 4637   3.206   1.221   1.888  0.0628 -0.1042 -1.3294
 1141SOL    HW3 4638   3.060   1.186   1.897 -0.2751  1.3038 -1.1172
 1141SOL    MW4 4639   3.139   1.172   1.864 -0.2255 -0.1521 -0.4343
 1142SOL     OW 4640   3.366   1.283   1.942 -0.4816  0.2775 -0.2063
 1142SOL    HW2 4641   3.373   1.271   2.037 -0.3334 -0.4790 -0.3121
 1142SOL    HW3 4642   3.364   1.378   1.930 -1.2589  0.3721  0.6118
 1142SOL    MW4 4643   3.367   1.294   1.953 -0.5643  0.1903 -0.1123
 1143SOL     OW 4644   3.338   1.543   1.876 -0.2221  0.0613 -0.3308
 1143SOL    HW2 4645   3.418   1.581   1.912 -0.2639  0.4777 -0.6818
 1143SOL    HW3 4646   3.267   1.585   1.926 -0.1940 -0.9996  0.6382
 1143SOL    MW4 4647   3.339   1.554   1.887 -0.2239 -0.0236 -0.2494
 1144SOL     OW 4648   3.137   1.665   2.010 -0.1609 -0.2141  0.4090
 1144SOL    HW2 4649   3.129   1.672   2.106 -0.7298 -0.4591  0.3851
 1144SOL    HW3 4650   3.128   1.756   1.979 -0.0670 -0.1452  0.5809
 1144SOL    MW4 4651   3.134   1.678   2.019 -0.2236 -0.2373  0.4284
 1145SOL     OW 4652   3.164   1.918   1.913  0.2663 -0.3098 -0.3684
 1145SOL    HW2 4653   3.238   1.952   1.964 -1.4783  2.3288  0.4643
 1145SOL    HW3 4654   3.189   1.935   1.822  0.5695  0.8204 -0.0827
 1145SOL    MW4 4655   3.177   1.925   1.907  0.0763  0.1874 -0.2208
 1146SOL     OW 4656   3.367   2.062   2.027 -0.5842 -0.3782  0.2574
 1146SOL    HW2 4657   3.444   2.018   1.990 -0.7127 -0.0344 -0.4238
 1146SOL    HW3 4658   3.356   2.140   1.973 -1.0224 -0.0841  0.7665
 1146SOL    MW4 4659   3.376   2.066   2.015 -0.6590 -0.2942  0.2348
 1147SOL     OW 4660   3.352   2.293   1.885  0.2944  0.0471 -0.2002
 1147SOL    HW2 4661   3.282   2.351   1.917  1.4220  1.5280 -0.3547
 1147SOL    HW3 4662   3.338   2.289   1.790 -0.5930 -1.0414 -0.0332
 1147SOL    MW4 4663   3.341   2.300   1.877  0.3262  0.0989 -0.1986
 1148SOL     OW 4664   3.139   2.429   1.994 -0.4200 -0.2307 -0.7965
 1148SOL    HW2 4665   3.127   2.416   2.088 -1.5800 -0.3031 -0.9570
 1148SOL    HW3 4666   3.124   2.522   1.981 -0.9834 -0.3539 -1.0231
 1148SOL    MW4 4667   3.136   2.439   2.005 -0.6471 -0.2565 -0.8476
 1149SOL     OW 4668   3.118   2.695   1.930 -0.0374  0.2050 -0.6992
 1149SOL    HW2 4669   3.038   2.746   1.941 -0.9957 -1.2333 -0.9325
 1149SOL    HW3 4670   3.122   2.675   1.837  0.6204  0.2863 -0.6967
 1149SOL    MW4 4671   3.108   2.699   1.919 -0.0768  0.0260 -0.7297
 1150SOL     OW 4672   3.325   2.885   1.990  0.1218 -0.1672  0.3641
 1150SOL    HW2 4673   3.329   2.871   2.085  0.5595  0.5517  0.4554
 1150SOL    HW3 4674   3.260   2.822   1.959 -0.2148 -0.2311  1.1828
 1150SOL    MW4 4675   3.317   2.875   1.999  0.1352 -0.0811  0.4842
 1151SOL     OW 4676   3.337   3.152   1.885 -0.3339 -0.4254 -0.8812
 1151SOL    HW2 4677   3.420   3.174   1.928 -0.5239 -0.5690 -0.4372
 1151SOL    HW3 4678   3.312   3.068   1.924 -1.3257  0.2200 -0.0922
 1151SOL    MW4 4679   3.345   3.144   1.896 -0.4900 -0.3593 -0.7185
 1152SOL     OW 4680   3.091   3.259   1.965  0.4670  0.0867 -0.5121
 1152SOL    HW2 4681   3.092   3.354   1.956  0.8507 -0.0008 -1.3546
 1152SOL    HW3 4682   3.178   3.230   1.937  0.8532 -0.3979  1.0833
 1152SOL    MW4 4683   3.103   3.268   1.960  0.5684  0.0112 -0.4128
 1153SOL     OW 4684   3.116   3.539   1.931 -0.6275 -0.4810 -0.0182
 1153SOL    HW2 4685   3.204   3.568   1.954 -1.4339  2.6359 -0.6543
 1153SOL    HW3 4686   3.117   3.532   1.836 -0.8371 -1.2405  0.0342
 1153SOL    MW4 4687   3.128   3.542   1.922 -0.7615 -0.1700 -0.0952
 1154SOL     OW 4688   3.367   3.629   1.994 -0.4275 -0.5674 -0.3945
 1154SOL    HW2 4689   3.442   3.587   1.951  1.1804  0.5117  1.2861
 1154SOL    HW3 4690   3.373   3.721   1.970 -0.6953 -0.3173  0.4776
 1154SOL    MW4 4691   3.378   3.635   1.985 -0.2506 -0.3922 -0.0578
 1155SOL     OW 4692   3.340   3.878   1.889  0.8991  0.8411 -0.3265
 1155SOL    HW2 4693   3.254   3.912   1.914  0.2170 -0.9056 -0.1787
 1155SOL    HW3 4694   3.333   3.860   1.795  0.2600 -1.5647  0.1360
 1155SOL    MW4 4695   3.328   3.880   1.880  0.7250  0.2933 -0.2459
 1156SOL     OW 4696   3.097   3.957   1.971 -0.5486  0.0923 -0.0862
 1156SOL    HW2 4697   3.094   3.974   2.066  0.0910  0.2961 -0.1018
 1156SOL    HW3 4698   3.014   3.913   1.953 -0.4968 -0.3286  0.6469
 1156SOL    MW4 4699   3.085   3.954   1.981 -0.4573  0.0637  0.0085
 1157SOL     OW 4700   3.091   4.205   1.873  0.5074  0.4673 -0.3591
 1157SOL    HW2 4701   3.090   4.118   1.913  2.0584  0.6860  0.1731
 1157SOL    HW3 4702   3.036   4.259   1.931 -2.2036 -0.6122 -1.8223
 1157SOL    MW4 4703   3.083   4.201   1.886  0.3541  0.3538 -0.4820
 1158SOL     OW 4704   3.333   4.385   1.958  0.2543  0.4243 -0.5723
 1158SOL    HW2 4705   3.413   4.333   1.948 -0.3798 -0.7989  0.5523
 1158SOL    HW3 4706   3.262   4.325   1.935 -0.4465  0.9614  0.1544
 1158SOL    MW4 4707   3.334   4.371   1.953  0.0780  0.3343 -0.3281
 1159SOL     OW 4708   3.786   4.658   1.794 -0.0019 -0.4605  0.3076
 1159SOL    HW2 4709   3.805   4.578   1.843  0.8251  0.4109  1.4422
 1159SOL    HW3 4710   3.717   4.700   1.844 -1.3727 -1.0930 -1.0119
 1159SOL    MW4 4711   3.779   4.653   1.807 -0.0734 -0.4287  0.2831
 1160SOL     OW 4712   3.595   0.086   1.944 -0.8903  0.1284  0.1141
 1160SOL    HW2 4713   3.594   0.069   2.038 -0.6096 -0.9070 -0.0661
 1160SOL    HW3 4714   3.521   0.036   1.910 -1.0297  0.5516 -0.2177
 1160SOL    MW4 4715   3.585   0.077   1.952 -0.8717  0.0477  0.0466
 1161SOL     OW 4716   3.604   0.366   1.859  0.3452 -0.2369  0.3304
 1161SOL    HW2 4717   3.606   0.281   1.903 -0.4902 -0.2867  0.2712
 1161SOL    HW3 4718   3.614   0.345   1.766  2.2538 -0.1222  0.4939
 1161SOL    MW4 4719   3.606   0.352   1.853  0.4866 -0.2283  0.3443
 1162SOL     OW 4720   3.821   0.526   1.943 -0.4009  0.0658 -0.0639
 1162SOL    HW2 4721   3.812   0.619   1.922 -0.0365 -0.0866 -0.9313
 1162SOL    HW3 4722   3.739   0.486   1.913 -0.2812  0.0067 -0.3208
 1162SOL    MW4 4723   3.809   0.533   1.936 -0.3371  0.0379 -0.2124
 1163SOL     OW 4724   3.818   0.789   1.839 -0.5260  0.1379 -0.1855
 1163SOL    HW2 4725   3.736   0.827   1.869 -1.0681  1.2942 -3.0004
 1163SOL    HW3 4726   3.812   0.789   1.743  2.2730 -0.8093 -0.4233
 1163SOL    MW4 4727   3.807   0.794   1.830 -0.2282  0.1655 -0.5882
 1164SOL     OW 4728   3.611   0.922   1.941 -0.5674  0.4745 -0.2535
 1164SOL    HW2 4729   3.606   1.017   1.931  0.1489  0.2994 -2.7730
 1164SOL    HW3 4730   3.529   0.889   1.904  0.1718  0.0319 -1.5755
 1164SOL    MW4 4731   3.600   0.930   1.934 -0.3755  0.3930 -0.7602
 1165SOL     OW 4732   3.616   1.187   1.869 -0.1093  0.6216 -0.1398
 1165SOL    HW2 4733   3.545   1.241   1.904 -0.4323  1.3026 -1.8109
 1165SOL    HW3 4734   3.696   1.236   1.890 -0.3385  1.3022 -0.8682
 1165SOL    MW4 4735   3.617   1.201   1.877 -0.1822  0.8013 -0.4565
 1166SOL     OW 4736   3.841   1.300   1.948  0.1246  0.1251  0.1189
 1166SOL    HW2 4737   3.843   1.292   2.044  0.4802  1.1822  0.2042
 1166SOL    HW3 4738   3.825   1.393   1.932 -1.1373 -0.2562 -0.8531
 1166SOL    MW4 4739   3.839   1.311   1.959  0.0050  0.2142  0.0018
 1167SOL     OW 4740   3.803   1.553   1.853  0.2811 -0.0799 -0.1242
 1167SOL    HW2 4741   3.870   1.619   1.872  2.1701 -1.5311 -1.5613
 1167SOL    HW3 4742   3.729   1.578   1.908  2.2985  1.0551  2.1674
 1167SOL    MW4 4743   3.802   1.565   1.863  0.7966 -0.1216 -0.0116
 1168SOL     OW 4744   3.568   1.662   1.976  0.0418 -0.4354 -0.2619
 1168SOL    HW2 4745   3.584   1.668   2.070  0.1776 -0.6639 -0.2695
 1168SOL    HW3 4746   3.582   1.751   1.943  0.9020 -0.5478 -0.2082
 1168SOL    MW4 4747   3.572   1.674   1.984  0.1731 -0.4805 -0.2559
 1169SOL     OW 4748   3.583   1.945   1.881  0.4234  0.3618 -0.7705
 1169SOL    HW2 4749   3.592   1.949   1.786 -0.6160 -2.2720 -1.0075
 1169SOL    HW3 4750   3.664   1.985   1.914  1.8193 -0.7439 -2.7377
 1169SOL    MW4 4751   3.595   1.951   1.873  0.4704 -0.1315 -1.0612
 1170SOL     OW 4752   3.808   2.065   1.984  0.0148 -0.1601 -0.5012
 1170SOL    HW2 4753   3.884   2.030   1.939  0.5805  0.6856 -0.2275
 1170SOL    HW3 4754   3.799   2.154   1.948  0.8800  0.7678  1.5174
 1170SOL    MW4 4755   3.817   2.072   1.973  0.2036  0.0741 -0.1988
 1171SOL     OW 4756   3.816   2.310   1.863 -0.0661 -0.2815  0.2521
 1171SOL    HW2 4757   3.890   2.365   1.889 -0.3263 -0.0727  0.5608
 1171SOL    HW3 4758   3.742   2.344   1.915 -0.0278 -1.5149  1.1374
 1171SOL    MW4 4759   3.816   2.322   1.874 -0.0951 -0.4170  0.4096
 1172SOL     OW 4760   3.593   2.452   1.987 -0.2014  0.4237  0.3594
 1172SOL    HW2 4761   3.566   2.543   1.977  1.4386  0.7792 -1.1779
 1172SOL    HW3 4762   3.522   2.401   1.949 -0.6422  1.1212  0.2452
 1172SOL    MW4 4763   3.580   2.457   1.981 -0.0434  0.5627  0.1415
 1173SOL     OW 4764   3.556   2.736   1.929 -0.0139 -0.0226  0.0640
 1173SOL    HW2 4765   3.638   2.778   1.954 -0.4271  2.3841 -2.4351
 1173SOL    HW3 4766   3.488   2.802   1.946 -0.8153 -0.0612 -2.7886
 1173SOL    MW4 4767   3.558   2.750   1.935 -0.1743  0.2902 -0.6421
 1174SOL     OW 4768   3.797   2.853   1.984 -0.1024  0.0644  0.0219
 1174SOL    HW2 4769   3.792   2.846   2.080  0.5379  0.4125  0.0853
 1174SOL    HW3 4770   3.817   2.946   1.969 -0.1927  0.0049 -0.4515
 1174SOL    MW4 4771   3.799   2.864   1.995 -0.0300  0.1030 -0.0323
 1175SOL     OW 4772   3.850   3.126   1.924 -0.4364  0.0232  0.0186
 1175SOL    HW2 4773   3.762   3.162   1.935  0.2649  2.0254 -0.7306
 1175SOL    HW3 4774   3.865   3.128   1.829  0.3596 -0.4398  0.1303
 1175SOL    MW4 4775   3.840   3.131   1.913 -0.2387  0.2263 -0.0656
 1176SOL     OW 4776   3.588   3.240   1.982  0.6285  0.4485  0.1257
 1176SOL    HW2 4777   3.583   3.250   2.077  2.1844  1.8893  0.0917
 1176SOL    HW3 4778   3.591   3.330   1.949  0.2254 -0.0459 -1.2789
 1176SOL    MW4 4779   3.588   3.253   1.990  0.7808  0.5734 -0.0640
 1177SOL     OW 4780   3.571   3.495   1.879  0.1665  0.1397 -0.2904
 1177SOL    HW2 4781   3.659   3.527   1.899  0.5183  0.5897 -2.4169
 1177SOL    HW3 4782   3.563   3.506   1.784 -1.5172 -1.6059 -0.3712
 1177SOL    MW4 4783   3.582   3.501   1.869 -0.0093 -0.0312 -0.5816
 1178SOL     OW 4784   3.809   3.612   1.992  0.1209  0.0176 -0.2013
 1178SOL    HW2 4785   3.899   3.587   1.968  0.4959 -0.1533  1.3315
 1178SOL    HW3 4786   3.798   3.700   1.956  0.2672 -0.6535 -1.9507
 1178SOL    MW4 4787   3.820   3.620   1.984  0.1898 -0.0935 -0.2298
 1179SOL     OW 4788   3.790   3.912   1.909  0.3874  0.3717  0.2508
 1179SOL    HW2 4789   3.701   3.948   1.912  0.7235  1.1769  0.8180
 1179SOL    HW3 4790   3.807   3.897   1.816 -1.3837 -2.4657  0.3014
 1179SOL    MW4 4791   3.780   3.915   1.897  0.1981  0.1035  0.3324
 1180SOL     OW 4792   3.550   4.020   1.956 -0.4318  0.0053  0.1313
 1180SOL    HW2 4793   3.563   4.009   2.050  0.3348 -1.7946 -0.1578
 1180SOL    HW3 4794   3.470   3.970   1.938 -0.0228 -0.4996 -0.3146
 1180SOL    MW4 4795   3.541   4.012   1.966 -0.2768 -0.2990  0.0343
 1181SOL     OW 4796   3.570   4.281   1.854 -0.0177 -0.2974 -0.4202
 1181SOL    HW2 4797   3.636   4.328   1.905  0.5880 -0.6974 -0.8332
 1181SOL    HW3 4798   3.566   4.194   1.895 -0.5260 -0.1764 -0.1959
 1181SOL    MW4 4799   3.578   4.275   1.866 -0.0048 -0.3343 -0.4450
 1182SOL     OW 4800   3.813   4.414   1.927  0.2470  0.5187 -0.0019
 1182SOL    HW2 4801   3.825   4.411   2.022  1.0245 -1.6410 -0.1444
 1182SOL    HW3 4802   3.880   4.355   1.892 -0.5445  0.6691 -1.8498
 1182SOL    MW4 4803   3.824   4.406   1.935  0.2451  0.2537 -0.2646
 1183SOL     OW 4804   4.238   4.661   1.831 -0.3183  0.0244  0.1061
 1183SOL    HW2 4805   4.157   4.711   1.843 -0.5569 -0.3993  0.3053
 1183SOL    HW3 4806   4.307   4.717   1.867 -0.4215  0.6966 -0.7181
 1183SOL    MW4 4807   4.236   4.675   1.837 -0.3629  0.0572  0.0237
 1184SOL     OW 4808   4.008   0.159   1.889 -0.1311 -0.1752 -0.8661
 1184SOL    HW2 4809   4.016   0.129   1.980 -1.7924  0.8257 -0.3661
 1184SOL    HW3 4810   3.931   0.114   1.855  0.6351 -0.7495 -1.8780
 1184SOL    MW4 4811   3.999   0.149   1.897 -0.2489 -0.1189 -0.9336
 1185SOL     OW 4812   4.044   0.420   1.813 -0.2379  0.4351 -0.0042
 1185SOL    HW2 4813   4.023   0.327   1.810 -0.1030  0.4319 -2.5356
 1185SOL    HW3 4814   3.964   0.463   1.842 -1.5360 -0.1888 -2.5066
 1185SOL    MW4 4815   4.031   0.414   1.816 -0.3910  0.3524 -0.6684
 1186SOL     OW 4816   4.284   0.444   1.934  0.0328  0.2898  0.2087
 1186SOL    HW2 4817   4.274   0.462   2.027  0.5595 -0.6847  0.4627
 1186SOL    HW3 4818   4.195   0.441   1.899 -0.1198  1.9058  0.4342
 1186SOL    MW4 4819   4.271   0.446   1.941  0.0825  0.3744  0.2720
 1187SOL     OW 4820   4.276   0.733   1.864  0.1154  0.4339  0.0946
 1187SOL    HW2 4821   4.274   0.639   1.884 -1.9198  0.2814 -0.7460
 1187SOL    HW3 4822   4.290   0.737   1.770 -0.1671  0.9594  0.0750
 1187SOL    MW4 4823   4.277   0.721   1.854 -0.1903  0.4831 -0.0188
 1188SOL     OW 4824   4.051   0.909   1.938  0.6688 -0.3105  0.6524
 1188SOL    HW2 4825   4.122   0.848   1.916 -0.4833 -1.0459 -1.1080
 1188SOL    HW3 4826   3.972   0.869   1.902 -0.5303  0.9314  1.8256
 1188SOL    MW4 4827   4.050   0.896   1.930  0.3586 -0.2436  0.5749
 1189SOL     OW 4828   4.059   1.165   1.836  0.1682  0.4024  0.0006
 1189SOL    HW2 4829   4.053   1.075   1.868 -0.7831  0.0790 -1.0481
 1189SOL    HW3 4830   3.991   1.212   1.885  0.8496  0.6161  0.7471
 1189SOL    MW4 4831   4.049   1.159   1.847  0.1326  0.3878 -0.0393
 1190SOL     OW 4832   4.250   1.318   1.965 -0.0155  0.2674  0.2099
 1190SOL    HW2 4833   4.246   1.310   2.060  0.2109 -1.3566  0.0863
 1190SOL    HW3 4834   4.190   1.251   1.932  0.0133  0.7261 -0.8042
 1190SOL    MW4 4835   4.241   1.308   1.973  0.0181  0.1135  0.0598
 1191SOL     OW 4836   4.276   1.595   1.904  0.6896 -0.0308 -0.3045
 1191SOL    HW2 4837   4.259   1.502   1.922 -1.0194  0.0867 -1.2304
 1191SOL    HW3 4838   4.282   1.599   1.808 -1.0274  1.1153 -0.3667
 1191SOL    MW4 4839   4.275   1.583   1.893  0.2370  0.1360 -0.4349
 1192SOL     OW 4840   4.027   1.699   1.964  0.0124 -0.5024 -0.4293
 1192SOL    HW2 4841   4.029   1.705   2.059  0.9873 -1.5549 -0.3683
 1192SOL    HW3 4842   4.108   1.653   1.941 -0.4044 -0.6167 -1.7306
 1192SOL    MW4 4843   4.038   1.693   1.973  0.0863 -0.6564 -0.5929
 1193SOL     OW 4844   4.014   1.935   1.847 -0.0115  0.2918 -0.0988
 1193SOL    HW2 4845   4.021   1.846   1.881 -2.8718  0.2282  0.4818
 1193SOL    HW3 4846   4.014   1.924   1.752 -0.4490 -0.3678 -0.0304
 1193SOL    MW4 4847   4.015   1.922   1.839 -0.4463  0.1965 -0.0132
 1194SOL     OW 4848   4.233   2.054   1.944 -0.4482  0.6347 -0.4425
 1194SOL    HW2 4849   4.225   2.046   2.039  0.1107 -0.8703 -0.5041
 1194SOL    HW3 4850   4.154   2.012   1.910  0.0219 -0.0559 -0.6760
 1194SOL    MW4 4851   4.222   2.048   1.952 -0.3123  0.3452 -0.4815
 1195SOL     OW 4852   4.253   2.333   1.848 -0.1288  0.2642 -0.2272
 1195SOL    HW2 4853   4.249   2.250   1.896  0.6169  0.1692 -0.3323
 1195SOL    HW3 4854   4.329   2.379   1.885 -0.2252  0.6770 -0.5322
 1195SOL    MW4 4855   4.263   2.328   1.859 -0.0434  0.3059 -0.2812
 1196SOL     OW 4856   4.030   2.465   1.958  0.1246 -0.2170 -0.3524
 1196SOL    HW2 4857   4.044   2.459   2.052 -0.8681  0.5506 -0.1554
 1196SOL    HW3 4858   4.099   2.409   1.920  0.8855 -0.0706  0.7911
 1196SOL    MW4 4859   4.041   2.457   1.965  0.0939 -0.0966 -0.1755
 1197SOL     OW 4860   4.019   2.719   1.868 -0.3506 -0.4066 -0.3618
 1197SOL    HW2 4861   4.018   2.631   1.906 -0.2331  0.5500  1.9992
 1197SOL    HW3 4862   3.937   2.759   1.900 -0.0759  0.5550 -0.8425
 1197SOL    MW4 4863   4.008   2.713   1.878 -0.2985 -0.1538 -0.1137
 1198SOL     OW 4864   4.270   2.814   1.964  0.3360 -0.5209 -0.4937
 1198SOL    HW2 4865   4.258   2.811   2.059  0.5194 -1.2914 -0.4890
 1198SOL    HW3 4866   4.185   2.785   1.929  0.4117 -0.6687 -0.5547
 1198SOL    MW4 4867   4.257   2.810   1.972  0.3705 -0.6421 -0.5010
 1199SOL     OW 4868   4.247   3.093   1.902  0.0935 -0.5145 -0.1530
 1199SOL    HW2 4869   4.186   3.143   1.956 -0.1915 -1.0727  0.0527
 1199SOL    HW3 4870   4.232   3.002   1.929  2.4349 -0.4869  1.3663
 1199SOL    MW4 4871   4.237   3.087   1.913  0.3648 -0.5846  0.0746
 1200SOL     OW 4872   4.060   3.262   2.025  0.0790 -0.0145 -0.0993
 1200SOL    HW2 4873   4.043   3.255   2.119 -0.1030 -0.5057 -0.1709
 1200SOL    HW3 4874   3.989   3.214   1.984  0.0709  0.3406 -0.4962
 1200SOL    MW4 4875   4.049   3.255   2.032  0.0539 -0.0324 -0.1612
 1201SOL     OW 4876   4.055   3.510   1.899  0.2045  0.2618  0.0103
 1201SOL    HW2 4877   4.125   3.554   1.948 -0.6206  1.4191  0.1763
 1201SOL    HW3 4878   4.046   3.425   1.942  0.0668  0.9368  1.3426
 1201SOL    MW4 4879   4.063   3.505   1.911  0.0782  0.5035  0.2079
 1202SOL     OW 4880   4.266   3.668   2.003 -0.7726  0.1549  0.0933
 1202SOL    HW2 4881   4.264   3.762   1.988  1.3615 -0.0980 -2.0784
 1202SOL    HW3 4882   4.267   3.659   2.098  0.7299  2.3889  0.3262
 1202SOL    MW4 4883   4.265   3.679   2.014 -0.2933  0.4163 -0.1626
 1203SOL     OW 4884   4.263   3.926   1.904  0.7143  0.1080  0.4438
 1203SOL    HW2 4885   4.345   3.963   1.935  0.0253  1.2075  0.9841
 1203SOL    HW3 4886   4.276   3.910   1.810  1.1962  1.2042  0.3283
 1203SOL    MW4 4887   4.275   3.929   1.896  0.6871  0.3979  0.4998
 1204SOL     OW 4888   4.015   4.051   2.014 -0.0016  0.0661  0.5711
 1204SOL    HW2 4889   4.078   3.991   1.974 -0.2803  1.3861 -1.9949
 1204SOL    HW3 4890   3.929   4.018   1.985 -0.2366  0.7184  0.5052
 1204SOL    MW4 4891   4.012   4.038   2.005 -0.0696  0.3266  0.2236
 1205SOL     OW 4892   4.022   4.251   1.832 -0.1730  0.8084 -0.0200
 1205SOL    HW2 4893   4.100   4.300   1.858  0.7383 -0.9978  0.7128
 1205SOL    HW3 4894   4.019   4.176   1.892 -0.7791 -0.7813 -1.9982
 1205SOL    MW4 4895   4.032   4.247   1.844 -0.1326  0.3610 -0.1843
 1206SOL     OW 4896   4.259   4.372   1.914  0.2848  0.0842 -0.2144
 1206SOL    HW2 4897   4.241   4.391   2.007  0.7009  2.0067 -0.5032
 1206SOL    HW3 4898   4.264   4.459   1.873  0.6878 -0.7410 -1.9295
 1206SOL    MW4 4899   4.257   4.386   1.921  0.3929  0.2294 -0.4787
 1207SOL     OW 4900   0.172   0.013   2.329 -0.0283  0.4094 -0.2014
 1207SOL    HW2 4901   0.184   0.024   2.424 -0.4765 -1.3512  0.0843
 1207SOL    HW3 4902   0.246   0.060   2.290  1.4768 -0.7958  1.1117
 1207SOL    MW4 4903   0.184   0.021   2.336  0.1111  0.0176  0.0095
 1208SOL     OW 4904   4.423   0.145   2.205  0.1872  0.3923  0.4285
 1208SOL    HW2 4905   4.490   0.091   2.248 -0.2152  0.1654  0.7741
 1208SOL    HW3 4906   4.435   0.128   2.112  0.4946  0.2123  0.4995
 1208SOL    MW4 4907   4.434   0.136   2.199  0.1745  0.3386  0.4833
 1209SOL     OW 4908   4.468   0.375   2.353 -0.1872  0.0196  0.3726
 1209SOL    HW2 4909   4.530   0.424   2.301 -0.1630 -0.3142  0.0846
 1209SOL    HW3 4910   4.455   0.293   2.305  0.0513 -0.4055  1.0309
 1209SOL    MW4 4911   4.474   0.371   2.340 -0.1526 -0.0805  0.4213
 1210SOL     OW 4912   0.169   0.515   2.208  0.0311 -0.2045  0.1473
 1210SOL    HW2 4913   0.250   0.470   2.233  0.0318  0.1785  0.8364
 1210SOL    HW3 4914   0.175   0.524   2.113  0.3444 -1.0625  0.0804
 1210SOL    MW4 4915   0.181   0.510   2.199  0.0726 -0.2672  0.2294
 1211SOL     OW 4916   0.173   0.775   2.328  0.2662 -0.2582  0.3809
 1211SOL    HW2 4917   0.197   0.780   2.421  1.0160 -0.9485  0.2264
 1211SOL    HW3 4918   0.180   0.682   2.306  0.8487  0.0104 -0.5761
 1211SOL    MW4 4919   0.177   0.763   2.338  0.4420 -0.3138  0.2346
 1212SOL     OW 4920   4.430   0.885   2.238  0.2015 -0.1439 -0.2956
 1212SOL    HW2 4921   4.516   0.851   2.264 -0.6495 -2.2677 -0.0926
 1212SOL    HW3 4922   4.434   0.892   2.143 -0.1483 -2.5405 -0.5231
 1212SOL    MW4 4923   4.442   0.881   2.229  0.0424 -0.7403 -0.2990
 1213SOL     OW 4924   4.458   1.170   2.337 -0.3966 -0.0479 -0.3331
 1213SOL    HW2 4925   4.475   1.162   2.430  1.9422  1.7430 -0.5596
 1213SOL    HW3 4926   4.443   1.080   2.307  0.7341 -0.8407  1.4085
 1213SOL    MW4 4927   4.458   1.157   2.345  0.0612  0.0837 -0.1330
 1214SOL     OW 4928   0.208   1.299   2.247 -0.3899 -0.0505  0.2749
 1214SOL    HW2 4929   0.129   1.248   2.265 -0.0315 -0.7392 -0.0933
 1214SOL    HW3 4930   0.225   1.285   2.154  0.5060 -0.3779  0.4828
 1214SOL    MW4 4931   0.200   1.291   2.237 -0.2244 -0.1845  0.2537
 1215SOL     OW 4932   0.264   1.569   2.347 -0.5359  0.6654  0.3377
 1215SOL    HW2 4933   0.254   1.562   2.442  0.7628  0.4541  0.4632
 1215SOL    HW3 4934   0.246   1.481   2.314 -1.8220  0.9350  0.3066
 1215SOL    MW4 4935   0.260   1.556   2.355 -0.5343  0.6732  0.3500
 1216SOL     OW 4936   4.488   1.667   2.297 -0.6791 -0.0704  0.2501
 1216SOL    HW2 4937   4.479   1.759   2.324 -0.2329 -0.4949  1.8957
 1216SOL    HW3 4938   4.580   1.647   2.311 -0.6900 -0.6654 -0.4931
 1216SOL    MW4 4939   4.499   1.677   2.302 -0.6217 -0.2048  0.3693
 1217SOL     OW 4940   4.469   1.947   2.291 -0.2323  0.3743 -0.1716
 1217SOL    HW2 4941   4.391   1.996   2.263  0.4015  0.2738 -2.1948
 1217SOL    HW3 4942   4.542   2.008   2.276  0.3424 -0.4369 -0.6984
 1217SOL    MW4 4943   4.468   1.962   2.285 -0.0728  0.2542 -0.5083
 1218SOL     OW 4944   0.219   2.089   2.259  0.6333  0.0905 -0.3199
 1218SOL    HW2 4945   0.305   2.049   2.277  0.5419 -0.1446 -0.4070
 1218SOL    HW3 4946   0.215   2.096   2.164  1.2383  1.6080 -0.2492
 1218SOL    MW4 4947   0.230   2.085   2.249  0.7010  0.2599 -0.3219
 1219SOL     OW 4948   0.235   2.349   2.348 -0.9047 -0.3053  0.0312
 1219SOL    HW2 4949   0.248   2.344   2.443  2.1462 -0.5638 -0.3555
 1219SOL    HW3 4950   0.213   2.260   2.322 -2.3484 -0.1109  0.5679
 1219SOL    MW4 4951   0.234   2.337   2.357 -0.6927 -0.3138  0.0510
 1220SOL     OW 4952   4.474   2.453   2.251  0.4130  0.1940 -0.0140
 1220SOL    HW2 4953   4.458   2.537   2.293 -0.2875 -1.3492  2.9672
 1220SOL    HW3 4954   4.558   2.424   2.287  1.1197  0.0579 -1.7654
 1220SOL    MW4 4955   4.483   2.460   2.262  0.4138 -0.0279  0.1483
 1221SOL     OW 4956   4.468   2.707   2.381 -0.2398  0.6365  0.4045
 1221SOL    HW2 4957   4.464   2.717   2.476  0.0405  0.3701  0.4446
 1221SOL    HW3 4958   4.557   2.734   2.358  0.0554 -0.3680  0.3462
 1221SOL    MW4 4959   4.479   2.712   2.391 -0.1640  0.4687  0.4022
 1222SOL     OW 4960   0.203   2.813   2.261  0.3153 -0.1490  0.3774
 1222SOL    HW2 4961   0.290   2.777   2.275  0.4779  0.1304  0.0957
 1222SOL    HW3 4962   0.196   2.821   2.165 -0.1829 -0.5828  0.3768
 1222SOL    MW4 4963   0.213   2.809   2.250  0.2710 -0.1693  0.3405
 1223SOL     OW 4964   0.219   3.094   2.326  0.2867 -0.0591 -0.2280
 1223SOL    HW2 4965   0.143   3.119   2.274 -0.5726 -1.0478  0.5424
 1223SOL    HW3 4966   0.226   3.000   2.314 -0.0891 -0.3393  1.6565
 1223SOL    MW4 4967   0.210   3.085   2.318  0.1238 -0.2265  0.1223
 1224SOL     OW 4968   4.470   3.197   2.214 -0.3414 -0.3201  0.3448
 1224SOL    HW2 4969   4.481   3.283   2.255 -0.0148  0.0293 -0.4656
 1224SOL    HW3 4970   4.465   3.215   2.121 -0.0365 -1.2007  0.1483
 1224SOL    MW4 4971   4.471   3.211   2.207 -0.2589 -0.3905  0.2120
 1225SOL     OW 4972   4.483   3.444   2.348  0.1189  0.2177 -0.3180
 1225SOL    HW2 4973   4.492   3.462   2.441  1.0287  1.6755 -0.6707
 1225SOL    HW3 4974   4.405   3.491   2.321 -0.8036 -1.1412 -0.0758
 1225SOL    MW4 4975   4.474   3.452   2.356  0.1173  0.2308 -0.3328
 1226SOL     OW 4976   0.197   3.615   2.263  0.2785 -0.3945 -0.7126
 1226SOL    HW2 4977   0.274   3.576   2.304 -0.7609 -0.7093  1.0129
 1226SOL    HW3 4978   0.125   3.556   2.287 -0.6723  0.4679 -1.4049
 1226SOL    MW4 4979   0.197   3.602   2.272  0.0159 -0.3223 -0.5760
 1227SOL     OW 4980   0.203   3.873   2.382  0.1184 -0.1866 -0.1806
 1227SOL    HW2 4981   0.121   3.911   2.350 -0.1543 -0.4639  0.1964
 1227SOL    HW3 4982   0.202   3.783   2.350  0.1262 -0.2855  0.1020
 1227SOL    MW4 4983   0.192   3.866   2.373  0.0834 -0.2363 -0.0935
 1228SOL     OW 4984   0.005   3.996   2.261 -0.0652 -0.2454 -0.1034
 1228SOL    HW2 4985  -0.026   4.085   2.275 -0.7823 -0.3332 -1.0492
 1228SOL    HW3 4986   0.018   3.989   2.166 -2.9768 -2.0377 -0.4660
 1228SOL    MW4 4987   0.002   4.007   2.250 -0.5439 -0.4930 -0.2761
 1229SOL     OW 4988   4.436   4.265   2.329  0.1974 -0.0233 -0.6361
 1229SOL    HW2 4989   4.444   4.248   2.423 -1.3152 -0.8356 -0.6438
 1229SOL    HW3 4990   4.513   4.318   2.308  0.7017 -0.0742  1.0014
 1229SOL    MW4 4991   4.448   4.270   2.339  0.0648 -0.1369 -0.4208
 1230SOL     OW 4992   0.157   4.414   2.233  0.3845  0.3155  0.3162
 1230SOL    HW2 4993   0.237   4.372   2.266  0.8058  0.4492 -0.5264
 1230SOL    HW3 4994   0.161   4.503   2.267  0.1608  0.0758  0.9869
 1230SOL    MW4 4995   0.168   4.420   2.242  0.4105  0.3014  0.2935
 1231SOL     OW 4996   0.635   4.631   2.342  0.2396  0.1952 -0.1771
 1231SOL    HW2 4997   0.636   4.633   2.438 -1.9353 -0.3267 -0.1261
 1231SOL    HW3 4998   0.694   4.702   2.316  0.3705  0.7435  1.5464
 1231SOL    MW4 4999   0.643   4.640   2.352 -0.0300  0.1984  0.0567
 1232SOL     OW 5000   0.429   0.128   2.238 -0.9643 -0.3152  0.0007
 1232SOL    HW2 5001   0.498   0.070   2.268  1.0771  1.7219 -0.6669
 1232SOL    HW3 5002   0.425   0.114   2.143  0.5229  1.6630 -0.3640
 1232SOL    MW4 5003   0.437   0.118   2.229 -0.4987  0.2146 -0.1354
 1233SOL     OW 5004   0.385   0.373   2.368  0.1952  0.2950 -0.2676
 1233SOL    HW2 5005   0.400   0.371   2.462  0.3119  1.2141 -0.2671
 1233SOL    HW3 5006   0.413   0.287   2.337  0.1789  0.0047  0.5334
 1233SOL    MW4 5007   0.391   0.361   2.376  0.2084  0.3779 -0.1619
 1234SOL     OW 5008   0.603   0.514   2.243 -0.3673  0.3827  0.7264
 1234SOL    HW2 5009   0.616   0.598   2.286 -1.3638  0.8856  0.0365
 1234SOL    HW3 5010   0.519   0.482   2.276  0.0800 -0.4273  1.1169
 1234SOL    MW4 5011   0.594   0.521   2.253 -0.4397  0.3422  0.6866
 1235SOL     OW 5012   0.633   0.736   2.376  0.0610  0.4040 -0.1997
 1235SOL    HW2 5013   0.632   0.756   2.470  0.5336 -1.1585  0.1474
 1235SOL    HW3 5014   0.564   0.791   2.340 -0.2463  0.8976  1.0797
 1235SOL    MW4 5015   0.624   0.746   2.384  0.0829  0.2630  0.0148
 1236SOL     OW 5016   0.427   0.895   2.280  0.4606 -0.1823 -0.1262
 1236SOL    HW2 5017   0.346   0.850   2.304 -0.0467  1.4679  1.2964
 1236SOL    HW3 5018   0.415   0.919   2.188 -0.7985  0.3763  0.1818
 1236SOL    MW4 5019   0.415   0.892   2.271  0.2276  0.1091  0.1020
 1237SOL     OW 5020   0.438   1.172   2.334 -0.5679 -0.4632 -0.4230
 1237SOL    HW2 5021   0.422   1.078   2.341  1.4440 -0.9158 -1.7503
 1237SOL    HW3 5022   0.352   1.209   2.315 -1.4561 -1.9716  0.5059
 1237SOL    MW4 5023   0.424   1.164   2.333 -0.4196 -0.7221 -0.4756
 1238SOL     OW 5024   0.686   1.295   2.257 -0.0854  0.1396  0.3770
 1238SOL    HW2 5025   0.678   1.378   2.303 -0.5876 -0.3787  1.2454
 1238SOL    HW3 5026   0.599   1.255   2.264  0.3213 -0.7348  0.5086
 1238SOL    MW4 5027   0.673   1.300   2.264 -0.0980 -0.0442  0.5090
 1239SOL     OW 5028   0.688   1.547   2.384  0.1458 -0.6761  0.6147
 1239SOL    HW2 5029   0.671   1.559   2.477 -0.8532  0.6622  0.2808
 1239SOL    HW3 5030   0.771   1.591   2.369 -0.3663  0.3246  0.6304
 1239SOL    MW4 5031   0.696   1.555   2.394 -0.0535 -0.3676  0.5727
 1240SOL     OW 5032   0.493   1.698   2.233  0.1681  0.0056  0.1102
 1240SOL    HW2 5033   0.560   1.646   2.277  0.3143  1.3023  1.4898
 1240SOL    HW3 5034   0.410   1.664   2.266  0.1561 -1.2426 -1.1862
 1240SOL    MW4 5035   0.491   1.687   2.243  0.1858  0.0122  0.1211
 1241SOL     OW 5036   0.437   1.949   2.343  0.4634  0.2763 -0.5669
 1241SOL    HW2 5037   0.505   2.014   2.326  1.3962 -0.1996  1.2042
 1241SOL    HW3 5038   0.469   1.869   2.302  0.5058  0.2909 -0.5624
 1241SOL    MW4 5039   0.450   1.947   2.335  0.5921  0.2154 -0.3326
 1242SOL     OW 5040   0.651   2.106   2.257  0.0272 -0.1385  0.0459
 1242SOL    HW2 5041   0.736   2.070   2.282  0.9538  0.7944 -1.6715
 1242SOL    HW3 5042   0.649   2.192   2.300  0.1506  0.0185 -0.2572
 1242SOL    MW4 5043   0.662   2.113   2.266  0.1656  0.0052 -0.2205
 1243SOL     OW 5044   0.652   2.368   2.366 -0.3800  0.1253 -0.1908
 1243SOL    HW2 5045   0.653   2.336   2.457 -1.2778  0.9727  0.1283
 1243SOL    HW3 5046   0.744   2.375   2.342 -0.1416 -0.6611  0.4567
 1243SOL    MW4 5047   0.664   2.365   2.375 -0.4671  0.1333 -0.0632
 1244SOL     OW 5048   0.473   2.486   2.205  0.2394 -0.5230  0.1969
 1244SOL    HW2 5049   0.543   2.449   2.258  0.3345 -1.0157 -0.2752
 1244SOL    HW3 5050   0.393   2.448   2.240  0.1731  0.2746  0.9368
 1244SOL    MW4 5051   0.471   2.476   2.216  0.2432 -0.4828  0.2322
 1245SOL     OW 5052   0.448   2.731   2.327 -0.2119 -0.1622  0.3724
 1245SOL    HW2 5053   0.438   2.704   2.418 -1.3474 -0.3848  0.1903
 1245SOL    HW3 5054   0.454   2.649   2.278  0.7265 -0.0414  0.2726
 1245SOL    MW4 5055   0.447   2.717   2.332 -0.2379 -0.1757  0.3350
 1246SOL     OW 5056   0.694   2.878   2.274  0.4444 -0.1182  0.2110
 1246SOL    HW2 5057   0.772   2.832   2.304  0.5929  0.2330  0.3706
 1246SOL    HW3 5058   0.621   2.821   2.298  0.4580  0.7024  2.3411
 1246SOL    MW4 5059   0.695   2.865   2.281  0.4659  0.0365  0.5133
 1247SOL     OW 5060   0.704   3.145   2.375 -0.0545 -0.0865 -0.3067
 1247SOL    HW2 5061   0.614   3.171   2.356 -0.4052  0.0992  1.4721
 1247SOL    HW3 5062   0.712   3.056   2.339 -1.5373 -0.8200  1.0723
 1247SOL    MW4 5063   0.694   3.136   2.368 -0.2965 -0.1588  0.1101
 1248SOL     OW 5064   0.468   3.236   2.260 -0.1130 -0.5980  0.2290
 1248SOL    HW2 5065   0.381   3.198   2.276 -0.4411  0.0647  0.0566
 1248SOL    HW3 5066   0.480   3.228   2.165  0.8060 -2.3580  0.4893
 1248SOL    MW4 5067   0.458   3.230   2.249 -0.0350 -0.7427  0.2406
 1249SOL     OW 5068   0.418   3.486   2.374  0.1862  0.0882 -0.1997
 1249SOL    HW2 5069   0.496   3.537   2.351  0.3982 -0.0566  0.1919
 1249SOL    HW3 5070   0.440   3.397   2.348  0.3255 -0.0307  0.3212
 1249SOL    MW4 5071   0.431   3.481   2.367  0.2325  0.0534 -0.0794
 1250SOL     OW 5072   0.625   3.651   2.266 -0.2876  0.2586 -0.2444
 1250SOL    HW2 5073   0.640   3.743   2.291 -0.0098 -0.0502  0.7305
 1250SOL    HW3 5074   0.649   3.648   2.173 -0.6154  1.2493 -0.3716
 1250SOL    MW4 5075   0.630   3.663   2.257 -0.2941  0.3486 -0.1326
 1251SOL     OW 5076   0.678   3.901   2.339 -0.0213 -0.5205 -0.1540
 1251SOL    HW2 5077   0.669   3.892   2.433 -0.0609 -0.1531 -0.1193
 1251SOL    HW3 5078   0.603   3.954   2.312  0.8418  0.7366 -0.1582
 1251SOL    MW4 5079   0.667   3.907   2.348  0.0874 -0.3061 -0.1497
 1252SOL     OW 5080   0.412   4.028   2.257  0.4274 -0.4481  0.4291
 1252SOL    HW2 5081   0.350   3.973   2.304 -1.2361  0.6271 -0.4779
 1252SOL    HW3 5082   0.404   4.001   2.165  0.7528  0.2222  0.1986
 1252SOL    MW4 5083   0.403   4.017   2.251  0.2509 -0.2174  0.2792
 1253SOL     OW 5084   0.380   4.279   2.339 -0.4123  0.3130  0.7138
 1253SOL    HW2 5085   0.463   4.321   2.318 -0.6523  1.2881  1.6972
 1253SOL    HW3 5086   0.390   4.189   2.307  1.2960  0.2116  1.4537
 1253SOL    MW4 5087   0.392   4.272   2.332 -0.2186  0.4282  0.9410
 1254SOL     OW 5088   0.612   4.380   2.248  0.0134  0.2557  0.3572
 1254SOL    HW2 5089   0.619   4.473   2.272  1.9926  0.3728 -0.5674
 1254SOL    HW3 5090   0.624   4.379   2.153  0.2918 -0.9769  0.4038
 1254SOL    MW4 5091   0.614   4.392   2.239  0.3113  0.1087  0.2413
 1255SOL     OW 5092   1.094   4.652   2.328 -0.8302 -0.0732 -0.6698
 1255SOL    HW2 5093   1.087   4.650   2.424  0.7853  1.4601 -0.4926
 1255SOL    HW3 5094   1.008   4.683   2.299 -1.9581 -2.3475  0.1505
 1255SOL    MW4 5095   1.081   4.656   2.337 -0.7658 -0.1712 -0.5383
 1256SOL     OW 5096   0.855   0.124   2.260  0.2790 -0.3007  0.2533
 1256SOL    HW2 5097   0.849   0.215   2.289  0.7349 -0.1564 -0.0990
 1256SOL    HW3 5098   0.856   0.128   2.165  0.5654 -0.6520  0.2380
 1256SOL    MW4 5099   0.855   0.137   2.252  0.3769 -0.3280  0.2048
 1257SOL     OW 5100   0.835   0.380   2.355 -0.4701 -0.0261  0.1062
 1257SOL    HW2 5101   0.914   0.409   2.308 -0.3258 -1.4287 -0.5417
 1257SOL    HW3 5102   0.763   0.423   2.308 -0.2037  0.0293 -0.2613
 1257SOL    MW4 5103   0.836   0.390   2.342 -0.4160 -0.2039 -0.0277
 1258SOL     OW 5104   1.066   0.506   2.220 -0.1607 -0.5865 -0.4141
 1258SOL    HW2 5105   1.141   0.451   2.242  1.2178  1.2984 -0.2711
 1258SOL    HW3 5106   1.069   0.514   2.124  1.2094  1.3769 -0.2236
 1258SOL    MW4 5107   1.076   0.500   2.210  0.2019 -0.0787 -0.3700
 1259SOL     OW 5108   1.101   0.761   2.331  0.5391  0.3753 -0.2953
 1259SOL    HW2 5109   1.020   0.802   2.302 -0.1961 -1.0864 -0.3273
 1259SOL    HW3 5110   1.089   0.668   2.313  2.2051  0.1348 -0.2566
 1259SOL    MW4 5111   1.089   0.754   2.325  0.6618  0.1507 -0.2947
 1260SOL     OW 5112   0.855   0.889   2.273  0.5516 -0.2733 -0.1064
 1260SOL    HW2 5113   0.870   0.961   2.335 -1.1803  0.6013 -0.6849
 1260SOL    HW3 5114   0.792   0.832   2.318 -0.1638 -0.0072 -0.7690
 1260SOL    MW4 5115   0.849   0.891   2.287  0.2287 -0.1228 -0.2699
 1261SOL     OW 5116   0.895   1.143   2.375 -0.0883  0.0563 -0.2966
 1261SOL    HW2 5117   0.958   1.192   2.322 -0.3503  0.7266  0.0055
 1261SOL    HW3 5118   0.810   1.182   2.354 -0.2395  0.0696  0.3197
 1261SOL    MW4 5119   0.892   1.154   2.366 -0.1428  0.1465 -0.1755
 1262SOL     OW 5120   1.108   1.284   2.239 -0.0560 -0.8220 -0.5230
 1262SOL    HW2 5121   1.180   1.231   2.274 -0.5884 -1.3412 -0.2192
 1262SOL    HW3 5122   1.137   1.307   2.151  1.0327  0.0046  0.0230
 1262SOL    MW4 5123   1.122   1.280   2.232  0.0174 -0.7814 -0.4108
 1263SOL     OW 5124   1.150   1.576   2.316  0.3157  0.2003 -0.0943
 1263SOL    HW2 5125   1.075   1.623   2.281  0.1491  1.0690  1.4163
 1263SOL    HW3 5126   1.143   1.488   2.278 -2.0797 -0.0761  0.8836
 1263SOL    MW4 5127   1.139   1.571   2.306 -0.0223  0.2784  0.2339
 1264SOL     OW 5128   0.887   1.718   2.296  0.5793 -0.2058 -0.2333
 1264SOL    HW2 5129   0.882   1.803   2.339 -0.7267  0.2743 -1.2923
 1264SOL    HW3 5130   0.898   1.738   2.203 -1.6097 -1.1299 -0.7233
 1264SOL    MW4 5131   0.887   1.732   2.289  0.1181 -0.2644 -0.4377
 1265SOL     OW 5132   0.881   1.979   2.393  0.5281 -0.2467 -0.2789
 1265SOL    HW2 5133   0.899   1.972   2.487 -1.4076  1.8332  0.2916
 1265SOL    HW3 5134   0.962   2.014   2.356  0.8549  0.1685  0.8120
 1265SOL    MW4 5135   0.894   1.983   2.401  0.3158  0.0825 -0.0598
 1266SOL     OW 5136   1.112   2.095   2.274 -0.0448  0.1666 -0.2299
 1266SOL    HW2 5137   1.177   2.025   2.284  1.1699  1.4149  0.7231
 1266SOL    HW3 5138   1.103   2.105   2.179 -0.2717 -1.3186 -0.3785
 1266SOL    MW4 5139   1.119   2.087   2.263  0.0855  0.1352 -0.1237
 1267SOL     OW 5140   1.123   2.363   2.363 -0.0093  0.5061  0.2449
 1267SOL    HW2 5141   1.200   2.406   2.326  0.7473 -0.1843  0.9868
 1267SOL    HW3 5142   1.133   2.271   2.339 -0.5477  0.3937  0.4355
 1267SOL    MW4 5143   1.134   2.356   2.355  0.0197  0.4001  0.3679
 1268SOL     OW 5144   0.896   2.467   2.260 -0.5674 -0.0119  0.0690
 1268SOL    HW2 5145   0.975   2.431   2.299 -0.4912  0.0490 -0.0304
 1268SOL    HW3 5146   0.908   2.456   2.165 -0.0384  1.3301 -0.0282
 1268SOL    MW4 5147   0.908   2.461   2.252 -0.4876  0.1733  0.0432
 1269SOL     OW 5148   0.904   2.723   2.364  0.5301  0.3242 -0.0943
 1269SOL    HW2 5149   0.909   2.717   2.459  1.1996 -1.7634 -0.2360
 1269SOL    HW3 5150   0.907   2.633   2.334 -1.8756  0.8103 -2.0151
 1269SOL    MW4 5151   0.905   2.711   2.372  0.3011  0.1130 -0.3664
 1270SOL     OW 5152   1.126   2.838   2.235  0.3732  0.4693  0.1738
 1270SOL    HW2 5153   1.211   2.803   2.260 -0.3249 -1.5841 -0.2283
 1270SOL    HW3 5154   1.062   2.782   2.279 -0.7942  0.2503 -1.7077
 1270SOL    MW4 5155   1.129   2.826   2.244  0.1270  0.1695 -0.1276
 1271SOL     OW 5156   1.133   3.093   2.387 -0.5469  0.1249  0.8651
 1271SOL    HW2 5157   1.068   3.148   2.342 -0.4112 -0.6447 -0.2838
 1271SOL    HW3 5158   1.127   3.008   2.343 -0.4009 -0.6477  2.3081
 1271SOL    MW4 5159   1.123   3.089   2.375 -0.5099 -0.0787  0.9038
 1272SOL     OW 5160   0.917   3.265   2.274 -0.1480  0.3364  0.0352
 1272SOL    HW2 5161   0.911   3.358   2.297 -1.7992  0.2854 -0.1182
 1272SOL    HW3 5162   0.836   3.227   2.309 -1.0367 -0.4274 -2.7728
 1272SOL    MW4 5163   0.906   3.272   2.282 -0.4832  0.2286 -0.3557
 1273SOL     OW 5164   0.892   3.531   2.335  0.2605  0.1373 -0.3482
 1273SOL    HW2 5165   0.886   3.516   2.429 -0.6991 -0.1245 -0.4442
 1273SOL    HW3 5166   0.807   3.570   2.311  0.5650  0.3844 -1.0720
 1273SOL    MW4 5167   0.880   3.534   2.344  0.1741  0.1357 -0.4561
 1274SOL     OW 5168   1.101   3.621   2.201  0.7428  0.3766 -0.1512
 1274SOL    HW2 5169   1.163   3.568   2.250  0.7089  0.2028 -0.2954
 1274SOL    HW3 5170   1.019   3.615   2.251  1.3613  2.2646  1.1560
 1274SOL    MW4 5171   1.098   3.613   2.214  0.8199  0.6030  0.0024
 1275SOL     OW 5172   1.135   3.877   2.348  0.1157  0.0623  0.1926
 1275SOL    HW2 5173   1.213   3.912   2.305  0.4387 -0.7095  0.1279
 1275SOL    HW3 5174   1.120   3.793   2.304 -1.1313  0.5012 -0.2341
 1275SOL    MW4 5175   1.143   3.870   2.336 -0.0062  0.0184  0.1276
 1276SOL     OW 5176   0.929   4.036   2.282 -0.0461 -0.1736 -0.0400
 1276SOL    HW2 5177   1.001   3.986   2.321  0.0673 -0.6843 -0.8917
 1276SOL    HW3 5178   0.851   3.983   2.298  0.1121 -0.7579 -1.1743
 1276SOL    MW4 5179   0.928   4.023   2.289 -0.0103 -0.3181 -0.3021
 1277SOL     OW 5180   0.844   4.285   2.375 -0.4026 -0.2094 -0.4463
 1277SOL    HW2 5181   0.853   4.193   2.349 -0.3947  0.0743 -1.4779
 1277SOL    HW3 5182   0.783   4.322   2.312  0.8678  0.8901 -1.0765
 1277SOL    MW4 5183   0.837   4.278   2.363 -0.2339 -0.0262 -0.6657
 1278SOL     OW 5184   1.099   4.391   2.238  0.0708  0.3934  0.2380
 1278SOL    HW2 5185   1.012   4.358   2.260 -0.3111  0.6618 -0.8808
 1278SOL    HW3 5186   1.095   4.485   2.255 -0.1758  0.5756 -0.8095
 1278SOL    MW4 5187   1.087   4.399   2.243 -0.0119  0.4535 -0.0477
 1279SOL     OW 5188   1.540   4.641   2.390 -0.0916  0.1789 -0.7934
 1279SOL    HW2 5189   1.620   4.691   2.371  0.6561 -1.4385 -2.0216
 1279SOL    HW3 5190   1.471   4.688   2.343  0.4452  0.5625 -1.2039
 1279SOL    MW4 5191   1.542   4.654   2.381  0.0777  0.0162 -1.0097
 1280SOL     OW 5192   1.343   0.112   2.271 -0.4993 -0.1304  0.0011
 1280SOL    HW2 5193   1.316   0.204   2.264  0.5834  0.1645 -0.2857
 1280SOL    HW3 5194   1.262   0.065   2.291 -1.1693  0.8033 -0.5043
 1280SOL    MW4 5195   1.329   0.118   2.273 -0.4449  0.0317 -0.1032
 1281SOL     OW 5196   1.279   0.381   2.320 -0.0898  0.2738  0.3199
 1281SOL    HW2 5197   1.287   0.354   2.411  0.6513 -1.7650 -0.3182
 1281SOL    HW3 5198   1.361   0.426   2.300  0.4455 -0.7544  0.1893
 1281SOL    MW4 5199   1.291   0.383   2.329  0.0787 -0.1309  0.2182
 1282SOL     OW 5200   1.561   0.497   2.275 -0.1357  0.0900  0.1742
 1282SOL    HW2 5201   1.628   0.445   2.319  1.7409  1.3158 -1.1710
 1282SOL    HW3 5202   1.581   0.489   2.182 -0.5626  2.2273 -0.1169
 1282SOL    MW4 5203   1.572   0.489   2.269  0.0558  0.5337 -0.0415
 1283SOL     OW 5204   1.584   0.745   2.388  0.1540 -0.3849  0.1509
 1283SOL    HW2 5205   1.669   0.776   2.357  0.3515  0.6053  1.6313
 1283SOL    HW3 5206   1.574   0.658   2.349  2.0016 -0.6720  0.2761
 1283SOL    MW4 5207   1.594   0.738   2.379  0.4238 -0.2921  0.3629
 1284SOL     OW 5208   1.368   0.863   2.244  0.0745 -0.1141  0.2331
 1284SOL    HW2 5209   1.444   0.822   2.284  0.1590  0.0923  0.2821
 1284SOL    HW3 5210   1.294   0.808   2.272  0.3332 -0.9773 -0.7465
 1284SOL    MW4 5211   1.368   0.850   2.253  0.1197 -0.2006  0.1101
 1285SOL     OW 5212   1.332   1.131   2.324 -0.0764  0.1826 -0.4334
 1285SOL    HW2 5213   1.334   1.132   2.419 -2.1702 -1.3139 -0.3470
 1285SOL    HW3 5214   1.345   1.039   2.300 -0.5159  0.4029 -1.5541
 1285SOL    MW4 5215   1.334   1.119   2.333 -0.4107  0.0143 -0.5696
 1286SOL     OW 5216   1.564   1.246   2.252  0.5169 -0.2516  0.0843
 1286SOL    HW2 5217   1.482   1.199   2.265  0.8420 -0.9037 -0.2448
 1286SOL    HW3 5218   1.574   1.251   2.157  1.3444 -0.9998  0.1345
 1286SOL    MW4 5219   1.554   1.241   2.241  0.6690 -0.4364  0.0477
 1287SOL     OW 5220   1.571   1.498   2.385  0.0914 -0.1351  0.1466
 1287SOL    HW2 5221   1.649   1.540   2.350  1.4045 -0.9759  1.9850
 1287SOL    HW3 5222   1.571   1.411   2.345  0.3695 -0.3004  0.4985
 1287SOL    MW4 5223   1.581   1.492   2.375  0.3014 -0.2680  0.4356
 1288SOL     OW 5224   1.405   1.648   2.243  0.1844 -0.0086  0.0786
 1288SOL    HW2 5225   1.467   1.600   2.298  0.0728  0.3845  0.5541
 1288SOL    HW3 5226   1.319   1.627   2.280  0.2856  2.6988  2.0277
 1288SOL    MW4 5227   1.402   1.639   2.255  0.1830  0.4005  0.3984
 1289SOL     OW 5228   1.330   1.927   2.326  0.3990  0.7044  0.0881
 1289SOL    HW2 5229   1.408   1.980   2.310  1.2471 -0.7673 -0.8597
 1289SOL    HW3 5230   1.352   1.841   2.288 -1.5345  0.1567  0.1621
 1289SOL    MW4 5231   1.344   1.922   2.319  0.2556  0.4380 -0.0269
 1290SOL     OW 5232   1.547   2.072   2.270  0.4221  0.5308 -0.1056
 1290SOL    HW2 5233   1.619   2.020   2.308 -1.6304 -1.8321  0.6757
 1290SOL    HW3 5234   1.567   2.074   2.176  1.0745 -0.8168 -0.0135
 1290SOL    MW4 5235   1.559   2.065   2.262  0.2375  0.0415  0.0095
 1291SOL     OW 5236   1.560   2.341   2.335 -0.2755  0.5549  0.4940
 1291SOL    HW2 5237   1.559   2.337   2.431 -1.7626 -0.0783  0.4700
 1291SOL    HW3 5238   1.546   2.250   2.308 -0.7472  0.8706 -0.3267
 1291SOL    MW4 5239   1.558   2.328   2.345 -0.5341  0.5131  0.3827
 1292SOL     OW 5240   1.341   2.460   2.219  0.2243  0.4989 -0.5686
 1292SOL    HW2 5241   1.425   2.423   2.248 -1.2975 -1.8410  1.0791
 1292SOL    HW3 5242   1.351   2.470   2.124  2.2957  0.0856 -0.4310
 1292SOL    MW4 5243   1.354   2.457   2.210  0.2967  0.1354 -0.3331
 1293SOL     OW 5244   1.346   2.719   2.330 -0.0432  0.1458  0.4203
 1293SOL    HW2 5245   1.433   2.755   2.312  0.5614 -1.2089  0.5704
 1293SOL    HW3 5246   1.344   2.636   2.283 -1.3061  0.2285  0.3164
 1293SOL    MW4 5247   1.357   2.713   2.322 -0.1301 -0.0219  0.4265
 1294SOL     OW 5248   1.565   2.848   2.256 -0.7720  0.3086 -0.1877
 1294SOL    HW2 5249   1.574   2.941   2.273 -0.4117  0.1723  0.3994
 1294SOL    HW3 5250   1.559   2.841   2.161 -3.1889  1.1152 -0.1177
 1294SOL    MW4 5251   1.566   2.859   2.246 -1.0433  0.3970 -0.1011
 1295SOL     OW 5252   1.563   3.124   2.330  0.3343  0.6994 -0.1623
 1295SOL    HW2 5253   1.556   3.141   2.424 -1.6784  0.4273 -0.2211
 1295SOL    HW3 5254   1.486   3.168   2.292  1.8782  2.0012 -1.8661
 1295SOL    MW4 5255   1.552   3.132   2.337  0.2724  0.8349 -0.3948
 1296SOL     OW 5256   1.336   3.255   2.263 -0.5449 -0.5763 -0.2384
 1296SOL    HW2 5257   1.281   3.190   2.305  0.1694 -2.0303 -1.5044
 1296SOL    HW3 5258   1.309   3.255   2.171 -0.0078  0.3602 -0.4093
 1296SOL    MW4 5259   1.325   3.246   2.256 -0.3798 -0.6444 -0.4280
 1297SOL     OW 5260   1.310   3.506   2.349 -0.1313 -0.2203 -0.3259
 1297SOL    HW2 5261   1.310   3.510   2.445  1.3149  0.1427 -0.3240
 1297SOL    HW3 5262   1.316   3.413   2.330  1.1535 -0.2220 -0.0239
 1297SOL    MW4 5263   1.311   3.494   2.359  0.2291 -0.1724 -0.2861
 1298SOL     OW 5264   1.534   3.598   2.240  0.8097  0.0127 -0.5984
 1298SOL    HW2 5265   1.537   3.687   2.275 -0.0144  0.2818 -1.2115
 1298SOL    HW3 5266   1.451   3.562   2.271  1.0498 -0.4798 -0.5157
 1298SOL    MW4 5267   1.524   3.605   2.249  0.7328 -0.0167 -0.6683
 1299SOL     OW 5268   1.569   3.857   2.348  0.0394  0.2305  0.0543
 1299SOL    HW2 5269   1.566   3.874   2.442 -1.0297  0.1867  0.0340
 1299SOL    HW3 5270   1.639   3.913   2.315  0.7493 -0.1172  0.9493
 1299SOL    MW4 5271   1.578   3.867   2.356 -0.0079  0.1786  0.1698
 1300SOL     OW 5272   1.365   4.007   2.241  0.1291 -0.2889 -0.1512
 1300SOL    HW2 5273   1.428   3.956   2.291  0.8830  0.2604 -0.5245
 1300SOL    HW3 5274   1.369   4.095   2.279  1.8738  0.5504 -2.1597
 1300SOL    MW4 5275   1.374   4.012   2.253  0.4587 -0.1054 -0.4654
 1301SOL     OW 5276   1.317   4.255   2.356  0.2572 -0.0297  0.1714
 1301SOL    HW2 5277   1.322   4.250   2.451 -0.3594  1.3555  0.2983
 1301SOL    HW3 5278   1.233   4.298   2.339  0.0247 -0.9207 -1.0201
 1301SOL    MW4 5279   1.306   4.260   2.366  0.1451  0.0353  0.0305
 1302SOL     OW 5280   1.535   4.408   2.256  0.0631 -0.0479 -0.4463
 1302SOL    HW2 5281   1.454   4.372   2.293  0.7524 -0.6963  0.4353
 1302SOL    HW3 5282   1.544   4.494   2.298 -0.8750  0.5998 -1.5525
 1302SOL    MW4 5283   1.525   4.415   2.266  0.0303 -0.0477 -0.4759
 1303SOL     OW 5284   1.973   0.001   2.332 -0.3039  0.3961  0.0917
 1303SOL    HW2 5285   2.053   0.051   2.315 -0.8664  0.9477 -1.0163
 1303SOL    HW3 5286   1.988  -0.084   2.292 -0.2034  0.4394  0.0379
 1303SOL    MW4 5287   1.985  -0.004   2.324 -0.3648  0.4749 -0.0618
 1304SOL     OW 5288   1.735   0.126   2.254  0.1702  0.0582 -0.2067
 1304SOL    HW2 5289   1.749   0.214   2.288  1.3065 -0.0787 -0.2927
 1304SOL    HW3 5290   1.816   0.079   2.274 -0.6104 -1.1227  0.2888
 1304SOL    MW4 5291   1.747   0.131   2.261  0.2171 -0.1157 -0.1523
 1305SOL     OW 5292   1.768   0.368   2.379  0.1283  0.7390  0.6110
 1305SOL    HW2 5293   1.780   0.355   2.473  1.3969  0.7290  0.4511
 1305SOL    HW3 5294   1.849   0.409   2.350 -0.0177  0.2033 -0.5826
 1305SOL    MW4 5295   1.780   0.371   2.388  0.2763  0.6670  0.4323
 1306SOL     OW 5296   1.997   0.474   2.266  0.0360 -0.1511 -0.6430
 1306SOL    HW2 5297   2.014   0.559   2.307 -0.3035 -0.4823  0.1918
 1306SOL    HW3 5298   1.999   0.492   2.172 -0.5549  0.8890 -0.4670
 1306SOL    MW4 5299   1.999   0.488   2.259 -0.0868 -0.0575 -0.5095
 1307SOL     OW 5300   2.065   0.716   2.392 -0.0047  0.8859  0.4198
 1307SOL    HW2 5301   2.130   0.774   2.353  0.9590 -1.6433 -1.9606
 1307SOL    HW3 5302   1.981   0.753   2.367  0.5996  1.1914 -1.2044
 1307SOL    MW4 5303   2.063   0.728   2.384  0.2022  0.5925 -0.1085
 1308SOL     OW 5304   1.846   0.854   2.303  0.2379  0.3401 -0.2429
 1308SOL    HW2 5305   1.803   0.933   2.337  0.7553  0.3026  0.4975
 1308SOL    HW3 5306   1.838   0.862   2.208 -0.4300  0.8833 -0.1441
 1308SOL    MW4 5307   1.839   0.866   2.295  0.2180  0.4068 -0.1321
 1309SOL     OW 5308   1.759   1.098   2.392 -0.1019 -0.1456 -0.3805
 1309SOL    HW2 5309   1.837   1.143   2.361 -0.1599  0.1052 -0.1699
 1309SOL    HW3 5310   1.689   1.127   2.334  0.2629 -1.6122 -1.5722
 1309SOL    MW4 5311   1.760   1.108   2.381 -0.0615 -0.3060 -0.5100
 1310SOL     OW 5312   1.985   1.230   2.262 -0.3366 -0.1176  0.5150
 1310SOL    HW2 5313   1.989   1.321   2.291  0.1321  0.3359 -0.9432
 1310SOL    HW3 5314   2.005   1.233   2.169  0.1073 -1.7669  0.5327
 1310SOL    MW4 5315   1.988   1.242   2.254 -0.2162 -0.2754  0.3250
 1311SOL     OW 5316   2.005   1.495   2.357 -0.5759  0.0400 -0.7356
 1311SOL    HW2 5317   2.018   1.495   2.452  0.3825 -0.1139 -0.8596
 1311SOL    HW3 5318   1.932   1.555   2.342  0.8930  1.9945 -0.1279
 1311SOL    MW4 5319   1.997   1.503   2.368 -0.2555  0.2776 -0.6719
 1312SOL     OW 5320   1.786   1.657   2.279  0.5910  0.8030 -0.1591
 1312SOL    HW2 5321   1.783   1.750   2.301 -0.2579  0.4407  1.2629
 1312SOL    HW3 5322   1.790   1.656   2.183  2.6075  2.3406 -0.1311
 1312SOL    MW4 5323   1.786   1.669   2.269  0.7449  0.9580  0.0319
 1313SOL     OW 5324   1.767   1.917   2.389 -0.3565  0.2991  0.2793
 1313SOL    HW2 5325   1.787   1.921   2.482  0.0549 -0.5560  0.2371
 1313SOL    HW3 5326   1.843   1.957   2.347  0.0293 -0.4324  0.2599
 1313SOL    MW4 5327   1.780   1.923   2.395 -0.2513  0.0896  0.2713
 1314SOL     OW 5328   1.976   2.058   2.284  0.0460  0.1650  0.4643
 1314SOL    HW2 5329   2.042   2.013   2.338  0.1612  0.3685  0.4909
 1314SOL    HW3 5330   2.006   2.045   2.194  0.7442  1.2511  0.5357
 1314SOL    MW4 5331   1.988   2.050   2.279  0.1533  0.3352  0.4773
 1315SOL     OW 5332   2.008   2.327   2.334  0.2215 -0.3822 -0.0925
 1315SOL    HW2 5333   2.099   2.349   2.314  0.0582  0.5286  0.1425
 1315SOL    HW3 5334   2.005   2.232   2.330  1.1699 -0.4140 -0.1751
 1315SOL    MW4 5335   2.020   2.317   2.331  0.3247 -0.2661 -0.0725
 1316SOL     OW 5336   1.798   2.432   2.188  0.2515 -0.2418 -0.4526
 1316SOL    HW2 5337   1.874   2.396   2.233 -0.3365 -0.9165  0.0218
 1316SOL    HW3 5338   1.723   2.397   2.236 -0.3419  2.1454  0.4159
 1316SOL    MW4 5339   1.798   2.422   2.200  0.0956 -0.0160 -0.2756
 1317SOL     OW 5340   1.773   2.684   2.368  0.2320 -0.2689  0.0991
 1317SOL    HW2 5341   1.776   2.610   2.308  1.3424 -0.2262  0.0943
 1317SOL    HW3 5342   1.711   2.745   2.327  0.5364 -0.4951 -0.7168
 1317SOL    MW4 5343   1.765   2.683   2.354  0.4185 -0.2933 -0.0091
 1318SOL     OW 5344   1.977   2.830   2.265  0.2446 -0.2778 -0.1382
 1318SOL    HW2 5345   2.060   2.792   2.294 -0.0618 -1.6213 -0.9572
 1318SOL    HW3 5346   1.911   2.778   2.310 -0.1587  1.3553  1.1971
 1318SOL    MW4 5347   1.979   2.818   2.275  0.1510 -0.2398 -0.0699
 1319SOL     OW 5348   2.017   3.072   2.410 -0.4114 -0.0742 -0.0472
 1319SOL    HW2 5349   2.079   3.127   2.361  0.3877 -0.7889  0.1399
 1319SOL    HW3 5350   2.016   2.989   2.362  0.4448 -0.8117  1.1895
 1319SOL    MW4 5351   2.025   3.068   2.397 -0.1929 -0.2656  0.1409
 1320SOL     OW 5352   1.811   3.232   2.284  0.0615  0.5237 -0.8600
 1320SOL    HW2 5353   1.868   3.170   2.329  0.4349  1.0919 -0.5393
 1320SOL    HW3 5354   1.723   3.194   2.292 -0.3118  1.9255  2.7867
 1320SOL    MW4 5355   1.807   3.219   2.291  0.0614  0.7837 -0.3366
 1321SOL     OW 5356   1.767   3.482   2.378  0.5808 -0.2544 -0.4834
 1321SOL    HW2 5357   1.791   3.394   2.348 -1.5679 -0.6609 -1.1281
 1321SOL    HW3 5358   1.690   3.505   2.326 -0.4939  0.9047  1.5392
 1321SOL    MW4 5359   1.760   3.473   2.367  0.1556 -0.1554 -0.3014
 1322SOL     OW 5360   1.976   3.623   2.244 -0.0494 -0.2417  0.1279
 1322SOL    HW2 5361   1.904   3.570   2.279  1.5559 -2.2102  0.5048
 1322SOL    HW3 5362   1.988   3.592   2.155 -1.2713  1.8012 -0.7751
 1322SOL    MW4 5363   1.968   3.612   2.237  0.0013 -0.2317  0.0582
 1323SOL     OW 5364   2.041   3.892   2.315  0.2504  0.1168  0.3823
 1323SOL    HW2 5365   2.042   3.869   2.409 -1.7571 -1.1988  0.1169
 1323SOL    HW3 5366   2.006   3.814   2.273  1.8959  0.4084 -1.5789
 1323SOL    MW4 5367   2.037   3.878   2.322  0.2027 -0.0184  0.0887
 1324SOL     OW 5368   1.794   4.010   2.261  0.5698  0.3192  0.7239
 1324SOL    HW2 5369   1.871   3.966   2.297  0.4529  0.0627  0.6590
 1324SOL    HW3 5370   1.811   4.016   2.167  0.2683 -0.2155  0.6377
 1324SOL    MW4 5371   1.807   4.005   2.253  0.5146  0.2146  0.7041
 1325SOL     OW 5372   1.764   4.265   2.325  0.7298 -0.4112 -0.4419
 1325SOL    HW2 5373   1.771   4.171   2.306  1.1066 -0.3187 -0.7486
 1325SOL    HW3 5374   1.685   4.292   2.278  0.5351 -0.6078 -0.2290
 1325SOL    MW4 5375   1.754   4.256   2.316  0.7539 -0.4253 -0.4544
 1326SOL     OW 5376   2.008   4.397   2.272 -0.1680 -0.5280 -0.0974
 1326SOL    HW2 5377   1.929   4.351   2.300 -1.0202  0.9686 -0.0252
 1326SOL    HW3 5378   2.000   4.403   2.177 -1.1911  1.4799  0.0892
 1326SOL    MW4 5379   1.997   4.391   2.263 -0.4157 -0.0658 -0.0632
 1327SOL     OW 5380   2.449   4.624   2.369  0.4037  0.2503 -0.0509
 1327SOL    HW2 5381   2.507   4.679   2.317  1.9958  0.0901  1.5098
 1327SOL    HW3 5382   2.458   4.536   2.332  0.9679  0.2763  0.0264
 1327SOL    MW4 5383   2.458   4.619   2.357  0.6883  0.2332  0.1650
 1328SOL     OW 5384   2.230   0.098   2.251  0.0253  0.1133  0.3177
 1328SOL    HW2 5385   2.234   0.183   2.296 -0.7299 -0.9500  2.4553
 1328SOL    HW3 5386   2.287   0.041   2.302  0.4778 -0.6873 -1.0744
 1328SOL    MW4 5387   2.238   0.102   2.264 -0.0145 -0.1326  0.4160
 1329SOL     OW 5388   2.227   0.358   2.383 -0.2115 -0.3352  0.1035
 1329SOL    HW2 5389   2.297   0.414   2.349 -0.2960 -0.5750 -0.4696
 1329SOL    HW3 5390   2.147   0.394   2.344 -0.2128 -1.1621 -0.6599
 1329SOL    MW4 5391   2.225   0.370   2.373 -0.2227 -0.4759 -0.0727
 1330SOL     OW 5392   2.418   0.500   2.255 -0.2578  0.4840 -0.1668
 1330SOL    HW2 5393   2.504   0.463   2.273 -1.3461 -1.6546  0.9456
 1330SOL    HW3 5394   2.417   0.514   2.160  1.4218  0.8817 -0.1350
 1330SOL    MW4 5395   2.429   0.497   2.245 -0.1800  0.2544 -0.0160
 1331SOL     OW 5396   2.475   0.755   2.363  0.1294  0.1843  0.2167
 1331SOL    HW2 5397   2.565   0.775   2.337 -0.1938  1.1239 -0.2068
 1331SOL    HW3 5398   2.462   0.664   2.337  1.2132 -0.1972  0.9981
 1331SOL    MW4 5399   2.485   0.746   2.356  0.2298  0.2579  0.2642
 1332SOL     OW 5400   2.254   0.910   2.278  0.0934 -0.0579  0.2931
 1332SOL    HW2 5401   2.267   0.993   2.324 -1.0957 -0.5523  1.5601
 1332SOL    HW3 5402   2.333   0.859   2.296 -0.1400 -0.0452  1.3626
 1332SOL    MW4 5403   2.266   0.914   2.286 -0.0944 -0.1214  0.6013
 1333SOL     OW 5404   2.254   1.169   2.380  0.3788  0.1604  0.1741
 1333SOL    HW2 5405   2.321   1.210   2.325 -1.3401  0.1985 -1.9814
 1333SOL    HW3 5406   2.171   1.190   2.336 -0.9635 -0.7956  2.1748
 1333SOL    MW4 5407   2.252   1.177   2.367 -0.0250  0.0393  0.1540
 1334SOL     OW 5408   2.477   1.276   2.232  0.1669 -0.5280 -0.3750
 1334SOL    HW2 5409   2.556   1.249   2.279 -0.3517 -1.1718  0.1350
 1334SOL    HW3 5410   2.455   1.362   2.270 -1.0844 -1.6921  1.6271
 1334SOL    MW4 5411   2.484   1.284   2.243 -0.0665 -0.7665 -0.0436
 1335SOL     OW 5412   2.440   1.537   2.370  0.2639 -0.6856  0.3636
 1335SOL    HW2 5413   2.470   1.474   2.436  0.6094 -1.5000 -0.5581
 1335SOL    HW3 5414   2.519   1.587   2.348 -0.1932  0.6794  1.7290
 1335SOL    MW4 5415   2.455   1.535   2.376  0.2491 -0.6131  0.4222
 1336SOL     OW 5416   2.205   1.675   2.275  0.3155 -0.0601 -0.6527
 1336SOL    HW2 5417   2.294   1.648   2.300  0.0609 -0.9023 -0.6391
 1336SOL    HW3 5418   2.149   1.604   2.308 -0.5783  1.4804  1.2261
 1336SOL    MW4 5419   2.210   1.662   2.283  0.1643  0.0319 -0.4029
 1337SOL     OW 5420   2.184   1.926   2.391 -0.2688  0.0983 -0.8786
 1337SOL    HW2 5421   2.270   1.965   2.375 -0.3900  0.9363  0.4775
 1337SOL    HW3 5422   2.187   1.841   2.346  1.4497 -0.0997 -0.4056
 1337SOL    MW4 5423   2.196   1.920   2.383 -0.0582  0.1827 -0.6371
 1338SOL     OW 5424   2.441   2.037   2.294 -0.1935  0.0420  0.0443
 1338SOL    HW2 5425   2.520   1.992   2.324 -1.1352 -0.6310  1.5609
 1338SOL    HW3 5426   2.439   2.021   2.200  1.2957 -0.2136  0.0400
 1338SOL    MW4 5427   2.451   2.029   2.285 -0.1211 -0.0806  0.2437
 1339SOL     OW 5428   2.462   2.320   2.372 -0.2848 -0.1152  0.4473
 1339SOL    HW2 5429   2.540   2.348   2.324  0.0125 -0.2978  0.8135
 1339SOL    HW3 5430   2.453   2.227   2.352 -0.7408  0.0289 -0.0427
 1339SOL    MW4 5431   2.471   2.311   2.363 -0.3054 -0.1202  0.4308
 1340SOL     OW 5432   2.257   2.431   2.249  0.0407  0.0151  0.2498
 1340SOL    HW2 5433   2.240   2.521   2.278  0.9427  0.1335  0.4283
 1340SOL    HW3 5434   2.326   2.400   2.307 -0.6175 -0.9770  0.5182
 1340SOL    MW4 5435   2.264   2.439   2.260  0.0730 -0.0999  0.3085
 1341SOL     OW 5436   2.227   2.693   2.331  0.0044  0.3605 -0.4123
 1341SOL    HW2 5437   2.218   2.688   2.427 -0.9936  0.2710 -0.5062
 1341SOL    HW3 5438   2.313   2.732   2.317  1.2537 -1.9456  0.4995
 1341SOL    MW4 5439   2.237   2.698   2.342  0.0374  0.0446 -0.3042
 1342SOL     OW 5440   2.453   2.827   2.270  0.5952  0.3057 -0.3776
 1342SOL    HW2 5441   2.540   2.795   2.296  0.1355 -0.5173  0.1669
 1342SOL    HW3 5442   2.456   2.830   2.174  0.2912 -2.4174 -0.5036
 1342SOL    MW4 5443   2.465   2.823   2.261  0.4945 -0.1619 -0.3226
 1343SOL     OW 5444   2.455   3.103   2.323  0.0627  0.6920 -0.2571
 1343SOL    HW2 5445   2.542   3.132   2.296  1.6997 -1.5414  2.2592
 1343SOL    HW3 5446   2.453   3.010   2.301 -1.3722  0.5225  0.4978
 1343SOL    MW4 5447   2.466   3.094   2.317  0.0894  0.3753  0.1743
 1344SOL     OW 5448   2.201   3.210   2.231  0.1029  0.0542  0.2208
 1344SOL    HW2 5449   2.209   3.300   2.262  1.0280 -0.4874  1.5848
 1344SOL    HW3 5450   2.276   3.164   2.270 -0.9968 -1.5629  0.4537
 1344SOL    MW4 5451   2.212   3.216   2.240  0.0799 -0.2306  0.4313
 1345SOL     OW 5452   2.197   3.474   2.370  0.2698  0.0512 -0.6610
 1345SOL    HW2 5453   2.195   3.467   2.466  1.1594 -0.9934 -0.7101
 1345SOL    HW3 5454   2.122   3.529   2.349 -0.1341  0.0172  0.6177
 1345SOL    MW4 5455   2.187   3.481   2.380  0.3340 -0.0913 -0.4985
 1346SOL     OW 5456   2.431   3.574   2.281 -0.2437 -0.2794  0.0195
 1346SOL    HW2 5457   2.448   3.659   2.322 -0.6938  0.4686 -1.3150
 1346SOL    HW3 5458   2.349   3.544   2.321 -0.7148  0.4767 -0.3682
 1346SOL    MW4 5459   2.422   3.581   2.292 -0.3655 -0.0808 -0.2077
 1347SOL     OW 5460   2.481   3.840   2.385  0.4881 -0.0919  0.1260
 1347SOL    HW2 5461   2.451   3.856   2.475 -1.4859 -0.2109 -0.4864
 1347SOL    HW3 5462   2.414   3.881   2.330  2.8416  1.9654 -1.2988
 1347SOL    MW4 5463   2.468   3.847   2.390  0.5383  0.1636 -0.1428
 1348SOL     OW 5464   2.298   3.989   2.253  0.3898  0.0681 -0.2066
 1348SOL    HW2 5465   2.287   4.078   2.289 -1.4245  0.5213 -1.8202
 1348SOL    HW3 5466   2.215   3.946   2.272  1.6542 -1.6715  1.5313
 1348SOL    MW4 5467   2.286   3.995   2.261  0.3171 -0.1016 -0.1905
 1349SOL     OW 5468   2.230   4.244   2.333  0.1673  0.0012 -0.2527
 1349SOL    HW2 5469   2.221   4.231   2.428 -1.0041 -0.5212 -0.4212
 1349SOL    HW3 5470   2.153   4.296   2.310  0.6058  0.3725 -0.8789
 1349SOL    MW4 5471   2.218   4.249   2.343  0.0710 -0.0186 -0.3574
 1350SOL     OW 5472   2.450   4.386   2.261 -0.1661 -0.4949 -0.0453
 1350SOL    HW2 5473   2.525   4.343   2.303  0.4150 -1.4739 -1.9808
 1350SOL    HW3 5474   2.374   4.336   2.289  0.2399 -1.2842 -0.3330
 1350SOL    MW4 5475   2.450   4.374   2.270 -0.0358 -0.7281 -0.3388
 1351SOL     OW 5476   2.892   0.002   2.348 -0.3548 -0.3169 -0.0746
 1351SOL    HW2 5477   2.968   0.032   2.298  0.2110 -2.3491 -0.4782
 1351SOL    HW3 5478   2.886  -0.092   2.328 -2.3587 -0.3840  0.7523
 1351SOL    MW4 5479   2.901  -0.007   2.339 -0.5445 -0.5938 -0.0188
 1352SOL     OW 5480   2.656   0.124   2.265  0.5054  0.2973  0.7560
 1352SOL    HW2 5481   2.661   0.215   2.291  2.5709  0.3695  0.2209
 1352SOL    HW3 5482   2.744   0.090   2.278  0.6319 -0.7203 -2.1822
 1352SOL    MW4 5483   2.668   0.131   2.270  0.7949  0.1725  0.2978
 1353SOL     OW 5484   2.662   0.402   2.316  0.0916  0.0399 -0.3914
 1353SOL    HW2 5485   2.668   0.407   2.412 -0.7182  0.6400 -0.3680
 1353SOL    HW3 5486   2.749   0.430   2.286 -0.5124  2.5627  0.1143
 1353SOL    MW4 5487   2.674   0.407   2.325 -0.0949  0.4520 -0.3216
 1354SOL     OW 5488   2.931   0.477   2.203  0.1611  0.8788  0.0860
 1354SOL    HW2 5489   2.951   0.568   2.227  0.6713  0.6546  0.5164
 1354SOL    HW3 5490   2.932   0.477   2.108  0.0031  1.3637  0.0807
 1354SOL    MW4 5491   2.934   0.489   2.194  0.2077  0.9132  0.1421
 1355SOL     OW 5492   2.956   0.731   2.338  0.2001  0.1684  0.0218
 1355SOL    HW2 5493   2.946   0.734   2.433  0.1345  0.4967  0.0059
 1355SOL    HW3 5494   2.877   0.775   2.305 -0.8336 -1.8328 -0.2341
 1355SOL    MW4 5495   2.944   0.737   2.346  0.0553 -0.0523 -0.0143
 1356SOL     OW 5496   2.724   0.891   2.244  0.4549  0.4167 -0.7653
 1356SOL    HW2 5497   2.707   0.980   2.272  0.2756 -0.2514  1.3338
 1356SOL    HW3 5498   2.717   0.893   2.148 -1.0108  2.3132 -0.6252
 1356SOL    MW4 5499   2.721   0.903   2.235  0.2379  0.5787 -0.4699
 1357SOL     OW 5500   2.689   1.159   2.376  0.3996  0.0423 -0.2769
 1357SOL    HW2 5501   2.701   1.163   2.470 -0.3701  0.3981 -0.1867
 1357SOL    HW3 5502   2.771   1.190   2.339  0.5732  0.2485  0.2805
 1357SOL    MW4 5503   2.701   1.163   2.383  0.3209  0.1165 -0.1915
 1358SOL     OW 5504   2.945   1.277   2.271  0.0479  0.4517 -0.7157
 1358SOL    HW2 5505   3.012   1.215   2.303 -1.9350 -0.8877  0.9489
 1358SOL    HW3 5506   2.947   1.265   2.176 -1.0256 -3.0360 -0.3883
 1358SOL    MW4 5507   2.954   1.267   2.262 -0.3555 -0.1851 -0.4528
 1359SOL     OW 5508   2.901   1.544   2.372 -0.0057  0.3332  0.0324
 1359SOL    HW2 5509   2.894   1.536   2.467 -1.2291  0.8630 -0.0114
 1359SOL    HW3 5510   2.904   1.453   2.341  0.8904  0.1575  0.5964
 1359SOL    MW4 5511   2.900   1.531   2.380 -0.0486  0.3799  0.1013
 1360SOL     OW 5512   2.673   1.637   2.262 -0.1739 -0.2719  0.1352
 1360SOL    HW2 5513   2.752   1.602   2.303 -0.7566 -0.3341  1.2264
 1360SOL    HW3 5514   2.697   1.651   2.170  1.4929  0.9094  0.7323
 1360SOL    MW4 5515   2.687   1.635   2.255 -0.0310 -0.1243  0.3581
 1361SOL     OW 5516   2.682   1.914   2.352 -0.7290 -0.1409 -0.6467
 1361SOL    HW2 5517   2.678   1.894   2.446  0.3903 -0.1714 -0.5940
 1361SOL    HW3 5518   2.682   1.829   2.309 -0.5760 -0.1434 -0.6417
 1361SOL    MW4 5519   2.682   1.901   2.359 -0.5612 -0.1453 -0.6387
 1362SOL     OW 5520   2.919   2.050   2.266 -0.3449  0.4384  0.5832
 1362SOL    HW2 5521   2.988   1.998   2.306 -0.2901  0.0721  0.0132
 1362SOL    HW3 5522   2.838   2.012   2.301 -0.3024  0.0186  0.2353
 1362SOL    MW4 5523   2.917   2.038   2.276 -0.3321  0.3347  0.4621
 1363SOL     OW 5524   2.905   2.322   2.334  0.6767 -0.0819 -0.1356
 1363SOL    HW2 5525   2.895   2.307   2.428  3.3510  1.5200  0.4470
 1363SOL    HW3 5526   2.925   2.235   2.298 -1.9134 -0.9902  0.4955
 1363SOL    MW4 5527   2.906   2.308   2.342  0.6878  0.0098  0.0243
 1364SOL     OW 5528   2.670   2.436   2.234  0.2721 -0.0603 -0.5675
 1364SOL    HW2 5529   2.750   2.393   2.265 -1.0459 -2.0867  0.1357
 1364SOL    HW3 5530   2.674   2.427   2.139  0.5694 -0.7443 -0.4956
 1364SOL    MW4 5531   2.681   2.429   2.226  0.1376 -0.4177 -0.4654
 1365SOL     OW 5532   2.685   2.677   2.367  0.2903  0.1261  0.1830
 1365SOL    HW2 5533   2.754   2.730   2.328 -1.0070  1.2812 -0.6182
 1365SOL    HW3 5534   2.674   2.604   2.306 -1.1105  1.4504 -1.2100
 1365SOL    MW4 5535   2.692   2.674   2.353 -0.0656  0.4532 -0.1063
 1366SOL     OW 5536   2.873   2.819   2.234 -0.5702 -0.0658  0.1176
 1366SOL    HW2 5537   2.902   2.910   2.248 -0.9177 -0.1343  1.3516
 1366SOL    HW3 5538   2.864   2.811   2.139 -3.0685  2.0050  0.1280
 1366SOL    MW4 5539   2.876   2.830   2.224 -0.9458  0.1981  0.2818
 1367SOL     OW 5540   2.932   3.080   2.315 -0.4014 -0.6442  0.1539
 1367SOL    HW2 5541   3.002   3.140   2.287  0.8391 -2.2596 -0.2941
 1367SOL    HW3 5542   2.932   3.086   2.410  0.0739 -0.3211  0.1391
 1367SOL    MW4 5543   2.942   3.089   2.324 -0.1752 -0.8144  0.0927
 1368SOL     OW 5544   2.699   3.182   2.209 -0.1789 -0.3942  0.2285
 1368SOL    HW2 5545   2.706   3.272   2.242  1.4334 -0.3415 -0.2225
 1368SOL    HW3 5546   2.774   3.137   2.248 -0.1752 -1.1864 -0.6828
 1368SOL    MW4 5547   2.710   3.188   2.219  0.0343 -0.4919  0.0486
 1369SOL     OW 5548   2.664   3.420   2.337 -0.3632 -0.4695 -0.0344
 1369SOL    HW2 5549   2.737   3.476   2.311 -0.4761  0.2844  1.2308
 1369SOL    HW3 5550   2.586   3.474   2.324 -0.5602 -0.7078  0.1602
 1369SOL    MW4 5551   2.663   3.434   2.332 -0.4041 -0.4015  0.1581
 1370SOL     OW 5552   2.913   3.606   2.244 -0.1507 -0.6050  0.2425
 1370SOL    HW2 5553   2.974   3.547   2.288  1.2265  0.7281  0.1659
 1370SOL    HW3 5554   2.921   3.689   2.291  0.2699  0.4272 -1.5755
 1370SOL    MW4 5555   2.922   3.609   2.256  0.0863 -0.2930 -0.0074
 1371SOL     OW 5556   2.932   3.857   2.375  0.2728  0.5035  0.2941
 1371SOL    HW2 5557   2.922   3.841   2.468  0.1507 -1.0455  0.0140
 1371SOL    HW3 5558   2.861   3.917   2.353  0.8281  1.5847  1.3545
 1371SOL    MW4 5559   2.922   3.863   2.384  0.3300  0.4418  0.3970
 1372SOL     OW 5560   2.698   3.994   2.298 -0.0453 -0.0213 -0.3450
 1372SOL    HW2 5561   2.626   3.939   2.329  1.7027 -0.7018  2.7574
 1372SOL    HW3 5562   2.706   3.974   2.205 -0.9283 -3.3618  0.2350
 1372SOL    MW4 5563   2.690   3.984   2.290  0.0687 -0.5519  0.1409
 1373SOL     OW 5564   2.687   4.249   2.394  0.4430  0.4421  0.0375
 1373SOL    HW2 5565   2.705   4.240   2.488 -1.5966 -0.0857  0.3926
 1373SOL    HW3 5566   2.684   4.159   2.362 -0.7840  0.5362 -0.1423
 1373SOL    MW4 5567   2.689   4.236   2.402  0.0119  0.3843  0.0603
 1374SOL     OW 5568   2.877   4.404   2.280 -0.3068 -0.3143  0.1958
 1374SOL    HW2 5569   2.962   4.363   2.292  0.1470  0.1723 -1.2691
 1374SOL    HW3 5570   2.814   4.339   2.310  0.4718 -1.5988 -0.8906
 1374SOL    MW4 5571   2.880   4.390   2.285 -0.1442 -0.4196 -0.1409
 1375SOL     OW 5572   3.342   4.601   2.321 -0.2680 -0.0296 -0.1377
 1375SOL    HW2 5573   3.345   4.612   2.416 -0.3780  0.8009 -0.2252
 1375SOL    HW3 5574   3.424   4.637   2.290  0.4860 -1.7608 -0.2377
 1375SOL    MW4 5575   3.353   4.607   2.330 -0.1831 -0.1483 -0.1624
 1376SOL     OW 5576   3.127   0.087   2.237  0.1026 -0.2960  0.0394
 1376SOL    HW2 5577   3.142   0.174   2.274 -3.1922  1.0208 -1.5473
 1376SOL    HW3 5578   3.194   0.032   2.278  2.6772  3.0861  0.6080
 1376SOL    MW4 5579   3.138   0.091   2.247  0.0072  0.3240 -0.0951
 1377SOL     OW 5580   3.115   0.342   2.354 -0.0291  0.2015  0.3302
 1377SOL    HW2 5581   3.188   0.377   2.303  0.3678  0.7329  1.2536
 1377SOL    HW3 5582   3.037   0.370   2.306  0.3283  1.1166  0.2770
 1377SOL    MW4 5583   3.114   0.350   2.341  0.0706  0.3923  0.4449
 1378SOL     OW 5584   3.336   0.478   2.221  0.4162 -0.0448  0.2864
 1378SOL    HW2 5585   3.417   0.436   2.252 -0.2694 -1.1580  0.5796
 1378SOL    HW3 5586   3.352   0.493   2.128  0.9990 -0.1456  0.3632
 1378SOL    MW4 5587   3.349   0.475   2.213  0.4025 -0.2050  0.3352
 1379SOL     OW 5588   3.400   0.721   2.355  0.2376  0.1277  0.5607
 1379SOL    HW2 5589   3.472   0.755   2.302 -0.0116 -0.1795  0.0237
 1379SOL    HW3 5590   3.388   0.631   2.325  0.2246 -0.1168  1.2762
 1379SOL    MW4 5591   3.408   0.713   2.344  0.2031  0.0549  0.5841
 1380SOL     OW 5592   3.170   0.858   2.211  0.0644  0.1689 -0.4186
 1380SOL    HW2 5593   3.243   0.831   2.266 -0.9451 -1.4025  0.2011
 1380SOL    HW3 5594   3.094   0.812   2.248 -0.5973 -1.1233 -3.2281
 1380SOL    MW4 5595   3.169   0.848   2.223 -0.1562 -0.2089 -0.7074
 1381SOL     OW 5596   3.147   1.107   2.326  0.1150 -0.1893  0.0730
 1381SOL    HW2 5597   3.211   1.164   2.284 -0.8088  0.6005 -0.2786
 1381SOL    HW3 5598   3.154   1.024   2.279  0.8973 -0.1272  0.0653
 1381SOL    MW4 5599   3.157   1.103   2.314  0.0963 -0.0769  0.0253
 1382SOL     OW 5600   3.367   1.242   2.214 -0.1013 -0.1005  0.3271
 1382SOL    HW2 5601   3.442   1.200   2.258  0.3694  0.9235  0.5100
 1382SOL    HW3 5602   3.348   1.319   2.267 -2.6178 -1.4525  1.4494
 1382SOL    MW4 5603   3.374   1.246   2.227 -0.3710 -0.1436  0.4992
 1383SOL     OW 5604   3.337   1.488   2.378 -0.1168 -0.2417 -0.5529
 1383SOL    HW2 5605   3.332   1.495   2.473  3.2077  0.1487 -0.3334
 1383SOL    HW3 5606   3.263   1.540   2.346 -1.1696 -0.2219  1.7892
 1383SOL    MW4 5607   3.327   1.496   2.386  0.1831 -0.1876 -0.2146
 1384SOL     OW 5608   3.147   1.664   2.291  0.1112 -0.2017  0.2927
 1384SOL    HW2 5609   3.133   1.755   2.318 -0.0159 -0.3192  0.6205
 1384SOL    HW3 5610   3.069   1.618   2.321 -0.8628  0.0063 -1.8099
 1384SOL    MW4 5611   3.135   1.670   2.298 -0.0339 -0.1899  0.0582
 1385SOL     OW 5612   3.114   1.921   2.379 -0.0751 -0.2123 -0.1011
 1385SOL    HW2 5613   3.105   1.925   2.474 -0.3912 -0.1594 -0.1344
 1385SOL    HW3 5614   3.201   1.958   2.361  0.1927 -0.6871  0.2079
 1385SOL    MW4 5615   3.124   1.926   2.389 -0.0815 -0.2680 -0.0646
 1386SOL     OW 5616   3.362   2.040   2.297  0.2442 -0.2263 -0.2817
 1386SOL    HW2 5617   3.443   2.017   2.343  0.6974  1.1734 -0.3503
 1386SOL    HW3 5618   3.388   2.042   2.204 -0.1085 -0.7444 -0.3924
 1386SOL    MW4 5619   3.376   2.038   2.291  0.2573 -0.1101 -0.3052
 1387SOL     OW 5620   3.369   2.311   2.367  0.0584  0.1593  0.5653
 1387SOL    HW2 5621   3.291   2.348   2.324  0.6924  0.5126 -0.2850
 1387SOL    HW3 5622   3.361   2.217   2.354  0.1416  0.2499 -0.1590
 1387SOL    MW4 5623   3.357   2.304   2.359  0.1531  0.2179  0.3576
 1388SOL     OW 5624   3.140   2.440   2.273 -0.0753  0.1653  0.1554
 1388SOL    HW2 5625   3.121   2.534   2.276 -0.1714  0.2675 -2.7009
 1388SOL    HW3 5626   3.062   2.399   2.310 -0.3122  1.1691  0.8045
 1388SOL    MW4 5627   3.127   2.447   2.279 -0.1192  0.3111 -0.1359
 1389SOL     OW 5628   3.117   2.698   2.362 -0.6546 -0.2920  0.1574
 1389SOL    HW2 5629   3.114   2.669   2.454 -2.1532 -0.1020  0.1915
 1389SOL    HW3 5630   3.030   2.736   2.347 -0.1342  0.4192 -1.1080
 1389SOL    MW4 5631   3.105   2.699   2.372 -0.7834 -0.1733 -0.0052
 1390SOL     OW 5632   3.341   2.834   2.257 -0.3076  0.1510 -0.2887
 1390SOL    HW2 5633   3.337   2.921   2.297 -1.4966  0.5543 -1.2381
 1390SOL    HW3 5634   3.264   2.788   2.291  0.0117 -0.3470 -0.2283
 1390SOL    MW4 5635   3.330   2.839   2.267 -0.4222  0.1383 -0.4063
 1391SOL     OW 5636   3.349   3.088   2.367 -0.0541 -0.0899  0.5977
 1391SOL    HW2 5637   3.425   3.131   2.329 -0.6262  0.5389  0.1481
 1391SOL    HW3 5638   3.274   3.139   2.335 -0.7354 -1.3002  0.2333
 1391SOL    MW4 5639   3.349   3.101   2.358 -0.2196 -0.1667  0.4902
 1392SOL     OW 5640   3.140   3.229   2.243 -0.2370  0.0894  0.1576
 1392SOL    HW2 5641   3.155   3.318   2.274  0.6495 -0.0334  0.0953
 1392SOL    HW3 5642   3.127   3.238   2.148  0.6450  0.0753  0.0272
 1392SOL    MW4 5643   3.141   3.242   2.234 -0.0036  0.0713  0.1321
 1393SOL     OW 5644   3.136   3.483   2.350  0.1031  0.2533  0.2869
 1393SOL    HW2 5645   3.150   3.463   2.443 -1.6650  2.6327  1.1036
 1393SOL    HW3 5646   3.207   3.543   2.326  2.8234 -3.2828 -1.0018
 1393SOL    MW4 5647   3.147   3.488   2.359  0.2286  0.1009  0.2246
 1394SOL     OW 5648   3.351   3.644   2.272 -0.2471 -0.2414  0.3078
 1394SOL    HW2 5649   3.427   3.593   2.301  0.2970  0.3631 -0.0141
 1394SOL    HW3 5650   3.353   3.638   2.177  0.5286  1.3249  0.1948
 1394SOL    MW4 5651   3.361   3.637   2.264 -0.0732  0.0448  0.2503
 1395SOL     OW 5652   3.351   3.921   2.375 -0.1396  0.2745 -0.6453
 1395SOL    HW2 5653   3.434   3.956   2.342 -0.3487  0.8632 -0.5498
 1395SOL    HW3 5654   3.344   3.834   2.335  0.5958  0.1589 -0.5342
 1395SOL    MW4 5655   3.361   3.914   2.366 -0.0701  0.3371 -0.6180
 1396SOL     OW 5656   3.123   3.994   2.247  0.4827 -0.1886 -0.2934
 1396SOL    HW2 5657   3.205   3.974   2.293  0.9963  1.2819 -0.5472
 1396SOL    HW3 5658   3.057   3.941   2.293  1.4751 -0.9828  0.2509
 1396SOL    MW4 5659   3.125   3.984   2.259  0.6816 -0.0994 -0.2551
 1397SOL     OW 5660   3.116   4.270   2.328  0.1664 -0.2392  0.3432
 1397SOL    HW2 5661   3.199   4.298   2.291 -1.1013  0.9825 -1.6624
 1397SOL    HW3 5662   3.107   4.178   2.302 -0.0052  0.1813 -1.1059
 1397SOL    MW4 5663   3.126   4.261   2.320 -0.0236 -0.0234 -0.1125
 1398SOL     OW 5664   3.353   4.351   2.224 -0.1667  0.2006  0.1180
 1398SOL    HW2 5665   3.353   4.442   2.256  0.8605  0.6385 -1.0936
 1398SOL    HW3 5666   3.331   4.359   2.131  0.4851 -0.7466 -0.1138
 1398SOL    MW4 5667   3.350   4.364   2.216  0.0548  0.1330 -0.0727
 1399SOL     OW 5668   3.807   4.642   2.343  0.4029 -0.1821 -0.0019
 1399SOL    HW2 5669   3.835   4.677   2.427  0.4466 -0.6180  0.1638
 1399SOL    HW3 5670   3.862   4.688   2.279  0.8349 -0.3378  0.2545
 1399SOL    MW4 5671   3.818   4.653   2.345  0.4656 -0.2604  0.0536
 1400SOL     OW 5672   3.566   0.051   2.225 -0.3484  0.4910 -0.0499
 1400SOL    HW2 5673   3.542   0.142   2.246  0.9954  0.8106  0.1198
 1400SOL    HW3 5674   3.639   0.032   2.284 -0.1282 -0.4467 -0.6342
 1400SOL    MW4 5675   3.572   0.061   2.236 -0.1419  0.4094 -0.1047
 1401SOL     OW 5676   3.540   0.317   2.299  0.1179  0.2244 -0.3182
 1401SOL    HW2 5677   3.527   0.323   2.394  0.1308  1.1390 -0.3719
 1401SOL    HW3 5678   3.626   0.357   2.284  0.8631 -1.4248 -0.5290
 1401SOL    MW4 5679   3.550   0.323   2.310  0.2177  0.1275 -0.3533
 1402SOL     OW 5680   3.778   0.443   2.211  0.1189 -1.0866 -0.3497
 1402SOL    HW2 5681   3.787   0.525   2.260 -2.0838 -0.5934 -0.7314
 1402SOL    HW3 5682   3.804   0.466   2.122 -0.0360 -0.9108 -0.3514
 1402SOL    MW4 5683   3.783   0.457   2.206 -0.1922 -0.9983 -0.4005
 1403SOL     OW 5684   3.842   0.695   2.342  0.1357  0.4921  0.0956
 1403SOL    HW2 5685   3.847   0.710   2.436  1.8915 -1.4831  0.3481
 1403SOL    HW3 5686   3.909   0.753   2.305  0.9542 -0.3285  0.2766
 1403SOL    MW4 5687   3.851   0.705   2.349  0.4754  0.1232  0.1528
 1404SOL     OW 5688   3.626   0.848   2.226  0.1588 -0.2283 -0.1458
 1404SOL    HW2 5689   3.705   0.799   2.249  0.0928  0.2498  1.1235
 1404SOL    HW3 5690   3.633   0.861   2.132  0.9282 -1.3549 -0.2597
 1404SOL    MW4 5691   3.637   0.843   2.217  0.2515 -0.3139  0.0069
 1405SOL     OW 5692   3.602   1.134   2.363 -0.6969 -0.2229  0.1588
 1405SOL    HW2 5693   3.608   1.136   2.459 -0.9492 -0.8443  0.1925
 1405SOL    HW3 5694   3.638   1.048   2.339 -1.3995 -0.4062 -0.2453
 1405SOL    MW4 5695   3.607   1.123   2.373 -0.8228 -0.3289  0.1097
 1406SOL     OW 5696   3.808   1.292   2.251 -0.2683  0.2314 -0.4532
 1406SOL    HW2 5697   3.795   1.381   2.283 -0.1712  0.2866 -0.5640
 1406SOL    HW3 5698   3.735   1.242   2.287 -0.9817  0.6161 -1.3567
 1406SOL    MW4 5699   3.797   1.297   2.260 -0.3498  0.2896 -0.5872
 1407SOL     OW 5700   3.800   1.571   2.362 -0.6049  0.0445 -0.0358
 1407SOL    HW2 5701   3.822   1.573   2.455 -1.3386 -0.7731  0.1526
 1407SOL    HW3 5702   3.706   1.590   2.359 -0.6964 -0.4892 -0.5678
 1407SOL    MW4 5703   3.791   1.574   2.374 -0.7138 -0.1339 -0.0811
 1408SOL     OW 5704   3.546   1.651   2.264 -0.1212 -0.0193  0.3724
 1408SOL    HW2 5705   3.543   1.740   2.299 -0.4941  0.7600 -1.5875
 1408SOL    HW3 5706   3.477   1.605   2.311 -1.6924  1.4392 -0.4357
 1408SOL    MW4 5707   3.537   1.657   2.275 -0.3774  0.2760  0.0074
 1409SOL     OW 5708   3.597   1.910   2.376 -0.2866 -0.1604  0.2814
 1409SOL    HW2 5709   3.674   1.958   2.345 -1.9073  2.5479  0.3008
 1409SOL    HW3 5710   3.603   1.915   2.472 -1.9869  2.6748  0.2994
 1409SOL    MW4 5711   3.608   1.917   2.385 -0.7248  0.5709  0.2863
 1410SOL     OW 5712   3.792   2.059   2.259 -0.1905  0.2189 -0.2349
 1410SOL    HW2 5713   3.871   2.015   2.290  0.0647  1.3329  0.7294
 1410SOL    HW3 5714   3.795   2.048   2.164  0.0947 -1.4411 -0.0574
 1410SOL    MW4 5715   3.803   2.052   2.251 -0.1194  0.1464 -0.0842
 1411SOL     OW 5716   3.791   2.340   2.325  0.0606 -0.4350  0.3429
 1411SOL    HW2 5717   3.713   2.380   2.289  0.9320 -0.4093 -1.5901
 1411SOL    HW3 5718   3.788   2.249   2.294 -0.7241 -1.2888  2.7757
 1411SOL    MW4 5719   3.781   2.333   2.316  0.0720 -0.5443  0.4086
 1412SOL     OW 5720   3.559   2.467   2.256 -0.1142 -0.4216 -0.5746
 1412SOL    HW2 5721   3.488   2.411   2.287 -1.5461  1.1013 -1.0434
 1412SOL    HW3 5722   3.560   2.455   2.161  0.8665 -1.1272 -0.4845
 1412SOL    MW4 5723   3.550   2.458   2.248 -0.1738 -0.3140 -0.6244
 1413SOL     OW 5724   3.580   2.721   2.333  0.1549 -0.4909 -0.1919
 1413SOL    HW2 5725   3.581   2.629   2.308  0.0691 -0.5066 -0.1373
 1413SOL    HW3 5726   3.496   2.755   2.300 -1.1757 -1.1648  2.3688
 1413SOL    MW4 5727   3.569   2.714   2.325 -0.0322 -0.5817  0.1531
 1414SOL     OW 5728   3.825   2.844   2.275  0.0653 -0.8883  0.1016
 1414SOL    HW2 5729   3.814   2.925   2.326  0.9522 -1.4262  1.1673
 1414SOL    HW3 5730   3.745   2.795   2.291 -0.3534 -0.3524 -0.3162
 1414SOL    MW4 5731   3.813   2.848   2.283  0.1271 -0.8888  0.1869
 1415SOL     OW 5732   3.781   3.096   2.395  0.4033 -0.4283 -0.3731
 1415SOL    HW2 5733   3.781   3.100   2.491 -1.4412  2.2443 -0.4223
 1415SOL    HW3 5734   3.858   3.148   2.370  0.7357 -0.9071 -0.3499
 1415SOL    MW4 5735   3.792   3.104   2.404  0.2038 -0.1388 -0.3765
 1416SOL     OW 5736   3.580   3.229   2.268 -0.0513 -0.2031  0.4479
 1416SOL    HW2 5737   3.588   3.320   2.297 -0.9240  0.0364 -0.0548
 1416SOL    HW3 5738   3.657   3.186   2.306  0.0341  0.5977  1.2203
 1416SOL    MW4 5739   3.591   3.236   2.277 -0.1552 -0.0660  0.4838
 1417SOL     OW 5740   3.563   3.503   2.363  0.4258  0.3664  0.1677
 1417SOL    HW2 5741   3.566   3.475   2.454  1.7219 -0.5406 -0.1368
 1417SOL    HW3 5742   3.648   3.544   2.347  0.2325  0.4580 -0.6412
 1417SOL    MW4 5743   3.575   3.505   2.373  0.5713  0.2587  0.0207
 1418SOL     OW 5744   3.795   3.625   2.267 -0.1182  0.2326  0.1768
 1418SOL    HW2 5745   3.795   3.718   2.292 -1.7241  0.2013  0.3215
 1418SOL    HW3 5746   3.785   3.626   2.172 -0.8792  0.1964  0.2540
 1418SOL    MW4 5747   3.794   3.638   2.258 -0.4303  0.2239  0.2062
 1419SOL     OW 5748   3.793   3.891   2.334 -0.1479 -0.3090 -0.1080
 1419SOL    HW2 5749   3.794   3.883   2.429 -1.6590 -1.0198 -0.1322
 1419SOL    HW3 5750   3.870   3.943   2.313 -0.5801  1.0498  1.6208
 1419SOL    MW4 5751   3.803   3.897   2.343 -0.4041 -0.2234  0.1166
 1420SOL     OW 5752   3.574   4.005   2.234  0.6342 -0.0813  0.0039
 1420SOL    HW2 5753   3.569   4.099   2.255  0.2610 -0.1280  0.1354
 1420SOL    HW3 5754   3.659   3.978   2.266 -0.1605 -0.2832  2.0065
 1420SOL    MW4 5755   3.584   4.014   2.241  0.4802 -0.1144  0.2854
 1421SOL     OW 5756   3.590   4.274   2.333 -0.0601  0.3455  0.4035
 1421SOL    HW2 5757   3.664   4.309   2.285  0.0166  0.5719  0.6905
 1421SOL    HW3 5758   3.513   4.305   2.285  0.0141  0.6473  0.4825
 1421SOL    MW4 5759   3.589   4.282   2.321 -0.0403  0.4158  0.4518
 1422SOL     OW 5760   3.810   4.415   2.204 -0.4865 -0.0632  0.0516
 1422SOL    HW2 5761   3.881   4.369   2.249 -0.8737 -0.8973 -0.1782
 1422SOL    HW3 5762   3.814   4.505   2.238  1.4724  0.2310 -0.9006
 1422SOL    MW4 5763   3.820   4.421   2.214 -0.2789 -0.1345 -0.1044
 1423SOL     OW 5764   4.211   4.638   2.317  0.2901 -0.2494 -0.1234
 1423SOL    HW2 5765   4.215   4.642   2.413 -0.1911 -0.3221 -0.1009
 1423SOL    HW3 5766   4.274   4.704   2.288  0.8974 -0.6570  0.2441
 1423SOL    MW4 5767   4.220   4.647   2.326  0.3066 -0.3123 -0.0718
 1424SOL     OW 5768   3.992   0.094   2.180 -0.1894 -0.0082 -0.4132
 1424SOL    HW2 5769   3.990   0.180   2.221  0.5562  0.0447 -0.4894
 1424SOL    HW3 5770   4.071   0.052   2.214 -0.4131 -0.5654 -0.5702
 1424SOL    MW4 5771   4.002   0.100   2.190 -0.1206 -0.0747 -0.4439
 1425SOL     OW 5772   4.021   0.332   2.326  0.0802 -0.4591  0.5979
 1425SOL    HW2 5773   4.098   0.369   2.282  0.8543 -0.6881  1.7487
 1425SOL    HW3 5774   3.946   0.372   2.282  0.8285 -1.1564 -1.3494
 1425SOL    MW4 5775   4.021   0.342   2.314  0.2809 -0.5814  0.4928
 1426SOL     OW 5776   4.239   0.464   2.224  0.0270 -0.3701  0.3538
 1426SOL    HW2 5777   4.221   0.555   2.248  0.0243 -0.4099  0.5050
 1426SOL    HW3 5778   4.310   0.438   2.283  1.3076  0.1198 -0.9625
 1426SOL    MW4 5779   4.246   0.473   2.235  0.1960 -0.3107  0.2003
 1427SOL     OW 5780   4.221   0.717   2.326 -0.1507 -0.5029  0.3845
 1427SOL    HW2 5781   4.149   0.771   2.293 -0.3835 -0.8466  0.3393
 1427SOL    HW3 5782   4.300   0.761   2.292 -0.2392  0.8402  1.8285
 1427SOL    MW4 5783   4.222   0.730   2.317 -0.1931 -0.3710  0.5691
 1428SOL     OW 5784   4.004   0.873   2.217 -0.0967 -0.0536  0.1287
 1428SOL    HW2 5785   4.009   0.962   2.253 -0.1081  0.1502 -0.3795
 1428SOL    HW3 5786   4.012   0.884   2.123  1.8523 -0.7479  0.1766
 1428SOL    MW4 5787   4.006   0.886   2.209  0.1593 -0.1183  0.0682
 1429SOL     OW 5788   4.036   1.133   2.330 -0.1278 -0.3817  0.2395
 1429SOL    HW2 5789   4.022   1.110   2.422 -0.5040 -2.0821 -0.2346
 1429SOL    HW3 5790   3.962   1.189   2.308 -0.3919 -0.5149  0.7873
 1429SOL    MW4 5791   4.024   1.137   2.339 -0.2127 -0.6237  0.2494
 1430SOL     OW 5792   4.227   1.313   2.257 -0.4258  0.1277 -0.1310
 1430SOL    HW2 5793   4.168   1.250   2.299 -0.7522  1.8835  2.1860
 1430SOL    HW3 5794   4.314   1.288   2.288 -0.3344 -0.3697 -0.7846
 1430SOL    MW4 5795   4.231   1.301   2.267 -0.4568  0.2936  0.0885
 1431SOL     OW 5796   4.249   1.569   2.377 -0.6774  0.5494  0.3346
 1431SOL    HW2 5797   4.241   1.482   2.337 -1.0563 -0.2487  2.0939
 1431SOL    HW3 5798   4.339   1.595   2.358 -0.8362  0.1756 -0.9848
 1431SOL    MW4 5799   4.260   1.561   2.369 -0.7477  0.3948  0.3927
 1432SOL     OW 5800   4.023   1.670   2.248  0.2975  0.5915  0.1224
 1432SOL    HW2 5801   4.096   1.628   2.293 -0.6789 -0.3512  0.8130
 1432SOL    HW3 5802   3.945   1.628   2.283 -0.5703  1.3665 -0.8629
 1432SOL    MW4 5803   4.022   1.659   2.258  0.0544  0.5693  0.0834
 1433SOL     OW 5804   4.035   1.927   2.337  0.1112  0.0857  0.1174
 1433SOL    HW2 5805   4.034   1.922   2.433  1.7030 -1.2738  0.0874
 1433SOL    HW3 5806   4.027   1.836   2.309  0.1901  0.4276 -1.0316
 1433SOL    MW4 5807   4.034   1.914   2.346  0.3319 -0.0485 -0.0384
 1434SOL     OW 5808   4.234   2.060   2.214 -0.5585 -0.1287  0.2434
 1434SOL    HW2 5809   4.230   2.142   2.263  0.4736 -0.7958  1.4862
 1434SOL    HW3 5810   4.176   2.001   2.263 -0.7690 -0.3370 -0.2613
 1434SOL    MW4 5811   4.226   2.063   2.227 -0.4497 -0.2441  0.3405
 1435SOL     OW 5812   4.264   2.302   2.355  0.0535  0.0705  0.3117
 1435SOL    HW2 5813   4.185   2.340   2.316  0.3267 -0.4316 -0.7568
 1435SOL    HW3 5814   4.335   2.353   2.317  0.4181 -1.4016 -1.0503
 1435SOL    MW4 5815   4.263   2.314   2.345  0.1378 -0.1898 -0.0088
 1436SOL     OW 5816   4.046   2.421   2.234  0.0477  1.1020  0.0838
 1436SOL    HW2 5817   4.059   2.508   2.272  0.3456  1.5810 -1.0850
 1436SOL    HW3 5818   3.966   2.389   2.274  0.2501  1.6756  0.9644
 1436SOL    MW4 5819   4.037   2.429   2.244  0.1135  1.2410  0.0460
 1437SOL     OW 5820   4.037   2.677   2.357  0.3269 -0.5722  0.7997
 1437SOL    HW2 5821   4.043   2.678   2.453 -0.7727 -1.4472  0.8797
 1437SOL    HW3 5822   3.969   2.742   2.337  1.4548  0.5449  0.5345
 1437SOL    MW4 5823   4.029   2.686   2.367  0.3309 -0.5403  0.7751
 1438SOL     OW 5824   4.260   2.840   2.255 -0.1632  0.4726  0.0323
 1438SOL    HW2 5825   4.192   2.775   2.272  0.0961 -0.1928 -1.4498
 1438SOL    HW3 5826   4.339   2.804   2.295 -0.3083  0.4976  0.3451
 1438SOL    MW4 5827   4.261   2.827   2.263 -0.1483  0.3881 -0.1218
 1439SOL     OW 5828   4.256   3.113   2.356 -0.0421 -0.0647 -0.7751
 1439SOL    HW2 5829   4.244   3.021   2.332  1.3175 -0.0721 -1.4257
 1439SOL    HW3 5830   4.334   3.141   2.309 -0.1111  1.2679 -0.1268
 1439SOL    MW4 5831   4.264   3.105   2.347  0.1283  0.1101 -0.7756
 1440SOL     OW 5832   4.020   3.253   2.293 -0.3834 -0.2452  0.4629
 1440SOL    HW2 5833   4.028   3.341   2.331  0.8594 -0.9423  1.8728
 1440SOL    HW3 5834   4.099   3.207   2.322 -0.0184 -1.2195 -1.9506
 1440SOL    MW4 5835   4.031   3.259   2.302 -0.1717 -0.4656  0.3307
 1441SOL     OW 5836   4.026   3.514   2.358 -0.4795  0.3802  0.1330
 1441SOL    HW2 5837   4.034   3.532   2.452 -1.1999  2.6750 -0.2244
 1441SOL    HW3 5838   3.941   3.550   2.334 -0.1721  0.0538 -1.4675
 1441SOL    MW4 5839   4.016   3.521   2.368 -0.5341  0.6399 -0.1252
 1442SOL     OW 5840   4.260   3.588   2.269  0.1747  0.1936  0.5206
 1442SOL    HW2 5841   4.271   3.682   2.287  0.7249  0.3759 -0.7281
 1442SOL    HW3 5842   4.170   3.570   2.295  0.2366  0.9442  1.3022
 1442SOL    MW4 5843   4.249   3.598   2.275  0.2551  0.3166  0.4587
 1443SOL     OW 5844   4.246   3.863   2.311  0.1853 -0.2040 -0.0921
 1443SOL    HW2 5845   4.242   3.870   2.407 -0.6646  1.0513 -0.2019
 1443SOL    HW3 5846   4.328   3.905   2.287 -0.9223  2.0063 -0.1071
 1443SOL    MW4 5847   4.256   3.869   2.321 -0.0734  0.2534 -0.1085
 1444SOL     OW 5848   4.024   4.041   2.295 -0.4056  0.1595  0.3939
 1444SOL    HW2 5849   4.089   3.972   2.311 -1.2868 -0.5550  0.9958
 1444SOL    HW3 5850   4.029   4.058   2.201 -2.3922 -3.0554 -0.3801
 1444SOL    MW4 5851   4.033   4.034   2.285 -0.7839 -0.3586  0.3712
 1445SOL     OW 5852   4.016   4.307   2.347  0.1822  0.0852  0.1708
 1445SOL    HW2 5853   4.092   4.339   2.299  0.3352  1.6305  1.3810
 1445SOL    HW3 5854   4.029   4.212   2.353  0.1563 -0.1661 -2.7690
 1445SOL    MW4 5855   4.028   4.299   2.341  0.1988  0.2556 -0.0575
 1446SOL     OW 5856   4.239   4.391   2.196 -0.4368  0.4881  0.5035
 1446SOL    HW2 5857   4.242   4.480   2.232  0.5225  0.8345 -0.4242
 1446SOL    HW3 5858   4.324   4.353   2.219 -0.6883 -0.0613  0.5423
 1446SOL    MW4 5859   4.251   4.398   2.204 -0.3433  0.4611  0.3860
 1447SOL     OW 5860   0.225   4.659   2.611  0.0808  0.3781 -0.1008
 1447SOL    HW2 5861   0.224   4.568   2.641  2.1482  0.3451 -0.0251
 1447SOL    HW3 5862   0.143   4.696   2.643 -0.1042 -1.0593  1.1469
 1447SOL    MW4 5863   0.214   4.652   2.619  0.3292  0.1841  0.0737
 1448SOL     OW 5864   4.476   0.117   2.735 -0.0143  0.1940  0.8523
 1448SOL    HW2 5865   4.493   0.106   2.829  1.7703 -0.7284  0.4471
 1448SOL    HW3 5866   4.473   0.212   2.723 -0.8982  0.3206  1.9459
 1448SOL    MW4 5867   4.478   0.128   2.746  0.1044  0.0890  0.9434
 1449SOL     OW 5868   4.460   0.385   2.630  0.0335  0.4216 -0.3847
 1449SOL    HW2 5869   4.533   0.443   2.653 -1.1917  1.3217  1.2890
 1449SOL    HW3 5870   4.452   0.394   2.535  0.8839  1.7801 -0.3488
 1449SOL    MW4 5871   4.469   0.394   2.621 -0.0162  0.7195 -0.1593
 1450SOL     OW 5872   0.181   0.531   2.694  0.3718 -0.0900 -0.2068
 1450SOL    HW2 5873   0.191   0.525   2.789 -1.2635 -0.2255 -0.0415
 1450SOL    HW3 5874   0.261   0.492   2.659  0.7882 -0.4290  1.1052
 1450SOL    MW4 5875   0.193   0.525   2.702  0.2110 -0.1526 -0.0117
 1451SOL     OW 5876   0.199   0.784   2.596 -0.6334  0.1221 -0.1628
 1451SOL    HW2 5877   0.274   0.814   2.647 -0.7332  0.5618 -0.2742
 1451SOL    HW3 5878   0.183   0.695   2.627 -0.6420  0.3591  0.5115
 1451SOL    MW4 5879   0.207   0.776   2.607 -0.6476  0.2114 -0.0887
 1452SOL     OW 5880   4.457   0.881   2.713  0.0993  0.4758 -0.0236
 1452SOL    HW2 5881   4.386   0.833   2.670  0.2968  0.3683 -0.2261
 1452SOL    HW3 5882   4.536   0.853   2.668  0.2492  0.7574  0.0636
 1452SOL    MW4 5883   4.458   0.871   2.702  0.1459  0.4988 -0.0386
 1453SOL     OW 5884   4.475   1.142   2.632  0.7463 -0.2615 -0.9027
 1453SOL    HW2 5885   4.545   1.188   2.680 -0.2027  2.2528 -1.8377
 1453SOL    HW3 5886   4.466   1.059   2.678  0.5055  1.6606  2.7798
 1453SOL    MW4 5887   4.483   1.137   2.645  0.5898  0.3238 -0.5403
 1454SOL     OW 5888   0.200   1.283   2.748 -0.0477 -0.5397  0.6502
 1454SOL    HW2 5889   0.270   1.239   2.700 -0.0578 -0.9822  1.0431
 1454SOL    HW3 5890   0.187   1.365   2.700  0.0592 -0.8987  0.0021
 1454SOL    MW4 5891   0.208   1.288   2.735 -0.0350 -0.6456  0.6168
 1455SOL     OW 5892   0.183   1.530   2.625 -0.1601  0.2018 -0.4443
 1455SOL    HW2 5893   0.255   1.567   2.676 -0.0658 -2.0511  1.1404
 1455SOL    HW3 5894   0.106   1.580   2.652  0.1043 -0.1775  1.0314
 1455SOL    MW4 5895   0.182   1.542   2.635 -0.1128 -0.1454 -0.0403
 1456SOL     OW 5896   4.472   1.694   2.720 -0.0167  0.2992 -0.3580
 1456SOL    HW2 5897   4.466   1.697   2.816 -1.4002  0.4058 -0.4336
 1456SOL    HW3 5898   4.487   1.785   2.694  2.0463  0.0414 -0.1643
 1456SOL    MW4 5899   4.473   1.706   2.729  0.0734  0.2791 -0.3424
 1457SOL     OW 5900   0.011   1.945   2.619  0.1673 -0.0343  0.0627
 1457SOL    HW2 5901   0.087   1.989   2.658  0.7122 -1.2585  0.4172
 1457SOL    HW3 5902   0.028   1.950   2.525  0.3914  0.2240  0.1139
 1457SOL    MW4 5903   0.023   1.951   2.612  0.2689 -0.1618  0.1163
 1458SOL     OW 5904   0.245   2.052   2.724 -0.0702 -0.1742  0.1282
 1458SOL    HW2 5905   0.327   2.014   2.693 -1.5333 -2.3100 -1.2198
 1458SOL    HW3 5906   0.253   2.146   2.705  2.3282 -0.2540  0.6663
 1458SOL    MW4 5907   0.257   2.060   2.717  0.0532 -0.4663  0.0212
 1459SOL     OW 5908   0.240   2.317   2.626  0.2850  0.5453 -0.0665
 1459SOL    HW2 5909   0.320   2.360   2.655  0.1214  1.0974 -0.4283
 1459SOL    HW3 5910   0.171   2.356   2.680 -0.0278  1.6173 -1.2278
 1459SOL    MW4 5911   0.241   2.327   2.637  0.2221  0.7596 -0.2675
 1460SOL     OW 5912   0.028   2.465   2.768  0.6339 -0.0963  0.0551
 1460SOL    HW2 5913   0.000   2.452   2.859  0.7125 -0.0077  0.0919
 1460SOL    HW3 5914  -0.032   2.411   2.717  0.7422 -0.3340  0.1804
 1460SOL    MW4 5915   0.016   2.456   2.773  0.6585 -0.1161  0.0765
 1461SOL     OW 5916   4.475   2.710   2.659 -0.1897  0.2992  0.4059
 1461SOL    HW2 5917   4.401   2.741   2.711  0.1969 -0.8050  1.6716
 1461SOL    HW3 5918   4.496   2.625   2.698  0.8080 -0.0487 -0.8838
 1461SOL    MW4 5919   4.468   2.703   2.671 -0.0072  0.1075  0.4027
 1462SOL     OW 5920   0.217   2.805   2.748  0.1211  0.3437  0.2520
 1462SOL    HW2 5921   0.234   2.889   2.706 -0.9056 -0.0936 -1.0822
 1462SOL    HW3 5922   0.131   2.778   2.714  0.8492 -1.6677 -0.0672
 1462SOL    MW4 5923   0.208   2.812   2.738  0.0817  0.0207  0.0339
 1463SOL     OW 5924   0.253   3.060   2.632  0.3211  0.4425  0.1769
 1463SOL    HW2 5925   0.346   3.077   2.651  0.3889 -0.6822  0.8985
 1463SOL    HW3 5926   0.243   3.081   2.540  1.6978 -1.0107 -0.3265
 1463SOL    MW4 5927   0.264   3.065   2.623  0.5117  0.1025  0.2060
 1464SOL     OW 5928   0.026   3.211   2.723  0.3818 -0.0896  0.0110
 1464SOL    HW2 5929  -0.049   3.162   2.689 -0.2906  1.6267 -1.0566
 1464SOL    HW3 5930   0.102   3.162   2.693 -0.2932 -2.3774  1.9256
 1464SOL    MW4 5931   0.026   3.198   2.714  0.2041 -0.1650  0.1228
 1465SOL     OW 5932   0.005   3.478   2.632 -0.1440  0.4748 -0.4359
 1465SOL    HW2 5933   0.068   3.533   2.679  0.3560  1.0223 -1.7352
 1465SOL    HW3 5934   0.004   3.396   2.681  1.1190  0.6767 -0.0508
 1465SOL    MW4 5935   0.013   3.474   2.645  0.0886  0.5736 -0.5565
 1466SOL     OW 5936   0.209   3.600   2.754 -0.4305 -0.5251 -0.1008
 1466SOL    HW2 5937   0.230   3.624   2.844  0.0253  1.1511 -0.6300
 1466SOL    HW3 5938   0.279   3.540   2.728 -2.0220 -3.1606  1.5158
 1466SOL    MW4 5939   0.221   3.596   2.762 -0.5803 -0.6514  0.0429
 1467SOL     OW 5940   0.225   3.861   2.656 -0.3405 -0.3677 -0.6563
 1467SOL    HW2 5941   0.207   3.769   2.676 -0.1362 -0.4440 -0.8148
 1467SOL    HW3 5942   0.220   3.866   2.560 -0.3507 -0.2140 -0.6480
 1467SOL    MW4 5943   0.222   3.849   2.646 -0.3149 -0.3574 -0.6762
 1468SOL     OW 5944   4.478   3.994   2.719  0.6777 -0.2984  0.2785
 1468SOL    HW2 5945   4.477   4.088   2.701 -1.4152 -0.3860 -0.2010
 1468SOL    HW3 5946   4.571   3.969   2.716  1.1988  1.6457 -0.0597
 1468SOL    MW4 5947   4.490   4.003   2.717  0.4702 -0.0534  0.1705
 1469SOL     OW 5948   4.462   4.256   2.630 -0.6826 -0.2873 -0.0249
 1469SOL    HW2 5949   4.391   4.310   2.666 -0.0691 -0.3896  1.3612
 1469SOL    HW3 5950   4.542   4.296   2.663 -0.1472 -1.0086 -0.4328
 1469SOL    MW4 5951   4.463   4.268   2.639 -0.5307 -0.3958  0.1040
 1470SOL     OW 5952   0.198   4.399   2.712  0.3142 -0.4572  0.1813
 1470SOL    HW2 5953   0.210   4.397   2.807 -0.3321  0.7338  0.3040
 1470SOL    HW3 5954   0.268   4.344   2.678  1.0849 -0.1937  1.2988
 1470SOL    MW4 5955   0.209   4.392   2.720  0.3306 -0.2651  0.3450
 1471SOL     OW 5956   0.651   4.654   2.624 -0.1873 -0.3902  0.2061
 1471SOL    HW2 5957   0.733   4.698   2.646  0.7668 -1.2036 -1.5875
 1471SOL    HW3 5958   0.582   4.714   2.653  1.0535  0.8137  0.6956
 1471SOL    MW4 5959   0.653   4.668   2.631  0.1023 -0.3390  0.0343
 1472SOL     OW 5960   0.435   0.134   2.711 -0.1266  0.1059 -0.0224
 1472SOL    HW2 5961   0.422   0.117   2.805  0.5608 -1.8282 -0.2541
 1472SOL    HW3 5962   0.358   0.095   2.670  0.1464 -0.0589 -0.3679
 1472SOL    MW4 5963   0.423   0.127   2.718  0.0001 -0.1710 -0.0987
 1473SOL     OW 5964   0.419   0.409   2.636  0.1876 -0.1421 -0.0976
 1473SOL    HW2 5965   0.500   0.449   2.669 -0.0213 -0.3783  0.7168
 1473SOL    HW3 5966   0.427   0.316   2.659  0.2246 -0.3901 -1.0923
 1473SOL    MW4 5967   0.431   0.402   2.644  0.1649 -0.2060 -0.1214
 1474SOL     OW 5968   0.645   0.498   2.750 -0.3582 -0.0983 -0.1586
 1474SOL    HW2 5969   0.642   0.489   2.845 -0.6763  1.4597 -0.0029
 1474SOL    HW3 5970   0.719   0.444   2.722 -0.5876 -0.9754  0.9135
 1474SOL    MW4 5971   0.654   0.490   2.759 -0.4305 -0.0085  0.0033
 1475SOL     OW 5972   0.638   0.774   2.670 -0.7077 -0.4782 -0.2955
 1475SOL    HW2 5973   0.724   0.807   2.693 -0.1684 -2.1169  0.1182
 1475SOL    HW3 5974   0.639   0.683   2.699 -2.5405 -0.5415 -0.3741
 1475SOL    MW4 5975   0.649   0.766   2.677 -0.8784 -0.7027 -0.2515
 1476SOL     OW 5976   0.405   0.909   2.728  0.3873  0.1791  0.4554
 1476SOL    HW2 5977   0.411   1.003   2.712 -0.2305  0.0937 -0.3160
 1476SOL    HW3 5978   0.488   0.873   2.695  0.5702  0.4339  0.6361
 1476SOL    MW4 5979   0.417   0.917   2.722  0.3300  0.2015  0.3774
 1477SOL     OW 5980   0.434   1.171   2.620  0.2574 -0.0496  0.0913
 1477SOL    HW2 5981   0.510   1.207   2.664 -0.6436  3.0646 -0.6880
 1477SOL    HW3 5982   0.444   1.199   2.528 -0.4838 -1.8834 -0.5714
 1477SOL    MW4 5983   0.445   1.180   2.613  0.0407  0.1193 -0.0992
 1478SOL     OW 5984   0.659   1.289   2.741  0.1414  1.0213 -0.2125
 1478SOL    HW2 5985   0.657   1.264   2.833  2.5853  2.2239  0.2092
 1478SOL    HW3 5986   0.731   1.237   2.704 -0.9028  0.4560 -1.4801
 1478SOL    MW4 5987   0.668   1.279   2.748  0.3260  1.1054 -0.3245
 1479SOL     OW 5988   0.618   1.559   2.651 -0.1983 -0.5200 -0.2595
 1479SOL    HW2 5989   0.532   1.584   2.685  1.0492  0.1849  2.5301
 1479SOL    HW3 5990   0.639   1.478   2.697  1.5196  0.4335  0.7001
 1479SOL    MW4 5991   0.609   1.552   2.662  0.1929 -0.3014  0.2353
 1480SOL     OW 5992   0.382   1.671   2.739  0.1470  0.0634 -0.1658
 1480SOL    HW2 5993   0.401   1.693   2.831 -1.6035  0.4563  0.1267
 1480SOL    HW3 5994   0.402   1.751   2.691  3.6007 -0.9396 -0.5306
 1480SOL    MW4 5995   0.387   1.685   2.745  0.3718 -0.0169 -0.1752
 1481SOL     OW 5996   0.469   1.911   2.613 -0.5080  0.6922 -0.1117
 1481SOL    HW2 5997   0.548   1.958   2.638  0.4401 -0.6641 -0.4592
 1481SOL    HW3 5998   0.466   1.918   2.517 -0.5932  0.4190 -0.1304
 1481SOL    MW4 5999   0.479   1.918   2.604 -0.3941  0.4772 -0.1600
 1482SOL     OW 6000   0.689   2.031   2.736 -0.3829  0.0702 -0.1233
 1482SOL    HW2 6001   0.688   2.039   2.832  0.3220  1.8378 -0.2431
 1482SOL    HW3 6002   0.782   2.024   2.714 -0.5067  0.2918 -0.7174
 1482SOL    MW4 6003   0.701   2.031   2.746 -0.3062  0.3324 -0.2174
 1483SOL     OW 6004   0.662   2.276   2.625 -0.6946  0.2661 -0.0088
 1483SOL    HW2 6005   0.739   2.323   2.655 -0.3615  0.3543 -0.9869
 1483SOL    HW3 6006   0.670   2.189   2.664  0.5221 -0.1132 -1.0786
 1483SOL    MW4 6007   0.673   2.270   2.634 -0.4901  0.2277 -0.2792
 1484SOL     OW 6008   0.451   2.434   2.732  0.7401  0.2497  0.1345
 1484SOL    HW2 6009   0.470   2.520   2.695  0.3336  0.3550  0.1678
 1484SOL    HW3 6010   0.529   2.382   2.714  0.4967  0.2659 -0.9697
 1484SOL    MW4 6011   0.464   2.439   2.725  0.6543  0.2656 -0.0069
 1485SOL     OW 6012   0.436   2.683   2.602  0.1992  0.1876  0.2272
 1485SOL    HW2 6013   0.515   2.727   2.634 -0.0404  1.6624 -1.1195
 1485SOL    HW3 6014   0.364   2.724   2.649  0.0436  0.5533 -0.3335
 1485SOL    MW4 6015   0.437   2.694   2.612  0.1471  0.4306 -0.0246
 1486SOL     OW 6016   0.655   2.788   2.742 -0.1291 -0.3704 -0.0863
 1486SOL    HW2 6017   0.664   2.799   2.837  0.4326 -1.9606  0.0521
 1486SOL    HW3 6018   0.663   2.877   2.707  0.3635  0.1466  1.2977
 1486SOL    MW4 6019   0.657   2.801   2.750  0.0100 -0.5119  0.1144
 1487SOL     OW 6020   0.739   3.037   2.646  0.6128  0.0229 -0.0442
 1487SOL    HW2 6021   0.808   3.093   2.681 -0.1966  0.7110  0.4593
 1487SOL    HW3 6022   0.717   3.077   2.562  0.2277  0.3081  0.1898
 1487SOL    MW4 6023   0.745   3.050   2.639  0.4552  0.1516  0.0532
 1488SOL     OW 6024   0.509   3.169   2.706 -0.3091 -0.3005  0.1352
 1488SOL    HW2 6025   0.496   3.186   2.799 -0.9130  0.3409 -0.0567
 1488SOL    HW3 6026   0.596   3.130   2.700  0.2680  0.8477  0.8340
 1488SOL    MW4 6027   0.518   3.166   2.717 -0.3127 -0.0646  0.2019
 1489SOL     OW 6028   0.446   3.458   2.663 -0.0200 -0.3707  0.6624
 1489SOL    HW2 6029   0.455   3.363   2.670 -1.6819 -0.5630  0.3794
 1489SOL    HW3 6030   0.440   3.475   2.569 -1.7678 -0.2025  0.7906
 1489SOL    MW4 6031   0.446   3.448   2.651 -0.4699 -0.3738  0.6418
 1490SOL     OW 6032   0.675   3.621   2.716  0.1395 -0.1493 -0.4813
 1490SOL    HW2 6033   0.678   3.621   2.812  1.3731 -0.1734 -0.5068
 1490SOL    HW3 6034   0.598   3.569   2.694  0.7490 -1.4808  0.4906
 1490SOL    MW4 6035   0.666   3.614   2.726  0.3827 -0.3283 -0.3562
 1491SOL     OW 6036   0.677   3.880   2.621  0.2264  0.1075  0.0200
 1491SOL    HW2 6037   0.591   3.914   2.646  0.9767  1.5156  0.7265
 1491SOL    HW3 6038   0.683   3.794   2.663 -1.2260 -0.4472 -0.8514
 1491SOL    MW4 6039   0.666   3.873   2.630  0.1338  0.2203 -0.0019
 1492SOL     OW 6040   0.460   3.995   2.732  0.1812 -0.4828 -0.1247
 1492SOL    HW2 6041   0.438   4.086   2.709 -1.2371  0.0226  2.9443
 1492SOL    HW3 6042   0.377   3.949   2.728  0.4440 -1.0486  0.9101
 1492SOL    MW4 6043   0.446   4.001   2.728  0.0288 -0.4902  0.4168
 1493SOL     OW 6044   0.412   4.255   2.639  0.6033 -0.4873 -0.0391
 1493SOL    HW2 6045   0.493   4.298   2.666 -0.2492  1.4438 -0.4829
 1493SOL    HW3 6046   0.415   4.255   2.543  0.9443 -2.1300 -0.0432
 1493SOL    MW4 6047   0.423   4.261   2.630  0.5358 -0.4492 -0.0982
 1494SOL     OW 6048   0.651   4.394   2.716 -0.3528  0.2334  0.3854
 1494SOL    HW2 6049   0.740   4.363   2.696 -0.0805  0.8015  0.7284
 1494SOL    HW3 6050   0.647   4.482   2.678 -0.5550  0.4677  0.9472
 1494SOL    MW4 6051   0.662   4.402   2.708 -0.3436  0.3395  0.5047
 1495SOL     OW 6052   1.092   4.649   2.607 -0.4433 -0.2747 -0.3143
 1495SOL    HW2 6053   1.155   4.701   2.656 -2.0783  0.5763  0.9047
 1495SOL    HW3 6054   1.114   4.558   2.630 -0.2871  0.0517  0.8625
 1495SOL    MW4 6055   1.103   4.644   2.616 -0.6385 -0.1192  0.0019
 1496SOL     OW 6056   0.873   0.121   2.697  0.2335 -0.0658 -0.0567
 1496SOL    HW2 6057   0.895   0.127   2.789  0.9209  1.0608 -0.2966
 1496SOL    HW3 6058   0.941   0.065   2.659  0.1288 -0.2649  0.0432
 1496SOL    MW4 6059   0.885   0.114   2.704  0.3103  0.0565 -0.0753
 1497SOL     OW 6060   0.874   0.390   2.634  0.6779  0.0845  0.5400
 1497SOL    HW2 6061   0.872   0.297   2.655  1.3198  0.1616  0.9477
 1497SOL    HW3 6062   0.850   0.394   2.541  1.0574 -0.5215  0.4158
 1497SOL    MW4 6063   0.871   0.379   2.624  0.8126  0.0148  0.5774
 1498SOL     OW 6064   1.113   0.483   2.707  0.0283  0.1625 -0.4152
 1498SOL    HW2 6065   1.124   0.572   2.673  0.6680  0.3625  0.2740
 1498SOL    HW3 6066   1.025   0.457   2.682  0.0167  0.8125 -1.0423
 1498SOL    MW4 6067   1.103   0.491   2.699  0.1111  0.2747 -0.4067
 1499SOL     OW 6068   1.140   0.766   2.620  0.5854 -0.0121  0.0046
 1499SOL    HW2 6069   1.230   0.784   2.646  1.0249 -1.2061 -0.6668
 1499SOL    HW3 6070   1.139   0.780   2.526  0.7078 -2.4875 -0.3852
 1499SOL    MW4 6071   1.152   0.770   2.611  0.6595 -0.4963 -0.1352
 1500SOL     OW 6072   0.902   0.890   2.729  0.1642 -0.1875  0.1144
 1500SOL    HW2 6073   0.897   0.876   2.823  0.0970  0.3729  0.1937
 1500SOL    HW3 6074   0.977   0.839   2.700 -0.4054 -1.1514  0.3262
 1500SOL    MW4 6075   0.911   0.882   2.737  0.0802 -0.2407  0.1528
 1501SOL     OW 6076   0.891   1.161   2.657 -0.3715  0.4403  0.1799
 1501SOL    HW2 6077   0.893   1.072   2.692  2.1236  0.1892 -0.5076
 1501SOL    HW3 6078   0.912   1.152   2.564 -1.0473  1.6717 -0.1130
 1501SOL    MW4 6079   0.894   1.148   2.649 -0.1315  0.5696  0.0505
 1502SOL     OW 6080   1.126   1.295   2.730  0.1408 -0.5289  0.3181
 1502SOL    HW2 6081   1.123   1.388   2.709  0.4587 -0.7575 -0.7644
 1502SOL    HW3 6082   1.042   1.260   2.699  0.0641 -0.6166  0.6278
 1502SOL    MW4 6083   1.115   1.303   2.723  0.1727 -0.5707  0.2162
 1503SOL     OW 6084   1.100   1.547   2.597  0.0068 -0.0192  0.1875
 1503SOL    HW2 6085   1.021   1.592   2.626  0.6023  0.5314  0.9761
 1503SOL    HW3 6086   1.104   1.563   2.503  0.7102  2.4004  0.5992
 1503SOL    MW4 6087   1.090   1.555   2.589  0.1781  0.3726  0.3459
 1504SOL     OW 6088   0.876   1.678   2.712  0.5892 -0.1107  0.2414
 1504SOL    HW2 6089   0.868   1.694   2.806  0.5699  1.8343 -0.0705
 1504SOL    HW3 6090   0.789   1.649   2.685  0.0982  1.1109  0.5023
 1504SOL    MW4 6091   0.864   1.676   2.721  0.5218  0.3070  0.2348
 1505SOL     OW 6092   0.941   1.958   2.676 -0.2759 -0.1735 -0.8249
 1505SOL    HW2 6093   1.018   1.988   2.725 -1.2104 -0.3839  0.8172
 1505SOL    HW3 6094   0.937   1.864   2.693  0.6259 -0.6532 -3.0981
 1505SOL    MW4 6095   0.951   1.950   2.685 -0.2802 -0.2645 -0.9084
 1506SOL     OW 6096   1.170   2.078   2.792 -0.6223 -0.2457  0.2093
 1506SOL    HW2 6097   1.226   2.023   2.736 -3.8012 -1.6595 -1.7359
 1506SOL    HW3 6098   1.161   2.160   2.744  0.2179  0.1971  0.7986
 1506SOL    MW4 6099   1.176   2.081   2.778 -0.9308 -0.3736  0.0305
 1507SOL     OW 6100   1.129   2.323   2.648  0.3683 -0.1286  0.6415
 1507SOL    HW2 6101   1.209   2.372   2.670  0.0142  1.3165 -1.1293
 1507SOL    HW3 6102   1.129   2.320   2.552 -1.6826 -0.1690  0.6302
 1507SOL    MW4 6103   1.140   2.329   2.638  0.0509  0.0567  0.4063
 1508SOL     OW 6104   0.878   2.404   2.734 -0.5225  0.2233  0.0385
 1508SOL    HW2 6105   0.878   2.492   2.695  0.2628  0.2739  0.1378
 1508SOL    HW3 6106   0.967   2.372   2.720 -0.6026 -0.2712  0.6516
 1508SOL    MW4 6107   0.890   2.412   2.727 -0.4295  0.1647  0.1326
 1509SOL     OW 6108   0.905   2.666   2.630 -0.0980 -0.2441  0.0166
 1509SOL    HW2 6109   0.968   2.725   2.671  0.0817 -0.4432  0.0290
 1509SOL    HW3 6110   0.822   2.686   2.673  0.4582 -1.8279  1.9191
 1509SOL    MW4 6111   0.903   2.676   2.641 -0.0009 -0.4795  0.2694
 1510SOL     OW 6112   1.083   2.832   2.746  0.0000  0.0000  0.1970
 1510SOL    HW2 6113   1.106   2.825   2.839  0.0000  0.0000  0.1969
 1510SOL    HW3 6114   1.159   2.795   2.700  0.0000  0.0000  0.1975
 1510SOL    MW4 6115   1.096   2.826   2.752  0.0000  0.0000  0.1969
 1511SOL     OW 6116   1.148   3.096   2.664  0.0000  0.0000  0.0468
 1511SOL    HW2 6117   1.122   3.007   2.687  0.0000  0.0000  0.0437
 1511SOL    HW3 6118   1.136   3.101   2.569  0.0000  0.0000  0.0467
 1511SOL    MW4 6119   1.143   3.085   2.655  0.0000  0.0000  0.0463
 1512SOL     OW 6120   0.919   3.208   2.755  0.0000  0.0000  0.1458
 1512SOL    HW2 6121   0.902   3.287   2.703  0.0000  0.0000  0.1104
 1512SOL    HW3 6122   1.006   3.179   2.726  0.0000  0.0000  0.1677
 1512SOL    MW4 6123   0.928   3.215   2.744  0.0000  0.0000  0.1440
 1513SOL     OW 6124   0.887   3.462   2.629  0.0000  0.0000 -0.4335
 1513SOL    HW2 6125   0.961   3.507   2.670  0.0000  0.0000 -0.4435
 1513SOL    HW3 6126   0.810   3.511   2.659  0.0000  0.0000 -0.4403
 1513SOL    MW4 6127   0.887   3.474   2.638  0.0000  0.0000 -0.4358
 1514SOL     OW 6128   1.102   3.599   2.731  0.0000  0.0000  0.1748
 1514SOL    HW2 6129   1.101   3.626   2.823  0.0000  0.0000  0.1758
 1514SOL    HW3 6130   1.100   3.681   2.682  0.0000  0.0000  0.1778
 1514SOL    MW4 6131   1.102   3.613   2.737  0.0000  0.0000  0.1752
 1515SOL     OW 6132   1.098   3.851   2.631  0.0000  0.0000  0.1827
 1515SOL    HW2 6133   1.178   3.889   2.669  0.0000  0.0000  0.1845
 1515SOL    HW3 6134   1.110   3.859   2.536  0.0000  0.0000  0.1830
 1515SOL    MW4 6135   1.110   3.857   2.624  0.0000  0.0000  0.1829
 1516SOL     OW 6136   0.893   4.008   2.746  0.0000  0.0000  0.1899
 1516SOL    HW2 6137   0.957   3.963   2.691  0.0000  0.0000  0.1952
 1516SOL    HW3 6138   0.809   3.969   2.719  0.0000  0.0000  0.1770
 1516SOL    MW4 6139   0.890   3.997   2.735  0.0000  0.0000  0.1888
 1517SOL     OW 6140   0.888   4.266   2.673  0.0000  0.0000  0.1609
 1517SOL    HW2 6141   0.892   4.174   2.699  0.0000  0.0000  0.1613
 1517SOL    HW3 6142   0.884   4.265   2.578  0.0000  0.0000  0.1608
 1517SOL    MW4 6143   0.888   4.254   2.664  0.0000  0.0000  0.1609
 1518SOL     OW 6144   1.144   4.351   2.736  0.0000  0.0000  0.1027
 1518SOL    HW2 6145   1.137   4.378   2.828  0.0000  0.0000  0.1033
 1518SOL    HW3 6146   1.055   4.327   2.711  0.0000  0.0000  0.1015
 1518SOL    MW4 6147   1.131   4.351   2.745  0.0000  0.0000  0.1025
 1519SOL     OW 6148   1.537   4.610   2.673 -0.7215  0.3570  0.0342
 1519SOL    HW2 6149   1.542   4.516   2.689  0.6019  0.6561  1.5969
 1519SOL    HW3 6150   1.543   4.620   2.578  0.9697 -1.0335 -0.0097
 1519SOL    MW4 6151   1.538   4.599   2.663 -0.3238  0.2131  0.2348
 1520SOL     OW 6152   1.297   0.098   2.749  0.4016 -0.1061  0.0852
 1520SOL    HW2 6153   1.299   0.183   2.706 -1.5390 -0.8207 -1.5140
 1520SOL    HW3 6154   1.373   0.051   2.715  0.1565  0.1561 -0.8391
 1520SOL    MW4 6155   1.307   0.103   2.739  0.1131 -0.1658 -0.2480
 1521SOL     OW 6156   1.312   0.317   2.595 -0.3591  0.0305  0.1488
 1521SOL    HW2 6157   1.394   0.353   2.630 -0.5762 -0.2167  0.9380
 1521SOL    HW3 6158   1.244   0.371   2.634 -0.5132  1.1493 -1.6495
 1521SOL    MW4 6159   1.314   0.329   2.605 -0.4082  0.1455  0.0157
 1522SOL     OW 6160   1.564   0.414   2.731  0.1819  0.0571 -0.5632
 1522SOL    HW2 6161   1.656   0.393   2.715  0.1629 -0.6887  0.2638
 1522SOL    HW3 6162   1.557   0.508   2.715  1.0490  0.0811 -0.7895
 1522SOL    MW4 6163   1.575   0.424   2.727  0.2939 -0.0382 -0.4842
 1523SOL     OW 6164   1.597   0.681   2.646 -0.5264 -0.4781 -0.6720
 1523SOL    HW2 6165   1.523   0.733   2.677 -0.6169 -0.3925 -1.0272
 1523SOL    HW3 6166   1.597   0.693   2.551  0.6152  0.4045 -0.5771
 1523SOL    MW4 6167   1.587   0.689   2.637 -0.3877 -0.3504 -0.7067
 1524SOL     OW 6168   1.385   0.855   2.716 -0.7471 -0.4947  0.2884
 1524SOL    HW2 6169   1.392   0.862   2.811 -1.9206 -2.0312  0.5139
 1524SOL    HW3 6170   1.359   0.942   2.686  1.9883  0.6455  1.1127
 1524SOL    MW4 6171   1.382   0.867   2.724 -0.5411 -0.5471  0.4268
 1525SOL     OW 6172   1.327   1.157   2.591  0.5353  0.2077 -0.0056
 1525SOL    HW2 6173   1.400   1.203   2.632 -0.5455 -0.0228  2.2777
 1525SOL    HW3 6174   1.250   1.210   2.613 -0.2011 -0.5139 -0.8224
 1525SOL    MW4 6175   1.327   1.170   2.600  0.2956  0.0820  0.1879
 1526SOL     OW 6176   1.528   1.281   2.737  0.3161  0.4291  0.5049
 1526SOL    HW2 6177   1.521   1.271   2.832 -0.9632 -1.2587  0.2611
 1526SOL    HW3 6178   1.607   1.233   2.713  0.7480  1.0203  0.7312
 1526SOL    MW4 6179   1.537   1.273   2.747  0.2042  0.2844  0.5028
 1527SOL     OW 6180   1.561   1.547   2.649  0.2693  0.1672  0.0280
 1527SOL    HW2 6181   1.552   1.463   2.694  0.8513  0.1045  0.0332
 1527SOL    HW3 6182   1.559   1.524   2.556  1.0294  0.0775  0.0303
 1527SOL    MW4 6183   1.560   1.533   2.643  0.4464  0.1469  0.0288
 1528SOL     OW 6184   1.335   1.686   2.695 -0.1378  0.1441  0.2885
 1528SOL    HW2 6185   1.422   1.657   2.668 -0.0383 -0.3825  1.1438
 1528SOL    HW3 6186   1.275   1.634   2.641  0.0743  0.0459  0.1478
 1528SOL    MW4 6187   1.339   1.675   2.684 -0.0968  0.0616  0.3827
 1529SOL     OW 6188   1.341   1.942   2.622 -0.3181 -0.3024 -0.0221
 1529SOL    HW2 6189   1.337   1.854   2.659 -0.1189 -0.1038  0.4777
 1529SOL    HW3 6190   1.359   1.928   2.529  0.3208 -0.7733  0.1667
 1529SOL    MW4 6191   1.343   1.928   2.615 -0.2075 -0.3383  0.0687
 1530SOL     OW 6192   1.589   2.042   2.738  0.3852 -0.0478 -0.3454
 1530SOL    HW2 6193   1.667   1.993   2.711  0.6806  0.0725  0.2784
 1530SOL    HW3 6194   1.516   1.995   2.699  0.6991 -0.7584 -0.0829
 1530SOL    MW4 6195   1.590   2.030   2.730  0.4656 -0.1256 -0.2284
 1531SOL     OW 6196   1.541   2.312   2.610 -0.2959  0.0446  0.1492
 1531SOL    HW2 6197   1.621   2.345   2.652  0.8308 -0.4362 -1.5588
 1531SOL    HW3 6198   1.543   2.218   2.626 -0.5012  0.0220  0.0445
 1531SOL    MW4 6199   1.552   2.304   2.618 -0.1743 -0.0219 -0.0899
 1532SOL     OW 6200   1.344   2.474   2.741 -0.1286  0.1989  0.3087
 1532SOL    HW2 6201   1.337   2.563   2.704 -2.2654  0.3133  0.9282
 1532SOL    HW3 6202   1.413   2.432   2.689 -0.3228  1.6495 -1.1674
 1532SOL    MW4 6203   1.352   2.480   2.729 -0.4362  0.4055  0.1957
 1533SOL     OW 6204   1.311   2.723   2.611 -0.6164  0.1956 -0.0505
 1533SOL    HW2 6205   1.382   2.774   2.650  0.5878 -1.5370  0.1036
 1533SOL    HW3 6206   1.322   2.736   2.516 -0.6497  0.6838  0.0163
 1533SOL    MW4 6207   1.322   2.731   2.603 -0.4619  0.0315 -0.0210
 1534SOL     OW 6208   1.527   2.837   2.722  0.1065  0.0153 -0.2141
 1534SOL    HW2 6209   1.537   2.844   2.817 -0.2869 -2.4613  0.0561
 1534SOL    HW3 6210   1.601   2.783   2.694 -0.1807  0.1283 -1.2275
 1534SOL    MW4 6211   1.538   2.831   2.731  0.0166 -0.2966 -0.3123
 1535SOL     OW 6212   1.577   3.100   2.631 -0.5684  0.0291  0.2248
 1535SOL    HW2 6213   1.645   3.149   2.677 -0.5938 -0.7336  1.0936
 1535SOL    HW3 6214   1.575   3.015   2.675  0.1683 -1.1194 -1.9014
 1535SOL    MW4 6215   1.586   3.095   2.643 -0.4746 -0.2229  0.0589
 1536SOL     OW 6216   1.369   3.228   2.738 -0.2879 -0.3091  0.1356
 1536SOL    HW2 6217   1.442   3.182   2.697  0.1609 -1.7978  2.4657
 1536SOL    HW3 6218   1.292   3.177   2.714 -0.0770 -0.9260  0.7329
 1536SOL    MW4 6219   1.368   3.215   2.730 -0.2009 -0.5867  0.5219
 1537SOL     OW 6220   1.332   3.485   2.626 -0.0526  0.2574 -0.4508
 1537SOL    HW2 6221   1.339   3.399   2.666 -0.0185 -0.0162 -1.0271
 1537SOL    HW3 6222   1.263   3.529   2.675  0.1544  0.0201  0.0552
 1537SOL    MW4 6223   1.324   3.480   2.637 -0.0209  0.1898 -0.4601
 1538SOL     OW 6224   1.552   3.626   2.744 -0.2067 -0.3060 -0.6529
 1538SOL    HW2 6225   1.630   3.575   2.721 -0.4549 -0.6394 -0.7577
 1538SOL    HW3 6226   1.480   3.583   2.698 -0.5282 -0.2863 -0.1760
 1538SOL    MW4 6227   1.553   3.614   2.735 -0.2818 -0.3474 -0.6037
 1539SOL     OW 6228   1.567   3.899   2.628  0.2653 -0.3442  0.2875
 1539SOL    HW2 6229   1.486   3.935   2.665  1.3328  1.3072  1.0796
 1539SOL    HW3 6230   1.577   3.815   2.672 -0.4504 -0.0752  0.9981
 1539SOL    MW4 6231   1.557   3.893   2.639  0.3117 -0.0911  0.4857
 1540SOL     OW 6232   1.321   3.981   2.718 -0.1258  0.0453 -0.0240
 1540SOL    HW2 6233   1.319   3.996   2.812  0.2499  0.6965 -0.1201
 1540SOL    HW3 6234   1.339   4.067   2.680 -1.0153 -0.0745 -0.7297
 1540SOL    MW4 6235   1.323   3.994   2.725 -0.1936  0.1154 -0.1297
 1541SOL     OW 6236   1.365   4.234   2.637 -0.1645  0.0590 -0.2486
 1541SOL    HW2 6237   1.288   4.273   2.679 -0.7726 -2.5188  1.1530
 1541SOL    HW3 6238   1.439   4.264   2.691 -0.4845  0.3372  0.0388
 1541SOL    MW4 6239   1.365   4.243   2.650 -0.2869 -0.2446 -0.0257
 1542SOL     OW 6240   1.571   4.354   2.774  0.2717 -0.1995 -0.4177
 1542SOL    HW2 6241   1.570   4.346   2.869  0.3940 -0.7757 -0.4642
 1542SOL    HW3 6242   1.644   4.300   2.745  1.0093  0.9520 -0.7604
 1542SOL    MW4 6243   1.580   4.346   2.783  0.3853 -0.1235 -0.4690
 1543SOL     OW 6244   1.979   0.000   2.620 -0.5066 -0.0608  0.5338
 1543SOL    HW2 6245   2.062   0.042   2.644 -0.3919  0.0867 -0.0977
 1543SOL    HW3 6246   1.977   0.006   2.525 -0.8485 -0.8224  0.4916
 1543SOL    MW4 6247   1.990   0.006   2.611 -0.5366 -0.1418  0.4449
 1544SOL     OW 6248   1.760   0.103   2.755  0.1673 -0.0361  0.2605
 1544SOL    HW2 6249   1.824   0.045   2.713 -1.1427 -0.1080 -1.7165
 1544SOL    HW3 6250   1.677   0.055   2.750 -0.7426  1.5720 -0.5202
 1544SOL    MW4 6251   1.757   0.089   2.748 -0.1255  0.1666 -0.1032
 1545SOL     OW 6252   1.812   0.352   2.650 -0.1637  0.2527 -0.0787
 1545SOL    HW2 6253   1.881   0.385   2.707 -0.5801  1.0120 -0.0018
 1545SOL    HW3 6254   1.796   0.263   2.681  1.3353 -0.2150 -0.6231
 1545SOL    MW4 6255   1.819   0.345   2.662 -0.0207  0.2912 -0.1407
 1546SOL     OW 6256   2.038   0.446   2.784  0.0174 -0.2317  0.7053
 1546SOL    HW2 6257   2.091   0.382   2.737 -0.2512 -0.7711  1.1375
 1546SOL    HW3 6258   2.064   0.531   2.747 -0.6323 -0.7012 -0.8548
 1546SOL    MW4 6259   2.048   0.449   2.773 -0.1040 -0.3648  0.5560
 1547SOL     OW 6260   2.073   0.703   2.671  0.2608  0.4595  0.2049
 1547SOL    HW2 6261   1.992   0.755   2.676 -0.5840 -0.7736 -0.3975
 1547SOL    HW3 6262   2.085   0.686   2.578  0.2450 -0.8505  0.4293
 1547SOL    MW4 6263   2.064   0.708   2.659  0.1473  0.1239  0.1552
 1548SOL     OW 6264   1.814   0.847   2.759  0.1313 -0.3100  0.0279
 1548SOL    HW2 6265   1.796   0.935   2.728  1.5705 -0.3410 -0.9467
 1548SOL    HW3 6266   1.738   0.795   2.732  0.1039  0.2532 -0.9652
 1548SOL    MW4 6267   1.802   0.852   2.752  0.3176 -0.2397 -0.2317
 1549SOL     OW 6268   1.732   1.116   2.676  0.1813  0.1200  0.2131
 1549SOL    HW2 6269   1.805   1.171   2.702 -0.0498  0.6684 -0.2798
 1549SOL    HW3 6270   1.737   1.114   2.580 -1.5475  1.7079  0.0522
 1549SOL    MW4 6271   1.742   1.123   2.666 -0.0772  0.4020  0.1271
 1550SOL     OW 6272   1.976   1.246   2.718 -0.0035 -0.0386  0.3046
 1550SOL    HW2 6273   1.978   1.257   2.813  0.5438 -0.8528  0.3953
 1550SOL    HW3 6274   2.065   1.217   2.695 -0.0606  0.3914 -0.4835
 1550SOL    MW4 6275   1.988   1.244   2.727  0.0613 -0.0893  0.2129
 1551SOL     OW 6276   2.028   1.502   2.634  0.1164  0.1729 -0.1588
 1551SOL    HW2 6277   1.960   1.549   2.682  1.4239 -0.1287  2.0418
 1551SOL    HW3 6278   2.022   1.411   2.666  1.8310  0.2402  0.4146
 1551SOL    MW4 6279   2.019   1.496   2.644  0.5150  0.1420  0.2074
 1552SOL     OW 6280   1.818   1.642   2.739  0.6405 -0.4154 -0.1590
 1552SOL    HW2 6281   1.801   1.681   2.825  0.9515 -2.7307  0.9919
 1552SOL    HW3 6282   1.732   1.609   2.711  0.4328  0.7919 -1.0091
 1552SOL    MW4 6283   1.804   1.643   2.746  0.6540 -0.5615 -0.1190
 1553SOL     OW 6284   1.827   1.911   2.671  0.3581  0.2353  0.0678
 1553SOL    HW2 6285   1.898   1.945   2.725 -1.4080  0.8760  2.0360
 1553SOL    HW3 6286   1.834   1.816   2.678  0.8490  0.3008  0.4638
 1553SOL    MW4 6287   1.837   1.903   2.679  0.1900  0.3284  0.3798
 1554SOL     OW 6288   2.043   2.052   2.781 -0.5265 -0.4839 -0.2105
 1554SOL    HW2 6289   2.064   2.077   2.870 -1.6139 -1.4780  0.3473
 1554SOL    HW3 6290   2.041   2.134   2.732  3.5737 -0.2344 -0.1090
 1554SOL    MW4 6291   2.045   2.066   2.786 -0.1290 -0.5822 -0.1237
 1555SOL     OW 6292   1.992   2.275   2.625 -0.1644  0.1279 -0.2582
 1555SOL    HW2 6293   2.072   2.320   2.653 -0.1752  0.8548 -1.3749
 1555SOL    HW3 6294   1.990   2.286   2.530 -0.4328 -1.8202 -0.5049
 1555SOL    MW4 6295   2.003   2.282   2.616 -0.2012 -0.0331 -0.4382
 1556SOL     OW 6296   1.782   2.429   2.727  0.2075 -0.1825 -0.4857
 1556SOL    HW2 6297   1.797   2.452   2.819  0.9808 -1.9843 -0.1280
 1556SOL    HW3 6298   1.851   2.365   2.707 -0.8737 -0.9552 -1.8739
 1556SOL    MW4 6299   1.793   2.423   2.736  0.1668 -0.5224 -0.6218
 1557SOL     OW 6300   1.749   2.697   2.629  0.0622  0.1007 -0.1136
 1557SOL    HW2 6301   1.749   2.604   2.651 -1.2547  0.0329 -0.3714
 1557SOL    HW3 6302   1.745   2.700   2.534  0.3250  0.4268 -0.1170
 1557SOL    MW4 6303   1.749   2.685   2.619 -0.0770  0.1347 -0.1481
 1558SOL     OW 6304   1.980   2.794   2.721 -0.2195  0.2624 -0.0834
 1558SOL    HW2 6305   2.056   2.756   2.677 -0.2337 -0.9154  0.8797
 1558SOL    HW3 6306   1.904   2.756   2.677 -0.2368  0.3059 -0.0908
 1558SOL    MW4 6307   1.980   2.784   2.709 -0.2238  0.1128  0.0424
 1559SOL     OW 6308   1.992   3.075   2.695  0.3839 -0.2575  0.6577
 1559SOL    HW2 6309   1.992   2.979   2.698  0.5479 -0.2666  0.3684
 1559SOL    HW3 6310   1.987   3.096   2.602 -1.9856  0.0249  0.8134
 1559SOL    MW4 6311   1.991   3.065   2.683  0.0930 -0.2215  0.6404
 1560SOL     OW 6312   1.771   3.230   2.770  0.6356 -0.2645 -0.0334
 1560SOL    HW2 6313   1.792   3.319   2.743 -0.0056 -0.2773 -0.5869
 1560SOL    HW3 6314   1.846   3.178   2.742  0.3219 -0.1505 -1.1034
 1560SOL    MW4 6315   1.784   3.235   2.763  0.5095 -0.2511 -0.2475
 1561SOL     OW 6316   1.798   3.496   2.657  0.2429 -0.2708 -0.0826
 1561SOL    HW2 6317   1.881   3.542   2.668  0.6560 -0.9426 -0.3150
 1561SOL    HW3 6318   1.776   3.507   2.564  0.5126 -0.8103 -0.2153
 1561SOL    MW4 6319   1.806   3.503   2.646  0.3328 -0.4303 -0.1307
 1562SOL     OW 6320   2.023   3.628   2.729  0.4900 -0.8335 -0.1731
 1562SOL    HW2 6321   2.015   3.613   2.823  0.4012  1.1018  0.1604
 1562SOL    HW3 6322   2.094   3.571   2.701  1.1870 -0.6881  1.2540
 1562SOL    MW4 6323   2.031   3.619   2.738  0.5703 -0.5591  0.0594
 1563SOL     OW 6324   2.033   3.863   2.594 -0.1728  0.1370  0.0926
 1563SOL    HW2 6325   1.947   3.900   2.616  0.0552  0.8738 -0.2106
 1563SOL    HW3 6326   2.045   3.791   2.655 -0.2378  1.1496  1.3336
 1563SOL    MW4 6327   2.023   3.859   2.605 -0.1514  0.3679  0.2160
 1564SOL     OW 6328   1.818   3.997   2.686 -0.1190 -0.4217 -0.0373
 1564SOL    HW2 6329   1.823   4.010   2.781  0.2627  0.0443 -0.1252
 1564SOL    HW3 6330   1.728   3.965   2.672 -0.7242  1.0982  0.2844
 1564SOL    MW4 6331   1.807   3.994   2.697 -0.1485 -0.1597 -0.0067
 1565SOL     OW 6332   1.797   4.262   2.603  0.0585 -0.1530  0.5749
 1565SOL    HW2 6333   1.814   4.167   2.607 -0.5278 -0.2692  0.3224
 1565SOL    HW3 6334   1.792   4.281   2.509 -0.5059  0.0080  0.6397
 1565SOL    MW4 6335   1.799   4.252   2.591 -0.0933 -0.1469  0.5498
 1566SOL     OW 6336   2.032   4.405   2.707 -0.6381  0.4404  0.6328
 1566SOL    HW2 6337   1.960   4.352   2.673 -0.5659 -0.4535  1.8452
 1566SOL    HW3 6338   2.008   4.495   2.686 -2.3068  0.1848  1.3796
 1566SOL    MW4 6339   2.019   4.410   2.700 -0.8488  0.2890  0.8914
 1567SOL     OW 6340   2.435   4.645   2.647 -0.4240 -0.3057 -0.3565
 1567SOL    HW2 6341   2.516   4.689   2.672 -2.2778  2.9161  0.4283
 1567SOL    HW3 6342   2.435   4.646   2.551  0.1751  0.2677 -0.3496
 1567SOL    MW4 6343   2.445   4.651   2.638 -0.5896  0.1950 -0.2518
 1568SOL     OW 6344   2.200   0.118   2.712 -0.2210 -0.0758  0.3384
 1568SOL    HW2 6345   2.196   0.103   2.807 -0.7172  0.3016  0.3771
 1568SOL    HW3 6346   2.282   0.077   2.685 -0.0646 -0.1607  0.9371
 1568SOL    MW4 6347   2.210   0.110   2.721 -0.2658 -0.0372  0.4227
 1569SOL     OW 6348   2.308   0.360   2.643 -0.1186 -0.0922 -0.3247
 1569SOL    HW2 6349   2.275   0.278   2.679 -0.1813 -0.2537 -0.7393
 1569SOL    HW3 6350   2.277   0.360   2.552 -0.1931  0.4299 -0.3027
 1569SOL    MW4 6351   2.300   0.350   2.635 -0.1369 -0.0446 -0.3765
 1570SOL     OW 6352   2.515   0.498   2.768 -0.2841  0.3605  0.1388
 1570SOL    HW2 6353   2.499   0.589   2.745 -0.6239  0.3944  0.5053
 1570SOL    HW3 6354   2.446   0.449   2.724 -0.2636  0.3077  0.1642
 1570SOL    MW4 6355   2.504   0.503   2.759 -0.3264  0.3580  0.1903
 1571SOL     OW 6356   2.427   0.772   2.660  0.2020  0.1847 -0.2858
 1571SOL    HW2 6357   2.354   0.827   2.686  1.8448  2.8433 -1.0820
 1571SOL    HW3 6358   2.416   0.761   2.565  0.1529 -0.4383 -0.2093
 1571SOL    MW4 6359   2.416   0.777   2.651  0.4122  0.4532 -0.3805
 1572SOL     OW 6360   2.224   0.940   2.746 -0.1496  0.0191 -0.0402
 1572SOL    HW2 6361   2.220   0.940   2.842 -0.4042  0.3552 -0.0517
 1572SOL    HW3 6362   2.149   0.887   2.719 -1.0558  1.3211 -0.0963
 1572SOL    MW4 6363   2.214   0.933   2.755 -0.3028  0.2352 -0.0489
 1573SOL     OW 6364   2.261   1.219   2.657 -0.5280  0.0195 -0.3183
 1573SOL    HW2 6365   2.279   1.134   2.696 -1.0353 -0.0156 -0.1570
 1573SOL    HW3 6366   2.256   1.202   2.563 -2.8279 -0.5418 -0.1328
 1573SOL    MW4 6367   2.262   1.206   2.650 -0.8984 -0.0591 -0.2728
 1574SOL     OW 6368   2.386   1.429   2.823 -0.4877  0.3598  0.6794
 1574SOL    HW2 6369   2.333   1.366   2.775 -0.4503  1.0446 -0.2760
 1574SOL    HW3 6370   2.344   1.513   2.807  0.0319  0.7109  1.1283
 1574SOL    MW4 6371   2.374   1.432   2.814 -0.4141  0.4966  0.6125
 1575SOL     OW 6372   2.555   1.400   2.592  0.1601  0.6027  0.2233
 1575SOL    HW2 6373   2.505   1.410   2.674  1.3231  0.2069  0.9926
 1575SOL    HW3 6374   2.578   1.307   2.590 -0.7517  0.3956 -1.0932
 1575SOL    MW4 6375   2.551   1.389   2.603  0.1931  0.5231  0.1514
 1576SOL     OW 6376   2.211   1.665   2.780  0.0243  0.2668 -0.4596
 1576SOL    HW2 6377   2.218   1.750   2.735  1.4622  0.0986 -0.5912
 1576SOL    HW3 6378   2.161   1.610   2.720 -0.2856  0.8062 -0.7002
 1576SOL    MW4 6379   2.205   1.669   2.766  0.1731  0.3158 -0.5085
 1577SOL     OW 6380   2.243   1.898   2.663 -0.0997 -0.2806 -0.0214
 1577SOL    HW2 6381   2.171   1.948   2.702 -0.4410 -0.6788 -0.1466
 1577SOL    HW3 6382   2.220   1.892   2.570  0.9133  1.0283 -0.3833
 1577SOL    MW4 6383   2.231   1.904   2.656 -0.0110 -0.1603 -0.0861
 1578SOL     OW 6384   2.485   2.024   2.715 -0.5729  0.1184 -0.3704
 1578SOL    HW2 6385   2.478   2.116   2.691  1.1823  0.2708 -0.3472
 1578SOL    HW3 6386   2.400   1.986   2.692 -0.4035  1.1794 -2.8392
 1578SOL    MW4 6387   2.473   2.031   2.709 -0.3192  0.2787 -0.6933
 1579SOL     OW 6388   2.468   2.293   2.659  0.9419 -0.2579  0.1350
 1579SOL    HW2 6389   2.550   2.331   2.691  1.2752 -0.3325 -0.6203
 1579SOL    HW3 6390   2.471   2.306   2.564 -0.1129  0.1186  0.1466
 1579SOL    MW4 6391   2.480   2.300   2.651  0.8466 -0.2182  0.0367
 1580SOL     OW 6392   2.207   2.407   2.735  0.2129 -0.1348 -0.4196
 1580SOL    HW2 6393   2.201   2.396   2.830 -1.9477 -0.3065 -0.5625
 1580SOL    HW3 6394   2.293   2.371   2.713  0.3195 -1.0313  1.3364
 1580SOL    MW4 6395   2.218   2.400   2.745 -0.0579 -0.2756 -0.2067
 1581SOL     OW 6396   2.201   2.684   2.608 -0.2005  0.0848 -0.5127
 1581SOL    HW2 6397   2.272   2.737   2.645  0.5435 -0.9164 -0.4898
 1581SOL    HW3 6398   2.205   2.602   2.657 -0.1685 -0.6881 -1.7930
 1581SOL    MW4 6399   2.211   2.680   2.619 -0.0982 -0.1493 -0.6785
 1582SOL     OW 6400   2.419   2.805   2.691  0.1666 -0.2766 -0.5407
 1582SOL    HW2 6401   2.492   2.746   2.674 -1.5196 -1.9618 -2.1762
 1582SOL    HW3 6402   2.449   2.890   2.658  1.4280 -0.9125 -1.0659
 1582SOL    MW4 6403   2.433   2.808   2.684  0.1106 -0.5827 -0.8256
 1583SOL     OW 6404   2.471   3.070   2.632  0.0312 -0.0228 -0.2932
 1583SOL    HW2 6405   2.403   3.125   2.670  1.8007  1.9873  0.0213
 1583SOL    HW3 6406   2.476   3.098   2.540  0.5325 -0.0314 -0.2733
 1583SOL    MW4 6407   2.463   3.081   2.625  0.3307  0.2415 -0.2489
 1584SOL     OW 6408   2.259   3.199   2.751 -0.1723  0.0542 -0.1618
 1584SOL    HW2 6409   2.269   3.203   2.846 -1.1548  1.1860 -0.0790
 1584SOL    HW3 6410   2.174   3.156   2.738 -0.0435 -0.0902 -0.5142
 1584SOL    MW4 6411   2.249   3.194   2.762 -0.2847  0.1845 -0.1974
 1585SOL     OW 6412   2.209   3.456   2.648  0.6082  0.2265  0.2567
 1585SOL    HW2 6413   2.292   3.503   2.656  1.1601 -0.2747 -2.0649
 1585SOL    HW3 6414   2.227   3.369   2.682  1.4429 -0.3049 -1.4985
 1585SOL    MW4 6415   2.222   3.451   2.653  0.7911  0.0904 -0.2811
 1586SOL     OW 6416   2.410   3.593   2.715  0.1080  0.2704  0.2913
 1586SOL    HW2 6417   2.420   3.579   2.809 -1.5834  0.3359  0.4925
 1586SOL    HW3 6418   2.415   3.689   2.705 -0.5016  0.3152  0.4129
 1586SOL    MW4 6419   2.412   3.604   2.726 -0.1955  0.2849  0.3343
 1587SOL     OW 6420   2.443   3.870   2.652 -0.0839 -0.3009  0.1156
 1587SOL    HW2 6421   2.522   3.909   2.689  0.4352 -1.5280  0.3199
 1587SOL    HW3 6422   2.375   3.936   2.665  1.0460  1.0500 -0.6712
 1587SOL    MW4 6423   2.444   3.883   2.658  0.1335 -0.2847  0.0391
 1588SOL     OW 6424   2.221   4.027   2.738 -0.3927 -0.0461 -0.1417
 1588SOL    HW2 6425   2.225   4.002   2.830  1.7894 -3.6868 -1.0882
 1588SOL    HW3 6426   2.143   3.983   2.705 -0.0774 -0.3908 -0.4360
 1588SOL    MW4 6427   2.211   4.018   2.746 -0.0637 -0.5722 -0.3054
 1589SOL     OW 6428   2.255   4.262   2.617  0.3992  0.1309 -0.2193
 1589SOL    HW2 6429   2.250   4.180   2.666  1.8091  0.6015  0.7395
 1589SOL    HW3 6430   2.185   4.316   2.654  0.4444 -0.0802  0.1781
 1589SOL    MW4 6431   2.245   4.258   2.629  0.5913  0.1650 -0.0403
 1590SOL     OW 6432   2.487   4.377   2.719  0.2237  0.0518  0.0544
 1590SOL    HW2 6433   2.402   4.340   2.694 -0.0243 -0.0286  0.9944
 1590SOL    HW3 6434   2.477   4.471   2.704  0.5383 -0.1394 -1.4425
 1590SOL    MW4 6435   2.474   4.385   2.713  0.2322  0.0157 -0.0188
 1591SOL     OW 6436   2.902   4.625   2.647  0.0502  0.2675 -0.1187
 1591SOL    HW2 6437   2.979   4.677   2.671  0.6378 -0.6026 -0.0950
 1591SOL    HW3 6438   2.898   4.632   2.552  0.6727 -0.3950 -0.1974
 1591SOL    MW4 6439   2.912   4.633   2.638  0.2100  0.0653 -0.1256
 1592SOL     OW 6440   2.677   0.103   2.722 -0.3788 -0.3764 -0.4651
 1592SOL    HW2 6441   2.678   0.125   2.815 -0.6108 -0.1721 -0.5120
 1592SOL    HW3 6442   2.748   0.040   2.712 -1.0844 -1.2673  0.0610
 1592SOL    MW4 6443   2.686   0.098   2.733 -0.5023 -0.4670 -0.4020
 1593SOL     OW 6444   2.694   0.364   2.617 -0.5745  0.2414 -0.2941
 1593SOL    HW2 6445   2.676   0.273   2.642 -0.5717  0.5333  0.7823
 1593SOL    HW3 6446   2.640   0.416   2.675 -0.9574  0.9300 -1.2532
 1593SOL    MW4 6447   2.685   0.359   2.628 -0.6247  0.3708 -0.2787
 1594SOL     OW 6448   2.900   0.500   2.732  0.7758  0.2181 -0.1834
 1594SOL    HW2 6449   2.881   0.583   2.690 -1.0706  1.1280  2.2865
 1594SOL    HW3 6450   2.838   0.438   2.692 -0.7005  0.9875  0.8544
 1594SOL    MW4 6451   2.889   0.503   2.721  0.3374  0.4396  0.2794
 1595SOL     OW 6452   2.909   0.739   2.604  1.0429 -0.4101  0.0457
 1595SOL    HW2 6453   2.990   0.787   2.622  0.9245 -0.4040  0.5510
 1595SOL    HW3 6454   2.839   0.797   2.634  0.8732 -0.6446  0.1053
 1595SOL    MW4 6455   2.910   0.753   2.610  1.0049 -0.4402  0.1202
 1596SOL     OW 6456   2.696   0.863   2.721  0.4884  0.3181  0.3633
 1596SOL    HW2 6457   2.702   0.885   2.815  0.0445  0.9854  0.2429
 1596SOL    HW3 6458   2.610   0.821   2.712  0.8126 -0.3511  0.3692
 1596SOL    MW4 6459   2.685   0.861   2.732  0.4725  0.3179  0.3479
 1597SOL     OW 6460   2.686   1.128   2.652  0.3495  0.5483 -0.0590
 1597SOL    HW2 6461   2.769   1.158   2.690 -0.4807  1.8337  0.8030
 1597SOL    HW3 6462   2.679   1.037   2.678  1.6111  0.3571 -0.3518
 1597SOL    MW4 6463   2.696   1.120   2.661  0.4065  0.6925  0.0162
 1598SOL     OW 6464   2.921   1.237   2.755  0.1363 -0.2915 -0.3190
 1598SOL    HW2 6465   2.951   1.247   2.846 -1.2734 -0.6348  0.1884
 1598SOL    HW3 6466   2.994   1.194   2.711  0.7214 -0.3823  0.7170
 1598SOL    MW4 6467   2.935   1.232   2.762  0.0274 -0.3488 -0.1152
 1599SOL     OW 6468   2.933   1.472   2.636  0.2167  0.1666 -0.0855
 1599SOL    HW2 6469   2.864   1.524   2.678 -0.5456 -0.7085 -0.2401
 1599SOL    HW3 6470   2.928   1.387   2.679  0.8735 -0.0635 -0.4589
 1599SOL    MW4 6471   2.923   1.468   2.647  0.2029  0.0207 -0.1552
 1600SOL     OW 6472   2.730   1.627   2.721  0.1745 -0.8344  0.5309
 1600SOL    HW2 6473   2.715   1.632   2.816 -0.2827  0.4193  0.3992
 1600SOL    HW3 6474   2.667   1.562   2.691 -0.2207 -0.6695  0.9865
 1600SOL    MW4 6475   2.720   1.619   2.730  0.0622 -0.6472  0.5736
 1601SOL     OW 6476   2.705   1.888   2.638  0.7324  0.0830  0.2423
 1601SOL    HW2 6477   2.707   1.800   2.675 -0.0431 -0.3986 -0.8437
 1601SOL    HW3 6478   2.630   1.930   2.679 -0.4281 -0.6162 -1.1223
 1601SOL    MW4 6479   2.695   1.882   2.648  0.4768 -0.0728 -0.0813
 1602SOL     OW 6480   2.916   2.063   2.734  0.4604 -0.3203 -1.0435
 1602SOL    HW2 6481   2.900   2.146   2.688 -1.2143  1.1794  2.1440
 1602SOL    HW3 6482   2.852   2.003   2.697 -0.0709  0.5254 -1.5138
 1602SOL    MW4 6483   2.905   2.066   2.723  0.1695 -0.0110 -0.6847
 1603SOL     OW 6484   2.888   2.304   2.607  0.2481  0.0683 -0.6152
 1603SOL    HW2 6485   2.971   2.328   2.648  0.1643  0.0780 -0.4514
 1603SOL    HW3 6486   2.821   2.344   2.663  0.1856  1.4601 -1.6512
 1603SOL    MW4 6487   2.890   2.312   2.620  0.2286  0.2532 -0.7300
 1604SOL     OW 6488   2.686   2.416   2.756 -0.5664  0.2505 -0.1272
 1604SOL    HW2 6489   2.675   2.423   2.850 -3.2894 -1.4092 -0.2630
 1604SOL    HW3 6490   2.703   2.505   2.727  1.4468  0.6231  2.0147
 1604SOL    MW4 6491   2.687   2.429   2.764 -0.6599  0.0806  0.1373
 1605SOL     OW 6492   2.698   2.687   2.669  0.9256  0.1838  0.2656
 1605SOL    HW2 6493   2.762   2.754   2.694  0.1013  0.8013  0.7586
 1605SOL    HW3 6494   2.714   2.671   2.576  0.4589  1.8267 -0.1161
 1605SOL    MW4 6495   2.708   2.694   2.660  0.7553  0.4821  0.2804
 1606SOL     OW 6496   2.912   2.852   2.753  0.0028 -0.1989 -0.2181
 1606SOL    HW2 6497   2.907   2.848   2.848 -0.3320 -1.7664 -0.3002
 1606SOL    HW3 6498   2.980   2.790   2.729 -0.8364 -0.7953 -1.0869
 1606SOL    MW4 6499   2.920   2.844   2.762 -0.1521 -0.4842 -0.3436
 1607SOL     OW 6500   2.918   3.080   2.584 -0.1914 -0.2097 -0.1375
 1607SOL    HW2 6501   2.841   3.125   2.619 -0.5823 -0.9146 -0.0923
 1607SOL    HW3 6502   2.912   2.991   2.620 -0.1512 -0.6941 -1.3219
 1607SOL    MW4 6503   2.907   3.074   2.594 -0.2375 -0.3667 -0.2880
 1608SOL     OW 6504   2.699   3.234   2.699 -0.0635 -0.1565 -0.3999
 1608SOL    HW2 6505   2.675   3.324   2.675 -0.6713  0.0169  0.8000
 1608SOL    HW3 6506   2.618   3.184   2.686  0.3408 -0.5932 -1.3076
 1608SOL    MW4 6507   2.685   3.239   2.694 -0.0906 -0.1912 -0.3612
 1609SOL     OW 6508   2.674   3.506   2.621 -0.1616  0.4365  0.2130
 1609SOL    HW2 6509   2.602   3.562   2.650  0.8511  1.4416  0.8390
 1609SOL    HW3 6510   2.656   3.490   2.528 -1.1981  0.6674  0.3701
 1609SOL    MW4 6511   2.662   3.511   2.612 -0.1645  0.5996  0.3164
 1610SOL     OW 6512   2.926   3.556   2.715  0.0473  0.1648  0.3982
 1610SOL    HW2 6513   2.919   3.583   2.807  0.4354  0.9518  0.2005
 1610SOL    HW3 6514   2.835   3.544   2.687 -0.2354  2.9198  0.0072
 1610SOL    MW4 6515   2.913   3.558   2.724  0.0613  0.6320  0.3204
 1611SOL     OW 6516   2.913   3.837   2.662 -0.8185 -0.7914  0.5111
 1611SOL    HW2 6517   2.990   3.877   2.703 -1.6074  1.0717  0.2170
 1611SOL    HW3 6518   2.916   3.746   2.691  1.8702 -0.9263 -0.0511
 1611SOL    MW4 6519   2.924   3.831   2.671 -0.5679 -0.5636  0.3982
 1612SOL     OW 6520   2.693   3.955   2.769  0.0134  0.5572 -0.0977
 1612SOL    HW2 6521   2.701   4.046   2.741  0.9709  0.3202 -0.6006
 1612SOL    HW3 6522   2.763   3.909   2.723 -0.2705 -0.3783  0.3911
 1612SOL    MW4 6523   2.703   3.961   2.759  0.1020  0.4025 -0.0997
 1613SOL     OW 6524   2.715   4.232   2.670 -0.0886  0.0253  0.0146
 1613SOL    HW2 6525   2.795   4.257   2.716  0.7576 -1.2102 -0.7339
 1613SOL    HW3 6526   2.651   4.299   2.694  1.3341  1.3657  0.1453
 1613SOL    MW4 6527   2.717   4.244   2.679  0.2105  0.0386 -0.0668
 1614SOL     OW 6528   2.933   4.374   2.779  0.2328 -0.1435 -0.1278
 1614SOL    HW2 6529   2.923   4.404   2.870 -0.5441  0.7401 -0.4875
 1614SOL    HW3 6530   2.917   4.453   2.727 -1.7410 -1.1493 -1.1084
 1614SOL    MW4 6531   2.929   4.389   2.784 -0.1302 -0.1597 -0.3045
 1615SOL     OW 6532   3.336   4.617   2.595 -0.1576  1.0612  0.2423
 1615SOL    HW2 6533   3.341   4.535   2.644 -0.7612  0.5863 -0.4795
 1615SOL    HW3 6534   3.261   4.663   2.632  0.2140  1.3168  0.6842
 1615SOL    MW4 6535   3.327   4.612   2.606 -0.1884  1.0319  0.2055
 1616SOL     OW 6536   3.118   0.095   2.736 -0.0196  0.1492  0.0261
 1616SOL    HW2 6537   3.098   0.105   2.829  1.3237  0.9231  0.2448
 1616SOL    HW3 6538   3.109   0.183   2.700  0.4591  0.0350 -0.3728
 1616SOL    MW4 6539   3.114   0.108   2.744  0.2205  0.2363  0.0024
 1617SOL     OW 6540   3.111   0.349   2.641 -0.1045  0.1413 -0.0345
 1617SOL    HW2 6541   3.045   0.409   2.678 -0.8918  0.2381 -1.5540
 1617SOL    HW3 6542   3.100   0.358   2.546  1.6322 -0.3795 -0.2915
 1617SOL    MW4 6543   3.100   0.358   2.634  0.0207  0.0853 -0.2689
 1618SOL     OW 6544   3.342   0.473   2.756  0.1662 -0.6566  0.2593
 1618SOL    HW2 6545   3.344   0.561   2.719  2.2802 -0.3642  1.0317
 1618SOL    HW3 6546   3.264   0.433   2.716  1.1479  0.3434 -2.8338
 1618SOL    MW4 6547   3.332   0.479   2.746  0.5748 -0.4861 -0.0470
 1619SOL     OW 6548   3.368   0.741   2.628  0.0070  0.1444 -0.3434
 1619SOL    HW2 6549   3.439   0.798   2.659  0.2063  0.0124 -0.5660
 1619SOL    HW3 6550   3.380   0.735   2.534 -1.1031  1.2287 -0.5697
 1619SOL    MW4 6551   3.379   0.748   2.620 -0.1132  0.2700 -0.4025
 1620SOL     OW 6552   3.142   0.877   2.677 -0.0541 -0.4420  0.3439
 1620SOL    HW2 6553   3.126   0.874   2.771 -0.8413 -0.5395  0.2078
 1620SOL    HW3 6554   3.222   0.825   2.664 -0.3838 -1.0753  0.8548
 1620SOL    MW4 6555   3.151   0.870   2.688 -0.2017 -0.5384  0.3934
 1621SOL     OW 6556   3.149   1.133   2.611 -0.0558  0.0210  0.2357
 1621SOL    HW2 6557   3.158   1.042   2.639  2.2361  0.2035  0.1863
 1621SOL    HW3 6558   3.145   1.129   2.515  0.1027 -0.0227  0.2313
 1621SOL    MW4 6559   3.149   1.120   2.602  0.2673  0.0393  0.2286
 1622SOL     OW 6560   3.373   1.288   2.732 -0.1819  0.0934 -0.3657
 1622SOL    HW2 6561   3.362   1.265   2.824  0.5951  0.3722 -0.2037
 1622SOL    HW3 6562   3.301   1.244   2.688  0.3941 -1.3959  0.1589
 1622SOL    MW4 6563   3.362   1.279   2.738 -0.0033 -0.0662 -0.2751
 1623SOL     OW 6564   3.364   1.558   2.656 -0.4959 -0.3001  0.0765
 1623SOL    HW2 6565   3.287   1.599   2.697 -0.5776 -1.1564  0.7901
 1623SOL    HW3 6566   3.369   1.471   2.696  0.6534 -0.3704 -0.2108
 1623SOL    MW4 6567   3.354   1.552   2.667 -0.3550 -0.4222  0.1328
 1624SOL     OW 6568   3.108   1.642   2.769 -0.3633  0.4329 -0.2339
 1624SOL    HW2 6569   3.093   1.730   2.734 -0.2877  0.3543 -0.4653
 1624SOL    HW3 6570   3.050   1.586   2.717 -2.0309  0.6387  1.3453
 1624SOL    MW4 6571   3.098   1.646   2.757 -0.5734  0.4497 -0.0560
 1625SOL     OW 6572   3.132   1.900   2.662  1.0298  0.4579 -0.1345
 1625SOL    HW2 6573   3.216   1.942   2.679  1.0582  0.3381  0.0169
 1625SOL    HW3 6574   3.067   1.957   2.704  1.1352 -0.0610  0.7456
 1625SOL    MW4 6575   3.134   1.913   2.670  1.0478  0.3736  0.0014
 1626SOL     OW 6576   3.357   2.053   2.712  0.1173 -0.2864 -0.0085
 1626SOL    HW2 6577   3.355   2.066   2.807  2.1614 -0.2066  0.0554
 1626SOL    HW3 6578   3.361   2.142   2.676 -1.3530 -0.2946 -0.2042
 1626SOL    MW4 6579   3.358   2.066   2.720  0.1929 -0.2770 -0.0257
 1627SOL     OW 6580   3.371   2.327   2.650 -0.0567  0.0784  0.0744
 1627SOL    HW2 6581   3.450   2.371   2.680 -0.5667  0.4148  0.9309
 1627SOL    HW3 6582   3.372   2.338   2.555  1.8834 -1.5314 -0.1403
 1627SOL    MW4 6583   3.382   2.334   2.641  0.1318 -0.0894  0.1590
 1628SOL     OW 6584   3.111   2.403   2.735  0.3407 -0.4969  0.1927
 1628SOL    HW2 6585   3.121   2.416   2.830 -1.8645 -0.6190  0.4787
 1628SOL    HW3 6586   3.199   2.382   2.704  1.4233  1.2810  1.9291
 1628SOL    MW4 6587   3.124   2.402   2.744  0.1924 -0.2785  0.4597
 1629SOL     OW 6588   3.106   2.662   2.652  0.7081 -0.2856  0.0876
 1629SOL    HW2 6589   3.182   2.714   2.680  0.4857 -0.7304  1.5675
 1629SOL    HW3 6590   3.113   2.581   2.702 -1.3470  0.1114  1.0524
 1629SOL    MW4 6591   3.117   2.659   2.662  0.4075 -0.2918  0.4101
 1630SOL     OW 6592   3.341   2.829   2.731 -0.3366 -0.1915 -0.4574
 1630SOL    HW2 6593   3.348   2.834   2.826 -0.2411  1.4468 -0.5466
 1630SOL    HW3 6594   3.425   2.791   2.703 -0.9912 -2.2141  0.2074
 1630SOL    MW4 6595   3.353   2.825   2.740 -0.4103 -0.2422 -0.3812
 1631SOL     OW 6596   3.390   3.090   2.630 -0.3465  0.2034  0.0638
 1631SOL    HW2 6597   3.373   2.999   2.653 -2.2822  0.4873 -0.1649
 1631SOL    HW3 6598   3.387   3.091   2.534 -0.7512  0.5841  0.0793
 1631SOL    MW4 6599   3.387   3.078   2.620 -0.6554  0.2909  0.0355
 1632SOL     OW 6600   3.151   3.183   2.753 -0.1974 -0.7598  0.3544
 1632SOL    HW2 6601   3.238   3.148   2.735 -0.5902 -1.5820  0.0010
 1632SOL    HW3 6602   3.092   3.127   2.702 -0.8740  0.2207  0.0414
 1632SOL    MW4 6603   3.154   3.171   2.744 -0.3381 -0.7389  0.2663
 1633SOL     OW 6604   3.143   3.424   2.623  0.1397  0.0437 -0.1561
 1633SOL    HW2 6605   3.154   3.339   2.667  0.8899  0.2708  0.0969
 1633SOL    HW3 6606   3.070   3.465   2.669 -0.6049 -0.7171 -0.6613
 1633SOL    MW4 6607   3.135   3.418   2.635  0.1404 -0.0267 -0.1891
 1634SOL     OW 6608   3.312   3.626   2.703  0.2942  0.7044 -0.6337
 1634SOL    HW2 6609   3.334   3.603   2.793 -0.1316  0.2466 -0.6457
 1634SOL    HW3 6610   3.258   3.553   2.671 -0.2779  1.2616 -0.9727
 1634SOL    MW4 6611   3.308   3.613   2.711  0.1626  0.7176 -0.6802
 1635SOL     OW 6612   3.337   3.890   2.639  0.2641 -0.1735 -0.1731
 1635SOL    HW2 6613   3.333   3.796   2.655  1.8588 -0.0283  1.1861
 1635SOL    HW3 6614   3.345   3.898   2.544  0.6977 -1.4194 -0.2476
 1635SOL    MW4 6615   3.337   3.879   2.628  0.5317 -0.3188 -0.0038
 1636SOL     OW 6616   3.136   4.025   2.784  0.5891 -0.7031 -0.0067
 1636SOL    HW2 6617   3.127   4.115   2.752  0.9537 -0.6001  0.1804
 1636SOL    HW3 6618   3.209   3.989   2.735  2.2026 -0.0360  1.8001
 1636SOL    MW4 6619   3.144   4.032   2.773  0.8500 -0.6008  0.2563
 1637SOL     OW 6620   3.149   4.281   2.635 -0.4059  0.1525  0.6109
 1637SOL    HW2 6621   3.072   4.322   2.674 -0.8234  0.1110 -0.1491
 1637SOL    HW3 6622   3.132   4.285   2.541 -0.6657 -2.1628  0.5360
 1637SOL    MW4 6623   3.137   4.287   2.628 -0.4952 -0.1588  0.5007
 1638SOL     OW 6624   3.368   4.389   2.742 -0.1848 -0.3836 -0.0673
 1638SOL    HW2 6625   3.354   4.389   2.837  0.9680 -0.9778  0.1132
 1638SOL    HW3 6626   3.294   4.340   2.707 -0.3525 -0.5914  0.5731
 1638SOL    MW4 6627   3.356   4.383   2.750 -0.0548 -0.4892  0.0410
 1639SOL     OW 6628   3.826   0.017   2.625  0.2884  0.2619  0.0327
 1639SOL    HW2 6629   3.803  -0.072   2.653 -0.1320  0.2231 -0.4265
 1639SOL    HW3 6630   3.748   0.069   2.647  1.0369  0.7836  1.5359
 1639SOL    MW4 6631   3.813   0.012   2.632  0.3316  0.3255  0.1705
 1640SOL     OW 6632   3.572   0.106   2.690  0.0921 -0.0218 -0.2504
 1640SOL    HW2 6633   3.542   0.188   2.650 -1.9925 -0.2752  0.6792
 1640SOL    HW3 6634   3.500   0.044   2.674  0.6276 -1.0136  1.0644
 1640SOL    MW4 6635   3.558   0.109   2.683 -0.1123 -0.1861  0.0460
 1641SOL     OW 6636   3.524   0.358   2.572 -0.1091  0.4657 -0.5996
 1641SOL    HW2 6637   3.613   0.373   2.605 -0.3217  1.3677 -0.4249
 1641SOL    HW3 6638   3.468   0.402   2.636 -0.6528  0.3060 -0.9698
 1641SOL    MW4 6639   3.528   0.366   2.585 -0.2089  0.5636 -0.6254
 1642SOL     OW 6640   3.765   0.454   2.699 -0.2414  0.2960 -0.2083
 1642SOL    HW2 6641   3.793   0.470   2.789 -0.6384 -2.0676  0.3677
 1642SOL    HW3 6642   3.845   0.423   2.655 -0.0282  1.5288 -0.6929
 1642SOL    MW4 6643   3.779   0.452   2.705 -0.2658  0.1468 -0.1962
 1643SOL     OW 6644   3.801   0.734   2.606  0.1514 -0.0578  0.2722
 1643SOL    HW2 6645   3.735   0.789   2.646 -0.8480 -0.1584 -1.2079
 1643SOL    HW3 6646   3.797   0.651   2.655 -0.3841  0.1486  0.5761
 1643SOL    MW4 6647   3.792   0.730   2.618 -0.0513 -0.0438  0.1171
 1644SOL     OW 6648   3.595   0.877   2.724 -0.2414 -0.3208  0.5328
 1644SOL    HW2 6649   3.576   0.881   2.817  0.8360  1.0472  0.7075
 1644SOL    HW3 6650   3.603   0.968   2.697  1.4849 -0.7571 -0.4723
 1644SOL    MW4 6651   3.593   0.889   2.732  0.1285 -0.1978  0.4232
 1645SOL     OW 6652   3.611   1.152   2.628 -0.8357  0.2317  0.1048
 1645SOL    HW2 6653   3.688   1.200   2.657  0.2179 -0.4013 -1.5572
 1645SOL    HW3 6654   3.537   1.204   2.659  0.2534  0.8282  1.7485
 1645SOL    MW4 6655   3.611   1.165   2.636 -0.5531  0.2269  0.1023
 1646SOL     OW 6656   3.833   1.299   2.699 -0.2675  0.3401 -0.0727
 1646SOL    HW2 6657   3.854   1.285   2.792 -0.9348 -2.0152 -0.2261
 1646SOL    HW3 6658   3.901   1.250   2.652 -0.2398  1.0913 -0.8234
 1646SOL    MW4 6659   3.845   1.290   2.705 -0.3519  0.1285 -0.1922
 1647SOL     OW 6660   3.818   1.571   2.640  0.1542 -0.4728 -0.1253
 1647SOL    HW2 6661   3.902   1.603   2.673  0.2509 -0.3203 -0.5209
 1647SOL    HW3 6662   3.807   1.485   2.682 -0.0774  0.0446  0.8841
 1647SOL    MW4 6663   3.828   1.564   2.650  0.1366 -0.3843 -0.0446
 1648SOL     OW 6664   3.592   1.684   2.760 -0.3276 -0.1238  0.5437
 1648SOL    HW2 6665   3.667   1.642   2.717 -0.2918 -0.2918  0.7702
 1648SOL    HW3 6666   3.516   1.638   2.727 -0.3982  0.6245 -0.3641
 1648SOL    MW4 6667   3.592   1.673   2.750 -0.3321 -0.0474  0.4535
 1649SOL     OW 6668   3.592   1.930   2.646  0.0417 -0.3299 -0.1654
 1649SOL    HW2 6669   3.510   1.974   2.667 -0.1673 -0.8723  0.1643
 1649SOL    HW3 6670   3.590   1.849   2.697  0.5023 -0.6396 -0.6300
 1649SOL    MW4 6671   3.581   1.925   2.656  0.0749 -0.4423 -0.1831
 1650SOL     OW 6672   3.803   2.073   2.719  0.1993  0.0692  0.7040
 1650SOL    HW2 6673   3.879   2.020   2.695  1.7701  2.3556  0.4904
 1650SOL    HW3 6674   3.728   2.023   2.686  1.9193  0.3435 -4.0628
 1650SOL    MW4 6675   3.803   2.060   2.711  0.6335  0.4072  0.0467
 1651SOL     OW 6676   3.820   2.327   2.606  0.0450  0.1537 -0.1576
 1651SOL    HW2 6677   3.816   2.244   2.655 -0.2123 -0.2737 -0.8913
 1651SOL    HW3 6678   3.796   2.303   2.516 -3.9082  1.6453  0.3908
 1651SOL    MW4 6679   3.816   2.313   2.600 -0.5107  0.2942 -0.1819
 1652SOL     OW 6680   3.612   2.474   2.698 -0.3748 -0.0276  0.3354
 1652SOL    HW2 6681   3.616   2.494   2.792 -0.1989  0.5247  0.2105
 1652SOL    HW3 6682   3.693   2.426   2.681 -0.0661  0.5027  0.3163
 1652SOL    MW4 6683   3.623   2.470   2.708 -0.3107  0.1154  0.3161
 1653SOL     OW 6684   3.590   2.736   2.613 -0.3575 -0.0952 -0.3978
 1653SOL    HW2 6685   3.593   2.642   2.628  2.1622 -0.1675 -1.1654
 1653SOL    HW3 6686   3.591   2.746   2.518  1.6637  0.7160 -0.3251
 1653SOL    MW4 6687   3.591   2.725   2.602  0.2415  0.0024 -0.4895
 1654SOL     OW 6688   3.819   2.885   2.703 -0.3063 -0.0040  0.0613
 1654SOL    HW2 6689   3.894   2.838   2.666  0.6986  1.8092 -0.2307
 1654SOL    HW3 6690   3.743   2.840   2.666  0.6585  0.6235 -2.8056
 1654SOL    MW4 6691   3.819   2.873   2.693 -0.0465  0.3178 -0.3555
 1655SOL     OW 6692   3.796   3.153   2.655  0.1501 -0.1948  0.0949
 1655SOL    HW2 6693   3.713   3.180   2.695 -1.0889 -0.8736 -1.9680
 1655SOL    HW3 6694   3.808   3.062   2.681  0.9228  0.2788  1.4550
 1655SOL    MW4 6695   3.787   3.145   2.664  0.0885 -0.2220  0.0019
 1656SOL     OW 6696   3.572   3.230   2.772 -0.0479 -0.0005 -0.0842
 1656SOL    HW2 6697   3.577   3.308   2.717  0.6813 -0.4948 -0.7412
 1656SOL    HW3 6698   3.503   3.177   2.733  1.2375 -0.8648 -1.2180
 1656SOL    MW4 6699   3.564   3.234   2.760  0.2182 -0.1795 -0.3207
 1657SOL     OW 6700   3.544   3.477   2.644 -0.0225  0.2662  0.1810
 1657SOL    HW2 6701   3.609   3.539   2.675 -0.3043  0.6473  0.0186
 1657SOL    HW3 6702   3.460   3.516   2.669 -0.2055  0.0249 -0.0502
 1657SOL    MW4 6703   3.541   3.491   2.651 -0.0839  0.2847  0.1290
 1658SOL     OW 6704   3.802   3.619   2.752 -0.0092 -0.0276 -0.3579
 1658SOL    HW2 6705   3.782   3.630   2.845 -2.6746 -2.2179 -0.5923
 1658SOL    HW3 6706   3.791   3.706   2.715  1.0563  0.8660  1.3478
 1658SOL    MW4 6707   3.798   3.632   2.759 -0.2203 -0.1988 -0.1636
 1659SOL     OW 6708   3.780   3.861   2.643  0.6687  0.5135  0.0490
 1659SOL    HW2 6709   3.866   3.895   2.668  0.9286 -1.4211  1.9234
 1659SOL    HW3 6710   3.718   3.924   2.679  1.2349  0.8852  0.3811
 1659SOL    MW4 6711   3.783   3.874   2.651  0.7777  0.3073  0.3402
 1660SOL     OW 6712   3.565   4.025   2.755 -0.2489 -0.1402 -0.0380
 1660SOL    HW2 6713   3.582   4.102   2.701 -1.5241  1.4285  1.7137
 1660SOL    HW3 6714   3.484   3.988   2.721 -0.2002 -0.0908 -0.2072
 1660SOL    MW4 6715   3.557   4.031   2.744 -0.4108  0.0730  0.1705
 1661SOL     OW 6716   3.604   4.246   2.609 -0.6818  0.6387 -0.4358
 1661SOL    HW2 6717   3.531   4.299   2.642 -0.9734  0.7938 -1.2987
 1661SOL    HW3 6718   3.591   4.245   2.514  0.2757  0.4204 -0.5712
 1661SOL    MW4 6719   3.592   4.253   2.601 -0.5939  0.6304 -0.5674
 1662SOL     OW 6720   3.812   4.411   2.683  0.1550 -0.3285 -0.3051
 1662SOL    HW2 6721   3.888   4.354   2.669  0.1935 -0.6757  1.2250
 1662SOL    HW3 6722   3.739   4.362   2.644  0.2154 -1.3751  0.8587
 1662SOL    MW4 6723   3.812   4.397   2.676  0.1683 -0.5131  0.0503
 1663SOL     OW 6724   4.277   0.004   2.587 -0.0136  0.6017 -0.1755
 1663SOL    HW2 6725   4.199   0.043   2.627 -0.5242 -0.4614 -0.1315
 1663SOL    HW3 6726   4.350   0.050   2.629 -0.5959  1.2615  0.1388
 1663SOL    MW4 6727   4.276   0.015   2.598 -0.1578  0.5484 -0.1285
 1664SOL     OW 6728   4.059   0.142   2.742 -0.0875 -0.2382 -0.1319
 1664SOL    HW2 6729   4.049   0.134   2.837  0.0339  1.5869  0.0491
 1664SOL    HW3 6730   3.975   0.111   2.707 -0.4859 -0.0289  0.6242
 1664SOL    MW4 6731   4.046   0.137   2.750 -0.1235  0.0302 -0.0081
 1665SOL     OW 6732   4.013   0.385   2.601  0.0910  0.5099  0.2575
 1665SOL    HW2 6733   4.050   0.303   2.633  0.3265  0.3231 -0.4899
 1665SOL    HW3 6734   4.017   0.378   2.505  0.3709  1.5102  0.1913
 1665SOL    MW4 6735   4.018   0.373   2.592  0.1588  0.6173  0.1504
 1666SOL     OW 6736   4.224   0.503   2.713  0.4051 -0.5325  0.1201
 1666SOL    HW2 6737   4.145   0.466   2.673  0.1931 -0.9738  0.9359
 1666SOL    HW3 6738   4.295   0.448   2.679  0.2897 -0.5279 -0.1291
 1666SOL    MW4 6739   4.223   0.491   2.703  0.3619 -0.5901  0.1948
 1667SOL     OW 6740   4.242   0.744   2.596 -0.7528  0.2589  0.2256
 1667SOL    HW2 6741   4.242   0.656   2.634 -1.4869  0.8264  1.5533
 1667SOL    HW3 6742   4.241   0.729   2.501  1.6047 -1.1640  0.3829
 1667SOL    MW4 6743   4.242   0.730   2.588 -0.5388  0.1460  0.4215
 1668SOL     OW 6744   4.020   0.881   2.702 -0.5130  0.4219  0.5512
 1668SOL    HW2 6745   4.089   0.817   2.685 -0.2266  0.3353  1.9484
 1668SOL    HW3 6746   3.939   0.836   2.679  0.0054  1.2997 -3.3203
 1668SOL    MW4 6747   4.018   0.867   2.697 -0.4072  0.5263  0.2246
 1669SOL     OW 6748   4.024   1.130   2.605  0.0095  0.1454 -0.1888
 1669SOL    HW2 6749   4.102   1.178   2.633  0.4980 -0.0243 -1.2744
 1669SOL    HW3 6750   4.033   1.043   2.644 -0.4735  0.6429  1.0910
 1669SOL    MW4 6751   4.035   1.125   2.614  0.0100  0.1887 -0.1631
 1670SOL     OW 6752   4.241   1.239   2.738  0.2426 -0.0734 -0.1304
 1670SOL    HW2 6753   4.245   1.331   2.713 -0.6058 -0.2842 -1.0802
 1670SOL    HW3 6754   4.318   1.199   2.697 -0.3461 -0.1273 -1.1972
 1670SOL    MW4 6755   4.252   1.245   2.730  0.0534 -0.1082 -0.3967
 1671SOL     OW 6756   4.270   1.505   2.668  0.3222 -0.3740 -0.0540
 1671SOL    HW2 6757   4.346   1.554   2.699  1.0108 -0.5959 -1.3524
 1671SOL    HW3 6758   4.257   1.536   2.578  0.6165 -2.3716 -0.8172
 1671SOL    MW4 6759   4.278   1.516   2.660  0.4520 -0.6667 -0.3262
 1672SOL     OW 6760   4.061   1.671   2.750 -0.0373 -0.7449 -0.1100
 1672SOL    HW2 6761   4.025   1.667   2.839 -0.1386  1.1278 -0.0494
 1672SOL    HW3 6762   4.141   1.618   2.754 -0.3815 -1.2075  0.9234
 1672SOL    MW4 6763   4.067   1.664   2.762 -0.0963 -0.5589  0.0341
 1673SOL     OW 6764   4.028   1.931   2.613  0.0115  0.1714 -0.5856
 1673SOL    HW2 6765   4.100   1.990   2.638  0.1878 -0.6834  0.9376
 1673SOL    HW3 6766   4.042   1.852   2.665 -1.1980 -0.5785 -1.3778
 1673SOL    MW4 6767   4.040   1.929   2.623 -0.1249 -0.0404 -0.4892
 1674SOL     OW 6768   4.261   2.075   2.664  0.1671 -0.3532  0.4683
 1674SOL    HW2 6769   4.274   2.169   2.651 -0.3573 -0.3892 -0.3383
 1674SOL    HW3 6770   4.346   2.036   2.644  0.4883 -0.0188  1.1645
 1674SOL    MW4 6771   4.274   2.082   2.660  0.1402 -0.3138  0.4535
 1675SOL     OW 6772   4.313   2.340   2.627  0.1561 -0.2513 -0.4730
 1675SOL    HW2 6773   4.240   2.392   2.660  0.6292  0.1773 -0.0915
 1675SOL    HW3 6774   4.289   2.318   2.537 -0.4604 -0.1501 -0.3362
 1675SOL    MW4 6775   4.300   2.344   2.620  0.1369 -0.1814 -0.4046
 1676SOL     OW 6776   4.050   2.458   2.710 -0.2221  0.0955 -0.0026
 1676SOL    HW2 6777   4.034   2.449   2.805 -1.1095  0.3651 -0.1185
 1676SOL    HW3 6778   3.969   2.428   2.670  0.2098 -0.1555 -0.6894
 1676SOL    MW4 6779   4.037   2.453   2.718 -0.2823  0.0980 -0.1087
 1677SOL     OW 6780   4.044   2.717   2.625  0.0875  0.0940 -0.3947
 1677SOL    HW2 6781   4.107   2.770   2.674  0.1422  0.5583 -0.9624
 1677SOL    HW3 6782   4.042   2.634   2.671  0.8860  0.1827 -0.1887
 1677SOL    MW4 6783   4.052   2.713   2.637  0.2003  0.1671 -0.4423
 1678SOL     OW 6784   4.262   2.828   2.774 -0.4442  0.2143 -0.0735
 1678SOL    HW2 6785   4.260   2.844   2.868  2.8968  0.2818  0.0524
 1678SOL    HW3 6786   4.282   2.914   2.736 -0.2992 -0.1103 -0.7444
 1678SOL    MW4 6787   4.264   2.842   2.781  0.0157  0.1802 -0.1454
 1679SOL     OW 6788   4.276   3.088   2.650 -0.2342  0.3203 -0.2559
 1679SOL    HW2 6789   4.210   3.143   2.691 -0.7714 -1.1408  0.9020
 1679SOL    HW3 6790   4.264   3.102   2.556 -1.1937  1.2191 -0.0090
 1679SOL    MW4 6791   4.266   3.097   2.643 -0.4315  0.2460 -0.0706
 1680SOL     OW 6792   4.063   3.282   2.745 -0.1530 -0.0724 -0.0422
 1680SOL    HW2 6793   4.069   3.370   2.707  1.5249 -0.1859 -0.1082
 1680SOL    HW3 6794   3.980   3.247   2.714 -0.4536  1.1990 -0.6755
 1680SOL    MW4 6795   4.053   3.289   2.736  0.0286  0.0803 -0.1345
 1681SOL     OW 6796   4.049   3.530   2.634 -0.5741 -0.3456 -0.1992
 1681SOL    HW2 6797   3.984   3.563   2.696 -0.1728 -1.0438  0.6047
 1681SOL    HW3 6798   4.133   3.553   2.673 -0.2968 -1.8291  0.1271
 1681SOL    MW4 6799   4.051   3.537   2.648 -0.4849 -0.6332 -0.0501
 1682SOL     OW 6800   4.292   3.623   2.736  0.0934 -0.2333 -0.0026
 1682SOL    HW2 6801   4.312   3.641   2.828  0.0747  2.0759 -0.4182
 1682SOL    HW3 6802   4.365   3.570   2.705  0.6441 -0.1070  1.0593
 1682SOL    MW4 6803   4.304   3.618   2.744  0.1636  0.0880  0.0830
 1683SOL     OW 6804   4.272   3.860   2.593 -0.0976  0.4766 -0.1078
 1683SOL    HW2 6805   4.278   3.770   2.627 -1.9639  0.6531  0.7181
 1683SOL    HW3 6806   4.346   3.905   2.633  1.5038 -0.9255 -1.3588
 1683SOL    MW4 6807   4.282   3.854   2.603 -0.1326  0.3152 -0.1638
 1684SOL     OW 6808   4.028   4.003   2.691  0.2886 -0.5695 -0.2606
 1684SOL    HW2 6809   4.028   4.020   2.785  1.1481 -1.7668 -0.0259
 1684SOL    HW3 6810   4.102   3.943   2.678  0.0549 -0.5682 -1.6675
 1684SOL    MW4 6811   4.038   3.997   2.702  0.3715 -0.7274 -0.4151
 1685SOL     OW 6812   4.054   4.273   2.633  0.0626  0.0178  0.0308
 1685SOL    HW2 6813   4.050   4.179   2.650 -1.8712 -0.0105 -0.4849
 1685SOL    HW3 6814   4.050   4.279   2.537 -1.0574  0.6620  0.1106
 1685SOL    MW4 6815   4.053   4.261   2.622 -0.3405  0.0992 -0.0265
 1686SOL     OW 6816   4.264   4.418   2.754  0.2543 -0.4375  0.2852
 1686SOL    HW2 6817   4.189   4.380   2.709  0.5869 -0.1776 -0.5131
 1686SOL    HW3 6818   4.268   4.508   2.720 -0.6114  0.3669  2.2416
 1686SOL    MW4 6819   4.254   4.425   2.743  0.1841 -0.2975  0.4382
 1687SOL     OW 6820   0.180   4.610   3.102  0.1040  0.6838 -0.5301
 1687SOL    HW2 6821   0.180   4.621   3.197 -1.7054 -1.5645 -0.2268
 1687SOL    HW3 6822   0.103   4.660   3.073 -0.0859  0.3247 -0.6522
 1687SOL    MW4 6823   0.170   4.618   3.111 -0.1598  0.3400 -0.5064
 1688SOL     OW 6824   4.468   0.091   3.010  0.3088 -0.1777 -0.3574
 1688SOL    HW2 6825   4.386   0.053   3.040  1.0493 -0.9764  0.6940
 1688SOL    HW3 6826   4.464   0.182   3.040 -1.7561  0.8174 -3.4558
 1688SOL    MW4 6827   4.457   0.098   3.018  0.1345 -0.1518 -0.6275
 1689SOL     OW 6828   4.474   0.355   3.116 -0.4012 -0.0384  0.0467
 1689SOL    HW2 6829   4.465   0.360   3.211  0.4552 -1.1268  0.1954
 1689SOL    HW3 6830   4.392   0.392   3.083 -0.8393  0.0796  1.2104
 1689SOL    MW4 6831   4.462   0.360   3.124 -0.3457 -0.1664  0.2198
 1690SOL     OW 6832   0.169   0.504   2.969 -0.4690 -0.6398  0.1054
 1690SOL    HW2 6833   0.247   0.462   3.004 -1.0738 -1.6626  0.2397
 1690SOL    HW3 6834   0.096   0.460   3.012 -1.0912  1.2886  1.0740
 1690SOL    MW4 6835   0.169   0.493   2.979 -0.6309 -0.5203  0.2508
 1691SOL     OW 6836   0.194   0.752   3.086 -0.0780  0.5517 -0.3935
 1691SOL    HW2 6837   0.181   0.747   3.181 -1.2550  0.7957 -0.5352
 1691SOL    HW3 6838   0.187   0.662   3.056  1.0018  0.3805 -0.1743
 1691SOL    MW4 6839   0.192   0.740   3.095 -0.0908  0.5614 -0.3831
 1692SOL     OW 6840   4.452   0.881   3.007  0.0914  0.2545  0.0440
 1692SOL    HW2 6841   4.530   0.831   3.029  0.8543  0.7798 -1.4063
 1692SOL    HW3 6842   4.453   0.887   2.911 -1.2985  0.9394  0.0594
 1692SOL    MW4 6843   4.462   0.876   2.997  0.0086  0.4141 -0.1452
 1693SOL     OW 6844   4.472   1.143   3.087  0.1054  0.1758  0.0045
 1693SOL    HW2 6845   4.391   1.186   3.062 -0.9782 -1.2744  0.9747
 1693SOL    HW3 6846   4.462   1.053   3.056  1.5797  0.1295 -0.3794
 1693SOL    MW4 6847   4.460   1.137   3.080  0.1574 -0.0217  0.0815
 1694SOL     OW 6848   0.214   1.276   3.019 -0.2072  0.1042  0.3015
 1694SOL    HW2 6849   0.131   1.232   3.035 -0.7384  0.9982  0.0549
 1694SOL    HW3 6850   0.222   1.276   2.923  0.4459 -0.6514  0.3540
 1694SOL    MW4 6851   0.204   1.270   3.008 -0.1911  0.1225  0.2761
 1695SOL     OW 6852   0.216   1.550   3.088 -0.8543 -0.1985 -0.0526
 1695SOL    HW2 6853   0.129   1.577   3.057 -0.8844 -0.9123 -0.6131
 1695SOL    HW3 6854   0.224   1.459   3.059  0.7720  0.3883 -1.4845
 1695SOL    MW4 6855   0.205   1.541   3.080 -0.6437 -0.2151 -0.3154
 1696SOL     OW 6856   4.437   1.660   2.996 -0.1450 -0.2087  0.0152
 1696SOL    HW2 6857   4.370   1.615   3.049  0.0933  0.1885  0.6664
 1696SOL    HW3 6858   4.441   1.748   3.034  0.2117 -0.0016 -0.5105
 1696SOL    MW4 6859   4.429   1.666   3.008 -0.0672 -0.1291  0.0315
 1697SOL     OW 6860   4.465   1.901   3.094 -0.0094  0.1581 -0.0495
 1697SOL    HW2 6861   4.390   1.942   3.050  0.2437  1.9873  1.1843
 1697SOL    HW3 6862   4.540   1.955   3.069  0.6351 -0.6681  0.0811
 1697SOL    MW4 6863   4.465   1.914   3.085  0.1092  0.2905  0.1307
 1698SOL     OW 6864   0.200   2.036   3.000  0.0926  0.1010 -0.1691
 1698SOL    HW2 6865   0.216   2.129   3.014  1.0582 -0.0015 -0.5409
 1698SOL    HW3 6866   0.211   2.023   2.906  1.5733 -0.6742  0.0922
 1698SOL    MW4 6867   0.204   2.046   2.989  0.4154 -0.0148 -0.1836
 1699SOL     OW 6868   0.212   2.302   3.092  0.2006 -0.0418 -0.5299
 1699SOL    HW2 6869   0.233   2.289   3.184 -0.0098 -1.2695 -0.6514
 1699SOL    HW3 6870   0.279   2.363   3.061  0.7024 -0.1776  0.2576
 1699SOL    MW4 6871   0.224   2.308   3.100  0.2391 -0.2215 -0.4418
 1700SOL     OW 6872   4.459   2.467   3.056  0.1159  0.3807 -0.1115
 1700SOL    HW2 6873   4.480   2.558   3.078 -1.0642  0.1149  2.3503
 1700SOL    HW3 6874   4.536   2.418   3.084  1.2172  0.6966 -2.4584
 1700SOL    MW4 6875   4.472   2.473   3.063  0.1049  0.3874 -0.0963
 1701SOL     OW 6876   0.035   2.731   3.131  0.5065  0.2610  0.2470
 1701SOL    HW2 6877   0.055   2.720   3.224  1.6441  1.8694  0.2133
 1701SOL    HW3 6878   0.115   2.770   3.094 -0.4718  0.9899 -1.1215
 1701SOL    MW4 6879   0.048   2.735   3.138  0.5275  0.5696  0.0618
 1702SOL     OW 6880   0.249   2.878   3.028  0.3189  0.2531 -0.3647
 1702SOL    HW2 6881   0.324   2.831   3.065 -0.5842 -1.1297 -0.2562
 1702SOL    HW3 6882   0.244   2.846   2.938 -0.2017  0.2741 -0.3398
 1702SOL    MW4 6883   0.259   2.867   3.021  0.1311  0.0739 -0.3471
 1703SOL     OW 6884   0.240   3.144   3.160  0.3312 -0.6428  0.4282
 1703SOL    HW2 6885   0.167   3.194   3.122  0.2517 -2.0661 -1.3384
 1703SOL    HW3 6886   0.234   3.058   3.120  3.3862 -0.6071 -0.2770
 1703SOL    MW4 6887   0.230   3.139   3.150  0.7238 -0.8259  0.1020
 1704SOL     OW 6888   0.039   3.282   2.998  0.1726 -0.0938  0.3990
 1704SOL    HW2 6889  -0.036   3.231   3.030  0.4222 -0.9219 -0.3457
 1704SOL    HW3 6890   0.052   3.253   2.908  0.2025  1.4132 -0.1087
 1704SOL    MW4 6891   0.030   3.272   2.990  0.2095 -0.0043  0.2339
 1705SOL     OW 6892   4.490   3.527   3.102 -0.4452 -0.5060 -0.0279
 1705SOL    HW2 6893   4.409   3.566   3.069  0.4752  0.0543 -1.7143
 1705SOL    HW3 6894   4.497   3.443   3.057  1.1061  0.5077 -1.7598
 1705SOL    MW4 6895   4.480   3.521   3.092 -0.1187 -0.2983 -0.4787
 1706SOL     OW 6896   0.259   3.615   3.024 -0.1685  0.1953 -0.0200
 1706SOL    HW2 6897   0.249   3.705   3.057 -2.7838 -0.4194  0.9863
 1706SOL    HW3 6898   0.177   3.572   3.047  0.3147 -1.9552 -2.1690
 1706SOL    MW4 6899   0.247   3.621   3.031 -0.4498 -0.1695 -0.1707
 1707SOL     OW 6900   0.217   3.881   3.132 -1.0222  0.2700  0.6303
 1707SOL    HW2 6901   0.231   3.885   3.226 -0.9641  0.0373  0.6325
 1707SOL    HW3 6902   0.285   3.936   3.095  0.0376 -1.0088  0.6314
 1707SOL    MW4 6903   0.228   3.889   3.139 -0.8747  0.0708  0.6306
 1708SOL     OW 6904   4.467   3.986   2.998  0.1035  0.2128  0.2638
 1708SOL    HW2 6905   4.548   3.944   3.027 -0.5416 -0.9358  0.4366
 1708SOL    HW3 6906   4.464   3.970   2.904  0.1389  0.3400  0.2421
 1708SOL    MW4 6907   4.477   3.978   2.990  0.0234  0.0782  0.2837
 1709SOL     OW 6908   0.015   4.256   3.107 -0.1093  0.1843  0.0264
 1709SOL    HW2 6909   0.023   4.258   3.202 -2.2215  1.3745  0.2277
 1709SOL    HW3 6910  -0.000   4.164   3.085  1.0114 -0.1856  0.7583
 1709SOL    MW4 6911   0.014   4.244   3.117 -0.2401  0.2923  0.1495
 1710SOL     OW 6912   0.246   4.371   2.990 -0.3648 -0.2875 -0.0972
 1710SOL    HW2 6913   0.178   4.316   3.028 -0.3002  0.0070  0.4451
 1710SOL    HW3 6914   0.233   4.457   3.030 -0.7344  0.2021 -1.2673
 1710SOL    MW4 6915   0.235   4.375   3.000 -0.4050 -0.1841 -0.1802
 1711SOL     OW 6916   0.662   0.000   3.066  0.4103  0.4746 -0.3250
 1711SOL    HW2 6917   0.670  -0.078   3.012 -0.5435  0.7044 -0.8045
 1711SOL    HW3 6918   0.573   0.033   3.049 -0.1630  0.1523  1.9114
 1711SOL    MW4 6919   0.651  -0.006   3.057  0.2089  0.4630 -0.0932
 1712SOL     OW 6920   0.406   0.087   2.996 -0.5185  0.1482  0.3788
 1712SOL    HW2 6921   0.398   0.179   3.022  0.3623  0.9736 -2.1161
 1712SOL    HW3 6922   0.324   0.047   3.025 -0.6273  1.5504  2.1085
 1712SOL    MW4 6923   0.394   0.094   3.004 -0.4167  0.4421  0.2778
 1713SOL     OW 6924   0.379   0.367   3.060  0.1298  0.2822 -0.4611
 1713SOL    HW2 6925   0.384   0.369   3.155 -0.8318  0.4347 -0.4078
 1713SOL    HW3 6926   0.465   0.398   3.031  0.1109  1.1310  0.3591
 1713SOL    MW4 6927   0.391   0.371   3.068  0.0004  0.4143 -0.3457
 1714SOL     OW 6928   0.621   0.486   3.006 -0.2012 -0.3395  0.5646
 1714SOL    HW2 6929   0.700   0.434   3.021 -1.6430 -2.0848  2.4692
 1714SOL    HW3 6930   0.639   0.570   3.048  0.9089 -0.4451  0.3260
 1714SOL    MW4 6931   0.634   0.490   3.014 -0.2449 -0.5837  0.7844
 1715SOL     OW 6932   0.680   0.740   3.090  0.3960 -0.6604  0.5333
 1715SOL    HW2 6933   0.679   0.729   3.185 -0.0341 -0.2699  0.5750
 1715SOL    HW3 6934   0.603   0.792   3.071 -0.9142 -2.8077 -0.2913
 1715SOL    MW4 6935   0.670   0.745   3.100  0.1664 -0.8923  0.4299
 1716SOL     OW 6936   0.430   0.888   3.016 -0.7872  0.1417 -0.3222
 1716SOL    HW2 6937   0.358   0.838   3.055 -0.6407 -0.4268 -0.7819
 1716SOL    HW3 6938   0.412   0.886   2.922 -0.0038 -0.2586 -0.4655
 1716SOL    MW4 6939   0.418   0.881   3.009 -0.6645  0.0139 -0.4015
 1717SOL     OW 6940   0.433   1.138   3.119 -0.2414 -0.0580 -0.3048
 1717SOL    HW2 6941   0.430   1.057   3.069  1.8185 -0.2428 -0.1435
 1717SOL    HW3 6942   0.350   1.182   3.098 -0.3812 -1.1552 -2.1288
 1717SOL    MW4 6943   0.421   1.133   3.110  0.0119 -0.2272 -0.5243
 1718SOL     OW 6944   0.655   1.251   3.013  0.2046  0.0005 -0.2576
 1718SOL    HW2 6945   0.726   1.190   3.032 -0.1815 -0.3793 -0.0388
 1718SOL    HW3 6946   0.582   1.222   3.068  0.0509  0.7171 -0.0776
 1718SOL    MW4 6947   0.655   1.239   3.023  0.1335  0.0451 -0.2048
 1719SOL     OW 6948   0.684   1.529   3.044  0.1704 -0.2248 -0.0811
 1719SOL    HW2 6949   0.691   1.509   3.138 -0.6441  0.1334  0.0683
 1719SOL    HW3 6950   0.680   1.444   3.002  2.0855 -0.4018  0.0712
 1719SOL    MW4 6951   0.684   1.516   3.051  0.3156 -0.2009 -0.0412
 1720SOL     OW 6952   0.447   1.674   3.019 -0.4479 -0.1477  0.1513
 1720SOL    HW2 6953   0.522   1.616   3.026  0.3331  0.8558  0.2109
 1720SOL    HW3 6954   0.372   1.621   3.047  0.0975 -1.4263 -0.7648
 1720SOL    MW4 6955   0.447   1.659   3.024 -0.2729 -0.1839  0.0384
 1721SOL     OW 6956   0.448   1.936   3.091  0.5738  0.0721  0.2133
 1721SOL    HW2 6957   0.450   1.844   3.065  0.4271 -0.3479  1.6380
 1721SOL    HW3 6958   0.365   1.969   3.058  1.6731  0.3463 -2.3970
 1721SOL    MW4 6959   0.437   1.929   3.084  0.6994  0.0529  0.0570
 1722SOL     OW 6960   0.671   2.104   3.006 -0.1323  0.0619  0.3055
 1722SOL    HW2 6961   0.746   2.048   3.023  0.0477 -0.5669 -2.2694
 1722SOL    HW3 6962   0.597   2.059   3.047  0.7010  0.1510  1.9358
 1722SOL    MW4 6963   0.671   2.091   3.013  0.0014 -0.0095  0.1810
 1723SOL     OW 6964   0.648   2.371   3.090 -0.3703  0.2482  0.5567
 1723SOL    HW2 6965   0.659   2.356   3.184 -0.5779  1.0395  0.7095
 1723SOL    HW3 6966   0.663   2.285   3.050 -0.4595 -0.1286  1.3253
 1723SOL    MW4 6967   0.652   2.357   3.097 -0.4095  0.3028  0.6788
 1724SOL     OW 6968   0.408   2.483   3.011 -0.1119 -0.0229 -0.1143
 1724SOL    HW2 6969   0.489   2.442   3.039 -0.0085  0.9053  0.9719
 1724SOL    HW3 6970   0.416   2.490   2.916  0.5797 -0.9798 -0.1285
 1724SOL    MW4 6971   0.420   2.478   3.002 -0.0070 -0.0265  0.0269
 1725SOL     OW 6972   0.454   2.726   3.141  0.1340  0.0250  0.0148
 1725SOL    HW2 6973   0.536   2.748   3.097 -0.1174 -0.7149 -0.8459
 1725SOL    HW3 6974   0.433   2.638   3.110 -1.1137  0.3086  0.0250
 1725SOL    MW4 6975   0.462   2.717   3.131 -0.0637 -0.0355 -0.0973
 1726SOL     OW 6976   0.694   2.804   3.018  0.1308 -0.6191  0.0435
 1726SOL    HW2 6977   0.782   2.775   3.044 -0.6830 -1.6294  1.7975
 1726SOL    HW3 6978   0.690   2.896   3.045  0.1647 -0.9692  1.2622
 1726SOL    MW4 6979   0.705   2.812   3.025  0.0278 -0.7987  0.4356
 1727SOL     OW 6980   0.678   3.078   3.089  0.3850  0.3068 -0.3458
 1727SOL    HW2 6981   0.688   3.064   3.183  1.3338 -0.7462 -0.5871
 1727SOL    HW3 6982   0.593   3.119   3.079 -0.4986 -1.1997  0.8387
 1727SOL    MW4 6983   0.668   3.082   3.100  0.3936 -0.0310 -0.2215
 1728SOL     OW 6984   0.445   3.206   2.986 -0.1637  0.3301 -0.3976
 1728SOL    HW2 6985   0.474   3.292   3.018  1.0536 -0.1243 -0.2681
 1728SOL    HW3 6986   0.369   3.185   3.040  1.7878 -0.3805  2.1928
 1728SOL    MW4 6987   0.439   3.215   2.997  0.2544  0.1767 -0.0389
 1729SOL     OW 6988   0.469   3.465   3.096  0.2110 -0.0584 -0.3895
 1729SOL    HW2 6989   0.471   3.476   3.191  1.4984  0.4720 -0.4746
 1729SOL    HW3 6990   0.397   3.520   3.067  1.5721  1.9865  0.0066
 1729SOL    MW4 6991   0.460   3.474   3.105  0.5605  0.2811 -0.3483
 1730SOL     OW 6992   0.692   3.614   3.014  0.1130  0.2869 -0.0838
 1730SOL    HW2 6993   0.771   3.578   3.053 -0.0065 -0.5321 -0.5907
 1730SOL    HW3 6994   0.622   3.554   3.041 -0.4740  1.4714  1.0622
 1730SOL    MW4 6995   0.693   3.601   3.022  0.0197  0.3352  0.0005
 1731SOL     OW 6996   0.649   3.876   3.131 -0.3429 -0.0763  0.5781
 1731SOL    HW2 6997   0.662   3.873   3.226  1.5382  1.2862  0.3972
 1731SOL    HW3 6998   0.661   3.786   3.102  0.1304 -0.3187  1.5192
 1731SOL    MW4 6999   0.652   3.864   3.140 -0.0322  0.0715  0.6783
 1732SOL     OW 7000   0.430   4.018   3.027  0.1829 -0.4323 -0.2020
 1732SOL    HW2 7001   0.495   3.963   3.070 -0.3139 -1.9288 -1.3254
 1732SOL    HW3 7002   0.452   4.013   2.934 -0.9049 -0.1253 -0.4804
 1732SOL    MW4 7003   0.441   4.010   3.021 -0.0262 -0.5894 -0.3872
 1733SOL     OW 7004   0.472   4.277   3.133  0.1994 -0.6803 -0.7473
 1733SOL    HW2 7005   0.468   4.187   3.100 -0.5536 -0.5572 -1.0096
 1733SOL    HW3 7006   0.406   4.324   3.081 -0.0834 -0.1932  0.0496
 1733SOL    MW4 7007   0.463   4.271   3.122  0.0627 -0.5989 -0.6766
 1734SOL     OW 7008   0.693   4.386   2.989 -0.0072  0.1054  0.0774
 1734SOL    HW2 7009   0.612   4.366   3.035 -0.5437  0.9608 -0.4676
 1734SOL    HW3 7010   0.668   4.391   2.897  0.3580  1.7756  0.0382
 1734SOL    MW4 7011   0.679   4.384   2.983 -0.0297  0.4387  0.0000
 1735SOL     OW 7012   1.119   4.664   3.107  0.1521  0.1598 -0.1303
 1735SOL    HW2 7013   1.189   4.715   3.067  0.3866 -0.1665 -0.1392
 1735SOL    HW3 7014   1.039   4.695   3.065  0.2806  0.6056 -0.0467
 1735SOL    MW4 7015   1.118   4.674   3.096  0.2000  0.1755 -0.1206
 1736SOL     OW 7016   0.899   0.122   2.982 -0.0450  0.0409 -0.3123
 1736SOL    HW2 7017   0.891   0.215   3.005  0.9421  0.1103 -0.2386
 1736SOL    HW3 7018   0.820   0.082   3.016  0.6765  0.4184  1.8447
 1736SOL    MW4 7019   0.888   0.129   2.989  0.1805  0.0999 -0.0181
 1737SOL     OW 7020   0.883   0.391   3.054 -0.1634  0.6361 -0.4401
 1737SOL    HW2 7021   0.889   0.386   3.149 -1.1410  0.4327 -0.3813
 1737SOL    HW3 7022   0.960   0.441   3.027  1.2512 -1.1003  0.2723
 1737SOL    MW4 7023   0.894   0.397   3.063 -0.1057  0.3802 -0.3381
 1738SOL     OW 7024   1.109   0.526   2.973 -0.3357 -0.3103 -0.3699
 1738SOL    HW2 7025   1.189   0.489   3.010 -0.4773  0.4593  0.7260
 1738SOL    HW3 7026   1.117   0.510   2.879  0.8218 -0.7819 -0.2038
 1738SOL    MW4 7027   1.121   0.519   2.965 -0.2015 -0.2710 -0.2034
 1739SOL     OW 7028   1.106   0.772   3.086 -0.4710 -0.3454 -0.1680
 1739SOL    HW2 7029   1.120   0.754   3.179  1.5985  0.3386 -0.3235
 1739SOL    HW3 7030   1.099   0.686   3.046 -2.8351 -0.6468  0.7978
 1739SOL    MW4 7031   1.107   0.758   3.093 -0.5099 -0.2950 -0.0610
 1740SOL     OW 7032   0.885   0.906   2.998  0.1204 -0.1325 -0.7886
 1740SOL    HW2 7033   0.962   0.868   3.041  0.6312  0.8993 -0.7971
 1740SOL    HW3 7034   0.811   0.858   3.037  0.8157 -2.1154 -1.8075
 1740SOL    MW4 7035   0.885   0.894   3.009  0.2796 -0.2579 -0.9241
 1741SOL     OW 7036   0.889   1.157   3.130  0.3615 -0.3040  0.5747
 1741SOL    HW2 7037   0.963   1.209   3.099  0.1485 -0.0762  0.4393
 1741SOL    HW3 7038   0.895   1.075   3.081 -0.5855  0.4615 -0.9005
 1741SOL    MW4 7039   0.899   1.153   3.119  0.2084 -0.1729  0.3622
 1742SOL     OW 7040   1.111   1.293   3.027 -0.2319 -0.0034 -0.1157
 1742SOL    HW2 7041   1.200   1.281   3.062  0.0870 -2.5367 -1.6907
 1742SOL    HW3 7042   1.122   1.294   2.932 -1.7807  0.7023 -0.3069
 1742SOL    MW4 7043   1.124   1.291   3.019 -0.3942 -0.2446 -0.3490
 1743SOL     OW 7044   1.121   1.574   3.093  0.1381  0.0221 -0.4228
 1743SOL    HW2 7045   1.202   1.604   3.053 -0.1974 -0.9454 -1.8474
 1743SOL    HW3 7046   1.116   1.481   3.071  0.4510 -0.8018  2.7285
 1743SOL    MW4 7047   1.131   1.566   3.085  0.1352 -0.2142 -0.1945
 1744SOL     OW 7048   0.888   1.709   2.977 -0.0727  0.0227 -0.1329
 1744SOL    HW2 7049   0.970   1.668   3.003 -0.2855 -0.6937 -0.5911
 1744SOL    HW3 7050   0.820   1.652   3.010 -0.3821  0.3694 -0.1644
 1744SOL    MW4 7051   0.890   1.696   2.985 -0.1416 -0.0262 -0.1972
 1745SOL     OW 7052   0.903   1.957   3.087 -0.4083 -0.4003 -0.4043
 1745SOL    HW2 7053   0.887   1.947   3.181 -0.9554  2.1055 -0.1981
 1745SOL    HW3 7054   0.892   1.869   3.051  0.6620 -1.5486  1.9971
 1745SOL    MW4 7055   0.899   1.944   3.095 -0.3393 -0.2213 -0.0601
 1746SOL     OW 7056   1.163   2.064   3.070 -0.1193 -0.2157 -0.3547
 1746SOL    HW2 7057   1.073   2.035   3.084  0.5306 -2.5066 -0.7019
 1746SOL    HW3 7058   1.167   2.085   2.977 -0.5786  1.0154 -0.1119
 1746SOL    MW4 7059   1.152   2.063   3.060 -0.0942 -0.3552 -0.3686
 1747SOL     OW 7060   1.153   2.334   3.143  0.2292 -0.2571  0.5303
 1747SOL    HW2 7061   1.074   2.366   3.099  0.4981 -1.2264 -0.6794
 1747SOL    HW3 7062   1.149   2.239   3.134  0.4386 -0.4519  2.3779
 1747SOL    MW4 7063   1.142   2.326   3.136  0.2923 -0.4110  0.6146
 1748SOL     OW 7064   0.910   2.441   3.004  0.2411  0.0347  0.0729
 1748SOL    HW2 7065   0.817   2.437   3.025  0.2738  1.3947  0.4652
 1748SOL    HW3 7066   0.915   2.416   2.911 -0.6164  0.9648 -0.2268
 1748SOL    MW4 7067   0.899   2.437   2.994  0.1323  0.3371  0.0851
 1749SOL     OW 7068   0.928   2.700   3.110  0.0188  0.0364 -0.4081
 1749SOL    HW2 7069   0.938   2.695   3.205 -2.1781  1.6690 -0.0615
 1749SOL    HW3 7070   0.954   2.614   3.078  0.6485 -0.5686  1.6782
 1749SOL    MW4 7071   0.933   2.688   3.118 -0.1879  0.1719 -0.0870
 1750SOL     OW 7072   1.131   2.846   3.023  0.1738 -0.2988 -0.6011
 1750SOL    HW2 7073   1.122   2.939   3.044  0.1458 -0.2080 -1.0038
 1750SOL    HW3 7074   1.058   2.804   3.068  0.3672 -0.1691 -0.1630
 1750SOL    MW4 7075   1.120   2.853   3.032  0.1956 -0.2699 -0.5965
 1751SOL     OW 7076   1.123   3.105   3.144  0.2194 -0.4252 -0.2166
 1751SOL    HW2 7077   1.195   3.166   3.130 -0.0814 -0.1305 -0.4783
 1751SOL    HW3 7078   1.048   3.145   3.100 -0.2452 -0.4491  0.5290
 1751SOL    MW4 7079   1.122   3.118   3.137  0.1185 -0.3896 -0.1528
 1752SOL     OW 7080   0.904   3.258   3.016  0.0706 -0.2487 -0.0787
 1752SOL    HW2 7081   0.830   3.206   3.048  0.4515 -1.0067 -0.4233
 1752SOL    HW3 7082   0.906   3.242   2.922 -1.0870  2.0343 -0.5329
 1752SOL    MW4 7083   0.894   3.249   3.008 -0.0318 -0.0477 -0.1841
 1753SOL     OW 7084   0.937   3.506   3.139  0.0454  0.1384 -0.0994
 1753SOL    HW2 7085   1.020   3.544   3.112 -0.0613  0.8899  0.6045
 1753SOL    HW3 7086   0.930   3.424   3.090  1.0403  0.2392 -0.4043
 1753SOL    MW4 7087   0.947   3.500   3.129  0.1626  0.2508 -0.0463
 1754SOL     OW 7088   1.144   3.650   3.014  0.0228  0.0681 -0.6497
 1754SOL    HW2 7089   1.228   3.620   3.049 -0.1124  0.2575 -0.1573
 1754SOL    HW3 7090   1.138   3.741   3.044 -1.0916 -0.4285  0.6665
 1754SOL    MW4 7091   1.155   3.658   3.022 -0.1421  0.0274 -0.4110
 1755SOL     OW 7092   1.154   3.918   3.144  0.1022 -0.4769  0.0973
 1755SOL    HW2 7093   1.139   3.900   3.237 -0.6696 -1.5260 -0.2174
 1755SOL    HW3 7094   1.069   3.949   3.112  1.1041  2.6627  0.3604
 1755SOL    MW4 7095   1.141   3.920   3.152  0.1326 -0.2012  0.0906
 1756SOL     OW 7096   0.906   3.995   3.037  0.1726 -0.1409  0.3577
 1756SOL    HW2 7097   0.827   3.950   3.067  0.3655 -0.3966  0.4826
 1756SOL    HW3 7098   0.898   3.997   2.942  0.0379 -0.2034  0.3678
 1756SOL    MW4 7099   0.894   3.990   3.028  0.1802 -0.1826  0.3755
 1757SOL     OW 7100   0.914   4.270   3.106 -0.1692 -0.1785  0.7836
 1757SOL    HW2 7101   0.915   4.177   3.082 -1.8988 -0.6795  2.5535
 1757SOL    HW3 7102   0.837   4.305   3.063 -0.9043 -0.1405  2.0925
 1757SOL    MW4 7103   0.904   4.262   3.097 -0.4944 -0.2394  1.1897
 1758SOL     OW 7104   1.140   4.396   3.005 -0.2475 -0.5097 -0.3975
 1758SOL    HW2 7105   1.064   4.356   3.047  0.3857 -0.3569  0.8960
 1758SOL    HW3 7106   1.132   4.489   3.025 -0.9043 -0.1708 -2.1304
 1758SOL    MW4 7107   1.129   4.403   3.013 -0.2506 -0.4444 -0.4554
 1759SOL     OW 7108   1.538   4.636   3.126 -0.2171  0.1198  0.3961
 1759SOL    HW2 7109   1.521   4.638   3.220 -1.4072 -1.1397  0.2306
 1759SOL    HW3 7110   1.466   4.687   3.088 -0.9210 -1.1002  0.0421
 1759SOL    MW4 7111   1.526   4.643   3.134 -0.4669 -0.2069  0.3273
 1760SOL     OW 7112   1.337   0.134   3.011  0.5275  0.4521 -0.5624
 1760SOL    HW2 7113   1.331   0.227   3.035 -0.8556  0.2499 -0.1096
 1760SOL    HW3 7114   1.331   0.134   2.915 -0.0712  0.7872 -0.5294
 1760SOL    MW4 7115   1.336   0.147   3.002  0.2660  0.4697 -0.4983
 1761SOL     OW 7116   1.314   0.390   3.097  0.4294  0.2248  0.2265
 1761SOL    HW2 7117   1.326   0.393   3.192  0.7105 -0.3076  0.2118
 1761SOL    HW3 7118   1.402   0.395   3.061  0.4228 -0.8921  0.0361
 1761SOL    MW4 7119   1.327   0.391   3.105  0.4656  0.0072  0.1996
 1762SOL     OW 7120   1.566   0.454   3.001 -0.2681 -0.0042  0.1076
 1762SOL    HW2 7121   1.570   0.549   3.006 -0.3604  0.0160 -0.1656
 1762SOL    HW3 7122   1.558   0.435   2.907  3.8321 -0.4307 -0.2274
 1762SOL    MW4 7123   1.565   0.464   2.989  0.2607 -0.0578  0.0274
 1763SOL     OW 7124   1.559   0.720   3.084  0.2818 -0.2593  0.0148
 1763SOL    HW2 7125   1.564   0.709   3.179 -0.5915 -0.4291  0.0479
 1763SOL    HW3 7126   1.493   0.787   3.071 -0.9421 -1.5394 -0.5340
 1763SOL    MW4 7127   1.551   0.727   3.095  0.0050 -0.4506 -0.0534
 1764SOL     OW 7128   1.366   0.907   2.982 -0.1723  0.4883 -0.5890
 1764SOL    HW2 7129   1.368   0.997   3.014  0.1165 -0.2720  1.6277
 1764SOL    HW3 7130   1.279   0.874   3.005 -0.8722  0.6879 -2.8516
 1764SOL    MW4 7131   1.355   0.914   2.990 -0.2265  0.4143 -0.5949
 1765SOL     OW 7132   1.356   1.177   3.111  0.1231 -0.2417  0.5506
 1765SOL    HW2 7133   1.351   1.173   3.207 -0.1881  0.4787  0.5641
 1765SOL    HW3 7134   1.436   1.226   3.093 -0.4351  0.6377  0.4527
 1765SOL    MW4 7135   1.366   1.183   3.122  0.0083 -0.0306  0.5393
 1766SOL     OW 7136   1.587   1.308   3.014 -0.2379  0.1868 -0.3937
 1766SOL    HW2 7137   1.660   1.269   3.063 -0.1748  0.2356 -0.4478
 1766SOL    HW3 7138   1.581   1.397   3.046 -1.0411 -0.1717  0.4545
 1766SOL    MW4 7139   1.596   1.314   3.024 -0.3355  0.1460 -0.2887
 1767SOL     OW 7140   1.600   1.555   3.108 -0.3618 -0.0450 -0.0706
 1767SOL    HW2 7141   1.676   1.607   3.083 -0.5065  0.2865  0.1836
 1767SOL    HW3 7142   1.527   1.597   3.063 -0.3147 -0.7131 -0.7913
 1767SOL    MW4 7143   1.601   1.567   3.099 -0.3747 -0.0895 -0.1323
 1768SOL     OW 7144   1.359   1.671   2.991 -0.5698  0.6012  0.0199
 1768SOL    HW2 7145   1.348   1.760   3.026 -1.8306  0.9695 -1.2682
 1768SOL    HW3 7146   1.359   1.683   2.896  1.3626 -0.5435 -0.1398
 1768SOL    MW4 7147   1.358   1.685   2.983 -0.4811  0.4989 -0.1712
 1769SOL     OW 7148   1.400   1.926   3.132  0.1721  0.2322 -0.0124
 1769SOL    HW2 7149   1.410   1.903   3.224  0.9314 -0.7415 -0.3196
 1769SOL    HW3 7150   1.323   1.982   3.129 -0.1532 -0.1347  1.1456
 1769SOL    MW4 7151   1.391   1.930   3.144  0.2294  0.0554  0.1001
 1770SOL     OW 7152   1.590   2.090   3.019 -0.4618 -0.0835 -0.0702
 1770SOL    HW2 7153   1.523   2.030   3.053 -0.4112 -0.8904 -1.3557
 1770SOL    HW3 7154   1.584   2.081   2.924 -0.7294  2.2662 -0.3180
 1770SOL    MW4 7155   1.580   2.081   3.011 -0.4904  0.1202 -0.2725
 1771SOL     OW 7156   1.639   2.360   3.089  0.1084  0.5622  0.6893
 1771SOL    HW2 7157   1.563   2.410   3.058  0.6772  1.3567  0.5672
 1771SOL    HW3 7158   1.622   2.270   3.060 -0.0875  1.0084 -0.6287
 1771SOL    MW4 7159   1.627   2.354   3.081  0.1576  0.7257  0.4990
 1772SOL     OW 7160   1.386   2.465   3.024 -0.5652  0.4095 -0.2193
 1772SOL    HW2 7161   1.306   2.424   3.057  0.0124 -0.1986  0.4128
 1772SOL    HW3 7162   1.379   2.458   2.929 -0.5813 -0.9339 -0.1255
 1772SOL    MW4 7163   1.374   2.459   3.016 -0.4910  0.1521 -0.1237
 1773SOL     OW 7164   1.357   2.732   3.135 -0.2414  0.1816  0.3347
 1773SOL    HW2 7165   1.366   2.642   3.106  0.4036 -0.0933  1.3536
 1773SOL    HW3 7166   1.269   2.758   3.108 -0.2584 -0.5898 -0.3742
 1773SOL    MW4 7167   1.347   2.724   3.127 -0.1587  0.0434  0.3755
 1774SOL     OW 7168   1.550   2.864   3.002 -0.2981 -0.4410 -0.1007
 1774SOL    HW2 7169   1.627   2.820   3.039  0.1190 -0.4113 -0.9176
 1774SOL    HW3 7170   1.476   2.825   3.049  0.2931  0.5297  1.6651
 1774SOL    MW4 7171   1.551   2.853   3.013 -0.1651 -0.3088  0.0243
 1775SOL     OW 7172   1.569   3.130   3.109 -0.0514  0.0834 -0.2805
 1775SOL    HW2 7173   1.571   3.122   3.205 -2.5740  0.0408 -0.1877
 1775SOL    HW3 7174   1.562   3.040   3.078  1.2017  0.0683 -0.5359
 1775SOL    MW4 7175   1.568   3.117   3.118 -0.2189  0.0758 -0.3018
 1776SOL     OW 7176   1.370   3.277   3.018  0.3705 -0.4907  0.4083
 1776SOL    HW2 7177   1.445   3.226   3.049  0.5777 -0.4959 -0.0854
 1776SOL    HW3 7178   1.375   3.269   2.922  0.1939  0.1627  0.3463
 1776SOL    MW4 7179   1.381   3.269   3.009  0.3746 -0.4055  0.3350
 1777SOL     OW 7180   1.430   3.517   3.122 -0.4775 -0.0787 -0.0456
 1777SOL    HW2 7181   1.388   3.517   3.208  1.4632  1.5813  0.9430
 1777SOL    HW3 7182   1.410   3.430   3.086 -0.8017 -1.0394  2.3231
 1777SOL    MW4 7183   1.422   3.505   3.129 -0.2643  0.0136  0.3972
 1778SOL     OW 7184   1.655   3.632   3.002  0.3105  0.4754 -0.2748
 1778SOL    HW2 7185   1.578   3.590   3.040  0.5456  1.1624  1.0050
 1778SOL    HW3 7186   1.647   3.616   2.908 -1.2046  0.2202 -0.1258
 1778SOL    MW4 7187   1.644   3.625   2.995  0.1416  0.5324 -0.0863
 1779SOL     OW 7188   1.625   3.883   3.098  0.0354 -0.1317 -0.0481
 1779SOL    HW2 7189   1.681   3.943   3.049 -2.2444  2.1900  0.0806
 1779SOL    HW3 7190   1.633   3.800   3.052  2.0412  0.6365 -1.1701
 1779SOL    MW4 7191   1.634   3.880   3.085 -0.0008  0.2761 -0.1791
 1780SOL     OW 7192   1.370   4.003   3.001 -0.1266  0.3831 -0.1557
 1780SOL    HW2 7193   1.453   3.959   3.022  0.7220  2.5090  1.0445
 1780SOL    HW3 7194   1.307   3.966   3.062  0.5366  0.6499  0.7037
 1780SOL    MW4 7195   1.373   3.992   3.011  0.0730  0.6993  0.1156
 1781SOL     OW 7196   1.364   4.255   3.116  0.1164  0.0063  0.4569
 1781SOL    HW2 7197   1.362   4.166   3.081  0.0745  0.3686 -0.5022
 1781SOL    HW3 7198   1.289   4.298   3.073  1.2394  1.0130 -0.5246
 1781SOL    MW4 7199   1.354   4.249   3.106  0.2589  0.1864  0.2010
 1782SOL     OW 7200   1.602   4.380   3.050 -0.5468  0.2944 -0.4089
 1782SOL    HW2 7201   1.519   4.338   3.073  0.1228 -1.4340 -1.0594
 1782SOL    HW3 7202   1.593   4.470   3.081 -2.1196 -0.2576  0.7800
 1782SOL    MW4 7203   1.590   4.386   3.057 -0.6659 -0.0067 -0.3378
 1783SOL     OW 7204   2.023   4.632   3.151 -0.2034  0.0689  0.1174
 1783SOL    HW2 7205   2.027   4.619   3.246 -0.2163  2.2503  0.4365
 1783SOL    HW3 7206   1.937   4.669   3.135 -0.2816 -0.4748 -0.7841
 1783SOL    MW4 7207   2.012   4.635   3.161 -0.2155  0.2856  0.0405
 1784SOL     OW 7208   1.782   0.091   3.054 -0.3058 -0.4671  0.6881
 1784SOL    HW2 7209   1.707   0.034   3.073 -1.4843  0.8000 -0.0157
 1784SOL    HW3 7210   1.767   0.119   2.963  0.0244  1.3002  1.1690
 1784SOL    MW4 7211   1.770   0.087   3.044 -0.4176 -0.0668  0.6588
 1785SOL     OW 7212   1.807   0.355   3.107 -0.6899  0.0674  0.2678
 1785SOL    HW2 7213   1.808   0.260   3.096  0.6610  0.2668 -1.6794
 1785SOL    HW3 7214   1.721   0.383   3.074 -0.3733 -0.3081 -0.8851
 1785SOL    MW4 7215   1.796   0.346   3.101 -0.4699  0.0441 -0.1409
 1786SOL     OW 7216   2.014   0.537   3.052  0.2289 -0.5725 -0.1793
 1786SOL    HW2 7217   1.954   0.473   3.091 -0.4285  0.4410  0.4760
 1786SOL    HW3 7218   2.011   0.517   2.958 -1.8071  0.0238 -0.2692
 1786SOL    MW4 7219   2.005   0.526   3.045 -0.1264 -0.3601 -0.1049
 1787SOL     OW 7220   2.014   0.778   3.145  0.4201 -0.1031 -0.3656
 1787SOL    HW2 7221   1.926   0.808   3.123  0.9449  1.1853 -0.7621
 1787SOL    HW3 7222   2.014   0.685   3.122 -1.1151 -0.3407  0.5284
 1787SOL    MW4 7223   2.002   0.770   3.139  0.2868  0.0355 -0.3002
 1788SOL     OW 7224   1.767   0.907   3.026  0.2148 -0.0398 -0.6585
 1788SOL    HW2 7225   1.703   0.840   3.048  0.0529  0.4659  0.4523
 1788SOL    HW3 7226   1.782   0.896   2.932 -0.3287 -1.1682 -0.6249
 1788SOL    MW4 7227   1.761   0.897   3.016  0.1218 -0.1220 -0.5078
 1789SOL     OW 7228   1.798   1.161   3.121  0.2632  0.2112  0.1369
 1789SOL    HW2 7229   1.799   1.159   3.217  0.4957  0.8848  0.1511
 1789SOL    HW3 7230   1.784   1.070   3.095 -0.7282  0.1539  0.8284
 1789SOL    MW4 7231   1.796   1.149   3.130  0.1631  0.2923  0.2301
 1790SOL     OW 7232   2.013   1.307   3.001 -0.3401  0.2040 -0.0372
 1790SOL    HW2 7233   2.091   1.269   3.042  0.0656  0.8019 -0.2476
 1790SOL    HW3 7234   1.941   1.251   3.030  0.2658 -0.8096 -0.4498
 1790SOL    MW4 7235   2.014   1.295   3.010 -0.2067  0.1493 -0.1194
 1791SOL     OW 7236   2.029   1.539   3.163  0.5870  0.1859 -0.2188
 1791SOL    HW2 7237   2.033   1.524   3.257 -1.4542 -0.1300 -0.1629
 1791SOL    HW3 7238   2.002   1.455   3.126  1.2239  0.3498 -1.0680
 1791SOL    MW4 7239   2.026   1.526   3.170  0.4017  0.1659 -0.3235
 1792SOL     OW 7240   1.815   1.697   3.007  0.3747 -0.2289 -0.1013
 1792SOL    HW2 7241   1.803   1.784   3.045  0.3624  0.0966 -0.8502
 1792SOL    HW3 7242   1.885   1.657   3.059  0.6756  0.3882 -0.0391
 1792SOL    MW4 7243   1.822   1.703   3.019  0.4127 -0.1045 -0.1922
 1793SOL     OW 7244   1.821   1.959   3.102  0.0591 -0.3981 -0.7177
 1793SOL    HW2 7245   1.902   2.008   3.084  0.2302 -0.5987 -0.4966
 1793SOL    HW3 7246   1.751   2.019   3.077  0.2549  0.1885  0.1161
 1793SOL    MW4 7247   1.822   1.973   3.096  0.1074 -0.3471 -0.5782
 1794SOL     OW 7248   2.060   2.108   3.053 -0.8246 -0.5148 -0.0877
 1794SOL    HW2 7249   2.121   2.069   3.115 -0.6230 -0.0923 -0.0191
 1794SOL    HW3 7250   2.050   2.199   3.082  0.2138  0.0371 -1.3720
 1794SOL    MW4 7251   2.067   2.115   3.065 -0.6611 -0.3865 -0.2482
 1795SOL     OW 7252   2.028   2.348   3.164 -0.6337  0.4371  0.2765
 1795SOL    HW2 7253   2.113   2.372   3.127 -0.5480 -0.0244  0.1729
 1795SOL    HW3 7254   1.968   2.416   3.134 -0.4687  0.3137 -0.3242
 1795SOL    MW4 7255   2.031   2.360   3.155 -0.6003  0.3600  0.1838
 1796SOL     OW 7256   1.850   2.495   2.983  0.0441 -0.4842  0.2414
 1796SOL    HW2 7257   1.834   2.584   3.016 -0.5267  0.2047 -1.7901
 1796SOL    HW3 7258   1.782   2.442   3.024 -0.9621  0.4447 -0.1929
 1796SOL    MW4 7259   1.839   2.500   2.993 -0.1642 -0.2708 -0.0837
 1797SOL     OW 7260   1.793   2.754   3.085 -0.4608  0.4121 -0.2394
 1797SOL    HW2 7261   1.802   2.742   3.180 -0.9265 -1.1321 -0.3698
 1797SOL    HW3 7262   1.881   2.773   3.054  0.0964 -1.3753  0.2093
 1797SOL    MW4 7263   1.806   2.755   3.093 -0.4488 -0.0274 -0.1972
 1798SOL     OW 7264   2.032   2.822   2.985  0.2265 -0.5554  0.1667
 1798SOL    HW2 7265   2.041   2.914   3.011 -0.4699 -0.9061  1.6723
 1798SOL    HW3 7266   2.006   2.827   2.893 -0.8228  0.7862  0.5166
 1798SOL    MW4 7267   2.030   2.835   2.976 -0.0036 -0.4244  0.4115
 1799SOL     OW 7268   2.025   3.093   3.121  0.4335 -0.0205 -0.4879
 1799SOL    HW2 7269   2.034   3.108   3.215  0.0010  0.4254 -0.5116
 1799SOL    HW3 7270   1.953   3.151   3.095 -0.5476 -1.3447 -0.7965
 1799SOL    MW4 7271   2.017   3.103   3.130  0.2468 -0.1366 -0.5319
 1800SOL     OW 7272   1.814   3.243   3.027  0.1946 -0.0713  0.4261
 1800SOL    HW2 7273   1.744   3.198   3.074  0.9403 -0.3563  1.2921
 1800SOL    HW3 7274   1.789   3.238   2.935 -0.3169 -1.2311  0.6159
 1800SOL    MW4 7275   1.801   3.236   3.021  0.2254 -0.2615  0.5653
 1801SOL     OW 7276   1.923   3.648   3.019  0.2468  0.3730  0.0671
 1801SOL    HW2 7277   1.829   3.632   3.017  0.4103 -0.4395 -2.6714
 1801SOL    HW3 7278   1.959   3.572   3.065 -0.4399  0.8844  1.4850
 1801SOL    MW4 7279   1.916   3.636   3.025  0.1777  0.3331 -0.1070
 1802SOL     OW 7280   1.978   3.423   3.164  0.5502 -0.0752  0.2432
 1802SOL    HW2 7281   1.928   3.437   3.244 -2.0386  3.1578 -1.8120
 1802SOL    HW3 7282   1.926   3.359   3.114  1.2124 -0.6979  0.3452
 1802SOL    MW4 7283   1.964   3.416   3.168  0.2960  0.2689 -0.0143
 1803SOL     OW 7284   1.990   3.886   3.161  0.0162 -0.3681  0.0599
 1803SOL    HW2 7285   1.959   3.803   3.125  0.2604 -0.7274  0.6783
 1803SOL    HW3 7286   2.004   3.868   3.254  1.0973  0.0778 -0.0160
 1803SOL    MW4 7287   1.988   3.872   3.168  0.1911 -0.3564  0.1314
 1804SOL     OW 7288   1.805   4.037   2.967 -0.5207 -0.0578 -0.5574
 1804SOL    HW2 7289   1.805   4.125   3.006 -1.6193 -0.9310  1.4830
 1804SOL    HW3 7290   1.866   3.987   3.020  0.9296 -0.2712 -2.3913
 1804SOL    MW4 7291   1.813   4.042   2.979 -0.4743 -0.2012 -0.5300
 1805SOL     OW 7292   1.842   4.266   3.097  0.1210  0.2131  0.1405
 1805SOL    HW2 7293   1.919   4.313   3.064 -0.8228  1.0183 -0.9285
 1805SOL    HW3 7294   1.768   4.322   3.076 -0.7827 -0.5901  1.1101
 1805SOL    MW4 7295   1.843   4.279   3.090 -0.1228  0.2136  0.1273
 1806SOL     OW 7296   2.079   4.370   3.005 -0.1222 -0.3795  0.1867
 1806SOL    HW2 7297   2.055   4.455   3.041 -0.9718 -1.1555  1.5123
 1806SOL    HW3 7298   2.097   4.387   2.913 -0.5952  1.1749  0.3646
 1806SOL    MW4 7299   2.078   4.383   2.998 -0.2968 -0.2770  0.3850
 1807SOL     OW 7300   2.464   4.633   3.075  0.1600  0.1680  0.0659
 1807SOL    HW2 7301   2.469   4.543   3.043  1.0084 -0.0232  0.7051
 1807SOL    HW3 7302   2.392   4.672   3.026 -1.0155 -1.2135  0.6500
 1807SOL    MW4 7303   2.455   4.626   3.064  0.1168 -0.0401  0.2275
 1808SOL     OW 7304   2.214   0.094   2.995  0.1977 -0.1173 -0.0382
 1808SOL    HW2 7305   2.218   0.187   3.018 -0.8715  0.1022 -0.7058
 1808SOL    HW3 7306   2.151   0.056   3.056 -0.0204 -0.2200 -0.3204
 1808SOL    MW4 7307   2.206   0.101   3.006  0.0279 -0.1019 -0.1638
 1809SOL     OW 7308   2.236   0.365   3.090 -0.1762 -0.0136  0.0557
 1809SOL    HW2 7309   2.255   0.360   3.184  1.7717 -1.6445 -0.3832
 1809SOL    HW3 7310   2.169   0.433   3.083 -1.9143 -1.3293  2.8452
 1809SOL    MW4 7311   2.230   0.373   3.102 -0.1485 -0.4024  0.3660
 1810SOL     OW 7312   2.473   0.516   3.042  0.2659  0.1164 -0.1922
 1810SOL    HW2 7313   2.391   0.469   3.058  0.7069 -1.0391 -1.2229
 1810SOL    HW3 7314   2.482   0.516   2.947  1.0442  0.9672 -0.1215
 1810SOL    MW4 7315   2.464   0.510   3.032  0.4270  0.0762 -0.3188
 1811SOL     OW 7316   2.437   0.790   3.109  0.4816 -0.1717 -0.6602
 1811SOL    HW2 7317   2.520   0.823   3.076  0.0578 -0.0472 -1.6206
 1811SOL    HW3 7318   2.441   0.696   3.093  0.6915 -0.2592 -0.1231
 1811SOL    MW4 7319   2.448   0.782   3.103  0.4535 -0.1668 -0.7162
 1812SOL     OW 7320   2.234   0.940   3.020 -0.1298  0.0568 -0.2256
 1812SOL    HW2 7321   2.311   0.889   3.046  0.5471  0.9687 -0.4263
 1812SOL    HW3 7322   2.162   0.902   3.071  0.8490  0.6484  1.6435
 1812SOL    MW4 7323   2.235   0.928   3.030  0.0885  0.2551 -0.0057
 1813SOL     OW 7324   2.221   1.198   3.129  0.6126  0.1283 -0.0098
 1813SOL    HW2 7325   2.219   1.186   3.224  0.1117  1.6567  0.1895
 1813SOL    HW3 7326   2.228   1.109   3.093 -0.1485 -0.5233  1.4253
 1813SOL    MW4 7327   2.222   1.184   3.137  0.4463  0.2440  0.2055
 1814SOL     OW 7328   2.452   1.328   3.080 -0.5466  0.1642  0.1841
 1814SOL    HW2 7329   2.380   1.274   3.113 -0.5280  0.0116 -0.0220
 1814SOL    HW3 7330   2.425   1.352   2.991 -0.2889  0.0085  0.0636
 1814SOL    MW4 7331   2.439   1.324   3.073 -0.5097  0.1235  0.1409
 1815SOL     OW 7332   2.447   1.597   3.144 -0.2249  0.0866 -0.2692
 1815SOL    HW2 7333   2.369   1.648   3.119 -1.3630 -0.8868  1.1994
 1815SOL    HW3 7334   2.424   1.506   3.124  0.0987 -0.3348  1.1890
 1815SOL    MW4 7335   2.434   1.592   3.138 -0.3324 -0.0974  0.1173
 1816SOL     OW 7336   2.225   1.711   3.060  0.1590 -0.0341  0.0575
 1816SOL    HW2 7337   2.161   1.650   3.098  0.2962 -0.2150 -0.0019
 1816SOL    HW3 7338   2.225   1.690   2.967 -0.5302  0.7303 -0.1228
 1816SOL    MW4 7339   2.216   1.700   3.053  0.0863  0.0429  0.0260
 1817SOL     OW 7340   2.253   1.971   3.179  0.2174 -0.6845 -0.0523
 1817SOL    HW2 7341   2.321   2.016   3.128 -0.4504 -0.1996 -0.5243
 1817SOL    HW3 7342   2.244   1.886   3.136  0.3187 -0.6345 -0.1749
 1817SOL    MW4 7343   2.261   1.966   3.167  0.1428 -0.6139 -0.1307
 1818SOL     OW 7344   2.440   2.070   2.995 -0.2453  0.5251 -0.3179
 1818SOL    HW2 7345   2.506   2.012   3.033 -0.0161 -0.4120 -2.1342
 1818SOL    HW3 7346   2.458   2.069   2.901 -4.0763 -1.3345 -1.0957
 1818SOL    MW4 7347   2.451   2.062   2.988 -0.7205  0.1562 -0.6602
 1819SOL     OW 7348   2.470   2.308   3.150 -0.2476  0.3506 -0.3295
 1819SOL    HW2 7349   2.483   2.272   3.238  0.5350 -0.3191 -0.7120
 1819SOL    HW3 7350   2.441   2.233   3.097  0.5565  0.4472 -0.9311
 1819SOL    MW4 7351   2.468   2.293   3.154 -0.0381  0.2751 -0.4594
 1820SOL     OW 7352   2.257   2.422   3.016  0.1756 -0.4235 -0.2122
 1820SOL    HW2 7353   2.257   2.518   3.023  0.3385 -0.4712  0.5227
 1820SOL    HW3 7354   2.335   2.395   3.064 -0.0855 -0.9446 -0.0767
 1820SOL    MW4 7355   2.267   2.431   3.024  0.1626 -0.4988 -0.0975
 1821SOL     OW 7356   2.265   2.701   3.061 -0.3451 -0.0923  0.5980
 1821SOL    HW2 7357   2.346   2.737   3.026  0.0292 -0.6968  0.8207
 1821SOL    HW3 7358   2.196   2.760   3.031  0.2011  0.5218  0.5556
 1821SOL    MW4 7359   2.267   2.713   3.052 -0.2236 -0.0911  0.6218
 1822SOL     OW 7360   2.499   2.850   2.969 -0.6400  0.7684 -0.4350
 1822SOL    HW2 7361   2.489   2.928   3.022 -0.6580  1.6465 -1.7192
 1822SOL    HW3 7362   2.438   2.862   2.896  0.8757  0.5371 -1.7598
 1822SOL    MW4 7363   2.490   2.862   2.967 -0.4425  0.8538 -0.7794
 1823SOL     OW 7364   2.506   3.088   3.133 -0.3780  0.1615  0.0830
 1823SOL    HW2 7365   2.566   3.137   3.076 -0.1612 -0.0441  0.1325
 1823SOL    HW3 7366   2.419   3.111   3.101 -0.2356 -1.1252 -1.3278
 1823SOL    MW4 7367   2.503   3.097   3.121 -0.3307 -0.0355 -0.0968
 1824SOL     OW 7368   2.263   3.172   3.026  0.4848 -0.5447 -0.0757
 1824SOL    HW2 7369   2.264   3.256   3.071 -1.9609  0.5922 -2.0107
 1824SOL    HW3 7370   2.184   3.128   3.058  0.8754 -1.4298 -0.2980
 1824SOL    MW4 7371   2.253   3.177   3.036  0.2136 -0.5112 -0.3603
 1825SOL     OW 7372   2.255   3.401   3.171 -0.0309  0.1692  0.1275
 1825SOL    HW2 7373   2.287   3.467   3.109 -0.9203 -1.3249 -2.0021
 1825SOL    HW3 7374   2.160   3.416   3.174 -0.4400 -1.8695 -1.4739
 1825SOL    MW4 7375   2.246   3.412   3.163 -0.2022 -0.2968 -0.3648
 1826SOL     OW 7376   2.442   3.574   2.999  0.1716 -0.4711 -0.3634
 1826SOL    HW2 7377   2.520   3.526   3.028  0.9538  1.2889  0.5621
 1826SOL    HW3 7378   2.443   3.654   3.052 -1.5405  0.1809 -1.2923
 1826SOL    MW4 7379   2.453   3.578   3.010  0.0491 -0.1528 -0.3636
 1827SOL     OW 7380   2.434   3.830   3.133  0.1950 -0.0626 -0.3190
 1827SOL    HW2 7381   2.435   3.839   3.228 -0.6813 -2.9068  0.0019
 1827SOL    HW3 7382   2.504   3.888   3.103 -0.4724  1.9742  1.9282
 1827SOL    MW4 7383   2.443   3.839   3.142 -0.0086 -0.1693  0.0198
 1828SOL     OW 7384   2.211   3.917   2.998  0.2682 -0.2024  0.1847
 1828SOL    HW2 7385   2.285   3.882   3.048  0.4560 -1.9817 -1.2821
 1828SOL    HW3 7386   2.134   3.889   3.048  0.5473  1.4022  1.5594
 1828SOL    MW4 7387   2.211   3.909   3.012  0.3300 -0.2253  0.1724
 1829SOL     OW 7388   2.269   4.187   3.088 -0.0828  0.3300 -0.0997
 1829SOL    HW2 7389   2.226   4.102   3.076 -0.3844  0.4432  0.1617
 1829SOL    HW3 7390   2.199   4.251   3.076  0.3070  0.5747 -1.1016
 1829SOL    MW4 7391   2.254   4.184   3.085 -0.0710  0.3777 -0.1974
 1830SOL     OW 7392   2.487   4.350   3.007 -0.1450  0.4039 -0.4847
 1830SOL    HW2 7393   2.406   4.302   3.025 -0.0680  0.0097 -1.1623
 1830SOL    HW3 7394   2.484   4.367   2.913  1.3619 -1.1280 -0.8457
 1830SOL    MW4 7395   2.476   4.346   2.997  0.0641  0.1497 -0.6216
 1831SOL     OW 7396   2.893   0.003   3.117  0.7256 -0.1719  0.4016
 1831SOL    HW2 7397   2.956   0.055   3.066 -0.3566  0.3241 -0.4675
 1831SOL    HW3 7398   2.901  -0.085   3.082  1.2343 -0.2024  0.5877
 1831SOL    MW4 7399   2.902  -0.002   3.106  0.6499 -0.1106  0.3116
 1832SOL     OW 7400   2.680   0.120   2.997 -0.0469 -0.1456 -0.3993
 1832SOL    HW2 7401   2.757   0.075   3.032  0.5531  1.0314 -0.1867
 1832SOL    HW3 7402   2.605   0.071   3.033  0.5915 -0.9093 -0.0997
 1832SOL    MW4 7403   2.680   0.107   3.006  0.1163 -0.0910 -0.3319
 1833SOL     OW 7404   2.698   0.369   3.110  0.3198 -0.5150 -0.4565
 1833SOL    HW2 7405   2.684   0.281   3.076  2.0487 -0.4490 -1.3830
 1833SOL    HW3 7406   2.621   0.419   3.082  0.1799 -1.2841 -1.4560
 1833SOL    MW4 7407   2.686   0.364   3.102  0.5293 -0.6077 -0.7110
 1834SOL     OW 7408   2.906   0.525   3.011  0.4238 -0.1431 -0.2891
 1834SOL    HW2 7409   2.829   0.482   3.049  0.3272  0.7798  0.5739
 1834SOL    HW3 7410   2.892   0.521   2.916 -0.6097 -0.1197 -0.1391
 1834SOL    MW4 7411   2.894   0.519   3.004  0.2747 -0.0182 -0.1557
 1835SOL     OW 7412   2.895   0.775   3.129  0.4609  0.1612  0.1373
 1835SOL    HW2 7413   2.880   0.750   3.220 -0.1542  0.5570  0.1496
 1835SOL    HW3 7414   2.906   0.691   3.083  0.3310 -0.0574  0.5003
 1835SOL    MW4 7415   2.894   0.760   3.135  0.3626  0.1846  0.1867
 1836SOL     OW 7416   2.677   0.895   2.992  0.1051 -0.1687 -0.2603
 1836SOL    HW2 7417   2.667   0.989   3.003  0.9900 -0.0152 -0.6782
 1836SOL    HW3 7418   2.753   0.872   3.047  0.5894 -0.4472 -1.0399
 1836SOL    MW4 7419   2.686   0.904   3.001  0.2854 -0.1851 -0.4184
 1837SOL     OW 7420   2.662   1.160   3.101  0.0867 -0.0336  0.1673
 1837SOL    HW2 7421   2.742   1.204   3.075  0.5704  0.8541  2.9397
 1837SOL    HW3 7422   2.592   1.222   3.081  0.2398 -0.1842 -0.8356
 1837SOL    MW4 7423   2.663   1.174   3.095  0.1705  0.0637  0.4010
 1838SOL     OW 7424   2.920   1.261   3.042 -0.2163 -0.4288  0.1047
 1838SOL    HW2 7425   2.991   1.213   3.084  0.0486 -0.1166  0.0157
 1838SOL    HW3 7426   2.922   1.348   3.083  0.0618 -0.1168 -0.5698
 1838SOL    MW4 7427   2.929   1.266   3.053 -0.1445 -0.3464  0.0041
 1839SOL     OW 7428   2.918   1.561   3.126  0.2188 -0.0816  0.2384
 1839SOL    HW2 7429   2.894   1.576   3.217  2.2352  0.4387  0.7116
 1839SOL    HW3 7430   2.990   1.622   3.110 -0.5022  0.2645 -1.8915
 1839SOL    MW4 7431   2.924   1.571   3.136  0.3896  0.0327  0.0198
 1840SOL     OW 7432   2.671   1.628   2.992  0.0529  0.2082 -0.0990
 1840SOL    HW2 7433   2.745   1.595   3.042  0.4288 -1.2011 -1.5794
 1840SOL    HW3 7434   2.597   1.622   3.053  1.0907  1.5714  1.3661
 1840SOL    MW4 7435   2.671   1.623   3.007  0.2394  0.2021 -0.1009
 1841SOL     OW 7436   2.667   1.915   3.088 -0.4002 -0.3426 -0.0547
 1841SOL    HW2 7437   2.748   1.959   3.060 -0.3935 -0.3403 -0.0312
 1841SOL    HW3 7438   2.679   1.824   3.062 -0.2946 -0.3891  0.1563
 1841SOL    MW4 7439   2.679   1.909   3.080 -0.3853 -0.3484 -0.0236
 1842SOL     OW 7440   2.884   2.054   3.001 -0.2227 -0.1626  0.2040
 1842SOL    HW2 7441   2.883   2.147   3.021 -0.6583 -0.0001 -0.5419
 1842SOL    HW3 7442   2.883   2.050   2.905 -0.6052 -0.9303  0.2337
 1842SOL    MW4 7443   2.884   2.066   2.991 -0.3304 -0.2425  0.1099
 1843SOL     OW 7444   2.913   2.303   3.123  0.1451 -0.0196  0.0024
 1843SOL    HW2 7445   2.922   2.291   3.217  1.6720  1.3414  0.0504
 1843SOL    HW3 7446   2.829   2.349   3.113  0.2125  0.2745  0.7409
 1843SOL    MW4 7447   2.903   2.307   3.134  0.3555  0.1988  0.1063
 1844SOL     OW 7448   2.686   2.425   3.026 -0.3010 -0.0273  0.0698
 1844SOL    HW2 7449   2.678   2.510   3.068  0.3601  0.2494 -0.3519
 1844SOL    HW3 7450   2.611   2.375   3.057  0.4111  0.0168  1.9154
 1844SOL    MW4 7451   2.675   2.430   3.036 -0.1199  0.0153  0.2575
 1845SOL     OW 7452   2.695   2.692   3.101  0.1147  0.0921  0.2440
 1845SOL    HW2 7453   2.683   2.702   3.196 -1.2882 -0.7672  0.1639
 1845SOL    HW3 7454   2.626   2.746   3.062 -0.0425 -0.4794 -0.2792
 1845SOL    MW4 7455   2.684   2.700   3.108 -0.0911 -0.0968  0.1640
 1846SOL     OW 7456   2.914   2.858   3.020 -0.2756 -0.3435  0.2335
 1846SOL    HW2 7457   2.995   2.816   3.050 -0.1070 -1.0117 -1.0853
 1846SOL    HW3 7458   2.844   2.802   3.055 -0.1403 -0.2023  0.7305
 1846SOL    MW4 7459   2.915   2.845   3.028 -0.2358 -0.4129  0.1249
 1847SOL     OW 7460   2.906   3.109   3.108 -0.2484 -0.1043 -0.1207
 1847SOL    HW2 7461   2.826   3.152   3.077 -0.1553 -0.2084 -0.5042
 1847SOL    HW3 7462   2.891   3.016   3.090 -0.3551 -0.2116  0.5009
 1847SOL    MW4 7463   2.893   3.102   3.101 -0.2501 -0.1321 -0.0894
 1848SOL     OW 7464   2.687   3.219   2.982 -0.0580  0.4005 -0.0956
 1848SOL    HW2 7465   2.702   3.309   3.010 -1.6075  0.5968  0.1573
 1848SOL    HW3 7466   2.719   3.216   2.892  2.0932  0.5893  0.6406
 1848SOL    MW4 7467   2.693   3.230   2.974  0.0212  0.4513  0.0350
 1849SOL     OW 7468   2.696   3.484   3.073 -0.0798  0.5145  0.1542
 1849SOL    HW2 7469   2.703   3.490   3.168  1.1722 -0.0363  0.0977
 1849SOL    HW3 7470   2.761   3.546   3.040  0.0710  0.0908 -0.3480
 1849SOL    MW4 7471   2.705   3.493   3.081  0.1054  0.3858  0.0806
 1850SOL     OW 7472   2.958   3.602   2.992  0.4274  0.6412 -0.1282
 1850SOL    HW2 7473   3.032   3.573   3.046 -0.0918 -0.5815 -0.0567
 1850SOL    HW3 7474   2.939   3.691   3.024  1.9628  1.0435 -0.2719
 1850SOL    MW4 7475   2.966   3.610   3.004  0.5615  0.5331 -0.1376
 1851SOL     OW 7476   2.910   3.847   3.107 -0.1073  0.5330 -0.2547
 1851SOL    HW2 7477   2.916   3.839   3.202 -1.2479  0.9142 -0.1435
 1851SOL    HW3 7478   2.819   3.871   3.091 -0.5727 -1.9953 -1.6154
 1851SOL    MW4 7479   2.899   3.849   3.118 -0.3190  0.2496 -0.4196
 1852SOL     OW 7480   2.662   3.945   3.042  0.4261  0.3594  0.0698
 1852SOL    HW2 7481   2.671   4.036   3.072 -0.7328  0.2464  0.7814
 1852SOL    HW3 7482   2.679   3.949   2.948  0.0231  1.3755  0.0333
 1852SOL    MW4 7483   2.666   3.958   3.033  0.2201  0.4785  0.1588
 1853SOL     OW 7484   2.694   4.222   3.115  0.2451 -0.2134 -0.0403
 1853SOL    HW2 7485   2.687   4.223   3.210  0.5892 -2.0611  0.0332
 1853SOL    HW3 7486   2.628   4.284   3.085 -0.4145 -0.2060  1.3766
 1853SOL    MW4 7487   2.685   4.230   3.123  0.2038 -0.4559  0.1564
 1854SOL     OW 7488   2.927   4.378   3.057  0.2293 -0.2672  0.0905
 1854SOL    HW2 7489   3.012   4.338   3.074  0.2503 -0.4753 -0.5147
 1854SOL    HW3 7490   2.864   4.318   3.096  0.3892  0.1962  1.0939
 1854SOL    MW4 7491   2.930   4.365   3.064  0.2532 -0.2337  0.1431
 1855SOL     OW 7492   3.301   0.002   3.074 -0.0281  0.3883 -0.4540
 1855SOL    HW2 7493   3.378   0.033   3.028 -0.1820  0.5310 -0.6139
 1855SOL    HW3 7494   3.291  -0.089   3.046  1.0610 -0.1445  0.8516
 1855SOL    MW4 7495   3.310  -0.006   3.064  0.0951  0.3371 -0.3033
 1856SOL     OW 7496   3.080   0.148   2.995 -0.0576  0.4340  0.1412
 1856SOL    HW2 7497   3.070   0.220   3.057 -0.2277 -0.2332  0.8917
 1856SOL    HW3 7498   3.165   0.110   3.016  0.6499  1.2584 -1.1507
 1856SOL    MW4 7499   3.090   0.152   3.006  0.0134  0.4548  0.0701
 1857SOL     OW 7500   3.096   0.390   3.153  0.1338  0.0390  0.0199
 1857SOL    HW2 7501   3.170   0.444   3.125 -0.7080  1.2278  0.0571
 1857SOL    HW3 7502   3.019   0.431   3.114 -0.3551 -2.1917 -1.4694
 1857SOL    MW4 7503   3.096   0.403   3.144 -0.0417 -0.0984 -0.1717
 1858SOL     OW 7504   3.362   0.499   3.038 -0.4136 -0.5584 -0.2963
 1858SOL    HW2 7505   3.453   0.472   3.053  0.0860  1.0973 -0.2331
 1858SOL    HW3 7506   3.350   0.488   2.943  0.2265  0.3013 -0.4855
 1858SOL    MW4 7507   3.372   0.494   3.027 -0.2632 -0.2266 -0.3130
 1859SOL     OW 7508   3.362   0.765   3.090  0.0887  0.7054  0.8274
 1859SOL    HW2 7509   3.363   0.778   3.185  1.1010  1.4989  0.7167
 1859SOL    HW3 7510   3.368   0.670   3.079  0.3005  0.6300  1.5526
 1859SOL    MW4 7511   3.363   0.754   3.101  0.2503  0.8001  0.9086
 1860SOL     OW 7512   3.142   0.892   3.006 -0.2410  0.4442  0.0694
 1860SOL    HW2 7513   3.225   0.849   3.020  0.6710  1.8976 -0.7090
 1860SOL    HW3 7514   3.078   0.838   3.053  0.9013 -1.4878 -0.5439
 1860SOL    MW4 7515   3.144   0.880   3.014  0.0300  0.3811 -0.1142
 1861SOL     OW 7516   3.145   1.134   3.116 -0.4684 -0.3223 -0.1545
 1861SOL    HW2 7517   3.223   1.175   3.078  0.0524 -1.0883  0.0599
 1861SOL    HW3 7518   3.134   1.053   3.067 -2.1078  0.5649 -1.2735
 1861SOL    MW4 7519   3.154   1.129   3.105 -0.6161 -0.3062 -0.2742
 1862SOL     OW 7520   3.344   1.292   3.012  0.3867 -0.3267  0.0263
 1862SOL    HW2 7521   3.434   1.270   3.036  1.4127  2.4221 -1.1300
 1862SOL    HW3 7522   3.326   1.374   3.059 -0.6818  0.3862 -1.5716
 1862SOL    MW4 7523   3.354   1.300   3.022  0.3812  0.1301 -0.3371
 1863SOL     OW 7524   3.328   1.521   3.162  0.7671  0.3049 -0.2002
 1863SOL    HW2 7525   3.336   1.500   3.255 -1.4254  0.6534  0.0882
 1863SOL    HW3 7526   3.403   1.578   3.144  0.4955  1.2885  1.6654
 1863SOL    MW4 7527   3.339   1.525   3.172  0.4420  0.4808  0.0842
 1864SOL     OW 7528   3.142   1.701   3.067 -0.3241  0.2422  0.4428
 1864SOL    HW2 7529   3.205   1.634   3.093  0.6813  1.0382  0.0493
 1864SOL    HW3 7530   3.130   1.687   2.973  0.6051  1.2199  0.1769
 1864SOL    MW4 7531   3.148   1.690   3.058 -0.0689  0.4762  0.3560
 1865SOL     OW 7532   3.125   1.982   3.123  0.4068 -0.3023 -0.0036
 1865SOL    HW2 7533   3.141   1.889   3.107  0.5255 -0.3439  0.3636
 1865SOL    HW3 7534   3.034   1.996   3.094  0.3849 -0.5335 -0.0456
 1865SOL    MW4 7535   3.115   1.972   3.117  0.4196 -0.3383  0.0393
 1866SOL     OW 7536   3.351   2.068   2.989  0.2432 -0.2348  0.3734
 1866SOL    HW2 7537   3.410   2.004   3.029 -1.5801 -1.7404  0.6996
 1866SOL    HW3 7538   3.268   2.055   3.034 -0.8588  0.5771 -1.3803
 1866SOL    MW4 7539   3.348   2.058   3.000 -0.1426 -0.3264  0.1850
 1867SOL     OW 7540   3.366   2.347   3.103 -0.1488  0.2733 -0.1864
 1867SOL    HW2 7541   3.366   2.330   3.197 -1.3594 -0.6010 -0.3350
 1867SOL    HW3 7542   3.366   2.260   3.063  1.3717  0.6264 -1.0156
 1867SOL    MW4 7543   3.366   2.333   3.110 -0.1078  0.2046 -0.3154
 1868SOL     OW 7544   3.123   2.451   2.992 -0.1560 -0.0093  0.2374
 1868SOL    HW2 7545   3.191   2.419   3.052 -0.0778 -1.0566 -0.3768
 1868SOL    HW3 7546   3.043   2.409   3.022 -0.5757  1.4018  1.0934
 1868SOL    MW4 7547   3.121   2.441   3.004 -0.2010  0.0389  0.2692
 1869SOL     OW 7548   3.167   2.738   3.084 -0.1118 -0.7977 -0.3983
 1869SOL    HW2 7549   3.172   2.733   3.179  0.0566 -1.6661 -0.4503
 1869SOL    HW3 7550   3.175   2.648   3.054  0.5808 -0.4597 -1.2734
 1869SOL    MW4 7551   3.169   2.726   3.092  0.0019 -0.8678 -0.5207
 1870SOL     OW 7552   3.417   2.867   3.028 -0.1283  0.2416  0.1063
 1870SOL    HW2 7553   3.404   2.959   3.052 -2.2375  0.2915 -1.1161
 1870SOL    HW3 7554   3.350   2.820   3.078  0.7096 -0.6128  0.4451
 1870SOL    MW4 7555   3.407   2.873   3.038 -0.2964  0.1357 -0.0103
 1871SOL     OW 7556   3.378   3.143   3.116  0.4756 -0.2011  0.4222
 1871SOL    HW2 7557   3.370   3.125   3.209 -0.0435 -0.6758  0.2826
 1871SOL    HW3 7558   3.291   3.174   3.090  0.5227 -0.4005  0.0233
 1871SOL    MW4 7559   3.366   3.145   3.125  0.4132 -0.2902  0.3507
 1872SOL     OW 7560   3.132   3.229   3.031  0.2894 -0.0616 -0.3487
 1872SOL    HW2 7561   3.057   3.184   3.068 -0.3120  1.9040  0.9202
 1872SOL    HW3 7562   3.124   3.217   2.936 -0.0822 -2.1882 -0.0631
 1872SOL    MW4 7563   3.121   3.221   3.023  0.1612 -0.0827 -0.1435
 1873SOL     OW 7564   3.166   3.490   3.127  0.0195 -0.2521 -0.4032
 1873SOL    HW2 7565   3.241   3.513   3.072  0.0027 -1.5530 -0.9983
 1873SOL    HW3 7566   3.145   3.400   3.102 -0.8669 -0.3775  0.7549
 1873SOL    MW4 7567   3.173   3.481   3.117 -0.0992 -0.4401 -0.3288
 1874SOL     OW 7568   3.384   3.572   2.964 -0.4910 -0.6413 -0.5258
 1874SOL    HW2 7569   3.457   3.521   2.998  0.1710  0.2263 -0.6304
 1874SOL    HW3 7570   3.384   3.653   3.016  0.2593  0.4978 -2.2557
 1874SOL    MW4 7571   3.394   3.576   2.975 -0.3047 -0.3767 -0.7679
 1875SOL     OW 7572   3.361   3.809   3.110  0.2771 -0.2218  0.4244
 1875SOL    HW2 7573   3.359   3.813   3.205 -2.3080  0.5799  0.3436
 1875SOL    HW3 7574   3.291   3.867   3.081 -0.2021 -1.8972 -1.9169
 1875SOL    MW4 7575   3.352   3.817   3.119 -0.1273 -0.3371  0.1047
 1876SOL     OW 7576   3.160   3.989   3.053  0.2235 -0.4084  0.2484
 1876SOL    HW2 7577   3.084   3.933   3.071  0.7429 -1.1606  0.1402
 1876SOL    HW3 7578   3.158   4.002   2.958 -0.6219  0.8172  0.4241
 1876SOL    MW4 7579   3.150   3.983   3.043  0.1807 -0.3459  0.2575
 1877SOL     OW 7580   3.149   4.245   3.157  0.1684 -0.1590 -0.1141
 1877SOL    HW2 7581   3.150   4.234   3.252 -0.3726  0.3560 -0.0486
 1877SOL    HW3 7582   3.168   4.158   3.123  3.1904  0.1966  0.4938
 1877SOL    MW4 7583   3.152   4.232   3.165  0.4959 -0.0443 -0.0253
 1878SOL     OW 7584   3.338   4.379   3.007 -0.4360  0.3073  0.5545
 1878SOL    HW2 7585   3.417   4.345   3.048  0.4029  0.0388 -1.2368
 1878SOL    HW3 7586   3.267   4.334   3.052  0.4626 -0.1108  1.5800
 1878SOL    MW4 7587   3.339   4.368   3.019 -0.2067  0.2174  0.4532
 1879SOL     OW 7588   3.774   4.635   3.051  0.1933 -0.4815 -0.4884
 1879SOL    HW2 7589   3.770   4.544   3.023  0.5955 -0.8012  0.4882
 1879SOL    HW3 7590   3.692   4.673   3.020 -0.7616 -1.6090  0.6097
 1879SOL    MW4 7591   3.763   4.628   3.043  0.1204 -0.6728 -0.2151
 1880SOL     OW 7592   3.537   0.101   2.956  0.3285  0.1790  0.1157
 1880SOL    HW2 7593   3.547   0.189   2.992 -1.6255  0.4123  0.1001
 1880SOL    HW3 7594   3.546   0.112   2.861  1.8894  0.0701  0.2243
 1880SOL    MW4 7595   3.540   0.114   2.948  0.2768  0.1954  0.1278
 1881SOL     OW 7596   3.591   0.363   3.076  0.1873 -0.0455  0.3284
 1881SOL    HW2 7597   3.613   0.352   3.169 -0.0228 -0.1510  0.3660
 1881SOL    HW3 7598   3.667   0.408   3.039  0.7530 -0.9804  0.3256
 1881SOL    MW4 7599   3.604   0.367   3.084  0.2344 -0.1827  0.3331
 1882SOL     OW 7600   3.804   0.515   2.972  0.4375  0.0797 -0.0452
 1882SOL    HW2 7601   3.886   0.483   3.010 -0.5736 -0.9906  1.2729
 1882SOL    HW3 7602   3.796   0.605   3.004  1.6077  0.5465 -1.0276
 1882SOL    MW4 7603   3.814   0.523   2.981  0.4587  0.0001 -0.0007
 1883SOL     OW 7604   3.818   0.781   3.072 -0.1746 -0.3073 -0.6622
 1883SOL    HW2 7605   3.839   0.787   3.166  0.1967  0.8625 -0.8152
 1883SOL    HW3 7606   3.894   0.817   3.028  0.3803 -2.4094 -1.5081
 1883SOL    MW4 7607   3.831   0.786   3.079 -0.0525 -0.4303 -0.7942
 1884SOL     OW 7608   3.566   0.915   3.001  0.4772  0.3089  0.5037
 1884SOL    HW2 7609   3.646   0.865   3.020  0.2030  0.2804  1.6102
 1884SOL    HW3 7610   3.496   0.859   3.033  0.0029  0.3719 -0.3991
 1884SOL    MW4 7611   3.568   0.901   3.007  0.3786  0.3135  0.5307
 1885SOL     OW 7612   3.579   1.188   3.090 -0.6904  0.4641 -0.3967
 1885SOL    HW2 7613   3.576   1.184   3.186  1.0272 -1.2625 -0.3901
 1885SOL    HW3 7614   3.560   1.098   3.062 -1.3103  0.9865 -1.7014
 1885SOL    MW4 7615   3.576   1.175   3.099 -0.5455  0.3053 -0.5679
 1886SOL     OW 7616   3.811   1.279   2.975 -0.3386  0.1660 -0.0008
 1886SOL    HW2 7617   3.804   1.342   3.046 -0.9630 -0.5198  0.5598
 1886SOL    HW3 7618   3.739   1.218   2.990  1.3323 -1.7371  0.5370
 1886SOL    MW4 7619   3.801   1.279   2.986 -0.2003 -0.1756  0.1442
 1887SOL     OW 7620   3.782   1.495   3.148 -0.2575  0.0972  0.1966
 1887SOL    HW2 7621   3.785   1.512   3.242  0.1626 -0.4731  0.2948
 1887SOL    HW3 7622   3.697   1.526   3.119 -0.6623 -0.3639  0.8962
 1887SOL    MW4 7623   3.771   1.501   3.156 -0.2556 -0.0389  0.3018
 1888SOL     OW 7624   3.573   1.636   3.054  0.2922 -0.5366 -0.2934
 1888SOL    HW2 7625   3.576   1.729   3.078 -0.6999 -0.1569 -1.5938
 1888SOL    HW3 7626   3.578   1.635   2.959 -0.1122 -1.7917 -0.3170
 1888SOL    MW4 7627   3.574   1.648   3.045  0.1082 -0.6520 -0.4683
 1889SOL     OW 7628   3.568   1.902   3.115  0.2912  0.7705 -0.1420
 1889SOL    HW2 7629   3.569   1.909   3.211 -0.1385 -1.3868  0.0469
 1889SOL    HW3 7630   3.650   1.942   3.087  0.7351  0.8063  1.1781
 1889SOL    MW4 7631   3.579   1.908   3.124  0.2933  0.4905  0.0575
 1890SOL     OW 7632   3.803   2.052   3.016  0.4605  0.5063  0.1739
 1890SOL    HW2 7633   3.786   2.143   3.039 -0.6579  0.3492 -0.0026
 1890SOL    HW3 7634   3.787   2.047   2.922  1.6428  0.3775 -0.0268
 1890SOL    MW4 7635   3.799   2.063   3.007  0.4690  0.4687  0.1242
 1891SOL     OW 7636   3.779   2.319   3.060  0.5166 -0.0260 -0.2306
 1891SOL    HW2 7637   3.786   2.329   3.155  0.0506  1.4436 -0.3436
 1891SOL    HW3 7638   3.701   2.370   3.036  1.3086  0.5896 -1.5396
 1891SOL    MW4 7639   3.770   2.327   3.069  0.5596  0.2491 -0.4184
 1892SOL     OW 7640   3.574   2.489   2.982 -0.0054  0.3014  0.2314
 1892SOL    HW2 7641   3.590   2.574   3.023  2.1150 -0.7306  1.6529
 1892SOL    HW3 7642   3.503   2.451   3.034  1.6861 -0.3857  2.1226
 1892SOL    MW4 7643   3.567   2.495   2.994  0.4976  0.0744  0.6688
 1893SOL     OW 7644   3.646   2.740   3.086 -0.0941  0.4325  0.2282
 1893SOL    HW2 7645   3.721   2.779   3.040  1.1026 -1.4203  0.5770
 1893SOL    HW3 7646   3.572   2.796   3.062  1.2372  1.8039 -0.7925
 1893SOL    MW4 7647   3.646   2.753   3.077  0.2396  0.3691  0.1395
 1894SOL     OW 7648   3.904   2.814   2.960  0.6229  0.2737 -0.6637
 1894SOL    HW2 7649   3.916   2.904   2.992  1.4002 -0.0870  0.1108
 1894SOL    HW3 7650   3.865   2.824   2.873 -1.7158  1.2883  0.4555
 1894SOL    MW4 7651   3.901   2.827   2.953  0.4168  0.3600 -0.4139
 1895SOL     OW 7652   3.887   3.058   3.114  0.2119  0.0723  0.2789
 1895SOL    HW2 7653   3.956   3.116   3.083 -0.0441 -0.0851 -0.5878
 1895SOL    HW3 7654   3.807   3.094   3.076 -0.1568  0.1046  1.0700
 1895SOL    MW4 7655   3.885   3.070   3.105  0.1297  0.0558  0.2689
 1896SOL     OW 7656   3.649   3.154   3.027 -0.3901 -0.0820 -0.3914
 1896SOL    HW2 7657   3.569   3.120   3.067  0.3289 -1.6743 -0.2828
 1896SOL    HW3 7658   3.624   3.171   2.936 -1.6279  2.1646  0.3321
 1896SOL    MW4 7659   3.635   3.152   3.020 -0.4587  0.0043 -0.2818
 1897SOL     OW 7660   3.599   3.433   3.108  0.0015  0.5733 -0.2960
 1897SOL    HW2 7661   3.564   3.443   3.197  0.4319 -0.7010  0.0315
 1897SOL    HW3 7662   3.610   3.339   3.098  0.8702  0.7841 -1.3521
 1897SOL    MW4 7663   3.596   3.422   3.119  0.1729  0.4330 -0.3920
 1898SOL     OW 7664   3.816   3.619   3.014 -0.0407  0.1964  0.6507
 1898SOL    HW2 7665   3.831   3.695   3.070 -0.0623  1.2492 -0.7323
 1898SOL    HW3 7666   3.741   3.574   3.054 -0.1613  1.0143  1.3669
 1898SOL    MW4 7667   3.808   3.623   3.027 -0.0594  0.4432  0.5624
 1899SOL     OW 7668   3.831   3.889   3.118  0.2921 -0.7077 -0.2544
 1899SOL    HW2 7669   3.843   3.882   3.213  0.8235  0.4544 -0.2316
 1899SOL    HW3 7670   3.739   3.915   3.107  0.5885  0.4912  0.0110
 1899SOL    MW4 7671   3.820   3.892   3.129  0.4013 -0.3965 -0.2165
 1900SOL     OW 7672   3.577   3.953   3.071 -0.1128  0.3709  0.0105
 1900SOL    HW2 7673   3.504   3.891   3.077  1.4819 -1.4828  0.6143
 1900SOL    HW3 7674   3.577   3.980   2.979 -1.6011  0.4307  0.0200
 1900SOL    MW4 7675   3.567   3.948   3.059 -0.0985  0.1340  0.0913
 1901SOL     OW 7676   3.575   4.256   3.117  0.0619  0.2407 -0.1780
 1901SOL    HW2 7677   3.654   4.295   3.079  1.0528 -0.1432  1.4601
 1901SOL    HW3 7678   3.585   4.163   3.101  0.1639  0.1452  0.4461
 1901SOL    MW4 7679   3.587   4.249   3.110  0.2062  0.1779  0.1202
 1902SOL     OW 7680   3.778   4.382   2.968 -0.0918 -0.0109 -0.0064
 1902SOL    HW2 7681   3.864   4.363   3.003 -0.3007 -0.0027  0.5101
 1902SOL    HW3 7682   3.792   4.389   2.873  0.0674 -2.2346 -0.1724
 1902SOL    MW4 7683   3.791   4.381   2.960 -0.0985 -0.3033  0.0401
 1903SOL     OW 7684   4.224   4.662   3.123 -0.5404  0.0701  0.1301
 1903SOL    HW2 7685   4.223   4.679   3.217 -1.0700  0.5687  0.0389
 1903SOL    HW3 7686   4.241   4.568   3.116  1.3985  0.3691  0.6678
 1903SOL    MW4 7687   4.226   4.652   3.135 -0.3548  0.1755  0.1891
 1904SOL     OW 7688   4.013   0.119   3.019  0.0916  0.0622 -0.4774
 1904SOL    HW2 7689   4.079   0.063   3.061 -0.4033 -0.1126  0.0814
 1904SOL    HW3 7690   3.931   0.071   3.031 -0.4919  1.3334  0.8295
 1904SOL    MW4 7691   4.011   0.105   3.026 -0.0505  0.2068 -0.2315
 1905SOL     OW 7692   4.020   0.389   3.105  0.2630  0.7221  0.0852
 1905SOL    HW2 7693   4.102   0.422   3.068  0.6500 -0.1978  0.1113
 1905SOL    HW3 7694   4.013   0.299   3.072 -0.5421  0.6703  0.3921
 1905SOL    MW4 7695   4.030   0.381   3.096  0.2079  0.5939  0.1287
 1906SOL     OW 7696   4.250   0.488   2.999 -0.6165  0.2932  0.5197
 1906SOL    HW2 7697   4.232   0.577   3.029 -0.1612  1.2421 -1.9051
 1906SOL    HW3 7698   4.245   0.493   2.904 -2.4295 -2.6873  0.3876
 1906SOL    MW4 7699   4.247   0.500   2.991 -0.7954  0.0251  0.1826
 1907SOL     OW 7700   4.243   0.744   3.131 -0.0815 -0.4579 -0.7943
 1907SOL    HW2 7701   4.175   0.790   3.082 -0.2179 -0.1575 -0.3264
 1907SOL    HW3 7702   4.323   0.795   3.115 -0.0849 -0.4722 -0.8601
 1907SOL    MW4 7703   4.245   0.757   3.122 -0.0992 -0.4201 -0.7412
 1908SOL     OW 7704   4.070   0.876   2.986  0.0635 -0.6105  0.0493
 1908SOL    HW2 7705   4.051   0.963   3.021 -0.2345 -0.5519 -0.2602
 1908SOL    HW3 7706   4.065   0.887   2.891 -2.0390 -1.4307  0.0449
 1908SOL    MW4 7707   4.067   0.889   2.979 -0.2537 -0.7111  0.0076
 1909SOL     OW 7708   4.009   1.134   3.088  0.2141  0.4497 -0.0347
 1909SOL    HW2 7709   4.002   1.146   3.183 -0.6728 -1.6435  0.1915
 1909SOL    HW3 7710   3.940   1.188   3.052 -0.1213  0.4467  0.5932
 1909SOL    MW4 7711   3.999   1.142   3.096  0.0529  0.1731  0.0782
 1910SOL     OW 7712   4.229   1.290   3.042 -0.1735  0.2394 -0.3923
 1910SOL    HW2 7713   4.154   1.237   3.072 -0.2110 -0.3995 -1.5764
 1910SOL    HW3 7714   4.232   1.275   2.948  2.7337 -1.4087 -0.1107
 1910SOL    MW4 7715   4.219   1.281   3.034  0.2046 -0.0622 -0.5116
 1911SOL     OW 7716   4.202   1.550   3.119  0.0968  0.5512  0.4194
 1911SOL    HW2 7717   4.121   1.584   3.080 -0.3976 -1.1136 -0.0432
 1911SOL    HW3 7718   4.209   1.461   3.086  1.6329  0.3534  1.2244
 1911SOL    MW4 7719   4.192   1.543   3.110  0.2346  0.3055  0.4647
 1912SOL     OW 7720   3.973   1.642   3.001  0.1560 -0.4818  0.3033
 1912SOL    HW2 7721   3.980   1.730   3.039  2.3172 -0.5264  0.0762
 1912SOL    HW3 7722   3.916   1.594   3.061  0.6288  0.4833  1.5367
 1912SOL    MW4 7723   3.966   1.647   3.014  0.5033 -0.3605  0.4363
 1913SOL     OW 7724   4.037   1.906   3.070 -0.1671  0.1279  0.0700
 1913SOL    HW2 7725   4.113   1.956   3.040  0.9150  0.2760  2.8442
 1913SOL    HW3 7726   3.966   1.971   3.073 -0.1998  0.1980 -1.6465
 1913SOL    MW4 7727   4.038   1.921   3.067 -0.0291  0.1569  0.2093
 1914SOL     OW 7728   4.249   2.049   2.973  0.0294  0.0183 -0.0128
 1914SOL    HW2 7729   4.231   2.137   3.007  0.0462 -0.2222  0.6180
 1914SOL    HW3 7730   4.265   2.063   2.879  0.2350  0.7158  0.1196
 1914SOL    MW4 7731   4.249   2.063   2.965  0.0582  0.0784  0.0877
 1915SOL     OW 7732   4.224   2.314   3.096 -0.3386  0.1743 -0.0577
 1915SOL    HW2 7733   4.155   2.378   3.076 -0.4798  0.2558  0.6715
 1915SOL    HW3 7734   4.305   2.361   3.081 -0.4412  0.6176  0.7176
 1915SOL    MW4 7735   4.225   2.329   3.092 -0.3710  0.2437  0.1411
 1916SOL     OW 7736   4.000   2.447   2.969  0.0947  0.1440 -0.0013
 1916SOL    HW2 7737   4.005   2.525   3.024 -0.1398 -0.1165  0.3982
 1916SOL    HW3 7738   3.914   2.410   2.989  0.5737 -0.7120  0.4999
 1916SOL    MW4 7739   3.989   2.452   2.979  0.1271 -0.0031  0.1175
 1917SOL     OW 7740   4.088   2.665   3.107 -0.1767 -0.2402  0.1101
 1917SOL    HW2 7741   4.066   2.670   3.201  0.2079  1.5867  0.1101
 1917SOL    HW3 7742   4.024   2.722   3.065 -1.0489 -1.9262 -0.8793
 1917SOL    MW4 7743   4.076   2.673   3.114 -0.2413 -0.2220 -0.0205
 1918SOL     OW 7744   4.291   2.854   3.036 -0.3276 -0.4867  0.1735
 1918SOL    HW2 7745   4.217   2.811   3.079 -0.3148 -0.1838  0.4991
 1918SOL    HW3 7746   4.368   2.807   3.069 -0.3551 -0.6307  0.0352
 1918SOL    MW4 7747   4.292   2.842   3.046 -0.3300 -0.4656  0.1984
 1919SOL     OW 7748   4.320   3.130   3.104  0.0015 -0.5356  0.4358
 1919SOL    HW2 7749   4.239   3.173   3.079  1.0365  0.8396 -0.6344
 1919SOL    HW3 7750   4.311   3.040   3.073 -0.9140 -0.2631 -0.0790
 1919SOL    MW4 7751   4.308   3.124   3.097  0.0167 -0.3181  0.2267
 1920SOL     OW 7752   4.079   3.238   3.017  0.3167  0.1350  0.1438
 1920SOL    HW2 7753   4.079   3.324   3.059 -0.6935 -0.6573  1.7911
 1920SOL    HW3 7754   4.077   3.257   2.923 -2.4164  1.8872  0.5291
 1920SOL    MW4 7755   4.079   3.252   3.010 -0.1769  0.2615  0.4120
 1921SOL     OW 7756   4.060   3.499   3.117 -0.4759 -0.6077 -0.0248
 1921SOL    HW2 7757   4.061   3.480   3.211  0.0435 -1.1441 -0.1356
 1921SOL    HW3 7758   3.969   3.525   3.099 -0.0188  1.8002  1.0559
 1921SOL    MW4 7759   4.048   3.500   3.127 -0.3476 -0.3607  0.1030
 1922SOL     OW 7760   4.242   3.672   3.038  0.6844 -0.1906  0.2018
 1922SOL    HW2 7761   4.217   3.756   3.077 -0.5643 -0.2740 -0.3684
 1922SOL    HW3 7762   4.176   3.610   3.070  0.7027 -0.6268 -0.5948
 1922SOL    MW4 7763   4.230   3.675   3.047  0.5226 -0.2594  0.0215
 1923SOL     OW 7764   4.233   3.930   3.125  0.1072  0.2459  0.1882
 1923SOL    HW2 7765   4.166   3.959   3.063  0.0082  1.9170  1.0451
 1923SOL    HW3 7766   4.316   3.939   3.078 -0.1434 -0.4472 -0.3868
 1923SOL    MW4 7767   4.235   3.935   3.111  0.0610  0.3748  0.2258
 1924SOL     OW 7768   4.022   4.026   2.976  0.4729 -0.4559 -0.1040
 1924SOL    HW2 7769   4.019   4.110   3.022  2.6002 -0.7257  0.5909
 1924SOL    HW3 7770   3.949   3.976   3.013  0.4426  0.3558  0.9652
 1924SOL    MW4 7771   4.012   4.031   2.987  0.7496 -0.3848  0.1287
 1925SOL     OW 7772   4.047   4.278   3.103  0.0194  0.1609 -0.5675
 1925SOL    HW2 7773   4.027   4.273   3.196 -0.2995 -1.7960 -0.7178
 1925SOL    HW3 7774   4.127   4.330   3.099 -0.5208  1.1295  0.7020
 1925SOL    MW4 7775   4.055   4.284   3.115 -0.0939  0.0300 -0.4199
 1926SOL     OW 7776   4.281   4.419   3.042 -0.1953 -0.2370 -0.5172
 1926SOL    HW2 7777   4.360   4.371   3.066 -0.3004  0.0724  0.4530
 1926SOL    HW3 7778   4.285   4.425   2.946  0.4224 -1.1330 -0.5506
 1926SOL    MW4 7779   4.292   4.414   3.032 -0.1278 -0.3147 -0.3936
 1927SOL     OW 7780   0.182   4.637   3.383 -0.6338  0.3307 -0.2642
 1927SOL    HW2 7781   0.256   4.689   3.413 -2.6679  2.7180  0.8350
 1927SOL    HW3 7782   0.188   4.555   3.432  0.1048  1.3320  1.3659
 1927SOL    MW4 7783   0.192   4.633   3.393 -0.8047  0.7782  0.0958
 1928SOL     OW 7784   4.473   0.106   3.504  0.4968 -0.0786  0.0460
 1928SOL    HW2 7785   4.489   0.187   3.456 -1.3021 -1.0917 -2.3768
 1928SOL    HW3 7786   4.532   0.042   3.464  0.5408 -0.4335  0.6669
 1928SOL    MW4 7787   4.483   0.108   3.492  0.2652 -0.2591 -0.1915
 1929SOL     OW 7788   4.440   0.351   3.394  0.1484  0.2351  0.0055
 1929SOL    HW2 7789   4.371   0.401   3.438 -0.3023  0.2197 -0.6887
 1929SOL    HW3 7790   4.521   0.399   3.414 -0.0919  0.3906  0.6106
 1929SOL    MW4 7791   4.442   0.364   3.403  0.0572  0.2536 -0.0060
 1930SOL     OW 7792   0.184   0.491   3.444 -0.4845  0.2258  0.2819
 1930SOL    HW2 7793   0.260   0.455   3.399  0.3073  0.5954  1.2954
 1930SOL    HW3 7794   0.173   0.578   3.406 -1.3583 -0.4077 -0.9573
 1930SOL    MW4 7795   0.193   0.498   3.433 -0.4953  0.1910  0.2522
 1931SOL     OW 7796   0.169   0.758   3.365 -0.4608 -0.1307 -0.0272
 1931SOL    HW2 7797   0.252   0.791   3.400 -0.5056 -0.2015  0.1448
 1931SOL    HW3 7798   0.102   0.801   3.418 -0.5861  1.2106 -1.2483
 1931SOL    MW4 7799   0.171   0.768   3.377 -0.4833  0.0370 -0.1657
 1932SOL     OW 7800   4.448   0.901   3.482 -0.3417  0.4172  0.5963
 1932SOL    HW2 7801   4.468   0.891   3.574  1.6710  1.0972  0.2523
 1932SOL    HW3 7802   4.448   0.996   3.467 -0.0056  0.3000 -0.2212
 1932SOL    MW4 7803   4.450   0.913   3.492 -0.0319  0.4915  0.4430
 1933SOL     OW 7804   4.459   1.170   3.387 -0.3145  0.3331 -0.4318
 1933SOL    HW2 7805   4.541   1.215   3.405  0.0582 -1.3291  2.4887
 1933SOL    HW3 7806   4.457   1.158   3.292  3.1137 -0.1032 -0.4944
 1933SOL    MW4 7807   4.469   1.174   3.377  0.1869  0.0561 -0.0548
 1934SOL     OW 7808   0.214   1.290   3.499  0.2247 -0.2171  0.2757
 1934SOL    HW2 7809   0.291   1.246   3.461  0.9249  1.1395  0.0965
 1934SOL    HW3 7810   0.211   1.375   3.455 -1.9975 -0.6449 -0.4884
 1934SOL    MW4 7811   0.224   1.295   3.488  0.0239 -0.0945  0.1512
 1935SOL     OW 7812   0.187   1.532   3.369 -0.1959  0.8037 -0.1902
 1935SOL    HW2 7813   0.269   1.579   3.385  1.1307 -1.1017 -1.2159
 1935SOL    HW3 7814   0.179   1.531   3.273 -1.1339  0.4859 -0.1117
 1935SOL    MW4 7815   0.196   1.538   3.358 -0.1446  0.5105 -0.3150
 1936SOL     OW 7816   4.479   1.696   3.495  0.3342  0.1282 -0.4181
 1936SOL    HW2 7817   4.391   1.668   3.472  0.4460  0.1324 -0.8553
 1936SOL    HW3 7818   4.536   1.631   3.454  0.4735 -0.9981  1.4726
 1936SOL    MW4 7819   4.475   1.684   3.487  0.3676 -0.0198 -0.2260
 1937SOL     OW 7820   0.021   1.928   3.370  0.3253 -0.0035  0.1040
 1937SOL    HW2 7821   0.012   1.846   3.418  1.1414 -0.6623 -0.8576
 1937SOL    HW3 7822  -0.007   1.907   3.281  0.9493  0.6620 -0.2504
 1937SOL    MW4 7823   0.016   1.915   3.364  0.5150 -0.0026 -0.0694
 1938SOL     OW 7824   0.254   2.026   3.477 -0.2765 -0.1068  0.3367
 1938SOL    HW2 7825   0.243   2.018   3.572 -0.4004 -2.4897  0.1584
 1938SOL    HW3 7826   0.171   1.997   3.441  0.4603 -1.1964 -0.5371
 1938SOL    MW4 7827   0.242   2.021   3.485 -0.1956 -0.5648  0.1979
 1939SOL     OW 7828   0.259   2.294   3.366  0.3453 -0.2955 -0.2452
 1939SOL    HW2 7829   0.184   2.341   3.403 -0.8097 -1.2599 -1.3192
 1939SOL    HW3 7830   0.245   2.203   3.391  1.1611 -0.4882 -0.4699
 1939SOL    MW4 7831   0.248   2.288   3.374  0.3006 -0.4480 -0.4163
 1940SOL     OW 7832   0.035   2.404   3.495  0.3278  0.1163  0.0397
 1940SOL    HW2 7833   0.030   2.414   3.590  0.5826 -0.5772  0.1314
 1940SOL    HW3 7834  -0.055   2.392   3.466  0.2051  0.8011  0.1390
 1940SOL    MW4 7835   0.023   2.404   3.503  0.3452  0.1149  0.0651
 1941SOL     OW 7836   0.053   2.679   3.411 -0.9020 -0.3522 -0.2979
 1941SOL    HW2 7837   0.111   2.729   3.469 -1.1984 -0.6482  0.2590
 1941SOL    HW3 7838   0.043   2.594   3.454 -1.3817 -0.4609 -0.6191
 1941SOL    MW4 7839   0.059   2.675   3.425 -1.0044 -0.4058 -0.2668
 1942SOL     OW 7840   0.247   2.830   3.555 -0.0517 -0.1017 -0.4668
 1942SOL    HW2 7841   0.325   2.799   3.509 -0.1519 -0.4206 -0.4207
 1942SOL    HW3 7842   0.236   2.920   3.524  0.4269  0.0015 -0.3529
 1942SOL    MW4 7843   0.256   2.838   3.545 -0.0018 -0.1302 -0.4458
 1943SOL     OW 7844   0.215   3.087   3.445 -0.1486 -0.2360 -0.8719
 1943SOL    HW2 7845   0.142   3.148   3.461  0.1644  0.0414 -0.4803
 1943SOL    HW3 7846   0.236   3.099   3.353  0.4298  0.8358 -0.6137
 1943SOL    MW4 7847   0.208   3.097   3.435 -0.0310 -0.0577 -0.7863
 1944SOL     OW 7848   4.489   3.234   3.490 -0.2186  0.7893  0.4920
 1944SOL    HW2 7849   4.423   3.192   3.436  2.1710 -0.8193 -1.2750
 1944SOL    HW3 7850   4.511   3.315   3.444  0.9370  0.0104 -0.3673
 1944SOL    MW4 7851   4.483   3.240   3.477  0.2492  0.4745  0.1454
 1945SOL     OW 7852   0.019   3.488   3.386  0.1639  0.1661 -0.0296
 1945SOL    HW2 7853  -0.062   3.535   3.409  1.3441  2.8522 -1.1161
 1945SOL    HW3 7854   0.026   3.499   3.291  1.9765  0.2637  0.1122
 1945SOL    MW4 7855   0.009   3.496   3.377  0.5589  0.5333 -0.1540
 1946SOL     OW 7856   0.246   3.599   3.506  0.0212 -0.1048  0.3897
 1946SOL    HW2 7857   0.246   3.581   3.600 -0.1396 -0.9313  0.2380
 1946SOL    HW3 7858   0.161   3.567   3.475  0.7491 -1.4256 -0.3118
 1946SOL    MW4 7859   0.235   3.592   3.514  0.0961 -0.3881  0.2770
 1947SOL     OW 7860   0.230   3.872   3.402 -0.1715  0.0939  0.6412
 1947SOL    HW2 7861   0.154   3.918   3.437  0.2184  0.7074  0.6816
 1947SOL    HW3 7862   0.228   3.786   3.444  0.3471  0.8513  2.2308
 1947SOL    MW4 7863   0.220   3.866   3.412 -0.0517  0.2747  0.8559
 1948SOL     OW 7864   0.024   4.012   3.493  0.0437  0.3742  0.7065
 1948SOL    HW2 7865   0.014   4.022   3.587  1.1829 -0.7623  0.9555
 1948SOL    HW3 7866   0.010   4.100   3.458  0.5992  1.0009  2.0147
 1948SOL    MW4 7867   0.021   4.025   3.501  0.2673  0.3066  0.9120
 1949SOL     OW 7868   4.486   4.265   3.380  0.6972 -0.0685  0.4652
 1949SOL    HW2 7869   4.402   4.310   3.376  0.7201  0.0200  0.9745
 1949SOL    HW3 7870   4.545   4.327   3.421  0.9596 -0.2081  0.2982
 1949SOL    MW4 7871   4.483   4.279   3.385  0.7353 -0.0749  0.5105
 1950SOL     OW 7872   0.205   4.404   3.516  0.0268 -0.1378 -0.3339
 1950SOL    HW2 7873   0.206   4.386   3.610  1.2432 -1.9857 -0.6494
 1950SOL    HW3 7874   0.289   4.370   3.485 -0.4978  0.1563 -2.1324
 1950SOL    MW4 7875   0.217   4.397   3.524  0.1180 -0.3428 -0.6127
 1951SOL     OW 7876   0.659   4.655   3.359 -0.2931  0.2556  0.2684
 1951SOL    HW2 7877   0.727   4.712   3.395 -1.8583  0.8616  2.3100
 1951SOL    HW3 7878   0.672   4.661   3.264  1.3736  1.7608  0.5602
 1951SOL    MW4 7879   0.670   4.663   3.351 -0.2797  0.5342  0.5765
 1952SOL     OW 7880   0.407   0.105   3.466 -0.0264 -0.4106  0.2318
 1952SOL    HW2 7881   0.419   0.092   3.560 -2.4571 -2.1941  0.3360
 1952SOL    HW3 7882   0.480   0.057   3.425  1.6366  1.2315  1.1834
 1952SOL    MW4 7883   0.418   0.097   3.473 -0.1277 -0.4293  0.3712
 1953SOL     OW 7884   0.415   0.338   3.330 -0.0075  0.0926 -0.1888
 1953SOL    HW2 7885   0.499   0.376   3.354  0.4201 -0.3474 -0.9643
 1953SOL    HW3 7886   0.409   0.257   3.380 -0.0752  0.2436  0.0458
 1953SOL    MW4 7887   0.425   0.332   3.339  0.0399  0.0544 -0.2601
 1954SOL     OW 7888   0.641   0.468   3.438 -0.2478 -0.2685 -0.3843
 1954SOL    HW2 7889   0.655   0.458   3.533 -1.6936 -3.0291 -0.3952
 1954SOL    HW3 7890   0.725   0.447   3.399  0.1012 -0.1059  0.2691
 1954SOL    MW4 7891   0.654   0.464   3.446 -0.3924 -0.6113 -0.2992
 1955SOL     OW 7892   0.638   0.751   3.374 -0.6032  0.0849  0.1344
 1955SOL    HW2 7893   0.553   0.788   3.397 -0.8469 -1.0357  1.1051
 1955SOL    HW3 7894   0.636   0.662   3.410  1.2405  0.2754  0.7767
 1955SOL    MW4 7895   0.627   0.744   3.382 -0.3920 -0.0378  0.3471
 1956SOL     OW 7896   0.404   0.849   3.472  0.1936 -0.3324 -0.3335
 1956SOL    HW2 7897   0.431   0.833   3.562 -1.6097  0.6664  0.4109
 1956SOL    HW3 7898   0.392   0.943   3.467 -0.8407 -0.5092 -1.2915
 1956SOL    MW4 7899   0.406   0.859   3.483 -0.1808 -0.2239 -0.3617
 1957SOL     OW 7900   0.444   1.127   3.393 -0.1141 -0.0287  0.0432
 1957SOL    HW2 7901   0.533   1.157   3.413  0.0147 -0.4269  0.0763
 1957SOL    HW3 7902   0.441   1.126   3.297  0.7394 -2.3734  0.0098
 1957SOL    MW4 7903   0.456   1.131   3.383  0.0155 -0.3906  0.0432
 1958SOL     OW 7904   0.677   1.271   3.495  0.5877 -0.5570  0.1778
 1958SOL    HW2 7905   0.761   1.225   3.489  0.5943 -0.8841  2.1952
 1958SOL    HW3 7906   0.688   1.350   3.442  1.7245 -1.2456 -0.6234
 1958SOL    MW4 7907   0.690   1.275   3.487  0.7386 -0.6911  0.3381
 1959SOL     OW 7908   0.653   1.511   3.336 -0.7160  0.4665  0.1877
 1959SOL    HW2 7909   0.719   1.569   3.374 -0.3267 -0.6713  1.2811
 1959SOL    HW3 7910   0.569   1.551   3.360 -0.4466  0.8370  0.5196
 1959SOL    MW4 7911   0.651   1.524   3.344 -0.6290  0.3653  0.3755
 1960SOL     OW 7912   0.421   1.659   3.427 -0.1204 -0.4294 -0.1643
 1960SOL    HW2 7913   0.416   1.648   3.522  1.4376 -0.3814 -0.0621
 1960SOL    HW3 7914   0.403   1.752   3.413 -0.0856 -0.3815  0.1030
 1960SOL    MW4 7915   0.418   1.670   3.438  0.0897 -0.4166 -0.1156
 1961SOL     OW 7916   0.506   1.911   3.360  0.3874 -0.3222 -0.5547
 1961SOL    HW2 7917   0.438   1.966   3.399  1.4240 -0.5260  1.6663
 1961SOL    HW3 7918   0.489   1.913   3.266 -0.5752  2.4461 -0.3523
 1961SOL    MW4 7919   0.495   1.918   3.353  0.3972  0.0161 -0.2348
 1962SOL     OW 7920   0.707   2.046   3.484 -0.3055  0.1553 -0.3477
 1962SOL    HW2 7921   0.694   2.032   3.578  0.1482  0.9778 -0.1554
 1962SOL    HW3 7922   0.635   1.998   3.442  0.6838 -1.9496  0.3082
 1962SOL    MW4 7923   0.696   2.038   3.491 -0.1151 -0.0138 -0.2360
 1963SOL     OW 7924   0.693   2.297   3.378 -0.3754  0.1616 -0.4613
 1963SOL    HW2 7925   0.767   2.351   3.404 -0.1630 -0.0195 -0.6835
 1963SOL    HW3 7926   0.700   2.218   3.431  0.2999 -0.3900 -1.3633
 1963SOL    MW4 7927   0.703   2.294   3.388 -0.2583  0.0651 -0.6099
 1964SOL     OW 7928   0.464   2.436   3.494 -0.1285 -0.1484  0.2460
 1964SOL    HW2 7929   0.543   2.386   3.476  0.5098  0.8276  0.3043
 1964SOL    HW3 7930   0.395   2.392   3.444  0.1658 -1.8256  1.3012
 1964SOL    MW4 7931   0.465   2.424   3.485 -0.0054 -0.2408  0.3929
 1965SOL     OW 7932   0.467   2.714   3.416  0.0651 -0.1232 -0.3518
 1965SOL    HW2 7933   0.460   2.618   3.411 -0.9290 -0.0029 -1.6856
 1965SOL    HW3 7934   0.463   2.743   3.324 -1.5109  1.2981  0.1414
 1965SOL    MW4 7935   0.465   2.705   3.403 -0.2740  0.0801 -0.4628
 1966SOL     OW 7936   0.710   2.837   3.485  0.5714 -0.4869  0.4102
 1966SOL    HW2 7937   0.782   2.788   3.445  0.7405  0.3339 -0.2999
 1966SOL    HW3 7938   0.633   2.781   3.471  0.5963 -0.1278 -1.2348
 1966SOL    MW4 7939   0.710   2.823   3.478  0.5971 -0.3309  0.0997
 1967SOL     OW 7940   0.697   3.084   3.371 -0.5221 -0.5004  0.4457
 1967SOL    HW2 7941   0.610   3.118   3.391 -0.1301  0.5127  0.4281
 1967SOL    HW3 7942   0.700   3.000   3.416 -1.9673 -1.1268 -0.5829
 1967SOL    MW4 7943   0.686   3.077   3.380 -0.6610 -0.4494  0.3078
 1968SOL     OW 7944   0.467   3.204   3.477 -0.5516  0.0759 -0.1456
 1968SOL    HW2 7945   0.487   3.210   3.570 -0.6648  0.5140 -0.1475
 1968SOL    HW3 7946   0.376   3.176   3.474 -1.4696  2.8260 -0.0807
 1968SOL    MW4 7947   0.458   3.201   3.489 -0.6877  0.4969 -0.1373
 1969SOL     OW 7948   0.470   3.481   3.382 -0.5312 -0.1083 -0.0420
 1969SOL    HW2 7949   0.482   3.390   3.407 -1.3450 -0.7289 -1.7764
 1969SOL    HW3 7950   0.398   3.512   3.437  1.0710  0.1080  1.9803
 1969SOL    MW4 7951   0.462   3.473   3.392 -0.4272 -0.1616 -0.0041
 1970SOL     OW 7952   0.663   3.633   3.505  0.1346 -1.0533 -0.2894
 1970SOL    HW2 7953   0.749   3.598   3.482  0.1005 -1.1136 -0.3239
 1970SOL    HW3 7954   0.603   3.589   3.446  0.1552 -0.5598 -0.6743
 1970SOL    MW4 7955   0.667   3.623   3.495  0.1329 -0.9959 -0.3450
 1971SOL     OW 7956   0.688   3.885   3.404 -0.0279 -0.1837 -0.2627
 1971SOL    HW2 7957   0.606   3.933   3.419 -0.8109 -1.2059 -1.2218
 1971SOL    HW3 7958   0.675   3.802   3.450  1.2470  0.4084  1.2143
 1971SOL    MW4 7959   0.675   3.880   3.412  0.0370 -0.2403 -0.1941
 1972SOL     OW 7960   0.468   4.021   3.465  0.0086 -0.1522 -0.3888
 1972SOL    HW2 7961   0.462   4.117   3.463  0.5600 -0.1144 -0.2922
 1972SOL    HW3 7962   0.378   3.991   3.450 -0.1448  0.3793 -0.5403
 1972SOL    MW4 7963   0.455   4.030   3.463  0.0611 -0.0768 -0.3960
 1973SOL     OW 7964   0.444   4.302   3.420 -0.0015 -0.1497  0.1070
 1973SOL    HW2 7965   0.522   4.338   3.463 -0.7227  0.9802  0.4957
 1973SOL    HW3 7966   0.467   4.295   3.328 -0.3317  2.7077 -0.2211
 1973SOL    MW4 7967   0.457   4.306   3.414 -0.1402  0.3767  0.1149
 1974SOL     OW 7968   0.675   4.424   3.511 -0.1601 -0.3789  0.3029
 1974SOL    HW2 7969   0.747   4.374   3.472 -0.2784  0.5168 -1.0904
 1974SOL    HW3 7970   0.675   4.507   3.463 -1.3586  0.1013  1.1191
 1974SOL    MW4 7971   0.685   4.428   3.500 -0.3338 -0.1974  0.2267
 1975SOL     OW 7972   1.073   0.005   3.386 -0.2351  0.0854  0.2432
 1975SOL    HW2 7973   1.154   0.023   3.434 -0.9540  1.5179  0.9837
 1975SOL    HW3 7974   1.090   0.034   3.297 -0.0315  0.6834  0.4747
 1975SOL    MW4 7975   1.086   0.011   3.381 -0.3030  0.3529  0.3712
 1976SOL     OW 7976   0.856   0.147   3.464 -0.3166  0.0846 -0.5327
 1976SOL    HW2 7977   0.842   0.153   3.559 -0.5481 -1.1138 -0.4840
 1976SOL    HW3 7978   0.938   0.098   3.455  0.5803  1.6227 -0.9360
 1976SOL    MW4 7979   0.865   0.142   3.476 -0.2288  0.1294 -0.5794
 1977SOL     OW 7980   0.897   0.387   3.343  0.1855 -0.4016  0.0222
 1977SOL    HW2 7981   0.966   0.434   3.391  0.8658 -0.6664 -0.6820
 1977SOL    HW3 7982   0.892   0.302   3.387  0.6241 -0.5459 -0.2017
 1977SOL    MW4 7983   0.906   0.382   3.355  0.3331 -0.4556 -0.1004
 1978SOL     OW 7984   1.080   0.502   3.533  0.0890  0.3587 -0.0782
 1978SOL    HW2 7985   1.102   0.500   3.626  1.3702 -0.5586 -0.3904
 1978SOL    HW3 7986   1.086   0.594   3.509 -3.1623  1.0181  1.4065
 1978SOL    MW4 7987   1.084   0.514   3.542 -0.1709  0.3247  0.0765
 1979SOL     OW 7988   1.106   0.737   3.364 -0.3911  0.1297  0.0669
 1979SOL    HW2 7989   1.181   0.793   3.385 -0.2222  0.3569 -1.1131
 1979SOL    HW3 7990   1.035   0.772   3.418 -0.2752  1.4824 -0.6264
 1979SOL    MW4 7991   1.106   0.749   3.374 -0.3535  0.3381 -0.1802
 1980SOL     OW 7992   0.886   0.846   3.496 -0.7830 -0.2373  0.0300
 1980SOL    HW2 7993   0.897   0.937   3.467 -0.8223 -0.0245  0.6757
 1980SOL    HW3 7994   0.805   0.817   3.453 -0.8130  0.0577 -0.1161
 1980SOL    MW4 7995   0.877   0.854   3.487 -0.7921 -0.1702  0.0961
 1981SOL     OW 7996   0.894   1.106   3.410  0.0533 -0.3990  0.2455
 1981SOL    HW2 7997   0.971   1.158   3.436 -0.0802  0.2524 -0.6452
 1981SOL    HW3 7998   0.885   1.123   3.317 -1.2207 -0.4290  0.3642
 1981SOL    MW4 7999   0.903   1.115   3.401 -0.1323 -0.3170  0.1438
 1982SOL     OW 8000   1.105   1.273   3.463 -0.0455  0.0434  0.4848
 1982SOL    HW2 8001   1.117   1.279   3.558  0.0889  1.1516  0.4065
 1982SOL    HW3 8002   1.115   1.363   3.432 -0.2282 -0.2918 -0.5667
 1982SOL    MW4 8003   1.108   1.286   3.471 -0.0517  0.1454  0.3357
 1983SOL     OW 8004   1.144   1.528   3.371  0.1201 -0.0611 -0.0353
 1983SOL    HW2 8005   1.222   1.574   3.401 -0.0029  1.1765 -1.5329
 1983SOL    HW3 8006   1.143   1.541   3.276 -0.7412 -1.9071 -0.3085
 1983SOL    MW4 8007   1.154   1.536   3.363 -0.0098 -0.1413 -0.2692
 1984SOL     OW 8008   0.893   1.643   3.438 -0.0097  0.1296 -0.0791
 1984SOL    HW2 8009   0.901   1.733   3.405 -0.9642  0.9918  1.9899
 1984SOL    HW3 8010   0.984   1.613   3.445  0.2864  0.5954 -1.6308
 1984SOL    MW4 8011   0.906   1.651   3.434 -0.0966  0.3048 -0.0107
 1985SOL     OW 8012   0.928   1.920   3.368  0.4626  0.2871 -0.4776
 1985SOL    HW2 8013   1.010   1.944   3.411  0.0856 -0.3080  0.6121
 1985SOL    HW3 8014   0.860   1.965   3.418 -0.1153 -1.7488  0.6190
 1985SOL    MW4 8015   0.929   1.929   3.380  0.3367 -0.0600 -0.1891
 1986SOL     OW 8016   1.164   2.073   3.481  0.1308 -0.3341  0.1574
 1986SOL    HW2 8017   1.241   2.035   3.438  0.5211  0.7578 -0.1264
 1986SOL    HW3 8018   1.173   2.167   3.467 -0.1033 -0.0228  2.0405
 1986SOL    MW4 8019   1.175   2.080   3.473  0.1514 -0.1488  0.3684
 1987SOL     OW 8020   1.160   2.353   3.422 -0.0931  0.1853  0.1484
 1987SOL    HW2 8021   1.235   2.408   3.443  0.1438 -0.5304  1.2064
 1987SOL    HW3 8022   1.165   2.341   3.327  1.8207 -0.8317  0.3592
 1987SOL    MW4 8023   1.170   2.359   3.412  0.1907 -0.0432  0.3159
 1988SOL     OW 8024   0.898   2.409   3.496 -0.2558 -0.3569  0.1447
 1988SOL    HW2 8025   0.911   2.420   3.590  0.2087  1.1971 -0.0812
 1988SOL    HW3 8026   0.979   2.367   3.466 -0.1629 -0.3298  0.3541
 1988SOL    MW4 8027   0.911   2.405   3.504 -0.1823 -0.1483  0.1426
 1989SOL     OW 8028   0.918   2.680   3.391 -0.0791 -0.1956  0.3088
 1989SOL    HW2 8029   0.982   2.722   3.449 -0.9350  0.5865  0.7038
 1989SOL    HW3 8030   0.906   2.593   3.428 -0.2101  0.1082  0.9878
 1989SOL    MW4 8031   0.925   2.674   3.403 -0.2093 -0.0522  0.4506
 1990SOL     OW 8032   1.112   2.857   3.538 -0.5134 -0.3165  0.3832
 1990SOL    HW2 8033   1.125   2.861   3.633 -0.9558 -0.4167  0.4477
 1990SOL    HW3 8034   1.188   2.809   3.506 -1.2149 -1.7640  0.8562
 1990SOL    MW4 8035   1.124   2.852   3.547 -0.6645 -0.5207  0.4539
 1991SOL     OW 8036   1.111   3.112   3.435  0.6101 -0.2049 -0.2949
 1991SOL    HW2 8037   1.100   3.027   3.477 -1.3663  0.5646  0.7950
 1991SOL    HW3 8038   1.107   3.093   3.341  2.8098 -1.6358 -0.1293
 1991SOL    MW4 8039   1.109   3.098   3.428  0.6397 -0.2923 -0.1290
 1992SOL     OW 8040   0.874   3.255   3.504 -0.2461 -0.0256 -0.3665
 1992SOL    HW2 8041   0.954   3.207   3.481 -1.3576 -1.8118 -0.6252
 1992SOL    HW3 8042   0.805   3.208   3.458 -1.8839 -0.5693  2.5227
 1992SOL    MW4 8043   0.876   3.243   3.495 -0.6089 -0.3331 -0.0193
 1993SOL     OW 8044   0.906   3.507   3.427  0.0942  1.2434 -0.6046
 1993SOL    HW2 8045   0.916   3.415   3.453 -1.1767  1.1857 -0.3065
 1993SOL    HW3 8046   0.910   3.505   3.332 -1.9516  0.6084 -0.7096
 1993SOL    MW4 8047   0.908   3.494   3.418 -0.3434  1.1518 -0.5794
 1994SOL     OW 8048   1.130   3.608   3.531  0.2618  0.3586  0.4621
 1994SOL    HW2 8049   1.135   3.593   3.625  2.9392 -0.2807  0.2363
 1994SOL    HW3 8050   1.042   3.578   3.507  0.5799 -2.1285  2.2883
 1994SOL    MW4 8051   1.119   3.602   3.540  0.6571 -0.0539  0.6733
 1995SOL     OW 8052   1.108   3.859   3.426 -0.2306  0.1994  0.0427
 1995SOL    HW2 8053   1.173   3.919   3.461 -0.4144  0.3243  0.1679
 1995SOL    HW3 8054   1.125   3.776   3.472  0.0494  0.1422 -0.1617
 1995SOL    MW4 8055   1.119   3.856   3.437 -0.2180  0.2081  0.0322
 1996SOL     OW 8056   0.902   4.015   3.481  0.0451  0.4627  0.1390
 1996SOL    HW2 8057   0.972   3.957   3.451  1.0762  2.1893 -0.8764
 1996SOL    HW3 8058   0.821   3.975   3.448  0.6312 -1.0378  0.5207
 1996SOL    MW4 8059   0.900   4.002   3.473  0.2584  0.4926  0.0556
 1997SOL     OW 8060   0.863   4.278   3.381  0.2573 -0.0054 -0.0097
 1997SOL    HW2 8061   0.862   4.184   3.403  1.2069  0.2561  1.2337
 1997SOL    HW3 8062   0.877   4.280   3.286  2.3796 -1.1051  0.2511
 1997SOL    MW4 8063   0.865   4.266   3.371  0.6627 -0.1159  0.1888
 1998SOL     OW 8064   1.095   4.392   3.488  0.2940 -0.3487  0.2897
 1998SOL    HW2 8065   1.011   4.355   3.459 -0.0029 -0.8211  1.7108
 1998SOL    HW3 8066   1.105   4.472   3.437 -0.6728 -0.6655 -0.4100
 1998SOL    MW4 8067   1.085   4.398   3.478  0.1273 -0.4525  0.3850
 1999SOL     OW 8068   1.559   4.591   3.423  0.4253  0.2182 -0.4048
 1999SOL    HW2 8069   1.546   4.511   3.473  0.4586  0.9628  0.8288
 1999SOL    HW3 8070   1.488   4.649   3.451 -0.2058  0.2435 -2.0604
 1999SOL    MW4 8071   1.548   4.588   3.434  0.3465  0.3200 -0.4606
 2000SOL     OW 8072   1.324   0.099   3.461 -0.0326 -0.0937 -0.6334
 2000SOL    HW2 8073   1.333   0.107   3.556  1.7729  0.9476 -0.8760
 2000SOL    HW3 8074   1.306   0.188   3.430  0.8475 -0.1824 -1.4149
 2000SOL    MW4 8075   1.323   0.111   3.469  0.3219  0.0320 -0.7682
 2001SOL     OW 8076   1.284   0.362   3.379  0.1628 -0.1669  0.4598
 2001SOL    HW2 8077   1.363   0.402   3.415  0.2016  0.0182  0.1781
 2001SOL    HW3 8078   1.212   0.405   3.425  0.1988  0.3786  0.0126
 2001SOL    MW4 8079   1.285   0.373   3.390  0.1727 -0.0705  0.3633
 2002SOL     OW 8080   1.536   0.448   3.485 -0.2074 -0.8775  0.2496
 2002SOL    HW2 8081   1.537   0.463   3.580  1.0128  0.7278  0.0136
 2002SOL    HW3 8082   1.625   0.418   3.465  0.0583  0.4639 -0.6204
 2002SOL    MW4 8083   1.548   0.446   3.495 -0.0113 -0.4887  0.1035
 2003SOL     OW 8084   1.555   0.698   3.349 -0.0469 -0.2113  0.3357
 2003SOL    HW2 8085   1.495   0.748   3.404 -0.5864 -1.7693  1.1711
 2003SOL    HW3 8086   1.551   0.609   3.382  2.6839 -0.3652  0.3775
 2003SOL    MW4 8087   1.547   0.693   3.360  0.2424 -0.4371  0.4513
 2004SOL     OW 8088   1.342   0.859   3.471  0.6527  0.5064 -0.1750
 2004SOL    HW2 8089   1.358   0.862   3.565  1.6462  0.2782 -0.3306
 2004SOL    HW3 8090   1.355   0.950   3.441 -1.4695  0.9562  0.1780
 2004SOL    MW4 8091   1.346   0.872   3.479  0.5037  0.5356 -0.1493
 2005SOL     OW 8092   1.340   1.134   3.384  0.1082 -0.4965  0.1060
 2005SOL    HW2 8093   1.396   1.206   3.414 -0.4701 -0.3382  0.8096
 2005SOL    HW3 8094   1.251   1.161   3.407 -0.1653 -1.1788 -0.1410
 2005SOL    MW4 8095   1.336   1.147   3.391 -0.0042 -0.5656  0.1662
 2006SOL     OW 8096   1.529   1.304   3.513  0.4389  0.4527 -0.5223
 2006SOL    HW2 8097   1.535   1.314   3.608  2.3188  2.6008 -0.8300
 2006SOL    HW3 8098   1.607   1.253   3.489  1.1034  1.7450 -1.1382
 2006SOL    MW4 8099   1.540   1.298   3.523  0.7747  0.9066 -0.6440
 2007SOL     OW 8100   1.589   1.548   3.410  0.2314 -0.0952  0.2947
 2007SOL    HW2 8101   1.566   1.463   3.448  0.8799  0.0270  0.9784
 2007SOL    HW3 8102   1.602   1.530   3.317  1.2090 -0.9162  0.5814
 2007SOL    MW4 8103   1.588   1.534   3.403  0.4460 -0.1873  0.4225
 2008SOL     OW 8104   1.348   1.693   3.486  0.0150  0.3980 -0.2246
 2008SOL    HW2 8105   1.347   1.677   3.580  0.6092  1.8944  0.0522
 2008SOL    HW3 8106   1.435   1.665   3.457  0.4231  1.4390 -0.0369
 2008SOL    MW4 8107   1.359   1.687   3.494  0.1473  0.7330 -0.1636
 2009SOL     OW 8108   1.387   1.949   3.416 -0.1444 -0.5581  0.1094
 2009SOL    HW2 8109   1.442   1.998   3.477 -1.0556 -0.6694  1.0334
 2009SOL    HW3 8110   1.374   1.864   3.459 -0.2502 -0.8725 -0.5417
 2009SOL    MW4 8111   1.392   1.944   3.430 -0.2785 -0.6143  0.1454
 2010SOL     OW 8112   1.600   2.093   3.532 -0.6296  0.0933  0.3052
 2010SOL    HW2 8113   1.671   2.041   3.495 -0.8162 -0.3507  0.5596
 2010SOL    HW3 8114   1.590   2.167   3.472  0.7497  0.7316  0.8391
 2010SOL    MW4 8115   1.608   2.096   3.520 -0.4724  0.1192  0.4094
 2011SOL     OW 8116   1.593   2.317   3.362  0.3477  0.1622  0.2927
 2011SOL    HW2 8117   1.522   2.375   3.391  0.8478  0.4867  0.8927
 2011SOL    HW3 8118   1.596   2.330   3.267  1.3444  2.1858  0.5609
 2011SOL    MW4 8119   1.584   2.327   3.353  0.5451  0.4721  0.4072
 2012SOL     OW 8120   1.388   2.484   3.484  0.0745  0.2707  0.2448
 2012SOL    HW2 8121   1.380   2.488   3.579 -0.8389  2.0731  0.1178
 2012SOL    HW3 8122   1.376   2.575   3.455  1.1071 -0.1325 -1.5362
 2012SOL    MW4 8123   1.385   2.497   3.493  0.0902  0.4551 -0.0069
 2013SOL     OW 8124   1.339   2.738   3.393  0.2751 -0.0035 -0.1502
 2013SOL    HW2 8125   1.417   2.779   3.430 -0.1955  0.4763  0.3149
 2013SOL    HW3 8126   1.352   2.743   3.298  0.9245 -0.1546 -0.0738
 2013SOL    MW4 8127   1.351   2.744   3.386  0.2987  0.0398 -0.0789
 2014SOL     OW 8128   1.574   2.860   3.511 -0.3092 -0.2055  0.1211
 2014SOL    HW2 8129   1.651   2.825   3.468  1.4501  0.1986  2.7838
 2014SOL    HW3 8130   1.568   2.951   3.480  1.0027  0.1195  0.7552
 2014SOL    MW4 8131   1.583   2.868   3.502  0.0961 -0.1092  0.5560
 2015SOL     OW 8132   1.578   3.118   3.395  0.3902  0.5370  0.2959
 2015SOL    HW2 8133   1.660   3.159   3.421  0.2162  0.7489  0.5073
 2015SOL    HW3 8134   1.510   3.172   3.435  0.1403  0.5081 -0.0841
 2015SOL    MW4 8135   1.580   3.130   3.404  0.3344  0.5610  0.2735
 2016SOL     OW 8136   1.357   3.263   3.492 -0.1715  0.2828  0.2681
 2016SOL    HW2 8137   1.363   3.269   3.587 -1.7669  1.3562  0.3097
 2016SOL    HW3 8138   1.280   3.208   3.476 -0.0199  0.2597 -0.4161
 2016SOL    MW4 8139   1.348   3.256   3.503 -0.3620  0.4213  0.1833
 2017SOL     OW 8140   1.332   3.516   3.370 -0.0507 -0.2163 -0.1630
 2017SOL    HW2 8141   1.338   3.422   3.388 -0.0077 -0.1517  0.1635
 2017SOL    HW3 8142   1.253   3.544   3.417  0.3764  0.0621  0.4028
 2017SOL    MW4 8143   1.323   3.507   3.379  0.0113 -0.1709 -0.0453
 2018SOL     OW 8144   1.604   3.624   3.448  0.4637 -0.4514  0.2331
 2018SOL    HW2 8145   1.606   3.611   3.543 -0.5030 -1.4638  0.1316
 2018SOL    HW3 8146   1.516   3.596   3.423  0.5798  0.1941 -0.9140
 2018SOL    MW4 8147   1.593   3.619   3.457  0.3515 -0.4997  0.0684
 2019SOL     OW 8148   1.546   3.883   3.385 -0.2240 -0.1351  0.0622
 2019SOL    HW2 8149   1.551   3.790   3.404 -0.9205 -0.1222  0.3015
 2019SOL    HW3 8150   1.568   3.889   3.292 -0.7061 -0.5920 -0.0831
 2019SOL    MW4 8151   1.549   3.872   3.375 -0.3796 -0.1938  0.0746
 2020SOL     OW 8152   1.344   4.003   3.518 -0.5925  0.2581  0.1726
 2020SOL    HW2 8153   1.348   4.095   3.491  0.7105  0.5836  1.4046
 2020SOL    HW3 8154   1.417   3.962   3.473  0.2246  0.3327  1.3953
 2020SOL    MW4 8155   1.354   4.010   3.509 -0.3129  0.3109  0.4966
 2021SOL     OW 8156   1.328   4.262   3.403 -0.2302  0.0094  0.0931
 2021SOL    HW2 8157   1.242   4.296   3.426 -0.3754 -1.5420  1.9829
 2021SOL    HW3 8158   1.327   4.258   3.308 -2.1385  0.2604  0.0736
 2021SOL    MW4 8159   1.317   4.266   3.394 -0.5012 -0.1621  0.3400
 2022SOL     OW 8160   1.579   4.322   3.499  0.4024  0.5399  0.3277
 2022SOL    HW2 8161   1.653   4.294   3.446 -0.3930  0.9471 -1.0074
 2022SOL    HW3 8162   1.502   4.298   3.448 -0.4499 -1.0003  2.2440
 2022SOL    MW4 8163   1.579   4.315   3.485  0.1850  0.3901  0.4041
 2023SOL     OW 8164   2.026   4.607   3.426  0.3347  0.3263  0.0717
 2023SOL    HW2 8165   2.096   4.665   3.455  0.5278  0.4228 -0.5772
 2023SOL    HW3 8166   1.945   4.655   3.445  0.4793  0.6362 -0.0968
 2023SOL    MW4 8167   2.024   4.621   3.432  0.3793  0.3796 -0.0358
 2024SOL     OW 8168   1.778   0.088   3.455  0.1029 -0.0682  0.2063
 2024SOL    HW2 8169   1.783   0.084   3.551 -0.8305  0.4016  0.2768
 2024SOL    HW3 8170   1.713   0.022   3.432 -1.9272  1.9256  0.1165
 2024SOL    MW4 8171   1.770   0.078   3.465 -0.2880  0.2569  0.2036
 2025SOL     OW 8172   1.789   0.373   3.404 -0.0562 -0.0181  0.3827
 2025SOL    HW2 8173   1.800   0.280   3.421 -0.6423 -0.3129 -0.7884
 2025SOL    HW3 8174   1.778   0.379   3.309 -4.0254  0.8026  0.8247
 2025SOL    MW4 8175   1.789   0.362   3.394 -0.6573  0.0513  0.2866
 2026SOL     OW 8176   2.028   0.523   3.451  0.1440  0.3053  0.1534
 2026SOL    HW2 8177   2.025   0.618   3.437 -0.9809  0.3338  0.5884
 2026SOL    HW3 8178   1.940   0.492   3.428  0.4792 -0.6249  0.0996
 2026SOL    MW4 8179   2.016   0.531   3.446  0.0401  0.1864  0.2038
 2027SOL     OW 8180   1.981   0.792   3.399 -0.7101  0.4277  0.4544
 2027SOL    HW2 8181   2.064   0.822   3.437 -0.3597  0.8604 -0.6063
 2027SOL    HW3 8182   2.002   0.776   3.307 -1.2884 -1.5851  0.6613
 2027SOL    MW4 8183   1.995   0.794   3.392 -0.7402  0.2193  0.3419
 2028SOL     OW 8184   1.745   0.907   3.457 -0.1349 -0.0686  0.1322
 2028SOL    HW2 8185   1.830   0.870   3.432  0.0679  0.5777 -0.1273
 2028SOL    HW3 8186   1.682   0.839   3.432  0.1582  0.1239 -1.1711
 2028SOL    MW4 8187   1.748   0.893   3.451 -0.0695  0.0421 -0.0741
 2029SOL     OW 8188   1.769   1.174   3.393  0.0475  0.2832 -0.6403
 2029SOL    HW2 8189   1.854   1.199   3.428  0.3144 -0.0996 -1.0044
 2029SOL    HW3 8190   1.757   1.084   3.424 -0.3173  0.4082 -0.4190
 2029SOL    MW4 8191   1.779   1.165   3.402  0.0347  0.2491 -0.6590
 2030SOL     OW 8192   1.993   1.275   3.492  0.0521  0.1850  0.1663
 2030SOL    HW2 8193   1.973   1.279   3.586 -1.4644 -0.0652 -0.1282
 2030SOL    HW3 8194   1.991   1.367   3.464  1.7014  0.3668  0.6048
 2030SOL    MW4 8195   1.990   1.288   3.501  0.0696  0.1761  0.1855
 2031SOL     OW 8196   2.051   1.532   3.454  0.0186  0.0114 -0.1245
 2031SOL    HW2 8197   2.123   1.583   3.491 -0.4206 -0.0479  0.8043
 2031SOL    HW3 8198   1.974   1.587   3.467 -0.0117  0.3757 -1.7308
 2031SOL    MW4 8199   2.050   1.546   3.460 -0.0434  0.0515 -0.2139
 2032SOL     OW 8200   1.817   1.680   3.512  0.1375 -0.0644 -0.1441
 2032SOL    HW2 8201   1.818   1.771   3.481 -0.4951  0.0644  0.1960
 2032SOL    HW3 8202   1.728   1.650   3.495  0.9140 -1.2886 -2.1258
 2032SOL    MW4 8203   1.805   1.688   3.506  0.1564 -0.2089 -0.3607
 2033SOL     OW 8204   1.810   1.933   3.394  0.2833  0.0010  0.8350
 2033SOL    HW2 8205   1.879   1.988   3.430  1.3854 -1.1515  0.4908
 2033SOL    HW3 8206   1.825   1.934   3.300 -2.4695  2.8390  0.3222
 2033SOL    MW4 8207   1.821   1.940   3.386  0.0656  0.2234  0.7219
 2034SOL     OW 8208   2.001   2.089   3.516 -0.0334  0.3962 -0.0544
 2034SOL    HW2 8209   2.073   2.061   3.459 -1.4674  0.2771 -1.8839
 2034SOL    HW3 8210   1.984   2.180   3.490 -0.5330  0.4237  0.3668
 2034SOL    MW4 8211   2.008   2.097   3.505 -0.2887  0.3843 -0.2403
 2035SOL     OW 8212   2.011   2.351   3.423  0.5163 -0.4820  0.3259
 2035SOL    HW2 8213   2.099   2.380   3.450  0.6694 -0.2613 -0.3809
 2035SOL    HW3 8214   2.018   2.341   3.328 -0.4421  0.2899  0.1680
 2035SOL    MW4 8215   2.024   2.354   3.414  0.4098 -0.3512  0.2117
 2036SOL     OW 8216   1.775   2.494   3.468 -0.1004  0.1919 -0.3523
 2036SOL    HW2 8217   1.862   2.463   3.443  0.2385  0.2179  0.7457
 2036SOL    HW3 8218   1.715   2.426   3.436  0.4152 -0.3568 -0.1733
 2036SOL    MW4 8219   1.779   2.481   3.461  0.0124  0.1230 -0.1841
 2037SOL     OW 8220   1.807   2.737   3.362 -0.0654 -0.1820  0.2653
 2037SOL    HW2 8221   1.887   2.768   3.405  0.3766  1.4145 -1.6081
 2037SOL    HW3 8222   1.785   2.656   3.407  1.1502  0.6962  2.5438
 2037SOL    MW4 8223   1.814   2.730   3.374  0.1533  0.1442  0.3188
 2038SOL     OW 8224   2.050   2.831   3.464  0.5827 -0.1159 -0.0269
 2038SOL    HW2 8225   2.058   2.827   3.559  0.1014 -0.3663  0.0083
 2038SOL    HW3 8226   2.060   2.923   3.442  2.1602 -0.2346  0.1244
 2038SOL    MW4 8227   2.052   2.843   3.473  0.7272 -0.1643 -0.0024
 2039SOL     OW 8228   2.053   3.098   3.401  0.0893 -0.0625  0.9358
 2039SOL    HW2 8229   2.113   3.149   3.456  1.6253 -0.0347 -0.7273
 2039SOL    HW3 8230   1.966   3.122   3.432  0.8978  0.7098  2.6865
 2039SOL    MW4 8231   2.049   3.107   3.413  0.3986  0.0432  0.9475
 2040SOL     OW 8232   1.811   3.232   3.472 -0.9000  0.3318 -0.0778
 2040SOL    HW2 8233   1.802   3.228   3.567 -0.8972  0.5620 -0.0675
 2040SOL    HW3 8234   1.810   3.326   3.451 -3.4947  0.2236 -0.5753
 2040SOL    MW4 8235   1.810   3.244   3.481 -1.2419  0.3479 -0.1419
 2041SOL     OW 8236   1.854   3.486   3.398 -0.4555 -0.1346  0.4021
 2041SOL    HW2 8237   1.774   3.538   3.402 -0.5479 -0.3119  0.9006
 2041SOL    HW3 8238   1.910   3.524   3.466  0.2813  0.6404 -0.6137
 2041SOL    MW4 8239   1.851   3.498   3.408 -0.3705 -0.0556  0.3338
 2042SOL     OW 8240   2.046   3.598   3.567  0.1844 -0.0441 -0.1753
 2042SOL    HW2 8241   2.035   3.676   3.514  0.4107 -1.5718 -2.5437
 2042SOL    HW3 8242   2.134   3.566   3.545 -0.4136 -1.6961 -0.2574
 2042SOL    MW4 8243   2.056   3.604   3.557  0.1352 -0.4637 -0.4983
 2043SOL     OW 8244   2.024   3.847   3.430 -0.3621 -0.5667  0.5922
 2043SOL    HW2 8245   2.092   3.912   3.445 -0.0260 -0.4860 -1.1838
 2043SOL    HW3 8246   1.942   3.893   3.450 -0.1604  0.5603 -1.0876
 2043SOL    MW4 8247   2.022   3.861   3.434 -0.2909 -0.4077  0.1364
 2044SOL     OW 8248   1.801   4.003   3.488  0.0021 -0.1583 -0.2839
 2044SOL    HW2 8249   1.797   4.029   3.580 -0.4300  2.5922 -1.0460
 2044SOL    HW3 8250   1.719   3.956   3.473  0.1206 -0.7108  0.7590
 2044SOL    MW4 8251   1.790   4.000   3.498 -0.0393  0.1316 -0.2465
 2045SOL     OW 8252   1.812   4.234   3.361  0.4749  0.2352  0.3620
 2045SOL    HW2 8253   1.816   4.142   3.388 -0.7445  0.1345  0.2278
 2045SOL    HW3 8254   1.835   4.232   3.268  2.1563  0.2824  0.7589
 2045SOL    MW4 8255   1.815   4.221   3.352  0.5357  0.2279  0.3965
 2046SOL     OW 8256   2.044   4.330   3.465 -0.1549 -0.1325  0.0660
 2046SOL    HW2 8257   1.966   4.287   3.430 -2.3780  2.2890  1.8933
 2046SOL    HW3 8258   2.026   4.423   3.455  1.4432  0.5004  2.7872
 2046SOL    MW4 8259   2.031   4.336   3.459 -0.2372  0.2704  0.6661
 2047SOL     OW 8260   2.472   4.632   3.372 -0.6667  0.3584  0.0042
 2047SOL    HW2 8261   2.484   4.544   3.407 -2.4816  0.1210  0.0488
 2047SOL    HW3 8262   2.470   4.620   3.277  2.6280  0.8076 -0.1750
 2047SOL    MW4 8263   2.473   4.619   3.364 -0.4716  0.3862 -0.0136
 2048SOL     OW 8264   2.261   0.120   3.508  0.1394  0.1480 -0.4192
 2048SOL    HW2 8265   2.263   0.209   3.474  1.6443  0.5648  0.7210
 2048SOL    HW3 8266   2.333   0.075   3.463  0.7961  0.1269  0.6354
 2048SOL    MW4 8267   2.271   0.125   3.498  0.4246  0.2002 -0.1295
 2049SOL     OW 8268   2.256   0.380   3.362 -0.0365 -0.0078 -0.0075
 2049SOL    HW2 8269   2.330   0.434   3.391 -0.4368  0.6444 -0.1778
 2049SOL    HW3 8270   2.179   0.423   3.400 -0.3608 -0.4520 -0.1621
 2049SOL    MW4 8271   2.255   0.393   3.371 -0.1321  0.0197 -0.0508
 2050SOL     OW 8272   2.456   0.513   3.474 -0.0052 -0.1131  0.1061
 2050SOL    HW2 8273   2.534   0.469   3.440 -0.5765 -0.3553 -0.8918
 2050SOL    HW3 8274   2.463   0.603   3.442  0.6030  0.2523  1.2343
 2050SOL    MW4 8275   2.467   0.519   3.466  0.0000 -0.0968  0.1235
 2051SOL     OW 8276   2.462   0.763   3.382  0.4883 -0.2348  0.6140
 2051SOL    HW2 8277   2.533   0.813   3.422 -0.8732  0.9620  1.5469
 2051SOL    HW3 8278   2.469   0.782   3.288  1.4555 -0.1997  0.6907
 2051SOL    MW4 8279   2.472   0.772   3.375  0.4361 -0.0723  0.7474
 2052SOL     OW 8280   2.231   0.885   3.485 -0.2538  0.0375  0.1778
 2052SOL    HW2 8281   2.226   0.979   3.466  1.7618  0.3304  0.9861
 2052SOL    HW3 8282   2.314   0.857   3.448 -1.0559 -1.5563 -0.4668
 2052SOL    MW4 8283   2.241   0.894   3.478 -0.0939 -0.1342  0.1998
 2053SOL     OW 8284   2.227   1.166   3.404 -0.1928 -0.1501  0.0675
 2053SOL    HW2 8285   2.305   1.204   3.445  0.2245 -0.7613 -0.1519
 2053SOL    HW3 8286   2.155   1.221   3.434  0.3360  0.4787  0.1949
 2053SOL    MW4 8287   2.227   1.178   3.414 -0.0679 -0.1476  0.0553
 2054SOL     OW 8288   2.448   1.325   3.493  0.0536  0.1307 -0.0537
 2054SOL    HW2 8289   2.447   1.290   3.582  0.5565 -0.1820 -0.1675
 2054SOL    HW3 8290   2.517   1.275   3.449 -0.3321  0.1475 -0.6719
 2054SOL    MW4 8291   2.457   1.314   3.499  0.0694  0.0916 -0.1502
 2055SOL     OW 8292   2.484   1.589   3.421  0.4064 -0.0710 -0.1456
 2055SOL    HW2 8293   2.468   1.495   3.433 -0.7492  0.1494  0.0907
 2055SOL    HW3 8294   2.485   1.601   3.326 -0.7849 -0.1059 -0.1684
 2055SOL    MW4 8295   2.482   1.578   3.410  0.0968 -0.0465 -0.1178
 2056SOL     OW 8296   2.256   1.677   3.549  0.4546 -0.0520 -0.4443
 2056SOL    HW2 8297   2.266   1.665   3.644  0.1494 -0.8709 -0.5136
 2056SOL    HW3 8298   2.341   1.652   3.513  0.4220 -0.1905 -0.4255
 2056SOL    MW4 8299   2.269   1.672   3.557  0.4101 -0.1785 -0.4506
 2057SOL     OW 8300   2.229   1.942   3.451 -0.0001  0.0374 -0.0551
 2057SOL    HW2 8301   2.246   1.854   3.485  0.0094 -0.0508 -0.2877
 2057SOL    HW3 8302   2.231   1.932   3.356  0.7811  0.4378 -0.0894
 2057SOL    MW4 8303   2.232   1.929   3.443  0.1042  0.0786 -0.0904
 2058SOL     OW 8304   2.478   2.038   3.498 -0.1663 -0.1040 -0.1709
 2058SOL    HW2 8305   2.495   2.032   3.592  0.7262 -0.9795 -0.3760
 2058SOL    HW3 8306   2.388   2.006   3.488 -0.1850 -0.2192  0.3521
 2058SOL    MW4 8307   2.468   2.033   3.509 -0.0508 -0.2348 -0.1290
 2059SOL     OW 8308   2.513   2.301   3.433  0.0160 -0.1764  0.1134
 2059SOL    HW2 8309   2.602   2.325   3.456 -0.3051  0.1459  1.0590
 2059SOL    HW3 8310   2.509   2.206   3.442  0.5108 -0.2866 -0.8216
 2059SOL    MW4 8311   2.524   2.292   3.437  0.0389 -0.1485  0.1149
 2060SOL     OW 8312   2.270   2.458   3.498 -0.5292  0.0694  0.3921
 2060SOL    HW2 8313   2.274   2.542   3.452 -0.0057  0.3407  0.9285
 2060SOL    HW3 8314   2.345   2.409   3.465 -1.4981 -0.6482 -0.7944
 2060SOL    MW4 8315   2.280   2.463   3.488 -0.5882  0.0107  0.3059
 2061SOL     OW 8316   2.272   2.683   3.363 -0.3749 -0.0297  0.4438
 2061SOL    HW2 8317   2.195   2.724   3.403  0.2437 -0.0633  1.6864
 2061SOL    HW3 8318   2.258   2.693   3.268 -1.8060  0.1426  0.6602
 2061SOL    MW4 8319   2.260   2.689   3.356 -0.4823 -0.0114  0.6366
 2062SOL     OW 8320   2.473   2.798   3.495 -0.3379  0.2172 -0.0842
 2062SOL    HW2 8321   2.478   2.891   3.471 -0.4378  0.1798 -0.2522
 2062SOL    HW3 8322   2.398   2.765   3.446 -0.2932  0.0439 -0.0353
 2062SOL    MW4 8323   2.464   2.806   3.485 -0.3450  0.1895 -0.1001
 2063SOL     OW 8324   2.523   3.056   3.417  0.1051 -0.0948  0.2573
 2063SOL    HW2 8325   2.581   3.127   3.447  0.5399 -0.7065  0.8608
 2063SOL    HW3 8326   2.534   3.056   3.322 -0.6592  1.3145  0.1500
 2063SOL    MW4 8327   2.532   3.066   3.409  0.0618  0.0103  0.3228
 2064SOL     OW 8328   2.297   3.188   3.525 -0.2331  0.4023 -0.0645
 2064SOL    HW2 8329   2.307   3.181   3.620  0.0533 -0.2634 -0.1422
 2064SOL    HW3 8330   2.372   3.141   3.489  0.0788  1.3111 -0.6217
 2064SOL    MW4 8331   2.308   3.181   3.533 -0.1543  0.4342 -0.1483
 2065SOL     OW 8332   2.288   3.461   3.461  0.0071 -0.3719  0.2456
 2065SOL    HW2 8333   2.287   3.369   3.489  0.5154 -0.8329 -1.1799
 2065SOL    HW3 8334   2.282   3.456   3.365 -0.5944  1.1051  0.2032
 2065SOL    MW4 8335   2.287   3.448   3.452 -0.0052 -0.2377  0.0517
 2066SOL     OW 8336   2.517   3.612   3.532  0.1129  0.2491 -0.0380
 2066SOL    HW2 8337   2.490   3.699   3.506  0.3823  0.1273 -0.7351
 2066SOL    HW3 8338   2.448   3.554   3.500  0.2826  0.1309 -0.1876
 2066SOL    MW4 8339   2.505   3.616   3.525  0.1707  0.2174 -0.1497
 2067SOL     OW 8340   2.431   3.829   3.401 -0.3276  0.0723  0.2659
 2067SOL    HW2 8341   2.511   3.881   3.416  1.1378 -1.4813 -1.8730
 2067SOL    HW3 8342   2.361   3.881   3.441  1.7222  1.5527  2.0561
 2067SOL    MW4 8343   2.433   3.843   3.408  0.1361  0.0622  0.2198
 2068SOL     OW 8344   2.236   4.007   3.491 -0.2140  0.2753 -0.0453
 2068SOL    HW2 8345   2.260   4.090   3.450  1.4205 -0.1327  0.0703
 2068SOL    HW3 8346   2.246   4.023   3.584  1.9661 -0.6137 -0.1116
 2068SOL    MW4 8347   2.241   4.020   3.498  0.2890  0.1044 -0.0389
 2069SOL     OW 8348   2.302   4.238   3.377  0.8102  0.2479  0.2521
 2069SOL    HW2 8349   2.209   4.261   3.382  1.0447  0.9808  1.3056
 2069SOL    HW3 8350   2.318   4.225   3.283  0.2230  2.5612 -0.2048
 2069SOL    MW4 8351   2.292   4.240   3.365  0.7639  0.6495  0.3309
 2070SOL     OW 8352   2.517   4.381   3.474 -0.0508 -0.4820  0.0951
 2070SOL    HW2 8353   2.513   4.388   3.569 -0.4105  0.0775  0.0379
 2070SOL    HW3 8354   2.431   4.346   3.449 -0.3446  0.3867 -0.1160
 2070SOL    MW4 8355   2.505   4.377   3.483 -0.1371 -0.2933  0.0596
 2071SOL     OW 8356   2.928   4.646   3.407 -0.3111  0.1267  0.1176
 2071SOL    HW2 8357   2.845   4.689   3.427 -0.3822 -0.1322  0.3683
 2071SOL    HW3 8358   2.932   4.645   3.311  0.6321  2.5558  0.0955
 2071SOL    MW4 8359   2.918   4.652   3.397 -0.1960  0.4125  0.1476
 2072SOL     OW 8360   2.688   0.098   3.471 -0.1594  0.2767  0.2242
 2072SOL    HW2 8361   2.697   0.184   3.431 -0.8301 -0.3429 -1.3101
 2072SOL    HW3 8362   2.611   0.060   3.428 -0.6328 -0.5904  1.8023
 2072SOL    MW4 8363   2.679   0.104   3.460 -0.3107  0.0806  0.2301
 2073SOL     OW 8364   2.682   0.358   3.384 -0.9591  0.3736 -0.3575
 2073SOL    HW2 8365   2.750   0.419   3.413  0.4324 -1.1398 -0.3298
 2073SOL    HW3 8366   2.687   0.361   3.288 -1.2663  0.7292 -0.3597
 2073SOL    MW4 8367   2.692   0.366   3.375 -0.8161  0.2208 -0.3543
 2074SOL     OW 8368   2.889   0.485   3.500 -0.1916  0.0005 -0.0970
 2074SOL    HW2 8369   2.872   0.480   3.594  0.9374 -2.3330  0.0203
 2074SOL    HW3 8370   2.885   0.578   3.480 -0.8816  0.4952  2.1765
 2074SOL    MW4 8371   2.886   0.497   3.510 -0.1335 -0.2421  0.2184
 2075SOL     OW 8372   2.886   0.757   3.427  0.4345 -0.4607 -0.0786
 2075SOL    HW2 8373   2.968   0.797   3.457  0.6223 -1.4865  0.8362
 2075SOL    HW3 8374   2.820   0.825   3.439  0.8602 -0.1990  0.8440
 2075SOL    MW4 8375   2.888   0.771   3.433  0.5155 -0.5615  0.1638
 2076SOL     OW 8376   2.673   0.920   3.459  0.1825  0.0144  0.0167
 2076SOL    HW2 8377   2.682   0.927   3.554  0.0151 -0.8759  0.1001
 2076SOL    HW3 8378   2.668   1.010   3.428  0.3090  0.3030  0.8489
 2076SOL    MW4 8379   2.674   0.933   3.467  0.1769 -0.0650  0.1376
 2077SOL     OW 8380   2.657   1.173   3.383 -0.2768 -0.1333 -0.2472
 2077SOL    HW2 8381   2.743   1.199   3.417 -0.3152  0.2353 -0.4335
 2077SOL    HW3 8382   2.664   1.183   3.288 -0.4050 -0.4680 -0.2949
 2077SOL    MW4 8383   2.669   1.177   3.375 -0.2990 -0.1287 -0.2782
 2078SOL     OW 8384   2.896   1.295   3.482 -0.0304  0.0541 -0.0439
 2078SOL    HW2 8385   2.882   1.296   3.576 -0.6602 -1.3285 -0.1125
 2078SOL    HW3 8386   2.963   1.228   3.468  0.9335  1.0897 -0.4737
 2078SOL    MW4 8387   2.903   1.286   3.492  0.0138  0.0083 -0.1099
 2079SOL     OW 8388   2.873   1.570   3.400  0.4099 -0.7299  0.3177
 2079SOL    HW2 8389   2.803   1.608   3.453  0.8349  0.4985  0.0092
 2079SOL    HW3 8390   2.881   1.480   3.432 -1.1462 -0.8050  0.5104
 2079SOL    MW4 8391   2.865   1.563   3.412  0.2608 -0.5777  0.3021
 2080SOL     OW 8392   2.694   1.698   3.570 -0.1244 -0.6780 -0.4849
 2080SOL    HW2 8393   2.697   1.783   3.527  0.5000 -0.2979  0.3149
 2080SOL    HW3 8394   2.623   1.651   3.525 -0.6825  0.3705 -0.6964
 2080SOL    MW4 8395   2.685   1.703   3.558 -0.1152 -0.4896 -0.4072
 2081SOL     OW 8396   2.714   1.936   3.394  0.0583 -0.3547  0.0986
 2081SOL    HW2 8397   2.636   1.987   3.414  0.9871  0.0979  2.6632
 2081SOL    HW3 8398   2.711   1.923   3.299 -1.6044  2.1208 -0.2000
 2081SOL    MW4 8399   2.703   1.941   3.384 -0.0384  0.0317  0.3977
 2082SOL     OW 8400   2.959   2.004   3.489 -0.2604  0.0096 -0.6201
 2082SOL    HW2 8401   2.947   2.001   3.584  0.8608  0.5726 -0.4531
 2082SOL    HW3 8402   2.874   1.979   3.453 -0.7496 -0.0004  0.5327
 2082SOL    MW4 8403   2.946   2.000   3.497 -0.1771  0.0827 -0.4461
 2083SOL     OW 8404   2.968   2.278   3.406 -0.6612  0.4065  0.2703
 2083SOL    HW2 8405   2.974   2.188   3.438 -0.9007  0.7778  1.3814
 2083SOL    HW3 8406   2.896   2.317   3.455  0.1343  1.5262  0.5918
 2083SOL    MW4 8407   2.959   2.271   3.417 -0.5879  0.6034  0.4592
 2084SOL     OW 8408   2.745   2.398   3.485 -0.5906 -0.0804 -0.4308
 2084SOL    HW2 8409   2.737   2.483   3.441  1.1794 -0.7282 -2.0657
 2084SOL    HW3 8410   2.731   2.418   3.578 -1.0012  1.8631 -0.8839
 2084SOL    MW4 8411   2.742   2.412   3.491 -0.4113  0.0901 -0.7060
 2085SOL     OW 8412   2.686   2.659   3.384 -0.6703 -0.2684 -0.0368
 2085SOL    HW2 8413   2.603   2.691   3.420 -0.3419 -0.4586  0.8952
 2085SOL    HW3 8414   2.753   2.717   3.420 -0.4446  0.3075 -1.3225
 2085SOL    MW4 8415   2.684   2.671   3.393 -0.5972 -0.2179 -0.0832
 2086SOL     OW 8416   2.898   2.822   3.460  0.1327  0.0178 -0.1245
 2086SOL    HW2 8417   2.939   2.809   3.546 -1.0564 -1.2105  0.2738
 2086SOL    HW3 8418   2.901   2.916   3.446 -0.8282  0.3634  1.8415
 2086SOL    MW4 8419   2.904   2.833   3.470 -0.1512 -0.0987  0.1874
 2087SOL     OW 8420   2.924   3.095   3.384  0.7169  0.2942  0.4335
 2087SOL    HW2 8421   3.001   3.148   3.406  0.7381  0.7196 -0.6524
 2087SOL    HW3 8422   2.921   3.095   3.288 -0.3131 -0.1912  0.4604
 2087SOL    MW4 8423   2.934   3.102   3.374  0.5839  0.2861  0.2937
 2088SOL     OW 8424   2.721   3.256   3.472  0.0080 -0.4213  0.1088
 2088SOL    HW2 8425   2.736   3.286   3.562 -0.3217 -1.6645  0.5914
 2088SOL    HW3 8426   2.785   3.187   3.459 -0.2280 -0.5325 -0.4635
 2088SOL    MW4 8427   2.731   3.251   3.482 -0.0668 -0.5999  0.0968
 2089SOL     OW 8428   2.718   3.509   3.346 -0.2504 -0.5041  0.3706
 2089SOL    HW2 8429   2.717   3.417   3.374 -2.5981 -1.0652 -1.3412
 2089SOL    HW3 8430   2.657   3.553   3.406 -1.3348 -0.6638 -0.6036
 2089SOL    MW4 8431   2.710   3.503   3.358 -0.7036 -0.5991  0.0162
 2090SOL     OW 8432   2.908   3.580   3.514 -0.2024 -0.2596 -0.2620
 2090SOL    HW2 8433   2.926   3.665   3.474 -2.5093 -0.2304 -1.3004
 2090SOL    HW3 8434   2.832   3.547   3.467 -0.0359 -2.3961  0.9115
 2090SOL    MW4 8435   2.901   3.587   3.503 -0.4847 -0.5376 -0.2441
 2091SOL     OW 8436   2.950   3.834   3.384  0.0144  0.1038  0.0436
 2091SOL    HW2 8437   3.011   3.878   3.442 -2.1071  1.5044  1.2759
 2091SOL    HW3 8438   2.863   3.863   3.413 -1.3595 -3.0773 -0.5812
 2091SOL    MW4 8439   2.946   3.843   3.396 -0.4466 -0.1314  0.1237
 2092SOL     OW 8440   2.659   3.971   3.478 -0.0430 -0.0317 -0.2722
 2092SOL    HW2 8441   2.648   3.970   3.573 -1.3813  0.5629 -0.4208
 2092SOL    HW3 8442   2.668   4.063   3.455 -1.7226 -0.0173 -0.9399
 2092SOL    MW4 8443   2.659   3.983   3.488 -0.4413  0.0486 -0.3798
 2093SOL     OW 8444   2.702   4.226   3.391  0.0959  0.1315  0.5412
 2093SOL    HW2 8445   2.780   4.260   3.436  0.7114  1.4237 -1.4625
 2093SOL    HW3 8446   2.631   4.283   3.419  0.7498  1.8610 -1.2114
 2093SOL    MW4 8447   2.703   4.238   3.401  0.2632  0.5312  0.0455
 2094SOL     OW 8448   2.922   4.369   3.502 -0.0676  0.1057 -0.3646
 2094SOL    HW2 8449   2.918   4.365   3.598  0.2471  0.3275 -0.3434
 2094SOL    HW3 8450   2.898   4.459   3.481  1.1320  0.4118 -0.4287
 2094SOL    MW4 8451   2.918   4.380   3.512  0.1323  0.1755 -0.3700
 2095SOL     OW 8452   3.364   0.018   3.363 -0.2420 -0.0485  0.1434
 2095SOL    HW2 8453   3.278   0.046   3.392 -0.7974 -0.7500 -0.7877
 2095SOL    HW3 8454   3.350  -0.011   3.273  0.6389 -1.7023  0.5276
 2095SOL    MW4 8455   3.351   0.018   3.355 -0.1991 -0.3586  0.0710
 2096SOL     OW 8456   3.152   0.089   3.510 -0.1224  0.1188  0.2975
 2096SOL    HW2 8457   3.148   0.180   3.480  0.0066 -0.3736 -1.2516
 2096SOL    HW3 8458   3.072   0.049   3.475  0.2208 -0.5611  0.2930
 2096SOL    MW4 8459   3.141   0.096   3.501 -0.0603 -0.0359  0.0925
 2097SOL     OW 8460   3.126   0.350   3.428  0.0906 -0.3610 -0.3846
 2097SOL    HW2 8461   3.052   0.396   3.469  1.9926  2.0167  0.5325
 2097SOL    HW3 8462   3.116   0.368   3.334  0.2687  1.2087 -0.1260
 2097SOL    MW4 8463   3.115   0.359   3.421  0.3648  0.1598 -0.2296
 2098SOL     OW 8464   3.354   0.491   3.456  0.2165 -0.6359  0.3751
 2098SOL    HW2 8465   3.361   0.507   3.550 -1.0179  2.0300  0.0641
 2098SOL    HW3 8466   3.271   0.445   3.445  0.2265 -0.7013  0.5936
 2098SOL    MW4 8467   3.344   0.487   3.467  0.0548 -0.2928  0.3631
 2099SOL     OW 8468   3.363   0.757   3.365 -0.1939  0.1141  0.3131
 2099SOL    HW2 8469   3.445   0.796   3.395  0.3310 -0.7706  0.0681
 2099SOL    HW3 8470   3.380   0.662   3.368 -1.3089 -0.0849  0.5456
 2099SOL    MW4 8471   3.376   0.750   3.370 -0.2718 -0.0288  0.3116
 2100SOL     OW 8472   3.141   0.851   3.519 -0.6346  0.1959 -0.2696
 2100SOL    HW2 8473   3.127   0.930   3.467  0.8397  0.0015 -1.0012
 2100SOL    HW3 8474   3.213   0.806   3.475 -0.8431 -1.0998  0.6696
 2100SOL    MW4 8475   3.148   0.855   3.506 -0.4673 -0.0007 -0.2422
 2101SOL     OW 8476   3.112   1.105   3.395  0.5336 -0.1723 -0.2790
 2101SOL    HW2 8477   3.189   1.154   3.423  0.9122 -0.9721  0.0835
 2101SOL    HW3 8478   3.121   1.097   3.300  1.6387 -1.5211 -0.0654
 2101SOL    MW4 8479   3.123   1.110   3.386  0.7293 -0.4559 -0.2031
 2102SOL     OW 8480   3.347   1.221   3.489  0.2882 -0.4247  0.8605
 2102SOL    HW2 8481   3.331   1.206   3.582 -1.0855  0.6007  0.8019
 2102SOL    HW3 8482   3.341   1.316   3.478 -0.5867 -0.6136 -0.4509
 2102SOL    MW4 8483   3.344   1.232   3.500 -0.0083 -0.3142  0.6797
 2103SOL     OW 8484   3.348   1.518   3.434 -0.0998 -0.0472  0.1626
 2103SOL    HW2 8485   3.420   1.571   3.469 -0.8508 -0.1140  1.8328
 2103SOL    HW3 8486   3.269   1.569   3.455 -0.7884 -1.5683  1.2805
 2103SOL    MW4 8487   3.347   1.532   3.441 -0.2897 -0.2567  0.5302
 2104SOL     OW 8488   3.126   1.685   3.459  0.0282 -0.0838 -0.0202
 2104SOL    HW2 8489   3.156   1.773   3.436 -0.5255  0.6834  2.0867
 2104SOL    HW3 8490   3.034   1.683   3.432 -0.4215  0.5760  1.3823
 2104SOL    MW4 8491   3.118   1.696   3.453 -0.1042  0.1045  0.4430
 2105SOL     OW 8492   3.198   1.928   3.382 -0.0641 -0.3008 -0.2177
 2105SOL    HW2 8493   3.112   1.944   3.421 -0.0746  0.7232 -0.6377
 2105SOL    HW3 8494   3.185   1.942   3.288  0.7808  0.8692 -0.1742
 2105SOL    MW4 8495   3.185   1.932   3.375  0.0460 -0.0112 -0.2675
 2106SOL     OW 8496   3.396   2.092   3.472  0.3334  0.1818 -0.6460
 2106SOL    HW2 8497   3.387   2.177   3.429  1.9154  0.5797 -0.2371
 2106SOL    HW3 8498   3.319   2.043   3.445 -0.3345  1.5647 -1.3110
 2106SOL    MW4 8499   3.385   2.097   3.463  0.4542  0.4170 -0.6797
 2107SOL     OW 8500   3.385   2.368   3.383 -0.6127 -0.0550 -0.2934
 2107SOL    HW2 8501   3.460   2.419   3.411 -0.3559 -0.6363  0.0850
 2107SOL    HW3 8502   3.311   2.404   3.432 -0.2598 -0.7031  0.7332
 2107SOL    MW4 8503   3.385   2.379   3.393 -0.5324 -0.2172 -0.1078
 2108SOL     OW 8504   3.152   2.444   3.534  0.2635  0.7626 -0.1813
 2108SOL    HW2 8505   3.143   2.522   3.479 -1.8897  0.1184 -0.7851
 2108SOL    HW3 8506   3.094   2.379   3.493  0.6812 -0.5864  1.3241
 2108SOL    MW4 8507   3.143   2.445   3.521  0.0348  0.4997 -0.0622
 2109SOL     OW 8508   3.137   2.676   3.382  0.0443 -0.1666 -0.0648
 2109SOL    HW2 8509   3.204   2.734   3.417  1.1197 -0.9713 -0.7384
 2109SOL    HW3 8510   3.055   2.720   3.401  0.8212  1.4087 -0.2541
 2109SOL    MW4 8511   3.135   2.690   3.389  0.2887 -0.0651 -0.1783
 2110SOL     OW 8512   3.355   2.834   3.467 -0.2618  0.0600  0.1575
 2110SOL    HW2 8513   3.443   2.812   3.436 -0.4363  0.4927 -0.6412
 2110SOL    HW3 8514   3.348   2.929   3.454 -1.5493 -0.2605 -1.5511
 2110SOL    MW4 8515   3.366   2.844   3.461 -0.4544  0.0749 -0.1733
 2111SOL     OW 8516   3.390   3.102   3.398  0.0627 -0.1858  0.5029
 2111SOL    HW2 8517   3.457   3.154   3.444 -0.3001  1.1551 -0.4594
 2111SOL    HW3 8518   3.307   3.134   3.433 -0.1361 -0.6903  0.4895
 2111SOL    MW4 8519   3.388   3.113   3.409 -0.0114 -0.0753  0.3741
 2112SOL     OW 8520   3.157   3.222   3.476  0.3755  0.1269 -0.4813
 2112SOL    HW2 8521   3.153   3.315   3.456  2.5701  0.2102 -0.6690
 2112SOL    HW3 8522   3.174   3.218   3.571  0.2665 -0.0771 -0.4698
 2112SOL    MW4 8523   3.159   3.233   3.486  0.6506  0.1111 -0.5045
 2113SOL     OW 8524   3.146   3.482   3.404 -0.2477 -0.2519  0.2273
 2113SOL    HW2 8525   3.058   3.512   3.425 -0.3946 -0.9817  0.6581
 2113SOL    HW3 8526   3.154   3.496   3.310 -1.0249 -0.7140  0.0938
 2113SOL    MW4 8527   3.136   3.488   3.394 -0.3695 -0.4094  0.2666
 2114SOL     OW 8528   3.355   3.609   3.560  0.4698 -0.2265  0.0219
 2114SOL    HW2 8529   3.364   3.695   3.519  1.9317 -0.0647  0.6298
 2114SOL    HW3 8530   3.276   3.572   3.521 -0.3490  1.5045 -0.0270
 2114SOL    MW4 8531   3.346   3.616   3.550  0.5546  0.0234  0.0956
 2115SOL     OW 8532   3.359   3.857   3.392  0.4084 -0.0844  0.3062
 2115SOL    HW2 8533   3.437   3.906   3.418 -1.3449  3.7737 -1.2993
 2115SOL    HW3 8534   3.290   3.889   3.450 -0.4583 -1.8839  0.3060
 2115SOL    MW4 8535   3.360   3.868   3.403  0.0627  0.1874  0.0947
 2116SOL     OW 8536   3.139   3.954   3.549  0.4639  0.2331 -0.4005
 2116SOL    HW2 8537   3.131   3.971   3.643  0.2605  0.7171 -0.5044
 2116SOL    HW3 8538   3.158   4.040   3.510 -0.1991  0.1630 -0.8862
 2116SOL    MW4 8539   3.140   3.968   3.556  0.3498  0.2878 -0.4783
 2117SOL     OW 8540   3.155   4.215   3.436  0.1831 -0.1918  0.3091
 2117SOL    HW2 8541   3.232   4.271   3.432  1.6015 -1.6846  4.1828
 2117SOL    HW3 8542   3.088   4.269   3.478  0.5016 -0.3272  0.9884
 2117SOL    MW4 8543   3.156   4.229   3.441  0.4122 -0.4067  0.9098
 2118SOL     OW 8544   3.350   4.419   3.453 -0.3167  0.5896 -0.1867
 2118SOL    HW2 8545   3.347   4.412   3.549  2.7302  0.7782 -0.0392
 2118SOL    HW3 8546   3.363   4.512   3.437  1.2771  0.2712 -0.7206
 2118SOL    MW4 8547   3.351   4.430   3.464  0.2954  0.5727 -0.2377
 2119SOL     OW 8548   3.810   4.615   3.355  0.1485 -0.3817 -0.5541
 2119SOL    HW2 8549   3.737   4.664   3.394  1.3742  1.1329 -0.1172
 2119SOL    HW3 8550   3.793   4.616   3.261 -0.7223 -0.5743 -0.4002
 2119SOL    MW4 8551   3.798   4.621   3.348  0.1955 -0.2074 -0.4761
 2120SOL     OW 8552   3.627   0.123   3.478  0.1570  0.0692 -0.5612
 2120SOL    HW2 8553   3.635   0.217   3.462 -1.3571  0.5555  1.2979
 2120SOL    HW3 8554   3.542   0.100   3.442 -0.4333 -0.1203  0.9102
 2120SOL    MW4 8555   3.617   0.133   3.471 -0.1206  0.1083 -0.1223
 2121SOL     OW 8556   3.607   0.386   3.363  0.5096  0.2217  0.1159
 2121SOL    HW2 8557   3.669   0.452   3.393  0.1474  0.9825 -0.7812
 2121SOL    HW3 8558   3.523   0.413   3.400  0.5563 -0.3609  0.6617
 2121SOL    MW4 8559   3.604   0.398   3.372  0.4683  0.2452  0.0696
 2122SOL     OW 8560   3.817   0.540   3.467 -0.3773  0.0689  0.0917
 2122SOL    HW2 8561   3.788   0.516   3.555 -0.0391 -1.2114 -0.1380
 2122SOL    HW3 8562   3.899   0.492   3.454 -0.5583  0.0460 -1.0191
 2122SOL    MW4 8563   3.824   0.530   3.477 -0.3567 -0.1030 -0.0851
 2123SOL     OW 8564   3.849   0.795   3.361 -0.1006  0.3300 -0.6102
 2123SOL    HW2 8565   3.909   0.852   3.409  0.0538  0.5642 -1.0840
 2123SOL    HW3 8566   3.862   0.709   3.401 -0.7210  0.7231  0.4612
 2123SOL    MW4 8567   3.859   0.791   3.373 -0.1619  0.4128 -0.5312
 2124SOL     OW 8568   3.594   0.895   3.443 -0.1265 -0.1033  0.4120
 2124SOL    HW2 8569   3.610   0.889   3.538  0.7355  0.8052  0.3362
 2124SOL    HW3 8570   3.667   0.848   3.404 -0.8936 -1.1301  0.2188
 2124SOL    MW4 8571   3.606   0.888   3.451 -0.1137 -0.1190  0.3765
 2125SOL     OW 8572   3.571   1.146   3.369 -0.0876  0.0282  0.0460
 2125SOL    HW2 8573   3.573   1.053   3.389  0.1456 -0.0194 -0.2033
 2125SOL    HW3 8574   3.493   1.179   3.414 -1.0951 -0.5919 -1.2124
 2125SOL    MW4 8575   3.561   1.138   3.377 -0.1895 -0.0597 -0.1528
 2126SOL     OW 8576   3.794   1.254   3.489  0.0673 -0.6383  0.3766
 2126SOL    HW2 8577   3.788   1.243   3.584  0.5868 -1.7671  0.2787
 2126SOL    HW3 8578   3.714   1.213   3.456  0.0786 -0.5894  0.2891
 2126SOL    MW4 8579   3.783   1.247   3.497  0.1371 -0.7808  0.3524
 2127SOL     OW 8580   3.790   1.523   3.430 -0.1305 -0.1204  0.2436
 2127SOL    HW2 8581   3.869   1.560   3.468 -0.8776 -0.3339  2.0618
 2127SOL    HW3 8582   3.793   1.430   3.453 -0.7714 -0.1857  0.0742
 2127SOL    MW4 8583   3.801   1.516   3.438 -0.3138 -0.1571  0.4611
 2128SOL     OW 8584   3.576   1.691   3.488  0.0923 -0.8910 -0.7213
 2128SOL    HW2 8585   3.585   1.780   3.455 -0.1441 -0.1838  1.0279
 2128SOL    HW3 8586   3.657   1.647   3.461  0.9039  0.3006 -0.3085
 2128SOL    MW4 8587   3.588   1.697   3.480  0.1683 -0.6404 -0.4363
 2129SOL     OW 8588   3.611   1.938   3.386  0.0033 -0.2963 -0.2402
 2129SOL    HW2 8589   3.691   1.990   3.395 -0.0805 -0.5007  2.0240
 2129SOL    HW3 8590   3.541   1.996   3.417 -0.4828 -0.7926 -0.3946
 2129SOL    MW4 8591   3.612   1.952   3.391 -0.0718 -0.3887  0.0381
 2130SOL     OW 8592   3.853   2.077   3.444 -0.4965 -0.4764  0.1210
 2130SOL    HW2 8593   3.841   2.065   3.538 -1.1538  0.6454  0.1928
 2130SOL    HW3 8594   3.931   2.026   3.423 -0.3156 -0.6904  1.2792
 2130SOL    MW4 8595   3.861   2.069   3.453 -0.5593 -0.3567  0.2832
 2131SOL     OW 8596   3.820   2.321   3.337  0.1360  0.0192  0.2021
 2131SOL    HW2 8597   3.901   2.365   3.366  0.6165 -1.6696  1.4885
 2131SOL    HW3 8598   3.819   2.239   3.385 -2.1870 -0.1499 -0.1012
 2131SOL    MW4 8599   3.831   2.316   3.347 -0.1070 -0.2260  0.3321
 2132SOL     OW 8600   3.620   2.487   3.470  0.6817 -0.2256  0.7523
 2132SOL    HW2 8601   3.625   2.578   3.442  0.8480  0.2859  2.4549
 2132SOL    HW3 8602   3.692   2.444   3.423  1.8848  0.9249  1.5320
 2132SOL    MW4 8603   3.630   2.493   3.460  0.8624 -0.0062  1.0798
 2133SOL     OW 8604   3.599   2.745   3.375 -0.0041  0.4721  0.3972
 2133SOL    HW2 8605   3.673   2.788   3.417  0.3786  0.7569 -0.5523
 2133SOL    HW3 8606   3.622   2.744   3.282 -1.8955  1.9885 -0.1239
 2133SOL    MW4 8607   3.612   2.751   3.368 -0.2034  0.7095  0.2034
 2134SOL     OW 8608   3.824   2.857   3.507 -0.2857  0.2234 -0.2783
 2134SOL    HW2 8609   3.823   2.856   3.603  1.0071  1.2175 -0.2387
 2134SOL    HW3 8610   3.826   2.950   3.484  0.3869 -0.0246 -1.2511
 2134SOL    MW4 8611   3.824   2.869   3.517 -0.0265  0.3219 -0.4015
 2135SOL     OW 8612   3.783   3.119   3.381 -0.4074 -0.0057 -0.4382
 2135SOL    HW2 8613   3.867   3.150   3.414 -0.0327 -1.6817  0.2211
 2135SOL    HW3 8614   3.802   3.086   3.293 -0.0784 -1.7304  0.2717
 2135SOL    MW4 8615   3.796   3.119   3.374 -0.3145 -0.4549 -0.2573
 2136SOL     OW 8616   3.587   3.240   3.519  0.2968  0.4318 -0.3139
 2136SOL    HW2 8617   3.606   3.227   3.612  0.1866  1.1006 -0.1951
 2136SOL    HW3 8618   3.664   3.206   3.473 -0.2025 -1.0816 -0.0342
 2136SOL    MW4 8619   3.600   3.234   3.525  0.2162  0.3204 -0.2613
 2137SOL     OW 8620   3.564   3.490   3.397  0.0930 -0.6067 -0.1258
 2137SOL    HW2 8621   3.490   3.533   3.440 -1.1179 -1.1025 -1.6544
 2137SOL    HW3 8622   3.570   3.405   3.441 -0.0824 -0.4586  0.1878
 2137SOL    MW4 8623   3.555   3.484   3.409 -0.0899 -0.6526 -0.2859
 2138SOL     OW 8624   3.806   3.555   3.490  0.0706 -0.4095 -0.3433
 2138SOL    HW2 8625   3.812   3.558   3.586  0.8415  0.8014 -0.4168
 2138SOL    HW3 8626   3.712   3.544   3.473 -0.2627  0.8886  0.5363
 2138SOL    MW4 8627   3.794   3.554   3.501  0.1285 -0.0787 -0.2370
 2139SOL     OW 8628   3.827   3.815   3.389 -0.4033 -0.7095 -0.2215
 2139SOL    HW2 8629   3.746   3.860   3.414  0.8148  1.6734 -0.5132
 2139SOL    HW3 8630   3.818   3.727   3.427 -1.2661  0.8700  3.4021
 2139SOL    MW4 8631   3.815   3.809   3.397 -0.3564 -0.1869  0.2179
 2140SOL     OW 8632   3.596   3.970   3.458  0.1757  0.6194 -0.0499
 2140SOL    HW2 8633   3.590   3.957   3.553  2.1355  0.1324  0.0311
 2140SOL    HW3 8634   3.598   4.065   3.447  3.7997  0.6767  0.7076
 2140SOL    MW4 8635   3.595   3.981   3.469  0.9124  0.5627  0.0608
 2141SOL     OW 8636   3.577   4.265   3.388 -0.0786 -0.4509  0.0931
 2141SOL    HW2 8637   3.502   4.321   3.408 -0.2721 -0.6306 -0.1256
 2141SOL    HW3 8638   3.584   4.267   3.292  1.4186  1.1618  0.1940
 2141SOL    MW4 8639   3.568   4.272   3.378  0.0930 -0.2618  0.0777
 2142SOL     OW 8640   3.788   4.397   3.507 -0.2480  0.3379 -0.0507
 2142SOL    HW2 8641   3.722   4.344   3.462  0.3560 -1.2166  0.8535
 2142SOL    HW3 8642   3.800   4.473   3.450 -1.0254 -0.5647 -1.4616
 2142SOL    MW4 8643   3.781   4.400   3.494 -0.2708  0.0143 -0.1173
 2143SOL     OW 8644   4.235   4.667   3.407 -0.2958 -0.4855 -0.0093
 2143SOL    HW2 8645   4.240   4.582   3.451  0.4214 -0.9643 -0.9892
 2143SOL    HW3 8646   4.314   4.714   3.435 -0.2325 -0.4931 -0.1733
 2143SOL    MW4 8647   4.246   4.662   3.416 -0.1926 -0.5493 -0.1602
 2144SOL     OW 8648   4.003   0.107   3.476 -0.2306  0.5263  0.2924
 2144SOL    HW2 8649   4.089   0.075   3.448 -0.3362 -0.6043  1.2529
 2144SOL    HW3 8650   3.941   0.047   3.436 -0.6211  1.5985 -0.7647
 2144SOL    MW4 8651   4.006   0.095   3.467 -0.2956  0.5186  0.2797
 2145SOL     OW 8652   4.031   0.372   3.386 -0.5706 -0.2318  0.2796
 2145SOL    HW2 8653   4.012   0.285   3.420  0.2936 -0.9654 -1.0870
 2145SOL    HW3 8654   4.024   0.363   3.291 -1.2728  1.3854  0.1548
 2145SOL    MW4 8655   4.027   0.359   3.378 -0.5488 -0.1152  0.0830
 2146SOL     OW 8656   4.236   0.487   3.528  0.2092 -0.1112 -0.5037
 2146SOL    HW2 8657   4.226   0.577   3.498 -2.4326  0.0056  0.6340
 2146SOL    HW3 8658   4.177   0.436   3.472 -0.7472 -0.6459  0.9647
 2146SOL    MW4 8659   4.227   0.492   3.516 -0.2656 -0.1663 -0.1597
 2147SOL     OW 8660   4.229   0.748   3.407  0.4234 -0.2540  0.6180
 2147SOL    HW2 8661   4.302   0.806   3.428 -0.5966  0.9152  0.9426
 2147SOL    HW3 8662   4.222   0.753   3.311  0.9011 -0.5450  0.5637
 2147SOL    MW4 8663   4.238   0.756   3.397  0.3519 -0.1382  0.6535
 2148SOL     OW 8664   4.053   0.942   3.531  0.0970  0.0050 -0.8133
 2148SOL    HW2 8665   4.051   1.023   3.478  1.0687 -0.0575 -0.9644
 2148SOL    HW3 8666   4.118   0.887   3.487  1.1569  0.0751  0.6251
 2148SOL    MW4 8667   4.061   0.946   3.518  0.3653  0.0060 -0.6433
 2149SOL     OW 8668   4.031   1.182   3.366 -0.2634 -0.3220 -0.3485
 2149SOL    HW2 8669   4.099   1.238   3.404 -0.1121  0.1289 -1.2494
 2149SOL    HW3 8670   3.949   1.215   3.402 -0.2164  0.8200 -1.2546
 2149SOL    MW4 8671   4.029   1.194   3.376 -0.2370 -0.1117 -0.5872
 2150SOL     OW 8672   4.241   1.306   3.495  0.1385 -0.0463 -0.2128
 2150SOL    HW2 8673   4.252   1.397   3.467  0.2027  0.2445  0.7537
 2150SOL    HW3 8674   4.317   1.260   3.458 -0.0968  0.2153 -1.0183
 2150SOL    MW4 8675   4.253   1.312   3.486  0.1159  0.0266 -0.1917
 2151SOL     OW 8676   4.253   1.552   3.387  0.0260  0.1627  1.0577
 2151SOL    HW2 8677   4.179   1.593   3.432 -0.9178  0.3538 -0.6246
 2151SOL    HW3 8678   4.228   1.551   3.295  1.4183 -1.3038  0.6676
 2151SOL    MW4 8679   4.240   1.557   3.381  0.0858 -0.0055  0.7842
 2152SOL     OW 8680   4.039   1.670   3.488  0.1420  0.4812 -0.0489
 2152SOL    HW2 8681   4.046   1.679   3.583 -0.8116 -0.4301  0.1152
 2152SOL    HW3 8682   4.053   1.758   3.455  1.3048  0.6649  0.8843
 2152SOL    MW4 8683   4.042   1.683   3.497  0.1698  0.3854  0.0958
 2153SOL     OW 8684   4.062   1.913   3.358 -0.1776 -0.1313  0.0821
 2153SOL    HW2 8685   4.133   1.970   3.388 -2.1326  2.3968  0.0665
 2153SOL    HW3 8686   4.069   1.913   3.263  0.3423 -0.6019  0.1202
 2153SOL    MW4 8687   4.072   1.921   3.350 -0.3667  0.1401  0.0849
 2154SOL     OW 8688   4.267   2.047   3.462  0.6792  0.3068 -0.1471
 2154SOL    HW2 8689   4.279   2.129   3.414  0.9325  0.0071 -0.6011
 2154SOL    HW3 8690   4.349   2.000   3.449  0.3323 -0.2463 -0.3281
 2154SOL    MW4 8691   4.279   2.052   3.454  0.6666  0.1943 -0.2308
 2155SOL     OW 8692   4.278   2.296   3.371  0.2899  0.3426  0.3325
 2155SOL    HW2 8693   4.199   2.339   3.405 -0.8957 -1.2571 -0.3731
 2155SOL    HW3 8694   4.276   2.313   3.277  0.7924  0.3017  0.3162
 2155SOL    MW4 8695   4.267   2.304   3.363  0.1998  0.1264  0.2372
 2156SOL     OW 8696   4.059   2.435   3.464 -0.1636  0.8072  0.0541
 2156SOL    HW2 8697   4.062   2.423   3.559  1.3994 -1.6781 -0.2890
 2156SOL    HW3 8698   4.071   2.529   3.452  0.0124  1.1041  2.2866
 2156SOL    MW4 8699   4.061   2.446   3.475  0.0653  0.5186  0.3033
 2157SOL     OW 8700   4.048   2.711   3.412  0.2200  1.0089 -0.5060
 2157SOL    HW2 8701   4.130   2.754   3.434  1.5396  0.0893 -3.4225
 2157SOL    HW3 8702   3.980   2.769   3.446  2.0236  2.4842  0.6576
 2157SOL    MW4 8703   4.050   2.724   3.420  0.6318  1.0822 -0.7372
 2158SOL     OW 8704   4.296   2.826   3.465  0.4039 -0.4612 -0.1861
 2158SOL    HW2 8705   4.307   2.818   3.560  1.4026 -0.5400 -0.2989
 2158SOL    HW3 8706   4.372   2.781   3.429 -1.2809 -2.6741 -1.0798
 2158SOL    MW4 8707   4.308   2.819   3.473  0.3138 -0.7634 -0.3188
 2159SOL     OW 8708   4.288   3.104   3.373 -0.0101 -0.1926 -0.1894
 2159SOL    HW2 8709   4.278   3.013   3.401  2.2266 -0.1083  1.0114
 2159SOL    HW3 8710   4.307   3.098   3.280 -2.1656 -0.8005 -0.6166
 2159SOL    MW4 8711   4.289   3.091   3.365  0.0005 -0.2615 -0.0875
 2160SOL     OW 8712   4.044   3.211   3.443 -0.1206  0.1509 -0.2566
 2160SOL    HW2 8713   4.054   3.304   3.425 -1.0728  0.1243 -0.9234
 2160SOL    HW3 8714   4.123   3.171   3.407 -1.5667  0.2091 -3.5732
 2160SOL    MW4 8715   4.056   3.218   3.436 -0.4368  0.1550 -0.7820
 2161SOL     OW 8716   4.055   3.477   3.384  0.0815 -0.1712  0.4367
 2161SOL    HW2 8717   4.122   3.540   3.411  0.2422 -0.6317  1.1390
 2161SOL    HW3 8718   3.972   3.517   3.411  0.2654 -0.7968  2.0187
 2161SOL    MW4 8719   4.053   3.491   3.391  0.1268 -0.3145  0.7381
 2162SOL     OW 8720   4.291   3.619   3.458  0.2291 -0.1332 -0.5353
 2162SOL    HW2 8721   4.288   3.605   3.552  1.2404  0.9948 -0.3303
 2162SOL    HW3 8722   4.281   3.713   3.447  2.7064  0.0623 -1.4201
 2162SOL    MW4 8723   4.289   3.629   3.469  0.6890  0.0415 -0.6249
 2163SOL     OW 8724   4.284   3.893   3.405 -0.1981  0.3196  0.3889
 2163SOL    HW2 8725   4.360   3.939   3.441  0.7098 -0.9770  0.1946
 2163SOL    HW3 8726   4.279   3.922   3.313  0.5249 -0.1633  0.1947
 2163SOL    MW4 8727   4.293   3.903   3.397  0.0167  0.0849  0.3376
 2164SOL     OW 8728   4.035   3.972   3.503  0.0348 -0.0710 -0.1841
 2164SOL    HW2 8729   4.122   3.942   3.476 -0.2649 -0.5182 -0.6609
 2164SOL    HW3 8730   3.977   3.899   3.482 -0.4979  0.3343 -0.1207
 2164SOL    MW4 8731   4.039   3.959   3.497 -0.0753 -0.0763 -0.2387
 2165SOL     OW 8732   4.001   4.255   3.375  0.3315 -0.1035 -0.5358
 2165SOL    HW2 8733   4.006   4.161   3.390  1.6623  0.0239 -0.1067
 2165SOL    HW3 8734   3.921   4.282   3.421  0.4565 -0.8773  0.1539
 2165SOL    MW4 8735   3.991   4.246   3.383  0.5238 -0.1884 -0.3884
 2166SOL     OW 8736   4.238   4.379   3.484 -0.0653  0.1245  0.6538
 2166SOL    HW2 8737   4.265   4.352   3.572  0.4322  0.5263  0.6286
 2166SOL    HW3 8738   4.154   4.335   3.470 -0.6388  0.8409  1.7343
 2166SOL    MW4 8739   4.231   4.370   3.494 -0.0753  0.2723  0.7930
 2167SOL     OW 8740   0.273   4.647   3.917 -0.5828 -0.0439 -0.0094
 2167SOL    HW2 8741   0.252   4.643   4.011 -1.2229 -0.0971 -0.1528
 2167SOL    HW3 8742   0.193   4.679   3.876 -0.2372  0.1695 -0.5176
 2167SOL    MW4 8743   0.260   4.650   3.924 -0.6217 -0.0229 -0.0951
 2168SOL     OW 8744   0.039   0.106   3.779 -0.0863 -0.3126 -0.4914
 2168SOL    HW2 8745   0.029   0.198   3.803  0.5377  0.0892 -1.7566
 2168SOL    HW3 8746   0.028   0.104   3.684 -1.7633 -1.7831 -0.2973
 2168SOL    MW4 8747   0.036   0.118   3.769 -0.2252 -0.4536 -0.6325
 2169SOL     OW 8748   4.483   0.359   3.864  0.1241 -0.2491 -0.0735
 2169SOL    HW2 8749   4.400   0.399   3.835 -0.1371  1.2690  2.5473
 2169SOL    HW3 8750   4.550   0.418   3.831  0.0539 -0.3774 -0.4561
 2169SOL    MW4 8751   4.481   0.372   3.856  0.0806 -0.0657  0.2220
 2170SOL     OW 8752   0.222   0.475   3.718 -0.3937  0.1326 -0.0956
 2170SOL    HW2 8753   0.204   0.561   3.755 -0.7553  0.6357 -1.4198
 2170SOL    HW3 8754   0.219   0.488   3.623 -0.7082 -1.3909 -0.3130
 2170SOL    MW4 8755   0.219   0.488   3.710 -0.4830 -0.0020 -0.2990
 2171SOL     OW 8756   0.199   0.726   3.850 -0.0041 -0.6074  0.0281
 2171SOL    HW2 8757   0.207   0.746   3.944  2.2262 -0.5681 -0.1309
 2171SOL    HW3 8758   0.127   0.781   3.820  0.0207  0.2603  1.4951
 2171SOL    MW4 8759   0.191   0.736   3.859  0.2934 -0.4877  0.2005
 2172SOL     OW 8760   0.004   0.872   3.752 -0.1338 -0.3762 -0.1635
 2172SOL    HW2 8761  -0.075   0.829   3.785 -0.7309  0.0832 -0.9672
 2172SOL    HW3 8762   0.003   0.958   3.792  0.0351 -0.4185 -0.0677
 2172SOL    MW4 8763  -0.006   0.877   3.762 -0.1898 -0.3211 -0.2570
 2173SOL     OW 8764   4.458   1.146   3.865 -0.3329 -0.4986  0.5998
 2173SOL    HW2 8765   4.381   1.190   3.829 -0.2298  0.1026  1.1010
 2173SOL    HW3 8766   4.533   1.188   3.822 -0.2296 -0.0909  1.1695
 2173SOL    MW4 8767   4.458   1.157   3.855 -0.3052 -0.3656  0.7410
 2174SOL     OW 8768   0.236   1.263   3.766 -0.0956 -0.1838  0.0261
 2174SOL    HW2 8769   0.236   1.345   3.816  0.6583 -0.0763 -0.1325
 2174SOL    HW3 8770   0.233   1.291   3.675 -0.2230 -0.3414 -0.0173
 2174SOL    MW4 8771   0.236   1.278   3.761 -0.0130 -0.1904 -0.0007
 2175SOL     OW 8772   0.226   1.528   3.889  0.3032 -0.0990  0.3239
 2175SOL    HW2 8773   0.250   1.525   3.982  0.3682 -0.8279  0.2855
 2175SOL    HW3 8774   0.137   1.565   3.889 -0.9559 -2.9426  0.9341
 2175SOL    MW4 8775   0.217   1.533   3.901  0.1457 -0.5703  0.3994
 2176SOL     OW 8776   0.007   1.675   3.774  0.5379  0.1413 -0.2779
 2176SOL    HW2 8777   0.013   1.765   3.807 -0.7066  0.6077 -1.2828
 2176SOL    HW3 8778   0.000   1.684   3.679  0.1238 -1.0028 -0.3674
 2176SOL    MW4 8779   0.007   1.688   3.766  0.3190  0.0519 -0.4222
 2177SOL     OW 8780   0.009   1.935   3.877  0.2836  0.0174  0.0104
 2177SOL    HW2 8781  -0.014   1.944   3.970 -0.9260  0.8399 -0.3589
 2177SOL    HW3 8782  -0.067   1.969   3.830  0.7828 -0.6291 -1.2962
 2177SOL    MW4 8783  -0.004   1.940   3.883  0.1903  0.0407 -0.2105
 2178SOL     OW 8784   0.228   2.037   3.753  0.3541 -0.2624 -0.0921
 2178SOL    HW2 8785   0.238   2.130   3.775 -2.3063  0.1690 -0.5456
 2178SOL    HW3 8786   0.149   2.009   3.800  1.4902 -2.4880  0.5774
 2178SOL    MW4 8787   0.219   2.045   3.762  0.1530 -0.4992 -0.0637
 2179SOL     OW 8788   0.262   2.312   3.867  0.6488  0.1731  0.3423
 2179SOL    HW2 8789   0.245   2.305   3.961  1.3045  0.6846  0.5025
 2179SOL    HW3 8790   0.189   2.365   3.833  1.0324  0.9754  0.7589
 2179SOL    MW4 8791   0.250   2.318   3.875  0.7859  0.3462  0.4182
 2180SOL     OW 8792   0.050   2.447   3.764 -0.1313  0.1564 -0.1322
 2180SOL    HW2 8793  -0.037   2.418   3.790 -0.0521  0.0251 -0.0125
 2180SOL    HW3 8794   0.058   2.535   3.801 -0.6796  0.6589 -1.1811
 2180SOL    MW4 8795   0.040   2.455   3.772 -0.1932  0.2053 -0.2549
 2181SOL     OW 8796   0.049   2.706   3.865  0.1483  0.0580 -0.3656
 2181SOL    HW2 8797   0.048   2.703   3.961 -0.6106 -0.2360 -0.3844
 2181SOL    HW3 8798   0.135   2.744   3.844  0.9439 -1.2908  0.3865
 2181SOL    MW4 8799   0.060   2.711   3.875  0.1531 -0.1590 -0.2689
 2182SOL     OW 8800   0.265   2.865   3.823  0.7785  0.6734 -0.0815
 2182SOL    HW2 8801   0.337   2.810   3.854  1.2450  1.1333 -0.3399
 2182SOL    HW3 8802   0.258   2.845   3.730 -0.0642 -0.0803  0.1376
 2182SOL    MW4 8803   0.274   2.855   3.815  0.7288  0.6347 -0.0865
 2183SOL     OW 8804   0.240   3.132   3.860  0.0340  0.4381  0.4954
 2183SOL    HW2 8805   0.248   3.134   3.955 -1.3075 -0.0508  0.6251
 2183SOL    HW3 8806   0.252   3.041   3.836 -0.6734  0.3897  0.3007
 2183SOL    MW4 8807   0.242   3.120   3.869 -0.2363  0.3672  0.4869
 2184SOL     OW 8808   4.458   3.190   3.759 -0.0634 -0.5565  0.4787
 2184SOL    HW2 8809   4.546   3.162   3.786 -0.3516 -2.4403 -0.4212
 2184SOL    HW3 8810   4.469   3.216   3.668 -0.4197 -0.7281  0.3879
 2184SOL    MW4 8811   4.471   3.190   3.751 -0.1484 -0.8276  0.3476
 2185SOL     OW 8812   0.002   3.452   3.829 -0.1554 -0.1169  0.3626
 2185SOL    HW2 8813   0.093   3.478   3.816 -0.4788  0.7754 -0.1392
 2185SOL    HW3 8814   0.002   3.358   3.814  0.7269 -0.1645  0.6129
 2185SOL    MW4 8815   0.014   3.443   3.825 -0.0817 -0.0055  0.3295
 2186SOL     OW 8816   0.250   3.563   3.769  0.0884  0.3723  0.2576
 2186SOL    HW2 8817   0.332   3.532   3.809 -0.0467 -0.4527 -0.0944
 2186SOL    HW3 8818   0.230   3.644   3.815  0.7839  0.2589  0.7688
 2186SOL    MW4 8819   0.258   3.570   3.780  0.1623  0.2482  0.2787
 2187SOL     OW 8820   0.221   3.832   3.868 -0.3210  0.1525 -0.0769
 2187SOL    HW2 8821   0.227   3.829   3.964 -1.0130  1.7310  0.0394
 2187SOL    HW3 8822   0.301   3.876   3.840  0.2796 -1.0730 -0.2858
 2187SOL    MW4 8823   0.232   3.838   3.877 -0.3331  0.1991 -0.0889
 2188SOL     OW 8824   0.001   4.008   3.776  0.1753 -0.6291 -0.2960
 2188SOL    HW2 8825  -0.074   3.958   3.809 -0.2707  1.8426  2.6458
 2188SOL    HW3 8826   0.077   3.952   3.794 -0.5199 -1.2269  0.8358
 2188SOL    MW4 8827   0.001   3.994   3.783  0.0248 -0.3822  0.2413
 2189SOL     OW 8828   0.019   4.234   3.922  0.0809  0.5127  0.1218
 2189SOL    HW2 8829   0.091   4.283   3.882 -0.1100 -0.5413 -1.5534
 2189SOL    HW3 8830   0.012   4.154   3.870 -0.5516 -0.6463  1.9404
 2189SOL    MW4 8831   0.027   4.230   3.909 -0.0278  0.2208  0.1409
 2190SOL     OW 8832   0.216   4.398   3.799 -0.0584 -0.0681 -0.2579
 2190SOL    HW2 8833   0.289   4.340   3.821 -0.4156 -0.0881  0.9153
 2190SOL    HW3 8834   0.241   4.483   3.835 -0.7030 -0.1277  0.3473
 2190SOL    MW4 8835   0.229   4.401   3.806 -0.1906 -0.0787 -0.0231
 2191SOL     OW 8836   0.649   4.613   3.865 -0.1733 -0.4705 -0.4481
 2191SOL    HW2 8837   0.640   4.522   3.837 -0.9249 -0.7927  0.7949
 2191SOL    HW3 8838   0.586   4.661   3.811 -0.1101 -0.7597 -0.7811
 2191SOL    MW4 8839   0.639   4.607   3.854 -0.2642 -0.5512 -0.3281
 2192SOL     OW 8840   0.451   0.079   3.737  0.3558 -0.2077 -0.4844
 2192SOL    HW2 8841   0.475   0.170   3.751 -0.7498 -0.1392  1.0701
 2192SOL    HW3 8842   0.389   0.059   3.807 -0.4575 -1.7614 -1.6097
 2192SOL    MW4 8843   0.446   0.088   3.748  0.1026 -0.4036 -0.4277
 2193SOL     OW 8844   0.451   0.350   3.817 -0.0976  0.2230  0.0105
 2193SOL    HW2 8845   0.525   0.402   3.788 -0.5383  1.9659  1.9281
 2193SOL    HW3 8846   0.374   0.392   3.777 -0.1512 -1.1329 -1.3673
 2193SOL    MW4 8847   0.450   0.362   3.808 -0.1628  0.2740  0.0815
 2194SOL     OW 8848   0.674   0.474   3.716 -0.2444  0.4479  0.1459
 2194SOL    HW2 8849   0.744   0.424   3.757 -0.3359  0.5802  0.4711
 2194SOL    HW3 8850   0.668   0.554   3.769  1.1919  1.6975 -1.4924
 2194SOL    MW4 8851   0.682   0.478   3.729 -0.0670  0.6302 -0.0274
 2195SOL     OW 8852   0.674   0.724   3.865  0.4873 -0.5115 -0.2365
 2195SOL    HW2 8853   0.751   0.771   3.834  0.6128 -0.3855  0.2599
 2195SOL    HW3 8854   0.600   0.770   3.825  0.6021  0.2215  0.3915
 2195SOL    MW4 8855   0.674   0.736   3.855  0.5190 -0.3981 -0.0880
 2196SOL     OW 8856   0.445   0.820   3.745  0.1973  0.0342  0.5846
 2196SOL    HW2 8857   0.451   0.910   3.777 -0.8257  0.6080 -0.8103
 2196SOL    HW3 8858   0.362   0.787   3.780 -1.4292  1.0053 -2.2716
 2196SOL    MW4 8859   0.435   0.828   3.754 -0.1523  0.2380  0.0236
 2197SOL     OW 8860   0.441   1.080   3.853 -0.4078  0.6189  0.2313
 2197SOL    HW2 8861   0.520   1.132   3.849 -0.4207  0.6920  0.9353
 2197SOL    HW3 8862   0.373   1.136   3.816  0.0112  0.2722 -1.1031
 2197SOL    MW4 8863   0.442   1.094   3.848 -0.3542  0.5829  0.1483
 2198SOL     OW 8864   0.643   1.271   3.785  0.4662  0.0344 -0.0881
 2198SOL    HW2 8865   0.724   1.230   3.814  0.8463  0.6952 -0.2127
 2198SOL    HW3 8866   0.643   1.260   3.689 -0.6544 -1.9008  0.0930
 2198SOL    MW4 8867   0.654   1.264   3.776  0.3685 -0.1336 -0.0808
 2199SOL     OW 8868   0.660   1.574   3.823 -0.2283  0.1213 -0.0602
 2199SOL    HW2 8869   0.733   1.612   3.774  0.0385 -1.1679 -0.7099
 2199SOL    HW3 8870   0.671   1.479   3.812 -0.6745 -0.1667  1.7782
 2199SOL    MW4 8871   0.671   1.566   3.815 -0.2519 -0.0868  0.0966
 2200SOL     OW 8872   0.414   1.631   3.700 -0.2279  0.4734 -0.1235
 2200SOL    HW2 8873   0.496   1.607   3.742  0.3766  2.7781  0.0910
 2200SOL    HW3 8874   0.347   1.590   3.754  0.6893  0.6787  1.1943
 2200SOL    MW4 8875   0.416   1.623   3.713 -0.0271  0.8047  0.0784
 2201SOL     OW 8876   0.444   1.910   3.823 -0.1907  0.3126  0.0995
 2201SOL    HW2 8877   0.414   1.823   3.794 -0.1789  0.4841 -0.4430
 2201SOL    HW3 8878   0.372   1.969   3.800 -0.2002  0.4440  0.4712
 2201SOL    MW4 8879   0.431   1.906   3.816 -0.1904  0.3526  0.0768
 2202SOL     OW 8880   0.687   2.019   3.760  0.2365 -0.0042 -0.2730
 2202SOL    HW2 8881   0.681   2.110   3.786  0.7910 -0.5003  1.6682
 2202SOL    HW3 8882   0.604   1.980   3.787  1.0101 -0.6327  1.2975
 2202SOL    MW4 8883   0.675   2.026   3.767  0.4117 -0.1526  0.1905
 2203SOL     OW 8884   0.717   2.300   3.832  0.1503  0.5456  0.3315
 2203SOL    HW2 8885   0.786   2.362   3.809  0.1864  0.7126  0.8906
 2203SOL    HW3 8886   0.635   2.348   3.817  0.1825  0.7965  0.9617
 2203SOL    MW4 8887   0.715   2.315   3.827  0.1593  0.6006  0.4883
 2204SOL     OW 8888   0.485   2.454   3.783  0.4581  0.1161 -0.0545
 2204SOL    HW2 8889   0.410   2.403   3.816  1.4588 -0.7360  0.9199
 2204SOL    HW3 8890   0.465   2.468   3.691 -0.0265 -1.7250 -0.2498
 2204SOL    MW4 8891   0.472   2.449   3.776  0.5262 -0.2394  0.0484
 2205SOL     OW 8892   0.477   2.700   3.936  0.1129  0.8156  0.7704
 2205SOL    HW2 8893   0.560   2.733   3.901 -1.4053  2.2929 -1.5630
 2205SOL    HW3 8894   0.465   2.616   3.893 -0.7492  1.6994 -0.7543
 2205SOL    MW4 8895   0.487   2.693   3.926 -0.2011  1.1270  0.2615
 2206SOL     OW 8896   0.682   2.813   3.766 -0.1746  0.4961 -0.2885
 2206SOL    HW2 8897   0.756   2.758   3.792  1.3063  2.8273  0.5250
 2206SOL    HW3 8898   0.698   2.832   3.673 -0.2370  0.3044 -0.3408
 2206SOL    MW4 8899   0.694   2.808   3.757  0.0126  0.7784 -0.1881
 2207SOL     OW 8900   0.713   3.079   3.854 -0.5250 -0.5422  0.2861
 2207SOL    HW2 8901   0.719   3.072   3.949 -0.6803  0.3687  0.3687
 2207SOL    HW3 8902   0.718   2.989   3.822  0.3905 -0.7755  1.1051
 2207SOL    MW4 8903   0.714   3.067   3.862 -0.4247 -0.4528  0.4051
 2208SOL     OW 8904   0.485   3.215   3.766  0.1023 -1.0713 -0.1028
 2208SOL    HW2 8905   0.553   3.155   3.797 -0.6261 -0.9048  1.8882
 2208SOL    HW3 8906   0.405   3.184   3.808 -0.5249  0.4766 -0.1344
 2208SOL    MW4 8907   0.484   3.203   3.776 -0.0766 -0.8450  0.1557
 2209SOL     OW 8908   0.482   3.476   3.881 -0.3888  0.0550  0.0354
 2209SOL    HW2 8909   0.563   3.523   3.865 -0.3511  0.2149  0.6814
 2209SOL    HW3 8910   0.494   3.391   3.837  0.6255 -0.4082  1.1704
 2209SOL    MW4 8911   0.494   3.471   3.873 -0.2500  0.0148  0.2704
 2210SOL     OW 8912   0.709   3.611   3.771  0.0405 -0.0178  0.6575
 2210SOL    HW2 8913   0.689   3.701   3.798 -3.7898 -1.1773  2.0123
 2210SOL    HW3 8914   0.685   3.609   3.678  1.0991  0.6154  0.3642
 2210SOL    MW4 8915   0.703   3.623   3.762 -0.3251 -0.0873  0.7977
 2211SOL     OW 8916   0.670   3.854   3.853  0.0668  0.0133  0.4320
 2211SOL    HW2 8917   0.669   3.862   3.948  0.9833  1.1738  0.3630
 2211SOL    HW3 8918   0.749   3.900   3.826 -0.5675  0.3330 -0.9438
 2211SOL    MW4 8919   0.680   3.861   3.862  0.1040  0.2086  0.2415
 2212SOL     OW 8920   0.443   3.992   3.762  0.0900  0.0264  0.5985
 2212SOL    HW2 8921   0.525   3.950   3.786  0.1663  0.2074  0.6514
 2212SOL    HW3 8922   0.435   3.977   3.668 -0.4702 -1.1390  0.8215
 2212SOL    MW4 8923   0.453   3.984   3.753  0.0261 -0.1035  0.6351
 2213SOL     OW 8924   0.434   4.244   3.883  0.2292  0.7647 -0.1681
 2213SOL    HW2 8925   0.518   4.283   3.861  2.0653 -2.2111  1.2579
 2213SOL    HW3 8926   0.428   4.167   3.828 -0.7948  0.0392  0.9349
 2213SOL    MW4 8927   0.444   4.239   3.873  0.3363  0.2761  0.1655
 2214SOL     OW 8928   0.669   4.348   3.767 -0.3939 -0.2110  0.3021
 2214SOL    HW2 8929   0.757   4.315   3.784 -0.3120  0.3132  0.9277
 2214SOL    HW3 8930   0.666   4.361   3.672  0.5596  0.7674  0.3975
 2214SOL    MW4 8931   0.680   4.346   3.757 -0.2573 -0.0129  0.3972
 2215SOL     OW 8932   1.083   4.655   3.854  0.0390 -0.1641 -0.4455
 2215SOL    HW2 8933   1.161   4.705   3.830  1.1421 -1.9688 -0.6807
 2215SOL    HW3 8934   1.093   4.571   3.810 -2.0622 -0.4217 -0.4981
 2215SOL    MW4 8935   1.094   4.650   3.845 -0.0926 -0.4358 -0.4833
 2216SOL     OW 8936   0.846   0.101   3.736 -0.0170 -0.3137 -0.2799
 2216SOL    HW2 8937   0.928   0.066   3.769 -0.1510  1.5044  2.0938
 2216SOL    HW3 8938   0.779   0.045   3.775  0.0362 -1.3831 -1.6838
 2216SOL    MW4 8939   0.848   0.089   3.746 -0.0277 -0.2149 -0.1521
 2217SOL     OW 8940   0.879   0.355   3.831 -0.2423 -0.5933  0.0330
 2217SOL    HW2 8941   0.871   0.342   3.926 -0.8730 -0.1806  0.0454
 2217SOL    HW3 8942   0.894   0.268   3.796 -0.4781 -0.8155  0.4734
 2217SOL    MW4 8943   0.880   0.342   3.839 -0.3566 -0.5681  0.0923
 2218SOL     OW 8944   1.118   0.501   3.819 -0.5908 -0.2395 -0.4321
 2218SOL    HW2 8945   1.190   0.448   3.853  1.4141  1.7269 -1.4775
 2218SOL    HW3 8946   1.040   0.447   3.831  0.9074 -1.9799  1.7078
 2218SOL    MW4 8947   1.117   0.487   3.825 -0.1285 -0.2097 -0.2880
 2219SOL     OW 8948   1.152   0.777   3.870  0.4619 -0.3866 -0.1937
 2219SOL    HW2 8949   1.125   0.768   3.961  2.4873 -0.1559  0.4364
 2219SOL    HW3 8950   1.162   0.688   3.838  0.9809 -0.4557  0.1713
 2219SOL    MW4 8951   1.150   0.764   3.878  0.7976 -0.3653 -0.0622
 2220SOL     OW 8952   0.900   0.878   3.798  0.0775  0.3337  0.0751
 2220SOL    HW2 8953   0.983   0.834   3.814  0.7170  1.2411 -0.6714
 2220SOL    HW3 8954   0.885   0.867   3.704 -0.0778  1.1493  0.0009
 2220SOL    MW4 8955   0.909   0.871   3.788  0.1414  0.5610 -0.0331
 2221SOL     OW 8956   0.874   1.149   3.853 -0.5629 -0.0807  0.3372
 2221SOL    HW2 8957   0.893   1.159   3.947  2.0154  0.3845 -0.1902
 2221SOL    HW3 8958   0.862   1.055   3.841 -0.8584 -0.1486  1.1367
 2221SOL    MW4 8959   0.875   1.138   3.864 -0.2617 -0.0284  0.3729
 2222SOL     OW 8960   1.114   1.246   3.735  0.3722 -0.1482 -0.1627
 2222SOL    HW2 8961   1.084   1.330   3.770 -0.1845 -0.3985 -0.0303
 2222SOL    HW3 8962   1.044   1.184   3.759 -0.1713 -0.2649 -2.0033
 2222SOL    MW4 8963   1.101   1.249   3.743  0.2272 -0.1966 -0.3884
 2223SOL     OW 8964   1.057   1.503   3.838  0.2738 -0.2013  0.4565
 2223SOL    HW2 8965   1.051   1.507   3.934 -1.9831  1.8183  0.2868
 2223SOL    HW3 8966   1.142   1.542   3.817  0.5234 -0.1139  1.5962
 2223SOL    MW4 8967   1.067   1.509   3.848  0.0091  0.0767  0.5844
 2224SOL     OW 8968   0.875   1.682   3.710 -0.4261 -0.2459 -0.0087
 2224SOL    HW2 8969   0.939   1.623   3.750 -0.7316  0.4390  1.5166
 2224SOL    HW3 8970   0.887   1.669   3.616  1.8069 -0.2923  0.2415
 2224SOL    MW4 8971   0.885   1.673   3.703 -0.1718 -0.1615  0.2258
 2225SOL     OW 8972   0.909   1.905   3.867 -0.3120  0.4231  0.3406
 2225SOL    HW2 8973   0.893   1.811   3.853  0.9407  0.2606 -0.0425
 2225SOL    HW3 8974   0.836   1.948   3.822 -1.0908 -0.3770  0.8163
 2225SOL    MW4 8975   0.897   1.898   3.859 -0.2495  0.2960  0.3529
 2226SOL     OW 8976   1.148   2.045   3.752 -0.1607  0.1147  0.1814
 2226SOL    HW2 8977   1.068   2.001   3.779 -0.2900  0.7458  0.8483
 2226SOL    HW3 8978   1.142   2.051   3.657 -0.6258 -0.3674  0.1818
 2226SOL    MW4 8979   1.137   2.040   3.743 -0.2391  0.1342  0.2694
 2227SOL     OW 8980   1.143   2.311   3.829 -0.3864  0.0039 -0.1164
 2227SOL    HW2 8981   1.136   2.312   3.924  0.5451  1.6053 -0.0399
 2227SOL    HW3 8982   1.162   2.220   3.807 -1.0570 -0.4622  1.1858
 2227SOL    MW4 8983   1.144   2.299   3.838 -0.3520  0.1538  0.0653
 2228SOL     OW 8984   0.924   2.467   3.750 -0.0849  0.5121 -0.0687
 2228SOL    HW2 8985   0.911   2.550   3.795  1.3869 -0.2636  1.8368
 2228SOL    HW3 8986   1.009   2.436   3.780  0.8657 -0.1257 -3.2654
 2228SOL    MW4 8987   0.933   2.474   3.760  0.2347  0.3257 -0.2394
 2229SOL     OW 8988   0.916   2.708   3.879 -0.0734  0.0576  0.2342
 2229SOL    HW2 8989   0.900   2.707   3.974 -0.3158  0.2196  0.1949
 2229SOL    HW3 8990   0.989   2.769   3.868 -0.1561  0.1702  0.3013
 2229SOL    MW4 8991   0.923   2.716   3.890 -0.1162  0.0942  0.2379
 2230SOL     OW 8992   1.134   2.865   3.831  0.2861  0.3202 -0.0770
 2230SOL    HW2 8993   1.212   2.824   3.870 -0.0913 -0.8972 -0.5810
 2230SOL    HW3 8994   1.146   2.959   3.848  1.1723  0.0164  1.0761
 2230SOL    MW4 8995   1.146   2.872   3.838  0.3532  0.1192  0.0086
 2231SOL     OW 8996   1.171   3.130   3.881 -0.2789 -0.1034  0.5657
 2231SOL    HW2 8997   1.238   3.186   3.842  0.3993 -0.0438  1.7809
 2231SOL    HW3 8998   1.092   3.146   3.829  1.1553 -1.7296 -2.1847
 2231SOL    MW4 8999   1.169   3.140   3.869 -0.0002 -0.3102  0.3631
 2232SOL     OW 9000   0.925   3.197   3.758 -0.1716 -0.1776 -0.0844
 2232SOL    HW2 9001   0.850   3.153   3.798 -0.3052  0.2470  0.1352
 2232SOL    HW3 9002   0.900   3.209   3.667 -0.2119 -0.3829 -0.1014
 2232SOL    MW4 9003   0.912   3.193   3.751 -0.1945 -0.1485 -0.0575
 2233SOL     OW 9004   0.943   3.452   3.852 -0.1192  0.3304 -0.1219
 2233SOL    HW2 9005   0.926   3.362   3.821  1.0271 -0.1876  0.7337
 2233SOL    HW3 9006   0.867   3.502   3.823 -0.7727 -0.9270 -0.6051
 2233SOL    MW4 9007   0.931   3.446   3.844 -0.0542  0.0966 -0.0730
 2234SOL     OW 9008   1.176   3.593   3.797  0.4583 -0.5257 -0.2280
 2234SOL    HW2 9009   1.145   3.677   3.832 -0.9263 -1.4034  0.7038
 2234SOL    HW3 9010   1.105   3.532   3.815  0.6979 -1.5278 -2.5201
 2234SOL    MW4 9011   1.163   3.596   3.804  0.3073 -0.7739 -0.4075
 2235SOL     OW 9012   1.116   3.845   3.868 -0.3910 -0.1904  0.2855
 2235SOL    HW2 9013   1.115   3.856   3.963 -0.5360  0.9446  0.1573
 2235SOL    HW3 9014   1.188   3.900   3.838  1.0434 -2.1977 -0.0842
 2235SOL    MW4 9015   1.126   3.854   3.876 -0.2209 -0.3054  0.2198
 2236SOL     OW 9016   0.901   3.978   3.770 -0.2300  0.6141  0.2118
 2236SOL    HW2 9017   0.978   3.931   3.800 -0.6431 -0.0220  0.2689
 2236SOL    HW3 9018   0.911   3.981   3.675 -0.5137 -0.1106  0.1636
 2236SOL    MW4 9019   0.913   3.972   3.761 -0.3220  0.4346  0.2131
 2237SOL     OW 9020   0.901   4.247   3.854 -0.9223  0.2711 -0.0470
 2237SOL    HW2 9021   0.883   4.233   3.947  0.3822 -0.0783  0.1713
 2237SOL    HW3 9022   0.907   4.158   3.817 -0.9803  0.3971 -0.3622
 2237SOL    MW4 9023   0.900   4.233   3.861 -0.7579  0.2418 -0.0596
 2238SOL     OW 9024   1.126   4.385   3.760  0.3182 -0.0591  0.1319
 2238SOL    HW2 9025   1.046   4.338   3.784  1.4854 -1.7138  0.8902
 2238SOL    HW3 9026   1.124   4.389   3.665 -1.0296  0.5730  0.1810
 2238SOL    MW4 9027   1.115   4.379   3.751  0.2944 -0.1941  0.2384
 2239SOL     OW 9028   1.582   4.635   3.810  0.4403 -0.0384  0.1416
 2239SOL    HW2 9029   1.588   4.638   3.905 -0.7099 -0.1675  0.2272
 2239SOL    HW3 9030   1.569   4.543   3.790  0.4691  0.0146 -0.1240
 2239SOL    MW4 9031   1.581   4.623   3.820  0.2923 -0.0482  0.1178
 2240SOL     OW 9032   1.324   0.081   3.766  0.3955  0.0266  0.4121
 2240SOL    HW2 9033   1.333   0.168   3.806 -0.8461  0.5950 -0.4910
 2240SOL    HW3 9034   1.410   0.041   3.776  0.7787  1.0756  1.4974
 2240SOL    MW4 9035   1.336   0.087   3.773  0.2822  0.2400  0.4363
 2241SOL     OW 9036   1.330   0.333   3.883 -0.0821 -0.3749 -0.1477
 2241SOL    HW2 9037   1.332   0.329   3.979 -0.1146 -0.0537 -0.1351
 2241SOL    HW3 9038   1.400   0.394   3.860 -0.9037  0.5218 -0.2769
 2241SOL    MW4 9039   1.340   0.340   3.893 -0.1948 -0.2142 -0.1631
 2242SOL     OW 9040   1.556   0.470   3.769 -0.3816  0.1085  0.5284
 2242SOL    HW2 9041   1.642   0.434   3.790 -0.6908 -0.5405  0.7229
 2242SOL    HW3 9042   1.560   0.560   3.800  0.2764  0.1251  0.4072
 2242SOL    MW4 9043   1.568   0.477   3.776 -0.3357  0.0250  0.5381
 2243SOL     OW 9044   1.577   0.731   3.890  0.4080  0.2647 -0.1033
 2243SOL    HW2 9045   1.637   0.792   3.848  0.4867  0.0045 -0.3729
 2243SOL    HW3 9046   1.489   0.762   3.866  0.4270  0.8077  0.5206
 2243SOL    MW4 9047   1.573   0.743   3.881  0.4209  0.3020 -0.0565
 2244SOL     OW 9048   1.361   0.894   3.745 -0.3841 -0.5560 -0.1445
 2244SOL    HW2 9049   1.366   0.985   3.777  2.0883 -0.6343 -0.2049
 2244SOL    HW3 9050   1.298   0.852   3.804 -1.3953  1.1233  0.0331
 2244SOL    MW4 9051   1.353   0.901   3.757 -0.1912 -0.3447 -0.1292
 2245SOL     OW 9052   1.333   1.137   3.892  0.3772 -0.3658  0.1172
 2245SOL    HW2 9053   1.404   1.195   3.864  0.3685 -0.4119  0.0029
 2245SOL    HW3 9054   1.257   1.166   3.842  0.0138  0.5092  1.1533
 2245SOL    MW4 9055   1.333   1.149   3.882  0.3281 -0.2564  0.2389
 2246SOL     OW 9056   1.541   1.304   3.785 -0.6181 -0.5266 -0.1083
 2246SOL    HW2 9057   1.621   1.267   3.822 -1.1638 -0.4649  1.1782
 2246SOL    HW3 9058   1.538   1.394   3.818 -0.5562 -0.1124 -1.2176
 2246SOL    MW4 9059   1.551   1.311   3.794 -0.6819 -0.4640 -0.0851
 2247SOL     OW 9060   1.554   1.563   3.878 -0.2885 -0.0795 -0.1859
 2247SOL    HW2 9061   1.549   1.557   3.974 -0.9416  1.3953 -0.1060
 2247SOL    HW3 9062   1.648   1.565   3.860 -0.1564 -0.6942  0.4017
 2247SOL    MW4 9063   1.566   1.563   3.889 -0.3573  0.0339 -0.0980
 2248SOL     OW 9064   1.314   1.636   3.769  0.8217  0.3714 -0.0890
 2248SOL    HW2 9065   1.316   1.729   3.792  0.5635 -0.4458  3.5041
 2248SOL    HW3 9066   1.396   1.601   3.804  0.4827 -0.9676 -0.5898
 2248SOL    MW4 9067   1.325   1.643   3.776  0.7430  0.0868  0.3188
 2249SOL     OW 9068   1.346   1.895   3.876 -0.0459 -0.6679 -0.0441
 2249SOL    HW2 9069   1.327   1.903   3.970 -0.8652 -1.1555 -0.1685
 2249SOL    HW3 9070   1.288   1.959   3.835 -1.8141 -2.5113 -0.4678
 2249SOL    MW4 9071   1.336   1.905   3.883 -0.3874 -0.9755 -0.1163
 2250SOL     OW 9072   1.571   2.028   3.809 -0.4617 -0.0206  0.1298
 2250SOL    HW2 9073   1.495   1.974   3.828 -0.4646  0.4953  1.6503
 2250SOL    HW3 9074   1.559   2.057   3.718 -1.8551 -0.2796  0.2308
 2250SOL    MW4 9075   1.559   2.025   3.799 -0.6460  0.0134  0.3438
 2251SOL     OW 9076   1.596   2.315   3.896  0.4215 -0.1593  0.2304
 2251SOL    HW2 9077   1.672   2.338   3.842  0.5251  0.1109  0.4902
 2251SOL    HW3 9078   1.577   2.224   3.873  0.6123 -0.1215 -0.0884
 2251SOL    MW4 9079   1.603   2.306   3.886  0.4604 -0.1187  0.2227
 2252SOL     OW 9080   1.377   2.470   3.769  0.0046  0.0787 -0.0242
 2252SOL    HW2 9081   1.447   2.418   3.809 -0.2304  0.8105  1.3848
 2252SOL    HW3 9082   1.298   2.418   3.782  0.0869 -0.1614 -0.4752
 2252SOL    MW4 9083   1.375   2.457   3.776 -0.0155  0.1435  0.1023
 2253SOL     OW 9084   1.350   2.695   3.917 -0.6805 -0.2770 -0.9273
 2253SOL    HW2 9085   1.386   2.679   4.005  1.6043  0.8674 -1.6138
 2253SOL    HW3 9086   1.353   2.609   3.875 -1.6028 -0.7932  0.0319
 2253SOL    MW4 9087   1.355   2.681   3.923 -0.5008 -0.1943 -0.8914
 2254SOL     OW 9088   1.556   2.867   3.808  0.3220  0.0237  0.2309
 2254SOL    HW2 9089   1.495   2.797   3.835  1.6379 -1.3056 -0.1739
 2254SOL    HW3 9090   1.569   2.852   3.715  0.4119  0.9959  0.0841
 2254SOL    MW4 9091   1.549   2.855   3.800  0.5074 -0.0236  0.1583
 2255SOL     OW 9092   1.615   3.120   3.899 -0.0538 -0.0973 -0.1071
 2255SOL    HW2 9093   1.600   3.120   3.994  0.7476  0.4439  0.0202
 2255SOL    HW3 9094   1.592   3.031   3.871  2.2533 -1.0596  0.9886
 2255SOL    MW4 9095   1.610   3.108   3.908  0.3563 -0.1528  0.0546
 2256SOL     OW 9096   1.408   3.268   3.769  0.1655 -0.1486 -0.0452
 2256SOL    HW2 9097   1.428   3.356   3.802  0.2814 -0.4006  0.5796
 2256SOL    HW3 9098   1.483   3.215   3.796 -0.4430 -0.6896  0.6140
 2256SOL    MW4 9099   1.421   3.272   3.777  0.1004 -0.2532  0.1242
 2257SOL     OW 9100   1.421   3.519   3.883  0.3959  0.1406  0.2180
 2257SOL    HW2 9101   1.487   3.573   3.840  0.5565  0.1110  0.4307
 2257SOL    HW3 9102   1.338   3.553   3.849  0.5842 -1.4758 -2.0148
 2257SOL    MW4 9103   1.419   3.531   3.873  0.4420 -0.0765 -0.0484
 2258SOL     OW 9104   1.626   3.639   3.742  0.0267  0.3221  0.1906
 2258SOL    HW2 9105   1.709   3.597   3.764  0.6491  1.6383  0.3924
 2258SOL    HW3 9106   1.631   3.725   3.783 -2.2270 -0.2776  1.8019
 2258SOL    MW4 9107   1.637   3.645   3.750 -0.1886  0.4165  0.4301
 2259SOL     OW 9108   1.602   3.877   3.879 -0.4060 -0.4945 -1.0201
 2259SOL    HW2 9109   1.612   3.880   3.974 -1.3016 -2.0737 -0.8621
 2259SOL    HW3 9110   1.512   3.907   3.864 -0.0111  0.5196 -1.4481
 2259SOL    MW4 9111   1.592   3.882   3.890 -0.4721 -0.5691 -1.0557
 2260SOL     OW 9112   1.372   3.980   3.789 -0.3591 -0.7215 -0.0539
 2260SOL    HW2 9113   1.352   4.072   3.808  2.3313 -0.0485 -0.2248
 2260SOL    HW3 9114   1.393   3.979   3.695 -1.9254 -1.8204 -0.4095
 2260SOL    MW4 9115   1.372   3.992   3.779 -0.2106 -0.7777 -0.1235
 2261SOL     OW 9116   1.326   4.256   3.882 -0.0813  0.1747  0.0791
 2261SOL    HW2 9117   1.406   4.293   3.846  0.0360  0.5896  0.7626
 2261SOL    HW3 9118   1.256   4.299   3.833  0.1205 -0.6491 -0.9526
 2261SOL    MW4 9119   1.327   4.267   3.871 -0.0392  0.1211  0.0334
 2262SOL     OW 9120   1.569   4.351   3.765  0.3241  0.4895  0.2743
 2262SOL    HW2 9121   1.656   4.330   3.800  0.4974  1.6682  0.5882
 2262SOL    HW3 9122   1.576   4.333   3.672  1.3862  1.9928  0.0426
 2262SOL    MW4 9123   1.582   4.346   3.757  0.4870  0.8440  0.2851
 2263SOL     OW 9124   2.003   4.653   3.852 -0.0109  0.2289  0.0260
 2263SOL    HW2 9125   2.076   4.693   3.805 -2.2003  1.3265 -2.5396
 2263SOL    HW3 9126   1.989   4.569   3.809 -0.7964  0.3859 -0.0331
 2263SOL    MW4 9127   2.011   4.647   3.840 -0.4034  0.3943 -0.3202
 2264SOL     OW 9128   1.802   0.115   3.733  0.1013 -0.1396 -0.0653
 2264SOL    HW2 9129   1.881   0.074   3.769  1.1980  0.9433 -1.1555
 2264SOL    HW3 9130   1.730   0.058   3.760  1.2605 -1.1544  0.9383
 2264SOL    MW4 9131   1.803   0.102   3.741  0.3990 -0.1306 -0.0768
 2265SOL     OW 9132   1.825   0.379   3.836 -0.4948  0.0915 -0.1743
 2265SOL    HW2 9133   1.825   0.376   3.931 -3.2713  1.6462 -0.0707
 2265SOL    HW3 9134   1.821   0.287   3.808  0.9180 -0.3924  1.1701
 2265SOL    MW4 9135   1.824   0.366   3.845 -0.6748  0.2328  0.0167
 2266SOL     OW 9136   2.017   0.551   3.732 -0.7200 -0.0547 -0.2182
 2266SOL    HW2 9137   1.956   0.494   3.778 -1.2314 -0.7871 -1.7750
 2266SOL    HW3 9138   2.014   0.521   3.642  1.5763  0.2296 -0.4078
 2266SOL    MW4 9139   2.009   0.540   3.726 -0.4845 -0.1138 -0.4489
 2267SOL     OW 9140   2.009   0.787   3.878 -0.2403 -0.0656  0.2382
 2267SOL    HW2 9141   1.996   0.756   3.968  1.4579  0.5970  0.7116
 2267SOL    HW3 9142   2.001   0.708   3.825 -0.4434 -0.5898  1.0311
 2267SOL    MW4 9143   2.006   0.772   3.883 -0.0432 -0.0473  0.4051
 2268SOL     OW 9144   1.756   0.885   3.741 -0.3576  0.2254  0.3841
 2268SOL    HW2 9145   1.846   0.866   3.768 -0.1455  0.7405  0.0509
 2268SOL    HW3 9146   1.758   0.880   3.645 -0.5346  0.9024  0.3466
 2268SOL    MW4 9147   1.768   0.882   3.732 -0.3530  0.3827  0.3355
 2269SOL     OW 9148   1.731   1.134   3.888  0.2645 -0.2301 -0.1615
 2269SOL    HW2 9149   1.755   1.117   3.979 -1.4531  0.6279  0.4920
 2269SOL    HW3 9150   1.743   1.050   3.843 -1.4462 -1.3842  1.4566
 2269SOL    MW4 9151   1.736   1.121   3.894 -0.1878 -0.2692  0.1383
 2270SOL     OW 9152   1.975   1.252   3.776 -0.1272  0.0433 -0.5046
 2270SOL    HW2 9153   2.055   1.204   3.797 -0.6782  0.1076  1.9274
 2270SOL    HW3 9154   1.912   1.222   3.841 -1.1612  2.3371 -0.4075
 2270SOL    MW4 9155   1.977   1.242   3.787 -0.3365  0.3545 -0.1707
 2271SOL     OW 9156   2.043   1.525   3.863 -0.3127 -0.3019 -0.3341
 2271SOL    HW2 9157   1.963   1.569   3.835 -0.9979 -1.3367 -0.0231
 2271SOL    HW3 9158   2.028   1.432   3.845  0.6154 -0.5656  0.1799
 2271SOL    MW4 9159   2.031   1.518   3.857 -0.2806 -0.4731 -0.2255
 2272SOL     OW 9160   1.817   1.644   3.804  0.7758  0.1596 -0.3527
 2272SOL    HW2 9161   1.838   1.721   3.856 -1.1498 -0.0057  0.7179
 2272SOL    HW3 9162   1.823   1.673   3.713  3.1822  0.7157 -0.0364
 2272SOL    MW4 9163   1.821   1.658   3.799  0.8392  0.2112 -0.1695
 2273SOL     OW 9164   1.825   1.916   3.906  0.3273  0.0377  0.3203
 2273SOL    HW2 9165   1.814   1.920   4.001  1.1922  0.7571  0.4000
 2273SOL    HW3 9166   1.744   1.951   3.870  0.9040  1.9033  0.8203
 2273SOL    MW4 9167   1.813   1.921   3.914  0.5175  0.3787  0.3970
 2274SOL     OW 9168   2.035   2.077   3.802  0.1883 -0.2824  0.0726
 2274SOL    HW2 9169   1.958   2.038   3.842  0.3748 -1.2983 -0.5463
 2274SOL    HW3 9170   2.021   2.069   3.708  0.2700  1.0741 -0.0718
 2274SOL    MW4 9171   2.023   2.071   3.795  0.2234 -0.2372 -0.0281
 2275SOL     OW 9172   2.074   2.335   3.879 -0.1256 -0.1980  0.2449
 2275SOL    HW2 9173   2.010   2.380   3.823  0.3774 -0.2793 -0.4057
 2275SOL    HW3 9174   2.072   2.244   3.850  0.4925 -0.1445  0.0229
 2275SOL    MW4 9175   2.065   2.329   3.868  0.0224 -0.2017  0.1299
 2276SOL     OW 9176   1.828   2.450   3.746 -0.0354  0.1664  0.4103
 2276SOL    HW2 9177   1.823   2.533   3.794 -2.2063 -0.2557  0.9537
 2276SOL    HW3 9178   1.808   2.474   3.655 -2.3254  0.0328  0.8419
 2276SOL    MW4 9179   1.825   2.464   3.740 -0.6239  0.0932  0.5391
 2277SOL     OW 9180   1.817   2.701   3.882  0.2670  0.4287 -0.0932
 2277SOL    HW2 9181   1.807   2.698   3.978  0.1023  0.3934 -0.1112
 2277SOL    HW3 9182   1.754   2.768   3.855  0.7374  0.8634 -0.1191
 2277SOL    MW4 9183   1.807   2.710   3.891  0.3073  0.4814 -0.0992
 2278SOL     OW 9184   2.037   2.834   3.740  0.0504 -0.3751  0.1351
 2278SOL    HW2 9185   2.113   2.796   3.782 -0.3168 -0.0123  1.1500
 2278SOL    HW3 9186   1.964   2.778   3.766 -0.3062  0.3263  0.6757
 2278SOL    MW4 9187   2.037   2.822   3.749 -0.0453 -0.2346  0.3405
 2279SOL     OW 9188   2.041   3.078   3.869  0.2607 -0.1411  0.2841
 2279SOL    HW2 9189   1.959   3.120   3.841  1.4425 -0.0728 -3.2744
 2279SOL    HW3 9190   2.035   2.989   3.834  1.5327 -0.2607  0.3621
 2279SOL    MW4 9191   2.029   3.071   3.861  0.5846 -0.1481 -0.1750
 2280SOL     OW 9192   1.817   3.226   3.733  0.4671  0.2888 -0.5459
 2280SOL    HW2 9193   1.843   3.309   3.774  0.9939 -1.0483  1.9603
 2280SOL    HW3 9194   1.748   3.192   3.789 -1.2395 -0.0075 -2.7483
 2280SOL    MW4 9195   1.812   3.232   3.746  0.3115  0.0734 -0.5059
 2281SOL     OW 9196   1.835   3.481   3.854 -0.3137  0.1712  0.1164
 2281SOL    HW2 9197   1.919   3.524   3.837 -1.0216  1.2613 -0.7053
 2281SOL    HW3 9198   1.832   3.471   3.949  0.6171  0.3923  0.1754
 2281SOL    MW4 9199   1.846   3.485   3.864 -0.2843  0.3440  0.0157
 2282SOL     OW 9200   2.077   3.630   3.836 -0.0786  0.0358 -0.1234
 2282SOL    HW2 9201   2.150   3.570   3.851  0.0964  0.2690 -0.0395
 2282SOL    HW3 9202   2.070   3.635   3.741  0.3441  0.4053 -0.1398
 2282SOL    MW4 9203   2.086   3.623   3.825  0.0005  0.1152 -0.1144
 2283SOL     OW 9204   2.033   3.903   3.892 -0.2208 -0.1078  0.0451
 2283SOL    HW2 9205   2.029   3.896   3.987 -1.1693 -0.9712 -0.0442
 2283SOL    HW3 9206   2.041   3.813   3.862  1.5717  0.2718 -0.6392
 2283SOL    MW4 9207   2.033   3.890   3.901 -0.1094 -0.1719 -0.0567
 2284SOL     OW 9208   1.811   4.012   3.758 -0.8089  0.1310 -0.3372
 2284SOL    HW2 9209   1.888   3.965   3.788 -0.5642  0.3998 -0.5295
 2284SOL    HW3 9210   1.739   3.978   3.810 -0.8480 -1.3347 -1.3265
 2284SOL    MW4 9211   1.812   4.002   3.769 -0.7819 -0.0272 -0.4930
 2285SOL     OW 9212   1.811   4.267   3.869 -0.1250  0.0413  0.2859
 2285SOL    HW2 9213   1.897   4.305   3.852 -0.3327  0.8619  1.0494
 2285SOL    HW3 9214   1.811   4.185   3.820  0.4925  0.8098 -1.0126
 2285SOL    MW4 9215   1.822   4.261   3.860 -0.0710  0.2508  0.2151
 2286SOL     OW 9216   2.030   4.381   3.777 -0.0711  0.0947 -0.2850
 2286SOL    HW2 9217   2.116   4.348   3.805 -0.0518  0.3353 -0.0610
 2286SOL    HW3 9218   2.033   4.377   3.682 -0.0883 -0.6150 -0.2584
 2286SOL    MW4 9219   2.042   4.376   3.768 -0.0708  0.0324 -0.2520
 2287SOL     OW 9220   2.477   4.636   3.875 -0.1012 -0.1108  0.2203
 2287SOL    HW2 9221   2.497   4.640   3.968 -0.7130  0.1709  0.3398
 2287SOL    HW3 9222   2.541   4.695   3.834 -0.8918  1.0591  0.6428
 2287SOL    MW4 9223   2.488   4.644   3.882 -0.2861  0.0806  0.2916
 2288SOL     OW 9224   2.251   0.109   3.778 -0.4484  0.2941  0.0396
 2288SOL    HW2 9225   2.319   0.058   3.822 -1.0685 -0.5767 -0.0060
 2288SOL    HW3 9226   2.279   0.113   3.687 -0.5900 -0.2761 -0.0280
 2288SOL    MW4 9227   2.264   0.103   3.772 -0.5491  0.1040  0.0248
 2289SOL     OW 9228   2.255   0.397   3.840 -0.3986  0.6217  0.2376
 2289SOL    HW2 9229   2.258   0.308   3.805  0.9038  1.2614 -1.2911
 2289SOL    HW3 9230   2.181   0.438   3.795 -0.1217  0.7529 -0.0947
 2289SOL    MW4 9231   2.245   0.390   3.830 -0.1905  0.7235 -0.0079
 2290SOL     OW 9232   2.472   0.545   3.749  0.3135  0.3270  0.0660
 2290SOL    HW2 9233   2.387   0.512   3.779 -0.0979  0.9496 -0.4058
 2290SOL    HW3 9234   2.473   0.527   3.655  0.5829  0.5924  0.0174
 2290SOL    MW4 9235   2.461   0.538   3.741  0.2944  0.4442 -0.0026
 2291SOL     OW 9236   2.462   0.790   3.881  0.0012 -0.2034 -0.1286
 2291SOL    HW2 9237   2.388   0.846   3.858 -0.9990 -1.1962  0.5727
 2291SOL    HW3 9238   2.451   0.712   3.826 -0.3968 -1.0428  1.0906
 2291SOL    MW4 9239   2.451   0.787   3.871 -0.1833 -0.4451  0.1247
 2292SOL     OW 9240   2.234   0.919   3.767  0.1929  0.0067  0.0003
 2292SOL    HW2 9241   2.155   0.877   3.802  0.0738  0.4783  0.2958
 2292SOL    HW3 9242   2.226   0.909   3.672 -1.7621  2.7832 -0.1718
 2292SOL    MW4 9243   2.222   0.912   3.759 -0.0806  0.4353  0.0167
 2293SOL     OW 9244   2.213   1.175   3.888  0.0768 -0.1925  0.3851
 2293SOL    HW2 9245   2.202   1.173   3.983  0.0479  0.2298  0.3914
 2293SOL    HW3 9246   2.228   1.084   3.864  1.2143 -0.1674  0.9375
 2293SOL    MW4 9247   2.214   1.163   3.898  0.2229 -0.1333  0.4590
 2294SOL     OW 9248   2.448   1.292   3.798  0.0105 -0.2514  0.0192
 2294SOL    HW2 9249   2.461   1.379   3.835 -0.5999 -0.3424  0.4421
 2294SOL    HW3 9250   2.362   1.264   3.829  0.7252 -1.5230  0.9208
 2294SOL    MW4 9251   2.439   1.300   3.807  0.0241 -0.4312  0.1941
 2295SOL     OW 9252   2.502   1.518   3.924  0.0839 -0.1153  0.3271
 2295SOL    HW2 9253   2.584   1.560   3.899 -0.3023 -0.1890 -1.0884
 2295SOL    HW3 9254   2.434   1.584   3.908 -0.1615 -0.1167  1.3136
 2295SOL    MW4 9255   2.504   1.532   3.919  0.0007 -0.1252  0.2706
 2296SOL     OW 9256   2.286   1.666   3.824  0.1004 -0.1951  0.6550
 2296SOL    HW2 9257   2.269   1.752   3.862 -0.5273 -0.1150  0.2012
 2296SOL    HW3 9258   2.212   1.612   3.853  0.3505 -0.5094  0.7147
 2296SOL    MW4 9259   2.274   1.670   3.833  0.0505 -0.2260  0.6032
 2297SOL     OW 9260   2.253   1.926   3.905 -0.1912 -0.3369 -0.5383
 2297SOL    HW2 9261   2.257   1.952   3.997 -0.8631 -0.6613 -0.4111
 2297SOL    HW3 9262   2.183   1.979   3.868  0.0761 -0.2098 -0.8650
 2297SOL    MW4 9263   2.245   1.936   3.913 -0.2446 -0.3629 -0.5651
 2298SOL     OW 9264   2.480   2.025   3.778  0.4408 -0.1103  0.2707
 2298SOL    HW2 9265   2.478   2.118   3.803 -0.0771 -0.0640  0.0566
 2298SOL    HW3 9266   2.395   1.991   3.806  1.0345 -0.7714  1.2902
 2298SOL    MW4 9267   2.468   2.033   3.785  0.4508 -0.1917  0.3769
 2299SOL     OW 9268   2.507   2.288   3.838  0.1421 -0.3565 -0.6271
 2299SOL    HW2 9269   2.583   2.328   3.795  0.2969 -0.6828 -0.6613
 2299SOL    HW3 9270   2.434   2.346   3.816  0.7919  1.3161  1.4420
 2299SOL    MW4 9271   2.507   2.301   3.829  0.2480 -0.1793 -0.3586
 2300SOL     OW 9272   2.314   2.462   3.762 -0.2628 -0.1690 -0.0267
 2300SOL    HW2 9273   2.235   2.419   3.795 -1.2353  1.0933 -0.6647
 2300SOL    HW3 9274   2.301   2.468   3.667  0.8350 -0.4071 -0.2044
 2300SOL    MW4 9275   2.302   2.457   3.754 -0.2463 -0.0341 -0.1342
 2301SOL     OW 9276   2.256   2.710   3.877  0.0201 -0.4146 -0.5401
 2301SOL    HW2 9277   2.256   2.710   3.972  1.2665  0.2561 -0.5261
 2301SOL    HW3 9278   2.269   2.619   3.853  0.8522 -0.4255 -0.0535
 2301SOL    MW4 9279   2.258   2.698   3.886  0.2944 -0.3273 -0.4740
 2302SOL     OW 9280   2.479   2.832   3.773 -0.0471 -0.6186 -0.3010
 2302SOL    HW2 9281   2.399   2.796   3.812  0.4739 -2.3558 -0.7859
 2302SOL    HW3 9282   2.462   2.831   3.679  0.1217  0.0636 -0.3378
 2302SOL    MW4 9283   2.466   2.827   3.766  0.0441 -0.7579 -0.3698
 2303SOL     OW 9284   2.490   3.099   4.139 -0.4725  0.2528  0.3008
 2303SOL    HW2 9285   2.496   3.008   4.169 -0.7619 -0.0955 -0.6818
 2303SOL    HW3 9286   2.504   3.095   4.045 -1.0152  1.1637  0.1674
 2303SOL    MW4 9287   2.493   3.086   4.131 -0.5827  0.3271  0.1535
 2304SOL     OW 9288   2.267   3.208   3.801  0.3416  0.0438 -0.0384
 2304SOL    HW2 9289   2.249   3.300   3.820  0.0840 -0.3893  2.0162
 2304SOL    HW3 9290   2.186   3.163   3.825  0.6603 -0.7858 -0.4962
 2304SOL    MW4 9291   2.254   3.214   3.807  0.3498 -0.1225  0.1721
 2305SOL     OW 9292   2.291   3.480   3.881  0.3781  0.1215  0.2131
 2305SOL    HW2 9293   2.280   3.493   3.975 -0.3041  2.0611 -0.1199
 2305SOL    HW3 9294   2.372   3.525   3.860  0.3135  0.0443 -0.2025
 2305SOL    MW4 9295   2.300   3.488   3.890  0.2797  0.3672  0.1142
 2306SOL     OW 9296   2.512   3.626   3.835  0.1934 -0.1638  0.2328
 2306SOL    HW2 9297   2.583   3.576   3.874  0.7116  0.1705 -0.2799
 2306SOL    HW3 9298   2.519   3.608   3.741 -0.9859 -0.8898  0.2624
 2306SOL    MW4 9299   2.522   3.617   3.828  0.1063 -0.2155  0.1688
 2307SOL     OW 9300   2.481   3.889   3.953  0.0345 -0.0645  0.3196
 2307SOL    HW2 9301   2.548   3.923   3.895  0.3567  0.7030  1.1410
 2307SOL    HW3 9302   2.492   3.794   3.948  0.2768  0.0050 -0.6080
 2307SOL    MW4 9303   2.491   3.881   3.945  0.1092  0.0460  0.3057
 2308SOL     OW 9304   2.264   3.998   3.774  0.4546 -0.5282 -0.1281
 2308SOL    HW2 9305   2.333   3.961   3.829  0.0322 -1.1983 -0.0394
 2308SOL    HW3 9306   2.183   3.967   3.814  0.0696  1.0571  0.3514
 2308SOL    MW4 9307   2.262   3.989   3.787  0.3479 -0.4075 -0.0529
 2309SOL     OW 9308   2.280   4.265   3.866 -0.2202 -0.0431  0.2537
 2309SOL    HW2 9309   2.280   4.275   3.961  1.2557  1.4685  0.1190
 2309SOL    HW3 9310   2.288   4.171   3.852  1.9842 -0.1076  1.6570
 2309SOL    MW4 9311   2.281   4.254   3.877  0.2651  0.1473  0.4213
 2310SOL     OW 9312   2.484   4.392   3.739 -0.4934 -0.0813 -0.2938
 2310SOL    HW2 9313   2.406   4.349   3.775 -0.8667  0.3207 -0.6133
 2310SOL    HW3 9314   2.491   4.474   3.788  0.5975 -0.7964  0.7682
 2310SOL    MW4 9315   2.475   4.397   3.750 -0.3986 -0.1230 -0.1962
 2311SOL     OW 9316   2.905   4.663   3.856 -0.2521  0.7846 -0.2508
 2311SOL    HW2 9317   2.903   4.682   3.949 -0.5400  0.0947 -0.1095
 2311SOL    HW3 9318   2.989   4.698   3.825  0.2894  0.1420  0.4617
 2311SOL    MW4 9319   2.916   4.670   3.864 -0.2186  0.6089 -0.1380
 2312SOL     OW 9320   2.686   0.123   3.733 -0.2828  0.0506  0.0192
 2312SOL    HW2 9321   2.775   0.100   3.758  0.1366  1.0496 -0.5328
 2312SOL    HW3 9322   2.680   0.101   3.640  0.2785  2.5171 -0.6460
 2312SOL    MW4 9323   2.697   0.117   3.724 -0.1535  0.5078 -0.1411
 2313SOL     OW 9324   2.649   0.377   3.877 -0.5457  0.4941 -0.1603
 2313SOL    HW2 9325   2.654   0.298   3.824  1.7958  0.2384  0.4024
 2313SOL    HW3 9326   2.584   0.432   3.832 -0.8311 -0.9585 -1.5707
 2313SOL    MW4 9327   2.641   0.374   3.864 -0.2744  0.2688 -0.2725
 2314SOL     OW 9328   2.890   0.532   3.791  0.0749  0.0876  0.2257
 2314SOL    HW2 9329   2.964   0.479   3.821 -1.2870 -1.0384  1.7303
 2314SOL    HW3 9330   2.813   0.487   3.827 -1.2846  1.6681 -0.6435
 2314SOL    MW4 9331   2.889   0.519   3.800 -0.2842  0.1475  0.3095
 2315SOL     OW 9332   2.910   0.802   3.846  0.2991 -0.1202 -0.3725
 2315SOL    HW2 9333   3.005   0.813   3.844  0.3082 -0.2935 -0.9579
 2315SOL    HW3 9334   2.895   0.712   3.816  0.0549 -0.7354  1.5159
 2315SOL    MW4 9335   2.920   0.792   3.842  0.2682 -0.2242 -0.2007
 2316SOL     OW 9336   2.675   0.922   3.761 -0.0412 -0.6317  0.1809
 2316SOL    HW2 9337   2.755   0.875   3.782 -0.0537 -0.8074 -0.1545
 2316SOL    HW3 9338   2.606   0.877   3.810 -0.0252 -0.8512  0.0038
 2316SOL    MW4 9339   2.676   0.910   3.770 -0.0408 -0.6839  0.1130
 2317SOL     OW 9340   2.647   1.148   3.911  0.0569 -0.0825  0.3871
 2317SOL    HW2 9341   2.664   1.072   3.855  1.4949  1.6505 -1.6189
 2317SOL    HW3 9342   2.572   1.191   3.870 -0.0473  0.1986  0.8666
 2317SOL    MW4 9343   2.639   1.143   3.898  0.2327  0.1832  0.1857
 2318SOL     OW 9344   2.858   1.291   3.775  0.2500  0.0944 -0.0559
 2318SOL    HW2 9345   2.883   1.373   3.820  0.5522  0.6604 -1.2424
 2318SOL    HW3 9346   2.775   1.266   3.816  0.2826  0.8538  0.4979
 2318SOL    MW4 9347   2.851   1.299   3.787  0.2940  0.2692 -0.1392
 2319SOL     OW 9348   2.941   1.527   3.891  0.1292  0.5633  0.1712
 2319SOL    HW2 9349   2.950   1.544   3.985  1.1929 -2.7470  0.7445
 2319SOL    HW3 9350   3.016   1.569   3.851  0.6434  0.4860  1.0379
 2319SOL    MW4 9351   2.952   1.535   3.898  0.3371  0.1163  0.3610
 2320SOL     OW 9352   2.713   1.665   3.833  0.3524  0.9295  0.1387
 2320SOL    HW2 9353   2.790   1.616   3.859 -0.3457 -0.5752 -0.5640
 2320SOL    HW3 9354   2.724   1.680   3.739 -0.7446 -0.3136 -0.2066
 2320SOL    MW4 9355   2.724   1.661   3.824  0.1154  0.5671  0.0005
 2321SOL     OW 9356   2.699   1.917   3.960 -0.1217  0.0426  0.7300
 2321SOL    HW2 9357   2.631   1.961   3.908 -0.0402 -0.0507  0.5410
 2321SOL    HW3 9358   2.700   1.827   3.926  0.8332  0.3183 -0.0128
 2321SOL    MW4 9359   2.690   1.911   3.948  0.0150  0.0666  0.6073
 2322SOL     OW 9360   2.939   2.259   3.892  0.2976 -0.0961  0.1067
 2322SOL    HW2 9361   3.012   2.318   3.871  0.7874 -0.8949 -0.4604
 2322SOL    HW3 9362   2.910   2.288   3.979  2.5550 -0.9925  1.1935
 2322SOL    MW4 9363   2.945   2.271   3.901  0.6602 -0.3197  0.1755
 2323SOL     OW 9364   3.152   2.414   3.810 -0.1499  0.0324 -0.0780
 2323SOL    HW2 9365   3.180   2.499   3.846 -3.3741  0.5536  1.3644
 2323SOL    HW3 9366   3.126   2.434   3.720  0.8637  0.1973 -0.3386
 2323SOL    MW4 9367   3.152   2.428   3.803 -0.4418  0.1230  0.0777
 2324SOL     OW 9368   2.737   2.411   3.754  0.3643  0.2481  0.5865
 2324SOL    HW2 9369   2.743   2.499   3.790  2.0868  0.1088  0.6734
 2324SOL    HW3 9370   2.807   2.362   3.798 -0.1473 -0.9777  0.0553
 2324SOL    MW4 9371   2.747   2.416   3.764  0.5243  0.0679  0.5281
 2325SOL     OW 9372   2.694   2.674   3.820 -0.0827 -0.3773  0.3734
 2325SOL    HW2 9373   2.613   2.714   3.789  1.2930  2.5172  0.3450
 2325SOL    HW3 9374   2.705   2.709   3.909  1.1257 -0.6967  0.3600
 2325SOL    MW4 9375   2.685   2.684   3.828  0.2582 -0.0374  0.3676
 2326SOL     OW 9376   2.950   3.077   3.794  0.4329  0.1087  0.2043
 2326SOL    HW2 9377   3.033   3.120   3.773  0.4099 -0.2791 -0.6687
 2326SOL    HW3 9378   2.883   3.143   3.774  0.4494 -0.0401 -0.3420
 2326SOL    MW4 9379   2.952   3.091   3.789  0.4320  0.0379  0.0172
 2327SOL     OW 9380   2.907   3.627   4.219  0.1764 -0.3845 -0.0976
 2327SOL    HW2 9381   2.819   3.608   4.252 -0.1919  1.1364 -0.1756
 2327SOL    HW3 9382   2.966   3.587   4.283 -0.5661  0.0487  0.8611
 2327SOL    MW4 9383   2.904   3.620   4.232  0.0298 -0.1268  0.0186
 2328SOL     OW 9384   2.525   3.097   3.874 -0.3772  0.1857  0.1363
 2328SOL    HW2 9385   2.525   3.012   3.831 -1.8564  0.7651 -1.0323
 2328SOL    HW3 9386   2.447   3.141   3.842 -0.4717  1.3928  1.9225
 2328SOL    MW4 9387   2.515   3.091   3.864 -0.5848  0.4215  0.2179
 2329SOL     OW 9388   2.706   3.468   3.926 -0.4363  0.3745 -0.1334
 2329SOL    HW2 9389   2.688   3.433   4.013 -0.4232  0.8165  0.0463
 2329SOL    HW3 9390   2.785   3.520   3.937  0.3502 -0.6862 -0.6978
 2329SOL    MW4 9391   2.714   3.470   3.939 -0.3307  0.2928 -0.1843
 2330SOL     OW 9392   2.938   3.611   3.932  0.2081  0.0855  0.1886
 2330SOL    HW2 9393   2.926   3.605   4.027  0.4262 -0.5145  0.1764
 2330SOL    HW3 9394   3.003   3.545   3.911  0.8455  0.8416 -0.2576
 2330SOL    MW4 9395   2.945   3.602   3.942  0.3209  0.1059  0.1283
 2331SOL     OW 9396   2.871   3.899   3.915  0.4339 -0.4892 -0.1509
 2331SOL    HW2 9397   2.865   3.910   4.010  2.7859  1.2274 -0.1555
 2331SOL    HW3 9398   2.911   3.812   3.904  1.4123 -0.1159  0.4559
 2331SOL    MW4 9399   2.876   3.889   3.926  0.8731 -0.2134 -0.0715
 2332SOL     OW 9400   2.664   3.986   3.767 -0.2044 -0.2720  0.2040
 2332SOL    HW2 9401   2.668   4.076   3.799  0.7445 -0.2620  0.0631
 2332SOL    HW3 9402   2.737   3.941   3.810 -0.5974 -0.9461  0.1793
 2332SOL    MW4 9403   2.674   3.992   3.777 -0.1311 -0.3598  0.1822
 2333SOL     OW 9404   2.681   4.270   3.889 -0.3158 -0.3582 -0.1171
 2333SOL    HW2 9405   2.763   4.309   3.858  0.6330 -0.8248  1.7480
 2333SOL    HW3 9406   2.613   4.316   3.840  1.0295  0.4717 -1.2395
 2333SOL    MW4 9407   2.683   4.281   3.879 -0.0131 -0.3104 -0.0193
 2334SOL     OW 9408   2.905   4.382   3.785 -0.4985  0.0044  0.0182
 2334SOL    HW2 9409   2.989   4.359   3.825 -0.3456  0.6124  0.0594
 2334SOL    HW3 9410   2.904   4.478   3.786 -1.1818 -0.0028 -0.0087
 2334SOL    MW4 9411   2.916   4.392   3.790 -0.5682  0.0834  0.0200
 2335SOL     OW 9412   3.370   4.618   3.862  0.2369  0.4677 -0.2900
 2335SOL    HW2 9413   3.410   4.587   3.943 -1.5542 -2.1429 -0.3053
 2335SOL    HW3 9414   3.441   4.659   3.814  1.2734  2.3696  2.7198
 2335SOL    MW4 9415   3.384   4.619   3.867  0.1373  0.3738  0.1049
 2336SOL     OW 9416   3.143   0.097   3.788  0.2653 -0.0006 -0.1528
 2336SOL    HW2 9417   3.219   0.055   3.830  0.9995  1.0996 -0.3592
 2336SOL    HW3 9418   3.161   0.090   3.694 -0.5660 -0.9703 -0.2471
 2336SOL    MW4 9419   3.156   0.090   3.781  0.2525  0.0166 -0.1926
 2337SOL     OW 9420   3.107   0.384   3.851 -1.0000  0.5718  0.2184
 2337SOL    HW2 9421   3.121   0.402   3.944 -0.8044  1.5952 -0.0056
 2337SOL    HW3 9422   3.129   0.291   3.841 -1.5620  0.3097  1.2981
 2337SOL    MW4 9423   3.112   0.374   3.862 -1.0483  0.6722  0.3314
 2338SOL     OW 9424   3.345   0.472   3.739 -0.4134 -0.3176 -0.6319
 2338SOL    HW2 9425   3.416   0.430   3.787 -1.0998 -1.5698 -0.6998
 2338SOL    HW3 9426   3.265   0.431   3.773 -0.9823 -0.3330 -1.9452
 2338SOL    MW4 9427   3.344   0.461   3.750 -0.5789 -0.4849 -0.8140
 2339SOL     OW 9428   3.403   0.730   3.857 -0.3665  0.0183  0.1805
 2339SOL    HW2 9429   3.405   0.727   3.952 -1.2903  1.1774  0.2503
 2339SOL    HW3 9430   3.379   0.641   3.830  0.0809 -0.3561  1.0126
 2339SOL    MW4 9431   3.400   0.718   3.866 -0.4292  0.1218  0.2997
 2340SOL     OW 9432   3.186   0.901   3.798  0.3568  0.4886 -0.3049
 2340SOL    HW2 9433   3.251   0.843   3.837 -0.0963 -0.7714 -1.3800
 2340SOL    HW3 9434   3.186   0.878   3.705 -0.9080  1.1772 -0.4904
 2340SOL    MW4 9435   3.195   0.890   3.791  0.1299  0.4132 -0.4714
 2341SOL     OW 9436   3.103   1.158   3.851 -0.0603 -0.4419 -0.0303
 2341SOL    HW2 9437   3.113   1.069   3.818  0.5715 -0.3450 -0.1041
 2341SOL    HW3 9438   3.015   1.184   3.823 -0.1796 -0.9768 -0.1618
 2341SOL    MW4 9439   3.092   1.150   3.843  0.0074 -0.4996 -0.0575
 2342SOL     OW 9440   3.342   1.221   3.763  0.2109  0.0339  0.1552
 2342SOL    HW2 9441   3.258   1.196   3.800  0.2194  0.3319  0.3690
 2342SOL    HW3 9442   3.349   1.315   3.778  0.1925  0.1662 -0.6360
 2342SOL    MW4 9443   3.332   1.230   3.770  0.2096  0.0906  0.0789
 2343SOL     OW 9444   3.363   1.527   3.798 -0.0861  0.0371  0.2883
 2343SOL    HW2 9445   3.287   1.583   3.783  0.9089  1.1653 -0.6060
 2343SOL    HW3 9446   3.377   1.529   3.893  0.0913  1.5056  0.2359
 2343SOL    MW4 9447   3.355   1.535   3.808  0.0687  0.3797  0.1636
 2344SOL     OW 9448   3.135   1.691   3.754 -0.2816 -0.1204  0.0406
 2344SOL    HW2 9449   3.139   1.770   3.807  0.8490  0.0382 -0.2690
 2344SOL    HW3 9450   3.145   1.722   3.664  0.6904 -0.6547 -0.0433
 2344SOL    MW4 9451   3.137   1.705   3.749 -0.0038 -0.1700 -0.0112
 2345SOL     OW 9452   2.904   1.996   3.782  0.5485 -0.5411 -0.1418
 2345SOL    HW2 9453   2.848   1.963   3.852  0.4880 -1.1857 -0.4872
 2345SOL    HW3 9454   2.919   2.088   3.804  1.4090 -1.0127  1.2879
 2345SOL    MW4 9455   2.898   2.004   3.794  0.6542 -0.6883  0.0014
 2346SOL     OW 9456   3.424   2.069   3.776  0.3705  0.1061  0.2587
 2346SOL    HW2 9457   3.337   2.037   3.800  1.0022 -0.9151  1.2052
 2346SOL    HW3 9458   3.419   2.081   3.681 -0.2552 -1.6753  0.0519
 2346SOL    MW4 9459   3.412   2.067   3.766  0.3715 -0.2637  0.3564
 2347SOL     OW 9460   3.656   2.469   3.749 -0.1382 -0.0098  0.1622
 2347SOL    HW2 9461   3.570   2.437   3.778 -0.3906  1.2550  0.8945
 2347SOL    HW3 9462   3.648   2.477   3.654 -1.2865  1.2818  0.3385
 2347SOL    MW4 9463   3.643   2.466   3.741 -0.3228  0.3273  0.2820
 2348SOL     OW 9464   3.419   2.328   3.842 -0.1223  0.3729  0.0606
 2348SOL    HW2 9465   3.330   2.357   3.822 -0.2699 -0.5179 -0.5957
 2348SOL    HW3 9466   3.422   2.237   3.813  1.5387  0.9109 -1.5357
 2348SOL    MW4 9467   3.407   2.320   3.835  0.0772  0.3266 -0.2365
 2349SOL     OW 9468   2.929   2.805   3.739  0.3263 -0.1185 -0.3118
 2349SOL    HW2 9469   2.845   2.768   3.765  0.5077 -0.3534 -0.0482
 2349SOL    HW3 9470   2.927   2.895   3.773  0.0802 -0.0368 -0.5341
 2349SOL    MW4 9471   2.918   2.812   3.747  0.3176 -0.1385 -0.3064
 2350SOL     OW 9472   3.404   2.776   3.747  0.1168 -0.3579 -0.0584
 2350SOL    HW2 9473   3.321   2.748   3.787 -0.4578  0.6114 -0.5459
 2350SOL    HW3 9474   3.385   2.779   3.653  0.6517  0.0688 -0.1542
 2350SOL    MW4 9475   3.390   2.773   3.740  0.1116 -0.1736 -0.1352
 2351SOL     OW 9476   3.449   3.018   3.882 -0.1110 -0.1177 -0.0079
 2351SOL    HW2 9477   3.430   2.930   3.849 -1.1771 -0.1691  0.7243
 2351SOL    HW3 9478   3.441   3.011   3.977 -0.0987  0.7434  0.0656
 2351SOL    MW4 9479   3.445   3.006   3.890 -0.2499 -0.0107  0.0982
 2352SOL     OW 9480   3.210   3.184   3.752 -0.2750  0.1085 -0.1082
 2352SOL    HW2 9481   3.194   3.264   3.802  0.3059  0.4285 -0.4312
 2352SOL    HW3 9482   3.266   3.132   3.808  0.5268  0.5451 -0.4934
 2352SOL    MW4 9483   3.215   3.188   3.766 -0.0925  0.2086 -0.2015
 2353SOL     OW 9484   3.142   3.403   3.909 -0.0180  0.1363 -0.1474
 2353SOL    HW2 9485   3.219   3.460   3.902 -0.2815  0.4489 -0.5130
 2353SOL    HW3 9486   3.131   3.389   4.003  0.0389  0.7070 -0.0509
 2353SOL    MW4 9487   3.151   3.409   3.921 -0.0451  0.2527 -0.1826
 2354SOL     OW 9488   3.366   3.568   3.845  0.3115  0.1620 -0.6707
 2354SOL    HW2 9489   3.366   3.661   3.865  3.0567 -0.0711  0.7503
 2354SOL    HW3 9490   3.360   3.563   3.750 -2.7107  1.6522 -0.6179
 2354SOL    MW4 9491   3.365   3.579   3.835  0.2747  0.3281 -0.4764
 2355SOL     OW 9492   3.387   3.852   3.905 -0.4762 -0.3789  0.2366
 2355SOL    HW2 9493   3.458   3.886   3.850 -0.9911  0.3272  0.0070
 2355SOL    HW3 9494   3.310   3.903   3.879 -0.2821  1.4757  3.1076
 2355SOL    MW4 9495   3.386   3.863   3.894 -0.5183 -0.0410  0.5848
 2356SOL     OW 9496   3.140   3.991   3.836 -0.1692 -0.7818  0.0475
 2356SOL    HW2 9497   3.154   4.084   3.853  0.8365 -0.9365  0.1041
 2356SOL    HW3 9498   3.045   3.980   3.838 -0.2704  0.1505  0.5240
 2356SOL    MW4 9499   3.129   4.002   3.839 -0.0501 -0.6785  0.1178
 2357SOL     OW 9500   3.144   4.271   3.874  0.2822 -0.2584  0.0293
 2357SOL    HW2 9501   3.159   4.263   3.968 -0.0705  1.7012  0.2567
 2357SOL    HW3 9502   3.228   4.302   3.839  0.2060 -0.3383 -0.2282
 2357SOL    MW4 9503   3.157   4.274   3.882  0.2255 -0.0105  0.0255
 2358SOL     OW 9504   3.393   4.348   3.765 -0.2805  0.2989 -0.0706
 2358SOL    HW2 9505   3.472   4.312   3.807  0.9740  1.0191 -1.7256
 2358SOL    HW3 9506   3.386   4.437   3.801 -0.3246  0.2446  0.0574
 2358SOL    MW4 9507   3.403   4.355   3.776 -0.1206  0.3867 -0.2720
 2359SOL     OW 9508   3.779   4.628   3.871 -0.0010 -0.7762 -0.0963
 2359SOL    HW2 9509   3.858   4.677   3.845  0.0367 -0.6456  0.2569
 2359SOL    HW3 9510   3.801   4.537   3.854  0.2680 -0.7504  0.0975
 2359SOL    MW4 9511   3.793   4.623   3.865  0.0393 -0.7558 -0.0243
 2360SOL     OW 9512   3.588   0.102   3.751  0.0894  0.2491 -0.3211
 2360SOL    HW2 9513   3.653   0.045   3.793  0.6337  1.3626  0.3799
 2360SOL    HW3 9514   3.603   0.091   3.657 -0.6251 -1.6864 -0.2181
 2360SOL    MW4 9515   3.598   0.093   3.744  0.0668  0.1406 -0.2148
 2361SOL     OW 9516   3.566   0.385   3.868  0.2630  0.4304 -0.2013
 2361SOL    HW2 9517   3.643   0.423   3.825  0.7472  0.1035  0.3632
 2361SOL    HW3 9518   3.559   0.297   3.833  0.8355  0.0593  0.5950
 2361SOL    MW4 9519   3.575   0.379   3.858  0.4025  0.3383 -0.0219
 2362SOL     OW 9520   3.798   0.504   3.744 -0.2217 -0.0218 -0.1668
 2362SOL    HW2 9521   3.870   0.452   3.779 -0.4975 -0.3801 -0.1306
 2362SOL    HW3 9522   3.812   0.591   3.780  1.1003  0.3111 -1.4257
 2362SOL    MW4 9523   3.810   0.509   3.753 -0.0832 -0.0251 -0.3281
 2363SOL     OW 9524   3.822   0.752   3.869  0.5221 -0.2580 -0.0927
 2363SOL    HW2 9525   3.886   0.821   3.851  0.4306  0.3078  1.5891
 2363SOL    HW3 9526   3.741   0.783   3.827  0.7203  0.2080 -0.1302
 2363SOL    MW4 9527   3.819   0.765   3.861  0.5367 -0.1219  0.1240
 2364SOL     OW 9528   3.623   0.862   3.711 -0.1215 -0.3120  0.3807
 2364SOL    HW2 9529   3.613   0.955   3.735 -1.7235 -0.4140  0.1429
 2364SOL    HW3 9530   3.550   0.818   3.754  1.1703 -1.6466  1.2852
 2364SOL    MW4 9531   3.612   0.869   3.720 -0.1624 -0.5016  0.4687
 2365SOL     OW 9532   3.562   1.102   3.836 -0.4054  0.0123 -0.1451
 2365SOL    HW2 9533   3.474   1.136   3.822 -0.4594  0.1757  0.5951
 2365SOL    HW3 9534   3.578   1.113   3.929  0.7810  0.9021 -0.4346
 2365SOL    MW4 9535   3.553   1.108   3.846 -0.2561  0.1513 -0.0861
 2366SOL     OW 9536   3.781   1.282   3.761 -0.3385  0.4070  0.1984
 2366SOL    HW2 9537   3.841   1.228   3.813  0.1804  1.5597  0.7945
 2366SOL    HW3 9538   3.694   1.251   3.786 -0.0094 -1.2156 -0.6028
 2366SOL    MW4 9539   3.778   1.271   3.771 -0.2265  0.3450  0.1709
 2367SOL     OW 9540   3.839   1.564   3.810 -0.3531 -0.3354  0.8640
 2367SOL    HW2 9541   3.835   1.472   3.783  1.5114 -0.3458  0.5421
 2367SOL    HW3 9542   3.751   1.598   3.792 -0.0665 -1.1390 -2.4426
 2367SOL    MW4 9543   3.827   1.556   3.804 -0.0691 -0.4427  0.3853
 2368SOL     OW 9544   3.598   1.673   3.766 -0.0308  0.1943  0.4921
 2368SOL    HW2 9545   3.514   1.627   3.773  0.8851 -1.6037 -0.0367
 2368SOL    HW3 9546   3.612   1.684   3.672  0.5654  0.0284  0.5572
 2368SOL    MW4 9547   3.589   1.668   3.754  0.1688 -0.0648  0.4306
 2369SOL     OW 9548   3.631   1.936   3.889 -0.6384  0.1420 -0.0046
 2369SOL    HW2 9549   3.627   1.846   3.856 -1.0116 -0.0461  0.5534
 2369SOL    HW3 9550   3.556   1.980   3.850  1.0418  0.9575 -2.4545
 2369SOL    MW4 9551   3.621   1.930   3.880 -0.4661  0.2249 -0.2539
 2370SOL     OW 9552   3.838   2.026   3.723  0.5867  0.2317 -0.1040
 2370SOL    HW2 9553   3.919   1.995   3.762 -0.2424  0.0074  1.4844
 2370SOL    HW3 9554   3.771   2.008   3.789 -0.7504  0.4356 -1.3741
 2370SOL    MW4 9555   3.840   2.019   3.737  0.3009  0.2289 -0.0620
 2371SOL     OW 9556   4.088   2.435   3.742 -0.3990 -0.1331 -0.1235
 2371SOL    HW2 9557   4.069   2.525   3.770 -1.8782 -0.0043 -1.4727
 2371SOL    HW3 9558   4.008   2.387   3.759  0.6721 -1.4079  1.3705
 2371SOL    MW4 9559   4.075   2.441   3.748 -0.4530 -0.2844 -0.1047
 2372SOL     OW 9560   3.866   2.305   3.812  0.2235  0.2596 -0.3572
 2372SOL    HW2 9561   3.866   2.214   3.784 -0.2301  0.3628 -0.6915
 2372SOL    HW3 9562   3.780   2.339   3.787  0.4356  0.8136 -0.3553
 2372SOL    MW4 9563   3.855   2.298   3.805  0.1919  0.3462 -0.4010
 2373SOL     OW 9564   3.635   2.696   3.932 -0.3616  0.0198  0.4512
 2373SOL    HW2 9565   3.659   2.619   3.880  1.5012  0.2629  0.9096
 2373SOL    HW3 9566   3.544   2.714   3.908 -0.2657 -1.2709 -0.9601
 2373SOL    MW4 9567   3.626   2.688   3.922 -0.1032 -0.1185  0.3257
 2374SOL     OW 9568   3.811   2.853   3.782 -0.3284  0.4624 -0.1689
 2374SOL    HW2 9569   3.890   2.801   3.798 -0.4678  0.3802  0.2661
 2374SOL    HW3 9570   3.745   2.815   3.840 -0.9095  0.0235 -1.1025
 2374SOL    MW4 9571   3.812   2.841   3.792 -0.4232  0.3936 -0.2348
 2375SOL     OW 9572   3.880   3.098   3.870  0.3064  0.5705 -0.5391
 2375SOL    HW2 9573   3.854   3.106   3.962 -0.3136  0.5636 -0.7138
 2375SOL    HW3 9574   3.867   3.005   3.849  1.7967  0.2792 -0.2313
 2375SOL    MW4 9575   3.875   3.087   3.879  0.4208  0.5312 -0.5217
 2376SOL     OW 9576   3.639   3.209   3.802  0.5151  0.0983 -0.1970
 2376SOL    HW2 9577   3.582   3.140   3.836  0.2812  0.5739  0.3811
 2376SOL    HW3 9578   3.727   3.179   3.823  0.3766  0.3530  0.7747
 2376SOL    MW4 9579   3.643   3.196   3.809  0.4659  0.1945  0.0074
 2377SOL     OW 9580   3.616   3.456   3.918  0.3374  0.1965 -0.0220
 2377SOL    HW2 9581   3.523   3.476   3.905  0.3956 -0.0546 -0.8207
 2377SOL    HW3 9582   3.629   3.373   3.872  1.5258  1.4763 -2.0429
 2377SOL    MW4 9583   3.605   3.448   3.910  0.5021  0.3321 -0.3939
 2378SOL     OW 9584   3.824   3.569   3.792  0.0074  0.2208  0.1631
 2378SOL    HW2 9585   3.805   3.663   3.794 -1.2877  0.0423 -1.9518
 2378SOL    HW3 9586   3.746   3.528   3.830 -0.0365 -0.0562 -0.2135
 2378SOL    MW4 9587   3.811   3.576   3.797 -0.1695  0.1607 -0.1657
 2379SOL     OW 9588   3.767   3.831   3.871  0.3196  0.6085 -0.1563
 2379SOL    HW2 9589   3.772   3.809   3.965 -1.3266  1.0226  0.0364
 2379SOL    HW3 9590   3.846   3.883   3.855  0.0075  1.5698  1.2874
 2379SOL    MW4 9591   3.778   3.835   3.882  0.0613  0.7899  0.0596
 2380SOL     OW 9592   3.568   3.961   3.740  0.3485 -0.0509 -0.2295
 2380SOL    HW2 9593   3.563   4.047   3.782 -1.4561  0.4973 -1.5066
 2380SOL    HW3 9594   3.642   3.918   3.783  0.6823  1.7705  1.0982
 2380SOL    MW4 9595   3.577   3.967   3.751  0.1547  0.2620 -0.2224
 2381SOL     OW 9596   3.611   4.227   3.872  0.1600 -0.7385  0.2038
 2381SOL    HW2 9597   3.621   4.205   3.964  1.8845 -0.8740  0.0120
 2381SOL    HW3 9598   3.697   4.260   3.846 -0.7595  0.8033 -0.9601
 2381SOL    MW4 9599   3.624   4.228   3.880  0.2663 -0.5541  0.0250
 2382SOL     OW 9600   3.836   4.370   3.797  0.2458  0.5412 -0.4418
 2382SOL    HW2 9601   3.923   4.339   3.820  0.3544  0.9669 -0.2862
 2382SOL    HW3 9602   3.836   4.373   3.701  0.3382  0.3640 -0.4477
 2382SOL    MW4 9603   3.847   4.366   3.787  0.2725  0.5741 -0.4222
 2383SOL     OW 9604   4.270   4.664   3.824  0.8985  0.1542  0.0644
 2383SOL    HW2 9605   4.276   4.641   3.916  1.1039 -0.4028 -0.0860
 2383SOL    HW3 9606   4.356   4.700   3.802  0.7156  0.6766  0.1919
 2383SOL    MW4 9607   4.282   4.666   3.833  0.9022  0.1497  0.0615
 2384SOL     OW 9608   4.002   0.109   3.778 -0.0336 -0.4368 -0.3412
 2384SOL    HW2 9609   4.083   0.064   3.802 -0.0655 -0.0254  0.5536
 2384SOL    HW3 9610   3.997   0.100   3.683  3.1926  3.0571 -0.9415
 2384SOL    MW4 9611   4.012   0.102   3.769  0.3877  0.0784 -0.3023
 2385SOL     OW 9612   4.017   0.364   3.892  0.0124  0.0093 -0.0452
 2385SOL    HW2 9613   4.017   0.361   3.987 -1.0072  1.4375  0.0027
 2385SOL    HW3 9614   4.018   0.272   3.865 -0.8809 -0.4074  1.3309
 2385SOL    MW4 9615   4.017   0.351   3.901 -0.2403  0.1428  0.1428
 2386SOL     OW 9616   4.246   0.495   3.813  0.1778 -0.6169  0.1566
 2386SOL    HW2 9617   4.176   0.443   3.851  0.1659  0.5767  1.8694
 2386SOL    HW3 9618   4.222   0.506   3.721 -1.2228 -1.2827  0.4357
 2386SOL    MW4 9619   4.234   0.490   3.806 -0.0086 -0.5472  0.4191
 2387SOL     OW 9620   4.275   0.789   3.872 -0.0036 -0.2400  0.2680
 2387SOL    HW2 9621   4.200   0.845   3.851 -0.7000 -0.6157  1.6998
 2387SOL    HW3 9622   4.246   0.701   3.850 -0.0109 -0.3946  0.8927
 2387SOL    MW4 9623   4.262   0.785   3.866 -0.0963 -0.3099  0.5393
 2388SOL     OW 9624   4.046   0.919   3.803  0.1889  0.4303  0.2935
 2388SOL    HW2 9625   4.038   1.009   3.836 -0.3472  0.5472 -0.1346
 2388SOL    HW3 9626   4.050   0.929   3.707  0.5129  0.0237  0.2656
 2388SOL    MW4 9627   4.045   0.932   3.794  0.1602  0.3921  0.2337
 2389SOL     OW 9628   3.988   1.166   3.885 -0.0215 -0.2800 -0.2512
 2389SOL    HW2 9629   4.008   1.168   3.979  1.7176  1.3332 -0.6290
 2389SOL    HW3 9630   4.056   1.220   3.845 -0.9850 -0.6250 -2.4078
 2389SOL    MW4 9631   4.000   1.174   3.892  0.0808 -0.1128 -0.5853
 2390SOL     OW 9632   4.212   1.280   3.777  0.2350 -0.0678  0.1228
 2390SOL    HW2 9633   4.232   1.365   3.817 -1.9833  0.2272  0.6644
 2390SOL    HW3 9634   4.209   1.299   3.683 -0.0204  0.3985  0.2212
 2390SOL    MW4 9635   4.214   1.294   3.770 -0.0916  0.0325  0.2074
 2391SOL     OW 9636   4.286   1.516   3.872  0.0561 -0.5598  0.1825
 2391SOL    HW2 9637   4.228   1.586   3.839 -0.9431 -1.4616  0.0029
 2391SOL    HW3 9638   4.373   1.543   3.845 -0.3032  0.6872  0.2037
 2391SOL    MW4 9639   4.290   1.529   3.864 -0.1230 -0.5143  0.1616
 2392SOL     OW 9640   4.076   1.695   3.776  0.3094  0.0765 -0.2019
 2392SOL    HW2 9641   4.072   1.779   3.821  0.4877 -0.1945  0.3301
 2392SOL    HW3 9642   3.992   1.653   3.794 -0.4706  0.8722 -1.9321
 2392SOL    MW4 9643   4.065   1.700   3.784  0.2303  0.1458 -0.3605
 2393SOL     OW 9644   4.069   1.956   3.861  0.5195  0.1170  0.4738
 2393SOL    HW2 9645   4.088   1.958   3.955 -1.0397  2.3521  0.7753
 2393SOL    HW3 9646   4.143   2.001   3.821  0.4450  0.5292  0.7885
 2393SOL    MW4 9647   4.081   1.962   3.868  0.3033  0.4661  0.5550
 2394SOL     OW 9648   4.295   2.068   3.738  0.8091 -0.4618 -0.5562
 2394SOL    HW2 9649   4.300   2.160   3.762 -2.3837 -0.7608  1.5863
 2394SOL    HW3 9650   4.280   2.068   3.644 -1.5966  1.3018 -0.1995
 2394SOL    MW4 9651   4.294   2.080   3.729  0.0706 -0.2687 -0.2265
 2395SOL     OW 9652   0.486   1.679   4.504 -0.0150  0.6517  0.2151
 2395SOL    HW2 9653   0.517   1.677   4.413  1.3302 -0.6943  0.6734
 2395SOL    HW3 9654   0.565   1.692   4.556 -0.6862  0.6807  1.2454
 2395SOL    MW4 9655   0.500   1.680   4.499  0.0740  0.4780  0.4120
 2396SOL     OW 9656   4.308   2.316   3.842 -0.5198 -0.5023 -0.2861
 2396SOL    HW2 9657   4.293   2.311   3.936  1.2194  3.3808  0.2601
 2396SOL    HW3 9658   4.239   2.374   3.809 -0.5244 -1.0502 -1.2735
 2396SOL    MW4 9659   4.297   2.323   3.850 -0.2909 -0.0622 -0.3443
 2397SOL     OW 9660   4.028   2.689   3.858 -0.1307  0.2068  0.6581
 2397SOL    HW2 9661   4.021   2.682   3.953 -0.2644  0.7574  0.6925
 2397SOL    HW3 9662   4.117   2.720   3.843  0.6049 -1.8908  0.4873
 2397SOL    MW4 9663   4.039   2.692   3.868 -0.0520  0.0024  0.6402
 2398SOL     OW 9664   4.284   2.757   3.757 -0.0118 -0.2607  0.1592
 2398SOL    HW2 9665   4.279   2.852   3.771 -0.2187 -0.0205 -1.4360
 2398SOL    HW3 9666   4.367   2.731   3.798  0.0568  0.6035  0.5809
 2398SOL    MW4 9667   4.294   2.766   3.764 -0.0300 -0.1147  0.0043
 2399SOL     OW 9668   4.235   3.025   3.752 -0.0451 -0.1501  0.2898
 2399SOL    HW2 9669   4.178   3.102   3.742  0.5163  0.0019 -1.8095
 2399SOL    HW3 9670   4.323   3.062   3.760  0.3152 -0.6017 -1.5195
 2399SOL    MW4 9671   4.239   3.040   3.752  0.0763 -0.1895 -0.2258
 2400SOL     OW 9672   4.062   3.244   3.717  0.0566 -0.1805 -0.2261
 2400SOL    HW2 9673   3.991   3.195   3.759 -0.5685  0.5522 -0.4167
 2400SOL    HW3 9674   4.051   3.227   3.624  0.7311 -0.8649 -0.1768
 2400SOL    MW4 9675   4.051   3.236   3.710  0.0634 -0.1743 -0.2449
 2401SOL     OW 9676   4.070   3.479   3.864  0.1950  0.3721  0.3025
 2401SOL    HW2 9677   4.063   3.388   3.835 -0.7251  0.4856  0.1766
 2401SOL    HW3 9678   3.992   3.522   3.831  0.2464  1.0337  1.0119
 2401SOL    MW4 9679   4.059   3.472   3.856  0.0801  0.4742  0.3798
 2402SOL     OW 9680   4.268   3.598   3.733 -0.2442 -0.5961 -0.0973
 2402SOL    HW2 9681   4.199   3.539   3.763  0.2182 -1.1468 -0.1235
 2402SOL    HW3 9682   4.350   3.553   3.754  0.1195  0.3004  0.4234
 2402SOL    MW4 9683   4.270   3.584   3.740 -0.1349 -0.5507 -0.0322
 2403SOL     OW 9684   4.273   3.846   3.861 -0.2389 -0.0623 -0.2724
 2403SOL    HW2 9685   4.187   3.887   3.857 -0.7497 -0.9725  1.3386
 2403SOL    HW3 9686   4.261   3.760   3.821 -0.3016 -0.5840  0.8774
 2403SOL    MW4 9687   4.260   3.840   3.855 -0.3142 -0.2513  0.0918
 2404SOL     OW 9688   4.015   3.975   3.792  0.0381 -0.2159 -0.2238
 2404SOL    HW2 9689   4.035   4.065   3.817 -0.3055 -0.4726  0.9843
 2404SOL    HW3 9690   4.024   3.974   3.697 -0.6154  1.2566 -0.3024
 2404SOL    MW4 9691   4.019   3.986   3.783 -0.0930 -0.0556 -0.0746
 2405SOL     OW 9692   4.062   4.250   3.862  0.0955  0.2725  0.3153
 2405SOL    HW2 9693   4.090   4.219   3.948  0.1534  1.1482  0.6094
 2405SOL    HW3 9694   4.136   4.299   3.828  0.3275 -0.6520 -0.5347
 2405SOL    MW4 9695   4.075   4.252   3.869  0.1340  0.2656  0.2418
 2406SOL     OW 9696   4.310   4.366   3.779 -0.6857 -0.2987 -0.0059
 2406SOL    HW2 9697   4.318   4.460   3.794  1.9926 -0.4443 -0.2999
 2406SOL    HW3 9698   4.391   4.329   3.814 -1.0580 -2.3286 -1.2043
 2406SOL    MW4 9699   4.321   4.374   3.785 -0.3815 -0.5856 -0.2029
 2407SOL     OW 9700   0.219   4.636   4.186 -0.0271 -0.3212 -0.1237
 2407SOL    HW2 9701   0.298   4.685   4.211 -0.8214 -0.3993  2.6486
 2407SOL    HW3 9702   0.227   4.552   4.232 -2.4401  0.2526  1.4317
 2407SOL    MW4 9703   0.231   4.631   4.195 -0.4503 -0.2561  0.4473
 2408SOL     OW 9704   4.482   0.077   4.279  0.2913 -0.6180 -0.1828
 2408SOL    HW2 9705   4.466   0.162   4.237 -0.2696 -1.5098 -1.8173
 2408SOL    HW3 9706   4.568   0.050   4.246  0.4138 -0.7460  0.2427
 2408SOL    MW4 9707   4.491   0.085   4.269  0.2337 -0.7526 -0.3419
 2409SOL     OW 9708   4.476   0.314   4.149 -0.0682  0.1988 -0.3269
 2409SOL    HW2 9709   4.560   0.356   4.166 -0.2031  0.1793  0.3855
 2409SOL    HW3 9710   4.468   0.314   4.053  0.3082  1.0578 -0.3611
 2409SOL    MW4 9711   4.486   0.320   4.139 -0.0358  0.3095 -0.2370
 2410SOL     OW 9712   4.257   0.507   4.198 -0.5670  0.0775  0.0354
 2410SOL    HW2 9713   4.236   0.508   4.292  1.5166  0.0265  0.5310
 2410SOL    HW3 9714   4.333   0.450   4.192 -0.7690 -0.0098 -1.7239
 2410SOL    MW4 9715   4.264   0.500   4.210 -0.3185  0.0592 -0.1311
 2411SOL     OW 9716   0.213   0.786   4.135 -0.0068 -0.3943  0.5300
 2411SOL    HW2 9717   0.295   0.824   4.167  0.0005 -0.6356  0.8047
 2411SOL    HW3 9718   0.145   0.838   4.178  0.0017 -1.0177  1.3137
 2411SOL    MW4 9719   0.215   0.798   4.145 -0.0047 -0.5084  0.6695
 2412SOL     OW 9720   0.014   0.944   4.250 -0.8027  0.3488 -0.1117
 2412SOL    HW2 9721   0.031   0.897   4.332  0.4333  1.0084  0.0249
 2412SOL    HW3 9722  -0.057   0.895   4.208 -2.4622  0.8458  2.0306
 2412SOL    MW4 9723   0.007   0.932   4.255 -0.8586  0.5014  0.1888
 2413SOL     OW 9724   0.257   1.303   4.251 -0.0596 -0.5426  0.0282
 2413SOL    HW2 9725   0.320   1.249   4.204 -0.9698 -2.4128  0.8730
 2413SOL    HW3 9726   0.172   1.279   4.213 -0.4500  0.6407  0.1134
 2413SOL    MW4 9727   0.254   1.293   4.240 -0.2312 -0.6332  0.1507
 2414SOL     OW 9728   0.417   1.415   4.594 -0.4804  0.5024  0.2605
 2414SOL    HW2 9729   0.450   1.420   4.684  2.8485  0.0386 -0.8415
 2414SOL    HW3 9730   0.421   1.506   4.563  0.7455  0.3207 -0.1597
 2414SOL    MW4 9731   0.422   1.428   4.602  0.1206  0.4172  0.0591
 2415SOL     OW 9732   3.200   1.622   4.463 -0.0785  0.3451  0.4499
 2415SOL    HW2 9733   3.162   1.688   4.521  1.3797  0.4296  1.3504
 2415SOL    HW3 9734   3.288   1.607   4.499  0.3818 -0.5273 -1.0058
 2415SOL    MW4 9735   3.206   1.629   4.476  0.1748  0.2412  0.3767
 2416SOL     OW 9736   0.004   1.691   4.227  0.1721  0.1016  0.1275
 2416SOL    HW2 9737  -0.074   1.641   4.204 -0.8018  1.0412  1.2959
 2416SOL    HW3 9738  -0.006   1.774   4.182  0.5682  0.1720  0.1659
 2416SOL    MW4 9739  -0.008   1.695   4.218  0.0958  0.2348  0.2866
 2417SOL     OW 9740   0.403   1.932   4.504 -0.2291  0.0999 -0.5072
 2417SOL    HW2 9741   0.429   1.840   4.511 -1.0952 -0.1949 -0.9957
 2417SOL    HW3 9742   0.484   1.980   4.493  0.1773 -0.6794 -0.9250
 2417SOL    MW4 9743   0.417   1.926   4.504 -0.2898 -0.0420 -0.6266
 2418SOL     OW 9744   0.838   0.860   4.477  0.5634  0.2267  0.1144
 2418SOL    HW2 9745   0.752   0.899   4.463  0.6666  0.2341 -0.5031
 2418SOL    HW3 9746   0.820   0.767   4.491  0.5158  0.0989 -0.7696
 2418SOL    MW4 9747   0.825   0.853   4.477  0.5708  0.2108 -0.0844
 2419SOL     OW 9748   0.257   2.307   4.139 -0.6582 -0.4310  0.1525
 2419SOL    HW2 9749   0.344   2.335   4.170 -0.8975  0.1420  0.3057
 2419SOL    HW3 9750   0.232   2.238   4.200 -0.0665 -0.9741 -0.2206
 2419SOL    MW4 9751   0.265   2.302   4.151 -0.6117 -0.4270  0.1235
 2420SOL     OW 9752   4.256   2.845   4.204 -0.1620  0.3336 -0.3834
 2420SOL    HW2 9753   4.275   2.849   4.298 -0.3251 -0.3680 -0.3165
 2420SOL    HW3 9754   4.331   2.800   4.166 -1.0280 -1.2078 -0.3047
 2420SOL    MW4 9755   4.268   2.840   4.211 -0.2975  0.0377 -0.3643
 2421SOL     OW 9756   0.492   2.343   4.507 -0.7055  0.7483 -0.0136
 2421SOL    HW2 9757   0.516   2.341   4.415  0.5430 -1.0250  0.3335
 2421SOL    HW3 9758   0.396   2.340   4.507 -0.6866 -0.3031 -1.2339
 2421SOL    MW4 9759   0.482   2.342   4.495 -0.5383  0.3760 -0.1287
 2422SOL     OW 9760   4.490   2.706   4.129 -0.0090  0.7874  0.2113
 2422SOL    HW2 9761   4.489   2.617   4.164  1.0860  0.7894  0.2425
 2422SOL    HW3 9762   4.571   2.744   4.162  0.1076  1.4060 -0.7919
 2422SOL    MW4 9763   4.501   2.699   4.138  0.1507  0.8693  0.0830
 2423SOL     OW 9764   0.258   3.116   4.135  0.2098  0.5563  0.1967
 2423SOL    HW2 9765   0.325   3.160   4.187 -0.0016  1.2489 -0.1205
 2423SOL    HW3 9766   0.175   3.153   4.166 -0.0684 -0.6280  0.9173
 2423SOL    MW4 9767   0.256   3.127   4.146  0.1452  0.4914  0.2503
 2424SOL     OW 9768   0.030   3.469   4.121 -0.2951  0.1327  0.0141
 2424SOL    HW2 9769  -0.039   3.504   4.178 -0.3283  1.6547 -0.9078
 2424SOL    HW3 9770  -0.009   3.469   4.033 -0.2049 -2.0560 -0.0536
 2424SOL    MW4 9771   0.016   3.474   4.117 -0.2876  0.0448 -0.1163
 2425SOL     OW 9772   3.891   3.580   4.307 -0.0404 -0.1734 -0.2824
 2425SOL    HW2 9773   3.809   3.538   4.280 -0.3250  1.4009 -1.9454
 2425SOL    HW3 9774   3.960   3.528   4.266 -0.3106 -0.2424 -0.6532
 2425SOL    MW4 9775   3.889   3.568   4.298 -0.1132  0.0253 -0.5507
 2426SOL     OW 9776   4.483   3.258   4.472  0.2787 -0.1641  0.1376
 2426SOL    HW2 9777   4.391   3.269   4.498 -0.0576  0.1938 -1.1414
 2426SOL    HW3 9778   4.478   3.221   4.384  1.3807 -1.7544  0.7301
 2426SOL    MW4 9779   4.470   3.255   4.464  0.3796 -0.3266  0.0472
 2427SOL     OW 9780   0.265   3.527   4.241  0.1631  0.6609 -0.1610
 2427SOL    HW2 9781   0.238   3.514   4.332  1.1519 -1.8930 -0.1931
 2427SOL    HW3 9782   0.185   3.509   4.190  0.0540  0.3330  0.1187
 2427SOL    MW4 9783   0.251   3.523   4.246  0.2792  0.2809 -0.1287
 2428SOL     OW 9784   0.156   4.147   4.705 -0.2312  0.2849  0.6403
 2428SOL    HW2 9785   0.063   4.167   4.696 -0.4502 -1.3169 -0.9462
 2428SOL    HW3 9786   0.162   4.053   4.685  1.5906  0.1410  1.7195
 2428SOL    MW4 9787   0.144   4.137   4.701 -0.0197  0.0548  0.5732
 2429SOL     OW 9788   0.675   4.114   4.592  0.5124 -0.0367 -0.7414
 2429SOL    HW2 9789   0.740   4.046   4.576  1.4342  0.6067  0.1498
 2429SOL    HW3 9790   0.722   4.179   4.646 -0.9737  0.2437  0.2460
 2429SOL    MW4 9791   0.690   4.114   4.597  0.4380  0.0854 -0.4940
 2430SOL     OW 9792   0.242   4.366   4.263 -0.0811 -0.4033 -0.1560
 2430SOL    HW2 9793   0.259   4.361   4.357 -0.2930  0.8822 -0.0319
 2430SOL    HW3 9794   0.167   4.309   4.248  0.4011 -1.1676  0.3393
 2430SOL    MW4 9795   0.235   4.358   4.273 -0.0454 -0.3343 -0.0744
 2431SOL     OW 9796   1.284   3.466   4.725 -0.3796 -0.2595  0.2980
 2431SOL    HW2 9797   1.313   3.557   4.732 -1.3346 -0.0882  2.3021
 2431SOL    HW3 9798   1.362   3.418   4.698  0.2477  1.0717 -0.3076
 2431SOL    MW4 9799   1.298   3.472   4.722 -0.4228 -0.0610  0.4830
 2432SOL     OW 9800   0.003   0.011   4.566 -0.0602  0.5580  0.1311
 2432SOL    HW2 9801   0.001   0.040   4.475 -1.0283  0.1926  0.0262
 2432SOL    HW3 9802  -0.082   0.038   4.601  0.4994  1.1280  1.0631
 2432SOL    MW4 9803  -0.009   0.018   4.559 -0.1141  0.5851  0.2398
 2433SOL     OW 9804   3.853   0.760   4.610 -0.1272  0.3199 -0.8928
 2433SOL    HW2 9805   3.796   0.812   4.555  0.2452  0.6071 -1.0084
 2433SOL    HW3 9806   3.804   0.680   4.627 -0.4899  0.4916 -1.1349
 2433SOL    MW4 9807   3.839   0.756   4.605 -0.1259  0.3804 -0.9398
 2434SOL     OW 9808   0.682   0.449   4.191 -0.1982  0.0901 -0.0700
 2434SOL    HW2 9809   0.605   0.420   4.142  0.6220 -1.3101 -0.5277
 2434SOL    HW3 9810   0.684   0.392   4.268 -0.7008  1.3883  0.9361
 2434SOL    MW4 9811   0.672   0.438   4.195 -0.1563  0.0767  0.0029
 2435SOL     OW 9812   0.648   0.725   4.150  0.0261 -0.2046  0.0133
 2435SOL    HW2 9813   0.670   0.635   4.174 -0.8315 -0.5265 -0.3915
 2435SOL    HW3 9814   0.651   0.726   4.054 -0.7018  0.0051 -0.0123
 2435SOL    MW4 9815   0.651   0.713   4.141 -0.1830 -0.2195 -0.0434
 2436SOL     OW 9816   0.050   0.822   4.495  0.1744 -0.1646 -0.8385
 2436SOL    HW2 9817  -0.024   0.865   4.538  0.0537 -0.0219 -1.1870
 2436SOL    HW3 9818   0.128   0.863   4.534  0.0600  0.3213 -1.1215
 2436SOL    MW4 9819   0.051   0.833   4.506  0.1434 -0.0817 -0.9217
 2437SOL     OW 9820   0.459   1.106   4.149 -0.1985 -0.3334  0.0281
 2437SOL    HW2 9821   0.543   1.150   4.147  0.3142 -1.3382 -1.4337
 2437SOL    HW3 9822   0.430   1.104   4.058 -1.1666 -1.2032  0.3338
 2437SOL    MW4 9823   0.466   1.112   4.137 -0.2586 -0.5808 -0.1249
 2438SOL     OW 9824   0.907   1.170   4.123  0.1805  0.5074  0.1336
 2438SOL    HW2 9825   0.884   1.083   4.154  0.5715  0.8284  1.3471
 2438SOL    HW3 9826   0.832   1.224   4.146 -0.2218  0.4303 -0.9522
 2438SOL    MW4 9827   0.894   1.166   4.130  0.1791  0.5398  0.1512
 2439SOL     OW 9828   0.664   1.524   4.086  0.8390  0.1706  0.4150
 2439SOL    HW2 9829   0.658   1.553   3.995  2.1514 -1.1430 -0.1063
 2439SOL    HW3 9830   0.748   1.557   4.116  0.8328 -0.2082  0.8553
 2439SOL    MW4 9831   0.674   1.532   4.078  1.0113 -0.0526  0.4039
 2440SOL     OW 9832   0.247   1.578   4.178  0.5880 -0.4142 -0.1623
 2440SOL    HW2 9833   0.243   1.491   4.219 -0.2973 -0.4240 -0.2744
 2440SOL    HW3 9834   0.163   1.618   4.196  1.7523  1.2763  1.7221
 2440SOL    MW4 9835   0.236   1.572   4.186  0.6248 -0.1924  0.0715
 2441SOL     OW 9836   0.456   1.952   4.118  0.2674  0.2531 -0.0201
 2441SOL    HW2 9837   0.460   1.857   4.130 -0.5890  0.1636 -0.3686
 2441SOL    HW3 9838   0.464   1.965   4.024  2.3432  0.6632  0.1836
 2441SOL    MW4 9839   0.458   1.941   4.107  0.4283  0.2954 -0.0391
 2442SOL     OW 9840   0.687   2.049   4.214 -0.3183  0.0490  0.2853
 2442SOL    HW2 9841   0.681   2.066   4.308 -1.0205 -0.1973  0.2841
 2442SOL    HW3 9842   0.601   2.015   4.190 -0.6477  1.5460 -0.7403
 2442SOL    MW4 9843   0.675   2.047   4.224 -0.4543  0.2139  0.1497
 2443SOL     OW 9844   0.765   2.299   4.118  0.4860  0.2479  0.2961
 2443SOL    HW2 9845   0.739   2.207   4.127  0.1614  0.1997 -1.0280
 2443SOL    HW3 9846   0.759   2.316   4.024  0.6398  1.6016  0.5288
 2443SOL    MW4 9847   0.760   2.289   4.107  0.4634  0.4201  0.1521
 2444SOL     OW 9848   0.022   2.438   4.217 -0.0756  0.3636  0.2314
 2444SOL    HW2 9849   0.103   2.388   4.207  0.4529  1.0606  1.0639
 2444SOL    HW3 9850   0.015   2.455   4.311 -0.3740  1.6635 -0.0225
 2444SOL    MW4 9851   0.032   2.434   4.228 -0.0453  0.6268  0.3076
 2445SOL     OW 9852   0.443   2.674   4.201 -0.4733  0.3381 -0.0782
 2445SOL    HW2 9853   0.515   2.722   4.241 -0.5574 -0.0221  0.5096
 2445SOL    HW3 9854   0.451   2.692   4.108  0.0879  0.6887  0.0370
 2445SOL    MW4 9855   0.453   2.683   4.194 -0.4104  0.3366  0.0148
 2446SOL     OW 9856   0.658   2.834   4.277 -0.2046 -0.1006  0.8827
 2446SOL    HW2 9857   0.700   2.838   4.363 -0.0817  2.1446  0.7328
 2446SOL    HW3 9858   0.679   2.917   4.235 -0.3008 -1.1329 -1.3296
 2446SOL    MW4 9859   0.666   2.845   4.283 -0.2010  0.0596  0.5703
 2447SOL     OW 9860   0.677   3.059   4.125 -0.0008  0.0293 -0.1843
 2447SOL    HW2 9861   0.742   3.111   4.172  0.1504  0.0915 -0.4603
 2447SOL    HW3 9862   0.593   3.092   4.156  0.0881  0.7810 -0.7225
 2447SOL    MW4 9863   0.674   3.070   4.135  0.0309  0.1366 -0.2913
 2448SOL     OW 9864   0.983   2.472   4.536 -0.0831 -0.2990 -0.3701
 2448SOL    HW2 9865   0.970   2.467   4.441  0.7247  0.2753 -0.5190
 2448SOL    HW3 9866   0.895   2.465   4.573 -0.3258 -1.3823 -1.1220
 2448SOL    MW4 9867   0.970   2.470   4.528 -0.0085 -0.3660 -0.4892
 2449SOL     OW 9868   0.749   3.596   4.204  0.7508 -0.0964 -0.0074
 2449SOL    HW2 9869   0.674   3.541   4.182  1.1054 -0.7555  0.4180
 2449SOL    HW3 9870   0.825   3.547   4.174  1.1152 -0.1749  1.0148
 2449SOL    MW4 9871   0.749   3.582   4.197  0.8457 -0.1936  0.1841
 2450SOL     OW 9872   0.527   3.459   4.144 -0.1294 -0.3315 -0.6748
 2450SOL    HW2 9873   0.448   3.483   4.192  1.4960  0.9715  1.4010
 2450SOL    HW3 9874   0.503   3.470   4.052 -1.9409  1.3589 -0.0342
 2450SOL    MW4 9875   0.513   3.463   4.138 -0.1540  0.0634 -0.3166
 2451SOL     OW 9876   0.688   3.855   4.133  0.5756  0.3285  0.3284
 2451SOL    HW2 9877   0.606   3.872   4.179  0.9761  1.7948  0.5286
 2451SOL    HW3 9878   0.715   3.769   4.163 -1.4679 -0.6665 -0.5918
 2451SOL    MW4 9879   0.680   3.846   4.143  0.3588  0.3908  0.2337
 2452SOL     OW 9880   1.414   0.051   4.494  0.0332 -0.2004  0.1771
 2452SOL    HW2 9881   1.330   0.092   4.515 -0.2133 -1.8207  2.4781
 2452SOL    HW3 9882   1.478   0.098   4.546  0.1494 -0.8019  0.5865
 2452SOL    MW4 9883   1.411   0.062   4.503  0.0160 -0.4935  0.5350
 2453SOL     OW 9884   0.442   4.202   4.156 -0.4963 -0.0933 -0.1832
 2453SOL    HW2 9885   0.366   4.256   4.176  1.1134  2.5736 -1.0127
 2453SOL    HW3 9886   0.452   4.208   4.061  1.6135  0.8746  0.0615
 2453SOL    MW4 9887   0.433   4.210   4.146 -0.0056  0.3862 -0.2604
 2454SOL     OW 9888   0.741   4.434   4.299  0.3005 -0.1729 -0.5752
 2454SOL    HW2 9889   0.667   4.391   4.342  1.4659  0.5698  2.2361
 2454SOL    HW3 9890   0.706   4.518   4.271  0.3106  0.5957  1.6445
 2454SOL    MW4 9891   0.726   4.439   4.301  0.4556  0.0262  0.0892
 2455SOL     OW 9892   1.099   4.575   4.137 -0.3204 -0.4736  0.1018
 2455SOL    HW2 9893   1.093   4.484   4.167 -0.7958 -0.2493  0.6970
 2455SOL    HW3 9894   1.112   4.568   4.043  1.1172 -1.1836  0.3424
 2455SOL    MW4 9895   1.100   4.562   4.129 -0.1935 -0.5374  0.2122
 2456SOL     OW 9896   1.611   0.260   4.488 -0.4418 -0.3088  0.2493
 2456SOL    HW2 9897   1.666   0.322   4.535  0.9383 -0.2980 -1.3314
 2456SOL    HW3 9898   1.563   0.313   4.425  1.4219 -0.9113 -1.7363
 2456SOL    MW4 9899   1.612   0.275   4.486 -0.0137 -0.3869 -0.2213
 2457SOL     OW 9900   0.932   0.083   4.266 -0.1624 -0.0893 -0.0530
 2457SOL    HW2 9901   0.846   0.058   4.232  0.0351  0.9322 -1.3732
 2457SOL    HW3 9902   0.995   0.033   4.213  0.0750 -0.1935  0.3290
 2457SOL    MW4 9903   0.929   0.073   4.254 -0.1050  0.0317 -0.1769
 2458SOL     OW 9904   0.411   0.723   4.524  0.4027 -0.4546  0.0274
 2458SOL    HW2 9905   0.434   0.778   4.450 -1.9960  0.3541 -0.1598
 2458SOL    HW3 9906   0.363   0.780   4.583  1.2837 -1.3825  1.6929
 2458SOL    MW4 9907   0.408   0.738   4.522  0.2024 -0.4703  0.2222
 2459SOL     OW 9908   0.925   1.098   4.617  0.1296  0.0937  0.0316
 2459SOL    HW2 9909   0.869   1.105   4.694 -0.6150  1.7834 -0.6268
 2459SOL    HW3 9910   0.880   1.035   4.560  0.0283 -0.2001  0.4340
 2459SOL    MW4 9911   0.912   1.091   4.619  0.0179  0.2780 -0.0024
 2460SOL     OW 9912   1.183   0.463   4.429 -0.7353 -0.2353  0.2924
 2460SOL    HW2 9913   1.114   0.482   4.366 -0.1214  0.2316 -0.2534
 2460SOL    HW3 9914   1.167   0.524   4.501 -0.4725  0.3715 -0.1589
 2460SOL    MW4 9915   1.172   0.474   4.430 -0.6196 -0.0936  0.1612
 2461SOL     OW 9916   0.866   0.906   4.212 -0.1859 -0.5356  0.0254
 2461SOL    HW2 9917   0.871   0.889   4.306  0.4195  0.6956  0.2340
 2461SOL    HW3 9918   0.801   0.844   4.179 -1.1823 -0.2600  1.4251
 2461SOL    MW4 9919   0.858   0.896   4.220 -0.2375 -0.3368  0.2375
 2462SOL     OW 9920   1.145   1.259   4.238  0.2038  0.1036 -0.1699
 2462SOL    HW2 9921   1.214   1.211   4.192  0.0173  0.3538 -0.7275
 2462SOL    HW3 9922   1.064   1.219   4.207  0.1023 -0.3579  0.6762
 2462SOL    MW4 9923   1.143   1.248   4.228  0.1658  0.0757 -0.1321
 2463SOL     OW 9924   1.101   1.529   4.112 -0.0529 -0.5135 -0.5416
 2463SOL    HW2 9925   1.021   1.562   4.155  0.1897 -1.2120  0.4703
 2463SOL    HW3 9926   1.119   1.446   4.156  1.8111  0.1239 -0.0745
 2463SOL    MW4 9927   1.093   1.522   4.124  0.2251 -0.5215 -0.3462
 2464SOL     OW 9928   1.085   2.080   4.256 -0.3709 -0.1135 -0.1589
 2464SOL    HW2 9929   1.015   2.020   4.235 -0.3833 -0.3222  0.4536
 2464SOL    HW3 9930   1.165   2.037   4.226 -0.2366 -1.0395  1.4416
 2464SOL    MW4 9931   1.087   2.067   4.249 -0.3546 -0.2630  0.1330
 2465SOL     OW 9932   0.910   1.913   4.141  0.1552 -0.3823 -0.3810
 2465SOL    HW2 9933   0.826   1.948   4.169  0.2023  0.0758 -0.8232
 2465SOL    HW3 9934   0.918   1.937   4.049  0.9653 -0.0456 -0.2323
 2465SOL    MW4 9935   0.900   1.920   4.132  0.2683 -0.2775 -0.4196
 2466SOL     OW 9936   1.433   1.082   4.748  0.2755  0.4682 -0.2526
 2466SOL    HW2 9937   1.394   1.167   4.725  0.3129  0.4298 -0.4569
 2466SOL    HW3 9938   1.371   1.018   4.714 -1.9349  0.4226  3.5853
 2466SOL    MW4 9939   1.419   1.085   4.740 -0.0111  0.4569  0.2270
 2467SOL     OW 9940   1.127   2.303   4.093 -0.3332 -0.3949  0.1424
 2467SOL    HW2 9941   1.211   2.331   4.128 -0.0897  0.3735 -1.0454
 2467SOL    HW3 9942   1.101   2.229   4.149 -0.1605  1.0725  2.2239
 2467SOL    MW4 9943   1.134   2.297   4.105 -0.2784 -0.1001  0.2604
 2468SOL     OW 9944   0.942   2.434   4.255  0.0307  0.2783  0.3465
 2468SOL    HW2 9945   1.016   2.408   4.200  0.2269  1.0265  0.2469
 2468SOL    HW3 9946   0.867   2.385   4.221  0.5827 -0.8443  0.7524
 2468SOL    MW4 9947   0.942   2.424   4.244  0.1294  0.2289  0.3867
 2469SOL     OW 9948   0.891   2.686   4.164  0.4870 -0.3369  0.1536
 2469SOL    HW2 9949   0.902   2.600   4.205  1.6951 -0.4409 -0.3579
 2469SOL    HW3 9950   0.812   2.722   4.204 -0.3192 -1.8921  0.0088
 2469SOL    MW4 9951   0.882   2.679   4.175  0.5400 -0.5555  0.0668
 2470SOL     OW 9952   1.133   3.087   4.157 -0.0178 -0.1080 -0.6820
 2470SOL    HW2 9953   1.138   2.994   4.179 -0.0848 -0.1329 -0.7748
 2470SOL    HW3 9954   1.130   3.089   4.061  0.9319  0.0246 -0.7155
 2470SOL    MW4 9955   1.134   3.075   4.147  0.0986 -0.0942 -0.6986
 2471SOL     OW 9956   1.294   3.144   4.560  0.1345  0.0372 -0.0313
 2471SOL    HW2 9957   1.367   3.153   4.622  1.8814 -1.5445 -1.8078
 2471SOL    HW3 9958   1.326   3.182   4.479 -0.9775 -0.7786 -0.8740
 2471SOL    MW4 9959   1.308   3.150   4.557  0.2182 -0.2789 -0.3772
 2472SOL     OW 9960   1.346   3.211   4.298  0.1837 -0.0026  0.3928
 2472SOL    HW2 9961   1.271   3.169   4.256 -0.4239  0.4756  0.9815
 2472SOL    HW3 9962   1.364   3.289   4.245 -0.2930  0.3545  0.7524
 2472SOL    MW4 9963   1.339   3.216   4.286  0.0407  0.1075  0.5178
 2473SOL     OW 9964   0.966   3.454   4.118  0.3282 -0.1907  0.2446
 2473SOL    HW2 9965   1.041   3.510   4.140  0.3742 -0.1732  0.0399
 2473SOL    HW3 9966   0.958   3.461   4.023  0.8715 -1.2205  0.1148
 2473SOL    MW4 9967   0.975   3.463   4.109  0.4060 -0.3242  0.2003
 2474SOL     OW 9968   1.186   3.586   4.221  0.2571  0.8189 -0.0117
 2474SOL    HW2 9969   1.156   3.572   4.310  1.5247  0.5557  0.3904
 2474SOL    HW3 9970   1.169   3.679   4.204 -1.6660  0.4472 -0.1571
 2474SOL    MW4 9971   1.180   3.597   4.230  0.1706  0.7350  0.0219
 2475SOL     OW 9972   1.132   3.837   4.143  0.3815 -0.0135 -0.8831
 2475SOL    HW2 9973   1.202   3.890   4.182 -0.4376  0.7787 -0.4698
 2475SOL    HW3 9974   1.051   3.875   4.177 -0.2075 -2.1583  0.2356
 2475SOL    MW4 9975   1.131   3.849   4.153  0.1957 -0.1917 -0.6804
 2476SOL     OW 9976   0.525   4.284   4.424 -0.7633  0.4113 -0.3677
 2476SOL    HW2 9977   0.562   4.232   4.495 -2.0376 -0.9027 -0.6559
 2476SOL    HW3 9978   0.520   4.224   4.350 -4.6372  0.1723  0.0265
 2476SOL    MW4 9979   0.529   4.269   4.424 -1.4426  0.2069 -0.3538
 2477SOL     OW 9980   0.888   4.252   4.138 -0.4885 -0.1471 -0.6008
 2477SOL    HW2 9981   0.824   4.316   4.169 -0.3243  0.2543 -1.0895
 2477SOL    HW3 9982   0.970   4.277   4.181 -0.9747 -1.5339  1.1641
 2477SOL    MW4 9983   0.890   4.264   4.148 -0.5310 -0.2770 -0.4325
 2478SOL     OW 9984   1.142   4.332   4.248 -0.0059  0.0052  0.1160
 2478SOL    HW2 9985   1.140   4.329   4.343  1.4051 -2.1116  0.1206
 2478SOL    HW3 9986   1.222   4.285   4.224 -1.7117 -1.8830 -2.1827
 2478SOL    MW4 9987   1.153   4.325   4.257 -0.0448 -0.5231 -0.1864
 2479SOL     OW 9988   1.614   4.658   4.065 -0.2281 -0.0149 -0.1982
 2479SOL    HW2 9989   1.694   4.690   4.108 -0.2249  2.3004 -1.8118
 2479SOL    HW3 9990   1.543   4.693   4.119 -0.1742 -0.4584  0.1595
 2479SOL    MW4 9991   1.615   4.667   4.078 -0.2205  0.2322 -0.3638
 2480SOL     OW 9992   1.096   0.632   4.621  0.2700 -0.1330 -0.2588
 2480SOL    HW2 9993   1.099   0.725   4.645 -0.6312  0.0039 -0.6738
 2480SOL    HW3 9994   1.160   0.591   4.679  0.8420  0.7830 -0.2271
 2480SOL    MW4 9995   1.105   0.639   4.632  0.2265  0.0060 -0.3099
 2481SOL     OW 9996   1.121   0.773   4.147 -0.1248  0.7367 -0.6602
 2481SOL    HW2 9997   1.042   0.826   4.146  0.4047  1.5974  0.6654
 2481SOL    HW3 9998   1.093   0.688   4.180 -0.5052  1.0221 -0.2464
 2481SOL    MW4 9999   1.107   0.769   4.151 -0.1051  0.8880 -0.4315
 2482SOL     OW10000   1.259   0.310   4.136  0.1230 -0.0135  0.2053
 2482SOL    HW210001   1.275   0.220   4.163 -1.4576 -0.3146  0.2280
 2482SOL    HW310002   1.304   0.363   4.202 -0.5603 -0.7750  1.3107
 2482SOL    MW410003   1.267   0.305   4.148 -0.1757 -0.1537  0.3543
 2483SOL     OW10004   1.638   0.635   4.143 -0.4459 -0.1275  0.3746
 2483SOL    HW210005   1.606   0.665   4.058 -0.4597  1.9841  1.1039
 2483SOL    HW310006   1.576   0.672   4.206  1.0201  0.4800  1.4807
 2483SOL    MW410007   1.626   0.644   4.140 -0.2543  0.2313  0.6170
 2484SOL     OW10008   1.282   0.892   4.344  0.1247  0.0115 -0.0017
 2484SOL    HW210009   1.315   0.971   4.302 -1.5143  0.7188 -0.0054
 2484SOL    HW310010   1.233   0.847   4.276 -0.1791 -0.2536  0.3858
 2484SOL    MW410011   1.280   0.896   4.330 -0.1316  0.0699  0.0491
 2485SOL     OW10012   1.357   1.092   4.168  0.3814  0.1636  0.6991
 2485SOL    HW210013   1.366   1.117   4.076  0.6253  0.1379  0.7145
 2485SOL    HW310014   1.445   1.103   4.204  0.5817 -1.1082  0.6026
 2485SOL    MW410015   1.370   1.097   4.161  0.4400 -0.0076  0.6881
 2486SOL     OW10016   2.197   0.904   4.299 -0.0117 -0.0254 -0.5166
 2486SOL    HW210017   2.241   0.952   4.369  0.7114  0.4522 -1.2929
 2486SOL    HW310018   2.265   0.846   4.264  0.0604  0.8495 -1.8526
 2486SOL    MW410019   2.212   0.902   4.304  0.0932  0.1531 -0.7954
 2487SOL     OW10020   1.277   1.641   4.294  0.1140  0.3821  0.2603
 2487SOL    HW210021   1.363   1.629   4.254 -0.0182 -0.7388  0.2868
 2487SOL    HW310022   1.215   1.617   4.225 -0.2025  1.9497 -0.0148
 2487SOL    MW410023   1.280   1.636   4.279  0.0550  0.4410  0.2270
 2488SOL     OW10024   0.607   1.034   4.485 -0.6209 -0.1641  0.0150
 2488SOL    HW210025   0.556   1.081   4.419 -0.1246  0.0276 -0.2362
 2488SOL    HW310026   0.553   1.037   4.564 -0.7866  0.4558 -0.1198
 2488SOL    MW410027   0.593   1.041   4.487 -0.5772 -0.0570 -0.0362
 2489SOL     OW10028   1.324   1.911   4.179  0.3865 -0.0601 -0.1760
 2489SOL    HW210029   1.390   1.960   4.229  1.1597 -0.4349 -0.8162
 2489SOL    HW310030   1.297   1.841   4.239  0.5128  0.1387  0.1166
 2489SOL    MW410031   1.329   1.908   4.194  0.5052 -0.0832 -0.2217
 2490SOL     OW10032   1.811   1.946   4.194  0.4277 -0.3684 -0.6988
 2490SOL    HW210033   1.731   1.985   4.229  0.0694 -0.8512 -0.9573
 2490SOL    HW310034   1.812   1.858   4.231  1.0205 -0.2423 -0.4238
 2490SOL    MW410035   1.800   1.939   4.203  0.4586 -0.4154 -0.6962
 2491SOL     OW10036   1.612   2.313   4.189 -0.0146 -0.5356 -0.2427
 2491SOL    HW210037   1.686   2.353   4.234 -0.6704  0.3880  0.0330
 2491SOL    HW310038   1.619   2.343   4.098  0.8496 -1.7457 -0.5869
 2491SOL    MW410039   1.622   2.322   4.183  0.0130 -0.5734 -0.2518
 2492SOL     OW10040   0.413   2.956   4.615 -0.3932  0.1588  0.1901
 2492SOL    HW210041   0.457   3.034   4.584 -0.3461  0.0351 -0.0526
 2492SOL    HW310042   0.390   2.976   4.706  0.2088  0.1973  0.3313
 2492SOL    MW410043   0.416   2.969   4.623 -0.3076  0.1476  0.1764
 2493SOL     OW10044   1.583   3.100   4.177 -0.1418  0.3068 -0.7251
 2493SOL    HW210045   1.652   3.147   4.224 -0.7597 -1.0370  1.6321
 2493SOL    HW310046   1.502   3.141   4.206 -0.6297 -1.5814  0.6907
 2493SOL    MW410047   1.582   3.111   4.187 -0.2877 -0.1194 -0.2279
 2494SOL     OW10048   2.219   3.094   4.912 -0.4168 -0.2368 -0.0165
 2494SOL    HW210049   2.286   3.026   4.907  0.7433  0.9622 -1.1207
 2494SOL    HW310050   2.246   3.150   4.984 -0.0507  0.4187 -0.6548
 2494SOL    MW410051   2.231   3.092   4.921 -0.2153  0.0076 -0.2465
 2495SOL     OW10052   2.154   2.874   4.472  0.4212  0.1593  0.4163
 2495SOL    HW210053   2.088   2.851   4.406  1.2434 -0.3293 -0.2456
 2495SOL    HW310054   2.105   2.884   4.553 -0.5541  0.3846 -0.1927
 2495SOL    MW410055   2.139   2.872   4.474  0.4013  0.1247  0.2489
 2496SOL     OW10056   1.964   3.235   4.743 -0.4955 -0.5710  0.0629
 2496SOL    HW210057   1.875   3.223   4.776 -0.2712  2.7025  2.0619
 2496SOL    HW310058   2.020   3.219   4.819  0.3674  1.4272 -0.1279
 2496SOL    MW410059   1.960   3.231   4.757 -0.3519  0.1247  0.3018
 2497SOL     OW10060   1.417   3.438   4.150  0.4918 -0.3900 -0.2247
 2497SOL    HW210061   1.344   3.492   4.179  0.9511  0.7783 -1.2071
 2497SOL    HW310062   1.429   3.460   4.058  0.6248 -2.2524 -0.6878
 2497SOL    MW410063   1.409   3.448   4.141  0.5701 -0.4818 -0.4148
 2498SOL     OW10064   1.630   3.606   4.231 -0.1601  0.0658  0.6762
 2498SOL    HW210065   1.558   3.555   4.191  2.1060 -1.9202 -1.0092
 2498SOL    HW310066   1.613   3.696   4.204 -1.7604 -0.4543 -0.1478
 2498SOL    MW410067   1.618   3.611   4.222 -0.0722 -0.2646  0.3448
 2499SOL     OW10068   1.593   3.889   4.173  0.2702  0.2734  0.0364
 2499SOL    HW210069   1.510   3.919   4.211  0.5993  1.0451  0.1614
 2499SOL    HW310070   1.659   3.949   4.209  0.5492  1.2195 -1.9984
 2499SOL    MW410071   1.591   3.901   4.183  0.3504  0.5000 -0.2155
 2500SOL     OW10072   1.337   3.976   4.266 -0.3238 -0.2781  0.0727
 2500SOL    HW210073   1.320   3.983   4.359 -2.1803  0.5145 -0.3026
 2500SOL    HW310074   1.366   4.063   4.240 -1.4395 -0.0199 -0.3731
 2500SOL    MW410075   1.338   3.989   4.275 -0.7160 -0.1395 -0.0353
 2501SOL     OW10076   1.406   4.214   4.138  0.0010  0.3197 -0.2078
 2501SOL    HW210077   1.476   4.279   4.140 -0.2226  0.5183  1.0152
 2501SOL    HW310078   1.372   4.219   4.048  0.8130  1.0038 -0.4811
 2501SOL    MW410079   1.411   4.223   4.126  0.0786  0.4363 -0.0820
 2502SOL     OW10080   1.933   4.051   4.555  0.1347 -0.0865  0.3949
 2502SOL    HW210081   2.022   4.087   4.556  0.5146 -0.8911 -1.4672
 2502SOL    HW310082   1.939   3.973   4.610  0.3154  0.4569  1.1495
 2502SOL    MW410083   1.946   4.045   4.562  0.2087 -0.1206  0.2484
 2503SOL     OW10084   2.094   4.643   4.127 -0.1808  0.4473  0.2733
 2503SOL    HW210085   2.016   4.688   4.162  0.1804  1.4506 -0.1861
 2503SOL    HW310086   2.085   4.649   4.032 -0.3031 -0.7829  0.2019
 2503SOL    MW410087   2.083   4.650   4.119 -0.1493  0.4177  0.2031
 2504SOL     OW10088   1.846   0.104   4.169  0.2723  0.2213  0.3190
 2504SOL    HW210089   1.812   0.192   4.153  1.7119  0.6865 -0.2093
 2504SOL    HW310090   1.831   0.090   4.263 -3.0351 -0.3166 -0.1998
 2504SOL    MW410091   1.839   0.114   4.179  0.0259  0.2117  0.1802
 2505SOL     OW10092   1.785   0.364   4.102 -0.1445 -0.0742 -0.0291
 2505SOL    HW210093   1.853   0.400   4.159 -0.3433  1.5418 -0.7938
 2505SOL    HW310094   1.708   0.417   4.120 -0.7708 -0.8598 -0.3501
 2505SOL    MW410095   1.784   0.376   4.112 -0.2533  0.0354 -0.1726
 2506SOL     OW10096   2.020   0.453   4.246  0.4274  0.4205 -0.0716
 2506SOL    HW210097   2.041   0.482   4.334 -0.4479  0.0983  0.2542
 2506SOL    HW310098   2.104   0.446   4.202  0.9041  0.1487  0.8727
 2506SOL    MW410099   2.034   0.456   4.252  0.3750  0.3421  0.0963
 2507SOL     OW10100   1.914   0.688   4.135 -0.5910 -0.0986 -0.3204
 2507SOL    HW210101   1.950   0.613   4.182 -0.5279 -0.6592 -1.2588
 2507SOL    HW310102   1.820   0.670   4.129 -0.4139 -0.6402 -1.5177
 2507SOL    MW410103   1.906   0.676   4.141 -0.5592 -0.2440 -0.6022
 2508SOL     OW10104   1.802   1.093   4.165 -0.0580 -0.1271  0.3751
 2508SOL    HW210105   1.839   1.022   4.217 -0.3902 -0.2288  0.4760
 2508SOL    HW310106   1.843   1.172   4.198  0.2831 -0.2693  0.2891
 2508SOL    MW410107   1.812   1.094   4.176 -0.0569 -0.1591  0.3772
 2509SOL     OW10108   1.583   1.071   4.318 -0.1166 -0.0495 -0.0007
 2509SOL    HW210109   1.612   1.057   4.408 -0.3425 -1.6350 -0.1685
 2509SOL    HW310110   1.664   1.076   4.267 -0.0308 -0.4646  0.0986
 2509SOL    MW410111   1.598   1.070   4.323 -0.1351 -0.3134 -0.0095
 2510SOL     OW10112   1.995   1.550   4.138  0.1414 -0.3496 -0.3867
 2510SOL    HW210113   2.064   1.608   4.171 -0.2482  0.4050 -0.8892
 2510SOL    HW310114   2.015   1.540   4.045  0.3344 -1.2033 -0.2561
 2510SOL    MW410115   2.007   1.556   4.130  0.1156 -0.3625 -0.4358
 2511SOL     OW10116   1.537   1.742   4.605  0.6252 -0.0304 -0.6098
 2511SOL    HW210117   1.527   1.833   4.578  0.7141 -0.1750 -1.1286
 2511SOL    HW310118   1.451   1.702   4.590  0.1623  0.3211  0.9786
 2511SOL    MW410119   1.524   1.748   4.600  0.5759 -0.0031 -0.4687
 2512SOL     OW10120   1.517   1.556   4.148 -0.1378 -0.2304  0.1544
 2512SOL    HW210121   1.581   1.617   4.186  0.2679 -0.0307 -0.8148
 2512SOL    HW310122   1.521   1.478   4.203  0.6141 -0.0401  0.3678
 2512SOL    MW410123   1.526   1.554   4.160  0.0148 -0.1789  0.0548
 2513SOL     OW10124   1.799   1.657   4.524  0.3833  0.4190 -0.2945
 2513SOL    HW210125   1.859   1.713   4.573 -1.0422  1.8563 -0.1575
 2513SOL    HW310126   1.712   1.685   4.552 -0.4048 -0.2821 -1.9692
 2513SOL    MW410127   1.795   1.668   4.534  0.0912  0.5162 -0.4973
 2514SOL     OW10128   1.730   1.860   4.826  0.3963  0.2376  0.0751
 2514SOL    HW210129   1.655   1.819   4.783  0.8645 -0.0861 -0.4417
 2514SOL    HW310130   1.701   1.949   4.846  0.7788  0.9841 -2.5377
 2514SOL    MW410131   1.716   1.866   4.823  0.5085  0.2935 -0.3381
 2515SOL     OW10132   1.706   3.251   4.819  0.1671 -0.5467  0.3078
 2515SOL    HW210133   1.641   3.182   4.803  0.6708 -0.6983 -1.1788
 2515SOL    HW310134   1.655   3.332   4.817 -0.1105 -0.7263 -0.0087
 2515SOL    MW410135   1.690   3.253   4.816  0.1971 -0.5903  0.0696
 2516SOL     OW10136   1.840   2.431   4.283 -0.0792 -0.0632  0.2724
 2516SOL    HW210137   1.820   2.516   4.244  1.0660  0.7695  1.4643
 2516SOL    HW310138   1.921   2.403   4.240 -0.0693 -0.2210  0.3935
 2516SOL    MW410139   1.848   2.438   4.272  0.0732  0.0257  0.4458
 2517SOL     OW10140   2.262   3.164   4.495  0.5896  0.1357 -0.0775
 2517SOL    HW210141   2.307   3.095   4.545 -1.9679 -0.9489  0.8313
 2517SOL    HW310142   2.272   3.242   4.549 -0.1142 -0.4957  0.9867
 2517SOL    MW410143   2.269   3.165   4.509  0.1595 -0.0906  0.1831
 2518SOL     OW10144   1.820   3.217   4.280  0.1988  0.0176  0.2454
 2518SOL    HW210145   1.866   3.206   4.364 -0.1696  0.0363  0.4488
 2518SOL    HW310146   1.877   3.173   4.216  0.9069  0.7559  0.3634
 2518SOL    MW410147   1.834   3.209   4.283  0.2437  0.1175  0.2880
 2519SOL     OW10148   2.265   2.690   4.833 -0.1408  0.5054 -0.1382
 2519SOL    HW210149   2.297   2.676   4.744 -1.1387  0.1652 -0.4510
 2519SOL    HW310150   2.324   2.755   4.870  2.1430 -1.5669 -0.0086
 2519SOL    MW410151   2.277   2.697   4.826  0.0288  0.1872 -0.1616
 2520SOL     OW10152   2.006   3.075   4.142 -0.9207 -0.0668 -0.2056
 2520SOL    HW210153   2.091   3.107   4.170 -0.4991 -1.2829 -0.0625
 2520SOL    HW310154   2.005   3.090   4.047 -1.4512  1.9857  0.1099
 2520SOL    MW410155   2.017   3.081   4.133 -0.9353  0.0436 -0.1454
 2521SOL     OW10156   2.245   3.217   4.215  0.2203  0.2946  0.2410
 2521SOL    HW210157   2.330   3.184   4.188 -0.3472 -0.3063 -0.8435
 2521SOL    HW310158   2.249   3.219   4.311  1.5537  0.5649  0.1864
 2521SOL    MW410159   2.257   3.213   4.224  0.3214  0.2508  0.0906
 2522SOL     OW10160   2.223   2.347   4.806 -0.3259  0.3022 -0.2922
 2522SOL    HW210161   2.199   2.422   4.860 -0.7253 -1.3503  1.9246
 2522SOL    HW310162   2.318   2.355   4.794 -0.1235  0.3267  1.2619
 2522SOL    MW410163   2.232   2.358   4.811 -0.3519  0.0875  0.2055
 2523SOL     OW10164   2.031   3.900   4.177 -0.8711 -0.2894 -0.6908
 2523SOL    HW210165   1.957   3.946   4.216 -0.4004 -0.2958  0.2194
 2523SOL    HW310166   2.015   3.808   4.197  0.5049 -0.0794  1.4141
 2523SOL    MW410167   2.019   3.894   4.185 -0.6278 -0.2625 -0.2933
 2524SOL     OW10168   1.809   4.284   4.155  0.0562  0.1276 -0.3181
 2524SOL    HW210169   1.813   4.279   4.060  1.0041 -1.2099 -0.2142
 2524SOL    HW310170   1.896   4.315   4.181  0.3302 -1.0454  0.2010
 2524SOL    MW410171   1.821   4.288   4.146  0.2176 -0.2041 -0.2360
 2525SOL     OW10172   1.583   4.416   4.215  0.3862 -0.1793  0.0663
 2525SOL    HW210173   1.668   4.375   4.195  1.1454  1.4839 -0.2280
 2525SOL    HW310174   1.582   4.494   4.161 -1.0250  0.2103  0.6552
 2525SOL    MW410175   1.594   4.421   4.205  0.3002  0.0916  0.1049
 2526SOL     OW10176   2.323   4.283   4.124  0.1911 -0.4033  0.4898
 2526SOL    HW210177   2.330   4.192   4.153  0.4039 -0.9638 -1.2609
 2526SOL    HW310178   2.399   4.327   4.164  0.1468 -0.9985  1.2501
 2526SOL    MW410179   2.334   4.277   4.133  0.2131 -0.5560  0.3591
 2527SOL     OW10180   2.509   0.034   4.154 -0.1000 -0.0149  0.1219
 2527SOL    HW210181   2.580   0.085   4.193  0.3048  0.8419 -1.6802
 2527SOL    HW310182   2.430   0.081   4.179 -0.0176 -0.7393  1.7870
 2527SOL    MW410183   2.508   0.047   4.162 -0.0358  0.0026  0.1044
 2528SOL     OW10184   2.494   0.481   4.235 -0.1912  0.3755 -0.1872
 2528SOL    HW210185   2.495   0.575   4.214  0.2225  0.2399 -0.7851
 2528SOL    HW310186   2.580   0.449   4.206 -1.1732 -0.6352 -2.0577
 2528SOL    MW410187   2.506   0.490   4.228 -0.2663  0.2243 -0.5131
 2529SOL     OW10188   2.727   4.525   4.805 -0.7786 -0.1207 -0.6510
 2529SOL    HW210189   2.719   4.517   4.900  0.7712 -1.1159 -0.5942
 2529SOL    HW310190   2.821   4.516   4.787 -0.9890  0.5555 -2.2373
 2529SOL    MW410191   2.738   4.523   4.815 -0.6020 -0.1631 -0.8531
 2530SOL     OW10192   2.263   0.415   4.114  0.6086  0.1536  0.2789
 2530SOL    HW210193   2.347   0.455   4.137 -0.1094  0.2707  2.8672
 2530SOL    HW310194   2.272   0.394   4.021  3.3681  0.4761  0.4058
 2530SOL    MW410195   2.276   0.417   4.105  0.8781  0.2116  0.6375
 2531SOL     OW10196   2.451   0.415   4.501 -0.1261  0.1163  0.1730
 2531SOL    HW210197   2.439   0.320   4.496 -0.5139  0.2113 -0.6860
 2531SOL    HW310198   2.468   0.442   4.411  1.0574  0.7245  0.5581
 2531SOL    MW410199   2.452   0.406   4.489 -0.0212  0.2091  0.1101
 2532SOL     OW10200   2.438   0.757   4.168 -0.1428 -0.1155  0.4055
 2532SOL    HW210201   2.428   0.782   4.076 -0.4445  0.0373  0.4767
 2532SOL    HW310202   2.485   0.830   4.207  1.1960 -0.8012  0.0873
 2532SOL    MW410203   2.443   0.770   4.161 -0.0060 -0.1858  0.3734
 2533SOL     OW10204   2.331   1.323   4.561 -0.3151  0.0075 -0.2221
 2533SOL    HW210205   2.398   1.370   4.612  0.2340  0.3305 -1.2389
 2533SOL    HW310206   2.248   1.352   4.599  0.0695  0.8142  0.0167
 2533SOL    MW410207   2.329   1.333   4.573 -0.1917  0.1565 -0.3252
 2534SOL     OW10208   2.539   0.944   4.347  0.4609 -0.0866  0.0102
 2534SOL    HW210209   2.613   0.906   4.394 -0.4791  1.6758  3.1068
 2534SOL    HW310210   2.573   1.024   4.308  0.4937  0.1567  0.5217
 2534SOL    MW410211   2.553   0.950   4.348  0.3412  0.1780  0.4859
 2535SOL     OW10212   2.463   1.557   4.214  0.2932  0.2571 -0.3331
 2535SOL    HW210213   2.431   1.472   4.242  0.8007  0.5433  1.1563
 2535SOL    HW310214   2.484   1.546   4.121 -1.5236 -0.6765 -0.6516
 2535SOL    MW410215   2.462   1.545   4.205  0.1204  0.1717 -0.1783
 2536SOL     OW10216   1.768   1.666   4.251  0.0089 -0.4004 -0.3470
 2536SOL    HW210217   1.842   1.626   4.205 -0.3898  0.5494 -1.8775
 2536SOL    HW310218   1.784   1.648   4.343  1.7439 -0.8746 -0.7199
 2536SOL    MW410219   1.780   1.658   4.257  0.1853 -0.3376 -0.5984
 2537SOL     OW10220   2.257   1.952   4.175 -0.4060  0.2934 -0.6586
 2537SOL    HW210221   2.184   2.010   4.197 -1.0903 -0.7192 -0.2169
 2537SOL    HW310222   2.233   1.868   4.213  1.4305  0.1837  0.2822
 2537SOL    MW410223   2.244   1.949   4.183 -0.2539  0.1452 -0.4764
 2538SOL     OW10224   2.546   2.321   4.130 -0.1832  0.4455 -0.3366
 2538SOL    HW210225   2.525   2.312   4.037 -1.5797  0.0481  0.0110
 2538SOL    HW310226   2.484   2.387   4.162 -0.9945 -0.8273  0.7282
 2538SOL    MW410227   2.535   2.329   4.122 -0.4745  0.2248 -0.1507
 2539SOL     OW10228   2.072   2.355   4.142 -0.3909 -0.1687 -0.0122
 2539SOL    HW210229   2.069   2.347   4.047  0.2021 -0.1338 -0.0369
 2539SOL    HW310230   2.056   2.266   4.174 -2.8710  0.2028 -0.0802
 2539SOL    MW410231   2.069   2.342   4.134 -0.6399 -0.1152 -0.0243
 2540SOL     OW10232   2.032   2.103   4.268 -0.3275 -0.0873  0.3458
 2540SOL    HW210233   2.040   2.080   4.361 -0.7937  0.5170  0.5386
 2540SOL    HW310234   1.963   2.046   4.235 -0.2314 -0.2312  0.3939
 2540SOL    MW410235   2.024   2.092   4.276 -0.3762 -0.0262  0.3777
 2541SOL     OW10236   2.508   2.830   4.222  0.2549 -0.2928  0.2282
 2541SOL    HW210237   2.594   2.808   4.187  1.3130  2.9905  0.6382
 2541SOL    HW310238   2.518   2.828   4.317 -0.8294 -2.4641  0.3214
 2541SOL    MW410239   2.521   2.827   4.230  0.2515 -0.1459  0.2942
 2542SOL     OW10240   2.229   2.433   4.487 -0.1380  0.1086  0.0535
 2542SOL    HW210241   2.259   2.520   4.514 -0.2082  0.3181 -0.5204
 2542SOL    HW310242   2.261   2.374   4.554  0.7523  0.4520 -0.0652
 2542SOL    MW410243   2.237   2.437   4.499 -0.0298  0.1814 -0.0381
 2543SOL     OW10244   2.546   3.729   4.802 -0.1320 -0.5509 -0.2571
 2543SOL    HW210245   2.611   3.730   4.872 -0.8291  0.8795  0.3832
 2543SOL    HW310246   2.597   3.721   4.722  0.6913 -1.8108  0.3728
 2543SOL    MW410247   2.561   3.728   4.801 -0.1156 -0.5283 -0.0892
 2544SOL     OW10248   1.596   2.838   4.311 -0.2177  0.2936 -0.0839
 2544SOL    HW210249   1.644   2.868   4.388  1.5014  0.0005 -1.0145
 2544SOL    HW310250   1.585   2.917   4.258 -1.4011  0.4954  0.4393
 2544SOL    MW410251   1.601   2.852   4.314 -0.1471  0.2813 -0.1373
 2545SOL     OW10252   2.385   3.585   4.374 -0.3065  0.0961  0.2469
 2545SOL    HW210253   2.349   3.549   4.292 -0.1542  0.4674  0.0143
 2545SOL    HW310254   2.479   3.592   4.357 -0.2484 -0.0144  0.5268
 2545SOL    MW410255   2.392   3.581   4.361 -0.2787  0.1304  0.2532
 2546SOL     OW10256   2.629   3.339   4.682 -0.4388 -0.2877 -0.7473
 2546SOL    HW210257   2.681   3.268   4.718 -0.0352  1.0541  1.3643
 2546SOL    HW310258   2.691   3.392   4.632 -0.5183 -0.7364 -1.3352
 2546SOL    MW410259   2.644   3.337   4.680 -0.3958 -0.1698 -0.5465
 2547SOL     OW10260   2.442   4.030   4.207 -0.0536 -0.0964 -0.4185
 2547SOL    HW210261   2.459   3.991   4.121 -0.6342 -0.5745 -0.3148
 2547SOL    HW310262   2.530   4.047   4.243  0.2172 -1.8736 -0.2099
 2547SOL    MW410263   2.456   4.027   4.200 -0.0947 -0.3939 -0.3772
 2548SOL     OW10264   1.792   2.682   4.176 -0.3181  0.0204  0.1798
 2548SOL    HW210265   1.730   2.743   4.217 -0.6382  2.7993 -4.1966
 2548SOL    HW310266   1.877   2.722   4.188 -0.6619  2.1457 -3.8628
 2548SOL    MW410267   1.795   2.695   4.183 -0.4055  0.6676 -0.9308
 2549SOL     OW10268   2.513   4.441   4.250 -0.2130  0.2605  0.5010
 2549SOL    HW210269   2.597   4.402   4.228 -0.1035  0.2997  0.8519
 2549SOL    HW310270   2.520   4.532   4.220 -0.6898 -0.1364 -0.8834
 2549SOL    MW410271   2.525   4.448   4.243 -0.2615  0.2131  0.3643
 2550SOL     OW10272   2.408   4.505   4.505 -0.5349 -0.0264  0.0930
 2550SOL    HW210273   2.317   4.476   4.508 -0.0814 -1.4889  0.0186
 2550SOL    HW310274   2.441   4.474   4.420  0.6474 -1.4548  1.0315
 2550SOL    MW410275   2.401   4.497   4.494 -0.3188 -0.4077  0.2069
 2551SOL     OW10276   2.958   0.014   4.138  0.1903 -0.0241  0.3860
 2551SOL    HW210277   3.033   0.051   4.185 -0.4315  0.1240  1.2791
 2551SOL    HW310278   2.958  -0.079   4.162  0.2962 -0.0971  0.1048
 2551SOL    MW410279   2.968   0.006   4.148  0.1221 -0.0143  0.4663
 2552SOL     OW10280   2.737   0.158   4.243  0.7662 -0.3013  0.8782
 2552SOL    HW210281   2.761   0.174   4.334  0.6696 -0.3661  0.9158
 2552SOL    HW310282   2.802   0.096   4.211  2.0776  1.3802  0.2521
 2552SOL    MW410283   2.748   0.152   4.251  0.9265 -0.0880  0.8001
 2553SOL     OW10284   2.748   0.415   4.130  0.0365  0.5733 -1.1454
 2553SOL    HW210285   2.764   0.329   4.167  0.2625  0.8200 -0.6698
 2553SOL    HW310286   2.715   0.398   4.041  0.1416  0.0058 -1.0718
 2553SOL    MW410287   2.746   0.402   4.123  0.0801  0.5310 -1.0724
 2554SOL     OW10288   2.943   0.557   4.290  0.5527  0.1846  0.0889
 2554SOL    HW210289   2.881   0.509   4.235  0.0061  0.1115  0.7611
 2554SOL    HW310290   2.932   0.648   4.264  0.9667  0.0573 -0.5713
 2554SOL    MW410291   2.933   0.562   4.279  0.5352  0.1581  0.0901
 2555SOL     OW10292   2.884   0.808   4.191 -0.4573 -0.0842  0.0179
 2555SOL    HW210293   2.974   0.839   4.201 -0.6140 -0.0054  1.2205
 2555SOL    HW310294   2.858   0.838   4.104  0.8025 -0.4263 -0.4925
 2555SOL    MW410295   2.893   0.816   4.181 -0.3119 -0.1189  0.1092
 2556SOL     OW10296   2.166   1.162   4.169 -0.3458 -0.0480 -0.2596
 2556SOL    HW210297   2.231   1.219   4.210 -0.0983 -0.1014 -0.5752
 2556SOL    HW310298   2.170   1.080   4.219  0.4023 -0.3351 -0.7865
 2556SOL    MW410299   2.175   1.158   4.181 -0.2146 -0.0929 -0.3700
 2557SOL     OW10300   1.293   1.626   4.576 -0.3413 -0.2689 -0.3651
 2557SOL    HW210301   1.277   1.532   4.590 -0.2213 -0.0560  1.2901
 2557SOL    HW310302   1.278   1.639   4.483 -2.5885 -1.5145 -0.2280
 2557SOL    MW410303   1.289   1.615   4.566 -0.6219 -0.4053 -0.1283
 2558SOL     OW10304   2.561   1.489   4.639  0.0090  0.7879 -0.6936
 2558SOL    HW210305   2.505   1.565   4.654 -0.6032 -0.0585  1.4948
 2558SOL    HW310306   2.646   1.516   4.674 -0.8311 -0.3546  2.4130
 2558SOL    MW410307   2.565   1.503   4.646 -0.1826  0.5256  0.0057
 2559SOL     OW10308   2.383   1.299   4.279  0.3598  0.1136 -0.2540
 2559SOL    HW210309   2.474   1.272   4.274  1.2169  2.8008  0.2869
 2559SOL    HW310310   2.363   1.301   4.372  0.4433  1.6781 -0.2553
 2559SOL    MW410311   2.392   1.296   4.291  0.4840  0.6745 -0.1831
 2560SOL     OW10312   2.920   1.572   4.164  0.2465 -0.1376 -0.3162
 2560SOL    HW210313   2.856   1.612   4.222  0.3002  0.4993 -0.6860
 2560SOL    HW310314   3.003   1.615   4.186  0.3716 -0.2982 -0.4697
 2560SOL    MW410315   2.923   1.583   4.174  0.2701 -0.0746 -0.3853
 2561SOL     OW10316   2.737   1.919   4.240  0.2157  0.2884  0.4501
 2561SOL    HW210317   2.666   1.977   4.268  0.0877 -0.7980  2.4577
 2561SOL    HW310318   2.735   1.924   4.144 -1.4206  1.6430  0.5298
 2561SOL    MW410319   2.727   1.927   4.231 -0.0172  0.3238  0.7253
 2562SOL     OW10320   2.921   2.564   4.236  0.2984 -0.3242  0.2026
 2562SOL    HW210321   2.879   2.593   4.317  0.5465 -1.8677  0.8924
 2562SOL    HW310322   3.013   2.587   4.247  0.0934  0.7437 -0.2438
 2562SOL    MW410323   2.927   2.571   4.248  0.3040 -0.3870  0.2346
 2563SOL     OW10324   2.235   1.715   4.309  0.3723 -0.6648 -0.0220
 2563SOL    HW210325   2.305   1.657   4.280 -1.0767 -2.6032  0.3281
 2563SOL    HW310326   2.217   1.690   4.399 -1.2095 -0.6379 -0.3040
 2563SOL    MW410327   2.242   1.704   4.317 -0.0274 -0.9170 -0.0134
 2564SOL     OW10328   3.100   2.904   4.373  0.3897  0.1431 -0.1229
 2564SOL    HW210329   3.140   2.982   4.412 -0.7895  0.0761  1.2698
 2564SOL    HW310330   3.008   2.927   4.360  0.5684 -0.1503 -2.0877
 2564SOL    MW410331   3.093   2.917   4.377  0.2575  0.0951 -0.1988
 2565SOL     OW10332   2.834   2.938   4.357 -0.1143 -0.2635  0.1410
 2565SOL    HW210333   2.761   2.993   4.385  0.5036  0.5102  0.2602
 2565SOL    HW310334   2.816   2.852   4.394 -1.0113 -0.1032  0.0851
 2565SOL    MW410335   2.822   2.934   4.365 -0.1509 -0.1402  0.1497
 2566SOL     OW10336   2.650   3.562   4.328 -0.0132 -0.0765 -0.0683
 2566SOL    HW210337   2.698   3.533   4.405  1.6933  1.9952 -0.2797
 2566SOL    HW310338   2.642   3.484   4.274 -1.6133 -1.6493  2.3653
 2566SOL    MW410339   2.655   3.548   4.331  0.0010 -0.0105  0.2246
 2567SOL     OW10340   3.946   3.628   4.577 -0.0465  0.4357 -0.1072
 2567SOL    HW210341   4.022   3.580   4.612 -0.9358  0.3428  1.7453
 2567SOL    HW310342   3.954   3.618   4.482  1.9180 -0.1090  0.0836
 2567SOL    MW410343   3.957   3.620   4.569  0.0951  0.3514  0.1626
 2568SOL     OW10344   1.949   2.448   4.548 -0.2814 -0.3189  0.0072
 2568SOL    HW210345   1.905   2.437   4.463  0.5165  0.2483 -0.4894
 2568SOL    HW310346   2.042   2.450   4.526 -0.0704 -0.2650  0.9154
 2568SOL    MW410347   1.956   2.447   4.534 -0.1483 -0.2367  0.0620
 2569SOL     OW10348   3.040   3.739   4.491 -0.2426  0.1439 -0.2552
 2569SOL    HW210349   2.952   3.761   4.522  0.7679  1.2465  1.9153
 2569SOL    HW310350   3.034   3.646   4.468 -2.1207  0.3507 -0.7139
 2569SOL    MW410351   3.027   3.730   4.492 -0.3572  0.3166 -0.0296
 2570SOL     OW10352   4.166   3.492   4.655  0.5769 -0.3239 -0.4450
 2570SOL    HW210353   4.180   3.409   4.610  1.6905 -1.2840  1.5980
 2570SOL    HW310354   4.236   3.549   4.624 -0.7658  0.2317 -2.6025
 2570SOL    MW410355   4.177   3.489   4.645  0.5469 -0.3772 -0.4601
 2571SOL     OW10356   2.895   3.919   4.203 -0.1864  0.6144 -0.5446
 2571SOL    HW210357   2.981   3.954   4.228 -0.4018  1.2373 -0.6663
 2571SOL    HW310358   2.900   3.826   4.225 -0.3318  1.1127  1.7536
 2571SOL    MW410359   2.907   3.912   4.210 -0.2341  0.7625 -0.2575
 2572SOL     OW10360   2.724   4.302   4.173  0.2161  0.1470  0.3535
 2572SOL    HW210361   2.716   4.214   4.210  0.3223  0.0587  0.1684
 2572SOL    HW310362   2.740   4.287   4.080  2.2616  0.3057  0.6574
 2572SOL    MW410363   2.725   4.288   4.166  0.5002  0.1559  0.3691
 2573SOL     OW10364   2.759   3.754   4.974 -0.0229  0.0484  0.5447
 2573SOL    HW210365   2.854   3.755   4.986 -0.2309 -1.7360  2.5758
 2573SOL    HW310366   2.729   3.837   5.012  0.4419 -0.6519  2.4552
 2573SOL    MW410367   2.768   3.765   4.980  0.0110 -0.2794  1.0643
 2574SOL     OW10368   2.984   4.294   4.446 -0.3602 -0.5171 -0.2705
 2574SOL    HW210369   3.056   4.230   4.445 -0.8987 -1.1381  0.4964
 2574SOL    HW310370   3.004   4.353   4.374  1.5839  0.0511  0.6999
 2574SOL    MW410371   2.996   4.293   4.436 -0.1750 -0.5231 -0.0415
 2575SOL     OW10372   3.503   4.606   4.162 -0.5495 -0.1171 -0.8373
 2575SOL    HW210373   3.473   4.671   4.226  0.4580 -0.5987  0.1507
 2575SOL    HW310374   3.598   4.619   4.158 -0.2750 -1.8478 -0.2653
 2575SOL    MW410375   3.511   4.616   4.170 -0.3803 -0.4086 -0.6313
 2576SOL     OW10376   3.218   4.593   4.631  0.5685 -0.2100 -0.1081
 2576SOL    HW210377   3.144   4.532   4.633  0.1132  0.3481  0.4306
 2576SOL    HW310378   3.177   4.679   4.616  1.0440  0.1996  0.9297
 2576SOL    MW410379   3.203   4.596   4.629  0.5710 -0.0830  0.1001
 2577SOL     OW10380   3.148   0.408   4.142  0.1688 -0.2150  0.1860
 2577SOL    HW210381   3.157   0.325   4.189  0.1051  0.0761  0.7247
 2577SOL    HW310382   3.092   0.461   4.199 -0.0106  0.1024 -0.2809
 2577SOL    MW410383   3.142   0.404   4.156  0.1369 -0.1347  0.1955
 2578SOL     OW10384   3.393   0.513   4.208 -0.0136 -0.0631 -0.3992
 2578SOL    HW210385   3.471   0.462   4.185 -0.3537 -0.9234  0.3156
 2578SOL    HW310386   3.320   0.461   4.174 -0.3249  0.2992 -0.2868
 2578SOL    MW410387   3.393   0.500   4.200 -0.0997 -0.1288 -0.2899
 2579SOL     OW10388   3.593   0.906   4.192 -0.3005 -0.0617 -0.2467
 2579SOL    HW210389   3.587   0.997   4.164 -0.9841 -0.2946 -0.8765
 2579SOL    HW310390   3.508   0.868   4.168 -0.2397 -0.7057  0.5584
 2579SOL    MW410391   3.581   0.913   4.185 -0.3827 -0.1773 -0.2236
 2580SOL     OW10392   3.364   1.537   4.069  0.5652  0.0943  0.5945
 2580SOL    HW210393   3.305   1.603   4.106 -0.6722 -1.0284  0.6619
 2580SOL    HW310394   3.451   1.563   4.099 -0.1098  0.7170  2.0496
 2580SOL    MW410395   3.367   1.549   4.078  0.3128  0.0284  0.7954
 2581SOL     OW10396   3.132   1.147   4.140  0.0623 -0.2831 -0.0921
 2581SOL    HW210397   3.126   1.152   4.045 -0.4689 -0.7772 -0.0854
 2581SOL    HW310398   3.052   1.187   4.172  0.6228  0.6384  0.1684
 2581SOL    MW410399   3.121   1.153   4.132  0.0663 -0.2267 -0.0567
 2582SOL     OW10400   3.318   1.269   4.488 -0.0196  0.1438 -0.0169
 2582SOL    HW210401   3.326   1.298   4.397  0.2654 -0.3203 -0.1426
 2582SOL    HW310402   3.396   1.302   4.531  0.8112 -1.2753 -0.3933
 2582SOL    MW410403   3.329   1.277   4.481  0.1278 -0.1048 -0.0830
 2583SOL     OW10404   3.169   1.688   4.209  0.5107 -0.3797  0.3286
 2583SOL    HW210405   3.189   1.668   4.300  0.6150 -1.1720  0.1374
 2583SOL    HW310406   3.199   1.778   4.197  1.8077 -0.7573  0.6919
 2583SOL    MW410407   3.176   1.697   4.219  0.6955 -0.5341  0.3514
 2584SOL     OW10408   3.768   2.271   4.092 -0.4345  0.2350 -0.1391
 2584SOL    HW210409   3.683   2.313   4.109 -0.2592  0.8726 -0.8428
 2584SOL    HW310410   3.787   2.291   4.001  1.0509  1.1138  0.3572
 2584SOL    MW410411   3.759   2.279   4.082 -0.2153  0.4351 -0.1664
 2585SOL     OW10412   3.176   1.982   3.846 -0.1129 -0.1934  0.1250
 2585SOL    HW210413   3.181   1.979   3.941  2.0632  0.1456  0.0634
 2585SOL    HW310414   3.083   1.990   3.826 -0.7009 -1.6367  2.1717
 2585SOL    MW410415   3.164   1.983   3.856  0.0966 -0.3393  0.3872
 2586SOL     OW10416   3.509   2.339   4.100  0.0711  0.1574  0.2180
 2586SOL    HW210417   3.473   2.351   4.012  0.7552  1.3215  0.0916
 2586SOL    HW310418   3.475   2.413   4.150  2.1311  1.1746  0.1417
 2586SOL    MW410419   3.500   2.350   4.095  0.4330  0.4451  0.1907
 2587SOL     OW10420   4.010   2.400   4.242  0.1017  0.1493 -0.0476
 2587SOL    HW210421   4.096   2.386   4.202 -0.0750 -0.1646 -0.3209
 2587SOL    HW310422   3.953   2.337   4.198 -0.5016  1.0855 -0.6290
 2587SOL    MW410423   4.014   2.390   4.231 -0.0014  0.2313 -0.1607
 2588SOL     OW10424   2.501   2.068   4.261  0.1879  0.2393 -0.0383
 2588SOL    HW210425   2.423   2.021   4.233 -0.0573  0.9022 -0.4924
 2588SOL    HW310426   2.486   2.158   4.232  0.2221  0.8102  1.6324
 2588SOL    MW410427   2.489   2.074   4.254  0.1602  0.4022  0.1225
 2589SOL     OW10428   3.180   2.608   4.341  0.0437  0.7271  0.6365
 2589SOL    HW210429   3.188   2.666   4.417  0.9443 -1.4866  2.3026
 2589SOL    HW310430   3.268   2.607   4.303 -0.1308  0.9589  0.2270
 2589SOL    MW410431   3.193   2.615   4.346  0.1397  0.4656  0.8025
 2590SOL     OW10432   3.157   2.697   3.870  0.5265 -0.0191  0.5226
 2590SOL    HW210433   3.168   2.730   3.960 -0.2306 -0.6711  0.8630
 2590SOL    HW310434   3.076   2.737   3.840  1.3967  1.1408 -0.3116
 2590SOL    MW410435   3.148   2.706   3.878  0.5412  0.0479  0.4575
 2591SOL     OW10436   3.369   3.846   4.189  0.0250 -0.2791  0.2813
 2591SOL    HW210437   3.369   3.841   4.094 -1.9148  0.3483  0.2189
 2591SOL    HW310438   3.362   3.755   4.218  2.7992 -0.6456 -0.1163
 2591SOL    MW410439   3.368   3.833   4.181  0.1349 -0.2449  0.2208
 2592SOL     OW10440   2.256   2.718   4.146  0.1644 -0.4332 -0.5079
 2592SOL    HW210441   2.272   2.628   4.177  0.2350 -0.4253 -0.5211
 2592SOL    HW310442   2.330   2.768   4.180 -1.6962  0.3601  2.6176
 2592SOL    MW410443   2.268   2.713   4.155 -0.0718 -0.3276 -0.0973
 2593SOL     OW10444   2.750   3.255   3.749  0.1516  0.0969 -0.0248
 2593SOL    HW210445   2.682   3.198   3.785 -0.4312  0.0126 -1.2267
 2593SOL    HW310446   2.743   3.336   3.798 -0.2356 -0.2242  0.4526
 2593SOL    MW410447   2.740   3.258   3.760  0.0241  0.0432 -0.1204
 2594SOL     OW10448   3.158   4.005   4.264 -0.0066 -0.0126 -0.5810
 2594SOL    HW210449   3.162   4.003   4.359 -0.0910  0.9352 -0.5554
 2594SOL    HW310450   3.222   3.940   4.236  0.1524 -0.1597  0.1127
 2594SOL    MW410451   3.167   3.996   4.273  0.0033  0.0932 -0.4859
 2595SOL     OW10452   3.178   4.105   4.534  0.1407 -0.1979 -0.0355
 2595SOL    HW210453   3.168   4.058   4.616 -0.4332  0.3527  0.2151
 2595SOL    HW310454   3.264   4.148   4.540 -0.8885  1.7369  1.2644
 2595SOL    MW410455   3.188   4.105   4.545 -0.0710  0.1307  0.1688
 2596SOL     OW10456   3.139   3.396   4.195  0.0400  0.1694 -0.1273
 2596SOL    HW210457   3.096   3.425   4.276 -1.0803  1.5334 -1.1793
 2596SOL    HW310458   3.199   3.327   4.223 -1.4271 -0.4247  1.6478
 2596SOL    MW410459   3.141   3.391   4.209 -0.3014  0.2708 -0.0324
 2597SOL     OW10460   3.116   3.988   4.805  0.2197 -0.2567 -0.1504
 2597SOL    HW210461   3.167   3.909   4.824 -0.9584 -1.1120 -0.4735
 2597SOL    HW310462   3.026   3.956   4.796  0.0643  0.7764 -2.6721
 2597SOL    MW410463   3.111   3.973   4.806  0.0439 -0.2329 -0.5255
 2598SOL     OW10464   2.969   4.418   4.209  0.3745 -0.1067 -0.2836
 2598SOL    HW210465   3.030   4.345   4.194  0.5567  0.3022 -1.5571
 2598SOL    HW310466   2.883   4.377   4.208  0.4744 -0.3088 -1.0482
 2598SOL    MW410467   2.966   4.403   4.207  0.4117 -0.0796 -0.5522
 2599SOL     OW10468   3.779   4.566   4.167 -0.0759 -0.4827 -0.1717
 2599SOL    HW210469   3.788   4.471   4.174 -0.8791 -0.5310  0.2777
 2599SOL    HW310470   3.784   4.584   4.073 -1.3010 -1.1236 -0.3772
 2599SOL    MW410471   3.781   4.556   4.155 -0.3438 -0.5736 -0.1397
 2600SOL     OW10472   3.468   4.312   4.239 -0.3805  0.1783  0.1763
 2600SOL    HW210473   3.465   4.404   4.211  1.3798 -0.2982 -1.7296
 2600SOL    HW310474   3.461   4.316   4.334 -2.0672  2.1678  0.0165
 2600SOL    MW410475   3.467   4.325   4.248 -0.3710  0.3786 -0.0958
 2601SOL     OW10476   3.597   0.330   4.147  0.0265  0.4849 -0.1663
 2601SOL    HW210477   3.675   0.376   4.179 -0.0235  0.5667 -0.1633
 2601SOL    HW310478   3.605   0.333   4.052  0.8395 -0.8805 -0.1510
 2601SOL    MW410479   3.609   0.336   4.139  0.1273  0.3155 -0.1640
 2602SOL     OW10480   3.825   0.717   4.147  0.8702  0.1259  0.1902
 2602SOL    HW210481   3.755   0.779   4.171  0.9295 -0.3369  1.5998
 2602SOL    HW310482   3.825   0.718   4.051 -0.7797  0.4712  0.1668
 2602SOL    MW410483   3.815   0.725   4.138  0.6604  0.1104  0.3734
 2603SOL     OW10484   4.033   0.899   4.230  0.2920  0.7908 -0.5648
 2603SOL    HW210485   3.969   0.832   4.205 -0.0120  1.0983 -0.6144
 2603SOL    HW310486   4.117   0.863   4.202  0.1867  0.2129 -0.1540
 2603SOL    MW410487   4.036   0.885   4.223  0.2379  0.7551 -0.5169
 2604SOL     OW10488   3.365   0.759   4.123  0.2640  0.0085 -0.0190
 2604SOL    HW210489   3.283   0.802   4.147  0.2694  0.4222 -0.7012
 2604SOL    HW310490   3.370   0.681   4.178 -0.6023 -0.0282  0.0009
 2604SOL    MW410491   3.355   0.755   4.133  0.1504  0.0582 -0.1063
 2605SOL     OW10492   3.156   0.897   4.246 -0.2732 -0.2164  0.4162
 2605SOL    HW210493   3.178   0.890   4.340 -0.8728 -1.6307  0.4599
 2605SOL    HW310494   3.163   0.991   4.227 -1.2444  0.2313  2.1428
 2605SOL    MW410495   3.160   0.908   4.256 -0.4804 -0.3440  0.6495
 2606SOL     OW10496   3.803   1.304   4.191 -0.2594  0.3100 -0.0448
 2606SOL    HW210497   3.827   1.397   4.183 -0.4681  0.3322 -0.4073
 2606SOL    HW310498   3.807   1.287   4.285 -0.1100  0.6577  0.0148
 2606SOL    MW410499   3.807   1.314   4.202 -0.2673  0.3588 -0.0849
 2607SOL     OW10500   3.588   1.177   4.102 -0.2665  0.3695  0.2087
 2607SOL    HW210501   3.518   1.227   4.145  2.4492  0.8888  4.2524
 2607SOL    HW310502   3.668   1.224   4.123  1.8636 -3.0043  0.0659
 2607SOL    MW410503   3.589   1.190   4.111  0.3726 -0.0072  0.7238
 2608SOL     OW10504   4.031   2.699   4.126  0.5490  0.5605 -0.2498
 2608SOL    HW210505   4.121   2.725   4.147  0.3907  0.3484  0.7268
 2608SOL    HW310506   4.019   2.616   4.172 -0.3888  0.9619  0.2407
 2608SOL    MW410507   4.042   2.692   4.135  0.4048  0.5856 -0.0563
 2609SOL     OW10508   3.833   2.863   4.253 -0.0361 -0.3868  0.6030
 2609SOL    HW210509   3.896   2.815   4.199 -0.0227 -0.6473  0.8533
 2609SOL    HW310510   3.748   2.827   4.229 -0.1753  0.5019 -0.3086
 2609SOL    MW410511   3.830   2.852   4.242 -0.0527 -0.3040  0.5159
 2610SOL     OW10512   4.036   1.680   4.230  0.1043  0.2545  0.5204
 2610SOL    HW210513   4.110   1.629   4.198  0.4720  1.0605  0.0661
 2610SOL    HW310514   4.025   1.653   4.321  0.1840 -0.7549  0.2273
 2610SOL    MW410515   4.045   1.670   4.237  0.1636  0.2277  0.4215
 2611SOL     OW10516   2.960   2.070   4.271  0.3047  0.3481 -0.0079
 2611SOL    HW210517   2.924   2.156   4.249  0.3092 -0.1150 -1.9293
 2611SOL    HW310518   2.887   2.010   4.258  0.2996  0.0571  1.3399
 2611SOL    MW410519   2.946   2.074   4.266  0.3045  0.2487 -0.0839
 2612SOL     OW10520   3.643   3.898   4.289 -0.4120 -0.1897  0.1070
 2612SOL    HW210521   3.564   3.848   4.270 -1.0388  0.3577  1.1875
 2612SOL    HW310522   3.633   3.978   4.237  0.2071 -0.8246 -0.9998
 2612SOL    MW410523   3.631   3.902   4.280 -0.4129 -0.2010  0.1040
 2613SOL     OW10524   3.570   2.779   4.192 -0.3132 -0.6785 -0.0313
 2613SOL    HW210525   3.503   2.842   4.168  0.1140  0.0855  0.7513
 2613SOL    HW310526   3.582   2.725   4.114 -1.6884 -0.6946 -0.2329
 2613SOL    MW410527   3.563   2.780   4.179 -0.4387 -0.5798  0.0453
 2614SOL     OW10528   3.440   2.555   4.251 -0.4725  0.1906 -0.1732
 2614SOL    HW210529   3.482   2.641   4.246  1.0771 -0.5331  0.0180
 2614SOL    HW310530   3.444   2.532   4.344 -2.0004  0.4450 -0.0383
 2614SOL    MW410531   3.446   2.563   4.263 -0.4697  0.1287 -0.1302
 2615SOL     OW10532   3.713   2.497   4.562 -0.4509  0.0629 -0.0144
 2615SOL    HW210533   3.625   2.476   4.593  0.3002  0.4887  2.5525
 2615SOL    HW310534   3.710   2.590   4.539 -0.9222 -0.1743 -0.9522
 2615SOL    MW410535   3.701   2.506   4.563 -0.4139  0.0877  0.2007
 2616SOL     OW10536   2.647   3.345   4.170  0.1160 -0.7949 -0.2755
 2616SOL    HW210537   2.596   3.271   4.137  0.2144 -0.6406 -0.7822
 2616SOL    HW310538   2.728   3.306   4.202 -0.0023 -0.9518 -0.1643
 2616SOL    MW410539   2.651   3.330   4.170  0.1135 -0.7951 -0.3276
 2617SOL     OW10540   3.644   3.486   4.184 -0.1365  0.1253  0.0885
 2617SOL    HW210541   3.656   3.470   4.090 -0.0291  2.3410 -0.3020
 2617SOL    HW310542   3.555   3.519   4.191 -0.5050 -1.0057  0.9262
 2617SOL    MW410543   3.634   3.488   4.173 -0.1709  0.2682  0.1478
 2618SOL     OW10544   2.866   4.212   5.113  0.0812 -0.4693  0.1806
 2618SOL    HW210545   2.882   4.171   5.198  1.2096  0.2125  0.3100
 2618SOL    HW310546   2.802   4.156   5.071  1.0847 -1.9891  0.6369
 2618SOL    MW410547   2.860   4.199   5.119  0.3624 -0.5798  0.2580
 2619SOL     OW10548   3.836   3.800   4.133 -0.0818 -0.0567  0.3270
 2619SOL    HW210549   3.773   3.852   4.182 -0.1764 -0.1310  0.2830
 2619SOL    HW310550   3.847   3.720   4.185 -0.3397 -0.2264  0.1194
 2619SOL    MW410551   3.829   3.796   4.146 -0.1283 -0.0889  0.2937
 2620SOL     OW10552   4.118   4.239   4.800  0.0340  0.7713 -0.6416
 2620SOL    HW210553   4.122   4.190   4.882 -0.1966  2.5528  0.4401
 2620SOL    HW310554   4.052   4.193   4.748  0.8574 -0.9265 -0.2139
 2620SOL    MW410555   4.110   4.226   4.804  0.1116  0.7820 -0.4425
 2621SOL     OW10556   3.866   4.276   4.196  0.5384  0.2804  0.4017
 2621SOL    HW210557   3.944   4.226   4.171  0.4879 -0.2294  1.2395
 2621SOL    HW310558   3.872   4.284   4.291  0.5375  1.8680  0.2794
 2621SOL    MW410559   3.877   4.270   4.205  0.5314  0.4230  0.4959
 2622SOL     OW10560   3.633   4.131   4.139  0.5814 -0.3559  0.0203
 2622SOL    HW210561   3.721   4.169   4.142  0.5835 -0.4716  2.1071
 2622SOL    HW310562   3.577   4.196   4.182 -0.3289 -0.3986 -1.0577
 2622SOL    MW410563   3.637   4.145   4.145  0.4616 -0.3767  0.1535
 2623SOL     OW10564   4.136   0.111   4.261  0.4366 -0.2162 -0.0699
 2623SOL    HW210565   4.179   0.049   4.202 -0.3456 -1.3461  0.5483
 2623SOL    HW310566   4.096   0.057   4.329 -1.2270  0.8654 -0.1506
 2623SOL    MW410567   4.136   0.096   4.262  0.1140 -0.2226  0.0014
 2624SOL     OW10568   4.132   4.496   4.710 -0.0655 -0.1848  0.4017
 2624SOL    HW210569   4.123   4.408   4.747 -0.3443 -1.5429 -2.8104
 2624SOL    HW310570   4.042   4.531   4.709 -0.3251 -0.8790 -0.7489
 2624SOL    MW410571   4.119   4.489   4.715 -0.1369 -0.4549 -0.1740
 2625SOL     OW10572   4.032   0.342   4.170 -0.0891 -0.2830  0.0729
 2625SOL    HW210573   4.066   0.255   4.190  0.2815 -0.2508 -0.4105
 2625SOL    HW310574   4.111   0.397   4.160 -0.3272  0.1963  0.7847
 2625SOL    MW410575   4.047   0.338   4.171 -0.0715 -0.2155  0.1030
 2626SOL     OW10576   3.966   4.601   4.377 -0.2462  0.1122 -0.3325
 2626SOL    HW210577   3.986   4.508   4.370  0.3356  0.1954  0.1742
 2626SOL    HW310578   3.904   4.618   4.307  3.9199  0.5459 -4.1561
 2626SOL    MW410579   3.961   4.591   4.367  0.3803  0.1802 -0.7701
 2627SOL     OW10580   4.308   0.789   4.150  0.1626  0.3127 -0.3158
 2627SOL    HW210581   4.308   0.696   4.176  2.1496  0.0207 -1.2766
 2627SOL    HW310582   4.311   0.787   4.055 -0.1412  1.3752 -0.3484
 2627SOL    MW410583   4.309   0.776   4.141  0.3848  0.4144 -0.4473
 2628SOL     OW10584   3.790   1.441   4.777  0.1904 -0.5372  0.2218
 2628SOL    HW210585   3.866   1.446   4.718 -0.0022 -0.6214 -0.0350
 2628SOL    HW310586   3.822   1.475   4.860  0.0543  1.0501 -0.3525
 2628SOL    MW410587   3.804   1.446   4.780  0.1471 -0.3389  0.1121
 2629SOL     OW10588   0.024   1.203   4.143 -0.1071  0.1424 -0.2020
 2629SOL    HW210589   0.023   1.113   4.175 -0.5968  0.2833  0.1832
 2629SOL    HW310590  -0.005   1.196   4.052 -0.6169 -0.0330 -0.0266
 2629SOL    MW410591   0.020   1.190   4.135 -0.2390  0.1378 -0.1283
 2630SOL     OW10592   4.263   1.325   4.246 -0.0767  0.3841 -0.0570
 2630SOL    HW210593   4.203   1.263   4.205  0.0143 -0.1623  0.6055
 2630SOL    HW310594   4.350   1.286   4.233 -0.0528  0.1755  0.6877
 2630SOL    MW410595   4.267   1.311   4.239 -0.0615  0.2846  0.1283
 2631SOL     OW10596   4.270   1.566   4.136  0.0910 -0.5097  0.1978
 2631SOL    HW210597   4.267   1.479   4.175  0.7622 -0.6080  0.0364
 2631SOL    HW310598   4.262   1.550   4.042 -0.5016 -0.3437  0.2180
 2631SOL    MW410599   4.269   1.552   4.129  0.1016 -0.5008  0.1798
 2632SOL     OW10600   0.636   2.067   4.491  0.2835  0.2597 -0.7783
 2632SOL    HW210601   0.714   2.063   4.545 -1.1151 -0.5912  1.2473
 2632SOL    HW310602   0.601   2.155   4.506  0.2842  0.2778 -0.8784
 2632SOL    MW410603   0.641   2.078   4.500  0.0991  0.1497 -0.5236
 2633SOL     OW10604   0.048   1.627   4.648 -0.4805 -0.2264  0.1646
 2633SOL    HW210605  -0.025   1.685   4.666  0.9416  1.7862 -0.4240
 2633SOL    HW310606   0.115   1.683   4.610  1.4318 -2.0000  0.8157
 2633SOL    MW410607   0.047   1.642   4.645 -0.0406 -0.1950  0.1726
 2634SOL     OW10608   0.224   2.047   4.259  0.1979  0.0015  0.2051
 2634SOL    HW210609   0.279   2.010   4.190  1.0072 -0.7679  1.2576
 2634SOL    HW310610   0.275   2.036   4.340 -0.3704  1.6625  0.8180
 2634SOL    MW410611   0.238   2.041   4.261  0.2297  0.1192  0.4249
 2635SOL     OW10612   4.277   2.329   4.128  0.1007 -0.6584  0.0805
 2635SOL    HW210613   4.359   2.372   4.151  0.2271 -0.6622 -0.3663
 2635SOL    HW310614   4.280   2.245   4.172 -0.0484 -0.3036  0.7825
 2635SOL    MW410615   4.288   2.324   4.137  0.0982 -0.6120  0.1149
 2636SOL     OW10616   3.240   2.365   4.480 -0.3883 -0.2070 -0.3343
 2636SOL    HW210617   3.232   2.438   4.418 -0.9833  0.1933  0.2184
 2636SOL    HW310618   3.282   2.403   4.557 -0.8497 -0.4107  0.0189
 2636SOL    MW410619   3.245   2.380   4.482 -0.5279 -0.1812 -0.2146
 2637SOL     OW10620   3.328   3.192   4.285  0.0281  0.6981 -0.2690
 2637SOL    HW210621   3.419   3.195   4.314  0.0843  0.1043 -0.3855
 2637SOL    HW310622   3.278   3.175   4.364  0.0150  1.0976 -0.1936
 2637SOL    MW410623   3.334   3.190   4.299  0.0339  0.6726 -0.2747
 2638SOL     OW10624   3.607   3.223   4.325  0.4351 -0.2929  0.6437
 2638SOL    HW210625   3.642   3.250   4.409 -1.9730  0.7568  1.3450
 2638SOL    HW310626   3.608   3.302   4.271 -0.3624 -0.3551  0.5221
 2638SOL    MW410627   3.612   3.237   4.329  0.0119 -0.1626  0.7205
 2639SOL     OW10628   4.467   3.002   4.594  0.3238  0.3503  0.5617
 2639SOL    HW210629   4.481   3.090   4.559  0.3152  0.0089 -0.3074
 2639SOL    HW310630   4.544   2.953   4.567  0.1105 -0.0333  0.6488
 2639SOL    MW410631   4.479   3.007   4.586  0.2947  0.2549  0.4582
 2640SOL     OW10632   4.336   2.658   4.656 -0.0636  0.1646 -0.3707
 2640SOL    HW210633   4.387   2.679   4.735  0.2736 -1.3110 -0.1667
 2640SOL    HW310634   4.403   2.639   4.590 -0.3491 -0.2578 -0.5373
 2640SOL    MW410635   4.352   2.658   4.658 -0.0563 -0.0858 -0.3657
 2641SOL     OW10636   3.798   3.104   4.133  0.3415 -0.5772  0.1550
 2641SOL    HW210637   3.818   3.014   4.158  0.6624 -0.6623 -0.4179
 2641SOL    HW310638   3.717   3.124   4.181  0.4595 -1.0476  0.5571
 2641SOL    MW410639   3.790   3.095   4.143  0.3991 -0.6504  0.1326
 2642SOL     OW10640   4.480   3.190   4.187 -0.0077  0.3813 -0.1299
 2642SOL    HW210641   4.484   3.281   4.157  2.2368 -0.3578 -2.2183
 2642SOL    HW310642   4.420   3.148   4.126 -1.3811  0.5085  1.0927
 2642SOL    MW410643   4.472   3.196   4.175  0.1068  0.3009 -0.2441
 2643SOL     OW10644   4.277   3.803   4.126 -0.1991  0.1026  0.4558
 2643SOL    HW210645   4.280   3.807   4.031  2.1092  3.3296  0.5905
 2643SOL    HW310646   4.192   3.841   4.149  0.1336  1.3055 -0.2663
 2643SOL    MW410647   4.266   3.808   4.117  0.1497  0.6871  0.3791
 2644SOL     OW10648   4.053   3.922   4.234 -0.7106  0.6366  0.1970
 2644SOL    HW210649   3.977   3.877   4.196  0.0845 -0.6448  0.1247
 2644SOL    HW310650   4.038   3.918   4.328 -0.2399 -0.4891  0.2263
 2644SOL    MW410651   4.041   3.916   4.241 -0.5441  0.3192  0.1912
 2645SOL     OW10652   4.108   4.173   4.114  0.2764 -0.5781 -0.4435
 2645SOL    HW210653   4.169   4.226   4.165 -0.3508  0.0152 -0.3046
 2645SOL    HW310654   4.092   4.095   4.167  0.5089 -0.4918 -0.2493
 2645SOL    MW410655   4.114   4.170   4.128  0.2246 -0.4888 -0.3996
 2646SOL     OW10656   3.807   0.250   4.576  0.0745  0.5700  0.5908
 2646SOL    HW210657   3.898   0.252   4.547  0.2501  1.5983  1.2100
 2646SOL    HW310658   3.779   0.341   4.578 -0.8273  0.3004  0.8623
 2646SOL    MW410659   3.815   0.262   4.573 -0.0215  0.6701  0.7076
 2647SOL     OW10660   4.328   4.413   4.524  0.1120 -0.4891 -0.0512
 2647SOL    HW210661   4.259   4.443   4.582 -1.2277 -0.3841 -1.6575
 2647SOL    HW310662   4.392   4.484   4.524 -0.5998  0.1582  0.1381
 2647SOL    MW410663   4.327   4.426   4.532 -0.1583 -0.3901 -0.2379
 2648SOL     OW10664   4.304   4.589   4.110 -0.1003 -0.2916 -0.3926
 2648SOL    HW210665   4.291   4.499   4.141  0.2095 -0.1445  0.1654
 2648SOL    HW310666   4.372   4.625   4.167 -2.2934  1.2579  1.3373
 2648SOL    MW410667   4.311   4.582   4.121 -0.3486 -0.0682 -0.0906
 2649SOL     OW10668   0.295   4.369   4.550  0.1999  0.4015 -0.3350
 2649SOL    HW210669   0.381   4.335   4.525  0.1529  0.0685 -0.0510
 2649SOL    HW310670   0.247   4.292   4.580  0.2292  0.7759  0.6945
 2649SOL    MW410671   0.300   4.355   4.551  0.1976  0.4063 -0.1616
 2650SOL     OW10672   3.040   0.844   4.542  0.3052  0.1822  0.2435
 2650SOL    HW210673   3.009   0.754   4.553 -1.3331  1.0334  2.8646
 2650SOL    HW310674   2.962   0.894   4.519  1.4754  0.7210 -2.8598
 2650SOL    MW410675   3.026   0.839   4.540  0.2434  0.3655  0.1798
 2651SOL     OW10676   0.435   0.221   4.510  0.6940 -0.4673 -0.0892
 2651SOL    HW210677   0.382   0.300   4.524  1.2812 -0.0040 -0.4388
 2651SOL    HW310678   0.391   0.153   4.561 -0.1329 -0.0459 -0.2395
 2651SOL    MW410679   0.422   0.223   4.519  0.6624 -0.3506 -0.1550
 2652SOL     OW10680   0.436   0.376   4.080  0.0357 -0.2437  0.2511
 2652SOL    HW210681   0.355   0.414   4.112 -0.1049 -1.3465  1.2598
 2652SOL    HW310682   0.423   0.364   3.986 -0.4777  0.7597  0.1929
 2652SOL    MW410683   0.424   0.380   4.072 -0.0506 -0.2568  0.3767
 2653SOL     OW10684   4.224   0.546   4.475  0.2110  0.4396  0.0634
 2653SOL    HW210685   4.160   0.479   4.502 -0.3740 -0.0137 -2.3664
 2653SOL    HW310686   4.176   0.628   4.479 -0.2089  0.2309 -0.7361
 2653SOL    MW410687   4.209   0.548   4.479  0.0787  0.3523 -0.3624
 2654SOL     OW10688   0.444   3.435   4.500 -0.3155  0.3146  0.5016
 2654SOL    HW210689   0.357   3.474   4.507  0.6955  2.6005  0.7591
 2654SOL    HW310690   0.504   3.506   4.525  1.6267 -1.1706  0.1508
 2654SOL    MW410691   0.440   3.450   4.505  0.0742  0.4203  0.4897
 2655SOL     OW10692   0.205   2.850   4.211 -0.1807  0.0514  0.1986
 2655SOL    HW210693   0.278   2.788   4.210 -1.0805 -1.0203  1.0339
 2655SOL    HW310694   0.245   2.934   4.186  0.9393 -0.9428 -1.4134
 2655SOL    MW410695   0.220   2.853   4.208 -0.1517 -0.2210  0.0963
 2656SOL     OW10696   0.018   1.336   4.597  0.0530  0.0150 -0.1853
 2656SOL    HW210697   0.032   1.427   4.623  0.0197 -0.2896  0.8908
 2656SOL    HW310698   0.099   1.311   4.553  0.1445  0.4954 -0.2909
 2656SOL    MW410699   0.031   1.345   4.594  0.0607  0.0380 -0.0572
 2657SOL     OW10700   0.691   1.679   4.681  0.4782 -0.0706  0.1966
 2657SOL    HW210701   0.723   1.759   4.722  0.7142 -0.1548  0.1785
 2657SOL    HW310702   0.771   1.629   4.660  0.2644 -1.4291  2.4673
 2657SOL    MW410703   0.706   1.683   4.683  0.4812 -0.2609  0.4940
 2658SOL     OW10704   0.491   1.711   4.217  0.0814  0.6086 -0.2019
 2658SOL    HW210705   0.415   1.656   4.197  0.1557  0.7808 -0.9826
 2658SOL    HW310706   0.566   1.660   4.188  0.2136  0.7477 -0.1083
 2658SOL    MW410707   0.491   1.697   4.211  0.1087  0.6496 -0.2928
 2659SOL     OW10708   4.483   1.964   4.140  0.6887 -0.1097  0.6456
 2659SOL    HW210709   4.561   1.989   4.189  1.0783 -0.6161  0.2979
 2659SOL    HW310710   4.410   2.001   4.189  1.1607  0.5094  0.8846
 2659SOL    MW410711   4.484   1.972   4.153  0.8025 -0.0948  0.6309
 2660SOL     OW10712   3.840   2.039   4.238 -0.3327 -0.2798 -0.2136
 2660SOL    HW210713   3.830   2.116   4.183 -1.0493 -0.0565  0.2239
 2660SOL    HW310714   3.755   1.995   4.234 -0.6722  0.1791  1.3617
 2660SOL    MW410715   3.827   2.043   4.231 -0.4718 -0.1898  0.0520
 2661SOL     OW10716   1.337   2.241   4.675 -0.4353  0.2437  0.2347
 2661SOL    HW210717   1.356   2.253   4.767 -0.4958  1.0297  0.1438
 2661SOL    HW310718   1.247   2.207   4.674 -0.5500  0.5407  0.4470
 2661SOL    MW410719   1.327   2.238   4.687 -0.4585  0.3867  0.2503
 2662SOL     OW10720   0.476   3.200   4.262  0.3639 -0.1638  1.0122
 2662SOL    HW210721   0.509   3.191   4.351 -0.4326  1.0097  1.4374
 2662SOL    HW310722   0.502   3.288   4.236 -0.4079 -0.0900  0.5003
 2662SOL    MW410723   0.484   3.210   4.270  0.1570  0.0010  1.0009
 2663SOL     OW10724   3.432   2.103   4.247  0.1717  0.5577 -0.5366
 2663SOL    HW210725   3.459   2.187   4.211 -0.9544  1.1685  0.0294
 2663SOL    HW310726   3.384   2.125   4.327 -1.2206 -0.5544 -1.0418
 2663SOL    MW410727   3.429   2.117   4.253 -0.1605  0.4916 -0.5283
 2664SOL     OW10728   0.115   2.199   4.767  0.0422 -0.5735 -0.1661
 2664SOL    HW210729   0.054   2.132   4.736 -0.5640 -0.4450  0.7403
 2664SOL    HW310730   0.197   2.152   4.780  0.2422 -0.6726 -1.7397
 2664SOL    MW410731   0.118   2.184   4.765 -0.0114 -0.5696 -0.2542
 2665SOL     OW10732   0.481   3.911   4.519 -0.3435 -0.1906  0.1261
 2665SOL    HW210733   0.535   3.984   4.551  2.4347 -2.3710  0.6352
 2665SOL    HW310734   0.395   3.927   4.557 -0.0564  3.2931 -0.4840
 2665SOL    MW410735   0.477   3.923   4.528  0.0609 -0.0188  0.1121
 2666SOL     OW10736   0.567   3.198   4.517 -0.3047  0.2047 -0.8764
 2666SOL    HW210737   0.524   3.282   4.534 -0.6179 -0.1920  0.2998
 2666SOL    HW310738   0.661   3.218   4.521 -0.3780  0.3225  0.2606
 2666SOL    MW410739   0.574   3.212   4.520 -0.3557  0.1681 -0.5708
 2667SOL     OW10740   3.427   0.158   4.316  0.3020 -0.0076 -0.4491
 2667SOL    HW210741   3.474   0.213   4.254  0.9212  0.1510  0.1567
 2667SOL    HW310742   3.470   0.174   4.400 -0.9626  0.3077  0.1563
 2667SOL    MW410743   3.439   0.168   4.319  0.2170  0.0549 -0.2885
 2668SOL     OW10744   4.062   1.165   4.148  0.3222  0.1156  0.0488
 2668SOL    HW210745   3.981   1.209   4.171  0.4336 -0.0318  0.7332
 2668SOL    HW310746   4.048   1.074   4.171  1.0685  0.2798  1.1984
 2668SOL    MW410747   4.050   1.159   4.154  0.4354  0.1177  0.2899
 2669SOL     OW10748   4.106   3.452   4.148 -0.1052  0.2406  0.1668
 2669SOL    HW210749   4.090   3.358   4.154  1.0904  0.0383  0.2754
 2669SOL    HW310750   4.089   3.474   4.056  0.2820 -0.2037 -0.0084
 2669SOL    MW410751   4.101   3.443   4.137  0.1030  0.1552  0.1583
 2670SOL     OW10752   3.659   0.494   4.545  0.5454  0.1351  0.2493
 2670SOL    HW210753   3.694   0.494   4.455  0.1383  1.1499  0.0886
 2670SOL    HW310754   3.565   0.481   4.534  0.5648 -0.2965  0.5687
 2670SOL    MW410755   3.652   0.492   4.531  0.4940  0.2120  0.2704
 2671SOL     OW10756   0.445   0.127   4.242  0.0560  0.1282 -0.0938
 2671SOL    HW210757   0.451   0.161   4.332 -0.8479  0.3565 -0.1185
 2671SOL    HW310758   0.437   0.205   4.188 -1.1217 -0.0786 -0.2283
 2671SOL    MW410759   0.445   0.142   4.247 -0.2186  0.1310 -0.1144
 2672SOL     OW10760   4.471   2.438   4.861  0.1665  0.0621 -0.3965
 2672SOL    HW210761   4.389   2.423   4.813  0.6452  1.4180 -1.6689
 2672SOL    HW310762   4.515   2.353   4.860 -0.8874 -0.4993 -0.3364
 2672SOL    MW410763   4.466   2.425   4.854  0.0906  0.1669 -0.5565
 2673SOL     OW10764   1.045   2.187   4.578  0.0871  0.1892  0.3389
 2673SOL    HW210765   1.066   2.147   4.493  1.6723  1.4719  0.1076
 2673SOL    HW310766   1.024   2.278   4.557  0.6360  0.5545  1.3456
 2673SOL    MW410767   1.045   2.194   4.564  0.3687  0.4067  0.4416
 2674SOL     OW10768   1.821   4.030   4.276  0.1316 -0.3717 -0.0956
 2674SOL    HW210769   1.827   4.055   4.369  0.7975 -1.4094  0.1418
 2674SOL    HW310770   1.822   4.114   4.229 -0.2432  0.1620  0.8330
 2674SOL    MW410771   1.822   4.045   4.282  0.1699 -0.4387  0.0582
 2675SOL     OW10772   1.918   4.515   4.619  0.5282 -0.1960 -0.0078
 2675SOL    HW210773   1.876   4.429   4.628  0.3986 -0.1004  0.3076
 2675SOL    HW310774   2.009   4.494   4.597  0.7416 -0.4381  1.0657
 2675SOL    MW410775   1.924   4.501   4.617  0.5393 -0.2155  0.1755
 2676SOL     OW10776   0.693   1.299   4.219  0.0879  0.3777 -1.0918
 2676SOL    HW210777   0.708   1.331   4.308  2.8503  0.4666 -1.5707
 2676SOL    HW310778   0.656   1.374   4.173  2.1462  1.4642 -0.9879
 2676SOL    MW410779   0.690   1.313   4.225  0.7239  0.5327 -1.1415
 2677SOL     OW10780   2.854   1.574   4.569  0.0871 -0.5647  0.2964
 2677SOL    HW210781   2.888   1.484   4.570  1.0473 -0.2038  0.9132
 2677SOL    HW310782   2.804   1.579   4.487 -0.7539 -1.9329  0.7008
 2677SOL    MW410783   2.852   1.563   4.558  0.1030 -0.6975  0.4315
 2678SOL     OW10784   1.440   0.434   4.338  0.9240 -0.0679  0.1705
 2678SOL    HW210785   1.353   0.441   4.378  0.4769  0.1823 -0.8187
 2678SOL    HW310786   1.477   0.522   4.345  0.1760  0.3991 -1.4228
 2678SOL    MW410787   1.433   0.446   4.344  0.7663  0.0267 -0.1698
 2679SOL     OW10788   1.930   0.896   4.325 -0.2646 -0.0874  0.4959
 2679SOL    HW210789   1.910   0.834   4.255 -0.3454 -0.9744  1.2792
 2679SOL    HW310790   2.025   0.901   4.326 -0.2847  0.3716 -0.0553
 2679SOL    MW410791   1.940   0.888   4.316 -0.2780 -0.1438  0.5269
 2680SOL     OW10792   0.868   1.646   4.215 -0.1077  0.2745 -0.0965
 2680SOL    HW210793   0.879   1.740   4.205 -1.6613  0.5098  0.1764
 2680SOL    HW310794   0.858   1.633   4.310 -2.0281  0.1205 -0.2999
 2680SOL    MW410795   0.868   1.657   4.226 -0.5661  0.2851 -0.0873
 2681SOL     OW10796   0.699   1.215   4.755  0.7429 -0.2243 -0.3488
 2681SOL    HW210797   0.655   1.294   4.787  1.7043 -0.1468  0.8056
 2681SOL    HW310798   0.635   1.145   4.768  0.6302  0.0314  0.4767
 2681SOL    MW410799   0.685   1.216   4.761  0.8548 -0.1804 -0.0877
 2682SOL     OW10800   1.361   1.345   4.594 -0.3357  0.1563 -0.3862
 2682SOL    HW210801   1.268   1.332   4.575 -0.6443  0.1270  1.1165
 2682SOL    HW310802   1.402   1.354   4.508 -1.5507 -1.0000 -1.0973
 2682SOL    MW410803   1.354   1.345   4.580 -0.5367  0.0000 -0.2823
 2683SOL     OW10804   4.289   2.086   4.257  0.4739  0.0145  0.0554
 2683SOL    HW210805   4.221   2.028   4.226  0.1693  0.3716  0.0453
 2683SOL    HW310806   4.271   2.097   4.351  1.4856 -1.1936  0.4075
 2683SOL    MW410807   4.278   2.080   4.266  0.5670 -0.0978  0.1001
 2684SOL     OW10808   0.513   2.383   4.232  0.2255  0.4202  0.5490
 2684SOL    HW210809   0.496   2.476   4.217  0.4366  0.2920 -0.4652
 2684SOL    HW310810   0.600   2.367   4.198 -0.6340 -0.6110 -1.2473
 2684SOL    MW410811   0.522   2.393   4.226  0.1400  0.2673  0.1783
 2685SOL     OW10812   0.865   3.669   4.476 -0.2437  0.0722  0.2525
 2685SOL    HW210813   0.945   3.621   4.495  0.2309  0.2470 -1.2092
 2685SOL    HW310814   0.838   3.637   4.389 -1.2038  0.7359  0.2972
 2685SOL    MW410815   0.872   3.659   4.467 -0.3079  0.1829  0.0658
 2686SOL     OW10816   0.590   3.648   4.579 -0.4984  0.3982 -0.1567
 2686SOL    HW210817   0.681   3.636   4.552 -0.7881 -1.4270 -0.3695
 2686SOL    HW310818   0.574   3.742   4.568  0.7537  0.4213 -2.0158
 2686SOL    MW410819   0.600   3.659   4.574 -0.3714  0.1605 -0.4301
 2687SOL     OW10820   1.323   3.987   4.580  0.3992  0.3128 -0.5256
 2687SOL    HW210821   1.241   4.031   4.603  0.9501  0.6574  0.8734
 2687SOL    HW310822   1.390   4.055   4.590  0.8972 -0.0698 -1.2647
 2687SOL    MW410823   1.321   4.002   4.585  0.5376  0.3080 -0.4382
 2688SOL     OW10824   0.301   4.653   4.593 -0.1262  0.9352 -0.0161
 2688SOL    HW210825   0.206   4.657   4.592 -0.2156 -0.8822 -1.1089
 2688SOL    HW310826   0.321   4.560   4.604  1.5167  1.2278 -0.3430
 2688SOL    MW410827   0.291   4.641   4.594  0.0788  0.7343 -0.2031
 2689SOL     OW10828   0.989   0.543   4.236 -0.2181  0.2727  0.4571
 2689SOL    HW210829   0.979   0.469   4.176 -2.0894  0.1984  0.8350
 2689SOL    HW310830   0.902   0.555   4.275  0.4656  1.6240  1.6302
 2689SOL    MW410831   0.976   0.535   4.233 -0.3748  0.4412  0.6623
 2690SOL     OW10832   3.763   3.057   4.629 -0.4701  0.0050  0.0585
 2690SOL    HW210833   3.847   3.053   4.583  0.2196  0.1520  1.2797
 2690SOL    HW310834   3.744   3.151   4.637 -0.0723  0.0201  0.9594
 2690SOL    MW410835   3.771   3.069   4.624 -0.3266  0.0262  0.3381
 2691SOL     OW10836   0.681   0.014   4.150 -0.1635 -0.0884 -0.5025
 2691SOL    HW210837   0.662  -0.006   4.058 -2.1897 -0.4509 -0.0155
 2691SOL    HW310838   0.597   0.043   4.186  0.8068  0.8831  1.0305
 2691SOL    MW410839   0.667   0.015   4.143 -0.3029 -0.0076 -0.2360
 2692SOL     OW10840   0.174   3.899   4.581  0.2398  0.0863 -0.1550
 2692SOL    HW210841   0.172   3.822   4.638  0.5931 -0.6249 -1.0981
 2692SOL    HW310842   0.094   3.893   4.529  0.5788  0.0121 -0.6724
 2692SOL    MW410843   0.164   3.888   4.582  0.3312 -0.0172 -0.3481
 2693SOL     OW10844   0.118   3.492   4.484 -0.7426 -0.3441 -1.1268
 2693SOL    HW210845   0.045   3.547   4.512  0.2585  0.0824  0.8066
 2693SOL    HW310846   0.078   3.409   4.459 -1.7842 -0.7252  1.5640
 2693SOL    MW410847   0.103   3.488   4.485 -0.7480 -0.3383 -0.5164
 2694SOL     OW10848   3.944   4.097   4.643  0.4163 -0.0277  0.4695
 2694SOL    HW210849   3.984   4.023   4.598 -0.7178 -0.2835 -0.1492
 2694SOL    HW310850   3.861   4.063   4.676 -0.4558  1.1480 -0.4483
 2694SOL    MW410851   3.938   4.083   4.641  0.1514  0.0935  0.2666
 2695SOL     OW10852   2.153   4.428   4.492  0.8681 -0.1449 -0.9319
 2695SOL    HW210853   2.171   4.336   4.512  1.7828  0.0666 -0.7658
 2695SOL    HW310854   2.107   4.425   4.408 -2.5979 -0.9980  0.9143
 2695SOL    MW410855   2.149   4.415   4.484  0.5312 -0.2294 -0.6666
 2696SOL     OW10856   0.682   0.309   4.436  0.0125 -0.1257  0.0893
 2696SOL    HW210857   0.751   0.253   4.471  0.1223  0.1668  0.3423
 2696SOL    HW310858   0.601   0.269   4.467  0.1279  0.5665  1.3579
 2696SOL    MW410859   0.680   0.297   4.445  0.0422  0.0042  0.2904
 2697SOL     OW10860   0.217   0.476   4.191  0.1990 -0.0456  0.1688
 2697SOL    HW210861   0.234   0.565   4.159 -0.4012  0.3333  0.8914
 2697SOL    HW310862   0.234   0.481   4.285 -0.1337 -0.6211  0.2614
 2697SOL    MW410863   0.222   0.488   4.199  0.0759 -0.0716  0.2766
 2698SOL     OW10864   1.364   0.057   4.208  0.1643  0.1894 -0.0343
 2698SOL    HW210865   1.373   0.058   4.303  0.7448  2.1901 -0.0839
 2698SOL    HW310866   1.291  -0.002   4.191 -0.0923 -0.0009  1.6649
 2698SOL    MW410867   1.356   0.049   4.218  0.2068  0.4283  0.1836
 2699SOL     OW10868   1.774   4.244   4.662 -0.6116  0.2984 -0.3132
 2699SOL    HW210869   1.834   4.176   4.633 -0.1268  1.2125 -1.4902
 2699SOL    HW310870   1.745   4.215   4.748  0.0688 -1.0808 -0.5374
 2699SOL    MW410871   1.778   4.231   4.670 -0.4579  0.2370 -0.4983
 2700SOL     OW10872   0.909   1.498   4.514  0.4634 -0.5542  0.3132
 2700SOL    HW210873   0.826   1.452   4.507  0.5377 -0.7870  0.8838
 2700SOL    HW310874   0.975   1.428   4.520  0.6507 -0.3732  0.3737
 2700SOL    MW410875   0.907   1.482   4.514  0.4979 -0.5610  0.3963
 2701SOL     OW10876   2.399   0.139   4.481  0.5615  0.1174 -0.2684
 2701SOL    HW210877   2.390   0.044   4.486  0.3300  0.1736  0.5516
 2701SOL    HW310878   2.336   0.166   4.415  0.8266 -0.3235 -0.7072
 2701SOL    MW410879   2.390   0.130   4.473  0.5660  0.0667 -0.2179
 2702SOL     OW10880   4.251   0.140   4.690  0.1220  0.0970  0.4429
 2702SOL    HW210881   4.193   0.080   4.738 -1.4890  0.5967 -0.8391
 2702SOL    HW310882   4.285   0.199   4.757 -1.1112 -0.0072  1.1779
 2702SOL    MW410883   4.248   0.140   4.705 -0.2527  0.1492  0.3710
 2703SOL     OW10884   1.672   1.099   4.594 -0.4425 -0.4531  0.0374
 2703SOL    HW210885   1.692   1.192   4.594 -0.0482 -0.5262 -1.3231
 2703SOL    HW310886   1.604   1.089   4.660 -0.6609  0.8385  0.0165
 2703SOL    MW410887   1.666   1.110   4.602 -0.4193 -0.2922 -0.1450
 2704SOL     OW10888   1.005   1.751   4.579 -0.1502  0.1063  0.0015
 2704SOL    HW210889   0.978   1.675   4.527 -1.3424 -0.3634  1.2648
 2704SOL    HW310890   1.071   1.716   4.639 -0.9409 -0.0350  0.8116
 2704SOL    MW410891   1.010   1.736   4.580 -0.4117  0.0256  0.2751
 2705SOL     OW10892   2.068   2.871   4.752  0.3228  0.5357 -0.3632
 2705SOL    HW210893   2.129   2.801   4.776 -0.9671 -0.4169  0.1742
 2705SOL    HW310894   2.101   2.948   4.799  1.2495  0.0910 -0.2721
 2705SOL    MW410895   2.081   2.872   4.761  0.2749  0.3514 -0.2804
 2706SOL     OW10896   1.510   1.339   4.337  0.1195  0.0346  0.3870
 2706SOL    HW210897   1.583   1.382   4.382  0.1227  0.2408  0.1880
 2706SOL    HW310898   1.528   1.246   4.343 -0.2156  0.0312  1.3916
 2706SOL    MW410899   1.522   1.333   4.344  0.0757  0.0613  0.4935
 2707SOL     OW10900   1.814   3.434   4.136  0.3483 -0.0341  0.1595
 2707SOL    HW210901   1.814   3.360   4.197  2.6056  0.6195  0.9981
 2707SOL    HW310902   1.755   3.498   4.176  0.3642 -0.3553  0.6955
 2707SOL    MW410903   1.806   3.432   4.149  0.6481  0.0100  0.3405
 2708SOL     OW10904   0.894   3.216   4.235  0.1327  0.0577 -0.1014
 2708SOL    HW210905   0.915   3.296   4.187  0.1004  0.1496  0.0394
 2708SOL    HW310906   0.975   3.165   4.235  0.0467 -0.0867 -0.5362
 2708SOL    MW410907   0.908   3.220   4.228  0.1171  0.0508 -0.1402
 2709SOL     OW10908   2.398   3.297   5.085  0.1473  0.2184  0.2586
 2709SOL    HW210909   2.430   3.358   5.019  1.5972  0.2422  0.9449
 2709SOL    HW310910   2.389   3.350   5.164  0.8927 -0.3227  0.7159
 2709SOL    MW410911   2.401   3.312   5.087  0.4368  0.1502  0.4096
 2710SOL     OW10912   0.003   3.920   4.257  0.2659 -0.1082 -0.7212
 2710SOL    HW210913  -0.068   3.888   4.201  0.9781 -0.6258 -1.3317
 2710SOL    HW310914   0.081   3.874   4.226  0.5810 -0.8220  1.0429
 2710SOL    MW410915   0.004   3.909   4.246  0.4015 -0.2706 -0.5689
 2711SOL     OW10916   1.372   2.691   4.208  0.1383  0.4681  0.1686
 2711SOL    HW210917   1.290   2.739   4.221  0.7976  1.4489  0.8079
 2711SOL    HW310918   1.438   2.744   4.253  1.0538 -0.5340  0.0298
 2711SOL    MW410919   1.370   2.704   4.215  0.3461  0.4652  0.2341
 2712SOL     OW10920   0.666   2.743   4.565  0.0870  0.3500  0.1614
 2712SOL    HW210921   0.751   2.786   4.568 -0.3342  1.1999 -0.0184
 2712SOL    HW310922   0.603   2.811   4.592 -0.6360  0.0034 -0.6187
 2712SOL    MW410923   0.669   2.758   4.569 -0.0640  0.4165  0.0348
 2713SOL     OW10924   1.433   4.437   4.462 -0.0619 -0.0282  0.4143
 2713SOL    HW210925   1.490   4.398   4.396  0.8686 -0.6890  1.5852
 2713SOL    HW310926   1.455   4.530   4.461 -0.1400 -0.0185 -0.2953
 2713SOL    MW410927   1.443   4.444   4.454  0.0507 -0.1140  0.4754
 2714SOL     OW10928   1.553   3.401   4.644 -0.5783 -0.3656 -0.0168
 2714SOL    HW210929   1.589   3.483   4.610 -1.2009 -0.4746 -0.9737
 2714SOL    HW310930   1.604   3.333   4.602  0.2810 -0.4636  1.1790
 2714SOL    MW410931   1.564   3.403   4.634 -0.5471 -0.3929  0.0143
 2715SOL     OW10932   0.235   3.792   4.151  0.5257 -0.5590  0.0146
 2715SOL    HW210933   0.248   3.701   4.175  2.6033 -0.8187 -1.9385
 2715SOL    HW310934   0.310   3.839   4.187  0.1136  0.1626 -0.0442
 2715SOL    MW410935   0.246   3.786   4.159  0.7455 -0.4981 -0.2513
 2716SOL     OW10936   0.882   3.945   4.514  0.3797 -0.2042  0.3510
 2716SOL    HW210937   0.865   3.851   4.521  0.8858 -0.3421 -0.3309
 2716SOL    HW310938   0.900   3.960   4.422 -0.3213  0.6713  0.3504
 2716SOL    MW410939   0.882   3.934   4.503  0.3539 -0.1066  0.2613
 2717SOL     OW10940   1.150   4.396   4.519  0.1054 -0.1172  0.5761
 2717SOL    HW210941   1.242   4.423   4.523  0.3354 -0.7561 -0.1960
 2717SOL    HW310942   1.145   4.317   4.574 -0.3642  0.9363  2.0625
 2717SOL    MW410943   1.161   4.389   4.527  0.0739 -0.0625  0.6704
 2718SOL     OW10944   2.252   3.491   4.154 -0.2697  0.1778 -0.4717
 2718SOL    HW210945   2.174   3.545   4.172  0.0008  0.5177 -0.3105
 2718SOL    HW310946   2.228   3.404   4.186 -0.2873  0.4684  0.3236
 2718SOL    MW410947   2.238   3.487   4.161 -0.2360  0.2608 -0.3452
 2719SOL     OW10948   0.048   1.077   4.748  0.2574  0.1991 -0.1849
 2719SOL    HW210949   0.044   1.162   4.705  1.9036  0.1581 -0.4338
 2719SOL    HW310950  -0.037   1.037   4.729  0.1045  1.1053 -1.4772
 2719SOL    MW410951   0.036   1.083   4.740  0.4544  0.3132 -0.3877
 2720SOL     OW10952   2.320   2.688   4.564 -0.2570  0.3675  0.8086
 2720SOL    HW210953   2.265   2.752   4.519 -0.9847 -2.0806 -1.9357
 2720SOL    HW310954   2.409   2.706   4.533 -0.3693  0.4085  0.5155
 2720SOL    MW410955   2.325   2.699   4.554 -0.3679  0.0498  0.4082
 2721SOL     OW10956   4.014   1.647   4.494 -0.1194  0.4936 -0.0140
 2721SOL    HW210957   4.007   1.561   4.535  0.3604  0.1745 -0.5890
 2721SOL    HW310958   3.938   1.696   4.527 -1.4597 -0.7706 -1.1220
 2721SOL    MW410959   4.003   1.642   4.504 -0.2327  0.2847 -0.2356
 2722SOL     OW10960   1.638   3.644   4.513  0.2263 -0.8797 -0.1280
 2722SOL    HW210961   1.616   3.609   4.427 -1.2626 -1.0509  0.2970
 2722SOL    HW310962   1.732   3.661   4.510  0.3844 -1.9564 -1.3987
 2722SOL    MW410963   1.647   3.642   4.502  0.0508 -1.0443 -0.2394
 2723SOL     OW10964   2.615   0.093   4.717  0.3981  0.3311  0.4161
 2723SOL    HW210965   2.662   0.014   4.741 -0.3586  0.0608  1.0208
 2723SOL    HW310966   2.525   0.064   4.700  0.6822  0.6684 -1.7968
 2723SOL    MW410967   2.609   0.079   4.718  0.3357  0.3399  0.2036
 2724SOL     OW10968   1.990   1.815   4.683  0.2266  0.4349  0.0452
 2724SOL    HW210969   1.917   1.821   4.745  0.0523  0.3257 -0.1447
 2724SOL    HW310970   1.994   1.902   4.643 -0.0008  0.3527 -0.1633
 2724SOL    MW410971   1.981   1.828   4.686  0.1734  0.4096 -0.0076
 2725SOL     OW10972   0.263   0.479   4.471  0.0411 -0.6077 -0.1517
 2725SOL    HW210973   0.182   0.486   4.521  0.5720 -2.1056  0.9134
 2725SOL    HW310974   0.310   0.560   4.491 -0.5492 -0.3793  0.3306
 2725SOL    MW410975   0.259   0.491   4.480  0.0333 -0.7752  0.0525
 2726SOL     OW10976   0.625   0.743   4.713  0.3286  0.0801  0.0793
 2726SOL    HW210977   0.709   0.723   4.672  0.9031 -0.0090  1.2941
 2726SOL    HW310978   0.560   0.709   4.651  1.2116 -1.6009  0.0574
 2726SOL    MW410979   0.627   0.736   4.699  0.5209 -0.1534  0.2365
 2727SOL     OW10980   0.970   0.305   4.098  0.2051 -0.3738  0.1187
 2727SOL    HW210981   0.939   0.249   4.169  2.0189 -1.1326  0.3602
 2727SOL    HW310982   1.065   0.293   4.099  0.4180  1.0983 -1.1987
 2727SOL    MW410983   0.979   0.296   4.107  0.4725 -0.2796 -0.0238
 2728SOL     OW10984   1.953   1.307   4.243 -0.2586  0.3251 -0.2170
 2728SOL    HW210985   1.981   1.398   4.231  0.0362  0.1691 -0.7175
 2728SOL    HW310986   2.029   1.255   4.218 -0.9978 -0.1084 -1.6084
 2728SOL    MW410987   1.967   1.312   4.238 -0.3172  0.2472 -0.4663
 2729SOL     OW10988   0.827   4.298   4.751 -0.2545  0.6710  0.4852
 2729SOL    HW210989   0.760   4.333   4.810 -1.4700 -0.1525 -0.3865
 2729SOL    HW310990   0.845   4.369   4.690 -1.6353  0.3002 -0.3671
 2729SOL    MW410991   0.820   4.312   4.751 -0.5971  0.5140  0.2580
 2730SOL     OW10992   1.353   2.399   4.226  0.0822  0.2925  0.0788
 2730SOL    HW210993   1.443   2.379   4.201 -0.5464 -1.2426 -1.0668
 2730SOL    HW310994   1.349   2.494   4.228  1.4313  0.3872 -0.9957
 2730SOL    MW410995   1.364   2.409   4.223  0.1773  0.1025 -0.2141
 2731SOL     OW10996   1.120   3.560   4.491 -0.4430  0.1514 -0.0946
 2731SOL    HW210997   1.138   3.478   4.538 -0.7197  0.6201  0.8379
 2731SOL    HW310998   1.186   3.621   4.523 -1.0944  0.6852  0.2488
 2731SOL    MW410999   1.131   3.557   4.501 -0.5654  0.2837  0.0739
 2732SOL     OW11000   2.505   3.896   4.540  0.1803 -0.3402  0.3329
 2732SOL    HW211001   2.503   3.942   4.456  0.0496 -0.0180  0.5123
 2732SOL    HW311002   2.433   3.834   4.535  0.9134 -1.1508 -0.2640
 2732SOL    MW411003   2.495   3.894   4.529  0.2596 -0.4046  0.2780
 2733SOL     OW11004   4.293   4.335   4.246  0.2739  0.1490 -0.1989
 2733SOL    HW211005   4.293   4.353   4.340  0.6127 -0.1670 -0.1389
 2733SOL    HW311006   4.378   4.295   4.229  0.2049  0.1861 -0.6388
 2733SOL    MW411007   4.304   4.332   4.256  0.3095  0.1121 -0.2494
 2734SOL     OW11008   2.022   2.812   4.253 -0.0236  0.2726  0.4977
 2734SOL    HW211009   2.017   2.901   4.218 -0.4846  0.1686  0.2982
 2734SOL    HW311010   2.096   2.772   4.207 -2.2368 -0.7257 -2.3352
 2734SOL    MW411011   2.031   2.818   4.242 -0.3765  0.1268  0.0978
 2735SOL     OW11012   0.723   2.482   4.626  0.1698  0.0488  0.0781
 2735SOL    HW211013   0.699   2.571   4.599  0.5898  0.0114 -0.4307
 2735SOL    HW311014   0.643   2.431   4.614  0.3162  0.0606 -1.0077
 2735SOL    MW411015   0.709   2.487   4.620  0.2444  0.0453 -0.1321
 2736SOL     OW11016   1.348   3.715   4.577 -0.2982 -0.1691 -0.0422
 2736SOL    HW211017   1.334   3.810   4.576 -1.6504 -0.3646 -1.8036
 2736SOL    HW311018   1.441   3.705   4.556  0.0820  0.7805  1.0913
 2736SOL    MW411019   1.359   3.726   4.574 -0.4265 -0.0696 -0.1249
 2737SOL     OW11020   1.968   3.120   4.501  0.1505 -0.0918 -0.1780
 2737SOL    HW211021   2.056   3.094   4.476  0.5283  1.8280 -0.9661
 2737SOL    HW311022   1.979   3.165   4.585  0.0748  0.8873 -0.6742
 2737SOL    MW411023   1.981   3.123   4.509  0.1904  0.2904 -0.3471
 2738SOL     OW11024   0.863   2.956   4.493 -0.2387 -0.2086  0.1185
 2738SOL    HW211025   0.959   2.955   4.499 -0.2748 -0.0549  0.7552
 2738SOL    HW311026   0.838   3.039   4.535 -0.8136 -1.5331  2.4804
 2738SOL    MW411027   0.872   2.967   4.499 -0.3193 -0.3631  0.5140
 2739SOL     OW11028   2.026   3.832   4.707 -0.3851  0.0775 -0.0337
 2739SOL    HW211029   2.116   3.818   4.680 -0.5353  0.9032 -1.0227
 2739SOL    HW311030   2.002   3.754   4.757  0.4395 -0.7444 -0.9124
 2739SOL    MW411031   2.035   3.820   4.710 -0.2961  0.0782 -0.2804
 2740SOL     OW11032   2.681   3.156   4.451  0.4503 -0.6339  0.3116
 2740SOL    HW211033   2.751   3.208   4.491  0.4154 -0.6514  0.3942
 2740SOL    HW311034   2.620   3.220   4.414  1.0110 -0.6195 -0.6223
 2740SOL    MW411035   2.682   3.171   4.451  0.5198 -0.6347  0.1998
 2741SOL     OW11036   2.777   4.164   4.554 -0.8552 -0.5638 -0.2497
 2741SOL    HW211037   2.845   4.212   4.508  0.8450 -2.1284  0.5798
 2741SOL    HW311038   2.721   4.232   4.593  0.4765  0.7264 -0.5831
 2741SOL    MW411039   2.778   4.179   4.553 -0.4551 -0.5999 -0.1845
 2742SOL     OW11040   2.073   4.398   4.227 -0.0919  0.4295 -0.1515
 2742SOL    HW211041   2.158   4.365   4.199  0.1525 -0.3810  1.4594
 2742SOL    HW311042   2.074   4.491   4.201  0.4285 -0.0700 -1.9874
 2742SOL    MW411043   2.084   4.406   4.220  0.0091  0.2565 -0.1812
 2743SOL     OW11044   2.224   3.963   4.352 -0.4847  0.3846 -0.3399
 2743SOL    HW211045   2.298   3.986   4.295  0.0532 -0.6690 -0.0803
 2743SOL    HW311046   2.153   3.939   4.292  0.0911 -0.7509 -0.5855
 2743SOL    MW411047   2.224   3.963   4.337 -0.3381  0.0958 -0.3381
 2744SOL     OW11048   0.910   0.124   4.532  0.3442 -0.1148  0.3233
 2744SOL    HW211049   0.900   0.037   4.571 -0.4225  0.2569  0.9796
 2744SOL    HW311050   0.929   0.107   4.440  0.4442 -0.9834  0.4998
 2744SOL    MW411051   0.911   0.110   4.525  0.2563 -0.1803  0.4330
 2745SOL     OW11052   1.495   0.706   4.367 -0.8498 -0.3824 -0.0253
 2745SOL    HW211053   1.535   0.749   4.443 -0.1914 -0.3799 -0.3724
 2745SOL    HW311054   1.444   0.774   4.324 -0.2917 -0.1007 -0.2368
 2745SOL    MW411055   1.493   0.720   4.372 -0.6893 -0.3449 -0.0992
 2746SOL     OW11056   1.877   0.082   4.468 -0.4254  0.0751  0.0956
 2746SOL    HW211057   1.790   0.117   4.488 -0.0745  0.3024  1.2180
 2746SOL    HW311058   1.883   0.002   4.519 -0.3206 -0.4202 -0.6849
 2746SOL    MW411059   1.866   0.076   4.477 -0.3654  0.0398  0.1407
 2747SOL     OW11060   3.158   0.425   4.612  0.4775 -0.0766  0.7468
 2747SOL    HW211061   3.101   0.501   4.620 -0.0150 -0.6004  2.4049
 2747SOL    HW311062   3.237   0.458   4.569 -1.3310  0.5027 -2.3076
 2747SOL    MW411063   3.161   0.439   4.607  0.1740 -0.0693  0.5627
 2748SOL     OW11064   1.196   0.200   4.548  0.2588  0.4207  0.0368
 2748SOL    HW211065   1.111   0.169   4.580 -0.0735 -0.1151 -1.3408
 2748SOL    HW311066   1.177   0.285   4.508  0.0894 -0.3838 -1.6289
 2748SOL    MW411067   1.182   0.207   4.547  0.1925  0.2439 -0.3648
 2749SOL     OW11068   1.690   2.145   4.789  0.3312  0.6723 -0.6176
 2749SOL    HW211069   1.779   2.179   4.777  0.2408  0.5671 -1.6161
 2749SOL    HW311070   1.636   2.224   4.796  0.4504  0.7353 -0.3982
 2749SOL    MW411071   1.695   2.160   4.788  0.3349  0.6666 -0.7200
 2750SOL     OW11072   1.531   2.044   4.571 -0.4785  0.2252 -0.6449
 2750SOL    HW211073   1.467   2.114   4.586  0.6747  1.0887  0.2892
 2750SOL    HW311074   1.607   2.068   4.624  0.1138 -1.5076 -0.6621
 2750SOL    MW411075   1.533   2.056   4.580 -0.2483  0.1104 -0.5236
 2751SOL     OW11076   2.893   0.603   4.556 -0.2129  0.4630 -0.0396
 2751SOL    HW211077   2.827   0.552   4.604 -2.0164  1.1873 -1.6712
 2751SOL    HW311078   2.905   0.556   4.474 -0.7606  1.8081 -0.9078
 2751SOL    MW411079   2.886   0.590   4.552 -0.5229  0.7360 -0.3700
 2752SOL     OW11080   4.077   0.283   4.521  0.0756 -0.1268 -0.3316
 2752SOL    HW211081   4.152   0.241   4.563  0.8576  0.7345 -0.8482
 2752SOL    HW311082   4.092   0.271   4.427 -1.4686 -1.7026 -0.3860
 2752SOL    MW411083   4.089   0.276   4.514 -0.0248 -0.2211 -0.4067
 2753SOL     OW11084   1.169   0.919   4.631  0.3643 -0.6832  0.7742
 2753SOL    HW211085   1.195   0.920   4.539  0.2820 -0.6941  0.7507
 2753SOL    HW311086   1.100   0.986   4.637  3.2647  2.3585  1.6687
 2753SOL    MW411087   1.163   0.928   4.620  0.7360 -0.2834  0.8888
 2754SOL     OW11088   1.134   2.813   4.242 -0.1713 -0.5384 -0.2279
 2754SOL    HW211089   1.134   2.832   4.336 -2.7566 -0.3172 -0.2347
 2754SOL    HW311090   1.046   2.778   4.225  0.0278  0.0737 -2.6944
 2754SOL    MW411091   1.122   2.811   4.252 -0.4861 -0.4284 -0.5541
 2755SOL     OW11092   2.403   2.917   4.873 -0.1165  0.5688  0.0962
 2755SOL    HW211093   2.466   2.969   4.923 -1.1751  0.5742  1.4645
 2755SOL    HW311094   2.411   2.950   4.783  1.3157  1.0559  0.3838
 2755SOL    MW411095   2.412   2.929   4.868 -0.0672  0.6340  0.3142
 2756SOL     OW11096   1.405   2.498   4.554  0.1421 -0.7125  0.2774
 2756SOL    HW211097   1.399   2.496   4.458 -0.5884  0.8164  0.2760
 2756SOL    HW311098   1.390   2.407   4.581  0.0055 -1.0914 -1.0431
 2756SOL    MW411099   1.402   2.486   4.545  0.0277 -0.5608  0.1030
 2757SOL     OW11100   1.143   2.918   4.495 -0.7715  0.1598  0.2531
 2757SOL    HW211101   1.158   2.836   4.542  0.7732 -0.3651 -1.1128
 2757SOL    HW311102   1.211   2.977   4.527  0.6059 -0.3611 -1.6669
 2757SOL    MW411103   1.154   2.915   4.505 -0.3860  0.0217 -0.1802
 2758SOL     OW11104   1.065   4.130   4.626 -0.7287  0.2179 -0.4243
 2758SOL    HW211105   1.014   4.063   4.581  0.4356 -1.9369  1.3388
 2758SOL    HW311106   1.002   4.171   4.686 -1.3155  0.2859 -1.0843
 2758SOL    MW411107   1.050   4.126   4.628 -0.6524 -0.0572 -0.2789
 2759SOL     OW11108   1.734   2.954   4.523 -0.1830  0.0931  0.2983
 2759SOL    HW211109   1.764   2.873   4.563  0.0040  1.3606  2.8490
 2759SOL    HW311110   1.814   3.001   4.499 -0.2448  0.5044  0.8899
 2759SOL    MW411111   1.748   2.950   4.525 -0.1665  0.3142  0.7129
 2760SOL     OW11112   2.195   4.164   4.534  0.2702 -0.1908 -0.3528
 2760SOL    HW211113   2.202   4.097   4.466 -0.0511 -0.4904 -0.0956
 2760SOL    HW311114   2.268   4.145   4.594 -0.0821 -0.5856 -0.0447
 2760SOL    MW411115   2.205   4.153   4.533  0.1812 -0.2823 -0.2785
 2761SOL     OW11116   2.756   3.752   4.582  0.2519  0.1081 -0.3197
 2761SOL    HW211117   2.768   3.660   4.558  0.6459  0.3719 -1.1461
 2761SOL    HW311118   2.680   3.780   4.531  0.8546  0.5657 -0.9774
 2761SOL    MW411119   2.747   3.744   4.572  0.3836  0.2031 -0.5155
 2762SOL     OW11120   0.778   0.583   4.470 -0.4791  0.1119  0.3194
 2762SOL    HW211121   0.717   0.511   4.458 -0.1041  0.1005 -1.7265
 2762SOL    HW311122   0.847   0.547   4.526  0.2833 -1.5218 -1.5876
 2762SOL    MW411123   0.779   0.569   4.476 -0.3291 -0.1051 -0.2027
 2763SOL     OW11124   1.967   2.247   4.731 -0.2964 -0.0578 -0.1926
 2763SOL    HW211125   2.047   2.283   4.770 -0.1351 -0.1700 -0.4216
 2763SOL    HW311126   1.943   2.309   4.663  1.5585 -1.7893 -2.5216
 2763SOL    MW411127   1.974   2.260   4.727 -0.0304 -0.3009 -0.5298
 2764SOL     OW11128   1.841   2.733   4.627 -0.0923 -0.5171 -0.2518
 2764SOL    HW211129   1.881   2.785   4.696  0.5513 -0.2411 -0.8304
 2764SOL    HW311130   1.894   2.653   4.623 -0.2773 -0.6416 -0.2694
 2764SOL    MW411131   1.853   2.729   4.635 -0.0318 -0.4971 -0.3304
 2765SOL     OW11132   2.246   3.767   4.546 -0.0029 -0.2535  0.2980
 2765SOL    HW211133   2.283   3.701   4.488 -1.0180 -0.3967 -0.1964
 2765SOL    HW311134   2.230   3.843   4.489  0.2279  0.0649  0.6545
 2765SOL    MW411135   2.248   3.768   4.531 -0.1066 -0.2303  0.2799
 2766SOL     OW11136   2.456   3.972   4.933  0.0146  0.4635  0.4326
 2766SOL    HW211137   2.468   3.892   4.881  0.5306  0.7447  0.1178
 2766SOL    HW311138   2.412   4.032   4.874 -1.5178 -0.0033  1.0648
 2766SOL    MW411139   2.452   3.969   4.919 -0.1197  0.4392  0.4745
 2767SOL     OW11140   2.560   3.081   5.041 -0.0096 -0.3827 -0.4921
 2767SOL    HW211141   2.635   3.113   4.991  0.0579 -0.4848 -0.4587
 2767SOL    HW311142   2.510   3.159   5.063  0.0054 -0.3294 -0.6486
 2767SOL    MW411143   2.563   3.095   5.038  0.0014 -0.3893 -0.5088
 2768SOL     OW11144   2.584   4.346   4.633  0.3845 -0.3300  0.1486
 2768SOL    HW211145   2.620   4.404   4.700 -0.7422  0.8516 -0.2561
 2768SOL    HW311146   2.525   4.401   4.582  0.0953 -1.5788 -0.9041
 2768SOL    MW411147   2.581   4.361   4.635  0.1974 -0.3386 -0.0439
 2769SOL     OW11148   0.853   1.999   4.641  0.2795  0.4201 -0.1616
 2769SOL    HW211149   0.916   2.070   4.631  0.2304  0.4067 -0.5970
 2769SOL    HW311150   0.905   1.919   4.637  0.1224  0.3759 -1.5645
 2769SOL    MW411151   0.868   1.998   4.639  0.2522  0.4126 -0.4039
 2770SOL     OW11152   3.509   3.952   4.531  0.8043  0.4522  0.0134
 2770SOL    HW211153   3.437   3.889   4.531  0.2943  1.0255 -1.0301
 2770SOL    HW311154   3.551   3.940   4.445  0.6474  1.5844 -0.2292
 2770SOL    MW411155   3.505   3.942   4.519  0.7164  0.6771 -0.1564
 2771SOL     OW11156   3.438   1.040   4.573 -0.1570 -0.0254  0.2348
 2771SOL    HW211157   3.400   1.115   4.527 -1.6194 -1.0113 -0.2349
 2771SOL    HW311158   3.475   1.076   4.653  1.4638  1.5696 -1.1890
 2771SOL    MW411159   3.438   1.055   4.578 -0.1361  0.0551 -0.0148
 2772SOL     OW11160   3.038   1.760   4.638 -0.0924  0.0854 -0.1385
 2772SOL    HW211161   3.019   1.845   4.599  1.9580  0.6849  0.1072
 2772SOL    HW311162   2.969   1.703   4.606 -0.2744  1.3308 -2.0311
 2772SOL    MW411163   3.026   1.764   4.629  0.1540  0.3288 -0.3557
 2773SOL     OW11164   0.893   3.980   4.237  0.2187 -0.4386  0.2441
 2773SOL    HW211165   0.892   4.074   4.220  0.5838 -0.7541 -1.6592
 2773SOL    HW311166   0.808   3.949   4.207  0.7042 -0.9519 -0.6154
 2773SOL    MW411167   0.881   3.988   4.231  0.3310 -0.5479 -0.1206
 2774SOL     OW11168   1.103   1.303   4.506 -0.4265 -0.0757 -0.3762
 2774SOL    HW211169   1.132   1.284   4.417  1.1903 -1.1319  0.3586
 2774SOL    HW311170   1.058   1.223   4.535 -1.0814  0.3167 -0.2925
 2774SOL    MW411171   1.101   1.290   4.498 -0.2996 -0.1632 -0.2680
 2775SOL     OW11172   2.190   1.630   4.561  0.2432  0.3872  0.1325
 2775SOL    HW211173   2.142   1.685   4.624  1.3050 -1.4907  2.6655
 2775SOL    HW311174   2.282   1.646   4.581  0.5899 -0.3246 -0.8763
 2775SOL    MW411175   2.195   1.640   4.572  0.4289  0.0455  0.3338
 2776SOL     OW11176   1.725   0.818   4.495 -0.4163  0.0032 -0.1791
 2776SOL    HW211177   1.801   0.837   4.438  0.5485 -0.2815  0.9925
 2776SOL    HW311178   1.720   0.892   4.554  0.6491 -1.2603  1.5353
 2776SOL    MW411179   1.735   0.830   4.495 -0.1484 -0.2011  0.2017
 2777SOL     OW11180   1.190   2.657   4.622 -0.1472 -0.1500 -0.3001
 2777SOL    HW211181   1.119   2.603   4.589 -0.4534 -0.0849  0.2477
 2777SOL    HW311182   1.270   2.614   4.591 -0.4307 -0.1138 -1.0768
 2777SOL    MW411183   1.191   2.644   4.614 -0.2251 -0.1369 -0.3300
 2778SOL     OW11184   3.067   1.378   4.503 -0.3004 -0.0829 -0.0830
 2778SOL    HW211185   3.146   1.325   4.517 -0.0695 -0.0069 -1.0715
 2778SOL    HW311186   3.099   1.468   4.500 -0.5048 -0.0037  0.1054
 2778SOL    MW411187   3.082   1.383   4.504 -0.2966 -0.0625 -0.1884
 2779SOL     OW11188   3.135   2.851   4.102 -0.2567  0.2056  0.0116
 2779SOL    HW211189   3.049   2.887   4.078 -0.9218 -0.6925  0.9732
 2779SOL    HW311190   3.131   2.843   4.197  1.3054  1.1556  0.1692
 2779SOL    MW411191   3.123   2.854   4.111 -0.1385  0.2127  0.1597
 2780SOL     OW11192   2.453   3.455   4.843  0.3570  0.0022 -0.1174
 2780SOL    HW211193   2.528   3.420   4.795  1.0775  1.2071  0.1063
 2780SOL    HW311194   2.460   3.550   4.832 -1.0775  0.1261 -0.0075
 2780SOL    MW411195   2.464   3.463   4.835  0.2627  0.1774 -0.0734
 2781SOL     OW11196   1.500   4.192   4.584  0.0236  0.0580  0.3543
 2781SOL    HW211197   1.478   4.280   4.551 -0.9113  0.2882  1.5575
 2781SOL    HW311198   1.594   4.196   4.600  0.1985  0.4627 -0.7203
 2781SOL    MW411199   1.510   4.204   4.581 -0.0768  0.1421  0.3715
 2782SOL     OW11200   1.912   3.651   4.489 -0.1535  0.0822 -0.4197
 2782SOL    HW211201   1.941   3.589   4.557 -0.7967 -1.0307 -1.1412
 2782SOL    HW311202   1.946   3.736   4.518  0.5866 -0.5729  0.6874
 2782SOL    MW411203   1.921   3.654   4.502 -0.1408 -0.1512 -0.3691
 2783SOL     OW11204   3.174   3.161   4.500 -0.3463  0.1390 -0.0521
 2783SOL    HW211205   3.182   3.120   4.587  0.6635 -0.0800 -0.2378
 2783SOL    HW311206   3.096   3.216   4.506 -0.7175 -0.4642  0.7598
 2783SOL    MW411207   3.165   3.163   4.512 -0.2623  0.0305  0.0305
 2784SOL     OW11208   1.080   3.314   4.611 -0.1358 -0.1919 -0.5866
 2784SOL    HW211209   1.109   3.371   4.682 -1.9616 -1.2717  1.0757
 2784SOL    HW311210   1.154   3.254   4.598 -0.3033 -0.8745  1.3976
 2784SOL    MW411211   1.094   3.313   4.619 -0.3988 -0.4244 -0.1049
 2785SOL     OW11212   2.701   4.069   4.317  0.4240  0.6072 -0.6659
 2785SOL    HW211213   2.789   4.042   4.291  0.2987 -0.5581  0.0821
 2785SOL    HW311214   2.712   4.099   4.407  0.1159  0.7557 -0.6792
 2785SOL    MW411215   2.714   4.069   4.326  0.3667  0.4730 -0.5689
 2786SOL     OW11216   2.014   3.608   4.236  0.3211 -0.1675 -0.2092
 2786SOL    HW211217   1.990   3.614   4.329 -1.8945 -1.3078 -0.6790
 2786SOL    HW311218   1.953   3.544   4.199  2.5221 -1.2957 -2.0354
 2786SOL    MW411219   2.003   3.601   4.244  0.3192 -0.4671 -0.5121
 2787SOL     OW11220   3.299   0.819   4.483  0.0577 -0.4961  0.3830
 2787SOL    HW211221   3.213   0.827   4.524 -1.1839 -0.2887 -2.2365
 2787SOL    HW311222   3.348   0.895   4.516 -1.7629  1.0776 -0.4679
 2787SOL    MW411223   3.294   0.830   4.493 -0.3462 -0.2611 -0.0749
 2788SOL     OW11224   2.797   0.204   4.532  0.1141  0.1379  0.3822
 2788SOL    HW211225   2.763   0.290   4.557  0.0514  0.2367 -0.0343
 2788SOL    HW311226   2.748   0.142   4.586 -2.3838  0.1001 -1.8260
 2788SOL    MW411227   2.786   0.207   4.542 -0.2236  0.1460  0.0358
 2789SOL     OW11228   2.034   3.505   4.688 -0.2867  0.2304 -0.1728
 2789SOL    HW211229   1.993   3.425   4.723  0.1898 -0.5685 -1.3856
 2789SOL    HW311230   2.123   3.478   4.665  0.3658  1.5043  0.7899
 2789SOL    MW411231   2.041   3.491   4.689 -0.1378  0.2933 -0.2050
 2790SOL     OW11232   2.301   3.434   4.600  0.0615 -0.4810  0.3527
 2790SOL    HW211233   2.353   3.440   4.681  2.1345 -0.7000 -0.9332
 2790SOL    HW311234   2.341   3.497   4.541 -0.0639 -1.8673 -1.2501
 2790SOL    MW411235   2.313   3.443   4.603  0.3185 -0.6928 -0.0281
 2791SOL     OW11236   3.474   1.590   4.477 -0.0567 -0.6070  0.0940
 2791SOL    HW211237   3.508   1.603   4.389  0.7108  0.4926  0.5433
 2791SOL    HW311238   3.493   1.672   4.523 -0.8654 -0.9929  1.1442
 2791SOL    MW411239   3.481   1.602   4.471 -0.0622 -0.5130  0.2918
 2792SOL     OW11240   1.998   0.296   4.591 -0.2707  0.6016 -0.1181
 2792SOL    HW211241   1.966   0.220   4.543  0.6359  0.5918 -0.7293
 2792SOL    HW311242   1.973   0.280   4.682 -0.4311 -0.2369 -0.3105
 2792SOL    MW411243   1.991   0.284   4.597 -0.1724  0.4897 -0.2241
 2793SOL     OW11244   3.279   3.451   4.488 -0.0274  0.0900 -0.1309
 2793SOL    HW211245   3.188   3.453   4.461 -0.0697  0.5113  0.0436
 2793SOL    HW311246   3.286   3.375   4.546 -0.7685  1.3531  1.6471
 2793SOL    MW411247   3.268   3.441   4.492 -0.1307  0.3123  0.1268
 2794SOL     OW11248   1.782   1.361   4.463 -0.5386 -0.0176 -0.4413
 2794SOL    HW211249   1.805   1.441   4.510  0.4457 -1.2494  1.2199
 2794SOL    HW311250   1.863   1.334   4.420 -0.6947 -0.5128 -0.4282
 2794SOL    MW411251   1.795   1.368   4.463 -0.4294 -0.2455 -0.2208
 2795SOL     OW11252   2.895   1.310   4.268  0.1254 -0.3870  0.0031
 2795SOL    HW211253   2.905   1.391   4.219  1.3519 -0.9158 -0.6352
 2795SOL    HW311254   2.956   1.319   4.341  0.5157 -0.8918 -0.2646
 2795SOL    MW411255   2.904   1.322   4.271  0.3388 -0.5236 -0.1168
 2796SOL     OW11256   2.279   0.164   4.228  0.1762  0.0346  0.3773
 2796SOL    HW211257   2.211   0.109   4.191 -1.0867  0.4338  2.0758
 2796SOL    HW311258   2.274   0.245   4.177  0.4455 -0.5242 -0.5428
 2796SOL    MW411259   2.270   0.168   4.216  0.0451  0.0136  0.4802
 2797SOL     OW11260   0.002   0.557   4.557 -0.4456 -0.1739 -0.8363
 2797SOL    HW211261  -0.088   0.542   4.526 -0.8959  0.8534 -0.0419
 2797SOL    HW311262   0.015   0.651   4.546 -0.0282 -0.0642  0.5713
 2797SOL    MW411263  -0.008   0.567   4.551 -0.4499 -0.0239 -0.5455
 2798SOL     OW11264   3.288   2.092   4.494 -0.3056 -0.1273  0.9595
 2798SOL    HW211265   3.275   2.186   4.488  0.1590  0.0112  1.9911
 2798SOL    HW311266   3.205   2.058   4.527 -0.6361 -0.1443  0.1320
 2798SOL    MW411267   3.276   2.100   4.498 -0.2880 -0.1111  0.9861
 2799SOL     OW11268   0.842   3.226   4.519  0.4533 -0.1694  0.4074
 2799SOL    HW211269   0.875   3.216   4.430 -0.0584  1.0228  0.0774
 2799SOL    HW311270   0.917   3.256   4.570  0.4137  0.4789  0.0894
 2799SOL    MW411271   0.856   3.229   4.514  0.3806  0.0734  0.3214
 2800SOL     OW11272   2.713   1.643   4.317 -0.1901 -0.5294  0.1262
 2800SOL    HW211273   2.697   1.738   4.319 -1.2207 -0.7021  0.1503
 2800SOL    HW311274   2.635   1.606   4.276 -0.0206 -1.4242  0.5977
 2800SOL    MW411275   2.701   1.651   4.312 -0.3040 -0.6703  0.1912
 2801SOL     OW11276   1.486   2.393   4.892  0.2440 -0.2072 -0.1444
 2801SOL    HW211277   1.529   2.466   4.848 -0.8200  0.3742 -0.2307
 2801SOL    HW311278   1.508   2.404   4.985  2.1570 -1.2085 -0.4506
 2801SOL    MW411279   1.494   2.404   4.899  0.3560 -0.2625 -0.1965
 2802SOL     OW11280   2.308   2.448   4.232  0.5462 -0.2259  0.2786
 2802SOL    HW211281   2.283   2.431   4.323 -0.0551  1.6725  0.5071
 2802SOL    HW311282   2.232   2.421   4.181 -0.0174  0.7860  0.5536
 2802SOL    MW411283   2.294   2.442   4.237  0.3924  0.1583  0.3457
 2803SOL     OW11284   3.580   1.632   4.219  0.5025  0.2723 -0.2725
 2803SOL    HW211285   3.594   1.725   4.207 -0.5549  0.3635 -0.8747
 2803SOL    HW311286   3.665   1.592   4.200  0.5300  0.9765 -1.6797
 2803SOL    MW411287   3.593   1.639   4.215  0.3667  0.3773 -0.5383
 2804SOL     OW11288   2.080   2.050   4.536  0.0938  0.2028 -0.0002
 2804SOL    HW211289   2.168   2.080   4.556 -0.8096  1.1993  2.6861
 2804SOL    HW311290   2.022   2.108   4.586 -2.0170 -1.4356 -0.4417
 2804SOL    MW411291   2.084   2.062   4.545 -0.3040  0.1185  0.2961
 2805SOL     OW11292   2.842   3.957   4.761  0.1856  0.2780 -0.0715
 2805SOL    HW211293   2.789   3.885   4.727  0.7803 -0.0972 -0.2249
 2805SOL    HW311294   2.835   4.026   4.696 -0.2541  0.2930 -0.0061
 2805SOL    MW411295   2.834   3.957   4.748  0.2060  0.2301 -0.0825
 2806SOL     OW11296   2.449   2.994   4.615  0.2949  0.2877 -0.2884
 2806SOL    HW211297   2.504   3.068   4.590  1.4979 -0.4409  0.1911
 2806SOL    HW311298   2.485   2.920   4.566 -1.3236  0.1435 -1.3015
 2806SOL    MW411299   2.461   2.994   4.605  0.2401  0.1724 -0.3586
 2807SOL     OW11300   2.855   2.306   4.150  0.1874 -0.0372 -0.2255
 2807SOL    HW211301   2.875   2.393   4.185  1.0869 -0.8274  1.3036
 2807SOL    HW311302   2.760   2.306   4.140  0.1208  0.9246  0.2999
 2807SOL    MW411303   2.845   2.317   4.154  0.2973 -0.0145  0.0458
 2808SOL     OW11304   1.606   2.606   4.740  0.1172 -0.3178 -0.1773
 2808SOL    HW211305   1.564   2.592   4.655 -0.4509 -1.3570  0.2654
 2808SOL    HW311306   1.691   2.644   4.719 -0.2397 -0.0618 -1.1806
 2808SOL    MW411307   1.612   2.609   4.726 -0.0049 -0.4210 -0.2513
 2809SOL     OW11308   3.671   0.955   4.463 -0.2349 -0.2885 -0.6262
 2809SOL    HW211309   3.660   0.932   4.371 -1.3991 -2.9805  0.1322
 2809SOL    HW311310   3.592   1.006   4.484  0.2502  0.7314 -1.1882
 2809SOL    MW411311   3.659   0.959   4.454 -0.3242 -0.5091 -0.5999
 2810SOL     OW11312   3.313   3.746   4.497 -0.0060  0.0910  0.1803
 2810SOL    HW211313   3.327   3.651   4.505  0.7018  0.1286 -0.6252
 2810SOL    HW311314   3.220   3.758   4.516 -0.7549 -1.0951 -2.6261
 2810SOL    MW411315   3.302   3.735   4.501 -0.0112 -0.0606 -0.2956
 2811SOL     OW11316   4.353   3.924   4.499 -0.1784  0.0893 -0.1485
 2811SOL    HW211317   4.393   3.935   4.412 -1.3339 -1.6093 -0.9216
 2811SOL    HW311318   4.338   4.013   4.529  1.0283  0.7162 -1.3275
 2811SOL    MW411319   4.356   3.937   4.491 -0.1717 -0.0520 -0.4063
 2812SOL     OW11320   2.893   3.236   4.224  0.2924  0.6193 -0.0020
 2812SOL    HW211321   2.889   3.197   4.312 -0.2761  0.3624 -0.1402
 2812SOL    HW311322   2.978   3.280   4.221  1.2275 -1.1481 -0.0657
 2812SOL    MW411323   2.904   3.237   4.235  0.3407  0.3521 -0.0291
 2813SOL     OW11324   2.420   4.113   4.672 -0.4364  0.3538  0.0909
 2813SOL    HW211325   2.451   4.035   4.626 -1.8052 -0.7057  0.9247
 2813SOL    HW311326   2.471   4.184   4.635  0.2746 -0.8300 -1.2571
 2813SOL    MW411327   2.431   4.112   4.661 -0.5233  0.0577  0.0229
 2814SOL     OW11328   3.690   4.024   4.719  0.3468 -0.4632 -0.1030
 2814SOL    HW211329   3.621   3.998   4.658  0.5639 -0.7490 -0.2268
 2814SOL    HW311330   3.670   4.116   4.739 -0.0707 -0.5424 -0.1361
 2814SOL    MW411331   3.678   4.033   4.713  0.3202 -0.5112 -0.1240
 2815SOL     OW11332   3.190   4.253   4.147  0.8741 -0.2676 -0.3507
 2815SOL    HW211333   3.273   4.286   4.181  0.4423 -1.2721  1.8150
 2815SOL    HW311334   3.184   4.164   4.182 -0.1793 -0.9185 -2.1489
 2815SOL    MW411335   3.200   4.246   4.156  0.6781 -0.4864 -0.3018
 2816SOL     OW11336   1.765   0.509   4.550  0.0400 -0.1423 -0.1409
 2816SOL    HW211337   1.860   0.512   4.535  0.2588 -1.4493  0.9185
 2816SOL    HW311338   1.734   0.594   4.519  1.7652  0.8899  0.8363
 2816SOL    MW411339   1.774   0.521   4.544  0.2964 -0.1786  0.1278
 2817SOL     OW11340   2.321   1.054   4.492  0.3941  0.0468 -0.5728
 2817SOL    HW211341   2.336   1.141   4.528  1.2816 -0.6133  0.7294
 2817SOL    HW311342   2.409   1.019   4.476  0.0794 -0.8872 -0.3490
 2817SOL    MW411343   2.334   1.061   4.495  0.4699 -0.1634 -0.3715
 2818SOL     OW11344   2.710   4.034   5.001 -0.2864  0.4421  0.0156
 2818SOL    HW211345   2.751   4.021   4.915 -0.5066 -0.3540  0.0237
 2818SOL    HW311346   2.616   4.020   4.985 -0.2839 -0.1133  0.4566
 2818SOL    MW411347   2.703   4.030   4.987 -0.3150  0.2642  0.0749
 2819SOL     OW11348   3.804   1.226   4.462 -0.1727 -0.4492 -0.1970
 2819SOL    HW211349   3.781   1.134   4.476 -1.0292 -0.2405 -0.2173
 2819SOL    HW311350   3.734   1.275   4.504  0.3004  0.2014 -0.1556
 2819SOL    MW411351   3.792   1.221   4.469 -0.2232 -0.3358 -0.1941
 2820SOL     OW11352   3.537   0.185   4.568  0.0721  0.0341  0.8718
 2820SOL    HW211353   3.516   0.186   4.662 -1.1072  2.2364  0.6189
 2820SOL    HW311354   3.630   0.208   4.564  0.7421 -2.4082  1.6012
 2820SOL    MW411355   3.547   0.189   4.580  0.0050  0.0024  0.9346
 2821SOL     OW11356   2.110   0.532   4.490 -0.2420  0.4044  0.8736
 2821SOL    HW211357   2.204   0.551   4.479  0.1168 -1.0057  1.4898
 2821SOL    HW311358   2.107   0.441   4.518 -1.8357  0.2954  0.3696
 2821SOL    MW411359   2.122   0.522   4.492 -0.4048  0.2039  0.8883
 2822SOL     OW11360   0.528   1.009   4.753  0.1688 -0.1143 -0.2509
 2822SOL    HW211361   0.434   1.006   4.734  0.1427  0.7091 -0.2588
 2822SOL    HW311362   0.556   0.918   4.747 -0.6096 -0.3546 -0.3539
 2822SOL    MW411363   0.519   0.997   4.750  0.0626 -0.0376 -0.2656
 2823SOL     OW11364   3.010   2.031   4.543  0.1037 -0.0233  0.2071
 2823SOL    HW211365   2.992   2.040   4.449  0.2227  0.5155  0.2387
 2823SOL    HW311366   2.978   2.112   4.582  1.5157  0.4363  0.4256
 2823SOL    MW411367   3.003   2.043   4.535  0.3054  0.1082  0.2403
 2824SOL     OW11368   3.191   1.984   4.141 -0.1842  0.1733  0.1075
 2824SOL    HW211369   3.267   2.018   4.189  0.4100 -1.3896  0.2954
 2824SOL    HW311370   3.115   2.008   4.194  0.2981  0.4434  0.6753
 2824SOL    MW411371   3.191   1.992   4.154 -0.0422  0.0027  0.2074
 2825SOL     OW11372   3.952   2.355   4.528  0.3898  0.4281 -0.4053
 2825SOL    HW211373   3.872   2.400   4.555  0.4628 -0.0281  0.5651
 2825SOL    HW311374   3.969   2.390   4.440 -0.4708  1.0627 -0.3363
 2825SOL    MW411375   3.944   2.366   4.520  0.2861  0.4513 -0.2680
 2826SOL     OW11376   4.236   1.252   4.529 -0.1194  0.1890  0.0793
 2826SOL    HW211377   4.223   1.276   4.437 -1.2003  0.3807  0.2697
 2826SOL    HW311378   4.325   1.280   4.549 -0.2420  1.1093 -0.6194
 2826SOL    MW411379   4.246   1.259   4.519 -0.2780  0.3358  0.0124
 2827SOL     OW11380   2.734   2.759   4.081 -0.0993 -0.0211 -0.0275
 2827SOL    HW211381   2.776   2.846   4.085  1.2125 -0.5633 -1.3329
 2827SOL    HW311382   2.786   2.705   4.141 -0.1188 -0.2165 -0.1877
 2827SOL    MW411383   2.746   2.764   4.089  0.0710 -0.1185 -0.2208
 2828SOL     OW11384   3.911   4.661   4.655 -0.1698  0.3152  0.4362
 2828SOL    HW211385   3.943   4.656   4.565  1.3377 -0.4886  0.9954
 2828SOL    HW311386   3.873   4.749   4.662  1.3385  1.0687 -0.4616
 2828SOL    MW411387   3.910   4.672   4.644  0.2282  0.3095  0.3915
 2829SOL     OW11388   3.937   2.066   4.518 -0.0971 -0.3361  0.3449
 2829SOL    HW211389   3.954   2.152   4.557  1.9607 -1.2040  1.4434
 2829SOL    HW311390   3.883   2.084   4.441  0.0763  1.9022  0.7259
 2829SOL    MW411391   3.932   2.079   4.513  0.1974 -0.1550  0.5403
 2830SOL     OW11392   2.845   3.032   4.051  0.3076 -0.0448 -0.2220
 2830SOL    HW211393   2.864   3.098   4.117  1.0622  1.4050 -1.8579
 2830SOL    HW311394   2.892   3.061   3.973 -2.8460 -0.1424 -2.2971
 2830SOL    MW411395   2.853   3.044   4.049 -0.0088  0.1335 -0.7114
 2831SOL     OW11396   3.363   3.546   4.226  0.0149  0.1247  0.7849
 2831SOL    HW211397   3.381   3.527   4.318 -0.8661  0.3596  1.0115
 2831SOL    HW311398   3.276   3.511   4.211  0.2856 -0.1979 -0.0512
 2831SOL    MW411399   3.354   3.539   4.236 -0.0653  0.1132  0.7043
 2832SOL     OW11400   3.736   2.780   4.525  0.2654 -0.0992  0.5748
 2832SOL    HW211401   3.790   2.796   4.448 -0.9115  0.9414 -0.0549
 2832SOL    HW311402   3.764   2.847   4.588 -0.8347  0.9477 -0.0422
 2832SOL    MW411403   3.747   2.791   4.523 -0.0353  0.1764  0.4101
 2833SOL     OW11404   4.434   2.274   4.489  0.2551  0.4382 -0.1707
 2833SOL    HW211405   4.362   2.307   4.542  0.6490 -0.0867  0.7103
 2833SOL    HW311406   4.465   2.196   4.536  1.2308  0.5161 -0.6611
 2833SOL    MW411407   4.429   2.268   4.502  0.4354  0.3793 -0.1187
 2834SOL     OW11408   4.369   3.639   4.538 -0.0398  0.1154  0.4903
 2834SOL    HW211409   4.345   3.624   4.447 -1.8145 -0.2050  0.9897
 2834SOL    HW311410   4.367   3.734   4.548 -2.5592  0.0536  0.8719
 2834SOL    MW411411   4.366   3.649   4.527 -0.6065  0.0653  0.6065
 2835SOL     OW11412   3.465   4.582   4.493  0.1030 -0.3764 -0.1971
 2835SOL    HW211413   3.469   4.676   4.507 -1.1783 -0.1251 -1.3854
 2835SOL    HW311414   3.381   4.555   4.531  0.0870 -0.8974 -0.5883
 2835SOL    MW411415   3.454   4.591   4.500 -0.0682 -0.4115 -0.4053
 2836SOL     OW11416   3.069   4.256   4.878 -0.4050 -0.2319 -0.0269
 2836SOL    HW211417   3.015   4.231   4.953  1.6690 -0.7075  1.3576
 2836SOL    HW311418   3.116   4.176   4.854  0.1641  0.3219 -0.7968
 2836SOL    MW411419   3.068   4.242   4.885 -0.0560 -0.2213  0.0544
 2837SOL     OW11420   3.580   4.285   4.745  0.1172 -0.5602 -0.0532
 2837SOL    HW211421   3.627   4.363   4.717  1.5861  0.0131  3.6798
 2837SOL    HW311422   3.492   4.316   4.764  0.1578 -0.2077 -0.4277
 2837SOL    MW411423   3.575   4.299   4.744  0.3164 -0.4382  0.3896
 2838SOL     OW11424   3.155   0.162   4.290 -0.3469  0.3345  0.6742
 2838SOL    HW211425   3.122   0.163   4.380 -0.4066  0.9609  0.6490
 2838SOL    HW311426   3.250   0.158   4.299 -0.4343 -2.0310  0.7466
 2838SOL    MW411427   3.163   0.161   4.303 -0.3660  0.1051  0.6804
 2839SOL     OW11428   4.072   3.870   4.501  0.3435  0.3088 -0.1397
 2839SOL    HW211429   4.167   3.861   4.506  0.4071  0.4853 -0.9351
 2839SOL    HW311430   4.038   3.790   4.542  0.8473 -0.7904 -1.8329
 2839SOL    MW411431   4.080   3.858   4.507  0.4182  0.1869 -0.4683
 2840SOL     OW11432   0.260   1.213   4.508 -0.5205 -0.0779  0.2171
 2840SOL    HW211433   0.256   1.246   4.418 -0.3009  0.8544  0.5397
 2840SOL    HW311434   0.313   1.278   4.555  0.6036 -1.3162  0.6964
 2840SOL    MW411435   0.266   1.226   4.503 -0.3432 -0.1181  0.3233
 2841SOL     OW11436   2.649   1.177   4.217 -0.4807  0.3419  0.2601
 2841SOL    HW211437   2.735   1.204   4.251 -0.4023 -0.1081  0.4282
 2841SOL    HW311438   2.663   1.167   4.123  0.0372 -1.1595  0.4873
 2841SOL    MW411439   2.662   1.179   4.209 -0.4020  0.0845  0.3123
 2842SOL     OW11440   4.351   4.166   4.640  0.5140 -0.0003  0.5431
 2842SOL    HW211441   4.333   4.244   4.588 -0.3954 -0.1140  0.6806
 2842SOL    HW311442   4.279   4.161   4.703  1.0407 -0.4471  1.1326
 2842SOL    MW411443   4.340   4.175   4.642  0.4635 -0.0734  0.6390
 2843SOL     OW11444   4.276   2.863   4.478 -0.3741 -0.4017  0.6248
 2843SOL    HW211445   4.350   2.906   4.522 -1.2581  0.2740  1.4562
 2843SOL    HW311446   4.270   2.778   4.521  0.1498 -0.6020  0.3077
 2843SOL    MW411447   4.285   2.858   4.490 -0.4215 -0.3388  0.6933
 2844SOL     OW11448   2.696   0.443   4.629 -0.0159  0.0912 -0.4514
 2844SOL    HW211449   2.687   0.396   4.711  0.4657 -0.0372 -0.4668
 2844SOL    HW311450   2.608   0.445   4.592 -0.0238 -0.8737 -0.4913
 2844SOL    MW411451   2.684   0.437   4.635  0.0463 -0.0531 -0.4582
 2845SOL     OW11452   4.100   0.803   4.495  0.2551 -0.0923 -0.3068
 2845SOL    HW211453   4.016   0.804   4.541  0.6372 -0.8993  0.4451
 2845SOL    HW311454   4.081   0.837   4.408 -1.0203 -1.0772 -0.4291
 2845SOL    MW411455   4.086   0.807   4.490  0.1373 -0.3287 -0.2232
 2846SOL     OW11456   3.377   0.538   4.475 -0.5069  0.0977 -0.4098
 2846SOL    HW211457   3.365   0.526   4.381 -0.9535  0.6862 -0.4247
 2846SOL    HW311458   3.375   0.632   4.489 -0.5460  0.0119  0.2086
 2846SOL    MW411459   3.375   0.549   4.465 -0.5710  0.1640 -0.3300
 2847SOL     OW11460   3.354   1.298   4.209  0.1654 -0.8419  0.1182
 2847SOL    HW211461   3.288   1.238   4.172 -0.8011 -0.9085  1.9131
 2847SOL    HW311462   3.336   1.382   4.167  0.4914 -1.4157 -1.1986
 2847SOL    MW411463   3.343   1.301   4.198  0.0808 -0.9264  0.1812
 2848SOL     OW11464   3.779   1.827   4.541 -0.2217 -0.1630 -0.4562
 2848SOL    HW211465   3.697   1.871   4.563 -0.2611 -1.2428  1.6348
 2848SOL    HW311466   3.846   1.894   4.553 -0.5338  0.0047  0.3741
 2848SOL    MW411467   3.777   1.842   4.546 -0.2680 -0.2832 -0.0701
 2849SOL     OW11468   2.771   0.826   4.442 -0.3596  0.0189 -0.3676
 2849SOL    HW211469   2.798   0.822   4.350  1.3354  0.0087  0.1230
 2849SOL    HW311470   2.802   0.743   4.479  0.0572  0.5782  0.5198
 2849SOL    MW411471   2.779   0.814   4.435 -0.0808  0.0914 -0.1864
 2850SOL     OW11472   3.462   1.848   4.591  0.2057  0.3264 -0.1252
 2850SOL    HW211473   3.457   1.870   4.684 -0.9094  1.4851 -0.4499
 2850SOL    HW311474   3.410   1.915   4.547 -1.7399 -1.8744 -1.3252
 2850SOL    MW411475   3.455   1.859   4.597 -0.1979  0.1887 -0.3262
 2851SOL     OW11476   3.580   1.366   4.572  0.0855 -0.0978  0.2270
 2851SOL    HW211477   3.548   1.452   4.545  0.3119  0.3012  1.2229
 2851SOL    HW311478   3.622   1.381   4.656  0.7228 -1.0651  0.0900
 2851SOL    MW411479   3.581   1.379   4.579  0.1991 -0.1727  0.3405
 2852SOL     OW11480   3.611   1.913   4.171  0.0946 -0.2814  0.0747
 2852SOL    HW211481   3.627   1.915   4.077  0.0307 -3.0763 -0.0286
 2852SOL    HW311482   3.540   1.976   4.185 -0.3608 -0.3510 -1.8338
 2852SOL    MW411483   3.604   1.921   4.160  0.0262 -0.6593 -0.1907
 2853SOL     OW11484   0.129   1.832   4.474  0.3781 -0.3445  0.2093
 2853SOL    HW211485   0.097   1.792   4.393 -2.1240  1.6379  0.1872
 2853SOL    HW311486   0.215   1.868   4.451 -0.4217  0.4057 -1.6187
 2853SOL    MW411487   0.136   1.831   4.461 -0.0576  0.0162 -0.0348
 2854SOL     OW11488   4.222   2.395   4.649  0.6781  0.5074  0.2705
 2854SOL    HW211489   4.237   2.489   4.644 -1.8675  0.9755  0.7950
 2854SOL    HW311490   4.134   2.382   4.616  0.8456 -1.6670  0.5503
 2854SOL    MW411491   4.213   2.406   4.644  0.3643  0.2823  0.3767
 2855SOL     OW11492   3.374   2.970   4.145 -0.1594 -0.1684  0.0985
 2855SOL    HW211493   3.372   3.055   4.187  0.8049 -0.4635  0.7732
 2855SOL    HW311494   3.284   2.953   4.119 -0.0339  1.9622 -1.8765
 2855SOL    MW411495   3.362   2.979   4.147 -0.0157  0.0737 -0.0734
 2856SOL     OW11496   4.021   3.000   4.486 -0.2754 -0.0616 -0.1843
 2856SOL    HW211497   4.035   3.034   4.398 -0.7753  1.2503  0.2391
 2856SOL    HW311498   4.094   2.939   4.500 -0.1478 -0.2015 -1.4620
 2856SOL    MW411499   4.033   2.997   4.477 -0.3238  0.0930 -0.2966
 2857SOL     OW11500   0.179   2.854   4.491 -0.1928 -0.2432 -0.0217
 2857SOL    HW211501   0.184   2.853   4.395  0.3413 -1.6645  0.0049
 2857SOL    HW311502   0.267   2.882   4.519 -0.4238  0.4145  0.0532
 2857SOL    MW411503   0.191   2.858   4.482 -0.1528 -0.3438 -0.0086
 2858SOL     OW11504   2.986   4.449   4.692  0.0033  0.0304 -0.2827
 2858SOL    HW211505   3.013   4.371   4.741 -1.7148  0.2545  1.0556
 2858SOL    HW311506   2.978   4.419   4.602 -1.3402 -1.5176  0.3396
 2858SOL    MW411507   2.989   4.435   4.686 -0.4008 -0.1445 -0.0238
 2859SOL     OW11508   4.032   3.186   4.253  0.0594 -0.3424  0.3511
 2859SOL    HW211509   3.944   3.171   4.217  0.1537  1.3239 -0.6118
 2859SOL    HW311510   4.091   3.139   4.193  0.0306  0.6272 -0.4474
 2859SOL    MW411511   4.028   3.178   4.240  0.0677  0.0055  0.1183
 2860SOL     OW11512   4.322   0.991   4.580 -0.1065  0.0007  0.1894
 2860SOL    HW211513   4.285   1.076   4.554  2.3607  0.3358 -2.3474
 2860SOL    HW311514   4.252   0.928   4.560 -0.0271  0.8227 -2.9464
 2860SOL    MW411515   4.308   0.994   4.574  0.2289  0.1533 -0.5593
 2861SOL     OW11516   3.905   4.321   4.476  0.6464  0.4074  0.4113
 2861SOL    HW211517   3.909   4.260   4.549 -0.5313  0.9319  0.9275
 2861SOL    HW311518   3.845   4.390   4.505  3.0292  2.5493  0.3701
 2861SOL    MW411519   3.897   4.322   4.489  0.8051  0.7591  0.4740
 2862SOL     OW11520   3.438   4.207   4.519 -0.2670 -0.3689 -0.2798
 2862SOL    HW211521   3.492   4.239   4.591 -1.8254 -0.2827  0.8884
 2862SOL    HW311522   3.464   4.115   4.508 -0.0712 -0.4007  0.4465
 2862SOL    MW411523   3.448   4.199   4.527 -0.4468 -0.3614 -0.0300
 2863SOL     OW11524   3.071   0.172   4.574  0.0093 -0.6758  0.2301
 2863SOL    HW211525   3.103   0.256   4.606  0.2424 -0.8641  0.4878
 2863SOL    HW311526   2.976   0.184   4.568  0.1885  0.1358 -1.2678
 2863SOL    MW411527   3.063   0.185   4.577  0.0639 -0.5936  0.0663
 2864SOL     OW11528   3.808   1.573   4.085 -0.1479 -0.4544 -0.1546
 2864SOL    HW211529   3.827   1.575   3.991 -1.6443 -1.3761 -0.4873
 2864SOL    HW311530   3.874   1.631   4.123  1.9975 -1.9037 -1.4982
 2864SOL    MW411531   3.819   1.581   4.077 -0.0622 -0.7672 -0.3757
 2865SOL     OW11532   3.701   4.481   4.593  0.0644  0.4246 -0.5156
 2865SOL    HW211533   3.625   4.514   4.544 -0.0855  0.4698 -0.2549
 2865SOL    HW311534   3.755   4.558   4.608 -0.2555  0.5432  0.0395
 2865SOL    MW411535   3.698   4.495   4.589  0.0024  0.4458 -0.4082
 2866SOL     OW11536   0.261   0.938   4.633 -0.3096 -0.1524 -0.5189
 2866SOL    HW211537   0.195   0.963   4.698 -1.8139 -1.6703 -1.4272
 2866SOL    HW311538   0.270   1.016   4.578 -0.6918  0.3620  0.1304
 2866SOL    MW411539   0.254   0.952   4.635 -0.5585 -0.2848 -0.5536
 2867SOL     OW11540   0.874   4.467   4.543 -0.1478  0.1264 -0.0435
 2867SOL    HW211541   0.840   4.459   4.454  0.5429 -0.3957 -0.2684
 2867SOL    HW311542   0.969   4.455   4.534 -0.0715  0.0599  0.7617
 2867SOL    MW411543   0.882   4.464   4.530 -0.0466  0.0491  0.0329
 2868SOL     OW11544   0.572   1.446   4.829 -0.4211 -0.3313 -0.4914
 2868SOL    HW211545   0.529   1.471   4.911  1.5747 -1.3848  0.9220
 2868SOL    HW311546   0.613   1.526   4.798  1.7210 -0.6402  1.3918
 2868SOL    MW411547   0.572   1.460   4.836  0.1249 -0.5109 -0.0567
 2869SOL     OW11548   4.179   1.901   4.533  0.1248 -0.0181  0.1809
 2869SOL    HW211549   4.153   1.811   4.514  0.0301  0.1301 -0.4052
 2869SOL    HW311550   4.097   1.949   4.542  0.1758  0.3276 -1.0814
 2869SOL    MW411551   4.165   1.895   4.532  0.1192  0.0471 -0.0629
 2870SOL     OW11552   1.537   3.062   4.715  0.4099 -0.0596 -0.0056
 2870SOL    HW211553   1.594   3.024   4.648  0.3101  0.6400 -0.4910
 2870SOL    HW311554   1.501   2.987   4.761  2.0346 -0.5130  0.5681
 2870SOL    MW411555   1.540   3.047   4.712  0.6112 -0.0272  0.0052
 2871SOL     OW11556   0.438   0.847   4.285  0.2900 -0.0259 -0.2453
 2871SOL    HW211557   0.511   0.789   4.267  0.0523 -0.5955  0.5701
 2871SOL    HW311558   0.459   0.928   4.239  1.8969  0.1513  0.7518
 2871SOL    MW411559   0.450   0.850   4.277  0.4706 -0.0777 -0.0062
 2872SOL     OW11560   1.562   2.050   4.281  0.6459 -0.1746 -0.4105
 2872SOL    HW211561   1.553   2.055   4.377  0.2435 -1.5425 -0.3688
 2872SOL    HW311562   1.575   2.140   4.254 -1.4108  0.5019  0.7239
 2872SOL    MW411563   1.563   2.062   4.290  0.3213 -0.2661 -0.2551
 2873SOL     OW11564   1.403   2.809   4.800 -0.5659  0.1446  0.0686
 2873SOL    HW211565   1.321   2.769   4.772 -0.2194 -1.2241  0.9279
 2873SOL    HW311566   1.469   2.741   4.783  0.4973  1.5178 -1.3591
 2873SOL    MW411567   1.401   2.795   4.794 -0.3800  0.1452 -0.0067
 2874SOL     OW11568   4.090   1.938   4.151 -0.1257  0.2106  0.6484
 2874SOL    HW211569   4.076   1.844   4.167 -0.4964 -0.1156 -1.4514
 2874SOL    HW311570   4.007   1.979   4.177 -0.8627 -0.3487 -0.7722
 2874SOL    MW411571   4.077   1.931   4.157 -0.2718  0.0938  0.1836
 2875SOL     OW11572   4.463   2.012   4.602 -0.1692  0.0954 -0.2900
 2875SOL    HW211573   4.518   1.950   4.555  0.0344 -0.0364  0.1229
 2875SOL    HW311574   4.376   1.972   4.600 -0.3016  0.4048 -1.1247
 2875SOL    MW411575   4.459   1.999   4.595 -0.1597  0.1189 -0.3452
 2876SOL     OW11576   0.054   2.613   4.475  0.5530  0.4825  0.2883
 2876SOL    HW211577   0.115   2.554   4.518  0.4373  0.5689  0.5716
 2876SOL    HW311578   0.104   2.693   4.458  0.8024  0.1829 -0.3932
 2876SOL    MW411579   0.068   2.616   4.478  0.5706  0.4544  0.2356
 2877SOL     OW11580   4.187   3.258   4.496 -0.6852  0.2188  0.0597
 2877SOL    HW211581   4.168   3.270   4.403 -1.0890 -2.3826 -0.2159
 2877SOL    HW311582   4.136   3.181   4.522  1.4554 -0.6677  1.7950
 2877SOL    MW411583   4.178   3.249   4.487 -0.4559 -0.2413  0.2522
 2878SOL     OW11584   0.673   1.358   4.500  0.3063 -0.6175 -0.2607
 2878SOL    HW211585   0.689   1.302   4.576 -0.4907 -1.1385 -0.4623
 2878SOL    HW311586   0.579   1.376   4.504  0.2944 -0.5054 -1.0260
 2878SOL    MW411587   0.663   1.353   4.510  0.1996 -0.6715 -0.3886
 2879SOL     OW11588   4.208   3.080   4.059 -0.2981 -0.3680  0.3463
 2879SOL    HW211589   4.220   2.995   4.102 -1.1539 -0.5846  0.1664
 2879SOL    HW311590   4.232   3.064   3.967 -0.6393 -0.4648  0.2727
 2879SOL    MW411591   4.213   3.067   4.052 -0.4559 -0.4091  0.3128
 2880SOL     OW11592   0.220   2.374   4.549 -0.1452  0.1174 -0.4450
 2880SOL    HW211593   0.216   2.380   4.645 -0.2512 -0.4778 -0.4093
 2880SOL    HW311594   0.134   2.338   4.524  0.3092 -0.8161 -0.6742
 2880SOL    MW411595   0.208   2.370   4.558 -0.0992 -0.0839 -0.4706
 2881SOL     OW11596   0.441   3.936   4.226  0.6298  0.3121 -0.0181
 2881SOL    HW211597   0.439   4.028   4.199 -2.1661  0.5637  0.8546
 2881SOL    HW311598   0.450   3.939   4.321 -3.1083 -0.1477  0.4254
 2881SOL    MW411599   0.441   3.948   4.235 -0.2323  0.2847  0.1554
 2882SOL     OW11600   3.334   4.417   4.800  0.1184  0.0235 -0.2928
 2882SOL    HW211601   3.270   4.388   4.866 -0.5572 -1.1869 -1.4465
 2882SOL    HW311602   3.286   4.480   4.747 -0.4848 -1.6516 -1.7990
 2882SOL    MW411603   3.319   4.422   4.801 -0.0505 -0.3572 -0.6437
 2883SOL     OW11604   3.796   0.475   4.279  0.1789  0.0243 -0.0546
 2883SOL    HW211605   3.881   0.438   4.253  0.3248  0.3340 -0.0154
 2883SOL    HW311606   3.796   0.563   4.242 -0.9403 -0.6622 -1.7711
 2883SOL    MW411607   3.807   0.481   4.270  0.0505 -0.0254 -0.2756
 2884SOL     OW11608   4.331   3.579   4.263 -0.0809  0.2786 -0.3113
 2884SOL    HW211609   4.318   3.664   4.221 -2.6679  1.0158  1.7848
 2884SOL    HW311610   4.253   3.529   4.241  0.4745 -0.8140  0.1468
 2884SOL    MW411611   4.319   3.584   4.255 -0.3486  0.2320  0.0262
 2885SOL     OW11612   4.006   1.374   4.594  0.3227  0.0457 -0.5301
 2885SOL    HW211613   3.944   1.312   4.555 -0.2631 -0.4747  1.1997
 2885SOL    HW311614   4.091   1.330   4.585 -0.0342 -0.8368  0.3039
 2885SOL    MW411615   4.009   1.360   4.588  0.1979 -0.1395 -0.1922
 2886SOL     OW11616   0.043   4.194   4.204  0.3920 -0.4623 -0.6910
 2886SOL    HW211617   0.047   4.205   4.109  0.0011  1.2789 -0.5210
 2886SOL    HW311618   0.036   4.099   4.216  2.0203 -0.8317 -2.3337
 2886SOL    MW411619   0.043   4.183   4.193  0.5553 -0.2809 -0.8850
 2887NA      NA11620   4.188   2.983   0.450  0.2785 -0.0256  0.1445
 2888NA      NA11621   3.552   0.406   0.826 -0.5702  0.2815  0.1733
 2889NA      NA11622   2.036   2.859   0.702 -0.5328 -0.3385 -0.3661
   4.49070   4.66690  10.00000
