Gromacs Runs On Most of All Computer Systems in water
11558
    1RG35     P    1   2.201   2.388   4.354 -0.2045 -0.2071 -0.1046
    1RG35   O1P    2   2.320   2.418   4.428  0.4697  0.4626  0.0349
    1RG35   O2P    3   2.160   2.244   4.361 -0.0097 -0.5270  0.1871
    1RG35   O5'    4   2.084   2.463   4.433  0.0489  0.2407 -0.3388
    1RG35   C5'    5   2.073   2.603   4.436  0.2790  0.0712  0.2687
    1RG35  H5'1    6   2.040   2.632   4.336  0.6499  0.9724  0.3982
    1RG35  H5'2    7   2.174   2.643   4.448  0.2478  0.9238 -2.0433
    1RG35   C4'    8   1.975   2.650   4.541  0.2191  0.1497  0.0918
    1RG35   H4'    9   1.987   2.759   4.543  0.0722  0.1897 -0.8693
    1RG35   O4'   10   1.843   2.622   4.505  0.1680 -0.0680  0.2882
    1RG35   C1'   11   1.758   2.626   4.623  0.3376 -0.0904 -0.1266
    1RG35   H1'   12   1.704   2.720   4.615  0.9161  0.0486 -2.7865
    1RG35    N9   13   1.658   2.513   4.630  0.8179 -0.5422  0.0013
    1RG35    C8   14   1.520   2.531   4.613 -0.3976 -0.4775  0.2149
    1RG35    H8   15   1.485   2.623   4.569  1.4332  0.6852  1.1038
    1RG35    N7   16   1.452   2.422   4.638  0.5226 -0.2150  0.1688
    1RG35    C5   17   1.549   2.329   4.674 -0.0980  0.3905 -0.2255
    1RG35    C6   18   1.532   2.189   4.703  0.2311 -0.2752  0.1460
    1RG35    O6   19   1.432   2.121   4.688  0.3343  0.7418  0.0417
    1RG35    N1   20   1.647   2.134   4.749  0.2271  0.2173  0.0916
    1RG35    H1   21   1.643   2.034   4.757 -2.0866  0.3543  0.9463
    1RG35    C2   22   1.766   2.196   4.748 -1.1110  0.0766 -0.2866
    1RG35    N2   23   1.870   2.113   4.753  0.0680  0.3036  0.4458
    1RG35   H21   24   1.869   2.013   4.758  0.5951  0.3171  0.8199
    1RG35   H22   25   1.962   2.148   4.730  0.1171 -0.1087  0.0052
    1RG35    N3   26   1.794   2.315   4.704  0.4740 -0.2532  0.4288
    1RG35    C4   27   1.675   2.383   4.675  0.2040 -0.8504  0.2561
    1RG35   C3'   28   1.987   2.591   4.681 -0.0880  0.2232 -0.2246
    1RG35   H3'   29   1.987   2.482   4.675  1.3190  0.2342 -0.6776
    1RG35   C2'   30   1.852   2.635   4.739  0.1501  0.5061 -0.5757
    1RG35  H2'1   31   1.826   2.562   4.816  0.2082 -1.1158 -2.0633
    1RG35   O2'   32   1.863   2.768   4.791  0.1166 -0.0246  0.3082
    1RG35  HO'2   33   1.941   2.763   4.846  0.8932  2.4611 -0.5154
    1RG35   O3'   34   2.099   2.648   4.750 -0.4200 -0.5134 -0.4225
    1RG35   H3T   35   2.171   2.586   4.739  0.6125  0.3169  1.3352
    1RG35   O3P   36   2.191   2.446   4.220  0.1479  0.2754 -0.0343
    1SOL     OW   37   2.232   1.588   0.470  0.1944 -0.0641 -0.0161
    1SOL    HW2   38   2.316   1.553   0.441  0.5201  0.5736  0.1605
    1SOL    HW3   39   2.248   1.620   0.559 -0.3422 -0.3317  0.1809
    1SOL    MW4   40   2.245   1.587   0.478  0.1667 -0.0154  0.0332
    1SOL     OW   41   4.313   3.630   0.723  0.7463  0.1484  0.0717
    1SOL    HW2   42   4.295   3.704   0.782  0.0818  0.0421  0.0082
    1SOL    HW3   43   4.227   3.593   0.705  0.9957 -0.1005 -0.6097
    1SOL    MW4   44   4.299   3.635   0.729  0.6914  0.1016 -0.0265
    1SOL     OW   45   2.750   0.413   0.381  0.0255 -0.3005 -0.0687
    1SOL    HW2   46   2.819   0.475   0.406  1.2393 -1.2796 -0.9138
    1SOL    HW3   47   2.687   0.466   0.332  1.2172  0.2216 -1.0709
    1SOL    MW4   48   2.751   0.428   0.377  0.3428 -0.3608 -0.3124
    1SOL     OW   49   2.510   2.790   0.461 -0.2418  0.1636 -0.0618
    1SOL    HW2   50   2.507   2.780   0.556 -0.1173  0.1823 -0.0549
    1SOL    HW3   51   2.486   2.704   0.427 -0.1353  0.1127 -0.0114
    1SOL    MW4   52   2.507   2.777   0.469 -0.2112  0.1595 -0.0542
    1SOL     OW   53   4.405   2.988   0.451  0.3819  0.0827  0.4638
    1SOL    HW2   54   4.483   2.935   0.437  0.7517  0.6524  0.3430
    1SOL    HW3   55   4.371   2.959   0.535  1.0016  0.1678  0.7483
    1SOL    MW4   56   4.411   2.977   0.460  0.5121  0.1690  0.4854
    1SOL     OW   57   0.016   2.478   0.727  0.0563 -0.0178 -0.4006
    1SOL    HW2   58  -0.011   2.500   0.638 -0.4165  1.3319  0.0496
    1SOL    HW3   59   0.018   2.563   0.772 -0.7323 -0.7942  1.1378
    1SOL    MW4   60   0.013   2.492   0.721 -0.1101  0.0582 -0.1382
    1SOL     OW   61   1.405   4.665   0.455 -0.1224 -0.5288  0.4536
    1SOL    HW2   62   1.358   4.719   0.518 -0.7512  0.4323 -0.8168
    1SOL    HW3   63   1.470   4.724   0.417  0.6099 -1.2467  0.5860
    1SOL    MW4   64   1.407   4.680   0.458 -0.1087 -0.4967  0.3035
    1SOL     OW   65   4.276   0.192   0.485 -0.0529  0.0555  0.6049
    1SOL    HW2   66   4.253   0.199   0.577 -3.8098 -1.0335 -0.1987
    1SOL    HW3   67   4.221   0.256   0.441  0.0720 -0.9860 -1.1357
    1SOL    MW4   68   4.266   0.201   0.491 -0.5322 -0.2256  0.2692
    1SOL     OW   69   2.734   1.670   0.463 -0.3697  0.0099  0.1004
    1SOL    HW2   70   2.656   1.623   0.435  0.3141 -0.4441 -1.0851
    1SOL    HW3   71   2.807   1.614   0.436  0.3558  0.2864  1.4634
    1SOL    MW4   72   2.734   1.657   0.456 -0.1838 -0.0135  0.1238
    1SOL     OW   73   2.212   0.112   0.713  0.4810  0.1313 -0.0994
    1SOL    HW2   74   2.292   0.074   0.749  0.6333  1.0439  0.5475
    1SOL    HW3   75   2.235   0.136   0.623  1.1574  1.0600  0.3157
    1SOL    MW4   76   2.225   0.110   0.706  0.5903  0.3743  0.0408
    1SOL     OW   77   4.032   1.214   0.812  0.3210  0.1343 -0.1705
    1SOL    HW2   78   4.008   1.199   0.904 -1.4804  0.0256 -0.6234
    1SOL    HW3   79   3.953   1.253   0.774  0.9791 -0.0435 -1.7306
    1SOL    MW4   80   4.018   1.217   0.819  0.1698  0.0967 -0.4362
    1SOL     OW   81   0.495   2.448   0.736  0.5952  0.4010 -0.1300
    1SOL    HW2   82   0.486   2.442   0.641  0.9757  0.1239 -0.1486
    1SOL    HW3   83   0.425   2.392   0.770  0.8083  0.0587 -0.2524
    1SOL    MW4   84   0.485   2.440   0.728  0.6735  0.3190 -0.1486
    1SOL     OW   85   4.016   0.699   0.525  0.0258  0.1823 -0.0034
    1SOL    HW2   86   4.020   0.776   0.581  1.2950 -1.0281  1.6125
    1SOL    HW3   87   4.107   0.674   0.512 -0.2813  0.0722 -2.0997
    1SOL    MW4   88   4.028   0.706   0.531  0.1526  0.0080 -0.0667
    1SOL     OW   89   4.021   1.966   0.843  0.0194 -0.0284  0.1841
    1SOL    HW2   90   4.025   1.877   0.809 -0.8764  0.2423 -0.6655
    1SOL    HW3   91   4.011   1.956   0.938 -0.5861 -0.8375  0.0338
    1SOL    MW4   92   4.020   1.953   0.851 -0.1788 -0.0995  0.0522
    1SOL     OW   93   4.070   3.309   0.343  0.2529  0.2203 -0.0157
    1SOL    HW2   94   4.095   3.217   0.353 -0.5022  0.0962  0.7596
    1SOL    HW3   95   4.152   3.353   0.321  0.6868 -0.5758 -0.0306
    1SOL    MW4   96   4.084   3.302   0.341  0.2108  0.0989  0.0846
    1SOL     OW   97   0.278   1.319   0.394 -0.3306 -0.0232  0.2612
    1SOL    HW2   98   0.317   1.295   0.478  1.1561  1.1988 -0.0547
    1SOL    HW3   99   0.352   1.327   0.334 -1.1222  1.5039 -0.5674
    1SOL    MW4  100   0.293   1.317   0.397 -0.2388  0.3395  0.1102
    1SOL     OW  101   3.340   0.197   0.407 -0.0318  0.1006 -0.0743
    1SOL    HW2  102   3.273   0.139   0.444 -0.8540  0.9334 -0.2475
    1SOL    HW3  103   3.294   0.248   0.341  0.8644  0.4291 -0.4532
    1SOL    MW4  104   3.326   0.196   0.403 -0.0222  0.2538 -0.1472
    1SOL     OW  105   1.965   0.344   0.311  0.1094 -0.1069 -0.1871
    1SOL    HW2  106   1.911   0.309   0.240  0.5253 -0.8137 -0.1509
    1SOL    HW3  107   1.943   0.290   0.387 -0.2149  0.5443  0.1944
    1SOL    MW4  108   1.955   0.332   0.312  0.1215 -0.1143 -0.1320
    1SOL     OW  109   2.791   2.826   0.510 -0.7104 -0.1371  0.0762
    1SOL    HW2  110   2.841   2.762   0.459  0.1508 -1.4871  2.5101
    1SOL    HW3  111   2.702   2.819   0.476 -0.2450 -1.3348 -0.9238
    1SOL    MW4  112   2.786   2.816   0.499 -0.5350 -0.4733  0.2653
    1SOL     OW  113   0.249   0.526   0.758 -0.1661  0.0189 -0.3458
    1SOL    HW2  114   0.254   0.620   0.775 -1.2124  0.0363 -0.0832
    1SOL    HW3  115   0.237   0.519   0.663 -0.8116  0.1804 -0.2772
    1SOL    MW4  116   0.248   0.538   0.748 -0.3893  0.0424 -0.3021
    1SOL     OW  117   2.531   2.117   0.382 -0.2174 -0.2834  0.0638
    1SOL    HW2  118   2.543   2.185   0.448 -0.2198 -0.2160 -0.0053
    1SOL    HW3  119   2.613   2.117   0.333 -0.6037  0.3624 -0.5849
    1SOL    MW4  120   2.544   2.126   0.384 -0.2687 -0.1893 -0.0309
    1SOL     OW  121   0.472   0.348   0.466 -0.2135  0.1057 -0.4166
    1SOL    HW2  122   0.549   0.406   0.463 -0.1860  0.0761 -0.2893
    1SOL    HW3  123   0.480   0.303   0.551  0.2556 -0.7642 -0.9172
    1SOL    MW4  124   0.483   0.350   0.477 -0.1480 -0.0130 -0.4659
    1SOL     OW  125   3.768   1.312   0.715  0.4524  0.4003  0.1329
    1SOL    HW2  126   3.724   1.339   0.635 -1.7631  1.9907  1.8062
    1SOL    HW3  127   3.707   1.252   0.757  1.1131  0.3854  1.1012
    1SOL    MW4  128   3.754   1.308   0.710  0.2475  0.6082  0.4814
    1SOL     OW  129   0.428   4.023   0.747  0.5859  0.2092 -0.2076
    1SOL    HW2  130   0.389   4.041   0.662 -1.1277  0.9189  0.6979
    1SOL    HW3  131   0.441   4.109   0.787 -0.3997 -0.1782  0.9936
    1SOL    MW4  132   0.424   4.036   0.741  0.2297  0.2518  0.0703
    1SOL     OW  133   0.151   4.657   0.898  0.1983 -0.4228 -0.1382
    1SOL    HW2  134   0.056   4.663   0.887  0.0807 -0.0251  1.1063
    1SOL    HW3  135   0.186   4.713   0.828 -0.5367  1.1182  0.7147
    1SOL    MW4  136   0.143   4.665   0.887  0.0858 -0.1670  0.1385
    1SOL     OW  137   0.020   2.007   0.338 -0.1853  0.2423  0.1949
    1SOL    HW2  138   0.060   1.936   0.288  1.4960  0.2660  1.4573
    1SOL    HW3  139   0.084   2.027   0.406 -2.4656  0.0403  2.5004
    1SOL    MW4  140   0.034   2.000   0.341 -0.2642  0.2187  0.6657
    1SOL     OW  141   1.991   2.283   0.881 -0.6591 -0.5325 -0.2136
    1SOL    HW2  142   1.973   2.303   0.972 -0.6812  1.4024 -0.6203
    1SOL    HW3  143   1.908   2.297   0.836 -0.6862 -1.6261 -0.5063
    1SOL    MW4  144   1.978   2.288   0.887 -0.6655 -0.4215 -0.3059
    1SOL     OW  145   4.264   4.088   0.410  0.3260 -0.2440 -0.0423
    1SOL    HW2  146   4.268   4.076   0.316  1.2738  0.1966 -0.0636
    1SOL    HW3  147   4.356   4.091   0.439  0.0484 -0.6032  0.9195
    1SOL    MW4  148   4.277   4.087   0.402  0.4144 -0.2337  0.0818
    1SOL     OW  149   0.936   4.073   0.394 -0.1552 -0.0843  0.5423
    1SOL    HW2  150   0.855   4.101   0.352  0.4958  2.0474  0.6263
    1SOL    HW3  151   0.922   4.090   0.487  0.4445  0.5199  0.5316
    1SOL    MW4  152   0.924   4.079   0.401  0.0098  0.2766  0.5520
    1SOL     OW  153   1.519   2.234   0.880  0.4277  0.1946  0.4306
    1SOL    HW2  154   1.452   2.302   0.874  0.5440  0.3999  1.3641
    1SOL    HW3  155   1.597   2.273   0.840  0.6149  0.7786  1.3346
    1SOL    MW4  156   1.521   2.248   0.874  0.4677  0.2987  0.6730
    1SOL     OW  157   2.020   3.071   0.860 -0.3515  0.2244  0.4791
    1SOL    HW2  158   2.026   3.001   0.795 -1.4387  0.4940  0.0794
    1SOL    HW3  159   1.959   3.134   0.823 -1.4121  0.1180  1.9965
    1SOL    MW4  160   2.013   3.070   0.847 -0.6347  0.2460  0.6266
    1SOL     OW  161   2.722   3.252   0.475  0.2735 -0.1204  0.1517
    1SOL    HW2  162   2.743   3.345   0.466  0.4762 -0.0563  1.1848
    1SOL    HW3  163   2.638   3.242   0.430  0.0865  0.6284  0.3264
    1SOL    MW4  164   2.713   3.263   0.468  0.2754 -0.0131  0.3111
    1SOL     OW  165   0.233   0.126   0.675  0.3856 -0.4397  0.2522
    1SOL    HW2  166   0.260   0.085   0.593 -0.1483 -1.1737  0.4396
    1SOL    HW3  167   0.176   0.198   0.649 -0.2840 -1.0612  0.0092
    1SOL    MW4  168   0.229   0.130   0.661  0.2268 -0.6186  0.2449
    1SOL     OW  169   1.741   2.339   0.736 -0.7020  0.3503 -0.2983
    1SOL    HW2  170   1.755   2.432   0.717 -1.1878  0.1994 -1.4094
    1SOL    HW3  171   1.760   2.294   0.653 -0.3913 -0.5505  0.2517
    1SOL    MW4  172   1.745   2.345   0.722 -0.7250  0.2117 -0.3724
    1SOL     OW  173   2.991   4.508   0.443  0.1510  0.5031  0.4693
    1SOL    HW2  174   2.930   4.487   0.514 -0.4390  0.3311 -0.0866
    1SOL    HW3  175   2.935   4.520   0.366  0.6833  1.7964  0.2726
    1SOL    MW4  176   2.975   4.507   0.443  0.1435  0.6509  0.3700
    1SOL     OW  177   0.295   1.237   0.670  0.1857 -0.1879 -0.3600
    1SOL    HW2  178   0.367   1.197   0.719 -0.0159 -0.6187 -0.4208
    1SOL    HW3  179   0.280   1.321   0.715  0.9934  0.0860 -0.5930
    1SOL    MW4  180   0.303   1.243   0.683  0.2657 -0.2086 -0.3988
    1SOL     OW  181   3.422   0.742   0.890  0.2335  0.5011  0.2548
    1SOL    HW2  182   3.421   0.654   0.853 -0.8433  0.6914 -0.2031
    1SOL    HW3  183   3.477   0.792   0.831 -0.5936  0.5448 -0.4890
    1SOL    MW4  184   3.429   0.737   0.877 -0.0176  0.5319  0.0963
    1SOL     OW  185   1.838   3.241   0.744  0.0502 -0.5391 -0.1104
    1SOL    HW2  186   1.861   3.236   0.652 -0.1261  0.5077 -0.2225
    1SOL    HW3  187   1.753   3.199   0.751  0.4225 -1.3247 -0.2858
    1SOL    MW4  188   1.830   3.235   0.733  0.0759 -0.5050 -0.1484
    1SOL     OW  189   2.051   2.813   0.709 -0.2367 -0.0619  0.2921
    1SOL    HW2  190   1.979   2.750   0.708  0.5725 -0.9840 -0.1465
    1SOL    HW3  191   2.116   2.775   0.767  0.2652  0.3645  0.0196
    1SOL    MW4  192   2.050   2.800   0.716 -0.0639 -0.1271  0.1982
    1SOL     OW  193   2.249   2.054   0.466 -0.2531  0.4904  0.0580
    1SOL    HW2  194   2.338   2.064   0.433  0.3263 -0.6095  1.2356
    1SOL    HW3  195   2.201   2.129   0.430  0.8538  0.4652 -1.5305
    1SOL    MW4  196   2.254   2.065   0.457 -0.0308  0.3421  0.0037
    1SOL     OW  197   3.560   1.919   0.824 -0.4722 -0.3509  0.0726
    1SOL    HW2  198   3.632   1.974   0.791 -0.0035 -0.6394  0.6021
    1SOL    HW3  199   3.576   1.833   0.784 -0.2043 -0.5611  0.6338
    1SOL    MW4  200   3.572   1.915   0.814 -0.3750 -0.4168  0.2165
    1SOL     OW  201   0.281   2.826   0.719  0.1009 -0.2838  0.4853
    1SOL    HW2  202   0.354   2.785   0.766 -0.3273 -0.1447  1.2766
    1SOL    HW3  203   0.281   2.917   0.750 -1.4867 -0.7094  1.7988
    1SOL    MW4  204   0.291   2.833   0.729 -0.1651 -0.3216  0.7630
    1SOL     OW  205   1.547   4.436   0.423  0.3172  0.2793  0.0055
    1SOL    HW2  206   1.485   4.378   0.379  0.5009  0.3964 -0.4052
    1SOL    HW3  207   1.499   4.518   0.435 -0.8042 -0.7046  2.7926
    1SOL    MW4  208   1.533   4.439   0.419  0.1935  0.1650  0.3191
    1SOL     OW  209   4.126   3.041   0.401  0.1934  0.0789  0.1733
    1SOL    HW2  210   4.221   3.038   0.406  0.2514  0.7152 -0.4456
    1SOL    HW3  211   4.099   2.949   0.405  0.8035 -0.0769  0.8209
    1SOL    MW4  212   4.135   3.029   0.402  0.2818  0.1423  0.1771
    1SOL     OW  213   2.346   2.010   0.723 -0.2854 -0.1396 -0.2151
    1SOL    HW2  214   2.307   2.018   0.636 -0.5717 -0.3609 -0.1082
    1SOL    HW3  215   2.354   2.100   0.755 -1.4150 -0.1434  0.0761
    1SOL    MW4  216   2.342   2.023   0.716 -0.4723 -0.1690 -0.1626
    1SOL     OW  217   2.888   3.091   0.856  0.3856 -0.2393  0.0168
    1SOL    HW2  218   2.812   3.128   0.812  0.2127  0.0159  0.5225
    1SOL    HW3  219   2.885   2.997   0.835 -0.7304 -0.4316  0.9921
    1SOL    MW4  220   2.878   3.083   0.848  0.2155 -0.2310  0.2121
    1SOL     OW  221   0.901   4.309   0.857  0.3001 -0.4295 -0.0637
    1SOL    HW2  222   0.910   4.222   0.818 -0.0986 -1.6279  2.4303
    1SOL    HW3  223   0.985   4.352   0.837  0.7062 -1.5576 -0.8659
    1SOL    MW4  224   0.914   4.304   0.849  0.3012 -0.7367  0.1596
    1SOL     OW  225   2.969   1.503   0.410 -0.3988 -0.0126  0.0975
    1SOL    HW2  226   2.982   1.414   0.444 -0.3415  0.1236  0.4324
    1SOL    HW3  227   3.031   1.557   0.459  1.9231 -0.3098 -2.3987
    1SOL    MW4  228   2.978   1.498   0.421 -0.0851 -0.0339 -0.1876
    1SOL     OW  229   1.372   3.488   0.332 -0.3679  0.2406 -0.2929
    1SOL    HW2  230   1.324   3.433   0.270 -1.0902 -0.3141  0.7297
    1SOL    HW3  231   1.305   3.543   0.372 -0.0670 -0.0956  0.6969
    1SOL    MW4  232   1.357   3.488   0.329 -0.4236  0.1233 -0.0274
    1SOL     OW  233   2.428   4.374   0.482 -0.0612  0.2264 -0.1107
    1SOL    HW2  234   2.453   4.290   0.444  0.4119  0.8485 -1.2307
    1SOL    HW3  235   2.493   4.436   0.447 -1.2308  1.2947 -0.4401
    1SOL    MW4  236   2.440   4.371   0.472 -0.1531  0.4492 -0.3019
    1SOL     OW  237   0.608   3.931   0.213  0.3492 -0.5937  0.2446
    1SOL    HW2  238   0.537   3.929   0.148  0.5848 -0.0311 -0.0357
    1SOL    HW3  239   0.611   4.022   0.242  1.1018 -0.5688  0.0938
    1SOL    MW4  240   0.599   3.942   0.208  0.4796 -0.5159  0.1877
    1SOL     OW  241   0.468   2.366   0.482  0.4807 -0.8522  0.4368
    1SOL    HW2  242   0.485   2.454   0.449 -0.0485 -0.3250  1.5620
    1SOL    HW3  243   0.384   2.342   0.442  0.4181 -0.6830  0.4663
    1SOL    MW4  244   0.459   2.374   0.472  0.4026 -0.7606  0.5891
    1SOL     OW  245   1.422   0.401   0.412 -0.4359  0.2726 -0.6227
    1SOL    HW2  246   1.483   0.327   0.402  0.1759  0.8791 -1.4268
    1SOL    HW3  247   1.336   0.360   0.418  0.0417 -0.5979  0.4769
    1SOL    MW4  248   1.419   0.386   0.412 -0.2921  0.2378 -0.5837
    1SOL     OW  249   0.236   3.842   0.828 -0.0542  0.1015 -0.1638
    1SOL    HW2  250   0.245   3.840   0.923  0.9487 -0.7428 -0.2737
    1SOL    HW3  251   0.301   3.907   0.799 -0.4607  0.4669 -0.2680
    1SOL    MW4  252   0.246   3.850   0.836  0.0245  0.0381 -0.1920
    1SOL     OW  253   2.199   0.888   0.508 -0.2212  0.1705 -0.4838
    1SOL    HW2  254   2.108   0.859   0.496 -0.1459 -0.0439 -0.5396
    1SOL    HW3  255   2.250   0.808   0.503 -0.0778  0.2276  0.0809
    1SOL    MW4  256   2.194   0.874   0.505 -0.1926  0.1497 -0.4166
    1SOL     OW  257   0.560   0.923   0.686  0.4830 -0.4172 -0.1143
    1SOL    HW2  258   0.620   0.885   0.750 -1.0125 -0.5463  1.2193
    1SOL    HW3  259   0.478   0.875   0.697 -1.0471  2.2941  0.7204
    1SOL    MW4  260   0.557   0.912   0.696  0.0838 -0.0765  0.1718
    1SOL     OW  261   3.002   4.067   0.295 -0.4862 -0.7137  0.2863
    1SOL    HW2  262   2.909   4.058   0.317 -0.9623 -1.8221 -1.9784
    1SOL    HW3  263   3.013   4.160   0.276 -1.0638 -0.5228  0.8863
    1SOL    MW4  264   2.991   4.078   0.295 -0.6251 -0.8349  0.0666
    1SOL     OW  265   1.122   1.390   0.486  0.1694 -0.0204  0.3429
    1SOL    HW2  266   1.216   1.399   0.473  0.2706 -1.9471 -0.4815
    1SOL    HW3  267   1.099   1.311   0.438 -1.9717  0.7258  0.0756
    1SOL    MW4  268   1.131   1.381   0.478 -0.0998 -0.1762  0.1988
    1SOL     OW  269   1.396   3.211   0.765  0.1333 -0.1534 -0.1469
    1SOL    HW2  270   1.387   3.215   0.670  0.5032  0.8314 -0.1395
    1SOL    HW3  271   1.307   3.196   0.797 -0.2146  1.0035 -0.5629
    1SOL    MW4  272   1.383   3.209   0.757  0.1363  0.1290 -0.2009
    1SOL     OW  273   4.452   0.795   0.531  0.3507  0.4477 -0.3874
    1SOL    HW2  274   4.484   0.819   0.444  0.4533 -2.5048 -1.2441
    1SOL    HW3  275   4.487   0.861   0.590 -0.3040  2.9159 -2.6806
    1SOL    MW4  276   4.461   0.807   0.527  0.2775  0.3837 -0.8030
    1SOL     OW  277   1.878   4.617   0.165 -0.2117 -0.0282  0.3452
    1SOL    HW2  278   1.867   4.522   0.165 -0.9988  0.0662 -0.3618
    1SOL    HW3  279   1.960   4.631   0.213 -0.5872 -1.0003  1.2905
    1SOL    MW4  280   1.888   4.606   0.171 -0.3649 -0.1440  0.3767
    1SOL     OW  281   1.161   3.142   0.884 -0.4929  0.0955 -0.3692
    1SOL    HW2  282   1.082   3.182   0.847 -0.1488 -0.0381 -1.2611
    1SOL    HW3  283   1.159   3.051   0.853  0.3428  0.2655 -0.9462
    1SOL    MW4  284   1.151   3.135   0.875 -0.3372  0.1004 -0.5630
    1SOL     OW  285   1.388   1.532   0.519  0.2072  0.1190  0.2622
    1SOL    HW2  286   1.412   1.601   0.458 -0.9377  0.3546  0.0594
    1SOL    HW3  287   1.457   1.466   0.511 -0.0563  0.0391 -1.4611
    1SOL    MW4  288   1.400   1.532   0.510  0.0213  0.1397  0.0081
    1SOL     OW  289   1.822   1.809   0.510 -0.2208 -0.0618 -0.4551
    1SOL    HW2  290   1.914   1.819   0.485  0.0785 -1.6240 -0.0853
    1SOL    HW3  291   1.826   1.773   0.599 -1.1933  0.2563 -0.2842
    1SOL    MW4  292   1.835   1.805   0.519 -0.3095 -0.2259 -0.3838
    1SOL     OW  293   0.717   3.067   0.894  0.1766  0.1848  0.0724
    1SOL    HW2  294   0.643   3.116   0.857  0.8109  1.1422  0.0596
    1SOL    HW3  295   0.697   3.059   0.987  0.5081  1.2675  0.2388
    1SOL    MW4  296   0.704   3.072   0.902  0.3040  0.4542  0.0927
    1SOL     OW  297   0.817   3.794   0.335  0.3322  0.1167  0.0546
    1SOL    HW2  298   0.753   3.836   0.277 -0.0451 -1.3513 -0.6340
    1SOL    HW3  299   0.881   3.862   0.353 -0.2713  0.9960 -1.0081
    1SOL    MW4  300   0.817   3.808   0.330  0.2028  0.0386 -0.1765
    1SOL     OW  301   0.922   3.185   0.561  0.1180  0.2522  0.2206
    1SOL    HW2  302   0.995   3.199   0.502 -0.2361 -0.4694 -0.3956
    1SOL    HW3  303   0.858   3.252   0.536 -0.1530 -0.2399 -0.4134
    1SOL    MW4  304   0.923   3.196   0.550  0.0355  0.0920  0.0557
    1SOL     OW  305   1.798   0.863   0.769  0.0070  0.0623  0.4603
    1SOL    HW2  306   1.809   0.953   0.800 -0.0968  0.0092  0.6498
    1SOL    HW3  307   1.858   0.811   0.822 -0.0839 -0.0116  0.4899
    1SOL    MW4  308   1.807   0.868   0.780 -0.0186  0.0455  0.4892
    1SOL     OW  309   0.029   3.994   0.765  0.0336  0.0764 -0.0675
    1SOL    HW2  310  -0.045   3.939   0.791  1.0679 -0.6063  1.4845
    1SOL    HW3  311   0.106   3.940   0.783  0.9219  0.7389 -1.7733
    1SOL    MW4  312   0.029   3.979   0.771  0.2872  0.0737 -0.0878
    1SOL     OW  313   3.333   0.006   0.839  0.0106  0.1561 -0.0572
    1SOL    HW2  314   3.329  -0.003   0.934  1.2561 -1.7619 -0.1539
    1SOL    HW3  315   3.420   0.043   0.822 -0.8820  2.1741 -0.3646
    1SOL    MW4  316   3.344   0.010   0.849  0.0572  0.1693 -0.1104
    1SOL     OW  317   4.467   2.514   0.456 -0.0993  0.2144 -0.0325
    1SOL    HW2  318   4.384   2.467   0.455 -0.1913  0.3521  0.9459
    1SOL    HW3  319   4.530   2.452   0.418 -0.4565 -0.2601  0.1478
    1SOL    MW4  320   4.465   2.499   0.451 -0.1583  0.1700  0.1204
    1SOL     OW  321   0.602   2.126   0.502 -0.0753  0.0075  0.2723
    1SOL    HW2  322   0.553   2.208   0.494  0.7911  0.4702 -0.4038
    1SOL    HW3  323   0.544   2.059   0.466 -0.8024  0.3192  0.8597
    1SOL    MW4  324   0.588   2.128   0.496 -0.0569  0.1094  0.2605
    1SOL     OW  325   2.494   4.394   0.751 -0.4437 -0.2171 -0.2478
    1SOL    HW2  326   2.420   4.352   0.794 -0.1117 -1.2985 -0.7001
    1SOL    HW3  327   2.479   4.378   0.657  0.1525 -0.1011 -0.3659
    1SOL    MW4  328   2.482   4.386   0.744 -0.3209 -0.3443 -0.3231
    1SOL     OW  329   3.366   3.078   0.383  0.1093  0.1851  0.0365
    1SOL    HW2  330   3.353   2.986   0.408 -0.7939  0.4476  0.5494
    1SOL    HW3  331   3.389   3.074   0.290 -0.4578 -0.5243 -0.0798
    1SOL    MW4  332   3.367   3.065   0.374 -0.0844  0.1259  0.0888
    1SOL     OW  333   2.756   4.044   0.439 -0.2940 -0.0898  0.2907
    1SOL    HW2  334   2.749   4.101   0.515 -0.1871 -1.5935  1.4530
    1SOL    HW3  335   2.804   3.967   0.471 -1.1816 -1.2042 -1.0231
    1SOL    MW4  336   2.762   4.041   0.453 -0.3970 -0.4354  0.2707
    1SOL     OW  337   4.281   1.308   0.737 -0.5548  0.1715  0.1302
    1SOL    HW2  338   4.337   1.241   0.776 -0.9070  0.7889  1.7393
    1SOL    HW3  339   4.192   1.276   0.753 -0.6864 -0.2750 -1.4590
    1SOL    MW4  340   4.276   1.295   0.744 -0.6185  0.1941  0.1328
    1SOL     OW  341   2.037   1.396   0.475 -0.3095  0.2778 -0.6094
    1SOL    HW2  342   2.105   1.463   0.478 -0.1507  0.0876  0.1826
    1SOL    HW3  343   1.957   1.443   0.449  0.1925  0.4376 -1.9074
    1SOL    MW4  344   2.035   1.411   0.472 -0.2222  0.2738 -0.6762
    1SOL     OW  345   2.416   2.517   0.429 -0.0362 -0.0037  0.0335
    1SOL    HW2  346   2.328   2.508   0.467 -0.7942  0.4674 -1.5559
    1SOL    HW3  347   2.410   2.471   0.345  1.5151 -0.7461  0.3251
    1SOL    MW4  348   2.403   2.510   0.423  0.0687 -0.0398 -0.1377
    1SOL     OW  349   0.527   3.225   0.472  0.1251 -0.0657 -0.3037
    1SOL    HW2  350   0.445   3.258   0.436 -0.0000 -0.4699 -0.3829
    1SOL    HW3  351   0.593   3.289   0.443 -0.3445  0.9194  0.7836
    1SOL    MW4  352   0.525   3.238   0.463  0.0466  0.0112 -0.1707
    1SOL     OW  353   0.606   2.978   0.354  0.4193  0.0943  0.0146
    1SOL    HW2  354   0.586   3.056   0.406 -0.8173  0.9314 -1.6754
    1SOL    HW3  355   0.522   2.935   0.343  0.9142 -0.8525 -0.0648
    1SOL    MW4  356   0.593   2.983   0.359  0.3214  0.0796 -0.2189
    1SOL     OW  357   2.470   2.752   0.753 -0.2282  0.1732 -0.2190
    1SOL    HW2  358   2.471   2.841   0.789 -0.4212  0.2868 -0.4984
    1SOL    HW3  359   2.547   2.710   0.792 -0.0792  0.4917 -0.1675
    1SOL    MW4  360   2.481   2.759   0.763 -0.2339  0.2306 -0.2491
    1SOL     OW  361   3.839   4.223   0.472  0.0024  0.1571  0.1383
    1SOL    HW2  362   3.752   4.187   0.455  0.0395  1.1019 -2.1851
    1SOL    HW3  363   3.850   4.293   0.407  2.4788  0.0501  0.3850
    1SOL    MW4  364   3.829   4.227   0.461  0.3338  0.2685 -0.1356
    1SOL     OW  365   3.393   3.131   0.830 -0.2941  0.5819  0.0101
    1SOL    HW2  366   3.302   3.158   0.826  0.1027  2.1340  0.8818
    1SOL    HW3  367   3.413   3.127   0.924  0.7633  1.0596 -0.1898
    1SOL    MW4  368   3.384   3.134   0.842 -0.1023  0.8495  0.0988
    1SOL     OW  369   2.775   0.847   0.429 -0.0385  0.2627 -0.4437
    1SOL    HW2  370   2.757   0.929   0.381 -0.5472  0.7317  0.5221
    1SOL    HW3  371   2.750   0.867   0.519  1.3397 -0.4656  0.1093
    1SOL    MW4  372   2.769   0.861   0.435  0.0761  0.2285 -0.2433
    1SOL     OW  373   4.237   2.110   0.756 -0.3192 -0.0005  0.1496
    1SOL    HW2  374   4.317   2.070   0.790 -0.4721  0.4003  0.9843
    1SOL    HW3  375   4.166   2.051   0.785 -0.3375 -0.3460 -0.5733
    1SOL    MW4  376   4.238   2.097   0.764 -0.3419  0.0069  0.1643
    1SOL     OW  377   0.551   0.068   0.367 -0.2084 -0.0303 -0.0980
    1SOL    HW2  378   0.543   0.157   0.402 -0.5325 -0.9330  2.2533
    1SOL    HW3  379   0.462   0.034   0.367  0.0764 -0.8018  0.3338
    1SOL    MW4  380   0.538   0.076   0.372 -0.2135 -0.2512  0.2692
    1SOL     OW  381   4.251   3.105   0.837 -0.4122  0.3562  0.3341
    1SOL    HW2  382   4.191   3.172   0.805 -0.3512  0.9960  1.5370
    1SOL    HW3  383   4.338   3.141   0.822 -0.3209 -0.4128 -1.0651
    1SOL    MW4  384   4.255   3.118   0.831 -0.3915  0.3393  0.3082
    1SOL     OW  385   0.239   2.080   0.764  0.1294  0.1145  0.7404
    1SOL    HW2  386   0.309   2.033   0.809  1.9812  1.0905 -1.1008
    1SOL    HW3  387   0.245   2.170   0.796 -0.4764  0.1408  0.7909
    1SOL    MW4  388   0.249   2.085   0.774  0.2938  0.2468  0.5041
    1SOL     OW  389   0.047   4.270   0.808 -0.3425 -0.2518  0.1499
    1SOL    HW2  390   0.023   4.283   0.899  1.7688  2.6575  0.3624
    1SOL    HW3  391   0.055   4.175   0.798  0.5785 -0.5661  3.3156
    1SOL    MW4  392   0.045   4.259   0.819  0.0576  0.0906  0.5956
    1SOL     OW  393   2.059   2.507   0.514 -0.0033  0.2940 -0.0424
    1SOL    HW2  394   2.070   2.426   0.465  0.3613  1.5052 -2.0157
    1SOL    HW3  395   2.084   2.485   0.604  0.8241 -1.5680 -0.7189
    1SOL    MW4  396   2.063   2.494   0.520  0.1540  0.2079 -0.3920
    1SOL     OW  397   2.873   2.035   0.658 -0.6436 -0.5198  0.2767
    1SOL    HW2  398   2.948   2.006   0.709 -0.1864  1.3519  0.6927
    1SOL    HW3  399   2.797   1.999   0.703 -0.1403 -0.2763  1.3217
    1SOL    MW4  400   2.873   2.026   0.670 -0.5169 -0.2410  0.4694
    1SOL     OW  401   1.743   0.169   0.806 -0.0288  0.2609  0.4875
    1SOL    HW2  402   1.663   0.119   0.824  0.6396 -0.4090  1.6007
    1SOL    HW3  403   1.813   0.105   0.810  0.6993  1.0676  0.6791
    1SOL    MW4  404   1.741   0.154   0.809  0.1556  0.2789  0.6596
    1SOL     OW  405   2.594   4.588   0.384  0.6003 -0.2058  0.0744
    1SOL    HW2  406   2.584   4.682   0.397  0.2560 -0.0978 -0.9467
    1SOL    HW3  407   2.687   4.576   0.367  0.6862 -0.0865  0.4445
    1SOL    MW4  408   2.605   4.599   0.384  0.5660 -0.1755 -0.0115
    1SOL     OW  409   1.500   2.014   0.699  0.0762  0.4374  0.2349
    1SOL    HW2  410   1.490   2.088   0.759 -1.5576 -0.5235  1.1759
    1SOL    HW3  411   1.435   1.950   0.728  1.0243 -1.1152 -0.9609
    1SOL    MW4  412   1.490   2.015   0.711 -0.0142  0.1059  0.2013
    1SOL     OW  413   1.682   1.670   0.184 -0.0816  0.2471  0.3738
    1SOL    HW2  414   1.655   1.663   0.093  0.6818  0.8344  0.0985
    1SOL    HW3  415   1.742   1.745   0.186  0.5343 -0.2569  1.2083
    1SOL    MW4  416   1.686   1.679   0.173  0.1004  0.2581  0.4476
    1SOL     OW  417   1.921   3.920   0.432 -0.0117  0.2599 -0.2887
    1SOL    HW2  418   1.896   3.941   0.522  2.7606  0.7326  0.4453
    1SOL    HW3  419   1.963   3.833   0.439 -0.2599  0.0673 -1.1993
    1SOL    MW4  420   1.924   3.911   0.445  0.3214  0.2966 -0.3120
    1SOL     OW  421   1.636   3.899   0.372 -0.3229 -0.3040  0.1013
    1SOL    HW2  422   1.615   3.977   0.320 -1.2058 -0.3427  0.4071
    1SOL    HW3  423   1.730   3.908   0.391 -0.4183  0.6723  0.1188
    1SOL    MW4  424   1.646   3.910   0.368 -0.4519 -0.1800  0.1439
    1SOL     OW  425   1.106   1.601   0.867  0.0810 -0.4121 -0.2021
    1SOL    HW2  426   1.107   1.513   0.831  0.4462 -0.2167 -0.6658
    1SOL    HW3  427   1.180   1.645   0.826  0.4402 -0.1562  0.6972
    1SOL    MW4  428   1.116   1.595   0.857  0.1767 -0.3525 -0.1447
    1SOL     OW  429   1.331   0.132   0.710  0.7551  0.3304 -0.1388
    1SOL    HW2  430   1.405   0.076   0.736  0.5995  0.0025 -0.3932
    1SOL    HW3  431   1.357   0.220   0.737  0.6058  0.0020  1.1007
    1SOL    MW4  432   1.344   0.136   0.717  0.7149  0.2438 -0.0089
    1SOL     OW  433   3.875   1.991   0.465  0.4898 -0.1951 -0.2198
    1SOL    HW2  434   3.882   1.896   0.454  2.1054 -0.2929  1.4863
    1SOL    HW3  435   3.965   2.020   0.483  0.1462  1.7687 -1.5376
    1SOL    MW4  436   3.888   1.983   0.466  0.6578  0.0511 -0.1685
    1SOL     OW  437   1.296   0.969   0.266 -0.0040 -0.1865  0.1940
    1SOL    HW2  438   1.358   0.912   0.311 -0.2413 -0.0923  0.6503
    1SOL    HW3  439   1.247   0.911   0.208  0.1496 -0.3517  0.2291
    1SOL    MW4  440   1.298   0.954   0.265 -0.0150 -0.1959  0.2589
    1SOL     OW  441   0.913   4.064   0.727 -0.0410  0.1108  0.0586
    1SOL    HW2  442   0.835   4.011   0.739 -0.0834 -0.3825 -2.2719
    1SOL    HW3  443   0.985   4.009   0.758 -0.3515 -0.3819 -0.1007
    1SOL    MW4  444   0.912   4.050   0.733 -0.0875 -0.0196 -0.2699
    1SOL     OW  445   4.059   2.733   0.856 -0.0108 -0.3401 -0.4819
    1SOL    HW2  446   4.056   2.638   0.841  1.9361 -0.9120  2.3810
    1SOL    HW3  447   4.141   2.761   0.813  0.2414 -0.2325  0.0696
    1SOL    MW4  448   4.070   2.724   0.848  0.2799 -0.4013 -0.0314
    1SOL     OW  449   4.015   4.007   0.524  0.0902 -0.5403 -0.0092
    1SOL    HW2  450   3.962   4.083   0.500 -0.6930 -0.8192  0.7819
    1SOL    HW3  451   4.104   4.031   0.500 -0.2088  0.4729 -0.1273
    1SOL    MW4  452   4.020   4.020   0.518 -0.0525 -0.4435  0.0796
    1SOL     OW  453   1.191   0.252   0.481 -0.4639 -0.5285  0.4477
    1SOL    HW2  454   1.223   0.228   0.569 -0.1118 -0.1352  0.4305
    1SOL    HW3  455   1.130   0.324   0.497 -0.5808 -0.6161  0.3917
    1SOL    MW4  456   1.187   0.258   0.495 -0.4328 -0.4882  0.4380
    1SOL     OW  457   2.700   0.875   0.703  0.0186  0.2602  0.2066
    1SOL    HW2  458   2.696   0.967   0.731  0.4457  0.5710 -0.7236
    1SOL    HW3  459   2.774   0.838   0.751  0.2801  0.5904  0.0626
    1SOL    MW4  460   2.709   0.883   0.713  0.1092  0.3448  0.0649
    1SOL     OW  461   1.709   1.930   0.877  0.4375  0.0412 -0.4935
    1SOL    HW2  462   1.642   1.955   0.813 -0.7188 -0.0687  0.6679
    1SOL    HW3  463   1.737   1.843   0.849 -0.6264 -0.3363 -0.4067
    1SOL    MW4  464   1.704   1.922   0.865  0.1446 -0.0230 -0.3288
    1SOL     OW  465   1.875   0.153   0.503 -0.1140 -0.1213  0.1938
    1SOL    HW2  466   1.854   0.154   0.596 -0.7880 -1.5181  0.0748
    1SOL    HW3  467   1.942   0.085   0.494  0.7434  0.7679 -0.1816
    1SOL    MW4  468   1.881   0.144   0.514 -0.0898 -0.1883  0.1286
    1SOL     OW  469   0.899   3.535   0.861 -0.1700  0.6087 -0.2660
    1SOL    HW2  470   0.894   3.441   0.840  0.5241  0.3071  0.8434
    1SOL    HW3  471   0.817   3.571   0.829 -1.4115 -0.7896  1.2380
    1SOL    MW4  472   0.887   3.527   0.854 -0.2422  0.3843  0.0788
    1SOL     OW  473   2.031   1.271   0.747 -0.1872  0.1509 -0.2720
    1SOL    HW2  474   2.053   1.295   0.657  1.3760  0.9076  0.2848
    1SOL    HW3  475   2.112   1.234   0.782 -0.9811 -0.7748  0.6223
    1SOL    MW4  476   2.044   1.269   0.740 -0.0858  0.1285 -0.0806
    1SOL     OW  477   4.330   3.447   0.354  0.0164 -0.1897  0.3172
    1SOL    HW2  478   4.372   3.447   0.268 -0.2202 -0.3784  0.2026
    1SOL    HW3  479   4.346   3.536   0.388  0.9032 -0.4027  0.4682
    1SOL    MW4  480   4.338   3.459   0.347  0.1020 -0.2429  0.3220
    1SOL     OW  481   0.460   1.710   0.722 -0.1508 -0.3563  0.4138
    1SOL    HW2  482   0.517   1.653   0.774  1.6500 -0.5584 -1.7232
    1SOL    HW3  483   0.464   1.794   0.767 -0.0563 -0.9969  1.6309
    1SOL    MW4  484   0.468   1.714   0.735  0.0993 -0.4674  0.2924
    1SOL     OW  485   0.862   4.369   0.149  0.6501  0.1324  0.0041
    1SOL    HW2  486   0.875   4.368   0.055  2.6288  0.5884  0.2389
    1SOL    HW3  487   0.827   4.456   0.169  1.1868  0.4044 -0.2185
    1SOL    MW4  488   0.859   4.380   0.139  0.9819  0.2289  0.0057
    1SOL     OW  489   1.328   2.423   0.815 -0.4144 -0.2736 -0.3473
    1SOL    HW2  490   1.345   2.435   0.722  0.3086 -0.1906 -0.2060
    1SOL    HW3  491   1.329   2.512   0.852  1.2848 -0.4630  0.0752
    1SOL    MW4  492   1.330   2.437   0.808 -0.0949 -0.2878 -0.2729
    1SOL     OW  493   1.660   2.940   0.559  0.4843  0.2330  0.5861
    1SOL    HW2  494   1.595   2.872   0.537  1.6168 -0.6766 -0.0024
    1SOL    HW3  495   1.628   2.977   0.641 -1.0976  0.1962  0.0192
    1SOL    MW4  496   1.647   2.936   0.567  0.4250  0.1080  0.4336
    1SOL     OW  497   3.090   0.101   0.467 -0.5122 -0.2946 -0.1892
    1SOL    HW2  498   3.058   0.011   0.456  1.8263 -1.2442  0.4288
    1SOL    HW3  499   3.091   0.114   0.562  0.6180 -0.1955 -0.2024
    1SOL    MW4  500   3.086   0.091   0.478 -0.0546 -0.4068 -0.1093
    1SOL     OW  501   2.946   4.418   0.723  0.2400 -0.3401 -0.3105
    1SOL    HW2  502   2.944   4.510   0.750 -0.4907 -0.1637 -0.9553
    1SOL    HW3  503   2.870   4.379   0.766  0.5131 -0.6340 -0.0877
    1SOL    MW4  504   2.935   4.425   0.733  0.1795 -0.3557 -0.3662
    1SOL     OW  505   0.238   1.591   0.373  0.5844 -0.1788 -0.1104
    1SOL    HW2  506   0.325   1.619   0.400  0.3340 -0.6935  1.2679
    1SOL    HW3  507   0.240   1.495   0.380  0.0200 -0.2169 -0.4224
    1SOL    MW4  508   0.250   1.582   0.377  0.4769 -0.2518  0.0302
    1SOL     OW  509   1.602   1.288   0.755 -0.0132 -0.0732 -0.0142
    1SOL    HW2  510   1.606   1.316   0.663  0.1593 -0.7280 -0.2131
    1SOL    HW3  511   1.511   1.264   0.769  0.5001 -2.7365 -0.8751
    1SOL    MW4  512   1.591   1.289   0.744  0.0772 -0.5111 -0.1541
    1SOL     OW  513   1.363   3.490   0.830 -0.1209 -0.1481  0.1055
    1SOL    HW2  514   1.444   3.539   0.814 -0.1101 -0.4146 -0.6712
    1SOL    HW3  515   1.386   3.399   0.810 -0.0539 -0.5345  1.8343
    1SOL    MW4  516   1.377   3.484   0.826 -0.1105 -0.2341  0.2311
    1SOL     OW  517   3.800   2.330   0.838 -0.3929  0.1365 -0.1886
    1SOL    HW2  518   3.729   2.384   0.804 -0.6555 -0.3455 -0.4115
    1SOL    HW3  519   3.796   2.249   0.787  1.2120  0.6603 -1.1641
    1SOL    MW4  520   3.790   2.326   0.827 -0.2160  0.1421 -0.3467
    1SOL     OW  521   1.972   0.006   0.813 -0.0441  0.4812 -0.0805
    1SOL    HW2  522   2.050   0.053   0.784  0.1504  0.1891 -0.0317
    1SOL    HW3  523   1.995  -0.086   0.806 -0.3557  0.3935  0.0197
    1SOL    MW4  524   1.985   0.000   0.808 -0.0595  0.4315 -0.0609
    1SOL     OW  525   2.938   0.190   0.277  0.2185 -0.3267  0.3289
    1SOL    HW2  526   2.877   0.258   0.306  0.6146  0.3636 -0.4509
    1SOL    HW3  527   2.988   0.167   0.356  0.0722  0.2774  0.5960
    1SOL    MW4  528   2.937   0.196   0.292  0.2515 -0.1560  0.2613
    1SOL     OW  529   0.981   0.079   0.482  0.1136  0.5966  0.4224
    1SOL    HW2  530   1.045   0.009   0.492  0.1603  0.6282  0.3515
    1SOL    HW3  531   1.033   0.159   0.481  0.2035  0.5294 -1.0762
    1SOL    MW4  532   0.996   0.081   0.483  0.1317  0.5920  0.2154
    1SOL     OW  533   0.638   2.111   0.768 -0.0234  0.3569 -0.2346
    1SOL    HW2  534   0.634   2.115   0.672 -1.2885 -0.4777 -0.2255
    1SOL    HW3  535   0.660   2.201   0.795 -0.7269  0.8471 -1.2606
    1SOL    MW4  536   0.641   2.124   0.759 -0.2831  0.3116 -0.3688
    1SOL     OW  537   2.927   2.374   0.331 -0.2669  0.2570  0.0287
    1SOL    HW2  538   2.927   2.368   0.427  0.5764  2.4621  0.1818
    1SOL    HW3  539   2.923   2.467   0.313  0.3846 -0.1190 -2.1094
    1SOL    MW4  540   2.926   2.385   0.342 -0.0696  0.4981 -0.2332
    1SOL     OW  541   2.487   1.507   0.378  0.5483  0.1725 -0.4364
    1SOL    HW2  542   2.475   1.413   0.380  1.1159  0.1125  0.6409
    1SOL    HW3  543   2.478   1.531   0.286  0.6226 -0.9532 -0.7382
    1SOL    MW4  544   2.484   1.498   0.366  0.6332  0.0161 -0.3341
    1SOL     OW  545   3.603   4.517   0.343 -0.6042  0.0021 -0.0432
    1SOL    HW2  546   3.606   4.609   0.371  0.5462  0.0043 -0.1455
    1SOL    HW3  547   3.693   4.498   0.315 -1.1916 -0.7072 -1.4676
    1SOL    MW4  548   3.616   4.527   0.343 -0.5302 -0.0911 -0.2446
    1SOL     OW  549   2.097   2.283   0.353  0.3945  0.3793  0.1251
    1SOL    HW2  550   2.158   2.316   0.286 -0.3630  0.4511 -0.5358
    1SOL    HW3  551   2.026   2.244   0.303  0.6509 -1.1101  0.9019
    1SOL    MW4  552   2.096   2.282   0.338  0.3283  0.1922  0.1403
    1SOL     OW  553   2.923   0.591   0.490  0.5785  0.0334 -0.1284
    1SOL    HW2  554   2.897   0.566   0.579 -0.0871 -1.1683 -0.6536
    1SOL    HW3  555   2.873   0.671   0.472 -1.3573 -1.1953 -0.4080
    1SOL    MW4  556   2.913   0.598   0.500  0.2351 -0.2872 -0.2345
    1SOL     OW  557   4.386   4.486   0.647  0.0464 -0.0880 -0.4171
    1SOL    HW2  558   4.425   4.413   0.694  0.1938 -0.3693 -0.9741
    1SOL    HW3  559   4.357   4.546   0.716  0.2768 -0.4859  0.0298
    1SOL    MW4  560   4.388   4.484   0.663  0.0968 -0.1774 -0.4316
    1SOL     OW  561   1.542   0.827   0.875  0.3276  0.3980 -0.1599
    1SOL    HW2  562   1.626   0.846   0.834  0.1895 -0.1463 -0.6860
    1SOL    HW3  563   1.478   0.869   0.818  0.2590  1.0706  0.4022
    1SOL    MW4  564   1.545   0.835   0.862  0.3004  0.4150 -0.1551
    1SOL     OW  565   0.674   3.932   0.818 -0.3193  0.4410  0.4698
    1SOL    HW2  566   0.587   3.957   0.788 -0.5722 -0.8711  0.0816
    1SOL    HW3  567   0.677   3.837   0.807  0.6283  0.2928  1.9027
    1SOL    MW4  568   0.663   3.923   0.812 -0.2276  0.2484  0.6077
    1SOL     OW  569   1.179   3.635   0.454 -0.1470 -0.2589 -0.4362
    1SOL    HW2  570   1.165   3.653   0.547 -0.3508 -1.0047 -0.3167
    1SOL    HW3  571   1.190   3.721   0.414 -1.3211  0.1493  0.0816
    1SOL    MW4  572   1.178   3.648   0.461 -0.3289 -0.3033 -0.3521
    1SOL     OW  573   0.888   1.710   0.718  0.1483 -0.3911 -0.0018
    1SOL    HW2  574   0.874   1.802   0.742  0.0450 -0.6014  0.7494
    1SOL    HW3  575   0.953   1.678   0.780  0.2809 -0.7893 -0.3459
    1SOL    MW4  576   0.895   1.718   0.729  0.1522 -0.4715  0.0519
    1SOL     OW  577   4.200   1.589   0.365 -0.3341 -0.3279  0.1357
    1SOL    HW2  578   4.234   1.674   0.393 -1.0838  0.5163 -1.4087
    1SOL    HW3  579   4.246   1.525   0.420  1.4179  0.9682  0.2355
    1SOL    MW4  580   4.211   1.592   0.376 -0.2022 -0.0455 -0.0549
    1SOL     OW  581   0.664   0.041   0.795 -0.6582 -0.2934 -0.1357
    1SOL    HW2  582   0.668   0.042   0.891 -0.2527  1.0698 -0.1452
    1SOL    HW3  583   0.680  -0.050   0.770 -0.3009 -0.5658  1.0719
    1SOL    MW4  584   0.667   0.029   0.804 -0.5577 -0.1495  0.0223
    1SOL     OW  585   0.235   3.594   0.720  0.1174 -0.2983 -0.5762
    1SOL    HW2  586   0.240   3.685   0.750 -0.6494 -0.8499  1.3156
    1SOL    HW3  587   0.309   3.552   0.764 -0.3042 -0.8564 -0.3962
    1SOL    MW4  588   0.246   3.601   0.730 -0.0394 -0.4447 -0.3027
    1SOL     OW  589   0.291   3.356   0.387  0.2754  0.6667 -0.0797
    1SOL    HW2  590   0.208   3.325   0.424  1.5528 -0.6132  1.7944
    1SOL    HW3  591   0.281   3.451   0.383 -0.0820  0.8415  3.2863
    1SOL    MW4  592   0.279   3.365   0.391  0.3968  0.5209  0.6117
    1SOL     OW  593   2.360   0.605   0.166 -0.2821 -0.3844  0.0642
    1SOL    HW2  594   2.297   0.671   0.137  0.3444 -0.1850 -0.8468
    1SOL    HW3  595   2.420   0.653   0.224  0.7383  0.0750 -1.3440
    1SOL    MW4  596   2.360   0.620   0.170 -0.0651 -0.2974 -0.2418
    1SOL     OW  597   3.850   3.453   0.430  0.3377  0.4545  0.5036
    1SOL    HW2  598   3.894   3.536   0.414 -1.6458  1.5313  0.4471
    1SOL    HW3  599   3.905   3.388   0.387  0.9533  1.9709 -1.0681
    1SOL    MW4  600   3.863   3.455   0.422  0.1574  0.7968  0.2888
    1SOL     OW  601   2.612   1.962   0.777 -0.4930  0.4198  0.0490
    1SOL    HW2  602   2.517   1.954   0.769 -0.5514  0.5863  0.5717
    1SOL    HW3  603   2.629   1.953   0.871 -0.0121  0.6089 -0.0189
    1SOL    MW4  604   2.601   1.960   0.789 -0.4373  0.4667  0.1091
    1SOL     OW  605   1.364   4.315   0.838  0.0593  0.0441 -0.2795
    1SOL    HW2  606   1.287   4.356   0.798 -1.3941 -0.8597  1.5313
    1SOL    HW3  607   1.436   4.374   0.817 -1.1689  1.0833 -1.7152
    1SOL    MW4  608   1.363   4.328   0.830 -0.2944  0.0620 -0.2300
    1SOL     OW  609   2.437   3.283   0.397  0.6108 -0.2814  0.0438
    1SOL    HW2  610   2.410   3.212   0.338 -0.9722  1.0089 -0.8386
    1SOL    HW3  611   2.368   3.285   0.464  0.9531  0.0415  0.3842
    1SOL    MW4  612   2.424   3.274   0.398  0.4470 -0.0684 -0.0277
    1SOL     OW  613   2.905   0.008   0.841  0.3563  0.3394 -0.0787
    1SOL    HW2  614   2.974   0.070   0.815 -0.2802  1.2791  0.4221
    1SOL    HW3  615   2.825   0.045   0.803 -0.0394 -0.1381  0.2931
    1SOL    MW4  616   2.904   0.021   0.833  0.2201  0.4001  0.0364
    1SOL     OW  617   2.505   3.558   0.388 -0.1287  0.0808 -0.6414
    1SOL    HW2  618   2.598   3.557   0.411  0.0869  1.3633 -1.3921
    1SOL    HW3  619   2.480   3.466   0.385  1.0053 -0.2585  0.0186
    1SOL    MW4  620   2.514   3.546   0.390  0.0491  0.2053 -0.6534
    1SOL     OW  621   2.514   3.864   0.860  0.2696  0.6618 -0.1257
    1SOL    HW2  622   2.430   3.900   0.833  0.4396  1.0113 -0.1825
    1SOL    HW3  623   2.513   3.774   0.828  0.6356  1.1975 -1.6542
    1SOL    MW4  624   2.503   3.857   0.852  0.3405  0.7789 -0.3348
    1SOL     OW  625   2.993   3.653   0.363  0.1337  0.3467  0.1733
    1SOL    HW2  626   3.024   3.662   0.273 -0.5288 -0.0907 -0.1026
    1SOL    HW3  627   3.050   3.588   0.402 -0.4020 -0.4328 -0.3231
    1SOL    MW4  628   3.005   3.646   0.356 -0.0243  0.1862  0.0714
    1SOL     OW  629   4.378   1.377   0.501  0.2483 -0.4699  0.1566
    1SOL    HW2  630   4.352   1.352   0.590 -1.5112  1.8950  0.3662
    1SOL    HW3  631   4.413   1.297   0.463 -3.0197 -2.6660  1.5262
    1SOL    MW4  632   4.379   1.363   0.508 -0.4148 -0.4474  0.3650
    1SOL     OW  633   4.131   2.086   0.499  0.4979  0.1307  0.5958
    1SOL    HW2  634   4.203   2.027   0.478  1.6061  1.7544 -0.3150
    1SOL    HW3  635   4.152   2.119   0.586  1.4566  1.4251 -0.1035
    1SOL    MW4  636   4.143   2.083   0.508  0.7715  0.5155  0.3834
    1SOL     OW  637   4.052   2.772   0.458  0.0450  0.0885  0.3693
    1SOL    HW2  638   4.092   2.778   0.546  1.1279  0.6571 -0.1452
    1SOL    HW3  639   4.032   2.679   0.447  1.0843 -0.1929  0.7253
    1SOL    MW4  640   4.055   2.761   0.468  0.3247  0.1264  0.3484
    1SOL     OW  641   3.672   1.479   0.508 -0.2151 -0.2781  0.2367
    1SOL    HW2  642   3.617   1.506   0.433  1.1827  0.4323 -0.5562
    1SOL    HW3  643   3.759   1.511   0.486  0.3803 -0.7757  1.8218
    1SOL    MW4  644   3.676   1.487   0.495  0.0479 -0.2501  0.3412
    1SOL     OW  645   2.678   0.129   0.731 -0.2354 -0.1297 -0.3422
    1SOL    HW2  646   2.687   0.219   0.762  0.9008 -0.2465 -0.3280
    1SOL    HW3  647   2.593   0.100   0.765 -1.6083  1.6443 -2.1154
    1SOL    MW4  648   2.668   0.137   0.739 -0.2666  0.0890 -0.5743
    1SOL     OW  649   3.245   1.395   0.319 -0.0741  0.0468  0.3819
    1SOL    HW2  650   3.175   1.460   0.310 -0.1344 -0.0300  0.2961
    1SOL    HW3  651   3.326   1.446   0.315 -0.0814 -0.0339 -0.9923
    1SOL    MW4  652   3.246   1.410   0.317 -0.0830  0.0260  0.1892
    1SOL     OW  653   1.275   1.940   0.841  0.2583  0.4625  0.3159
    1SOL    HW2  654   1.301   1.848   0.836  0.6067  0.4919  1.5999
    1SOL    HW3  655   1.286   1.964   0.933 -0.9685  1.4571  0.2195
    1SOL    MW4  656   1.280   1.931   0.852  0.1425  0.5976  0.4725
    1SOL     OW  657   0.456   1.929   0.884 -0.1394 -0.0100  0.1310
    1SOL    HW2  658   0.531   1.983   0.859 -0.3656 -0.2198 -1.0212
    1SOL    HW3  659   0.466   1.917   0.979  1.8537 -0.8610 -0.1453
    1SOL    MW4  660   0.467   1.934   0.893  0.0937 -0.1500 -0.0575
    1SOL     OW  661   0.349   4.384   0.491  0.0681 -0.0493  0.0231
    1SOL    HW2  662   0.344   4.405   0.584  0.5132  1.4462 -0.2774
    1SOL    HW3  663   0.442   4.389   0.470  0.0018 -0.6463 -0.4532
    1SOL    MW4  664   0.361   4.387   0.500  0.1181  0.0696 -0.0794
    1SOL     OW  665   0.898   3.261   0.824 -0.1977  0.0822  0.1070
    1SOL    HW2  666   0.914   3.234   0.733  0.5515  0.5678  0.0916
    1SOL    HW3  667   0.839   3.194   0.859  0.1444 -0.5438 -0.4955
    1SOL    MW4  668   0.892   3.249   0.816 -0.0538  0.0637  0.0255
    1SOL     OW  669   1.830   3.490   0.394  0.1006  0.0518 -0.4448
    1SOL    HW2  670   1.891   3.563   0.384 -0.0224  0.2442  0.1704
    1SOL    HW3  671   1.745   3.532   0.404  0.1961 -0.1202  1.2084
    1SOL    MW4  672   1.827   3.505   0.394  0.0969  0.0544 -0.1455
    1SOL     OW  673   2.955   3.887   0.844 -0.2074 -0.7177 -0.1762
    1SOL    HW2  674   2.882   3.943   0.819  0.2012 -0.2921 -0.4235
    1SOL    HW3  675   2.949   3.880   0.940 -0.1812 -0.1442 -0.1333
    1SOL    MW4  676   2.945   3.893   0.854 -0.1502 -0.5858 -0.2031
    1SOL     OW  677   1.010   0.909   0.517  0.9160 -0.6313  0.2124
    1SOL    HW2  678   0.920   0.883   0.498  1.1123 -0.2242 -1.2799
    1SOL    HW3  679   1.061   0.828   0.513  0.7729 -0.7191  0.1781
    1SOL    MW4  680   1.005   0.895   0.514  0.9232 -0.5891  0.0110
    1SOL     OW  681   1.587   3.641   0.748 -0.1079  0.6031 -0.3602
    1SOL    HW2  682   1.667   3.595   0.775 -2.0497 -2.3876  0.5919
    1SOL    HW3  683   1.596   3.649   0.653  0.9033 -0.5888 -0.3968
    1SOL    MW4  684   1.599   3.636   0.739 -0.2307  0.0513 -0.2394
    1SOL     OW  685   2.587   0.197   0.462 -0.2993 -0.1311  0.0579
    1SOL    HW2  686   2.620   0.158   0.543 -1.0906  0.8238  0.8565
    1SOL    HW3  687   2.642   0.273   0.447 -0.4387 -0.0528 -0.0600
    1SOL    MW4  688   2.598   0.202   0.471 -0.4220  0.0053  0.1478
    1SOL     OW  689   0.228   0.491   0.485  0.4322 -0.6418  0.0574
    1SOL    HW2  690   0.161   0.426   0.507  1.2050 -1.1429  0.9629
    1SOL    HW3  691   0.306   0.439   0.466  1.1844  0.0245  1.2309
    1SOL    MW4  692   0.230   0.476   0.485  0.6334 -0.6200  0.3317
    1SOL     OW  693   4.023   4.618   0.460 -0.3362  0.2764  0.1357
    1SOL    HW2  694   4.106   4.660   0.437  0.0315  0.2496  1.3304
    1SOL    HW3  695   4.049   4.535   0.502 -1.0173 -0.5125 -0.9754
    1SOL    MW4  696   4.038   4.612   0.463 -0.3781  0.1688  0.1467
    1SOL     OW  697   2.406   2.289   0.805 -0.1031 -0.0182  0.3439
    1SOL    HW2  698   2.450   2.297   0.721  0.1639  1.2394  0.5867
    1SOL    HW3  699   2.321   2.333   0.792 -0.6344 -1.0305  0.3373
    1SOL    MW4  700   2.400   2.296   0.792 -0.1378  0.0143  0.3750
    1SOL     OW  701   4.430   3.701   0.460 -0.3515 -0.1408 -0.3046
    1SOL    HW2  702   4.394   3.677   0.546 -1.6884 -1.6719 -1.2595
    1SOL    HW3  703   4.522   3.673   0.465 -0.6760 -1.1467  0.2918
    1SOL    MW4  704   4.437   3.694   0.472 -0.5713 -0.4756 -0.3519
    1SOL     OW  705   3.115   1.957   0.816 -0.5112  0.3813 -0.1879
    1SOL    HW2  706   3.102   1.987   0.906 -0.7350  2.1040 -0.7654
    1SOL    HW3  707   3.201   1.993   0.791 -0.6061  0.2130 -0.7755
    1SOL    MW4  708   3.125   1.966   0.824 -0.5534  0.5864 -0.3416
    1SOL     OW  709   2.766   3.542   0.492  0.2365  0.1912  0.3175
    1SOL    HW2  710   2.804   3.558   0.579 -0.7352  0.2960  0.7300
    1SOL    HW3  711   2.831   3.576   0.431  1.4819 -0.9829  0.9591
    1SOL    MW4  712   2.779   3.548   0.496  0.2728  0.0501  0.4566
    1SOL     OW  713   1.587   4.115   0.173  0.1424  0.3763 -0.1765
    1SOL    HW2  714   1.504   4.161   0.184 -0.6553 -1.2225  0.7872
    1SOL    HW3  715   1.576   4.063   0.094  0.1263 -0.0026  0.0700
    1SOL    MW4  716   1.575   4.114   0.164  0.0349  0.1154 -0.0168
    1SOL     OW  717   3.160   2.730   0.844 -0.4870 -0.5081 -0.0130
    1SOL    HW2  718   3.159   2.652   0.790  0.4267 -0.9015  0.5294
    1SOL    HW3  719   3.234   2.781   0.811 -0.2640 -0.4949  0.4990
    1SOL    MW4  720   3.170   2.727   0.832 -0.3371 -0.5581  0.1261
    1SOL     OW  721   2.675   0.368   0.876 -0.3151  0.3870  0.3613
    1SOL    HW2  722   2.687   0.379   0.970  1.5109 -0.0392  0.2044
    1SOL    HW3  723   2.734   0.432   0.836 -0.9963  0.4963 -0.5001
    1SOL    MW4  724   2.684   0.378   0.883 -0.1643  0.3452  0.2269
    1SOL     OW  725   3.142   2.477   0.735 -0.2422  0.4811  0.2297
    1SOL    HW2  726   3.212   2.428   0.778 -1.0198 -0.2084  0.7236
    1SOL    HW3  727   3.062   2.447   0.778 -0.8562  1.1576 -0.4295
    1SOL    MW4  728   3.141   2.466   0.746 -0.4256  0.4795  0.2080
    1SOL     OW  729   1.436   2.212   0.395  0.0704 -0.4303  0.1225
    1SOL    HW2  730   1.341   2.197   0.394 -0.0025 -0.0342  0.6518
    1SOL    HW3  731   1.473   2.128   0.419 -0.2157 -0.2996  1.0449
    1SOL    MW4  732   1.428   2.199   0.398  0.0231 -0.3607  0.3140
    1SOL     OW  733   0.640   3.656   0.504 -0.1785  0.0135 -0.2446
    1SOL    HW2  734   0.560   3.707   0.493  0.1812  0.5011 -0.6115
    1SOL    HW3  735   0.706   3.703   0.453  0.4337 -0.1688  0.3638
    1SOL    MW4  736   0.638   3.669   0.496 -0.0503  0.0536 -0.2127
    1SOL     OW  737   1.818   2.619   0.705  0.1540  0.3066 -0.3674
    1SOL    HW2  738   1.756   2.679   0.747  0.3552 -0.7083  1.4570
    1SOL    HW3  739   1.775   2.592   0.625  0.5190  3.7005 -1.7881
    1SOL    MW4  740   1.804   2.623   0.700  0.2286  0.6204 -0.3142
    1SOL     OW  741   2.490   3.623   0.728 -0.1663 -0.0981 -0.0556
    1SOL    HW2  742   2.523   3.601   0.640  0.9442  0.5079  0.1877
    1SOL    HW3  743   2.551   3.579   0.788 -0.3474  0.2767  0.4061
    1SOL    MW4  744   2.503   3.615   0.724 -0.0439  0.0310  0.0374
    1SOL     OW  745   2.678   3.230   0.740 -0.3249  0.1378 -0.0258
    1SOL    HW2  746   2.695   3.235   0.646  1.5188  1.3400  0.3330
    1SOL    HW3  747   2.702   3.317   0.773  0.0718 -0.6067  1.7048
    1SOL    MW4  748   2.683   3.242   0.732 -0.0293  0.1981  0.2499
    1SOL     OW  749   2.729   4.281   0.846 -0.0412 -0.4965 -0.3989
    1SOL    HW2  750   2.718   4.291   0.941  1.3252  1.1577 -0.3917
    1SOL    HW3  751   2.660   4.336   0.808 -0.4024 -0.9310 -0.3898
    1SOL    MW4  752   2.718   4.289   0.854  0.0913 -0.3352 -0.3967
    1SOL     OW  753   0.403   3.806   0.400 -0.3227  0.5308 -0.4021
    1SOL    HW2  754   0.478   3.819   0.342  1.5627 -1.0393  1.6408
    1SOL    HW3  755   0.377   3.895   0.425 -0.4194  1.1713 -2.6804
    1SOL    MW4  756   0.410   3.820   0.396 -0.0867  0.4084 -0.4332
    1SOL     OW  757   1.594   4.421   0.709 -0.3324  0.4786 -0.5776
    1SOL    HW2  758   1.591   4.427   0.614  0.6459 -1.2074 -0.7191
    1SOL    HW3  759   1.677   4.377   0.729 -1.2283 -0.5550  0.9834
    1SOL    MW4  760   1.605   4.416   0.699 -0.3216  0.1197 -0.3902
    1SOL     OW  761   0.729   1.606   0.343  0.3427  0.1230 -0.7824
    1SOL    HW2  762   0.816   1.618   0.381 -0.2822  0.7566  0.4851
    1SOL    HW3  763   0.722   1.673   0.275  0.9510 -0.1204 -1.0863
    1SOL    MW4  764   0.740   1.616   0.339  0.3405  0.1744 -0.6553
    1SOL     OW  765   2.133   2.773   0.453  0.1588  0.0543  0.4783
    1SOL    HW2  766   2.106   2.802   0.540 -1.5852 -0.3017  0.0587
    1SOL    HW3  767   2.115   2.679   0.451 -1.2784  0.3368 -0.7964
    1SOL    MW4  768   2.127   2.764   0.464 -0.2608  0.0448  0.2548
    1SOL     OW  769   0.822   2.928   0.513 -0.3223  0.5378 -0.1882
    1SOL    HW2  770   0.752   2.941   0.450  0.2613 -0.1307 -0.9932
    1SOL    HW3  771   0.859   3.015   0.527  0.2990  0.5236 -1.6662
    1SOL    MW4  772   0.818   2.941   0.507 -0.1633  0.4478 -0.4894
    1SOL     OW  773   1.856   2.762   0.397  0.2719  0.1947 -0.1591
    1SOL    HW2  774   1.951   2.775   0.401  0.1348  1.4386 -0.8507
    1SOL    HW3  775   1.823   2.808   0.474  0.2244 -0.2481  0.0867
    1SOL    MW4  776   1.864   2.770   0.408  0.2475  0.3002 -0.2179
    1SOL     OW  777   3.624   3.146   0.474 -0.0868 -0.0570  0.3659
    1SOL    HW2  778   3.623   3.237   0.445  0.6861  0.3865  1.7268
    1SOL    HW3  779   3.534   3.116   0.462 -0.1878  0.6512 -0.7678
    1SOL    MW4  780   3.612   3.154   0.468  0.0019  0.0954  0.3959
    1SOL     OW  781   1.180   4.502   0.486 -0.0246  0.1573  0.1758
    1SOL    HW2  782   1.140   4.441   0.423  0.1194  0.9847 -0.7349
    1SOL    HW3  783   1.250   4.544   0.437  1.4395 -0.6609  1.5162
    1SOL    MW4  784   1.184   4.499   0.471  0.1875  0.1588  0.2325
    1SOL     OW  785   0.721   2.770   0.228 -0.5445  0.2025 -0.0360
    1SOL    HW2  786   0.812   2.762   0.256 -1.4162  0.0188  2.9065
    1SOL    HW3  787   0.694   2.856   0.261 -1.0232  0.9082 -2.2096
    1SOL    MW4  788   0.730   2.781   0.236 -0.7226  0.2713  0.0655
    1SOL     OW  789   4.184   0.180   0.735  0.2762  0.1618 -0.0383
    1SOL    HW2  790   4.095   0.157   0.707  0.3972 -1.1615  0.6508
    1SOL    HW3  791   4.173   0.260   0.787 -0.4893  0.0921 -0.0830
    1SOL    MW4  792   4.170   0.187   0.738  0.1912 -0.0220  0.0467
    1SOL     OW  793   0.706   0.506   0.483 -0.0555  0.1964  0.0771
    1SOL    HW2  794   0.665   0.580   0.439 -2.0093 -0.6583  0.4014
    1SOL    HW3  795   0.703   0.528   0.576 -0.4660 -0.1812  0.1592
    1SOL    MW4  796   0.700   0.519   0.489 -0.3674  0.0338  0.1307
    1SOL     OW  797   1.875   0.530   0.499 -0.1143  0.0218 -0.3586
    1SOL    HW2  798   1.925   0.485   0.431  0.5790 -0.6769  0.6010
    1SOL    HW3  799   1.921   0.508   0.580 -1.6115 -0.0951  0.4607
    1SOL    MW4  800   1.888   0.521   0.501 -0.2204 -0.0858 -0.1239
    1SOL     OW  801   0.594   0.734   0.302 -0.0964  0.4896  0.3672
    1SOL    HW2  802   0.500   0.740   0.321  0.2700  0.4586  2.2757
    1SOL    HW3  803   0.598   0.712   0.209 -1.9511  2.1752 -0.1448
    1SOL    MW4  804   0.582   0.732   0.292 -0.2928  0.7079  0.5514
    1SOL     OW  805   2.232   0.361   0.830 -0.2294 -0.1170  0.0201
    1SOL    HW2  806   2.229   0.278   0.782 -1.1245 -0.4197  0.5984
    1SOL    HW3  807   2.155   0.409   0.802 -0.1876  0.1533  0.3574
    1SOL    MW4  808   2.222   0.356   0.820 -0.3421 -0.1213  0.1409
    1SOL     OW  809   3.373   4.418   0.753  0.3127  0.1958 -0.0849
    1SOL    HW2  810   3.353   4.511   0.769  1.4718  0.7074 -1.5505
    1SOL    HW3  811   3.300   4.371   0.792 -0.8379  1.7813 -0.2921
    1SOL    MW4  812   3.361   4.424   0.761  0.3140  0.4721 -0.3056
    1SOL     OW  813   3.579   4.269   0.860  0.1596 -0.3206 -0.4242
    1SOL    HW2  814   3.504   4.311   0.818  0.3903  0.3885 -0.1475
    1SOL    HW3  815   3.585   4.183   0.819  0.0015  0.1200 -1.3910
    1SOL    MW4  816   3.570   4.263   0.849  0.1693 -0.1688 -0.5153
    1SOL     OW  817   0.680   4.193   0.295  0.5956 -0.0808  0.2864
    1SOL    HW2  818   0.649   4.259   0.357 -0.6378 -0.3118 -0.0684
    1SOL    HW3  819   0.732   4.242   0.231  0.3803  0.4189  0.4912
    1SOL    MW4  820   0.683   4.208   0.295  0.4045 -0.0453  0.2666
    1SOL     OW  821   2.551   2.326   0.567 -0.3307 -0.4680 -0.3549
    1SOL    HW2  822   2.517   2.400   0.516 -0.8552 -0.1817  0.4051
    1SOL    HW3  823   2.643   2.348   0.583 -0.2435 -0.4167 -0.9180
    1SOL    MW4  824   2.559   2.339   0.562 -0.3886 -0.4234 -0.3289
    1SOL     OW  825   3.378   0.504   0.766  0.1602 -0.3861 -0.1075
    1SOL    HW2  826   3.387   0.480   0.673  0.0467  0.2356 -0.2785
    1SOL    HW3  827   3.440   0.447   0.811  0.4122 -0.5002 -0.5932
    1SOL    MW4  828   3.387   0.493   0.760  0.1781 -0.3192 -0.1942
    1SOL     OW  829   0.807   2.572   0.558 -0.0643  0.4029  0.0728
    1SOL    HW2  830   0.721   2.592   0.522  0.3357  0.0247 -1.1333
    1SOL    HW3  831   0.869   2.609   0.494  0.6688 -1.9716 -0.6560
    1SOL    MW4  832   0.804   2.580   0.545  0.0852  0.0398 -0.1824
    1SOL     OW  833   4.453   4.642   0.411 -0.0399  0.1958  0.3665
    1SOL    HW2  834   4.391   4.712   0.427 -2.1315 -1.2351 -1.2756
    1SOL    HW3  835   4.440   4.581   0.485 -0.2135  0.1574  0.3047
    1SOL    MW4  836   4.443   4.643   0.423 -0.3390  0.0019  0.1417
    1SOL     OW  837   0.332   0.775   0.400  0.1180 -0.1003  0.0283
    1SOL    HW2  838   0.249   0.814   0.372  0.2216  0.5839  0.6643
    1SOL    HW3  839   0.306   0.699   0.452 -0.0934 -0.3301 -0.4031
    1SOL    MW4  840   0.317   0.770   0.403  0.1038 -0.0404  0.0553
    1SOL     OW  841   2.069   3.628   0.704 -0.3291 -0.1887 -0.3917
    1SOL    HW2  842   2.139   3.599   0.763  0.3206  0.5381 -0.7981
    1SOL    HW3  843   1.992   3.581   0.735  0.0706 -0.0895  0.8259
    1SOL    MW4  844   2.068   3.618   0.716 -0.1905 -0.0799 -0.2847
    1SOL     OW  845   4.096   0.400   0.892 -0.3578 -0.3213  0.0908
    1SOL    HW2  846   4.148   0.478   0.873 -0.0744 -0.3916  0.5621
    1SOL    HW3  847   4.008   0.421   0.861 -0.3388  0.2785  0.4379
    1SOL    MW4  848   4.091   0.413   0.886 -0.3176 -0.2514  0.1988
    1SOL     OW  849   2.867   1.920   0.385 -0.0804  0.5225  0.0674
    1SOL    HW2  850   2.872   1.962   0.471 -0.5547  0.3622  0.1751
    1SOL    HW3  851   2.808   1.846   0.398 -0.1056  0.4633 -0.3826
    1SOL    MW4  852   2.860   1.916   0.398 -0.1462  0.4935  0.0222
    1SOL     OW  853   1.138   3.225   0.379 -0.0918 -0.2253 -0.1862
    1SOL    HW2  854   1.133   3.277   0.298  0.9073  0.8811  0.4521
    1SOL    HW3  855   1.227   3.237   0.410 -0.5911 -0.3099  1.3132
    1SOL    MW4  856   1.149   3.234   0.372 -0.0257 -0.0904  0.0958
    1SOL     OW  857   1.121   2.528   0.545 -0.0169  0.8258 -0.0859
    1SOL    HW2  858   1.129   2.622   0.525  0.0467  0.6986 -0.6821
    1SOL    HW3  859   1.054   2.496   0.484  0.2531  0.4043 -0.1660
    1SOL    MW4  860   1.114   2.536   0.534  0.0271  0.7534 -0.1751
    1SOL     OW  861   1.750   4.322   0.276 -0.0761 -0.1629 -0.3575
    1SOL    HW2  862   1.680   4.369   0.322  0.1559  0.8212 -0.9829
    1SOL    HW3  863   1.706   4.250   0.232 -0.4000 -0.7115  0.8531
    1SOL    MW4  864   1.735   4.319   0.276 -0.0882 -0.1049 -0.2803
    1SOL     OW  865   3.269   1.164   0.468  0.1500 -0.2356 -0.3330
    1SOL    HW2  866   3.308   1.203   0.546  1.4567  0.6580 -1.4206
    1SOL    HW3  867   3.259   1.237   0.407  0.9756 -1.2767 -1.7392
    1SOL    MW4  868   3.273   1.179   0.470  0.4315 -0.2551 -0.6620
    1SOL     OW  869   0.742   2.368   0.841 -0.0823  0.6856 -0.0755
    1SOL    HW2  870   0.726   2.352   0.934  0.5035 -0.3948 -0.1550
    1SOL    HW3  871   0.657   2.397   0.807 -1.2081 -2.2895  0.0867
    1SOL    MW4  872   0.728   2.370   0.849 -0.1535  0.1504 -0.0646
    1SOL     OW  873   0.194   3.623   0.448  0.3059 -0.3234  0.0109
    1SOL    HW2  874   0.258   3.685   0.413 -0.6517  1.0573  0.6659
    1SOL    HW3  875   0.216   3.615   0.540 -0.0076 -0.4194  0.0771
    1SOL    MW4  876   0.205   3.630   0.455  0.1382 -0.1538  0.1061
    1SOL     OW  877   3.371   2.864   0.730  0.1932  0.2814  0.0462
    1SOL    HW2  878   3.381   2.956   0.756 -0.1863  0.4109 -0.2561
    1SOL    HW3  879   3.445   2.820   0.770  0.1535  0.6489  0.5325
    1SOL    MW4  880   3.382   2.871   0.739  0.1378  0.3471  0.0705
    1SOL     OW  881   0.496   2.714   0.849 -0.1448  0.1184 -0.2497
    1SOL    HW2  882   0.578   2.748   0.814  0.4701  0.7227  1.7140
    1SOL    HW3  883   0.489   2.626   0.811  1.8663 -0.2900  0.2305
    1SOL    MW4  884   0.506   2.707   0.840  0.2016  0.1442  0.0728
    1SOL     OW  885   3.211   0.372   0.233  0.2634  0.2620  0.0602
    1SOL    HW2  886   3.200   0.459   0.271 -0.0683 -0.3024  1.2905
    1SOL    HW3  887   3.122   0.341   0.216  0.3776  0.1534 -0.3567
    1SOL    MW4  888   3.198   0.379   0.236  0.2348  0.1732  0.1675
    1SOL     OW  889   2.302   4.007   0.765  0.7904 -0.3232 -0.0059
    1SOL    HW2  890   2.325   3.988   0.674 -1.6043  0.7620 -0.8682
    1SOL    HW3  891   2.218   3.964   0.778 -0.3931  2.1412  0.7209
    1SOL    MW4  892   2.294   3.999   0.755  0.3181  0.1450 -0.0238
    1SOL     OW  893   1.402   4.038   0.771  0.1108 -0.1247 -0.1171
    1SOL    HW2  894   1.311   4.015   0.790  0.4247 -0.8259  0.5350
    1SOL    HW3  895   1.408   4.131   0.792 -0.2908 -0.2229  0.4381
    1SOL    MW4  896   1.391   4.047   0.776  0.0992 -0.2303  0.0421
    1SOL     OW  897   3.540   0.744   0.521 -0.6177 -0.3187 -0.4220
    1SOL    HW2  898   3.484   0.808   0.479 -0.5182 -0.6632 -1.0922
    1SOL    HW3  899   3.489   0.663   0.521 -0.5355 -0.3726 -0.0700
    1SOL    MW4  900   3.526   0.742   0.516 -0.5939 -0.3713 -0.4640
    1SOL     OW  901   4.475   1.976   0.832 -0.0591  0.3023 -0.3486
    1SOL    HW2  902   4.555   2.020   0.802 -0.0199  0.3670 -0.1463
    1SOL    HW3  903   4.462   1.905   0.768 -0.5807  1.1070 -1.1430
    1SOL    MW4  904   4.484   1.972   0.820 -0.1230  0.4169 -0.4267
    1SOL     OW  905   4.417   1.081   0.858  0.2503  0.7523  0.0531
    1SOL    HW2  906   4.438   1.102   0.949 -0.0458 -0.4390  0.4064
    1SOL    HW3  907   4.372   0.997   0.863  2.0084 -0.3006 -1.3627
    1SOL    MW4  908   4.414   1.073   0.871  0.4435  0.4563 -0.0871
    1SOL     OW  909   3.179   3.207   0.527  0.1387 -0.2330  0.2064
    1SOL    HW2  910   3.246   3.157   0.481 -0.0483  1.0111 -1.4551
    1SOL    HW3  911   3.096   3.181   0.485 -0.0606  0.6905  0.0196
    1SOL    MW4  912   3.177   3.197   0.515  0.0875  0.0527 -0.0376
    1SOL     OW  913   1.598   2.656   0.212  0.2870 -0.3080 -0.6603
    1SOL    HW2  914   1.602   2.561   0.211  0.1175 -0.3177 -0.5032
    1SOL    HW3  915   1.690   2.684   0.221  0.1635 -0.4951  1.3378
    1SOL    MW4  916   1.611   2.647   0.213  0.2482 -0.3343 -0.3759
    1SOL     OW  917   3.165   1.130   0.808  0.1000 -0.3188  0.1128
    1SOL    HW2  918   3.240   1.184   0.784 -0.9016  0.4224 -1.4614
    1SOL    HW3  919   3.166   1.129   0.904  2.3816 -0.7393  0.1231
    1SOL    MW4  920   3.175   1.137   0.818  0.2687 -0.2763 -0.0935
    1SOL     OW  921   3.207   3.484   0.438 -0.1888 -0.1875 -0.6330
    1SOL    HW2  922   3.289   3.529   0.460 -1.1549  1.1113  0.3580
    1SOL    HW3  923   3.218   3.397   0.475  0.1746  0.4373  0.7607
    1SOL    MW4  924   3.220   3.479   0.445 -0.2682  0.0665 -0.3183
    1SOL     OW  925   1.359   0.969   0.685 -0.1620  0.3849 -0.0250
    1SOL    HW2  926   1.366   1.057   0.721  0.1226  0.0064  0.8656
    1SOL    HW3  927   1.304   0.922   0.748 -0.5707  0.0121 -0.6572
    1SOL    MW4  928   1.353   0.974   0.698 -0.1785  0.2857  0.0090
    1SOL     OW  929   3.768   0.566   0.514  0.1301  0.1595 -0.3088
    1SOL    HW2  930   3.703   0.635   0.499  0.0533  0.3077  0.6797
    1SOL    HW3  931   3.852   0.610   0.499  0.0431  0.1783 -0.7673
    1SOL    MW4  932   3.771   0.581   0.510  0.1085  0.1815 -0.2388
    1SOL     OW  933   4.014   2.476   0.751  0.4253  0.0447  0.0398
    1SOL    HW2  934   4.098   2.443   0.783  0.4737  0.1026 -0.0282
    1SOL    HW3  935   3.949   2.419   0.793  0.5678 -1.0260 -1.1574
    1SOL    MW4  936   4.016   2.464   0.761  0.4501 -0.0889 -0.1271
    1SOL     OW  937   1.778   1.546   0.420  0.2521 -0.0532  0.1174
    1SOL    HW2  938   1.754   1.562   0.328 -0.1938 -0.3890  0.1783
    1SOL    HW3  939   1.783   1.634   0.458 -2.7376 -0.0259  0.5813
    1SOL    MW4  940   1.776   1.560   0.413 -0.2013 -0.0939  0.1867
    1SOL     OW  941   1.162   0.667   0.522  0.5423  0.1129  0.2685
    1SOL    HW2  942   1.185   0.655   0.614 -0.6246 -0.7531  0.4592
    1SOL    HW3  943   1.240   0.704   0.482  1.9024 -1.8248  1.0977
    1SOL    MW4  944   1.175   0.670   0.529  0.5679 -0.2570  0.4030
    1SOL     OW  945   1.613   0.206   0.381  0.2183 -0.3964  0.1910
    1SOL    HW2  946   1.652   0.214   0.293  0.1712 -0.4331  0.1672
    1SOL    HW3  947   1.688   0.195   0.439  0.1851 -1.4777  0.0348
    1SOL    MW4  948   1.628   0.206   0.377  0.2078 -0.5439  0.1673
    1SOL     OW  949   4.024   0.946   0.764  0.2197 -0.4949 -0.4193
    1SOL    HW2  950   4.027   1.042   0.770 -1.4073 -0.5247  1.2686
    1SOL    HW3  951   4.103   0.917   0.810 -0.9360 -0.0153  1.9666
    1SOL    MW4  952   4.035   0.955   0.771 -0.1473 -0.4356  0.1182
    1SOL     OW  953   0.575   1.384   0.439  0.2197  0.3852  0.4172
    1SOL    HW2  954   0.634   1.316   0.405  0.8333  0.9235  0.4045
    1SOL    HW3  955   0.629   1.462   0.446 -0.0925  0.4794  1.9057
    1SOL    MW4  956   0.590   1.385   0.435  0.2595  0.4686  0.6119
    1SOL     OW  957   0.752   3.383   0.447  0.1891 -0.3126  0.4403
    1SOL    HW2  958   0.824   3.413   0.392  0.7211 -0.7813  0.8759
    1SOL    HW3  959   0.729   3.459   0.500  0.1846 -0.0812  0.1006
    1SOL    MW4  960   0.759   3.397   0.447  0.2587 -0.3440  0.4529
    1SOL     OW  961   1.672   3.116   0.351  0.0092  0.1445  0.2474
    1SOL    HW2  962   1.761   3.148   0.367  0.2575 -0.4293  0.0130
    1SOL    HW3  963   1.659   3.046   0.414  0.4448 -1.1008 -1.0093
    1SOL    MW4  964   1.682   3.111   0.361  0.0994 -0.0954  0.0507
    1SOL     OW  965   1.189   1.861   0.448  0.2635 -0.1281 -0.1201
    1SOL    HW2  966   1.133   1.783   0.454 -0.2881  0.3366  1.0821
    1SOL    HW3  967   1.273   1.828   0.418  0.1708 -1.2787  0.8165
    1SOL    MW4  968   1.193   1.846   0.445  0.1785 -0.2186  0.1621
    1SOL     OW  969   3.184   0.614   0.387 -0.4017 -0.0031  0.4812
    1SOL    HW2  970   3.203   0.708   0.393 -0.0642  0.0266 -0.8308
    1SOL    HW3  971   3.097   0.605   0.426 -0.1555  0.7505  1.2276
    1SOL    MW4  972   3.175   0.625   0.393 -0.3250  0.1003  0.4066
    1SOL     OW  973   1.632   2.381   0.232  0.0121 -0.0234  0.3869
    1SOL    HW2  974   1.566   2.323   0.270 -0.4623 -0.3319 -0.8967
    1SOL    HW3  975   1.678   2.417   0.308 -0.9238 -0.6263  1.2583
    1SOL    MW4  976   1.630   2.378   0.247 -0.1739 -0.1438  0.3325
    1SOL     OW  977   4.247   2.333   0.449  0.0752  0.3823 -0.3346
    1SOL    HW2  978   4.211   2.244   0.443  1.0459 -0.0648  0.3441
    1SOL    HW3  979   4.171   2.390   0.439 -0.7684 -0.5390  0.6920
    1SOL    MW4  980   4.233   2.329   0.447  0.0925  0.2017 -0.1096
    1SOL     OW  981   3.800   2.872   0.488 -0.1879  0.0226 -0.0692
    1SOL    HW2  982   3.881   2.832   0.457  0.1179  0.7406 -0.2124
    1SOL    HW3  983   3.786   2.947   0.429 -1.4621 -0.6542 -0.6332
    1SOL    MW4  984   3.809   2.877   0.476 -0.3157  0.0279 -0.1625
    1SOL     OW  985   1.348   2.690   0.898  0.1050 -0.0746 -0.3138
    1SOL    HW2  986   1.357   2.728   0.986 -0.4771  1.2381 -0.8083
    1SOL    HW3  987   1.270   2.732   0.861 -2.6357 -4.2683  0.3634
    1SOL    MW4  988   1.339   2.701   0.905 -0.3334 -0.4544 -0.2897
    1SOL     OW  989   3.602   0.123   0.435  0.1950 -0.2411  0.0566
    1SOL    HW2  990   3.524   0.164   0.399  0.5059  1.5291  1.3509
    1SOL    HW3  991   3.581   0.109   0.528  1.2978 -0.0353  0.3437
    1SOL    MW4  992   3.589   0.126   0.443  0.3815  0.0196  0.2652
    1SOL     OW  993   4.061   3.533   0.785  0.5160 -0.1980  0.2977
    1SOL    HW2  994   4.042   3.447   0.747  0.8732 -0.9092  1.6940
    1SOL    HW3  995   4.065   3.517   0.879  1.5557  1.1740  0.5010
    1SOL    MW4  996   4.059   3.519   0.792  0.7005 -0.1109  0.5087
    1SOL     OW  997   0.499   0.446   0.862  0.3752 -0.2083 -0.1643
    1SOL    HW2  998   0.421   0.490   0.827  0.0767 -0.1378  0.5823
    1SOL    HW3  999   0.505   0.364   0.813 -0.8181 -0.7363  0.5506
    1SOL    MW4 1000   0.490   0.441   0.851  0.1784 -0.2687  0.0286
    1SOL     OW 1001   2.139   4.439   0.502 -0.0975  0.3317 -0.5802
    1SOL    HW2 1002   2.099   4.370   0.450  0.7384 -0.9336  0.4054
    1SOL    HW3 1003   2.231   4.413   0.508 -0.0934  0.6715  1.1394
    1SOL    MW4 1004   2.146   4.426   0.496  0.0131  0.2093 -0.2233
    1SOL     OW 1005   0.008   0.443   0.829 -0.2304 -0.1966 -0.5313
    1SOL    HW2 1006   0.102   0.462   0.820 -0.2693  1.3099  1.9391
    1SOL    HW3 1007  -0.003   0.417   0.920 -2.0844 -1.3781 -1.0581
    1SOL    MW4 1008   0.019   0.442   0.840 -0.4801 -0.1537 -0.2748
    1SOL     OW 1009   2.071   1.815   0.354 -0.4278  0.4264  0.4276
    1SOL    HW2 1010   2.126   1.893   0.358 -0.7246  0.6114  0.9412
    1SOL    HW3 1011   2.130   1.743   0.375  0.5205  0.1544 -2.7708
    1SOL    MW4 1012   2.086   1.816   0.357 -0.3417  0.4150  0.0733
    1SOL     OW 1013   0.301   0.810   0.770 -0.2308 -0.0153  0.3371
    1SOL    HW2 1014   0.294   0.832   0.863 -2.4222  0.0776  0.1630
    1SOL    HW3 1015   0.239   0.868   0.726  0.1840 -0.6306 -1.1087
    1SOL    MW4 1016   0.292   0.820   0.776 -0.4652 -0.0843  0.1234
    1SOL     OW 1017   0.073   0.905   0.284  0.3338 -0.1997 -0.3697
    1SOL    HW2 1018   0.017   0.897   0.206  1.8088  1.0968 -1.6000
    1SOL    HW3 1019   0.071   0.999   0.305 -0.3720 -0.5877  1.4379
    1SOL    MW4 1020   0.065   0.917   0.276  0.4353 -0.0799 -0.2935
    1SOL     OW 1021   0.079   1.539   0.595 -0.1872 -0.0135 -0.3428
    1SOL    HW2 1022   0.013   1.481   0.557 -0.6521  0.8053 -0.8054
    1SOL    HW3 1023   0.129   1.570   0.520 -0.2692  0.5818 -0.1513
    1SOL    MW4 1024   0.077   1.535   0.580 -0.2594  0.1731 -0.3786
    1SOL     OW 1025   0.103   1.025   0.652  0.1772 -0.5543  0.2187
    1SOL    HW2 1026   0.054   1.048   0.731 -0.1714  0.6587 -0.3371
    1SOL    HW3 1027   0.176   1.087   0.651  0.2492 -0.6508 -0.3458
    1SOL    MW4 1028   0.106   1.036   0.663  0.1407 -0.4071  0.0709
    1SOL     OW 1029   0.271   1.514   0.787 -0.1753  0.0740  0.4510
    1SOL    HW2 1030   0.195   1.519   0.730  0.0543  0.2904  0.1598
    1SOL    HW3 1031   0.319   1.595   0.770  0.0988 -0.0430  0.6583
    1SOL    MW4 1032   0.268   1.525   0.777 -0.1089  0.0871  0.4399
    1SOL     OW 1033   1.148   2.878   0.782 -0.0512  0.1911 -0.6046
    1SOL    HW2 1034   1.071   2.825   0.802 -0.1722  0.7070  0.3455
    1SOL    HW3 1035   1.178   2.847   0.696 -0.3835 -1.0934 -0.2587
    1SOL    MW4 1036   1.142   2.867   0.773 -0.1111  0.0894 -0.4336
    1SOL     OW 1037   3.995   2.488   0.468 -0.3493 -0.3306 -0.0255
    1SOL    HW2 1038   3.901   2.471   0.456 -0.4385 -1.1442  1.7718
    1SOL    HW3 1039   4.008   2.485   0.563  1.3392  0.6553 -0.2165
    1SOL    MW4 1040   3.984   2.485   0.479 -0.1380 -0.3078  0.1864
    1SOL     OW 1041   1.074   2.349   0.847  0.2333 -0.4178 -0.0677
    1SOL    HW2 1042   1.076   2.257   0.820  0.5074 -0.5961  0.5576
    1SOL    HW3 1043   1.162   2.382   0.828  0.3267 -0.4546  0.2989
    1SOL    MW4 1044   1.086   2.341   0.841  0.2818 -0.4463  0.0631
    1SOL     OW 1045   1.397   2.455   0.530  0.3419  0.1485 -0.2944
    1SOL    HW2 1046   1.419   2.374   0.484 -0.1580  0.0965 -0.4501
    1SOL    HW3 1047   1.306   2.473   0.504  0.9367  1.5597 -1.4546
    1SOL    MW4 1048   1.388   2.447   0.520  0.3543  0.3278 -0.4681
    1SOL     OW 1049   4.274   2.369   0.822  0.0905 -0.3436  0.4161
    1SOL    HW2 1050   4.266   2.278   0.795  0.4862 -0.5749  1.0675
    1SOL    HW3 1051   4.357   2.399   0.786  0.8379 -0.7874  1.7303
    1SOL    MW4 1052   4.284   2.361   0.814  0.2418 -0.4325  0.6754
    1SOL     OW 1053   4.313   1.869   0.463  0.6970 -0.0011 -0.3997
    1SOL    HW2 1054   4.386   1.912   0.420  1.9850  0.3844  2.0630
    1SOL    HW3 1055   4.348   1.840   0.548 -2.1226  0.7105  1.0877
    1SOL    MW4 1056   4.327   1.870   0.469  0.4954  0.1434  0.1214
    1SOL     OW 1057   4.023   1.714   0.737 -0.1866  0.2812 -0.3390
    1SOL    HW2 1058   3.950   1.663   0.771 -0.9507  1.6223  0.0873
    1SOL    HW3 1059   4.101   1.666   0.763 -0.8392  0.0654  1.2667
    1SOL    MW4 1060   4.024   1.701   0.745 -0.3738  0.4299 -0.0709
    1SOL     OW 1061   0.266   3.103   0.808  0.3100  0.7879 -0.0954
    1SOL    HW2 1062   0.263   3.079   0.900 -0.7475 -1.5756 -0.7148
    1SOL    HW3 1063   0.176   3.127   0.786  0.3526  0.3613 -0.7474
    1SOL    MW4 1064   0.254   3.103   0.817  0.1761  0.4199 -0.2632
    1SOL     OW 1065   1.393   0.807   0.457 -0.5166 -0.6276 -0.5386
    1SOL    HW2 1066   1.467   0.749   0.471  0.4508  0.3020 -1.6614
    1SOL    HW3 1067   1.405   0.877   0.521  0.4965  0.3760 -1.7951
    1SOL    MW4 1068   1.404   0.809   0.467 -0.2552 -0.3725 -0.8526
    1SOL     OW 1069   0.350   2.797   0.432 -0.7995  0.1889 -0.6371
    1SOL    HW2 1070   0.272   2.803   0.377 -0.1541  0.1588 -1.5728
    1SOL    HW3 1071   0.317   2.778   0.519 -1.8335  0.0392 -1.0574
    1SOL    MW4 1072   0.336   2.795   0.436 -0.8508  0.1647 -0.8160
    1SOL     OW 1073   0.025   3.211   0.746  0.0744 -0.0991  0.3277
    1SOL    HW2 1074   0.015   3.224   0.652  1.6760  0.3420  0.2001
    1SOL    HW3 1075   0.027   3.300   0.782  0.0396 -0.2522  0.7144
    1SOL    MW4 1076   0.024   3.225   0.739  0.2811 -0.0608  0.3619
    1SOL     OW 1077   0.465   3.480   0.873  0.1247  0.1958  0.5770
    1SOL    HW2 1078   0.453   3.463   0.967 -2.5961 -1.1751  0.0359
    1SOL    HW3 1079   0.488   3.394   0.836 -1.2988  0.2144 -0.3697
    1SOL    MW4 1080   0.467   3.466   0.881 -0.4221  0.0174  0.3807
    1SOL     OW 1081   0.570   2.634   0.420  0.1091  0.5382 -0.0201
    1SOL    HW2 1082   0.615   2.661   0.340  0.3686  1.0632  0.3036
    1SOL    HW3 1083   0.496   2.695   0.428 -0.3441  0.0292 -0.2479
    1SOL    MW4 1084   0.566   2.645   0.410  0.0836  0.5403 -0.0075
    1SOL     OW 1085   0.540   1.166   0.797 -0.0566 -0.2054 -0.2261
    1SOL    HW2 1086   0.548   1.074   0.771  0.2462  0.1625 -1.4274
    1SOL    HW3 1087   0.612   1.210   0.753 -0.2791  0.6441  0.2483
    1SOL    MW4 1088   0.551   1.159   0.788 -0.0460 -0.0447 -0.3220
    1SOL     OW 1089   0.484   0.225   0.708  0.3722 -0.4939  0.4931
    1SOL    HW2 1090   0.402   0.177   0.718  0.1990 -0.2172  0.4150
    1SOL    HW3 1091   0.553   0.160   0.725  0.1382 -0.7388  0.5024
    1SOL    MW4 1092   0.482   0.210   0.711  0.3185 -0.4897  0.4840
    1SOL     OW 1093   0.465   0.438   1.127  0.0572 -0.0970 -0.1294
    1SOL    HW2 1094   0.475   0.450   1.033  0.6743  3.1238  0.2883
    1SOL    HW3 1095   0.379   0.473   1.147  0.7116  1.0109  0.7833
    1SOL    MW4 1096   0.455   0.444   1.118  0.2249  0.4741  0.0461
    1SOL     OW 1097   1.942   2.035   0.739 -0.2067  0.1645  0.5404
    1SOL    HW2 1098   1.965   2.104   0.801 -0.7973  0.0653  0.8748
    1SOL    HW3 1099   1.862   1.996   0.775 -0.4083 -0.0633 -0.1435
    1SOL    MW4 1100   1.934   2.039   0.752 -0.3113  0.1216  0.4944
    1SOL     OW 1101   3.368   1.280   0.704 -0.2638 -0.4404  0.1985
    1SOL    HW2 1102   3.442   1.259   0.761  0.5423 -0.6080 -0.8952
    1SOL    HW3 1103   3.347   1.371   0.724  1.9150  0.4127 -1.3380
    1SOL    MW4 1104   3.375   1.289   0.715  0.1299 -0.3501 -0.1485
    1SOL     OW 1105   3.599   1.656   0.716 -0.2990  0.0624  0.1688
    1SOL    HW2 1106   3.524   1.604   0.745 -2.2119  1.6000 -1.8735
    1SOL    HW3 1107   3.640   1.602   0.648 -0.1285 -0.3284  0.5744
    1SOL    MW4 1108   3.594   1.642   0.711 -0.5286  0.2137 -0.0472
    1SOL     OW 1109   0.904   0.170   0.739 -0.0010  0.3899  0.1044
    1SOL    HW2 1110   0.897   0.145   0.647  1.3063 -1.2068  0.4299
    1SOL    HW3 1111   0.828   0.130   0.781  0.6721 -0.8773  0.1384
    1SOL    MW4 1112   0.893   0.161   0.733  0.2602  0.0120  0.1518
    1SOL     OW 1113   0.751   2.818   0.757  0.0643  0.0349  0.1407
    1SOL    HW2 1114   0.768   2.835   0.665 -0.3886  1.0716  0.2432
    1SOL    HW3 1115   0.726   2.903   0.793 -1.1958 -0.6469  0.9038
    1SOL    MW4 1116   0.750   2.831   0.750 -0.1617  0.0818  0.2548
    1SOL     OW 1117   2.122   0.011   0.350  0.3378 -0.0768  0.1387
    1SOL    HW2 1118   2.190   0.072   0.381  0.2612 -0.5203  1.2098
    1SOL    HW3 1119   2.137  -0.069   0.400 -1.5800  0.1378  1.1300
    1SOL    MW4 1120   2.133   0.009   0.361  0.0749 -0.1070  0.4108
    1SOL     OW 1121   0.512   3.209   0.745  0.1899 -0.1527  0.2304
    1SOL    HW2 1122   0.533   3.214   0.652  0.4071 -3.8183  0.0081
    1SOL    HW3 1123   0.419   3.186   0.748 -0.3728  2.0493  1.0089
    1SOL    MW4 1124   0.503   3.207   0.733  0.1444 -0.3457  0.3039
    1SOL     OW 1125   0.722   1.318   0.671 -0.0012 -0.2635 -0.0342
    1SOL    HW2 1126   0.661   1.332   0.599 -0.8241  0.3091  0.7568
    1SOL    HW3 1127   0.713   1.397   0.724  0.1576 -0.9467  1.0130
    1SOL    MW4 1128   0.713   1.331   0.668 -0.0888 -0.2782  0.2083
    1SOL     OW 1129   2.882   1.525   0.844 -0.0074 -0.5831 -0.4377
    1SOL    HW2 1130   2.805   1.574   0.816 -0.1764 -1.1340 -0.9196
    1SOL    HW3 1131   2.956   1.577   0.812 -0.1859 -0.6112 -0.8937
    1SOL    MW4 1132   2.882   1.538   0.836 -0.0534 -0.6596 -0.5615
    1SOL     OW 1133   4.426   1.744   0.686 -0.0249  0.1197 -0.0995
    1SOL    HW2 1134   4.367   1.694   0.741  0.9842 -1.1955 -0.1995
    1SOL    HW3 1135   4.483   1.679   0.646 -0.3780  1.1073 -2.2712
    1SOL    MW4 1136   4.426   1.729   0.688  0.0615  0.0764 -0.3992
    1SOL     OW 1137   1.410   4.022   0.480  0.2668  0.2973  0.6599
    1SOL    HW2 1138   1.398   4.033   0.575 -0.0680 -0.8296  0.7495
    1SOL    HW3 1139   1.491   3.971   0.473  0.2969  0.3944  0.3384
    1SOL    MW4 1140   1.419   4.017   0.492  0.2266  0.1616  0.6293
    1SOL     OW 1141   0.904   2.248   0.561  0.2749 -0.0027  0.1491
    1SOL    HW2 1142   0.973   2.205   0.512  0.5293 -0.4396  0.8752
    1SOL    HW3 1143   0.823   2.226   0.514  0.5845  0.1429 -0.4442
    1SOL    MW4 1144   0.902   2.239   0.548  0.3493 -0.0412  0.1667
    1SOL     OW 1145   2.834   4.596   0.229  0.3234 -0.0520  0.2523
    1SOL    HW2 1146   2.781   4.588   0.150  1.1056  0.0705 -0.2991
    1SOL    HW3 1147   2.858   4.689   0.233  0.1512 -0.0235  0.7258
    1SOL    MW4 1148   2.831   4.608   0.219  0.4039 -0.0324  0.2421
    1SOL     OW 1149   1.226   2.793   0.529 -0.1958 -0.1415 -0.3416
    1SOL    HW2 1150   1.318   2.768   0.528 -0.5370 -1.4203 -0.1983
    1SOL    HW3 1151   1.214   2.847   0.451  0.6913  0.0992 -0.3083
    1SOL    MW4 1152   1.236   2.797   0.518 -0.1239 -0.2785 -0.3182
    1SOL     OW 1153   0.119   1.774   0.199  0.1008 -0.2883 -0.0191
    1SOL    HW2 1154   0.075   1.723   0.130  0.3334 -0.9216  0.2924
    1SOL    HW3 1155   0.157   1.707   0.256  0.0481  0.2380  0.6299
    1SOL    MW4 1156   0.118   1.758   0.197  0.1245 -0.3024  0.1076
    1SOL     OW 1157   3.395   3.881   0.879 -0.0188 -0.0726  0.0931
    1SOL    HW2 1158   3.384   3.790   0.852 -0.8308  0.0653 -0.0646
    1SOL    HW3 1159   3.400   3.878   0.974 -1.6211 -0.1380  0.1824
    1SOL    MW4 1160   3.394   3.869   0.888 -0.3374 -0.0629  0.0841
    1SOL     OW 1161   3.581   2.479   0.727 -0.4043  0.0651  0.1637
    1SOL    HW2 1162   3.572   2.568   0.760  1.5746  0.1237  0.6489
    1SOL    HW3 1163   3.519   2.428   0.779 -0.4693  0.9180  0.9508
    1SOL    MW4 1164   3.572   2.484   0.738 -0.1521  0.1857  0.3316
    1SOL     OW 1165   0.026   3.472   0.859 -0.0976 -0.2319 -0.5942
    1SOL    HW2 1166   0.097   3.514   0.811  0.9938  0.5500  1.6189
    1SOL    HW3 1167  -0.054   3.513   0.825  0.7817  1.7038 -0.3912
    1SOL    MW4 1168   0.025   3.483   0.848  0.1626  0.1268 -0.2754
    1SOL     OW 1169   0.663   3.654   0.784 -0.3287  0.1699 -0.4210
    1SOL    HW2 1170   0.601   3.590   0.818  0.1950 -0.4303 -0.5858
    1SOL    HW3 1171   0.652   3.650   0.689  0.7155 -0.7218 -0.5203
    1SOL    MW4 1172   0.654   3.645   0.776 -0.1218 -0.0269 -0.4558
    1SOL     OW 1173   2.004   4.222   0.374  0.1297  0.0431 -0.2142
    1SOL    HW2 1174   1.988   4.134   0.408  1.0586  0.4758  1.3976
    1SOL    HW3 1175   1.917   4.256   0.353 -0.4091 -0.5551  0.9744
    1SOL    MW4 1176   1.990   4.215   0.376  0.1813  0.0210  0.1553
    1SOL     OW 1177   0.249   4.648   0.430 -0.7271  0.0244 -0.2006
    1SOL    HW2 1178   0.272   4.559   0.456  0.1732  0.7708  1.6007
    1SOL    HW3 1179   0.159   4.641   0.398  0.1776 -1.9674 -2.4276
    1SOL    MW4 1180   0.240   4.635   0.429 -0.4890 -0.1402 -0.2568
    1SOL     OW 1181   0.492   4.288   0.851  0.0915  0.1609  0.2862
    1SOL    HW2 1182   0.489   4.264   0.943 -0.1905 -1.4227 -0.1352
    1SOL    HW3 1183   0.418   4.349   0.840 -0.4186 -0.3439  0.8973
    1SOL    MW4 1184   0.481   4.293   0.862 -0.0130 -0.1149  0.3112
    1SOL     OW 1185   0.701   4.447   0.727  0.1768  0.3509  0.0518
    1SOL    HW2 1186   0.782   4.418   0.769  0.4750  1.7616  0.4910
    1SOL    HW3 1187   0.633   4.392   0.766  0.9552 -1.0685 -0.5567
    1SOL    MW4 1188   0.703   4.436   0.738  0.3188  0.3495  0.0295
    1SOL     OW 1189   1.854   1.890   0.187  0.2606  0.0691  0.0574
    1SOL    HW2 1190   1.931   1.873   0.241  0.9133  0.9743 -0.5774
    1SOL    HW3 1191   1.847   1.985   0.184 -0.4349  0.0018 -0.5275
    1SOL    MW4 1192   1.863   1.900   0.194  0.2548  0.1798 -0.1035
    1SOL     OW 1193   1.815   1.161   0.866  0.1705  0.1554 -0.2630
    1SOL    HW2 1194   1.740   1.205   0.826  0.8477  0.0488 -1.6840
    1SOL    HW3 1195   1.890   1.188   0.812  1.1322  0.1210  1.0231
    1SOL    MW4 1196   1.815   1.171   0.853  0.3867  0.1369 -0.2807
    1SOL     OW 1197   1.791   0.201   0.140  0.0358  0.0090  0.0281
    1SOL    HW2 1198   1.804   0.209   0.046 -0.2483 -2.1104 -0.2158
    1SOL    HW3 1199   1.810   0.109   0.160  0.9901  0.6359  2.1888
    1SOL    MW4 1200   1.795   0.190   0.130  0.1242 -0.1879  0.2810
    1SOL     OW 1201   1.216   0.801   0.885  0.7620  0.2030  0.2126
    1SOL    HW2 1202   1.203   0.774   0.976 -0.6628  0.1331  0.0026
    1SOL    HW3 1203   1.238   0.719   0.839 -1.9364 -0.4114 -0.1170
    1SOL    MW4 1204   1.217   0.786   0.891  0.2182  0.1127  0.1414
    1SOL     OW 1205   3.854   0.497   0.791  0.5688  0.0560  0.7913
    1SOL    HW2 1206   3.838   0.502   0.697 -2.0951  1.2986  1.2701
    1SOL    HW3 1207   3.845   0.587   0.822  1.1540 -0.3800  2.2916
    1SOL    MW4 1208   3.851   0.509   0.782  0.2944  0.1625  1.0524
    1SOL     OW 1209   1.709   1.117   0.382  0.1471 -0.0496 -0.2839
    1SOL    HW2 1210   1.720   1.085   0.292 -1.3022 -2.5405  0.3851
    1SOL    HW3 1211   1.753   1.051   0.436  2.6353  2.3690  0.7799
    1SOL    MW4 1212   1.717   1.104   0.377  0.2841 -0.0591 -0.0553
    1SOL     OW 1213   0.737   0.901   0.477 -0.1143 -0.4559  0.1348
    1SOL    HW2 1214   0.673   0.912   0.547  0.7069  1.2491  0.6663
    1SOL    HW3 1215   0.691   0.854   0.408 -2.1721  1.4308  0.1807
    1SOL    MW4 1216   0.723   0.897   0.477 -0.2775  0.0180  0.2110
    1SOL     OW 1217   0.749   0.831   0.850 -0.1807  0.2837  0.2056
    1SOL    HW2 1218   0.830   0.869   0.815 -0.0085 -0.2361  0.0290
    1SOL    HW3 1219   0.751   0.740   0.819 -0.5745  0.1301  0.6405
    1SOL    MW4 1220   0.760   0.824   0.841 -0.2100  0.1948  0.2397
    1SOL     OW 1221   0.662   1.538   0.828 -0.1387 -0.5364  0.6387
    1SOL    HW2 1222   0.732   1.601   0.808 -0.1638 -0.8988 -0.6541
    1SOL    HW3 1223   0.674   1.517   0.920  1.8432 -1.0599  0.2875
    1SOL    MW4 1224   0.673   1.544   0.838  0.1195 -0.6533  0.4217
    1SOL     OW 1225   3.779   2.067   0.723 -0.0049  0.3062  0.5361
    1SOL    HW2 1226   3.806   2.036   0.636 -0.1396 -1.0998  0.9794
    1SOL    HW3 1227   3.854   2.047   0.779 -0.1010  0.7844  0.8372
    1SOL    MW4 1228   3.793   2.060   0.719 -0.0355  0.1838  0.6343
    1SOL     OW 1229   1.495   2.720   0.487  0.3089  0.5059 -0.3527
    1SOL    HW2 1230   1.511   2.712   0.393 -0.4392 -0.3662 -0.4115
    1SOL    HW3 1231   1.471   2.632   0.515 -0.5197  0.9779  0.4524
    1SOL    MW4 1232   1.494   2.707   0.478  0.1009  0.4528 -0.2543
    1SOL     OW 1233   2.865   0.539   0.767  0.0702 -0.4666  0.2110
    1SOL    HW2 1234   2.888   0.625   0.803  0.0120 -0.5859  0.5327
    1SOL    HW3 1235   2.945   0.487   0.778  0.1206 -0.4402 -0.0273
    1SOL    MW4 1236   2.879   0.544   0.773  0.0691 -0.4789  0.2221
    1SOL     OW 1237   3.376   3.952   0.433 -0.2142  0.0609  0.1986
    1SOL    HW2 1238   3.400   3.860   0.418  0.8858  0.2185  0.9484
    1SOL    HW3 1239   3.458   3.999   0.428 -0.4352  0.6973  2.2198
    1SOL    MW4 1240   3.390   3.946   0.430 -0.0982  0.1655  0.5642
    1SOL     OW 1241   0.277   4.436   0.792 -0.3630 -0.0023 -0.0611
    1SOL    HW2 1242   0.250   4.517   0.835 -0.5302 -0.0234 -0.1283
    1SOL    HW3 1243   0.205   4.375   0.806  0.1530 -0.4276  0.7772
    1SOL    MW4 1244   0.264   4.438   0.799 -0.3169 -0.0610  0.0405
    1SOL     OW 1245   1.006   1.639   0.476 -0.5385  0.0237 -0.1542
    1SOL    HW2 1246   1.041   1.550   0.471 -0.8876 -0.0378 -1.9122
    1SOL    HW3 1247   0.959   1.642   0.560 -0.6545 -1.4998 -0.1533
    1SOL    MW4 1248   1.004   1.628   0.487 -0.6000 -0.1853 -0.3860
    1SOL     OW 1249   0.792   4.616   0.270 -0.0472  0.1459  0.0702
    1SOL    HW2 1250   0.849   4.666   0.329  0.9064  0.0061 -0.7071
    1SOL    HW3 1251   0.712   4.667   0.264  0.1755  0.5917  0.8046
    1SOL    MW4 1252   0.789   4.629   0.277  0.1080  0.1864  0.0646
    1SOL     OW 1253   0.196   2.329   0.379 -0.2297  0.1541  0.1268
    1SOL    HW2 1254   0.202   2.242   0.418  0.6329 -0.9687 -2.4279
    1SOL    HW3 1255   0.137   2.318   0.304 -1.9175  2.2793  1.0569
    1SOL    MW4 1256   0.189   2.316   0.374 -0.3385  0.2866 -0.0876
    1SOL     OW 1257   1.172   3.371   0.147 -0.1030  0.1403 -0.3769
    1SOL    HW2 1258   1.099   3.430   0.168  0.0286 -0.0659  0.6507
    1SOL    HW3 1259   1.162   3.355   0.053 -1.7828 -0.4364 -0.1242
    1SOL    MW4 1260   1.161   3.377   0.137 -0.3073  0.0370 -0.2080
    1SOL     OW 1261   2.530   1.242   0.466  0.2055  0.2257 -0.1739
    1SOL    HW2 1262   2.440   1.211   0.459  0.0636 -0.0318  2.2215
    1SOL    HW3 1263   2.583   1.171   0.429 -0.4079 -0.9052  1.0735
    1SOL    MW4 1264   2.525   1.229   0.460  0.1059  0.0426  0.3068
    1SOL     OW 1265   2.490   4.116   0.439  0.0262  0.2154  0.3136
    1SOL    HW2 1266   2.428   4.049   0.467  0.9264 -1.5521 -1.7737
    1SOL    HW3 1267   2.574   4.070   0.435  0.9713  1.9005  0.4443
    1SOL    MW4 1268   2.493   4.101   0.442  0.2697  0.2050  0.0555
    1SOL     OW 1269   3.378   3.623   0.784  0.0868 -0.1217  0.0385
    1SOL    HW2 1270   3.458   3.573   0.804 -0.9845 -0.9171  2.4709
    1SOL    HW3 1271   3.308   3.574   0.826 -1.4519  1.6544 -0.3903
    1SOL    MW4 1272   3.380   3.610   0.792 -0.2577  0.0076  0.3029
    1SOL     OW 1273   0.247   2.078   0.488 -0.1888  0.4408 -0.2197
    1SOL    HW2 1274   0.268   2.070   0.581 -1.2014 -0.2640 -0.0395
    1SOL    HW3 1275   0.306   2.017   0.444  1.3757  1.9033 -0.2180
    1SOL    MW4 1276   0.257   2.069   0.495 -0.1160  0.5407 -0.1957
    1SOL     OW 1277   1.138   4.441   0.753  0.0090  0.1891  0.4159
    1SOL    HW2 1278   1.146   4.455   0.659 -0.4221  0.5459  0.4302
    1SOL    HW3 1279   1.143   4.529   0.791 -1.6727  0.2165  0.5843
    1SOL    MW4 1280   1.140   4.454   0.746 -0.2698  0.2403  0.4399
    1SOL     OW 1281   1.791   2.500   0.418  0.1977 -0.1996 -0.5481
    1SOL    HW2 1282   1.819   2.590   0.402 -0.6182 -0.1789 -1.9461
    1SOL    HW3 1283   1.870   2.456   0.449  1.3002  0.3225 -2.5240
    1SOL    MW4 1284   1.805   2.506   0.420  0.2356 -0.1280 -0.9932
    1SOL     OW 1285   1.521   4.657   0.837  0.3099  0.2742 -0.0664
    1SOL    HW2 1286   1.504   4.632   0.928 -0.5800  0.3412 -0.2182
    1SOL    HW3 1287   1.568   4.582   0.800 -1.5598 -0.8013 -0.2705
    1SOL    MW4 1288   1.525   4.644   0.844 -0.0541  0.1421 -0.1134
    1SOL     OW 1289   1.130   0.031   0.858 -0.4302 -0.0914  0.3545
    1SOL    HW2 1290   1.207   0.056   0.807 -0.5767  0.9887  0.6603
    1SOL    HW3 1291   1.058   0.083   0.820 -1.0898 -1.3606 -0.1735
    1SOL    MW4 1292   1.130   0.041   0.846 -0.5364 -0.1163  0.3251
    1SOL     OW 1293   1.431   0.379   0.832  0.1286 -0.3051  0.1305
    1SOL    HW2 1294   1.411   0.392   0.925 -0.5631  0.8498 -0.1730
    1SOL    HW3 1295   1.501   0.442   0.814  1.4078 -1.6601  0.2503
    1SOL    MW4 1296   1.438   0.389   0.842  0.2061 -0.3315  0.1063
    1SOL     OW 1297   1.624   0.574   0.771  0.4804  0.4357  0.0968
    1SOL    HW2 1298   1.605   0.590   0.678  0.0685  0.0211  0.1041
    1SOL    HW3 1299   1.604   0.657   0.814 -0.2153  0.3567 -0.0633
    1SOL    MW4 1300   1.619   0.587   0.764  0.3343  0.3706  0.0767
    1SOL     OW 1301   3.085   1.755   0.490  0.1177  0.1608  0.6697
    1SOL    HW2 1302   3.041   1.825   0.441 -0.1064 -1.1831 -1.0573
    1SOL    HW3 1303   3.178   1.776   0.482  0.1897 -0.9360 -1.7413
    1SOL    MW4 1304   3.091   1.767   0.483  0.0978 -0.1613  0.1237
    1SOL     OW 1305   1.001   0.945   0.787  0.1301 -0.0906  0.1564
    1SOL    HW2 1306   1.030   0.951   0.696  0.4866  0.9092  0.3297
    1SOL    HW3 1307   1.068   0.892   0.830  1.1290  1.2840  0.3118
    1SOL    MW4 1308   1.013   0.939   0.781  0.3089  0.2226  0.1998
    1SOL     OW 1309   1.350   1.200   0.814 -0.3876  0.5962 -0.5267
    1SOL    HW2 1310   1.340   1.174   0.905  0.1097  0.8466 -0.3998
    1SOL    HW3 1311   1.279   1.262   0.798  1.2893  2.8632  0.5523
    1SOL    MW4 1312   1.339   1.205   0.824 -0.1007  0.9283 -0.3676
    1SOL     OW 1313   3.339   2.083   0.727 -0.1449  0.3720 -0.0276
    1SOL    HW2 1314   3.355   2.095   0.633 -0.5451  1.1012 -0.0052
    1SOL    HW3 1315   3.391   2.006   0.750 -0.5402 -0.1867 -0.9811
    1SOL    MW4 1316   3.348   2.075   0.718 -0.2499  0.3946 -0.1504
    1SOL     OW 1317   0.962   2.739   0.379 -0.3235 -0.2308  0.2924
    1SOL    HW2 1318   1.038   2.768   0.329  0.7076 -0.6181  1.5774
    1SOL    HW3 1319   0.936   2.816   0.430 -1.3835  0.1702 -0.8257
    1SOL    MW4 1320   0.968   2.753   0.379 -0.3273 -0.2289  0.3144
    1SOL     OW 1321   3.450   1.590   0.325 -0.5660 -0.0716 -0.1811
    1SOL    HW2 1322   3.442   1.636   0.242 -0.2692 -0.4193 -0.4027
    1SOL    HW3 1323   3.417   1.652   0.390 -2.2099 -0.3704 -0.7260
    1SOL    MW4 1324   3.445   1.605   0.323 -0.7436 -0.1568 -0.2822
    1SOL     OW 1325   1.590   1.357   0.483  0.2885 -0.7054 -0.0416
    1SOL    HW2 1326   1.623   1.274   0.448  1.0140  0.2395 -1.6874
    1SOL    HW3 1327   1.646   1.423   0.442 -0.7747  0.6411  0.6633
    1SOL    MW4 1328   1.602   1.355   0.473  0.2439 -0.4030 -0.1658
    1SOL     OW 1329   3.361   2.118   0.438 -0.1146  0.0611  0.3087
    1SOL    HW2 1330   3.453   2.133   0.415 -0.0309 -1.3955 -0.3363
    1SOL    HW3 1331   3.316   2.198   0.409  0.4745 -0.4506 -2.1290
    1SOL    MW4 1332   3.367   2.131   0.431 -0.0260 -0.1988 -0.0980
    1SOL     OW 1333   3.578   3.445   0.503  0.2387  0.3648 -0.5210
    1SOL    HW2 1334   3.573   3.421   0.596  0.5151  0.9988 -0.3376
    1SOL    HW3 1335   3.672   3.448   0.484  0.2256  1.8574 -0.3853
    1SOL    MW4 1336   3.590   3.442   0.513  0.2732  0.6454 -0.4789
    1SOL     OW 1337   1.129   3.647   0.737  0.0309 -0.0806  0.0294
    1SOL    HW2 1338   1.207   3.599   0.767 -0.2881 -0.5916  0.0520
    1SOL    HW3 1339   1.057   3.586   0.752 -0.5948  0.9705  1.4886
    1SOL    MW4 1340   1.130   3.633   0.743 -0.0938 -0.0095  0.2249
    1SOL     OW 1341   0.960   2.652   0.851  0.2975 -0.0551  0.0215
    1SOL    HW2 1342   0.947   2.670   0.944 -1.6756 -0.1237 -0.2195
    1SOL    HW3 1343   0.888   2.699   0.807  0.2835 -1.2975 -1.3360
    1SOL    MW4 1344   0.949   2.661   0.857  0.0353 -0.2282 -0.1894
    1SOL     OW 1345   1.620   2.759   0.834  0.5514 -0.3318 -0.4031
    1SOL    HW2 1346   1.614   2.853   0.845  0.8172 -0.4532  0.8203
    1SOL    HW3 1347   1.529   2.728   0.840  0.7164 -0.4283  1.8526
    1SOL    MW4 1348   1.607   2.767   0.836  0.6083 -0.3605  0.0559
    1SOL     OW 1349   3.435   4.360   0.489  0.0409  0.0146 -0.1002
    1SOL    HW2 1350   3.485   4.431   0.449  0.7071  0.3710  1.3387
    1SOL    HW3 1351   3.410   4.394   0.575 -0.8407 -0.9696  0.0357
    1SOL    MW4 1352   3.439   4.374   0.495  0.0126 -0.0687  0.1075
    1SOL     OW 1353   4.133   4.391   0.579  0.3728  0.1064  0.2058
    1SOL    HW2 1354   4.217   4.426   0.609  0.3633 -0.7539  1.3009
    1SOL    HW3 1355   4.156   4.315   0.525  0.3558  1.0742 -1.1886
    1SOL    MW4 1356   4.147   4.386   0.576  0.3691  0.1202  0.1663
    1SOL     OW 1357   1.126   3.908   0.850  0.3520 -0.1963 -0.0036
    1SOL    HW2 1358   1.111   3.828   0.799  0.0713  0.3697 -0.8178
    1SOL    HW3 1359   1.116   3.880   0.941  0.8701 -1.2239 -0.2490
    1SOL    MW4 1360   1.123   3.894   0.855  0.3835 -0.2573 -0.1434
    1SOL     OW 1361   4.061   4.287   0.822  0.2167  0.2650  0.0888
    1SOL    HW2 1362   3.978   4.330   0.802  0.2194  0.3037  0.1590
    1SOL    HW3 1363   4.118   4.309   0.748  0.5778  1.3371  0.6808
    1SOL    MW4 1364   4.058   4.295   0.810  0.2646  0.4115  0.1761
    1SOL     OW 1365   2.247   3.215   0.817 -0.0975 -0.0285 -0.5217
    1SOL    HW2 1366   2.178   3.160   0.853  0.4751 -1.0550 -0.9853
    1SOL    HW3 1367   2.321   3.155   0.801  0.7204  0.9580 -0.5118
    1SOL    MW4 1368   2.248   3.200   0.820  0.0861 -0.0339 -0.5815
    1SOL     OW 1369   2.225   1.647   0.727 -0.3282 -0.3691 -0.4756
    1SOL    HW2 1370   2.314   1.631   0.759 -0.3310  1.3503  0.4739
    1SOL    HW3 1371   2.201   1.731   0.765 -1.7849 -0.0675 -1.9955
    1SOL    MW4 1372   2.234   1.656   0.736 -0.5209 -0.1024 -0.5509
    1SOL     OW 1373   2.057   4.408   0.751  0.3254 -0.3919  0.5897
    1SOL    HW2 1374   2.082   4.421   0.660  0.4022 -1.1158  0.5011
    1SOL    HW3 1375   1.979   4.353   0.747  1.4073 -1.9839  1.0062
    1SOL    MW4 1376   2.050   4.402   0.739  0.4783 -0.6976  0.6329
    1SOL     OW 1377   2.294   3.946   0.502 -0.3526 -0.2445  0.0576
    1SOL    HW2 1378   2.209   3.986   0.484 -0.8005 -0.8988  0.7002
    1SOL    HW3 1379   2.300   3.873   0.440 -0.5120 -0.5489  0.3990
    1SOL    MW4 1380   2.284   3.942   0.491 -0.4327 -0.3707  0.1874
    1SOL     OW 1381   2.445   0.002   0.811 -0.3740  0.0646  0.7814
    1SOL    HW2 1382   2.434   0.006   0.906 -0.4169  0.8562  0.7505
    1SOL    HW3 1383   2.466  -0.089   0.792  0.4237  0.0676  1.6387
    1SOL    MW4 1384   2.446  -0.009   0.821 -0.2744  0.1694  0.8904
    1SOL     OW 1385   1.910   3.237   0.486 -0.1466 -0.3407 -0.0983
    1SOL    HW2 1386   1.887   3.325   0.457 -1.0422 -0.5911 -0.1731
    1SOL    HW3 1387   2.003   3.242   0.507 -0.3905  0.8625  0.7622
    1SOL    MW4 1388   1.919   3.249   0.485 -0.2968 -0.2151  0.0054
    1SOL     OW 1389   1.814   0.422   0.894 -0.4813 -0.1640  0.4243
    1SOL    HW2 1390   1.744   0.473   0.853 -0.4364  0.2495  0.8494
    1SOL    HW3 1391   1.791   0.331   0.876 -0.5080  0.0123 -0.4269
    1SOL    MW4 1392   1.801   0.417   0.886 -0.4789 -0.0862  0.3681
    1SOL     OW 1393   3.189   4.261   0.439 -0.2504 -0.0163  0.0762
    1SOL    HW2 1394   3.142   4.344   0.443  2.0427  1.2793  0.3566
    1SOL    HW3 1395   3.280   4.283   0.457  0.6943 -2.3338 -1.6305
    1SOL    MW4 1396   3.194   4.275   0.442  0.1767 -0.1512 -0.1120
    1SOL     OW 1397   3.589   4.124   0.484  0.0318 -0.0744  0.0709
    1SOL    HW2 1398   3.533   4.201   0.479  1.2591  0.7382 -1.9315
    1SOL    HW3 1399   3.590   4.101   0.577 -0.7822  1.9928  0.6287
    1SOL    MW4 1400   3.581   4.131   0.495  0.0861  0.3057 -0.1197
    1SOL     OW 1401   1.614   3.057   0.841 -0.0679  0.0203 -0.0538
    1SOL    HW2 1402   1.621   3.080   0.934  1.9926  2.0310 -0.6898
    1SOL    HW3 1403   1.531   3.096   0.813  0.2519  1.0707  0.4675
    1SOL    MW4 1404   1.604   3.065   0.850  0.2462  0.4244 -0.0690
    1SOL     OW 1405   3.808   3.814   0.511  0.0370  0.2834 -0.3617
    1SOL    HW2 1406   3.877   3.879   0.499 -0.5985  1.1906  0.7901
    1SOL    HW3 1407   3.727   3.863   0.496 -0.4468 -0.2532  0.5051
    1SOL    MW4 1408   3.806   3.829   0.507 -0.1106  0.3324 -0.0954
    1SOL     OW 1409   0.962   3.537   0.284  0.1301 -0.1782  0.1466
    1SOL    HW2 1410   0.906   3.614   0.280 -1.3782 -1.2484  0.0310
    1SOL    HW3 1411   1.035   3.562   0.341 -0.2635  1.3646 -0.0131
    1SOL    MW4 1412   0.964   3.550   0.291 -0.1208 -0.1156  0.1103
    1SOL     OW 1413   2.475   1.572   0.858  0.3763 -0.3809  0.1881
    1SOL    HW2 1414   2.468   1.482   0.825 -1.2093  0.2688 -1.2685
    1SOL    HW3 1415   2.550   1.609   0.812  0.1892 -0.5247 -0.2342
    1SOL    MW4 1416   2.484   1.565   0.848  0.1423 -0.3141 -0.0598
    1SOL     OW 1417   4.055   4.003   0.797 -0.0794 -0.3982 -0.6240
    1SOL    HW2 1418   4.040   3.993   0.703 -1.7387  0.1537 -0.4369
    1SOL    HW3 1419   4.062   4.097   0.810  3.9052 -0.6144 -0.7067
    1SOL    MW4 1420   4.054   4.014   0.786  0.2270 -0.3538 -0.6102
    1SOL     OW 1421   1.467   2.916   0.251  0.4959  0.0667 -0.6095
    1SOL    HW2 1422   1.547   2.969   0.244  0.5954 -0.0863 -0.6448
    1SOL    HW3 1423   1.485   2.840   0.196  0.4425 -0.1115 -0.3824
    1SOL    MW4 1424   1.480   2.913   0.243  0.5020  0.0229 -0.5842
    1SOL     OW 1425   3.926   1.665   0.465  0.1064  0.4314  0.1988
    1SOL    HW2 1426   4.005   1.646   0.415 -0.2610 -0.5830 -0.0221
    1SOL    HW3 1427   3.957   1.683   0.554  0.6495  0.8614 -0.0765
    1SOL    MW4 1428   3.940   1.665   0.470  0.1297  0.3543  0.1334
    1SOL     OW 1429   1.624   1.987   0.464 -0.3852  0.2614  0.2742
    1SOL    HW2 1430   1.695   1.923   0.468  0.8544  1.5627 -0.2154
    1SOL    HW3 1431   1.595   1.997   0.554 -0.8608 -1.2872  0.2957
    1SOL    MW4 1432   1.630   1.980   0.476 -0.2843  0.2289  0.2125
    1SOL     OW 1433   3.575   1.163   0.845 -0.2077  0.5268 -0.4167
    1SOL    HW2 1434   3.579   1.077   0.802  0.5245  0.0795  0.5505
    1SOL    HW3 1435   3.569   1.143   0.938 -0.6636  1.5212 -0.2318
    1SOL    MW4 1436   3.575   1.149   0.851 -0.1714  0.5990 -0.2648
    1SOL     OW 1437   1.179   3.909   0.373 -0.5949 -0.1280  0.2482
    1SOL    HW2 1438   1.109   3.974   0.373 -0.3381  0.1598  1.7677
    1SOL    HW3 1439   1.256   3.957   0.402 -0.3029 -1.0008  0.9320
    1SOL    MW4 1440   1.180   3.924   0.376 -0.5226 -0.2053  0.5389
    1SOL     OW 1441   1.088   2.094   0.719 -0.2978  0.0528 -0.1961
    1SOL    HW2 1442   1.007   2.055   0.753 -0.6356  0.5968 -0.3648
    1SOL    HW3 1443   1.158   2.041   0.756 -0.6735  0.4984  1.1604
    1SOL    MW4 1444   1.087   2.081   0.728 -0.3920  0.1833 -0.0393
    1SOL     OW 1445   3.403   0.484   0.486  0.3644 -0.0492 -0.3931
    1SOL    HW2 1446   3.415   0.397   0.448  0.3715  0.0121 -0.5311
    1SOL    HW3 1447   3.333   0.523   0.434  1.6155  0.7230 -1.5247
    1SOL    MW4 1448   3.395   0.478   0.474  0.5305  0.0608 -0.5606
    1SOL     OW 1449   2.946   3.062   0.427  0.0907  0.4160  0.6640
    1SOL    HW2 1450   2.951   2.981   0.478 -1.0378 -1.1186 -1.5694
    1SOL    HW3 1451   2.864   3.103   0.453 -0.5243 -0.4072  0.0401
    1SOL    MW4 1452   2.936   3.057   0.437 -0.1395  0.1051  0.2870
    1SOL     OW 1453   1.831   3.502   0.805 -0.1575  0.2826 -0.2648
    1SOL    HW2 1454   1.848   3.503   0.899 -0.5151  0.6335 -0.2041
    1SOL    HW3 1455   1.832   3.409   0.781 -1.1095  0.1263  0.2705
    1SOL    MW4 1456   1.834   3.490   0.814 -0.3303  0.3083 -0.1861
    1SOL     OW 1457   0.080   2.758   0.362  0.2612  0.4536  0.1719
    1SOL    HW2 1458   0.044   2.761   0.273  0.9916  0.5612 -0.1190
    1SOL    HW3 1459   0.026   2.693   0.407 -0.7593  1.1091 -0.0634
    1SOL    MW4 1460   0.068   2.750   0.356  0.2229  0.5541  0.1025
    1SOL     OW 1461   1.483   1.733   0.367 -0.6943 -0.1769  0.3229
    1SOL    HW2 1462   1.508   1.820   0.396  0.3451 -0.3662  0.0270
    1SOL    HW3 1463   1.549   1.709   0.302 -1.7292 -0.6485 -0.5751
    1SOL    MW4 1464   1.495   1.741   0.362 -0.6937 -0.2642  0.1653
    1SOL     OW 1465   0.986   0.432   0.822 -0.0853 -0.2027  0.2142
    1SOL    HW2 1466   0.968   0.347   0.781 -0.3094  0.7176 -1.6337
    1SOL    HW3 1467   0.955   0.422   0.912  0.8886 -2.4370  0.3389
    1SOL    MW4 1468   0.979   0.419   0.828  0.0136 -0.3760 -0.0132
    1SOL     OW 1469   0.026   4.019   0.481  0.2136  0.0107 -0.5433
    1SOL    HW2 1470   0.029   4.011   0.576 -0.9044  1.4767 -0.3703
    1SOL    HW3 1471   0.013   3.929   0.450  1.2351 -0.5559  0.6427
    1SOL    MW4 1472   0.024   4.006   0.489  0.2009  0.1292 -0.3640
    1SOL     OW 1473   2.308   0.194   0.472 -0.0371 -0.1948  0.1645
    1SOL    HW2 1474   2.292   0.280   0.432  0.1248 -0.8125 -1.2682
    1SOL    HW3 1475   2.401   0.177   0.457  0.2862  0.0610  1.8228
    1SOL    MW4 1476   2.318   0.203   0.465  0.0272 -0.2425  0.1943
    1SOL     OW 1477   0.450   1.958   0.335  0.3950 -0.6617  0.1033
    1SOL    HW2 1478   0.448   1.867   0.367  2.5387 -0.9587 -0.5076
    1SOL    HW3 1479   0.449   1.949   0.239  1.6877 -0.0889  0.0347
    1SOL    MW4 1480   0.449   1.945   0.326  0.8484 -0.6253  0.0137
    1SOL     OW 1481   2.214   0.340   1.113  0.0093  0.0444  0.2570
    1SOL    HW2 1482   2.210   0.353   1.018  1.2065  1.9564  0.4320
    1SOL    HW3 1483   2.132   0.378   1.146 -0.4761 -0.7581 -0.0083
    1SOL    MW4 1484   2.202   0.347   1.105  0.1035  0.1908  0.2451
    1SOL     OW 1485   4.269   0.599   0.792  0.0761 -0.3183 -0.3394
    1SOL    HW2 1486   4.270   0.595   0.697  0.4743  1.9153 -0.4403
    1SOL    HW3 1487   4.348   0.552   0.819  0.9240  0.6091 -1.1860
    1SOL    MW4 1488   4.279   0.592   0.783  0.2398  0.0988 -0.4644
    1SOL     OW 1489   2.583   0.653   0.340 -0.4205 -0.0967 -0.3237
    1SOL    HW2 1490   2.526   0.662   0.417  0.7257 -0.5183  0.5887
    1SOL    HW3 1491   2.644   0.726   0.346  1.2493 -1.5163  0.5466
    1SOL    MW4 1492   2.583   0.664   0.351 -0.0489 -0.3396 -0.0885
    1SOL     OW 1493   2.763   1.128   0.344 -0.2959 -0.4929 -0.2915
    1SOL    HW2 1494   2.834   1.156   0.401  0.3962 -0.0488 -1.3471
    1SOL    HW3 1495   2.767   1.188   0.270 -0.9988 -1.2209 -0.9287
    1SOL    MW4 1496   2.773   1.139   0.342 -0.2975 -0.5302 -0.5148
    1SOL     OW 1497   2.494   1.298   0.749  0.3190  0.1573  0.3777
    1SOL    HW2 1498   2.493   1.271   0.657  0.5009  1.0387  0.1125
    1SOL    HW3 1499   2.417   1.255   0.787  1.3855 -1.8596  0.3134
    1SOL    MW4 1500   2.483   1.288   0.742  0.4838  0.0074  0.3342
    1SOL     OW 1501   2.280   1.177   0.869  0.4925  0.2716  0.1820
    1SOL    HW2 1502   2.284   1.086   0.840 -1.6683  0.1576  0.2226
    1SOL    HW3 1503   2.245   1.172   0.958  1.4195  1.0855  0.6115
    1SOL    MW4 1504   2.276   1.164   0.877  0.3295  0.3638  0.2440
    1SOL     OW 1505   1.561   1.554   0.868 -0.1725 -0.7655  0.3011
    1SOL    HW2 1506   1.543   1.535   0.960  0.3557 -1.9729  0.1660
    1SOL    HW3 1507   1.589   1.470   0.831 -1.3830 -0.5338 -1.2027
    1SOL    MW4 1508   1.562   1.540   0.875 -0.2625 -0.8941  0.0849
    1SOL     OW 1509   3.197   0.833   0.761  0.0924 -0.0172 -0.3560
    1SOL    HW2 1510   3.272   0.799   0.810 -0.2209  0.1891  0.2670
    1SOL    HW3 1511   3.195   0.926   0.783 -1.7131 -0.4523  1.4252
    1SOL    MW4 1512   3.207   0.841   0.770 -0.1872 -0.0473 -0.0388
    1SOL     OW 1513   0.989   0.431   0.501  0.4181 -0.0911 -0.3836
    1SOL    HW2 1514   0.896   0.442   0.478 -0.1792 -1.0492  1.4618
    1SOL    HW3 1515   1.020   0.520   0.518 -0.1603  0.2354 -0.9998
    1SOL    MW4 1516   0.981   0.444   0.500  0.2630 -0.1745 -0.2214
    1SOL     OW 1517   2.149   1.882   0.844  0.1673  0.3471  0.1550
    1SOL    HW2 1518   2.074   1.925   0.802  0.3639  1.5345  1.0000
    1SOL    HW3 1519   2.225   1.930   0.813  0.5100 -0.2600  0.0420
    1SOL    MW4 1520   2.149   1.894   0.834  0.2384  0.4237  0.2516
    1SOL     OW 1521   2.297   3.742   0.305  0.3893  0.1930  0.1490
    1SOL    HW2 1522   2.359   3.669   0.311  0.5161  0.1262 -1.5771
    1SOL    HW3 1523   2.298   3.766   0.212  0.3477  2.3782  0.6757
    1SOL    MW4 1524   2.306   3.736   0.293  0.4005  0.4725 -0.0092
    1SOL     OW 1525   3.378   2.795   0.464  0.1540 -0.0574  0.0592
    1SOL    HW2 1526   3.368   2.824   0.555  0.5000  0.5534 -0.0962
    1SOL    HW3 1527   3.338   2.708   0.462 -0.7853  0.3584  0.5577
    1SOL    MW4 1528   3.371   2.787   0.476  0.0756  0.0780  0.1045
    1SOL     OW 1529   2.175   2.437   0.744 -0.5140 -0.0638  0.0307
    1SOL    HW2 1530   2.105   2.401   0.799  0.6002 -1.6109  0.4764
    1SOL    HW3 1531   2.198   2.520   0.785 -1.2371 -0.1473  0.6165
    1SOL    MW4 1532   2.169   2.443   0.757 -0.4623 -0.2789  0.1669
    1SOL     OW 1533   2.227   2.675   0.867  0.3831  0.1759  0.7387
    1SOL    HW2 1534   2.231   2.680   0.962  0.3186 -0.6298  0.7900
    1SOL    HW3 1535   2.318   2.685   0.838  0.4587 -0.0177  0.9087
    1SOL    MW4 1536   2.240   2.677   0.876  0.3843  0.0439  0.7679
    1SOL     OW 1537   1.373   4.247   0.294  0.0555  0.4126  0.2255
    1SOL    HW2 1538   1.378   4.173   0.355  1.2761 -0.1431 -0.5279
    1SOL    HW3 1539   1.283   4.279   0.302 -0.3318 -0.8317  0.9337
    1SOL    MW4 1540   1.362   4.242   0.303  0.1655  0.1750  0.2196
    1SOL     OW 1541   1.823   4.276   0.789  0.0324 -0.1549  0.1769
    1SOL    HW2 1542   1.808   4.255   0.881 -0.3724 -2.4725 -0.3710
    1SOL    HW3 1543   1.826   4.190   0.745 -0.6197  0.9253 -2.0736
    1SOL    MW4 1544   1.821   4.262   0.795 -0.1070 -0.3176 -0.1923
    1SOL     OW 1545   2.197   3.214   0.543 -0.6668  0.4319 -0.0125
    1SOL    HW2 1546   2.226   3.198   0.633  0.9211  2.0285 -0.2138
    1SOL    HW3 1547   2.233   3.141   0.492 -1.8586 -0.6582  0.6865
    1SOL    MW4 1548   2.206   3.202   0.548 -0.6144  0.4988  0.0531
    1SOL     OW 1549   3.003   2.669   0.360 -0.2415  0.3155 -0.0650
    1SOL    HW2 1550   3.022   2.723   0.284 -0.6578  1.0877  0.3743
    1SOL    HW3 1551   3.089   2.648   0.397 -0.1010  1.1631  0.0959
    1SOL    MW4 1552   3.017   2.673   0.355 -0.2775  0.5293  0.0142
    1SOL     OW 1553   1.597   3.630   0.464 -0.5969  0.1560  0.2399
    1SOL    HW2 1554   1.516   3.585   0.439 -0.9965  1.0235 -0.0554
    1SOL    HW3 1555   1.592   3.714   0.419  0.3535  0.3158  0.4273
    1SOL    MW4 1556   1.586   3.635   0.455 -0.5242  0.2913  0.2257
    1SOL     OW 1557   1.824   3.992   0.716  0.1734 -0.3398 -0.4277
    1SOL    HW2 1558   1.907   3.968   0.757  0.1409  0.4625  0.1282
    1SOL    HW3 1559   1.757   3.953   0.771  0.1472  0.2354 -0.0431
    1SOL    MW4 1560   1.826   3.984   0.729  0.1657 -0.1581 -0.3036
    1SOL     OW 1561   3.194   4.000   0.718 -0.4479  0.1252 -0.2499
    1SOL    HW2 1562   3.120   3.960   0.764 -0.3536  0.1491 -0.0758
    1SOL    HW3 1563   3.271   3.966   0.763 -0.3121 -0.8343 -1.1912
    1SOL    MW4 1564   3.194   3.990   0.730 -0.4177  0.0021 -0.3511
    1SOL     OW 1565   2.391   2.324   0.233  0.7133  0.1740  0.2943
    1SOL    HW2 1566   2.413   2.240   0.274  1.7396  0.9517  1.3843
    1SOL    HW3 1567   2.468   2.348   0.183  0.3612  0.3944 -0.1500
    1SOL    MW4 1568   2.404   2.316   0.232  0.8023  0.3057  0.3795
    1SOL     OW 1569   2.261   1.176   0.451 -0.2210 -0.1696  0.1170
    1SOL    HW2 1570   2.181   1.228   0.443  0.5840  1.1446  0.3235
    1SOL    HW3 1571   2.232   1.085   0.447 -1.6476  0.2994 -0.4543
    1SOL    MW4 1572   2.247   1.171   0.449 -0.3030  0.0656  0.0688
    1SOL     OW 1573   2.937   0.797   0.849  0.2697 -0.1843 -0.0318
    1SOL    HW2 1574   2.936   0.817   0.943  0.7865  1.1484 -0.3036
    1SOL    HW3 1575   3.030   0.792   0.827  0.1568  0.4255 -0.6546
    1SOL    MW4 1576   2.949   0.799   0.859  0.3231  0.0720 -0.1498
    1SOL     OW 1577   2.982   3.860   0.535  0.4130  0.2251 -0.4633
    1SOL    HW2 1578   2.983   3.793   0.466  1.5090 -0.5656  0.2919
    1SOL    HW3 1579   2.980   3.810   0.617  3.0908  1.0529  0.1636
    1SOL    MW4 1580   2.982   3.844   0.537  0.9108  0.2298 -0.2810
    1SOL     OW 1581   2.475   0.794   0.845  0.0044 -0.1817 -0.0088
    1SOL    HW2 1582   2.554   0.820   0.799 -0.5588 -0.1333 -0.9717
    1SOL    HW3 1583   2.468   0.700   0.830 -0.8765  0.0488 -1.1441
    1SOL    MW4 1584   2.484   0.785   0.837 -0.1862 -0.1450 -0.2856
    1SOL     OW 1585   1.592   0.610   0.489  0.0356  0.2679 -0.0020
    1SOL    HW2 1586   1.537   0.533   0.469  0.2793  0.3042 -0.8167
    1SOL    HW3 1587   1.681   0.576   0.489  0.1463  0.5596 -0.3988
    1SOL    MW4 1588   1.596   0.595   0.486  0.0825  0.3113 -0.1618
    1SOL     OW 1589   3.291   0.882   0.491 -0.2391 -0.1951 -0.2101
    1SOL    HW2 1590   3.272   0.975   0.479 -0.1501 -0.1022  0.3602
    1SOL    HW3 1591   3.259   0.862   0.579 -2.0849 -1.1835 -1.0736
    1SOL    MW4 1592   3.285   0.892   0.501 -0.4709 -0.3133 -0.2487
    1SOL     OW 1593   1.190   2.928   0.289  0.5795  0.5188  0.5301
    1SOL    HW2 1594   1.187   3.022   0.307 -0.0272  1.1313 -2.5345
    1SOL    HW3 1595   1.282   2.912   0.265  0.1473  0.8319 -1.3765
    1SOL    MW4 1596   1.202   2.939   0.288  0.4424  0.6409 -0.1258
    1SOL     OW 1597   3.237   2.547   0.480  0.1805  0.0997 -0.2039
    1SOL    HW2 1598   3.207   2.538   0.571  3.0984 -1.2598  0.6566
    1SOL    HW3 1599   3.254   2.457   0.451 -0.0693  0.5783 -1.8977
    1SOL    MW4 1600   3.235   2.534   0.488  0.5326 -0.0162 -0.3138
    1SOL     OW 1601   2.695   1.697   0.729  0.0362 -0.2547 -0.2522
    1SOL    HW2 1602   2.720   1.694   0.636  0.7593  0.3908 -0.0849
    1SOL    HW3 1603   2.680   1.790   0.747  2.1622 -0.0867  0.8461
    1SOL    MW4 1604   2.696   1.709   0.719  0.4120 -0.1473 -0.0852
    1SOL     OW 1605   3.095   1.684   0.761 -0.0310 -0.1855  0.5220
    1SOL    HW2 1606   3.076   1.692   0.668  0.1650 -0.1479  0.4867
    1SOL    HW3 1607   3.105   1.775   0.791 -1.1024 -0.1395  0.7830
    1SOL    MW4 1608   3.094   1.697   0.753 -0.1466 -0.1745  0.5518
    1SOL     OW 1609   0.031   0.309   0.593 -0.1840 -0.1010 -0.3647
    1SOL    HW2 1610  -0.050   0.279   0.553 -0.8190  1.7909 -0.5398
    1SOL    HW3 1611   0.004   0.351   0.674  0.6667  0.0831 -0.1704
    1SOL    MW4 1612   0.017   0.311   0.598 -0.1555  0.1729 -0.3622
    1SOL     OW 1613   1.838   2.193   0.250  0.0521 -0.0010  0.4478
    1SOL    HW2 1614   1.770   2.257   0.228  0.6874  0.8713  0.9834
    1SOL    HW3 1615   1.840   2.192   0.346 -0.2656 -1.1627  0.4421
    1SOL    MW4 1616   1.829   2.202   0.260  0.0939 -0.0393  0.5178
    1SOL     OW 1617   2.680   1.120   0.828 -0.1993 -0.2614 -0.5299
    1SOL    HW2 1618   2.760   1.158   0.794  0.7058  0.0331  1.8608
    1SOL    HW3 1619   2.611   1.182   0.803  0.5341  0.3174 -1.1355
    1SOL    MW4 1620   2.681   1.133   0.820  0.0169 -0.1460 -0.2943
    1SOL     OW 1621   2.842   2.311   0.604 -0.2801  0.1056  0.0601
    1SOL    HW2 1622   2.855   2.351   0.690 -1.1393 -0.5839  0.5110
    1SOL    HW3 1623   2.837   2.217   0.621 -0.0789 -0.0688 -0.7921
    1SOL    MW4 1624   2.843   2.304   0.618 -0.3669 -0.0083  0.0072
    1SOL     OW 1625   2.878   2.429   0.839  0.1243 -0.3668 -0.4572
    1SOL    HW2 1626   2.885   2.384   0.923  0.5714  0.3155 -0.1271
    1SOL    HW3 1627   2.806   2.491   0.851  0.3418 -0.1076 -0.5064
    1SOL    MW4 1628   2.869   2.431   0.852  0.2120 -0.2425 -0.4201
    1SOL     OW 1629   2.702   2.651   0.880 -0.7445 -0.1894  0.2720
    1SOL    HW2 1630   2.749   2.727   0.848 -1.0634 -0.0965  0.0193
    1SOL    HW3 1631   2.670   2.677   0.967  0.3971 -0.5556  0.8186
    1SOL    MW4 1632   2.704   2.664   0.888 -0.6356 -0.2255  0.3107
    1SOL     OW 1633   1.126   1.350   0.750 -0.0962 -0.3253 -0.2220
    1SOL    HW2 1634   1.051   1.295   0.771  0.7720 -1.7895 -0.8898
    1SOL    HW3 1635   1.127   1.354   0.654 -1.1189  2.2380 -0.1801
    1SOL    MW4 1636   1.116   1.344   0.740 -0.1165 -0.1802 -0.3046
    1SOL     OW 1637   1.106   1.122   0.388 -0.0422 -0.1217 -0.4667
    1SOL    HW2 1638   1.183   1.086   0.346 -0.7976  0.6486 -2.5780
    1SOL    HW3 1639   1.074   1.052   0.445  1.2517 -1.0233 -0.8443
    1SOL    MW4 1640   1.112   1.108   0.390  0.0287 -0.1390 -0.7951
    1SOL     OW 1641   2.483   3.051   0.818 -0.7907  0.5976  0.0185
    1SOL    HW2 1642   2.547   3.112   0.784  0.1473  0.5712  1.6820
    1SOL    HW3 1643   2.475   3.073   0.911 -0.7307 -1.5381  0.5608
    1SOL    MW4 1644   2.490   3.062   0.826 -0.6590  0.3123  0.3096
    1SOL     OW 1645   2.701   3.489   0.832  0.0594 -0.0263 -0.2484
    1SOL    HW2 1646   2.778   3.536   0.800  0.7444 -0.2139  1.0790
    1SOL    HW3 1647   2.716   3.480   0.926 -0.9396 -1.2725 -0.1984
    1SOL    MW4 1648   2.713   3.494   0.840  0.0181 -0.2158 -0.0666
    1SOL     OW 1649   2.926   3.628   0.752  0.4377  0.0863 -0.1829
    1SOL    HW2 1650   3.009   3.589   0.780  0.2687 -1.1604 -1.3614
    1SOL    HW3 1651   2.921   3.710   0.800  0.6880 -1.4427  2.5505
    1SOL    MW4 1652   2.937   3.633   0.762  0.4487 -0.2799  0.0222
    1SOL     OW 1653   2.302   2.989   0.424 -0.1295 -0.2288 -0.1677
    1SOL    HW2 1654   2.385   2.943   0.441 -1.0444 -1.7967  0.1220
    1SOL    HW3 1655   2.237   2.919   0.418 -1.1548  0.8615 -2.2092
    1SOL    MW4 1656   2.304   2.973   0.425 -0.3858 -0.2918 -0.3988
    1SOL     OW 1657   0.639   4.411   0.461  0.1331  0.2139  0.2724
    1SOL    HW2 1658   0.653   4.419   0.556 -1.4371  2.2714  0.3789
    1SOL    HW3 1659   0.689   4.483   0.424  1.3720 -1.0568 -0.5510
    1SOL    MW4 1660   0.647   4.422   0.469  0.0894  0.3181  0.1778
    1SOL     OW 1661   2.734   4.018   0.743  0.0066 -0.0478  0.1748
    1SOL    HW2 1662   2.722   4.106   0.779 -0.1793  0.0486 -0.1145
    1SOL    HW3 1663   2.669   3.964   0.788  1.0591 -0.3453  1.3844
    1SOL    MW4 1664   2.724   4.022   0.753  0.1211 -0.0739  0.2963
    1SOL     OW 1665   2.914   1.233   0.766 -0.0946 -0.5899 -0.4356
    1SOL    HW2 1666   2.909   1.326   0.790 -1.0528 -0.9115  0.6202
    1SOL    HW3 1667   3.002   1.207   0.795 -0.2082 -0.2746  0.2099
    1SOL    MW4 1668   2.925   1.242   0.773 -0.2358 -0.5907 -0.2111
    1SOL     OW 1669   2.013   0.499   0.739 -0.2064  0.3087  0.3026
    1SOL    HW2 1670   1.945   0.461   0.795  0.5755 -0.2721  0.8752
    1SOL    HW3 1671   2.035   0.582   0.781 -0.2879  0.3129  0.3371
    1SOL    MW4 1672   2.007   0.505   0.752 -0.1140  0.2326  0.3827
    1SOL     OW 1673   2.235   0.440   0.346  0.2143 -0.2738 -0.0277
    1SOL    HW2 1674   2.149   0.405   0.320 -0.1508  0.8891 -0.4462
    1SOL    HW3 1675   2.270   0.477   0.265  0.6816  0.1352  0.3659
    1SOL    MW4 1676   2.228   0.440   0.332  0.2277 -0.0664 -0.0311
    1SOL     OW 1677   1.171   2.143   0.452 -0.1596  0.2393 -0.1566
    1SOL    HW2 1678   1.170   2.054   0.416 -0.0176  0.3181 -0.3626
    1SOL    HW3 1679   1.156   2.132   0.546  0.3505 -0.0400 -0.1067
    1SOL    MW4 1680   1.169   2.130   0.459 -0.0737  0.2129 -0.1772
    1SOL     OW 1681   3.111   0.408   0.819  0.4902  0.1886  0.1652
    1SOL    HW2 1682   3.117   0.422   0.913  0.2529 -0.2661  0.2480
    1SOL    HW3 1683   3.189   0.450   0.783  0.4986  0.4995  0.5490
    1SOL    MW4 1684   3.122   0.415   0.826  0.4599  0.1696  0.2267
    1SOL     OW 1685   2.629   2.314   0.079 -0.1014  0.1089 -0.0775
    1SOL    HW2 1686   2.675   2.338  -0.001 -0.0799 -2.4003 -0.8564
    1SOL    HW3 1687   2.682   2.245   0.118 -0.5892  0.6727  1.6487
    1SOL    MW4 1688   2.642   2.308   0.074 -0.1628 -0.1478  0.0475
    1SOL     OW 1689   2.449   0.539   0.751 -0.1328  0.0085 -0.4940
    1SOL    HW2 1690   2.375   0.481   0.768 -1.2071  1.8245  1.1867
    1SOL    HW3 1691   2.526   0.491   0.783 -0.7751 -1.2237 -0.7857
    1SOL    MW4 1692   2.450   0.525   0.757 -0.3593  0.0856 -0.3107
    1SOL     OW 1693   3.801   4.375   0.741 -0.1895 -0.1185 -0.3239
    1SOL    HW2 1694   3.720   4.334   0.769 -0.3612  0.1002 -0.4961
    1SOL    HW3 1695   3.805   4.359   0.647 -0.9571  1.4476 -0.6366
    1SOL    MW4 1696   3.791   4.368   0.733 -0.3135  0.1173 -0.3878
    1SOL     OW 1697   3.339   1.546   0.792  0.0589  0.0926  0.0394
    1SOL    HW2 1698   3.264   1.603   0.775  0.0590  0.1718  0.3143
    1SOL    HW3 1699   3.346   1.542   0.887  1.1286  1.0433  0.0048
    1SOL    MW4 1700   3.330   1.553   0.802  0.2003  0.2285  0.0711
    1SOL     OW 1701   2.236   0.908   0.789  0.3236 -0.3739 -0.1952
    1SOL    HW2 1702   2.232   0.898   0.694 -0.5376 -0.9180 -0.1019
    1SOL    HW3 1703   2.323   0.876   0.813  1.0129  0.9169 -0.9351
    1SOL    MW4 1704   2.247   0.903   0.780  0.3009 -0.2754 -0.2804
    1SOL     OW 1705   3.602   0.900   0.750 -0.2975 -0.1179 -0.4356
    1SOL    HW2 1706   3.586   0.853   0.668 -0.1825  0.9419 -1.0904
    1SOL    HW3 1707   3.683   0.862   0.784 -0.6229 -0.9204 -0.5463
    1SOL    MW4 1708   3.611   0.889   0.743 -0.3254 -0.0839 -0.5366
    1SOL     OW 1709   3.200   2.293   0.299  0.2340  0.1762  0.3104
    1SOL    HW2 1710   3.207   2.212   0.248  0.3873 -0.7496  1.7543
    1SOL    HW3 1711   3.106   2.309   0.305  0.2727  1.3654 -1.8773
    1SOL    MW4 1712   3.189   2.284   0.293  0.2594  0.2108  0.2123
    1SOL     OW 1713   1.611   3.877   0.869 -0.1933  0.0078 -0.3778
    1SOL    HW2 1714   1.527   3.919   0.852 -0.1272 -0.2342 -1.3217
    1SOL    HW3 1715   1.603   3.791   0.827  0.4196 -0.1306 -0.2114
    1SOL    MW4 1716   1.599   3.871   0.861 -0.1037 -0.0424 -0.4804
    1SOL     OW 1717   3.804   0.309   0.431 -0.3976  0.0445 -0.3840
    1SOL    HW2 1718   3.767   0.391   0.462 -0.3593  0.0999 -0.4848
    1SOL    HW3 1719   3.728   0.255   0.409 -0.4329 -0.2068  0.3577
    1SOL    MW4 1720   3.789   0.313   0.432 -0.3972  0.0186 -0.2995
    1SOL     OW 1721   3.630   2.696   0.359  0.5480  0.1991  0.2961
    1SOL    HW2 1722   3.543   2.730   0.377  0.9084  1.6519 -0.6911
    1SOL    HW3 1723   3.690   2.763   0.392  1.2663  0.1067 -0.8015
    1SOL    MW4 1724   3.627   2.709   0.366  0.6905  0.3784  0.0211
    1SOL     OW 1725   2.885   2.832   0.771 -0.1310 -0.5203  0.0536
    1SOL    HW2 1726   2.964   2.788   0.803 -0.6941 -1.7063 -0.1391
    1SOL    HW3 1727   2.883   2.812   0.677  0.3172  1.0653 -0.3122
    1SOL    MW4 1728   2.895   2.823   0.763 -0.1462 -0.4678 -0.0201
    1SOL     OW 1729   1.814   1.683   0.774  0.3140  0.0346 -0.2104
    1SOL    HW2 1730   1.734   1.631   0.785 -0.6832  1.1805 -1.7409
    1SOL    HW3 1731   1.882   1.632   0.818 -0.9141 -1.8611 -0.4196
    1SOL    MW4 1732   1.812   1.669   0.781  0.0206 -0.0644 -0.4399
    1SOL     OW 1733   1.435   3.240   0.473 -0.1971 -0.0470 -0.4915
    1SOL    HW2 1734   1.519   3.210   0.440  0.1855 -1.5978  1.7875
    1SOL    HW3 1735   1.429   3.331   0.444  2.8981  0.5369  0.5196
    1SOL    MW4 1736   1.445   3.248   0.465  0.2617 -0.1745 -0.0574
    1SOL     OW 1737   3.139   3.227   0.800 -0.1676 -0.1112  0.2095
    1SOL    HW2 1738   3.059   3.176   0.813 -0.0421 -0.3730 -0.0417
    1SOL    HW3 1739   3.156   3.221   0.706  0.3686 -0.3854  0.3262
    1SOL    MW4 1740   3.131   3.220   0.789 -0.0803 -0.1819  0.1918
    1SOL     OW 1741   3.144   3.494   0.865 -0.4695 -0.5944  0.2977
    1SOL    HW2 1742   3.153   3.405   0.831  1.1387 -0.7621  1.1306
    1SOL    HW3 1743   3.132   3.482   0.959 -3.1801 -0.0586  0.0609
    1SOL    MW4 1744   3.143   3.481   0.873 -0.6149 -0.5457  0.3763
    1SOL     OW 1745   3.407   3.655   0.505 -0.2715 -0.1289  0.4136
    1SOL    HW2 1746   3.477   3.592   0.490  0.9398  0.8000  2.0819
    1SOL    HW3 1747   3.386   3.647   0.598 -1.2325  0.7869  0.2864
    1SOL    MW4 1748   3.413   3.646   0.515 -0.2389  0.1144  0.6170
    1SOL     OW 1749   3.599   4.023   0.754  0.5836 -0.0823 -0.1516
    1SOL    HW2 1750   3.525   3.970   0.785  0.4087 -0.6512 -1.5263
    1SOL    HW3 1751   3.674   3.988   0.801  0.1963 -0.4150  0.2305
    1SOL    MW4 1752   3.599   4.011   0.765  0.5095 -0.2012 -0.2826
    1SOL     OW 1753   4.268   0.595   0.515  0.6337 -0.0810 -0.2739
    1SOL    HW2 1754   4.340   0.658   0.517 -0.1796  0.9355 -1.9355
    1SOL    HW3 1755   4.298   0.526   0.456  1.6300 -1.4125  1.7493
    1SOL    MW4 1756   4.281   0.595   0.508  0.6580 -0.1225 -0.2262
    1SOL     OW 1757   3.147   4.267   0.829  0.2915  0.3389 -0.2904
    1SOL    HW2 1758   3.073   4.314   0.790  0.0119 -0.2209 -0.4418
    1SOL    HW3 1759   3.138   4.177   0.797  1.4702  0.4323 -0.9060
    1SOL    MW4 1760   3.136   4.261   0.820  0.4101  0.2770 -0.3915
    1SOL     OW 1761   2.998   1.247   0.491  0.3131 -0.2614 -0.2303
    1SOL    HW2 1762   3.086   1.208   0.498 -0.4570 -2.0456 -0.2554
    1SOL    HW3 1763   2.966   1.250   0.581 -0.1934 -1.0466 -0.3770
    1SOL    MW4 1764   3.006   1.242   0.503  0.1445 -0.6003 -0.2530
    1SOL     OW 1765   2.031   1.534   0.875  0.2114  0.0897  0.3759
    1SOL    HW2 1766   2.028   1.444   0.842  2.0131 -0.5050  1.7599
    1SOL    HW3 1767   2.097   1.577   0.821  0.1309  0.2851  0.4351
    1SOL    MW4 1768   2.039   1.528   0.864  0.4387  0.0371  0.5663
    1SOL     OW 1769   3.115   0.146   0.743 -0.0941  0.1845 -0.3110
    1SOL    HW2 1770   3.127   0.238   0.767  0.2375 -0.4887  2.2322
    1SOL    HW3 1771   3.199   0.105   0.760 -0.0792 -0.4944 -1.9644
    1SOL    MW4 1772   3.127   0.153   0.749 -0.0479  0.0061 -0.1935
    1SOL     OW 1773   3.605   0.370   0.865 -0.4377  0.0204  0.4051
    1SOL    HW2 1774   3.685   0.416   0.839  0.1417 -1.3720 -0.3140
    1SOL    HW3 1775   3.598   0.385   0.959  0.9563 -0.2726  0.5618
    1SOL    MW4 1776   3.614   0.378   0.874 -0.1771 -0.2020  0.3309
    1SOL     OW 1777   0.755   0.574   0.745  0.2397 -0.0149  0.6572
    1SOL    HW2 1778   0.680   0.532   0.788 -0.6458  0.7000 -0.1692
    1SOL    HW3 1779   0.828   0.514   0.760 -0.4654 -0.6528  1.5905
    1SOL    MW4 1780   0.755   0.560   0.753  0.0299 -0.0048  0.6713
    1SOL     OW 1781   3.851   0.758   0.867 -0.7142  0.0182 -0.2233
    1SOL    HW2 1782   3.846   0.771   0.962 -1.2350  2.1534 -0.5136
    1SOL    HW3 1783   3.913   0.824   0.838 -1.0178 -0.2319 -1.4554
    1SOL    MW4 1784   3.859   0.768   0.876 -0.8230  0.2669 -0.4241
    1SOL     OW 1785   0.758   1.201   0.366 -0.2052  0.1853  0.0248
    1SOL    HW2 1786   0.830   1.184   0.305  0.6380 -0.2080  1.1215
    1SOL    HW3 1787   0.744   1.119   0.412 -1.6527  0.1355 -0.4651
    1SOL    MW4 1788   0.765   1.188   0.364 -0.2849  0.1268  0.1048
    1SOL     OW 1789   3.823   1.556   0.831  0.2319  0.2445 -0.5364
    1SOL    HW2 1790   3.813   1.463   0.810 -1.4195 -0.1151  1.6996
    1SOL    HW3 1791   3.746   1.598   0.793 -0.3852  0.2810  0.7278
    1SOL    MW4 1792   3.812   1.549   0.823 -0.0675  0.2017 -0.0746
    1SOL     OW 1793   2.793   2.148   0.242  0.2773  0.4500 -0.2359
    1SOL    HW2 1794   2.836   2.066   0.269 -1.3107 -0.9037 -1.6894
    1SOL    HW3 1795   2.845   2.217   0.283 -0.0117 -1.3783  3.3733
    1SOL    MW4 1796   2.806   2.146   0.251  0.0298  0.0305  0.0485
    1SOL     OW 1797   4.270   2.870   0.687  0.1004 -0.3353  0.8069
    1SOL    HW2 1798   4.351   2.826   0.713  0.0725 -0.5396  0.5567
    1SOL    HW3 1799   4.261   2.942   0.749  0.8866  0.1614  0.3642
    1SOL    MW4 1800   4.280   2.874   0.699  0.2003 -0.2971  0.7154
    1SOL     OW 1801   1.215   0.545   0.759 -0.3495 -0.1483 -0.1960
    1SOL    HW2 1802   1.290   0.485   0.757 -0.7853 -0.7079  0.2166
    1SOL    HW3 1803   1.141   0.490   0.783 -0.7900  0.5190 -0.0186
    1SOL    MW4 1804   1.215   0.529   0.762 -0.4652 -0.1341 -0.1182
    1SOL     OW 1805   3.711   2.463   0.472  0.1194 -0.0781 -0.3018
    1SOL    HW2 1806   3.678   2.532   0.414  0.9086 -1.1975 -2.1377
    1SOL    HW3 1807   3.657   2.470   0.550 -0.2391  2.1965 -0.7128
    1SOL    MW4 1808   3.699   2.473   0.474  0.1764  0.0741 -0.5983
    1SOL     OW 1809   3.363   2.340   0.827 -0.3345  0.0068 -0.0303
    1SOL    HW2 1810   3.367   2.343   0.922  1.3424  0.2657 -0.0905
    1SOL    HW3 1811   3.358   2.247   0.806 -3.5414  0.0348  0.3687
    1SOL    MW4 1812   3.363   2.328   0.837 -0.5362  0.0448  0.0144
    1SOL     OW 1813   3.808   2.348   1.110  0.3868 -0.0717  0.0532
    1SOL    HW2 1814   3.887   2.394   1.138  1.0444 -1.5620  0.6719
    1SOL    HW3 1815   3.811   2.350   1.015  1.2365 -0.2488  0.0759
    1SOL    MW4 1816   3.819   2.354   1.101  0.5856 -0.2918  0.1378
    1SOL     OW 1817   1.815   2.185   0.523 -0.3166 -0.1724 -0.3517
    1SOL    HW2 1818   1.741   2.125   0.512 -0.1241 -0.3828 -0.5011
    1SOL    HW3 1819   1.877   2.136   0.578 -0.4668  0.1618  0.1217
    1SOL    MW4 1820   1.814   2.170   0.529 -0.3110 -0.1562 -0.3090
    1SOL     OW 1821   3.575   2.735   0.859 -0.6502  0.0772 -0.5452
    1SOL    HW2 1822   3.584   2.749   0.954 -0.4081  1.3845 -0.7501
    1SOL    HW3 1823   3.647   2.784   0.821 -0.5735 -0.6939 -1.3972
    1SOL    MW4 1824   3.585   2.743   0.867 -0.6082  0.1478 -0.6846
    1SOL     OW 1825   2.049   3.666   0.435  0.1161  0.2454 -0.0417
    1SOL    HW2 1826   2.130   3.684   0.388  0.3916  2.1817  1.1297
    1SOL    HW3 1827   2.077   3.623   0.516 -0.1866 -0.8089 -0.4813
    1SOL    MW4 1828   2.063   3.663   0.439  0.1123  0.3617  0.0548
    1SOL     OW 1829   3.849   3.099   0.840  0.1516  0.1886 -0.4089
    1SOL    HW2 1830   3.768   3.140   0.810  0.9218  0.2977 -2.4036
    1SOL    HW3 1831   3.843   3.009   0.807  0.2171 -0.2079  0.6459
    1SOL    MW4 1832   3.837   3.092   0.832  0.2618  0.1507 -0.5329
    1SOL     OW 1833   4.459   2.255   0.243  0.2267 -0.4961  0.0262
    1SOL    HW2 1834   4.403   2.285   0.314  1.6420 -0.2670  1.0601
    1SOL    HW3 1835   4.480   2.165   0.265  2.7008  0.3314  1.2386
    1SOL    MW4 1836   4.454   2.247   0.255  0.7396 -0.3567  0.3225
    1SOL     OW 1837   3.619   3.246   0.721 -0.4100 -0.3853 -0.1331
    1SOL    HW2 1838   3.629   3.209   0.633 -1.9669 -0.0757 -0.4448
    1SOL    HW3 1839   3.535   3.212   0.752 -1.0604  1.5229  0.2502
    1SOL    MW4 1840   3.610   3.236   0.714 -0.7010 -0.0925 -0.1236
    1SOL     OW 1841   3.859   4.444   0.272  0.2429 -0.0029  0.0566
    1SOL    HW2 1842   3.917   4.504   0.320  0.1528 -0.5468  0.8592
    1SOL    HW3 1843   3.871   4.467   0.180 -0.3103  1.7075  0.3968
    1SOL    MW4 1844   3.868   4.455   0.266  0.1578  0.1512  0.2074
    1SOL     OW 1845   3.812   3.664   0.743  0.5606 -0.1503  0.0038
    1SOL    HW2 1846   3.896   3.623   0.761  1.6075  1.9954  0.1628
    1SOL    HW3 1847   3.827   3.715   0.663 -0.2387  1.1883  0.6953
    1SOL    MW4 1848   3.825   3.665   0.735  0.5934  0.3092  0.1161
    1SOL     OW 1849   0.490   1.714   0.456 -0.0081  0.2136  0.4380
    1SOL    HW2 1850   0.482   1.709   0.552 -1.2174 -0.9387  0.2823
    1SOL    HW3 1851   0.574   1.673   0.438  0.4520  0.8626  1.0341
    1SOL    MW4 1852   0.500   1.708   0.466 -0.1070  0.1471  0.4961
    1SOL     OW 1853   2.259   3.487   0.850  0.0113 -0.1730 -0.2476
    1SOL    HW2 1854   2.248   3.393   0.837 -1.4775  0.1333 -1.5119
    1SOL    HW3 1855   2.330   3.512   0.791  0.9003 -0.6222  0.6357
    1SOL    MW4 1856   2.267   3.478   0.840 -0.0677 -0.1917 -0.2978
    1SOL     OW 1857   1.088   4.322   0.308  0.0033 -0.6682 -0.0138
    1SOL    HW2 1858   1.044   4.243   0.338 -0.7401 -0.4853 -0.6209
    1SOL    HW3 1859   1.023   4.367   0.253  0.4068  0.3775  0.3569
    1SOL    MW4 1860   1.074   4.317   0.304 -0.0417 -0.5059 -0.0450
    1SOL     OW 1861   4.341   4.651   0.863 -0.0022 -0.2799 -0.0336
    1SOL    HW2 1862   4.341   4.683   0.953 -0.1386  0.2402 -0.2142
    1SOL    HW3 1863   4.278   4.707   0.818 -0.8572 -1.3426 -0.1727
    1SOL    MW4 1864   4.333   4.663   0.869 -0.1335 -0.3515 -0.0758
    1SOL     OW 1865   3.576   0.100   0.736  0.1250 -0.3119  0.1505
    1SOL    HW2 1866   3.585   0.187   0.774  0.3005 -0.1370 -0.2930
    1SOL    HW3 1867   3.647   0.049   0.776  0.6822  0.0325 -0.3884
    1SOL    MW4 1868   3.587   0.105   0.746  0.2217 -0.2434  0.0209
    1SOL     OW 1869   4.096   0.382   0.404 -0.4445 -0.3139  0.2952
    1SOL    HW2 1870   4.004   0.357   0.395 -0.3828 -0.4759  0.1124
    1SOL    HW3 1871   4.094   0.475   0.425 -0.5627  0.2991 -2.2575
    1SOL    MW4 1872   4.083   0.391   0.406 -0.4520 -0.2544 -0.0657
    1SOL     OW 1873   0.036   2.734   0.814  0.3822 -0.7585  0.3368
    1SOL    HW2 1874   0.043   2.743   0.909  0.0626  0.3982  0.2613
    1SOL    HW3 1875   0.118   2.771   0.781 -0.5598  1.1642  0.0572
    1SOL    MW4 1876   0.048   2.740   0.822  0.2160 -0.3521  0.2900
    1SOL     OW 1877   4.256   0.861   0.893  0.3111  0.4490 -0.1617
    1SOL    HW2 1878   4.264   0.854   0.988 -0.1717 -0.4267 -0.1818
    1SOL    HW3 1879   4.262   0.771   0.861 -0.9736  0.5876 -0.8431
    1SOL    MW4 1880   4.258   0.848   0.901  0.0782  0.3518 -0.2542
    1SOL     OW 1881   0.025   3.268   0.458 -0.4921 -0.2824  0.0757
    1SOL    HW2 1882  -0.030   3.191   0.444 -0.6949 -0.2760  0.7917
    1SOL    HW3 1883  -0.033   3.343   0.442 -0.3999 -0.2782 -0.2384
    1SOL    MW4 1884   0.011   3.268   0.454 -0.5069 -0.2809  0.1287
    1SOL     OW 1885   1.362   1.693   0.752 -0.1971  0.0579  0.3506
    1SOL    HW2 1886   1.426   1.640   0.800  0.4422  0.7241  0.2350
    1SOL    HW3 1887   1.370   1.664   0.661  1.1601  1.3470  0.0518
    1SOL    MW4 1888   1.371   1.682   0.746  0.0663  0.3159  0.2960
    1SOL     OW 1889   2.288   4.278   0.868  0.1506  0.3602  0.0270
    1SOL    HW2 1890   2.221   4.325   0.819  0.8175  0.2524 -0.9919
    1SOL    HW3 1891   2.290   4.191   0.831  0.3555  0.1423  0.5389
    1SOL    MW4 1892   2.279   4.273   0.857  0.2658  0.3171 -0.0399
    1SOL     OW 1893   4.244   1.576   0.821 -0.2378  0.2522 -0.0027
    1SOL    HW2 1894   4.257   1.485   0.795 -1.6418 -0.0059  0.1833
    1SOL    HW3 1895   4.255   1.576   0.916  0.8484  0.4814 -0.1187
    1SOL    MW4 1896   4.248   1.564   0.830 -0.2799  0.2484  0.0066
    1SOL     OW 1897   0.922   1.199   0.837  0.1614  0.1018 -0.0769
    1SOL    HW2 1898   0.838   1.207   0.793  0.0322  0.7772  0.2969
    1SOL    HW3 1899   0.954   1.112   0.811 -2.2370 -1.6438  2.5740
    1SOL    MW4 1900   0.915   1.189   0.828 -0.1721 -0.0395  0.3221
    1SOL     OW 1901   0.312   4.071   0.470 -0.0838  0.0621  0.6131
    1SOL    HW2 1902   0.324   4.166   0.474 -0.3425  0.0848  0.9283
    1SOL    HW3 1903   0.218   4.060   0.453 -0.0322 -0.1359  0.4545
    1SOL    MW4 1904   0.301   4.082   0.468 -0.1111  0.0386  0.6337
    1SOL     OW 1905   4.040   3.251   0.695 -0.0128 -0.4280 -0.2786
    1SOL    HW2 1906   3.979   3.196   0.744 -1.5011  0.6225 -0.9240
    1SOL    HW3 1907   4.001   3.260   0.609  1.0123  0.3388 -0.6792
    1SOL    MW4 1908   4.027   3.245   0.691 -0.0739 -0.1881 -0.4166
    1SOL     OW 1909   0.212   2.329   1.106 -0.4652  0.2051 -0.7527
    1SOL    HW2 1910   0.156   2.400   1.137 -1.1444  0.4841 -2.5540
    1SOL    HW3 1911   0.301   2.360   1.124 -0.7787  1.2230 -0.9201
    1SOL    MW4 1912   0.217   2.343   1.112 -0.5962  0.3760 -1.0124
    1SOL     OW 1913   2.052   3.887   0.798  0.0370 -0.1499 -0.2429
    1SOL    HW2 1914   2.044   3.879   0.893  0.2753  0.4675 -0.1673
    1SOL    HW3 1915   2.046   3.797   0.766 -1.8485 -0.2221  0.2133
    1SOL    MW4 1916   2.050   3.874   0.806 -0.1800 -0.0777 -0.1727
    1SOL     OW 1917   3.813   2.844   0.768  0.1154 -0.0897  0.3515
    1SOL    HW2 1918   3.891   2.792   0.788 -0.3840 -0.9798  0.0233
    1SOL    HW3 1919   3.819   2.863   0.675  0.2145  0.3070  0.4370
    1SOL    MW4 1920   3.824   2.839   0.759  0.0627 -0.1545  0.3194
    1SOL     OW 1921   0.869   1.978   0.827 -0.6505 -0.3567 -0.0517
    1SOL    HW2 1922   0.787   2.025   0.813 -0.4415  0.1245  0.3210
    1SOL    HW3 1923   0.871   1.958   0.920  0.8710  1.9508  0.4501
    1SOL    MW4 1924   0.859   1.982   0.837 -0.4222  0.0112  0.0637
    1SOL     OW 1925   1.917   0.866   0.528  0.4039 -0.1005 -0.0425
    1SOL    HW2 1926   1.880   0.873   0.615 -0.2815  1.9554 -0.4633
    1SOL    HW3 1927   1.886   0.782   0.494 -1.2208  0.1337  0.8238
    1SOL    MW4 1928   1.908   0.856   0.535  0.0989  0.2016  0.0163
    1SOL     OW 1929   3.643   2.157   0.407 -0.4217  0.1216  0.3220
    1SOL    HW2 1930   3.723   2.105   0.398 -0.3815  0.1392  0.5665
    1SOL    HW3 1931   3.674   2.248   0.411 -0.5603  0.2524 -1.1459
    1SOL    MW4 1932   3.658   2.162   0.406 -0.4346  0.1407  0.1606
    1SOL     OW 1933   3.622   3.490   0.833 -0.4588  0.1642  0.1045
    1SOL    HW2 1934   3.688   3.551   0.798  1.4252 -0.1101  2.9686
    1SOL    HW3 1935   3.643   3.406   0.793  0.5805  0.2093  0.5358
    1SOL    MW4 1936   3.634   3.487   0.823 -0.0732  0.1338  0.5392
    1SOL     OW 1937   4.284   3.871   0.863 -0.0650 -0.4121 -0.2712
    1SOL    HW2 1938   4.207   3.914   0.824 -1.2799 -1.6878  0.7058
    1SOL    HW3 1939   4.280   3.894   0.956  0.5695 -0.7675 -0.1544
    1SOL    MW4 1940   4.273   3.880   0.870 -0.1416 -0.6270 -0.1268
    1SOL     OW 1941   0.031   1.166   0.410 -0.0304  0.6366  0.0917
    1SOL    HW2 1942   0.107   1.224   0.418 -1.6893  2.7602  0.8057
    1SOL    HW3 1943   0.033   1.112   0.489  1.2949 -0.0500 -0.3921
    1SOL    MW4 1944   0.041   1.166   0.421 -0.0744  0.8262  0.1221
    1SOL     OW 1945   3.818   3.898   0.891 -0.2441  0.1245 -0.2544
    1SOL    HW2 1946   3.901   3.943   0.874  0.1210 -0.0247  1.1475
    1SOL    HW3 1947   3.826   3.815   0.844  0.5167 -0.0111  0.1058
    1SOL    MW4 1948   3.830   3.893   0.882 -0.0954  0.0870 -0.0219
    1SOL     OW 1949   3.904   0.132   0.646 -0.2900 -0.3902  0.2555
    1SOL    HW2 1950   3.919   0.063   0.582 -1.3082 -0.1076 -0.3003
    1SOL    HW3 1951   3.857   0.201   0.597 -0.4188  0.1428  1.1100
    1SOL    MW4 1952   3.900   0.132   0.631 -0.4411 -0.2826  0.2949
    1SOL     OW 1953   3.792   4.637   0.848  0.3180 -0.0710 -0.2776
    1SOL    HW2 1954   3.801   4.556   0.798  0.0586  0.8901 -1.9298
    1SOL    HW3 1955   3.838   4.702   0.795 -0.0593  0.9887  0.6921
    1SOL    MW4 1956   3.799   4.635   0.834  0.2337  0.1955 -0.3677
    1SOL     OW 1957   0.217   0.027   1.158  0.3645 -0.0492  0.1324
    1SOL    HW2 1958   0.296   0.080   1.170  1.0409 -0.7926 -0.8942
    1SOL    HW3 1959   0.217   0.005   1.065 -1.4741  0.5660 -0.0177
    1SOL    MW4 1960   0.228   0.031   1.147  0.2111 -0.0661 -0.0229
    1SOL     OW 1961   0.011   0.171   1.264  0.0263 -0.2006  0.4836
    1SOL    HW2 1962  -0.064   0.127   1.223  0.0383  0.2763 -0.0582
    1SOL    HW3 1963   0.086   0.116   1.241 -0.1873 -0.8618  1.3048
    1SOL    MW4 1964   0.011   0.158   1.256 -0.0003 -0.2249  0.5205
    1SOL     OW 1965   4.467   0.395   1.110  0.6509 -0.0401 -0.4178
    1SOL    HW2 1966   4.387   0.439   1.138 -0.1190 -0.6899 -1.5746
    1SOL    HW3 1967   4.479   0.324   1.174 -0.8318 -1.2060 -1.4069
    1SOL    MW4 1968   4.458   0.391   1.122  0.3533 -0.2796 -0.7008
    1SOL     OW 1969   0.217   0.551   1.193 -0.5058 -0.0401  0.0156
    1SOL    HW2 1970   0.227   0.640   1.160  0.1637 -0.6805 -1.5107
    1SOL    HW3 1971   0.145   0.514   1.143 -1.4426 -0.0595  1.3302
    1SOL    MW4 1972   0.209   0.558   1.182 -0.5411 -0.1272 -0.0123
    1SOL     OW 1973   0.272   0.783   1.060  0.3660 -0.4484  0.0871
    1SOL    HW2 1974   0.339   0.840   1.099 -0.0384  0.4554 -0.5139
    1SOL    HW3 1975   0.190   0.811   1.102  0.3559 -1.5370  0.8084
    1SOL    MW4 1976   0.270   0.794   1.071  0.3113 -0.4728  0.1030
    1SOL     OW 1977   0.056   0.884   1.218 -0.0471 -0.0457 -0.6736
    1SOL    HW2 1978   0.037   0.880   1.312 -0.0949  0.8793 -0.6426
    1SOL    HW3 1979   0.028   0.971   1.191 -1.7673 -0.9414 -1.9248
    1SOL    MW4 1980   0.050   0.895   1.227 -0.2804 -0.0418 -0.8346
    1SOL     OW 1981   4.474   1.156   1.117 -0.2965  0.3020  0.0774
    1SOL    HW2 1982   4.410   1.214   1.159  0.4634  0.4768  1.0030
    1SOL    HW3 1983   4.555   1.206   1.114  0.1623 -0.4264  0.1688
    1SOL    MW4 1984   4.476   1.170   1.122 -0.1357  0.2289  0.2116
    1SOL     OW 1985   0.223   1.268   1.156  0.0202 -0.2912 -0.2493
    1SOL    HW2 1986   0.215   1.270   1.251  0.1086  0.9580 -0.2585
    1SOL    HW3 1987   0.314   1.243   1.140  0.3011  0.5190  0.0192
    1SOL    MW4 1988   0.234   1.265   1.166  0.0689 -0.0196 -0.2152
    1SOL     OW 1989   0.182   1.522   1.069 -0.3477  0.0053  0.0458
    1SOL    HW2 1990   0.198   1.431   1.094 -2.1138 -0.5947 -0.9094
    1SOL    HW3 1991   0.213   1.528   0.978 -0.8353  0.1591 -0.1157
    1SOL    MW4 1992   0.188   1.510   1.060 -0.6450 -0.0536 -0.1014
    1SOL     OW 1993   0.010   1.664   1.217  0.1289  0.0852 -0.1529
    1SOL    HW2 1994   0.003   1.749   1.174  0.0356 -0.1048 -0.5150
    1SOL    HW3 1995   0.071   1.615   1.163  0.7093  0.1509  0.4318
    1SOL    MW4 1996   0.017   1.669   1.204  0.1932  0.0688 -0.1235
    1SOL     OW 1997   4.460   1.907   1.091  0.3092  0.2713 -0.1662
    1SOL    HW2 1998   4.390   1.950   1.140  0.8171  1.0569 -0.1084
    1SOL    HW3 1999   4.446   1.934   1.000  0.5238  0.4238 -0.1559
    1SOL    MW4 2000   4.449   1.916   1.085  0.4044  0.3952 -0.1572
    1SOL     OW 2001   0.202   2.050   1.163  0.0745 -0.2479  0.6881
    1SOL    HW2 2002   0.197   2.141   1.134  1.8396  0.0459  1.2137
    1SOL    HW3 2003   0.120   2.010   1.133  0.3722  0.8768 -1.7536
    1SOL    MW4 2004   0.191   2.057   1.155  0.3467 -0.0608  0.4354
    1SOL     OW 2005   0.249   2.351   0.826 -0.5294  0.3453 -0.3218
    1SOL    HW2 2006   0.167   2.386   0.791 -0.5463  2.0845  1.3824
    1SOL    HW3 2007   0.236   2.351   0.921  0.8592 -0.8730 -0.1243
    1SOL    MW4 2008   0.236   2.356   0.834 -0.3484  0.4141 -0.0709
    1SOL     OW 2009   0.005   2.490   1.217  0.1687 -0.3696  0.1602
    1SOL    HW2 2010  -0.010   2.479   1.311 -1.3621  1.8515  0.2062
    1SOL    HW3 2011  -0.050   2.423   1.176  1.2236 -1.6821  0.8172
    1SOL    MW4 2012  -0.004   2.480   1.224  0.1054 -0.2499  0.2531
    1SOL     OW 2013   4.469   2.758   1.119 -0.1232  0.1169 -0.2242
    1SOL    HW2 2014   4.423   2.804   1.189 -0.0989 -0.3637  0.1132
    1SOL    HW3 2015   4.464   2.665   1.145 -0.7202 -0.1305 -1.2147
    1SOL    MW4 2016   4.462   2.751   1.132 -0.1993  0.0210 -0.3103
    1SOL     OW 2017   0.246   2.850   1.205  0.3317  0.0807 -0.0733
    1SOL    HW2 2018   0.230   2.860   1.299  2.0757 -1.1364  0.3967
    1SOL    HW3 2019   0.166   2.809   1.171 -0.4164  0.7740  0.8283
    1SOL    MW4 2020   0.233   2.846   1.213  0.4631  0.0117  0.1076
    1SOL     OW 2021   0.218   3.100   1.083 -0.2933 -0.1458  0.1459
    1SOL    HW2 2022   0.289   3.143   1.130 -1.8991  1.8869  0.7974
    1SOL    HW3 2023   0.217   3.010   1.117  1.7604 -0.1310  0.3016
    1SOL    MW4 2024   0.227   3.094   1.094 -0.2342  0.1242  0.2524
    1SOL     OW 2025   0.022   3.221   1.226 -0.0085 -0.4871 -0.3208
    1SOL    HW2 2026  -0.059   3.177   1.201 -0.6547  0.7401 -0.3731
    1SOL    HW3 2027   0.090   3.177   1.174 -0.8162 -0.5765 -1.3150
    1SOL    MW4 2028   0.020   3.209   1.216 -0.2003 -0.3369 -0.4588
    1SOL     OW 2029   0.005   3.483   1.136 -0.1881  0.0274  0.4493
    1SOL    HW2 2030  -0.010   3.395   1.172  0.8441 -0.7419 -0.9786
    1SOL    HW3 2031   0.022   3.469   1.043  0.9325  1.6569  0.3949
    1SOL    MW4 2032   0.005   3.469   1.129  0.0960  0.1409  0.2538
    1SOL     OW 2033   0.244   3.620   1.236  0.0325 -0.2075 -0.8650
    1SOL    HW2 2034   0.234   3.636   1.330  0.9727 -0.6445 -0.6849
    1SOL    HW3 2035   0.158   3.591   1.207 -0.0453 -0.8871  0.0295
    1SOL    MW4 2036   0.232   3.619   1.245  0.1463 -0.3548 -0.7231
    1SOL     OW 2037   0.269   3.880   1.117  0.9198 -0.4365 -0.5609
    1SOL    HW2 2038   0.187   3.921   1.144  0.6598 -0.8481 -0.7203
    1SOL    HW3 2039   0.271   3.797   1.163  0.9050 -0.7408 -1.0986
    1SOL    MW4 2040   0.259   3.875   1.126  0.8835 -0.5310 -0.6528
    1SOL     OW 2041   0.061   4.048   1.177  0.4022  0.1355 -0.2630
    1SOL    HW2 2042   0.060   4.054   1.272  0.9595  1.0238 -0.3167
    1SOL    HW3 2043  -0.021   4.002   1.155  0.3555 -0.2143  0.6464
    1SOL    MW4 2044   0.050   4.043   1.186  0.4697  0.2069 -0.1501
    1SOL     OW 2045   0.037   4.305   1.071  0.0770 -0.5054 -0.4051
    1SOL    HW2 2046   0.098   4.366   1.111 -0.3482 -0.3179 -0.0517
    1SOL    HW3 2047   0.054   4.221   1.114 -1.5116  0.0440  1.3492
    1SOL    MW4 2048   0.047   4.302   1.082 -0.1887 -0.4077 -0.1271
    1SOL     OW 2049   0.248   4.417   1.210  0.3375 -0.0495  0.1543
    1SOL    HW2 2050   0.225   4.408   1.302  3.0015  0.5477  0.9345
    1SOL    HW3 2051   0.264   4.511   1.198 -1.5170  0.1027 -1.3184
    1SOL    MW4 2052   0.247   4.428   1.221  0.4443  0.0491  0.0628
    1SOL     OW 2053   0.651   0.022   1.093  0.7479  0.3364  0.1075
    1SOL    HW2 2054   0.734   0.057   1.125 -0.2568  2.3631  0.5557
    1SOL    HW3 2055   0.646  -0.066   1.131  1.4053  1.2533  2.3799
    1SOL    MW4 2056   0.661   0.015   1.102  0.7020  0.7248  0.4665
    1SOL     OW 2057   0.440   0.174   1.199 -0.0750 -0.1126  0.4279
    1SOL    HW2 2058   0.442   0.266   1.170 -0.9350  0.3464  1.7877
    1SOL    HW3 2059   0.517   0.135   1.158 -0.7072  0.7589 -1.6835
    1SOL    MW4 2060   0.450   0.181   1.189 -0.2719  0.0629  0.3288
    1SOL     OW 2061   2.364   0.663   0.512 -0.4090 -0.4058  0.4904
    1SOL    HW2 2062   2.388   0.614   0.590 -0.8840 -0.0995  0.8324
    1SOL    HW3 2063   2.333   0.597   0.450  0.1813 -0.6716  0.4760
    1SOL    MW4 2064   2.363   0.648   0.514 -0.3936 -0.4005  0.5337
    1SOL     OW 2065   0.728   0.546   1.230  0.3205  0.3097  0.0420
    1SOL    HW2 2066   0.719   0.637   1.203 -0.1598  0.1762 -0.2656
    1SOL    HW3 2067   0.642   0.507   1.212  0.3097 -0.0393  0.7950
    1SOL    MW4 2068   0.715   0.553   1.224  0.2557  0.2459  0.1009
    1SOL     OW 2069   0.703   0.790   1.129 -0.6409  0.2041  0.0141
    1SOL    HW2 2070   0.616   0.831   1.137 -1.6202 -1.7097 -0.6110
    1SOL    HW3 2071   0.717   0.782   1.035  0.7964  1.6647  0.0851
    1SOL    MW4 2072   0.693   0.795   1.118 -0.5805  0.1443 -0.0589
    1SOL     OW 2073   0.469   0.938   1.181  0.3342 -0.1914  0.4174
    1SOL    HW2 2074   0.480   0.954   1.275 -0.3035 -1.2518  0.6721
    1SOL    HW3 2075   0.470   1.026   1.142 -0.7582  0.3449  1.5573
    1SOL    MW4 2076   0.471   0.952   1.188  0.1059 -0.2605  0.6014
    1SOL     OW 2077   0.481   1.196   1.062 -0.1291  0.3330 -0.5755
    1SOL    HW2 2078   0.550   1.234   1.117 -0.5867  0.5984 -0.1810
    1SOL    HW3 2079   0.516   1.200   0.973  0.5526  0.0457 -0.3257
    1SOL    MW4 2080   0.495   1.201   1.058 -0.0995  0.3301 -0.4905
    1SOL     OW 2081   0.675   1.268   1.225 -0.4024  0.1020 -0.2108
    1SOL    HW2 2082   0.748   1.233   1.174 -0.0120  0.5446  0.0458
    1SOL    HW3 2083   0.672   1.361   1.203 -1.3099 -0.0420 -0.7292
    1SOL    MW4 2084   0.684   1.275   1.216 -0.4706  0.1414 -0.2452
    1SOL     OW 2085   0.705   1.517   1.091 -0.1223  0.4143  0.4643
    1SOL    HW2 2086   0.774   1.570   1.130  0.4913 -0.0953  0.0778
    1SOL    HW3 2087   0.625   1.567   1.107  0.1025  0.1970  2.4186
    1SOL    MW4 2088   0.703   1.530   1.098 -0.0117  0.3185  0.6711
    1SOL     OW 2089   0.437   1.600   1.172 -0.7624 -0.2379  0.4760
    1SOL    HW2 2090   0.459   1.618   1.264  0.0559  0.2466  0.1889
    1SOL    HW3 2091   0.345   1.572   1.175 -1.5349  2.2458  1.1453
    1SOL    MW4 2092   0.428   1.599   1.185 -0.7564  0.1538  0.5265
    1SOL     OW 2093   0.425   1.879   1.171  0.1782  0.1660 -0.1748
    1SOL    HW2 2094   0.396   1.788   1.174  0.8203 -0.0787 -1.2094
    1SOL    HW3 2095   0.343   1.929   1.170 -0.2154 -0.4776 -1.7188
    1SOL    MW4 2096   0.410   1.874   1.171  0.2110  0.0489 -0.5151
    1SOL     OW 2097   0.627   2.055   1.245 -0.0669  0.1904 -0.2155
    1SOL    HW2 2098   0.630   2.060   1.340 -0.2857 -0.4807 -0.1726
    1SOL    HW3 2099   0.557   1.993   1.226  0.4388 -0.2057 -0.8010
    1SOL    MW4 2100   0.618   2.048   1.255 -0.0291  0.0498 -0.2872
    1SOL     OW 2101   0.668   2.302   1.115 -0.0877  0.0669  0.1106
    1SOL    HW2 2102   0.584   2.343   1.138  0.4736  0.8868  0.7183
    1SOL    HW3 2103   0.666   2.218   1.161 -0.2289  0.4429  0.8051
    1SOL    MW4 2104   0.657   2.296   1.124 -0.0323  0.2248  0.2823
    1SOL     OW 2105   0.444   2.421   1.216  0.2104  0.3503 -0.1426
    1SOL    HW2 2106   0.444   2.428   1.312 -0.3241 -0.1791 -0.1048
    1SOL    HW3 2107   0.469   2.509   1.186 -0.7946  0.8439  0.4578
    1SOL    MW4 2108   0.447   2.434   1.225  0.0072  0.3457 -0.0584
    1SOL     OW 2109   0.473   2.690   1.141 -0.3145 -0.6426 -0.3189
    1SOL    HW2 2110   0.391   2.735   1.161 -0.1619 -0.4121 -0.2042
    1SOL    HW3 2111   0.489   2.709   1.049  1.3999  2.2545  0.4920
    1SOL    MW4 2112   0.464   2.698   1.132 -0.0682 -0.2301 -0.1968
    1SOL     OW 2113   0.685   2.835   1.246  0.6900  0.2094 -0.2378
    1SOL    HW2 2114   0.670   2.826   1.340  0.6393  0.5516 -0.2124
    1SOL    HW3 2115   0.612   2.789   1.205  0.1874  0.8830 -0.1112
    1SOL    MW4 2116   0.674   2.828   1.253  0.6170  0.3436 -0.2177
    1SOL     OW 2117   0.655   3.089   1.171 -0.0352 -0.1924 -0.1357
    1SOL    HW2 2118   0.730   3.144   1.192  0.0349 -0.9197  1.6203
    1SOL    HW3 2119   0.674   3.006   1.216 -2.3226 -0.0577  1.1342
    1SOL    MW4 2120   0.668   3.085   1.180 -0.3278 -0.2708  0.2635
    1SOL     OW 2121   0.413   3.188   1.254 -0.2832 -0.2273 -0.0043
    1SOL    HW2 2122   0.429   3.277   1.222 -0.1905  0.1024  0.9644
    1SOL    HW3 2123   0.491   3.139   1.226  0.1084  0.2176  0.2955
    1SOL    MW4 2124   0.425   3.193   1.246 -0.2193 -0.1252  0.1630
    1SOL     OW 2125   0.448   3.471   1.144  0.2702 -0.1387  0.2597
    1SOL    HW2 2126   0.530   3.514   1.168 -0.1394  1.0952 -0.4846
    1SOL    HW3 2127   0.380   3.521   1.191 -0.1168 -0.7416  0.3544
    1SOL    MW4 2128   0.450   3.483   1.154  0.1651 -0.0553  0.1739
    1SOL     OW 2129   0.678   3.618   1.218 -0.0773  0.0105  0.1973
    1SOL    HW2 2130   0.673   3.640   1.310 -0.0037  0.4393  0.0975
    1SOL    HW3 2131   0.683   3.702   1.173  0.5480 -0.2156 -0.1581
    1SOL    MW4 2132   0.678   3.632   1.224  0.0148  0.0374  0.1372
    1SOL     OW 2133   0.678   3.871   1.092  0.1334  0.0593  0.1117
    1SOL    HW2 2134   0.604   3.915   1.133 -0.3863 -0.0494 -0.7039
    1SOL    HW3 2135   0.672   3.894   0.999 -0.7062 -2.4721 -0.5081
    1SOL    MW4 2136   0.667   3.880   1.085 -0.0459 -0.2892 -0.0777
    1SOL     OW 2137   0.478   3.998   1.223  0.0751  0.0830 -0.0857
    1SOL    HW2 2138   0.463   4.087   1.192 -0.7719  0.1944  0.6191
    1SOL    HW3 2139   0.404   3.948   1.189  1.3384 -0.6865 -1.7607
    1SOL    MW4 2140   0.466   4.003   1.215  0.1300 -0.0038 -0.2136
    1SOL     OW 2141   0.455   4.252   1.115 -0.0369  0.4597 -0.4213
    1SOL    HW2 2142   0.526   4.309   1.146 -0.1948  0.9447 -0.9295
    1SOL    HW3 2143   0.375   4.302   1.133 -0.3388 -0.6671  1.3840
    1SOL    MW4 2144   0.454   4.266   1.121 -0.0975  0.3753 -0.2501
    1SOL     OW 2145   0.656   4.430   1.195  0.1389 -0.0412  0.5288
    1SOL    HW2 2146   0.662   4.446   1.289  0.6633  3.3685 -0.0126
    1SOL    HW3 2147   0.742   4.397   1.171  0.4362  0.3826  1.0069
    1SOL    MW4 2148   0.668   4.428   1.204  0.2474  0.4649  0.5205
    1SOL     OW 2149   1.119   0.034   1.142 -0.5914  0.3378 -0.3111
    1SOL    HW2 2150   1.134  -0.060   1.146  0.0225  0.4380 -0.1423
    1SOL    HW3 2151   1.121   0.055   1.048  1.3636  0.4963 -0.2604
    1SOL    MW4 2152   1.121   0.025   1.130 -0.2525  0.3719 -0.2822
    1SOL     OW 2153   0.874   0.152   1.205 -0.4942 -0.2872 -0.3745
    1SOL    HW2 2154   0.868   0.156   1.301 -1.3911 -0.4129 -0.4149
    1SOL    HW3 2155   0.961   0.116   1.188 -0.3737 -0.3781  0.3975
    1SOL    MW4 2156   0.885   0.147   1.216 -0.5966 -0.3157 -0.2779
    1SOL     OW 2157   0.913   0.410   1.084 -0.4003 -0.4399  0.1898
    1SOL    HW2 2158   0.890   0.318   1.097 -2.0556  0.1674  1.9147
    1SOL    HW3 2159   0.841   0.459   1.125  0.1569  1.6370 -1.2008
    1SOL    MW4 2160   0.900   0.405   1.091 -0.5451 -0.0857  0.2339
    1SOL     OW 2161   1.135   0.495   1.199  0.4619 -0.1596  0.0516
    1SOL    HW2 2162   1.130   0.477   1.292  0.5448  0.6436  0.2152
    1SOL    HW3 2163   1.052   0.463   1.164  0.6686 -0.9755  0.3113
    1SOL    MW4 2164   1.124   0.489   1.206  0.5001 -0.1613  0.1074
    1SOL     OW 2165   1.147   0.786   1.154 -0.7405  0.0479 -0.5523
    1SOL    HW2 2166   1.069   0.813   1.203 -0.7395 -0.0184 -0.5143
    1SOL    HW3 2167   1.154   0.692   1.169 -0.6969  0.0400 -0.6183
    1SOL    MW4 2168   1.137   0.777   1.162 -0.7347  0.0381 -0.5560
    1SOL     OW 2169   0.912   0.902   1.258 -0.0224  0.1588  0.0795
    1SOL    HW2 2170   0.921   0.993   1.231 -0.2184  0.3293  0.5787
    1SOL    HW3 2171   0.836   0.870   1.210  0.5816 -0.0080 -0.7859
    1SOL    MW4 2172   0.904   0.910   1.248  0.0314  0.1593  0.0312
    1SOL     OW 2173   0.893   1.166   1.113 -0.5868 -0.0364  0.4031
    1SOL    HW2 2174   0.979   1.199   1.140  0.3946 -3.0188  1.0484
    1SOL    HW3 2175   0.895   1.169   1.018 -0.4447  1.5085  0.4372
    1SOL    MW4 2176   0.905   1.171   1.104 -0.4386 -0.2260  0.4927
    1SOL     OW 2177   1.122   1.286   1.193  0.2177 -0.4442  0.2295
    1SOL    HW2 2178   1.126   1.265   1.286  0.2301  0.3326  0.4048
    1SOL    HW3 2179   1.198   1.241   1.155  0.7959  0.0719  0.7593
    1SOL    MW4 2180   1.133   1.277   1.200  0.2956 -0.2735  0.3225
    1SOL     OW 2181   1.107   1.561   1.149 -0.2137  0.2227 -0.1836
    1SOL    HW2 2182   1.107   1.466   1.156 -2.1046  0.1391 -1.1368
    1SOL    HW3 2183   1.107   1.579   1.055  0.2120  1.1726 -0.0112
    1SOL    MW4 2184   1.107   1.551   1.138 -0.4071  0.3370 -0.2866
    1SOL     OW 2185   0.876   1.663   1.232  0.2632 -0.0641  0.1117
    1SOL    HW2 2186   0.872   1.752   1.198  0.0128 -0.2583 -0.3775
    1SOL    HW3 2187   0.965   1.634   1.212  0.4060  0.1448  0.4461
    1SOL    MW4 2188   0.887   1.671   1.224  0.2490 -0.0622  0.0913
    1SOL     OW 2189   0.863   1.942   1.155 -0.1332 -0.7640 -0.1258
    1SOL    HW2 2190   0.936   1.970   1.211  0.7223  0.2632 -1.7158
    1SOL    HW3 2191   0.786   1.986   1.192  0.7633  1.6304 -0.9829
    1SOL    MW4 2192   0.862   1.952   1.167  0.0979 -0.3124 -0.4486
    1SOL     OW 2193   1.086   2.069   1.275  0.0636 -0.0610 -0.3385
    1SOL    HW2 2194   1.075   2.090   1.367  1.9668  0.6514 -0.2594
    1SOL    HW3 2195   1.071   2.152   1.229  1.2189  0.0633 -0.5027
    1SOL    MW4 2196   1.083   2.083   1.281  0.4672  0.0496 -0.3498
    1SOL     OW 2197   1.092   2.308   1.125 -0.5047 -0.0748  0.1475
    1SOL    HW2 2198   1.163   2.369   1.144  0.9396 -1.2675 -1.2162
    1SOL    HW3 2199   1.058   2.335   1.040  0.5082 -1.4783 -0.7184
    1SOL    MW4 2200   1.097   2.319   1.117 -0.1807 -0.4177 -0.1466
    1SOL     OW 2201   0.869   2.429   1.255  0.1237 -0.2112 -0.0153
    1SOL    HW2 2202   0.950   2.385   1.230  0.4322  0.3601 -0.0241
    1SOL    HW3 2203   0.800   2.376   1.215  0.5077 -0.4720 -0.3391
    1SOL    MW4 2204   0.870   2.416   1.247  0.2151 -0.1700 -0.0591
    1SOL     OW 2205   0.915   2.700   1.170  0.4670 -0.0338  0.2662
    1SOL    HW2 2206   0.889   2.612   1.196  1.1063 -0.5497 -0.8089
    1SOL    HW3 2207   0.838   2.754   1.188  0.2531 -0.7167  1.4159
    1SOL    MW4 2208   0.902   2.696   1.176  0.5231 -0.1919  0.2760
    1SOL     OW 2209   1.115   2.873   1.237  0.2636 -0.5535 -0.2850
    1SOL    HW2 2210   1.117   2.861   1.332 -1.4414  0.8992 -0.0463
    1SOL    HW3 2211   1.043   2.816   1.208  1.8190 -2.2483 -0.9303
    1SOL    MW4 2212   1.106   2.864   1.246  0.2438 -0.5856 -0.3386
    1SOL     OW 2213   1.119   3.151   1.163  0.1290  0.0955 -0.1887
    1SOL    HW2 2214   1.129   3.064   1.201  1.5618  0.4415  0.2463
    1SOL    HW3 2215   1.125   3.136   1.068  2.0725 -0.0748 -0.0533
    1SOL    MW4 2216   1.121   3.137   1.155  0.5745  0.1187 -0.1135
    1SOL     OW 2217   0.872   3.240   1.224  0.1141 -0.2739 -0.3068
    1SOL    HW2 2218   0.883   3.330   1.195  0.6025 -0.0420  0.5895
    1SOL    HW3 2219   0.957   3.199   1.206 -0.1782 -0.6159 -0.9211
    1SOL    MW4 2220   0.885   3.246   1.218  0.1400 -0.2885 -0.2695
    1SOL     OW 2221   0.914   3.491   1.141  0.4423 -0.1867 -0.0595
    1SOL    HW2 2222   0.833   3.533   1.172  0.9864 -0.4167  1.7287
    1SOL    HW3 2223   0.907   3.493   1.045 -1.1506  0.8268  0.0591
    1SOL    MW4 2224   0.902   3.497   1.132  0.3039 -0.0832  0.1920
    1SOL     OW 2225   1.157   3.600   1.231  0.0651  0.2336 -0.1957
    1SOL    HW2 2226   1.229   3.568   1.177 -0.8318  0.5101 -1.5907
    1SOL    HW3 2227   1.080   3.554   1.198 -0.4311  0.0502  1.1801
    1SOL    MW4 2228   1.157   3.590   1.220 -0.1187  0.2458 -0.1982
    1SOL     OW 2229   1.128   3.851   1.115  0.0250  0.2847  0.0832
    1SOL    HW2 2230   1.047   3.896   1.139  0.9416  1.1001  1.7033
    1SOL    HW3 2231   1.124   3.768   1.164 -0.8141 -0.6230 -1.4932
    1SOL    MW4 2232   1.116   3.846   1.125  0.0353  0.2723  0.0890
    1SOL     OW 2233   0.913   4.016   1.208 -0.3615 -0.2297 -0.0785
    1SOL    HW2 2234   0.902   4.026   1.302 -1.1077 -0.5535 -0.1280
    1SOL    HW3 2235   0.827   3.989   1.176 -0.0204 -0.4923 -0.7989
    1SOL    MW4 2236   0.901   4.014   1.216 -0.4149 -0.3071 -0.1800
    1SOL     OW 2237   0.880   4.286   1.132 -0.3160 -0.0441  0.4584
    1SOL    HW2 2238   0.907   4.194   1.133  1.2069  0.3923  0.4707
    1SOL    HW3 2239   0.872   4.307   1.039  0.2199  0.0729  0.4416
    1SOL    MW4 2240   0.882   4.276   1.120 -0.0443  0.0291  0.4578
    1SOL     OW 2241   1.129   4.407   1.190 -0.3327  0.2016 -0.4701
    1SOL    HW2 2242   1.129   4.390   1.285  0.1913 -0.6785 -0.6241
    1SOL    HW3 2243   1.051   4.361   1.158 -0.3935  0.3228 -0.4941
    1SOL    MW4 2244   1.119   4.398   1.199 -0.2716  0.1016 -0.4935
    1SOL     OW 2245   1.526   4.640   1.131 -0.5220 -0.4210 -0.0169
    1SOL    HW2 2246   1.612   4.672   1.160 -0.6512  0.2852 -0.3911
    1SOL    HW3 2247   1.527   4.547   1.152 -0.0988 -0.1964  1.0271
    1SOL    MW4 2248   1.538   4.632   1.138 -0.4833 -0.2985  0.0714
    1SOL     OW 2249   1.352   0.151   1.234  0.1821  0.2206  0.4982
    1SOL    HW2 2250   1.417   0.085   1.210 -1.4452 -1.6741  1.1850
    1SOL    HW3 2251   1.268   0.114   1.205 -0.7603  2.0229  0.8276
    1SOL    MW4 2252   1.349   0.137   1.227 -0.1569  0.2084  0.6324
    1SOL     OW 2253   1.398   0.391   1.112 -0.1435  0.2929 -0.2706
    1SOL    HW2 2254   1.391   0.302   1.146 -0.0224  0.2440 -0.3754
    1SOL    HW3 2255   1.314   0.432   1.136  1.2505  1.3358  3.1337
    1SOL    MW4 2256   1.386   0.384   1.120  0.0564  0.4241  0.1647
    1SOL     OW 2257   1.600   0.522   1.270  0.1773  0.1459  0.1114
    1SOL    HW2 2258   1.612   0.599   1.214 -1.2123 -0.1868 -0.6763
    1SOL    HW3 2259   1.533   0.471   1.225  0.7748 -1.3156  0.8527
    1SOL    MW4 2260   1.593   0.525   1.256  0.0727 -0.0908  0.1053
    1SOL     OW 2261   1.562   0.762   1.152  0.3319 -0.3657 -0.2389
    1SOL    HW2 2262   1.630   0.822   1.183 -0.0639 -0.0159 -0.0405
    1SOL    HW3 2263   1.563   0.772   1.057 -1.4241  1.8277 -0.0754
    1SOL    MW4 2264   1.571   0.771   1.144  0.0480 -0.0301 -0.1912
    1SOL     OW 2265   1.372   0.920   1.249 -0.1028 -0.1255 -0.4524
    1SOL    HW2 2266   1.445   0.868   1.217  0.5446  0.4891  0.0179
    1SOL    HW3 2267   1.294   0.878   1.212  0.2447 -2.5677  1.4709
    1SOL    MW4 2268   1.371   0.908   1.240  0.0286 -0.3667 -0.1366
    1SOL     OW 2269   1.339   1.163   1.090  0.0491  0.4920  0.2420
    1SOL    HW2 2270   1.343   1.068   1.103 -0.6693  0.5048  0.5730
    1SOL    HW3 2271   1.409   1.198   1.144  0.3675  0.1433  0.0566
    1SOL    MW4 2272   1.349   1.155   1.099 -0.0036  0.4479  0.2613
    1SOL     OW 2273   1.545   1.294   1.251 -0.2190 -0.1185  0.2278
    1SOL    HW2 2274   1.631   1.264   1.223 -1.2580 -2.4373 -0.5917
    1SOL    HW3 2275   1.553   1.308   1.345  0.9354 -0.6773  0.2151
    1SOL    MW4 2276   1.557   1.292   1.259 -0.2038 -0.4983  0.1180
    1SOL     OW 2277   1.574   1.551   1.146  0.3158  0.2115 -0.2115
    1SOL    HW2 2278   1.658   1.591   1.171 -0.0857  0.6660  0.4149
    1SOL    HW3 2279   1.572   1.469   1.195  0.3250  0.2719 -0.1090
    1SOL    MW4 2280   1.585   1.545   1.156  0.2640  0.2793 -0.1155
    1SOL     OW 2281   1.359   1.709   1.254 -0.1256  0.1018 -0.3518
    1SOL    HW2 2282   1.432   1.667   1.208 -0.7532  0.5021 -1.7380
    1SOL    HW3 2283   1.281   1.669   1.216 -0.6638  0.7749  0.0455
    1SOL    MW4 2284   1.358   1.698   1.243 -0.2794  0.2434 -0.4823
    1SOL     OW 2285   1.293   1.959   1.124 -0.5842  0.0565  0.0411
    1SOL    HW2 2286   1.319   1.884   1.179 -0.1323  0.3759  0.2616
    1SOL    HW3 2287   1.219   1.997   1.171  0.2109  0.7212  0.7795
    1SOL    MW4 2288   1.287   1.954   1.138 -0.4196  0.1863  0.1675
    1SOL     OW 2289   1.522   2.048   1.238 -0.1617  0.4063 -0.3196
    1SOL    HW2 2290   1.519   2.141   1.217  0.8613 -0.0243 -2.4970
    1SOL    HW3 2291   1.446   2.011   1.192  0.5081 -0.1169 -1.0171
    1SOL    MW4 2292   1.511   2.055   1.229  0.0618  0.2804 -0.6989
    1SOL     OW 2293   1.504   2.309   1.170 -0.0976  0.2724  0.2323
    1SOL    HW2 2294   1.419   2.355   1.170 -0.6224 -0.6926  0.7456
    1SOL    HW3 2295   1.515   2.280   1.079 -0.2474  0.5092  0.1364
    1SOL    MW4 2296   1.494   2.312   1.158 -0.1866  0.1764  0.2874
    1SOL     OW 2297   1.283   2.482   1.198  0.2522 -0.1533  0.1142
    1SOL    HW2 2298   1.309   2.477   1.290  0.1239 -0.5598  0.1257
    1SOL    HW3 2299   1.314   2.569   1.170  1.6233 -0.6149  0.1304
    1SOL    MW4 2300   1.291   2.493   1.206  0.4162 -0.2682  0.1179
    1SOL     OW 2301   1.353   2.753   1.165  0.0004 -0.2589 -0.3047
    1SOL    HW2 2302   1.422   2.794   1.217 -2.0652  0.5871  1.8848
    1SOL    HW3 2303   1.274   2.804   1.187 -1.1124 -0.4400 -3.6226
    1SOL    MW4 2304   1.351   2.765   1.174 -0.4190 -0.1709 -0.4536
    1SOL     OW 2305   1.572   2.881   1.276 -0.1756 -1.0025  0.4463
    1SOL    HW2 2306   1.643   2.834   1.232 -1.4052 -0.6658 -2.0158
    1SOL    HW3 2307   1.568   2.966   1.231 -0.3963  0.0075  2.3544
    1SOL    MW4 2308   1.581   2.886   1.264 -0.3670 -0.8247  0.3732
    1SOL     OW 2309   1.578   3.119   1.139 -0.2072 -0.3585  0.3181
    1SOL    HW2 2310   1.661   3.151   1.172 -0.6130 -2.0964  3.2287
    1SOL    HW3 2311   1.513   3.180   1.173 -0.1898  0.7933 -1.6519
    1SOL    MW4 2312   1.580   3.131   1.148 -0.2586 -0.4356  0.4423
    1SOL     OW 2313   1.367   3.266   1.247  0.1615  0.4482 -0.0795
    1SOL    HW2 2314   1.370   3.270   1.342 -0.5100 -0.3052 -0.0221
    1SOL    HW3 2315   1.278   3.235   1.227  0.5892 -0.2457 -0.9178
    1SOL    MW4 2316   1.355   3.263   1.257  0.1293  0.2573 -0.1826
    1SOL     OW 2317   1.388   3.517   1.112 -0.4750 -0.1283 -0.0202
    1SOL    HW2 2318   1.399   3.424   1.135 -0.5857 -0.2568 -0.4794
    1SOL    HW3 2319   1.376   3.516   1.017  1.6336  0.5318 -0.3309
    1SOL    MW4 2320   1.388   3.504   1.103 -0.2114 -0.0582 -0.1220
    1SOL     OW 2321   1.626   3.639   1.215 -0.1305  0.2035 -0.0250
    1SOL    HW2 2322   1.621   3.731   1.192 -0.0313  0.1545 -0.2509
    1SOL    HW3 2323   1.553   3.598   1.168  2.8163 -0.6670 -4.1083
    1SOL    MW4 2324   1.616   3.646   1.206  0.2714  0.0823 -0.5934
    1SOL     OW 2325   1.586   3.907   1.144 -0.5389  0.0177 -0.2136
    1SOL    HW2 2326   1.499   3.938   1.166 -0.2247  1.5768 -1.0923
    1SOL    HW3 2327   1.581   3.887   1.050  0.7067  2.5545 -0.8685
    1SOL    MW4 2328   1.574   3.908   1.134 -0.3333  0.5579 -0.4159
    1SOL     OW 2329   1.342   4.010   1.216  0.1094 -0.0902  0.3079
    1SOL    HW2 2330   1.326   4.091   1.168 -0.3305 -1.4307 -1.8571
    1SOL    HW3 2331   1.282   3.946   1.176  2.5319 -2.2227 -0.0236
    1SOL    MW4 2332   1.332   4.012   1.205  0.3711 -0.5488 -0.0215
    1SOL     OW 2333   1.337   4.261   1.105  0.0272 -0.2341  0.1497
    1SOL    HW2 2334   1.261   4.310   1.138  1.2035  0.5556  1.7640
    1SOL    HW3 2335   1.338   4.279   1.011 -1.1160  0.6727  0.2927
    1SOL    MW4 2336   1.327   4.270   1.097  0.0316 -0.0100  0.3816
    1SOL     OW 2337   1.581   4.358   1.198 -0.2232  0.3702 -0.0212
    1SOL    HW2 2338   1.566   4.373   1.292  1.2612  0.5397  0.1940
    1SOL    HW3 2339   1.495   4.333   1.164 -0.5691 -0.6512  1.5724
    1SOL    MW4 2340   1.567   4.357   1.206 -0.0730  0.2575  0.2173
    1SOL     OW 2341   1.979   4.643   1.104  0.5881 -0.1645  0.6113
    1SOL    HW2 2342   1.980   4.549   1.122  2.0381 -0.1485  0.6140
    1SOL    HW3 2343   1.965   4.648   1.009 -1.4162 -0.3364  0.8755
    1SOL    MW4 2344   1.977   4.631   1.094  0.5150 -0.1850  0.6465
    1SOL     OW 2345   1.763   0.073   1.233  0.5720 -0.1845 -0.2248
    1SOL    HW2 2346   1.762   0.165   1.204  0.9966 -0.1215 -0.0477
    1SOL    HW3 2347   1.841   0.037   1.191 -0.1641 -0.7447 -1.1422
    1SOL    MW4 2348   1.773   0.081   1.223  0.5310 -0.2501 -0.3226
    1SOL     OW 2349   1.780   0.346   1.161 -0.1787 -0.5413 -0.5452
    1SOL    HW2 2350   1.715   0.402   1.204  1.0830  0.8890 -0.4452
    1SOL    HW3 2351   1.765   0.359   1.067 -1.4313 -1.8802 -0.5370
    1SOL    MW4 2352   1.770   0.355   1.154 -0.1774 -0.5293 -0.5310
    1SOL     OW 2353   2.020   0.773   1.130 -0.0052  0.8610  0.1194
    1SOL    HW2 2354   2.098   0.811   1.170  0.3113 -0.6290  0.9492
    1SOL    HW3 2355   2.025   0.680   1.151 -0.2647  0.1666 -2.6861
    1SOL    MW4 2356   2.031   0.766   1.138  0.0024  0.5728 -0.1413
    1SOL     OW 2357   2.039   0.742   0.857 -0.2956  0.2096 -0.5729
    1SOL    HW2 2358   2.115   0.790   0.822  0.5067  0.1935  1.0887
    1SOL    HW3 2359   2.047   0.752   0.952 -1.1761 -1.6338 -0.2887
    1SOL    MW4 2360   2.050   0.750   0.865 -0.3059 -0.0358 -0.3161
    1SOL     OW 2361   1.797   0.903   1.214  0.4066  0.1743 -0.2969
    1SOL    HW2 2362   1.805   0.889   1.308 -0.8698 -1.1482 -0.3632
    1SOL    HW3 2363   1.875   0.861   1.177  0.4566 -0.0898  0.1013
    1SOL    MW4 2364   1.808   0.895   1.222  0.2447 -0.0351 -0.2531
    1SOL     OW 2365   1.762   1.179   1.126 -0.2676 -0.2437 -0.1395
    1SOL    HW2 2366   1.763   1.089   1.159  0.1151 -0.0201  0.4733
    1SOL    HW3 2367   1.790   1.172   1.035 -2.0083 -0.9441 -0.6383
    1SOL    MW4 2368   1.766   1.166   1.118 -0.4468 -0.3067 -0.1246
    1SOL     OW 2369   1.985   1.285   1.248  0.3052  0.3319  0.2778
    1SOL    HW2 2370   2.061   1.241   1.210  1.2181  0.1897  2.1918
    1SOL    HW3 2371   1.909   1.237   1.214  1.2705 -2.4810  1.9622
    1SOL    MW4 2372   1.985   1.273   1.238  0.5531 -0.0581  0.7527
    1SOL     OW 2373   2.041   1.543   1.159 -0.0934  0.3907 -0.0235
    1SOL    HW2 2374   2.024   1.451   1.182 -1.1479  0.8684  1.1235
    1SOL    HW3 2375   2.043   1.543   1.063  0.2899 -0.8936 -0.0302
    1SOL    MW4 2376   2.039   1.531   1.149 -0.1819  0.2843  0.1271
    1SOL     OW 2377   1.817   1.686   1.269  0.0104  0.0154 -0.0539
    1SOL    HW2 2378   1.809   1.774   1.234  0.1185  0.5262  1.1759
    1SOL    HW3 2379   1.900   1.653   1.235  0.3784  0.7135  0.1644
    1SOL    MW4 2380   1.827   1.693   1.260  0.0733  0.1749  0.1372
    1SOL     OW 2381   1.760   1.925   1.161  0.1658 -0.2001 -0.5516
    1SOL    HW2 2382   1.683   1.966   1.201  0.2312  0.4397 -1.0693
    1SOL    HW3 2383   1.739   1.920   1.068  1.1354  0.8681 -0.8388
    1SOL    MW4 2384   1.747   1.930   1.154  0.3023  0.0253 -0.6578
    1SOL     OW 2385   1.996   2.055   1.241 -0.3097 -0.3702  0.0612
    1SOL    HW2 2386   1.987   2.053   1.337 -0.4070  1.0549  0.0934
    1SOL    HW3 2387   1.914   2.019   1.209 -0.6712  0.0318  0.5155
    1SOL    MW4 2388   1.984   2.050   1.250 -0.3703 -0.1292  0.1254
    1SOL     OW 2389   1.923   2.327   1.157  0.4056  0.0584  0.1783
    1SOL    HW2 2390   2.000   2.377   1.186  0.3576 -0.0872  0.5573
    1SOL    HW3 2391   1.939   2.239   1.189 -0.2640  0.1881  0.8813
    1SOL    MW4 2392   1.936   2.322   1.165  0.3108  0.0563  0.3210
    1SOL     OW 2393   1.715   2.482   1.248  0.0964 -0.8812  0.0497
    1SOL    HW2 2394   1.790   2.437   1.210 -0.3842 -0.8390 -0.9792
    1SOL    HW3 2395   1.641   2.423   1.232 -0.6528  0.5107 -1.8672
    1SOL    MW4 2396   1.715   2.468   1.241 -0.0658 -0.6917 -0.3390
    1SOL     OW 2397   1.726   2.722   1.104  0.2884 -0.1000  0.2951
    1SOL    HW2 2398   1.713   2.636   1.144 -2.6467  0.8419  1.4690
    1SOL    HW3 2399   1.690   2.713   1.016 -1.2035  0.2793  0.8602
    1SOL    MW4 2400   1.720   2.709   1.097 -0.2955  0.0744  0.5245
    1SOL     OW 2401   1.989   2.800   1.224  0.0577  0.3344  0.2187
    1SOL    HW2 2402   2.012   2.891   1.206  0.2399  0.2269 -0.0807
    1SOL    HW3 2403   1.918   2.781   1.164  1.2033 -0.2727 -0.9599
    1SOL    MW4 2404   1.983   2.810   1.214  0.2328  0.2398  0.0238
    1SOL     OW 2405   2.039   3.087   1.147  0.2565  0.0876 -0.3666
    1SOL    HW2 2406   1.955   3.131   1.164 -0.4714 -1.4637  0.1381
    1SOL    HW3 2407   2.049   3.090   1.052  0.2376  1.3543 -0.3406
    1SOL    MW4 2408   2.029   3.093   1.137  0.1578  0.0498 -0.2966
    1SOL     OW 2409   1.821   3.244   1.240 -0.0705 -0.1844 -0.2819
    1SOL    HW2 2410   1.791   3.263   1.329  0.1208  1.7021 -0.5902
    1SOL    HW3 2411   1.828   3.331   1.199 -0.7623 -1.0626 -2.3166
    1SOL    MW4 2412   1.818   3.258   1.246 -0.1366 -0.0513 -0.5912
    1SOL     OW 2413   1.845   3.494   1.114  0.1232 -0.2362 -0.0090
    1SOL    HW2 2414   1.929   3.539   1.127 -0.7070  1.4430 -0.3133
    1SOL    HW3 2415   1.780   3.554   1.151 -0.8669 -1.9229  1.0080
    1SOL    MW4 2416   1.848   3.508   1.121 -0.1169 -0.2370  0.0850
    1SOL     OW 2417   2.048   3.653   1.214 -0.0553 -0.6977 -0.0516
    1SOL    HW2 2418   2.060   3.647   1.309  3.9145  0.7576 -0.3590
    1SOL    HW3 2419   2.117   3.599   1.177  0.0349  0.7604 -2.1267
    1SOL    MW4 2420   2.059   3.645   1.222  0.4804 -0.3133 -0.3659
    1SOL     OW 2421   2.025   3.888   1.070 -0.4487 -0.2805  0.4510
    1SOL    HW2 2422   1.953   3.935   1.113 -0.1140  0.4594  0.2112
    1SOL    HW3 2423   2.040   3.812   1.125  0.6263  1.1595  2.2223
    1SOL    MW4 2424   2.018   3.884   1.083 -0.2625  0.0072  0.6530
    1SOL     OW 2425   1.826   4.003   1.222  0.6178  0.2844 -0.1282
    1SOL    HW2 2426   1.826   4.001   1.318 -0.5909  1.4053 -0.0932
    1SOL    HW3 2427   1.741   3.968   1.197  1.3408 -1.0050 -0.8408
    1SOL    MW4 2428   1.815   3.998   1.231  0.5537  0.2625 -0.2174
    1SOL     OW 2429   1.804   4.232   1.068  0.2815 -0.3793 -0.3354
    1SOL    HW2 2430   1.818   4.148   1.113  0.2868  0.3157  0.9716
    1SOL    HW3 2431   1.728   4.270   1.113  0.2883  0.3295 -0.9211
    1SOL    MW4 2432   1.796   4.226   1.080  0.2832 -0.1936 -0.2403
    1SOL     OW 2433   1.983   4.380   1.169  0.5880  0.3030 -0.2151
    1SOL    HW2 2434   1.994   4.357   1.262 -1.1311 -0.0692 -0.0770
    1SOL    HW3 2435   1.925   4.312   1.135 -0.4665  1.6093 -1.0587
    1SOL    MW4 2436   1.977   4.368   1.177  0.2222  0.4263 -0.3082
    1SOL     OW 2437   2.463   0.012   1.093  0.0511  0.1569  0.4110
    1SOL    HW2 2438   2.528   0.056   1.146  0.8816  0.0750 -0.5111
    1SOL    HW3 2439   2.380   0.028   1.137  0.2604  2.9891 -0.1294
    1SOL    MW4 2440   2.461   0.020   1.106  0.1884  0.5193  0.2180
    1SOL     OW 2441   2.215   0.073   1.208  0.0396 -0.3479 -0.5767
    1SOL    HW2 2442   2.205   0.163   1.175 -0.7145 -0.0063  0.5386
    1SOL    HW3 2443   2.132   0.031   1.186 -0.6285 -0.0014  1.1882
    1SOL    MW4 2444   2.203   0.080   1.201 -0.1481 -0.2571 -0.1966
    1SOL     OW 2445   2.014   0.494   1.206  0.4727  0.5982 -0.5109
    1SOL    HW2 2446   2.018   0.506   1.301 -0.3156 -1.9013 -0.1086
    1SOL    HW3 2447   1.937   0.439   1.192  0.6162  0.8785 -2.5951
    1SOL    MW4 2448   2.004   0.488   1.217  0.3879  0.3054 -0.7328
    1SOL     OW 2449   2.449   0.514   1.202  0.1246  0.1951 -0.1842
    1SOL    HW2 2450   2.477   0.511   1.293 -0.1089 -0.8811 -0.1502
    1SOL    HW3 2451   2.370   0.461   1.198 -0.1613  0.6585 -0.9169
    1SOL    MW4 2452   2.443   0.507   1.213  0.0558  0.1142 -0.2764
    1SOL     OW 2453   2.496   0.779   1.123  0.1859 -0.0713 -0.2772
    1SOL    HW2 2454   2.478   0.688   1.146  0.4575 -0.1688 -0.4466
    1SOL    HW3 2455   2.502   0.779   1.028 -1.9621  0.5157 -0.4363
    1SOL    MW4 2456   2.494   0.767   1.114 -0.0618 -0.0067 -0.3203
    1SOL     OW 2457   2.250   0.892   1.235 -0.8204  0.1075 -0.1443
    1SOL    HW2 2458   2.267   0.903   1.328 -1.7343  0.3559 -0.0065
    1SOL    HW3 2459   2.329   0.850   1.201 -0.2379  0.5774  0.6277
    1SOL    MW4 2460   2.263   0.888   1.243 -0.8638  0.2022 -0.0242
    1SOL     OW 2461   2.208   1.156   1.134 -0.9500 -0.0697 -0.2956
    1SOL    HW2 2462   2.287   1.201   1.165 -1.1080  1.0101 -1.4203
    1SOL    HW3 2463   2.214   1.068   1.172  0.7673  0.0168 -0.3322
    1SOL    MW4 2464   2.219   1.151   1.143 -0.7443  0.0840 -0.4489
    1SOL     OW 2465   2.460   1.266   1.254  0.1416 -0.3008  0.9212
    1SOL    HW2 2466   2.529   1.217   1.209  1.5324 -0.0572  2.7145
    1SOL    HW3 2467   2.469   1.355   1.222  1.8222  0.0947  2.4327
    1SOL    MW4 2468   2.470   1.271   1.244  0.5469 -0.2165  1.3571
    1SOL     OW 2469   2.479   1.540   1.135  1.0781 -0.3170 -0.0434
    1SOL    HW2 2470   2.405   1.599   1.148 -0.4127 -2.2105  0.1562
    1SOL    HW3 2471   2.498   1.546   1.041 -1.1347 -1.9159 -0.6233
    1SOL    MW4 2472   2.472   1.549   1.124  0.5896 -0.7777 -0.0937
    1SOL     OW 2473   2.254   1.697   1.250 -0.3340 -0.1370  0.1402
    1SOL    HW2 2474   2.228   1.781   1.213 -1.5245 -0.8547 -0.6709
    1SOL    HW3 2475   2.181   1.639   1.232  0.0238 -1.0889  1.6401
    1SOL    MW4 2476   2.241   1.701   1.243 -0.4437 -0.3574  0.2310
    1SOL     OW 2477   2.226   1.933   1.107  0.0905  0.3419  0.1890
    1SOL    HW2 2478   2.150   1.986   1.132  0.5605  1.0033  0.2278
    1SOL    HW3 2479   2.209   1.910   1.015  0.0007  0.7753  0.0933
    1SOL    MW4 2480   2.214   1.937   1.098  0.1407  0.4864  0.1814
    1SOL     OW 2481   2.459   2.038   1.227 -0.5606  0.4384 -0.1179
    1SOL    HW2 2482   2.526   1.995   1.175  0.6966 -0.1517  1.9567
    1SOL    HW3 2483   2.377   2.000   1.196  0.2931 -1.0792 -0.5521
    1SOL    MW4 2484   2.457   2.027   1.216 -0.2820  0.1605  0.0986
    1SOL     OW 2485   2.422   2.285   1.104  0.0507 -0.1080 -0.1794
    1SOL    HW2 2486   2.441   2.200   1.143  2.5777  1.0891  1.3933
    1SOL    HW3 2487   2.431   2.271   1.010  1.1823 -1.4449  0.1010
    1SOL    MW4 2488   2.426   2.272   1.097  0.5331 -0.1266  0.0650
    1SOL     OW 2489   2.203   2.450   1.217  0.3243  0.0972 -0.6433
    1SOL    HW2 2490   2.223   2.461   1.310 -0.5197 -0.2144 -0.4187
    1SOL    HW3 2491   2.268   2.387   1.186  0.7326  0.3475 -0.3139
    1SOL    MW4 2492   2.214   2.443   1.226  0.2668  0.0889 -0.5703
    1SOL     OW 2493   2.227   2.701   1.138  0.1368 -0.1176  0.1950
    1SOL    HW2 2494   2.223   2.609   1.165 -0.3166 -0.2035 -0.1510
    1SOL    HW3 2495   2.144   2.738   1.168  0.2943  0.1647  0.2820
    1SOL    MW4 2496   2.215   2.694   1.146  0.0982 -0.0918  0.1608
    1SOL     OW 2497   2.439   2.851   1.211 -0.5496  0.3726 -0.1818
    1SOL    HW2 2498   2.442   2.850   1.307 -0.8021  0.4893 -0.1720
    1SOL    HW3 2499   2.364   2.797   1.189  0.7097 -1.3501 -0.3742
    1SOL    MW4 2500   2.430   2.844   1.221 -0.4168  0.1607 -0.2058
    1SOL     OW 2501   2.469   3.110   1.084  0.1179 -0.0223 -0.2363
    1SOL    HW2 2502   2.395   3.160   1.120 -0.4783 -0.8919 -0.2255
    1SOL    HW3 2503   2.464   3.025   1.129  0.9456 -0.1957 -0.4640
    1SOL    MW4 2504   2.458   3.105   1.095  0.1485 -0.1597 -0.2649
    1SOL     OW 2505   2.257   3.238   1.242 -0.8262 -0.1139 -0.0348
    1SOL    HW2 2506   2.258   3.329   1.213 -1.2946  0.0781  0.5270
    1SOL    HW3 2507   2.180   3.200   1.199 -0.3892 -0.3510 -0.5976
    1SOL    MW4 2508   2.247   3.245   1.233 -0.8302 -0.1199 -0.0350
    1SOL     OW 2509   2.249   3.487   1.128  0.1140  0.0609 -0.2583
    1SOL    HW2 2510   2.327   3.534   1.155 -0.1663  0.6702 -0.5178
    1SOL    HW3 2511   2.257   3.476   1.034 -1.1666  2.0825 -0.6329
    1SOL    MW4 2512   2.260   3.492   1.119 -0.0920  0.4082 -0.3420
    1SOL     OW 2513   2.489   3.625   1.181  0.2809 -0.7483  0.3600
    1SOL    HW2 2514   2.488   3.612   1.276  2.4889 -0.8833  0.3888
    1SOL    HW3 2515   2.501   3.720   1.170  0.3001 -0.7658  0.2263
    1SOL    MW4 2516   2.491   3.636   1.192  0.5748 -0.7682  0.3462
    1SOL     OW 2517   2.476   3.901   1.127 -0.3785 -0.0136  0.6506
    1SOL    HW2 2518   2.392   3.942   1.147 -0.1160  1.8595 -1.8730
    1SOL    HW3 2519   2.474   3.888   1.032  0.9832 -2.7201  0.9417
    1SOL    MW4 2520   2.465   3.904   1.117 -0.1643 -0.1237  0.3561
    1SOL     OW 2521   2.249   4.027   1.185  0.0741 -0.1075 -0.1584
    1SOL    HW2 2522   2.253   4.120   1.162  1.2200  0.3756  1.8907
    1SOL    HW3 2523   2.170   3.995   1.140 -1.4492  2.3007  0.6793
    1SOL    MW4 2524   2.239   4.035   1.176  0.0243  0.2737  0.2224
    1SOL     OW 2525   2.253   4.312   1.141  0.0923  0.3985 -0.0590
    1SOL    HW2 2526   2.169   4.358   1.147  0.2218  0.5515  0.6455
    1SOL    HW3 2527   2.270   4.304   1.047 -0.8277  0.1485 -0.2020
    1SOL    MW4 2528   2.244   4.317   1.130 -0.0119  0.3858  0.0151
    1SOL     OW 2529   2.505   4.420   1.249  0.3765  0.3254  0.2132
    1SOL    HW2 2530   2.419   4.386   1.225  0.6814 -0.5213  0.3068
    1SOL    HW3 2531   2.511   4.504   1.204 -0.6912  0.6088  0.5911
    1SOL    MW4 2532   2.494   4.426   1.240  0.2759  0.2513  0.2754
    1SOL     OW 2533   2.903   4.628   1.118 -0.0688  0.3351  0.4971
    1SOL    HW2 2534   2.937   4.546   1.154 -1.3176 -0.6909 -0.6166
    1SOL    HW3 2535   2.909   4.618   1.023  0.8704  2.0287  0.3463
    1SOL    MW4 2536   2.908   4.616   1.110 -0.1097  0.4234  0.3303
    1SOL     OW 2537   2.692   0.129   1.210 -0.2066  0.6293  0.0981
    1SOL    HW2 2538   2.708   0.132   1.304  0.4129 -0.7535  0.0434
    1SOL    HW3 2539   2.763   0.076   1.175 -1.0163  0.2583 -1.0214
    1SOL    MW4 2540   2.703   0.122   1.217 -0.2320  0.3979 -0.0569
    1SOL     OW 2541   2.722   0.392   1.147  0.3154  0.1586  0.1059
    1SOL    HW2 2542   2.717   0.301   1.177  0.6620  0.0856 -0.0488
    1SOL    HW3 2543   2.637   0.430   1.168  0.6042  0.1487  1.3398
    1SOL    MW4 2544   2.710   0.385   1.154  0.3994  0.1477  0.2483
    1SOL     OW 2545   2.925   0.565   1.248  0.0213  0.4148 -0.2980
    1SOL    HW2 2546   2.933   0.647   1.199 -1.3820  1.0017  0.4530
    1SOL    HW3 2547   2.844   0.525   1.216 -0.3561  0.2943  0.8014
    1SOL    MW4 2548   2.916   0.570   1.237 -0.2136  0.4763 -0.0539
    1SOL     OW 2549   2.923   0.813   1.123  0.1704  0.3388 -0.3556
    1SOL    HW2 2550   2.992   0.876   1.146  1.5365 -1.1253 -0.3945
    1SOL    HW3 2551   2.841   0.857   1.148  1.1062  2.1376 -0.4240
    1SOL    MW4 2552   2.921   0.827   1.130  0.4745  0.3830 -0.3697
    1SOL     OW 2553   2.699   0.912   1.256 -0.1892  0.0159  0.6241
    1SOL    HW2 2554   2.687   0.995   1.211 -0.9841 -0.3930  0.0595
    1SOL    HW3 2555   2.630   0.855   1.220 -1.5182 -0.0084  3.0570
    1SOL    MW4 2556   2.688   0.915   1.245 -0.4694 -0.0412  0.8706
    1SOL     OW 2557   2.661   1.151   1.106 -0.1935 -0.1104 -0.1346
    1SOL    HW2 2558   2.674   1.133   1.013  0.0749  0.1604 -0.1499
    1SOL    HW3 2559   2.742   1.193   1.134  0.4281 -1.7710  0.6204
    1SOL    MW4 2560   2.674   1.154   1.097 -0.0763 -0.2939 -0.0371
    1SOL     OW 2561   2.889   1.284   1.181  0.1831  0.3081  0.1862
    1SOL    HW2 2562   2.912   1.294   1.274  0.0274  0.1097  0.2450
    1SOL    HW3 2563   2.880   1.374   1.150  0.6347  0.3870  0.2642
    1SOL    MW4 2564   2.891   1.297   1.189  0.2222  0.2924  0.2042
    1SOL     OW 2565   2.906   1.563   1.115  0.0828 -0.0725 -0.1685
    1SOL    HW2 2566   2.994   1.591   1.137 -0.3899  1.1497  0.1768
    1SOL    HW3 2567   2.907   1.552   1.020  0.9824 -1.4268 -0.0189
    1SOL    MW4 2568   2.917   1.565   1.105  0.1390 -0.0900 -0.1032
    1SOL     OW 2569   2.689   1.689   1.231 -0.4757  0.3643  0.1638
    1SOL    HW2 2570   2.760   1.640   1.190  0.2039  1.6644 -0.2432
    1SOL    HW3 2571   2.609   1.641   1.205  0.2604 -1.3673  1.0132
    1SOL    MW4 2572   2.687   1.676   1.222 -0.2890  0.3073  0.2222
    1SOL     OW 2573   2.646   1.942   1.058 -0.0379 -0.3243 -0.1224
    1SOL    HW2 2574   2.722   1.987   1.095  0.8965 -1.1891 -0.9409
    1SOL    HW3 2575   2.654   1.852   1.089  0.1191 -0.7804 -1.4426
    1SOL    MW4 2576   2.657   1.936   1.067  0.1061 -0.4985 -0.4046
    1SOL     OW 2577   2.860   2.052   1.208  0.1325 -0.1655  0.5562
    1SOL    HW2 2578   2.887   2.043   1.300  1.2186 -0.2707  0.2424
    1SOL    HW3 2579   2.889   2.140   1.183  0.5975 -0.4488  0.0803
    1SOL    MW4 2580   2.868   2.063   1.217  0.3371 -0.2170  0.4522
    1SOL     OW 2581   2.909   2.323   1.121  0.0582  0.3150 -0.1704
    1SOL    HW2 2582   2.985   2.355   1.170 -0.0651  0.7017 -0.2360
    1SOL    HW3 2583   2.835   2.372   1.157 -0.4094 -1.2419  1.0602
    1SOL    MW4 2584   2.909   2.334   1.132 -0.0198  0.1605 -0.0168
    1SOL     OW 2585   2.665   2.447   1.197  0.3588  0.1571 -0.0666
    1SOL    HW2 2586   2.651   2.454   1.291  0.1540 -0.3832 -0.0535
    1SOL    HW3 2587   2.585   2.405   1.164 -0.3419  1.9587 -0.7132
    1SOL    MW4 2588   2.652   2.442   1.205  0.2394  0.3235 -0.1502
    1SOL     OW 2589   2.657   2.722   1.131  0.4226  0.0239  0.4208
    1SOL    HW2 2590   2.648   2.634   1.168  0.3033 -0.4117 -0.6041
    1SOL    HW3 2591   2.586   2.772   1.169 -0.1233 -0.6040  0.2367
    1SOL    MW4 2592   2.647   2.717   1.141  0.3350 -0.1163  0.2612
    1SOL     OW 2593   2.911   2.856   1.196 -0.0319 -0.1445  0.2191
    1SOL    HW2 2594   2.887   2.862   1.288  0.2832  1.6816  0.2074
    1SOL    HW3 2595   2.832   2.824   1.153  0.0125 -1.5920  1.1952
    1SOL    MW4 2596   2.897   2.853   1.202  0.0157 -0.0949  0.3464
    1SOL     OW 2597   2.929   3.116   1.122  0.3287 -0.0537 -0.4050
    1SOL    HW2 2598   2.936   3.022   1.139 -2.8280 -0.2046  0.4210
    1SOL    HW3 2599   2.912   3.122   1.028  1.2542 -0.2527 -0.5883
    1SOL    MW4 2600   2.927   3.104   1.112  0.0341 -0.1001 -0.3201
    1SOL     OW 2601   2.680   3.223   1.225 -0.6453  0.1221  0.5295
    1SOL    HW2 2602   2.763   3.190   1.189  0.0700  1.6254  0.7401
    1SOL    HW3 2603   2.613   3.169   1.184  0.2424  0.7886 -1.9144
    1SOL    MW4 2604   2.682   3.211   1.215 -0.4337  0.4084  0.2350
    1SOL     OW 2605   2.712   3.483   1.100  0.2760  0.1838 -0.2489
    1SOL    HW2 2606   2.705   3.395   1.135  0.3634 -0.4165 -1.7195
    1SOL    HW3 2607   2.640   3.531   1.141  0.6676 -0.3599  1.1177
    1SOL    MW4 2608   2.702   3.478   1.110  0.3395  0.0329 -0.2626
    1SOL     OW 2609   2.930   3.607   1.229  0.0715 -0.2024 -0.6854
    1SOL    HW2 2610   3.014   3.569   1.203 -0.2710 -0.3619 -1.5663
    1SOL    HW3 2611   2.866   3.538   1.210 -0.3311  0.1439 -0.5878
    1SOL    MW4 2612   2.933   3.593   1.223 -0.0272 -0.1779 -0.7888
    1SOL     OW 2613   2.898   3.846   1.112 -0.4866  0.1283  0.4610
    1SOL    HW2 2614   2.971   3.898   1.145  0.6488 -0.4155 -1.0933
    1SOL    HW3 2615   2.911   3.759   1.150  0.0355 -0.1278 -0.2830
    1SOL    MW4 2616   2.910   3.841   1.121 -0.2680  0.0229  0.1578
    1SOL     OW 2617   2.707   4.011   1.228  0.1589 -0.1130  0.1548
    1SOL    HW2 2618   2.779   3.962   1.189 -0.5131 -1.2948  0.3930
    1SOL    HW3 2619   2.628   3.975   1.187 -0.3004  1.3753 -0.3350
    1SOL    MW4 2620   2.706   4.000   1.217  0.0095 -0.0725  0.1216
    1SOL     OW 2621   2.681   4.268   1.116  0.0661 -0.5517  0.1098
    1SOL    HW2 2622   2.682   4.184   1.162 -0.8447  0.3945  1.9193
    1SOL    HW3 2623   2.615   4.320   1.162 -0.1446  0.7960 -1.6514
    1SOL    MW4 2624   2.672   4.264   1.128 -0.0820 -0.2494  0.1161
    1SOL     OW 2625   2.909   4.366   1.272 -0.0687  0.0449  0.3620
    1SOL    HW2 2626   2.983   4.341   1.216 -0.8342  0.3128 -0.7935
    1SOL    HW3 2627   2.833   4.329   1.228 -0.4570 -1.6094  2.4090
    1SOL    MW4 2628   2.909   4.358   1.258 -0.2210 -0.1378  0.4796
    1SOL     OW 2629   3.326   0.011   1.113  0.0946  0.4448 -0.0236
    1SOL    HW2 2630   3.405   0.039   1.159 -0.7718 -0.6724  2.2073
    1SOL    HW3 2631   3.257   0.067   1.148 -0.7408 -1.0417  0.7165
    1SOL    MW4 2632   3.328   0.022   1.123 -0.1299  0.1013  0.3684
    1SOL     OW 2633   3.095   0.152   1.211 -0.0566  0.0043 -0.1435
    1SOL    HW2 2634   3.098   0.139   1.306 -0.8184 -0.0437 -0.1208
    1SOL    HW3 2635   3.019   0.101   1.183 -0.1807  0.4977 -0.7022
    1SOL    MW4 2636   3.086   0.144   1.220 -0.1736  0.0630 -0.2142
    1SOL     OW 2637   3.124   0.418   1.107  0.1401 -0.1722 -0.0629
    1SOL    HW2 2638   3.112   0.324   1.121 -1.0328  0.0894  0.7674
    1SOL    HW3 2639   3.052   0.459   1.155  0.3053  1.1291 -0.8995
    1SOL    MW4 2640   3.113   0.411   1.115  0.0074  0.0340 -0.0638
    1SOL     OW 2641   3.342   0.491   1.263  0.3885  0.4640 -0.6044
    1SOL    HW2 2642   3.367   0.580   1.237 -0.4286  0.5987 -0.9508
    1SOL    HW3 2643   3.268   0.470   1.206  0.5510 -0.4198 -0.4881
    1SOL    MW4 2644   3.336   0.500   1.252  0.3021  0.3652 -0.6349
    1SOL     OW 2645   3.387   0.754   1.161 -0.0635  0.1725  0.4430
    1SOL    HW2 2646   3.392   0.744   1.066  0.4297  0.0095  0.4857
    1SOL    HW3 2647   3.305   0.802   1.175 -0.3484 -0.1597 -0.0338
    1SOL    MW4 2648   3.377   0.759   1.150 -0.0360  0.1072  0.3858
    1SOL     OW 2649   3.182   0.924   1.219  0.2977  0.3352 -0.4223
    1SOL    HW2 2650   3.171   0.950   1.310  0.7719  1.7546 -0.7532
    1SOL    HW3 2651   3.170   1.005   1.170  2.1549 -0.0024 -1.4773
    1SOL    MW4 2652   3.179   0.938   1.224  0.6056  0.4779 -0.6050
    1SOL     OW 2653   3.138   1.166   1.087 -0.1425 -0.5327 -0.1625
    1SOL    HW2 2654   3.209   1.219   1.123  0.4081 -1.0438 -0.4808
    1SOL    HW3 2655   3.058   1.215   1.106  0.2346 -0.3269  0.8763
    1SOL    MW4 2656   3.137   1.179   1.094 -0.0203 -0.5730 -0.0674
    1SOL     OW 2657   3.364   1.288   1.181 -0.4861  0.2954  0.5857
    1SOL    HW2 2658   3.353   1.278   1.275 -0.4609  1.3874  0.7038
    1SOL    HW3 2659   3.370   1.382   1.167  0.2814  0.1021 -0.4216
    1SOL    MW4 2660   3.363   1.299   1.191 -0.3815  0.4139  0.4684
    1SOL     OW 2661   3.352   1.549   1.075  0.6199 -0.0930  0.2000
    1SOL    HW2 2662   3.421   1.606   1.108  0.5386 -0.2112  0.5769
    1SOL    HW3 2663   3.271   1.594   1.098  0.5629 -0.1715  0.1529
    1SOL    MW4 2664   3.351   1.562   1.082  0.6013 -0.1189  0.2435
    1SOL     OW 2665   3.157   1.684   1.205  0.2249 -0.0760 -0.3850
    1SOL    HW2 2666   3.139   1.683   1.299  2.6060  2.0317  0.1276
    1SOL    HW3 2667   3.128   1.770   1.175  0.4226 -0.3464 -1.3894
    1SOL    MW4 2668   3.151   1.695   1.213  0.5651  0.1663 -0.4499
    1SOL     OW 2669   3.088   1.922   1.111  0.1315 -0.3470 -0.3140
    1SOL    HW2 2670   3.153   1.970   1.162  0.3137  0.5575 -1.3862
    1SOL    HW3 2671   3.004   1.954   1.143  0.2450  0.1160 -0.4782
    1SOL    MW4 2672   3.085   1.932   1.122  0.1707 -0.1665 -0.4771
    1SOL     OW 2673   3.325   2.042   1.178 -0.1577 -0.3759  0.3446
    1SOL    HW2 2674   3.412   2.017   1.144 -1.5531 -2.4436 -1.8669
    1SOL    HW3 2675   3.314   2.132   1.150  1.4915  0.0975  1.1165
    1SOL    MW4 2676   3.335   2.050   1.169 -0.1242 -0.5863  0.1546
    1SOL     OW 2677   3.342   2.309   1.100  0.2445  0.1870 -0.0676
    1SOL    HW2 2678   3.421   2.342   1.142  0.3914  1.5676 -1.3706
    1SOL    HW3 2679   3.270   2.357   1.141  0.4374  1.9841 -1.7834
    1SOL    MW4 2680   3.343   2.320   1.111  0.2894  0.6063 -0.4658
    1SOL     OW 2681   3.133   2.445   1.235 -0.2774  0.2187  0.3661
    1SOL    HW2 2682   3.125   2.465   1.329  1.8773  0.9104  0.4345
    1SOL    HW3 2683   3.159   2.528   1.195 -1.7289  0.0523 -0.9378
    1SOL    MW4 2684   3.135   2.458   1.242 -0.1843  0.2878  0.2031
    1SOL     OW 2685   3.160   2.708   1.142  0.0584  0.0854 -0.0174
    1SOL    HW2 2686   3.071   2.736   1.163 -0.7819 -3.0811  0.9055
    1SOL    HW3 2687   3.167   2.718   1.047 -1.5091 -0.2133 -0.1754
    1SOL    MW4 2688   3.149   2.713   1.132 -0.2594 -0.3719  0.0836
    1SOL     OW 2689   3.339   2.886   1.256 -0.3479 -0.3797 -0.0925
    1SOL    HW2 2690   3.347   2.968   1.208 -1.9224 -0.3340 -0.3086
    1SOL    HW3 2691   3.269   2.839   1.212 -0.1433 -1.4105  0.6526
    1SOL    MW4 2692   3.331   2.890   1.244 -0.5286 -0.5095 -0.0228
    1SOL     OW 2693   3.410   3.123   1.104  0.3209 -0.2002 -0.1460
    1SOL    HW2 2694   3.475   3.164   1.162  0.3776  0.6534 -0.8045
    1SOL    HW3 2695   3.326   3.157   1.135  0.1807 -1.2310  0.6448
    1SOL    MW4 2696   3.408   3.133   1.116  0.3102 -0.2236 -0.1284
    1SOL     OW 2697   3.170   3.213   1.215  0.2811 -0.5897  0.3533
    1SOL    HW2 2698   3.147   3.200   1.308 -0.0219 -0.1748  0.3353
    1SOL    HW3 2699   3.091   3.187   1.168  0.4640 -0.8768  0.2079
    1SOL    MW4 2700   3.156   3.208   1.221  0.2654 -0.5727  0.3318
    1SOL     OW 2701   3.143   3.479   1.131  0.2728 -0.2326 -0.6711
    1SOL    HW2 2702   3.219   3.530   1.159 -0.5438  0.6759 -0.0827
    1SOL    HW3 2703   3.151   3.396   1.179 -0.5120  0.8814  1.4850
    1SOL    MW4 2704   3.154   3.475   1.141  0.0618  0.0343 -0.3090
    1SOL     OW 2705   3.367   3.630   1.205 -0.0409  0.2454  0.2979
    1SOL    HW2 2706   3.364   3.622   1.301  0.1320 -0.0968  0.2787
    1SOL    HW3 2707   3.448   3.585   1.181 -0.7369 -0.8198 -0.1209
    1SOL    MW4 2708   3.377   3.623   1.215 -0.1099  0.0596  0.2401
    1SOL     OW 2709   3.392   3.907   1.148 -0.4569  0.0520 -0.0017
    1SOL    HW2 2710   3.370   3.816   1.166  0.5595 -0.2113 -0.1169
    1SOL    HW3 2711   3.307   3.952   1.149 -0.8174 -0.6363  1.4998
    1SOL    MW4 2712   3.378   3.901   1.151 -0.3705 -0.0737  0.1813
    1SOL     OW 2713   3.111   4.012   1.179 -0.3321 -0.4215 -0.1670
    1SOL    HW2 2714   3.119   4.002   1.274  1.3548  0.2583 -0.2127
    1SOL    HW3 2715   3.099   4.106   1.166  1.4012 -0.2495 -0.7149
    1SOL    MW4 2716   3.110   4.023   1.190  0.1190 -0.3090 -0.2455
    1SOL     OW 2717   3.102   4.309   1.099 -0.3615 -0.3065 -0.2568
    1SOL    HW2 2718   3.179   4.357   1.129 -1.2354  0.5066  0.7051
    1SOL    HW3 2719   3.112   4.304   1.004 -0.1027  1.4899 -0.3386
    1SOL    MW4 2720   3.114   4.314   1.091 -0.4427  0.0377 -0.1407
    1SOL     OW 2721   3.324   4.423   1.221 -0.1302 -0.4196 -0.1304
    1SOL    HW2 2722   3.411   4.398   1.193  0.1007  0.1451  0.0702
    1SOL    HW3 2723   3.317   4.516   1.199  0.4229  0.3059  2.5649
    1SOL    MW4 2724   3.334   4.432   1.214 -0.0267 -0.2489  0.2517
    1SOL     OW 2725   3.826   0.002   1.120  0.3322 -0.1077  0.1332
    1SOL    HW2 2726   3.823  -0.088   1.152 -1.6638 -0.7091 -1.6511
    1SOL    HW3 2727   3.826  -0.006   1.024  0.2455  1.7822 -0.0481
    1SOL    MW4 2728   3.826  -0.011   1.111  0.0572  0.0624 -0.1260
    1SOL     OW 2729   3.593   0.101   1.223 -0.0407 -0.1219  0.4723
    1SOL    HW2 2730   3.568   0.188   1.190 -0.5877 -0.9530 -1.3413
    1SOL    HW3 2731   3.682   0.088   1.191  0.0918 -0.1649  0.8628
    1SOL    MW4 2732   3.602   0.111   1.214 -0.0951 -0.2372  0.2846
    1SOL     OW 2733   3.557   0.350   1.141 -0.0243 -0.0216 -0.4338
    1SOL    HW2 2734   3.630   0.395   1.183 -0.1693 -0.0264 -0.1758
    1SOL    HW3 2735   3.479   0.383   1.185 -0.3475  1.6088 -2.1858
    1SOL    MW4 2736   3.556   0.360   1.152 -0.0863  0.1929 -0.6310
    1SOL     OW 2737   3.785   0.532   1.198  0.7204 -0.4766  0.0352
    1SOL    HW2 2738   3.859   0.480   1.167  0.5161 -0.3370 -0.6980
    1SOL    HW3 2739   3.809   0.623   1.177 -0.3084 -0.5632 -1.5837
    1SOL    MW4 2740   3.798   0.537   1.191  0.5574 -0.4696 -0.2751
    1SOL     OW 2741   3.841   0.805   1.144  0.0622 -0.5484  0.1753
    1SOL    HW2 2742   3.919   0.853   1.173  0.1468 -0.4224 -0.2565
    1SOL    HW3 2743   3.767   0.853   1.182  0.1452 -0.0607 -0.2754
    1SOL    MW4 2744   3.841   0.817   1.153  0.0844 -0.4674  0.0589
    1SOL     OW 2745   3.601   0.905   1.252 -0.2798 -0.1997  0.1175
    1SOL    HW2 2746   3.583   0.988   1.209  0.6635  0.2182  0.5232
    1SOL    HW3 2747   3.527   0.849   1.228 -0.2919  0.3517 -1.1834
    1SOL    MW4 2748   3.589   0.908   1.243 -0.1571 -0.0718 -0.0006
    1SOL     OW 2749   3.574   1.139   1.121 -0.1776 -0.0445 -0.1634
    1SOL    HW2 2750   3.651   1.181   1.160 -0.0839  1.2657 -1.6732
    1SOL    HW3 2751   3.500   1.194   1.146 -0.2158  0.3802 -1.1742
    1SOL    MW4 2752   3.575   1.152   1.129 -0.1705  0.1844 -0.4960
    1SOL     OW 2753   3.789   1.282   1.210 -0.0905  0.2354  0.1756
    1SOL    HW2 2754   3.809   1.277   1.304  0.1949 -1.0976  0.0570
    1SOL    HW3 2755   3.782   1.376   1.192  0.7526  0.5399  1.3468
    1SOL    MW4 2756   3.791   1.294   1.220  0.0582  0.0997  0.3145
    1SOL     OW 2757   3.780   1.539   1.124  0.0013  0.0873 -0.5456
    1SOL    HW2 2758   3.858   1.584   1.157 -0.6146 -0.0030  1.0873
    1SOL    HW3 2759   3.788   1.543   1.029  0.4872  2.7306 -0.4354
    1SOL    MW4 2760   3.791   1.545   1.116 -0.0160  0.4241 -0.3155
    1SOL     OW 2761   3.557   1.686   1.186 -0.0318 -0.1749 -0.2028
    1SOL    HW2 2762   3.572   1.777   1.160  0.7672 -0.5724 -1.1725
    1SOL    HW3 2763   3.638   1.641   1.162 -0.4176 -1.1432  0.2811
    1SOL    MW4 2764   3.570   1.692   1.180  0.0231 -0.3550 -0.2669
    1SOL     OW 2765   3.571   1.948   1.099 -0.3855 -0.3461 -0.0292
    1SOL    HW2 2766   3.648   2.001   1.118 -1.1981  0.6699  0.5056
    1SOL    HW3 2767   3.568   1.943   1.004 -0.5838  1.0253 -0.1105
    1SOL    MW4 2768   3.581   1.955   1.089 -0.5193 -0.0311  0.0306
    1SOL     OW 2769   4.022   1.920   1.107 -0.2471  0.4913  0.0598
    1SOL    HW2 2770   3.941   1.964   1.134 -0.8776 -0.1576 -0.7521
    1SOL    HW3 2771   4.013   1.830   1.138  0.7133  0.7212  1.0468
    1SOL    MW4 2772   4.010   1.914   1.115 -0.2036  0.4359  0.0829
    1SOL     OW 2773   3.796   2.084   1.198  0.3385  0.2911  0.4505
    1SOL    HW2 2774   3.793   2.172   1.159  0.5334 -0.4110 -1.2255
    1SOL    HW3 2775   3.805   2.099   1.292 -0.8068  2.0734  0.2999
    1SOL    MW4 2776   3.797   2.098   1.205  0.2129  0.4337  0.2096
    1SOL     OW 2777   3.560   2.461   1.199  0.0556  0.3391  0.1552
    1SOL    HW2 2778   3.578   2.468   1.293  1.8176 -0.8135 -0.0564
    1SOL    HW3 2779   3.645   2.440   1.160 -1.3078 -3.2083 -1.2048
    1SOL    MW4 2780   3.574   2.459   1.206  0.1080 -0.2811 -0.0521
    1SOL     OW 2781   3.568   2.734   1.134 -0.1152 -0.2666 -0.2579
    1SOL    HW2 2782   3.551   2.641   1.145  3.2143 -0.8966  0.3390
    1SOL    HW3 2783   3.528   2.776   1.211 -0.0158 -1.4376  0.4343
    1SOL    MW4 2784   3.561   2.728   1.146  0.3369 -0.5043 -0.0877
    1SOL     OW 2785   3.807   2.843   1.193 -0.2295 -0.1493 -0.1819
    1SOL    HW2 2786   3.812   2.844   1.289 -2.1440  0.3217 -0.0708
    1SOL    HW3 2787   3.720   2.807   1.174 -0.0083  0.1039 -1.7336
    1SOL    MW4 2788   3.796   2.838   1.203 -0.4530 -0.0534 -0.3721
    1SOL     OW 2789   3.833   3.107   1.122  1.1600 -0.4836 -0.1134
    1SOL    HW2 2790   3.834   3.020   1.162  0.6051 -0.2943  0.3158
    1SOL    HW3 2791   3.836   3.090   1.028 -0.0267 -1.0054 -0.0606
    1SOL    MW4 2792   3.834   3.093   1.115  0.9303 -0.5276 -0.0497
    1SOL     OW 2793   3.617   3.236   1.235  0.1571 -0.0636  0.2263
    1SOL    HW2 2794   3.620   3.321   1.190 -1.9182 -0.1058 -0.0242
    1SOL    HW3 2795   3.676   3.180   1.184 -1.9149 -0.0152 -2.3176
    1SOL    MW4 2796   3.625   3.240   1.222 -0.3903 -0.0627 -0.1423
    1SOL     OW 2797   3.614   3.510   1.111 -0.3904 -0.3541  0.5342
    1SOL    HW2 2798   3.698   3.545   1.141  0.8955 -3.2785  0.5016
    1SOL    HW3 2799   3.627   3.492   1.018 -1.9235  1.5424 -0.0858
    1SOL    MW4 2800   3.627   3.513   1.103 -0.4230 -0.4900  0.4481
    1SOL     OW 2801   3.838   3.625   1.206 -0.3964  0.3377  0.1236
    1SOL    HW2 2802   3.837   3.603   1.299 -1.7235  1.5451  0.4223
    1SOL    HW3 2803   3.818   3.719   1.204 -0.7839  0.2315 -1.3882
    1SOL    MW4 2804   3.835   3.634   1.218 -0.6227  0.4833 -0.0366
    1SOL     OW 2805   3.828   3.925   1.167  0.3144  0.1291 -0.1084
    1SOL    HW2 2806   3.750   3.974   1.194 -1.4772 -2.7151 -0.0088
    1SOL    HW3 2807   3.816   3.911   1.074  0.2872 -1.0414  0.0678
    1SOL    MW4 2808   3.816   3.930   1.159  0.0744 -0.4008 -0.0720
    1SOL     OW 2809   3.599   4.056   1.248 -0.5465 -0.4771 -0.1254
    1SOL    HW2 2810   3.602   4.051   1.344 -1.6700 -1.6906 -0.1344
    1SOL    HW3 2811   3.535   3.990   1.223 -1.0967  0.6224 -1.6648
    1SOL    MW4 2812   3.591   4.047   1.258 -0.7672 -0.4921 -0.3297
    1SOL     OW 2813   3.555   4.313   1.128  0.0486  0.1235 -0.5337
    1SOL    HW2 2814   3.555   4.228   1.173 -1.0237  0.0683 -0.6332
    1SOL    HW3 2815   3.578   4.291   1.037  1.5025  0.1520 -0.1922
    1SOL    MW4 2816   3.558   4.299   1.122  0.0989  0.1197 -0.5016
    1SOL     OW 2817   3.814   4.395   1.195 -0.4329 -1.1651  0.1153
    1SOL    HW2 2818   3.822   4.365   1.286  1.4161 -1.0158  0.0047
    1SOL    HW3 2819   3.721   4.383   1.175 -1.0013 -0.5642  2.2480
    1SOL    MW4 2820   3.803   4.389   1.204 -0.2639 -1.0667  0.3819
    1SOL     OW 2821   4.297   0.049   1.129  0.2644  0.1230  0.1024
    1SOL    HW2 2822   4.305  -0.039   1.165 -1.7007 -0.3990 -0.6641
    1SOL    HW3 2823   4.214   0.081   1.164 -0.4669  0.5506 -1.9419
    1SOL    MW4 2824   4.287   0.042   1.138 -0.0916  0.1105 -0.2683
    1SOL     OW 2825   4.057   0.115   1.248 -0.1492  0.1157  0.0031
    1SOL    HW2 2826   4.037   0.090   1.338  0.1071  1.4615  0.4526
    1SOL    HW3 2827   3.981   0.086   1.197 -0.6299  0.0133  0.7763
    1SOL    MW4 2828   4.044   0.108   1.253 -0.1788  0.2797  0.1644
    1SOL     OW 2829   4.039   0.412   1.149  0.3745  0.2225  0.4079
    1SOL    HW2 2830   4.036   0.326   1.191  1.1950  0.1891  0.4026
    1SOL    HW3 2831   4.067   0.394   1.059  1.8544  0.6184  0.7739
    1SOL    MW4 2832   4.043   0.398   1.143  0.6781  0.2703  0.4556
    1SOL     OW 2833   4.258   0.538   1.216 -0.2771 -0.9817 -0.3737
    1SOL    HW2 2834   4.279   0.520   1.307  0.8290  0.0116 -0.4289
    1SOL    HW3 2835   4.183   0.481   1.197 -1.2253 -0.3620  1.4691
    1SOL    MW4 2836   4.251   0.528   1.225 -0.2561 -0.7688 -0.1377
    1SOL     OW 2837   4.272   0.806   1.169  0.3303 -0.4749 -0.1269
    1SOL    HW2 2838   4.260   0.713   1.189  0.7598 -1.0759 -2.5030
    1SOL    HW3 2839   4.365   0.822   1.184 -0.0297 -0.0443  1.7257
    1SOL    MW4 2840   4.283   0.796   1.174  0.3400 -0.4973 -0.1960
    1SOL     OW 2841   4.052   0.940   1.260  0.5162  0.0083 -0.0852
    1SOL    HW2 2842   4.052   0.926   1.355  1.9527 -1.3570 -0.2690
    1SOL    HW3 2843   4.132   0.898   1.229 -0.1657  0.0264 -1.9691
    1SOL    MW4 2844   4.062   0.932   1.268  0.6151 -0.1695 -0.3580
    1SOL     OW 2845   4.006   1.162   1.088  0.1832  0.3448  0.3066
    1SOL    HW2 2846   4.020   1.077   1.130  0.7851  0.5560  0.5378
    1SOL    HW3 2847   3.931   1.199   1.135 -1.8534 -1.2221 -1.6177
    1SOL    MW4 2848   3.998   1.156   1.100 -0.0064  0.1661  0.0832
    1SOL     OW 2849   4.252   1.303   1.205 -0.4481  0.5700  0.2536
    1SOL    HW2 2850   4.234   1.285   1.297 -0.6372 -1.5093 -0.1765
    1SOL    HW3 2851   4.179   1.263   1.158  0.4059  0.3414 -0.9022
    1SOL    MW4 2852   4.240   1.296   1.211 -0.3605  0.2656  0.0443
    1SOL     OW 2853   4.262   1.552   1.094 -0.1733 -0.6887 -0.4470
    1SOL    HW2 2854   4.255   1.467   1.138 -0.1969 -0.1750  0.5725
    1SOL    HW3 2855   4.333   1.597   1.141 -0.3875 -0.0202 -0.7549
    1SOL    MW4 2856   4.271   1.547   1.106 -0.2050 -0.5326 -0.3531
    1SOL     OW 2857   4.009   1.664   1.205  0.2669 -0.2541  0.1850
    1SOL    HW2 2858   4.024   1.660   1.299  0.4869  1.4969  0.2420
    1SOL    HW3 2859   4.080   1.612   1.167 -0.5956 -2.0992  1.0292
    1SOL    MW4 2860   4.021   1.656   1.212  0.1822 -0.2666  0.3039
    1SOL     OW 2861   3.368   1.808   0.484 -0.0691 -0.2620 -0.0621
    1SOL    HW2 2862   3.419   1.800   0.565  1.0275  0.5241 -0.6639
    1SOL    HW3 2863   3.368   1.902   0.465 -1.6164 -0.2606 -0.1675
    1SOL    MW4 2864   3.375   1.819   0.492 -0.1285 -0.1581 -0.1554
    1SOL     OW 2865   4.258   2.038   1.215  0.2937 -0.1028 -0.4662
    1SOL    HW2 2866   4.272   2.121   1.169  0.9554 -0.0664 -0.1982
    1SOL    HW3 2867   4.182   1.999   1.171  0.0953  0.5566 -0.7141
    1SOL    MW4 2868   4.250   2.044   1.203  0.3543 -0.0110 -0.4635
    1SOL     OW 2869   4.306   2.305   1.102  0.2073  0.6109  0.4731
    1SOL    HW2 2870   4.221   2.341   1.128 -0.0383  0.8162 -0.5720
    1SOL    HW3 2871   4.310   2.319   1.007  0.3428 -1.5929  0.1209
    1SOL    MW4 2872   4.295   2.312   1.093  0.1926  0.3469  0.2888
    1SOL     OW 2873   4.079   2.429   1.198 -0.4372  0.0730 -0.2474
    1SOL    HW2 2874   4.083   2.444   1.292  1.9194  0.4090 -0.3908
    1SOL    HW3 2875   4.092   2.515   1.159 -2.5870  0.1390 -0.8991
    1SOL    MW4 2876   4.081   2.442   1.205 -0.4096  0.1259 -0.3523
    1SOL     OW 2877   4.064   2.693   1.130  0.1177 -0.1994 -0.3447
    1SOL    HW2 2878   3.979   2.722   1.162  0.2507 -0.2922  0.0876
    1SOL    HW3 2879   4.070   2.730   1.041 -0.1777  0.1874 -0.2044
    1SOL    MW4 2880   4.054   2.702   1.122  0.0958 -0.1607 -0.2691
    1SOL     OW 2881   4.260   2.874   1.268  0.3834 -0.0406  0.1194
    1SOL    HW2 2882   4.267   2.955   1.217 -0.3805  0.9445  1.5518
    1SOL    HW3 2883   4.203   2.817   1.216 -0.1367  0.8408 -0.2862
    1SOL    MW4 2884   4.253   2.877   1.254  0.2136  0.2060  0.2550
    1SOL     OW 2885   4.258   3.121   1.112  0.3876 -0.3468 -0.3280
    1SOL    HW2 2886   4.180   3.166   1.144  1.5583  0.8349  0.9325
    1SOL    HW3 2887   4.239   3.102   1.020 -1.0389  0.6817 -0.2592
    1SOL    MW4 2888   4.245   3.125   1.104  0.3538 -0.0553 -0.1526
    1SOL     OW 2889   4.052   3.265   1.207 -0.1792  0.3089  0.5260
    1SOL    HW2 2890   4.050   3.257   1.302 -0.4662 -0.1307  0.4803
    1SOL    HW3 2891   3.972   3.223   1.177  0.1847 -0.0479  0.0481
    1SOL    MW4 2892   4.041   3.259   1.215 -0.1688  0.2036  0.4568
    1SOL     OW 2893   4.064   3.506   1.085  0.1404  0.1930 -0.0443
    1SOL    HW2 2894   4.052   3.424   1.132  1.3730  0.1275  0.1801
    1SOL    HW3 2895   3.989   3.560   1.111 -0.6560 -0.8504 -0.1744
    1SOL    MW4 2896   4.053   3.503   1.095  0.1979  0.0467 -0.0318
    1SOL     OW 2897   4.278   3.636   1.230 -0.0894 -0.2495  0.2435
    1SOL    HW2 2898   4.200   3.603   1.185 -0.6139 -0.7459  1.4834
    1SOL    HW3 2899   4.349   3.580   1.199 -0.0035  0.8873 -1.7195
    1SOL    MW4 2900   4.277   3.624   1.220 -0.1473 -0.1650  0.1481
    1SOL     OW 2901   4.313   3.901   1.147  0.0637 -0.2696  0.1636
    1SOL    HW2 2902   4.234   3.947   1.174 -0.8898 -0.9206 -1.4231
    1SOL    HW3 2903   4.305   3.814   1.187  0.0434 -0.2945  0.1056
    1SOL    MW4 2904   4.301   3.895   1.156 -0.0648 -0.3588 -0.0534
    1SOL     OW 2905   4.068   4.036   1.198  0.1787  0.1680  0.2103
    1SOL    HW2 2906   4.078   4.122   1.159 -0.5224 -0.7584 -2.0833
    1SOL    HW3 2907   3.977   4.011   1.179  0.8100 -1.7025 -0.4597
    1SOL    MW4 2908   4.057   4.044   1.191  0.1693 -0.2012 -0.1807
    1SOL     OW 2909   4.078   4.321   1.119  0.1973  0.2580 -0.4363
    1SOL    HW2 2910   3.991   4.345   1.149  0.6116  0.7086  0.4285
    1SOL    HW3 2911   4.073   4.329   1.023 -0.4455  1.1992 -0.3357
    1SOL    MW4 2912   4.066   4.325   1.110  0.1669  0.4416 -0.3089
    1SOL     OW 2913   4.322   4.441   1.216 -0.7060 -0.5188  0.3274
    1SOL    HW2 2914   4.238   4.427   1.173 -1.4216 -0.2149  1.6135
    1SOL    HW3 2915   4.382   4.383   1.170 -0.9697  1.3611 -2.4842
    1SOL    MW4 2916   4.319   4.432   1.205 -0.8349 -0.2308  0.1261
    1SOL     OW 2917   0.240   4.655   1.645 -0.2707  0.4986  0.0402
    1SOL    HW2 2918   0.316   4.685   1.594 -0.1887  0.4898  0.1570
    1SOL    HW3 2919   0.171   4.718   1.623 -0.8533 -0.7207 -1.7106
    1SOL    MW4 2920   0.241   4.668   1.635 -0.3368  0.3362 -0.1754
    1SOL     OW 2921   0.035   0.153   1.535 -0.0515  0.5669  0.4184
    1SOL    HW2 2922  -0.047   0.109   1.558 -0.4429  1.4364  0.7073
    1SOL    HW3 2923   0.028   0.168   1.441  1.0669 -1.9951 -0.1109
    1SOL    MW4 2924   0.023   0.149   1.526  0.0445  0.3436  0.3867
    1SOL     OW 2925   0.011   0.418   1.600  0.5131  0.4456  0.1583
    1SOL    HW2 2926   0.023   0.416   1.695  2.9222  0.9898 -0.1236
    1SOL    HW3 2927   0.017   0.326   1.573 -0.4972  0.2540  0.5419
    1SOL    MW4 2928   0.013   0.405   1.609  0.6981  0.4921  0.1717
    1SOL     OW 2929   0.226   0.522   1.468  0.2510 -0.3142  0.2532
    1SOL    HW2 2930   0.145   0.491   1.508  0.1762 -1.1808 -0.5447
    1SOL    HW3 2931   0.213   0.509   1.374  0.8141  0.7476  0.0161
    1SOL    MW4 2932   0.214   0.516   1.461  0.3154 -0.2884  0.1166
    1SOL     OW 2933   0.221   0.802   1.576  0.3078  0.0828  0.1712
    1SOL    HW2 2934   0.229   0.714   1.540  1.2137  0.2474 -0.0394
    1SOL    HW3 2935   0.289   0.853   1.531 -0.9233  1.1593 -0.5337
    1SOL    MW4 2936   0.231   0.797   1.565  0.2649  0.2466  0.0504
    1SOL     OW 2937   4.472   0.886   1.501  0.0580 -0.4013 -0.1223
    1SOL    HW2 2938   4.472   0.980   1.518  0.3009 -0.2742 -0.8157
    1SOL    HW3 2939   4.552   0.855   1.543 -0.0552 -0.3165  0.1643
    1SOL    MW4 2940   4.482   0.894   1.509  0.0749 -0.3734 -0.1761
    1SOL     OW 2941   4.463   1.170   1.579  0.7545  0.0251  0.0760
    1SOL    HW2 2942   4.477   1.169   1.674 -0.3206  0.0731  0.2350
    1SOL    HW3 2943   4.541   1.214   1.545  1.7446 -1.1009  0.8276
    1SOL    MW4 2944   4.475   1.176   1.587  0.7434 -0.1171  0.1961
    1SOL     OW 2945   0.193   1.294   1.441 -0.0944 -0.1397 -0.5200
    1SOL    HW2 2946   0.258   1.246   1.493 -0.6574 -0.3018  0.0531
    1SOL    HW3 2947   0.194   1.383   1.477 -0.1964 -0.1491 -0.4916
    1SOL    MW4 2948   0.202   1.299   1.453 -0.1822 -0.1624 -0.4405
    1SOL     OW 2949   0.223   1.547   1.543 -0.1701 -0.2656 -0.2304
    1SOL    HW2 2950   0.218   1.538   1.638  0.6440 -0.0457 -0.1646
    1SOL    HW3 2951   0.153   1.609   1.521  0.3942  0.5905  0.3623
    1SOL    MW4 2952   0.213   1.554   1.552  0.0118 -0.1236 -0.1435
    1SOL     OW 2953   4.463   1.671   1.502  0.5071 -0.3942  0.0975
    1SOL    HW2 2954   4.475   1.762   1.526  0.3225 -0.3105 -0.1226
    1SOL    HW3 2955   4.475   1.670   1.407 -1.0210 -0.3388 -0.1109
    1SOL    MW4 2956   4.466   1.683   1.492  0.2813 -0.3759  0.0410
    1SOL     OW 2957   0.001   1.948   1.551  0.1992  0.6471 -0.4431
    1SOL    HW2 2958   0.014   1.946   1.646 -0.0590 -1.0288 -0.4125
    1SOL    HW3 2959  -0.086   1.987   1.539  0.3799  1.1855 -0.0111
    1SOL    MW4 2960  -0.009   1.953   1.562  0.1893  0.4972 -0.3821
    1SOL     OW 2961   0.243   2.051   1.440 -0.2948  0.1866  0.0748
    1SOL    HW2 2962   0.162   2.021   1.482 -0.5755  0.8477  0.0128
    1SOL    HW3 2963   0.221   2.054   1.347  0.7689 -2.6896 -0.3050
    1SOL    MW4 2964   0.229   2.048   1.433 -0.1915 -0.1056  0.0166
    1SOL     OW 2965   0.199   2.302   1.572  0.5782 -0.0405 -0.2877
    1SOL    HW2 2966   0.206   2.297   1.668  0.6398  0.7916 -0.2503
    1SOL    HW3 2967   0.204   2.211   1.544 -0.0076 -0.3368  0.5405
    1SOL    MW4 2968   0.201   2.289   1.581  0.5091  0.0300 -0.1733
    1SOL     OW 2969   4.486   2.475   1.530  0.0244  0.2164  0.4963
    1SOL    HW2 2970   4.408   2.432   1.565  0.5921 -1.2226  0.0029
    1SOL    HW3 2971   4.553   2.407   1.529  1.1412  1.3047  0.4036
    1SOL    MW4 2972   4.485   2.461   1.534  0.2465  0.1702  0.4189
    1SOL     OW 2973   0.026   2.749   1.622  0.0088 -0.0381  0.1929
    1SOL    HW2 2974  -0.056   2.797   1.619 -0.2894 -0.4529  1.3765
    1SOL    HW3 2975   0.004   2.662   1.589 -0.0752 -0.2172  0.7235
    1SOL    MW4 2976   0.012   2.744   1.617 -0.0417 -0.1166  0.4190
    1SOL     OW 2977   0.226   2.865   1.477  0.2313 -0.0039 -0.1772
    1SOL    HW2 2978   0.301   2.813   1.505  1.0109  1.0317 -0.3208
    1SOL    HW3 2979   0.152   2.827   1.523  0.7485 -1.4310 -0.5085
    1SOL    MW4 2980   0.226   2.853   1.487  0.4024 -0.0556 -0.2398
    1SOL     OW 2981   0.242   3.097   1.619  0.2491 -0.3760  0.0059
    1SOL    HW2 2982   0.171   3.146   1.578  0.2079 -0.7237 -0.3531
    1SOL    HW3 2983   0.249   3.017   1.566  0.2458 -0.8029  0.6437
    1SOL    MW4 2984   0.233   3.093   1.606  0.2432 -0.4783  0.0427
    1SOL     OW 2985   0.018   3.212   1.504 -0.7428 -0.1122  0.2788
    1SOL    HW2 2986   0.017   3.305   1.529 -1.7955 -0.1605  0.4563
    1SOL    HW3 2987   0.021   3.213   1.409 -1.9935  0.1149  0.2397
    1SOL    MW4 2988   0.018   3.225   1.495 -1.0467 -0.0885  0.2972
    1SOL     OW 2989   0.017   3.473   1.615  0.1914 -0.0957 -0.2402
    1SOL    HW2 2990  -0.003   3.477   1.709  2.2077 -0.7511  0.2479
    1SOL    HW3 2991  -0.055   3.520   1.573 -0.6122  0.4252  1.6519
    1SOL    MW4 2992   0.004   3.480   1.622  0.3514 -0.1137  0.0738
    1SOL     OW 2993   0.207   3.635   1.512 -0.2809  0.1886 -0.1293
    1SOL    HW2 2994   0.198   3.726   1.540 -0.2070  0.4666 -0.9787
    1SOL    HW3 2995   0.139   3.588   1.561 -1.2753  0.9476 -0.7463
    1SOL    MW4 2996   0.197   3.641   1.522 -0.4024  0.3254 -0.3228
    1SOL     OW 2997   0.221   3.913   1.570 -0.1293  0.2002 -0.1247
    1SOL    HW2 2998   0.208   3.908   1.664  0.4116 -1.2113 -0.1289
    1SOL    HW3 2999   0.305   3.957   1.559 -0.5888  1.1399  0.0234
    1SOL    MW4 3000   0.230   3.918   1.581 -0.1185  0.1380 -0.1057
    1SOL     OW 3001   0.023   4.054   1.453 -0.0971 -0.3490 -0.0169
    1SOL    HW2 3002   0.009   4.128   1.512 -1.7660 -0.9122  0.3101
    1SOL    HW3 3003   0.084   3.997   1.501 -0.3678 -0.1337  0.5987
    1SOL    MW4 3004   0.029   4.056   1.467 -0.3530 -0.3943  0.1076
    1SOL     OW 3005   4.474   4.266   1.620  0.3381 -0.3290  0.2376
    1SOL    HW2 3006   4.476   4.258   1.715  0.1301  2.2501  0.5004
    1SOL    HW3 3007   4.394   4.315   1.602 -0.5620 -2.2971 -1.4273
    1SOL    MW4 3008   4.463   4.271   1.630  0.1917 -0.2484  0.0526
    1SOL     OW 3009   0.216   4.387   1.502  0.3739 -0.2009  0.5094
    1SOL    HW2 3010   0.140   4.341   1.536  0.3174 -0.4689  0.0186
    1SOL    HW3 3011   0.218   4.470   1.550  0.1410 -0.4640  0.9734
    1SOL    MW4 3012   0.206   4.392   1.513  0.3357 -0.2708  0.5057
    1SOL     OW 3013   0.668   4.667   1.626  0.0547 -0.0137  0.3242
    1SOL    HW2 3014   0.732   4.726   1.586 -0.6708  0.7567  0.2777
    1SOL    HW3 3015   0.584   4.695   1.590 -0.5350  0.2836  1.9106
    1SOL    MW4 3016   0.665   4.678   1.616 -0.1188  0.1271  0.5274
    1SOL     OW 3017   0.449   0.101   1.485  0.0481  0.2726  0.1903
    1SOL    HW2 3018   0.457   0.189   1.521  1.4591  0.2477 -0.0505
    1SOL    HW3 3019   0.455   0.113   1.391  0.0462 -0.0669  0.1463
    1SOL    MW4 3020   0.451   0.114   1.478  0.2340  0.2245  0.1526
    1SOL     OW 3021   0.448   0.373   1.599  0.1307 -0.2050  0.1716
    1SOL    HW2 3022   0.526   0.404   1.555  0.7684 -0.6421  0.9831
    1SOL    HW3 3023   0.379   0.433   1.571  1.1328  1.3483  0.9479
    1SOL    MW4 3024   0.449   0.385   1.589  0.3471 -0.0578  0.3811
    1SOL     OW 3025   0.674   0.513   1.487 -0.1063  0.5246  0.0863
    1SOL    HW2 3026   0.646   0.598   1.521 -0.2446  0.9969 -1.1711
    1SOL    HW3 3027   0.687   0.528   1.393 -0.0937 -0.8287 -0.1401
    1SOL    MW4 3028   0.672   0.526   1.479 -0.1229  0.4084 -0.1094
    1SOL     OW 3029   0.631   0.749   1.626  0.2771  0.0526 -0.0674
    1SOL    HW2 3030   0.640   0.729   1.719 -0.0579 -0.7175 -0.1999
    1SOL    HW3 3031   0.717   0.780   1.599  0.1692  1.0496  0.6804
    1SOL    MW4 3032   0.643   0.751   1.635  0.2187  0.0826  0.0137
    1SOL     OW 3033   0.494   0.925   1.466  0.3770  0.7905  0.1503
    1SOL    HW2 3034   0.476   1.008   1.511 -0.7239 -0.5694  2.3513
    1SOL    HW3 3035   0.537   0.871   1.533 -1.8238 -1.5030 -0.1963
    1SOL    MW4 3036   0.497   0.928   1.481 -0.0586  0.3085  0.3949
    1SOL     OW 3037   0.415   1.174   1.573 -0.1642  0.2557 -0.2753
    1SOL    HW2 3038   0.500   1.210   1.547 -0.1995  0.5873  0.0688
    1SOL    HW3 3039   0.417   1.175   1.669 -0.3380 -0.2489 -0.2650
    1SOL    MW4 3040   0.427   1.179   1.582 -0.1917  0.2329 -0.2285
    1SOL     OW 3041   0.659   1.264   1.506 -0.0133 -0.4558  0.3984
    1SOL    HW2 3042   0.655   1.353   1.539  1.5638 -0.5760  0.9677
    1SOL    HW3 3043   0.667   1.273   1.411  0.9495  0.0241  0.5268
    1SOL    MW4 3044   0.660   1.277   1.498  0.3219 -0.4083  0.4905
    1SOL     OW 3045   0.660   1.520   1.591 -0.1984  0.2106  0.0060
    1SOL    HW2 3046   0.727   1.581   1.561  0.8800 -0.8686  0.2180
    1SOL    HW3 3047   0.578   1.560   1.562  0.3877  2.3171  1.0864
    1SOL    MW4 3048   0.658   1.534   1.583  0.0212  0.3461  0.1764
    1SOL     OW 3049   0.443   1.667   1.440 -0.0063  0.0595  0.2435
    1SOL    HW2 3050   0.445   1.752   1.485 -0.1745 -0.6526  1.6319
    1SOL    HW3 3051   0.362   1.626   1.469  0.8013 -1.2004  0.7814
    1SOL    MW4 3052   0.433   1.673   1.450  0.0781 -0.2006  0.4977
    1SOL     OW 3053   0.462   1.923   1.561  0.0971  0.1597  0.2742
    1SOL    HW2 3054   0.443   1.920   1.655  1.0695  2.9436  0.5858
    1SOL    HW3 3055   0.387   1.967   1.522  0.5909  0.7501 -0.0102
    1SOL    MW4 3056   0.449   1.928   1.568  0.2906  0.6049  0.2778
    1SOL     OW 3057   0.673   2.101   1.515  0.1223  0.1885  0.1143
    1SOL    HW2 3058   0.752   2.059   1.550 -0.4052  0.2130  1.3468
    1SOL    HW3 3059   0.604   2.037   1.528  0.1555 -0.3342 -2.1196
    1SOL    MW4 3060   0.675   2.087   1.522  0.0570  0.1225 -0.0178
    1SOL     OW 3061   0.689   2.351   1.625 -0.3397  0.1438  0.3148
    1SOL    HW2 3062   0.610   2.400   1.601 -0.4089 -0.3995 -0.5850
    1SOL    HW3 3063   0.681   2.268   1.579 -0.1490 -0.6766  1.7136
    1SOL    MW4 3064   0.678   2.347   1.616 -0.3237 -0.0360  0.3806
    1SOL     OW 3065   0.433   2.454   1.499 -0.3483  0.1221  0.3893
    1SOL    HW2 3066   0.430   2.542   1.536 -1.2759 -0.0571  0.7524
    1SOL    HW3 3067   0.351   2.413   1.526 -0.6013 -0.3470 -1.0204
    1SOL    MW4 3068   0.422   2.460   1.507 -0.5040  0.0365  0.2514
    1SOL     OW 3069   0.437   2.706   1.618 -0.2340 -0.4380 -0.3611
    1SOL    HW2 3070   0.444   2.719   1.712  0.5592 -0.8498 -0.3543
    1SOL    HW3 3071   0.524   2.729   1.584 -0.7905  0.6513 -1.1095
    1SOL    MW4 3072   0.450   2.711   1.626 -0.2027 -0.3486 -0.4590
    1SOL     OW 3073   0.677   2.823   1.533 -0.9764 -0.4499  0.4090
    1SOL    HW2 3074   0.676   2.914   1.563 -0.2523 -0.5430  0.7179
    1SOL    HW3 3075   0.759   2.788   1.566 -1.0788 -1.1108 -0.0402
    1SOL    MW4 3076   0.687   2.831   1.541 -0.8944 -0.5496  0.3905
    1SOL     OW 3077   0.672   3.100   1.623 -0.1556  0.1712  0.0681
    1SOL    HW2 3078   0.753   3.143   1.595 -0.6620  1.2670  0.2830
    1SOL    HW3 3079   0.602   3.153   1.586 -0.7838 -1.5484 -1.2739
    1SOL    MW4 3080   0.674   3.112   1.615 -0.3053  0.0889 -0.0805
    1SOL     OW 3081   0.463   3.222   1.513  0.0232  0.2316  0.0111
    1SOL    HW2 3082   0.390   3.185   1.562 -0.7864  1.8106  0.0174
    1SOL    HW3 3083   0.447   3.197   1.422  0.1716 -0.5228  0.1916
    1SOL    MW4 3084   0.452   3.214   1.507 -0.0640  0.3402  0.0358
    1SOL     OW 3085   0.442   3.487   1.609 -0.3673  0.2993  0.0268
    1SOL    HW2 3086   0.454   3.400   1.570 -2.9464 -0.4056  0.7157
    1SOL    HW3 3087   0.367   3.523   1.563  1.0877  2.4794 -0.7116
    1SOL    MW4 3088   0.434   3.480   1.598 -0.5156  0.4940  0.0203
    1SOL     OW 3089   0.682   3.629   1.496  0.1095  0.2912 -0.2631
    1SOL    HW2 3090   0.760   3.603   1.545  0.8342  2.0869 -0.4135
    1SOL    HW3 3091   0.609   3.590   1.544  0.9172  0.7312  1.3643
    1SOL    MW4 3092   0.682   3.620   1.509  0.3117  0.5858 -0.0681
    1SOL     OW 3093   0.676   3.879   1.607  0.0596  0.2154  0.6331
    1SOL    HW2 3094   0.740   3.928   1.554 -1.0703  0.5260 -0.4672
    1SOL    HW3 3095   0.668   3.795   1.562 -0.5103  0.2803  0.6118
    1SOL    MW4 3096   0.684   3.875   1.594 -0.1647  0.2649  0.4851
    1SOL     OW 3097   0.463   4.042   1.514 -0.2270 -0.1893 -0.1700
    1SOL    HW2 3098   0.515   3.974   1.558  0.7533  1.0767  0.6411
    1SOL    HW3 3099   0.473   4.022   1.421  4.6777  2.0614 -0.2918
    1SOL    MW4 3100   0.471   4.030   1.507  0.5494  0.2756 -0.0790
    1SOL     OW 3101   0.460   4.299   1.589  0.3434  0.1574 -0.4101
    1SOL    HW2 3102   0.462   4.206   1.566  2.5138  0.7323 -2.7277
    1SOL    HW3 3103   0.373   4.329   1.560 -0.3488 -1.0994  0.3088
    1SOL    MW4 3104   0.448   4.291   1.582  0.5384  0.0677 -0.6208
    1SOL     OW 3105   0.666   4.455   1.462 -0.5445  0.0660 -0.3590
    1SOL    HW2 3106   0.585   4.415   1.495 -0.2118 -0.0350  0.3396
    1SOL    HW3 3107   0.678   4.532   1.517 -0.1958  0.1153 -0.5066
    1SOL    MW4 3108   0.657   4.460   1.473 -0.4546  0.0591 -0.2863
    1SOL     OW 3109   1.087   4.642   1.562  0.3124  0.8433 -0.0360
    1SOL    HW2 3110   1.091   4.647   1.658  1.0744 -0.3495 -0.0002
    1SOL    HW3 3111   1.162   4.693   1.532  1.2222 -0.4372  0.0515
    1SOL    MW4 3112   1.097   4.649   1.571  0.5330  0.5169 -0.0198
    1SOL     OW 3113   0.884   0.130   1.488 -0.0710  0.4438  0.1332
    1SOL    HW2 3114   0.906   0.221   1.508 -0.5051  0.4880  0.4180
    1SOL    HW3 3115   0.961   0.080   1.516  0.2456  0.7410 -0.2022
    1SOL    MW4 3116   0.897   0.136   1.494 -0.0865  0.4888  0.1265
    1SOL     OW 3117   0.907   0.385   1.599 -0.1692 -0.5855 -0.2511
    1SOL    HW2 3118   0.916   0.388   1.694 -0.2057 -2.9106 -0.1356
    1SOL    HW3 3119   0.819   0.417   1.582 -1.4416 -3.3363  0.8150
    1SOL    MW4 3120   0.897   0.390   1.609 -0.3418 -1.2552 -0.0952
    1SOL     OW 3121   1.146   0.490   1.488 -0.1206  0.0883 -0.5343
    1SOL    HW2 3122   1.151   0.585   1.497  1.0468  0.0464 -0.6624
    1SOL    HW3 3123   1.060   0.467   1.523  0.1302  1.0465  0.7515
    1SOL    MW4 3124   1.135   0.500   1.494  0.0665  0.2092 -0.3817
    1SOL     OW 3125   1.137   0.755   1.571 -0.2584  0.5251 -0.0024
    1SOL    HW2 3126   1.133   0.734   1.665  0.2648 -0.1668 -0.1246
    1SOL    HW3 3127   1.202   0.825   1.565 -0.3234  0.6002  0.1609
    1SOL    MW4 3128   1.145   0.761   1.583 -0.1979  0.4437  0.0031
    1SOL     OW 3129   0.867   0.866   1.548  0.3950 -0.3069  0.2426
    1SOL    HW2 3130   0.950   0.838   1.588  0.2321 -0.2005  0.6644
    1SOL    HW3 3131   0.885   0.868   1.454  0.4376 -1.7910  0.2007
    1SOL    MW4 3132   0.880   0.862   1.541  0.3792 -0.4886  0.2928
    1SOL     OW 3133   0.901   1.137   1.584  0.4104 -0.5059  0.2279
    1SOL    HW2 3134   0.884   1.044   1.570 -0.5005 -0.5999  1.8612
    1SOL    HW3 3135   0.818   1.180   1.565  0.9661  0.0641 -1.0466
    1SOL    MW4 3136   0.888   1.130   1.580  0.3635 -0.4430  0.2751
    1SOL     OW 3137   1.142   1.285   1.487 -0.1991  0.0894  0.1468
    1SOL    HW2 3138   1.213   1.253   1.542 -0.0229 -0.7107 -0.5485
    1SOL    HW3 3139   1.066   1.232   1.512  0.0373 -0.7296 -0.8364
    1SOL    MW4 3140   1.141   1.274   1.498 -0.1446 -0.1241 -0.0747
    1SOL     OW 3141   1.104   1.536   1.597  0.6501  0.2185 -0.1215
    1SOL    HW2 3142   1.172   1.598   1.571  0.3193  0.8868  0.5917
    1SOL    HW3 3143   1.125   1.456   1.549 -0.1619  1.5217 -2.7609
    1SOL    MW4 3144   1.116   1.533   1.587  0.4992  0.4785 -0.3756
    1SOL     OW 3145   0.874   1.685   1.517 -0.2386  0.5684  0.2891
    1SOL    HW2 3146   0.940   1.629   1.556 -0.1582  1.1989  1.0695
    1SOL    HW3 3147   0.877   1.665   1.423  0.0312 -0.4626  0.5118
    1SOL    MW4 3148   0.883   1.675   1.510 -0.1925  0.5156  0.4214
    1SOL     OW 3149   0.872   1.966   1.613  0.0954  0.3913 -0.3257
    1SOL    HW2 3150   0.956   2.006   1.590 -0.0256  0.9350  0.1618
    1SOL    HW3 3151   0.878   1.876   1.580  0.9280  0.3815 -0.1614
    1SOL    MW4 3152   0.884   1.959   1.606  0.1892  0.4618 -0.2396
    1SOL     OW 3153   1.094   2.105   1.544  0.1257  0.1225  0.1542
    1SOL    HW2 3154   1.170   2.055   1.572 -0.0498  0.7430  1.7877
    1SOL    HW3 3155   1.114   2.196   1.568 -0.2017  0.6297 -1.4040
    1SOL    MW4 3156   1.107   2.111   1.551  0.0594  0.2711  0.1642
    1SOL     OW 3157   1.151   2.368   1.625  0.0805  0.1366  0.1234
    1SOL    HW2 3158   1.227   2.404   1.579  0.2611  0.4146  0.6294
    1SOL    HW3 3159   1.076   2.409   1.582  0.2519  0.5147  0.1772
    1SOL    MW4 3160   1.151   2.378   1.613  0.1271  0.2232  0.1973
    1SOL     OW 3161   0.919   2.458   1.524  0.0721  0.1607 -0.2262
    1SOL    HW2 3162   0.893   2.449   1.432  0.1591  1.0665 -0.3447
    1SOL    HW3 3163   0.851   2.413   1.573  0.5884 -1.2725 -0.7953
    1SOL    MW4 3164   0.907   2.451   1.518  0.1516  0.0913 -0.3170
    1SOL     OW 3165   0.892   2.697   1.651 -0.5910  0.2676 -0.2404
    1SOL    HW2 3166   0.910   2.687   1.744  0.0694 -0.9446 -0.5028
    1SOL    HW3 3167   0.891   2.608   1.616 -2.0552  0.6182 -1.1725
    1SOL    MW4 3168   0.894   2.684   1.658 -0.6971  0.1543 -0.3980
    1SOL     OW 3169   1.122   2.848   1.517 -0.0394  0.1198  0.3647
    1SOL    HW2 3170   1.123   2.940   1.544  0.7484 -0.0568  0.9280
    1SOL    HW3 3171   1.046   2.811   1.562 -0.7716  0.6555 -0.4106
    1SOL    MW4 3172   1.112   2.855   1.526 -0.0321  0.1674  0.3368
    1SOL     OW 3173   1.107   3.124   1.594 -0.1504 -0.2881 -0.3258
    1SOL    HW2 3174   1.113   3.122   1.689  0.4750  0.1239 -0.3538
    1SOL    HW3 3175   1.178   3.182   1.567 -1.1671  0.6745 -0.9612
    1SOL    MW4 3176   1.117   3.132   1.603 -0.2021 -0.1068 -0.4133
    1SOL     OW 3177   0.874   3.255   1.529  0.0105  0.1027  0.1667
    1SOL    HW2 3178   0.955   3.216   1.563 -0.2982 -0.6662  0.0050
    1SOL    HW3 3179   0.875   3.236   1.436 -0.2171  0.3433  0.1158
    1SOL    MW4 3180   0.885   3.248   1.521 -0.0603  0.0329  0.1388
    1SOL     OW 3181   0.910   3.507   1.651 -0.3064  0.1635  0.1392
    1SOL    HW2 3182   0.989   3.541   1.609  0.0884 -0.6899  0.1938
    1SOL    HW3 3183   0.893   3.424   1.607 -0.1747 -0.5010  1.3423
    1SOL    MW4 3184   0.918   3.501   1.640 -0.2369 -0.0370  0.3054
    1SOL     OW 3185   1.126   3.628   1.513  0.0790 -0.2204 -0.0619
    1SOL    HW2 3186   1.217   3.607   1.536  1.3188  3.1672 -1.5620
    1SOL    HW3 3187   1.120   3.611   1.419 -0.9540 -0.6599  0.0714
    1SOL    MW4 3188   1.137   3.623   1.504  0.1062  0.1688 -0.2424
    1SOL     OW 3189   1.101   3.902   1.604  0.3575 -0.2444  0.0198
    1SOL    HW2 3190   1.180   3.937   1.563  1.1724 -2.4017 -0.2944
    1SOL    HW3 3191   1.093   3.813   1.571 -3.0764  0.4057 -1.1451
    1SOL    MW4 3192   1.110   3.895   1.594  0.0119 -0.4432 -0.1754
    1SOL     OW 3193   0.873   4.052   1.488  0.1248  0.0942 -0.4711
    1SOL    HW2 3194   0.861   4.136   1.532 -0.9394 -0.8764  1.1534
    1SOL    HW3 3195   0.955   4.018   1.523  1.0136  0.8286 -1.7896
    1SOL    MW4 3196   0.882   4.058   1.498  0.1016  0.0629 -0.4307
    1SOL     OW 3197   0.868   4.300   1.596 -0.5497 -0.3400 -0.0770
    1SOL    HW2 3198   0.863   4.302   1.692 -2.4183 -1.5419 -0.1272
    1SOL    HW3 3199   0.812   4.373   1.568 -0.1976 -0.1414 -0.2707
    1SOL    MW4 3200   0.860   4.310   1.605 -0.7498 -0.4721 -0.1092
    1SOL     OW 3201   1.093   4.388   1.469  0.4772  0.1963  0.1981
    1SOL    HW2 3202   1.013   4.349   1.504  0.2607  0.0561 -0.4549
    1SOL    HW3 3203   1.092   4.478   1.501  0.4052 -0.0030  0.7634
    1SOL    MW4 3204   1.082   4.395   1.478  0.4390  0.1516  0.1866
    1SOL     OW 3205   1.563   4.639   1.604 -0.5158  0.2375  0.5992
    1SOL    HW2 3206   1.553   4.638   1.699  0.0340 -1.5947  0.6533
    1SOL    HW3 3207   1.479   4.672   1.571 -1.0340  0.0143  1.6822
    1SOL    MW4 3208   1.550   4.644   1.612 -0.5116 -0.0339  0.7492
    1SOL     OW 3209   1.324   0.102   1.526 -0.3942  0.6273 -0.3621
    1SOL    HW2 3210   1.347   0.182   1.574  1.3446  0.3417 -0.6812
    1SOL    HW3 3211   1.336   0.125   1.434  0.2861 -0.0480 -0.4488
    1SOL    MW4 3212   1.329   0.116   1.520 -0.0750  0.5005 -0.4156
    1SOL     OW 3213   1.350   0.369   1.645 -0.8033  0.1096  0.0907
    1SOL    HW2 3214   1.430   0.412   1.615 -0.8609  1.2796  1.5042
    1SOL    HW3 3215   1.280   0.413   1.596 -0.7421  0.6229  0.4532
    1SOL    MW4 3216   1.351   0.381   1.635 -0.8029  0.3317  0.3250
    1SOL     OW 3217   1.583   0.476   1.537 -0.3216 -0.0669 -0.3637
    1SOL    HW2 3218   1.669   0.441   1.557 -0.9319 -1.8445 -0.7014
    1SOL    HW3 3219   1.585   0.493   1.442 -0.1732  0.4027 -0.2781
    1SOL    MW4 3220   1.594   0.474   1.527 -0.3824 -0.2394 -0.3970
    1SOL     OW 3221   1.515   0.760   1.592 -0.1577 -0.3999  0.3375
    1SOL    HW2 3222   1.527   0.775   1.686  1.3181 -0.3943  0.1608
    1SOL    HW3 3223   1.537   0.668   1.579 -0.1698 -0.3510 -0.0361
    1SOL    MW4 3224   1.519   0.750   1.603  0.0354 -0.3927  0.2650
    1SOL     OW 3225   1.321   0.941   1.517  0.1491 -0.3358 -0.5797
    1SOL    HW2 3226   1.388   0.877   1.541  0.1918 -0.1310 -0.1450
    1SOL    HW3 3227   1.332   0.954   1.423 -0.5886 -1.8161 -0.8874
    1SOL    MW4 3228   1.331   0.934   1.508  0.0575 -0.5041 -0.5629
    1SOL     OW 3229   1.362   1.190   1.629 -0.6530 -0.0307 -0.3707
    1SOL    HW2 3230   1.346   1.186   1.723  2.1202 -0.7388  0.1054
    1SOL    HW3 3231   1.355   1.099   1.600  1.6007 -0.2786 -0.2549
    1SOL    MW4 3232   1.359   1.177   1.638  0.0103 -0.1568 -0.2927
    1SOL     OW 3233   1.571   1.310   1.532  0.1007 -0.1604 -0.2213
    1SOL    HW2 3234   1.492   1.267   1.565  0.3029 -0.2268  0.1798
    1SOL    HW3 3235   1.643   1.252   1.558  0.5517  1.2850  1.9341
    1SOL    MW4 3236   1.570   1.297   1.540  0.1869  0.0216  0.1160
    1SOL     OW 3237   1.557   1.573   1.633  0.2474 -0.0782  0.4573
    1SOL    HW2 3238   1.573   1.567   1.727 -0.6194  0.4401  0.6416
    1SOL    HW3 3239   1.557   1.482   1.603  1.3419 -0.2018  0.8100
    1SOL    MW4 3240   1.559   1.560   1.641  0.2774 -0.0262  0.5280
    1SOL     OW 3241   1.338   1.699   1.539  0.2210  0.5865 -0.2173
    1SOL    HW2 3242   1.414   1.654   1.574  0.0085  1.3984  1.3514
    1SOL    HW3 3243   1.354   1.704   1.445  0.5645 -2.1158 -0.3347
    1SOL    MW4 3244   1.350   1.694   1.531  0.2383  0.3370 -0.0259
    1SOL     OW 3245   1.317   1.978   1.624  0.1323  0.1219  0.4183
    1SOL    HW2 3246   1.320   1.980   1.720 -0.1758 -0.4852  0.4402
    1SOL    HW3 3247   1.313   1.885   1.601 -0.3492  0.2792 -0.1644
    1SOL    MW4 3248   1.317   1.966   1.634  0.0281  0.0626  0.3444
    1SOL     OW 3249   1.566   2.058   1.509 -0.4143  0.0604 -0.0882
    1SOL    HW2 3250   1.492   2.022   1.556 -0.8720  0.8561 -0.1906
    1SOL    HW3 3251   1.545   2.046   1.417 -0.2693  0.0108 -0.1162
    1SOL    MW4 3252   1.554   2.052   1.503 -0.4556  0.1590 -0.1055
    1SOL     OW 3253   1.562   2.322   1.599  0.1348  0.1095  0.0525
    1SOL    HW2 3254   1.629   2.373   1.552 -0.4351  0.1115 -0.7536
    1SOL    HW3 3255   1.571   2.233   1.565  0.3564 -0.0966  0.6368
    1SOL    MW4 3256   1.572   2.317   1.588  0.0889  0.0825  0.0232
    1SOL     OW 3257   1.368   2.463   1.464 -0.4588 -0.0565  0.4417
    1SOL    HW2 3258   1.361   2.543   1.516  0.2670 -0.3600  1.0071
    1SOL    HW3 3259   1.439   2.413   1.504 -1.6054 -1.4888  0.7480
    1SOL    MW4 3260   1.377   2.467   1.476 -0.5144 -0.2854  0.5567
    1SOL     OW 3261   1.349   2.706   1.608 -0.0225  0.2446 -0.2619
    1SOL    HW2 3262   1.433   2.741   1.582  0.3629 -0.0301  0.5870
    1SOL    HW3 3263   1.285   2.752   1.553  0.6626  0.5657 -0.7897
    1SOL    MW4 3264   1.351   2.716   1.598  0.1187  0.2511 -0.2196
    1SOL     OW 3265   1.577   2.860   1.559 -0.0698 -0.1782 -0.5024
    1SOL    HW2 3266   1.662   2.825   1.584 -0.1031 -0.2132 -0.4381
    1SOL    HW3 3267   1.581   2.867   1.463 -0.0637 -0.3555 -0.5142
    1SOL    MW4 3268   1.589   2.857   1.549 -0.0736 -0.2060 -0.4956
    1SOL     OW 3269   1.533   3.128   1.653  0.1488 -0.1983 -0.3606
    1SOL    HW2 3270   1.608   3.176   1.619  0.2211  0.2598  0.4154
    1SOL    HW3 3271   1.544   3.039   1.620  0.9658 -0.1012 -0.3608
    1SOL    MW4 3272   1.544   3.123   1.644  0.2661 -0.1252 -0.2582
    1SOL     OW 3273   1.329   3.281   1.524  0.2055  0.2669  0.4878
    1SOL    HW2 3274   1.349   3.373   1.539 -1.0324  0.5129  0.7029
    1SOL    HW3 3275   1.389   3.233   1.581  1.1525  0.9297  0.0413
    1SOL    MW4 3276   1.339   3.287   1.533  0.1671  0.3870  0.4573
    1SOL     OW 3277   1.389   3.552   1.588 -0.0163 -0.2288  0.5193
    1SOL    HW2 3278   1.382   3.539   1.683  2.2524 -0.6363  0.6672
    1SOL    HW3 3279   1.476   3.592   1.576 -0.7114  0.7550 -1.3002
    1SOL    MW4 3280   1.400   3.555   1.599  0.1913 -0.1531  0.2987
    1SOL     OW 3281   1.633   3.669   1.523 -0.8110 -0.4152  0.3589
    1SOL    HW2 3282   1.609   3.760   1.541 -0.7945 -0.4897  0.7595
    1SOL    HW3 3283   1.629   3.662   1.428 -0.2391  0.1632  0.2894
    1SOL    MW4 3284   1.629   3.680   1.513 -0.7333 -0.3488  0.4026
    1SOL     OW 3285   1.574   3.924   1.610  0.4611  0.6125 -0.0197
    1SOL    HW2 3286   1.567   3.914   1.705  0.5204  0.7393 -0.0021
    1SOL    HW3 3287   1.498   3.977   1.586  0.6971  0.9704  0.0164
    1SOL    MW4 3288   1.563   3.930   1.619  0.4998  0.6764 -0.0125
    1SOL     OW 3289   1.319   4.033   1.521  0.0932  0.1730  0.2870
    1SOL    HW2 3290   1.313   4.127   1.535  1.8050  0.3086  0.2986
    1SOL    HW3 3291   1.337   4.023   1.428 -1.7662 -0.2338 -0.0341
    1SOL    MW4 3292   1.321   4.044   1.511  0.0737  0.1369  0.2460
    1SOL     OW 3293   1.304   4.302   1.610 -0.0283 -0.2337  0.4771
    1SOL    HW2 3294   1.373   4.346   1.560 -0.6103  0.9100  0.6717
    1SOL    HW3 3295   1.224   4.321   1.562 -0.1860 -1.7972  0.0987
    1SOL    MW4 3296   1.303   4.311   1.597 -0.1260 -0.2890  0.4530
    1SOL     OW 3297   1.547   4.399   1.472 -0.4757  0.3611 -0.2113
    1SOL    HW2 3298   1.624   4.346   1.493 -1.1132 -0.8461 -0.8415
    1SOL    HW3 3299   1.563   4.483   1.515  1.9284  0.6920 -1.6097
    1SOL    MW4 3300   1.560   4.403   1.480 -0.2426  0.2451 -0.4790
    1SOL     OW 3301   2.059   4.655   1.577  0.0893  0.4219 -0.1120
    1SOL    HW2 3302   2.069   4.641   1.671  1.4014  2.0444  0.0139
    1SOL    HW3 3303   1.968   4.682   1.566  0.1707  1.0974  0.8128
    1SOL    MW4 3304   2.048   4.657   1.588  0.2730  0.7253  0.0267
    1SOL     OW 3305   1.801   0.086   1.518 -0.4199  0.3606 -0.0444
    1SOL    HW2 3306   1.723   0.049   1.560  0.0646  1.1810  1.6155
    1SOL    HW3 3307   1.783   0.077   1.424 -1.1703 -2.2449  0.2946
    1SOL    MW4 3308   1.788   0.080   1.511 -0.4549  0.1251  0.2192
    1SOL     OW 3309   1.810   0.350   1.627 -0.2215  0.1876  0.3499
    1SOL    HW2 3310   1.886   0.380   1.577 -0.5665  1.2776  0.4561
    1SOL    HW3 3311   1.799   0.258   1.602  0.7465  0.2003 -0.1420
    1SOL    MW4 3312   1.819   0.342   1.617 -0.1394  0.3331  0.2991
    1SOL     OW 3313   2.019   0.499   1.494 -0.3210 -0.7221 -0.1969
    1SOL    HW2 3314   2.110   0.470   1.495 -0.1564 -0.3099 -2.0791
    1SOL    HW3 3315   2.022   0.589   1.528  0.0905 -0.3777 -1.1487
    1SOL    MW4 3316   2.031   0.507   1.499 -0.2449 -0.6223 -0.5709
    1SOL     OW 3317   2.030   0.762   1.595  0.5765  0.5544  0.4811
    1SOL    HW2 3318   2.013   0.739   1.686  0.5811 -0.1798  0.2964
    1SOL    HW3 3319   1.945   0.790   1.561  0.4886  0.4217  0.5928
    1SOL    MW4 3320   2.017   0.763   1.602  0.5653  0.4400  0.4715
    1SOL     OW 3321   1.780   0.860   1.498  0.1478  0.3561 -0.0742
    1SOL    HW2 3322   1.773   0.946   1.539 -0.4152 -0.0540  0.7137
    1SOL    HW3 3323   1.692   0.822   1.507  0.5638 -0.5618  0.1714
    1SOL    MW4 3324   1.767   0.866   1.505  0.1284  0.1808  0.0621
    1SOL     OW 3325   1.778   1.144   1.608 -0.3024 -0.1916 -0.2909
    1SOL    HW2 3326   1.858   1.190   1.583 -0.1861  0.5573  1.3944
    1SOL    HW3 3327   1.784   1.136   1.704 -2.4440  0.2440 -0.1060
    1SOL    MW4 3328   1.790   1.149   1.618 -0.5696 -0.0353 -0.0441
    1SOL     OW 3329   2.014   1.290   1.525 -0.8267  0.2625 -0.1274
    1SOL    HW2 3330   2.002   1.381   1.551 -1.5737 -0.1429  0.9446
    1SOL    HW3 3331   1.986   1.287   1.433 -0.3231  1.2115 -0.3152
    1SOL    MW4 3332   2.009   1.302   1.516 -0.8588  0.3341 -0.0108
    1SOL     OW 3333   2.027   1.541   1.632 -0.4080 -0.2380  0.1369
    1SOL    HW2 3334   2.103   1.590   1.602 -0.2151 -0.2355  0.6179
    1SOL    HW3 3335   1.952   1.594   1.606 -0.1799  0.6472  1.2163
    1SOL    MW4 3336   2.027   1.555   1.625 -0.3524 -0.1210  0.3430
    1SOL     OW 3337   1.801   1.675   1.537 -0.0653  0.1904  0.2617
    1SOL    HW2 3338   1.719   1.631   1.559 -0.7046  1.3759  0.3288
    1SOL    HW3 3339   1.792   1.699   1.445 -0.0610  0.8711  0.4321
    1SOL    MW4 3340   1.789   1.672   1.528 -0.1491  0.4365  0.2931
    1SOL     OW 3341   1.784   1.929   1.649  0.2479 -0.2064 -0.3993
    1SOL    HW2 3342   1.796   1.837   1.627 -0.4846 -0.1052 -1.2547
    1SOL    HW3 3343   1.708   1.956   1.598 -0.3910  0.5131  0.9092
    1SOL    MW4 3344   1.776   1.921   1.639  0.0671 -0.0981 -0.3395
    1SOL     OW 3345   1.987   2.047   1.512  0.0414 -0.4416 -0.2702
    1SOL    HW2 3346   2.068   2.007   1.541 -0.0147  0.2710  0.9111
    1SOL    HW3 3347   1.918   1.995   1.553 -0.0439  0.3312  0.5994
    1SOL    MW4 3348   1.988   2.035   1.521  0.0228 -0.2456  0.0006
    1SOL     OW 3349   2.017   2.320   1.608 -0.5345 -0.3216 -0.2065
    1SOL    HW2 3350   2.020   2.320   1.704  0.2951 -0.4198 -0.2327
    1SOL    HW3 3351   2.023   2.228   1.583 -2.5339 -0.4543 -0.3099
    1SOL    MW4 3352   2.018   2.308   1.617 -0.6890 -0.3519 -0.2235
    1SOL     OW 3353   1.769   2.471   1.511 -0.6020 -0.6664 -0.3233
    1SOL    HW2 3354   1.842   2.410   1.527  0.5006  0.4483 -0.9897
    1SOL    HW3 3355   1.763   2.477   1.416 -1.0744 -0.1694 -0.2645
    1SOL    MW4 3356   1.778   2.464   1.501 -0.5189 -0.4537 -0.4033
    1SOL     OW 3357   1.797   2.714   1.641  0.2516 -0.0180 -0.4456
    1SOL    HW2 3358   1.877   2.743   1.598  0.8817 -1.3838 -0.2095
    1SOL    HW3 3359   1.789   2.622   1.618 -1.3486  0.1433 -0.6009
    1SOL    MW4 3360   1.806   2.706   1.632  0.1236 -0.1769 -0.4349
    1SOL     OW 3361   2.010   2.818   1.509 -0.0867 -0.3382  0.5129
    1SOL    HW2 3362   1.980   2.906   1.530  0.9681  0.0149  0.5855
    1SOL    HW3 3363   2.001   2.812   1.414 -1.4493 -0.6462  0.6568
    1SOL    MW4 3364   2.005   2.828   1.499 -0.1273 -0.3321  0.5414
    1SOL     OW 3365   1.960   3.065   1.590  0.0505  0.6129 -0.1489
    1SOL    HW2 3366   1.956   3.072   1.686  1.0258 -1.2970  0.0291
    1SOL    HW3 3367   2.046   3.099   1.567  0.7984 -1.2756 -0.1381
    1SOL    MW4 3368   1.971   3.071   1.600  0.2779  0.1118 -0.1239
    1SOL     OW 3369   1.753   3.257   1.525  0.0643 -0.6345  0.3548
    1SOL    HW2 3370   1.780   3.337   1.569 -0.1221  0.3442 -1.2638
    1SOL    HW3 3371   1.826   3.197   1.537  1.0129  0.4317 -0.0392
    1SOL    MW4 3372   1.766   3.260   1.533  0.1649 -0.3645  0.0893
    1SOL     OW 3373   1.831   3.496   1.617 -0.2402 -0.7267  0.6642
    1SOL    HW2 3374   1.823   3.496   1.712  0.2159 -0.9945  0.7062
    1SOL    HW3 3375   1.754   3.543   1.586  0.5060  0.9004  1.2430
    1SOL    MW4 3376   1.820   3.502   1.625 -0.0815 -0.5474  0.7461
    1SOL     OW 3377   2.060   3.621   1.515 -0.0629 -0.1796 -0.1789
    1SOL    HW2 3378   2.128   3.557   1.535  1.4004  1.1320 -0.8813
    1SOL    HW3 3379   1.978   3.575   1.533  0.9940 -1.8301  0.5283
    1SOL    MW4 3380   2.058   3.606   1.520  0.2694 -0.2244 -0.1783
    1SOL     OW 3381   2.051   3.875   1.620 -0.0446 -0.0888 -0.2173
    1SOL    HW2 3382   2.111   3.923   1.562 -0.5564  0.4581 -0.2967
    1SOL    HW3 3383   2.063   3.783   1.595 -0.0188  0.1124 -0.9741
    1SOL    MW4 3384   2.061   3.869   1.609 -0.1087  0.0100 -0.3277
    1SOL     OW 3385   1.819   4.000   1.498  0.1173  0.0627  0.2474
    1SOL    HW2 3386   1.892   3.944   1.524 -0.0167 -0.1029  0.2667
    1SOL    HW3 3387   1.744   3.967   1.548  0.0549  0.3063  0.3166
    1SOL    MW4 3388   1.819   3.988   1.508  0.0914  0.0732  0.2592
    1SOL     OW 3389   1.808   4.286   1.560 -0.1925 -0.0274 -0.1121
    1SOL    HW2 3390   1.886   4.341   1.553 -0.3137  0.1353 -0.1793
    1SOL    HW3 3391   1.839   4.198   1.536 -0.1656  0.1501 -0.7524
    1SOL    MW4 3392   1.823   4.281   1.556 -0.2049  0.0176 -0.2054
    1SOL     OW 3393   2.057   4.411   1.452 -0.3354  0.2112 -0.0045
    1SOL    HW2 3394   2.123   4.363   1.503 -0.5503 -0.1927 -0.0982
    1SOL    HW3 3395   2.052   4.497   1.493 -0.0498  0.1002  0.2636
    1SOL    MW4 3396   2.065   4.416   1.465 -0.3259  0.1435  0.0184
    1SOL     OW 3397   2.494   0.005   1.596 -0.1341 -0.5407  0.7147
    1SOL    HW2 3398   2.490   0.005   1.692 -2.5357 -0.8520  0.6225
    1SOL    HW3 3399   2.410   0.040   1.568  0.7738  0.0879 -1.2923
    1SOL    MW4 3400   2.483   0.010   1.605 -0.3312 -0.4988  0.4377
    1SOL     OW 3401   2.274   0.120   1.481 -0.2621  0.4849  0.2688
    1SOL    HW2 3402   2.193   0.078   1.511  0.1272  0.1401  0.8542
    1SOL    HW3 3403   2.272   0.111   1.386 -0.5971 -0.1043  0.3298
    1SOL    MW4 3404   2.263   0.113   1.472 -0.2553  0.3617  0.3542
    1SOL     OW 3405   2.268   0.377   1.559  0.2571 -0.1317 -0.5762
    1SOL    HW2 3406   2.266   0.376   1.655 -0.4645 -0.5430 -0.5970
    1SOL    HW3 3407   2.271   0.284   1.535  0.2019 -0.0311 -0.9625
    1SOL    MW4 3408   2.268   0.365   1.569  0.1547 -0.1727 -0.6299
    1SOL     OW 3409   2.485   0.527   1.495 -0.4681 -0.1845  0.1377
    1SOL    HW2 3410   2.566   0.480   1.517 -0.1574  0.2625 -0.0431
    1SOL    HW3 3411   2.415   0.471   1.528 -0.0645 -0.2872  0.8300
    1SOL    MW4 3412   2.487   0.513   1.502 -0.3738 -0.1391  0.2052
    1SOL     OW 3413   2.483   0.776   1.608 -0.2077 -0.0477 -0.3013
    1SOL    HW2 3414   2.404   0.824   1.582 -0.7863 -0.0914  1.3610
    1SOL    HW3 3415   2.478   0.693   1.561 -0.5095  0.4611 -1.1777
    1SOL    MW4 3416   2.472   0.772   1.598 -0.3235  0.0136 -0.1975
    1SOL     OW 3417   2.258   0.910   1.527  0.4134  0.0632  0.3327
    1SOL    HW2 3418   2.240   0.994   1.570 -1.1503  1.2496 -2.5228
    1SOL    HW3 3419   2.188   0.852   1.557 -1.8715  1.4802 -2.1328
    1SOL    MW4 3420   2.247   0.913   1.537 -0.0949  0.4067 -0.3693
    1SOL     OW 3421   2.229   1.178   1.654  0.1438  0.3019  0.0818
    1SOL    HW2 3422   2.223   1.189   1.749 -2.1766  0.7239 -0.0846
    1SOL    HW3 3423   2.144   1.208   1.621  1.2663  1.0640 -2.2124
    1SOL    MW4 3424   2.217   1.184   1.663 -0.0141  0.4582 -0.2428
    1SOL     OW 3425   2.455   1.278   1.537  0.7117  0.0945  0.1724
    1SOL    HW2 3426   2.364   1.261   1.563  0.5430  0.4622 -0.1684
    1SOL    HW3 3427   2.455   1.267   1.442  1.1099 -0.2820  0.2120
    1SOL    MW4 3428   2.443   1.274   1.528  0.7417  0.0935  0.1326
    1SOL     OW 3429   2.466   1.561   1.625 -0.3587 -0.0117  0.2865
    1SOL    HW2 3430   2.541   1.606   1.587  0.3767 -0.5811  1.0356
    1SOL    HW3 3431   2.479   1.469   1.603 -0.1001 -0.3018  1.5945
    1SOL    MW4 3432   2.478   1.555   1.617 -0.2275 -0.1252  0.5579
    1SOL     OW 3433   2.240   1.699   1.541 -0.3201 -0.0187  0.2404
    1SOL    HW2 3434   2.312   1.653   1.584 -1.2411 -0.0283  1.8114
    1SOL    HW3 3435   2.258   1.690   1.447 -0.2705 -3.2139  0.5045
    1SOL    MW4 3436   2.252   1.692   1.534 -0.4351 -0.4416  0.4826
    1SOL     OW 3437   2.239   1.964   1.591  0.0339  0.3104  0.1366
    1SOL    HW2 3438   2.232   1.960   1.687 -1.1804  1.5470  0.1079
    1SOL    HW3 3439   2.249   1.873   1.564  0.2285 -0.0622  1.4288
    1SOL    MW4 3440   2.240   1.952   1.600 -0.1009  0.4243  0.3033
    1SOL     OW 3441   2.490   2.051   1.501  0.1762  0.1781 -0.0386
    1SOL    HW2 3442   2.406   2.018   1.535  0.8247  0.5378  2.0201
    1SOL    HW3 3443   2.475   2.063   1.407 -1.5982 -1.2340  0.0341
    1SOL    MW4 3444   2.477   2.048   1.493  0.0279  0.0393  0.2426
    1SOL     OW 3445   2.468   2.317   1.596 -0.0593  0.5191 -0.1699
    1SOL    HW2 3446   2.483   2.320   1.690 -0.8006  0.8420 -0.0622
    1SOL    HW3 3447   2.467   2.223   1.575 -0.3349  0.4372  0.2074
    1SOL    MW4 3448   2.470   2.305   1.605 -0.1934  0.5510 -0.1059
    1SOL     OW 3449   2.248   2.451   1.506  0.4987 -0.2597 -0.0305
    1SOL    HW2 3450   2.323   2.401   1.537  1.1383  1.1173  0.7148
    1SOL    HW3 3451   2.172   2.406   1.544  0.9834 -1.2614 -0.2387
    1SOL    MW4 3452   2.248   2.438   1.515  0.6473 -0.2100  0.0403
    1SOL     OW 3453   2.261   2.699   1.610  0.0903  0.5104  0.1263
    1SOL    HW2 3454   2.262   2.611   1.573  0.0726 -0.3703  2.1609
    1SOL    HW3 3455   2.181   2.739   1.575 -0.4481 -0.6475  0.0068
    1SOL    MW4 3456   2.250   2.693   1.601  0.0169  0.2413  0.3790
    1SOL     OW 3457   2.468   2.844   1.497 -0.6054  0.4869  0.0095
    1SOL    HW2 3458   2.471   2.930   1.540 -0.9623  0.4298  0.1429
    1SOL    HW3 3459   2.390   2.802   1.532 -1.0925  0.5838 -0.9576
    1SOL    MW4 3460   2.458   2.850   1.507 -0.7169  0.4921 -0.1005
    1SOL     OW 3461   2.434   3.103   1.633  0.2615  0.0690 -0.0876
    1SOL    HW2 3462   2.496   3.157   1.584  0.3293  0.2554  0.2002
    1SOL    HW3 3463   2.348   3.129   1.599  0.4197 -1.4841 -1.7806
    1SOL    MW4 3464   2.430   3.114   1.622  0.2911 -0.1111 -0.2729
    1SOL     OW 3465   2.193   3.191   1.510  0.0701  0.2091  0.2059
    1SOL    HW2 3466   2.214   3.280   1.540  1.0577  0.4279 -1.0639
    1SOL    HW3 3467   2.199   3.196   1.415 -1.8641 -0.7522  0.0144
    1SOL    MW4 3468   2.197   3.203   1.501 -0.0546  0.1111  0.0131
    1SOL     OW 3469   2.269   3.440   1.579 -0.4162  0.0246 -0.4865
    1SOL    HW2 3470   2.284   3.436   1.673 -2.7888  0.0324 -0.0601
    1SOL    HW3 3471   2.348   3.480   1.543  0.8531 -0.7225  1.3918
    1SOL    MW4 3472   2.281   3.445   1.587 -0.5617 -0.0732 -0.1824
    1SOL     OW 3473   2.473   3.571   1.460 -0.2940  0.7521  0.2061
    1SOL    HW2 3474   2.559   3.547   1.495 -0.7112 -0.4261  0.4341
    1SOL    HW3 3475   2.457   3.659   1.495 -0.0892  0.1432  1.8805
    1SOL    MW4 3476   2.482   3.580   1.470 -0.3219  0.5164  0.4570
    1SOL     OW 3477   2.425   3.858   1.539 -0.4500  0.0571 -0.0766
    1SOL    HW2 3478   2.426   3.867   1.634  0.0131 -0.1597 -0.0604
    1SOL    HW3 3479   2.513   3.882   1.512 -0.6331  0.2919 -0.4698
    1SOL    MW4 3480   2.437   3.862   1.548 -0.4132  0.0594 -0.1264
    1SOL     OW 3481   2.237   4.036   1.478  0.3729  0.6918  0.0516
    1SOL    HW2 3482   2.305   3.972   1.499  0.3594  0.6261 -0.1016
    1SOL    HW3 3483   2.229   4.033   1.382  0.3252  0.8739  0.0486
    1SOL    MW4 3484   2.245   4.027   1.468  0.3645  0.7076  0.0311
    1SOL     OW 3485   2.265   4.279   1.617  0.3861 -0.3681  0.0415
    1SOL    HW2 3486   2.347   4.325   1.596  0.5441  0.0495  1.5511
    1SOL    HW3 3487   2.273   4.195   1.571  2.1718 -0.8122  1.1121
    1SOL    MW4 3488   2.277   4.274   1.608  0.6425 -0.3710  0.3819
    1SOL     OW 3489   2.498   4.404   1.517  0.7530 -0.4749  0.1791
    1SOL    HW2 3490   2.505   4.490   1.557 -0.0714 -0.8181  1.1175
    1SOL    HW3 3491   2.498   4.420   1.423 -1.3345  0.7291  0.3516
    1SOL    MW4 3492   2.499   4.417   1.510  0.3688 -0.3610  0.3257
    1SOL     OW 3493   2.882   4.650   1.588  0.0876 -0.5339 -0.3105
    1SOL    HW2 3494   2.897   4.652   1.683  0.9298  0.0755 -0.4516
    1SOL    HW3 3495   2.820   4.721   1.572 -0.1979 -0.7548 -0.1961
    1SOL    MW4 3496   2.876   4.659   1.599  0.1612 -0.4830 -0.3140
    1SOL     OW 3497   2.703   0.180   1.479  0.5134  0.3639 -0.2162
    1SOL    HW2 3498   2.703   0.270   1.512 -0.6623  0.1112  0.4874
    1SOL    HW3 3499   2.628   0.138   1.522 -0.4451 -0.2608 -2.4585
    1SOL    MW4 3500   2.693   0.186   1.489  0.2317  0.2481 -0.4191
    1SOL     OW 3501   2.696   0.411   1.604 -0.1280 -0.2503  0.0251
    1SOL    HW2 3502   2.706   0.395   1.698  0.2262 -1.9369 -0.2836
    1SOL    HW3 3503   2.779   0.449   1.577 -0.7509  1.6407  0.6496
    1SOL    MW4 3504   2.708   0.414   1.613 -0.1636 -0.2233  0.0669
    1SOL     OW 3505   2.939   0.516   1.516  0.0456 -0.0149 -0.6084
    1SOL    HW2 3506   2.934   0.603   1.555  0.2867 -0.0052 -0.5967
    1SOL    HW3 3507   2.946   0.532   1.422  1.7828  0.0350 -0.4906
    1SOL    MW4 3508   2.940   0.529   1.508  0.3068 -0.0070 -0.5914
    1SOL     OW 3509   2.919   0.782   1.634  0.5128  0.0683 -0.3280
    1SOL    HW2 3510   2.926   0.755   1.725  0.9451 -0.9707 -0.6708
    1SOL    HW3 3511   2.841   0.839   1.632 -0.9932 -1.9158  0.1992
    1SOL    MW4 3512   2.909   0.786   1.646  0.3712 -0.3306 -0.3036
    1SOL     OW 3513   2.709   0.943   1.552  0.1857 -0.0684  0.0732
    1SOL    HW2 3514   2.630   0.890   1.565  0.2415 -0.3831 -0.8359
    1SOL    HW3 3515   2.728   0.936   1.459  0.5015  1.1423  0.0392
    1SOL    MW4 3516   2.701   0.935   1.542  0.2348  0.0498 -0.0511
    1SOL     OW 3517   2.712   1.206   1.620  0.1283  0.4960 -0.5681
    1SOL    HW2 3518   2.709   1.115   1.590 -1.0344  0.3053  0.0988
    1SOL    HW3 3519   2.625   1.240   1.603  0.2205  1.1523  0.2159
    1SOL    MW4 3520   2.700   1.199   1.614 -0.0129  0.5574 -0.3766
    1SOL     OW 3521   2.927   1.286   1.452 -0.3561  0.1795  0.4742
    1SOL    HW2 3522   3.004   1.243   1.488  0.3735  1.0790  0.0173
    1SOL    HW3 3523   2.855   1.262   1.511  0.6832  1.0855  2.1271
    1SOL    MW4 3524   2.927   1.278   1.464 -0.1228  0.4178  0.6320
    1SOL     OW 3525   2.932   1.544   1.566  0.4537  0.3304  0.9643
    1SOL    HW2 3526   2.844   1.576   1.547  1.4911  2.5848 -0.1422
    1SOL    HW3 3527   2.931   1.453   1.537 -0.8079  1.0111 -1.2002
    1SOL    MW4 3528   2.920   1.536   1.560  0.4244  0.7175  0.5326
    1SOL     OW 3529   2.695   1.653   1.511  0.0753  0.2465  0.0387
    1SOL    HW2 3530   2.696   1.745   1.538 -0.0613  0.0684  0.6596
    1SOL    HW3 3531   2.698   1.656   1.416  0.1068  0.8958  0.0582
    1SOL    MW4 3532   2.696   1.666   1.502  0.0613  0.3086  0.1233
    1SOL     OW 3533   2.698   1.909   1.597  0.0708 -0.3911 -0.1208
    1SOL    HW2 3534   2.688   1.912   1.692 -0.6344  1.4954 -0.2285
    1SOL    HW3 3535   2.620   1.952   1.562  0.8077 -0.1308 -1.5203
    1SOL    MW4 3536   2.687   1.915   1.605  0.0751 -0.1078 -0.3197
    1SOL     OW 3537   2.916   2.037   1.467 -0.0826 -0.0338  0.3942
    1SOL    HW2 3538   2.891   2.126   1.488  0.0605 -0.1022  0.8652
    1SOL    HW3 3539   2.847   1.982   1.505  0.3122 -0.1716  0.9202
    1SOL    MW4 3540   2.904   2.041   1.474 -0.0117 -0.0610  0.5257
    1SOL     OW 3541   2.875   2.304   1.561  0.1166  0.0578  0.3956
    1SOL    HW2 3542   2.869   2.325   1.654 -0.6812 -0.3842  0.4402
    1SOL    HW3 3543   2.811   2.361   1.519  0.3782  0.1584  0.1338
    1SOL    MW4 3544   2.866   2.314   1.568  0.0460  0.0126  0.3670
    1SOL     OW 3545   2.665   2.465   1.480 -0.2342  0.2006 -0.1172
    1SOL    HW2 3546   2.678   2.541   1.536 -0.5978  0.7566 -0.7728
    1SOL    HW3 3547   2.600   2.411   1.526  0.6343 -0.1255  0.7442
    1SOL    MW4 3548   2.658   2.468   1.493 -0.1678  0.2308 -0.0901
    1SOL     OW 3549   2.690   2.725   1.624  0.2498  0.0548  0.0638
    1SOL    HW2 3550   2.772   2.768   1.601  0.6316 -0.5415  0.2697
    1SOL    HW3 3551   2.622   2.777   1.583  0.7742  0.2498 -0.5605
    1SOL    MW4 3552   2.692   2.737   1.616  0.3693  0.0019  0.0086
    1SOL     OW 3553   2.885   2.860   1.485 -0.4772  0.5078  0.4446
    1SOL    HW2 3554   2.973   2.826   1.500 -0.5418  0.6009  1.0684
    1SOL    HW3 3555   2.885   2.946   1.527 -1.0415  0.2608  0.9611
    1SOL    MW4 3556   2.896   2.867   1.492 -0.5603  0.4878  0.5951
    1SOL     OW 3557   2.899   3.113   1.578  0.4313  0.4210  0.1381
    1SOL    HW2 3558   2.912   3.113   1.673  2.8349 -0.7032 -0.1649
    1SOL    HW3 3559   2.983   3.140   1.542  0.1665 -1.1666 -1.7461
    1SOL    MW4 3560   2.911   3.117   1.586  0.7136  0.0634 -0.1506
    1SOL     OW 3561   2.655   3.247   1.506 -0.2860  0.0911 -0.4540
    1SOL    HW2 3562   2.728   3.191   1.532  0.4086  1.4355  0.5838
    1SOL    HW3 3563   2.663   3.255   1.411  1.2325  0.6534 -0.2950
    1SOL    MW4 3564   2.666   3.240   1.497  0.0060  0.3426 -0.2961
    1SOL     OW 3565   2.705   3.514   1.600  0.0792  0.1444 -0.1722
    1SOL    HW2 3566   2.709   3.507   1.696 -0.0680 -1.5824 -0.2769
    1SOL    HW3 3567   2.696   3.423   1.570  0.5415  0.6421 -1.8454
    1SOL    MW4 3568   2.704   3.501   1.609  0.1206 -0.0176 -0.4067
    1SOL     OW 3569   2.935   3.625   1.521 -0.1264  0.4015 -0.0086
    1SOL    HW2 3570   2.855   3.582   1.550  0.2700 -0.0070  0.4966
    1SOL    HW3 3571   2.921   3.641   1.428  0.3023 -2.1966 -0.5675
    1SOL    MW4 3572   2.923   3.621   1.512 -0.0176  0.0048 -0.0157
    1SOL     OW 3573   2.934   3.889   1.626  0.3498  0.0582 -0.0647
    1SOL    HW2 3574   2.853   3.915   1.581 -0.7382 -1.0900  1.1751
    1SOL    HW3 3575   2.938   3.794   1.615  0.5675 -0.1208  1.3784
    1SOL    MW4 3576   2.924   3.880   1.619  0.2351 -0.1173  0.2893
    1SOL     OW 3577   2.701   3.936   1.495  0.2384 -0.1687 -0.1521
    1SOL    HW2 3578   2.684   4.021   1.538 -0.4117 -0.2677 -0.2033
    1SOL    HW3 3579   2.697   3.956   1.402  0.4749 -0.1822 -0.1652
    1SOL    MW4 3580   2.698   3.950   1.489  0.1838 -0.1838 -0.1605
    1SOL     OW 3581   2.679   4.213   1.597  0.6013  0.2632  0.2874
    1SOL    HW2 3582   2.757   4.258   1.565  0.9845 -0.6574 -0.0968
    1SOL    HW3 3583   2.608   4.276   1.583  1.3033  1.2162  0.8987
    1SOL    MW4 3584   2.680   4.227   1.591  0.7443  0.2675  0.3172
    1SOL     OW 3585   2.908   4.385   1.538  0.3380  0.0089 -0.0398
    1SOL    HW2 3586   2.906   4.479   1.556  2.3979  0.3153 -1.2563
    1SOL    HW3 3587   2.892   4.379   1.443 -0.1068 -0.9062  0.0860
    1SOL    MW4 3588   2.905   4.397   1.528  0.5510 -0.0710 -0.1837
    1SOL     OW 3589   3.353   0.014   1.615  0.1565  0.3920  0.0612
    1SOL    HW2 3590   3.440   0.048   1.594  0.3742  0.8168  1.5831
    1SOL    HW3 3591   3.355  -0.077   1.585  0.9176  0.5614 -0.4247
    1SOL    MW4 3592   3.365   0.006   1.608  0.2856  0.4706  0.1979
    1SOL     OW 3593   3.114   0.103   1.478 -0.2993  0.0493  0.0554
    1SOL    HW2 3594   3.185   0.070   1.532  0.2628 -0.0221 -0.7129
    1SOL    HW3 3595   3.036   0.057   1.509 -0.0837  0.4102  1.1556
    1SOL    MW4 3596   3.113   0.093   1.489 -0.1965  0.0875  0.0992
    1SOL     OW 3597   3.104   0.332   1.632  0.2856  0.2417 -0.2473
    1SOL    HW2 3598   3.110   0.256   1.575  0.9220  0.0002  0.1400
    1SOL    HW3 3599   3.040   0.389   1.589  0.1943 -0.2755 -0.8047
    1SOL    MW4 3600   3.096   0.330   1.619  0.3576  0.1416 -0.2698
    1SOL     OW 3601   3.336   0.469   1.527 -0.2686 -0.6319 -0.5665
    1SOL    HW2 3602   3.258   0.426   1.563  0.1510  0.1347  1.2855
    1SOL    HW3 3603   3.319   0.474   1.433 -2.1697 -1.0661 -0.2599
    1SOL    MW4 3604   3.323   0.464   1.519 -0.4637 -0.5881 -0.2818
    1SOL     OW 3605   3.344   0.761   1.572  0.0333  0.6565  0.5010
    1SOL    HW2 3606   3.338   0.774   1.667 -1.5163  0.2032  0.4912
    1SOL    HW3 3607   3.332   0.666   1.561 -1.5744  0.9360 -0.2570
    1SOL    MW4 3608   3.341   0.750   1.583 -0.3836  0.6336  0.3996
    1SOL     OW 3609   3.118   0.899   1.494 -0.0382  0.0446 -0.0138
    1SOL    HW2 3610   3.198   0.850   1.515  0.3784  1.0997  0.9546
    1SOL    HW3 3611   3.049   0.855   1.543  0.1423 -0.2263 -0.0023
    1SOL    MW4 3612   3.120   0.886   1.503  0.0403  0.1480  0.1154
    1SOL     OW 3613   3.119   1.173   1.584 -0.3654  0.0479  0.3953
    1SOL    HW2 3614   3.113   1.165   1.679 -0.2846 -2.1626  0.2468
    1SOL    HW3 3615   3.114   1.083   1.552  0.6485  0.6790 -1.6329
    1SOL    MW4 3616   3.118   1.160   1.592 -0.2210 -0.1605  0.1082
    1SOL     OW 3617   3.359   1.280   1.476  0.1476  0.0271 -0.1335
    1SOL    HW2 3618   3.433   1.235   1.517  0.4127  1.2375  0.7319
    1SOL    HW3 3619   3.282   1.250   1.525  0.3847  0.9331  0.7986
    1SOL    MW4 3620   3.359   1.270   1.488  0.2139  0.3062  0.1037
    1SOL     OW 3621   3.343   1.549   1.549  0.9042  0.0878 -0.2983
    1SOL    HW2 3622   3.335   1.540   1.644 -0.5406 -1.1980 -0.5322
    1SOL    HW3 3623   3.340   1.460   1.515 -1.6405  0.7009 -1.7744
    1SOL    MW4 3624   3.342   1.536   1.557  0.3777 -0.0008 -0.5240
    1SOL     OW 3625   3.125   1.701   1.472 -0.0585  0.0158  0.2387
    1SOL    HW2 3626   3.204   1.649   1.486 -0.5852 -1.2634 -1.3427
    1SOL    HW3 3627   3.054   1.646   1.506 -0.4397  0.4564  0.1603
    1SOL    MW4 3628   3.126   1.687   1.479 -0.1783 -0.0949  0.0198
    1SOL     OW 3629   3.152   1.958   1.605 -0.3152  0.0558 -0.0444
    1SOL    HW2 3630   3.141   1.872   1.564 -0.9703  1.0550 -1.9837
    1SOL    HW3 3631   3.071   2.005   1.585  0.2745  1.3308  0.5280
    1SOL    MW4 3632   3.140   1.953   1.597 -0.3238  0.3558 -0.2246
    1SOL     OW 3633   3.363   2.052   1.454 -0.3775  0.2765 -0.4991
    1SOL    HW2 3634   3.284   2.029   1.503  0.1775 -1.0529 -0.2096
    1SOL    HW3 3635   3.336   2.052   1.362 -0.6674 -0.3488 -0.4143
    1SOL    MW4 3636   3.349   2.049   1.449 -0.3424  0.0188 -0.4497
    1SOL     OW 3637   3.366   2.311   1.530 -0.5978 -0.4767 -0.1775
    1SOL    HW2 3638   3.446   2.351   1.497  0.4826 -0.7095  2.0709
    1SOL    HW3 3639   3.363   2.225   1.488  0.7777 -0.7925  0.3659
    1SOL    MW4 3640   3.376   2.305   1.520 -0.2739 -0.5488  0.1909
    1SOL     OW 3641   3.114   2.447   1.514 -0.3905  0.2074  0.4527
    1SOL    HW2 3642   3.186   2.387   1.532  0.6485  0.5337 -2.2902
    1SOL    HW3 3643   3.035   2.395   1.526  0.3614 -0.6843  1.6415
    1SOL    MW4 3644   3.113   2.432   1.518 -0.1543  0.1328  0.2476
    1SOL     OW 3645   3.120   2.734   1.605 -0.0514 -0.0845  0.6820
    1SOL    HW2 3646   3.207   2.763   1.579  0.1006 -0.5856  0.6212
    1SOL    HW3 3647   3.107   2.651   1.558 -0.8865  0.3981  0.0391
    1SOL    MW4 3648   3.129   2.727   1.595 -0.1414 -0.0868  0.5891
    1SOL     OW 3649   3.374   2.833   1.532 -0.4146 -0.3368  0.3826
    1SOL    HW2 3650   3.363   2.917   1.577 -1.2715  0.3323 -1.0313
    1SOL    HW3 3651   3.349   2.851   1.442 -0.4758 -2.0895  0.0320
    1SOL    MW4 3652   3.369   2.847   1.526 -0.5357 -0.4797  0.1498
    1SOL     OW 3653   3.357   3.106   1.637 -0.1855  0.3744  0.6050
    1SOL    HW2 3654   3.371   3.126   1.729 -1.1443  0.7237  0.6871
    1SOL    HW3 3655   3.437   3.135   1.594  0.2314  0.2916  1.3169
    1SOL    MW4 3656   3.369   3.113   1.643 -0.2570  0.4096  0.7099
    1SOL     OW 3657   3.158   3.218   1.500 -0.3125  0.1477  0.0634
    1SOL    HW2 3658   3.152   3.295   1.557  1.1472  1.1799 -1.1232
    1SOL    HW3 3659   3.226   3.163   1.540 -0.6309 -0.0400  0.3495
    1SOL    MW4 3660   3.166   3.221   1.513 -0.1619  0.2592 -0.0553
    1SOL     OW 3661   3.149   3.471   1.607 -0.2186 -0.1113  0.2169
    1SOL    HW2 3662   3.138   3.450   1.700 -0.4897  0.9166  0.4229
    1SOL    HW3 3663   3.076   3.530   1.588  0.5106  0.6015 -0.3587
    1SOL    MW4 3664   3.138   3.476   1.617 -0.1581  0.1183  0.1681
    1SOL     OW 3665   3.357   3.603   1.486 -0.0020  0.0115  0.0865
    1SOL    HW2 3666   3.434   3.559   1.521 -0.2528 -0.8391 -0.4103
    1SOL    HW3 3667   3.283   3.558   1.527 -0.2136  1.5025  1.3459
    1SOL    MW4 3668   3.357   3.591   1.496 -0.0632  0.0961  0.1869
    1SOL     OW 3669   3.344   3.856   1.609 -0.2083 -0.0392  0.0600
    1SOL    HW2 3670   3.290   3.915   1.557 -0.6641 -1.9823 -1.7511
    1SOL    HW3 3671   3.356   3.779   1.553  1.4007 -1.1522  1.8643
    1SOL    MW4 3672   3.339   3.854   1.594 -0.0563 -0.4425  0.0590
    1SOL     OW 3673   3.125   4.015   1.469 -0.1633 -0.0170 -0.2268
    1SOL    HW2 3674   3.130   4.105   1.501 -0.6392  0.2146 -0.7818
    1SOL    HW3 3675   3.054   3.975   1.520 -0.9850  0.3794 -1.0409
    1SOL    MW4 3676   3.116   4.022   1.480 -0.3347  0.0658 -0.4075
    1SOL     OW 3677   3.139   4.261   1.590 -0.1785 -0.5572 -0.5327
    1SOL    HW2 3678   3.125   4.251   1.684  0.5550  2.5137 -0.0393
    1SOL    HW3 3679   3.056   4.295   1.557  0.0104 -0.3347 -0.7756
    1SOL    MW4 3680   3.127   4.264   1.598 -0.0567 -0.1225 -0.4996
    1SOL     OW 3681   3.361   4.404   1.519 -0.1451  0.3497  0.1055
    1SOL    HW2 3682   3.287   4.345   1.536  0.5691 -0.4697  0.3613
    1SOL    HW3 3683   3.358   4.420   1.425 -1.1627  1.0099  0.2354
    1SOL    MW4 3684   3.351   4.398   1.509 -0.1855  0.3290  0.1564
    1SOL     OW 3685   3.821   4.610   1.601  0.3083 -0.0486  0.5006
    1SOL    HW2 3686   3.837   4.607   1.695 -0.9450  1.1151  0.7607
    1SOL    HW3 3687   3.898   4.654   1.565 -0.0505  1.1807  1.2002
    1SOL    MW4 3688   3.833   4.616   1.609  0.0956  0.2666  0.6272
    1SOL     OW 3689   3.606   0.095   1.513  0.0702  0.0085  0.2118
    1SOL    HW2 3690   3.672   0.034   1.545 -0.4010 -0.5186  0.2036
    1SOL    HW3 3691   3.597   0.075   1.420 -0.4750 -0.2902  0.3223
    1SOL    MW4 3692   3.613   0.084   1.505 -0.0639 -0.1004  0.2253
    1SOL     OW 3693   3.591   0.360   1.568  0.0920  0.0299 -0.0456
    1SOL    HW2 3694   3.592   0.267   1.547 -1.0385 -0.0986  0.3988
    1SOL    HW3 3695   3.501   0.387   1.551  0.3270  0.9580  0.1727
    1SOL    MW4 3696   3.579   0.351   1.563 -0.0260  0.1354  0.0420
    1SOL     OW 3697   3.819   0.505   1.475 -0.0524 -0.4874  0.5329
    1SOL    HW2 3698   3.739   0.460   1.501 -1.5390  1.2854 -0.8490
    1SOL    HW3 3699   3.816   0.506   1.379  2.0681 -1.1581  0.4290
    1SOL    MW4 3700   3.808   0.499   1.466  0.0315 -0.3420  0.3370
    1SOL     OW 3701   3.804   0.747   1.599  0.0385  0.1411  0.1051
    1SOL    HW2 3702   3.724   0.793   1.574  0.5726  0.2940 -1.3631
    1SOL    HW3 3703   3.801   0.666   1.549  1.1031  0.4273 -0.4255
    1SOL    MW4 3704   3.793   0.743   1.589  0.2496  0.1991 -0.1585
    1SOL     OW 3705   3.570   0.893   1.525  0.0760  0.3990  0.6068
    1SOL    HW2 3706   3.486   0.853   1.547  1.0210 -2.0027 -0.0094
    1SOL    HW3 3707   3.575   0.887   1.429  0.4998  1.5347  0.5419
    1SOL    MW4 3708   3.559   0.887   1.515  0.2563  0.2320  0.5169
    1SOL     OW 3709   3.592   1.158   1.608  0.6162  0.0115  0.5172
    1SOL    HW2 3710   3.667   1.197   1.562  1.2494 -0.2682  1.2985
    1SOL    HW3 3711   3.589   1.068   1.575  0.6959 -0.0091  0.5642
    1SOL    MW4 3712   3.602   1.151   1.598  0.7105 -0.0281  0.6264
    1SOL     OW 3713   3.811   1.268   1.478 -0.4449  0.0689 -0.2389
    1SOL    HW2 3714   3.886   1.226   1.520 -0.7951  0.0355  0.3726
    1SOL    HW3 3715   3.822   1.361   1.497 -0.8082  0.0120  0.2673
    1SOL    MW4 3716   3.823   1.274   1.486 -0.5393  0.0570 -0.0914
    1SOL     OW 3717   3.812   1.552   1.539 -0.0297 -0.3892 -0.4202
    1SOL    HW2 3718   3.815   1.562   1.634 -2.1355 -1.9597 -0.1486
    1SOL    HW3 3719   3.736   1.604   1.511 -0.3179 -1.1348 -1.0535
    1SOL    MW4 3720   3.802   1.560   1.548 -0.3459 -0.6949 -0.4679
    1SOL     OW 3721   3.565   1.708   1.471  0.0555  0.1752  0.2867
    1SOL    HW2 3722   3.492   1.656   1.505  0.5713  0.3030  1.6211
    1SOL    HW3 3723   3.552   1.709   1.376 -1.1240 -0.6285  0.4326
    1SOL    MW4 3724   3.554   1.701   1.463 -0.0322  0.0859  0.4820
    1SOL     OW 3725   3.571   1.961   1.574 -0.0162  0.3972  0.0184
    1SOL    HW2 3726   3.566   1.872   1.539 -0.4420  0.0960  0.8197
    1SOL    HW3 3727   3.501   2.008   1.530 -0.1566  0.1821  0.0080
    1SOL    MW4 3728   3.561   1.955   1.564 -0.0908  0.3291  0.1227
    1SOL     OW 3729   3.824   2.101   1.490 -0.0546 -0.2277  0.0599
    1SOL    HW2 3730   3.817   2.195   1.508  0.2694 -0.1978  0.0325
    1SOL    HW3 3731   3.746   2.063   1.531 -0.9842  0.2399 -1.2462
    1SOL    MW4 3732   3.813   2.108   1.498 -0.1345 -0.1619 -0.1160
    1SOL     OW 3733   3.830   2.376   1.546  0.6991 -0.0960  0.0389
    1SOL    HW2 3734   3.818   2.379   1.641 -1.4572 -0.6455 -0.1832
    1SOL    HW3 3735   3.907   2.430   1.530  0.0580  1.4694  1.9306
    1SOL    MW4 3736   3.838   2.383   1.557  0.3302  0.0381  0.2592
    1SOL     OW 3737   3.577   2.470   1.468  0.3378  0.0393  0.0638
    1SOL    HW2 3738   3.598   2.559   1.496  0.1386  0.1584 -0.1715
    1SOL    HW3 3739   3.653   2.419   1.494  0.1292  0.1369  0.8979
    1SOL    MW4 3740   3.590   2.475   1.475  0.2837  0.0679  0.1427
    1SOL     OW 3741   3.623   2.712   1.580  0.6137  0.6200 -0.1317
    1SOL    HW2 3742   3.624   2.692   1.673 -0.4482 -0.0056 -0.2484
    1SOL    HW3 3743   3.539   2.755   1.565  1.0304  1.2667 -0.6981
    1SOL    MW4 3744   3.612   2.715   1.590  0.5286  0.6227 -0.2218
    1SOL     OW 3745   3.819   2.853   1.462  1.0450  0.5435  0.0497
    1SOL    HW2 3746   3.899   2.820   1.503  1.1492 -0.8856 -1.2671
    1SOL    HW3 3747   3.748   2.803   1.503  0.8530  1.4179  0.8137
    1SOL    MW4 3748   3.820   2.842   1.473  1.0333  0.4704 -0.0231
    1SOL     OW 3749   3.844   3.101   1.572  0.0858 -0.0907  0.2159
    1SOL    HW2 3750   3.928   3.139   1.545  0.5585 -1.3090 -0.0503
    1SOL    HW3 3751   3.841   3.017   1.527 -0.4336 -0.8755  1.7089
    1SOL    MW4 3752   3.855   3.095   1.562  0.0796 -0.3548  0.3779
    1SOL     OW 3753   3.593   3.203   1.511  0.3099  0.1250  0.3020
    1SOL    HW2 3754   3.683   3.177   1.534  0.2196 -0.8170 -0.3699
    1SOL    HW3 3755   3.594   3.209   1.415 -0.9045 -2.1203  0.0999
    1SOL    MW4 3756   3.605   3.200   1.501  0.1378 -0.2954  0.1866
    1SOL     OW 3757   3.587   3.466   1.577 -0.1035  0.4601  0.0940
    1SOL    HW2 3758   3.667   3.510   1.548 -0.3225  1.7912  1.3849
    1SOL    HW3 3759   3.597   3.375   1.550  1.3658  0.8476 -0.6939
    1SOL    MW4 3760   3.599   3.460   1.570  0.0615  0.6866  0.1605
    1SOL     OW 3761   3.813   3.614   1.485  0.5362  0.1252 -0.4714
    1SOL    HW2 3762   3.898   3.589   1.522  1.1756  0.5169 -1.6467
    1SOL    HW3 3763   3.801   3.705   1.513  0.2228 -0.1126  0.1831
    1SOL    MW4 3764   3.823   3.623   1.494  0.5789  0.1454 -0.5403
    1SOL     OW 3765   3.818   3.874   1.574 -0.3114  0.2511  0.1823
    1SOL    HW2 3766   3.897   3.920   1.549 -0.3439 -0.1047 -0.5755
    1SOL    HW3 3767   3.746   3.930   1.543 -0.3522 -0.8894 -1.8436
    1SOL    MW4 3768   3.819   3.887   1.567 -0.3211  0.0536 -0.1849
    1SOL     OW 3769   3.592   4.002   1.521 -0.0678 -0.5974  0.2208
    1SOL    HW2 3770   3.576   4.083   1.570 -2.0655 -1.1356  0.4813
    1SOL    HW3 3771   3.517   3.947   1.541  0.7452 -2.1031 -0.8376
    1SOL    MW4 3772   3.580   4.006   1.530 -0.2241 -0.8674  0.1158
    1SOL     OW 3773   3.559   4.256   1.613 -0.6344  0.2924  0.3438
    1SOL    HW2 3774   3.561   4.248   1.708 -1.0996 -2.6085  0.1569
    1SOL    HW3 3775   3.475   4.298   1.594  0.0625  2.1640  1.2508
    1SOL    MW4 3776   3.548   4.261   1.623 -0.6039  0.1569  0.4388
    1SOL     OW 3777   3.817   4.346   1.466  0.0513 -0.6013  0.9418
    1SOL    HW2 3778   3.744   4.293   1.498 -0.8485  0.5041  0.7508
    1SOL    HW3 3779   3.811   4.428   1.515  1.1511 -0.4815  0.9034
    1SOL    MW4 3780   3.807   4.350   1.477  0.0777 -0.4396  0.9116
    1SOL     OW 3781   4.310   4.666   1.616  0.0108 -0.5610  0.5472
    1SOL    HW2 3782   4.311   4.649   1.710  0.7626  0.1410  0.6791
    1SOL    HW3 3783   4.297   4.581   1.576 -1.1284 -0.7627  1.3063
    1SOL    MW4 3784   4.308   4.653   1.623 -0.0401 -0.4950  0.6649
    1SOL     OW 3785   4.057   0.085   1.517 -0.2355  0.0610 -0.4464
    1SOL    HW2 3786   4.048   0.177   1.540  0.4368 -0.4362  1.9073
    1SOL    HW3 3787   4.140   0.058   1.555 -1.8095 -2.2583  1.5216
    1SOL    MW4 3788   4.067   0.093   1.525 -0.3543 -0.3106  0.1237
    1SOL     OW 3789   4.034   0.377   1.584  0.0762 -0.2693  0.1357
    1SOL    HW2 3790   4.040   0.382   1.679  0.6425  0.3204  0.0746
    1SOL    HW3 3791   3.950   0.420   1.563  0.5350  0.7240  0.2887
    1SOL    MW4 3792   4.024   0.383   1.594  0.2117 -0.0604  0.1478
    1SOL     OW 3793   4.266   0.516   1.494  0.5120  0.0137 -0.3095
    1SOL    HW2 3794   4.191   0.467   1.528  1.1853 -1.3227 -0.7153
    1SOL    HW3 3795   4.341   0.479   1.539  0.9541  1.2497 -0.0116
    1SOL    MW4 3796   4.266   0.505   1.504  0.6590  0.0004 -0.3238
    1SOL     OW 3797   4.275   0.749   1.650 -0.5202  0.0749  0.2107
    1SOL    HW2 3798   4.269   0.666   1.603 -0.9755 -0.0151  0.4210
    1SOL    HW3 3799   4.342   0.799   1.603 -1.8499  0.4805 -1.2853
    1SOL    MW4 3800   4.283   0.745   1.638 -0.7553  0.1165  0.0411
    1SOL     OW 3801   4.057   0.885   1.551 -0.0017  0.0671 -0.3077
    1SOL    HW2 3802   4.123   0.830   1.594 -0.2997 -0.5599 -0.6363
    1SOL    HW3 3803   3.974   0.840   1.568 -0.4129  1.1421  0.5554
    1SOL    MW4 3804   4.055   0.872   1.559 -0.0954  0.1262 -0.2371
    1SOL     OW 3805   4.032   1.154   1.608  0.1050 -0.2302 -0.2148
    1SOL    HW2 3806   4.026   1.154   1.704 -0.2747 -1.6493 -0.2320
    1SOL    HW3 3807   4.047   1.062   1.585  3.0690  0.4549 -1.3360
    1SOL    MW4 3808   4.033   1.142   1.618  0.4458 -0.3270 -0.3650
    1SOL     OW 3809   4.232   1.281   1.491 -0.2414  0.2578  0.2934
    1SOL    HW2 3810   4.173   1.224   1.541 -0.1770 -0.8404 -0.8513
    1SOL    HW3 3811   4.319   1.244   1.505 -0.1070  0.4985  0.1033
    1SOL    MW4 3812   4.235   1.269   1.500 -0.2155  0.1446  0.1174
    1SOL     OW 3813   4.237   1.534   1.604 -0.2620 -0.1448 -0.4443
    1SOL    HW2 3814   4.240   1.440   1.587 -0.2031 -0.3942  0.9263
    1SOL    HW3 3815   4.307   1.570   1.550 -0.4330 -0.8551 -1.1539
    1SOL    MW4 3816   4.246   1.526   1.594 -0.2770 -0.2714 -0.3570
    1SOL     OW 3817   4.033   1.676   1.482 -0.1205  0.3685  0.2080
    1SOL    HW2 3818   4.106   1.630   1.523  0.0239  0.5311  0.1351
    1SOL    HW3 3819   3.957   1.621   1.500  0.3911 -1.0407 -1.7653
    1SOL    MW4 3820   4.033   1.663   1.490 -0.0339  0.2041 -0.0620
    1SOL     OW 3821   4.044   1.925   1.593  0.1110  0.0945  0.0852
    1SOL    HW2 3822   4.054   1.849   1.537 -0.5382  0.2692 -0.2706
    1SOL    HW3 3823   3.973   1.976   1.553  0.5707  0.9110  0.2866
    1SOL    MW4 3824   4.036   1.922   1.581  0.0863  0.2253  0.0647
    1SOL     OW 3825   4.264   2.075   1.485  0.2013  0.1619  0.0645
    1SOL    HW2 3826   4.184   2.034   1.518  0.7279 -1.2171 -0.3294
    1SOL    HW3 3827   4.258   2.066   1.390  1.1898 -0.6586  0.0726
    1SOL    MW4 3828   4.253   2.068   1.477  0.4005 -0.1283  0.0137
    1SOL     OW 3829   4.257   2.342   1.581  0.3229  0.1344  0.2495
    1SOL    HW2 3830   4.248   2.320   1.674  0.9184  0.6612  0.4397
    1SOL    HW3 3831   4.255   2.257   1.536  1.7651 -0.2733  0.9004
    1SOL    MW4 3832   4.256   2.328   1.588  0.5913  0.1504  0.3605
    1SOL     OW 3833   4.067   2.499   1.468 -0.3912  0.0549  0.4662
    1SOL    HW2 3834   4.079   2.591   1.491  0.4603  0.0645 -0.0038
    1SOL    HW3 3835   4.132   2.452   1.520  0.5936 -0.0670 -0.8525
    1SOL    MW4 3836   4.077   2.505   1.478 -0.1493  0.0398  0.2302
    1SOL     OW 3837   4.054   2.758   1.579 -0.4502  0.2030  0.8248
    1SOL    HW2 3838   4.052   2.710   1.662  1.5284  0.2527  0.9116
    1SOL    HW3 3839   4.126   2.820   1.589 -0.7664  0.8128 -0.6088
    1SOL    MW4 3840   4.063   2.760   1.592 -0.2303  0.2899  0.6472
    1SOL     OW 3841   4.276   2.896   1.543 -0.2950 -0.4026  0.1206
    1SOL    HW2 3842   4.273   2.991   1.552 -1.5816 -0.5333  1.2720
    1SOL    HW3 3843   4.262   2.880   1.450 -0.2259  0.5322 -0.0531
    1SOL    MW4 3844   4.274   2.906   1.532 -0.4559 -0.2968  0.2495
    1SOL     OW 3845   4.279   3.157   1.614  0.1287  0.2451 -0.4543
    1SOL    HW2 3846   4.270   3.152   1.709 -1.3705  3.8033 -0.3305
    1SOL    HW3 3847   4.371   3.179   1.599  0.4556 -0.7054  0.1410
    1SOL    MW4 3848   4.290   3.159   1.625 -0.0262  0.5889 -0.3593
    1SOL     OW 3849   4.064   3.249   1.468  0.1320 -0.3949 -0.1779
    1SOL    HW2 3850   4.058   3.337   1.506  0.3061 -0.7920  0.7838
    1SOL    HW3 3851   4.144   3.212   1.505  0.6299 -0.5863 -1.3967
    1SOL    MW4 3852   4.074   3.256   1.478  0.2208 -0.4725 -0.2118
    1SOL     OW 3853   4.042   3.502   1.568  0.0963 -0.1700 -0.2688
    1SOL    HW2 3854   4.032   3.508   1.663  0.3891 -1.8791 -0.1121
    1SOL    HW3 3855   4.122   3.551   1.549 -0.1815  0.5185  0.2986
    1SOL    MW4 3856   4.051   3.510   1.578  0.0978 -0.3047 -0.1733
    1SOL     OW 3857   4.307   3.636   1.507 -0.3763  0.5181 -0.0052
    1SOL    HW2 3858   4.330   3.728   1.519  2.6937 -0.1774 -0.2381
    1SOL    HW3 3859   4.305   3.625   1.412  0.3692  0.0943  0.0253
    1SOL    MW4 3860   4.309   3.647   1.496  0.1268  0.3707 -0.0319
    1SOL     OW 3861   4.331   3.895   1.604 -0.2900 -0.2428 -0.0628
    1SOL    HW2 3862   4.246   3.933   1.581 -0.7071 -0.3737  1.2701
    1SOL    HW3 3863   4.395   3.953   1.560 -1.0363  0.0979 -0.7196
    1SOL    MW4 3864   4.328   3.908   1.595 -0.4435 -0.2151  0.0263
    1SOL     OW 3865   4.081   3.994   1.492 -0.0502 -0.3013 -0.5038
    1SOL    HW2 3866   4.077   4.083   1.527 -1.1380 -0.6735  0.3166
    1SOL    HW3 3867   4.066   4.005   1.398 -0.3525  0.3646 -0.3822
    1SOL    MW4 3868   4.079   4.007   1.484 -0.2341 -0.2623 -0.3796
    1SOL     OW 3869   4.050   4.249   1.598  0.1513  0.9427  0.5039
    1SOL    HW2 3870   4.031   4.244   1.692 -1.4497 -0.6200  0.1247
    1SOL    HW3 3871   3.966   4.270   1.557  0.8659  1.7736 -0.5948
    1SOL    MW4 3872   4.036   4.251   1.605  0.0343  0.8459  0.3089
    1SOL     OW 3873   4.265   4.404   1.500  0.3339 -0.7415  0.5063
    1SOL    HW2 3874   4.184   4.355   1.512  0.1037 -0.3807  0.4330
    1SOL    HW3 3875   4.271   4.418   1.406  0.4833 -0.7750  0.5113
    1SOL    MW4 3876   4.255   4.400   1.489  0.3233 -0.6981  0.4975
    1SOL     OW 3877   0.213   0.010   1.933  0.5674 -0.4926  0.1033
    1SOL    HW2 3878   0.296   0.046   1.965 -0.6241  1.6956  0.8554
    1SOL    HW3 3879   0.226  -0.001   1.839  1.4042  0.6777  0.0733
    1SOL    MW4 3880   0.226   0.013   1.925  0.5206 -0.0495  0.1985
    1SOL     OW 3881   4.482   0.162   2.001  0.2893 -0.2799  0.4051
    1SOL    HW2 3882   4.493   0.251   1.969  0.5662 -0.2520  0.5696
    1SOL    HW3 3883   4.558   0.115   1.967  0.1528 -0.4477  0.3328
    1SOL    MW4 3884   4.494   0.168   1.992  0.3080 -0.2983  0.4172
    1SOL     OW 3885   0.023   0.415   1.894 -0.2534  0.1388 -0.0587
    1SOL    HW2 3886  -0.054   0.461   1.926  0.2935  1.9589 -1.3098
    1SOL    HW3 3887   0.097   0.465   1.929  0.3725 -1.2566  0.6513
    1SOL    MW4 3888   0.023   0.428   1.903 -0.0987  0.1948 -0.1302
    1SOL     OW 3889   0.260   0.543   2.007  0.6078  0.4957 -0.2480
    1SOL    HW2 3890   0.314   0.476   1.965  1.4947  2.3218 -2.1205
    1SOL    HW3 3891   0.279   0.623   1.957 -1.8054  1.7339  0.7650
    1SOL    MW4 3892   0.270   0.544   1.995  0.4064  0.9000 -0.3613
    1SOL     OW 3893   0.226   0.787   1.859 -0.5246  0.0335 -0.1972
    1SOL    HW2 3894   0.298   0.849   1.873 -1.7301  1.4125  0.1380
    1SOL    HW3 3895   0.222   0.777   1.764 -0.5089  0.7342 -0.2806
    1SOL    MW4 3896   0.235   0.794   1.848 -0.6816  0.3079 -0.1639
    1SOL     OW 3897   4.488   0.907   1.998 -0.3361  0.2561 -0.0165
    1SOL    HW2 3898   4.409   0.855   1.982 -0.1252 -0.4741  1.2042
    1SOL    HW3 3899   4.559   0.854   1.961 -0.3181  0.4833 -0.3055
    1SOL    MW4 3900   4.487   0.893   1.991 -0.3059  0.1897  0.1065
    1SOL     OW 3901   4.481   1.152   1.848 -0.2003  0.0219  0.0933
    1SOL    HW2 3902   4.401   1.198   1.872 -0.0226  0.4190 -0.0632
    1SOL    HW3 3903   4.472   1.065   1.886 -1.1763 -0.2837 -0.8309
    1SOL    MW4 3904   4.470   1.147   1.856 -0.3057  0.0339 -0.0494
    1SOL     OW 3905   0.202   1.290   1.952  0.2158 -0.0236 -0.4263
    1SOL    HW2 3906   0.196   1.376   1.912 -1.6465  0.1027  0.0525
    1SOL    HW3 3907   0.121   1.246   1.925 -1.3325  0.2148  3.4470
    1SOL    MW4 3908   0.191   1.295   1.944 -0.2341  0.0246  0.1479
    1SOL     OW 3909   0.214   1.544   1.821 -0.1635  0.1757  0.1236
    1SOL    HW2 3910   0.281   1.598   1.862 -1.1253  1.2350  0.3179
    1SOL    HW3 3911   0.132   1.572   1.861 -0.5962 -2.0391  0.8577
    1SOL    MW4 3912   0.212   1.555   1.831 -0.3475  0.0234  0.2462
    1SOL     OW 3913   4.481   1.674   1.962  0.0841 -0.6318  0.7553
    1SOL    HW2 3914   4.478   1.665   2.057 -1.2959 -1.3382  0.6639
    1SOL    HW3 3915   4.393   1.649   1.933  0.0043  1.0973 -0.5884
    1SOL    MW4 3916   4.469   1.669   1.971 -0.1082 -0.4967  0.5660
    1SOL     OW 3917   0.023   1.921   1.837 -0.2730 -0.5993  0.4852
    1SOL    HW2 3918  -0.058   1.954   1.876 -0.4274 -2.1938  1.5717
    1SOL    HW3 3919   0.022   1.827   1.855  1.0559 -0.9084 -0.8910
    1SOL    MW4 3920   0.012   1.913   1.844 -0.1181 -0.8506  0.4469
    1SOL     OW 3921   0.221   2.055   1.980 -0.4469  0.0637  0.1068
    1SOL    HW2 3922   0.220   2.145   1.947 -2.4633  0.0349  0.0213
    1SOL    HW3 3923   0.151   2.012   1.932 -0.7819 -1.0390  1.5607
    1SOL    MW4 3924   0.212   2.061   1.969 -0.7572 -0.0858  0.2873
    1SOL     OW 3925   0.206   2.293   1.851  0.3972 -0.3281  0.2290
    1SOL    HW2 3926   0.276   2.351   1.881  0.5858 -0.1543 -0.5367
    1SOL    HW3 3927   0.127   2.326   1.893  0.3960  0.8812 -0.6949
    1SOL    MW4 3928   0.204   2.305   1.860  0.4219 -0.1457  0.0060
    1SOL     OW 3929   4.437   2.433   1.977 -0.1684 -0.4299  0.2877
    1SOL    HW2 3930   4.462   2.425   2.069 -0.4134 -1.1446  0.2945
    1SOL    HW3 3931   4.469   2.519   1.951  0.3354 -0.4267  0.9080
    1SOL    MW4 3932   4.445   2.443   1.986 -0.1345 -0.5238  0.3704
    1SOL     OW 3933   0.008   2.687   1.886  0.1822 -0.2303 -0.0559
    1SOL    HW2 3934  -0.079   2.719   1.910  1.3843  1.2618  2.6255
    1SOL    HW3 3935   0.021   2.716   1.796 -1.5616  0.7662  0.0055
    1SOL    MW4 3936  -0.001   2.695   1.878  0.1106  0.0982  0.3059
    1SOL     OW 3937   0.206   2.861   2.007 -0.2332  0.1924  0.1519
    1SOL    HW2 3938   0.204   2.947   1.965 -0.4309 -0.0305 -0.3002
    1SOL    HW3 3939   0.137   2.811   1.963 -1.6015  0.4738  1.8782
    1SOL    MW4 3940   0.196   2.866   1.996 -0.4398  0.2000  0.3198
    1SOL     OW 3941   0.202   3.114   1.897 -0.0452  0.6040 -0.0662
    1SOL    HW2 3942   0.278   3.158   1.935  0.1847  0.0638  0.1049
    1SOL    HW3 3943   0.221   3.109   1.803 -0.1711  1.0581 -0.1186
    1SOL    MW4 3944   0.214   3.119   1.890 -0.0315  0.5925 -0.0505
    1SOL     OW 3945   4.481   3.234   2.006 -0.0930  0.0750 -0.2660
    1SOL    HW2 3946   4.409   3.188   1.963 -0.0461  0.4165 -0.7168
    1SOL    HW3 3947   4.559   3.185   1.981 -0.0072  0.5796 -1.0120
    1SOL    MW4 3948   4.482   3.221   1.997 -0.0755  0.1869 -0.4241
    1SOL     OW 3949   4.459   3.477   1.879 -0.2395  0.1029  0.0555
    1SOL    HW2 3950   4.543   3.514   1.907  0.4401 -0.3748 -1.2993
    1SOL    HW3 3951   4.461   3.387   1.912 -0.9991  0.6150  1.5526
    1SOL    MW4 3952   4.470   3.470   1.887 -0.2499  0.1073  0.0744
    1SOL     OW 3953   0.181   3.641   1.958  0.3978 -0.1107 -0.2000
    1SOL    HW2 3954   0.193   3.645   2.052  1.1201  1.2342 -0.3293
    1SOL    HW3 3955   0.256   3.591   1.925  1.3398  1.3148 -0.2544
    1SOL    MW4 3956   0.192   3.635   1.966  0.6174  0.2549 -0.2242
    1SOL     OW 3957   0.204   3.906   1.853 -0.0837 -0.4863 -0.0977
    1SOL    HW2 3958   0.280   3.933   1.905 -0.5908 -0.0390  0.4267
    1SOL    HW3 3959   0.192   3.814   1.875  0.7905 -0.7744 -0.7973
    1SOL    MW4 3960   0.213   3.897   1.863 -0.0353 -0.4654 -0.1208
    1SOL     OW 3961   0.005   4.010   2.019  0.2806 -0.1565  0.1328
    1SOL    HW2 3962  -0.010   4.100   1.988  0.6301  0.1398  0.7918
    1SOL    HW3 3963   0.077   3.978   1.966  0.4398  0.1133  0.1824
    1SOL    MW4 3964   0.013   4.018   2.008  0.3471 -0.0820  0.2265
    1SOL     OW 3965   4.447   4.256   1.904 -0.0017  0.2850 -0.0015
    1SOL    HW2 3966   4.374   4.310   1.935 -0.4136 -0.4837  0.3617
    1SOL    HW3 3967   4.525   4.307   1.925 -0.4363  1.2010 -0.5694
    1SOL    MW4 3968   4.448   4.270   1.911 -0.1135  0.3047 -0.0286
    1SOL     OW 3969   0.203   4.403   1.970 -0.0542 -0.3662 -0.3877
    1SOL    HW2 3970   0.209   4.403   2.065 -1.1844  1.5673 -0.2875
    1SOL    HW3 3971   0.206   4.495   1.946 -2.6961 -0.6353 -2.0047
    1SOL    MW4 3972   0.204   4.415   1.979 -0.5519 -0.1464 -0.5879
    1SOL     OW 3973   0.691   0.047   1.900 -0.2852  0.0087 -0.0031
    1SOL    HW2 3974   0.691  -0.044   1.931  0.1185 -0.0834 -0.2771
    1SOL    HW3 3975   0.688   0.040   1.805  0.0849  0.2797 -0.0361
    1SOL    MW4 3976   0.690   0.034   1.891 -0.1832  0.0323 -0.0436
    1SOL     OW 3977   0.447   0.143   2.024  0.1487  0.2888 -0.0860
    1SOL    HW2 3978   0.442   0.225   1.975 -0.6955 -0.0837 -0.6129
    1SOL    HW3 3979   0.530   0.103   1.996  1.6704  1.9814  1.7826
    1SOL    MW4 3980   0.457   0.149   2.014  0.2382  0.4630  0.0911
    1SOL     OW 3981   0.446   0.390   1.885  0.4646  0.3980 -0.4617
    1SOL    HW2 3982   0.531   0.415   1.922  0.7161 -1.2633  0.0948
    1SOL    HW3 3983   0.460   0.384   1.791  1.1452 -0.5625 -0.3014
    1SOL    MW4 3984   0.459   0.393   1.878  0.5876  0.0521 -0.3672
    1SOL     OW 3985   0.672   0.498   1.992  0.1796  0.2887  0.4384
    1SOL    HW2 3986   0.664   0.485   2.086 -0.0879  0.3538  0.4262
    1SOL    HW3 3987   0.758   0.463   1.969 -0.1132 -0.5086  0.5644
    1SOL    MW4 3988   0.682   0.492   2.001  0.1057  0.1921  0.4535
    1SOL     OW 3989   0.666   0.753   1.905 -0.3517 -0.7658 -0.3694
    1SOL    HW2 3990   0.752   0.794   1.918 -0.6635 -0.2415  0.0673
    1SOL    HW3 3991   0.670   0.673   1.957 -0.1627 -0.6903 -0.2643
    1SOL    MW4 3992   0.678   0.748   1.914 -0.3679 -0.6867 -0.2980
    1SOL     OW 3993   0.463   0.920   1.949 -0.1090  0.3858  0.1756
    1SOL    HW2 3994   0.452   0.930   2.043  1.1553  1.1685  0.2529
    1SOL    HW3 3995   0.527   0.849   1.939  0.2507  0.7451 -0.0811
    1SOL    MW4 3996   0.470   0.912   1.960  0.1053  0.5365  0.1519
    1SOL     OW 3997   0.431   1.183   1.861  0.4133 -0.1772  0.0380
    1SOL    HW2 3998   0.342   1.207   1.886 -0.0275  0.4996 -2.0516
    1SOL    HW3 3999   0.439   1.091   1.885 -0.5105  0.0188  1.1136
    1SOL    MW4 4000   0.420   1.174   1.867  0.2332 -0.0620 -0.0958
    1SOL     OW 4001   0.682   1.267   1.967  0.5067  0.1420  0.4962
    1SOL    HW2 4002   0.684   1.265   2.062  0.6792 -1.9583  0.4535
    1SOL    HW3 4003   0.603   1.219   1.942  0.7152  0.2527 -0.4262
    1SOL    MW4 4004   0.672   1.261   1.976  0.5571 -0.1205  0.3688
    1SOL     OW 4005   0.685   1.557   1.873  0.0835  0.0675 -0.2893
    1SOL    HW2 4006   0.682   1.469   1.911 -1.4582  0.3257  0.2203
    1SOL    HW3 4007   0.683   1.542   1.778  0.2243 -0.4635 -0.2094
    1SOL    MW4 4008   0.684   1.543   1.865 -0.1014  0.0315 -0.2114
    1SOL     OW 4009   0.446   1.664   1.945  0.0942 -0.2714  0.3719
    1SOL    HW2 4010   0.445   1.662   2.040 -1.2109 -0.7067  0.3530
    1SOL    HW3 4011   0.528   1.621   1.921  1.3834  1.5933  1.3217
    1SOL    MW4 4012   0.457   1.658   1.954  0.0921 -0.0829  0.4946
    1SOL     OW 4013   0.426   1.928   1.829 -0.6545 -0.2829  0.1004
    1SOL    HW2 4014   0.438   1.838   1.861  0.6221  0.4914  1.8656
    1SOL    HW3 4015   0.352   1.962   1.880  0.7287  0.6209  1.5149
    1SOL    MW4 4016   0.418   1.920   1.840 -0.3036 -0.0615  0.5198
    1SOL     OW 4017   0.625   2.079   1.962  0.6676 -0.1414  0.1634
    1SOL    HW2 4018   0.629   2.084   2.057  0.8286 -0.0703  0.1528
    1SOL    HW3 4019   0.559   2.012   1.944  0.7358 -0.2510  0.3248
    1SOL    MW4 4020   0.617   2.071   1.972  0.6979 -0.1464  0.1832
    1SOL     OW 4021   0.672   2.360   1.906 -0.0241 -0.0049  0.4444
    1SOL    HW2 4022   0.661   2.268   1.927  1.1191 -0.1696  0.3240
    1SOL    HW3 4023   0.680   2.362   1.811 -0.6314  0.2826  0.3951
    1SOL    MW4 4024   0.671   2.348   1.896  0.0466  0.0112  0.4221
    1SOL     OW 4025   0.394   2.452   1.981 -0.4033 -0.1016 -0.1857
    1SOL    HW2 4026   0.394   2.440   2.076  0.1082  1.2373 -0.0165
    1SOL    HW3 4027   0.484   2.434   1.954 -0.0663  1.4851 -0.1586
    1SOL    MW4 4028   0.406   2.448   1.990 -0.2914  0.2844 -0.1599
    1SOL     OW 4029   0.407   2.715   1.886 -0.0006 -0.2648  0.4264
    1SOL    HW2 4030   0.394   2.634   1.936 -0.3958 -0.0187  0.7332
    1SOL    HW3 4031   0.336   2.772   1.915  0.4723  0.3126  0.4542
    1SOL    MW4 4032   0.396   2.712   1.896  0.0096 -0.1564  0.4705
    1SOL     OW 4033   0.626   2.838   2.005 -0.1567 -0.6818 -0.0876
    1SOL    HW2 4034   0.637   2.817   2.098 -0.1438 -0.9997 -0.1611
    1SOL    HW3 4035   0.544   2.796   1.980 -1.3250  1.3152  0.3436
    1SOL    MW4 4036   0.617   2.829   2.014 -0.3092 -0.4604 -0.0405
    1SOL     OW 4037   0.633   3.111   1.899  0.7157 -0.0351  0.0724
    1SOL    HW2 4038   0.626   3.023   1.936 -0.0359  0.4500  1.0944
    1SOL    HW3 4039   0.653   3.096   1.806  1.1351 -1.2709  0.3439
    1SOL    MW4 4040   0.635   3.097   1.891  0.6719 -0.1342  0.2431
    1SOL     OW 4041   0.417   3.254   1.996 -0.3345 -0.3430  0.3742
    1SOL    HW2 4042   0.408   3.335   1.946  0.4787 -0.5790 -0.1713
    1SOL    HW3 4043   0.491   3.209   1.955 -0.5291 -1.1759  0.9256
    1SOL    MW4 4044   0.426   3.258   1.984 -0.2528 -0.4842  0.3749
    1SOL     OW 4045   0.399   3.493   1.879 -0.4984 -0.0432 -0.8219
    1SOL    HW2 4046   0.469   3.547   1.915 -0.4767 -1.1654  0.8723
    1SOL    HW3 4047   0.408   3.503   1.784  1.5416  0.3455 -0.6163
    1SOL    MW4 4048   0.410   3.502   1.871 -0.2264 -0.1400 -0.5714
    1SOL     OW 4049   0.613   3.648   1.986 -0.5212  0.0353 -0.3516
    1SOL    HW2 4050   0.698   3.614   1.957 -0.3626 -0.6240  0.8491
    1SOL    HW3 4051   0.619   3.743   1.971 -0.7123 -0.3507 -3.0712
    1SOL    MW4 4052   0.625   3.656   1.981 -0.5255 -0.1025 -0.5521
    1SOL     OW 4053   0.615   3.903   1.885  0.0092 -0.2743  0.4858
    1SOL    HW2 4054   0.693   3.942   1.924  0.2115 -0.3343  0.1481
    1SOL    HW3 4055   0.637   3.895   1.792 -0.1494 -0.8929  0.4994
    1SOL    MW4 4056   0.628   3.907   1.878  0.0150 -0.3638  0.4430
    1SOL     OW 4057   0.409   4.029   2.012  0.1881 -0.0471  0.3506
    1SOL    HW2 4058   0.411   4.117   1.974  0.9956  0.2323  1.0375
    1SOL    HW3 4059   0.482   3.984   1.970 -1.0445 -0.8203 -1.0125
    1SOL    MW4 4060   0.419   4.035   2.001  0.1320 -0.1121  0.2615
    1SOL     OW 4061   0.427   4.271   1.880  0.1714  0.3162 -0.0444
    1SOL    HW2 4062   0.350   4.320   1.909 -0.3314 -0.0781 -0.6964
    1SOL    HW3 4063   0.436   4.295   1.787 -0.1700 -0.9456 -0.4061
    1SOL    MW4 4064   0.418   4.281   1.872  0.0600  0.0973 -0.1781
    1SOL     OW 4065   0.657   4.431   1.956  0.1577 -0.1641  0.3028
    1SOL    HW2 4066   0.729   4.384   1.915 -0.9706 -2.3572  0.7579
    1SOL    HW3 4067   0.579   4.401   1.910 -0.6972  0.4752  1.2982
    1SOL    MW4 4068   0.656   4.421   1.945 -0.1039 -0.3691  0.4941
    1SOL     OW 4069   1.116   4.667   1.855 -0.1270  0.5480  0.3202
    1SOL    HW2 4070   1.198   4.690   1.898 -0.1522 -0.1114  0.7210
    1SOL    HW3 4071   1.095   4.579   1.887 -0.0438 -0.0317 -1.1910
    1SOL    MW4 4072   1.124   4.658   1.865 -0.1193  0.3843  0.1739
    1SOL     OW 4073   0.939   0.139   2.001  0.5294 -0.3674 -0.3607
    1SOL    HW2 4074   0.999   0.089   1.944  0.2747 -1.3991  0.2637
    1SOL    HW3 4075   0.852   0.122   1.965  0.4992  0.1271 -0.5183
    1SOL    MW4 4076   0.936   0.130   1.988  0.4918 -0.4383 -0.2992
    1SOL     OW 4077   0.904   0.382   1.868 -0.3483 -0.3816 -0.1493
    1SOL    HW2 4078   0.971   0.434   1.912  0.8117  0.3055 -2.6581
    1SOL    HW3 4079   0.909   0.296   1.911  0.7544  0.2516  1.0281
    1SOL    MW4 4080   0.914   0.377   1.880 -0.0497 -0.2075 -0.3248
    1SOL     OW 4081   1.113   0.525   2.001 -0.2910  0.3103 -0.4538
    1SOL    HW2 4082   1.195   0.478   1.983 -1.0440 -0.7495 -1.1855
    1SOL    HW3 4083   1.119   0.604   1.946  0.0149 -0.0244 -0.9116
    1SOL    MW4 4084   1.125   0.530   1.991 -0.3500  0.1264 -0.6107
    1SOL     OW 4085   1.120   0.765   1.849  0.5509 -0.0017  0.2185
    1SOL    HW2 4086   1.193   0.817   1.883  0.2928 -0.5980  1.7324
    1SOL    HW3 4087   1.042   0.816   1.872  0.5015  1.0477 -2.1330
    1SOL    MW4 4088   1.120   0.779   1.856  0.5102  0.0581  0.1080
    1SOL     OW 4089   0.907   0.894   1.954  0.2447  0.3193  0.4463
    1SOL    HW2 4090   0.912   0.895   2.050 -0.1311  0.0271  0.4685
    1SOL    HW3 4091   0.897   0.986   1.930  0.3105  0.3911  0.6898
    1SOL    MW4 4092   0.907   0.906   1.964  0.2038  0.2902  0.4812
    1SOL     OW 4093   0.921   1.165   1.874 -0.3382 -0.0005 -0.1943
    1SOL    HW2 4094   0.837   1.191   1.911 -0.3755 -0.8533  0.3112
    1SOL    HW3 4095   0.909   1.173   1.779 -0.1112  2.5577 -0.0494
    1SOL    MW4 4096   0.909   1.169   1.866 -0.3131  0.2245 -0.1085
    1SOL     OW 4097   1.108   1.309   2.017 -0.2775 -0.0927  0.2911
    1SOL    HW2 4098   1.096   1.399   1.988  0.5089 -0.2474 -0.5169
    1SOL    HW3 4099   1.044   1.258   1.968  0.9531 -0.3332 -1.1047
    1SOL    MW4 4100   1.098   1.314   2.007 -0.0113 -0.1451  0.0002
    1SOL     OW 4101   1.131   1.558   1.881 -0.1858 -0.0462  0.1181
    1SOL    HW2 4102   1.049   1.603   1.904 -0.2267  0.4370 -0.9365
    1SOL    HW3 4103   1.133   1.560   1.785  0.4010 -1.2511  0.0946
    1SOL    MW4 4104   1.120   1.564   1.871 -0.1140 -0.1414 -0.0242
    1SOL     OW 4105   0.907   1.679   1.985 -0.6880  0.1491  0.3524
    1SOL    HW2 4106   0.898   1.772   1.961 -1.4138  0.2191  0.9032
    1SOL    HW3 4107   0.828   1.638   1.950 -0.0461 -0.3995 -0.4991
    1SOL    MW4 4108   0.895   1.686   1.977 -0.6991  0.0859  0.3128
    1SOL     OW 4109   0.870   1.956   1.899 -0.1935  0.3063  0.3864
    1SOL    HW2 4110   0.785   1.995   1.921  0.2896  1.3752  0.4098
    1SOL    HW3 4111   0.874   1.958   1.803 -0.9404 -1.3953  0.3018
    1SOL    MW4 4112   0.859   1.961   1.889 -0.2283  0.2228  0.3783
    1SOL     OW 4113   1.111   2.078   1.985 -0.2835  0.2427  0.7185
    1SOL    HW2 4114   1.102   2.172   1.967  1.0560  0.1397 -0.6500
    1SOL    HW3 4115   1.027   2.040   1.960 -0.7785  1.0638  1.1370
    1SOL    MW4 4116   1.099   2.085   1.979 -0.1720  0.3374  0.5932
    1SOL     OW 4117   1.144   2.371   1.916 -0.5734  0.3646 -0.5378
    1SOL    HW2 4118   1.223   2.422   1.935  1.6130 -3.1531  0.3665
    1SOL    HW3 4119   1.141   2.367   1.820  1.5109 -1.0296 -0.5981
    1SOL    MW4 4120   1.154   2.377   1.906 -0.0100 -0.2832 -0.4265
    1SOL     OW 4121   0.906   2.441   2.031 -0.1385  0.1899  0.0543
    1SOL    HW2 4122   0.996   2.414   2.012 -0.5475  0.3829 -2.2919
    1SOL    HW3 4123   0.852   2.386   1.974 -1.3849  1.5114 -0.0700
    1SOL    MW4 4124   0.911   2.430   2.021 -0.3569  0.3898 -0.2716
    1SOL     OW 4125   0.883   2.698   1.937  0.1963 -0.5136 -0.0855
    1SOL    HW2 4126   0.871   2.610   1.974 -0.9760  0.0424  0.9164
    1SOL    HW3 4127   0.798   2.740   1.949  1.3144  1.4607  1.3644
    1SOL    MW4 4128   0.870   2.692   1.944  0.1892 -0.1795  0.2381
    1SOL     OW 4129   1.094   2.857   1.967  0.1541  0.0474  0.0071
    1SOL    HW2 4130   1.108   2.873   2.060 -0.5640 -1.1074  0.3156
    1SOL    HW3 4131   1.015   2.805   1.962  0.7507 -0.7890 -1.1888
    1SOL    MW4 4132   1.086   2.852   1.978  0.1380 -0.2153 -0.1101
    1SOL     OW 4133   1.123   3.113   1.878  0.0832  0.4026  0.3779
    1SOL    HW2 4134   1.045   3.159   1.910 -0.2420 -0.2439  0.5283
    1SOL    HW3 4135   1.111   3.023   1.907  0.0529 -0.0738 -1.0642
    1SOL    MW4 4136   1.111   3.107   1.886  0.0364  0.2546  0.2075
    1SOL     OW 4137   0.903   3.219   1.995 -0.2803  0.6776 -0.1431
    1SOL    HW2 4138   0.898   3.209   2.090 -0.1329 -0.7847 -0.2739
    1SOL    HW3 4139   0.827   3.170   1.961  0.2530  0.2993 -0.8177
    1SOL    MW4 4140   0.892   3.211   2.003 -0.1905  0.4349 -0.2496
    1SOL     OW 4141   0.835   3.502   1.925  0.0169  0.6291 -0.3488
    1SOL    HW2 4142   0.849   3.420   1.971  0.0535  1.1456  0.5679
    1SOL    HW3 4143   0.854   3.482   1.833 -1.3057 -0.7203 -0.3413
    1SOL    MW4 4144   0.839   3.489   1.919 -0.1528  0.5190 -0.2270
    1SOL     OW 4145   1.115   3.626   1.987  0.2380 -0.4420 -0.5268
    1SOL    HW2 4146   1.128   3.624   2.082  0.5259  1.3378 -0.5182
    1SOL    HW3 4147   1.042   3.567   1.972 -0.1114 -0.3840  0.8610
    1SOL    MW4 4148   1.107   3.618   1.997  0.2301 -0.1996 -0.3426
    1SOL     OW 4149   1.108   3.900   1.897 -0.5339 -0.0411 -0.0744
    1SOL    HW2 4150   1.094   3.808   1.922  0.7481 -0.3386 -0.4261
    1SOL    HW3 4151   1.116   3.898   1.802  0.0143  0.3646 -0.0373
    1SOL    MW4 4152   1.108   3.888   1.888 -0.2924 -0.0269 -0.1159
    1SOL     OW 4153   0.861   4.012   1.985  0.6650  0.4187 -0.1040
    1SOL    HW2 4154   0.881   4.013   2.078  2.5185  1.9843 -0.4758
    1SOL    HW3 4155   0.938   3.973   1.944 -0.4960 -1.0659 -0.9260
    1SOL    MW4 4156   0.874   4.007   1.992  0.7564  0.4292 -0.2614
    1SOL     OW 4157   0.868   4.289   1.872  0.2821  0.1465  0.4324
    1SOL    HW2 4158   0.956   4.316   1.898  1.0786 -0.8781 -1.1153
    1SOL    HW3 4159   0.866   4.195   1.890 -0.2501  0.0331 -0.2069
    1SOL    MW4 4160   0.879   4.280   1.878  0.3170 -0.0038  0.1438
    1SOL     OW 4161   1.102   4.411   1.968  0.1563  0.0698 -0.3791
    1SOL    HW2 4162   1.101   4.411   2.064 -1.0110 -0.0272 -0.3764
    1SOL    HW3 4163   1.185   4.369   1.944  0.0998 -0.5996  0.5935
    1SOL    MW4 4164   1.113   4.405   1.977 -0.0051 -0.0310 -0.2503
    1SOL     OW 4165   1.551   4.640   1.881 -0.3461 -0.2330 -0.1528
    1SOL    HW2 4166   1.639   4.677   1.874  0.7245 -3.1129 -2.8327
    1SOL    HW3 4167   1.564   4.557   1.927 -1.9212  0.1146  0.9440
    1SOL    MW4 4168   1.564   4.634   1.886 -0.4126 -0.5674 -0.3618
    1SOL     OW 4169   1.346   0.115   2.007  0.3236  0.3901  0.0931
    1SOL    HW2 4170   1.363   0.087   2.097 -0.5144 -0.3797  0.0177
    1SOL    HW3 4171   1.409   0.067   1.954 -1.5138 -1.8577 -0.1050
    1SOL    MW4 4172   1.356   0.105   2.012 -0.0294 -0.0080  0.0572
    1SOL     OW 4173   1.356   0.383   1.915 -0.4503  0.3734  0.0946
    1SOL    HW2 4174   1.349   0.292   1.942 -1.1003  0.3266 -0.2239
    1SOL    HW3 4175   1.342   0.381   1.820  0.0658  0.7412  0.0072
    1SOL    MW4 4176   1.353   0.371   1.906 -0.4680  0.4157  0.0410
    1SOL     OW 4177   1.568   0.531   2.008  0.1596  0.0994  0.2014
    1SOL    HW2 4178   1.642   0.473   1.991 -0.8348 -1.8177  2.1352
    1SOL    HW3 4179   1.491   0.481   1.981 -0.5299  1.6785 -0.8456
    1SOL    MW4 4180   1.567   0.517   2.002 -0.0627  0.0547  0.3183
    1SOL     OW 4181   1.550   0.793   1.877  0.3363 -0.0405  0.2742
    1SOL    HW2 4182   1.635   0.834   1.896  0.9526 -0.2770 -1.8806
    1SOL    HW3 4183   1.557   0.705   1.914  0.3014  0.5871  1.8099
    1SOL    MW4 4184   1.562   0.787   1.884  0.4131  0.0110  0.1925
    1SOL     OW 4185   1.324   0.903   1.966  0.1282  0.0303  0.3267
    1SOL    HW2 4186   1.326   0.889   2.060  1.1425 -1.2828  0.1180
    1SOL    HW3 4187   1.406   0.867   1.934  0.4147  1.6892 -0.9006
    1SOL    MW4 4188   1.335   0.896   1.974  0.2998  0.0759  0.1372
    1SOL     OW 4189   1.327   1.174   1.917  0.1597 -0.2148 -0.1980
    1SOL    HW2 4190   1.314   1.080   1.931 -2.4426  0.4548  2.4254
    1SOL    HW3 4191   1.240   1.212   1.930  1.2863  2.6384 -0.6436
    1SOL    MW4 4192   1.314   1.167   1.920 -0.0350  0.2500  0.0893
    1SOL     OW 4193   1.547   1.294   2.014 -0.0235 -0.0122  0.2718
    1SOL    HW2 4194   1.551   1.379   1.972 -1.1699 -0.2743 -0.4144
    1SOL    HW3 4195   1.458   1.262   1.995 -0.2461 -0.5537  2.0856
    1SOL    MW4 4196   1.536   1.301   2.006 -0.2041 -0.1181  0.4206
    1SOL     OW 4197   1.578   1.563   1.898  0.2475 -0.0789  0.0769
    1SOL    HW2 4198   1.649   1.617   1.934  1.3073 -0.8405 -0.8520
    1SOL    HW3 4199   1.498   1.605   1.931  1.0934  1.1459  0.6422
    1SOL    MW4 4200   1.577   1.576   1.907  0.4988 -0.0178  0.0287
    1SOL     OW 4201   1.360   1.700   1.970  0.0601  0.2087  0.1751
    1SOL    HW2 4202   1.351   1.697   2.066 -0.0867  1.6300  0.2121
    1SOL    HW3 4203   1.285   1.651   1.938  0.3713 -0.6996  0.7875
    1SOL    MW4 4204   1.349   1.693   1.979  0.0819  0.2764  0.2608
    1SOL     OW 4205   1.349   1.969   1.894 -0.9408 -0.3798 -0.2332
    1SOL    HW2 4206   1.355   1.881   1.931 -1.3339 -0.8882 -1.3400
    1SOL    HW3 4207   1.269   2.006   1.932  0.1418  0.1637  1.5781
    1SOL    MW4 4208   1.339   1.962   1.904 -0.8498 -0.3749 -0.1402
    1SOL     OW 4209   1.582   2.055   1.997  0.0535  0.2442  0.2496
    1SOL    HW2 4210   1.588   2.143   1.959  0.5545 -0.3122 -0.9857
    1SOL    HW3 4211   1.504   2.017   1.957  0.5775 -0.3395 -0.2284
    1SOL    MW4 4212   1.573   2.062   1.987  0.1887  0.0937  0.0235
    1SOL     OW 4213   1.575   2.318   1.887 -0.2066 -0.3712 -0.0477
    1SOL    HW2 4214   1.657   2.359   1.913 -0.0563  0.1391 -1.2788
    1SOL    HW3 4215   1.579   2.315   1.791 -1.3253 -0.9491 -0.0872
    1SOL    MW4 4216   1.586   2.323   1.878 -0.3343 -0.3800 -0.2153
    1SOL     OW 4217   1.362   2.512   2.010 -0.4647 -0.2224 -0.2359
    1SOL    HW2 4218   1.363   2.597   1.965 -1.6057 -0.3569 -0.5214
    1SOL    HW3 4219   1.431   2.462   1.968 -0.0028  0.4430 -0.2905
    1SOL    MW4 4220   1.371   2.517   1.999 -0.5542 -0.1523 -0.2810
    1SOL     OW 4221   1.344   2.768   1.882  0.2117  0.7005 -0.5456
    1SOL    HW2 4222   1.258   2.800   1.910 -0.0324 -0.1808 -0.2566
    1SOL    HW3 4223   1.339   2.766   1.787  0.1555  1.3129 -0.5572
    1SOL    MW4 4224   1.332   2.772   1.873  0.1721  0.6649 -0.5090
    1SOL     OW 4225   1.558   2.863   2.014 -0.5436  0.0093  0.2533
    1SOL    HW2 4226   1.631   2.811   1.980 -0.0570  1.6230 -1.2377
    1SOL    HW3 4227   1.481   2.829   1.969 -0.2038  0.6836 -0.8483
    1SOL    MW4 4228   1.558   2.852   2.004 -0.4344  0.3109 -0.0887
    1SOL     OW 4229   1.571   3.146   1.938 -0.1421  0.5216  0.0258
    1SOL    HW2 4230   1.572   3.055   1.970 -2.1920  0.1228 -0.9552
    1SOL    HW3 4231   1.573   3.137   1.842 -0.1789  1.5288 -0.0705
    1SOL    MW4 4232   1.571   3.133   1.929 -0.4176  0.6020 -0.1165
    1SOL     OW 4233   1.332   3.258   1.998 -0.2532  0.0984 -0.0346
    1SOL    HW2 4234   1.412   3.216   1.967 -0.9068 -0.0162 -1.6524
    1SOL    HW3 4235   1.262   3.196   1.974 -0.7653 -0.1142  1.9568
    1SOL    MW4 4236   1.333   3.244   1.991 -0.4069  0.0553  0.0148
    1SOL     OW 4237   1.350   3.514   1.873  0.1078  0.0580  0.1030
    1SOL    HW2 4238   1.344   3.423   1.901 -0.7960 -0.2636 -1.0827
    1SOL    HW3 4239   1.271   3.556   1.909  0.7202  0.4860  0.9864
    1SOL    MW4 4240   1.339   3.508   1.881  0.0693  0.0718  0.0632
    1SOL     OW 4241   1.563   3.634   2.001 -0.7302  0.4080  0.2157
    1SOL    HW2 4242   1.575   3.608   2.092 -1.6380 -1.1495 -0.0846
    1SOL    HW3 4243   1.478   3.598   1.977 -0.4536  0.7178 -1.2776
    1SOL    MW4 4244   1.553   3.626   2.010 -0.8135  0.2437 -0.0207
    1SOL     OW 4245   1.578   3.879   1.889  0.1352  0.3149 -0.3220
    1SOL    HW2 4246   1.661   3.921   1.910  0.4181 -0.4070  0.0496
    1SOL    HW3 4247   1.587   3.790   1.924 -0.5782  0.0564 -0.7745
    1SOL    MW4 4248   1.590   3.873   1.896  0.0783  0.1855 -0.3326
    1SOL     OW 4249   1.337   4.016   1.982  0.0094 -0.1015  0.1452
    1SOL    HW2 4250   1.406   3.955   1.954  0.8789  0.7285  0.4460
    1SOL    HW3 4251   1.256   3.966   1.976  0.8381 -1.6423  1.4534
    1SOL    MW4 4252   1.336   4.001   1.978  0.2335 -0.1955  0.3574
    1SOL     OW 4253   1.327   4.274   1.874 -0.0741  0.3676  0.5550
    1SOL    HW2 4254   1.329   4.182   1.903  3.4619  0.5965  1.2727
    1SOL    HW3 4255   1.330   4.269   1.779  2.8918 -0.3228  0.6207
    1SOL    MW4 4256   1.328   4.261   1.865  0.7838  0.3066  0.6583
    1SOL     OW 4257   1.558   4.384   1.953 -0.3210  0.0771  0.1129
    1SOL    HW2 4258   1.564   4.370   2.048  0.9462  0.2135  0.0583
    1SOL    HW3 4259   1.477   4.340   1.928 -1.2221  0.9489  1.4227
    1SOL    MW4 4260   1.548   4.376   1.962 -0.2728  0.2103  0.2786
    1SOL     OW 4261   2.054   4.594   1.844 -0.0209 -0.1834  0.0292
    1SOL    HW2 4262   2.118   4.649   1.889  2.6760 -1.4357 -2.1190
    1SOL    HW3 4263   2.054   4.512   1.894 -1.3431  0.4325  1.0841
    1SOL    MW4 4264   2.062   4.590   1.857  0.1609 -0.2670 -0.1149
    1SOL     OW 4265   1.811   0.078   1.902 -0.3375 -0.0730 -0.3239
    1SOL    HW2 4266   1.812   0.069   1.997 -0.2908 -1.2304 -0.4254
    1SOL    HW3 4267   1.889   0.031   1.873  0.5493  1.6609 -0.8276
    1SOL    MW4 4268   1.822   0.071   1.910 -0.2143  0.0031 -0.4036
    1SOL     OW 4269   1.808   0.371   1.903  0.2366  0.1988  0.1799
    1SOL    HW2 4270   1.816   0.283   1.939  0.9608  0.7949  1.5525
    1SOL    HW3 4271   1.809   0.359   1.808 -0.7527 -1.3452  0.3493
    1SOL    MW4 4272   1.809   0.358   1.895  0.2017  0.0737  0.3834
    1SOL     OW 4273   2.044   0.496   1.977 -0.6522 -0.2098 -0.5640
    1SOL    HW2 4274   2.034   0.589   1.956 -1.5959  0.1430  1.3865
    1SOL    HW3 4275   1.968   0.454   1.935 -1.2499  0.1640  0.1368
    1SOL    MW4 4276   2.032   0.503   1.969 -0.8554 -0.1140 -0.2141
    1SOL     OW 4277   2.017   0.742   1.875 -0.0071 -0.2428 -0.1562
    1SOL    HW2 4278   2.095   0.794   1.897  0.6428 -1.3288  0.1573
    1SOL    HW3 4279   1.944   0.792   1.912  0.6207  0.3677  0.2759
    1SOL    MW4 4280   2.018   0.755   1.883  0.1616 -0.3055 -0.0578
    1SOL     OW 4281   1.804   0.890   1.967 -0.4935  0.3169  0.2843
    1SOL    HW2 4282   1.803   0.984   1.953  0.7476  0.3886  0.6294
    1SOL    HW3 4283   1.787   0.879   2.061  0.2539  0.2423  0.4144
    1SOL    MW4 4284   1.802   0.901   1.978 -0.2313  0.3164  0.3469
    1SOL     OW 4285   1.785   1.156   1.903  0.5068 -0.0292 -0.0110
    1SOL    HW2 4286   1.716   1.209   1.943  0.1161  0.6207 -1.5266
    1SOL    HW3 4287   1.867   1.196   1.933  0.2268 -0.3113  1.1427
    1SOL    MW4 4288   1.787   1.168   1.913  0.4184  0.0193 -0.0588
    1SOL     OW 4289   2.009   1.300   1.992  0.3292 -0.6149  0.2942
    1SOL    HW2 4290   2.088   1.256   1.961 -0.9477 -2.4166 -0.4380
    1SOL    HW3 4291   2.010   1.288   2.087 -0.7554 -3.5499 -0.0226
    1SOL    MW4 4292   2.020   1.293   2.000  0.0174 -1.2398  0.1559
    1SOL     OW 4293   2.016   1.567   1.908  0.1258 -0.2044 -0.4871
    1SOL    HW2 4294   2.014   1.478   1.943 -1.5417  0.0802  0.1799
    1SOL    HW3 4295   2.025   1.555   1.813  0.9847 -1.0593 -0.2982
    1SOL    MW4 4296   2.017   1.554   1.900  0.0191 -0.2795 -0.3743
    1SOL     OW 4297   1.798   1.720   2.002 -0.1625  0.1528 -0.0934
    1SOL    HW2 4298   1.821   1.813   1.992 -0.0993  0.1650  0.1595
    1SOL    HW3 4299   1.867   1.674   1.954 -0.9993  0.2935 -1.4755
    1SOL    MW4 4300   1.810   1.726   1.994 -0.2645  0.1729 -0.2425
    1SOL     OW 4301   1.847   1.988   1.921  0.2913  0.4003  0.0396
    1SOL    HW2 4302   1.763   2.012   1.960 -0.2972  0.1832 -1.0613
    1SOL    HW3 4303   1.827   1.973   1.828  1.3117 -0.8695  0.0140
    1SOL    MW4 4304   1.833   1.989   1.914  0.3481  0.2041 -0.1090
    1SOL     OW 4305   2.073   2.109   2.032  0.2351 -0.4586  0.0573
    1SOL    HW2 4306   2.140   2.066   1.980  0.2306  1.4241 -1.5330
    1SOL    HW3 4307   1.991   2.070   2.003  0.2876  0.1505 -0.9358
    1SOL    MW4 4308   2.071   2.098   2.022  0.2415 -0.1297 -0.2837
    1SOL     OW 4309   2.040   2.337   1.881  0.0451 -0.0381  0.0375
    1SOL    HW2 4310   2.124   2.383   1.896  1.3569 -2.1241 -0.7517
    1SOL    HW3 4311   2.047   2.258   1.934 -1.7735  0.1235  0.5401
    1SOL    MW4 4312   2.052   2.333   1.890 -0.0217 -0.2921 -0.0004
    1SOL     OW 4313   1.801   2.446   1.963  0.1319 -0.0897  0.0641
    1SOL    HW2 4314   1.801   2.425   2.056  0.9457 -0.5116 -0.0278
    1SOL    HW3 4315   1.884   2.412   1.930 -0.0533  0.2429 -0.7756
    1SOL    MW4 4316   1.812   2.439   1.971  0.2148 -0.1016 -0.0588
    1SOL     OW 4317   1.761   2.720   1.920 -0.3147 -0.2176 -0.3423
    1SOL    HW2 4318   1.776   2.627   1.939  2.5573  0.3937  0.6329
    1SOL    HW3 4319   1.758   2.725   1.824 -1.6332 -1.4655 -0.3769
    1SOL    MW4 4320   1.763   2.708   1.910 -0.1096 -0.3016 -0.2180
    1SOL     OW 4321   2.015   2.831   1.973 -0.1062 -0.0152  0.0513
    1SOL    HW2 4322   2.034   2.826   2.066  0.2405  1.6211  0.0731
    1SOL    HW3 4323   1.930   2.787   1.964  0.8727 -2.1461  0.7912
    1SOL    MW4 4324   2.007   2.824   1.984  0.0684 -0.0806  0.1519
    1SOL     OW 4325   2.039   3.093   1.883 -0.1110 -0.1327  0.2809
    1SOL    HW2 4326   1.964   3.133   1.926  0.1384  0.3632  0.2529
    1SOL    HW3 4327   2.036   3.001   1.912  0.0208  0.1788  1.3169
    1SOL    MW4 4328   2.029   3.086   1.893 -0.0606 -0.0262  0.4139
    1SOL     OW 4329   1.823   3.229   1.993 -0.2561  0.6246 -0.2357
    1SOL    HW2 4330   1.827   3.249   2.087 -0.6147  3.0715 -0.6947
    1SOL    HW3 4331   1.736   3.192   1.980 -0.9195  2.0221  0.1167
    1SOL    MW4 4332   1.812   3.227   2.004 -0.3909  1.1318 -0.2496
    1SOL     OW 4333   1.792   3.497   1.902 -0.3695 -0.2653  0.1113
    1SOL    HW2 4334   1.777   3.415   1.948  0.9416  0.6831  2.3048
    1SOL    HW3 4335   1.719   3.553   1.928 -0.8113 -0.4489 -0.7180
    1SOL    MW4 4336   1.780   3.494   1.912 -0.2549 -0.1645  0.2912
    1SOL     OW 4337   2.050   3.603   1.950 -0.2487  0.5267  0.4713
    1SOL    HW2 4338   2.056   3.695   1.925 -0.5656  0.5782  0.5825
    1SOL    HW3 4339   1.967   3.573   1.913  0.2110  0.0736 -0.2348
    1SOL    MW4 4340   2.040   3.611   1.942 -0.2298  0.4735  0.3930
    1SOL     OW 4341   2.045   3.879   1.889 -0.7201  0.3611  0.4616
    1SOL    HW2 4342   2.128   3.913   1.922 -0.8247  1.2558 -0.1801
    1SOL    HW3 4343   2.057   3.875   1.794 -1.4311  0.5700  0.3582
    1SOL    MW4 4344   2.057   3.883   1.881 -0.8278  0.5069  0.3633
    1SOL     OW 4345   1.804   3.992   1.958 -0.2010 -0.7384 -0.1409
    1SOL    HW2 4346   1.795   4.079   1.918  0.2377  0.1863  1.7514
    1SOL    HW3 4347   1.885   3.958   1.922 -0.4641 -0.4426 -1.0346
    1SOL    MW4 4348   1.813   3.999   1.948 -0.1777 -0.5777 -0.0091
    1SOL     OW 4349   1.788   4.243   1.838  0.0373 -0.5057  0.2894
    1SOL    HW2 4350   1.732   4.307   1.882 -0.6559 -0.2413 -0.9747
    1SOL    HW3 4351   1.780   4.263   1.745 -0.7983 -2.8788 -0.1960
    1SOL    MW4 4352   1.780   4.254   1.832 -0.1645 -0.7839  0.0587
    1SOL     OW 4353   2.026   4.351   1.976 -0.0901 -0.0842  0.0534
    1SOL    HW2 4354   2.100   4.307   1.934  0.1771  1.1442 -0.8141
    1SOL    HW3 4355   1.949   4.321   1.927 -0.1689 -1.2502  0.8636
    1SOL    MW4 4356   2.025   4.341   1.964 -0.0653 -0.0758  0.0458
    1SOL     OW 4357   2.474   4.653   1.878  0.0722  0.2072  0.0905
    1SOL    HW2 4358   2.546   4.707   1.911  1.1815 -0.0312 -1.8817
    1SOL    HW3 4359   2.498   4.563   1.901 -0.7799  0.3146  1.5272
    1SOL    MW4 4360   2.487   4.648   1.886  0.1061  0.1898  0.0199
    1SOL     OW 4361   2.237   0.092   1.956  0.0958  0.4666 -0.0914
    1SOL    HW2 4362   2.233   0.102   2.051  0.2164 -0.1984 -0.0120
    1SOL    HW3 4363   2.316   0.040   1.941  1.0791  2.1067 -0.6850
    1SOL    MW4 4364   2.247   0.087   1.966  0.2413  0.5953 -0.1593
    1SOL     OW 4365   2.260   0.365   1.854 -0.0505  0.2384 -0.2677
    1SOL    HW2 4366   2.253   0.279   1.896 -0.0848  0.2756 -0.1964
    1SOL    HW3 4367   2.184   0.413   1.886  0.0488  0.3450 -0.1936
    1SOL    MW4 4368   2.249   0.360   1.864 -0.0422  0.2574 -0.2484
    1SOL     OW 4369   2.478   0.514   1.984  0.2580 -0.5857 -0.2806
    1SOL    HW2 4370   2.565   0.493   1.951 -0.0355 -1.5323 -0.4746
    1SOL    HW3 4371   2.419   0.456   1.935 -0.8101  1.9939 -2.2587
    1SOL    MW4 4372   2.481   0.504   1.973  0.0784 -0.3703 -0.5671
    1SOL     OW 4373   2.506   0.769   1.892 -0.2894  0.1992 -0.2442
    1SOL    HW2 4374   2.498   0.679   1.924 -0.0466  0.2614 -0.0042
    1SOL    HW3 4375   2.497   0.761   1.797  1.2752 -0.2898 -0.3769
    1SOL    MW4 4376   2.504   0.756   1.884 -0.0510  0.1429 -0.2300
    1SOL     OW 4377   2.258   0.870   1.962  0.1355  0.3422 -0.4619
    1SOL    HW2 4378   2.242   0.852   2.054 -0.8449 -0.1551 -0.7251
    1SOL    HW3 4379   2.349   0.843   1.948 -0.4941 -1.9733 -0.2268
    1SOL    MW4 4380   2.268   0.864   1.972 -0.0770 -0.0288 -0.4656
    1SOL     OW 4381   2.229   1.152   1.930 -0.3704  0.1498 -0.0139
    1SOL    HW2 4382   2.310   1.199   1.953  0.4620 -1.0489 -0.4736
    1SOL    HW3 4383   2.243   1.063   1.960 -2.0023  0.1922  0.9387
    1SOL    MW4 4384   2.241   1.147   1.937 -0.4759 -0.0027  0.0511
    1SOL     OW 4385   2.465   1.271   1.991 -0.1014  0.1336 -0.4585
    1SOL    HW2 4386   2.454   1.286   2.085 -2.1640 -1.6461 -0.3902
    1SOL    HW3 4387   2.461   1.358   1.952 -0.6597  0.7620  0.9726
    1SOL    MW4 4388   2.463   1.284   1.999 -0.4468 -0.0184 -0.2608
    1SOL     OW 4389   2.469   1.529   1.889 -0.0095 -0.2502  0.2370
    1SOL    HW2 4390   2.390   1.572   1.924 -1.5407 -2.3732 -0.4994
    1SOL    HW3 4391   2.467   1.551   1.795  1.3903  1.3227  0.5474
    1SOL    MW4 4392   2.458   1.538   1.881 -0.0267 -0.3228  0.1810
    1SOL     OW 4393   2.254   1.690   1.957 -0.0949  0.5624  0.3527
    1SOL    HW2 4394   2.252   1.713   2.049  0.1650 -1.0231  0.7644
    1SOL    HW3 4395   2.173   1.641   1.943  0.3190 -0.0192 -0.0363
    1SOL    MW4 4396   2.243   1.687   1.967 -0.0062  0.2764  0.3556
    1SOL     OW 4397   2.245   1.963   1.874  0.1014 -0.2019  0.2872
    1SOL    HW2 4398   2.331   1.996   1.900  0.0507  0.0493  0.1302
    1SOL    HW3 4399   2.248   1.870   1.898 -0.0257  0.0773  1.4137
    1SOL    MW4 4400   2.257   1.955   1.881  0.0782 -0.1318  0.4152
    1SOL     OW 4401   2.478   2.036   2.002 -0.1933  0.2813  0.6355
    1SOL    HW2 4402   2.561   1.995   1.979  0.0474  0.4255  1.2356
    1SOL    HW3 4403   2.480   2.121   1.958 -0.8088 -0.4447 -0.8291
    1SOL    MW4 4404   2.489   2.042   1.993 -0.2427  0.2043  0.5215
    1SOL     OW 4405   2.502   2.281   1.880 -0.2787  0.6186  0.0660
    1SOL    HW2 4406   2.573   2.336   1.914 -0.9031  0.7931  1.0913
    1SOL    HW3 4407   2.423   2.332   1.895 -0.7473 -0.0839  0.0029
    1SOL    MW4 4408   2.501   2.295   1.886 -0.4232  0.5493  0.1929
    1SOL     OW 4409   2.303   2.460   1.945 -0.7876  0.0046 -0.1040
    1SOL    HW2 4410   2.276   2.462   2.037 -0.2266 -0.0398  0.0646
    1SOL    HW3 4411   2.285   2.548   1.913  0.3668  0.4555  0.4460
    1SOL    MW4 4412   2.297   2.472   1.953 -0.5610  0.0582 -0.0091
    1SOL     OW 4413   2.275   2.733   1.891 -0.1572 -0.0580  0.3698
    1SOL    HW2 4414   2.190   2.772   1.912 -0.7050 -1.3790  0.6433
    1SOL    HW3 4415   2.274   2.724   1.796 -0.4888 -0.4389  0.4078
    1SOL    MW4 4416   2.263   2.737   1.881 -0.2732 -0.2828  0.4109
    1SOL     OW 4417   2.503   2.848   2.003 -0.3254  0.1331 -0.1667
    1SOL    HW2 4418   2.500   2.936   1.964  1.4958 -0.3592 -1.4508
    1SOL    HW3 4419   2.430   2.802   1.963 -0.9730  0.8872  0.1224
    1SOL    MW4 4420   2.493   2.854   1.993 -0.1707  0.1678 -0.2980
    1SOL     OW 4421   2.488   3.116   1.895 -0.0064 -0.4572  0.2082
    1SOL    HW2 4422   2.413   3.143   1.950  0.2331  0.0055  0.3053
    1SOL    HW3 4423   2.457   3.128   1.805  0.0230 -0.0654  0.2491
    1SOL    MW4 4424   2.474   3.121   1.891  0.0288 -0.3443  0.2266
    1SOL     OW 4425   2.252   3.236   2.011 -0.6066 -0.4005  0.1425
    1SOL    HW2 4426   2.246   3.221   2.105 -1.7399  1.9719  0.4848
    1SOL    HW3 4427   2.170   3.201   1.976 -1.2586  0.9179  0.3526
    1SOL    MW4 4428   2.240   3.229   2.019 -0.8421  0.0863  0.2151
    1SOL     OW 4429   2.267   3.468   1.857  0.0017 -0.5376 -0.3421
    1SOL    HW2 4430   2.259   3.393   1.917 -0.6000 -0.1893  0.0216
    1SOL    HW3 4431   2.190   3.521   1.876 -0.0603 -0.3006 -1.2590
    1SOL    MW4 4432   2.256   3.465   1.867 -0.0861 -0.4604 -0.4152
    1SOL     OW 4433   2.473   3.629   1.927  0.0678  0.2216  0.4162
    1SOL    HW2 4434   2.484   3.634   2.022 -0.1642  0.1575  0.4449
    1SOL    HW3 4435   2.398   3.571   1.914 -0.3740  0.8457  0.2119
    1SOL    MW4 4436   2.465   3.622   1.938 -0.0212  0.2954  0.3930
    1SOL     OW 4437   2.490   3.883   1.802  0.2847  0.2717 -0.1049
    1SOL    HW2 4438   2.421   3.917   1.859 -0.0749  1.1895 -1.0820
    1SOL    HW3 4439   2.486   3.788   1.814 -0.7688  0.3595  0.2758
    1SOL    MW4 4440   2.480   3.875   1.811  0.0982  0.4044 -0.1836
    1SOL     OW 4441   2.292   3.967   1.969 -0.5398 -0.6403 -0.1893
    1SOL    HW2 4442   2.288   3.967   2.064 -0.4847 -0.4845 -0.1870
    1SOL    HW3 4443   2.282   4.059   1.944  0.9636 -0.4774 -0.2659
    1SOL    MW4 4444   2.290   3.979   1.978 -0.3343 -0.5984 -0.1992
    1SOL     OW 4445   2.269   4.231   1.891 -0.1509 -0.0211 -0.5238
    1SOL    HW2 4446   2.345   4.279   1.924  0.3357 -0.9820 -0.2230
    1SOL    HW3 4447   2.268   4.249   1.797 -0.4112  1.1640 -0.3081
    1SOL    MW4 4448   2.279   4.240   1.883 -0.1211  0.0081 -0.4557
    1SOL     OW 4449   2.515   4.395   1.961 -0.3281 -0.0030 -0.2870
    1SOL    HW2 4450   2.517   4.402   2.056  0.1172 -0.7344 -0.2345
    1SOL    HW3 4451   2.585   4.332   1.940 -0.3266  0.2584 -1.1034
    1SOL    MW4 4452   2.525   4.388   1.970 -0.2692 -0.0648 -0.3878
    1SOL     OW 4453   2.903   4.614   1.869 -0.4979  0.3807 -0.1673
    1SOL    HW2 4454   2.973   4.671   1.900  0.7255 -1.0783 -0.2125
    1SOL    HW3 4455   2.915   4.532   1.917 -0.3383 -0.9096 -2.3374
    1SOL    MW4 4456   2.914   4.611   1.879 -0.3157  0.0176 -0.4594
    1SOL     OW 4457   2.703   0.106   1.969  0.2248 -0.0513 -0.7896
    1SOL    HW2 4458   2.708   0.118   2.064 -0.1533  0.9368 -0.8794
    1SOL    HW3 4459   2.778   0.051   1.947  0.1046 -0.5889  0.1255
    1SOL    MW4 4460   2.714   0.101   1.979  0.1590  0.0081 -0.6807
    1SOL     OW 4461   2.726   0.377   1.882 -0.1966  0.6000  0.1973
    1SOL    HW2 4462   2.796   0.422   1.929  0.2883 -0.1429  0.1915
    1SOL    HW3 4463   2.718   0.291   1.925 -1.4807  0.8787  0.5583
    1SOL    MW4 4464   2.734   0.371   1.894 -0.3023  0.5387  0.2443
    1SOL     OW 4465   2.935   0.508   2.037 -0.0047  0.3420  0.5666
    1SOL    HW2 4466   3.015   0.468   2.001  0.2017  0.1339  1.2384
    1SOL    HW3 4467   2.940   0.600   2.011 -0.5589 -0.0964 -1.1255
    1SOL    MW4 4468   2.947   0.515   2.029 -0.0503  0.2567  0.4320
    1SOL     OW 4469   2.933   0.742   1.916  0.3822  0.3759 -0.1618
    1SOL    HW2 4470   3.008   0.790   1.952 -0.0615  0.7869  0.2250
    1SOL    HW3 4471   2.857   0.795   1.941 -0.2305 -1.1545  1.3301
    1SOL    MW4 4472   2.933   0.756   1.924  0.2429  0.2282  0.0859
    1SOL     OW 4473   2.727   0.895   2.007 -0.3764  0.0307  0.6881
    1SOL    HW2 4474   2.721   0.986   1.977 -0.0598 -0.2794 -0.3692
    1SOL    HW3 4475   2.648   0.853   1.973 -0.0909 -0.2907  0.4114
    1SOL    MW4 4476   2.716   0.901   1.998 -0.2971 -0.0525  0.5120
    1SOL     OW 4477   2.716   1.152   1.892 -0.0782  0.0065 -0.3923
    1SOL    HW2 4478   2.639   1.198   1.926  0.5057  0.6203  0.1083
    1SOL    HW3 4479   2.718   1.172   1.799  0.6139  1.6401 -0.0357
    1SOL    MW4 4480   2.706   1.161   1.884  0.0904  0.3030 -0.2791
    1SOL     OW 4481   2.915   1.318   2.013 -0.4070 -0.1569 -0.5624
    1SOL    HW2 4482   2.903   1.398   1.963 -1.7867  0.8883  1.3775
    1SOL    HW3 4483   2.839   1.264   1.990 -0.1523 -0.3875 -0.8744
    1SOL    MW4 4484   2.903   1.321   2.003 -0.5555 -0.0494 -0.3476
    1SOL     OW 4485   2.908   1.574   1.851 -0.0517  0.5010 -0.1188
    1SOL    HW2 4486   2.989   1.611   1.886 -0.4910  1.8791 -0.5113
    1SOL    HW3 4487   2.926   1.559   1.758  0.2720 -0.7235  0.1310
    1SOL    MW4 4488   2.921   1.577   1.843 -0.0668  0.5213 -0.1377
    1SOL     OW 4489   2.717   1.675   2.001 -0.2255  0.2845 -0.0554
    1SOL    HW2 4490   2.794   1.635   1.960 -0.3461 -1.2645  1.1810
    1SOL    HW3 4491   2.644   1.620   1.974 -0.5386  0.2689  0.8154
    1SOL    MW4 4492   2.718   1.663   1.992 -0.2830  0.0782  0.2228
    1SOL     OW 4493   2.715   1.921   1.876  1.0364 -0.3423  0.0103
    1SOL    HW2 4494   2.803   1.952   1.898  1.0187 -1.2104  1.4016
    1SOL    HW3 4495   2.712   1.831   1.910 -0.0718 -0.6503 -0.8603
    1SOL    MW4 4496   2.726   1.913   1.884  0.8876 -0.4975  0.0789
    1SOL     OW 4497   2.946   2.068   1.954  0.0340  0.0244  0.0540
    1SOL    HW2 4498   2.951   2.069   2.049  0.5420 -1.6374  0.0491
    1SOL    HW3 4499   3.023   2.019   1.926 -0.1676  0.4096 -1.2156
    1SOL    MW4 4500   2.956   2.062   1.963  0.0746 -0.1440 -0.1141
    1SOL     OW 4501   2.907   2.329   1.840 -0.0700  0.0655 -0.6289
    1SOL    HW2 4502   2.997   2.356   1.857 -0.4633  0.1185  1.5447
    1SOL    HW3 4503   2.907   2.235   1.856 -0.2839 -0.0244 -1.1521
    1SOL    MW4 4504   2.919   2.320   1.844 -0.1502  0.0606 -0.4112
    1SOL     OW 4505   2.708   2.456   1.967 -0.5764 -0.0101 -0.0202
    1SOL    HW2 4506   2.719   2.544   1.931  1.1073 -0.6367 -1.1386
    1SOL    HW3 4507   2.784   2.408   1.934  0.2410 -1.0354  3.1624
    1SOL    MW4 4508   2.720   2.461   1.958 -0.2463 -0.2279  0.2521
    1SOL     OW 4509   2.724   2.723   1.900  0.2928 -0.5319  0.8406
    1SOL    HW2 4510   2.647   2.765   1.938  0.5233 -0.7337  1.5331
    1SOL    HW3 4511   2.705   2.720   1.806 -1.1160 -1.7375  1.1365
    1SOL    MW4 4512   2.711   2.728   1.893  0.1371 -0.7176  0.9710
    1SOL     OW 4513   2.976   2.873   1.943 -0.5590 -0.7208 -0.1917
    1SOL    HW2 4514   2.967   2.966   1.922 -0.2863 -0.3521  1.2868
    1SOL    HW3 4515   2.892   2.835   1.920 -0.1054 -0.4358 -2.4362
    1SOL    MW4 4516   2.964   2.881   1.937 -0.4632 -0.6349 -0.2929
    1SOL     OW 4517   2.950   3.130   1.858 -0.0183  0.3245 -0.2692
    1SOL    HW2 4518   3.029   3.174   1.888 -0.2657  0.6784 -0.1394
    1SOL    HW3 4519   2.878   3.181   1.895 -0.3038 -0.3265  0.0827
    1SOL    MW4 4520   2.951   3.142   1.867 -0.0887  0.2851 -0.2056
    1SOL     OW 4521   2.718   3.225   1.981 -0.2127  0.2298  0.7551
    1SOL    HW2 4522   2.723   3.294   1.914  2.2334 -0.9606 -0.3773
    1SOL    HW3 4523   2.634   3.183   1.966  0.1512  0.1988 -1.3986
    1SOL    MW4 4524   2.708   3.229   1.970  0.1581  0.0687  0.3216
    1SOL     OW 4525   2.711   3.474   1.873 -0.3802  0.1153 -0.1239
    1SOL    HW2 4526   2.787   3.514   1.916 -0.3699 -0.7409  0.6749
    1SOL    HW3 4527   2.636   3.521   1.911 -0.3441 -0.2954  0.4606
    1SOL    MW4 4528   2.711   3.486   1.884 -0.3741 -0.0520  0.0585
    1SOL     OW 4529   2.922   3.602   1.981  0.2282  0.4884 -0.6651
    1SOL    HW2 4530   2.922   3.590   2.075 -1.7448  1.8139 -0.4698
    1SOL    HW3 4531   3.009   3.575   1.953  0.6860 -0.2892  1.4786
    1SOL    MW4 4532   2.933   3.597   1.989  0.0281  0.5605 -0.3564
    1SOL     OW 4533   2.931   3.880   1.912  0.6387  0.0254  0.6361
    1SOL    HW2 4534   2.936   3.788   1.937  0.4263 -0.2881 -0.4520
    1SOL    HW3 4535   2.927   3.879   1.816 -0.5400  1.1038  0.6501
    1SOL    MW4 4536   2.931   3.868   1.902  0.4549  0.1266  0.4942
    1SOL     OW 4537   2.672   3.974   1.977  0.0817 -0.1963  0.1126
    1SOL    HW2 4538   2.755   3.929   1.960  0.0624 -0.1926  0.0104
    1SOL    HW3 4539   2.611   3.939   1.913 -0.3503 -1.1554  1.0420
    1SOL    MW4 4540   2.675   3.964   1.967  0.0222 -0.3223  0.2217
    1SOL     OW 4541   2.719   4.237   1.870  0.1215 -0.6213  0.1369
    1SOL    HW2 4542   2.718   4.145   1.894 -2.1037 -0.6107  0.1696
    1SOL    HW3 4543   2.706   4.237   1.775  0.2024 -0.3560  0.1263
    1SOL    MW4 4544   2.717   4.225   1.861 -0.1612 -0.5851  0.1398
    1SOL     OW 4545   2.936   4.372   1.991 -0.1859 -0.2116  0.1985
    1SOL    HW2 4546   2.912   4.365   2.083 -2.3795  0.4040 -0.2933
    1SOL    HW3 4547   2.862   4.333   1.944  1.3774 -1.4893 -1.2696
    1SOL    MW4 4548   2.923   4.366   1.997 -0.2692 -0.2985 -0.0602
    1SOL     OW 4549   3.359   4.655   1.895  0.2285 -0.0606  0.3485
    1SOL    HW2 4550   3.357   4.560   1.909 -1.1604  0.0416  0.8876
    1SOL    HW3 4551   3.371   4.664   1.800  0.3892 -0.7639  0.2931
    1SOL    MW4 4552   3.360   4.644   1.884  0.0665 -0.1402  0.4123
    1SOL     OW 4553   3.123   0.096   1.988 -0.0731 -0.4071 -0.2977
    1SOL    HW2 4554   3.118   0.102   2.084 -0.5052 -0.0251 -0.3427
    1SOL    HW3 4555   3.207   0.054   1.971  0.2342 -0.0130  0.2306
    1SOL    MW4 4556   3.133   0.091   1.999 -0.0894 -0.3047 -0.2338
    1SOL     OW 4557   3.128   0.362   1.908  0.3691 -0.0006 -0.2785
    1SOL    HW2 4558   3.139   0.274   1.945  0.4810 -0.0336 -0.3883
    1SOL    HW3 4559   3.104   0.346   1.817  0.8270  0.0889 -0.4134
    1SOL    MW4 4560   3.126   0.348   1.901  0.4447  0.0069 -0.3107
    1SOL     OW 4561   3.370   0.480   1.969  0.2979  0.1794  0.5757
    1SOL    HW2 4562   3.438   0.424   1.932  0.0684  0.4514 -0.2594
    1SOL    HW3 4563   3.288   0.437   1.944  0.1252  0.7962  0.0703
    1SOL    MW4 4564   3.368   0.467   1.961  0.2449  0.2967  0.3989
    1SOL     OW 4565   3.351   0.748   1.866 -0.0093  0.3761  0.5045
    1SOL    HW2 4566   3.287   0.800   1.914  0.1507  0.6199  0.4535
    1SOL    HW3 4567   3.348   0.662   1.907 -1.4824 -0.0613 -0.4703
    1SOL    MW4 4568   3.342   0.744   1.877 -0.1826  0.3506  0.3691
    1SOL     OW 4569   3.156   0.908   1.993  0.3965 -0.0802 -0.7658
    1SOL    HW2 4570   3.154   0.931   2.086  0.2018 -1.6638 -0.3694
    1SOL    HW3 4571   3.115   0.983   1.949  0.2951  0.5865  0.4316
    1SOL    MW4 4572   3.151   0.921   1.999  0.3574 -0.2012 -0.5555
    1SOL     OW 4573   3.089   1.147   1.868 -0.0097  0.4734  0.1441
    1SOL    HW2 4574   3.173   1.183   1.896  0.5973 -0.7379 -0.0629
    1SOL    HW3 4575   3.024   1.199   1.915  0.8108  2.0817 -0.4549
    1SOL    MW4 4576   3.092   1.159   1.878  0.1786  0.5257  0.0378
    1SOL     OW 4577   3.335   1.255   1.936 -0.4171 -0.4010  0.1178
    1SOL    HW2 4578   3.351   1.260   2.030 -0.7791  0.3169  0.1400
    1SOL    HW3 4579   3.353   1.343   1.903  1.1623 -1.0226 -0.7161
    1SOL    MW4 4580   3.340   1.267   1.944 -0.2565 -0.3883  0.0106
    1SOL     OW 4581   3.331   1.513   1.836  0.1803  0.1222  0.3890
    1SOL    HW2 4582   3.415   1.552   1.859 -0.1364 -0.5613  2.9589
    1SOL    HW3 4583   3.266   1.574   1.872 -0.3753 -0.4998  0.4540
    1SOL    MW4 4584   3.333   1.527   1.844  0.0653 -0.0502  0.7367
    1SOL     OW 4585   3.137   1.683   1.948  0.0373  0.3705 -0.2229
    1SOL    HW2 4586   3.129   1.679   2.043 -1.0037 -1.0595 -0.3591
    1SOL    HW3 4587   3.145   1.776   1.929 -0.6033  0.7317  1.2000
    1SOL    MW4 4588   3.137   1.695   1.958 -0.1845  0.2295 -0.0530
    1SOL     OW 4589   3.177   1.936   1.885  0.5580  0.2243 -0.1760
    1SOL    HW2 4590   3.251   1.985   1.920  0.5139  0.8936 -1.0068
    1SOL    HW3 4591   3.183   1.947   1.790 -0.6682  0.3712 -0.2493
    1SOL    MW4 4592   3.188   1.944   1.877  0.3905  0.3321 -0.2953
    1SOL     OW 4593   3.420   2.065   1.965  0.0166 -0.6588 -0.1176
    1SOL    HW2 4594   3.482   1.998   1.936 -0.3826 -0.5028 -1.3879
    1SOL    HW3 4595   3.426   2.132   1.897  0.0852  0.3843  0.9198
    1SOL    MW4 4596   3.429   2.065   1.952 -0.0272 -0.5004 -0.1484
    1SOL     OW 4597   3.403   2.278   1.803 -0.1012  0.4208 -0.0839
    1SOL    HW2 4598   3.321   2.309   1.841  0.4934  0.5937  1.0791
    1SOL    HW3 4599   3.394   2.293   1.709 -0.6183  2.2495  0.2455
    1SOL    MW4 4600   3.391   2.284   1.796 -0.0913  0.6850  0.1130
    1SOL     OW 4601   3.171   2.407   1.912 -0.2375  0.0260  0.2287
    1SOL    HW2 4602   3.151   2.398   2.006 -1.1141 -0.3749  0.0058
    1SOL    HW3 4603   3.166   2.501   1.896 -1.2939 -0.0128  0.3207
    1SOL    MW4 4604   3.168   2.418   1.923 -0.4921 -0.0322  0.2115
    1SOL     OW 4605   3.176   2.688   1.875  0.1097  0.1648 -0.1717
    1SOL    HW2 4606   3.115   2.744   1.922  0.6467  0.4301  0.2140
    1SOL    HW3 4607   3.159   2.706   1.782  1.1339  1.9120 -0.0467
    1SOL    MW4 4608   3.166   2.698   1.869  0.3159  0.4303 -0.1044
    1SOL     OW 4609   3.428   2.819   1.972  0.2490  0.1262 -0.4547
    1SOL    HW2 4610   3.429   2.802   2.066 -2.1839  0.7921 -0.2699
    1SOL    HW3 4611   3.347   2.778   1.941  0.5172  0.7811 -2.0811
    1SOL    MW4 4612   3.418   2.811   1.980 -0.0365  0.3004 -0.6449
    1SOL     OW 4613   3.402   3.092   1.901  0.6097 -0.0925  0.2620
    1SOL    HW2 4614   3.478   3.149   1.915 -0.2939  1.0705  0.4785
    1SOL    HW3 4615   3.431   3.006   1.933  1.4453  0.6037  1.4151
    1SOL    MW4 4616   3.416   3.088   1.907  0.6011  0.1531  0.4427
    1SOL     OW 4617   3.170   3.204   2.002 -0.5208  0.2054 -0.2245
    1SOL    HW2 4618   3.150   3.212   2.095  0.2111  0.3616 -0.0745
    1SOL    HW3 4619   3.255   3.160   2.000 -0.3013  0.6519 -0.8071
    1SOL    MW4 4620   3.179   3.199   2.014 -0.3951  0.2851 -0.2816
    1SOL     OW 4621   3.152   3.467   1.882  0.3465  0.3030  0.4200
    1SOL    HW2 4622   3.170   3.381   1.920  1.0843 -0.8681 -2.3940
    1SOL    HW3 4623   3.228   3.520   1.905  0.8815 -0.4431  0.3875
    1SOL    MW4 4624   3.164   3.463   1.890  0.5143  0.0501  0.0445
    1SOL     OW 4625   3.377   3.584   1.986  0.1831  0.0445 -0.2167
    1SOL    HW2 4626   3.456   3.545   1.950 -0.5663 -2.0987  0.3723
    1SOL    HW3 4627   3.385   3.678   1.967  2.7621 -0.1674 -0.3056
    1SOL    MW4 4628   3.389   3.591   1.979  0.4246 -0.2663 -0.1508
    1SOL     OW 4629   3.365   3.847   1.893 -0.6234  0.1624 -0.5645
    1SOL    HW2 4630   3.291   3.887   1.938  0.3845  1.6378 -0.2014
    1SOL    HW3 4631   3.343   3.855   1.800 -1.2469 -0.0873 -0.4466
    1SOL    MW4 4632   3.352   3.853   1.887 -0.5727  0.3242 -0.5010
    1SOL     OW 4633   3.171   3.992   2.009 -0.1952 -0.4458 -0.1029
    1SOL    HW2 4634   3.170   3.989   2.104  0.6359 -0.2565 -0.0805
    1SOL    HW3 4635   3.085   3.960   1.982 -0.3613 -0.6752  0.7032
    1SOL    MW4 4636   3.160   3.988   2.018 -0.1075 -0.4508  0.0064
    1SOL     OW 4637   3.127   4.239   1.865  0.4316 -0.5223 -0.2452
    1SOL    HW2 4638   3.132   4.161   1.919 -0.2702  0.1946  0.8693
    1SOL    HW3 4639   3.068   4.298   1.912 -0.3992  0.0067 -1.9215
    1SOL    MW4 4640   3.120   4.237   1.878  0.2294 -0.3581 -0.3194
    1SOL     OW 4641   3.363   4.384   1.973  0.3079 -0.2603  0.1737
    1SOL    HW2 4642   3.431   4.321   1.947  0.2087 -0.6262  0.7861
    1SOL    HW3 4643   3.281   4.344   1.942  0.3101 -0.1050 -0.0349
    1SOL    MW4 4644   3.361   4.370   1.965  0.2954 -0.2875  0.2270
    1SOL     OW 4645   3.852   4.622   1.872  0.1945 -0.0931  0.5654
    1SOL    HW2 4646   3.833   4.531   1.894 -0.7558 -0.5551 -1.9847
    1SOL    HW3 4647   3.771   4.670   1.892  0.2213 -0.0529  0.5791
    1SOL    MW4 4648   3.839   4.617   1.878  0.0727 -0.1488  0.2307
    1SOL     OW 4649   3.613   0.078   1.952  0.3986 -0.3521 -0.2456
    1SOL    HW2 4650   3.614   0.091   2.047  0.5434  1.1259 -0.4445
    1SOL    HW3 4651   3.531   0.033   1.935 -0.5018  1.0470  0.3663
    1SOL    MW4 4652   3.603   0.074   1.963  0.2990  0.0275 -0.1911
    1SOL     OW 4653   3.594   0.343   1.864 -0.3665 -0.0100  0.1249
    1SOL    HW2 4654   3.589   0.250   1.886 -1.9819 -0.0119 -0.1563
    1SOL    HW3 4655   3.618   0.345   1.772  0.0271 -0.1502  0.2267
    1SOL    MW4 4656   3.596   0.331   1.855 -0.5276 -0.0288  0.1012
    1SOL     OW 4657   3.825   0.487   1.988  0.0303 -0.2896 -0.1675
    1SOL    HW2 4658   3.810   0.578   1.962  0.3630 -0.0766  0.3802
    1SOL    HW3 4659   3.745   0.442   1.964  0.1715 -0.0163 -1.1966
    1SOL    MW4 4660   3.813   0.493   1.981  0.0927 -0.2254 -0.2310
    1SOL     OW 4661   3.793   0.738   1.898  0.0077  0.3259 -0.0614
    1SOL    HW2 4662   3.710   0.778   1.924  0.0193  0.5497 -0.3736
    1SOL    HW3 4663   3.793   0.742   1.803  0.3000  0.1650 -0.0690
    1SOL    MW4 4664   3.782   0.744   1.889  0.0479  0.3342 -0.1037
    1SOL     OW 4665   3.577   0.869   1.997 -0.0915  0.3064  0.3375
    1SOL    HW2 4666   3.583   0.955   1.955  0.5198  0.1276  0.0608
    1SOL    HW3 4667   3.509   0.823   1.947  0.2538  0.2860 -0.1105
    1SOL    MW4 4668   3.569   0.874   1.985  0.0346  0.2801  0.2419
    1SOL     OW 4669   3.570   1.118   1.864 -0.2320 -0.2227 -0.1069
    1SOL    HW2 4670   3.499   1.175   1.892 -1.5362 -1.1041 -1.5687
    1SOL    HW3 4671   3.571   1.126   1.768  0.9099 -1.0636 -0.1753
    1SOL    MW4 4672   3.561   1.127   1.855 -0.2532 -0.4498 -0.3088
    1SOL     OW 4673   3.788   1.273   1.948  0.2865 -0.0695  0.4756
    1SOL    HW2 4674   3.790   1.267   2.043 -1.2480  0.7589  0.5710
    1SOL    HW3 4675   3.714   1.218   1.921  0.4728  0.0050 -0.2092
    1SOL    MW4 4676   3.779   1.265   1.957  0.1087  0.0497  0.3980
    1SOL     OW 4677   3.811   1.516   1.823  0.7392  0.2024 -0.4014
    1SOL    HW2 4678   3.875   1.568   1.872  0.5280  1.4629 -1.4480
    1SOL    HW3 4679   3.813   1.430   1.866  1.4840  0.8943  1.0056
    1SOL    MW4 4680   3.819   1.512   1.835  0.8094  0.4600 -0.3539
    1SOL     OW 4681   3.569   1.635   1.891  0.0605 -0.2881 -0.2009
    1SOL    HW2 4682   3.579   1.728   1.871  0.4395 -0.2086  0.3711
    1SOL    HW3 4683   3.649   1.594   1.858  0.1275 -0.3388  0.0268
    1SOL    MW4 4684   3.581   1.642   1.884  0.1192 -0.2843 -0.0954
    1SOL     OW 4685   3.602   1.907   1.843  0.1073 -0.2800 -0.2180
    1SOL    HW2 4686   3.672   1.964   1.873  0.3248 -0.8892  0.4410
    1SOL    HW3 4687   3.593   1.927   1.749  1.4911 -0.5458 -0.4141
    1SOL    MW4 4688   3.610   1.917   1.834  0.3185 -0.3954 -0.1569
    1SOL     OW 4689   3.791   2.070   1.919 -0.7808 -0.1063 -0.0724
    1SOL    HW2 4690   3.881   2.039   1.912 -0.9992 -0.3652 -1.7292
    1SOL    HW3 4691   3.795   2.161   1.892 -0.5438  0.7108  2.5848
    1SOL    MW4 4692   3.803   2.078   1.915 -0.7784 -0.0327  0.0596
    1SOL     OW 4693   3.816   2.338   1.824 -0.3899  0.2888 -0.1339
    1SOL    HW2 4694   3.896   2.381   1.856  0.4258 -0.4651 -1.1038
    1SOL    HW3 4695   3.747   2.369   1.882  0.3789  1.9978 -0.0891
    1SOL    MW4 4696   3.818   2.348   1.836 -0.1810  0.4151 -0.2559
    1SOL     OW 4697   3.589   2.415   1.961  0.4309 -0.1009 -0.0420
    1SOL    HW2 4698   3.603   2.501   1.921  1.3624 -0.5548 -0.7193
    1SOL    HW3 4699   3.522   2.374   1.905 -0.9332  0.6414  1.0081
    1SOL    MW4 4700   3.582   2.421   1.948  0.3741 -0.0629  0.0073
    1SOL     OW 4701   3.625   2.667   1.863 -0.1451 -0.1483 -0.0484
    1SOL    HW2 4702   3.702   2.719   1.888 -0.3566  0.8784 -1.4456
    1SOL    HW3 4703   3.551   2.725   1.883 -0.4663 -0.5018 -0.2297
    1SOL    MW4 4704   3.626   2.682   1.869 -0.2155 -0.0594 -0.2567
    1SOL     OW 4705   3.825   2.815   1.963 -0.2032  0.2421  0.2026
    1SOL    HW2 4706   3.804   2.816   2.057  3.1846 -0.5935  1.0162
    1SOL    HW3 4707   3.807   2.904   1.934  0.7422  1.1025  2.1388
    1SOL    MW4 4708   3.820   2.827   1.972  0.3686  0.2453  0.5655
    1SOL     OW 4709   3.817   3.080   1.863 -0.0929  0.4264  0.1557
    1SOL    HW2 4710   3.737   3.123   1.891 -0.6150 -0.5872  0.2579
    1SOL    HW3 4711   3.812   3.080   1.767 -0.8449 -0.7808  0.1865
    1SOL    MW4 4712   3.806   3.086   1.854 -0.2611  0.1333  0.1732
    1SOL     OW 4713   3.618   3.247   1.987  0.4065 -0.1141 -0.2927
    1SOL    HW2 4714   3.592   3.247   2.079 -0.8058 -0.9490 -0.6290
    1SOL    HW3 4715   3.617   3.340   1.962 -0.4205  0.0159  0.2089
    1SOL    MW4 4716   3.615   3.260   1.996  0.1373 -0.2069 -0.2710
    1SOL     OW 4717   3.605   3.500   1.867  0.1664  0.3154 -0.2010
    1SOL    HW2 4718   3.681   3.550   1.897  0.2898 -0.0610  0.1243
    1SOL    HW3 4719   3.625   3.477   1.776  0.6833 -0.2377  0.0473
    1SOL    MW4 4720   3.618   3.504   1.859  0.2508  0.1926 -0.1254
    1SOL     OW 4721   3.839   3.611   1.972  0.2554 -0.3380 -0.1303
    1SOL    HW2 4722   3.911   3.560   1.934 -0.3784 -2.1605  1.0106
    1SOL    HW3 4723   3.845   3.697   1.931  0.6555 -1.6980 -3.0461
    1SOL    MW4 4724   3.849   3.615   1.962  0.2248 -0.7579 -0.3645
    1SOL     OW 4725   3.821   3.868   1.864 -0.8832 -0.4577 -0.2962
    1SOL    HW2 4726   3.743   3.915   1.893  0.5372  1.7617  0.0794
    1SOL    HW3 4727   3.822   3.879   1.769  1.0686  3.0004  0.0586
    1SOL    MW4 4728   3.811   3.875   1.855 -0.4382  0.2911 -0.2000
    1SOL     OW 4729   3.596   3.974   1.962 -0.1631 -0.0350 -0.3286
    1SOL    HW2 4730   3.579   3.974   2.056 -0.9530 -1.3875 -0.4451
    1SOL    HW3 4731   3.512   3.947   1.923  0.1874  0.4039 -1.4047
    1SOL    MW4 4732   3.582   3.970   1.969 -0.2210 -0.1552 -0.4860
    1SOL     OW 4733   3.587   4.234   1.895 -0.1122  0.3036  0.1995
    1SOL    HW2 4734   3.664   4.281   1.927 -0.6697  0.7125  0.9718
    1SOL    HW3 4735   3.601   4.143   1.920 -0.2182  0.5037  1.0036
    1SOL    MW4 4736   3.599   4.228   1.902 -0.1998  0.3839  0.4075
    1SOL     OW 4737   3.798   4.387   1.992  0.1121  0.1489  0.0362
    1SOL    HW2 4738   3.784   4.388   2.086 -2.4013 -0.3591 -0.2976
    1SOL    HW3 4739   3.887   4.354   1.981  0.4185  0.2128  2.2178
    1SOL    MW4 4740   3.808   4.383   2.003 -0.1793  0.0901  0.2799
    1SOL     OW 4741   4.293   0.010   1.886 -0.3552 -0.0764 -0.4084
    1SOL    HW2 4742   4.206   0.036   1.915  0.1180  0.4777  0.5440
    1SOL    HW3 4743   4.353   0.053   1.948  0.5513 -1.2646 -0.4429
    1SOL    MW4 4744   4.289   0.019   1.898 -0.1731 -0.1597 -0.2872
    1SOL     OW 4745   4.053   0.124   1.978  0.0401  0.1162 -0.1256
    1SOL    HW2 4746   4.039   0.125   2.072 -0.4064 -0.5593 -0.1737
    1SOL    HW3 4747   3.987   0.061   1.945  0.2097  0.3240 -0.8741
    1SOL    MW4 4748   4.042   0.116   1.986  0.0038  0.0545 -0.2307
    1SOL     OW 4749   4.057   0.365   1.883 -0.3625  0.1772  0.2600
    1SOL    HW2 4750   4.051   0.273   1.909 -1.6574 -0.1312 -1.0915
    1SOL    HW3 4751   3.980   0.406   1.921  0.9495  1.0475  2.0875
    1SOL    MW4 4752   4.046   0.359   1.892 -0.3600  0.2513  0.3227
    1SOL     OW 4753   4.273   0.508   2.014  0.0182 -0.2959 -0.6382
    1SOL    HW2 4754   4.268   0.493   2.109 -0.6274  0.7413 -0.4969
    1SOL    HW3 4755   4.203   0.455   1.977 -0.6312  0.3839 -0.3921
    1SOL    MW4 4756   4.263   0.499   2.022 -0.1526 -0.0693 -0.5872
    1SOL     OW 4757   4.239   0.764   1.921  0.4078 -0.3087  0.2469
    1SOL    HW2 4758   4.256   0.676   1.955  1.4261 -0.2889 -0.1749
    1SOL    HW3 4759   4.260   0.759   1.828 -2.5563 -0.4055 -0.4572
    1SOL    MW4 4760   4.244   0.752   1.913  0.1512 -0.3189  0.0982
    1SOL     OW 4761   4.004   0.900   1.964 -0.0614 -0.2519  0.0278
    1SOL    HW2 4762   4.076   0.837   1.959 -0.9534 -1.4477  1.4313
    1SOL    HW3 4763   3.926   0.850   1.938 -0.7082  0.3747  0.7004
    1SOL    MW4 4764   4.003   0.885   1.960 -0.2646 -0.3270  0.3017
    1SOL     OW 4765   4.034   1.179   1.899 -0.2074  0.0352  0.1959
    1SOL    HW2 4766   4.023   1.087   1.922 -0.9856 -0.3590 -1.6748
    1SOL    HW3 4767   3.947   1.217   1.909  0.0624  0.5308  0.7350
    1SOL    MW4 4768   4.021   1.172   1.904 -0.2747  0.0486  0.0200
    1SOL     OW 4769   4.265   1.312   1.954 -0.0373 -0.0901 -0.0429
    1SOL    HW2 4770   4.276   1.292   2.047  1.1369 -1.4056 -0.4505
    1SOL    HW3 4771   4.185   1.264   1.929  0.8533 -1.5279 -0.2019
    1SOL    MW4 4772   4.256   1.303   1.963  0.2346 -0.4534 -0.1177
    1SOL     OW 4773   4.245   1.569   1.874  0.3078  0.0716  0.1994
    1SOL    HW2 4774   4.248   1.480   1.907  0.1564  0.1167  0.3346
    1SOL    HW3 4775   4.229   1.560   1.780  0.7091 -0.0558  0.1432
    1SOL    MW4 4776   4.244   1.556   1.866  0.3409  0.0607  0.2098
    1SOL     OW 4777   4.001   1.669   1.953  0.0893 -0.0807  0.3241
    1SOL    HW2 4778   4.009   1.664   2.048 -1.0465 -1.3381  0.3733
    1SOL    HW3 4779   4.081   1.629   1.919  1.3326  1.9799  0.7188
    1SOL    MW4 4780   4.012   1.663   1.961  0.1035  0.0253  0.3825
    1SOL     OW 4781   4.029   1.946   1.888  0.0457 -0.0225 -0.1886
    1SOL    HW2 4782   4.015   1.854   1.907  1.8564 -0.2136  0.2161
    1SOL    HW3 4783   4.025   1.952   1.792  1.4098 -0.7674 -0.2965
    1SOL    MW4 4784   4.026   1.935   1.878  0.4649 -0.1459 -0.1495
    1SOL     OW 4785   4.282   2.016   1.961  0.2089 -0.2602 -0.1090
    1SOL    HW2 4786   4.275   2.017   2.057 -0.0737  0.5417 -0.1325
    1SOL    HW3 4787   4.197   1.983   1.932 -0.1268  0.5966 -0.1139
    1SOL    MW4 4788   4.269   2.011   1.970  0.1278 -0.0412 -0.1129
    1SOL     OW 4789   4.231   2.296   1.853  0.0541 -0.0745  0.1615
    1SOL    HW2 4790   4.231   2.208   1.891 -0.6952 -0.1270  0.0567
    1SOL    HW3 4791   4.300   2.343   1.900 -0.3347 -0.3709  1.0435
    1SOL    MW4 4792   4.240   2.291   1.864 -0.0963 -0.1204  0.2642
    1SOL     OW 4793   4.041   2.434   2.000 -0.6874 -0.3697 -0.0636
    1SOL    HW2 4794   4.048   2.429   2.095 -1.2857 -0.6102 -0.0287
    1SOL    HW3 4795   4.114   2.381   1.968  0.5281  1.1037  0.2446
    1SOL    MW4 4796   4.051   2.426   2.008 -0.6065 -0.2069 -0.0181
    1SOL     OW 4797   4.041   2.680   1.871  0.1048 -0.2608  1.0673
    1SOL    HW2 4798   4.033   2.596   1.916 -0.8372 -0.1146  1.1909
    1SOL    HW3 4799   3.970   2.733   1.907  0.7659  0.6310  1.0735
    1SOL    MW4 4800   4.030   2.676   1.882  0.0682 -0.1235  1.0843
    1SOL     OW 4801   4.265   2.812   1.943 -0.3241  0.1742 -0.3729
    1SOL    HW2 4802   4.258   2.821   2.038 -0.9933 -3.0948 -0.0193
    1SOL    HW3 4803   4.190   2.756   1.920  1.3718 -1.3111 -2.4271
    1SOL    MW4 4804   4.254   2.806   1.953 -0.1884 -0.4530 -0.5974
    1SOL     OW 4805   4.255   3.096   1.896  0.1057 -0.5341  0.1932
    1SOL    HW2 4806   4.184   3.123   1.954 -0.6864 -0.5134 -0.7783
    1SOL    HW3 4807   4.260   3.001   1.906 -0.6437 -0.6327 -0.4145
    1SOL    MW4 4808   4.247   3.087   1.905 -0.0973 -0.5448 -0.0153
    1SOL     OW 4809   4.031   3.248   2.010 -0.1910  0.4392  0.2802
    1SOL    HW2 4810   3.999   3.255   2.100  0.6331 -0.5888  0.6604
    1SOL    HW3 4811   3.960   3.204   1.963 -0.1046 -0.1667  0.7130
    1SOL    MW4 4812   4.017   3.243   2.016 -0.0710  0.2234  0.3874
    1SOL     OW 4813   4.053   3.482   1.852 -0.1981 -0.1293 -0.3669
    1SOL    HW2 4814   4.120   3.541   1.888  0.2204 -0.1339 -1.1137
    1SOL    HW3 4815   4.070   3.398   1.894  0.3886 -0.1755 -0.6861
    1SOL    MW4 4816   4.064   3.479   1.862 -0.0653 -0.1361 -0.5074
    1SOL     OW 4817   4.262   3.640   1.986  0.1731  0.0901  0.2354
    1SOL    HW2 4818   4.272   3.728   1.949  1.6347  0.1059  0.6445
    1SOL    HW3 4819   4.331   3.588   1.945  0.3768 -0.4526  1.2439
    1SOL    MW4 4820   4.272   3.645   1.976  0.3934  0.0205  0.4224
    1SOL     OW 4821   4.288   3.894   1.880  0.2424  0.1877  0.2251
    1SOL    HW2 4822   4.367   3.930   1.921  0.1302  1.3104 -0.5287
    1SOL    HW3 4823   4.305   3.901   1.786  0.7391 -2.8909  0.0120
    1SOL    MW4 4824   4.301   3.900   1.873  0.2933 -0.0703  0.0975
    1SOL     OW 4825   4.037   4.021   1.942  0.4747  0.0795 -0.3206
    1SOL    HW2 4826   4.112   3.964   1.924  0.2769 -0.1182 -0.5138
    1SOL    HW3 4827   3.962   3.976   1.902  0.4443  0.8745 -1.1669
    1SOL    MW4 4828   4.037   4.007   1.935  0.4449  0.1588 -0.4578
    1SOL     OW 4829   4.017   4.282   1.875  0.2751  0.2941  0.5665
    1SOL    HW2 4830   4.095   4.324   1.911  0.5747 -0.6654  1.0709
    1SOL    HW3 4831   4.024   4.191   1.903 -1.8914  0.5389  2.0765
    1SOL    MW4 4832   4.028   4.275   1.884  0.0291  0.2003  0.8322
    1SOL     OW 4833   4.238   4.416   1.995 -0.1801 -0.2602 -0.3767
    1SOL    HW2 4834   4.238   4.395   2.088 -1.5915 -0.4412 -0.3976
    1SOL    HW3 4835   4.284   4.499   1.989 -0.6514  0.0799  0.5660
    1SOL    MW4 4836   4.244   4.424   2.006 -0.4287 -0.2394 -0.2549
    1SOL     OW 4837   0.217   4.657   2.378 -0.2679 -0.3608 -0.0209
    1SOL    HW2 4838   0.216   4.658   2.473 -2.1290  1.2995 -0.0054
    1SOL    HW3 4839   0.302   4.693   2.354 -0.2329  0.2878  1.0341
    1SOL    MW4 4840   0.228   4.662   2.387 -0.5088 -0.0558  0.1202
    1SOL     OW 4841   0.015   0.148   2.290 -0.6422 -0.5184  0.6925
    1SOL    HW2 4842   0.097   0.104   2.311 -0.2176  0.0055  0.1202
    1SOL    HW3 4843   0.011   0.149   2.194 -1.9582 -1.7480  0.7102
    1SOL    MW4 4844   0.025   0.142   2.280 -0.7598 -0.6115  0.6194
    1SOL     OW 4845   0.003   0.395   2.411  0.6966 -0.0486 -0.1158
    1SOL    HW2 4846   0.072   0.454   2.380  1.5984 -0.6139  0.7959
    1SOL    HW3 4847   0.012   0.316   2.358  0.5796 -0.0212 -0.1771
    1SOL    MW4 4848   0.013   0.393   2.400  0.8006 -0.1196 -0.0038
    1SOL     OW 4849   0.220   0.532   2.308 -0.0077  0.1189  0.2697
    1SOL    HW2 4850   0.303   0.494   2.337 -0.1778 -0.6703 -0.2832
    1SOL    HW3 4851   0.229   0.541   2.213 -1.0527 -1.1770  0.0461
    1SOL    MW4 4852   0.232   0.528   2.299 -0.1680 -0.1562  0.1671
    1SOL     OW 4853   0.237   0.809   2.391  0.1642  0.0966  0.1051
    1SOL    HW2 4854   0.251   0.810   2.486 -0.5929 -0.5763  0.2283
    1SOL    HW3 4855   0.233   0.717   2.368 -0.5753  0.2627 -0.4446
    1SOL    MW4 4856   0.238   0.797   2.401 -0.0332  0.0297  0.0489
    1SOL     OW 4857   4.481   0.905   2.279  0.0834 -0.2064  0.0098
    1SOL    HW2 4858   4.559   0.865   2.317 -0.2457 -0.1138  0.8054
    1SOL    HW3 4859   4.500   0.913   2.186  1.2798  0.4197  0.3029
    1SOL    MW4 4860   4.494   0.901   2.272  0.1979 -0.1116  0.1533
    1SOL     OW 4861   0.005   1.175   2.351  0.0337 -0.2722  0.3663
    1SOL    HW2 4862  -0.003   1.169   2.447  0.0171  0.2527  0.4000
    1SOL    HW3 4863  -0.004   1.085   2.321  1.0902 -0.5932  0.9487
    1SOL    MW4 4864   0.003   1.163   2.360  0.1712 -0.2453  0.4475
    1SOL     OW 4865   0.225   1.318   2.246 -0.2477  0.5902  0.0520
    1SOL    HW2 4866   0.153   1.271   2.288 -1.0242  1.0291 -0.7735
    1SOL    HW3 4867   0.218   1.295   2.153  0.9846  0.2398  0.0336
    1SOL    MW4 4868   0.215   1.309   2.239 -0.1875  0.6019 -0.0594
    1SOL     OW 4869   0.227   1.575   2.324  0.1834 -0.2316 -0.1243
    1SOL    HW2 4870   0.211   1.567   2.419  0.2330  1.3824  0.0261
    1SOL    HW3 4871   0.230   1.484   2.293 -1.9379 -0.7531  1.0786
    1SOL    MW4 4872   0.225   1.562   2.333 -0.0899 -0.0874  0.0541
    1SOL     OW 4873   4.486   1.671   2.253  0.0612  0.3107  0.1505
    1SOL    HW2 4874   4.479   1.750   2.307  1.0462  1.1171 -0.8995
    1SOL    HW3 4875   4.566   1.628   2.283  0.0326  0.1997  0.0684
    1SOL    MW4 4876   4.495   1.676   2.264  0.1869  0.4023  0.0012
    1SOL     OW 4877   4.470   1.926   2.373  0.0461  0.5983  0.3252
    1SOL    HW2 4878   4.394   1.974   2.341  0.2687  0.8822  0.2257
    1SOL    HW3 4879   4.543   1.958   2.321 -0.1010 -1.1585 -1.0260
    1SOL    MW4 4880   4.470   1.936   2.362  0.0563  0.4040  0.1340
    1SOL     OW 4881   0.204   2.030   2.255  0.5594 -0.2049 -0.1342
    1SOL    HW2 4882   0.286   1.983   2.268  0.4729 -0.2795  0.1457
    1SOL    HW3 4883   0.192   2.031   2.160  1.1204  0.2094 -0.2063
    1SOL    MW4 4884   0.214   2.024   2.244  0.6221 -0.1600 -0.1070
    1SOL     OW 4885   0.237   2.284   2.367 -0.1964 -0.5619  0.2874
    1SOL    HW2 4886   0.245   2.266   2.460 -1.7531 -0.8253  0.3837
    1SOL    HW3 4887   0.227   2.198   2.326 -0.8745 -0.3587  0.0221
    1SOL    MW4 4888   0.237   2.270   2.374 -0.4913 -0.5701  0.2651
    1SOL     OW 4889   0.024   2.396   2.250  0.1832  0.2927  0.3668
    1SOL    HW2 4890   0.031   2.490   2.263  0.2806 -0.0515  3.0933
    1SOL    HW3 4891   0.102   2.359   2.293  1.2109 -0.9184 -2.4186
    1SOL    MW4 4892   0.035   2.403   2.257  0.3314  0.0875  0.3591
    1SOL     OW 4893   4.461   2.693   2.323  0.2511  0.4533 -0.4529
    1SOL    HW2 4894   4.461   2.668   2.415  1.4599  2.7274  0.2124
    1SOL    HW3 4895   4.543   2.741   2.311  0.4055 -0.3091 -2.8752
    1SOL    MW4 4896   4.472   2.696   2.333  0.4311  0.6528 -0.6847
    1SOL     OW 4897   0.187   2.849   2.300  0.0533 -0.1456 -0.0234
    1SOL    HW2 4898   0.265   2.813   2.342  1.2885  0.1802 -1.9910
    1SOL    HW3 4899   0.206   2.846   2.207 -1.6678  1.3839 -0.4569
    1SOL    MW4 4900   0.200   2.844   2.294 -0.0108  0.0994 -0.3400
    1SOL     OW 4901   0.202   3.109   2.341  0.2214 -0.1150  0.1476
    1SOL    HW2 4902   0.116   3.138   2.313  0.7104  0.1383 -1.1215
    1SOL    HW3 4903   0.198   3.014   2.339 -0.6280 -0.1293  1.9705
    1SOL    MW4 4904   0.190   3.101   2.337  0.1739 -0.0834  0.2208
    1SOL     OW 4905   4.452   3.225   2.275 -0.0544  0.0156 -0.0762
    1SOL    HW2 4906   4.442   3.313   2.311 -1.5154  0.7567 -2.1419
    1SOL    HW3 4907   4.444   3.237   2.180 -1.2644 -2.4451 -0.3467
    1SOL    MW4 4908   4.450   3.238   2.267 -0.4067 -0.2112 -0.3843
    1SOL     OW 4909   4.479   3.499   2.359  0.5290 -0.6832  0.5482
    1SOL    HW2 4910   4.461   3.508   2.453  2.1988 -0.8083  0.8867
    1SOL    HW3 4911   4.411   3.552   2.317 -0.6335 -1.1585  1.7901
    1SOL    MW4 4912   4.468   3.508   2.366  0.5956 -0.7627  0.7567
    1SOL     OW 4913   0.212   3.608   2.233 -0.2810 -0.3079  0.5365
    1SOL    HW2 4914   0.288   3.565   2.272  0.2769 -0.9519 -1.2633
    1SOL    HW3 4915   0.137   3.567   2.276  0.3233 -1.1587  0.7844
    1SOL    MW4 4916   0.212   3.597   2.244 -0.1277 -0.5054  0.3316
    1SOL     OW 4917   0.210   3.839   2.378  0.4602 -0.2157  0.0449
    1SOL    HW2 4918   0.126   3.877   2.352 -0.1031  0.1020  2.2388
    1SOL    HW3 4919   0.208   3.750   2.342  0.3842  0.6917 -2.2965
    1SOL    MW4 4920   0.198   3.832   2.370  0.3759 -0.0541  0.0255
    1SOL     OW 4921   0.008   3.996   2.287  0.1647 -0.4651  0.0643
    1SOL    HW2 4922   0.028   4.087   2.309 -0.3710 -0.3516  0.0935
    1SOL    HW3 4923   0.011   3.993   2.191 -0.6700 -0.2109  0.0228
    1SOL    MW4 4924   0.011   4.007   2.277 -0.0157 -0.4168  0.0629
    1SOL     OW 4925   0.000   4.276   2.332  0.0074  0.6441  0.0547
    1SOL    HW2 4926   0.002   4.273   2.428 -0.8827  1.3143  0.1016
    1SOL    HW3 4927   0.084   4.316   2.307  0.6465 -0.4000  0.5054
    1SOL    MW4 4928   0.011   4.281   2.341 -0.0257  0.5946  0.1204
    1SOL     OW 4929   0.232   4.386   2.255  0.2639 -0.0165  0.5835
    1SOL    HW2 4930   0.305   4.341   2.297  0.1181 -0.9603 -0.1706
    1SOL    HW3 4931   0.230   4.472   2.297  1.0060 -0.4430  1.5039
    1SOL    MW4 4932   0.241   4.392   2.266  0.3426 -0.1974  0.6056
    1SOL     OW 4933   0.683   4.630   2.346  0.4262  0.2874 -0.3467
    1SOL    HW2 4934   0.677   4.627   2.442  1.2844 -0.1054 -0.2949
    1SOL    HW3 4935   0.772   4.662   2.329  0.7642 -0.9500 -1.0019
    1SOL    MW4 4936   0.694   4.634   2.357  0.5840  0.0725 -0.4263
    1SOL     OW 4937   0.452   0.110   2.309  0.1090  0.0118 -0.1041
    1SOL    HW2 4938   0.531   0.058   2.316  0.5611  0.5998 -0.7616
    1SOL    HW3 4939   0.449   0.138   2.217 -1.0167 -0.2626 -0.1640
    1SOL    MW4 4940   0.462   0.107   2.298  0.0201  0.0531 -0.1988
    1SOL     OW 4941   0.424   0.363   2.413 -0.6905 -0.4972 -0.1152
    1SOL    HW2 4942   0.418   0.357   2.508 -1.7913  0.1054 -0.1396
    1SOL    HW3 4943   0.438   0.273   2.384  1.2198 -0.4969  0.7054
    1SOL    MW4 4944   0.425   0.350   2.421 -0.5837 -0.4177 -0.0100
    1SOL     OW 4945   0.648   0.499   2.269 -0.0904  0.4455 -0.4379
    1SOL    HW2 4946   0.651   0.592   2.292 -0.6816  0.1589  0.8434
    1SOL    HW3 4947   0.572   0.465   2.317 -0.0661 -0.6351 -1.1445
    1SOL    MW4 4948   0.638   0.507   2.278 -0.1652  0.2651 -0.3619
    1SOL     OW 4949   0.655   0.765   2.327 -0.2453  0.3301  0.3119
    1SOL    HW2 4950   0.644   0.765   2.422 -0.0576  0.1858  0.3333
    1SOL    HW3 4951   0.576   0.809   2.294  0.2267  1.4250  0.6026
    1SOL    MW4 4952   0.643   0.771   2.335 -0.1583  0.4555  0.3533
    1SOL     OW 4953   0.424   0.905   2.225 -0.0571 -0.1273 -0.5309
    1SOL    HW2 4954   0.442   0.991   2.262  1.9543 -1.1810  0.9898
    1SOL    HW3 4955   0.354   0.869   2.279 -0.2345  0.1623 -0.5699
    1SOL    MW4 4956   0.417   0.911   2.237  0.1849 -0.2281 -0.3352
    1SOL     OW 4957   0.422   1.156   2.349 -0.1494  0.6201  0.0329
    1SOL    HW2 4958   0.420   1.143   2.444  0.6678  0.0343 -0.0264
    1SOL    HW3 4959   0.346   1.211   2.331 -0.0274  1.1537  1.0936
    1SOL    MW4 4960   0.412   1.162   2.359 -0.0255  0.6132  0.1650
    1SOL     OW 4961   0.665   1.265   2.252  0.2628  0.2238  0.1717
    1SOL    HW2 4962   0.687   1.347   2.296  0.2142  0.8261 -0.9176
    1SOL    HW3 4963   0.582   1.238   2.290 -0.7618  1.7628 -0.9371
    1SOL    MW4 4964   0.657   1.272   2.263  0.1212  0.5063 -0.1185
    1SOL     OW 4965   0.702   1.528   2.369 -0.1479 -0.4500  0.0866
    1SOL    HW2 4966   0.695   1.543   2.463  0.1188 -0.9188  0.1840
    1SOL    HW3 4967   0.771   1.588   2.340  0.3320 -0.8757  0.3302
    1SOL    MW4 4968   0.710   1.538   2.378 -0.0494 -0.5680  0.1316
    1SOL     OW 4969   0.485   1.656   2.235  0.2192  0.0744  0.2400
    1SOL    HW2 4970   0.557   1.622   2.287  0.7066  0.3522 -0.2475
    1SOL    HW3 4971   0.406   1.619   2.275  0.6608 -0.5788  0.5070
    1SOL    MW4 4972   0.484   1.647   2.247  0.3417  0.0249  0.2110
    1SOL     OW 4973   0.465   1.914   2.313  0.0696 -0.1101  0.1745
    1SOL    HW2 4974   0.538   1.960   2.272 -0.6027  0.1859 -0.7192
    1SOL    HW3 4975   0.477   1.822   2.289  0.4168 -0.1325  0.4384
    1SOL    MW4 4976   0.476   1.908   2.304  0.0267 -0.0738  0.0916
    1SOL     OW 4977   0.687   2.063   2.239 -0.7350  0.2733  0.1556
    1SOL    HW2 4978   0.775   2.033   2.264 -1.6209 -1.5529  1.2296
    1SOL    HW3 4979   0.668   2.135   2.299  0.3747  1.2948 -0.6910
    1SOL    MW4 4980   0.696   2.068   2.250 -0.7054  0.1669  0.1857
    1SOL     OW 4981   0.663   2.301   2.381  0.2998 -0.0805  0.1097
    1SOL    HW2 4982   0.644   2.317   2.473  0.1256 -0.2007  0.0952
    1SOL    HW3 4983   0.747   2.345   2.365  0.0133  0.4872  0.1640
    1SOL    MW4 4984   0.672   2.309   2.391  0.2390 -0.0215  0.1149
    1SOL     OW 4985   0.437   2.453   2.284 -0.1467  0.1257 -0.0424
    1SOL    HW2 4986   0.516   2.401   2.299 -0.1708  0.6104  1.8527
    1SOL    HW3 4987   0.367   2.401   2.323 -0.4816  0.5987 -0.0172
    1SOL    MW4 4988   0.438   2.439   2.291 -0.1942  0.2520  0.2110
    1SOL     OW 4989   0.434   2.697   2.386 -0.7703 -0.1771 -0.0547
    1SOL    HW2 4990   0.448   2.690   2.480 -0.4933 -0.2741 -0.1028
    1SOL    HW3 4991   0.428   2.606   2.356 -1.2606 -0.1424 -0.0712
    1SOL    MW4 4992   0.435   2.684   2.394 -0.7984 -0.1855 -0.0634
    1SOL     OW 4993   0.658   2.855   2.285 -0.6353 -0.4908 -0.1475
    1SOL    HW2 4994   0.737   2.815   2.323 -0.9992 -0.9351  0.1531
    1SOL    HW3 4995   0.586   2.799   2.315 -1.0895  0.0291 -0.2516
    1SOL    MW4 4996   0.659   2.842   2.294 -0.7433 -0.4809 -0.1216
    1SOL     OW 4997   0.662   3.108   2.386 -0.3451 -0.5211  1.0262
    1SOL    HW2 4998   0.575   3.148   2.378  0.4602  1.2748  1.0187
    1SOL    HW3 4999   0.651   3.021   2.347 -1.4358  0.7700 -1.6910
    1SOL    MW4 5000   0.649   3.102   2.379 -0.3827 -0.1142  0.6669
    1SOL     OW 5001   0.438   3.240   2.258 -0.1369  0.3829  0.1396
    1SOL    HW2 5002   0.360   3.188   2.278 -0.6498  0.7656 -0.7995
    1SOL    HW3 5003   0.438   3.247   2.162  1.1526  0.2377  0.1205
    1SOL    MW4 5004   0.427   3.234   2.248 -0.0345  0.4144  0.0131
    1SOL     OW 5005   0.422   3.493   2.376 -0.3542  0.3108  0.4622
    1SOL    HW2 5006   0.510   3.527   2.356 -0.6010 -0.0181 -1.2947
    1SOL    HW3 5007   0.422   3.405   2.339 -0.9015 -0.2881  1.8697
    1SOL    MW4 5008   0.434   3.486   2.368 -0.4590  0.1886  0.4163
    1SOL     OW 5009   0.658   3.602   2.275 -0.0672  0.6259 -0.5574
    1SOL    HW2 5010   0.681   3.690   2.303 -0.6025  0.3379  0.8600
    1SOL    HW3 5011   0.631   3.611   2.183  2.1757  1.5269 -1.1482
    1SOL    MW4 5012   0.658   3.615   2.267  0.1581  0.7069 -0.4485
    1SOL     OW 5013   0.660   3.866   2.387  0.4539  0.0858 -0.2332
    1SOL    HW2 5014   0.663   3.854   2.482  2.0455  1.0996 -0.1397
    1SOL    HW3 5015   0.583   3.920   2.373  1.0477  1.1875  0.6422
    1SOL    MW4 5016   0.650   3.871   2.398  0.7421  0.3650 -0.1054
    1SOL     OW 5017   0.433   3.991   2.285 -0.1423  0.9044  0.1944
    1SOL    HW2 5018   0.349   3.950   2.307  0.0100  0.3679 -0.1926
    1SOL    HW3 5019   0.426   4.011   2.191  0.4417  0.1654 -0.0126
    1SOL    MW4 5020   0.421   3.988   2.275 -0.0452  0.7360  0.1159
    1SOL     OW 5021   0.448   4.259   2.368 -0.4222 -0.0882 -0.1538
    1SOL    HW2 5022   0.523   4.294   2.321 -0.6192  0.3574 -0.1457
    1SOL    HW3 5023   0.450   4.165   2.351 -0.0045 -0.0431 -0.3526
    1SOL    MW4 5024   0.458   4.251   2.359 -0.3931 -0.0234 -0.1788
    1SOL     OW 5025   0.665   4.380   2.235 -0.0868  0.2830 -0.0519
    1SOL    HW2 5026   0.662   4.459   2.289  0.1139  0.4657 -0.3084
    1SOL    HW3 5027   0.662   4.413   2.145 -1.6430 -0.0694 -0.1403
    1SOL    MW4 5028   0.664   4.395   2.230 -0.2657  0.2599 -0.0973
    1SOL     OW 5029   1.149   4.625   2.368  0.1501  0.0082  0.2357
    1SOL    HW2 5030   1.142   4.619   2.464  1.1146  0.1293  0.3121
    1SOL    HW3 5031   1.072   4.676   2.342  1.1002  1.9338  1.1486
    1SOL    MW4 5032   1.138   4.631   2.378  0.4027  0.2780  0.3662
    1SOL     OW 5033   0.942   0.103   2.273  0.2348 -0.6213  0.4689
    1SOL    HW2 5034   0.921   0.192   2.301 -0.9574 -1.0302  0.8862
    1SOL    HW3 5035   0.951   0.109   2.178  0.2505 -0.0431  0.5025
    1SOL    MW4 5036   0.941   0.116   2.264  0.0796 -0.5990  0.5286
    1SOL     OW 5037   0.886   0.371   2.359  0.0164 -0.7120 -0.0765
    1SOL    HW2 5038   0.948   0.438   2.333 -0.3084 -0.5839 -0.5159
    1SOL    HW3 5039   0.800   0.405   2.333 -0.1701 -1.2095 -0.1316
    1SOL    MW4 5040   0.883   0.384   2.352 -0.0510 -0.7608 -0.1419
    1SOL     OW 5041   1.095   0.515   2.273 -0.0351 -0.0732 -0.3023
    1SOL    HW2 5042   1.177   0.468   2.290  0.1739  0.5541  0.4192
    1SOL    HW3 5043   1.086   0.512   2.178  1.0135  0.1637 -0.4175
    1SOL    MW4 5044   1.105   0.508   2.263  0.1309  0.0408 -0.2224
    1SOL     OW 5045   1.123   0.775   2.329  0.1249 -0.1584  0.1836
    1SOL    HW2 5046   1.043   0.813   2.292  0.5510  0.5058 -0.0757
    1SOL    HW3 5047   1.118   0.682   2.307  0.0876  0.1184 -1.0612
    1SOL    MW4 5048   1.112   0.768   2.321  0.1761 -0.0342 -0.0148
    1SOL     OW 5049   0.866   0.885   2.214 -0.0119 -0.1155 -0.2127
    1SOL    HW2 5050   0.858   0.973   2.252 -2.0558  0.1074 -1.0985
    1SOL    HW3 5051   0.794   0.835   2.253  0.7975 -1.2453 -0.1410
    1SOL    MW4 5052   0.855   0.890   2.224 -0.1748 -0.2351 -0.3204
    1SOL     OW 5053   0.880   1.115   2.377  0.0998 -0.1675 -0.0329
    1SOL    HW2 5054   0.952   1.168   2.345 -0.8166  0.4271 -1.1489
    1SOL    HW3 5055   0.801   1.159   2.343 -0.8148 -0.3836  1.7711
    1SOL    MW4 5056   0.879   1.128   2.368 -0.1418 -0.1175  0.0579
    1SOL     OW 5057   1.086   1.269   2.298  0.5969 -0.1490 -0.5537
    1SOL    HW2 5058   1.160   1.213   2.320  0.3015 -0.1209  0.5516
    1SOL    HW3 5059   1.090   1.279   2.203 -0.0091 -2.9763 -0.9214
    1SOL    MW4 5060   1.096   1.263   2.289  0.4779 -0.5182 -0.4563
    1SOL     OW 5061   1.128   1.537   2.362  0.2559 -0.9349 -0.5059
    1SOL    HW2 5062   1.051   1.582   2.327 -0.4651 -1.3383  0.5523
    1SOL    HW3 5063   1.119   1.447   2.332  0.2642 -1.0043 -0.3006
    1SOL    MW4 5064   1.117   1.531   2.353  0.1619 -0.9972 -0.3393
    1SOL     OW 5065   0.909   1.678   2.255 -0.3374 -0.0553 -0.3367
    1SOL    HW2 5066   0.916   1.771   2.278 -0.4074  0.3055 -1.7130
    1SOL    HW3 5067   0.916   1.677   2.159  1.8327 -1.6500 -0.2111
    1SOL    MW4 5068   0.911   1.691   2.245 -0.0604 -0.2180 -0.5016
    1SOL     OW 5069   0.940   1.939   2.330  0.3977  0.1411  0.4960
    1SOL    HW2 5070   0.939   1.929   2.426  0.1447  1.5908  0.6591
    1SOL    HW3 5071   1.016   1.995   2.313  1.2278 -1.2049 -0.2785
    1SOL    MW4 5072   0.950   1.945   2.341  0.4739  0.1547  0.4153
    1SOL     OW 5073   1.160   2.104   2.273 -0.2376  0.0997 -0.2398
    1SOL    HW2 5074   1.228   2.048   2.311 -1.0396 -0.5296  0.2843
    1SOL    HW3 5075   1.176   2.098   2.179  0.3274 -0.1848 -0.1351
    1SOL    MW4 5076   1.171   2.096   2.266 -0.2688 -0.0210 -0.1569
    1SOL     OW 5077   1.138   2.365   2.367  0.2252 -0.2623  0.4874
    1SOL    HW2 5078   1.217   2.409   2.337  0.0473 -0.5871 -0.4707
    1SOL    HW3 5079   1.145   2.276   2.334 -1.2587  0.1187 -0.9513
    1SOL    MW4 5080   1.149   2.359   2.359  0.0058 -0.2549  0.1709
    1SOL     OW 5081   0.892   2.464   2.312 -0.3689 -0.3557 -0.0496
    1SOL    HW2 5082   0.977   2.440   2.349 -0.5116 -3.2584 -1.4445
    1SOL    HW3 5083   0.898   2.437   2.220 -2.5512  0.0382 -0.3303
    1SOL    MW4 5084   0.904   2.457   2.305 -0.6756 -0.6866 -0.2708
    1SOL     OW 5085   0.887   2.736   2.382  0.2690 -0.2220 -0.6337
    1SOL    HW2 5086   0.890   2.732   2.478  0.6776 -1.1648 -0.6825
    1SOL    HW3 5087   0.881   2.645   2.354 -1.0170  0.1053 -1.4787
    1SOL    MW4 5088   0.887   2.723   2.391  0.1532 -0.3030 -0.7515
    1SOL     OW 5089   1.102   2.878   2.242  0.0641 -0.0536 -0.2919
    1SOL    HW2 5090   1.174   2.830   2.282 -0.9302 -1.1202  0.2359
    1SOL    HW3 5091   1.023   2.829   2.266 -0.9553  1.7506  0.1221
    1SOL    MW4 5092   1.101   2.865   2.250 -0.2016  0.0439 -0.1676
    1SOL     OW 5093   1.099   3.104   2.378 -0.2280  0.0763  0.0879
    1SOL    HW2 5094   1.021   3.151   2.347  0.8937  0.7965 -1.7602
    1SOL    HW3 5095   1.094   3.019   2.336  1.3910  1.1184 -2.3757
    1SOL    MW4 5096   1.088   3.099   2.368  0.1338  0.3090 -0.4811
    1SOL     OW 5097   0.887   3.222   2.278 -0.0284  0.0256  0.1201
    1SOL    HW2 5098   0.895   3.311   2.312 -0.0163  0.3145 -0.6263
    1SOL    HW3 5099   0.815   3.183   2.328  0.5758  0.1519  1.0846
    1SOL    MW4 5100   0.878   3.228   2.289  0.0529  0.0803  0.1490
    1SOL     OW 5101   0.888   3.491   2.350  0.0948 -0.6782 -0.3794
    1SOL    HW2 5102   0.892   3.498   2.446 -0.0025 -1.0599 -0.3453
    1SOL    HW3 5103   0.809   3.538   2.326  0.9307  0.7184 -0.4082
    1SOL    MW4 5104   0.878   3.498   2.360  0.1923 -0.5443 -0.3788
    1SOL     OW 5105   1.129   3.606   2.270  0.5696  0.2327  0.3532
    1SOL    HW2 5106   1.192   3.568   2.331  1.0104 -0.4464 -0.5076
    1SOL    HW3 5107   1.047   3.563   2.292  1.0521 -1.1698 -0.5605
    1SOL    MW4 5108   1.127   3.595   2.281  0.6914 -0.0417  0.1192
    1SOL     OW 5109   1.133   3.864   2.338 -0.3557  0.1241 -0.2540
    1SOL    HW2 5110   1.209   3.914   2.307 -0.7840 -0.0557 -1.6495
    1SOL    HW3 5111   1.150   3.774   2.307 -0.4497 -0.2224  0.6817
    1SOL    MW4 5112   1.145   3.858   2.329 -0.4246  0.0544 -0.3147
    1SOL     OW 5113   0.891   3.987   2.269  0.0364 -0.0098 -0.1353
    1SOL    HW2 5114   0.973   3.953   2.303  0.5526  1.0140 -0.3298
    1SOL    HW3 5115   0.823   3.944   2.321  0.7459  0.1904  0.9542
    1SOL    MW4 5116   0.893   3.977   2.280  0.1982  0.1519 -0.0174
    1SOL     OW 5117   0.892   4.260   2.358  0.0687  0.3893 -0.0355
    1SOL    HW2 5118   0.895   4.167   2.338 -0.3356  0.6047 -1.1339
    1SOL    HW3 5119   0.812   4.291   2.316 -0.4472  1.0009  1.3471
    1SOL    MW4 5120   0.882   4.252   2.350 -0.0527  0.4988  0.0021
    1SOL     OW 5121   1.110   4.378   2.244 -0.5211 -0.0975  0.1940
    1SOL    HW2 5122   1.034   4.327   2.271 -1.6876  1.8098  0.6199
    1SOL    HW3 5123   1.098   4.463   2.287  2.0947  0.0780  0.6671
    1SOL    MW4 5124   1.098   4.383   2.254 -0.3299  0.1769  0.3126
    1SOL     OW 5125   1.605   4.622   2.359  0.4562  0.0561  0.4712
    1SOL    HW2 5126   1.664   4.682   2.313  0.0595 -0.4274 -0.6721
    1SOL    HW3 5127   1.517   4.653   2.336  0.2154 -2.0456 -1.6024
    1SOL    MW4 5128   1.601   4.634   2.350  0.3722 -0.2851  0.0465
    1SOL     OW 5129   1.378   0.086   2.269 -0.7700  0.2635  0.1407
    1SOL    HW2 5130   1.348   0.176   2.279  0.2480  0.4789  1.3422
    1SOL    HW3 5131   1.311   0.032   2.309 -1.4226  0.4696 -0.6573
    1SOL    MW4 5132   1.365   0.091   2.275 -0.7218  0.3191  0.1941
    1SOL     OW 5133   1.332   0.345   2.348  0.4198 -0.6488  0.2576
    1SOL    HW2 5134   1.306   0.353   2.440 -0.6224  1.8542 -0.2006
    1SOL    HW3 5135   1.410   0.400   2.340  0.8409 -1.3096 -0.2430
    1SOL    MW4 5136   1.339   0.354   2.359  0.3378 -0.4057  0.1311
    1SOL     OW 5137   1.557   0.505   2.295 -0.0037  0.5949  0.4207
    1SOL    HW2 5138   1.642   0.468   2.314 -0.4308 -0.1988  0.8042
    1SOL    HW3 5139   1.559   0.524   2.201  0.3983  0.0919  0.3297
    1SOL    MW4 5140   1.568   0.503   2.285 -0.0069  0.4237  0.4594
    1SOL     OW 5141   1.567   0.779   2.385  0.0926  0.6216 -0.0819
    1SOL    HW2 5142   1.639   0.808   2.329 -0.2837 -0.2159 -1.0223
    1SOL    HW3 5143   1.557   0.686   2.365  0.5188  0.0892  2.0232
    1SOL    MW4 5144   1.575   0.770   2.375  0.0993  0.4409  0.0720
    1SOL     OW 5145   1.358   0.871   2.237  1.1700  0.2152 -0.4319
    1SOL    HW2 5146   1.415   0.830   2.302  0.4323 -0.6220 -0.3003
    1SOL    HW3 5147   1.270   0.848   2.265  0.8435  0.0070 -1.6274
    1SOL    MW4 5148   1.354   0.862   2.249  1.0296  0.0774 -0.5722
    1SOL     OW 5149   1.331   1.112   2.333 -0.4417 -0.5890  0.2730
    1SOL    HW2 5150   1.334   1.110   2.429  0.1854 -0.6488  0.2495
    1SOL    HW3 5151   1.346   1.022   2.307 -1.3069 -0.6979  0.1346
    1SOL    MW4 5152   1.333   1.100   2.342 -0.4730 -0.6113  0.2518
    1SOL     OW 5153   1.539   1.257   2.285  0.1996 -0.1938  0.1410
    1SOL    HW2 5154   1.456   1.216   2.307  0.2930 -0.1069  0.6690
    1SOL    HW3 5155   1.543   1.254   2.189  0.0770 -1.1462  0.1616
    1SOL    MW4 5156   1.529   1.251   2.275  0.1955 -0.3079  0.2136
    1SOL     OW 5157   1.544   1.522   2.392  0.0772 -0.0478  0.3895
    1SOL    HW2 5158   1.614   1.571   2.349 -0.6510  0.6879  0.0121
    1SOL    HW3 5159   1.547   1.435   2.353  0.7481 -0.0032  0.3408
    1SOL    MW4 5160   1.553   1.517   2.382  0.0697  0.0553  0.3333
    1SOL     OW 5161   1.364   1.669   2.240  0.1481 -0.0584  0.4463
    1SOL    HW2 5162   1.431   1.620   2.288 -0.5236 -1.8258 -0.4212
    1SOL    HW3 5163   1.282   1.624   2.259 -0.6171  1.2266  0.3037
    1SOL    MW4 5164   1.362   1.657   2.249 -0.0415 -0.1221  0.3130
    1SOL     OW 5165   1.375   1.947   2.380  0.0937  0.1984 -0.4594
    1SOL    HW2 5166   1.453   1.992   2.347 -0.5489  0.8308 -1.1604
    1SOL    HW3 5167   1.379   1.860   2.341  1.0434 -0.1514  0.4275
    1SOL    MW4 5168   1.386   1.942   2.370  0.1342  0.2356 -0.4346
    1SOL     OW 5169   1.602   2.066   2.277 -0.3980  0.4644  0.5708
    1SOL    HW2 5170   1.678   2.008   2.287  0.2888  1.3453  0.5211
    1SOL    HW3 5171   1.579   2.060   2.184 -2.0924 -1.8918  1.0883
    1SOL    MW4 5172   1.609   2.058   2.266 -0.5310  0.2699  0.6328
    1SOL     OW 5173   1.578   2.332   2.353 -0.2389 -0.1942  0.0939
    1SOL    HW2 5174   1.583   2.327   2.449  0.0896  0.4835  0.1189
    1SOL    HW3 5175   1.602   2.245   2.323  1.6177  0.1373  0.5724
    1SOL    MW4 5176   1.582   2.320   2.362  0.0494 -0.0610  0.1602
    1SOL     OW 5177   1.357   2.498   2.293 -0.3292  0.0516 -0.0537
    1SOL    HW2 5178   1.442   2.458   2.309  0.2439  2.3970  3.3185
    1SOL    HW3 5179   1.353   2.511   2.198  3.4684  0.7673 -0.1839
    1SOL    MW4 5180   1.368   2.494   2.283  0.2475  0.4554  0.3741
    1SOL     OW 5181   1.320   2.773   2.356  0.1704  0.3512 -0.2887
    1SOL    HW2 5182   1.404   2.814   2.336  1.2303 -0.5436  2.2051
    1SOL    HW3 5183   1.332   2.681   2.332  0.3621 -0.0546  1.3353
    1SOL    MW4 5184   1.333   2.766   2.350  0.3356  0.1795  0.2546
    1SOL     OW 5185   1.583   2.858   2.294 -0.4678 -0.4082 -0.4261
    1SOL    HW2 5186   1.591   2.946   2.331  0.2850 -0.7541  0.2524
    1SOL    HW3 5187   1.588   2.871   2.199  2.8330  0.0114 -0.2723
    1SOL    MW4 5188   1.585   2.871   2.286  0.0669 -0.3986 -0.3164
    1SOL     OW 5189   1.558   3.132   2.377 -0.1365 -0.0875 -0.0485
    1SOL    HW2 5190   1.551   3.121   2.472  1.2707  0.9529  0.1897
    1SOL    HW3 5191   1.478   3.179   2.353  0.0067  0.6134  0.7928
    1SOL    MW4 5192   1.546   3.137   2.387  0.0681  0.1423  0.0942
    1SOL     OW 5193   1.323   3.231   2.276  0.7371  0.3056 -0.7252
    1SOL    HW2 5194   1.240   3.189   2.299  0.7044  0.7091 -0.0951
    1SOL    HW3 5195   1.316   3.249   2.182  0.0959  0.3715 -0.6651
    1SOL    MW4 5196   1.311   3.228   2.266  0.6481  0.3674 -0.6342
    1SOL     OW 5197   1.360   3.515   2.395  0.2373  0.0050 -0.6589
    1SOL    HW2 5198   1.350   3.518   2.491  3.5745 -0.1522 -0.2472
    1SOL    HW3 5199   1.347   3.423   2.373 -1.7607  0.2427 -0.5238
    1SOL    MW4 5200   1.357   3.504   2.405  0.4139  0.0155 -0.5865
    1SOL     OW 5201   1.581   3.638   2.297 -0.5951  0.1499 -0.2052
    1SOL    HW2 5202   1.563   3.730   2.315 -0.2681  0.0022  0.9180
    1SOL    HW3 5203   1.512   3.591   2.343 -1.1802 -0.1544 -1.3571
    1SOL    MW4 5204   1.569   3.644   2.305 -0.6293  0.0901 -0.2089
    1SOL     OW 5205   1.566   3.914   2.354 -0.7790  0.6795  0.2556
    1SOL    HW2 5206   1.587   3.920   2.447 -2.3759  0.9632  0.6135
    1SOL    HW3 5207   1.647   3.938   2.309  0.3990 -0.8032  1.5502
    1SOL    MW4 5208   1.579   3.918   2.360 -0.8342  0.5214  0.4735
    1SOL     OW 5209   1.346   4.032   2.258  0.0303  0.2554 -0.5986
    1SOL    HW2 5210   1.422   3.982   2.287  0.1434  1.3336  1.0626
    1SOL    HW3 5211   1.354   4.037   2.163  1.2151 -0.9296 -0.5607
    1SOL    MW4 5212   1.357   4.026   2.250  0.2015  0.2408 -0.3748
    1SOL     OW 5213   1.341   4.279   2.360 -0.1738  0.1710 -0.5474
    1SOL    HW2 5214   1.342   4.193   2.319  1.2034  0.2053 -0.6062
    1SOL    HW3 5215   1.256   4.317   2.335 -0.2854 -0.6902 -1.4898
    1SOL    MW4 5216   1.330   4.273   2.352 -0.0067  0.0620 -0.6795
    1SOL     OW 5217   1.568   4.358   2.230  0.1841 -0.1419  0.0095
    1SOL    HW2 5218   1.476   4.357   2.259 -0.0513  1.0817 -0.6631
    1SOL    HW3 5219   1.606   4.434   2.273  1.3528 -1.6168  1.6355
    1SOL    MW4 5220   1.561   4.368   2.239  0.3073 -0.1750  0.1354
    1SOL     OW 5221   2.009   4.657   2.343 -0.6159 -0.4338 -0.1253
    1SOL    HW2 5222   2.084   4.697   2.299 -2.1796  0.7331 -1.8051
    1SOL    HW3 5223   2.021   4.563   2.330 -0.4033 -0.1561 -2.0147
    1SOL    MW4 5224   2.020   4.650   2.335 -0.7939 -0.2432 -0.5963
    1SOL     OW 5225   1.810   0.095   2.182 -0.2176  0.0149 -0.3193
    1SOL    HW2 5226   1.817   0.186   2.212  0.0680  0.0382 -0.4527
    1SOL    HW3 5227   1.872   0.047   2.238  0.6565  0.1323 -1.1604
    1SOL    MW4 5228   1.819   0.101   2.194 -0.0647  0.0335 -0.4478
    1SOL     OW 5229   1.777   0.339   2.358 -0.1532  0.1424  0.3092
    1SOL    HW2 5230   1.777   0.340   2.454 -0.5921  2.0537  0.3220
    1SOL    HW3 5231   1.860   0.381   2.334  0.4093 -1.2183 -0.1645
    1SOL    MW4 5232   1.788   0.345   2.368 -0.1367  0.2150  0.2482
    1SOL     OW 5233   2.015   0.458   2.248 -0.1863 -0.4685  0.1275
    1SOL    HW2 5234   2.010   0.550   2.275 -1.6790 -0.3725 -0.4444
    1SOL    HW3 5235   2.030   0.461   2.154 -2.4659 -0.7973 -0.2642
    1SOL    MW4 5236   2.016   0.470   2.239 -0.6838 -0.4992  0.0005
    1SOL     OW 5237   2.003   0.731   2.343 -0.2370  0.3621  0.2492
    1SOL    HW2 5238   2.087   0.769   2.321  0.5354 -1.9208 -0.9507
    1SOL    HW3 5239   2.010   0.709   2.436  0.3581  0.5024  0.2370
    1SOL    MW4 5240   2.015   0.733   2.352 -0.0563  0.0794  0.0892
    1SOL     OW 5241   1.782   0.867   2.243  0.1199 -0.1749 -0.0778
    1SOL    HW2 5242   1.786   0.956   2.278 -0.3849 -0.4256  0.6291
    1SOL    HW3 5243   1.846   0.818   2.296  0.0797 -0.3312 -0.1739
    1SOL    MW4 5244   1.791   0.872   2.255  0.0479 -0.2286  0.0029
    1SOL     OW 5245   1.772   1.140   2.359  0.5621 -0.3079  0.2314
    1SOL    HW2 5246   1.838   1.207   2.338 -0.9025  0.8539 -0.7786
    1SOL    HW3 5247   1.689   1.179   2.330 -0.9226 -0.6573  3.7858
    1SOL    MW4 5248   1.770   1.154   2.352  0.1730 -0.2007  0.5672
    1SOL     OW 5249   1.971   1.302   2.285  0.6623 -0.3677 -0.5346
    1SOL    HW2 5250   1.993   1.385   2.328  0.2745 -0.3134 -0.4326
    1SOL    HW3 5251   2.035   1.240   2.318  0.8126 -0.1588 -0.4325
    1SOL    MW4 5252   1.982   1.305   2.295  0.6310 -0.3330 -0.5078
    1SOL     OW 5253   2.006   1.560   2.378  0.0047 -0.5479  0.1288
    1SOL    HW2 5254   2.009   1.575   2.472  0.7535  0.4136 -0.0406
    1SOL    HW3 5255   1.920   1.593   2.352 -0.3847 -1.2299  0.5386
    1SOL    MW4 5256   1.995   1.566   2.387  0.0520 -0.5111  0.1605
    1SOL     OW 5257   1.766   1.657   2.276  0.0590 -0.1397  0.2653
    1SOL    HW2 5258   1.776   1.743   2.317  0.5113 -0.4219  0.7615
    1SOL    HW3 5259   1.763   1.675   2.183 -3.3736  0.7429  0.4718
    1SOL    MW4 5260   1.767   1.671   2.269 -0.3343 -0.0606  0.3581
    1SOL     OW 5261   1.810   1.907   2.363 -0.3856 -0.1916 -0.4275
    1SOL    HW2 5262   1.788   1.899   2.456 -0.6774 -0.5679 -0.5291
    1SOL    HW3 5263   1.890   1.960   2.362  0.5287 -1.5220  0.1537
    1SOL    MW4 5264   1.818   1.913   2.375 -0.3034 -0.4166 -0.3643
    1SOL     OW 5265   2.045   2.019   2.299  0.1152  0.4342  0.0681
    1SOL    HW2 5266   2.123   1.975   2.333 -0.0821 -0.9500 -1.2150
    1SOL    HW3 5267   2.066   2.037   2.208 -1.8359 -1.8958 -0.8892
    1SOL    MW4 5268   2.058   2.015   2.292 -0.1686 -0.0558 -0.2275
    1SOL     OW 5269   2.014   2.292   2.341  0.7781  0.4774  0.0305
    1SOL    HW2 5270   2.087   2.333   2.295  0.5399 -0.7386 -1.4398
    1SOL    HW3 5271   2.023   2.199   2.324 -0.3539  0.1784  0.9675
    1SOL    MW4 5272   2.025   2.285   2.333  0.5975  0.2773 -0.0401
    1SOL     OW 5273   1.800   2.433   2.240 -0.4291 -0.1999  0.0374
    1SOL    HW2 5274   1.863   2.370   2.275 -0.0214  0.3084  0.2279
    1SOL    HW3 5275   1.716   2.408   2.278 -0.3467 -0.9055 -0.2462
    1SOL    MW4 5276   1.797   2.422   2.249 -0.3644 -0.2260  0.0248
    1SOL     OW 5277   1.821   2.688   2.357  0.0776  0.3399  0.3860
    1SOL    HW2 5278   1.809   2.605   2.310  0.5809  0.8773 -0.7124
    1SOL    HW3 5279   1.743   2.739   2.336 -0.6905 -0.2071  1.8401
    1SOL    MW4 5280   1.809   2.684   2.348  0.0428  0.3388  0.4330
    1SOL     OW 5281   2.042   2.816   2.256  0.6908  0.1658  0.4247
    1SOL    HW2 5282   2.124   2.779   2.291  0.6574 -0.7524 -0.4493
    1SOL    HW3 5283   1.973   2.765   2.298  0.6524 -0.9960 -1.0038
    1SOL    MW4 5284   2.044   2.805   2.266  0.6812 -0.1085  0.1206
    1SOL     OW 5285   2.017   3.075   2.314 -0.1424  0.1907 -0.1307
    1SOL    HW2 5286   2.098   3.121   2.292  0.6910 -0.9854  0.4562
    1SOL    HW3 5287   2.030   2.986   2.280 -0.8989 -0.2012  0.5979
    1SOL    MW4 5288   2.030   3.069   2.307 -0.1321 -0.0162  0.0427
    1SOL     OW 5289   1.803   3.248   2.271 -0.1191 -0.2561  0.1602
    1SOL    HW2 5290   1.864   3.178   2.295 -0.0157  0.3073  1.6023
    1SOL    HW3 5291   1.717   3.216   2.298  0.0636  0.5956  1.7999
    1SOL    MW4 5292   1.800   3.235   2.278 -0.0813 -0.0694  0.5667
    1SOL     OW 5293   1.849   3.519   2.371  0.1157 -0.0971 -0.1445
    1SOL    HW2 5294   1.830   3.432   2.334  1.3865 -0.3393 -0.2445
    1SOL    HW3 5295   1.771   3.571   2.350 -0.2707 -0.9577 -0.8961
    1SOL    MW4 5296   1.836   3.514   2.363  0.2323 -0.2425 -0.2568
    1SOL     OW 5297   2.080   3.633   2.258  0.2360 -0.1739  0.0519
    1SOL    HW2 5298   1.995   3.601   2.289  0.9877 -2.2602  0.0556
    1SOL    HW3 5299   2.073   3.631   2.162  0.4168 -0.7658  0.0474
    1SOL    MW4 5300   2.068   3.629   2.249  0.3591 -0.5276  0.0517
    1SOL     OW 5301   2.052   3.867   2.374 -0.0361  0.2063 -0.1452
    1SOL    HW2 5302   2.020   3.846   2.462  0.6165 -0.2612 -0.0170
    1SOL    HW3 5303   2.045   3.785   2.325 -4.5748  1.4593 -1.8622
    1SOL    MW4 5304   2.047   3.854   2.380 -0.5488  0.3099 -0.3548
    1SOL     OW 5305   1.806   3.961   2.240 -0.9370  0.5918 -0.2298
    1SOL    HW2 5306   1.893   3.930   2.267 -1.6554 -0.2646  1.2326
    1SOL    HW3 5307   1.811   3.969   2.145  0.9643  1.2662 -0.0875
    1SOL    MW4 5308   1.818   3.958   2.231 -0.7808  0.5679 -0.0184
    1SOL     OW 5309   1.806   4.209   2.343  0.1707  0.1649  0.3540
    1SOL    HW2 5310   1.803   4.124   2.300  0.7600  0.3262 -0.0101
    1SOL    HW3 5311   1.722   4.250   2.320  1.1509  0.9293 -2.0601
    1SOL    MW4 5312   1.794   4.203   2.334  0.3777  0.2866 -0.0126
    1SOL     OW 5313   2.031   4.395   2.249 -0.7884  0.0449  0.3236
    1SOL    HW2 5314   1.954   4.346   2.281 -1.0082 -0.3263 -0.7383
    1SOL    HW3 5315   2.030   4.380   2.154  0.9413 -0.4506  0.3758
    1SOL    MW4 5316   2.020   4.386   2.240 -0.5891 -0.0691  0.1905
    1SOL     OW 5317   2.506   0.013   2.335  0.1019  0.3700  0.0228
    1SOL    HW2 5318   2.588   0.043   2.296  0.7114 -0.3888  0.7021
    1SOL    HW3 5319   2.507  -0.082   2.324 -0.1243  0.2377  1.0831
    1SOL    MW4 5320   2.517   0.004   2.328  0.1526  0.2527  0.2520
    1SOL     OW 5321   2.237   0.106   2.250  0.0756  0.3166  0.1732
    1SOL    HW2 5322   2.235   0.196   2.283  0.6366 -0.1740  1.6096
    1SOL    HW3 5323   2.319   0.070   2.284  0.0019 -0.6504 -0.6383
    1SOL    MW4 5324   2.248   0.113   2.259  0.1400  0.1243  0.2556
    1SOL     OW 5325   2.242   0.360   2.356  0.1653 -0.2661 -0.0329
    1SOL    HW2 5326   2.167   0.409   2.324 -0.8681 -1.0043  1.2057
    1SOL    HW3 5327   2.318   0.412   2.331 -0.7174  0.1838 -1.8411
    1SOL    MW4 5328   2.243   0.373   2.348 -0.0875 -0.3041 -0.1078
    1SOL     OW 5329   2.463   0.519   2.270  0.1445 -0.1585 -0.1124
    1SOL    HW2 5330   2.526   0.453   2.298  0.4492 -0.3155 -1.1398
    1SOL    HW3 5331   2.470   0.520   2.174 -1.9579 -0.7270 -0.3056
    1SOL    MW4 5332   2.472   0.511   2.261 -0.0927 -0.2543 -0.2732
    1SOL     OW 5333   2.447   0.762   2.394  0.3690 -0.0397 -0.6083
    1SOL    HW2 5334   2.531   0.801   2.370 -0.0168  0.4635 -1.1507
    1SOL    HW3 5335   2.446   0.677   2.349  0.9024 -0.3698 -0.0019
    1SOL    MW4 5336   2.458   0.756   2.385  0.3881 -0.0169 -0.5999
    1SOL     OW 5337   2.244   0.871   2.244 -0.4459 -0.2310 -0.3488
    1SOL    HW2 5338   2.221   0.960   2.271  1.5951  0.7329 -1.7124
    1SOL    HW3 5339   2.313   0.845   2.304 -0.2471 -0.4485 -0.6693
    1SOL    MW4 5340   2.250   0.880   2.255 -0.1502 -0.1325 -0.5710
    1SOL     OW 5341   2.203   1.137   2.352  0.1502 -0.5307 -0.1945
    1SOL    HW2 5342   2.286   1.177   2.326 -0.5036  0.9477 -0.0527
    1SOL    HW3 5343   2.209   1.127   2.447 -0.0457  0.0649 -0.1201
    1SOL    MW4 5344   2.215   1.141   2.361  0.0379 -0.2570 -0.1659
    1SOL     OW 5345   2.451   1.275   2.286 -0.6835 -0.4109 -0.4383
    1SOL    HW2 5346   2.530   1.243   2.330 -0.3562 -0.9580 -1.4197
    1SOL    HW3 5347   2.440   1.364   2.319 -0.6627 -0.9391  1.0525
    1SOL    MW4 5348   2.460   1.283   2.296 -0.6375 -0.5528 -0.3712
    1SOL     OW 5349   2.428   1.533   2.377 -0.2484  0.5149  0.2341
    1SOL    HW2 5350   2.432   1.547   2.472 -1.7179  1.4881  0.1771
    1SOL    HW3 5351   2.510   1.569   2.344 -0.4068  1.6171  0.9935
    1SOL    MW4 5352   2.439   1.540   2.385 -0.4632  0.7888  0.3266
    1SOL     OW 5353   2.232   1.666   2.251 -0.2336 -0.2286 -0.2639
    1SOL    HW2 5354   2.291   1.605   2.295  0.6733  1.4851  0.9375
    1SOL    HW3 5355   2.146   1.647   2.289  0.3989  0.6476  1.6688
    1SOL    MW4 5356   2.228   1.656   2.262 -0.0303  0.1130  0.1495
    1SOL     OW 5357   2.289   1.910   2.390 -0.3957  0.4980 -0.0905
    1SOL    HW2 5358   2.370   1.954   2.365 -0.8087  1.2921 -0.0275
    1SOL    HW3 5359   2.291   1.827   2.341  1.1101 -0.1149  0.9666
    1SOL    MW4 5360   2.300   1.905   2.380 -0.2513  0.5219  0.0572
    1SOL     OW 5361   2.497   2.065   2.281  0.2395 -0.0883  0.0844
    1SOL    HW2 5362   2.583   2.028   2.300  0.9161  0.9314 -0.9043
    1SOL    HW3 5363   2.490   2.062   2.185 -0.7907 -0.0948  0.1502
    1SOL    MW4 5364   2.507   2.060   2.271  0.1926  0.0458 -0.0372
    1SOL     OW 5365   2.434   2.326   2.345  0.8006  0.1526  0.0588
    1SOL    HW2 5366   2.519   2.366   2.328  1.1297 -0.6499 -0.2064
    1SOL    HW3 5367   2.445   2.234   2.320 -0.0479 -0.0282  0.3286
    1SOL    MW4 5368   2.446   2.319   2.339  0.7322  0.0229  0.0594
    1SOL     OW 5369   2.220   2.448   2.225  0.1698 -0.3148 -0.1744
    1SOL    HW2 5370   2.226   2.538   2.258 -0.2006 -0.1955 -0.4286
    1SOL    HW3 5371   2.291   2.402   2.269  0.8595  0.2891 -0.6469
    1SOL    MW4 5372   2.230   2.454   2.235  0.2120 -0.2193 -0.2704
    1SOL     OW 5373   2.269   2.700   2.360 -0.3445  0.4957 -0.1399
    1SOL    HW2 5374   2.273   2.689   2.455  0.3727 -1.8920 -0.4242
    1SOL    HW3 5375   2.351   2.745   2.338  0.2707 -0.4706  0.1785
    1SOL    MW4 5376   2.280   2.705   2.369 -0.1688  0.0534 -0.1354
    1SOL     OW 5377   2.500   2.839   2.278 -0.4731 -0.3412  0.3719
    1SOL    HW2 5378   2.584   2.805   2.309 -0.7862 -1.4682  0.0199
    1SOL    HW3 5379   2.508   2.840   2.183 -0.7951 -0.2793  0.3443
    1SOL    MW4 5380   2.512   2.834   2.270 -0.5569 -0.4816  0.3214
    1SOL     OW 5381   2.485   3.106   2.362  0.1410  0.4618 -0.2647
    1SOL    HW2 5382   2.552   3.143   2.304 -0.6254 -0.0089 -1.4729
    1SOL    HW3 5383   2.488   3.012   2.345  0.4565  0.2130  1.0667
    1SOL    MW4 5384   2.494   3.099   2.352  0.0813  0.3667 -0.2487
    1SOL     OW 5385   2.261   3.213   2.280  0.0033  0.4411  0.2658
    1SOL    HW2 5386   2.249   3.302   2.314 -0.6380 -0.1937  1.7513
    1SOL    HW3 5387   2.347   3.186   2.314  0.3115  0.5863 -0.3954
    1SOL    MW4 5388   2.271   3.221   2.289 -0.0408  0.3765  0.3746
    1SOL     OW 5389   2.278   3.483   2.373  0.3132 -0.1029  0.2420
    1SOL    HW2 5390   2.247   3.482   2.464  0.0416 -0.5925  0.1454
    1SOL    HW3 5391   2.207   3.525   2.324  0.6164  0.4965  0.3096
    1SOL    MW4 5392   2.264   3.488   2.379  0.3173 -0.0885  0.2379
    1SOL     OW 5393   2.501   3.613   2.231  0.2749 -0.3732  0.0394
    1SOL    HW2 5394   2.495   3.700   2.270 -0.1010 -0.5282  0.3292
    1SOL    HW3 5395   2.428   3.564   2.270  0.1868 -0.6693 -0.4997
    1SOL    MW4 5396   2.491   3.618   2.242  0.2136 -0.4330  0.0064
    1SOL     OW 5397   2.467   3.875   2.336 -0.0551  0.1444 -0.1652
    1SOL    HW2 5398   2.462   3.887   2.431 -0.7367  0.1861 -0.2022
    1SOL    HW3 5399   2.388   3.917   2.302  0.8230  1.2578 -0.8698
    1SOL    MW4 5400   2.456   3.882   2.344 -0.0291  0.2966 -0.2630
    1SOL     OW 5401   2.259   4.019   2.239 -0.0186  0.0656  0.7648
    1SOL    HW2 5402   2.263   4.101   2.288  0.9428 -0.3818  1.4351
    1SOL    HW3 5403   2.186   3.971   2.279 -0.6033  0.5922  0.3512
    1SOL    MW4 5404   2.250   4.024   2.251  0.0310  0.0758  0.7989
    1SOL     OW 5405   2.262   4.292   2.356 -0.0348  0.6355  0.5502
    1SOL    HW2 5406   2.233   4.308   2.446  0.5434  0.6593  0.7353
    1SOL    HW3 5407   2.187   4.317   2.302 -0.4144  0.5444  1.0296
    1SOL    MW4 5408   2.248   4.298   2.361 -0.0086  0.6266  0.6378
    1SOL     OW 5409   2.471   4.417   2.230 -0.0029 -0.1224 -0.6395
    1SOL    HW2 5410   2.538   4.360   2.267  0.9244  1.5449  0.2305
    1SOL    HW3 5411   2.389   4.382   2.265  0.5800 -0.7578  0.1144
    1SOL    MW4 5412   2.469   4.405   2.239  0.1965  0.0138 -0.4253
    1SOL     OW 5413   2.935   4.630   2.373  0.0999 -0.3150  0.4306
    1SOL    HW2 5414   3.018   4.667   2.342 -0.5917 -0.3988 -1.5695
    1SOL    HW3 5415   2.932   4.542   2.336 -1.0557 -0.1690  0.1408
    1SOL    MW4 5416   2.946   4.623   2.364 -0.1440 -0.3071  0.1285
    1SOL     OW 5417   2.738   0.113   2.239 -0.0182 -0.4178  0.1100
    1SOL    HW2 5418   2.735   0.195   2.287 -0.4824 -0.1523 -0.3640
    1SOL    HW3 5419   2.804   0.060   2.284  1.2887  0.7337 -0.4081
    1SOL    MW4 5420   2.747   0.116   2.251  0.0930 -0.2309 -0.0207
    1SOL     OW 5421   2.670   0.338   2.370  0.0842  0.3209 -0.0242
    1SOL    HW2 5422   2.669   0.309   2.461 -0.9142  0.0798 -0.1009
    1SOL    HW3 5423   2.728   0.414   2.369  0.6726 -0.1072  0.6691
    1SOL    MW4 5424   2.678   0.344   2.382  0.0300  0.2326  0.0570
    1SOL     OW 5425   2.889   0.511   2.319 -0.1567 -0.4710  0.4086
    1SOL    HW2 5426   2.885   0.605   2.336 -0.9956 -0.3587 -0.3393
    1SOL    HW3 5427   2.907   0.504   2.225  2.2717 -1.0617  0.8861
    1SOL    MW4 5428   2.891   0.522   2.309  0.0532 -0.5341  0.3729
    1SOL     OW 5429   2.915   0.774   2.376 -0.3947  0.0941  0.1130
    1SOL    HW2 5430   2.909   0.763   2.471 -1.1294  0.4664  0.1127
    1SOL    HW3 5431   2.835   0.819   2.352 -0.0528  0.3091 -0.6442
    1SOL    MW4 5432   2.904   0.779   2.386 -0.4466  0.1715  0.0131
    1SOL     OW 5433   2.676   0.886   2.279  0.0201 -0.0431 -0.1564
    1SOL    HW2 5434   2.687   0.977   2.307 -1.9786  0.5262 -1.1759
    1SOL    HW3 5435   2.685   0.889   2.184 -0.5465 -0.8436 -0.2389
    1SOL    MW4 5436   2.679   0.898   2.270 -0.3183 -0.0736 -0.3018
    1SOL     OW 5437   2.676   1.156   2.366 -0.0624 -0.1109  0.0480
    1SOL    HW2 5438   2.693   1.120   2.453 -0.4801 -0.6062 -0.0766
    1SOL    HW3 5439   2.758   1.200   2.342  0.0850 -0.0530  0.6495
    1SOL    MW4 5440   2.689   1.157   2.375 -0.0980 -0.1687  0.1111
    1SOL     OW 5441   2.901   1.283   2.283 -0.5215 -0.1310  0.5446
    1SOL    HW2 5442   2.987   1.242   2.294 -0.6743 -0.2174  1.3961
    1SOL    HW3 5443   2.893   1.295   2.188  1.4817  2.1359  0.6031
    1SOL    MW4 5444   2.911   1.279   2.272 -0.2775  0.1566  0.6647
    1SOL     OW 5445   2.879   1.549   2.375 -0.0133  0.0743  0.3360
    1SOL    HW2 5446   2.887   1.561   2.470  0.6637  1.4232  0.1311
    1SOL    HW3 5447   2.908   1.459   2.359  0.5468  0.0702  1.3440
    1SOL    MW4 5448   2.884   1.539   2.385  0.1500  0.2517  0.4423
    1SOL     OW 5449   2.635   1.660   2.264  0.2267 -0.3661  0.0804
    1SOL    HW2 5450   2.714   1.622   2.302  0.1487 -1.9504 -1.2868
    1SOL    HW3 5451   2.657   1.674   2.172 -0.5032  0.8479  0.0732
    1SOL    MW4 5452   2.648   1.657   2.257  0.1199 -0.4148 -0.1011
    1SOL     OW 5453   2.714   1.908   2.380 -0.0013 -0.4032  0.0996
    1SOL    HW2 5454   2.712   1.895   2.475  0.8590 -1.0426  0.0371
    1SOL    HW3 5455   2.688   1.824   2.343 -0.3767 -0.1433 -0.2351
    1SOL    MW4 5456   2.711   1.895   2.387  0.0629 -0.4531  0.0470
    1SOL     OW 5457   2.922   2.033   2.254 -0.3478 -0.0575  0.4250
    1SOL    HW2 5458   3.005   1.994   2.281 -1.1859 -0.8273  1.9436
    1SOL    HW3 5459   2.855   1.984   2.303 -1.5952  1.6001  0.4185
    1SOL    MW4 5460   2.924   2.021   2.264 -0.6230  0.0596  0.6247
    1SOL     OW 5461   2.892   2.301   2.308 -0.3600 -0.4792 -0.1774
    1SOL    HW2 5462   2.911   2.316   2.401  0.0934  0.3748 -0.3975
    1SOL    HW3 5463   2.928   2.214   2.290  1.4278  0.1991 -0.0413
    1SOL    MW4 5464   2.899   2.291   2.318 -0.0641 -0.2770 -0.1886
    1SOL     OW 5465   2.678   2.458   2.253  0.4833 -0.0797  0.5835
    1SOL    HW2 5466   2.743   2.392   2.276  0.2057 -0.3899  0.4832
    1SOL    HW3 5467   2.684   2.466   2.158  1.2709  0.8291  0.6895
    1SOL    MW4 5468   2.687   2.451   2.243  0.5505 -0.0005  0.5839
    1SOL     OW 5469   2.742   2.709   2.344  0.4514  0.4336 -0.3633
    1SOL    HW2 5470   2.821   2.742   2.300  2.2567 -1.4841  1.3951
    1SOL    HW3 5471   2.735   2.618   2.317 -0.6524  0.3340  0.2237
    1SOL    MW4 5472   2.751   2.702   2.334  0.5441  0.1674 -0.0539
    1SOL     OW 5473   2.967   2.834   2.229  0.0546  0.4003  0.2481
    1SOL    HW2 5474   2.964   2.919   2.273 -0.4612  0.4772  0.0650
    1SOL    HW3 5475   2.968   2.856   2.136  1.3744  0.2444  0.2144
    1SOL    MW4 5476   2.966   2.848   2.223  0.1609  0.3898  0.2193
    1SOL     OW 5477   2.910   3.057   2.363 -0.2721 -0.6459 -0.0068
    1SOL    HW2 5478   2.895   3.068   2.457 -1.2709 -1.3530 -0.0752
    1SOL    HW3 5479   2.833   3.097   2.322  0.2181 -0.2381 -0.5286
    1SOL    MW4 5480   2.898   3.064   2.370 -0.3393 -0.6855 -0.0846
    1SOL     OW 5481   2.708   3.215   2.265 -0.0982 -0.1208  0.0606
    1SOL    HW2 5482   2.703   3.298   2.313 -0.0585 -0.5220  0.7716
    1SOL    HW3 5483   2.708   3.240   2.173 -1.3322  0.6230  0.2424
    1SOL    MW4 5484   2.707   3.229   2.260 -0.2558 -0.0753  0.1783
    1SOL     OW 5485   2.698   3.476   2.366 -0.1824 -0.5241  0.2139
    1SOL    HW2 5486   2.772   3.533   2.344 -0.7136 -0.2108 -0.7956
    1SOL    HW3 5487   2.622   3.521   2.329 -0.9211 -0.7008  1.4949
    1SOL    MW4 5488   2.698   3.489   2.358 -0.3500 -0.5057  0.2499
    1SOL     OW 5489   2.916   3.612   2.280  0.2221  0.1003  0.1155
    1SOL    HW2 5490   2.998   3.578   2.316  1.1193  1.4665 -0.5949
    1SOL    HW3 5491   2.915   3.705   2.304 -1.4922 -0.0752  0.7785
    1SOL    MW4 5492   2.926   3.620   2.288  0.1147  0.2573  0.1094
    1SOL     OW 5493   2.942   3.882   2.338  0.0526 -0.1342  0.1976
    1SOL    HW2 5494   2.935   3.880   2.433  1.1709  2.1248  0.3585
    1SOL    HW3 5495   2.857   3.914   2.308  0.0208  0.0671  0.5056
    1SOL    MW4 5496   2.930   3.886   2.346  0.1957  0.1905  0.2599
    1SOL     OW 5497   2.704   3.980   2.244  0.4516 -0.2559 -0.1404
    1SOL    HW2 5498   2.627   3.953   2.295 -0.4282 -0.2309 -1.4365
    1SOL    HW3 5499   2.680   3.963   2.153  1.0043  2.1030 -0.7796
    1SOL    MW4 5500   2.691   3.974   2.239  0.4086  0.0584 -0.3958
    1SOL     OW 5501   2.678   4.254   2.347 -0.2963 -0.0670 -0.3165
    1SOL    HW2 5502   2.676   4.247   2.443  0.7646  0.0586 -0.2819
    1SOL    HW3 5503   2.693   4.164   2.317  1.0942  0.1554 -0.3015
    1SOL    MW4 5504   2.679   4.241   2.356  0.0272 -0.0210 -0.3102
    1SOL     OW 5505   2.927   4.384   2.259 -0.1321  0.3918  0.1170
    1SOL    HW2 5506   2.999   4.327   2.288 -0.2904 -0.0334 -0.3270
    1SOL    HW3 5507   2.848   4.340   2.289 -0.2616  0.3072 -0.3491
    1SOL    MW4 5508   2.926   4.370   2.267 -0.1702  0.3242 -0.0031
    1SOL     OW 5509   3.364   0.001   2.337  0.3227 -0.1614 -0.3676
    1SOL    HW2 5510   3.358   0.016   2.432 -1.2357  0.6924 -0.5890
    1SOL    HW3 5511   3.442   0.050   2.311  1.2234 -1.0580  0.5989
    1SOL    MW4 5512   3.374   0.010   2.346  0.2360 -0.1669 -0.2692
    1SOL     OW 5513   3.139   0.129   2.250 -0.1076  0.2933  0.3766
    1SOL    HW2 5514   3.143   0.217   2.286  1.7877  0.8805 -1.1717
    1SOL    HW3 5515   3.225   0.091   2.270  0.2700 -0.0365 -1.7966
    1SOL    MW4 5516   3.151   0.135   2.258  0.1922  0.3272 -0.1140
    1SOL     OW 5517   3.122   0.379   2.368  0.1359 -0.0865 -0.3713
    1SOL    HW2 5518   3.194   0.437   2.342 -0.0877  0.9918  1.3321
    1SOL    HW3 5519   3.043   0.433   2.356 -0.1334 -0.2626  0.5891
    1SOL    MW4 5520   3.121   0.394   2.363  0.0710  0.0326 -0.0198
    1SOL     OW 5521   3.360   0.506   2.247 -0.1255 -0.0975  0.1793
    1SOL    HW2 5522   3.439   0.458   2.272  0.0468 -0.5111 -1.1188
    1SOL    HW3 5523   3.362   0.508   2.152 -1.2476  0.6302  0.1569
    1SOL    MW4 5524   3.370   0.500   2.238 -0.2508 -0.0561  0.0050
    1SOL     OW 5525   3.364   0.743   2.369  0.2499  0.2033 -0.3256
    1SOL    HW2 5526   3.440   0.786   2.330  1.0115 -0.3512  0.5347
    1SOL    HW3 5527   3.370   0.653   2.340  0.5492 -0.1015  0.6676
    1SOL    MW4 5528   3.374   0.737   2.360  0.3896  0.0900 -0.0808
    1SOL     OW 5529   3.149   0.873   2.279  0.1527  0.1616 -0.1946
    1SOL    HW2 5530   3.220   0.818   2.313 -0.2333 -0.6700 -0.6944
    1SOL    HW3 5531   3.069   0.826   2.303 -0.1923  0.6034 -0.4705
    1SOL    MW4 5532   3.148   0.859   2.287  0.0563  0.1102 -0.2971
    1SOL     OW 5533   3.138   1.146   2.347 -0.4357  0.3060 -0.3677
    1SOL    HW2 5534   3.205   1.199   2.304 -0.1183  0.0734 -0.1621
    1SOL    HW3 5535   3.149   1.059   2.310  0.8705 -0.2632  1.3265
    1SOL    MW4 5536   3.148   1.142   2.336 -0.2213  0.2000 -0.1171
    1SOL     OW 5537   3.366   1.267   2.215  0.1823 -0.0944  0.1651
    1SOL    HW2 5538   3.451   1.234   2.244  0.6097  2.3347  1.8527
    1SOL    HW3 5539   3.361   1.356   2.251 -2.0225  0.7205 -1.9805
    1SOL    MW4 5540   3.377   1.274   2.224 -0.0520  0.3337  0.1047
    1SOL     OW 5541   3.349   1.543   2.293 -0.3183 -0.4565 -0.3879
    1SOL    HW2 5542   3.340   1.545   2.388 -0.0588 -0.2037 -0.3697
    1SOL    HW3 5543   3.263   1.569   2.260 -0.3032 -0.1931 -0.2196
    1SOL    MW4 5544   3.337   1.547   2.301 -0.2820 -0.3884 -0.3633
    1SOL     OW 5545   3.112   1.660   2.210 -0.2216 -0.3948 -0.5143
    1SOL    HW2 5546   3.137   1.736   2.264 -0.4485 -0.5913 -0.1349
    1SOL    HW3 5547   3.028   1.631   2.246 -0.8073  0.0099 -1.5298
    1SOL    MW4 5548   3.104   1.666   2.222 -0.3285 -0.3674 -0.5982
    1SOL     OW 5549   3.156   1.884   2.363 -0.1480  0.2679  0.2083
    1SOL    HW2 5550   3.132   1.917   2.449 -1.3688  1.5503 -0.5963
    1SOL    HW3 5551   3.231   1.938   2.336  0.9134 -0.8401  0.8969
    1SOL    MW4 5552   3.163   1.895   2.371 -0.1690  0.2910  0.1929
    1SOL     OW 5553   3.366   2.049   2.238 -0.0967 -0.8096  0.4715
    1SOL    HW2 5554   3.442   1.999   2.266  0.9651  0.3420 -0.3275
    1SOL    HW3 5555   3.380   2.064   2.144 -0.5800  0.6584  0.6211
    1SOL    MW4 5556   3.378   2.044   2.229 -0.0200 -0.4642  0.3855
    1SOL     OW 5557   3.342   2.324   2.347  0.1594 -0.2775  0.6605
    1SOL    HW2 5558   3.270   2.369   2.301  1.2066  0.6483 -0.1017
    1SOL    HW3 5559   3.342   2.236   2.309 -1.1299 -0.5590  1.2908
    1SOL    MW4 5560   3.332   2.319   2.336  0.1273 -0.1924  0.6433
    1SOL     OW 5561   3.104   2.427   2.206  0.0462 -0.0447  0.4945
    1SOL    HW2 5562   3.107   2.511   2.252 -1.8105  1.0173 -1.2116
    1SOL    HW3 5563   3.018   2.391   2.228  0.3468 -0.9333  0.2493
    1SOL    MW4 5564   3.093   2.433   2.215 -0.1588 -0.0217  0.2370
    1SOL     OW 5565   3.133   2.656   2.361 -0.0922  0.3089  0.2897
    1SOL    HW2 5566   3.129   2.652   2.456 -0.3061 -0.0141  0.2676
    1SOL    HW3 5567   3.077   2.730   2.337 -2.3535 -1.3711  0.2451
    1SOL    MW4 5568   3.125   2.665   2.370 -0.4189  0.0443  0.2809
    1SOL     OW 5569   3.366   2.795   2.245 -0.0466 -0.1753 -0.2979
    1SOL    HW2 5570   3.333   2.884   2.256 -0.0360 -0.1887 -0.1432
    1SOL    HW3 5571   3.301   2.740   2.290  0.2437 -0.1921  0.1137
    1SOL    MW4 5572   3.353   2.799   2.253 -0.0069 -0.1791 -0.2232
    1SOL     OW 5573   3.332   3.063   2.348  0.1473 -0.8670 -0.1548
    1SOL    HW2 5574   3.403   3.111   2.304 -1.9378  0.4930 -2.1843
    1SOL    HW3 5575   3.254   3.116   2.331 -1.2546 -1.9027  2.7044
    1SOL    MW4 5576   3.331   3.077   2.340 -0.3128 -0.8240 -0.0453
    1SOL     OW 5577   3.109   3.215   2.278  0.1251 -0.1303  0.3110
    1SOL    HW2 5578   3.104   3.286   2.341  0.8686  0.9014 -0.7617
    1SOL    HW3 5579   3.041   3.154   2.304 -0.1128  0.6854  1.6115
    1SOL    MW4 5580   3.099   3.216   2.290  0.1917  0.1135  0.3409
    1SOL     OW 5581   3.151   3.466   2.387  0.1141 -0.3735 -0.0069
    1SOL    HW2 5582   3.169   3.486   2.479 -1.4698  0.3029  0.1747
    1SOL    HW3 5583   3.222   3.509   2.338 -0.2945  1.1981  0.7500
    1SOL    MW4 5584   3.163   3.474   2.392 -0.1490 -0.0768  0.1166
    1SOL     OW 5585   3.349   3.604   2.262  0.3569 -0.2246 -0.1017
    1SOL    HW2 5586   3.435   3.577   2.296  0.1150 -1.1154 -0.1962
    1SOL    HW3 5587   3.360   3.606   2.167  0.3642 -0.0077 -0.0972
    1SOL    MW4 5588   3.362   3.601   2.254  0.3259 -0.3133 -0.1137
    1SOL     OW 5589   3.399   3.849   2.366  0.4366  0.4575 -0.1383
    1SOL    HW2 5590   3.458   3.908   2.319  0.5834  0.1689 -0.3178
    1SOL    HW3 5591   3.397   3.770   2.313 -0.6101  0.6910 -0.4498
    1SOL    MW4 5592   3.407   3.846   2.353  0.3178  0.4501 -0.2031
    1SOL     OW 5593   3.178   4.008   2.276  0.0704 -0.0400  0.2185
    1SOL    HW2 5594   3.243   3.942   2.298  0.6053  0.7105  0.9193
    1SOL    HW3 5595   3.094   3.966   2.293  0.4393 -0.0977  1.9416
    1SOL    MW4 5596   3.176   3.994   2.281  0.1895  0.0513  0.5386
    1SOL     OW 5597   3.154   4.260   2.360 -0.3528 -0.1548  0.0336
    1SOL    HW2 5598   3.220   4.315   2.318 -1.7617  1.0750 -0.6435
    1SOL    HW3 5599   3.168   4.173   2.323  0.4860  0.2290 -0.5733
    1SOL    MW4 5600   3.165   4.256   2.350 -0.4282  0.0591 -0.1357
    1SOL     OW 5601   3.374   4.402   2.254 -0.1774  0.1792 -0.0658
    1SOL    HW2 5602   3.382   4.491   2.289  1.6293 -0.3829  1.0252
    1SOL    HW3 5603   3.377   4.414   2.159  2.8977  1.1168  0.0648
    1SOL    MW4 5604   3.376   4.415   2.246  0.4666  0.2294  0.0951
    1SOL     OW 5605   3.802   4.664   2.356 -0.3829 -0.0738  0.4172
    1SOL    HW2 5606   3.807   4.658   2.451  0.1153 -0.4696  0.3674
    1SOL    HW3 5607   3.888   4.698   2.330 -0.7872  0.7627  0.1684
    1SOL    MW4 5608   3.814   4.668   2.365 -0.3703 -0.0153  0.3777
    1SOL     OW 5609   3.600   0.134   2.236 -0.0257  0.3769 -0.3355
    1SOL    HW2 5610   3.598   0.219   2.280  0.3582  0.1046  0.2086
    1SOL    HW3 5611   3.661   0.082   2.287 -1.6869 -0.8358  0.4414
    1SOL    MW4 5612   3.608   0.138   2.248 -0.1941  0.1810 -0.1614
    1SOL     OW 5613   3.592   0.387   2.369  0.3774  0.0366 -0.0526
    1SOL    HW2 5614   3.595   0.401   2.463 -2.2476  0.1949  0.0506
    1SOL    HW3 5615   3.671   0.429   2.335  1.0502  0.4634  2.0150
    1SOL    MW4 5616   3.602   0.395   2.377  0.1197  0.1138  0.2337
    1SOL     OW 5617   3.831   0.487   2.254 -0.5371  0.7042  0.0358
    1SOL    HW2 5618   3.828   0.580   2.276  0.7938  0.6450  0.4710
    1SOL    HW3 5619   3.843   0.486   2.159  1.7658  1.0013  0.3035
    1SOL    MW4 5620   3.832   0.500   2.244 -0.0575  0.7356  0.1285
    1SOL     OW 5621   3.824   0.751   2.358 -0.0509  0.4988 -0.0048
    1SOL    HW2 5622   3.841   0.755   2.452  0.2224  0.8871 -0.0691
    1SOL    HW3 5623   3.903   0.786   2.318  0.7007 -1.6612 -0.4721
    1SOL    MW4 5624   3.837   0.756   2.365  0.0844  0.2649 -0.0744
    1SOL     OW 5625   3.595   0.885   2.267 -0.2665 -0.3632 -0.4500
    1SOL    HW2 5626   3.665   0.835   2.310 -0.8037 -0.5892  0.1696
    1SOL    HW3 5627   3.610   0.870   2.174  0.6945 -0.1586 -0.3398
    1SOL    MW4 5628   3.606   0.876   2.260 -0.2105 -0.3660 -0.3536
    1SOL     OW 5629   3.589   1.148   2.326  0.3700 -0.1902  0.6260
    1SOL    HW2 5630   3.594   1.149   2.422  0.1769  0.4499  0.6340
    1SOL    HW3 5631   3.584   1.056   2.303 -2.0894 -0.2951  1.3863
    1SOL    MW4 5632   3.589   1.136   2.336  0.0200 -0.1196  0.7274
    1SOL     OW 5633   3.823   1.269   2.226  0.0636  0.4878  0.1603
    1SOL    HW2 5634   3.826   1.360   2.256  0.0641  1.1909 -1.8810
    1SOL    HW3 5635   3.745   1.233   2.269  0.3271  1.3212  1.3517
    1SOL    MW4 5636   3.813   1.277   2.235  0.0987  0.6903  0.0484
    1SOL     OW 5637   3.807   1.532   2.294 -0.3878  0.1567 -0.4465
    1SOL    HW2 5638   3.797   1.550   2.387 -0.9488 -0.5919 -0.3546
    1SOL    HW3 5639   3.741   1.586   2.251 -0.6822 -0.1192 -0.3416
    1SOL    MW4 5640   3.797   1.541   2.301 -0.5007  0.0217 -0.4203
    1SOL     OW 5641   3.590   1.653   2.185  0.0976  0.3772  0.1493
    1SOL    HW2 5642   3.511   1.612   2.220 -0.8605  1.6310 -0.5107
    1SOL    HW3 5643   3.577   1.652   2.090  1.1366  0.0840  0.0037
    1SOL    MW4 5644   3.578   1.647   2.177  0.1082  0.5038  0.0432
    1SOL     OW 5645   3.576   1.904   2.339 -0.1569  0.0646  0.1124
    1SOL    HW2 5646   3.645   1.960   2.303 -0.1988 -0.1580 -0.3162
    1SOL    HW3 5647   3.589   1.819   2.296  0.3587 -0.4707  1.2937
    1SOL    MW4 5648   3.587   1.900   2.328 -0.0944 -0.0354  0.2120
    1SOL     OW 5649   3.763   2.063   2.202 -0.2951 -0.3367 -0.2848
    1SOL    HW2 5650   3.848   2.030   2.230  0.0749  0.7781 -0.0283
    1SOL    HW3 5651   3.767   2.064   2.107  0.7840  1.6458 -0.2580
    1SOL    MW4 5652   3.775   2.059   2.193 -0.1040  0.0720 -0.2472
    1SOL     OW 5653   3.795   2.293   2.355  0.0913  0.1303 -0.1540
    1SOL    HW2 5654   3.718   2.337   2.319 -1.0586 -0.4833  1.4906
    1SOL    HW3 5655   3.791   2.204   2.319  0.1844  0.1699 -0.2653
    1SOL    MW4 5656   3.784   2.287   2.345 -0.0482  0.0544  0.0484
    1SOL     OW 5657   3.568   2.429   2.231  0.2889  0.0713  0.1492
    1SOL    HW2 5658   3.493   2.378   2.260  0.1448  0.8160  1.1227
    1SOL    HW3 5659   3.574   2.413   2.137 -0.6784 -0.5186  0.1891
    1SOL    MW4 5660   3.559   2.420   2.222  0.1421  0.0920  0.2830
    1SOL     OW 5661   3.572   2.661   2.359 -0.3825  0.1251  0.3175
    1SOL    HW2 5662   3.563   2.583   2.304 -1.1578  0.7418 -0.4574
    1SOL    HW3 5663   3.505   2.721   2.326  1.8999  2.1517 -0.8460
    1SOL    MW4 5664   3.562   2.659   2.348 -0.1836  0.4737  0.0618
    1SOL     OW 5665   3.771   2.813   2.240  0.0665 -0.2627  0.4715
    1SOL    HW2 5666   3.765   2.903   2.271  0.2486 -0.4913  1.1835
    1SOL    HW3 5667   3.699   2.767   2.284 -0.2491 -0.3832 -0.1717
    1SOL    MW4 5668   3.761   2.818   2.250  0.0489 -0.3088  0.4807
    1SOL     OW 5669   3.772   3.110   2.320 -0.4588  0.1174 -0.2316
    1SOL    HW2 5670   3.777   3.110   2.415  0.5861 -1.8525 -0.2596
    1SOL    HW3 5671   3.855   3.147   2.291 -0.9026  1.0099 -0.3881
    1SOL    MW4 5672   3.783   3.115   2.329 -0.3798 -0.0248 -0.2556
    1SOL     OW 5673   3.523   3.220   2.244 -0.4556  0.2645 -0.3099
    1SOL    HW2 5674   3.526   3.310   2.277  0.5040  0.2456 -0.3074
    1SOL    HW3 5675   3.607   3.182   2.271 -0.5482 -0.4054 -0.9422
    1SOL    MW4 5676   3.535   3.227   2.252 -0.3412  0.1736 -0.3932
    1SOL     OW 5677   3.598   3.469   2.331 -0.2572  0.3682 -0.0621
    1SOL    HW2 5678   3.599   3.481   2.426 -0.0002  1.3954 -0.1898
    1SOL    HW3 5679   3.679   3.509   2.301  0.4130 -1.3157 -0.5671
    1SOL    MW4 5680   3.609   3.476   2.340 -0.1349  0.2816 -0.1457
    1SOL     OW 5681   3.805   3.629   2.233 -0.3425  0.0915 -0.2104
    1SOL    HW2 5682   3.830   3.717   2.263  1.2128 -0.8244  1.2768
    1SOL    HW3 5683   3.825   3.629   2.140  0.2323  1.1267 -0.0965
    1SOL    MW4 5684   3.811   3.641   2.225 -0.0613  0.1070  0.0007
    1SOL     OW 5685   3.803   3.892   2.332  0.1143 -0.1860  0.5438
    1SOL    HW2 5686   3.805   3.895   2.428 -1.5678  2.4195  0.5437
    1SOL    HW3 5687   3.880   3.941   2.305  0.6550 -1.0247  0.5612
    1SOL    MW4 5688   3.813   3.899   2.341 -0.0362  0.0470  0.5462
    1SOL     OW 5689   3.567   4.010   2.232  0.1588 -0.1480  0.0000
    1SOL    HW2 5690   3.562   4.092   2.282  0.2430  0.4657 -0.9899
    1SOL    HW3 5691   3.652   3.973   2.258  0.0314 -0.0316  0.6063
    1SOL    MW4 5692   3.578   4.016   2.242  0.1531 -0.0515 -0.0508
    1SOL     OW 5693   3.577   4.272   2.378  0.0278 -0.1222 -0.2039
    1SOL    HW2 5694   3.655   4.322   2.353  0.7549 -0.9260  0.3729
    1SOL    HW3 5695   3.503   4.321   2.342  0.6869  1.5768  0.7083
    1SOL    MW4 5696   3.578   4.285   2.370  0.2110 -0.0043 -0.0074
    1SOL     OW 5697   3.800   4.385   2.286  0.8018 -0.1239 -0.1085
    1SOL    HW2 5698   3.880   4.344   2.319  1.1459 -0.8802 -1.8482
    1SOL    HW3 5699   3.817   4.479   2.291  1.4649 -0.2647  0.3417
    1SOL    MW4 5700   3.813   4.392   2.291  0.9348 -0.2427 -0.2785
    1SOL     OW 5701   4.256   4.655   2.390  0.2310 -0.2087  0.3192
    1SOL    HW2 5702   4.242   4.645   2.484 -1.6528  0.1511  0.0926
    1SOL    HW3 5703   4.345   4.689   2.383 -0.4091  2.0202  2.1321
    1SOL    MW4 5704   4.266   4.659   2.401 -0.1016  0.1330  0.5288
    1SOL     OW 5705   4.051   0.122   2.257 -0.5020 -0.0150  0.1540
    1SOL    HW2 5706   4.049   0.212   2.289 -0.5395 -0.3184  1.0200
    1SOL    HW3 5707   4.123   0.081   2.305  0.8217  0.0923 -1.6959
    1SOL    MW4 5708   4.060   0.128   2.267 -0.3324 -0.0409  0.0243
    1SOL     OW 5709   4.025   0.363   2.389  0.1207 -0.0065  0.4299
    1SOL    HW2 5710   4.103   0.412   2.363  0.5565 -1.0031 -0.1619
    1SOL    HW3 5711   3.952   0.411   2.349  0.6312 -0.4224 -1.0395
    1SOL    MW4 5712   4.026   0.376   2.381  0.2460 -0.1929  0.1583
    1SOL     OW 5713   4.263   0.481   2.298  0.1591  0.0270  0.4354
    1SOL    HW2 5714   4.251   0.572   2.325 -2.2361 -0.6664  1.9288
    1SOL    HW3 5715   4.340   0.451   2.346 -0.6766  0.4885  2.0936
    1SOL    MW4 5716   4.271   0.489   2.308 -0.2675 -0.0036  0.8512
    1SOL     OW 5717   4.256   0.748   2.373 -0.2726  0.5162 -0.6192
    1SOL    HW2 5718   4.179   0.783   2.328 -0.8862  2.6583  1.9870
    1SOL    HW3 5719   4.329   0.800   2.338 -0.3758  0.3817 -1.0415
    1SOL    MW4 5720   4.255   0.760   2.362 -0.3672  0.7811 -0.3312
    1SOL     OW 5721   4.034   0.863   2.256  0.1295  0.2298 -0.1196
    1SOL    HW2 5722   4.031   0.945   2.306 -1.3188 -0.0561  0.3050
    1SOL    HW3 5723   4.034   0.890   2.165 -0.5100  0.7040  0.0174
    1SOL    MW4 5724   4.033   0.878   2.251 -0.1459  0.2546 -0.0455
    1SOL     OW 5725   4.044   1.142   2.359 -0.1516  0.3376  0.0524
    1SOL    HW2 5726   4.047   1.165   2.451 -0.0507  0.0768  0.1124
    1SOL    HW3 5727   3.967   1.189   2.325 -0.3625  0.1942  0.3319
    1SOL    MW4 5728   4.034   1.151   2.366 -0.1659  0.2843  0.0973
    1SOL     OW 5729   4.269   1.286   2.242  0.6617  0.2414  0.1918
    1SOL    HW2 5730   4.191   1.251   2.285  1.1944  1.0175  1.8608
    1SOL    HW3 5731   4.342   1.245   2.289  1.2710  0.2456 -0.7325
    1SOL    MW4 5732   4.269   1.276   2.254  0.8116  0.3444  0.2902
    1SOL     OW 5733   4.260   1.547   2.337  0.0247  0.3480  0.1405
    1SOL    HW2 5734   4.267   1.457   2.307 -1.2084  0.4240 -0.3967
    1SOL    HW3 5735   4.337   1.590   2.301  0.2963 -0.3451 -0.1106
    1SOL    MW4 5736   4.271   1.541   2.328 -0.1020  0.2666  0.0365
    1SOL     OW 5737   4.033   1.689   2.247 -0.1720  0.4126  0.4020
    1SOL    HW2 5738   4.108   1.638   2.278 -1.0159  0.2633  2.2687
    1SOL    HW3 5739   3.957   1.636   2.270 -0.8436  0.4034 -1.7991
    1SOL    MW4 5740   4.033   1.675   2.254 -0.3715  0.3917  0.3579
    1SOL     OW 5741   3.987   1.940   2.311 -0.2006 -0.2946 -0.3882
    1SOL    HW2 5742   3.994   1.933   2.406 -0.8551 -0.2608 -0.3316
    1SOL    HW3 5743   3.998   1.850   2.279 -0.4846 -0.3814 -0.2428
    1SOL    MW4 5744   3.989   1.927   2.319 -0.3245 -0.3016 -0.3617
    1SOL     OW 5745   4.242   2.037   2.236  0.7100 -0.1831  0.1429
    1SOL    HW2 5746   4.253   2.127   2.268 -0.1736 -0.3657  0.9620
    1SOL    HW3 5747   4.151   2.016   2.254  0.7056 -0.9696 -0.7826
    1SOL    MW4 5748   4.232   2.046   2.243  0.5932 -0.3109  0.1290
    1SOL     OW 5749   4.274   2.281   2.379  0.1616  0.0672  0.4659
    1SOL    HW2 5750   4.196   2.330   2.353 -0.1473  0.1820  1.6108
    1SOL    HW3 5751   4.346   2.328   2.336 -0.3944 -0.1231 -0.7109
    1SOL    MW4 5752   4.273   2.294   2.370  0.0472  0.0572  0.4616
    1SOL     OW 5753   4.036   2.420   2.278 -0.1736 -0.1486 -0.7070
    1SOL    HW2 5754   4.023   2.514   2.294  1.0383 -0.0327 -0.3776
    1SOL    HW3 5755   3.955   2.380   2.309 -0.4703  0.7281 -0.3115
    1SOL    MW4 5756   4.024   2.427   2.284 -0.0525 -0.0179 -0.6111
    1SOL     OW 5757   4.026   2.683   2.342  0.2563  0.5628 -0.1661
    1SOL    HW2 5758   4.022   2.692   2.437  0.2471 -0.7023 -0.0335
    1SOL    HW3 5759   3.950   2.733   2.310 -0.1933  0.3455  0.5415
    1SOL    MW4 5760   4.015   2.691   2.351  0.1960  0.3674 -0.0548
    1SOL     OW 5761   4.232   2.825   2.218 -0.1868 -0.3467 -0.0093
    1SOL    HW2 5762   4.158   2.791   2.269  0.1314 -1.5693 -0.3470
    1SOL    HW3 5763   4.307   2.773   2.247  0.1838 -0.3807 -1.0166
    1SOL    MW4 5764   4.232   2.813   2.228 -0.0963 -0.5124 -0.1867
    1SOL     OW 5765   4.219   3.079   2.329  0.2267 -0.1011  0.4979
    1SOL    HW2 5766   4.224   3.008   2.265 -1.9621  0.8112 -0.7244
    1SOL    HW3 5767   4.297   3.132   2.311 -0.1109 -0.1236 -1.1024
    1SOL    MW4 5768   4.230   3.076   2.318 -0.1073  0.0162  0.1254
    1SOL     OW 5769   3.997   3.247   2.284  0.2506  0.2025 -0.5051
    1SOL    HW2 5770   4.024   3.335   2.309  0.4233 -0.7205  2.7102
    1SOL    HW3 5771   4.075   3.193   2.300 -0.0198 -0.6349 -1.9481
    1SOL    MW4 5772   4.011   3.251   2.289  0.2379 -0.0296 -0.2713
    1SOL     OW 5773   4.021   3.513   2.358  0.1263  0.5314  0.1609
    1SOL    HW2 5774   4.098   3.557   2.321  0.7214 -0.7487 -0.1564
    1SOL    HW3 5775   3.947   3.558   2.317  0.7062  1.5803  0.2383
    1SOL    MW4 5776   4.022   3.525   2.347  0.2809  0.5007  0.1292
    1SOL     OW 5777   4.264   3.640   2.262  0.0446  0.2072 -0.5314
    1SOL    HW2 5778   4.236   3.725   2.297 -0.6463  0.3676 -1.4396
    1SOL    HW3 5779   4.268   3.654   2.167  0.9633 -0.4833 -0.6049
    1SOL    MW4 5780   4.261   3.653   2.254  0.0744  0.1373 -0.6609
    1SOL     OW 5781   4.240   3.930   2.358  0.0352  0.2080  0.4219
    1SOL    HW2 5782   4.249   3.902   2.449 -0.3221 -0.4349  0.2667
    1SOL    HW3 5783   4.323   3.971   2.336  0.6560 -0.9520  0.5895
    1SOL    MW4 5784   4.252   3.932   2.367  0.0701 -0.0300  0.4237
    1SOL     OW 5785   4.026   4.032   2.215  0.2650 -0.3176  0.1509
    1SOL    HW2 5786   4.104   3.990   2.250  1.6694  2.1927  0.1344
    1SOL    HW3 5787   4.029   4.015   2.121 -0.5968 -2.3816  0.4655
    1SOL    MW4 5788   4.037   4.024   2.207  0.3371 -0.2589  0.1905
    1SOL     OW 5789   4.021   4.250   2.378  0.5280  0.3492  0.2057
    1SOL    HW2 5790   4.097   4.299   2.346  0.7710 -0.2560 -0.1414
    1SOL    HW3 5791   4.018   4.171   2.325  1.6733 -1.2906  2.4818
    1SOL    MW4 5792   4.031   4.246   2.367  0.7114  0.0529  0.4604
    1SOL     OW 5793   4.244   4.398   2.267 -0.0684 -0.0128  0.1675
    1SOL    HW2 5794   4.254   4.489   2.296  0.2400  0.4641 -1.4372
    1SOL    HW3 5795   4.328   4.357   2.290  0.7102  0.7190 -1.2981
    1SOL    MW4 5796   4.257   4.404   2.274  0.0744  0.1469 -0.2377
    1SOL     OW 5797   0.214   4.653   2.647 -0.0563  0.4325  0.1498
    1SOL    HW2 5798   0.211   4.564   2.682  0.0559  0.5618  0.4872
    1SOL    HW3 5799   0.135   4.695   2.681 -0.3976  0.2960 -0.4607
    1SOL    MW4 5800   0.203   4.647   2.656 -0.0865  0.4315  0.1135
    1SOL     OW 5801   4.483   0.096   2.783 -0.4339 -0.0828 -0.1977
    1SOL    HW2 5802   4.474   0.107   2.878  0.6864  0.0229 -0.1043
    1SOL    HW3 5803   4.480   0.186   2.749  0.3278 -0.0437 -0.1614
    1SOL    MW4 5804   4.481   0.110   2.791 -0.1856 -0.0637 -0.1807
    1SOL     OW 5805   4.469   0.355   2.689  0.2089 -0.4535 -0.0321
    1SOL    HW2 5806   4.531   0.415   2.729  1.6498 -2.1485  0.3815
    1SOL    HW3 5807   4.486   0.361   2.595  0.4670 -0.3363  0.0226
    1SOL    MW4 5808   4.479   0.363   2.682  0.4330 -0.6616  0.0296
    1SOL     OW 5809   0.171   0.519   2.781 -0.4053  0.0225 -0.1872
    1SOL    HW2 5810   0.158   0.509   2.875 -0.0203 -0.0803 -0.1452
    1SOL    HW3 5811   0.243   0.460   2.760 -1.0100 -0.5490 -0.6801
    1SOL    MW4 5812   0.179   0.510   2.791 -0.4343 -0.0664 -0.2468
    1SOL     OW 5813   0.222   0.776   2.671 -0.0878  0.3853 -0.4337
    1SOL    HW2 5814   0.295   0.810   2.721 -0.1470  1.1177 -0.8367
    1SOL    HW3 5815   0.200   0.692   2.712  1.5283 -0.2467 -0.8448
    1SOL    MW4 5816   0.228   0.769   2.683  0.1176  0.3986 -0.5412
    1SOL     OW 5817   4.476   0.902   2.737 -0.0381 -0.0844 -0.3761
    1SOL    HW2 5818   4.407   0.844   2.706 -0.5525  0.2271  0.1770
    1SOL    HW3 5819   4.557   0.860   2.708 -0.4347 -0.7184 -0.5824
    1SOL    MW4 5820   4.478   0.889   2.729 -0.1583 -0.1269 -0.3302
    1SOL     OW 5821   0.012   1.157   2.628 -0.1346 -0.2660 -0.6204
    1SOL    HW2 5822   0.101   1.186   2.650 -1.0506  1.6550  0.7610
    1SOL    HW3 5823   0.004   1.071   2.669  0.3997  0.4661  1.0741
    1SOL    MW4 5824   0.023   1.149   2.636 -0.1845  0.0842 -0.2146
    1SOL     OW 5825   0.225   1.293   2.741  0.3266 -0.0590  0.1528
    1SOL    HW2 5826   0.311   1.255   2.724  0.0986  0.0645 -1.3707
    1SOL    HW3 5827   0.223   1.373   2.689 -0.9713 -0.4395 -0.4167
    1SOL    MW4 5828   0.236   1.299   2.732  0.1253 -0.0930 -0.1235
    1SOL     OW 5829   0.194   1.527   2.589 -0.0440  0.1468  0.8485
    1SOL    HW2 5830   0.273   1.569   2.621 -1.2455  1.2612  2.4021
    1SOL    HW3 5831   0.122   1.578   2.625 -1.5046 -1.3496  0.1647
    1SOL    MW4 5832   0.195   1.539   2.598 -0.3952  0.0964  0.9634
    1SOL     OW 5833   4.489   1.663   2.713 -0.0786  0.3465  0.1149
    1SOL    HW2 5834   4.489   1.658   2.809 -0.8155 -0.0673  0.0954
    1SOL    HW3 5835   4.492   1.757   2.694 -2.3897  0.5430  0.5651
    1SOL    MW4 5836   4.489   1.675   2.723 -0.4807  0.3178  0.1717
    1SOL     OW 5837   0.033   1.933   2.644 -0.2949  0.4926 -0.4270
    1SOL    HW2 5838   0.120   1.966   2.666 -0.0595  0.0253 -0.6425
    1SOL    HW3 5839   0.023   1.952   2.550 -0.4481  0.5949 -0.3911
    1SOL    MW4 5840   0.043   1.940   2.634 -0.2841  0.4444 -0.4506
    1SOL     OW 5841   0.260   2.058   2.723 -0.0221  0.0327  0.0443
    1SOL    HW2 5842   0.345   2.022   2.697 -0.2251 -0.0141 -0.5564
    1SOL    HW3 5843   0.262   2.149   2.695  0.6969  0.6615  2.0441
    1SOL    MW4 5844   0.271   2.065   2.716  0.0460  0.1094  0.2289
    1SOL     OW 5845   0.230   2.322   2.640  0.3579 -0.1162  0.6940
    1SOL    HW2 5846   0.301   2.378   2.672 -0.2005  0.6870  0.5377
    1SOL    HW3 5847   0.152   2.353   2.687 -0.1250 -0.1455 -0.0806
    1SOL    MW4 5848   0.229   2.333   2.650  0.2206 -0.0141  0.5713
    1SOL     OW 5849   0.015   2.429   2.774 -0.4842  0.0289 -0.4700
    1SOL    HW2 5850  -0.001   2.442   2.867 -0.6142  0.8613 -0.6039
    1SOL    HW3 5851  -0.062   2.383   2.742 -1.4344  1.6647 -0.5886
    1SOL    MW4 5852   0.003   2.424   2.782 -0.6267  0.3543 -0.5033
    1SOL     OW 5853   4.484   2.666   2.625 -0.0101  0.1091  0.4312
    1SOL    HW2 5854   4.408   2.713   2.657 -0.9477 -0.8703 -0.3059
    1SOL    HW3 5855   4.484   2.584   2.674  0.6479  0.1560  0.5176
    1SOL    MW4 5856   4.474   2.661   2.635 -0.0472 -0.0141  0.3455
    1SOL     OW 5857   0.187   2.854   2.752 -0.1729 -0.1206  0.0414
    1SOL    HW2 5858   0.170   2.938   2.708 -0.7833 -0.8694 -1.1762
    1SOL    HW3 5859   0.116   2.797   2.724  0.8611 -1.3995 -0.0516
    1SOL    MW4 5860   0.176   2.858   2.743 -0.1170 -0.3884 -0.1316
    1SOL     OW 5861   0.185   3.101   2.625 -0.4807  0.5275  0.2344
    1SOL    HW2 5862   0.265   3.137   2.662 -0.7694  0.2540  1.1542
    1SOL    HW3 5863   0.192   3.118   2.531  0.3422  1.0969  0.3895
    1SOL    MW4 5864   0.196   3.108   2.617 -0.4102  0.5662  0.3765
    1SOL     OW 5865   4.453   3.242   2.741 -0.1081 -0.1616 -0.3298
    1SOL    HW2 5866   4.377   3.198   2.705 -1.4837  0.8548  1.2737
    1SOL    HW3 5867   4.528   3.194   2.705 -1.5134 -1.9135 -0.9724
    1SOL    MW4 5868   4.453   3.230   2.732 -0.4749 -0.2584 -0.2034
    1SOL     OW 5869   4.451   3.495   2.629  0.3538  0.1033 -0.2469
    1SOL    HW2 5870   4.532   3.531   2.665  1.3709 -0.2543 -2.0904
    1SOL    HW3 5871   4.444   3.407   2.666  0.2365  0.5295  0.7494
    1SOL    MW4 5872   4.461   3.488   2.638  0.4730  0.1123 -0.3591
    1SOL     OW 5873   0.189   3.607   2.772 -0.6137 -0.3851  0.5007
    1SOL    HW2 5874   0.206   3.610   2.866  0.6988 -1.5362  0.3049
    1SOL    HW3 5875   0.268   3.570   2.734  0.0868  2.8564 -1.3932
    1SOL    MW4 5876   0.201   3.603   2.779 -0.3482 -0.1094  0.2251
    1SOL     OW 5877   0.204   3.886   2.672  0.4164  0.1273  0.0694
    1SOL    HW2 5878   0.208   3.796   2.702 -1.3658  0.4799  1.4757
    1SOL    HW3 5879   0.202   3.880   2.576 -0.7415 -1.3872  0.1715
    1SOL    MW4 5880   0.204   3.874   2.663  0.0284 -0.0257  0.2682
    1SOL     OW 5881   4.460   4.018   2.793 -0.0043 -0.4925  0.0123
    1SOL    HW2 5882   4.456   4.098   2.739 -1.4875 -0.9204 -0.5423
    1SOL    HW3 5883   4.538   3.973   2.762  0.8846  0.7640  0.3671
    1SOL    MW4 5884   4.470   4.023   2.782 -0.0830 -0.3834 -0.0141
    1SOL     OW 5885   4.437   4.244   2.607  0.5384 -0.1475  0.1727
    1SOL    HW2 5886   4.367   4.285   2.658  0.9287  0.8143 -0.0471
    1SOL    HW3 5887   4.517   4.287   2.638  0.9475 -0.7105 -0.1039
    1SOL    MW4 5888   4.439   4.255   2.618  0.6442 -0.0949  0.1070
    1SOL     OW 5889   0.174   4.377   2.720 -0.3826 -0.2754 -0.6751
    1SOL    HW2 5890   0.167   4.374   2.816  0.1181  0.2284 -0.6146
    1SOL    HW3 5891   0.257   4.334   2.701 -0.1202  0.2877 -0.8235
    1SOL    MW4 5892   0.184   4.371   2.730 -0.2819 -0.1345 -0.6864
    1SOL     OW 5893   0.677   4.626   2.625  0.0339  0.3420 -0.4066
    1SOL    HW2 5894   0.758   4.668   2.656 -0.1827  1.9539 -1.9352
    1SOL    HW3 5895   0.607   4.680   2.661 -0.3370 -0.4923  0.1176
    1SOL    MW4 5896   0.679   4.639   2.634 -0.0436  0.4439 -0.5391
    1SOL     OW 5897   0.450   0.100   2.715 -0.1327 -0.3588 -0.1663
    1SOL    HW2 5898   0.454   0.098   2.810 -0.4544 -3.0522 -0.1748
    1SOL    HW3 5899   0.366   0.058   2.694  0.3422 -0.5827 -1.6621
    1SOL    MW4 5900   0.439   0.094   2.725 -0.1124 -0.7437 -0.3648
    1SOL     OW 5901   0.401   0.375   2.688  0.0472 -0.5121 -0.2754
    1SOL    HW2 5902   0.489   0.412   2.696 -0.0497 -0.8758  2.9884
    1SOL    HW3 5903   0.412   0.283   2.710 -1.2396 -0.4640  0.5941
    1SOL    MW4 5904   0.414   0.368   2.692 -0.1354 -0.5538  0.2699
    1SOL     OW 5905   0.649   0.486   2.742 -0.1875  0.0541 -0.1282
    1SOL    HW2 5906   0.660   0.484   2.837  0.3024 -1.2364 -0.2055
    1SOL    HW3 5907   0.725   0.439   2.708  0.1661  1.3786 -1.2148
    1SOL    MW4 5908   0.660   0.479   2.750 -0.0762  0.0586 -0.2820
    1SOL     OW 5909   0.661   0.765   2.651 -0.3480 -0.1330  0.3614
    1SOL    HW2 5910   0.737   0.803   2.697 -1.1081 -0.3673  1.8536
    1SOL    HW3 5911   0.663   0.672   2.674 -1.3529 -0.0551  0.7989
    1SOL    MW4 5912   0.671   0.758   2.661 -0.5808 -0.1535  0.6158
    1SOL     OW 5913   0.453   0.909   2.774 -0.1062 -0.5695  0.1494
    1SOL    HW2 5914   0.464   0.917   2.868  1.4269 -0.8622  0.0057
    1SOL    HW3 5915   0.526   0.855   2.745  0.5919  1.1708 -1.4662
    1SOL    MW4 5916   0.464   0.903   2.782  0.1882 -0.3785 -0.0825
    1SOL     OW 5917   0.454   1.158   2.626 -0.2263  0.3725 -0.2380
    1SOL    HW2 5918   0.534   1.200   2.658 -1.2329  1.5160  0.8336
    1SOL    HW3 5919   0.457   1.070   2.663  0.3761  0.5126  0.0605
    1SOL    MW4 5920   0.465   1.152   2.635 -0.2796  0.5419 -0.0572
    1SOL     OW 5921   0.694   1.262   2.730  0.2729 -0.2926 -0.3586
    1SOL    HW2 5922   0.695   1.267   2.825  0.3264 -0.9176 -0.3250
    1SOL    HW3 5923   0.767   1.204   2.707  0.9709  0.7521 -0.8420
    1SOL    MW4 5924   0.704   1.255   2.739  0.3721 -0.2372 -0.4182
    1SOL     OW 5925   0.678   1.527   2.636 -0.4988 -0.1532 -0.6743
    1SOL    HW2 5926   0.600   1.568   2.671 -0.3954 -0.1228 -0.4800
    1SOL    HW3 5927   0.666   1.433   2.653 -0.8992 -0.2469 -1.4367
    1SOL    MW4 5928   0.666   1.520   2.643 -0.5380 -0.1614 -0.7493
    1SOL     OW 5929   0.430   1.632   2.709 -0.2907 -0.0820 -0.5430
    1SOL    HW2 5930   0.435   1.647   2.804 -0.8632  0.6510 -0.6253
    1SOL    HW3 5931   0.432   1.720   2.671 -0.7811 -0.3455 -1.1759
    1SOL    MW4 5932   0.431   1.646   2.717 -0.4310 -0.0200 -0.6373
    1SOL     OW 5933   0.468   1.900   2.602  0.0796  0.3842 -0.0956
    1SOL    HW2 5934   0.539   1.956   2.633 -0.9771  1.8165 -0.1922
    1SOL    HW3 5935   0.465   1.914   2.508 -0.5138  0.5559 -0.0560
    1SOL    MW4 5936   0.477   1.909   2.594 -0.1381  0.5958 -0.1032
    1SOL     OW 5937   0.672   2.058   2.682 -0.8062  0.1414  0.2128
    1SOL    HW2 5938   0.678   2.067   2.777 -0.0052 -1.1471  0.2841
    1SOL    HW3 5939   0.748   2.006   2.657 -1.7206 -0.6450 -0.9927
    1SOL    MW4 5940   0.683   2.053   2.691 -0.8212 -0.1323  0.0632
    1SOL     OW 5941   0.651   2.327   2.646  0.1222 -0.2355  0.5712
    1SOL    HW2 5942   0.739   2.351   2.674  0.6142 -0.2566 -0.8899
    1SOL    HW3 5943   0.647   2.232   2.658  0.7162 -0.4005 -0.4214
    1SOL    MW4 5944   0.662   2.318   2.651  0.2655 -0.2599  0.2477
    1SOL     OW 5945   0.439   2.458   2.736  0.1214  0.1504 -0.1437
    1SOL    HW2 5946   0.430   2.548   2.704  0.4008 -0.7933 -3.0192
    1SOL    HW3 5947   0.525   2.430   2.705 -0.8983 -1.8480 -1.2922
    1SOL    MW4 5948   0.449   2.467   2.727  0.0237 -0.2379 -0.6745
    1SOL     OW 5949   0.406   2.738   2.662 -0.1400 -0.0874 -0.3854
    1SOL    HW2 5950   0.470   2.789   2.711 -0.8647  1.1292 -0.6830
    1SOL    HW3 5951   0.321   2.769   2.694 -0.5993 -0.1771 -1.4966
    1SOL    MW4 5952   0.403   2.749   2.672 -0.2962  0.0613 -0.5710
    1SOL     OW 5953   0.638   2.829   2.786 -0.4429  0.1803  0.2510
    1SOL    HW2 5954   0.668   2.829   2.877 -0.0379 -0.4332  0.1161
    1SOL    HW3 5955   0.659   2.917   2.754 -0.0661  0.2076  0.5748
    1SOL    MW4 5956   0.645   2.840   2.794 -0.3397  0.1028  0.2761
    1SOL     OW 5957   0.689   3.069   2.664  0.3938 -0.2756  0.0855
    1SOL    HW2 5958   0.759   3.127   2.694  1.4752 -0.8660 -1.2238
    1SOL    HW3 5959   0.681   3.087   2.570 -1.3395 -0.0950  0.2516
    1SOL    MW4 5960   0.697   3.079   2.656  0.3077 -0.3295 -0.0653
    1SOL     OW 5961   0.428   3.180   2.724 -0.6262  0.0096 -0.2381
    1SOL    HW2 5962   0.437   3.203   2.816 -0.4458  0.9039 -0.4719
    1SOL    HW3 5963   0.512   3.139   2.701 -1.1191 -1.3402  0.2992
    1SOL    MW4 5964   0.440   3.178   2.733 -0.6675 -0.0505 -0.1981
    1SOL     OW 5965   0.412   3.472   2.657  0.0043 -0.5617 -0.1490
    1SOL    HW2 5966   0.407   3.377   2.663 -0.9045 -0.6048 -1.4083
    1SOL    HW3 5967   0.420   3.490   2.563 -0.4717  0.6249  0.0234
    1SOL    MW4 5968   0.413   3.462   2.645 -0.1784 -0.4113 -0.2925
    1SOL     OW 5969   0.661   3.606   2.723  0.1204  0.7970  0.3573
    1SOL    HW2 5970   0.678   3.597   2.817 -0.8324  1.5429  0.6097
    1SOL    HW3 5971   0.577   3.563   2.710  0.2122  0.7707 -0.1432
    1SOL    MW4 5972   0.652   3.599   2.734  0.0067  0.8922  0.3247
    1SOL     OW 5973   0.654   3.873   2.668  0.0717 -0.4013  0.0651
    1SOL    HW2 5974   0.574   3.896   2.715  0.3106  0.5492  0.0159
    1SOL    HW3 5975   0.668   3.781   2.687 -1.3299 -0.7030 -0.3618
    1SOL    MW4 5976   0.646   3.864   2.677 -0.0816 -0.3159  0.0024
    1SOL     OW 5977   0.420   4.020   2.779  0.2361  0.0100 -0.1913
    1SOL    HW2 5978   0.418   4.103   2.731  0.3617  0.1332  0.0168
    1SOL    HW3 5979   0.341   3.974   2.750 -0.8858  1.0289  1.1862
    1SOL    MW4 5980   0.409   4.025   2.769  0.1047  0.1607  0.0179
    1SOL     OW 5981   0.438   4.269   2.656  0.4437 -0.1321 -0.1440
    1SOL    HW2 5982   0.521   4.308   2.684  0.3396  0.2470 -0.3503
    1SOL    HW3 5983   0.440   4.275   2.560 -0.3540  1.0014 -0.0982
    1SOL    MW4 5984   0.449   4.275   2.647  0.3248  0.0677 -0.1650
    1SOL     OW 5985   0.676   4.387   2.757  0.3784 -0.4270  0.1077
    1SOL    HW2 5986   0.761   4.354   2.729  0.5113 -0.3661  0.4356
    1SOL    HW3 5987   0.668   4.473   2.717  0.8472 -0.0659  0.7805
    1SOL    MW4 5988   0.686   4.394   2.748  0.4578 -0.3715  0.2396
    1SOL     OW 5989   1.117   4.613   2.643 -0.1891 -0.1366  0.0351
    1SOL    HW2 5990   1.197   4.657   2.671 -0.2061  0.4108 -0.7530
    1SOL    HW3 5991   1.116   4.531   2.693  0.7425 -0.0455  0.2188
    1SOL    MW4 5992   1.128   4.608   2.653 -0.0684 -0.0525 -0.0448
    1SOL     OW 5993   0.903   0.084   2.715 -0.1997 -0.0162  0.2485
    1SOL    HW2 5994   0.916   0.084   2.810  1.6300  0.3402  0.0080
    1SOL    HW3 5995   0.986   0.053   2.679 -0.4892  0.9433 -1.2777
    1SOL    MW4 5996   0.916   0.080   2.723  0.0035  0.1574  0.0155
    1SOL     OW 5997   0.873   0.364   2.637 -0.2282 -0.3145 -0.1300
    1SOL    HW2 5998   0.873   0.269   2.644 -2.3981 -0.3628 -0.2370
    1SOL    HW3 5999   0.890   0.381   2.544  1.5162 -0.5376  0.1355
    1SOL    MW4 6000   0.875   0.354   2.625 -0.2843 -0.3503 -0.1092
    1SOL     OW 6001   1.092   0.482   2.742  0.6227  0.1438 -0.0467
    1SOL    HW2 6002   1.087   0.569   2.702  0.5961  0.3194  0.3449
    1SOL    HW3 6003   1.010   0.439   2.717 -0.4916  1.1131  1.8611
    1SOL    MW4 6004   1.081   0.488   2.733  0.4722  0.2949  0.2570
    1SOL     OW 6005   1.099   0.720   2.615  0.0539  0.0235 -0.2583
    1SOL    HW2 6006   1.170   0.776   2.647 -0.1867  0.0531  0.2256
    1SOL    HW3 6007   1.093   0.740   2.521  0.7146 -0.0130 -0.3104
    1SOL    MW4 6008   1.108   0.730   2.607  0.1094  0.0226 -0.2012
    1SOL     OW 6009   0.896   0.851   2.729 -0.1810 -0.3707 -0.0292
    1SOL    HW2 6010   0.903   0.845   2.824  0.9182  0.3267 -0.0579
    1SOL    HW3 6011   0.967   0.795   2.696  1.0671  1.4195 -0.4078
    1SOL    MW4 6012   0.906   0.842   2.737  0.1287 -0.0424 -0.0830
    1SOL     OW 6013   0.909   1.106   2.645  0.1148 -0.0036 -0.1551
    1SOL    HW2 6014   0.913   1.014   2.670  0.5466  0.1660  0.4195
    1SOL    HW3 6015   0.902   1.105   2.549 -1.5118 -0.6590 -0.0330
    1SOL    MW4 6016   0.909   1.094   2.635 -0.0429 -0.0676 -0.0632
    1SOL     OW 6017   1.129   1.267   2.762 -0.4045  0.1763  0.0891
    1SOL    HW2 6018   1.097   1.348   2.722 -0.2247  0.5135  0.6233
    1SOL    HW3 6019   1.064   1.201   2.738 -0.4008  0.4215 -0.5842
    1SOL    MW4 6020   1.116   1.269   2.754 -0.3803  0.2531  0.0708
    1SOL     OW 6021   1.105   1.518   2.639  0.2534  0.2114  0.0748
    1SOL    HW2 6022   1.022   1.558   2.662  0.6873  0.8477  0.5618
    1SOL    HW3 6023   1.103   1.513   2.543 -0.0559  0.8627  0.0421
    1SOL    MW4 6024   1.094   1.522   2.629  0.2698  0.3814  0.1349
    1SOL     OW 6025   0.887   1.677   2.725 -0.1954 -0.2441  0.2316
    1SOL    HW2 6026   0.883   1.695   2.819  0.5064 -1.1286  0.4415
    1SOL    HW3 6027   0.815   1.617   2.708  0.2462 -0.8282  0.3894
    1SOL    MW4 6028   0.877   1.672   2.735 -0.0445 -0.4380  0.2801
    1SOL     OW 6029   0.925   1.928   2.614 -0.1480  0.5703 -0.0492
    1SOL    HW2 6030   0.988   1.972   2.671  0.8434 -0.1768 -0.5719
    1SOL    HW3 6031   0.926   1.837   2.643 -0.2369  0.3508 -0.7406
    1SOL    MW4 6032   0.933   1.922   2.625 -0.0290  0.4427 -0.2093
    1SOL     OW 6033   1.141   2.099   2.743 -0.2329 -0.0770  0.0796
    1SOL    HW2 6034   1.226   2.058   2.727 -0.2687  0.6149 -2.0939
    1SOL    HW3 6035   1.150   2.186   2.705 -1.2362  0.7646  1.7337
    1SOL    MW4 6036   1.154   2.105   2.736 -0.3700  0.1254  0.0107
    1SOL     OW 6037   1.122   2.352   2.636  0.0353  0.0776 -0.1696
    1SOL    HW2 6038   1.195   2.408   2.664 -0.1389 -0.5943  1.7016
    1SOL    HW3 6039   1.131   2.348   2.540  2.3140  0.1909  0.0020
    1SOL    MW4 6040   1.133   2.359   2.627  0.3130  0.0036  0.0999
    1SOL     OW 6041   0.887   2.436   2.761 -0.1272 -0.2432 -0.0978
    1SOL    HW2 6042   0.877   2.525   2.727  0.1488  0.1479  0.8346
    1SOL    HW3 6043   0.969   2.405   2.722  1.1272  0.8584  1.6062
    1SOL    MW4 6044   0.896   2.444   2.751  0.0747 -0.0463  0.2499
    1SOL     OW 6045   0.853   2.708   2.665 -0.2123  0.0870 -0.0001
    1SOL    HW2 6046   0.923   2.756   2.710 -0.0837 -0.6564  0.6079
    1SOL    HW3 6047   0.772   2.749   2.696 -0.1579 -0.9961  1.5946
    1SOL    MW4 6048   0.851   2.720   2.675 -0.1881 -0.1540  0.2906
    1SOL     OW 6049   1.083   2.832   2.736  0.0000  0.0000  0.5585
    1SOL    HW2 6050   1.106   2.825   2.829  0.0000  0.0000  0.5556
    1SOL    HW3 6051   1.159   2.795   2.690  0.0000  0.0000  0.5478
    1SOL    MW4 6052   1.096   2.826   2.742  0.0000  0.0000  0.5567
    1SOL     OW 6053   1.148   3.096   2.654  0.0000  0.0000 -0.2713
    1SOL    HW2 6054   1.122   3.007   2.677  0.0000  0.0000 -0.2831
    1SOL    HW3 6055   1.136   3.101   2.559  0.0000  0.0000 -0.2711
    1SOL    MW4 6056   1.143   3.085   2.645  0.0000  0.0000 -0.2730
    1SOL     OW 6057   0.919   3.208   2.750  0.0000  0.0000 -0.4605
    1SOL    HW2 6058   0.903   3.287   2.698  0.0000  0.0000 -0.4370
    1SOL    HW3 6059   1.006   3.179   2.722  0.0000  0.0000 -0.4867
    1SOL    MW4 6060   0.928   3.215   2.739  0.0000  0.0000 -0.4609
    1SOL     OW 6061   0.887   3.462   2.638  0.0000  0.0000 -0.1153
    1SOL    HW2 6062   0.961   3.508   2.679  0.0000  0.0000 -0.1396
    1SOL    HW3 6063   0.810   3.511   2.667  0.0000  0.0000 -0.0578
    1SOL    MW4 6064   0.887   3.475   2.647  0.0000  0.0000 -0.1106
    1SOL     OW 6065   1.102   3.599   2.732  0.0000  0.0000 -0.2616
    1SOL    HW2 6066   1.101   3.626   2.824  0.0000  0.0000 -0.2623
    1SOL    HW3 6067   1.100   3.681   2.683  0.0000  0.0000 -0.2639
    1SOL    MW4 6068   1.102   3.613   2.738  0.0000  0.0000 -0.2618
    1SOL     OW 6069   1.098   3.851   2.602  0.0000  0.0000  0.0287
    1SOL    HW2 6070   1.178   3.889   2.640  0.0000  0.0000  0.0343
    1SOL    HW3 6071   1.110   3.859   2.507  0.0000  0.0000  0.0297
    1SOL    MW4 6072   1.110   3.857   2.594  0.0000  0.0000  0.0298
    1SOL     OW 6073   0.893   4.008   2.749  0.0000  0.0000 -0.3400
    1SOL    HW2 6074   0.957   3.963   2.694  0.0000  0.0000 -0.3388
    1SOL    HW3 6075   0.809   3.969   2.723  0.0000  0.0000 -0.3304
    1SOL    MW4 6076   0.890   3.997   2.738  0.0000  0.0000 -0.3388
    1SOL     OW 6077   0.888   4.266   2.632  0.0000  0.0000 -0.0691
    1SOL    HW2 6078   0.892   4.173   2.656  0.0000  0.0000 -0.0683
    1SOL    HW3 6079   0.884   4.265   2.536  0.0000  0.0000 -0.0693
    1SOL    MW4 6080   0.888   4.254   2.622  0.0000  0.0000 -0.0691
    1SOL     OW 6081   1.144   4.351   2.736  0.0000  0.0000 -0.0803
    1SOL    HW2 6082   1.137   4.378   2.827  0.0000  0.0000 -0.0810
    1SOL    HW3 6083   1.055   4.327   2.710  0.0000  0.0000 -0.0838
    1SOL    MW4 6084   1.131   4.351   2.744  0.0000  0.0000 -0.0808
    1SOL     OW 6085   1.609   4.661   2.633 -0.1936  0.2141 -0.3240
    1SOL    HW2 6086   1.589   4.571   2.658 -1.1016  1.0459  2.1102
    1SOL    HW3 6087   1.627   4.657   2.539 -0.5930 -2.4249 -0.3179
    1SOL    MW4 6088   1.609   4.649   2.624 -0.3661 -0.0243 -0.0021
    1SOL     OW 6089   1.346   0.089   2.717  0.0171 -0.1590  0.3766
    1SOL    HW2 6090   1.344   0.181   2.691 -0.3060 -0.6658 -1.4904
    1SOL    HW3 6091   1.433   0.059   2.692  0.3098 -0.2465  1.4642
    1SOL    MW4 6092   1.357   0.097   2.710  0.0130 -0.2374  0.2737
    1SOL     OW 6093   1.325   0.365   2.639 -0.1900 -0.2788  0.0895
    1SOL    HW2 6094   1.394   0.417   2.679 -0.5770  1.3315 -1.2906
    1SOL    HW3 6095   1.244   0.405   2.669 -0.5264 -1.0930  0.2971
    1SOL    MW4 6096   1.324   0.377   2.648 -0.2853 -0.1738 -0.0651
    1SOL     OW 6097   1.551   0.500   2.713  0.4116 -0.1571 -0.0675
    1SOL    HW2 6098   1.627   0.455   2.677  0.3951  0.1333 -0.4622
    1SOL    HW3 6099   1.560   0.591   2.685 -0.4107 -0.2489 -0.6628
    1SOL    MW4 6100   1.562   0.506   2.705  0.3010 -0.1309 -0.1984
    1SOL     OW 6101   1.576   0.783   2.680 -0.1588 -0.4782 -0.2160
    1SOL    HW2 6102   1.498   0.836   2.700 -0.7471 -1.8007  1.0151
    1SOL    HW3 6103   1.573   0.773   2.585 -0.8331  0.4958 -0.3126
    1SOL    MW4 6104   1.565   0.789   2.670 -0.3253 -0.5242 -0.0668
    1SOL     OW 6105   1.299   0.892   2.713  0.1936  0.6028 -0.2497
    1SOL    HW2 6106   1.313   0.899   2.808  0.4236 -0.5212 -0.1936
    1SOL    HW3 6107   1.301   0.983   2.682  1.8178  0.8756  0.5941
    1SOL    MW4 6108   1.301   0.905   2.721  0.4383  0.4905 -0.1309
    1SOL     OW 6109   1.315   1.141   2.603 -0.2233 -0.5445  0.4009
    1SOL    HW2 6110   1.396   1.187   2.627 -1.4981  2.2356 -0.4707
    1SOL    HW3 6111   1.247   1.184   2.654 -1.3830 -1.8991  0.0202
    1SOL    MW4 6112   1.317   1.153   2.613 -0.5444 -0.3563  0.2356
    1SOL     OW 6113   1.573   1.255   2.726  0.1131  0.2463 -0.1042
    1SOL    HW2 6114   1.583   1.248   2.821  1.9576  1.9400 -0.1277
    1SOL    HW3 6115   1.653   1.218   2.690  0.0245  0.8339 -0.9454
    1SOL    MW4 6116   1.585   1.249   2.734  0.3448  0.5474 -0.2184
    1SOL     OW 6117   1.542   1.522   2.670  0.5899  0.1066  0.1123
    1SOL    HW2 6118   1.544   1.429   2.693  0.2420  0.1547  0.3326
    1SOL    HW3 6119   1.548   1.523   2.575  0.8549 -0.1320  0.1232
    1SOL    MW4 6120   1.543   1.509   2.661  0.5789  0.0814  0.1428
    1SOL     OW 6121   1.307   1.674   2.707  0.2431 -0.6078  0.0309
    1SOL    HW2 6122   1.389   1.629   2.685  0.3885 -0.4808  0.2988
    1SOL    HW3 6123   1.239   1.609   2.692  0.3326 -0.5077 -0.8384
    1SOL    MW4 6124   1.309   1.660   2.702  0.2742 -0.5779 -0.0484
    1SOL     OW 6125   1.331   1.939   2.668  0.4038  0.0406  0.2836
    1SOL    HW2 6126   1.324   1.845   2.687  1.5768  0.0418  0.8116
    1SOL    HW3 6127   1.320   1.946   2.574 -0.7836 -0.5080  0.3776
    1SOL    MW4 6128   1.329   1.927   2.658  0.4019 -0.0317  0.3660
    1SOL     OW 6129   1.569   2.087   2.711  0.1136 -0.1568  0.0705
    1SOL    HW2 6130   1.648   2.045   2.677 -0.0214  0.6859 -1.3389
    1SOL    HW3 6131   1.498   2.027   2.689  0.0135  0.4342 -1.2771
    1SOL    MW4 6132   1.570   2.073   2.704  0.0825  0.0324 -0.2933
    1SOL     OW 6133   1.563   2.338   2.616  0.0863  0.1013  0.6507
    1SOL    HW2 6134   1.642   2.383   2.648  0.3161 -0.4043  0.8120
    1SOL    HW3 6135   1.562   2.255   2.665 -0.1807 -0.1842  0.1644
    1SOL    MW4 6136   1.574   2.333   2.627  0.0814 -0.0031  0.6080
    1SOL     OW 6137   1.348   2.468   2.721 -0.2936 -0.1880  0.0917
    1SOL    HW2 6138   1.356   2.558   2.690  0.4112  0.4837  2.1157
    1SOL    HW3 6139   1.421   2.422   2.680  0.6332  0.6786  0.7484
    1SOL    MW4 6140   1.359   2.474   2.712 -0.0783  0.0148  0.4454
    1SOL     OW 6141   1.320   2.732   2.624  0.2207  0.1532 -0.1408
    1SOL    HW2 6142   1.404   2.774   2.640  0.1357  0.1255  0.3995
    1SOL    HW3 6143   1.306   2.741   2.530  0.9204 -0.0128 -0.2652
    1SOL    MW4 6144   1.329   2.738   2.614  0.3018  0.1276 -0.0858
    1SOL     OW 6145   1.568   2.824   2.725  0.1513  0.3933 -0.2577
    1SOL    HW2 6146   1.594   2.815   2.817 -0.4075  0.2133 -0.1209
    1SOL    HW3 6147   1.627   2.765   2.678  0.5218  0.5796 -0.0309
    1SOL    MW4 6148   1.579   2.815   2.731  0.1265  0.3943 -0.2096
    1SOL     OW 6149   1.560   3.103   2.668 -0.3549 -0.1204 -0.1115
    1SOL    HW2 6150   1.646   3.136   2.695 -0.9608  1.9611 -0.6567
    1SOL    HW3 6151   1.565   3.009   2.683  2.2758 -0.1282 -0.7867
    1SOL    MW4 6152   1.572   3.095   2.674 -0.0879  0.1531 -0.2723
    1SOL     OW 6153   1.342   3.204   2.794 -0.4066 -0.0310  0.0190
    1SOL    HW2 6154   1.427   3.165   2.775  0.7166  0.7312  3.1493
    1SOL    HW3 6155   1.279   3.144   2.753  1.4902 -2.3668  0.3909
    1SOL    MW4 6156   1.345   3.191   2.786 -0.0081 -0.2387  0.4809
    1SOL     OW 6157   1.328   3.446   2.668 -0.3581  0.1786  0.3054
    1SOL    HW2 6158   1.337   3.360   2.709 -1.1929  0.8056  1.8635
    1SOL    HW3 6159   1.247   3.482   2.704 -0.6679  1.1149 -1.2709
    1SOL    MW4 6160   1.319   3.440   2.678 -0.5091  0.3848  0.3030
    1SOL     OW 6161   1.580   3.611   2.700 -0.0215  0.2463  0.0880
    1SOL    HW2 6162   1.654   3.554   2.677 -0.7144 -1.2771  1.5290
    1SOL    HW3 6163   1.503   3.554   2.692 -0.8421  1.2966  0.4336
    1SOL    MW4 6164   1.579   3.596   2.696 -0.2211  0.1838  0.3240
    1SOL     OW 6165   1.582   3.901   2.641 -0.8407  0.2739  0.1090
    1SOL    HW2 6166   1.492   3.918   2.669 -0.7595  0.2532  0.3819
    1SOL    HW3 6167   1.593   3.807   2.649 -0.3530  0.4336  1.4108
    1SOL    MW4 6168   1.571   3.891   2.646 -0.7657  0.2925  0.3171
    1SOL     OW 6169   1.322   3.948   2.739 -0.4291  0.1036  0.6058
    1SOL    HW2 6170   1.324   3.960   2.834 -0.6302  0.3157  0.5866
    1SOL    HW3 6171   1.334   4.037   2.704  2.8147 -0.3645  0.3896
    1SOL    MW4 6172   1.324   3.961   2.747 -0.0274  0.0699  0.5748
    1SOL     OW 6173   1.354   4.209   2.633 -0.1586 -0.6813 -0.1605
    1SOL    HW2 6174   1.284   4.257   2.678  0.2135 -0.6758  0.4155
    1SOL    HW3 6175   1.330   4.214   2.541  0.3335  1.3842 -0.2067
    1SOL    MW4 6176   1.341   4.216   2.627 -0.0447 -0.4077 -0.0904
    1SOL     OW 6177   1.570   4.377   2.698  0.1907  0.1789 -0.3052
    1SOL    HW2 6178   1.570   4.367   2.793  0.4734 -1.8432 -0.5073
    1SOL    HW3 6179   1.497   4.323   2.668  0.8684 -0.1735 -1.3324
    1SOL    MW4 6180   1.560   4.369   2.707  0.3176 -0.1340 -0.4673
    1SOL     OW 6181   2.020   0.008   2.629  0.3020 -0.3118 -0.1029
    1SOL    HW2 6182   2.113   0.020   2.649 -0.0158 -1.2434  2.0084
    1SOL    HW3 6183   2.018  -0.000   2.533  2.5970 -1.9800 -0.0585
    1SOL    MW4 6184   2.032   0.009   2.619  0.5629 -0.6548  0.1819
    1SOL     OW 6185   1.827   0.128   2.780  0.2077 -0.3139  0.2701
    1SOL    HW2 6186   1.902   0.101   2.729 -0.7050  0.2205 -1.3956
    1SOL    HW3 6187   1.754   0.074   2.748 -0.3414 -0.1295  1.1581
    1SOL    MW4 6188   1.827   0.117   2.769  0.0149 -0.2191  0.1676
    1SOL     OW 6189   1.769   0.356   2.646  0.0198  0.2824 -0.4443
    1SOL    HW2 6190   1.857   0.395   2.653  0.4785 -0.6791 -0.7423
    1SOL    HW3 6191   1.778   0.271   2.691 -0.8827  0.3793 -0.0804
    1SOL    MW4 6192   1.782   0.350   2.653 -0.0386  0.1683 -0.4354
    1SOL     OW 6193   2.030   0.457   2.770  0.1065  0.3288  0.2708
    1SOL    HW2 6194   2.102   0.399   2.746  0.1282 -0.0090  1.1485
    1SOL    HW3 6195   2.008   0.433   2.860 -1.0979  0.4403  0.0187
    1SOL    MW4 6196   2.037   0.446   2.778 -0.0496  0.2990  0.3531
    1SOL     OW 6197   2.012   0.693   2.620 -0.1022  0.6975 -0.0139
    1SOL    HW2 6198   1.998   0.622   2.683  0.6042 -0.0477 -0.6736
    1SOL    HW3 6199   1.948   0.760   2.644 -1.2584 -0.4609  0.1925
    1SOL    MW4 6200   2.002   0.692   2.631 -0.1619  0.4463 -0.0741
    1SOL     OW 6201   1.826   0.881   2.731  0.3234  0.5497  0.3162
    1SOL    HW2 6202   1.818   0.971   2.698 -0.4364  0.1710 -0.5632
    1SOL    HW3 6203   1.739   0.843   2.718  0.7594 -0.4456  0.2921
    1SOL    MW4 6204   1.814   0.888   2.725  0.2806  0.3685  0.1969
    1SOL     OW 6205   1.807   1.149   2.630 -0.0673 -0.1770 -0.3412
    1SOL    HW2 6206   1.893   1.190   2.636  1.1273 -2.5108 -0.9513
    1SOL    HW3 6207   1.793   1.136   2.536 -1.1818  0.4055 -0.2542
    1SOL    MW4 6208   1.817   1.152   2.618 -0.0567 -0.4079 -0.4098
    1SOL     OW 6209   2.036   1.266   2.708  0.0956 -0.4584  0.2548
    1SOL    HW2 6210   2.023   1.256   2.802 -0.4011 -0.8937  0.1418
    1SOL    HW3 6211   2.095   1.195   2.684  0.4410 -0.1815  0.2846
    1SOL    MW4 6212   2.042   1.256   2.717  0.0758 -0.4795  0.2439
    1SOL     OW 6213   2.020   1.540   2.640 -0.0302 -0.6075 -0.1064
    1SOL    HW2 6214   1.941   1.566   2.688  1.0670  0.9743  0.8883
    1SOL    HW3 6215   2.034   1.448   2.665 -1.1002 -0.6596  0.3251
    1SOL    MW4 6216   2.011   1.531   2.650 -0.0267 -0.4057  0.0820
    1SOL     OW 6217   1.783   1.627   2.748 -0.3586 -0.0724  0.0025
    1SOL    HW2 6218   1.784   1.617   2.843  0.8697 -2.6220 -0.2457
    1SOL    HW3 6219   1.696   1.595   2.722 -1.3879  2.2863  0.3789
    1SOL    MW4 6220   1.772   1.622   2.757 -0.3324 -0.0975  0.0196
    1SOL     OW 6221   1.793   1.903   2.653  0.3260  0.1908 -0.3033
    1SOL    HW2 6222   1.867   1.956   2.684 -0.5751  0.6694  1.0897
    1SOL    HW3 6223   1.811   1.815   2.684 -0.9187  0.8082  2.2454
    1SOL    MW4 6224   1.805   1.899   2.661  0.0429  0.3355  0.2167
    1SOL     OW 6225   2.018   2.070   2.688  0.3445 -0.2224  0.1022
    1SOL    HW2 6226   2.021   2.081   2.783  0.6885  0.3121  0.0312
    1SOL    HW3 6227   2.026   2.158   2.654 -0.0705 -0.3861 -0.4222
    1SOL    MW4 6228   2.019   2.083   2.696  0.3352 -0.1736  0.0238
    1SOL     OW 6229   2.024   2.348   2.616  0.7473 -0.0686  0.1159
    1SOL    HW2 6230   2.107   2.383   2.650  1.0645 -0.6958 -0.0108
    1SOL    HW3 6231   2.040   2.337   2.522 -0.2698  2.0788 -0.3335
    1SOL    MW4 6232   2.037   2.351   2.608  0.6549  0.1321  0.0401
    1SOL     OW 6233   1.790   2.435   2.729  0.1537  0.2925 -0.0130
    1SOL    HW2 6234   1.808   2.439   2.823 -0.3758  1.0504  0.0612
    1SOL    HW3 6235   1.872   2.404   2.690  1.2716  2.6404  0.4131
    1SOL    MW4 6236   1.803   2.431   2.736  0.2313  0.7019  0.0532
    1SOL     OW 6237   1.780   2.682   2.627  0.0310 -0.5430 -0.0511
    1SOL    HW2 6238   1.787   2.592   2.658 -0.1578 -0.6007 -0.1701
    1SOL    HW3 6239   1.793   2.676   2.532  0.4008 -0.3956 -0.0091
    1SOL    MW4 6240   1.783   2.670   2.618  0.0550 -0.5307 -0.0615
    1SOL     OW 6241   2.023   2.832   2.717 -0.3940 -0.2471 -0.4711
    1SOL    HW2 6242   2.087   2.764   2.697 -0.1248  0.1600 -1.0115
    1SOL    HW3 6243   1.939   2.796   2.688 -0.0698  0.1546 -1.9173
    1SOL    MW4 6244   2.020   2.818   2.711 -0.3157 -0.1402 -0.7331
    1SOL     OW 6245   2.088   3.071   2.606 -0.1102  0.0858  0.1063
    1SOL    HW2 6246   2.081   2.981   2.639  1.4858 -0.3497 -0.6712
    1SOL    HW3 6247   2.051   3.067   2.518  0.5482  0.0466 -0.1694
    1SOL    MW4 6248   2.082   3.059   2.599  0.1874  0.0229 -0.0324
    1SOL     OW 6249   1.812   3.157   2.740 -0.0045  0.2101 -0.5390
    1SOL    HW2 6250   1.806   3.245   2.704 -0.4638  0.1366 -0.6349
    1SOL    HW3 6251   1.906   3.136   2.735  0.2017  0.9478  0.1020
    1SOL    MW4 6252   1.824   3.166   2.735 -0.0379  0.2978 -0.4673
    1SOL     OW 6253   1.804   3.450   2.648 -0.0339  0.1470 -0.0871
    1SOL    HW2 6254   1.868   3.511   2.686  0.0963 -1.0800  1.7049
    1SOL    HW3 6255   1.820   3.455   2.554  1.2263  1.4917  0.1687
    1SOL    MW4 6256   1.815   3.459   2.640  0.1494  0.1626  0.1833
    1SOL     OW 6257   2.015   3.621   2.779  0.1656 -0.3239  0.2935
    1SOL    HW2 6258   2.038   3.625   2.872  1.3304 -1.7987  0.0891
    1SOL    HW3 6259   2.094   3.587   2.737 -0.9598 -1.3735 -0.9900
    1SOL    MW4 6260   2.029   3.617   2.786  0.1709 -0.6568  0.0973
    1SOL     OW 6261   1.975   3.860   2.645 -0.0997  0.2261 -0.2410
    1SOL    HW2 6262   1.894   3.904   2.669 -0.1373  0.2947 -0.4886
    1SOL    HW3 6263   1.975   3.779   2.696  0.6568  1.1780  1.2996
    1SOL    MW4 6264   1.965   3.855   2.655 -0.0048  0.3610 -0.0701
    1SOL     OW 6265   1.793   4.025   2.774 -0.3241  0.1373  0.6799
    1SOL    HW2 6266   1.805   4.105   2.723 -1.3448  1.1382  2.0125
    1SOL    HW3 6267   1.717   3.982   2.734  1.1121 -0.9411 -0.9842
    1SOL    MW4 6268   1.785   4.030   2.762 -0.2694  0.1268  0.6361
    1SOL     OW 6269   1.810   4.273   2.618 -0.2266 -0.0085  0.7299
    1SOL    HW2 6270   1.722   4.307   2.636 -0.5390 -0.9600  1.0425
    1SOL    HW3 6271   1.806   4.242   2.527 -0.4184 -0.6787  0.9657
    1SOL    MW4 6272   1.798   4.273   2.608 -0.2933 -0.2232  0.8025
    1SOL     OW 6273   1.975   4.442   2.782 -0.2606 -0.4228  0.6572
    1SOL    HW2 6274   1.905   4.388   2.744 -0.0195  0.0968 -0.5439
    1SOL    HW3 6275   1.986   4.515   2.721  1.6063 -0.7056  0.6054
    1SOL    MW4 6276   1.967   4.444   2.769  0.0175 -0.3915  0.4916
    1SOL     OW 6277   2.485   4.614   2.614  0.3029 -0.0982  0.0099
    1SOL    HW2 6278   2.546   4.664   2.667 -0.0390  0.3691 -0.0351
    1SOL    HW3 6279   2.496   4.648   2.525 -0.5912  0.5510  0.1374
    1SOL    MW4 6280   2.495   4.625   2.609  0.1400  0.0491  0.0207
    1SOL     OW 6281   2.271   0.077   2.723  0.0338 -0.1450  0.2628
    1SOL    HW2 6282   2.338   0.019   2.688  0.5280  0.4092  0.2824
    1SOL    HW3 6283   2.267   0.056   2.816 -1.6700 -2.0083 -0.1981
    1SOL    MW4 6284   2.279   0.067   2.731 -0.1256 -0.3178  0.2046
    1SOL     OW 6285   2.250   0.322   2.644 -0.9227 -0.1289  0.0007
    1SOL    HW2 6286   2.242   0.320   2.549  2.0169  0.7354 -0.3052
    1SOL    HW3 6287   2.266   0.230   2.668  1.0748  0.0256 -0.6436
    1SOL    MW4 6288   2.251   0.309   2.635 -0.2711  0.0055 -0.1247
    1SOL     OW 6289   2.470   0.443   2.777  0.5276  0.6172  0.0903
    1SOL    HW2 6290   2.470   0.531   2.740  2.2193  0.4037 -0.4483
    1SOL    HW3 6291   2.394   0.401   2.736 -0.4610  1.8949  0.5663
    1SOL    MW4 6292   2.460   0.449   2.766  0.6204  0.7576  0.0820
    1SOL     OW 6293   2.473   0.718   2.670 -0.1266 -0.4341 -0.2297
    1SOL    HW2 6294   2.399   0.770   2.699  0.7911  1.5966 -1.4286
    1SOL    HW3 6295   2.462   0.711   2.575  0.5362 -1.1838 -0.2594
    1SOL    MW4 6296   2.462   0.724   2.661  0.0818 -0.2651 -0.3917
    1SOL     OW 6297   2.242   0.830   2.757  0.2198  0.1828  0.2130
    1SOL    HW2 6298   2.208   0.857   2.842  0.8258 -0.7852  0.7716
    1SOL    HW3 6299   2.167   0.789   2.713 -0.2907  1.3507 -0.0302
    1SOL    MW4 6300   2.228   0.828   2.762  0.2325  0.2092  0.2549
    1SOL     OW 6301   2.220   1.077   2.638 -0.5031  0.4110  0.3422
    1SOL    HW2 6302   2.242   0.985   2.655  0.7516  0.7544  0.6053
    1SOL    HW3 6303   2.302   1.124   2.651 -1.4350  1.7445  1.4519
    1SOL    MW4 6304   2.234   1.071   2.642 -0.4604  0.6323  0.5236
    1SOL     OW 6305   2.447   1.238   2.724 -0.1749  0.4333  0.6318
    1SOL    HW2 6306   2.447   1.330   2.699 -1.0905  0.3839  0.4343
    1SOL    HW3 6307   2.528   1.203   2.686 -0.4252  0.8791 -0.3313
    1SOL    MW4 6308   2.458   1.246   2.716 -0.3285  0.4857  0.4790
    1SOL     OW 6309   2.431   1.538   2.657 -0.2294  0.0349 -0.3207
    1SOL    HW2 6310   2.362   1.590   2.697  0.1975  0.3066  0.0638
    1SOL    HW3 6311   2.512   1.572   2.695  0.0241 -1.1658  0.2245
    1SOL    MW4 6312   2.433   1.549   2.667 -0.1397 -0.0876 -0.1979
    1SOL     OW 6313   2.221   1.675   2.769  0.3489  0.1759  0.1897
    1SOL    HW2 6314   2.235   1.764   2.735  0.6492 -0.0192 -0.2039
    1SOL    HW3 6315   2.147   1.641   2.719 -0.5796  0.6580  1.2204
    1SOL    MW4 6316   2.213   1.682   2.758  0.2658  0.2136  0.2739
    1SOL     OW 6317   2.241   1.912   2.658  0.1316  0.2909 -0.4744
    1SOL    HW2 6318   2.160   1.956   2.682 -0.8439 -1.5841 -0.1934
    1SOL    HW3 6319   2.233   1.895   2.564 -0.7337 -1.6996 -0.0667
    1SOL    MW4 6320   2.230   1.915   2.649 -0.1113 -0.2191 -0.3839
    1SOL     OW 6321   2.467   2.045   2.767 -0.1407 -0.4910  0.3406
    1SOL    HW2 6322   2.454   2.126   2.717 -1.0900 -0.9560 -0.1940
    1SOL    HW3 6323   2.392   1.990   2.742  0.5273 -1.5547  0.6538
    1SOL    MW4 6324   2.455   2.049   2.757 -0.1781 -0.6926  0.3116
    1SOL     OW 6325   2.462   2.268   2.610  0.2524  0.3699 -0.1198
    1SOL    HW2 6326   2.540   2.318   2.632  0.8671 -0.3317 -0.7080
    1SOL    HW3 6327   2.452   2.280   2.516 -0.3666  0.4673 -0.0476
    1SOL    MW4 6328   2.471   2.276   2.601  0.2518  0.2902 -0.1879
    1SOL     OW 6329   2.258   2.425   2.708 -0.4723 -0.3132  0.1941
    1SOL    HW2 6330   2.277   2.432   2.801 -0.2606  0.3855  0.1005
    1SOL    HW3 6331   2.322   2.361   2.676  1.0710  1.2422  0.0840
    1SOL    MW4 6332   2.269   2.417   2.716 -0.2406 -0.0160  0.1674
    1SOL     OW 6333   2.248   2.692   2.649 -0.1560 -0.1117  0.1531
    1SOL    HW2 6334   2.321   2.728   2.700  0.2159  0.3468 -0.6943
    1SOL    HW3 6335   2.258   2.597   2.657  0.0119 -0.0402  0.7793
    1SOL    MW4 6336   2.259   2.684   2.657 -0.0849 -0.0415  0.1240
    1SOL     OW 6337   2.468   2.817   2.741 -0.6589  0.0336  0.0815
    1SOL    HW2 6338   2.535   2.766   2.697 -1.2922 -0.4760 -0.3071
    1SOL    HW3 6339   2.482   2.907   2.712  0.7314  0.1650  1.1073
    1SOL    MW4 6340   2.478   2.822   2.732 -0.5591 -0.0165  0.1655
    1SOL     OW 6341   2.477   3.081   2.645 -0.3812 -0.2257 -0.0214
    1SOL    HW2 6342   2.403   3.138   2.668  0.6654  0.9016  0.6392
    1SOL    HW3 6343   2.487   3.093   2.550 -1.1615 -0.5241 -0.1430
    1SOL    MW4 6344   2.468   3.090   2.635 -0.3462 -0.1163  0.0496
    1SOL     OW 6345   2.262   3.236   2.728  0.6805 -0.0348  0.1754
    1SOL    HW2 6346   2.242   3.232   2.821  0.1413  0.8798  0.1034
    1SOL    HW3 6347   2.203   3.172   2.687  0.2461  0.2600  0.3474
    1SOL    MW4 6348   2.251   3.227   2.735  0.5522  0.1247  0.1884
    1SOL     OW 6349   2.243   3.510   2.646 -0.2173  0.0939 -0.3890
    1SOL    HW2 6350   2.327   3.552   2.665 -0.5267  0.6931 -0.3122
    1SOL    HW3 6351   2.252   3.421   2.679  0.4662  0.0873 -0.5872
    1SOL    MW4 6352   2.255   3.504   2.653 -0.1678  0.1721 -0.4051
    1SOL     OW 6353   2.489   3.628   2.708 -0.0279  0.1617  0.3686
    1SOL    HW2 6354   2.481   3.631   2.803  0.6844  1.7013  0.3859
    1SOL    HW3 6355   2.474   3.718   2.679  0.1993 -0.2111 -0.9441
    1SOL    MW4 6356   2.486   3.640   2.717  0.0963  0.3157  0.1976
    1SOL     OW 6357   2.464   3.892   2.629  0.3081  0.3778 -0.2158
    1SOL    HW2 6358   2.534   3.938   2.676  0.6887 -0.0572 -0.3596
    1SOL    HW3 6359   2.384   3.938   2.655  0.5257  0.1819  0.8117
    1SOL    MW4 6360   2.463   3.904   2.639  0.3870  0.2944 -0.0994
    1SOL     OW 6361   2.214   4.005   2.687 -0.2315 -0.1834  0.4265
    1SOL    HW2 6362   2.228   3.994   2.781  0.5798 -1.7198  0.1509
    1SOL    HW3 6363   2.136   3.953   2.668 -0.0875 -0.3022  0.1560
    1SOL    MW4 6364   2.206   3.997   2.697 -0.1054 -0.4017  0.3543
    1SOL     OW 6365   2.203   4.291   2.637  0.0754 -0.0941  0.4696
    1SOL    HW2 6366   2.193   4.197   2.652  0.2351  0.0171  1.3453
    1SOL    HW3 6367   2.124   4.329   2.675 -0.3330  0.0659 -0.5412
    1SOL    MW4 6368   2.191   4.283   2.644  0.0427 -0.0582  0.4518
    1SOL     OW 6369   2.438   4.360   2.750 -0.2794 -0.2783 -0.2883
    1SOL    HW2 6370   2.355   4.346   2.704  0.6645 -0.9941 -1.8071
    1SOL    HW3 6371   2.464   4.449   2.726  0.0101 -0.5065 -0.8306
    1SOL    MW4 6372   2.431   4.370   2.741 -0.1166 -0.4034 -0.5600
    1SOL     OW 6373   2.922   4.655   2.645  0.3047 -0.0438 -0.6522
    1SOL    HW2 6374   3.002   4.697   2.676 -0.5335  0.3429  1.1086
    1SOL    HW3 6375   2.933   4.648   2.551  1.7917  1.3153 -0.6057
    1SOL    MW4 6376   2.934   4.660   2.637  0.3903  0.1864 -0.4134
    1SOL     OW 6377   2.688   0.059   2.771  0.4910 -0.0151  0.4000
    1SOL    HW2 6378   2.705   0.078   2.863  0.5836  0.4719  0.2869
    1SOL    HW3 6379   2.772   0.029   2.737  0.4151 -0.3562  0.5150
    1SOL    MW4 6380   2.702   0.058   2.779  0.4933  0.0042  0.4005
    1SOL     OW 6381   2.689   0.317   2.647 -0.1605  0.4025 -0.2601
    1SOL    HW2 6382   2.715   0.237   2.692 -0.6861  0.3772 -0.0026
    1SOL    HW3 6383   2.620   0.354   2.701 -0.2945  0.7504 -0.6643
    1SOL    MW4 6384   2.683   0.311   2.660 -0.2477  0.4450 -0.2797
    1SOL     OW 6385   2.906   0.476   2.757  0.0913  0.1354  0.2215
    1SOL    HW2 6386   2.913   0.568   2.728  0.8823  0.3691  1.1329
    1SOL    HW3 6387   2.845   0.437   2.696 -0.8031  1.4606  0.2421
    1SOL    MW4 6388   2.899   0.483   2.745  0.0777  0.3411  0.3448
    1SOL     OW 6389   2.899   0.730   2.663  0.7489 -0.3289  0.0379
    1SOL    HW2 6390   2.957   0.796   2.700 -0.1314  0.6106 -0.2369
    1SOL    HW3 6391   2.812   0.754   2.695  0.4371 -1.4562  0.0808
    1SOL    MW4 6392   2.895   0.742   2.672  0.5918 -0.3536  0.0074
    1SOL     OW 6393   2.675   0.863   2.780 -0.1837  0.1305 -0.0539
    1SOL    HW2 6394   2.684   0.864   2.876 -1.0595  0.4130  0.0301
    1SOL    HW3 6395   2.589   0.823   2.764  0.3278 -0.6989 -0.7563
    1SOL    MW4 6396   2.665   0.858   2.791 -0.2317  0.0584 -0.1357
    1SOL     OW 6397   2.687   1.113   2.633  0.2741  0.1402  0.5128
    1SOL    HW2 6398   2.763   1.162   2.664  0.9624  0.0160 -0.9039
    1SOL    HW3 6399   2.693   1.029   2.677  1.2603 -0.0489  0.0367
    1SOL    MW4 6400   2.698   1.108   2.643  0.4950  0.0987  0.2630
    1SOL     OW 6401   2.882   1.268   2.728 -0.0298 -0.4778 -0.2187
    1SOL    HW2 6402   2.882   1.250   2.822 -0.7268 -0.5092 -0.2242
    1SOL    HW3 6403   2.964   1.229   2.696  0.8165  0.6270  0.5796
    1SOL    MW4 6404   2.893   1.260   2.736 -0.0100 -0.3362 -0.1140
    1SOL     OW 6405   2.907   1.529   2.641  0.5489  0.4335 -0.1998
    1SOL    HW2 6406   2.826   1.569   2.673 -0.6700 -1.0922 -1.3294
    1SOL    HW3 6407   2.911   1.443   2.683  2.1203  0.8883  0.6391
    1SOL    MW4 6408   2.897   1.523   2.651  0.5956  0.2921 -0.2379
    1SOL     OW 6409   2.685   1.659   2.756 -0.3444  0.1529  0.1228
    1SOL    HW2 6410   2.689   1.644   2.850 -0.7355 -0.4850  0.0430
    1SOL    HW3 6411   2.703   1.752   2.745 -0.4304  0.2505  0.8389
    1SOL    MW4 6412   2.688   1.669   2.767 -0.4070  0.0815  0.2069
    1SOL     OW 6413   2.709   1.923   2.673  0.5660 -0.1919  0.1526
    1SOL    HW2 6414   2.772   1.985   2.709  1.0491 -0.5373 -0.0791
    1SOL    HW3 6415   2.623   1.959   2.695  0.8300  1.1336 -0.9475
    1SOL    MW4 6416   2.706   1.936   2.680  0.6647 -0.0625 -0.0231
    1SOL     OW 6417   2.917   2.091   2.744 -0.2845  0.4071 -0.2832
    1SOL    HW2 6418   2.993   2.048   2.705  1.1863  2.6265  0.0752
    1SOL    HW3 6419   2.897   2.163   2.684  0.3320  2.1990  1.5857
    1SOL    MW4 6420   2.924   2.095   2.731 -0.0091  0.9363  0.0107
    1SOL     OW 6421   2.901   2.335   2.590 -0.6550 -0.3807  0.0145
    1SOL    HW2 6422   2.975   2.369   2.640 -0.4374 -1.4939  0.4617
    1SOL    HW3 6423   2.824   2.355   2.643 -0.3850 -1.9750  1.0483
    1SOL    MW4 6424   2.900   2.342   2.603 -0.5906 -0.7379  0.2098
    1SOL     OW 6425   2.677   2.421   2.720 -0.4135 -0.0086  0.0917
    1SOL    HW2 6426   2.691   2.437   2.814  0.0978 -1.6463  0.3175
    1SOL    HW3 6427   2.686   2.507   2.680  0.4640  0.5537  1.4316
    1SOL    MW4 6428   2.680   2.434   2.727 -0.2303 -0.1504  0.2983
    1SOL     OW 6429   2.681   2.695   2.621  0.3978 -0.0371  0.5217
    1SOL    HW2 6430   2.759   2.728   2.666 -0.4354  2.5535  0.1537
    1SOL    HW3 6431   2.707   2.691   2.529 -0.3743  2.5178  0.1406
    1SOL    MW4 6432   2.695   2.699   2.615  0.1860  0.6421  0.4230
    1SOL     OW 6433   2.903   2.816   2.722  0.0153  0.1985 -0.0301
    1SOL    HW2 6434   2.971   2.751   2.706 -2.0896 -2.2896  0.7991
    1SOL    HW3 6435   2.910   2.837   2.815  0.6937  1.1858 -0.2969
    1SOL    MW4 6436   2.913   2.810   2.732 -0.1731  0.0005  0.0441
    1SOL     OW 6437   2.886   3.078   2.638  0.2723  0.0560  0.0294
    1SOL    HW2 6438   2.821   3.124   2.691  0.2810 -0.3277  0.3784
    1SOL    HW3 6439   2.881   2.987   2.668  0.3452 -0.1437 -0.5617
    1SOL    MW4 6440   2.877   3.072   2.649  0.2828 -0.0210 -0.0026
    1SOL     OW 6441   2.710   3.217   2.780 -0.2798 -0.0605  0.1582
    1SOL    HW2 6442   2.705   3.302   2.737 -1.5193 -0.5781 -0.7429
    1SOL    HW3 6443   2.628   3.174   2.758 -0.4060 -0.8230  2.0311
    1SOL    MW4 6444   2.699   3.223   2.772 -0.4601 -0.2296  0.2868
    1SOL     OW 6445   2.695   3.466   2.662 -0.0720  0.2681  0.0672
    1SOL    HW2 6446   2.618   3.518   2.687 -0.0632  0.0076  0.6556
    1SOL    HW3 6447   2.693   3.464   2.567 -1.2002 -0.3486  0.1045
    1SOL    MW4 6448   2.685   3.473   2.653 -0.2196  0.1526  0.1495
    1SOL     OW 6449   2.921   3.607   2.739 -0.3350 -0.3541  0.1389
    1SOL    HW2 6450   2.925   3.603   2.835 -0.0274 -0.4851  0.1220
    1SOL    HW3 6451   2.839   3.565   2.717  0.3605 -1.7926  0.2532
    1SOL    MW4 6452   2.911   3.601   2.749 -0.2027 -0.5612  0.1519
    1SOL     OW 6453   2.944   3.845   2.599 -0.0275  0.5425  0.9395
    1SOL    HW2 6454   3.018   3.891   2.639  1.0170 -1.1704  0.9805
    1SOL    HW3 6455   2.933   3.766   2.653 -0.7358 -0.1117 -0.1550
    1SOL    MW4 6456   2.952   3.841   2.612  0.0167  0.2303  0.8004
    1SOL     OW 6457   2.712   3.976   2.738 -0.8343 -0.0758 -0.0218
    1SOL    HW2 6458   2.701   4.058   2.689  2.1022  0.3528 -0.0300
    1SOL    HW3 6459   2.777   3.926   2.688 -2.2689 -2.2635  0.2081
    1SOL    MW4 6460   2.719   3.980   2.725 -0.6361 -0.3080  0.0074
    1SOL     OW 6461   2.686   4.240   2.633 -0.1435 -0.1331  0.5663
    1SOL    HW2 6462   2.753   4.301   2.664 -0.1532  0.0317  0.2674
    1SOL    HW3 6463   2.604   4.277   2.665 -0.1735  0.1555  0.1588
    1SOL    MW4 6464   2.684   4.253   2.641 -0.1490 -0.0730  0.4728
    1SOL     OW 6465   2.895   4.398   2.718 -0.1545 -0.1679 -0.0819
    1SOL    HW2 6466   2.908   4.394   2.813  0.0264  1.1523 -0.0424
    1SOL    HW3 6467   2.903   4.491   2.697 -1.3744 -0.3217 -1.2270
    1SOL    MW4 6468   2.898   4.410   2.728 -0.2916 -0.0148 -0.2277
    1SOL     OW 6469   3.360   0.007   2.626 -0.3754 -0.7964 -0.1351
    1SOL    HW2 6470   3.373  -0.074   2.675  0.4777  0.2031  1.3148
    1SOL    HW3 6471   3.286   0.050   2.669 -0.3600 -0.4631 -0.4350
    1SOL    MW4 6472   3.352   0.002   2.638 -0.2608 -0.6204  0.0165
    1SOL     OW 6473   3.147   0.103   2.754 -0.1020  0.5776  0.0625
    1SOL    HW2 6474   3.127   0.093   2.847  0.2426 -0.4126  0.0337
    1SOL    HW3 6475   3.145   0.198   2.739 -2.4609  0.6512  0.5734
    1SOL    MW4 6476   3.144   0.114   2.764 -0.3679  0.4567  0.1261
    1SOL     OW 6477   3.126   0.353   2.645 -0.9042 -0.3429  0.5582
    1SOL    HW2 6478   3.047   0.399   2.673 -0.5937  1.1906 -0.9794
    1SOL    HW3 6479   3.121   0.353   2.549  1.6076  0.9598  0.3941
    1SOL    MW4 6480   3.115   0.359   2.636 -0.5322  0.0314  0.3335
    1SOL     OW 6481   3.330   0.503   2.730 -0.0147  0.4031 -0.4174
    1SOL    HW2 6482   3.322   0.591   2.694  1.5802  0.8877  0.3716
    1SOL    HW3 6483   3.265   0.452   2.682  0.0957  1.6638 -1.9508
    1SOL    MW4 6484   3.320   0.508   2.719  0.2103  0.6332 -0.5157
    1SOL     OW 6485   3.329   0.771   2.645  0.0941  0.3698  0.0710
    1SOL    HW2 6486   3.419   0.800   2.663  0.5402 -1.5333  0.9549
    1SOL    HW3 6487   3.321   0.778   2.550  1.8077 -1.2409 -0.2080
    1SOL    MW4 6488   3.340   0.776   2.635  0.3791 -0.0938  0.1507
    1SOL     OW 6489   3.116   0.922   2.737 -0.1516 -0.4603 -0.3379
    1SOL    HW2 6490   3.108   0.917   2.832  0.2878  0.0691 -0.2766
    1SOL    HW3 6491   3.188   0.862   2.716  1.1905  1.0704 -0.1385
    1SOL    MW4 6492   3.124   0.913   2.747  0.0834 -0.1885 -0.3033
    1SOL     OW 6493   3.124   1.170   2.621  0.3185  0.2691  0.0569
    1SOL    HW2 6494   3.132   1.079   2.648 -0.3999 -0.1021 -0.9671
    1SOL    HW3 6495   3.140   1.169   2.527 -0.0448  1.1445 -0.0210
    1SOL    MW4 6496   3.127   1.158   2.613  0.1760  0.3356 -0.0887
    1SOL     OW 6497   3.337   1.318   2.702  0.4516 -0.2318  0.3663
    1SOL    HW2 6498   3.335   1.324   2.798  1.2230 -0.9891  0.4356
    1SOL    HW3 6499   3.250   1.287   2.678  0.1875  0.1581  0.8014
    1SOL    MW4 6500   3.325   1.315   2.712  0.5188 -0.2803  0.4325
    1SOL     OW 6501   3.349   1.569   2.565  0.4356 -0.2804  0.2145
    1SOL    HW2 6502   3.277   1.616   2.609  0.9553  0.8990 -0.1880
    1SOL    HW3 6503   3.356   1.487   2.614 -0.5661 -0.0030  0.8558
    1SOL    MW4 6504   3.340   1.565   2.577  0.3717 -0.0882  0.2460
    1SOL     OW 6505   3.126   1.692   2.693  0.3785 -0.4157 -0.4700
    1SOL    HW2 6506   3.064   1.622   2.672 -0.4149 -0.0333  0.5736
    1SOL    HW3 6507   3.130   1.693   2.789  1.9355 -0.3787 -0.5235
    1SOL    MW4 6508   3.119   1.683   2.703  0.4792 -0.3604 -0.3395
    1SOL     OW 6509   3.141   1.975   2.638  0.4640  0.2552 -0.0506
    1SOL    HW2 6510   3.226   2.012   2.662  0.3081 -0.0041  0.9019
    1SOL    HW3 6511   3.151   1.881   2.650 -0.0901  0.2590  0.4778
    1SOL    MW4 6512   3.153   1.968   2.643  0.3700  0.2216  0.1445
    1SOL     OW 6513   3.368   2.058   2.718  0.2376 -0.1318  0.2820
    1SOL    HW2 6514   3.360   2.054   2.813 -1.6200 -1.1775  0.0968
    1SOL    HW3 6515   3.355   2.151   2.697  0.2584  0.0372  1.0145
    1SOL    MW4 6516   3.365   2.070   2.728 -0.0048 -0.2472  0.3541
    1SOL     OW 6517   3.339   2.301   2.617  0.3017  0.1640 -0.1452
    1SOL    HW2 6518   3.412   2.345   2.660  1.0729 -1.2038 -0.0220
    1SOL    HW3 6519   3.349   2.322   2.524  1.0061 -0.2387 -0.1593
    1SOL    MW4 6520   3.350   2.310   2.611  0.4964 -0.0691 -0.1304
    1SOL     OW 6521   3.118   2.399   2.738 -0.1840 -0.6998  0.2322
    1SOL    HW2 6522   3.201   2.369   2.701  0.2940  0.8862 -0.0325
    1SOL    HW3 6523   3.130   2.391   2.833  0.1893 -0.7004  0.1856
    1SOL    MW4 6524   3.131   2.394   2.746 -0.0715 -0.4907  0.1910
    1SOL     OW 6525   3.123   2.673   2.647  0.1383  0.2542  0.7447
    1SOL    HW2 6526   3.200   2.714   2.687  1.4676 -1.0700 -0.4206
    1SOL    HW3 6527   3.120   2.586   2.686  0.5715 -0.5063 -0.8754
    1SOL    MW4 6528   3.133   2.667   2.658  0.3710 -0.0210  0.3769
    1SOL     OW 6529   3.327   2.816   2.739  0.2343  0.0476 -0.6760
    1SOL    HW2 6530   3.348   2.844   2.828 -0.2361 -2.3497  0.2394
    1SOL    HW3 6531   3.402   2.763   2.712  0.1189  0.2835 -1.4879
    1SOL    MW4 6532   3.340   2.812   2.747  0.1569 -0.2375 -0.6623
    1SOL     OW 6533   3.360   3.058   2.618  0.1288  0.0937  0.3971
    1SOL    HW2 6534   3.343   2.968   2.644  0.2549  0.0537  0.3418
    1SOL    HW3 6535   3.360   3.056   2.522  0.2535  0.1293  0.3960
    1SOL    MW4 6536   3.358   3.046   2.609  0.1619  0.0932  0.3896
    1SOL     OW 6537   3.136   3.216   2.710 -0.0432 -0.5316  0.1515
    1SOL    HW2 6538   3.211   3.176   2.665 -0.2559 -2.5259  1.4796
    1SOL    HW3 6539   3.060   3.174   2.671 -0.4911  1.2984 -1.0060
    1SOL    MW4 6540   3.136   3.205   2.699 -0.1304 -0.5529  0.1738
    1SOL     OW 6541   3.160   3.493   2.664 -0.3253  0.5037 -0.0956
    1SOL    HW2 6542   3.150   3.400   2.681  0.6136  0.2390 -0.9626
    1SOL    HW3 6543   3.079   3.532   2.695 -0.1360 -0.4235  1.6151
    1SOL    MW4 6544   3.148   3.486   2.670 -0.1762  0.3464  0.0160
    1SOL     OW 6545   3.384   3.622   2.757 -0.2150 -0.6009 -0.4400
    1SOL    HW2 6546   3.372   3.623   2.852 -0.0656  0.4880 -0.4215
    1SOL    HW3 6547   3.307   3.577   2.723 -0.4836 -0.6013  0.1644
    1SOL    MW4 6548   3.372   3.616   2.765 -0.2308 -0.4573 -0.3579
    1SOL     OW 6549   3.395   3.889   2.649 -0.1352  0.1907  0.0754
    1SOL    HW2 6550   3.393   3.799   2.680 -1.8438  0.3507  0.4591
    1SOL    HW3 6551   3.384   3.883   2.554 -0.0205 -0.0170  0.0767
    1SOL    MW4 6552   3.393   3.876   2.640 -0.3455  0.1845  0.1261
    1SOL     OW 6553   3.148   4.018   2.723 -0.2210 -0.0745  0.1690
    1SOL    HW2 6554   3.151   4.112   2.709  1.1407  0.1202  1.5700
    1SOL    HW3 6555   3.232   3.986   2.691 -0.8681 -0.8836 -0.7446
    1SOL    MW4 6556   3.160   4.026   2.717 -0.1268 -0.1554  0.2334
    1SOL     OW 6557   3.143   4.286   2.640  0.1729  0.1060 -0.0247
    1SOL    HW2 6558   3.056   4.323   2.659 -0.2788 -0.1000 -1.6533
    1SOL    HW3 6559   3.145   4.277   2.545  1.6451 -0.7430  0.0796
    1SOL    MW4 6560   3.132   4.290   2.630  0.3076 -0.0329 -0.2258
    1SOL     OW 6561   3.376   4.407   2.726  0.0170 -0.1028 -0.2250
    1SOL    HW2 6562   3.363   4.401   2.821  0.2177  0.1030 -0.1837
    1SOL    HW3 6563   3.296   4.371   2.688 -0.1439 -0.0056  0.0231
    1SOL    MW4 6564   3.364   4.401   2.734  0.0222 -0.0629 -0.1869
    1SOL     OW 6565   3.829   4.644   2.647 -0.5495 -0.1710 -0.2225
    1SOL    HW2 6566   3.842   4.560   2.690 -0.2139  1.1363  2.3054
    1SOL    HW3 6567   3.740   4.669   2.670 -0.7553  0.0295 -1.2237
    1SOL    MW4 6568   3.819   4.636   2.656 -0.5324  0.0277 -0.0210
    1SOL     OW 6569   3.596   0.126   2.749 -0.3136 -0.0538  0.1542
    1SOL    HW2 6570   3.612   0.219   2.732  1.0687 -0.3402 -0.1600
    1SOL    HW3 6571   3.519   0.106   2.696  0.0855  0.6358 -0.7136
    1SOL    MW4 6572   3.588   0.136   2.740 -0.0787 -0.0006 -0.0017
    1SOL     OW 6573   3.578   0.418   2.636  0.0914 -0.3171 -0.0187
    1SOL    HW2 6574   3.651   0.454   2.686  1.0053 -0.7633 -0.9989
    1SOL    HW3 6575   3.500   0.447   2.683  0.8740  0.7198  0.6749
    1SOL    MW4 6576   3.577   0.426   2.649  0.3152 -0.2392 -0.0567
    1SOL     OW 6577   3.809   0.518   2.767  0.1357 -0.1471 -0.2579
    1SOL    HW2 6578   3.805   0.509   2.862  0.5322 -0.0013 -0.2265
    1SOL    HW3 6579   3.885   0.466   2.741 -0.0245 -0.2591 -0.5036
    1SOL    MW4 6580   3.818   0.510   2.776  0.1667 -0.1427 -0.2859
    1SOL     OW 6581   3.835   0.747   2.637  0.1508 -0.2038  0.0776
    1SOL    HW2 6582   3.761   0.805   2.658  1.1401  1.0131  0.2808
    1SOL    HW3 6583   3.822   0.670   2.692 -1.1100 -0.1290 -0.0889
    1SOL    MW4 6584   3.824   0.745   2.647  0.1149 -0.0333  0.0823
    1SOL     OW 6585   3.592   0.897   2.670 -0.7252  0.2094 -0.1314
    1SOL    HW2 6586   3.592   0.887   2.766 -2.2315  0.6970 -0.0533
    1SOL    HW3 6587   3.584   0.992   2.656 -1.3215  0.0800 -0.7197
    1SOL    MW4 6588   3.591   0.908   2.681 -1.0028  0.2566 -0.1986
    1SOL     OW 6589   3.575   1.172   2.608  0.3566 -0.1734  0.2057
    1SOL    HW2 6590   3.652   1.212   2.648  0.2649  0.6447 -0.4024
    1SOL    HW3 6591   3.501   1.217   2.647  0.1060 -2.0388  1.9409
    1SOL    MW4 6592   3.576   1.183   2.618  0.3114 -0.3115  0.3543
    1SOL     OW 6593   3.801   1.293   2.693 -0.4273  0.2223 -0.1917
    1SOL    HW2 6594   3.887   1.260   2.669 -0.3224  0.6322 -0.3833
    1SOL    HW3 6595   3.795   1.378   2.651 -0.7990  0.3359  0.0834
    1SOL    MW4 6596   3.812   1.300   2.685 -0.4628  0.2913 -0.1810
    1SOL     OW 6597   3.813   1.559   2.585  0.1286 -0.0618  0.2892
    1SOL    HW2 6598   3.892   1.610   2.600  0.8770 -1.2964  0.6293
    1SOL    HW3 6599   3.744   1.605   2.634  0.8541  0.4364  0.8393
    1SOL    MW4 6600   3.814   1.572   2.594  0.3233 -0.1588  0.4067
    1SOL     OW 6601   3.568   1.662   2.691  0.5075  0.2595 -0.3229
    1SOL    HW2 6602   3.569   1.754   2.665  1.5295 -0.0115 -1.3024
    1SOL    HW3 6603   3.488   1.627   2.651  0.6288  0.5018 -0.7887
    1SOL    MW4 6604   3.558   1.669   2.682  0.6583  0.2557 -0.5133
    1SOL     OW 6605   3.584   1.943   2.616  0.2120  0.1284  0.0364
    1SOL    HW2 6606   3.511   2.001   2.638 -0.9353 -0.6142 -1.6944
    1SOL    HW3 6607   3.578   1.933   2.521  2.2438 -0.3925 -0.0426
    1SOL    MW4 6608   3.573   1.949   2.606  0.3288 -0.0384 -0.2024
    1SOL     OW 6609   3.831   2.055   2.715 -0.0711  0.5554  0.2435
    1SOL    HW2 6610   3.906   2.012   2.674  0.1752  0.9950  0.2310
    1SOL    HW3 6611   3.755   2.007   2.683  0.2076  0.0766  0.2931
    1SOL    MW4 6612   3.831   2.043   2.706 -0.0021  0.5500  0.2484
    1SOL     OW 6613   3.797   2.312   2.629  0.3639  0.4858 -0.5229
    1SOL    HW2 6614   3.807   2.223   2.662 -0.8646  0.0035 -1.3745
    1SOL    HW3 6615   3.797   2.302   2.533  1.7388  1.5856 -0.6527
    1SOL    MW4 6616   3.798   2.299   2.620  0.3831  0.5674 -0.6526
    1SOL     OW 6617   3.562   2.440   2.715 -0.0655 -0.5678  0.2201
    1SOL    HW2 6618   3.580   2.457   2.808 -0.1348  0.3046  0.0800
    1SOL    HW3 6619   3.639   2.392   2.685  0.6181  0.3949  0.3897
    1SOL    MW4 6620   3.575   2.436   2.724  0.0157 -0.3257  0.2241
    1SOL     OW 6621   3.567   2.691   2.644  0.1789 -0.1179 -0.0272
    1SOL    HW2 6622   3.559   2.600   2.671  1.5124  0.0764  1.1238
    1SOL    HW3 6623   3.562   2.690   2.549 -1.6490 -1.1859  0.0815
    1SOL    MW4 6624   3.566   2.679   2.635  0.1135 -0.2334  0.1390
    1SOL     OW 6625   3.805   2.855   2.713  0.6191 -0.7494  0.1473
    1SOL    HW2 6626   3.876   2.813   2.665 -0.3465 -1.0670 -1.0154
    1SOL    HW3 6627   3.725   2.814   2.679 -0.0411 -1.7357  2.7501
    1SOL    MW4 6628   3.803   2.844   2.702  0.4048 -0.9215  0.3374
    1SOL     OW 6629   3.759   3.099   2.598  0.1219  0.0024  0.1073
    1SOL    HW2 6630   3.694   3.145   2.651  1.4576  0.8756  1.0239
    1SOL    HW3 6631   3.768   3.013   2.640 -0.1589  0.0195  0.2041
    1SOL    MW4 6632   3.752   3.093   2.610  0.2611  0.1199  0.2408
    1SOL     OW 6633   3.556   3.228   2.729 -0.2460 -0.2210 -0.0058
    1SOL    HW2 6634   3.569   3.313   2.687  0.4771 -0.5253 -0.4153
    1SOL    HW3 6635   3.484   3.188   2.681 -1.8076  0.8989  1.3537
    1SOL    MW4 6636   3.548   3.234   2.717 -0.3567 -0.1135  0.1194
    1SOL     OW 6637   3.575   3.484   2.628 -0.0945  0.3160 -0.3355
    1SOL    HW2 6638   3.644   3.537   2.667 -1.5576  0.2227  2.4787
    1SOL    HW3 6639   3.494   3.519   2.665 -1.3123 -1.7502 -0.9832
    1SOL    MW4 6640   3.574   3.496   2.638 -0.4485  0.0312 -0.0494
    1SOL     OW 6641   3.798   3.629   2.706 -0.0409 -0.3108  0.1562
    1SOL    HW2 6642   3.882   3.585   2.687 -0.6245 -1.4169  0.0733
    1SOL    HW3 6643   3.809   3.717   2.671  1.2309 -0.3274  0.4820
    1SOL    MW4 6644   3.811   3.635   2.699  0.0501 -0.4590  0.1884
    1SOL     OW 6645   3.820   3.884   2.610  0.8779 -0.0655  0.8651
    1SOL    HW2 6646   3.900   3.928   2.639  0.7997 -0.2232  1.3229
    1SOL    HW3 6647   3.749   3.935   2.650  0.7028  0.7291 -0.4146
    1SOL    MW4 6648   3.821   3.897   2.619  0.8447  0.0188  0.7565
    1SOL     OW 6649   3.613   4.011   2.747  0.1064 -0.1813  0.1223
    1SOL    HW2 6650   3.608   4.100   2.710  2.3691 -0.1918 -0.3183
    1SOL    HW3 6651   3.529   3.971   2.725 -0.6299  1.5846 -0.3878
    1SOL    MW4 6652   3.601   4.018   2.739  0.3076  0.0496 -0.0031
    1SOL     OW 6653   3.598   4.261   2.652  0.0226  0.3535  0.2518
    1SOL    HW2 6654   3.517   4.299   2.686 -0.4544 -0.0974 -0.3505
    1SOL    HW3 6655   3.584   4.257   2.557 -0.4363 -2.4177  0.3805
    1SOL    MW4 6656   3.585   4.265   2.644 -0.1009 -0.0720  0.1895
    1SOL     OW 6657   3.825   4.379   2.751 -0.1365 -0.3008  0.3408
    1SOL    HW2 6658   3.898   4.332   2.709 -0.5099 -0.5647 -0.0154
    1SOL    HW3 6659   3.747   4.346   2.706 -0.4533  0.1735  0.5492
    1SOL    MW4 6660   3.825   4.368   2.739 -0.2272 -0.2732  0.3211
    1SOL     OW 6661   4.232   4.642   2.687 -0.1822  0.1835  0.1799
    1SOL    HW2 6662   4.166   4.697   2.727  0.0432  0.1861  0.5480
    1SOL    HW3 6663   4.315   4.686   2.704 -0.0654  0.0873 -0.1219
    1SOL    MW4 6664   4.234   4.655   2.694 -0.1373  0.1712  0.1888
    1SOL     OW 6665   4.025   0.136   2.795  0.2507 -0.2319  0.3265
    1SOL    HW2 6666   4.025   0.133   2.890 -1.2461  1.0558  0.3861
    1SOL    HW3 6667   3.948   0.085   2.769 -0.1756  0.6511 -0.1437
    1SOL    MW4 6668   4.015   0.129   2.804 -0.0038  0.0544  0.2723
    1SOL     OW 6669   4.043   0.374   2.673 -0.7514 -0.5066 -0.3370
    1SOL    HW2 6670   4.026   0.292   2.720  2.9487 -1.4034 -0.4011
    1SOL    HW3 6671   4.060   0.347   2.583 -0.0822  0.3733 -0.4827
    1SOL    MW4 6672   4.043   0.359   2.667 -0.1745 -0.5088 -0.3648
    1SOL     OW 6673   4.244   0.507   2.781  0.1815 -0.1530 -0.1892
    1SOL    HW2 6674   4.165   0.462   2.751 -0.4200  0.6297  0.2054
    1SOL    HW3 6675   4.315   0.447   2.759 -0.5579 -1.0472 -0.1837
    1SOL    MW4 6676   4.243   0.493   2.775  0.0043 -0.1678 -0.1366
    1SOL     OW 6677   4.287   0.732   2.640  0.0406  0.1807 -0.4541
    1SOL    HW2 6678   4.284   0.647   2.683  0.2240  0.4807  0.1612
    1SOL    HW3 6679   4.257   0.716   2.550 -1.7093 -0.1913  0.1863
    1SOL    MW4 6680   4.283   0.719   2.634 -0.1659  0.1712 -0.2882
    1SOL     OW 6681   4.062   0.876   2.726 -0.2370  0.0149  0.0040
    1SOL    HW2 6682   4.139   0.824   2.706 -0.7378 -1.1854  1.1179
    1SOL    HW3 6683   3.989   0.824   2.693 -0.6843  0.4005  0.3780
    1SOL    MW4 6684   4.062   0.863   2.719 -0.3619 -0.0926  0.2005
    1SOL     OW 6685   4.030   1.149   2.635 -0.0269 -0.0514  0.5689
    1SOL    HW2 6686   4.108   1.195   2.666  0.1202  0.3809 -0.4353
    1SOL    HW3 6687   4.040   1.060   2.668  1.2601 -0.1896 -0.1647
    1SOL    MW4 6688   4.041   1.143   2.643  0.1621 -0.0126  0.3397
    1SOL     OW 6689   4.270   1.275   2.725 -0.1701  0.6396 -0.0376
    1SOL    HW2 6690   4.272   1.365   2.692 -0.0106  0.5334 -0.3151
    1SOL    HW3 6691   4.359   1.243   2.714 -0.6653 -0.2013 -1.7381
    1SOL    MW4 6692   4.282   1.283   2.719 -0.2146  0.5147 -0.2985
    1SOL     OW 6693   4.274   1.531   2.630  0.1214 -0.4959  0.4838
    1SOL    HW2 6694   4.353   1.582   2.649 -0.9810  1.7165 -0.6890
    1SOL    HW3 6695   4.275   1.519   2.535 -0.9110 -0.5258  0.4684
    1SOL    MW4 6696   4.284   1.536   2.620 -0.1607 -0.2079  0.3271
    1SOL     OW 6697   4.056   1.668   2.717  0.1184  0.0108 -0.0015
    1SOL    HW2 6698   4.050   1.642   2.808 -1.7145 -1.2410 -0.4414
    1SOL    HW3 6699   4.134   1.624   2.684  1.6083  1.6252  1.3021
    1SOL    MW4 6700   4.065   1.659   2.724  0.0734  0.0585  0.1123
    1SOL     OW 6701   4.033   1.924   2.595  0.1161  0.0495 -0.1420
    1SOL    HW2 6702   4.113   1.957   2.635 -0.0401 -0.1704  0.3589
    1SOL    HW3 6703   4.021   1.838   2.635  0.7111 -0.7680 -1.6844
    1SOL    MW4 6704   4.042   1.917   2.605  0.1740 -0.0874 -0.2792
    1SOL     OW 6705   4.250   2.058   2.723 -0.0421 -0.0413 -0.2481
    1SOL    HW2 6706   4.273   2.147   2.696 -0.0265  0.1090  0.2600
    1SOL    HW3 6707   4.332   2.009   2.717 -0.0474 -0.0188 -0.5142
    1SOL    MW4 6708   4.264   2.064   2.719 -0.0405 -0.0186 -0.2162
    1SOL     OW 6709   4.285   2.323   2.644 -0.2234 -0.3026  0.1452
    1SOL    HW2 6710   4.197   2.360   2.653  0.2403  0.6509  0.8549
    1SOL    HW3 6711   4.301   2.320   2.550 -0.5077  0.7407  0.0570
    1SOL    MW4 6712   4.276   2.328   2.633 -0.1993 -0.0391  0.2270
    1SOL     OW 6713   4.038   2.448   2.678 -0.7144  0.0777 -0.1751
    1SOL    HW2 6714   4.033   2.454   2.773 -1.0944  1.2418 -0.2574
    1SOL    HW3 6715   3.958   2.402   2.652  0.3724 -2.0724  0.2052
    1SOL    MW4 6716   4.027   2.443   2.687 -0.6208 -0.0525 -0.1361
    1SOL     OW 6717   4.018   2.717   2.606  0.1610  0.4629  0.3164
    1SOL    HW2 6718   4.103   2.753   2.634  0.6315 -0.2374 -0.1895
    1SOL    HW3 6719   4.019   2.627   2.638 -0.6089  0.5986  0.7367
    1SOL    MW4 6720   4.030   2.710   2.614  0.1216  0.3884  0.3049
    1SOL     OW 6721   4.247   2.804   2.718 -0.4059 -0.3179  0.1246
    1SOL    HW2 6722   4.251   2.828   2.811 -1.5366  0.2535  0.0381
    1SOL    HW3 6723   4.239   2.888   2.673 -1.4086 -0.6815 -0.3823
    1SOL    MW4 6724   4.246   2.818   2.725 -0.6876 -0.2906  0.0463
    1SOL     OW 6725   4.240   3.091   2.613 -0.0462  0.1033  0.1515
    1SOL    HW2 6726   4.151   3.118   2.638 -0.6898 -1.6684 -0.1757
    1SOL    HW3 6727   4.234   3.075   2.519  1.2113  2.1899 -0.3116
    1SOL    MW4 6728   4.227   3.092   2.604  0.0348  0.1450  0.0472
    1SOL     OW 6729   3.998   3.180   2.705 -0.0888 -0.6499  0.5329
    1SOL    HW2 6730   4.025   3.267   2.677  1.9575 -1.6487 -0.7700
    1SOL    HW3 6731   3.909   3.170   2.671 -0.9517  1.4991  2.0650
    1SOL    MW4 6732   3.990   3.190   2.697  0.0672 -0.4983  0.5631
    1SOL     OW 6733   4.010   3.463   2.640  0.4106 -0.0103  0.4621
    1SOL    HW2 6734   4.090   3.505   2.671 -0.6622  1.3278  1.4431
    1SOL    HW3 6735   4.010   3.478   2.545  2.2290 -1.6095  0.1877
    1SOL    MW4 6736   4.020   3.470   2.632  0.5093 -0.0446  0.5550
    1SOL     OW 6737   4.231   3.613   2.740  0.1936  0.2341 -0.1322
    1SOL    HW2 6738   4.235   3.606   2.835 -1.3464 -0.9869 -0.1431
    1SOL    HW3 6739   4.315   3.580   2.709  0.3012 -0.3110  0.7597
    1SOL    MW4 6740   4.243   3.608   2.748  0.0043  0.0012 -0.0162
    1SOL     OW 6741   4.273   3.874   2.646 -0.2808 -0.3455  0.3210
    1SOL    HW2 6742   4.273   3.791   2.694  1.4239 -0.7897 -0.3808
    1SOL    HW3 6743   4.339   3.927   2.690  0.5991 -0.3982 -0.8934
    1SOL    MW4 6744   4.282   3.870   2.658  0.0606 -0.4113  0.0682
    1SOL     OW 6745   4.046   3.987   2.747 -0.0874  0.2727  0.1567
    1SOL    HW2 6746   4.057   3.999   2.841  0.0809  1.5254 -0.0129
    1SOL    HW3 6747   4.129   3.949   2.718  0.4647  1.3664  0.2753
    1SOL    MW4 6748   4.059   3.983   2.756  0.0072  0.5827  0.1500
    1SOL     OW 6749   4.037   4.244   2.648 -0.7111  0.3534 -0.1155
    1SOL    HW2 6750   4.044   4.154   2.678 -1.7736  0.3315  0.0853
    1SOL    HW3 6751   4.041   4.237   2.552  0.7387  0.2463 -0.0538
    1SOL    MW4 6752   4.039   4.231   2.639 -0.6599  0.3366 -0.0808
    1SOL     OW 6753   4.257   4.384   2.774 -0.4183 -0.1875 -0.2478
    1SOL    HW2 6754   4.175   4.344   2.746 -0.5344 -0.5884  0.6204
    1SOL    HW3 6755   4.258   4.470   2.733 -1.8528  0.3068  0.7078
    1SOL    MW4 6756   4.246   4.390   2.765 -0.6232 -0.1750 -0.0072
    1SOL     OW 6757   0.207   4.594   3.084 -0.4260 -0.1254 -0.1634
    1SOL    HW2 6758   0.197   4.572   3.176  0.0033 -2.4118 -0.6363
    1SOL    HW3 6759   0.143   4.662   3.068 -0.6408  0.1433  1.7768
    1SOL    MW4 6760   0.197   4.600   3.094 -0.3977 -0.3905  0.0303
    1SOL     OW 6761   0.019   0.129   3.065  0.1078 -0.0212  0.2939
    1SOL    HW2 6762  -0.066   0.086   3.078 -0.6464  1.6843  1.1723
    1SOL    HW3 6763   0.021   0.199   3.130  2.5428 -0.5183  0.8178
    1SOL    MW4 6764   0.008   0.132   3.075  0.3295  0.1382  0.4787
    1SOL     OW 6765   4.465   0.356   3.208  0.4590 -0.0034 -0.1299
    1SOL    HW2 6766   4.452   0.348   3.303  1.0735  0.5913  0.0163
    1SOL    HW3 6767   4.383   0.391   3.175 -0.4603 -2.0996 -0.0965
    1SOL    MW4 6768   4.453   0.359   3.216  0.4187 -0.2015 -0.1063
    1SOL     OW 6769   0.171   0.486   3.063  0.3962 -0.4597 -0.2425
    1SOL    HW2 6770   0.251   0.433   3.064 -1.8488 -4.0134  1.2982
    1SOL    HW3 6771   0.125   0.461   3.143 -2.5087  1.1243 -1.3628
    1SOL    MW4 6772   0.176   0.475   3.073 -0.2833 -0.7195 -0.1872
    1SOL     OW 6773   0.237   0.788   3.113  0.2326  0.4460  0.2022
    1SOL    HW2 6774   0.237   0.791   3.209 -1.0404  0.5796  0.2108
    1SOL    HW3 6775   0.210   0.699   3.092  0.1851  0.5157 -0.0272
    1SOL    MW4 6776   0.233   0.777   3.123  0.0584  0.4728  0.1731
    1SOL     OW 6777   0.002   0.910   3.012 -0.0753  0.0215  0.4800
    1SOL    HW2 6778   0.086   0.871   3.038 -1.5253 -1.8760  2.5628
    1SOL    HW3 6779  -0.002   0.898   2.917  2.1229  0.3881  0.3185
    1SOL    MW4 6780   0.013   0.903   3.003  0.0234 -0.1805  0.7336
    1SOL     OW 6781   4.471   1.156   3.120 -0.2160 -0.1187 -0.3810
    1SOL    HW2 6782   4.395   1.190   3.074 -1.6915 -1.3677  1.0525
    1SOL    HW3 6783   4.480   1.066   3.089  0.1454 -0.2466  0.0806
    1SOL    MW4 6784   4.462   1.149   3.110 -0.3629 -0.3003 -0.1311
    1SOL     OW 6785   0.226   1.189   2.985 -0.2318 -0.0391  0.5700
    1SOL    HW2 6786   0.147   1.190   3.039  0.5412 -0.7933  1.7422
    1SOL    HW3 6787   0.196   1.219   2.899 -2.0387 -1.4376  0.6650
    1SOL    MW4 6788   0.211   1.193   2.981 -0.3682 -0.3232  0.7372
    1SOL     OW 6789   0.204   1.470   3.075  0.2986 -0.1762 -0.3028
    1SOL    HW2 6790   0.132   1.515   3.030 -0.7967 -1.1749  0.4302
    1SOL    HW3 6791   0.211   1.386   3.030  1.3714  0.1201 -0.7116
    1SOL    MW4 6792   0.195   1.465   3.063  0.2957 -0.2689 -0.2599
    1SOL     OW 6793   0.008   1.639   2.983  0.3838 -0.0876 -0.5603
    1SOL    HW2 6794  -0.065   1.593   3.024  0.9442 -0.7212 -0.2626
    1SOL    HW3 6795   0.002   1.728   3.017  0.0785 -0.2767 -0.1126
    1SOL    MW4 6796  -0.002   1.645   2.993  0.4172 -0.1961 -0.4621
    1SOL     OW 6797   4.464   1.889   3.090  0.3213 -0.2245 -0.0897
    1SOL    HW2 6798   4.392   1.952   3.084  0.0057 -0.5316  0.4662
    1SOL    HW3 6799   4.539   1.935   3.052 -0.5039 -0.4066 -2.0275
    1SOL    MW4 6800   4.464   1.903   3.084  0.1707 -0.2891 -0.2718
    1SOL     OW 6801   0.204   2.011   2.987  0.3207 -0.0646 -0.3303
    1SOL    HW2 6802   0.204   2.096   3.031 -2.8700  0.9936 -2.2440
    1SOL    HW3 6803   0.226   2.031   2.896  1.0664 -1.5103 -0.4930
    1SOL    MW4 6804   0.207   2.025   2.980 -0.0019 -0.1156 -0.6042
    1SOL     OW 6805   0.231   2.267   3.102  0.0392  0.4573 -0.3524
    1SOL    HW2 6806   0.227   2.281   3.196 -0.2119 -0.1510 -0.2711
    1SOL    HW3 6807   0.290   2.335   3.070  1.0939 -0.0819  0.4034
    1SOL    MW4 6808   0.239   2.278   3.110  0.1452  0.3057 -0.2420
    1SOL     OW 6809   0.011   2.435   3.050  0.1776  0.1154 -0.0464
    1SOL    HW2 6810   0.027   2.517   3.095  0.3224 -0.3425  0.7482
    1SOL    HW3 6811   0.091   2.384   3.062 -0.1088 -0.3502 -0.0833
    1SOL    MW4 6812   0.023   2.439   3.057  0.1583 -0.0064  0.0536
    1SOL     OW 6813   0.018   2.703   3.134  0.0166 -0.0949  0.1781
    1SOL    HW2 6814   0.013   2.723   3.228  0.4938  0.7272  0.0335
    1SOL    HW3 6815   0.090   2.757   3.102 -1.2173  0.8952 -0.9749
    1SOL    MW4 6816   0.027   2.713   3.142 -0.0830  0.1442  0.0069
    1SOL     OW 6817   0.205   2.849   3.030  0.0082  0.0503 -0.2139
    1SOL    HW2 6818   0.290   2.807   3.047  0.7702  1.5062 -0.3651
    1SOL    HW3 6819   0.193   2.842   2.935  0.2246  0.3598 -0.2625
    1SOL    MW4 6820   0.215   2.842   3.020  0.1373  0.2832 -0.2403
    1SOL     OW 6821   0.228   3.153   3.091  0.4921  0.1204  0.1403
    1SOL    HW2 6822   0.145   3.200   3.078  0.4406 -0.0914 -0.2950
    1SOL    HW3 6823   0.213   3.067   3.053  1.1395  0.3144 -0.5466
    1SOL    MW4 6824   0.215   3.148   3.085  0.5707  0.1180 -0.0079
    1SOL     OW 6825   4.484   3.265   3.010  0.1173 -0.1194 -0.1313
    1SOL    HW2 6826   4.422   3.198   3.039 -1.0742  1.2463  0.5358
    1SOL    HW3 6827   4.467   3.275   2.916 -1.1616  0.7371  0.1822
    1SOL    MW4 6828   4.473   3.258   3.002 -0.2089  0.1738 -0.0019
    1SOL     OW 6829   0.017   3.502   3.147  0.2179 -0.2367 -0.0982
    1SOL    HW2 6830  -0.065   3.537   3.113  0.3138 -0.4060 -0.4997
    1SOL    HW3 6831   0.023   3.415   3.110  0.8183 -0.0430 -0.4556
    1SOL    MW4 6832   0.007   3.495   3.138  0.3104 -0.2334 -0.1984
    1SOL     OW 6833   0.247   3.609   3.036  0.1265 -0.5370 -0.1076
    1SOL    HW2 6834   0.253   3.700   3.064  1.1639 -0.8380  0.6624
    1SOL    HW3 6835   0.167   3.576   3.078 -0.1853 -0.0219 -0.2925
    1SOL    MW4 6836   0.237   3.617   3.045  0.2222 -0.5088 -0.0303
    1SOL     OW 6837   0.217   3.873   3.131  0.1579 -0.1946  0.2373
    1SOL    HW2 6838   0.212   3.878   3.227 -0.6903  0.4879  0.1572
    1SOL    HW3 6839   0.306   3.902   3.110  0.1553  0.2129  0.7783
    1SOL    MW4 6840   0.228   3.877   3.141  0.0456 -0.0510  0.2983
    1SOL     OW 6841   0.004   4.033   3.070  0.0189 -0.0381  0.4256
    1SOL    HW2 6842   0.083   3.981   3.081  0.5131  0.6619  0.2077
    1SOL    HW3 6843  -0.014   4.030   2.976  0.5481  0.8989  0.2854
    1SOL    MW4 6844   0.012   4.026   3.059  0.1540  0.1783  0.3781
    1SOL     OW 6845   4.478   4.298   3.167 -0.5003 -0.0623  0.0482
    1SOL    HW2 6846   4.481   4.293   3.262  1.6348  0.3278  0.0386
    1SOL    HW3 6847   4.480   4.207   3.137  0.7741 -0.1453  0.3625
    1SOL    MW4 6848   4.479   4.285   3.175 -0.0505 -0.0219  0.0885
    1SOL     OW 6849   0.219   4.340   2.993  0.1916  0.2931 -0.1131
    1SOL    HW2 6850   0.161   4.325   3.068  0.1323  0.3645 -0.1443
    1SOL    HW3 6851   0.237   4.434   2.995  0.6749  0.1953  0.1647
    1SOL    MW4 6852   0.214   4.350   3.003  0.2475  0.2894 -0.0803
    1SOL     OW 6853   0.675   4.638   3.066  0.0277  0.2006  0.1449
    1SOL    HW2 6854   0.662   4.545   3.045 -0.7911  0.8755 -2.5903
    1SOL    HW3 6855   0.588   4.677   3.056  0.9076  1.7928 -1.7307
    1SOL    MW4 6856   0.662   4.631   3.062  0.0358  0.4992 -0.4637
    1SOL     OW 6857   0.446   0.065   3.001  0.3003  0.1511  0.2006
    1SOL    HW2 6858   0.421   0.157   3.011 -1.6324 -0.0784 -1.9165
    1SOL    HW3 6859   0.375   0.016   3.041 -0.3942 -0.4410 -1.6797
    1SOL    MW4 6860   0.434   0.071   3.007 -0.0463  0.0427 -0.3271
    1SOL     OW 6861   0.410   0.324   3.099 -0.2216 -0.0539  0.0652
    1SOL    HW2 6862   0.402   0.338   3.194  3.1187 -0.3807  0.4518
    1SOL    HW3 6863   0.481   0.382   3.072 -1.5416  0.4859 -2.3754
    1SOL    MW4 6864   0.418   0.333   3.108  0.0450 -0.0258 -0.2058
    1SOL     OW 6865   0.621   0.476   3.010  0.5354  0.0119 -0.0959
    1SOL    HW2 6866   0.698   0.420   3.025  1.4890  1.0385 -1.0985
    1SOL    HW3 6867   0.644   0.559   3.052 -1.5874 -0.8405  2.9261
    1SOL    MW4 6868   0.634   0.479   3.018  0.3811  0.0348  0.1702
    1SOL     OW 6869   0.689   0.708   3.132  0.3751 -0.3078 -0.0653
    1SOL    HW2 6870   0.682   0.726   3.226  1.1599  0.2527 -0.1120
    1SOL    HW3 6871   0.759   0.766   3.102 -1.7184  1.5633 -1.5121
    1SOL    MW4 6872   0.697   0.718   3.140  0.2025  0.0131 -0.2620
    1SOL     OW 6873   0.494   0.879   3.053 -0.0155 -0.1033 -0.2321
    1SOL    HW2 6874   0.409   0.839   3.073 -0.0009  0.2228  0.4938
    1SOL    HW3 6875   0.558   0.814   3.082 -0.0056 -0.1792 -0.4179
    1SOL    MW4 6876   0.491   0.865   3.059 -0.0122 -0.0703 -0.1605
    1SOL     OW 6877   0.457   1.149   3.115  0.7738 -0.5322 -0.5354
    1SOL    HW2 6878   0.474   1.055   3.110 -0.5448 -0.6841 -3.2338
    1SOL    HW3 6879   0.372   1.160   3.073  0.3418  1.7378  0.8462
    1SOL    MW4 6880   0.448   1.138   3.109  0.5428 -0.2526 -0.7091
    1SOL     OW 6881   0.706   1.277   3.010 -0.2931 -0.3691 -0.2918
    1SOL    HW2 6882   0.770   1.221   3.053 -0.3405 -0.5193 -0.4184
    1SOL    HW3 6883   0.621   1.239   3.033 -0.2872 -0.9895 -1.2724
    1SOL    MW4 6884   0.703   1.265   3.018 -0.2985 -0.4708 -0.4377
    1SOL     OW 6885   0.635   1.536   3.081  0.4135 -0.2975 -0.2439
    1SOL    HW2 6886   0.660   1.532   3.174  1.2693 -0.0807 -0.4608
    1SOL    HW3 6887   0.657   1.449   3.047  0.2355 -0.3273 -0.2862
    1SOL    MW4 6888   0.641   1.524   3.089  0.5029 -0.2729 -0.2782
    1SOL     OW 6889   0.407   1.660   2.985  0.1759  0.1603  0.1731
    1SOL    HW2 6890   0.475   1.606   3.024 -0.6280 -1.7426 -0.9702
    1SOL    HW3 6891   0.326   1.610   3.000 -0.7479  1.6364  0.1690
    1SOL    MW4 6892   0.405   1.646   2.992 -0.0521  0.1041  0.0217
    1SOL     OW 6893   0.458   1.922   3.084  0.0244 -0.1573  0.0224
    1SOL    HW2 6894   0.460   1.830   3.059 -0.9846 -0.8089  2.2047
    1SOL    HW3 6895   0.380   1.956   3.040 -0.1693 -0.5850  0.0300
    1SOL    MW4 6896   0.448   1.914   3.075 -0.1343 -0.2997  0.3111
    1SOL     OW 6897   0.675   2.059   2.959 -0.5706 -0.0432 -0.0315
    1SOL    HW2 6898   0.751   2.020   3.003 -0.5340  1.1547  1.0199
    1SOL    HW3 6899   0.600   2.010   2.994 -0.3259 -0.8872 -0.6814
    1SOL    MW4 6900   0.675   2.047   2.970 -0.5335  0.0036  0.0215
    1SOL     OW 6901   0.632   2.285   3.091 -0.2580 -0.2346 -0.0653
    1SOL    HW2 6902   0.654   2.265   3.182  0.7493  0.8379 -0.0503
    1SOL    HW3 6903   0.631   2.200   3.047 -1.2495 -0.8078  1.0480
    1SOL    MW4 6904   0.635   2.272   3.097 -0.2559 -0.1688  0.0837
    1SOL     OW 6905   0.426   2.436   3.003  0.1071 -0.4854 -0.0943
    1SOL    HW2 6906   0.510   2.393   3.017  0.3066 -0.3768 -0.9086
    1SOL    HW3 6907   0.422   2.452   2.909 -0.0868  1.0194  0.1483
    1SOL    MW4 6908   0.436   2.432   2.992  0.1079 -0.2725 -0.1700
    1SOL     OW 6909   0.422   2.694   3.100  0.1875 -0.0913  0.3182
    1SOL    HW2 6910   0.510   2.727   3.082  0.2162  0.4480  1.4336
    1SOL    HW3 6911   0.422   2.604   3.066  0.7150  0.3844 -0.9734
    1SOL    MW4 6912   0.434   2.687   3.093  0.2609  0.0429  0.2949
    1SOL     OW 6913   0.683   2.796   3.068  0.2284  0.2596 -0.1323
    1SOL    HW2 6914   0.766   2.753   3.087  0.0629 -0.2420 -0.5540
    1SOL    HW3 6915   0.701   2.890   3.082  0.9293  0.1788 -0.4853
    1SOL    MW4 6916   0.697   2.803   3.072  0.2990  0.1829 -0.2344
    1SOL     OW 6917   0.687   3.071   3.096  0.3010 -0.0428 -0.0185
    1SOL    HW2 6918   0.701   3.089   3.189 -1.6358 -1.1408  0.5197
    1SOL    HW3 6919   0.616   3.129   3.070  0.3007 -0.3040 -0.6207
    1SOL    MW4 6920   0.680   3.081   3.105  0.0455 -0.2220 -0.0269
    1SOL     OW 6921   0.482   3.239   3.003 -0.3666  0.0764 -0.3757
    1SOL    HW2 6922   0.490   3.323   3.049 -0.2529 -1.3937  2.4222
    1SOL    HW3 6923   0.395   3.207   3.028  0.5440 -1.7436  0.6043
    1SOL    MW4 6924   0.471   3.246   3.012 -0.2315 -0.3574  0.1228
    1SOL     OW 6925   0.480   3.475   3.130  0.1690 -0.2959 -0.4545
    1SOL    HW2 6926   0.473   3.459   3.224 -0.3741 -1.5441 -0.6873
    1SOL    HW3 6927   0.395   3.511   3.105  0.2433 -0.1505 -0.4934
    1SOL    MW4 6928   0.468   3.477   3.139  0.1072 -0.4413 -0.4902
    1SOL     OW 6929   0.709   3.579   3.003  0.1983 -0.2709 -0.3285
    1SOL    HW2 6930   0.798   3.554   3.027 -0.0148  0.3955  1.2179
    1SOL    HW3 6931   0.653   3.528   3.062 -0.3569  1.0043  0.2714
    1SOL    MW4 6932   0.713   3.569   3.014  0.0969 -0.0145 -0.0453
    1SOL     OW 6933   0.684   3.832   3.086  0.2634  0.5140 -0.1611
    1SOL    HW2 6934   0.687   3.829   3.182 -2.8478 -0.4148 -0.0297
    1SOL    HW3 6935   0.695   3.741   3.059  0.3543  0.6688 -0.6539
    1SOL    MW4 6936   0.686   3.820   3.095 -0.1351  0.4117 -0.2089
    1SOL     OW 6937   0.458   3.965   3.049  0.2976  0.6128 -0.0757
    1SOL    HW2 6938   0.536   3.912   3.067 -0.0264 -0.0006 -0.4612
    1SOL    HW3 6939   0.456   3.974   2.954  0.1334  0.9893 -0.0377
    1SOL    MW4 6940   0.468   3.959   3.039  0.2332  0.5815 -0.1218
    1SOL     OW 6941   0.417   4.228   3.155 -0.1501  0.1600 -0.2753
    1SOL    HW2 6942   0.436   4.139   3.125 -1.4733 -0.4144  0.5294
    1SOL    HW3 6943   0.353   4.261   3.092  0.0232  0.3887 -0.3306
    1SOL    MW4 6944   0.411   4.221   3.143 -0.3018  0.1144 -0.1762
    1SOL     OW 6945   0.649   4.366   3.028 -0.7496 -0.3131  0.1071
    1SOL    HW2 6946   0.560   4.341   3.054 -0.4913 -0.6236  0.6918
    1SOL    HW3 6947   0.644   4.374   2.933 -0.9656 -2.0654 -0.0461
    1SOL    MW4 6948   0.637   4.364   3.019 -0.7440 -0.5856  0.1638
    1SOL     OW 6949   1.129   4.635   3.092 -0.2011 -0.0045 -0.0899
    1SOL    HW2 6950   1.208   4.668   3.050 -0.8063 -0.8721 -1.9703
    1SOL    HW3 6951   1.057   4.676   3.044 -0.9035 -0.9667  0.1258
    1SOL    MW4 6952   1.130   4.644   3.080 -0.3735 -0.2460 -0.3095
    1SOL     OW 6953   0.914   0.089   2.991 -0.4542 -0.1851 -0.3922
    1SOL    HW2 6954   0.904   0.175   3.031 -0.1240 -0.4653  0.3135
    1SOL    HW3 6955   0.838   0.039   3.020 -0.3685 -0.2972 -0.3571
    1SOL    MW4 6956   0.903   0.094   3.000 -0.3993 -0.2369 -0.2944
    1SOL     OW 6957   0.852   0.334   3.094  0.3760  0.1570 -0.2873
    1SOL    HW2 6958   0.850   0.319   3.189 -0.1355 -0.7488 -0.4295
    1SOL    HW3 6959   0.934   0.380   3.079  1.2067 -1.0549  0.4197
    1SOL    MW4 6960   0.862   0.338   3.105  0.4181 -0.1224 -0.2127
    1SOL     OW 6961   1.095   0.460   3.024 -0.4633 -0.3502  0.1536
    1SOL    HW2 6962   1.186   0.434   3.041 -0.9677 -2.4169 -0.1172
    1SOL    HW3 6963   1.091   0.471   2.929 -0.7841 -1.4940  0.0256
    1SOL    MW4 6964   1.107   0.458   3.014 -0.5722 -0.7738  0.1009
    1SOL     OW 6965   1.102   0.726   3.116  0.3648  0.2025 -0.1899
    1SOL    HW2 6966   1.113   0.732   3.211  0.8043 -1.9496 -0.0823
    1SOL    HW3 6967   1.097   0.632   3.099 -2.2267  0.6395 -2.0367
    1SOL    MW4 6968   1.103   0.714   3.127  0.0808 -0.0237 -0.4196
    1SOL     OW 6969   0.893   0.875   3.015  0.4393  0.2021  0.3331
    1SOL    HW2 6970   0.913   0.964   3.043  1.0091 -0.1180  0.9620
    1SOL    HW3 6971   0.954   0.820   3.064 -0.4913 -0.6124  0.5882
    1SOL    MW4 6972   0.904   0.879   3.025  0.3917  0.0525  0.4499
    1SOL     OW 6973   0.921   1.121   3.113  0.4459 -0.4708  0.3817
    1SOL    HW2 6974   0.914   1.131   3.208  1.0056 -2.0621  0.5992
    1SOL    HW3 6975   1.006   1.161   3.092  0.9684 -1.3554  0.7525
    1SOL    MW4 6976   0.932   1.128   3.123  0.5887 -0.7974  0.4597
    1SOL     OW 6977   1.151   1.274   3.038  0.0985 -0.0073 -0.1441
    1SOL    HW2 6978   1.234   1.228   3.051 -0.4217 -0.8105  0.3623
    1SOL    HW3 6979   1.136   1.272   2.944 -0.6528 -2.1650  0.0087
    1SOL    MW4 6980   1.160   1.268   3.028 -0.0693 -0.3979 -0.0570
    1SOL     OW 6981   1.106   1.535   3.112 -0.4419 -0.0379  0.4692
    1SOL    HW2 6982   1.171   1.587   3.064  0.2240 -1.5975 -0.3480
    1SOL    HW3 6983   1.137   1.445   3.105 -1.3136 -0.5041  2.3132
    1SOL    MW4 6984   1.118   1.530   3.105 -0.4691 -0.3051  0.6044
    1SOL     OW 6985   0.871   1.655   3.004 -0.0013  0.0897 -0.2036
    1SOL    HW2 6986   0.937   1.601   3.048 -0.5920 -1.3994 -1.1090
    1SOL    HW3 6987   0.787   1.616   3.029 -0.4335  0.5878 -0.8630
    1SOL    MW4 6988   0.869   1.643   3.013 -0.1363 -0.0410 -0.4101
    1SOL     OW 6989   0.895   1.936   3.070  0.0528 -0.0613 -0.3365
    1SOL    HW2 6990   0.903   1.939   3.165 -0.4539 -0.5349 -0.2760
    1SOL    HW3 6991   0.885   1.843   3.050  1.1813 -0.0563 -0.9391
    1SOL    MW4 6992   0.895   1.924   3.080  0.1349 -0.1231 -0.4082
    1SOL     OW 6993   1.135   2.086   3.034  0.2982  0.1034 -0.3582
    1SOL    HW2 6994   1.055   2.038   3.055  1.6370 -1.9527  0.2171
    1SOL    HW3 6995   1.137   2.090   2.938  0.1240 -0.9537 -0.4138
    1SOL    MW4 6996   1.125   2.080   3.024  0.4519 -0.3073 -0.2897
    1SOL     OW 6997   1.138   2.347   3.116  0.3999 -0.0761  0.3033
    1SOL    HW2 6998   1.057   2.382   3.080  1.6287  2.2752 -0.2358
    1SOL    HW3 6999   1.141   2.257   3.083 -0.3568  0.8492 -2.3982
    1SOL    MW4 7000   1.128   2.340   3.107  0.4621  0.3562 -0.1240
    1SOL     OW 7001   0.877   2.424   3.045 -0.0310  0.1827  0.0206
    1SOL    HW2 7002   0.787   2.394   3.058  0.0583 -0.1016 -0.0163
    1SOL    HW3 7003   0.885   2.432   2.950 -0.4683  1.5984  0.0867
    1SOL    MW4 7004   0.866   2.421   3.034 -0.0769  0.3321  0.0243
    1SOL     OW 7005   0.927   2.679   3.107 -0.2055  0.3826  0.2275
    1SOL    HW2 7006   0.935   2.698   3.200  0.3166  0.7975  0.0959
    1SOL    HW3 7007   0.909   2.585   3.104 -0.4662  0.4117  0.7547
    1SOL    MW4 7008   0.926   2.669   3.119 -0.1710  0.4413  0.2799
    1SOL     OW 7009   1.154   2.819   3.007  0.5797 -0.5856  0.1702
    1SOL    HW2 7010   1.136   2.905   3.045  0.7738 -0.9104  1.0112
    1SOL    HW3 7011   1.087   2.761   3.044  1.0283 -0.9914  0.3627
    1SOL    MW4 7012   1.143   2.823   3.017  0.6646 -0.6819  0.3068
    1SOL     OW 7013   1.091   3.076   3.103  0.2153  0.0029  0.8776
    1SOL    HW2 7014   1.167   3.132   3.092 -0.0627  0.0380 -1.0733
    1SOL    HW3 7015   1.019   3.125   3.063 -0.2922 -1.1816  0.3157
    1SOL    MW4 7016   1.091   3.090   3.096  0.1116 -0.1485  0.5460
    1SOL     OW 7017   0.887   3.234   3.016 -0.2793  0.3928 -0.2775
    1SOL    HW2 7018   0.811   3.181   3.039  0.3211 -0.0314  0.7915
    1SOL    HW3 7019   0.898   3.221   2.922 -0.8368 -0.4726 -0.2306
    1SOL    MW4 7020   0.879   3.225   3.007 -0.2736  0.2224 -0.1299
    1SOL     OW 7021   0.930   3.466   3.141 -0.4228  0.2396  0.2429
    1SOL    HW2 7022   0.991   3.514   3.086 -2.2870  0.5622 -1.5932
    1SOL    HW3 7023   0.927   3.378   3.102 -1.7815  0.4826 -0.2372
    1SOL    MW4 7024   0.937   3.461   3.129 -0.8481  0.3142 -0.0627
    1SOL     OW 7025   1.104   3.633   3.003  0.0752 -0.1387  0.1871
    1SOL    HW2 7026   1.184   3.591   3.033  0.9689  0.5634 -1.1890
    1SOL    HW3 7027   1.108   3.721   3.041  0.2510  0.0933 -0.3649
    1SOL    MW4 7028   1.115   3.639   3.012  0.2164 -0.0153 -0.0675
    1SOL     OW 7029   1.135   3.894   3.135 -0.3131  0.4251  0.3003
    1SOL    HW2 7030   1.140   3.899   3.231 -0.0829  0.4772  0.2879
    1SOL    HW3 7031   1.056   3.942   3.112 -0.5754  0.0830  0.4911
    1SOL    MW4 7032   1.125   3.901   3.145 -0.3173  0.3867  0.3240
    1SOL     OW 7033   0.904   4.010   3.037 -0.0019 -0.3120  0.2479
    1SOL    HW2 7034   0.827   3.962   3.066 -0.3165  0.5642  0.8886
    1SOL    HW3 7035   0.905   3.999   2.942 -0.6857 -0.6623  0.2775
    1SOL    MW4 7036   0.894   4.002   3.028 -0.1336 -0.2427  0.3359
    1SOL     OW 7037   0.865   4.262   3.142 -0.2935 -0.4194  0.3095
    1SOL    HW2 7038   0.890   4.174   3.113 -0.5302  0.0363 -1.2986
    1SOL    HW3 7039   0.785   4.281   3.093  0.0726  0.9294  0.2270
    1SOL    MW4 7040   0.857   4.253   3.132 -0.2764 -0.1812  0.0863
    1SOL     OW 7041   1.099   4.378   3.017 -0.0150 -0.0564 -0.0441
    1SOL    HW2 7042   1.018   4.345   3.056  0.4760  0.2324  1.2595
    1SOL    HW3 7043   1.115   4.461   3.062  0.1441  0.6829 -1.4500
    1SOL    MW4 7044   1.091   4.384   3.028  0.0707  0.0796 -0.0575
    1SOL     OW 7045   1.572   4.599   3.099 -0.3965 -0.3969  0.1604
    1SOL    HW2 7046   1.566   4.594   3.194 -0.4975  2.0293  0.3033
    1SOL    HW3 7047   1.498   4.653   3.072  0.4250  0.1068 -1.1725
    1SOL    MW4 7048   1.561   4.605   3.108 -0.3015 -0.0105  0.0033
    1SOL     OW 7049   1.362   0.085   3.020 -0.0346  0.1401 -0.1227
    1SOL    HW2 7050   1.355   0.169   3.064  2.4431  0.2905  0.0388
    1SOL    HW3 7051   1.366   0.107   2.927  0.2701  0.1970 -0.0982
    1SOL    MW4 7052   1.362   0.099   3.013  0.3324  0.1674 -0.0982
    1SOL     OW 7053   1.330   0.356   3.079  0.1489  0.1377 -0.3779
    1SOL    HW2 7054   1.327   0.359   3.175  2.5391 -1.9989 -0.1587
    1SOL    HW3 7055   1.407   0.409   3.057  0.0430  0.0074 -1.0477
    1SOL    MW4 7056   1.340   0.363   3.089  0.4504 -0.1614 -0.4370
    1SOL     OW 7057   1.559   0.489   2.995 -0.0151 -0.0895 -0.2108
    1SOL    HW2 7058   1.549   0.582   3.014  0.7795 -0.3073  1.3499
    1SOL    HW3 7059   1.542   0.482   2.901 -0.1573  1.6147 -0.3309
    1SOL    MW4 7060   1.555   0.501   2.985  0.0710  0.1066 -0.0207
    1SOL     OW 7061   1.545   0.761   3.078  0.3123  0.2102 -0.0388
    1SOL    HW2 7062   1.537   0.729   3.168  0.0535 -2.9367 -1.1150
    1SOL    HW3 7063   1.455   0.786   3.054  0.2505  0.3494  0.3333
    1SOL    MW4 7064   1.532   0.760   3.087  0.2700 -0.1866 -0.1316
    1SOL     OW 7065   1.296   0.864   2.979  0.2069  0.4596 -0.2559
    1SOL    HW2 7066   1.303   0.945   3.029  0.2991 -0.0016  0.4819
    1SOL    HW3 7067   1.221   0.818   3.017  2.1692 -1.3547  1.6147
    1SOL    MW4 7068   1.287   0.869   2.991  0.4780  0.1594  0.0885
    1SOL     OW 7069   1.360   1.113   3.088 -0.1102  0.1375 -0.1138
    1SOL    HW2 7070   1.367   1.129   3.183 -0.4669 -1.8517  0.2743
    1SOL    HW3 7071   1.439   1.153   3.051 -0.3267  1.5761  0.9324
    1SOL    MW4 7072   1.371   1.120   3.096 -0.1858  0.0648  0.0753
    1SOL     OW 7073   1.573   1.252   2.988  0.0003 -0.0421 -0.6625
    1SOL    HW2 7074   1.651   1.219   3.033  0.3790  0.2898 -1.0715
    1SOL    HW3 7075   1.559   1.339   3.026 -1.2835 -0.8527  0.7680
    1SOL    MW4 7076   1.582   1.259   2.999 -0.1192 -0.1051 -0.5276
    1SOL     OW 7077   1.549   1.507   3.085 -0.0796  0.0165  0.3179
    1SOL    HW2 7078   1.626   1.563   3.074  0.7064 -1.0218  0.4348
    1SOL    HW3 7079   1.477   1.557   3.045  0.7561  0.7480 -0.3002
    1SOL    MW4 7080   1.549   1.521   3.078  0.1343 -0.0238  0.2520
    1SOL     OW 7081   1.316   1.667   3.007  0.5435 -0.1947 -0.5468
    1SOL    HW2 7082   1.319   1.761   3.020  0.5949 -0.3228  0.3945
    1SOL    HW3 7083   1.325   1.655   2.912  0.8736  0.7267 -0.6322
    1SOL    MW4 7084   1.318   1.678   2.996  0.5939 -0.0900 -0.4337
    1SOL     OW 7085   1.359   1.934   3.061  0.2436  0.2556  0.0838
    1SOL    HW2 7086   1.365   1.927   3.156  0.1485 -0.4187  0.0447
    1SOL    HW3 7087   1.278   1.982   3.046  0.1260  0.1369  0.3365
    1SOL    MW4 7088   1.349   1.939   3.071  0.2155  0.1512  0.1121
    1SOL     OW 7089   1.584   2.080   2.994 -0.0495  0.4415 -0.4286
    1SOL    HW2 7090   1.502   2.036   3.016 -0.9319  1.4201 -1.6926
    1SOL    HW3 7091   1.580   2.095   2.900  1.9336 -0.1855 -0.6498
    1SOL    MW4 7092   1.573   2.076   2.985  0.0957  0.4876 -0.6244
    1SOL     OW 7093   1.589   2.345   3.091  0.4195  0.0023  0.2500
    1SOL    HW2 7094   1.504   2.382   3.069  0.2547 -0.2998  0.3721
    1SOL    HW3 7095   1.583   2.253   3.063  0.6248 -0.0766  0.4592
    1SOL    MW4 7096   1.577   2.337   3.084  0.4247 -0.0482  0.2935
    1SOL     OW 7097   1.359   2.461   3.003 -0.1712  0.0533 -0.0250
    1SOL    HW2 7098   1.271   2.441   3.035  0.2137  1.1567  1.8728
    1SOL    HW3 7099   1.354   2.450   2.908 -1.8427 -1.7221  0.2333
    1SOL    MW4 7100   1.346   2.457   2.995 -0.3409 -0.0350  0.2594
    1SOL     OW 7101   1.375   2.721   3.125 -0.2068  0.3054  0.2012
    1SOL    HW2 7102   1.382   2.635   3.084  0.3066  0.0358  0.8361
    1SOL    HW3 7103   1.303   2.764   3.079 -0.3570 -0.3990 -0.2336
    1SOL    MW4 7104   1.366   2.715   3.114 -0.1589  0.1769  0.2277
    1SOL     OW 7105   1.592   2.841   3.014  0.0069  0.4597  0.8297
    1SOL    HW2 7106   1.655   2.772   3.037  0.3495  0.7684  0.8155
    1SOL    HW3 7107   1.510   2.812   3.054 -0.6651 -1.5783 -1.8338
    1SOL    MW4 7108   1.590   2.828   3.022 -0.0366  0.2317  0.4764
    1SOL     OW 7109   1.583   3.094   3.130 -0.2179  0.4827  0.1365
    1SOL    HW2 7110   1.583   3.079   3.224 -1.0025 -0.0937  0.0483
    1SOL    HW3 7111   1.583   3.006   3.092 -0.1270  0.7113 -0.3968
    1SOL    MW4 7112   1.583   3.080   3.137 -0.3095  0.4370  0.0546
    1SOL     OW 7113   1.337   3.193   3.063  0.3513 -0.1210  0.0514
    1SOL    HW2 7114   1.413   3.149   3.101 -0.3409 -0.9465  0.5040
    1SOL    HW3 7115   1.349   3.184   2.968  0.2509 -1.2341  0.1365
    1SOL    MW4 7116   1.349   3.186   3.055  0.2468 -0.3767  0.1223
    1SOL     OW 7117   1.311   3.467   3.082  0.1411 -0.1113 -0.0106
    1SOL    HW2 7118   1.341   3.498   3.168  2.8239 -1.1404 -0.5124
    1SOL    HW3 7119   1.328   3.372   3.084 -1.6240 -0.4622 -0.9730
    1SOL    MW4 7120   1.317   3.458   3.094  0.2623 -0.2933 -0.2041
    1SOL     OW 7121   1.570   3.619   2.983 -0.4246  0.0340  0.1064
    1SOL    HW2 7122   1.492   3.566   3.002  1.0870 -2.4078 -0.3431
    1SOL    HW3 7123   1.574   3.622   2.887 -0.0320  0.2660  0.1303
    1SOL    MW4 7124   1.560   3.613   2.973 -0.1733 -0.2580  0.0503
    1SOL     OW 7125   1.573   3.869   3.122  0.4827  0.0017  0.3607
    1SOL    HW2 7126   1.656   3.907   3.091 -0.2475  0.8848 -0.5344
    1SOL    HW3 7127   1.563   3.790   3.069 -0.2057  0.9219 -0.9098
    1SOL    MW4 7128   1.583   3.864   3.111  0.2955  0.2394  0.0749
    1SOL     OW 7129   1.344   4.012   3.011 -0.1314 -0.2831 -0.1100
    1SOL    HW2 7130   1.423   3.980   3.055  0.4462  1.9494  0.5455
    1SOL    HW3 7131   1.273   3.959   3.049  0.6690 -0.1492  1.6351
    1SOL    MW4 7132   1.345   4.000   3.022  0.0504  0.0286  0.2069
    1SOL     OW 7133   1.346   4.268   3.097 -0.1752 -0.0720  0.5586
    1SOL    HW2 7134   1.344   4.176   3.069 -0.5073  0.2070 -0.3474
    1SOL    HW3 7135   1.260   4.303   3.073  0.3944  0.8066 -0.2639
    1SOL    MW4 7136   1.335   4.260   3.090 -0.1438  0.0806  0.3302
    1SOL     OW 7137   1.575   4.359   2.979 -0.4887 -0.0643 -0.6482
    1SOL    HW2 7138   1.494   4.321   3.011  0.1490 -1.0952 -0.2538
    1SOL    HW3 7139   1.577   4.447   3.018 -0.9857 -0.3539  0.0348
    1SOL    MW4 7140   1.565   4.366   2.989 -0.4702 -0.2384 -0.5062
    1SOL     OW 7141   2.053   4.611   3.138 -0.1759 -0.3070  0.0334
    1SOL    HW2 7142   2.008   4.604   3.222 -1.0862 -0.4489 -0.4549
    1SOL    HW3 7143   1.993   4.661   3.083  0.2639 -0.5033 -0.6282
    1SOL    MW4 7144   2.039   4.616   3.142 -0.2379 -0.3519 -0.1180
    1SOL     OW 7145   1.798   0.117   3.059  0.7114 -0.0842 -0.0958
    1SOL    HW2 7146   1.719   0.062   3.060 -0.3783  1.4654  0.1421
    1SOL    HW3 7147   1.820   0.125   2.966 -1.0014  1.6924 -0.3747
    1SOL    MW4 7148   1.790   0.111   3.047  0.3417  0.3547 -0.1011
    1SOL     OW 7149   1.750   0.365   3.181  0.7787 -0.0538 -0.1147
    1SOL    HW2 7150   1.767   0.273   3.160 -1.0846 -0.5856  0.6176
    1SOL    HW3 7151   1.684   0.393   3.118 -0.4289  0.0629  1.1652
    1SOL    MW4 7152   1.744   0.356   3.170  0.3735 -0.1086  0.1507
    1SOL     OW 7153   1.968   0.466   3.042 -0.4600 -0.3686 -0.2845
    1SOL    HW2 7154   1.898   0.445   3.104  0.6882 -0.1352  1.1267
    1SOL    HW3 7155   2.047   0.429   3.082  0.7023  1.8985 -0.3985
    1SOL    MW4 7156   1.969   0.459   3.056 -0.1551 -0.0387 -0.1132
    1SOL     OW 7157   1.966   0.734   3.118 -0.3485 -0.0633 -0.1581
    1SOL    HW2 7158   1.901   0.797   3.088  0.5321  0.7667 -0.3416
    1SOL    HW3 7159   1.946   0.654   3.071 -0.5143  0.5213 -1.0894
    1SOL    MW4 7160   1.954   0.732   3.108 -0.2542  0.1233 -0.3052
    1SOL     OW 7161   1.769   0.893   3.005  0.6131 -0.0199 -0.3458
    1SOL    HW2 7162   1.699   0.836   3.035  1.8244 -1.4108 -0.1072
    1SOL    HW3 7163   1.762   0.891   2.909 -0.5088  0.9386 -0.2977
    1SOL    MW4 7164   1.759   0.886   2.996  0.6250 -0.0769 -0.3083
    1SOL     OW 7165   1.787   1.156   3.120  0.1051  0.6688  0.0252
    1SOL    HW2 7166   1.778   1.141   3.214 -3.1457  0.6544 -0.2432
    1SOL    HW3 7167   1.776   1.069   3.081 -0.3896  0.9434 -0.4598
    1SOL    MW4 7168   1.784   1.142   3.127 -0.3891  0.7030 -0.0741
    1SOL     OW 7169   1.974   1.264   2.974 -0.4127 -0.0167  0.4236
    1SOL    HW2 7170   2.048   1.208   2.995 -0.8502 -0.7773 -0.0662
    1SOL    HW3 7171   1.903   1.231   3.029 -0.7571 -0.1469 -0.0983
    1SOL    MW4 7172   1.974   1.252   2.984 -0.5158 -0.1342  0.2902
    1SOL     OW 7173   1.983   1.506   3.119 -0.2516 -0.0774  0.2768
    1SOL    HW2 7174   1.992   1.476   3.209  1.0244 -1.3404 -0.2550
    1SOL    HW3 7175   1.987   1.426   3.066 -0.6056  0.6822 -0.9225
    1SOL    MW4 7176   1.985   1.492   3.124 -0.1301 -0.1438  0.0484
    1SOL     OW 7177   1.763   1.677   3.052 -0.1315 -0.4572 -0.1101
    1SOL    HW2 7178   1.783   1.767   3.076 -0.6458 -0.5198  0.5749
    1SOL    HW3 7179   1.838   1.627   3.083  1.0272 -0.0371 -2.1543
    1SOL    MW4 7180   1.776   1.682   3.059 -0.0464 -0.4100 -0.2892
    1SOL     OW 7181   1.827   1.942   3.086 -0.1285 -0.0049  0.4368
    1SOL    HW2 7182   1.909   1.970   3.046 -0.3215 -1.1650 -0.7839
    1SOL    HW3 7183   1.761   2.001   3.051 -0.0974 -0.2069  0.0407
    1SOL    MW4 7184   1.829   1.954   3.076 -0.1498 -0.1847  0.2236
    1SOL     OW 7185   2.060   2.060   2.970  0.2680 -0.3672  0.1491
    1SOL    HW2 7186   2.112   1.995   3.019  0.8669  0.5269  0.7243
    1SOL    HW3 7187   2.083   2.144   3.010 -0.4795  0.2086 -0.6059
    1SOL    MW4 7188   2.070   2.063   2.982  0.2482 -0.1733  0.1252
    1SOL     OW 7189   2.094   2.299   3.099  0.3809 -0.6557 -0.3443
    1SOL    HW2 7190   2.153   2.357   3.052  0.6466 -0.6298  0.0237
    1SOL    HW3 7191   2.007   2.337   3.085  0.5455 -0.2212 -0.1774
    1SOL    MW4 7192   2.090   2.311   3.091  0.4377 -0.5949 -0.2739
    1SOL     OW 7193   1.861   2.432   3.016 -0.6825 -0.2511  0.1079
    1SOL    HW2 7194   1.844   2.523   3.041  0.8908 -0.5247  2.3036
    1SOL    HW3 7195   1.784   2.384   3.046 -1.2716  0.2455 -0.5711
    1SOL    MW4 7196   1.849   2.438   3.023 -0.5528 -0.2215  0.3080
    1SOL     OW 7197   1.814   2.680   3.101  0.1776  0.2851 -0.2218
    1SOL    HW2 7198   1.789   2.700   3.191  0.3552 -0.0280 -0.1026
    1SOL    HW3 7199   1.885   2.741   3.082 -1.1425  1.6752 -0.8076
    1SOL    MW4 7200   1.820   2.691   3.110  0.0269  0.4270 -0.2830
    1SOL     OW 7201   2.047   2.823   3.020 -0.2808  0.5038 -0.0364
    1SOL    HW2 7202   2.045   2.918   3.035 -0.5998  0.4820  0.0672
    1SOL    HW3 7203   2.048   2.814   2.924  1.2168  0.6324 -0.0502
    1SOL    MW4 7204   2.047   2.834   3.009 -0.1252  0.5181 -0.0246
    1SOL     OW 7205   2.024   3.073   3.072 -0.3718  0.2063  0.2580
    1SOL    HW2 7206   2.038   3.078   3.167 -1.4799  1.5139  0.3875
    1SOL    HW3 7207   1.946   3.128   3.057 -1.2821 -1.4250 -1.1758
    1SOL    MW4 7208   2.015   3.081   3.083 -0.6380  0.1636  0.0858
    1SOL     OW 7209   1.797   3.223   3.012 -0.3157  0.6306  0.5026
    1SOL    HW2 7210   1.720   3.174   3.041 -0.7739  0.0971 -1.4710
    1SOL    HW3 7211   1.797   3.211   2.917  1.9818  0.9544  0.4406
    1SOL    MW4 7212   1.787   3.215   3.003 -0.0730  0.6030  0.2339
    1SOL     OW 7213   1.832   3.505   3.107  0.3420  0.2384  0.4700
    1SOL    HW2 7214   1.833   3.412   3.082  2.8564  0.7551 -1.4924
    1SOL    HW3 7215   1.766   3.544   3.049 -0.8502 -0.3058  1.4189
    1SOL    MW4 7216   1.823   3.498   3.096  0.5164  0.2346  0.3362
    1SOL     OW 7217   2.062   3.647   3.042  0.2280 -0.9486 -0.3573
    1SOL    HW2 7218   2.059   3.737   3.073 -0.3048 -1.7129  1.8732
    1SOL    HW3 7219   1.977   3.610   3.066  1.2975 -2.7029  0.9012
    1SOL    MW4 7220   2.051   3.654   3.049  0.2987 -1.2805  0.1028
    1SOL     OW 7221   2.054   3.905   3.133 -0.3657 -0.3338  0.0012
    1SOL    HW2 7222   2.039   3.898   3.227  0.4939  0.0362  0.1737
    1SOL    HW3 7223   1.975   3.946   3.099 -0.2282  0.5489  0.7256
    1SOL    MW4 7224   2.042   3.910   3.141 -0.2341 -0.1683  0.1192
    1SOL     OW 7225   1.811   3.992   3.040  0.0764 -0.2533  0.2752
    1SOL    HW2 7226   1.778   4.071   3.083 -0.1623 -0.0914 -0.2001
    1SOL    HW3 7227   1.802   4.010   2.946  1.2373 -0.3344  0.1400
    1SOL    MW4 7228   1.805   4.005   3.033  0.1981 -0.2422  0.1948
    1SOL     OW 7229   1.766   4.247   3.145  0.1298  0.4224  0.1490
    1SOL    HW2 7230   1.844   4.275   3.098 -0.0977 -0.4542 -0.7726
    1SOL    HW3 7231   1.693   4.290   3.099 -0.1186 -0.6783 -0.5049
    1SOL    MW4 7232   1.766   4.256   3.133  0.0671  0.1616 -0.0589
    1SOL     OW 7233   2.025   4.356   3.039 -0.1978 -0.4490  0.1495
    1SOL    HW2 7234   2.033   4.437   3.090 -0.2155 -1.1565  1.3029
    1SOL    HW3 7235   2.006   4.385   2.950  0.8951  0.8465  0.3227
    1SOL    MW4 7236   2.023   4.371   3.034 -0.0563 -0.3719  0.3250
    1SOL     OW 7237   2.506   4.630   3.141 -0.0502  0.5590  0.4848
    1SOL    HW2 7238   2.485   4.539   3.122  0.7997  0.3108  0.6952
    1SOL    HW3 7239   2.442   4.681   3.092 -0.8146 -0.1621  0.7293
    1SOL    MW4 7240   2.495   4.625   3.132 -0.0389  0.4311  0.5448
    1SOL     OW 7241   2.274   0.074   3.004 -0.3622  0.2509 -0.3967
    1SOL    HW2 7242   2.252   0.162   3.035 -1.7044 -0.0518 -0.4450
    1SOL    HW3 7243   2.212   0.016   3.049 -0.6604 -0.4630 -1.6954
    1SOL    MW4 7244   2.263   0.078   3.014 -0.5786  0.1168 -0.5746
    1SOL     OW 7245   2.210   0.326   3.120  0.1099 -0.0979  0.1241
    1SOL    HW2 7246   2.214   0.327   3.216  0.2202 -1.7578  0.1588
    1SOL    HW3 7247   2.289   0.373   3.092 -0.0539  0.6165  0.8401
    1SOL    MW4 7248   2.221   0.332   3.129  0.1028 -0.2226  0.2229
    1SOL     OW 7249   2.427   0.489   3.041 -0.3536  0.2842  0.3437
    1SOL    HW2 7250   2.507   0.459   3.083 -0.8932 -1.6476  0.0113
    1SOL    HW3 7251   2.443   0.480   2.948 -1.3085 -1.0795  0.2963
    1SOL    MW4 7252   2.439   0.484   3.035 -0.5505 -0.1507  0.2935
    1SOL     OW 7253   2.441   0.763   3.127 -0.4333  0.3359  0.1154
    1SOL    HW2 7254   2.527   0.791   3.097 -0.2919 -0.0912  0.1182
    1SOL    HW3 7255   2.428   0.677   3.085 -0.8615  0.4060  0.0996
    1SOL    MW4 7256   2.450   0.755   3.117 -0.4709  0.2887  0.1135
    1SOL     OW 7257   2.183   0.878   3.039  0.1703 -0.6613  0.1280
    1SOL    HW2 7258   2.254   0.828   3.080  0.4026 -0.4220  0.0165
    1SOL    HW3 7259   2.104   0.830   3.063  0.3105 -0.5602  0.7945
    1SOL    MW4 7260   2.182   0.865   3.048  0.2196 -0.6164  0.2012
    1SOL     OW 7261   2.202   1.149   3.067  0.5312 -0.2674 -0.3237
    1SOL    HW2 7262   2.218   1.166   3.160  0.6357  0.5227 -0.4851
    1SOL    HW3 7263   2.182   1.055   3.064  0.1975 -0.2365  0.5387
    1SOL    MW4 7264   2.202   1.138   3.079  0.5012 -0.1589 -0.2313
    1SOL     OW 7265   2.467   1.230   3.003 -0.0859  0.6055  0.1355
    1SOL    HW2 7266   2.392   1.173   3.018  0.6177 -0.6617 -1.0284
    1SOL    HW3 7267   2.469   1.243   2.908  2.1925 -0.8778 -0.0801
    1SOL    MW4 7268   2.457   1.224   2.993  0.3078  0.2427 -0.0465
    1SOL     OW 7269   2.483   1.502   3.108  0.1375 -0.3456 -0.1457
    1SOL    HW2 7270   2.396   1.529   3.080  0.8961  0.6308 -1.6842
    1SOL    HW3 7271   2.493   1.412   3.076 -0.0081 -0.1667 -0.6995
    1SOL    MW4 7272   2.473   1.494   3.100  0.2182 -0.1931 -0.4220
    1SOL     OW 7273   2.235   1.612   3.052  0.0283 -0.2806 -0.3616
    1SOL    HW2 7274   2.149   1.571   3.064 -0.1157  0.0927 -0.0883
    1SOL    HW3 7275   2.241   1.629   2.958 -0.3881  0.0950 -0.3240
    1SOL    MW4 7276   2.224   1.609   3.042 -0.0460 -0.1819 -0.3202
    1SOL     OW 7277   2.236   1.885   3.098  0.3298 -0.5497 -0.2842
    1SOL    HW2 7278   2.318   1.923   3.067  0.8591 -0.7957  0.7772
    1SOL    HW3 7279   2.246   1.791   3.085 -0.1146 -0.5122 -0.9126
    1SOL    MW4 7280   2.248   1.877   3.092  0.3409 -0.5772 -0.2272
    1SOL     OW 7281   2.477   2.026   3.045 -0.2065  0.1254  0.4333
    1SOL    HW2 7282   2.567   2.018   3.074 -0.0842 -0.4914 -0.0841
    1SOL    HW3 7283   2.483   2.029   2.949 -0.6016  2.0332  0.4599
    1SOL    MW4 7284   2.489   2.025   3.036 -0.2425  0.2959  0.3681
    1SOL     OW 7285   2.519   2.297   3.122  0.0702 -0.1157  0.1637
    1SOL    HW2 7286   2.514   2.295   3.217  1.0614 -0.2280  0.2236
    1SOL    HW3 7287   2.515   2.204   3.096 -1.1295 -0.0417  0.0278
    1SOL    MW4 7288   2.518   2.284   3.131  0.0427 -0.1209  0.1535
    1SOL     OW 7289   2.308   2.444   2.994 -0.3724 -0.0198 -0.2400
    1SOL    HW2 7290   2.310   2.526   3.042  0.5051  1.5812 -2.9094
    1SOL    HW3 7291   2.385   2.396   3.023  0.2474  1.0115 -0.1789
    1SOL    MW4 7292   2.318   2.448   3.004 -0.1748  0.3276 -0.5839
    1SOL     OW 7293   2.277   2.712   3.126 -0.6040  0.4287 -0.3689
    1SOL    HW2 7294   2.351   2.765   3.096  0.4527 -0.9213 -0.1871
    1SOL    HW3 7295   2.200   2.758   3.092  0.3912  0.9298 -2.0524
    1SOL    MW4 7296   2.277   2.725   3.117 -0.3335  0.3166 -0.5670
    1SOL     OW 7297   2.514   2.835   3.016 -0.3470 -0.2014  0.3416
    1SOL    HW2 7298   2.505   2.927   3.039  0.6691 -0.2252  0.8724
    1SOL    HW3 7299   2.484   2.830   2.925  0.3410  0.8045  0.0479
    1SOL    MW4 7300   2.509   2.846   3.007 -0.1223 -0.0718  0.3731
    1SOL     OW 7301   2.484   3.094   3.094  0.2305  0.1372  0.3938
    1SOL    HW2 7302   2.565   3.145   3.093 -0.1025  0.6714  0.5597
    1SOL    HW3 7303   2.418   3.153   3.057  0.2117 -0.7998 -1.1157
    1SOL    MW4 7304   2.486   3.109   3.089  0.1841  0.0842  0.2167
    1SOL     OW 7305   2.257   3.247   2.998  0.2164  0.4289  0.4697
    1SOL    HW2 7306   2.262   3.330   3.044 -1.6995  0.4389  0.6684
    1SOL    HW3 7307   2.177   3.205   3.030  0.0323 -0.5499 -1.1773
    1SOL    MW4 7308   2.247   3.252   3.008 -0.0606  0.3011  0.2785
    1SOL     OW 7309   2.276   3.504   3.137  0.0058  0.3093  0.3359
    1SOL    HW2 7310   2.342   3.539   3.077  0.0153 -0.5385 -0.1612
    1SOL    HW3 7311   2.197   3.556   3.119  0.4019  1.0154  0.6067
    1SOL    MW4 7312   2.274   3.516   3.126  0.0594  0.2904  0.3059
    1SOL     OW 7313   2.458   3.630   2.971 -0.1481  0.4208 -0.1788
    1SOL    HW2 7314   2.530   3.593   3.022  1.0747  1.3883 -1.1704
    1SOL    HW3 7315   2.454   3.722   2.998 -0.4771  0.5736 -0.7276
    1SOL    MW4 7316   2.467   3.637   2.981 -0.0303  0.5689 -0.3819
    1SOL     OW 7317   2.473   3.876   3.105 -0.3824 -0.3290  0.2738
    1SOL    HW2 7318   2.472   3.892   3.200  0.9230 -2.3929  0.6653
    1SOL    HW3 7319   2.564   3.890   3.079 -0.6641 -0.1159 -0.6061
    1SOL    MW4 7320   2.485   3.880   3.114 -0.2475 -0.5732  0.2093
    1SOL     OW 7321   2.266   3.989   2.972 -0.1290 -0.1675  0.6531
    1SOL    HW2 7322   2.342   3.946   3.011 -0.5671  0.6373  2.4460
    1SOL    HW3 7323   2.191   3.942   3.009 -0.5397  0.3399  0.4678
    1SOL    MW4 7324   2.266   3.977   2.982 -0.2410  0.0057  0.8652
    1SOL     OW 7325   2.257   4.226   3.124  0.2090  0.3025 -0.2368
    1SOL    HW2 7326   2.251   4.136   3.090 -1.9753 -0.2591  1.5065
    1SOL    HW3 7327   2.178   4.269   3.091  1.0055  1.4748 -0.6563
    1SOL    MW4 7328   2.246   4.220   3.115  0.0260  0.3829 -0.0622
    1SOL     OW 7329   2.493   4.344   3.034 -0.1075 -0.2936 -0.0427
    1SOL    HW2 7330   2.406   4.314   3.061 -0.8437  2.1549  0.4472
    1SOL    HW3 7331   2.492   4.335   2.938 -1.2538  0.5680 -0.1271
    1SOL    MW4 7332   2.481   4.339   3.025 -0.3557  0.1431  0.0105
    1SOL     OW 7333   2.933   4.594   3.136  0.1670 -0.3676 -0.2897
    1SOL    HW2 7334   3.005   4.639   3.093  0.6917 -0.9319 -0.0053
    1SOL    HW3 7335   2.936   4.504   3.103  0.0360 -0.5788  0.2605
    1SOL    MW4 7336   2.943   4.588   3.126  0.2189 -0.4697 -0.1795
    1SOL     OW 7337   2.715   0.112   3.056  0.1181 -0.2572  0.0065
    1SOL    HW2 7338   2.799   0.075   3.082 -0.5676 -1.8322 -0.0028
    1SOL    HW3 7339   2.650   0.049   3.086 -1.0967  1.1448  0.3878
    1SOL    MW4 7340   2.717   0.099   3.063 -0.1326 -0.2800  0.0553
    1SOL     OW 7341   2.671   0.371   3.171  0.1849  0.2998 -0.1419
    1SOL    HW2 7342   2.681   0.279   3.145 -1.0225  0.0334  0.3077
    1SOL    HW3 7343   2.695   0.372   3.264  0.0722  0.4252 -0.1157
    1SOL    MW4 7344   2.676   0.359   3.180  0.0107  0.2812 -0.0796
    1SOL     OW 7345   2.905   0.433   3.041  0.1868 -0.3065  0.1055
    1SOL    HW2 7346   2.816   0.406   3.063  0.5574 -2.0156 -0.3968
    1SOL    HW3 7347   2.897   0.477   2.957 -0.4728  1.4584  1.0716
    1SOL    MW4 7348   2.892   0.435   3.033  0.1485 -0.2992  0.1667
    1SOL     OW 7349   2.916   0.712   3.154 -0.0767 -0.2629 -0.0920
    1SOL    HW2 7350   2.928   0.723   3.249  0.1822 -0.8618 -0.0540
    1SOL    HW3 7351   2.932   0.619   3.139  0.5797 -0.0325 -0.8308
    1SOL    MW4 7352   2.920   0.702   3.165  0.0443 -0.3116 -0.1845
    1SOL     OW 7353   2.683   0.842   3.064 -0.3520 -0.1140 -0.1788
    1SOL    HW2 7354   2.684   0.931   3.097  0.4956 -0.6722  1.3475
    1SOL    HW3 7355   2.763   0.803   3.098 -0.3370 -1.2283 -1.4628
    1SOL    MW4 7356   2.694   0.848   3.073 -0.2382 -0.3347 -0.1466
    1SOL     OW 7357   2.681   1.104   3.136 -0.1662 -0.4861 -0.0815
    1SOL    HW2 7358   2.754   1.152   3.098 -0.7519  1.0871  0.7630
    1SOL    HW3 7359   2.604   1.136   3.089 -0.5163 -0.9016  0.1996
    1SOL    MW4 7360   2.680   1.114   3.125 -0.2897 -0.3334  0.0668
    1SOL     OW 7361   2.894   1.236   3.016  0.1554 -0.2018 -0.5529
    1SOL    HW2 7362   2.980   1.194   3.009  0.6590  0.7565 -0.1582
    1SOL    HW3 7363   2.913   1.328   3.034 -0.9497  0.1232 -0.9981
    1SOL    MW4 7364   2.908   1.243   3.018  0.0761 -0.0327 -0.5593
    1SOL     OW 7365   2.929   1.513   3.100 -0.1252  0.4707 -0.2646
    1SOL    HW2 7366   2.942   1.529   3.193  0.2629 -0.9840 -0.0651
    1SOL    HW3 7367   2.987   1.576   3.056  1.7450 -0.6766  0.5162
    1SOL    MW4 7368   2.938   1.523   3.106  0.1729  0.1274 -0.1349
    1SOL     OW 7369   2.701   1.656   3.037 -0.7787  0.1146  0.6061
    1SOL    HW2 7370   2.768   1.588   3.048 -0.7948 -0.0709 -0.3926
    1SOL    HW3 7371   2.620   1.615   3.065 -0.7940 -0.2942 -0.0283
    1SOL    MW4 7372   2.699   1.642   3.042 -0.7827  0.0361  0.3905
    1SOL     OW 7373   2.736   1.932   3.161 -0.3125 -0.1880  0.1861
    1SOL    HW2 7374   2.789   1.990   3.105  0.1275  0.0477  0.8317
    1SOL    HW3 7375   2.736   1.848   3.115 -0.1151  0.0555 -0.2660
    1SOL    MW4 7376   2.743   1.929   3.147 -0.2284 -0.1248  0.2117
    1SOL     OW 7377   2.909   2.079   3.014  0.4625 -0.1877 -0.4542
    1SOL    HW2 7378   2.908   2.170   3.046  1.5731 -0.0624 -0.7548
    1SOL    HW3 7379   2.910   2.088   2.919  0.5412 -0.5162 -0.4840
    1SOL    MW4 7380   2.909   2.092   3.006  0.6194 -0.2143 -0.4976
    1SOL     OW 7381   2.905   2.327   3.151  0.0740 -0.1358  0.0498
    1SOL    HW2 7382   2.995   2.357   3.136 -0.2832  1.0234  0.2008
    1SOL    HW3 7383   2.852   2.383   3.094 -0.6516 -0.1625  0.7020
    1SOL    MW4 7384   2.910   2.338   3.141 -0.0691  0.0136  0.1557
    1SOL     OW 7385   2.707   2.481   3.000  0.4585 -0.1269 -0.2075
    1SOL    HW2 7386   2.701   2.553   3.063  0.9481 -1.3104  1.2165
    1SOL    HW3 7387   2.647   2.415   3.033  1.1550 -0.9949 -0.6497
    1SOL    MW4 7388   2.698   2.482   3.013  0.6151 -0.3974 -0.0780
    1SOL     OW 7389   2.721   2.707   3.163 -0.3187 -0.1939  0.2476
    1SOL    HW2 7390   2.694   2.712   3.255  0.0050  3.9756  0.2208
    1SOL    HW3 7391   2.650   2.752   3.116  0.7057 -0.1251 -1.2422
    1SOL    MW4 7392   2.708   2.714   3.169 -0.1409  0.3657  0.0479
    1SOL     OW 7393   2.927   2.836   3.005  0.1212  0.2513 -0.1848
    1SOL    HW2 7394   3.010   2.801   3.037  0.4101  0.6462 -0.4927
    1SOL    HW3 7395   2.860   2.793   3.058  0.5648  0.5306  0.6039
    1SOL    MW4 7396   2.929   2.826   3.016  0.2179  0.3405 -0.1214
    1SOL     OW 7397   2.944   3.091   3.119  0.1816  0.2447  0.6105
    1SOL    HW2 7398   2.861   3.137   3.107 -0.1592 -0.4947  0.1193
    1SOL    HW3 7399   2.930   3.005   3.078  1.2648  0.2119  0.3022
    1SOL    MW4 7400   2.931   3.086   3.112  0.2797  0.1428  0.5052
    1SOL     OW 7401   2.738   3.263   3.072 -0.0417  0.3660 -0.5494
    1SOL    HW2 7402   2.713   3.355   3.083  0.5874  0.6682 -1.5281
    1SOL    HW3 7403   2.729   3.248   2.978  0.3722 -0.4273 -0.4616
    1SOL    MW4 7404   2.734   3.273   3.061  0.0958  0.3009 -0.6669
    1SOL     OW 7405   2.678   3.536   3.108  0.3520  0.2311 -0.1115
    1SOL    HW2 7406   2.666   3.528   3.203  2.9446 -1.0965  0.1398
    1SOL    HW3 7407   2.767   3.570   3.098 -0.3051  1.4755 -2.0628
    1SOL    MW4 7408   2.688   3.540   3.120  0.6075  0.2201 -0.3359
    1SOL     OW 7409   2.931   3.606   3.006 -0.3036  0.0228 -0.3303
    1SOL    HW2 7410   2.991   3.546   3.051 -0.3389 -1.3611 -2.0867
    1SOL    HW3 7411   2.955   3.693   3.038  0.7772 -0.7851  1.0803
    1SOL    MW4 7412   2.942   3.610   3.016 -0.1657 -0.2666 -0.3757
    1SOL     OW 7413   2.966   3.853   3.125  0.4362 -0.1476  0.1368
    1SOL    HW2 7414   2.964   3.866   3.220  0.6678 -0.6724  0.2157
    1SOL    HW3 7415   2.890   3.901   3.093  0.6388  0.4430  0.5395
    1SOL    MW4 7416   2.956   3.861   3.134  0.4935 -0.1392  0.2005
    1SOL     OW 7417   2.726   3.945   3.004  0.1164  0.4089  0.0476
    1SOL    HW2 7418   2.713   4.034   3.037 -1.8318  0.5142 -0.9273
    1SOL    HW3 7419   2.716   3.953   2.909 -0.2068 -0.8798 -0.0317
    1SOL    MW4 7420   2.723   3.958   2.996 -0.1833  0.2527 -0.0916
    1SOL     OW 7421   2.704   4.189   3.132 -0.0466 -0.4475 -0.1676
    1SOL    HW2 7422   2.710   4.177   3.226 -0.4817 -1.7965 -0.2897
    1SOL    HW3 7423   2.624   4.239   3.119 -0.2529 -0.6968  0.1453
    1SOL    MW4 7424   2.694   4.194   3.142 -0.1311 -0.6585 -0.1423
    1SOL     OW 7425   2.920   4.338   3.000 -0.1816  0.2950  0.4610
    1SOL    HW2 7426   3.001   4.306   3.039 -0.0723 -0.2502 -0.2029
    1SOL    HW3 7427   2.851   4.289   3.044 -0.1055  0.2413  0.5212
    1SOL    MW4 7428   2.922   4.328   3.011 -0.1571  0.2155  0.3812
    1SOL     OW 7429   3.356   4.633   3.143  0.1026  0.0052 -0.2554
    1SOL    HW2 7430   3.428   4.684   3.106  0.3511 -0.4376 -0.3893
    1SOL    HW3 7431   3.356   4.551   3.093  1.5370 -1.3185  1.8318
    1SOL    MW4 7432   3.365   4.629   3.131  0.3245 -0.2279  0.0021
    1SOL     OW 7433   3.125   0.086   3.021 -0.0784 -0.1486  0.2177
    1SOL    HW2 7434   3.116   0.176   3.052  0.0357  0.2822 -0.9584
    1SOL    HW3 7435   3.199   0.051   3.070  0.3628  0.6490  0.1353
    1SOL    MW4 7436   3.133   0.093   3.032 -0.0052  0.0135  0.0520
    1SOL     OW 7437   3.141   0.344   3.158  0.2646 -0.3643 -0.7394
    1SOL    HW2 7438   3.215   0.385   3.114  0.0341  1.8334  0.8892
    1SOL    HW3 7439   3.064   0.387   3.121 -0.0520 -0.2877  0.0075
    1SOL    MW4 7440   3.140   0.355   3.147  0.1926 -0.0642 -0.4261
    1SOL     OW 7441   3.348   0.474   3.012 -0.2573  0.0924  0.4746
    1SOL    HW2 7442   3.421   0.415   3.030  0.3640  1.0278  1.0581
    1SOL    HW3 7443   3.333   0.466   2.918 -0.4743 -1.3325  0.6266
    1SOL    MW4 7444   3.356   0.465   3.002 -0.2041  0.0278  0.5715
    1SOL     OW 7445   3.383   0.751   3.121  0.2108 -0.3563  0.3176
    1SOL    HW2 7446   3.374   0.748   3.216 -1.9850  0.1356  0.1579
    1SOL    HW3 7447   3.398   0.660   3.095 -0.2167 -0.6411  1.0631
    1SOL    MW4 7448   3.384   0.738   3.130 -0.1357 -0.3290  0.3948
    1SOL     OW 7449   3.118   0.851   3.025  0.0539  0.0437 -0.0892
    1SOL    HW2 7450   3.199   0.807   3.049  0.2834  0.7811  0.5178
    1SOL    HW3 7451   3.051   0.809   3.078  0.1941  0.1004  0.1338
    1SOL    MW4 7452   3.120   0.840   3.035  0.1025  0.1485  0.0203
    1SOL     OW 7453   3.161   1.117   3.069  0.2496  0.1448  0.3134
    1SOL    HW2 7454   3.243   1.144   3.027 -0.1042 -1.1981 -1.2778
    1SOL    HW3 7455   3.156   1.023   3.054 -1.5126  0.1888  0.5332
    1SOL    MW4 7456   3.171   1.108   3.062 -0.0296 -0.0265  0.1326
    1SOL     OW 7457   3.360   1.287   2.990 -0.1974  0.2521 -0.1523
    1SOL    HW2 7458   3.412   1.235   3.051 -0.0008  0.3482 -0.2399
    1SOL    HW3 7459   3.359   1.375   3.027  0.5621  0.4929 -0.6798
    1SOL    MW4 7460   3.366   1.292   3.003 -0.0710  0.2966 -0.2332
    1SOL     OW 7461   3.359   1.551   3.104  0.1272 -0.2048 -0.3169
    1SOL    HW2 7462   3.377   1.534   3.196 -0.6435  1.0098  0.0615
    1SOL    HW3 7463   3.436   1.598   3.073  0.1108 -0.0482 -0.1234
    1SOL    MW4 7464   3.372   1.555   3.112  0.0231 -0.0238 -0.2415
    1SOL     OW 7465   3.129   1.669   2.998 -0.5069 -0.5527 -0.0935
    1SOL    HW2 7466   3.215   1.636   3.021 -0.1004 -0.4608 -1.4394
    1SOL    HW3 7467   3.126   1.757   3.035 -0.3597 -0.8686  0.6858
    1SOL    MW4 7468   3.140   1.676   3.006 -0.4339 -0.5825 -0.1683
    1SOL     OW 7469   3.129   1.924   3.106  0.1880 -0.0622  0.1375
    1SOL    HW2 7470   3.136   1.922   3.201 -1.4596 -0.7282  0.2526
    1SOL    HW3 7471   3.048   1.972   3.088  1.1564  1.2007 -0.9686
    1SOL    MW4 7472   3.119   1.930   3.116  0.0987  0.0167  0.0069
    1SOL     OW 7473   3.344   2.071   2.988  0.1228  0.1079  0.0982
    1SOL    HW2 7474   3.417   2.014   3.011  0.1586 -0.0106 -0.3092
    1SOL    HW3 7475   3.268   2.031   3.032  0.3318  0.3390  0.6781
    1SOL    MW4 7476   3.343   2.058   2.997  0.1552  0.1228  0.1206
    1SOL     OW 7477   3.409   2.349   3.096 -0.5980  0.0112 -0.2658
    1SOL    HW2 7478   3.394   2.360   3.190 -0.0442 -0.1133 -0.1583
    1SOL    HW3 7479   3.390   2.256   3.080 -1.0071  0.1088 -0.3367
    1SOL    MW4 7480   3.404   2.338   3.106 -0.5789  0.0076 -0.2608
    1SOL     OW 7481   3.138   2.424   3.035 -0.0805  0.2747 -0.3740
    1SOL    HW2 7482   3.231   2.404   3.042 -0.5291 -1.2537  1.9459
    1SOL    HW3 7483   3.131   2.516   3.063  0.6816  0.2747 -0.1624
    1SOL    MW4 7484   3.149   2.434   3.040 -0.0391  0.0732 -0.0401
    1SOL     OW 7485   3.142   2.691   3.121 -0.4034 -0.6627 -0.0772
    1SOL    HW2 7486   3.219   2.735   3.084  0.0149 -1.8751 -0.6708
    1SOL    HW3 7487   3.149   2.705   3.215  0.9079 -1.3067 -0.0611
    1SOL    MW4 7488   3.153   2.699   3.128 -0.1752 -0.9079 -0.1531
    1SOL     OW 7489   3.343   2.865   3.001 -0.5799  0.0481  0.1107
    1SOL    HW2 7490   3.419   2.813   3.024  0.7770  1.9945  0.1635
    1SOL    HW3 7491   3.362   2.952   3.037 -2.6832  0.6442 -0.1487
    1SOL    MW4 7492   3.355   2.870   3.009 -0.6783  0.3834  0.0834
    1SOL     OW 7493   3.393   3.114   3.121  0.2539  0.4760  0.1694
    1SOL    HW2 7494   3.305   3.151   3.113  0.1274  0.1965  0.2784
    1SOL    HW3 7495   3.409   3.110   3.215 -0.1293 -0.6853  0.1939
    1SOL    MW4 7496   3.383   3.119   3.132  0.1869  0.2859  0.1872
    1SOL     OW 7497   3.154   3.250   3.034  0.0964  0.0372 -0.5009
    1SOL    HW2 7498   3.074   3.203   3.055 -0.1304  0.6032 -0.1035
    1SOL    HW3 7499   3.165   3.237   2.939 -0.3783 -0.1644 -0.5277
    1SOL    MW4 7500   3.145   3.242   3.024  0.0041  0.0851 -0.4520
    1SOL     OW 7501   3.151   3.510   3.153 -0.3452 -0.0032 -0.5310
    1SOL    HW2 7502   3.223   3.555   3.110 -1.2747  0.7864 -1.2695
    1SOL    HW3 7503   3.153   3.422   3.116  0.9265 -0.3419  0.2797
    1SOL    MW4 7504   3.161   3.504   3.142 -0.2999  0.0565 -0.5217
    1SOL     OW 7505   3.375   3.624   3.033  0.0243  0.1313 -0.1709
    1SOL    HW2 7506   3.450   3.568   3.056 -0.6309 -0.5374  0.3721
    1SOL    HW3 7507   3.394   3.707   3.076 -0.0053 -0.3443  0.7952
    1SOL    MW4 7508   3.388   3.627   3.042 -0.0658 -0.0196  0.0279
    1SOL     OW 7509   3.418   3.892   3.127  0.2842 -0.6424 -0.0697
    1SOL    HW2 7510   3.403   3.891   3.222  0.0850 -1.3580 -0.1015
    1SOL    HW3 7511   3.358   3.959   3.094  0.2360 -0.5046  0.2925
    1SOL    MW4 7512   3.408   3.901   3.135  0.2515 -0.7188 -0.0260
    1SOL     OW 7513   3.186   3.994   3.020 -0.3413  0.2987 -0.8119
    1SOL    HW2 7514   3.116   3.941   3.057 -1.7266  2.1188 -0.7476
    1SOL    HW3 7515   3.157   4.012   2.930  0.4482  0.3573 -1.0558
    1SOL    MW4 7516   3.173   3.989   3.013 -0.4201  0.5467 -0.8357
    1SOL     OW 7517   3.158   4.250   3.106  0.7238  0.3648  0.1203
    1SOL    HW2 7518   3.139   4.250   3.199  1.6575 -1.1718  0.3172
    1SOL    HW3 7519   3.157   4.158   3.080  1.7449  0.6796 -1.1208
    1SOL    MW4 7520   3.156   4.238   3.115  0.9818  0.2031 -0.0176
    1SOL     OW 7521   3.367   4.393   3.010  1.1735 -0.3236  0.2377
    1SOL    HW2 7522   3.445   4.345   3.039  1.1275 -1.3562 -1.3318
    1SOL    HW3 7523   3.293   4.343   3.046  1.1988  0.2936  1.1748
    1SOL    MW4 7524   3.368   4.380   3.019  1.1706 -0.3786  0.1543
    1SOL     OW 7525   3.809   4.662   3.165  0.4668 -0.1047  0.0462
    1SOL    HW2 7526   3.814   4.577   3.122  0.3853  0.2043 -0.5895
    1SOL    HW3 7527   3.723   4.697   3.139 -0.5958 -0.8970  2.3528
    1SOL    MW4 7528   3.798   4.656   3.156  0.3159 -0.1688  0.2668
    1SOL     OW 7529   3.581   0.095   3.027 -0.2821 -0.0877 -0.2849
    1SOL    HW2 7530   3.584   0.183   3.065  0.0089  0.5102 -1.6735
    1SOL    HW3 7531   3.574   0.110   2.933  1.9771 -1.5344 -0.7223
    1SOL    MW4 7532   3.580   0.109   3.020  0.0544 -0.1997 -0.5257
    1SOL     OW 7533   3.564   0.350   3.138  0.3169  0.4133  0.3461
    1SOL    HW2 7534   3.538   0.356   3.230  1.1500  0.8455  0.5638
    1SOL    HW3 7535   3.647   0.398   3.134  0.2612  0.4294 -0.6398
    1SOL    MW4 7536   3.572   0.357   3.149  0.4194  0.4724  0.2446
    1SOL     OW 7537   3.787   0.506   3.034 -0.0448 -0.2079 -0.1293
    1SOL    HW2 7538   3.868   0.488   3.080  0.6231  0.7368 -0.9090
    1SOL    HW3 7539   3.768   0.598   3.053 -0.0366  0.0487 -1.3074
    1SOL    MW4 7540   3.795   0.516   3.043  0.0446 -0.0494 -0.3874
    1SOL     OW 7541   3.780   0.796   3.116  0.1547  0.4290 -0.9474
    1SOL    HW2 7542   3.774   0.792   3.211  0.2705  1.7120 -0.8741
    1SOL    HW3 7543   3.871   0.824   3.099  0.2153 -0.0594 -1.4392
    1SOL    MW4 7544   3.791   0.799   3.126  0.1781  0.5338 -1.0026
    1SOL     OW 7545   3.575   0.871   2.948 -0.4170  0.3916  0.2052
    1SOL    HW2 7546   3.646   0.867   3.012  0.8835 -0.0439 -1.2447
    1SOL    HW3 7547   3.502   0.827   2.991  0.4128  0.1814  1.4182
    1SOL    MW4 7548   3.575   0.865   2.962 -0.1361  0.3064  0.1738
    1SOL     OW 7549   3.550   1.109   3.106  0.0119 -0.0489  0.6077
    1SOL    HW2 7550   3.631   1.156   3.088 -0.7639  0.6234 -1.3577
    1SOL    HW3 7551   3.548   1.039   3.040 -0.5497 -0.6226  1.2283
    1SOL    MW4 7552   3.560   1.106   3.095 -0.1645 -0.0359  0.4306
    1SOL     OW 7553   3.769   1.256   2.985  0.3523  0.0297  0.2139
    1SOL    HW2 7554   3.765   1.344   3.022  1.6753 -0.1040  0.7328
    1SOL    HW3 7555   3.786   1.269   2.892 -0.0652  0.3344  0.1818
    1SOL    MW4 7556   3.771   1.269   2.978  0.4716  0.0522  0.2782
    1SOL     OW 7557   3.792   1.518   3.099  0.5456  0.4190  0.1796
    1SOL    HW2 7558   3.781   1.549   3.189 -0.7792  0.4321  0.0154
    1SOL    HW3 7559   3.723   1.563   3.050  0.2073 -0.8684 -0.5327
    1SOL    MW4 7560   3.782   1.528   3.104  0.3262  0.2509  0.0641
    1SOL     OW 7561   3.588   1.640   2.965 -0.0290  0.2320 -0.0237
    1SOL    HW2 7562   3.597   1.730   2.997  1.0406 -0.1716  0.8529
    1SOL    HW3 7563   3.583   1.648   2.870  2.6013  1.0598 -0.1404
    1SOL    MW4 7564   3.589   1.653   2.957  0.4590  0.2881  0.0765
    1SOL     OW 7565   3.582   1.936   3.068  0.0638  0.2271  0.0367
    1SOL    HW2 7566   3.588   1.941   3.164 -1.6193  2.1988  0.0600
    1SOL    HW3 7567   3.666   1.969   3.037  0.4192  0.0717  0.8205
    1SOL    MW4 7568   3.594   1.941   3.077 -0.1116  0.4667  0.1431
    1SOL     OW 7569   3.836   2.069   3.004 -0.2631 -0.5478  0.0019
    1SOL    HW2 7570   3.854   2.161   3.022 -0.7835 -0.6201  0.9169
    1SOL    HW3 7571   3.840   2.062   2.909  1.6753  0.0316  0.0129
    1SOL    MW4 7572   3.839   2.080   2.994 -0.0758 -0.4809  0.1242
    1SOL     OW 7573   3.819   2.338   3.097  0.2368  0.3965 -0.4131
    1SOL    HW2 7574   3.821   2.342   3.193  0.1440  0.6013 -0.4192
    1SOL    HW3 7575   3.743   2.390   3.073 -0.2982 -0.4438 -0.5551
    1SOL    MW4 7576   3.809   2.346   3.107  0.1538  0.3126 -0.4330
    1SOL     OW 7577   3.618   2.467   2.981 -0.0087 -0.0643 -0.5583
    1SOL    HW2 7578   3.609   2.559   3.005 -0.2075 -0.2422  0.0569
    1SOL    HW3 7579   3.548   2.422   3.028  1.2652 -0.8055  0.6991
    1SOL    MW4 7580   3.608   2.473   2.991  0.1333 -0.1857 -0.3111
    1SOL     OW 7581   3.581   2.733   3.070 -0.0426 -0.1342  0.3362
    1SOL    HW2 7582   3.597   2.704   3.160  0.8854 -0.1726  0.1586
    1SOL    HW3 7583   3.658   2.784   3.047 -0.4611  0.2157 -0.3006
    1SOL    MW4 7584   3.593   2.736   3.079  0.0246 -0.0930  0.2284
    1SOL     OW 7585   3.818   2.827   2.979 -0.4397 -0.0949 -0.3166
    1SOL    HW2 7586   3.808   2.912   3.023 -3.1901 -0.6941  0.3279
    1SOL    HW3 7587   3.807   2.847   2.886  0.1409  0.4263 -0.2779
    1SOL    MW4 7588   3.815   2.841   2.973 -0.7260 -0.1051 -0.2265
    1SOL     OW 7589   3.810   3.112   3.106  0.1704 -0.2568 -0.1607
    1SOL    HW2 7590   3.900   3.134   3.082  0.0881 -2.0914 -2.3162
    1SOL    HW3 7591   3.756   3.166   3.049 -0.0652 -0.6871 -0.3490
    1SOL    MW4 7592   3.815   3.122   3.096  0.1285 -0.5555 -0.4702
    1SOL     OW 7593   3.596   3.248   2.997  0.0070  0.2746 -0.0691
    1SOL    HW2 7594   3.526   3.194   3.032  1.4276 -1.8340 -0.3744
    1SOL    HW3 7595   3.589   3.238   2.902  0.4563  0.3835 -0.1160
    1SOL    MW4 7596   3.586   3.240   2.989  0.2534  0.0107 -0.1156
    1SOL     OW 7597   3.616   3.508   3.108 -0.0086  0.5863 -0.1833
    1SOL    HW2 7598   3.687   3.537   3.049  0.3399 -0.3010 -0.2096
    1SOL    HW3 7599   3.602   3.417   3.084  0.5237  0.0527  1.5060
    1SOL    MW4 7600   3.624   3.500   3.097  0.1075  0.3991  0.0358
    1SOL     OW 7601   3.862   3.606   2.968  0.0584  0.4074 -0.2688
    1SOL    HW2 7602   3.856   3.691   3.011 -0.0592  0.5417 -0.5453
    1SOL    HW3 7603   3.837   3.624   2.877  0.5254  0.1710 -0.4432
    1SOL    MW4 7604   3.858   3.620   2.962  0.1044  0.3939 -0.3281
    1SOL     OW 7605   3.869   3.853   3.102  0.1619 -0.0726 -0.0780
    1SOL    HW2 7606   3.860   3.860   3.197  0.4697  3.1083 -0.2008
    1SOL    HW3 7607   3.810   3.921   3.068  0.7335 -0.5676 -2.1241
    1SOL    MW4 7608   3.860   3.863   3.110  0.2778  0.2818 -0.3641
    1SOL     OW 7609   3.658   4.016   3.027  0.1146 -0.1282 -0.2834
    1SOL    HW2 7610   3.579   3.976   3.065 -0.3214  1.0924  0.1098
    1SOL    HW3 7611   3.642   4.013   2.932  0.0925 -0.8765 -0.2663
    1SOL    MW4 7612   3.645   4.010   3.019  0.0544 -0.0658 -0.2291
    1SOL     OW 7613   3.607   4.274   3.127  0.1587  0.4223 -0.2527
    1SOL    HW2 7614   3.681   4.328   3.100  1.1116 -0.2612  0.9505
    1SOL    HW3 7615   3.629   4.186   3.095  1.0780 -0.3041  2.3062
    1SOL    MW4 7616   3.619   4.269   3.119  0.4055  0.2360  0.2437
    1SOL     OW 7617   3.835   4.416   3.050 -0.0698 -0.0854  0.0667
    1SOL    HW2 7618   3.908   4.361   3.076 -0.3220 -0.7377 -0.6014
    1SOL    HW3 7619   3.831   4.408   2.955 -1.0426 -0.1029  0.1043
    1SOL    MW4 7620   3.844   4.408   3.041 -0.2317 -0.1740 -0.0165
    1SOL     OW 7621   4.263   4.657   3.112 -0.2988  0.1013 -0.5927
    1SOL    HW2 7622   4.259   4.639   3.206  1.0016  0.1626 -0.5274
    1SOL    HW3 7623   4.250   4.572   3.071 -0.4642  0.0111 -0.3569
    1SOL    MW4 7624   4.261   4.643   3.119 -0.1497  0.0975 -0.5529
    1SOL     OW 7625   4.029   0.115   3.063  0.5358 -0.9575  0.5977
    1SOL    HW2 7626   4.101   0.062   3.098 -0.2699 -2.1647  0.4325
    1SOL    HW3 7627   3.950   0.070   3.093 -0.1575  0.5840  1.1127
    1SOL    MW4 7628   4.028   0.102   3.072  0.3381 -0.9134  0.6440
    1SOL     OW 7629   4.030   0.381   3.132  0.0368  0.5396 -0.2499
    1SOL    HW2 7630   4.105   0.434   3.104 -0.7493  0.9040 -1.7166
    1SOL    HW3 7631   4.043   0.297   3.088  0.5173 -0.0204  0.9311
    1SOL    MW4 7632   4.042   0.377   3.123 -0.0033  0.5138 -0.2878
    1SOL     OW 7633   4.258   0.511   3.047 -0.6024 -0.4863 -0.4428
    1SOL    HW2 7634   4.270   0.600   3.081  0.5318 -0.7116 -0.2532
    1SOL    HW3 7635   4.277   0.519   2.954  0.5080 -0.7435 -0.2341
    1SOL    MW4 7636   4.262   0.524   3.039 -0.3061 -0.5499 -0.3901
    1SOL     OW 7637   4.276   0.778   3.118  0.0393 -0.3819 -0.5429
    1SOL    HW2 7638   4.194   0.814   3.084  0.4894  0.9776 -0.1988
    1SOL    HW3 7639   4.344   0.835   3.084  0.5226  0.9264  2.4460
    1SOL    MW4 7640   4.274   0.790   3.109  0.1616 -0.0299 -0.1032
    1SOL     OW 7641   4.029   0.864   3.012 -0.2679 -0.0837  0.1288
    1SOL    HW2 7642   4.020   0.959   3.023 -0.8087 -0.1683  0.4650
    1SOL    HW3 7643   4.030   0.850   2.918 -0.3612  0.2473  0.0782
    1SOL    MW4 7644   4.028   0.875   3.001 -0.3510 -0.0513  0.1664
    1SOL     OW 7645   4.011   1.123   3.082  0.3657  0.1469 -0.3964
    1SOL    HW2 7646   3.981   1.105   3.171  0.1771  0.3309 -0.4215
    1SOL    HW3 7647   3.939   1.172   3.042  0.3934 -0.0521 -0.6923
    1SOL    MW4 7648   3.998   1.127   3.088  0.3445  0.1450 -0.4387
    1SOL     OW 7649   4.240   1.245   3.005 -0.2252 -0.3103 -0.1062
    1SOL    HW2 7650   4.155   1.207   3.026 -0.3359 -0.4716 -0.8419
    1SOL    HW3 7651   4.246   1.241   2.910 -0.4200  1.8506 -0.2468
    1SOL    MW4 7652   4.230   1.240   2.996 -0.2656 -0.0463 -0.2220
    1SOL     OW 7653   4.249   1.511   3.104 -0.2482 -0.0981  0.3191
    1SOL    HW2 7654   4.174   1.553   3.062  1.1521 -0.5388 -2.7512
    1SOL    HW3 7655   4.238   1.417   3.086  1.6577 -0.0480 -1.2589
    1SOL    MW4 7656   4.238   1.504   3.096  0.1874 -0.1496 -0.2944
    1SOL     OW 7657   4.017   1.650   3.011 -0.0371  0.0059  0.3038
    1SOL    HW2 7658   4.014   1.724   3.071 -0.8639 -0.6766  1.1300
    1SOL    HW3 7659   3.944   1.595   3.038 -0.4610 -0.2933 -1.3632
    1SOL    MW4 7660   4.007   1.653   3.022 -0.2027 -0.1235  0.1926
    1SOL     OW 7661   4.028   1.913   3.160 -0.0783  0.3234 -0.1114
    1SOL    HW2 7662   4.109   1.942   3.117  0.1550 -0.2379 -0.0524
    1SOL    HW3 7663   3.961   1.971   3.125  0.5055  1.4156  0.5547
    1SOL    MW4 7664   4.030   1.924   3.149  0.0296  0.3935 -0.0160
    1SOL     OW 7665   4.239   2.048   3.032 -0.3513  0.1154  0.7138
    1SOL    HW2 7666   4.228   2.140   3.056 -0.2980  0.2929  0.0600
    1SOL    HW3 7667   4.219   2.045   2.939  2.3415 -0.0497  0.1096
    1SOL    MW4 7668   4.235   2.060   3.023  0.0110  0.1171  0.5479
    1SOL     OW 7669   4.240   2.307   3.104  0.2825 -0.3237  0.1242
    1SOL    HW2 7670   4.178   2.369   3.065 -2.1531 -0.9426  2.7579
    1SOL    HW3 7671   4.326   2.338   3.077 -1.0482  2.2051 -1.4050
    1SOL    MW4 7672   4.243   2.319   3.096 -0.2141 -0.0718  0.2701
    1SOL     OW 7673   4.063   2.458   2.966 -0.0083 -0.1997 -0.5958
    1SOL    HW2 7674   4.066   2.539   3.017 -0.9795  0.0447 -0.9194
    1SOL    HW3 7675   3.987   2.410   3.001  0.3164 -0.7873 -0.6808
    1SOL    MW4 7676   4.053   2.462   2.977 -0.0935 -0.2449 -0.6497
    1SOL     OW 7677   4.035   2.698   3.100  0.2664  0.4282 -0.2943
    1SOL    HW2 7678   4.020   2.716   3.193 -0.5797 -1.5532 -0.0186
    1SOL    HW3 7679   3.953   2.725   3.058  0.2465  0.3285 -0.3192
    1SOL    MW4 7680   4.022   2.704   3.107  0.1521  0.1533 -0.2615
    1SOL     OW 7681   4.270   2.807   3.012  0.5521  0.3288  0.1207
    1SOL    HW2 7682   4.199   2.750   3.042  1.4173 -0.9680 -0.2306
    1SOL    HW3 7683   4.348   2.774   3.056  0.8541  2.1122  0.9560
    1SOL    MW4 7684   4.271   2.795   3.022  0.7062  0.3929  0.1845
    1SOL     OW 7685   4.301   3.090   3.088 -0.0494  0.2028  0.0234
    1SOL    HW2 7686   4.222   3.132   3.054  0.4169  0.3078 -0.9444
    1SOL    HW3 7687   4.301   3.003   3.048  0.0212 -0.0125  0.4840
    1SOL    MW4 7688   4.291   3.084   3.078  0.0215  0.1881 -0.0436
    1SOL     OW 7689   4.048   3.172   2.989 -0.1603  0.2695 -0.2013
    1SOL    HW2 7690   4.061   3.265   3.003 -0.6101  0.4094 -0.6908
    1SOL    HW3 7691   4.027   3.164   2.895 -0.4399 -0.2800 -0.0987
    1SOL    MW4 7692   4.047   3.183   2.978 -0.2565  0.2155 -0.2522
    1SOL     OW 7693   4.065   3.445   3.079  0.0797  0.6244  0.3405
    1SOL    HW2 7694   4.067   3.460   3.173  0.4901  0.6782  0.3249
    1SOL    HW3 7695   3.992   3.498   3.047 -0.6334 -0.1097  0.7530
    1SOL    MW4 7696   4.055   3.454   3.087  0.0401  0.5348  0.3929
    1SOL     OW 7697   4.274   3.611   3.022  0.5314 -0.2390 -0.0207
    1SOL    HW2 7698   4.256   3.692   3.070  0.0221 -0.1461 -0.3677
    1SOL    HW3 7699   4.208   3.549   3.053  1.3893 -0.7584  0.8088
    1SOL    MW4 7700   4.263   3.613   3.033  0.5770 -0.2952  0.0429
    1SOL     OW 7701   4.297   3.860   3.159  0.3294  0.5457  0.0494
    1SOL    HW2 7702   4.228   3.921   3.132 -0.5122 -0.1942  0.4528
    1SOL    HW3 7703   4.379   3.901   3.133 -0.2181  1.9000  0.4256
    1SOL    MW4 7704   4.298   3.873   3.152  0.1459  0.6266  0.1523
    1SOL     OW 7705   4.091   3.995   3.031 -0.1928 -0.3053 -0.3646
    1SOL    HW2 7706   4.069   4.088   3.036 -0.9786 -0.4625 -0.8318
    1SOL    HW3 7707   4.010   3.949   3.055  0.6878 -0.8643  1.6240
    1SOL    MW4 7708   4.077   4.001   3.035 -0.1798 -0.4001 -0.1636
    1SOL     OW 7709   4.032   4.252   3.106 -0.0097 -0.0133 -0.2492
    1SOL    HW2 7710   4.036   4.214   3.194  1.6469  1.3035  0.2711
    1SOL    HW3 7711   4.113   4.303   3.099 -1.4790  2.1711 -1.4888
    1SOL    MW4 7712   4.043   4.253   3.117  0.0148  0.4482 -0.3438
    1SOL     OW 7713   4.255   4.382   3.042  0.0708 -0.7304  0.2934
    1SOL    HW2 7714   4.331   4.350   3.090  0.1544 -1.2492 -0.1794
    1SOL    HW3 7715   4.282   4.379   2.950  0.2583  1.1452  0.2636
    1SOL    MW4 7716   4.269   4.377   3.036  0.1063 -0.5517  0.2270
    1SOL     OW 7717   0.191   4.587   3.371  0.0102 -0.1705  0.3121
    1SOL    HW2 7718   0.259   4.642   3.409 -0.1432  0.2487 -0.0259
    1SOL    HW3 7719   0.200   4.503   3.418  0.8989 -0.1930  0.1175
    1SOL    MW4 7720   0.201   4.583   3.382  0.1072 -0.1187  0.2422
    1SOL     OW 7721   4.455   0.050   3.517 -0.0201 -0.1883  0.2071
    1SOL    HW2 7722   4.444   0.140   3.484  0.9214 -0.4464 -0.8587
    1SOL    HW3 7723   4.521   0.012   3.459 -1.5507 -2.0735 -0.3237
    1SOL    MW4 7724   4.463   0.057   3.505 -0.0978 -0.4711 -0.0033
    1SOL     OW 7725   4.432   0.333   3.483  0.1138 -0.3606 -0.0499
    1SOL    HW2 7726   4.353   0.380   3.511 -0.3416 -1.4044  0.4502
    1SOL    HW3 7727   4.503   0.397   3.492 -0.4155  0.0652  1.1449
    1SOL    MW4 7728   4.431   0.347   3.488 -0.0157 -0.4421  0.1738
    1SOL     OW 7729   0.172   0.513   3.509  0.0580  0.1035  0.5120
    1SOL    HW2 7730   0.245   0.458   3.480 -0.3776 -1.1532  1.7337
    1SOL    HW3 7731   0.187   0.597   3.467  1.0053 -0.8123 -1.0221
    1SOL    MW4 7732   0.184   0.517   3.500  0.1255 -0.1831  0.4706
    1SOL     OW 7733   0.205   0.756   3.383  0.5210 -0.2748  0.3360
    1SOL    HW2 7734   0.281   0.800   3.418  0.5575 -0.1153  0.0597
    1SOL    HW3 7735   0.131   0.809   3.411  0.5545 -0.1142  0.1189
    1SOL    MW4 7736   0.205   0.769   3.391  0.5302 -0.2325  0.2711
    1SOL     OW 7737   4.488   0.890   3.482 -0.4517  0.0511 -0.4151
    1SOL    HW2 7738   4.494   0.898   3.577  1.3459  0.9830 -0.5853
    1SOL    HW3 7739   4.473   0.979   3.452  0.7938  0.0212 -1.1272
    1SOL    MW4 7740   4.486   0.903   3.491 -0.0505  0.1702 -0.5314
    1SOL     OW 7741   4.456   1.158   3.402  0.0357  0.0561  0.0564
    1SOL    HW2 7742   4.533   1.205   3.435 -0.6608  1.1423  0.1844
    1SOL    HW3 7743   4.462   1.166   3.307  2.1602 -3.2617 -0.1447
    1SOL    MW4 7744   4.467   1.165   3.394  0.2236 -0.2384  0.0467
    1SOL     OW 7745   0.217   1.281   3.491  0.3729  0.4911 -0.0350
    1SOL    HW2 7746   0.235   1.292   3.584  2.6008 -0.5130 -0.3114
    1SOL    HW3 7747   0.211   1.371   3.457 -0.9815  0.8632  1.1442
    1SOL    MW4 7748   0.219   1.295   3.499  0.4882  0.4077  0.0842
    1SOL     OW 7749   0.203   1.538   3.357 -0.2975  0.9113 -0.3944
    1SOL    HW2 7750   0.287   1.577   3.382 -0.4299  1.1594 -0.3364
    1SOL    HW3 7751   0.216   1.510   3.267 -0.0357  0.6238 -0.2660
    1SOL    MW4 7752   0.216   1.540   3.348 -0.2805  0.9061 -0.3698
    1SOL     OW 7753   4.457   1.659   3.452 -0.5209  0.7074 -0.3074
    1SOL    HW2 7754   4.392   1.591   3.433 -0.2414  0.5801 -0.8018
    1SOL    HW3 7755   4.540   1.621   3.424 -0.2242  0.8459  0.3812
    1SOL    MW4 7756   4.460   1.645   3.446 -0.4449  0.7089 -0.2818
    1SOL     OW 7757   4.470   1.922   3.371  0.8406 -0.2210  0.7916
    1SOL    HW2 7758   4.476   1.833   3.406  1.1765 -0.0310  1.2194
    1SOL    HW3 7759   4.472   1.911   3.276  2.3850 -0.5530  0.8625
    1SOL    MW4 7760   4.471   1.908   3.364  1.0891 -0.2400  0.8576
    1SOL     OW 7761   0.229   2.014   3.431 -0.0817  0.5915  0.1275
    1SOL    HW2 7762   0.143   1.992   3.395 -0.4583  1.9286  0.2031
    1SOL    HW3 7763   0.215   2.017   3.526  0.5177 -1.1931  0.2972
    1SOL    MW4 7764   0.216   2.012   3.439 -0.0523  0.5326  0.1597
    1SOL     OW 7765   0.237   2.314   3.369  0.5496 -0.4387 -0.0108
    1SOL    HW2 7766   0.170   2.366   3.413  0.1623 -0.6907 -0.3001
    1SOL    HW3 7767   0.223   2.225   3.400  1.1570 -0.3894  0.4166
    1SOL    MW4 7768   0.227   2.309   3.379  0.5786 -0.4654  0.0076
    1SOL     OW 7769   4.474   2.431   3.462 -0.3011 -0.1952  0.2032
    1SOL    HW2 7770   4.451   2.445   3.554 -0.4327  0.0338  0.1357
    1SOL    HW3 7771   4.398   2.385   3.426  0.0840 -0.9887  0.3990
    1SOL    MW4 7772   4.461   2.427   3.470 -0.2675 -0.2697  0.2203
    1SOL     OW 7773   4.468   2.697   3.422 -0.4076 -0.1454 -0.1133
    1SOL    HW2 7774   4.556   2.726   3.448 -0.0453 -0.5636 -0.8627
    1SOL    HW3 7775   4.473   2.602   3.422 -0.6916 -0.1592 -0.7531
    1SOL    MW4 7776   4.480   2.688   3.425 -0.3977 -0.2027 -0.2964
    1SOL     OW 7777   0.231   2.828   3.508  0.2598  0.1294 -0.3031
    1SOL    HW2 7778   0.297   2.769   3.473  0.3112 -0.0108  0.0318
    1SOL    HW3 7779   0.243   2.910   3.459  1.5261  0.5307  0.6436
    1SOL    MW4 7780   0.241   2.831   3.497  0.4337  0.1638 -0.1342
    1SOL     OW 7781   0.253   3.062   3.364  0.4888 -0.6562  0.3434
    1SOL    HW2 7782   0.170   3.086   3.405  0.4776 -2.1597  1.2502
    1SOL    HW3 7783   0.245   3.092   3.273 -1.2321 -1.2165  0.2998
    1SOL    MW4 7784   0.241   3.069   3.357  0.2603 -0.9284  0.4573
    1SOL     OW 7785   0.032   3.190   3.482  0.1619 -0.2314  0.2690
    1SOL    HW2 7786  -0.043   3.151   3.437 -1.1456  1.3986  1.0075
    1SOL    HW3 7787   0.027   3.283   3.461  1.1941  0.1023  1.4446
    1SOL    MW4 7788   0.021   3.197   3.473  0.1254  0.0277  0.5214
    1SOL     OW 7789   0.040   3.462   3.419 -0.1598  0.7665  0.4310
    1SOL    HW2 7790  -0.042   3.500   3.453 -0.6434  0.9655 -0.8999
    1SOL    HW3 7791   0.042   3.491   3.327  1.2177  0.4382  0.3580
    1SOL    MW4 7792   0.029   3.471   3.411 -0.0415  0.7493  0.2458
    1SOL     OW 7793   0.253   3.603   3.520  0.5144  0.3791 -0.2861
    1SOL    HW2 7794   0.231   3.602   3.614 -0.8971 -0.5292 -0.6021
    1SOL    HW3 7795   0.174   3.569   3.477  0.7249  1.8468 -1.8923
    1SOL    MW4 7796   0.239   3.599   3.527  0.3560  0.4528 -0.5398
    1SOL     OW 7797   0.244   3.852   3.407 -0.7641 -0.4470  0.4349
    1SOL    HW2 7798   0.169   3.896   3.446  0.7209  0.7506  2.0107
    1SOL    HW3 7799   0.252   3.770   3.455 -0.4414 -0.0946  0.9907
    1SOL    MW4 7800   0.235   3.847   3.419 -0.5256 -0.2425  0.7160
    1SOL     OW 7801   0.019   3.981   3.533  0.1682  0.1996  0.1889
    1SOL    HW2 7802   0.024   3.993   3.628  3.2594  0.9344 -0.0022
    1SOL    HW3 7803   0.013   4.070   3.498  1.7471  0.1077 -0.3786
    1SOL    MW4 7804   0.019   3.994   3.541  0.7843  0.2844  0.0887
    1SOL     OW 7805   0.006   4.237   3.442 -0.4800  0.8590 -0.3305
    1SOL    HW2 7806  -0.073   4.285   3.468 -1.3262 -0.7446  0.1205
    1SOL    HW3 7807   0.077   4.283   3.485 -1.3915  1.0165  1.0366
    1SOL    MW4 7808   0.005   4.250   3.451 -0.7119  0.6685 -0.0908
    1SOL     OW 7809   0.247   4.361   3.517  0.4726  0.0739 -0.6319
    1SOL    HW2 7810   0.244   4.363   3.613 -1.5851  0.2689 -0.6905
    1SOL    HW3 7811   0.322   4.305   3.497  0.3308 -0.7593  1.0878
    1SOL    MW4 7812   0.257   4.354   3.527  0.1824 -0.0105 -0.4129
    1SOL     OW 7813   0.636   4.605   3.380  0.1649  0.0021  0.9367
    1SOL    HW2 7814   0.708   4.653   3.422  0.1654  0.1031  0.8221
    1SOL    HW3 7815   0.650   4.620   3.286  0.0578 -0.0701  0.9095
    1SOL    MW4 7816   0.648   4.613   3.373  0.1508  0.0057  0.9179
    1SOL     OW 7817   0.397   0.095   3.446 -0.1430  0.0943  0.4847
    1SOL    HW2 7818   0.412   0.086   3.540 -0.2771  0.7156  0.5669
    1SOL    HW3 7819   0.477   0.062   3.405 -0.5438 -1.2684  0.7847
    1SOL    MW4 7820   0.410   0.090   3.453 -0.2135 -0.0035  0.5350
    1SOL     OW 7821   0.369   0.355   3.370 -0.0006 -0.4920 -0.6074
    1SOL    HW2 7822   0.447   0.393   3.411  0.2107 -0.5597 -0.9518
    1SOL    HW3 7823   0.364   0.266   3.406 -1.2196  0.2664  1.1976
    1SOL    MW4 7824   0.378   0.348   3.380 -0.1335 -0.4009 -0.4148
    1SOL     OW 7825   0.604   0.460   3.490  0.2833  0.2525 -0.0640
    1SOL    HW2 7826   0.613   0.443   3.583  0.9127  2.5352  0.3237
    1SOL    HW3 7827   0.681   0.418   3.450  0.6293  0.2621  0.5894
    1SOL    MW4 7828   0.616   0.453   3.497  0.4120  0.5549  0.0737
    1SOL     OW 7829   0.645   0.721   3.413 -0.2304  0.2601 -0.3118
    1SOL    HW2 7830   0.579   0.789   3.427  0.2857  0.6640  0.2198
    1SOL    HW3 7831   0.608   0.643   3.453 -0.4561  0.4513 -0.1417
    1SOL    MW4 7832   0.631   0.720   3.420 -0.1921  0.3386 -0.2191
    1SOL     OW 7833   0.446   0.885   3.475 -0.2199 -0.4204 -0.1849
    1SOL    HW2 7834   0.460   0.886   3.569  1.5458 -1.4768 -0.3992
    1SOL    HW3 7835   0.440   0.977   3.450  1.4439 -0.0553  0.6812
    1SOL    MW4 7836   0.447   0.897   3.484  0.2326 -0.5116 -0.0992
    1SOL     OW 7837   0.450   1.164   3.394 -0.3705 -0.4713  0.1786
    1SOL    HW2 7838   0.365   1.196   3.425 -0.2447  0.2039 -0.1790
    1SOL    HW3 7839   0.452   1.187   3.301  0.8070  0.8258  0.5117
    1SOL    MW4 7840   0.439   1.171   3.386 -0.1985 -0.2110  0.1752
    1SOL     OW 7841   0.703   1.266   3.508 -0.2181  0.1045  0.6636
    1SOL    HW2 7842   0.615   1.231   3.495 -0.2000  0.1158  0.5048
    1SOL    HW3 7843   0.704   1.347   3.457  0.0747 -0.1987  0.1824
    1SOL    MW4 7844   0.692   1.272   3.499 -0.1771  0.0659  0.5789
    1SOL     OW 7845   0.678   1.514   3.364  0.8959  0.0416 -0.5158
    1SOL    HW2 7846   0.748   1.565   3.405  0.2472 -0.3023  1.0641
    1SOL    HW3 7847   0.598   1.548   3.404  0.2555 -0.4491 -1.3659
    1SOL    MW4 7848   0.676   1.526   3.375  0.7258 -0.0685 -0.4196
    1SOL     OW 7849   0.435   1.636   3.455 -0.0087 -0.0285  0.2250
    1SOL    HW2 7850   0.449   1.641   3.550  0.1306  0.6742  0.1724
    1SOL    HW3 7851   0.452   1.725   3.424 -0.1327 -0.2389 -0.4507
    1SOL    MW4 7852   0.439   1.648   3.464 -0.0067  0.0362  0.1287
    1SOL     OW 7853   0.475   1.890   3.364 -0.4502  0.4491 -0.0486
    1SOL    HW2 7854   0.389   1.928   3.377 -0.3288  0.9278 -0.6503
    1SOL    HW3 7855   0.496   1.907   3.272 -0.3467 -0.9531 -0.3005
    1SOL    MW4 7856   0.467   1.897   3.354 -0.4205  0.3273 -0.1612
    1SOL     OW 7857   0.692   2.010   3.490  0.1619  0.6615  0.0214
    1SOL    HW2 7858   0.674   2.003   3.583  1.0585  0.1341  0.1575
    1SOL    HW3 7859   0.618   1.968   3.447  0.9673 -1.3503  0.5675
    1SOL    MW4 7860   0.680   2.004   3.496  0.3865  0.3266  0.1113
    1SOL     OW 7861   0.695   2.259   3.348  0.2677  0.0345 -0.2371
    1SOL    HW2 7862   0.767   2.318   3.370 -0.5955  1.1106 -0.2534
    1SOL    HW3 7863   0.714   2.178   3.397  1.5936  0.2176 -0.4226
    1SOL    MW4 7864   0.707   2.256   3.357  0.3287  0.2005 -0.2639
    1SOL     OW 7865   0.492   2.405   3.476  0.1028  0.0955 -0.1304
    1SOL    HW2 7866   0.551   2.352   3.423  0.3478 -0.5287  0.7552
    1SOL    HW3 7867   0.404   2.375   3.451  0.2094 -0.0147 -0.3745
    1SOL    MW4 7868   0.488   2.394   3.466  0.1492 -0.0017 -0.0460
    1SOL     OW 7869   0.414   2.671   3.388  0.4124 -0.0498 -0.6123
    1SOL    HW2 7870   0.452   2.583   3.391  1.3989  0.3760 -0.4231
    1SOL    HW3 7871   0.401   2.687   3.294 -0.3066 -0.6136 -0.6180
    1SOL    MW4 7872   0.417   2.661   3.376  0.4477 -0.0679 -0.5879
    1SOL     OW 7873   0.642   2.820   3.474  0.1606  0.1597 -0.2407
    1SOL    HW2 7874   0.712   2.763   3.442 -0.0587 -0.7325  0.8297
    1SOL    HW3 7875   0.561   2.772   3.453 -0.0267  0.0867  0.6006
    1SOL    MW4 7876   0.640   2.806   3.467  0.1070  0.0322  0.0114
    1SOL     OW 7877   0.707   3.086   3.366  0.4691 -0.1380  0.4073
    1SOL    HW2 7878   0.636   3.119   3.422 -1.0713  1.0014 -2.1164
    1SOL    HW3 7879   0.695   2.991   3.366  1.1729 -0.2544  2.8504
    1SOL    MW4 7880   0.696   3.078   3.373  0.3588 -0.0031  0.3967
    1SOL     OW 7881   0.492   3.184   3.495  0.0117  0.3242 -0.4116
    1SOL    HW2 7882   0.489   3.198   3.590  2.1358  0.3258 -0.3316
    1SOL    HW3 7883   0.412   3.135   3.476  0.7379 -1.8222  1.7631
    1SOL    MW4 7884   0.481   3.179   3.505  0.3877  0.0410 -0.1142
    1SOL     OW 7885   0.462   3.451   3.399 -0.1252 -0.5447  0.3416
    1SOL    HW2 7886   0.472   3.357   3.413 -0.9789 -0.7355 -0.2729
    1SOL    HW3 7887   0.397   3.478   3.464  0.9827 -0.1584  1.2974
    1SOL    MW4 7888   0.454   3.442   3.409 -0.0917 -0.5188  0.3867
    1SOL     OW 7889   0.675   3.600   3.494  0.4776 -0.2367  0.6168
    1SOL    HW2 7890   0.759   3.558   3.474  0.2041 -0.3845 -0.2650
    1SOL    HW3 7891   0.609   3.537   3.464  0.0574  0.1135  0.8062
    1SOL    MW4 7892   0.677   3.586   3.487  0.3861 -0.2100  0.5252
    1SOL     OW 7893   0.706   3.850   3.378  0.0395 -0.1195  0.1564
    1SOL    HW2 7894   0.620   3.889   3.390 -0.6292 -1.0967 -1.2845
    1SOL    HW3 7895   0.698   3.763   3.418  0.1456 -0.4517 -0.5313
    1SOL    MW4 7896   0.694   3.843   3.385 -0.0347 -0.2921 -0.1242
    1SOL     OW 7897   0.474   3.959   3.491  0.0123 -0.0295  0.0562
    1SOL    HW2 7898   0.471   4.051   3.467  2.0631  0.1849  0.5363
    1SOL    HW3 7899   0.391   3.923   3.459 -0.4830  1.8065 -0.7814
    1SOL    MW4 7900   0.462   3.966   3.483  0.2176  0.2408  0.0088
    1SOL     OW 7901   0.471   4.222   3.442  0.2337  0.1053  0.0999
    1SOL    HW2 7902   0.522   4.293   3.481 -0.8619  0.6257  0.5838
    1SOL    HW3 7903   0.468   4.243   3.349  0.1489  0.5426  0.2026
    1SOL    MW4 7904   0.477   4.234   3.435  0.0780  0.2317  0.1774
    1SOL     OW 7905   0.664   4.401   3.537 -0.0352 -0.2865  0.2503
    1SOL    HW2 7906   0.725   4.343   3.492  0.2271  1.0613 -1.1814
    1SOL    HW3 7907   0.660   4.479   3.482 -2.7099 -0.1568  0.5381
    1SOL    MW4 7908   0.671   4.404   3.524 -0.3535 -0.0916  0.0992
    1SOL     OW 7909   1.087   4.633   3.378  0.1720 -0.0644  0.5173
    1SOL    HW2 7910   1.166   4.676   3.410 -0.6653  0.7764  1.4804
    1SOL    HW3 7911   1.102   4.623   3.284  2.0725 -1.3147  0.9151
    1SOL    MW4 7912   1.099   4.637   3.370  0.3123 -0.1184  0.6969
    1SOL     OW 7913   0.838   0.084   3.487  0.0019 -0.0337  0.2116
    1SOL    HW2 7914   0.848   0.078   3.582 -0.1280  1.3289  0.3144
    1SOL    HW3 7915   0.921   0.050   3.453  0.0137 -0.6204  0.8011
    1SOL    MW4 7916   0.850   0.079   3.495 -0.0136  0.0687  0.3030
    1SOL     OW 7917   0.854   0.333   3.376  0.0837 -0.0405 -0.1374
    1SOL    HW2 7918   0.931   0.375   3.414 -1.1093  0.5574  1.6696
    1SOL    HW3 7919   0.845   0.250   3.423 -0.2313 -0.2269 -0.5218
    1SOL    MW4 7920   0.863   0.328   3.387 -0.1153  0.0138  0.0505
    1SOL     OW 7921   1.075   0.476   3.470  0.3906 -0.0528 -0.2966
    1SOL    HW2 7922   1.071   0.482   3.565  2.4837 -1.3217 -0.1013
    1SOL    HW3 7923   1.108   0.562   3.442  0.0028  0.2386  0.1292
    1SOL    MW4 7924   1.079   0.489   3.479  0.6156 -0.1818 -0.2148
    1SOL     OW 7925   1.140   0.748   3.391 -0.0368  0.1278  0.2991
    1SOL    HW2 7926   1.213   0.799   3.425 -0.0782 -0.6694  1.6265
    1SOL    HW3 7927   1.063   0.784   3.435 -0.0029 -1.4080  1.6704
    1SOL    MW4 7928   1.140   0.760   3.401 -0.0377 -0.1800  0.6552
    1SOL     OW 7929   0.903   0.840   3.506  0.2440 -0.0827  0.1284
    1SOL    HW2 7930   0.900   0.932   3.482  1.1227  0.4263  1.8648
    1SOL    HW3 7931   0.815   0.807   3.489 -0.1686  1.1716 -0.1616
    1SOL    MW4 7932   0.891   0.848   3.501  0.3055  0.1500  0.3190
    1SOL     OW 7933   0.903   1.103   3.404  0.0954  0.0153 -0.0149
    1SOL    HW2 7934   0.975   1.160   3.432  0.4665 -1.1118  1.3810
    1SOL    HW3 7935   0.824   1.150   3.430  0.3902  0.1220  0.7262
    1SOL    MW4 7936   0.902   1.116   3.411  0.1832 -0.1193  0.2670
    1SOL     OW 7937   1.122   1.260   3.464  0.2863  0.2290  0.0322
    1SOL    HW2 7938   1.133   1.274   3.558 -1.4702 -1.3663  0.5180
    1SOL    HW3 7939   1.120   1.348   3.427 -1.0372  0.9555  1.7596
    1SOL    MW4 7940   1.123   1.274   3.472 -0.1202  0.1143  0.3242
    1SOL     OW 7941   1.110   1.513   3.379  0.0489 -0.1357 -0.7939
    1SOL    HW2 7942   1.185   1.562   3.416  0.0624 -0.7369 -0.0057
    1SOL    HW3 7943   1.109   1.537   3.287  0.9969  0.1632 -0.7332
    1SOL    MW4 7944   1.120   1.523   3.372  0.1757 -0.1757 -0.6819
    1SOL     OW 7945   0.896   1.669   3.446 -0.7213 -0.1159 -0.1018
    1SOL    HW2 7946   0.898   1.753   3.402 -0.4900  0.1532  0.4202
    1SOL    HW3 7947   0.978   1.626   3.421 -0.8524 -0.1988 -0.3902
    1SOL    MW4 7948   0.907   1.674   3.437 -0.7080 -0.0912 -0.0713
    1SOL     OW 7949   0.925   1.935   3.350 -0.2164  0.1890  0.3785
    1SOL    HW2 7950   1.002   1.964   3.399 -0.2404 -0.9350  1.0811
    1SOL    HW3 7951   0.851   1.967   3.401 -0.2458 -1.3038  1.2792
    1SOL    MW4 7952   0.926   1.943   3.363 -0.2235 -0.1562  0.5901
    1SOL     OW 7953   1.152   2.025   3.475 -0.2287  0.0861  0.0972
    1SOL    HW2 7954   1.225   1.989   3.425  1.0383  2.4080  0.1963
    1SOL    HW3 7955   1.129   2.107   3.430 -0.5586  1.0621  1.9755
    1SOL    MW4 7956   1.158   2.031   3.463 -0.1051  0.5212  0.3581
    1SOL     OW 7957   1.112   2.275   3.379  0.0451 -0.1887 -0.1898
    1SOL    HW2 7958   1.187   2.319   3.419  0.9714 -1.3711 -0.5971
    1SOL    HW3 7959   1.121   2.293   3.285  0.1595 -0.8308 -0.3054
    1SOL    MW4 7960   1.123   2.284   3.372  0.1825 -0.4294 -0.2587
    1SOL     OW 7961   0.906   2.416   3.451  0.1568  0.2664 -0.0213
    1SOL    HW2 7962   0.900   2.421   3.546 -0.2977  1.5379 -0.1067
    1SOL    HW3 7963   0.980   2.358   3.435 -0.7767 -1.2902  1.0965
    1SOL    MW4 7964   0.915   2.409   3.461 -0.0263  0.2289  0.1147
    1SOL     OW 7965   0.897   2.713   3.385 -0.1443  0.2981  0.1947
    1SOL    HW2 7966   0.966   2.764   3.427  1.0283 -1.0673 -0.0606
    1SOL    HW3 7967   0.899   2.628   3.430  0.5855 -0.8986 -2.0456
    1SOL    MW4 7968   0.906   2.709   3.397  0.1067 -0.0401 -0.1347
    1SOL     OW 7969   1.126   2.839   3.504 -0.1352  0.1117  0.1779
    1SOL    HW2 7970   1.120   2.848   3.599 -0.8000  0.0667  0.1393
    1SOL    HW3 7971   1.202   2.782   3.490 -0.3194 -0.2578  0.6931
    1SOL    MW4 7972   1.135   2.833   3.514 -0.2472  0.0570  0.2410
    1SOL     OW 7973   1.138   3.088   3.377  0.1232  0.2594  0.2066
    1SOL    HW2 7974   1.148   2.996   3.404  0.7463 -0.1479 -1.3481
    1SOL    HW3 7975   1.130   3.084   3.282  0.3796  1.8492  0.1061
    1SOL    MW4 7976   1.139   3.075   3.368  0.2391  0.4153 -0.0117
    1SOL     OW 7977   0.927   3.213   3.497  0.0115  0.0730 -0.1463
    1SOL    HW2 7978   0.997   3.179   3.442  0.1662  1.1971 -0.6582
    1SOL    HW3 7979   0.851   3.159   3.476  0.5906 -0.8040  0.0213
    1SOL    MW4 7980   0.926   3.202   3.487  0.1083  0.1059 -0.1919
    1SOL     OW 7981   0.909   3.483   3.423 -0.2826 -0.0950  0.4482
    1SOL    HW2 7982   0.900   3.392   3.451 -1.7738  0.1546  0.8021
    1SOL    HW3 7983   0.903   3.481   3.328 -0.7924 -0.3120  0.4858
    1SOL    MW4 7984   0.907   3.471   3.414 -0.5465 -0.0906  0.5000
    1SOL     OW 7985   1.122   3.629   3.539 -0.1892  0.5860 -0.2709
    1SOL    HW2 7986   1.121   3.628   3.634  0.4918 -0.3741 -0.2727
    1SOL    HW3 7987   1.052   3.569   3.513  1.2726 -1.0932 -0.3701
    1SOL    MW4 7988   1.112   3.621   3.548  0.0936  0.2377 -0.2842
    1SOL     OW 7989   1.117   3.883   3.420 -0.1010  0.1982 -0.8281
    1SOL    HW2 7990   1.202   3.919   3.444 -0.5813  1.0861 -0.4177
    1SOL    HW3 7991   1.115   3.796   3.461  0.5290  0.2476 -0.6892
    1SOL    MW4 7992   1.128   3.876   3.429 -0.0811  0.3221 -0.7555
    1SOL     OW 7993   0.887   4.004   3.503 -0.3376  0.3103  0.3582
    1SOL    HW2 7994   0.973   3.970   3.477  0.5166  1.9688  0.9401
    1SOL    HW3 7995   0.825   3.939   3.470  1.2126 -1.5825  1.0634
    1SOL    MW4 7996   0.890   3.991   3.495 -0.0204  0.2797  0.5281
    1SOL     OW 7997   0.855   4.258   3.428 -0.0730 -0.2312  0.0909
    1SOL    HW2 7998   0.868   4.167   3.454  0.4242  0.0822  0.9686
    1SOL    HW3 7999   0.835   4.254   3.334  1.7919 -1.0999 -0.2862
    1SOL    MW4 8000   0.854   4.245   3.419  0.2387 -0.3047  0.1569
    1SOL     OW 8001   1.081   4.379   3.493  0.0687 -1.0272 -0.3177
    1SOL    HW2 8002   0.997   4.336   3.473 -0.4927  0.0087 -0.2179
    1SOL    HW3 8003   1.070   4.468   3.458  0.7990 -0.6198  0.5064
    1SOL    MW4 8004   1.068   4.385   3.485  0.0911 -0.8373 -0.1957
    1SOL     OW 8005   1.540   4.602   3.375 -0.3325 -0.1744  0.4214
    1SOL    HW2 8006   1.534   4.522   3.428  0.6269  1.0794  2.4888
    1SOL    HW3 8007   1.468   4.657   3.405 -0.4713  0.0940 -0.3858
    1SOL    MW4 8008   1.530   4.598   3.386 -0.2241  0.0267  0.5875
    1SOL     OW 8009   1.324   0.090   3.453  0.5160 -0.4021 -0.1483
    1SOL    HW2 8010   1.322   0.088   3.549 -1.4263 -1.7373 -0.1964
    1SOL    HW3 8011   1.317   0.183   3.431  1.5689 -0.0407  1.0108
    1SOL    MW4 8012   1.323   0.102   3.463  0.3985 -0.5306 -0.0014
    1SOL     OW 8013   1.310   0.363   3.362  0.0686  0.0465  0.2438
    1SOL    HW2 8014   1.389   0.383   3.412  0.8564 -0.6290 -0.7031
    1SOL    HW3 8015   1.241   0.411   3.406  1.1151  1.1385  0.7336
    1SOL    MW4 8016   1.312   0.372   3.374  0.3107  0.1014  0.1833
    1SOL     OW 8017   1.526   0.467   3.519 -0.4585 -0.4309  0.5207
    1SOL    HW2 8018   1.521   0.489   3.612  0.3132  0.6082  0.3233
    1SOL    HW3 8019   1.615   0.433   3.507 -0.0948  0.7243 -0.1008
    1SOL    MW4 8020   1.537   0.466   3.530 -0.3086 -0.1414  0.4125
    1SOL     OW 8021   1.539   0.695   3.364 -0.3146 -0.3222  0.0915
    1SOL    HW2 8022   1.465   0.744   3.400  0.2686  0.7017 -0.0787
    1SOL    HW3 8023   1.537   0.611   3.410 -2.3240 -0.8107 -0.7993
    1SOL    MW4 8024   1.529   0.690   3.375 -0.5028 -0.2516 -0.0484
    1SOL     OW 8025   1.371   0.876   3.488  0.3474  0.2826 -0.0120
    1SOL    HW2 8026   1.347   0.900   3.577 -1.0535  0.5903 -0.4490
    1SOL    HW3 8027   1.366   0.959   3.439 -2.0780 -0.4037 -1.0246
    1SOL    MW4 8028   1.367   0.890   3.493 -0.1574  0.2327 -0.2034
    1SOL     OW 8029   1.385   1.153   3.364 -0.2052 -0.2246  0.0534
    1SOL    HW2 8030   1.453   1.218   3.381 -1.1319  0.7498  0.0748
    1SOL    HW3 8031   1.305   1.190   3.402 -0.4170 -2.1277  1.5483
    1SOL    MW4 8032   1.383   1.167   3.371 -0.3554 -0.3471  0.2534
    1SOL     OW 8033   1.592   1.307   3.451  0.8510  0.2333  0.1110
    1SOL    HW2 8034   1.565   1.305   3.543 -0.4762  0.8454 -0.2468
    1SOL    HW3 8035   1.651   1.233   3.442  0.7722 -0.0016  1.3958
    1SOL    MW4 8036   1.596   1.297   3.462  0.6655  0.2831  0.2334
    1SOL     OW 8037   1.539   1.585   3.349 -0.0861 -0.1523 -0.7896
    1SOL    HW2 8038   1.553   1.501   3.392  0.9481 -0.2124 -1.2508
    1SOL    HW3 8039   1.544   1.566   3.255  0.8973  0.5448 -0.8871
    1SOL    MW4 8040   1.541   1.572   3.342  0.1800 -0.0682 -0.8636
    1SOL     OW 8041   1.311   1.680   3.465  0.3005 -0.2062  0.0323
    1SOL    HW2 8042   1.319   1.688   3.561 -1.3221 -1.8706  0.3287
    1SOL    HW3 8043   1.395   1.645   3.437  0.8587  0.4715  0.8326
    1SOL    MW4 8044   1.323   1.677   3.474  0.1601 -0.3364  0.1769
    1SOL     OW 8045   1.353   1.911   3.328 -0.0128 -0.2239 -0.2038
    1SOL    HW2 8046   1.427   1.959   3.366  1.2826 -1.1689 -1.4338
    1SOL    HW3 8047   1.357   1.825   3.369 -1.6254  0.3463  1.1515
    1SOL    MW4 8048   1.364   1.906   3.338 -0.0546 -0.2732 -0.1872
    1SOL     OW 8049   1.557   2.088   3.412  0.2059  0.0399  0.0810
    1SOL    HW2 8050   1.646   2.056   3.396  0.2093  0.0432  0.0930
    1SOL    HW3 8051   1.564   2.183   3.404  0.3154  0.0791  0.6028
    1SOL    MW4 8052   1.570   2.096   3.409  0.2209  0.0453  0.1514
    1SOL     OW 8053   1.579   2.363   3.366 -0.1776 -0.2827 -0.2393
    1SOL    HW2 8054   1.488   2.381   3.388 -1.1554 -2.7753 -2.0392
    1SOL    HW3 8055   1.584   2.376   3.271  1.1929 -0.7693 -0.2494
    1SOL    MW4 8056   1.568   2.367   3.356 -0.1259 -0.6759 -0.4785
    1SOL     OW 8057   1.340   2.421   3.480  0.3148 -0.0901  0.0613
    1SOL    HW2 8058   1.362   2.424   3.574  0.3863  1.7226  0.0027
    1SOL    HW3 8059   1.326   2.512   3.456 -3.0515 -0.8010 -0.9404
    1SOL    MW4 8060   1.341   2.433   3.489 -0.1199  0.0556 -0.0784
    1SOL     OW 8061   1.327   2.688   3.403  0.2348 -0.7041 -0.5304
    1SOL    HW2 8062   1.401   2.735   3.441  0.1594 -0.3201 -0.8576
    1SOL    HW3 8063   1.337   2.699   3.308  0.2893 -1.4583 -0.6170
    1SOL    MW4 8064   1.338   2.696   3.395  0.2320 -0.7529 -0.5851
    1SOL     OW 8065   1.551   2.822   3.490  0.0402  0.1708  0.1148
    1SOL    HW2 8066   1.631   2.785   3.452 -0.4533 -1.1810  0.3527
    1SOL    HW3 8067   1.561   2.917   3.480  2.0063  0.0699  0.7657
    1SOL    MW4 8068   1.563   2.830   3.484  0.2346 -0.0207  0.2322
    1SOL     OW 8069   1.544   3.096   3.421  0.2018 -0.0168  0.1323
    1SOL    HW2 8070   1.610   3.156   3.455 -0.3359  0.0843  1.0075
    1SOL    HW3 8071   1.461   3.141   3.435 -0.0593 -0.1005 -1.0517
    1SOL    MW4 8072   1.542   3.110   3.427  0.0963 -0.0145  0.0916
    1SOL     OW 8073   1.336   3.247   3.506  0.6882 -0.6227 -0.0560
    1SOL    HW2 8074   1.342   3.239   3.601 -0.7174  0.4086  0.1301
    1SOL    HW3 8075   1.259   3.196   3.481  0.2402  0.2553 -0.4844
    1SOL    MW4 8076   1.327   3.239   3.515  0.4437 -0.3710 -0.0880
    1SOL     OW 8077   1.346   3.508   3.382  0.0403  0.2886  0.1326
    1SOL    HW2 8078   1.351   3.418   3.416  0.4413 -0.4863 -1.8947
    1SOL    HW3 8079   1.273   3.548   3.430 -0.4215 -1.2632  0.7622
    1SOL    MW4 8080   1.337   3.501   3.393  0.0323 -0.0184 -0.0520
    1SOL     OW 8081   1.577   3.663   3.483 -0.2014  0.1220  0.1106
    1SOL    HW2 8082   1.587   3.651   3.577  1.4087 -1.1840 -0.2093
    1SOL    HW3 8083   1.492   3.622   3.463 -0.6391  0.5746  1.0164
    1SOL    MW4 8084   1.567   3.656   3.493 -0.0467  0.0098  0.1876
    1SOL     OW 8085   1.563   3.915   3.401  0.4637 -0.0649 -0.2993
    1SOL    HW2 8086   1.553   3.824   3.426 -0.8709 -0.1428 -1.0455
    1SOL    HW3 8087   1.582   3.913   3.307 -0.0976  0.4330 -0.4329
    1SOL    MW4 8088   1.564   3.903   3.392  0.2136 -0.0095 -0.4151
    1SOL     OW 8089   1.328   4.032   3.517  0.0256 -0.3160 -0.3927
    1SOL    HW2 8090   1.323   4.122   3.487 -1.7755 -0.9108 -1.9727
    1SOL    HW3 8091   1.408   3.998   3.476  0.2422  0.3031 -0.4872
    1SOL    MW4 8092   1.338   4.039   3.508 -0.1836 -0.3128 -0.6139
    1SOL     OW 8093   1.314   4.268   3.375  0.0169  0.0179 -0.3846
    1SOL    HW2 8094   1.235   4.311   3.407 -0.1211 -0.1279 -0.5280
    1SOL    HW3 8095   1.309   4.275   3.280  0.3991  0.3992 -0.3798
    1SOL    MW4 8096   1.303   4.275   3.367  0.0492  0.0486 -0.4029
    1SOL     OW 8097   1.554   4.362   3.522  0.0866  0.5035  0.2545
    1SOL    HW2 8098   1.632   4.328   3.477  0.2822 -0.2610  1.1687
    1SOL    HW3 8099   1.487   4.296   3.507  0.0926  0.3491  0.9112
    1SOL    MW4 8100   1.556   4.349   3.514  0.1134  0.3824  0.4616
    1SOL     OW 8101   1.978   4.614   3.402  0.7512 -0.1096 -0.1011
    1SOL    HW2 8102   2.052   4.667   3.430 -0.0848 -0.4654  2.9590
    1SOL    HW3 8103   1.902   4.669   3.417  0.0037 -1.5875  1.6277
    1SOL    MW4 8104   1.978   4.628   3.408  0.5423 -0.3519  0.5305
    1SOL     OW 8105   1.761   0.084   3.473 -0.3182  0.0277 -0.2533
    1SOL    HW2 8106   1.744   0.097   3.567 -0.1404  0.6110 -0.3016
    1SOL    HW3 8107   1.688   0.029   3.443 -0.0613 -0.6478  0.3498
    1SOL    MW4 8108   1.749   0.078   3.482 -0.2609  0.0155 -0.1800
    1SOL     OW 8109   1.789   0.361   3.453  0.0152 -0.0975 -0.3681
    1SOL    HW2 8110   1.789   0.265   3.461  1.4444 -0.1904 -1.2906
    1SOL    HW3 8111   1.775   0.377   3.359 -1.6370  0.6397 -0.0165
    1SOL    MW4 8112   1.787   0.350   3.441 -0.0142 -0.0125 -0.4435
    1SOL     OW 8113   2.016   0.500   3.501 -0.5584 -0.0592 -0.2789
    1SOL    HW2 8114   1.994   0.584   3.461 -0.1048  0.9141  1.4647
    1SOL    HW3 8115   1.941   0.444   3.482 -0.5743  0.5228 -2.0430
    1SOL    MW4 8116   2.003   0.504   3.493 -0.5007  0.1460 -0.2816
    1SOL     OW 8117   1.966   0.749   3.393 -0.2945 -0.4996  0.0497
    1SOL    HW2 8118   2.049   0.792   3.416 -0.9728  1.2416 -0.6618
    1SOL    HW3 8119   1.970   0.739   3.298  0.2712 -2.9575  0.2933
    1SOL    MW4 8120   1.978   0.753   3.383 -0.3093 -0.5941 -0.0119
    1SOL     OW 8121   1.730   0.870   3.483  0.3486 -0.3517 -0.2575
    1SOL    HW2 8122   1.807   0.823   3.452  1.5887  1.7697 -0.5262
    1SOL    HW3 8123   1.656   0.824   3.443  1.3560 -3.1607  0.9673
    1SOL    MW4 8124   1.730   0.858   3.474  0.6452 -0.4424 -0.1314
    1SOL     OW 8125   1.800   1.116   3.396 -0.0573  0.5269  0.4755
    1SOL    HW2 8126   1.874   1.155   3.442  0.4696  0.3320 -0.2095
    1SOL    HW3 8127   1.792   1.028   3.434  1.3229 -0.1920 -0.8289
    1SOL    MW4 8128   1.809   1.109   3.407  0.1943  0.4064  0.2129
    1SOL     OW 8129   2.026   1.241   3.517  0.1634  0.1967 -0.4439
    1SOL    HW2 8130   2.027   1.250   3.613  3.8576 -0.1460 -0.3953
    1SOL    HW3 8131   1.992   1.325   3.486 -1.6639  0.0907  1.1631
    1SOL    MW4 8132   2.021   1.253   3.526  0.4096  0.1373 -0.2255
    1SOL     OW 8133   1.977   1.487   3.414  0.4493 -0.0671 -0.3306
    1SOL    HW2 8134   2.056   1.536   3.436  0.0413 -0.1710  1.4591
    1SOL    HW3 8135   1.906   1.550   3.423 -0.1335 -1.0164  2.4627
    1SOL    MW4 8136   1.978   1.502   3.418  0.3186 -0.2061  0.2739
    1SOL     OW 8137   1.795   1.682   3.435  0.3034  0.0944  0.0727
    1SOL    HW2 8138   1.805   1.776   3.419  0.4086  0.1444  0.4243
    1SOL    HW3 8139   1.718   1.657   3.385  1.9797 -0.2264 -2.4801
    1SOL    MW4 8140   1.786   1.691   3.427  0.5385  0.0587 -0.2177
    1SOL     OW 8141   1.801   1.948   3.372  0.1236 -0.5924  0.2439
    1SOL    HW2 8142   1.882   1.987   3.405  0.6897 -1.7944  0.3050
    1SOL    HW3 8143   1.816   1.939   3.277 -0.2793 -0.0125  0.1251
    1SOL    MW4 8144   1.814   1.952   3.364  0.1452 -0.6744  0.2360
    1SOL     OW 8145   2.015   2.069   3.464 -0.2321  0.2588  0.1130
    1SOL    HW2 8146   2.081   2.016   3.420 -0.7507 -0.0084 -0.3559
    1SOL    HW3 8147   2.025   2.156   3.427 -0.0387  0.2547  0.1564
    1SOL    MW4 8148   2.025   2.073   3.453 -0.2749  0.2234  0.0572
    1SOL     OW 8149   2.053   2.320   3.374  0.0177  0.1822 -0.2060
    1SOL    HW2 8150   1.971   2.367   3.389 -0.1988 -0.7949  1.8158
    1SOL    HW3 8151   2.060   2.315   3.278 -2.4482  0.0041 -0.4143
    1SOL    MW4 8152   2.043   2.325   3.363 -0.3362  0.0296  0.0334
    1SOL     OW 8153   1.828   2.445   3.464 -0.3474 -0.2643 -0.1482
    1SOL    HW2 8154   1.838   2.442   3.559  0.3177 -2.0006 -0.2598
    1SOL    HW3 8155   1.738   2.416   3.448 -0.6939  0.7023 -0.0322
    1SOL    MW4 8156   1.818   2.441   3.474 -0.3055 -0.3660 -0.1478
    1SOL     OW 8157   1.762   2.709   3.367 -0.1838  0.0012  0.2837
    1SOL    HW2 8158   1.842   2.757   3.389 -0.4979  1.0747 -0.8606
    1SOL    HW3 8159   1.771   2.626   3.413  1.4652  0.2205  0.4004
    1SOL    MW4 8160   1.774   2.705   3.376 -0.0077  0.1717  0.1481
    1SOL     OW 8161   1.993   2.828   3.446 -0.2722  0.4501 -0.5070
    1SOL    HW2 8162   2.009   2.833   3.541  0.9744  0.0935 -0.6984
    1SOL    HW3 8163   1.996   2.919   3.417  0.1376  0.4891 -0.3410
    1SOL    MW4 8164   1.995   2.840   3.455 -0.0536  0.4079 -0.5105
    1SOL     OW 8165   2.002   3.101   3.349  0.6366  0.1555  0.3802
    1SOL    HW2 8166   2.067   3.128   3.414 -0.0195  2.1541  0.2124
    1SOL    HW3 8167   1.926   3.156   3.366 -0.5517 -1.2482 -0.2973
    1SOL    MW4 8168   2.001   3.111   3.360  0.3932  0.2339  0.2687
    1SOL     OW 8169   1.782   3.255   3.449 -0.1595  0.8858 -0.3622
    1SOL    HW2 8170   1.807   3.242   3.541  1.4674 -0.1029 -0.9271
    1SOL    HW3 8171   1.792   3.349   3.434  1.5832  0.7567 -0.0858
    1SOL    MW4 8172   1.786   3.265   3.459  0.2853  0.7384 -0.4003
    1SOL     OW 8173   1.793   3.526   3.389 -0.5267 -0.6261 -0.4792
    1SOL    HW2 8174   1.717   3.578   3.414  0.2953  0.6584 -0.5919
    1SOL    HW3 8175   1.797   3.534   3.294  1.0111  1.1646 -0.3067
    1SOL    MW4 8176   1.784   3.534   3.380 -0.2154 -0.2203 -0.4714
    1SOL     OW 8177   2.039   3.596   3.536 -0.3618 -0.6674  0.0799
    1SOL    HW2 8178   2.103   3.540   3.492  0.8513 -0.4838  1.5727
    1SOL    HW3 8179   1.956   3.577   3.492  0.4981 -1.7846 -1.0894
    1SOL    MW4 8180   2.037   3.586   3.524 -0.0880 -0.7906  0.1225
    1SOL     OW 8181   2.032   3.848   3.409  0.4635  0.1556  0.0165
    1SOL    HW2 8182   1.962   3.905   3.443 -0.1329 -0.5431 -0.0330
    1SOL    HW3 8183   2.018   3.764   3.452  2.0861  0.3764  1.0271
    1SOL    MW4 8184   2.021   3.845   3.419  0.5989  0.0925  0.1431
    1SOL     OW 8185   1.805   4.021   3.496 -0.0025  0.3517 -0.1834
    1SOL    HW2 8186   1.806   4.013   3.592 -0.1714 -0.4887 -0.2508
    1SOL    HW3 8187   1.717   3.994   3.471 -0.0848  0.9621 -0.5434
    1SOL    MW4 8188   1.794   4.016   3.506 -0.0356  0.3204 -0.2396
    1SOL     OW 8189   1.789   4.270   3.424  0.1910 -0.0482  0.0751
    1SOL    HW2 8190   1.788   4.177   3.445  0.0844 -0.0315  0.1496
    1SOL    HW3 8191   1.766   4.275   3.331 -0.2429 -0.0738  0.1768
    1SOL    MW4 8192   1.786   4.258   3.414  0.1198 -0.0496  0.0982
    1SOL     OW 8193   2.038   4.368   3.501  0.0550  0.0739 -0.4574
    1SOL    HW2 8194   1.956   4.320   3.493 -0.1905  0.4058  0.0223
    1SOL    HW3 8195   2.016   4.458   3.476  0.1058  0.3179  0.3489
    1SOL    MW4 8196   2.024   4.374   3.497  0.0291  0.1493 -0.2875
    1SOL     OW 8197   2.481   4.600   3.436 -0.0017  0.2815  0.3702
    1SOL    HW2 8198   2.501   4.507   3.446  0.8438  0.4385  0.1927
    1SOL    HW3 8199   2.495   4.618   3.342 -1.1249  0.3687  0.2082
    1SOL    MW4 8200   2.485   4.591   3.425 -0.0386  0.3133  0.3254
    1SOL     OW 8201   2.212   0.074   3.466 -0.4586  0.7212 -0.4607
    1SOL    HW2 8202   2.218   0.167   3.444  0.2110  0.6177 -0.7018
    1SOL    HW3 8203   2.299   0.039   3.450 -1.3337 -0.4803 -2.7203
    1SOL    MW4 8204   2.224   0.082   3.461 -0.4857  0.5490 -0.7906
    1SOL     OW 8205   2.234   0.359   3.405 -0.5521  0.2551  0.5545
    1SOL    HW2 8206   2.308   0.401   3.449 -0.0309  0.4619 -0.4936
    1SOL    HW3 8207   2.157   0.405   3.437 -0.2407 -0.0492  1.7639
    1SOL    MW4 8208   2.234   0.370   3.415 -0.4423  0.2422  0.5760
    1SOL     OW 8209   2.469   0.502   3.518 -0.3337 -0.1757  0.0883
    1SOL    HW2 8210   2.542   0.456   3.477 -0.0848 -0.5051  0.8970
    1SOL    HW3 8211   2.460   0.583   3.468 -1.0977 -1.3150 -1.6813
    1SOL    MW4 8212   2.477   0.507   3.506 -0.4020 -0.3695 -0.0389
    1SOL     OW 8213   2.459   0.733   3.384  0.2219  0.0383  0.0938
    1SOL    HW2 8214   2.537   0.784   3.409  0.5441 -0.4900  0.1752
    1SOL    HW3 8215   2.444   0.756   3.292 -0.9999  2.0357  0.7472
    1SOL    MW4 8216   2.468   0.743   3.375  0.1032  0.2320  0.1907
    1SOL     OW 8217   2.219   0.875   3.438 -0.0050 -0.3332  0.3769
    1SOL    HW2 8218   2.231   0.968   3.421  0.0006 -0.2763  0.6857
    1SOL    HW3 8219   2.303   0.835   3.417  0.3063 -0.1259  1.2180
    1SOL    MW4 8220   2.232   0.882   3.433  0.0370 -0.2984  0.5286
    1SOL     OW 8221   2.242   1.154   3.353 -0.0133 -0.0932 -0.3182
    1SOL    HW2 8222   2.308   1.185   3.415 -0.1474 -2.8348  1.2829
    1SOL    HW3 8223   2.158   1.176   3.394 -0.0989 -1.1392  0.0745
    1SOL    MW4 8224   2.239   1.161   3.366 -0.0424 -0.5929 -0.0551
    1SOL     OW 8225   2.464   1.260   3.502 -0.3985  0.2374  0.2276
    1SOL    HW2 8226   2.454   1.243   3.596  0.0777  1.2495  0.4648
    1SOL    HW3 8227   2.539   1.206   3.476  0.0229  0.6321  0.6150
    1SOL    MW4 8228   2.472   1.251   3.511 -0.2799  0.4231  0.3099
    1SOL     OW 8229   2.452   1.504   3.388 -0.2050  0.3078 -0.2726
    1SOL    HW2 8230   2.461   1.415   3.421 -0.5619  0.4209  0.1368
    1SOL    HW3 8231   2.480   1.499   3.296  0.1639 -0.1382 -0.1338
    1SOL    MW4 8232   2.457   1.492   3.380 -0.2036  0.2640 -0.2003
    1SOL     OW 8233   2.211   1.655   3.431  0.1568  0.1957  0.1236
    1SOL    HW2 8234   2.212   1.646   3.526 -0.4480  2.2788  0.3587
    1SOL    HW3 8235   2.292   1.613   3.402  0.3355 -0.4853  1.5425
    1SOL    MW4 8236   2.222   1.648   3.440  0.1004  0.3806  0.3417
    1SOL     OW 8237   2.230   1.917   3.367 -0.0993  0.4366 -0.0604
    1SOL    HW2 8238   2.219   1.825   3.389 -1.6051  0.0097 -2.4861
    1SOL    HW3 8239   2.239   1.919   3.272 -0.6308  2.8337 -0.1088
    1SOL    MW4 8240   2.230   1.905   3.358 -0.3681  0.6965 -0.3867
    1SOL     OW 8241   2.461   2.024   3.472  0.3011 -0.3722 -0.3422
    1SOL    HW2 8242   2.379   1.982   3.444  0.0804 -0.7389  0.8065
    1SOL    HW3 8243   2.462   2.108   3.427 -1.2216  0.0730  0.4422
    1SOL    MW4 8244   2.450   2.030   3.462  0.0710 -0.3619 -0.0875
    1SOL     OW 8245   2.507   2.301   3.389  0.2938  0.2221  0.0996
    1SOL    HW2 8246   2.434   2.349   3.428  0.4761  0.9939 -0.4837
    1SOL    HW3 8247   2.585   2.351   3.415  0.5686 -0.2744  0.2429
    1SOL    MW4 8248   2.508   2.314   3.398  0.3541  0.2584  0.0417
    1SOL     OW 8249   2.279   2.455   3.459  0.6429  0.4121  0.1762
    1SOL    HW2 8250   2.202   2.408   3.426  0.2965  0.6828  0.5943
    1SOL    HW3 8251   2.260   2.547   3.440  0.5187  0.5541  0.9714
    1SOL    MW4 8252   2.266   2.461   3.452  0.5810  0.4666  0.3359
    1SOL     OW 8253   2.245   2.719   3.404  0.3925  0.3152  0.1642
    1SOL    HW2 8254   2.158   2.757   3.416  0.9467  1.2681  1.2154
    1SOL    HW3 8255   2.263   2.729   3.311 -0.5993  0.1636 -0.0476
    1SOL    MW4 8256   2.236   2.725   3.393  0.3345  0.4210  0.2749
    1SOL     OW 8257   2.463   2.861   3.558 -0.3264 -0.1211  0.0750
    1SOL    HW2 8258   2.477   2.939   3.504  0.1441 -0.2552 -0.0005
    1SOL    HW3 8259   2.418   2.800   3.500  0.0715 -0.2213 -0.1313
    1SOL    MW4 8260   2.459   2.864   3.543 -0.2120 -0.1521  0.0377
    1SOL     OW 8261   2.472   3.081   3.384  0.0421  0.7164  0.4671
    1SOL    HW2 8262   2.544   3.144   3.393  0.8984  0.1111 -1.8504
    1SOL    HW3 8263   2.473   3.057   3.292  0.1544 -3.1745  1.4117
    1SOL    MW4 8264   2.482   3.086   3.373  0.1700  0.1233  0.2859
    1SOL     OW 8265   2.236   3.177   3.489  0.1531  0.5272  0.0394
    1SOL    HW2 8266   2.246   3.170   3.584  1.8607  1.0514 -0.0938
    1SOL    HW3 8267   2.315   3.138   3.454 -1.1292 -0.9843 -1.2226
    1SOL    MW4 8268   2.248   3.171   3.497  0.2091  0.3970 -0.1445
    1SOL     OW 8269   2.223   3.443   3.423  0.3401 -0.2533  0.3383
    1SOL    HW2 8270   2.231   3.350   3.440 -2.9213 -0.5915  0.3524
    1SOL    HW3 8271   2.231   3.452   3.328 -0.4487 -0.6894  0.2308
    1SOL    MW4 8272   2.225   3.432   3.413 -0.1943 -0.3555  0.3264
    1SOL     OW 8273   2.468   3.627   3.503 -0.3456 -0.0814 -0.0292
    1SOL    HW2 8274   2.487   3.717   3.478  0.6991 -0.5004 -0.7630
    1SOL    HW3 8275   2.376   3.614   3.480 -0.0641  0.3015 -1.4060
    1SOL    MW4 8276   2.458   3.637   3.497 -0.1707 -0.0863 -0.3076
    1SOL     OW 8277   2.493   3.901   3.409  0.1171  0.0113 -0.7163
    1SOL    HW2 8278   2.569   3.947   3.446  0.3813 -0.9984  0.0107
    1SOL    HW3 8279   2.418   3.934   3.459  0.5456 -1.7957  1.1585
    1SOL    MW4 8280   2.493   3.912   3.420  0.2086 -0.3605 -0.3729
    1SOL     OW 8281   2.252   3.969   3.563 -0.2982  0.5332 -0.4941
    1SOL    HW2 8282   2.257   4.055   3.522 -0.2202  0.0930 -1.4474
    1SOL    HW3 8283   2.184   3.923   3.513  0.5884 -0.4036 -0.8868
    1SOL    MW4 8284   2.244   3.974   3.551 -0.1709  0.3517 -0.6719
    1SOL     OW 8285   2.257   4.217   3.414  0.3928  0.3832  0.3955
    1SOL    HW2 8286   2.187   4.274   3.446  0.4052  0.4604  0.2839
    1SOL    HW3 8287   2.243   4.212   3.319 -1.1914 -1.9076  0.6905
    1SOL    MW4 8288   2.246   4.224   3.406  0.1855  0.0911  0.4199
    1SOL     OW 8289   2.500   4.344   3.506 -0.4075  0.0827  0.8435
    1SOL    HW2 8290   2.495   4.335   3.601 -0.6557  0.4009  0.8608
    1SOL    HW3 8291   2.419   4.305   3.474 -0.7150  0.7393  0.8152
    1SOL    MW4 8292   2.489   4.337   3.514 -0.4807  0.2112  0.8421
    1SOL     OW 8293   2.923   4.613   3.419 -0.0467 -0.2787  0.5033
    1SOL    HW2 8294   2.852   4.669   3.450  1.2645  0.9322  1.3782
    1SOL    HW3 8295   2.915   4.614   3.324 -0.2334  1.1702  0.5188
    1SOL    MW4 8296   2.913   4.620   3.410  0.1018  0.0725  0.6206
    1SOL     OW 8297   2.720   0.084   3.511 -0.1111  0.0681 -0.4201
    1SOL    HW2 8298   2.720   0.117   3.601  0.2982  0.5147 -0.5837
    1SOL    HW3 8299   2.632   0.047   3.500 -0.3231  0.4314  0.0064
    1SOL    MW4 8300   2.708   0.083   3.522 -0.0854  0.1749 -0.3853
    1SOL     OW 8301   2.696   0.346   3.442  0.1584 -0.0708 -0.3157
    1SOL    HW2 8302   2.778   0.390   3.465 -0.2440  0.2777  0.4787
    1SOL    HW3 8303   2.707   0.257   3.478  0.0380  0.0916  0.1274
    1SOL    MW4 8304   2.708   0.340   3.450  0.0896 -0.0034 -0.1523
    1SOL     OW 8305   2.924   0.492   3.511  0.3938 -0.1289  0.4018
    1SOL    HW2 8306   2.913   0.499   3.606 -0.5763  0.9539  0.2147
    1SOL    HW3 8307   2.929   0.582   3.481  0.7523 -0.4693 -0.5774
    1SOL    MW4 8308   2.923   0.504   3.519  0.3133 -0.0310  0.2482
    1SOL     OW 8309   2.951   0.748   3.426  0.0465  0.5204 -0.3210
    1SOL    HW2 8310   3.026   0.800   3.455  0.4911  0.2221 -0.9219
    1SOL    HW3 8311   2.875   0.792   3.464  0.3207  2.3258 -1.8547
    1SOL    MW4 8312   2.951   0.761   3.435  0.1411  0.7192 -0.6027
    1SOL     OW 8313   2.709   0.876   3.472 -0.0226 -0.3188  0.4873
    1SOL    HW2 8314   2.682   0.880   3.563  0.0973 -0.7710  0.5451
    1SOL    HW3 8315   2.724   0.967   3.447  0.3192 -0.2236  1.0312
    1SOL    MW4 8316   2.707   0.889   3.481  0.0381 -0.3659  0.5667
    1SOL     OW 8317   2.693   1.146   3.410 -0.4604  0.3457  0.2334
    1SOL    HW2 8318   2.774   1.197   3.415  0.1752 -0.7273  1.1720
    1SOL    HW3 8319   2.682   1.125   3.318  0.3109  0.5290  0.1014
    1SOL    MW4 8320   2.702   1.150   3.399 -0.2749  0.2284  0.3395
    1SOL     OW 8321   2.954   1.289   3.454  0.6966 -0.1718  0.3207
    1SOL    HW2 8322   2.964   1.272   3.548  1.5909 -0.4905  0.1721
    1SOL    HW3 8323   3.034   1.254   3.415  1.2980  1.8625 -0.3266
    1SOL    MW4 8324   2.966   1.282   3.462  0.8938  0.0545  0.2158
    1SOL     OW 8325   2.901   1.539   3.378 -0.2446 -0.0236  0.3375
    1SOL    HW2 8326   2.825   1.575   3.425 -1.0973 -0.1543 -0.9235
    1SOL    HW3 8327   2.908   1.449   3.409 -0.2311  0.1756  0.9179
    1SOL    MW4 8328   2.892   1.532   3.389 -0.3555 -0.0144  0.2477
    1SOL     OW 8329   2.677   1.614   3.515 -0.5356 -0.0623  0.1354
    1SOL    HW2 8330   2.692   1.694   3.464  0.5502 -0.2153  0.2035
    1SOL    HW3 8331   2.598   1.577   3.477 -0.3595  0.4059 -0.7124
    1SOL    MW4 8332   2.668   1.620   3.503 -0.3691 -0.0207  0.0327
    1SOL     OW 8333   2.705   1.883   3.418 -0.4341 -0.6243  0.1222
    1SOL    HW2 8334   2.624   1.930   3.434 -0.9592 -1.6798  0.5832
    1SOL    HW3 8335   2.731   1.909   3.330 -1.2559 -0.2557 -0.0137
    1SOL    MW4 8336   2.698   1.892   3.408 -0.6118 -0.7149  0.1650
    1SOL     OW 8337   2.885   2.074   3.491  0.4112  0.1570 -0.5429
    1SOL    HW2 8338   2.873   2.083   3.586  0.8288  2.0576 -0.6628
    1SOL    HW3 8339   2.823   2.005   3.466  1.8632 -1.9588  1.4259
    1SOL    MW4 8340   2.875   2.066   3.500  0.6580  0.1283 -0.2990
    1SOL     OW 8341   2.908   2.339   3.423 -0.3453 -0.0522 -0.2805
    1SOL    HW2 8342   2.900   2.245   3.440  1.6424 -0.5390 -1.8467
    1SOL    HW3 8343   2.900   2.347   3.328 -2.8063  1.6504  0.0268
    1SOL    MW4 8344   2.906   2.328   3.413 -0.4077  0.1082 -0.4463
    1SOL     OW 8345   2.675   2.492   3.523  0.7840 -0.0814 -0.5195
    1SOL    HW2 8346   2.677   2.459   3.613  1.9858 -0.3287 -0.6307
    1SOL    HW3 8347   2.759   2.465   3.486 -0.1341 -0.9334 -2.0580
    1SOL    MW4 8348   2.687   2.484   3.530  0.8216 -0.2263 -0.7370
    1SOL     OW 8349   2.713   2.769   3.468 -0.1999 -0.3685  0.0194
    1SOL    HW2 8350   2.699   2.677   3.491  0.3624 -0.4709 -0.0294
    1SOL    HW3 8351   2.635   2.814   3.499 -0.0492 -0.7102  0.9202
    1SOL    MW4 8352   2.701   2.763   3.475 -0.1059 -0.4270  0.1316
    1SOL     OW 8353   2.952   2.892   3.529 -0.1816 -0.0120  0.0327
    1SOL    HW2 8354   2.961   2.883   3.623  0.6091  0.4246  0.0074
    1SOL    HW3 8355   2.876   2.838   3.506 -0.7699  0.3930  0.9978
    1SOL    MW4 8356   2.943   2.884   3.538 -0.1552  0.0992  0.1566
    1SOL     OW 8357   2.937   3.128   3.396 -0.0413 -0.0570 -0.2799
    1SOL    HW2 8358   2.931   3.038   3.427  1.0654 -0.3772 -0.9889
    1SOL    HW3 8359   2.953   3.120   3.302  0.6219  0.8733 -0.2520
    1SOL    MW4 8360   2.938   3.115   3.388  0.1919  0.0236 -0.3698
    1SOL     OW 8361   2.680   3.243   3.458  0.2792 -0.0657 -0.3704
    1SOL    HW2 8362   2.673   3.254   3.553 -0.1410 -0.3640 -0.3623
    1SOL    HW3 8363   2.769   3.211   3.443  0.3696  0.0536 -0.0831
    1SOL    MW4 8364   2.691   3.240   3.468  0.2356 -0.0894 -0.3316
    1SOL     OW 8365   2.684   3.499   3.383 -0.3985 -0.2953  0.2243
    1SOL    HW2 8366   2.688   3.405   3.402 -0.1011 -0.6974 -1.7812
    1SOL    HW3 8367   2.596   3.525   3.408 -0.1150 -0.8427  1.8953
    1SOL    MW4 8368   2.673   3.490   3.389 -0.3216 -0.4206  0.1800
    1SOL     OW 8369   2.906   3.641   3.524  0.6379  0.5597 -0.5512
    1SOL    HW2 8370   2.920   3.716   3.467  0.3153  0.3556 -0.9032
    1SOL    HW3 8371   2.837   3.590   3.480  0.4387  0.3647 -0.0197
    1SOL    MW4 8372   2.899   3.644   3.511  0.5689  0.5071 -0.5274
    1SOL     OW 8373   2.950   3.877   3.391 -0.3713  0.0286  0.2340
    1SOL    HW2 8374   3.023   3.914   3.439 -0.1379 -0.6829  0.4411
    1SOL    HW3 8375   2.872   3.906   3.438 -0.1625 -0.2867  0.7751
    1SOL    MW4 8376   2.949   3.885   3.403 -0.3133 -0.1068  0.3326
    1SOL     OW 8377   2.735   3.970   3.518  0.0646 -0.1107 -0.7328
    1SOL    HW2 8378   2.722   3.982   3.612  0.8420 -1.6739 -0.4281
    1SOL    HW3 8379   2.736   4.060   3.483  1.7285  0.5593  0.9856
    1SOL    MW4 8380   2.733   3.984   3.526  0.3867 -0.2284 -0.4656
    1SOL     OW 8381   2.717   4.210   3.405  0.1692 -0.0041  0.3744
    1SOL    HW2 8382   2.786   4.247   3.459 -0.7033 -1.0419  2.2436
    1SOL    HW3 8383   2.637   4.256   3.432 -0.1430  0.0708 -0.6411
    1SOL    MW4 8384   2.716   4.221   3.416  0.0129 -0.1311  0.4871
    1SOL     OW 8385   2.920   4.346   3.538 -0.1669  0.3169  0.1387
    1SOL    HW2 8386   2.914   4.350   3.633  0.8253  1.3539  0.1675
    1SOL    HW3 8387   2.931   4.437   3.510  0.3344 -0.0494 -0.9019
    1SOL    MW4 8388   2.921   4.358   3.547  0.0303  0.4053  0.0052
    1SOL     OW 8389   3.368   4.611   3.418  0.0471  0.4961 -0.3048
    1SOL    HW2 8390   3.286   4.652   3.446 -1.0615 -1.5673 -0.4277
    1SOL    HW3 8391   3.368   4.622   3.322 -0.0894  0.4790 -0.3072
    1SOL    MW4 8392   3.357   4.618   3.409 -0.1173  0.2217 -0.3216
    1SOL     OW 8393   3.160   0.063   3.525  0.3751  0.0924 -0.3327
    1SOL    HW2 8394   3.157   0.152   3.491  0.2326  0.3666  0.3862
    1SOL    HW3 8395   3.077   0.024   3.497  0.5381  0.1095 -0.8440
    1SOL    MW4 8396   3.149   0.069   3.517  0.3777  0.1309 -0.3054
    1SOL     OW 8397   3.134   0.313   3.438 -0.1221  0.0403  0.0731
    1SOL    HW2 8398   3.059   0.363   3.470  0.3627  1.0501 -0.3297
    1SOL    HW3 8399   3.131   0.325   3.343  1.3240  1.2319  0.1527
    1SOL    MW4 8400   3.123   0.321   3.429  0.1326  0.3307  0.0305
    1SOL     OW 8401   3.337   0.499   3.537  0.1523 -0.2498 -0.1324
    1SOL    HW2 8402   3.359   0.491   3.630  0.1035 -0.5541 -0.1445
    1SOL    HW3 8403   3.271   0.431   3.523 -1.9869  1.7282  0.2706
    1SOL    MW4 8404   3.331   0.489   3.547 -0.1364 -0.0290 -0.0811
    1SOL     OW 8405   3.378   0.746   3.408  0.1379  0.5980 -0.0641
    1SOL    HW2 8406   3.457   0.789   3.443  0.3818 -0.4259  0.6508
    1SOL    HW3 8407   3.378   0.660   3.449 -0.5883  0.0691 -1.1752
    1SOL    MW4 8408   3.389   0.741   3.418  0.0744  0.3932 -0.1166
    1SOL     OW 8409   3.162   0.902   3.505  0.5418  0.7521  0.1049
    1SOL    HW2 8410   3.146   0.976   3.447  0.0336  0.3713 -0.2454
    1SOL    HW3 8411   3.241   0.861   3.470  0.0563  0.3350 -0.5124
    1SOL    MW4 8412   3.170   0.906   3.493  0.4110  0.6469 -0.0226
    1SOL     OW 8413   3.169   1.159   3.350  0.2581 -0.6131 -0.1724
    1SOL    HW2 8414   3.244   1.213   3.375 -1.3857  1.0509  1.2935
    1SOL    HW3 8415   3.180   1.145   3.256  2.4033 -0.4219  0.0250
    1SOL    MW4 8416   3.180   1.164   3.341  0.3240 -0.3684  0.0472
    1SOL     OW 8417   3.388   1.281   3.500  0.2165  0.1976  0.1742
    1SOL    HW2 8418   3.456   1.244   3.444  2.4183  2.2111  1.4188
    1SOL    HW3 8419   3.368   1.366   3.460 -0.7182  0.1374  0.5055
    1SOL    MW4 8420   3.395   1.288   3.487  0.3836  0.4554  0.3819
    1SOL     OW 8421   3.346   1.535   3.383 -0.0292 -0.0207  0.3393
    1SOL    HW2 8422   3.419   1.580   3.425 -0.0850  1.0215 -0.6673
    1SOL    HW3 8423   3.268   1.572   3.424 -0.0808  0.9371 -0.5971
    1SOL    MW4 8424   3.345   1.546   3.394 -0.0434  0.2432  0.0830
    1SOL     OW 8425   3.131   1.654   3.506 -0.3215  0.0263  0.1226
    1SOL    HW2 8426   3.131   1.744   3.472 -0.8043 -1.0671 -2.9006
    1SOL    HW3 8427   3.053   1.614   3.467 -0.1487 -1.7249  1.5080
    1SOL    MW4 8428   3.120   1.661   3.496 -0.3622 -0.3490 -0.0935
    1SOL     OW 8429   3.104   1.935   3.408  0.2193 -0.1496  0.1203
    1SOL    HW2 8430   3.025   1.968   3.450  1.1422 -0.5664  2.2547
    1SOL    HW3 8431   3.170   2.003   3.425  0.8932 -0.8548  0.3791
    1SOL    MW4 8432   3.102   1.948   3.416  0.4301 -0.2977  0.4363
    1SOL     OW 8433   3.316   2.107   3.444  0.1955 -0.5677 -0.1954
    1SOL    HW2 8434   3.329   2.201   3.429 -0.3157 -0.3559  0.6490
    1SOL    HW3 8435   3.325   2.097   3.538 -1.4688 -1.0898 -0.0886
    1SOL    MW4 8436   3.319   2.118   3.454 -0.0913 -0.6084 -0.0699
    1SOL     OW 8437   3.365   2.367   3.389  0.2509  0.0241  0.0112
    1SOL    HW2 8438   3.444   2.411   3.420 -0.3107  0.8003  0.3353
    1SOL    HW3 8439   3.294   2.405   3.440 -0.2623 -1.1345  0.1800
    1SOL    MW4 8440   3.366   2.377   3.400  0.1090 -0.0262  0.0761
    1SOL     OW 8441   3.120   2.485   3.522  0.0107  0.0006  0.3026
    1SOL    HW2 8442   3.129   2.573   3.486  1.6209 -0.6148 -0.8517
    1SOL    HW3 8443   3.049   2.446   3.472  2.3534 -0.9112 -2.4416
    1SOL    MW4 8444   3.112   2.491   3.511  0.5324 -0.2007 -0.2117
    1SOL     OW 8445   3.122   2.733   3.396  0.4160  0.0807  0.1172
    1SOL    HW2 8446   3.209   2.759   3.426  0.5309  1.7818 -1.6028
    1SOL    HW3 8447   3.063   2.798   3.433  0.0086 -0.4132  0.3416
    1SOL    MW4 8448   3.126   2.745   3.405  0.3772  0.2396 -0.0803
    1SOL     OW 8449   3.360   2.831   3.487  0.6995 -0.4026 -0.1963
    1SOL    HW2 8450   3.380   2.843   3.579  0.2521 -0.9106 -0.0308
    1SOL    HW3 8451   3.377   2.917   3.447 -0.8708  0.3348  0.6879
    1SOL    MW4 8452   3.365   2.844   3.494  0.4332 -0.3724 -0.0579
    1SOL     OW 8453   3.395   3.093   3.396  0.0714 -0.0073 -0.2559
    1SOL    HW2 8454   3.465   3.150   3.426 -0.4374 -0.3452  1.6315
    1SOL    HW3 8455   3.315   3.135   3.426 -0.3262 -1.4844  0.7989
    1SOL    MW4 8456   3.394   3.106   3.404 -0.0479 -0.2468  0.1321
    1SOL     OW 8457   3.178   3.240   3.483  0.4074 -0.3114  0.2114
    1SOL    HW2 8458   3.182   3.332   3.459  2.1537 -0.2722  0.6338
    1SOL    HW3 8459   3.091   3.211   3.452 -0.0613  1.3973 -0.1044
    1SOL    MW4 8460   3.167   3.248   3.476  0.5760 -0.0806  0.2258
    1SOL     OW 8461   3.140   3.506   3.452  0.0625 -0.3837  0.4219
    1SOL    HW2 8462   3.056   3.543   3.478  0.4745  0.9188 -0.0491
    1SOL    HW3 8463   3.144   3.521   3.357  0.7061 -0.6770  0.4004
    1SOL    MW4 8464   3.129   3.513   3.443  0.2019 -0.2506  0.3572
    1SOL     OW 8465   3.387   3.624   3.531 -0.0428  0.3430  0.3305
    1SOL    HW2 8466   3.390   3.712   3.492 -0.4586  1.0695  1.9074
    1SOL    HW3 8467   3.300   3.591   3.508 -0.3331  0.8143  0.7402
    1SOL    MW4 8468   3.376   3.631   3.522 -0.1361  0.5009  0.5925
    1SOL     OW 8469   3.391   3.879   3.404 -0.0342 -0.0017 -0.3938
    1SOL    HW2 8470   3.458   3.932   3.446 -0.5463  2.0452 -2.0881
    1SOL    HW3 8471   3.308   3.915   3.435 -0.3979 -1.5245  0.4824
    1SOL    MW4 8472   3.389   3.890   3.414 -0.1497  0.0677 -0.5016
    1SOL     OW 8473   3.166   4.007   3.505 -0.4510 -0.0181  0.4616
    1SOL    HW2 8474   3.172   4.012   3.601  0.2454 -0.5683  0.4497
    1SOL    HW3 8475   3.151   4.097   3.477 -1.5364  0.0235  1.1465
    1SOL    MW4 8476   3.165   4.020   3.514 -0.5023 -0.0849  0.5503
    1SOL     OW 8477   3.112   4.263   3.382 -0.0142 -0.5253  0.3603
    1SOL    HW2 8478   3.187   4.295   3.432  0.2842  1.1233 -1.1229
    1SOL    HW3 8479   3.036   4.291   3.434  0.3550 -0.9538  1.1353
    1SOL    MW4 8480   3.112   4.271   3.396  0.0739 -0.3648  0.2670
    1SOL     OW 8481   3.329   4.366   3.533 -0.3037 -0.1230 -0.5023
    1SOL    HW2 8482   3.351   4.376   3.625 -0.5885 -0.9736 -0.3396
    1SOL    HW3 8483   3.329   4.455   3.499 -0.1847  0.1944  0.3144
    1SOL    MW4 8484   3.332   4.379   3.541 -0.3254 -0.1936 -0.3731
    1SOL     OW 8485   3.803   4.641   3.453  0.3724  0.1358 -0.1071
    1SOL    HW2 8486   3.727   4.685   3.491  0.9513  1.2586 -0.2173
    1SOL    HW3 8487   3.794   4.654   3.359 -0.8079 -2.2315 -0.3411
    1SOL    MW4 8488   3.792   4.649   3.446  0.2930 -0.0291 -0.1523
    1SOL     OW 8489   3.571   0.090   3.548 -0.1513  0.1893  0.1698
    1SOL    HW2 8490   3.559   0.168   3.494  2.4128 -0.2559 -1.1320
    1SOL    HW3 8491   3.505   0.028   3.514 -0.6370  0.9902 -0.3611
    1SOL    MW4 8492   3.561   0.092   3.536  0.1230  0.2363 -0.0722
    1SOL     OW 8493   3.542   0.348   3.405 -0.4234 -0.6377  0.0556
    1SOL    HW2 8494   3.622   0.390   3.437 -0.3088  0.3202 -1.4356
    1SOL    HW3 8495   3.471   0.388   3.456 -0.1078 -0.2495  0.1890
    1SOL    MW4 8496   3.543   0.359   3.416 -0.3664 -0.4601 -0.1235
    1SOL     OW 8497   3.777   0.499   3.491 -0.2095  0.4338  0.0000
    1SOL    HW2 8498   3.778   0.519   3.584 -3.0266 -1.1512  0.4045
    1SOL    HW3 8499   3.852   0.440   3.478 -0.2515  0.0595  1.3816
    1SOL    MW4 8500   3.787   0.494   3.501 -0.5867  0.1753  0.2356
    1SOL     OW 8501   3.817   0.769   3.379 -0.5437 -0.2140 -0.0246
    1SOL    HW2 8502   3.888   0.814   3.425 -0.3847 -0.0428 -0.4374
    1SOL    HW3 8503   3.824   0.678   3.408 -0.7131 -0.0256  0.6200
    1SOL    MW4 8504   3.827   0.763   3.389 -0.5450 -0.1665  0.0060
    1SOL     OW 8505   3.599   0.892   3.468  0.4878 -0.5439 -0.0248
    1SOL    HW2 8506   3.608   0.911   3.562  0.4604 -0.1248 -0.1064
    1SOL    HW3 8507   3.675   0.838   3.447  1.1165  0.3259 -0.0134
    1SOL    MW4 8508   3.610   0.887   3.478  0.5672 -0.3738 -0.0341
    1SOL     OW 8509   3.609   1.147   3.379  0.0503  0.1135 -0.0864
    1SOL    HW2 8510   3.606   1.067   3.432  0.9760 -0.1263 -0.3851
    1SOL    HW3 8511   3.603   1.117   3.289 -0.4124  0.4411 -0.1650
    1SOL    MW4 8512   3.608   1.133   3.374  0.1116  0.1252 -0.1364
    1SOL     OW 8513   3.811   1.303   3.489  0.1024 -0.3010 -0.1593
    1SOL    HW2 8514   3.799   1.302   3.584  0.9381  0.2643 -0.0367
    1SOL    HW3 8515   3.739   1.250   3.454  0.2080 -1.1061  0.8367
    1SOL    MW4 8516   3.800   1.296   3.497  0.2270 -0.3326 -0.0117
    1SOL     OW 8517   3.788   1.557   3.370  0.0222  0.0066  0.0771
    1SOL    HW2 8518   3.848   1.620   3.410  0.1227  0.3117 -0.5578
    1SOL    HW3 8519   3.812   1.473   3.411  0.8338  0.1400 -0.1015
    1SOL    MW4 8520   3.799   1.554   3.381  0.1426  0.0645 -0.0300
    1SOL     OW 8521   3.568   1.699   3.485  0.6648  0.2710  0.1214
    1SOL    HW2 8522   3.576   1.792   3.462  0.9830 -0.3748 -2.4824
    1SOL    HW3 8523   3.644   1.658   3.444  0.7209 -1.1037  1.5638
    1SOL    MW4 8524   3.579   1.706   3.477  0.7138  0.0045 -0.0317
    1SOL     OW 8525   3.567   1.968   3.367  0.5288  0.0727 -0.0016
    1SOL    HW2 8526   3.632   2.023   3.411 -0.2304  1.1271 -0.1834
    1SOL    HW3 8527   3.484   2.013   3.380  0.0500 -0.4528 -1.1164
    1SOL    MW4 8528   3.564   1.981   3.374  0.3655  0.1425 -0.1726
    1SOL     OW 8529   3.783   2.090   3.483  0.0981 -0.1678  0.0706
    1SOL    HW2 8530   3.768   2.094   3.578  0.9992  1.5662  0.1652
    1SOL    HW3 8531   3.866   2.044   3.474 -0.5471 -1.3436  0.0522
    1SOL    MW4 8532   3.792   2.085   3.495  0.1318 -0.0939  0.0806
    1SOL     OW 8533   3.807   2.347   3.374 -0.0755  0.4447  0.8690
    1SOL    HW2 8534   3.887   2.392   3.401  0.5206 -0.3587  0.4617
    1SOL    HW3 8535   3.809   2.263   3.420  0.7649 -0.7806 -1.3159
    1SOL    MW4 8536   3.818   2.342   3.384  0.1140  0.1771  0.5271
    1SOL     OW 8537   3.607   2.461   3.528 -0.1615  0.3071 -0.5504
    1SOL    HW2 8538   3.603   2.545   3.482  0.6182 -0.1046 -1.3900
    1SOL    HW3 8539   3.676   2.412   3.482  0.7745 -0.0327  1.1855
    1SOL    MW4 8540   3.616   2.466   3.516  0.0648  0.2079 -0.4320
    1SOL     OW 8541   3.573   2.691   3.355  0.1639 -0.1142  0.0547
    1SOL    HW2 8542   3.647   2.747   3.379  0.4117  0.7220 -2.5427
    1SOL    HW3 8543   3.497   2.734   3.392  0.5081  1.2797 -0.8234
    1SOL    MW4 8544   3.573   2.704   3.363  0.2422  0.1800 -0.4039
    1SOL     OW 8545   3.778   2.844   3.468 -0.0953  0.5165  0.1589
    1SOL    HW2 8546   3.790   2.844   3.563  1.8360  0.9617 -0.0602
    1SOL    HW3 8547   3.762   2.936   3.446 -1.1945  0.3198  0.1201
    1SOL    MW4 8548   3.777   2.856   3.478  0.0148  0.5493  0.1249
    1SOL     OW 8549   3.811   3.105   3.388  0.0075  0.3132 -0.4654
    1SOL    HW2 8550   3.897   3.142   3.410 -0.1891 -0.1689  1.1861
    1SOL    HW3 8551   3.808   3.107   3.293  2.4129 -0.9380 -0.6141
    1SOL    MW4 8552   3.822   3.110   3.378  0.2990  0.0844 -0.2670
    1SOL     OW 8553   3.608   3.260   3.494  0.3287 -0.5222  0.0649
    1SOL    HW2 8554   3.606   3.353   3.471 -0.0254 -0.7991 -1.0484
    1SOL    HW3 8555   3.688   3.227   3.454 -0.3977 -1.0561 -0.9592
    1SOL    MW4 8556   3.619   3.268   3.486  0.1862 -0.6289 -0.2170
    1SOL     OW 8557   3.604   3.519   3.400  0.0801 -0.2183 -1.0030
    1SOL    HW2 8558   3.528   3.570   3.428  1.2216  0.6693  0.5815
    1SOL    HW3 8559   3.611   3.536   3.306 -0.1502  1.7808 -0.6906
    1SOL    MW4 8560   3.595   3.528   3.391  0.2003  0.1631 -0.7527
    1SOL     OW 8561   3.849   3.623   3.479  0.0955  0.6043  0.1448
    1SOL    HW2 8562   3.862   3.619   3.574  0.7748 -0.9114  0.0012
    1SOL    HW3 8563   3.765   3.580   3.464 -0.0491  0.9130  0.0609
    1SOL    MW4 8564   3.840   3.617   3.490  0.1662  0.4451  0.1149
    1SOL     OW 8565   3.837   3.882   3.373 -0.1646  0.0221  0.6850
    1SOL    HW2 8566   3.759   3.920   3.413 -0.4565 -0.9687  1.0767
    1SOL    HW3 8567   3.843   3.795   3.412  0.5871 -0.2673 -0.0807
    1SOL    MW4 8568   3.828   3.876   3.384 -0.1040 -0.1466  0.6356
    1SOL     OW 8569   3.622   4.013   3.504 -0.6392  0.3491  0.0276
    1SOL    HW2 8570   3.594   4.011   3.595 -2.6578 -0.3479 -0.5724
    1SOL    HW3 8571   3.616   4.106   3.479 -0.3891  0.4948  0.5189
    1SOL    MW4 8572   3.617   4.025   3.513 -0.8726  0.2766  0.0131
    1SOL     OW 8573   3.588   4.271   3.418 -0.0030 -0.3429  0.1870
    1SOL    HW2 8574   3.501   4.306   3.436 -0.3067 -0.5589 -0.7943
    1SOL    HW3 8575   3.592   4.265   3.322  0.7452 -1.2067  0.2599
    1SOL    MW4 8576   3.577   4.275   3.408  0.0556 -0.4854  0.0670
    1SOL     OW 8577   3.807   4.365   3.529 -0.0365  0.4070  0.0904
    1SOL    HW2 8578   3.728   4.325   3.493  0.5203  0.6303 -1.3872
    1SOL    HW3 8579   3.800   4.458   3.506  0.6882  0.4156 -0.0943
    1SOL    MW4 8580   3.796   4.372   3.521  0.1326  0.4377 -0.1290
    1SOL     OW 8581   4.252   4.606   3.391 -0.1848  0.1060 -0.2126
    1SOL    HW2 8582   4.230   4.522   3.432  0.0650  0.1294 -0.0285
    1SOL    HW3 8583   4.327   4.638   3.441 -0.5078  0.6174 -0.0427
    1SOL    MW4 8584   4.259   4.599   3.403 -0.1945  0.1760 -0.1659
    1SOL     OW 8585   4.058   0.087   3.517  0.1662 -0.2787  0.0972
    1SOL    HW2 8586   4.123   0.030   3.477 -0.5150 -0.8983 -0.1398
    1SOL    HW3 8587   3.974   0.052   3.487 -0.3152 -0.1272  1.2425
    1SOL    MW4 8588   4.055   0.075   3.508  0.0129 -0.3405  0.2172
    1SOL     OW 8589   3.994   0.349   3.430 -0.0727  0.2028  0.1552
    1SOL    HW2 8590   4.036   0.269   3.461 -0.8843 -0.4037 -0.2916
    1SOL    HW3 8591   4.015   0.352   3.336  1.1260  1.2524  0.4380
    1SOL    MW4 8592   4.002   0.339   3.421 -0.0219  0.2613  0.1338
    1SOL     OW 8593   4.226   0.502   3.524 -0.3819  0.1179  0.1668
    1SOL    HW2 8594   4.236   0.587   3.481 -0.0224 -1.0376 -2.0871
    1SOL    HW3 8595   4.150   0.462   3.481  0.4089 -1.3571  0.0993
    1SOL    MW4 8596   4.217   0.508   3.513 -0.2298 -0.2291 -0.1395
    1SOL     OW 8597   4.255   0.767   3.392 -0.0968  0.0495  0.5695
    1SOL    HW2 8598   4.337   0.803   3.424  0.8831 -0.5980 -1.1647
    1SOL    HW3 8599   4.263   0.770   3.296 -2.1520  0.1486  0.3825
    1SOL    MW4 8600   4.267   0.772   3.383 -0.2394 -0.0229  0.3161
    1SOL     OW 8601   4.035   0.890   3.503 -0.3418  0.1007  0.0380
    1SOL    HW2 8602   4.009   0.966   3.452 -2.2045 -0.6505 -0.1765
    1SOL    HW3 8603   4.107   0.851   3.453 -0.8331  0.4874 -0.9808
    1SOL    MW4 8604   4.041   0.895   3.490 -0.6523  0.0526 -0.1249
    1SOL     OW 8605   3.979   1.118   3.355  0.1160  0.1380 -0.5664
    1SOL    HW2 8606   4.057   1.174   3.364 -0.3199  0.9930 -1.8907
    1SOL    HW3 8607   3.907   1.171   3.389 -0.1918  0.1338 -1.1892
    1SOL    MW4 8608   3.980   1.133   3.361  0.0176  0.2502 -0.8233
    1SOL     OW 8609   4.206   1.259   3.465  0.3572 -0.0006  0.0216
    1SOL    HW2 8610   4.213   1.353   3.448  1.2968 -0.0194  0.2360
    1SOL    HW3 8611   4.288   1.223   3.432  0.9549 -0.4335  1.8964
    1SOL    MW4 8612   4.218   1.267   3.458  0.5598 -0.0602  0.2968
    1SOL     OW 8613   4.213   1.526   3.376  0.3500  0.1927 -0.0357
    1SOL    HW2 8614   4.138   1.576   3.406 -0.9691 -1.2210 -0.8722
    1SOL    HW3 8615   4.215   1.540   3.281 -0.7977 -2.2694 -0.4644
    1SOL    MW4 8616   4.203   1.534   3.368  0.0248 -0.3185 -0.2024
    1SOL     OW 8617   3.999   1.697   3.499  0.1523 -0.6917 -0.2178
    1SOL    HW2 8618   4.005   1.694   3.594 -0.9867  1.4870 -0.0506
    1SOL    HW3 8619   4.017   1.789   3.477  0.5558 -1.2015 -2.1217
    1SOL    MW4 8620   4.002   1.709   3.509  0.0553 -0.4716 -0.4470
    1SOL     OW 8621   4.025   1.972   3.428 -0.4169 -0.0604 -0.0673
    1SOL    HW2 8622   4.103   2.022   3.452  0.3040 -1.7637  1.1917
    1SOL    HW3 8623   4.034   1.957   3.334 -0.2113  1.3807 -0.2990
    1SOL    MW4 8624   4.036   1.977   3.418 -0.2947 -0.0949  0.0682
    1SOL     OW 8625   4.264   2.069   3.505 -0.3776  0.6199 -0.1644
    1SOL    HW2 8626   4.253   2.150   3.455  1.3495  0.9063 -0.1056
    1SOL    HW3 8627   4.334   2.022   3.460 -1.5716 -0.9796 -0.3692
    1SOL    MW4 8628   4.272   2.074   3.493 -0.3076  0.4468 -0.1838
    1SOL     OW 8629   4.244   2.321   3.384 -0.0453  0.1512  0.1401
    1SOL    HW2 8630   4.167   2.373   3.408 -1.2810 -2.7605  2.7008
    1SOL    HW3 8631   4.230   2.300   3.291 -2.7266 -0.9393  0.7567
    1SOL    MW4 8632   4.232   2.325   3.375 -0.5622 -0.3769  0.5593
    1SOL     OW 8633   4.030   2.465   3.460  0.1000 -0.3975 -0.2441
    1SOL    HW2 8634   4.013   2.475   3.554  0.2148 -0.2019 -0.2441
    1SOL    HW3 8635   4.024   2.554   3.425  0.2325 -0.4465 -0.3926
    1SOL    MW4 8636   4.027   2.478   3.468  0.1326 -0.3784 -0.2639
    1SOL     OW 8637   4.003   2.740   3.369  0.1760 -0.6693  0.0849
    1SOL    HW2 8638   4.081   2.777   3.409  0.1115 -2.3362  1.8311
    1SOL    HW3 8639   3.930   2.790   3.405  0.2825 -0.6766  0.3097
    1SOL    MW4 8640   4.004   2.751   3.379  0.1817 -0.8905  0.3448
    1SOL     OW 8641   4.238   2.839   3.478  0.1450  0.1987  0.0548
    1SOL    HW2 8642   4.227   2.855   3.572 -1.4866 -1.8544  0.2381
    1SOL    HW3 8643   4.318   2.787   3.472 -0.3552 -0.6270  0.4308
    1SOL    MW4 8644   4.247   2.835   3.490 -0.1359 -0.1810  0.1285
    1SOL     OW 8645   4.285   3.089   3.389 -0.2919  0.1340 -0.4155
    1SOL    HW2 8646   4.272   2.999   3.417  1.5561  0.0698  0.3000
    1SOL    HW3 8647   4.287   3.085   3.294 -1.0152 -0.4659 -0.4029
    1SOL    MW4 8648   4.284   3.077   3.380 -0.1435  0.0465 -0.3195
    1SOL     OW 8649   4.041   3.224   3.480  0.0707 -0.0241 -0.6245
    1SOL    HW2 8650   4.039   3.311   3.440  0.4955  0.3290  0.1312
    1SOL    HW3 8651   4.124   3.186   3.452 -0.6467 -0.6701 -1.9577
    1SOL    MW4 8652   4.051   3.230   3.471  0.0324 -0.0629 -0.7007
    1SOL     OW 8653   4.054   3.478   3.352  0.2544 -0.2640  0.1827
    1SOL    HW2 8654   4.132   3.512   3.395 -0.1651  2.9316 -1.4656
    1SOL    HW3 8655   3.981   3.524   3.393 -0.3867  0.3988 -1.6644
    1SOL    MW4 8656   4.054   3.488   3.363  0.1144  0.2451 -0.2787
    1SOL     OW 8657   4.310   3.585   3.509 -0.0665 -0.5068 -0.5815
    1SOL    HW2 8658   4.321   3.577   3.604  1.3754  0.0443 -0.6799
    1SOL    HW3 8659   4.303   3.679   3.493 -1.9419 -0.6799 -0.8762
    1SOL    MW4 8660   4.311   3.596   3.519 -0.1235 -0.4570 -0.6335
    1SOL     OW 8661   4.259   3.880   3.424 -0.0181 -0.1187  0.0205
    1SOL    HW2 8662   4.346   3.906   3.453  0.1122  0.8670 -1.2012
    1SOL    HW3 8663   4.269   3.863   3.330 -1.2905  0.7689 -0.2909
    1SOL    MW4 8664   4.272   3.881   3.415 -0.1683  0.1285 -0.1817
    1SOL     OW 8665   4.033   3.965   3.539 -0.3742  0.3120 -0.1313
    1SOL    HW2 8666   4.117   3.930   3.509 -0.2123 -0.2212  0.9230
    1SOL    HW3 8667   3.968   3.925   3.481  0.1632  1.4182 -1.5335
    1SOL    MW4 8668   4.036   3.956   3.527 -0.2813  0.3874 -0.1771
    1SOL     OW 8669   4.016   4.211   3.413  0.7948 -0.0271 -0.2848
    1SOL    HW2 8670   4.027   4.121   3.443  1.4357 -0.1970 -1.0104
    1SOL    HW3 8671   3.950   4.248   3.472  1.3231 -0.6390  0.7082
    1SOL    MW4 8672   4.009   4.204   3.425  0.9494 -0.1302 -0.2494
    1SOL     OW 8673   4.246   4.356   3.509 -0.1630 -0.1909 -0.4386
    1SOL    HW2 8674   4.243   4.355   3.604 -0.1915  0.7929 -0.4268
    1SOL    HW3 8675   4.166   4.309   3.482  0.5537 -1.6982  0.0111
    1SOL    MW4 8676   4.235   4.350   3.518 -0.0720 -0.2604 -0.3777
    1SOL     OW 8677   0.204   4.599   3.921 -0.1584  0.2225 -0.4279
    1SOL    HW2 8678   0.206   4.599   4.017 -0.6894  0.2328 -0.4162
    1SOL    HW3 8679   0.130   4.655   3.898 -1.1266 -1.1755 -0.8125
    1SOL    MW4 8680   0.195   4.606   3.930 -0.3562  0.0391 -0.4768
    1SOL     OW 8681   0.005   0.092   3.797 -0.0017  0.1262 -0.0396
    1SOL    HW2 8682  -0.002   0.186   3.814  0.2560  0.3573 -1.1885
    1SOL    HW3 8683  -0.011   0.083   3.703 -1.4131 -1.1342  0.3118
    1SOL    MW4 8684   0.002   0.103   3.787 -0.1539 -0.0096 -0.1450
    1SOL     OW 8685   4.476   0.366   3.885 -0.3979 -0.5658 -0.3208
    1SOL    HW2 8686   4.402   0.420   3.859 -0.8666 -0.7010  0.7419
    1SOL    HW3 8687   4.553   0.413   3.852 -0.9732 -0.6416 -1.7962
    1SOL    MW4 8688   4.477   0.379   3.877 -0.5357 -0.5937 -0.3755
    1SOL     OW 8689   0.214   0.495   3.794 -0.3107  0.3885  0.2321
    1SOL    HW2 8690   0.216   0.584   3.830 -1.5234  0.8845 -0.8923
    1SOL    HW3 8691   0.195   0.508   3.701 -0.1110 -1.0336 -0.0057
    1SOL    MW4 8692   0.212   0.509   3.786 -0.4444  0.2664  0.0522
    1SOL     OW 8693   0.215   0.765   3.861  0.4556 -0.0951  0.0840
    1SOL    HW2 8694   0.216   0.761   3.957  0.1395 -0.7975  0.0599
    1SOL    HW3 8695   0.132   0.807   3.840  0.8332  0.6851  0.1362
    1SOL    MW4 8696   0.205   0.770   3.871  0.4637 -0.0848  0.0873
    1SOL     OW 8697   4.490   0.891   3.758  0.4358 -0.1702  0.2464
    1SOL    HW2 8698   4.415   0.850   3.801  1.1402 -0.8875  0.8168
    1SOL    HW3 8699   4.486   0.982   3.785  0.3086 -0.4078  1.0466
    1SOL    MW4 8700   4.480   0.897   3.768  0.5121 -0.2962  0.4272
    1SOL     OW 8701   4.482   1.159   3.823  0.1650  0.1801 -0.0717
    1SOL    HW2 8702   4.402   1.207   3.803  0.2336  0.0667 -0.6165
    1SOL    HW3 8703   4.490   1.163   3.919 -1.0473 -0.6927  0.0718
    1SOL    MW4 8704   4.473   1.166   3.833  0.0138  0.0502 -0.1247
    1SOL     OW 8705   0.252   1.273   3.770  0.5018  0.1216  0.0579
    1SOL    HW2 8706   0.241   1.366   3.790  2.0545 -0.0456  1.8769
    1SOL    HW3 8707   0.168   1.234   3.794  0.9997  0.5495  2.7420
    1SOL    MW4 8708   0.240   1.280   3.776  0.7723  0.1560  0.6518
    1SOL     OW 8709   0.224   1.547   3.825  0.2387  0.1819 -0.2014
    1SOL    HW2 8710   0.237   1.563   3.918  0.7751 -0.2167 -0.2050
    1SOL    HW3 8711   0.140   1.589   3.804  0.0638  0.1705  0.4837
    1SOL    MW4 8712   0.214   1.555   3.834  0.2864  0.1278 -0.1113
    1SOL     OW 8713   4.469   1.636   3.731 -0.1161  0.0455 -0.0967
    1SOL    HW2 8714   4.455   1.727   3.756 -1.3152 -0.0236 -0.4854
    1SOL    HW3 8715   4.473   1.638   3.635 -0.0355 -0.2980 -0.1014
    1SOL    MW4 8716   4.468   1.648   3.722 -0.2642 -0.0091 -0.1488
    1SOL     OW 8717   4.449   1.894   3.807 -0.1920 -0.4179 -0.1970
    1SOL    HW2 8718   4.464   1.887   3.901  1.8741  0.2119 -0.4709
    1SOL    HW3 8719   4.366   1.943   3.800 -0.3488 -0.4530  1.2793
    1SOL    MW4 8720   4.440   1.900   3.818  0.0601 -0.3395 -0.0384
    1SOL     OW 8721   0.180   2.041   3.700  0.3391 -0.0350  0.0101
    1SOL    HW2 8722   0.173   2.135   3.719 -1.1693 -0.1395  0.0265
    1SOL    HW3 8723   0.111   2.001   3.753  1.4882 -1.2614  0.6241
    1SOL    MW4 8724   0.170   2.048   3.710  0.2917 -0.2108  0.0932
    1SOL     OW 8725   0.181   2.310   3.811 -0.0179  0.5470 -0.2165
    1SOL    HW2 8726   0.195   2.327   3.904  1.2284 -0.6331 -0.1695
    1SOL    HW3 8727   0.098   2.352   3.791 -0.5556  0.3710  1.5609
    1SOL    MW4 8728   0.172   2.318   3.821  0.0756  0.3681  0.0243
    1SOL     OW 8729   4.447   2.454   3.750 -0.0624  0.5220 -0.0379
    1SOL    HW2 8730   4.378   2.408   3.798  0.6016 -0.5119 -0.0714
    1SOL    HW3 8731   4.447   2.542   3.787 -1.9148  0.7653 -0.5584
    1SOL    MW4 8732   4.438   2.460   3.761 -0.2193  0.4177 -0.1109
    1SOL     OW 8733   4.444   2.704   3.845 -0.3466 -0.2123 -0.1170
    1SOL    HW2 8734   4.436   2.681   3.938  0.3603 -0.4087 -0.0956
    1SOL    HW3 8735   4.533   2.740   3.838 -0.5164  0.1037 -0.6555
    1SOL    MW4 8736   4.455   2.706   3.856 -0.2761 -0.1965 -0.1853
    1SOL     OW 8737   0.207   2.797   3.785 -0.1502  0.0568 -0.2002
    1SOL    HW2 8738   0.285   2.746   3.806 -0.7178 -1.3505 -1.3800
    1SOL    HW3 8739   0.210   2.808   3.690 -0.4190  1.6061 -0.0388
    1SOL    MW4 8740   0.217   2.792   3.775 -0.2606  0.0756 -0.3345
    1SOL     OW 8741   0.236   3.076   3.868 -0.0963  0.0955 -0.4838
    1SOL    HW2 8742   0.215   3.085   3.961 -1.5302  0.1409 -0.8037
    1SOL    HW3 8743   0.245   2.982   3.855 -2.6429 -0.1462 -0.8528
    1SOL    MW4 8744   0.234   3.065   3.878 -0.6215  0.0694 -0.5746
    1SOL     OW 8745   0.027   3.214   3.761 -0.1575 -0.1458  0.0534
    1SOL    HW2 8746   0.099   3.160   3.794 -1.0883 -0.8451  0.9392
    1SOL    HW3 8747   0.027   3.198   3.666  1.7719  0.9731 -0.1790
    1SOL    MW4 8748   0.037   3.205   3.753 -0.0258 -0.0904  0.1395
    1SOL     OW 8749   0.031   3.461   3.901  0.2090  0.0687 -0.4115
    1SOL    HW2 8750   0.104   3.514   3.868 -0.1107 -0.1563 -1.5000
    1SOL    HW3 8751   0.037   3.380   3.851 -0.2806 -0.2764  0.0974
    1SOL    MW4 8752   0.041   3.458   3.890  0.1022 -0.0064 -0.4878
    1SOL     OW 8753   0.233   3.624   3.808 -0.1819  0.1946  0.3359
    1SOL    HW2 8754   0.311   3.588   3.852 -0.6412 -0.6075  0.4934
    1SOL    HW3 8755   0.223   3.712   3.846 -0.1493 -0.2160  1.3093
    1SOL    MW4 8756   0.242   3.631   3.819 -0.2382  0.0348  0.4852
    1SOL     OW 8757   0.213   3.858   3.943 -0.5568 -0.5068  0.1344
    1SOL    HW2 8758   0.289   3.897   3.900 -1.4297  1.0659 -0.0069
    1SOL    HW3 8759   0.240   3.846   4.034  0.5292 -1.7909 -0.3449
    1SOL    MW4 8760   0.227   3.861   3.950 -0.5287 -0.4687  0.0527
    1SOL     OW 8761   0.014   4.011   3.832  0.0527  0.0273  0.0290
    1SOL    HW2 8762  -0.069   3.972   3.859  0.5178 -0.3443  0.9408
    1SOL    HW3 8763   0.081   3.959   3.878  0.7555  0.7645 -0.1544
    1SOL    MW4 8764   0.012   3.999   3.841  0.2060  0.0753  0.1249
    1SOL     OW 8765   4.490   4.271   3.904  0.2336 -0.2180  0.0414
    1SOL    HW2 8766   4.577   4.303   3.881  1.1092 -1.0978  2.0490
    1SOL    HW3 8767   4.493   4.178   3.882 -0.5055 -0.0773 -0.6942
    1SOL    MW4 8768   4.502   4.263   3.898  0.2518 -0.3152  0.2091
    1SOL     OW 8769   0.258   4.359   3.794  0.0029  0.1255 -0.2937
    1SOL    HW2 8770   0.320   4.305   3.844 -0.3441  0.7651  0.8352
    1SOL    HW3 8771   0.260   4.444   3.837 -1.2993  0.2935 -0.5379
    1SOL    MW4 8772   0.267   4.363   3.806 -0.2147  0.2322 -0.1769
    1SOL     OW 8773   0.615   4.644   3.876 -0.2869  0.1025  0.1575
    1SOL    HW2 8774   0.624   4.553   3.849 -0.9549  0.7254 -2.2644
    1SOL    HW3 8775   0.536   4.675   3.831 -1.4309  1.2392  2.7842
    1SOL    MW4 8776   0.606   4.636   3.866 -0.5259  0.3343  0.1843
    1SOL     OW 8777   0.387   0.041   3.744 -0.1026  0.3871 -0.6809
    1SOL    HW2 8778   0.391   0.135   3.762  0.6589  0.2491 -0.1304
    1SOL    HW3 8779   0.335   0.005   3.816  0.1930  0.2914 -0.5142
    1SOL    MW4 8780   0.381   0.049   3.756  0.0368  0.3562 -0.5863
    1SOL     OW 8781   0.416   0.297   3.850 -0.4737 -0.1034 -0.3614
    1SOL    HW2 8782   0.499   0.339   3.823 -0.1262 -0.3636  0.2989
    1SOL    HW3 8783   0.350   0.365   3.835 -0.1217  0.1638 -0.7463
    1SOL    MW4 8784   0.418   0.312   3.844 -0.3814 -0.1025 -0.3252
    1SOL     OW 8785   0.651   0.431   3.777 -0.2649  0.0170  0.2426
    1SOL    HW2 8786   0.733   0.388   3.804  0.7322  0.8588 -1.3774
    1SOL    HW3 8787   0.661   0.521   3.808 -0.5612  0.1365 -0.0185
    1SOL    MW4 8788   0.663   0.437   3.785 -0.1724  0.1439 -0.0055
    1SOL     OW 8789   0.656   0.730   3.842  0.1148 -0.0931 -0.2775
    1SOL    HW2 8790   0.729   0.787   3.818  1.4848 -1.7619 -0.1439
    1SOL    HW3 8791   0.578   0.778   3.813  1.3253  1.1382 -1.5910
    1SOL    MW4 8792   0.656   0.744   3.835  0.4553 -0.1509 -0.4334
    1SOL     OW 8793   0.441   0.875   3.758  0.1017 -0.0669  0.0009
    1SOL    HW2 8794   0.441   0.969   3.774 -1.0627 -0.0551 -0.0413
    1SOL    HW3 8795   0.360   0.843   3.797 -0.1175 -0.8578 -1.0488
    1SOL    MW4 8796   0.431   0.883   3.765 -0.0809 -0.1697 -0.1433
    1SOL     OW 8797   0.475   1.136   3.850 -0.1877 -0.0217 -0.6681
    1SOL    HW2 8798   0.556   1.185   3.834 -0.3255 -0.4146 -2.6494
    1SOL    HW3 8799   0.406   1.201   3.841 -0.1532  0.1715  0.3642
    1SOL    MW4 8800   0.477   1.151   3.847 -0.2013 -0.0480 -0.7927
    1SOL     OW 8801   0.701   1.294   3.779 -0.1796  0.5985  0.2746
    1SOL    HW2 8802   0.777   1.242   3.802  0.2603  1.2743  0.3657
    1SOL    HW3 8803   0.694   1.287   3.684  0.5707  1.3139  0.1629
    1SOL    MW4 8804   0.710   1.286   3.770 -0.0226  0.7820  0.2720
    1SOL     OW 8805   0.698   1.573   3.827  0.3010 -0.2637  0.0017
    1SOL    HW2 8806   0.764   1.618   3.774  1.0776 -0.3642  0.8705
    1SOL    HW3 8807   0.706   1.481   3.803  1.7968 -0.5488  1.4634
    1SOL    MW4 8808   0.708   1.567   3.817  0.6009 -0.3145  0.3095
    1SOL     OW 8809   0.460   1.673   3.735 -0.0285  0.2994 -0.1523
    1SOL    HW2 8810   0.540   1.636   3.772 -0.6611 -1.3958 -0.4353
    1SOL    HW3 8811   0.390   1.617   3.769 -0.9088  0.5961 -1.4431
    1SOL    MW4 8812   0.461   1.661   3.744 -0.2281  0.1150 -0.3598
    1SOL     OW 8813   0.381   1.939   3.868 -0.3293  0.0229  0.3155
    1SOL    HW2 8814   0.391   1.845   3.852  0.0763  0.2570 -0.9129
    1SOL    HW3 8815   0.315   1.967   3.804 -1.5802  0.3066  1.6911
    1SOL    MW4 8816   0.374   1.930   3.857 -0.4408  0.0912  0.3350
    1SOL     OW 8817   0.645   1.998   3.758  0.1456 -0.4013  0.0125
    1SOL    HW2 8818   0.647   2.094   3.758 -0.0927 -0.3927 -0.3792
    1SOL    HW3 8819   0.554   1.976   3.778  0.4962 -0.5630  1.4268
    1SOL    MW4 8820   0.633   2.008   3.761  0.1605 -0.4213  0.1476
    1SOL     OW 8821   0.683   2.263   3.803 -0.7848  0.5826  0.0418
    1SOL    HW2 8822   0.761   2.311   3.774 -1.1584  1.2938  0.2010
    1SOL    HW3 8823   0.612   2.326   3.796 -1.1781  0.2359  0.8530
    1SOL    MW4 8824   0.684   2.278   3.798 -0.8860  0.6309  0.1695
    1SOL     OW 8825   0.461   2.419   3.751 -0.0795 -0.2144 -0.0699
    1SOL    HW2 8826   0.378   2.374   3.763 -1.4073  2.3224  0.7021
    1SOL    HW3 8827   0.480   2.408   3.657 -1.6292 -0.2830 -0.3965
    1SOL    MW4 8828   0.452   2.412   3.740 -0.4592  0.1113 -0.0112
    1SOL     OW 8829   0.449   2.666   3.856  0.1427 -0.0004  0.1630
    1SOL    HW2 8830   0.519   2.717   3.815  0.7518 -0.1078  1.0549
    1SOL    HW3 8831   0.450   2.583   3.809 -0.0422  0.3573 -0.4818
    1SOL    MW4 8832   0.459   2.662   3.845  0.1987  0.0327  0.1957
    1SOL     OW 8833   0.650   2.833   3.747  0.0686 -0.4847 -0.1390
    1SOL    HW2 8834   0.731   2.784   3.761  0.6669  0.0612 -1.5792
    1SOL    HW3 8835   0.634   2.827   3.653 -1.2560 -0.0931  0.0464
    1SOL    MW4 8836   0.658   2.826   3.736 -0.0273 -0.3607 -0.3045
    1SOL     OW 8837   0.683   3.091   3.842 -0.6375 -0.5936  0.2278
    1SOL    HW2 8838   0.707   3.070   3.933  1.3709 -1.7955 -0.5577
    1SOL    HW3 8839   0.674   3.006   3.799 -1.6599 -0.0316 -0.6828
    1SOL    MW4 8840   0.685   3.077   3.849 -0.5075 -0.6781  0.0041
    1SOL     OW 8841   0.444   3.225   3.801 -0.2025 -0.0503  0.2465
    1SOL    HW2 8842   0.518   3.177   3.837 -0.7611 -2.0370 -1.1277
    1SOL    HW3 8843   0.368   3.173   3.825 -0.9392  0.7591 -0.3051
    1SOL    MW4 8844   0.444   3.212   3.809 -0.3734 -0.2055 -0.0076
    1SOL     OW 8845   0.427   3.469   3.931 -0.2829 -0.2578 -0.0679
    1SOL    HW2 8846   0.496   3.516   3.884  1.3487 -1.1712  1.3899
    1SOL    HW3 8847   0.421   3.384   3.886 -0.2606 -0.2911 -0.0080
    1SOL    MW4 8848   0.435   3.464   3.919 -0.0647 -0.3831  0.1326
    1SOL     OW 8849   0.641   3.614   3.781  0.0751  0.3432 -0.2958
    1SOL    HW2 8850   0.641   3.702   3.819  0.9415 -0.4333  1.5514
    1SOL    HW3 8851   0.643   3.629   3.687  0.9399  2.3172  0.0096
    1SOL    MW4 8852   0.641   3.628   3.774  0.3034  0.5007 -0.0119
    1SOL     OW 8853   0.662   3.868   3.899 -0.2028  0.1617 -0.1713
    1SOL    HW2 8854   0.657   3.890   3.992 -0.4792 -0.4260 -0.0471
    1SOL    HW3 8855   0.736   3.920   3.866 -1.6403  2.2693 -0.1600
    1SOL    MW4 8856   0.671   3.878   3.907 -0.4289  0.3622 -0.1535
    1SOL     OW 8857   0.428   3.960   3.794  0.1756 -0.4417 -0.1547
    1SOL    HW2 8858   0.505   3.910   3.822 -0.7157 -1.4172  0.5596
    1SOL    HW3 8859   0.445   3.980   3.702  1.5594 -0.1248  0.1474
    1SOL    MW4 8860   0.441   3.956   3.786  0.2406 -0.5288 -0.0205
    1SOL     OW 8861   0.456   4.215   3.920  0.0304  0.1255 -0.3469
    1SOL    HW2 8862   0.527   4.266   3.881  0.0492 -0.5743 -1.2536
    1SOL    HW3 8863   0.464   4.129   3.879 -0.3681 -0.4267  0.7240
    1SOL    MW4 8864   0.467   4.211   3.909 -0.0198 -0.0396 -0.3252
    1SOL     OW 8865   0.641   4.391   3.813 -0.3516  0.1750 -0.5161
    1SOL    HW2 8866   0.727   4.370   3.849 -0.2848 -0.6786 -1.1780
    1SOL    HW3 8867   0.653   4.391   3.718 -1.0000  0.4171 -0.6035
    1SOL    MW4 8868   0.654   4.388   3.806 -0.4283  0.0944 -0.6146
    1SOL     OW 8869   1.105   4.634   3.862  0.4645 -0.7544  0.0583
    1SOL    HW2 8870   1.181   4.684   3.831  1.0389 -0.8403  1.2744
    1SOL    HW3 8871   1.127   4.543   3.844  0.8448 -0.8129  0.7764
    1SOL    MW4 8872   1.118   4.629   3.856  0.5906 -0.7739  0.3135
    1SOL     OW 8873   0.866   0.065   3.773 -0.2263 -0.0857 -0.2881
    1SOL    HW2 8874   0.945   0.023   3.808  0.0280  0.4164 -0.2495
    1SOL    HW3 8875   0.795   0.033   3.828 -0.0275 -0.4368 -0.2352
    1SOL    MW4 8876   0.867   0.055   3.785 -0.1665 -0.0658 -0.2763
    1SOL     OW 8877   0.894   0.319   3.867 -0.1460  0.4505  0.1022
    1SOL    HW2 8878   0.929   0.317   3.956 -1.2855 -0.2452  0.5344
    1SOL    HW3 8879   0.897   0.227   3.838  1.0937  0.7886 -0.9356
    1SOL    MW4 8880   0.899   0.306   3.875 -0.1327  0.4033  0.0222
    1SOL     OW 8881   1.087   0.500   3.753  0.3147 -0.2555 -0.1430
    1SOL    HW2 8882   1.163   0.448   3.780  0.5614  0.1004 -0.1297
    1SOL    HW3 8883   1.011   0.447   3.774  0.4495  0.4711  2.3167
    1SOL    MW4 8884   1.087   0.486   3.759  0.3651 -0.1127  0.1836
    1SOL     OW 8885   1.126   0.752   3.858  0.1159 -0.2954 -0.0643
    1SOL    HW2 8886   1.118   0.750   3.953  1.0749  0.2932  0.0321
    1SOL    HW3 8887   1.117   0.661   3.831  0.3432 -0.5214  0.6252
    1SOL    MW4 8888   1.123   0.740   3.867  0.2725 -0.2476  0.0396
    1SOL     OW 8889   0.883   0.868   3.773 -0.3483  0.0123 -0.3289
    1SOL    HW2 8890   0.960   0.830   3.815 -1.0686 -0.7536  0.3262
    1SOL    HW3 8891   0.896   0.854   3.680 -0.3264 -1.3429 -0.1323
    1SOL    MW4 8892   0.895   0.861   3.766 -0.4404 -0.2676 -0.2165
    1SOL     OW 8893   0.915   1.140   3.863  0.0213 -0.0056 -0.6279
    1SOL    HW2 8894   0.913   1.137   3.958  2.6004 -0.2837 -0.5537
    1SOL    HW3 8895   0.910   1.048   3.836 -1.6127  0.1130 -0.8342
    1SOL    MW4 8896   0.914   1.128   3.872  0.1460 -0.0267 -0.6456
    1SOL     OW 8897   1.139   1.287   3.728  0.1082  0.1755 -0.4259
    1SOL    HW2 8898   1.136   1.375   3.765  0.7983  0.7331 -1.6688
    1SOL    HW3 8899   1.065   1.241   3.768  0.3864  0.9846  1.0524
    1SOL    MW4 8900   1.129   1.292   3.739  0.2359  0.3557 -0.3948
    1SOL     OW 8901   1.120   1.549   3.853 -0.2928  0.1003  0.2047
    1SOL    HW2 8902   1.134   1.523   3.944 -0.7115 -1.2905 -0.1186
    1SOL    HW3 8903   1.193   1.607   3.833  0.1323 -0.0684  1.2468
    1SOL    MW4 8904   1.132   1.553   3.862 -0.2919 -0.1053  0.2995
    1SOL     OW 8905   0.923   1.677   3.724 -0.1580 -0.7118  0.3067
    1SOL    HW2 8906   0.998   1.631   3.762  0.1927 -0.0729  0.3775
    1SOL    HW3 8907   0.934   1.666   3.630  0.3558 -0.0854  0.2950
    1SOL    MW4 8908   0.934   1.669   3.717 -0.0440 -0.5448  0.3145
    1SOL     OW 8909   0.913   1.958   3.846 -0.1179  0.4820 -0.0796
    1SOL    HW2 8910   0.925   1.874   3.803 -0.0726 -0.2084  1.2560
    1SOL    HW3 8911   0.823   1.983   3.828  0.1553  0.6197 -1.2876
    1SOL    MW4 8912   0.903   1.950   3.838 -0.0759  0.4091 -0.0627
    1SOL     OW 8913   1.159   2.068   3.741  0.0743  0.0198  0.0243
    1SOL    HW2 8914   1.083   2.024   3.779 -0.2258  1.0782  0.6866
    1SOL    HW3 8915   1.147   2.060   3.646 -1.4814  1.1689  0.0924
    1SOL    MW4 8916   1.147   2.061   3.734 -0.1705  0.3114  0.1209
    1SOL     OW 8917   1.157   2.334   3.847  0.1188 -0.9148 -0.2060
    1SOL    HW2 8918   1.141   2.324   3.940 -0.9468 -0.8897 -0.3830
    1SOL    HW3 8919   1.160   2.245   3.812 -2.3605 -0.8650 -0.6155
    1SOL    MW4 8920   1.156   2.321   3.854 -0.3487 -0.9048 -0.2835
    1SOL     OW 8921   0.908   2.423   3.742 -0.1145 -0.0154 -0.3854
    1SOL    HW2 8922   0.891   2.512   3.771  0.1305  0.1194 -0.6505
    1SOL    HW3 8923   0.988   2.397   3.788 -0.0304  0.0044 -0.5181
    1SOL    MW4 8924   0.917   2.431   3.752 -0.0711  0.0052 -0.4380
    1SOL     OW 8925   0.882   2.698   3.808  0.0969 -0.1888 -0.2499
    1SOL    HW2 8926   0.894   2.677   3.901  0.2200 -1.1188 -0.4678
    1SOL    HW3 8927   0.956   2.754   3.786 -0.4929  0.9022  0.4688
    1SOL    MW4 8928   0.893   2.703   3.817  0.0353 -0.1676 -0.1841
    1SOL     OW 8929   1.098   2.855   3.775 -0.0610 -0.0082 -0.1508
    1SOL    HW2 8930   1.170   2.812   3.822  0.4153 -0.3144 -1.1418
    1SOL    HW3 8931   1.092   2.942   3.815 -0.2133 -0.5512  1.0310
    1SOL    MW4 8932   1.107   2.861   3.786 -0.0182 -0.1202 -0.1256
    1SOL     OW 8933   1.126   3.111   3.890 -0.2983  0.2022  0.3252
    1SOL    HW2 8934   1.209   3.154   3.872 -0.8431  1.2684  0.3022
    1SOL    HW3 8935   1.060   3.177   3.866 -1.1572 -0.9025 -0.3745
    1SOL    MW4 8936   1.128   3.126   3.884 -0.4835  0.1972  0.2298
    1SOL     OW 8937   0.916   3.252   3.773 -0.9000 -0.4168  0.4495
    1SOL    HW2 8938   0.848   3.190   3.800 -0.1631 -0.9673  1.0623
    1SOL    HW3 8939   0.915   3.248   3.677 -1.1079 -1.1122  0.4753
    1SOL    MW4 8940   0.907   3.243   3.764 -0.8301 -0.5813  0.5338
    1SOL     OW 8941   0.851   3.468   3.923 -0.1791  0.1133  0.4937
    1SOL    HW2 8942   0.868   3.386   3.877  1.9465  0.6762  0.2299
    1SOL    HW3 8943   0.784   3.512   3.869  0.4598 -0.3540 -0.6996
    1SOL    MW4 8944   0.844   3.463   3.910  0.1857  0.1256  0.3014
    1SOL     OW 8945   1.117   3.592   3.812 -0.1442  0.1164 -0.4057
    1SOL    HW2 8946   1.129   3.683   3.836 -0.6032  0.5557 -1.7754
    1SOL    HW3 8947   1.031   3.569   3.846  0.3700 -0.1025  0.7756
    1SOL    MW4 8948   1.107   3.601   3.819 -0.1369  0.1454 -0.4306
    1SOL     OW 8949   1.092   3.858   3.877 -0.3384  0.1291  0.1894
    1SOL    HW2 8950   1.090   3.857   3.973 -1.0903 -0.3873  0.1762
    1SOL    HW3 8951   1.168   3.912   3.855 -0.2071  0.3172  1.0753
    1SOL    MW4 8952   1.102   3.865   3.887 -0.4203  0.0856  0.3042
    1SOL     OW 8953   0.881   4.000   3.784 -0.0713 -0.0622  0.1547
    1SOL    HW2 8954   0.953   3.939   3.802  1.4672  1.5299 -0.4036
    1SOL    HW3 8955   0.871   3.998   3.689 -1.1264 -0.6452  0.2667
    1SOL    MW4 8956   0.889   3.992   3.774 -0.0075  0.0710  0.0958
    1SOL     OW 8957   0.883   4.272   3.877 -0.5573  0.1608 -0.1600
    1SOL    HW2 8958   0.875   4.273   3.972  0.1358  0.3703 -0.1032
    1SOL    HW3 8959   0.879   4.180   3.853 -1.5302  0.1581  0.0016
    1SOL    MW4 8960   0.881   4.260   3.886 -0.5941  0.1884 -0.1314
    1SOL     OW 8961   1.132   4.373   3.772  0.5745  0.1070 -0.1706
    1SOL    HW2 8962   1.052   4.343   3.816  0.2819  0.8489 -0.2025
    1SOL    HW3 8963   1.112   4.367   3.679 -0.4917  3.0947 -0.1721
    1SOL    MW4 8964   1.119   4.368   3.766  0.3953  0.5994 -0.1752
    1SOL     OW 8965   1.539   4.646   3.874  0.1545  0.2488 -0.0617
    1SOL    HW2 8966   1.500   4.643   3.962  0.8561 -1.7042  0.2025
    1SOL    HW3 8967   1.561   4.555   3.854 -2.7774  0.1792 -3.5173
    1SOL    MW4 8968   1.536   4.634   3.883 -0.1397 -0.0176 -0.4828
    1SOL     OW 8969   1.310   0.083   3.732  0.1278 -0.2371  0.3921
    1SOL    HW2 8970   1.300   0.174   3.762  0.2623 -0.1634  0.2141
    1SOL    HW3 8971   1.382   0.048   3.784 -0.2755 -0.4067  0.8422
    1SOL    MW4 8972   1.318   0.091   3.743  0.0924 -0.2497  0.4282
    1SOL     OW 8973   1.303   0.344   3.810  0.1411  0.0686  0.1602
    1SOL    HW2 8974   1.292   0.319   3.902  1.0940 -0.4981  0.1269
    1SOL    HW3 8975   1.379   0.402   3.809 -0.9051  1.4752 -0.0414
    1SOL    MW4 8976   1.311   0.348   3.822  0.1287  0.1794  0.1290
    1SOL     OW 8977   1.530   0.529   3.793 -0.5157  0.3964  0.2403
    1SOL    HW2 8978   1.611   0.486   3.822 -0.1896  0.3467 -0.7053
    1SOL    HW3 8979   1.533   0.616   3.833 -0.4695  0.0531  0.9901
    1SOL    MW4 8980   1.541   0.535   3.802 -0.4666  0.3445  0.2146
    1SOL     OW 8981   1.545   0.767   3.909  0.2426  0.0363  0.4070
    1SOL    HW2 8982   1.625   0.802   3.871 -0.3049 -1.5619 -2.3952
    1SOL    HW3 8983   1.476   0.824   3.875  0.0578  0.6055  1.7315
    1SOL    MW4 8984   1.546   0.779   3.899  0.1459 -0.0995  0.2117
    1SOL     OW 8985   1.338   0.889   3.787 -0.0765  0.3172 -0.0394
    1SOL    HW2 8986   1.331   0.975   3.831  0.4382  0.6700 -0.6497
    1SOL    HW3 8987   1.257   0.844   3.811 -1.7258  2.0963 -2.1004
    1SOL    MW4 8988   1.326   0.895   3.796 -0.2261  0.5985 -0.3920
    1SOL     OW 8989   1.355   1.159   3.867  0.2144  0.1929 -0.0041
    1SOL    HW2 8990   1.434   1.193   3.825  0.3922 -0.1162  0.0794
    1SOL    HW3 8991   1.283   1.204   3.823  0.3597 -0.6718 -1.1659
    1SOL    MW4 8992   1.356   1.169   3.856  0.2571  0.0380 -0.1462
    1SOL     OW 8993   1.569   1.279   3.747  0.6963  0.1264 -0.2929
    1SOL    HW2 8994   1.652   1.240   3.776  0.3381  1.2621  2.3260
    1SOL    HW3 8995   1.571   1.367   3.783 -0.3675  1.1646 -2.6989
    1SOL    MW4 8996   1.580   1.285   3.755  0.5087  0.4133 -0.2649
    1SOL     OW 8997   1.574   1.548   3.825 -0.3298  0.0611  0.3070
    1SOL    HW2 8998   1.587   1.543   3.919  0.2963 -0.0952  0.2125
    1SOL    HW3 8999   1.653   1.590   3.791 -0.5405  0.0992 -0.1497
    1SOL    MW4 9000   1.586   1.553   3.833 -0.2749  0.0454  0.2344
    1SOL     OW 9001   1.344   1.692   3.754 -0.0218  0.0289 -0.3088
    1SOL    HW2 9002   1.359   1.787   3.763  0.7453  0.1341 -2.5118
    1SOL    HW3 9003   1.427   1.652   3.782  0.0197  0.0387 -0.4210
    1SOL    MW4 9004   1.357   1.700   3.759  0.0848  0.0439 -0.6142
    1SOL     OW 9005   1.398   1.964   3.845 -0.2779 -0.2744  0.5427
    1SOL    HW2 9006   1.394   1.915   3.927  1.4681  0.9856  1.4121
    1SOL    HW3 9007   1.311   2.003   3.836 -0.7987 -1.2684  1.2739
    1SOL    MW4 9008   1.386   1.963   3.854 -0.1163 -0.2393  0.7541
    1SOL     OW 9009   1.578   2.121   3.689  0.0446  0.2244  0.0966
    1SOL    HW2 9010   1.498   2.081   3.723  1.6506 -2.9472  0.3705
    1SOL    HW3 9011   1.580   2.097   3.597  1.1353 -0.5429  0.3053
    1SOL    MW4 9012   1.568   2.113   3.682  0.4005 -0.2952  0.1602
    1SOL     OW 9013   1.586   2.368   3.821  0.3472  0.2548  0.0029
    1SOL    HW2 9014   1.592   2.348   3.914 -0.1092  1.4558  0.2989
    1SOL    HW3 9015   1.596   2.283   3.778 -1.4701 -0.6115  1.2227
    1SOL    MW4 9016   1.588   2.354   3.828  0.0471  0.2990  0.2027
    1SOL     OW 9017   1.365   2.490   3.739 -0.3199 -0.0262 -0.0724
    1SOL    HW2 9018   1.446   2.445   3.763 -0.9658 -0.9047  0.4865
    1SOL    HW3 9019   1.295   2.432   3.768 -1.1549  0.1464 -1.6498
    1SOL    MW4 9020   1.367   2.477   3.746 -0.5153 -0.1192 -0.2069
    1SOL     OW 9021   1.320   2.721   3.893  0.4443 -0.4027 -0.3782
    1SOL    HW2 9022   1.343   2.697   3.983  0.2649 -1.5684 -0.6304
    1SOL    HW3 9023   1.330   2.640   3.844  0.4718  0.2129 -1.4021
    1SOL    MW4 9024   1.324   2.707   3.898  0.4241 -0.4754 -0.5465
    1SOL     OW 9025   1.537   2.838   3.778  0.2390  0.1257  0.4350
    1SOL    HW2 9026   1.455   2.808   3.817  0.1807 -1.1547 -0.6277
    1SOL    HW3 9027   1.526   2.824   3.684  1.7667 -0.3365  0.3074
    1SOL    MW4 9028   1.525   2.832   3.771  0.4328 -0.1042  0.2778
    1SOL     OW 9029   1.602   3.103   3.858 -0.5565  0.4077 -0.1580
    1SOL    HW2 9030   1.632   3.099   3.949  0.4030 -0.1344 -0.4920
    1SOL    HW3 9031   1.577   3.013   3.837 -2.4143  0.8412  0.1000
    1SOL    MW4 9032   1.602   3.091   3.867 -0.6750  0.3934 -0.1678
    1SOL     OW 9033   1.367   3.241   3.808  0.4451  0.2228 -0.0259
    1SOL    HW2 9034   1.369   3.332   3.836 -0.1536  0.7528 -1.6446
    1SOL    HW3 9035   1.455   3.208   3.827  0.3339  0.7928  1.6029
    1SOL    MW4 9036   1.379   3.248   3.814  0.3515  0.3681 -0.0246
    1SOL     OW 9037   1.360   3.504   3.909  0.0316 -0.4750  0.6361
    1SOL    HW2 9038   1.423   3.559   3.862 -0.6698  0.6136  0.9388
    1SOL    HW3 9039   1.275   3.546   3.892 -0.1873  0.2742  3.3240
    1SOL    MW4 9040   1.357   3.517   3.900 -0.0899 -0.2327  1.0309
    1SOL     OW 9041   1.571   3.636   3.767  0.1214  0.2711  0.0835
    1SOL    HW2 9042   1.641   3.588   3.811  0.8363 -0.1550 -1.4874
    1SOL    HW3 9043   1.564   3.718   3.816  0.5014 -0.4275  1.3348
    1SOL    MW4 9044   1.579   3.640   3.779  0.2660  0.1228  0.0415
    1SOL     OW 9045   1.569   3.887   3.906 -0.0170  0.7306 -0.2694
    1SOL    HW2 9046   1.561   3.882   4.001 -0.7837 -2.6039 -0.4771
    1SOL    HW3 9047   1.486   3.924   3.876 -1.5535 -2.3025  0.0839
    1SOL    MW4 9048   1.557   3.891   3.914 -0.3208 -0.1094 -0.2501
    1SOL     OW 9049   1.324   3.991   3.791  0.0145  0.2939 -0.0790
    1SOL    HW2 9050   1.335   4.079   3.827  3.1922  0.1506 -0.6151
    1SOL    HW3 9051   1.325   4.004   3.696  0.3643 -0.2951 -0.1593
    1SOL    MW4 9052   1.325   4.005   3.783  0.4798  0.1974 -0.1602
    1SOL     OW 9053   1.342   4.240   3.895 -0.0262  0.0134  0.4332
    1SOL    HW2 9054   1.427   4.280   3.880  0.8665 -1.5524  1.2808
    1SOL    HW3 9055   1.279   4.303   3.858  1.5119  0.8764 -0.7507
    1SOL    MW4 9056   1.345   4.254   3.888  0.2944 -0.0792  0.3889
    1SOL     OW 9057   1.571   4.382   3.798 -0.2738  0.1317  0.5908
    1SOL    HW2 9058   1.657   4.351   3.823 -0.8548 -1.5844  0.5420
    1SOL    HW3 9059   1.571   4.377   3.702 -0.5428 -0.1950  0.6074
    1SOL    MW4 9060   1.582   4.377   3.788 -0.3860 -0.1373  0.5867
    1SOL     OW 9061   1.998   4.662   3.861 -0.0111 -0.3569  0.2985
    1SOL    HW2 9062   2.078   4.701   3.826 -0.5031  0.8941  0.5242
    1SOL    HW3 9063   2.002   4.570   3.836  1.0042 -0.0747 -0.5740
    1SOL    MW4 9064   2.009   4.655   3.853  0.0577 -0.1550  0.2131
    1SOL     OW 9065   1.745   0.123   3.756 -0.1520  0.4250 -0.5483
    1SOL    HW2 9066   1.824   0.082   3.791  0.1676  1.5448  0.0435
    1SOL    HW3 9067   1.674   0.090   3.811 -0.0566 -0.2610 -0.8272
    1SOL    MW4 9068   1.746   0.113   3.768 -0.0972  0.4822 -0.5071
    1SOL     OW 9069   1.764   0.384   3.865  0.7497  0.0441  0.2071
    1SOL    HW2 9070   1.770   0.378   3.961 -1.1229 -0.4488  0.3124
    1SOL    HW3 9071   1.753   0.294   3.836 -2.3462  0.4823 -0.1577
    1SOL    MW4 9072   1.763   0.372   3.874  0.0939  0.0370  0.1729
    1SOL     OW 9073   2.009   0.483   3.794  0.4245 -0.0315 -0.1098
    1SOL    HW2 9074   1.917   0.458   3.805  0.1384  0.1864 -1.7620
    1SOL    HW3 9075   2.020   0.487   3.699  1.9700  0.5910  0.0960
    1SOL    MW4 9076   1.998   0.480   3.783  0.5908  0.0794 -0.3006
    1SOL     OW 9077   1.972   0.745   3.838  0.2397  0.3396  0.2620
    1SOL    HW2 9078   1.994   0.776   3.925 -0.9911  0.1495  0.6438
    1SOL    HW3 9079   1.993   0.651   3.840  1.7934  0.6513 -0.1860
    1SOL    MW4 9080   1.978   0.737   3.850  0.2823  0.3557  0.2530
    1SOL     OW 9081   1.747   0.889   3.755 -0.3829  0.5199 -0.2772
    1SOL    HW2 9082   1.826   0.841   3.781 -1.4257 -0.5984  0.9229
    1SOL    HW3 9083   1.729   0.860   3.666  0.3248  0.4779 -0.4094
    1SOL    MW4 9084   1.755   0.879   3.747 -0.4271  0.3669 -0.1364
    1SOL     OW 9085   1.786   1.139   3.866 -0.0459 -0.2560 -0.2125
    1SOL    HW2 9086   1.746   1.138   3.953  0.4253  1.2039  0.0293
    1SOL    HW3 9087   1.762   1.054   3.828 -1.8856 -0.1363  0.5958
    1SOL    MW4 9088   1.777   1.128   3.872 -0.2265 -0.0476 -0.0739
    1SOL     OW 9089   2.036   1.273   3.794 -0.2187 -0.0021  0.0798
    1SOL    HW2 9090   2.107   1.214   3.819 -0.6157 -0.2364  0.6815
    1SOL    HW3 9091   1.956   1.225   3.817 -0.5394  1.1038  1.3597
    1SOL    MW4 9092   2.035   1.259   3.800 -0.3133  0.1129  0.3283
    1SOL     OW 9093   2.010   1.532   3.851  0.1723  0.0808  0.0910
    1SOL    HW2 9094   1.934   1.560   3.799 -0.6784 -1.8868  0.2571
    1SOL    HW3 9095   2.028   1.443   3.822  1.1717 -0.1953  1.5078
    1SOL    MW4 9096   2.003   1.524   3.840  0.1919 -0.2153  0.2999
    1SOL     OW 9097   1.805   1.683   3.718  0.1601  0.0912 -0.0029
    1SOL    HW2 9098   1.808   1.775   3.745 -0.2476  0.0726  0.1146
    1SOL    HW3 9099   1.794   1.685   3.623 -1.6578  0.1781  0.1957
    1SOL    MW4 9100   1.804   1.695   3.709 -0.1338  0.1003  0.0386
    1SOL     OW 9101   1.789   1.944   3.836  0.3262 -0.0164  0.0731
    1SOL    HW2 9102   1.737   2.013   3.794 -0.1511 -0.1617  0.4320
    1SOL    HW3 9103   1.880   1.971   3.820  0.1465  1.4124  1.3951
    1SOL    MW4 9104   1.794   1.957   3.828  0.2394  0.1529  0.2947
    1SOL     OW 9105   2.002   2.318   3.884  0.2192 -0.0346  0.2020
    1SOL    HW2 9106   2.087   2.353   3.857  0.2477  0.0888  0.4438
    1SOL    HW3 9107   1.981   2.367   3.964 -0.4386  0.4662 -0.2773
    1SOL    MW4 9108   2.011   2.329   3.891  0.1364  0.0479  0.1709
    1SOL     OW 9109   2.215   2.442   3.743  0.1331  0.0158  0.3319
    1SOL    HW2 9110   2.212   2.436   3.647 -3.5287 -2.3286  0.5013
    1SOL    HW3 9111   2.301   2.405   3.765  0.8766  0.2127 -2.0014
    1SOL    MW4 9112   2.226   2.436   3.733 -0.2520 -0.2675  0.0465
    1SOL     OW 9113   1.828   2.477   3.738  0.4249  0.4489 -0.3185
    1SOL    HW2 9114   1.901   2.428   3.777 -0.0904 -0.1116 -0.0424
    1SOL    HW3 9115   1.749   2.433   3.771 -0.0701  2.1934  0.8746
    1SOL    MW4 9116   1.827   2.465   3.747  0.2916  0.6051 -0.1247
    1SOL     OW 9117   2.902   2.562   4.535  0.7774  0.1736 -0.0135
    1SOL    HW2 9118   2.899   2.466   4.540 -2.5067  0.2498  1.0351
    1SOL    HW3 9119   2.919   2.580   4.442 -2.1241 -1.4819 -0.9366
    1SOL    MW4 9120   2.904   2.551   4.523 -0.0386 -0.0348  0.0033
    1SOL     OW 9121   2.052   3.094   3.883 -0.7288  0.5610  0.0617
    1SOL    HW2 9122   2.129   3.138   3.846 -0.8504  1.5376  0.9464
    1SOL    HW3 9123   2.077   3.074   3.973 -1.4043  0.6090  0.2625
    1SOL    MW4 9124   2.066   3.097   3.890 -0.8340  0.6962  0.2048
    1SOL     OW 9125   2.014   2.847   3.730  0.0501  0.4232 -0.0734
    1SOL    HW2 9126   2.028   2.935   3.764  0.3839 -0.3683  1.9200
    1SOL    HW3 9127   1.942   2.812   3.782 -2.1854  0.5617 -2.9231
    1SOL    MW4 9128   2.006   2.854   3.741 -0.2007  0.3369 -0.1864
    1SOL     OW 9129   1.828   3.236   3.750  0.3789 -0.4761 -0.3873
    1SOL    HW2 9130   1.894   3.202   3.811 -0.1228 -0.3242  0.2490
    1SOL    HW3 9131   1.746   3.196   3.779  0.1254 -0.3435 -0.9221
    1SOL    MW4 9132   1.826   3.227   3.762  0.2794 -0.4389 -0.3741
    1SOL     OW 9133   1.800   3.491   3.872  0.0535  0.0374 -0.0128
    1SOL    HW2 9134   1.866   3.547   3.832 -1.2257 -0.0712 -2.4047
    1SOL    HW3 9135   1.821   3.403   3.840 -0.6136 -0.1450  0.0435
    1SOL    MW4 9136   1.811   3.487   3.862 -0.2034 -0.0007 -0.3209
    1SOL     OW 9137   2.018   3.658   3.798  0.1379 -0.3127 -0.5523
    1SOL    HW2 9138   2.093   3.617   3.842  0.9116  1.0527 -0.5723
    1SOL    HW3 9139   2.034   3.642   3.705  0.6290  0.3439 -0.5827
    1SOL    MW4 9140   2.030   3.650   3.792  0.3049 -0.0460 -0.5591
    1SOL     OW 9141   2.041   3.907   3.935 -0.1713  0.1212 -0.2815
    1SOL    HW2 9142   2.119   3.951   3.900 -0.5725  0.9011 -0.2122
    1SOL    HW3 9143   2.037   3.824   3.887  0.8040 -0.0042 -0.1502
    1SOL    MW4 9144   2.051   3.902   3.924 -0.0956  0.2077 -0.2546
    1SOL     OW 9145   1.808   3.970   3.772 -0.0611 -0.4798 -0.1077
    1SOL    HW2 9146   1.881   3.943   3.828  1.9102  2.8488 -0.9136
    1SOL    HW3 9147   1.731   3.931   3.812  1.7047 -0.9272  2.9985
    1SOL    MW4 9148   1.807   3.962   3.784  0.4319 -0.0997  0.1957
    1SOL     OW 9149   1.816   4.263   3.875 -0.6131 -0.0081  0.0356
    1SOL    HW2 9150   1.895   4.305   3.843 -1.2461  1.3312  0.1774
    1SOL    HW3 9151   1.816   4.176   3.835  0.7295  0.1233 -0.2506
    1SOL    MW4 9152   1.826   4.257   3.866 -0.5194  0.1860  0.0165
    1SOL     OW 9153   2.032   4.385   3.780 -0.4554  0.6112 -0.2108
    1SOL    HW2 9154   2.098   4.333   3.827 -0.6209  1.2109  0.6895
    1SOL    HW3 9155   2.049   4.367   3.688  0.0939 -0.3093  0.0671
    1SOL    MW4 9156   2.043   4.376   3.774 -0.4046  0.5689 -0.0553
    1SOL     OW 9157   2.505   4.622   3.831  0.2011 -0.0695 -0.1536
    1SOL    HW2 9158   2.473   4.623   3.921 -2.0794  0.3923 -0.9432
    1SOL    HW3 9159   2.504   4.529   3.806  0.4504 -0.1572  0.1646
    1SOL    MW4 9160   2.501   4.610   3.839 -0.0670 -0.0200 -0.2158
    1SOL     OW 9161   2.250   0.098   3.771  0.2419  0.0923  0.2577
    1SOL    HW2 9162   2.335   0.057   3.786 -0.9999 -2.4798  0.5595
    1SOL    HW3 9163   2.234   0.087   3.677  0.0369  0.1216  0.2880
    1SOL    MW4 9164   2.259   0.091   3.760  0.0510 -0.2432  0.3011
    1SOL     OW 9165   2.224   0.354   3.885 -0.1082 -0.2451 -0.0105
    1SOL    HW2 9166   2.225   0.270   3.839  2.0745  0.2067 -0.8597
    1SOL    HW3 9167   2.136   0.388   3.870 -0.7767 -2.0273 -0.3050
    1SOL    MW4 9168   2.213   0.347   3.877  0.0916 -0.4206 -0.1612
    1SOL     OW 9169   2.470   0.477   3.799 -0.1380 -0.4065 -0.4250
    1SOL    HW2 9170   2.387   0.438   3.826 -0.1174  0.0226  0.2705
    1SOL    HW3 9171   2.466   0.479   3.704 -0.7909 -0.6831 -0.4046
    1SOL    MW4 9172   2.458   0.472   3.790 -0.2217 -0.3864 -0.3304
    1SOL     OW 9173   2.447   0.742   3.876 -0.2109 -0.4035 -0.2226
    1SOL    HW2 9174   2.367   0.778   3.836  0.0003 -0.0770 -0.3512
    1SOL    HW3 9175   2.456   0.655   3.836 -0.3310 -0.3183 -0.4408
    1SOL    MW4 9176   2.437   0.735   3.865 -0.1988 -0.3492 -0.2682
    1SOL     OW 9177   2.197   0.837   3.725  0.0930  0.3356  0.3084
    1SOL    HW2 9178   2.111   0.804   3.753  0.7403 -1.7892 -0.1198
    1SOL    HW3 9179   2.191   0.840   3.629  0.8457 -0.8828  0.2108
    1SOL    MW4 9180   2.185   0.833   3.716  0.2780 -0.1056  0.2391
    1SOL     OW 9181   2.228   1.083   3.865 -0.1703 -0.0753 -0.4034
    1SOL    HW2 9182   2.257   1.041   3.946 -0.4997 -1.2144 -0.8759
    1SOL    HW3 9183   2.210   1.011   3.805 -2.7422  0.6210 -0.5386
    1SOL    MW4 9184   2.229   1.068   3.868 -0.5529 -0.1338 -0.4840
    1SOL     OW 9185   2.434   1.239   3.778  0.2202  0.5131 -0.1135
    1SOL    HW2 9186   2.412   1.328   3.804  1.4796  0.7857  0.0391
    1SOL    HW3 9187   2.360   1.186   3.809 -0.5977  1.5128 -0.3311
    1SOL    MW4 9188   2.421   1.244   3.785  0.2787  0.6810 -0.1221
    1SOL     OW 9189   2.412   1.517   3.839  0.7018  0.6795  0.1225
    1SOL    HW2 9190   2.502   1.545   3.824  0.4647  0.9746 -0.7996
    1SOL    HW3 9191   2.360   1.573   3.780 -0.2440  1.6559  1.8541
    1SOL    MW4 9192   2.417   1.528   3.829  0.5457  0.8473  0.2294
    1SOL     OW 9193   2.196   1.674   3.700  0.2687  0.2309 -0.0435
    1SOL    HW2 9194   2.225   1.750   3.751 -0.5520  0.9436 -0.6210
    1SOL    HW3 9195   2.132   1.631   3.757 -0.8963  1.2130 -0.5849
    1SOL    MW4 9196   2.191   1.679   3.714  0.0067  0.4545 -0.1912
    1SOL     OW 9197   2.271   1.892   3.844  0.1342  0.4775  0.2937
    1SOL    HW2 9198   2.191   1.937   3.817  0.4544  0.4992 -0.6674
    1SOL    HW3 9199   2.342   1.949   3.812  0.5335 -0.2040 -0.0460
    1SOL    MW4 9200   2.270   1.906   3.836  0.2291  0.3905  0.1223
    1SOL     OW 9201   2.467   2.087   3.743  0.3789 -0.4635 -0.3647
    1SOL    HW2 9202   2.482   2.065   3.651 -1.5210 -1.7884 -0.3905
    1SOL    HW3 9203   2.538   2.044   3.790  1.4786  0.3848 -1.1952
    1SOL    MW4 9204   2.478   2.079   3.737  0.2730 -0.5262 -0.4778
    1SOL     OW 9205   2.216   2.691   3.870 -0.0548  0.2394 -0.2505
    1SOL    HW2 9206   2.152   2.754   3.836  0.0907 -0.2539 -1.4889
    1SOL    HW3 9207   2.198   2.610   3.821  1.2829 -0.0012 -0.3742
    1SOL    MW4 9208   2.205   2.688   3.859  0.1409  0.1426 -0.4301
    1SOL     OW 9209   0.681   2.189   4.498  0.2316 -0.2357 -0.0709
    1SOL    HW2 9210   0.721   2.136   4.429 -0.5750  0.5677 -1.1689
    1SOL    HW3 9211   0.671   2.129   4.572  1.0626 -1.1142 -0.6645
    1SOL    MW4 9212   0.685   2.174   4.498  0.2348 -0.2456 -0.2942
    1SOL     OW 9213   2.040   2.063   3.770  0.5437 -0.5728  0.1848
    1SOL    HW2 9214   2.005   2.145   3.806  0.7173 -0.8769  1.0541
    1SOL    HW3 9215   2.043   2.078   3.675  1.4358  0.7560  0.4062
    1SOL    MW4 9216   2.036   2.076   3.762  0.6843 -0.4375  0.3285
    1SOL     OW 9217   2.421   2.871   3.824  0.4046 -0.6724  0.1087
    1SOL    HW2 9218   2.354   2.805   3.840 -0.2396 -0.0918 -0.1427
    1SOL    HW3 9219   2.442   2.861   3.731  0.9545 -1.1115  0.2757
    1SOL    MW4 9220   2.415   2.861   3.814  0.3922 -0.6537  0.0975
    1SOL     OW 9221   2.480   3.124   3.917  0.2872  0.3484 -0.1002
    1SOL    HW2 9222   2.468   3.116   4.012  0.7717 -0.6911 -0.1252
    1SOL    HW3 9223   2.452   3.040   3.882  2.6010 -0.2201 -0.6527
    1SOL    MW4 9224   2.474   3.112   3.925  0.6561  0.1359 -0.1767
    1SOL     OW 9225   2.264   3.226   3.762  0.2609 -0.0108  0.1040
    1SOL    HW2 9226   2.255   3.319   3.782 -1.3684  0.1406 -1.2490
    1SOL    HW3 9227   2.347   3.201   3.803  1.4108  2.3382 -0.6756
    1SOL    MW4 9228   2.274   3.235   3.770  0.1974  0.3192 -0.1776
    1SOL     OW 9229   2.227   3.473   3.897  0.1593 -0.2115  0.3045
    1SOL    HW2 9230   2.227   3.481   3.993 -0.3166  0.5519  0.2431
    1SOL    HW3 9231   2.313   3.505   3.870  1.2470 -2.7232  0.6520
    1SOL    MW4 9232   2.239   3.478   3.906  0.2401 -0.4423  0.3426
    1SOL     OW 9233   2.468   3.594   3.779 -0.3194 -0.0206  0.0446
    1SOL    HW2 9234   2.545   3.546   3.811 -0.5167 -0.3793 -0.0198
    1SOL    HW3 9235   2.487   3.610   3.687  0.3360  1.1814  0.3712
    1SOL    MW4 9236   2.481   3.590   3.771 -0.2587  0.0906  0.0789
    1SOL     OW 9237   2.478   3.842   3.912 -0.2798 -0.0444  0.0537
    1SOL    HW2 9238   2.550   3.884   3.865  0.6814 -0.4198  1.1712
    1SOL    HW3 9239   2.474   3.754   3.874  0.5150 -0.3579  0.6794
    1SOL    MW4 9240   2.487   3.835   3.901 -0.0479 -0.1354  0.2837
    1SOL     OW 9241   2.262   4.035   3.826 -0.5224  0.4595  0.2467
    1SOL    HW2 9242   2.332   3.983   3.866 -0.4000  0.4165 -0.0212
    1SOL    HW3 9243   2.259   4.004   3.735  0.8739  2.2706 -0.4531
    1SOL    MW4 9244   2.271   4.024   3.819 -0.3219  0.6928  0.1190
    1SOL     OW 9245   2.259   4.285   3.923  0.2642  0.4005 -0.2557
    1SOL    HW2 9246   2.251   4.283   4.019 -3.1824  1.4567 -0.4547
    1SOL    HW3 9247   2.269   4.193   3.898  2.7215  0.2358  1.1827
    1SOL    MW4 9248   2.259   4.273   3.932  0.1335  0.5178 -0.0923
    1SOL     OW 9249   2.491   4.337   3.777  0.3414  0.1399  0.0508
    1SOL    HW2 9250   2.562   4.298   3.830 -0.4592 -1.4092  0.0279
    1SOL    HW3 9251   2.413   4.326   3.831 -0.0942  0.6725 -0.4717
    1SOL    MW4 9252   2.490   4.330   3.791  0.1783  0.0057 -0.0212
    1SOL     OW 9253   2.934   4.618   3.901  0.3457  0.4095 -0.1292
    1SOL    HW2 9254   2.929   4.638   3.994 -0.7837 -1.0384  0.1498
    1SOL    HW3 9255   3.007   4.670   3.868 -0.5499  2.5327  1.1339
    1SOL    MW4 9256   2.943   4.627   3.909  0.0787  0.4983  0.0744
    1SOL     OW 9257   2.736   0.114   3.817 -0.0212 -0.1776  0.3282
    1SOL    HW2 9258   2.804   0.050   3.837  0.4574  0.1523 -0.2043
    1SOL    HW3 9259   2.654   0.070   3.838  0.3741 -0.4830  1.2430
    1SOL    MW4 9260   2.734   0.100   3.822  0.0942 -0.1744  0.3786
    1SOL     OW 9261   2.706   0.378   3.889 -0.3400  0.3357  0.1879
    1SOL    HW2 9262   2.713   0.288   3.859  0.3514  0.0533  1.1731
    1SOL    HW3 9263   2.618   0.405   3.864 -1.3201 -1.3126  1.7645
    1SOL    MW4 9264   2.696   0.370   3.882 -0.3779  0.0809  0.5257
    1SOL     OW 9265   2.921   0.516   3.775  0.1725  0.0893  0.3310
    1SOL    HW2 9266   2.998   0.461   3.782 -0.5920 -1.0568 -0.1763
    1SOL    HW3 9267   2.853   0.469   3.823 -0.4710  0.6042 -0.0636
    1SOL    MW4 9268   2.922   0.503   3.782 -0.0131  0.0060  0.2117
    1SOL     OW 9269   2.894   0.799   3.835 -0.0340  0.1878  0.0098
    1SOL    HW2 9270   2.972   0.840   3.799  0.9889 -1.8561 -0.1524
    1SOL    HW3 9271   2.899   0.707   3.807 -0.2337 -0.9969  3.6250
    1SOL    MW4 9272   2.905   0.792   3.827  0.0746 -0.2382  0.4652
    1SOL     OW 9273   2.647   0.894   3.767  0.0783  0.2497  0.2754
    1SOL    HW2 9274   2.733   0.859   3.790  0.5395  0.4643 -1.1156
    1SOL    HW3 9275   2.585   0.830   3.804  0.8637 -0.8435 -0.2738
    1SOL    MW4 9276   2.650   0.881   3.775  0.2425  0.1338  0.0193
    1SOL     OW 9277   2.692   1.166   3.826 -0.1430 -0.3645  0.0664
    1SOL    HW2 9278   2.660   1.078   3.811  1.8499 -0.9558 -0.9444
    1SOL    HW3 9279   2.618   1.223   3.806 -2.0258 -1.8380  2.4574
    1SOL    MW4 9280   2.678   1.162   3.821 -0.1285 -0.6369  0.2484
    1SOL     OW 9281   2.932   1.275   3.747 -0.1395 -0.1239  0.2938
    1SOL    HW2 9282   2.923   1.360   3.790 -0.2487  0.0325 -0.0369
    1SOL    HW3 9283   2.851   1.229   3.767  0.1455 -0.3589  0.9274
    1SOL    MW4 9284   2.920   1.280   3.755 -0.1163 -0.1343  0.3340
    1SOL     OW 9285   2.868   1.526   3.851 -0.3474 -0.5895 -0.4586
    1SOL    HW2 9286   2.885   1.486   3.936 -2.1783  1.5457  0.9482
    1SOL    HW3 9287   2.940   1.587   3.837 -1.5742  1.2230  0.9540
    1SOL    MW4 9288   2.880   1.528   3.860 -0.7508 -0.0687 -0.0865
    1SOL     OW 9289   2.640   1.657   3.781  0.3043  0.0731 -0.2771
    1SOL    HW2 9290   2.721   1.615   3.811  0.1079  0.1479  0.3686
    1SOL    HW3 9291   2.642   1.647   3.686  0.3493 -1.2353 -0.1490
    1SOL    MW4 9292   2.651   1.650   3.772  0.2842 -0.0898 -0.1748
    1SOL     OW 9293   2.685   1.917   3.893 -0.8364  0.0089  0.3658
    1SOL    HW2 9294   2.722   1.896   3.979 -0.8781 -0.9375  0.1626
    1SOL    HW3 9295   2.666   1.831   3.854 -1.7947  0.4530 -0.1580
    1SOL    MW4 9296   2.688   1.903   3.899 -0.9685 -0.0575  0.2699
    1SOL     OW 9297   2.885   2.311   3.909 -0.0248 -0.4043 -0.4695
    1SOL    HW2 9298   2.819   2.365   3.865 -0.5543 -0.8327 -0.2043
    1SOL    HW3 9299   2.969   2.343   3.875 -0.2958  0.9538  0.0985
    1SOL    MW4 9300   2.888   2.322   3.899 -0.1302 -0.2818 -0.3593
    1SOL     OW 9301   2.773   1.792   4.544 -0.2290 -0.0284  0.3869
    1SOL    HW2 9302   2.718   1.814   4.620 -0.7608 -0.8504  0.2476
    1SOL    HW3 9303   2.855   1.838   4.560 -0.3697 -0.1227  1.4256
    1SOL    MW4 9304   2.776   1.801   4.556 -0.3173 -0.1494  0.5054
    1SOL     OW 9305   2.694   2.470   3.795 -0.1486  0.2326 -0.1559
    1SOL    HW2 9306   2.664   2.560   3.808  1.4313  0.8291 -0.6307
    1SOL    HW3 9307   2.614   2.418   3.802 -0.9498  1.5830  0.9786
    1SOL    MW4 9308   2.679   2.475   3.797 -0.0455  0.4895 -0.0687
    1SOL     OW 9309   2.663   2.725   3.888 -0.3231  0.0050 -0.0448
    1SOL    HW2 9310   2.584   2.780   3.894 -0.5105 -0.3026  0.3500
    1SOL    HW3 9311   2.665   2.678   3.972  1.1645  1.2284  0.6323
    1SOL    MW4 9312   2.653   2.726   3.900 -0.1514  0.1259  0.0968
    1SOL     OW 9313   2.918   2.843   3.814  0.4422  0.4516  0.1017
    1SOL    HW2 9314   2.905   2.931   3.849  0.0639  0.7786 -0.8433
    1SOL    HW3 9315   2.840   2.795   3.841 -0.9351  1.3208 -2.1589
    1SOL    MW4 9316   2.906   2.848   3.822  0.2108  0.6094 -0.3214
    1SOL     OW 9317   2.891   3.116   3.888  0.1630  0.1681 -0.0531
    1SOL    HW2 9318   2.965   3.168   3.855 -0.6637  1.3056 -0.1196
    1SOL    HW3 9319   2.816   3.149   3.839 -0.6880  0.2440  1.3098
    1SOL    MW4 9320   2.891   3.127   3.877 -0.0587  0.3283  0.1178
    1SOL     OW 9321   2.677   3.224   3.738 -0.2803  0.7784 -0.0110
    1SOL    HW2 9322   2.691   3.311   3.776  1.0090  0.7127 -0.3149
    1SOL    HW3 9323   2.616   3.181   3.798 -1.5173  2.1469 -0.2608
    1SOL    MW4 9324   2.671   3.230   3.751 -0.2732  0.9501 -0.0839
    1SOL     OW 9325   2.683   3.469   3.883 -0.5185 -0.0011  0.4280
    1SOL    HW2 9326   2.679   3.484   3.977  1.5564  1.2314  0.3405
    1SOL    HW3 9327   2.754   3.524   3.852 -0.1967 -1.4942 -1.6593
    1SOL    MW4 9328   2.692   3.478   3.891 -0.2024 -0.0355  0.1409
    1SOL     OW 9329   2.886   3.648   3.789 -0.5186  0.0553 -0.0965
    1SOL    HW2 9330   2.966   3.604   3.816 -0.8222 -1.0619 -0.9783
    1SOL    HW3 9331   2.890   3.646   3.693 -1.1854  0.7650 -0.1394
    1SOL    MW4 9332   2.897   3.642   3.780 -0.6466  0.0014 -0.2184
    1SOL     OW 9333   2.930   3.895   3.875  0.0820  0.2260 -0.0634
    1SOL    HW2 9334   2.940   3.885   3.970 -2.0885  0.1509  0.1769
    1SOL    HW3 9335   2.918   3.806   3.843  1.5849  0.1740 -0.5260
    1SOL    MW4 9336   2.930   3.882   3.883 -0.0062  0.2091 -0.0927
    1SOL     OW 9337   2.693   3.987   3.801  0.6122 -0.7656 -0.4163
    1SOL    HW2 9338   2.702   4.076   3.833 -1.7401 -0.3938 -0.7452
    1SOL    HW3 9339   2.772   3.943   3.832  2.5884  1.8111 -1.6005
    1SOL    MW4 9340   2.705   3.993   3.809  0.5624 -0.3765 -0.6158
    1SOL     OW 9341   2.708   4.225   3.932 -0.1476  0.0945 -0.0048
    1SOL    HW2 9342   2.797   4.249   3.906 -1.0825  3.0814 -0.5846
    1SOL    HW3 9343   2.706   4.242   4.026 -0.1627  0.1924 -0.0227
    1SOL    MW4 9344   2.720   4.230   3.941 -0.2730  0.5012 -0.0837
    1SOL     OW 9345   2.926   4.360   3.813 -0.1039 -0.5000 -0.0776
    1SOL    HW2 9346   3.010   4.334   3.851  0.0621  0.7144  0.4156
    1SOL    HW3 9347   2.916   4.452   3.838 -1.2829 -0.4576 -0.6735
    1SOL    MW4 9348   2.936   4.369   3.822 -0.2375 -0.3347 -0.0911
    1SOL     OW 9349   3.386   4.646   3.931 -0.0218  0.0738 -0.0823
    1SOL    HW2 9350   3.391   4.628   4.025 -0.7760  1.0072  0.1519
    1SOL    HW3 9351   3.455   4.710   3.915 -0.8235  1.0068  0.1238
    1SOL    MW4 9352   3.396   4.652   3.941 -0.2270  0.3200 -0.0243
    1SOL     OW 9353   3.157   0.083   3.812 -0.1782  0.0390  0.1605
    1SOL    HW2 9354   3.238   0.057   3.857 -0.6318 -3.0142 -0.6929
    1SOL    HW3 9355   3.175   0.067   3.719 -1.4823  0.1344 -0.1118
    1SOL    MW4 9356   3.170   0.078   3.806 -0.4101 -0.3512  0.0119
    1SOL     OW 9357   3.136   0.340   3.868  0.6661 -0.0847 -0.5752
    1SOL    HW2 9358   3.134   0.355   3.962  0.6154  0.6613 -0.6873
    1SOL    HW3 9359   3.158   0.248   3.858  2.5122  0.2722  0.1274
    1SOL    MW4 9360   3.138   0.330   3.879  0.9029  0.0608 -0.4973
    1SOL     OW 9361   3.381   0.491   3.813 -0.0584  0.2017  0.0614
    1SOL    HW2 9362   3.455   0.446   3.852  0.1417  1.0479  0.6634
    1SOL    HW3 9363   3.305   0.440   3.839  0.0713  0.7641  1.5634
    1SOL    MW4 9364   3.381   0.478   3.821 -0.0148  0.3876  0.3390
    1SOL     OW 9365   3.394   0.785   3.844 -0.4472 -0.0112 -0.3009
    1SOL    HW2 9366   3.402   0.806   3.937  0.5127  0.2160 -0.4277
    1SOL    HW3 9367   3.393   0.689   3.842 -0.8367 -0.0132 -0.0253
    1SOL    MW4 9368   3.395   0.775   3.856 -0.3722  0.0185 -0.2813
    1SOL     OW 9369   3.143   0.909   3.779  0.4960  0.2757 -0.0042
    1SOL    HW2 9370   3.211   0.850   3.813 -1.0250 -1.4821  0.0436
    1SOL    HW3 9371   3.152   0.903   3.684  1.3250  1.1574  0.0076
    1SOL    MW4 9372   3.153   0.901   3.771  0.4046  0.1602  0.0038
    1SOL     OW 9373   3.155   1.171   3.878 -0.4118 -0.0402 -0.3587
    1SOL    HW2 9374   3.165   1.086   3.836 -0.8290 -0.4344  0.3422
    1SOL    HW3 9375   3.077   1.209   3.838 -1.1447 -0.6582  0.4527
    1SOL    MW4 9376   3.146   1.165   3.867 -0.5636 -0.1738 -0.1590
    1SOL     OW 9377   3.349   1.333   3.775 -0.1246 -0.3769 -0.0341
    1SOL    HW2 9378   3.273   1.288   3.810 -0.2074 -0.7367 -0.6709
    1SOL    HW3 9379   3.361   1.296   3.688  0.6646 -0.1866 -0.0101
    1SOL    MW4 9380   3.341   1.322   3.768 -0.0315 -0.3994 -0.1152
    1SOL     OW 9381   3.365   1.591   3.891  0.2976 -0.3785 -0.0711
    1SOL    HW2 9382   3.281   1.635   3.882  0.3709 -0.3641 -0.7290
    1SOL    HW3 9383   3.352   1.505   3.850  0.0204 -1.1595  1.6091
    1SOL    MW4 9384   3.352   1.585   3.884  0.2704 -0.4797  0.0637
    1SOL     OW 9385   3.107   1.684   3.808  0.4048 -0.1967 -0.5797
    1SOL    HW2 9386   3.092   1.779   3.811  0.3411 -0.2305  0.9295
    1SOL    HW3 9387   3.135   1.666   3.719 -0.2447  1.1484 -1.0631
    1SOL    MW4 9388   3.109   1.694   3.797  0.3107 -0.0236 -0.4442
    1SOL     OW 9389   3.081   1.960   3.836 -0.0967 -0.2560  0.3112
    1SOL    HW2 9390   3.108   1.994   3.921  0.0587  0.7432 -0.1245
    1SOL    HW3 9391   3.001   2.009   3.815  0.9617  0.9489 -1.0093
    1SOL    MW4 9392   3.074   1.971   3.844  0.0637  0.0347  0.0792
    1SOL     OW 9393   3.322   2.057   3.729 -0.3535 -0.3162 -0.1555
    1SOL    HW2 9394   3.241   2.030   3.771  0.4356 -0.0873  1.5355
    1SOL    HW3 9395   3.391   2.018   3.782  0.6712  0.4811 -0.8754
    1SOL    MW4 9396   3.320   2.049   3.741 -0.1142 -0.1810 -0.0274
    1SOL     OW 9397   3.355   2.297   3.874  0.2784  0.2549 -0.5054
    1SOL    HW2 9398   3.266   2.331   3.860 -0.3408 -0.8967  0.4688
    1SOL    HW3 9399   3.354   2.211   3.833  0.4931 -0.3556  0.7271
    1SOL    MW4 9400   3.343   2.290   3.867  0.2253  0.0224 -0.2141
    1SOL     OW 9401   3.113   2.452   3.816  0.2975 -0.3306  0.0179
    1SOL    HW2 9402   3.120   2.544   3.842 -0.2195 -0.3607  0.2728
    1SOL    HW3 9403   3.128   2.453   3.722  0.8646 -0.0573  0.1041
    1SOL    MW4 9404   3.116   2.465   3.807  0.3040 -0.2980  0.0629
    1SOL     OW 9405   3.169   2.736   3.838  0.1018 -0.1084 -0.3262
    1SOL    HW2 9406   3.173   2.708   3.930  3.0383  0.6736 -0.1846
    1SOL    HW3 9407   3.086   2.783   3.832 -0.0238  0.0487  1.9947
    1SOL    MW4 9408   3.158   2.738   3.849  0.4725  0.0157 -0.0012
    1SOL     OW 9409   3.399   2.867   3.762 -0.1731  0.7169 -0.2943
    1SOL    HW2 9410   3.318   2.821   3.784 -0.4222  1.0670 -0.4712
    1SOL    HW3 9411   3.382   2.958   3.787  1.3460  0.2089  2.7602
    1SOL    MW4 9412   3.386   2.873   3.768 -0.0055  0.6962  0.0856
    1SOL     OW 9413   3.348   3.124   3.859 -0.3723  0.2305 -0.4066
    1SOL    HW2 9414   3.369   3.098   3.948  0.3857 -0.9587 -0.9201
    1SOL    HW3 9415   3.421   3.181   3.832  0.9228 -1.7843 -1.2746
    1SOL    MW4 9416   3.361   3.128   3.867 -0.1013 -0.1922 -0.5887
    1SOL     OW 9417   3.112   3.224   3.756  0.2505  0.2597  0.2878
    1SOL    HW2 9418   3.181   3.178   3.803  0.5197  0.7866  0.4110
    1SOL    HW3 9419   3.140   3.222   3.665  0.0629 -0.1683  0.2373
    1SOL    MW4 9420   3.125   3.217   3.750  0.2613  0.2728  0.2975
    1SOL     OW 9421   3.119   3.495   3.820  0.2156  0.4191  0.1515
    1SOL    HW2 9422   3.206   3.536   3.818  1.2863 -1.7939 -0.2972
    1SOL    HW3 9423   3.133   3.407   3.784 -1.9691 -0.4261  1.2657
    1SOL    MW4 9424   3.132   3.489   3.815  0.0684  0.0155  0.2396
    1SOL     OW 9425   3.394   3.588   3.809 -0.2544 -0.1913 -0.4768
    1SOL    HW2 9426   3.385   3.679   3.834 -0.6241 -0.3274 -0.1189
    1SOL    HW3 9427   3.399   3.589   3.713  1.4903  0.3569 -0.3968
    1SOL    MW4 9428   3.394   3.600   3.800 -0.0730 -0.1371 -0.4189
    1SOL     OW 9429   3.364   3.857   3.895  0.5095  0.1274 -0.1275
    1SOL    HW2 9430   3.443   3.906   3.875  0.4262  0.3433  0.0698
    1SOL    HW3 9431   3.292   3.916   3.871  0.4098  0.2520  0.4670
    1SOL    MW4 9432   3.365   3.871   3.890  0.4854  0.1724 -0.0231
    1SOL     OW 9433   3.164   4.008   3.785  0.2843  0.7448 -0.2877
    1SOL    HW2 9434   3.162   4.093   3.830 -0.2087 -0.4334  2.0110
    1SOL    HW3 9435   3.079   3.968   3.805  1.2758 -1.1213  0.3862
    1SOL    MW4 9436   3.152   4.014   3.794  0.3502  0.3433  0.1044
    1SOL     OW 9437   3.163   4.268   3.930 -0.7303  0.5575  0.8818
    1SOL    HW2 9438   3.185   4.245   4.021  0.9096  0.9759  0.6210
    1SOL    HW3 9439   3.238   4.321   3.901 -1.6441  1.1307 -0.4433
    1SOL    MW4 9440   3.176   4.272   3.938 -0.6344  0.6876  0.6723
    1SOL     OW 9441   3.376   4.388   3.810 -0.1396  0.1330  0.4587
    1SOL    HW2 9442   3.461   4.349   3.826 -0.7969 -1.2448  0.6716
    1SOL    HW3 9443   3.380   4.474   3.852  0.9010 -0.2069  1.0504
    1SOL    MW4 9444   3.387   4.394   3.817 -0.0892 -0.0939  0.5646
    1SOL     OW 9445   3.800   4.640   3.910  0.9848  0.2089  0.6846
    1SOL    HW2 9446   3.873   4.680   3.863 -0.8423  1.8309 -0.8750
    1SOL    HW3 9447   3.789   4.554   3.868  1.4905  0.2833  0.3938
    1SOL    MW4 9448   3.808   4.634   3.898  0.8104  0.4330  0.4404
    1SOL     OW 9449   3.598   0.124   3.824 -0.3224 -0.1657  0.3334
    1SOL    HW2 9450   3.664   0.067   3.863 -0.3127  0.0683  0.6611
    1SOL    HW3 9451   3.603   0.107   3.731  1.7898  1.5068  0.0975
    1SOL    MW4 9452   3.607   0.114   3.817 -0.0424  0.0858  0.3457
    1SOL     OW 9453   3.609   0.374   3.939 -0.3818  0.1955  0.5017
    1SOL    HW2 9454   3.682   0.420   3.898 -0.5964  0.8395  0.8370
    1SOL    HW3 9455   3.600   0.294   3.889  0.6861  0.0191  0.5816
    1SOL    MW4 9456   3.617   0.370   3.927 -0.2694  0.2572  0.5565
    1SOL     OW 9457   3.808   0.491   3.780 -0.1698  0.4197 -0.2314
    1SOL    HW2 9458   3.892   0.455   3.808  0.2094  1.1378 -0.4137
    1SOL    HW3 9459   3.809   0.581   3.814 -1.6262 -0.1275  1.2774
    1SOL    MW4 9460   3.820   0.498   3.788 -0.3119  0.4423 -0.0567
    1SOL     OW 9461   3.779   0.767   3.881  0.1216 -0.1837 -0.6776
    1SOL    HW2 9462   3.856   0.799   3.834  0.0728  1.0101  0.0324
    1SOL    HW3 9463   3.710   0.829   3.860 -0.3642 -0.6414 -0.4428
    1SOL    MW4 9464   3.780   0.780   3.872  0.0510 -0.0866 -0.5531
    1SOL     OW 9465   3.603   0.949   3.750 -0.1862 -0.0238 -0.4703
    1SOL    HW2 9466   3.590   1.037   3.786  1.2653 -0.5621  1.4294
    1SOL    HW3 9467   3.525   0.900   3.777  0.3460 -0.0976  0.9833
    1SOL    MW4 9468   3.591   0.954   3.758  0.0758 -0.1046 -0.0279
    1SOL     OW 9469   3.572   1.190   3.888  0.1431 -0.2138 -0.4745
    1SOL    HW2 9470   3.649   1.227   3.845  0.3307 -0.2006 -0.1238
    1SOL    HW3 9471   3.498   1.235   3.847  0.2984 -0.5783 -1.1546
    1SOL    MW4 9472   3.572   1.200   3.877  0.1881 -0.2604 -0.5178
    1SOL     OW 9473   3.802   1.314   3.789 -0.3518  0.5490  0.1064
    1SOL    HW2 9474   3.879   1.265   3.818 -0.9450 -0.5158 -0.0771
    1SOL    HW3 9475   3.814   1.402   3.826  0.2849  0.0092  1.2158
    1SOL    MW4 9476   3.813   1.319   3.798 -0.3457  0.3372  0.2289
    1SOL     OW 9477   3.780   1.562   3.901  0.1207  0.0356 -0.0717
    1SOL    HW2 9478   3.791   1.563   3.996  0.4036 -1.1197 -0.0835
    1SOL    HW3 9479   3.704   1.618   3.885 -0.4449 -0.4428  0.9129
    1SOL    MW4 9480   3.771   1.569   3.911  0.0834 -0.1799  0.0567
    1SOL     OW 9481   3.579   1.724   3.752  0.2863  0.3555  0.1910
    1SOL    HW2 9482   3.505   1.676   3.791 -0.0944  0.5352 -0.3016
    1SOL    HW3 9483   3.570   1.709   3.658  0.9175  0.3276  0.1334
    1SOL    MW4 9484   3.568   1.716   3.745  0.3195  0.3755  0.1183
    1SOL     OW 9485   3.555   1.961   3.861 -0.4943  0.4078 -0.3621
    1SOL    HW2 9486   3.561   1.871   3.830  1.4680  0.8440 -1.2983
    1SOL    HW3 9487   3.561   1.954   3.957 -1.7637 -0.5355 -0.3362
    1SOL    MW4 9488   3.556   1.949   3.870 -0.4029  0.3409 -0.4823
    1SOL     OW 9489   3.771   2.121   3.757 -0.7318 -0.4082 -1.0282
    1SOL    HW2 9490   3.859   2.087   3.772 -0.5264 -0.0379 -1.3644
    1SOL    HW3 9491   3.713   2.052   3.787 -0.3440  0.1992  1.2219
    1SOL    MW4 9492   3.775   2.108   3.763 -0.6537 -0.2794 -0.7756
    1SOL     OW 9493   3.737   2.373   3.849  0.2494  0.2157  0.0617
    1SOL    HW2 9494   3.740   2.285   3.813 -0.3773  0.3795 -0.4111
    1SOL    HW3 9495   3.652   2.408   3.820 -0.0891  0.5037  1.3384
    1SOL    MW4 9496   3.726   2.366   3.841  0.1221  0.2754  0.1681
    1SOL     OW 9497   3.498   2.517   3.780  0.2177 -0.4589 -0.3011
    1SOL    HW2 9498   3.457   2.440   3.820  2.0255 -0.6568  1.2719
    1SOL    HW3 9499   3.520   2.490   3.691 -0.8704 -1.1318 -0.3688
    1SOL    MW4 9500   3.496   2.503   3.774  0.3123 -0.5739 -0.1023
    1SOL     OW 9501   3.578   2.730   3.916 -0.0678  0.0587 -0.0563
    1SOL    HW2 9502   3.577   2.645   3.873  0.9804  0.4924 -0.9383
    1SOL    HW3 9503   3.517   2.784   3.864 -0.7539 -0.1473  0.5187
    1SOL    MW4 9504   3.570   2.726   3.904 -0.0200  0.0889 -0.0968
    1SOL     OW 9505   3.789   2.819   3.762  0.0744  0.2879 -0.2526
    1SOL    HW2 9506   3.866   2.771   3.792 -0.4402 -0.6696 -0.4316
    1SOL    HW3 9507   3.718   2.788   3.818 -0.3724  0.4236 -0.7363
    1SOL    MW4 9508   3.790   2.808   3.773 -0.0522  0.1793 -0.3402
    1SOL     OW 9509   3.791   3.094   3.868  0.1217 -0.4739 -0.2878
    1SOL    HW2 9510   3.720   3.143   3.826  1.1953 -0.0852 -1.7093
    1SOL    HW3 9511   3.787   3.007   3.828  0.3227 -0.5088 -0.2326
    1SOL    MW4 9512   3.781   3.089   3.857  0.2897 -0.4275 -0.4683
    1SOL     OW 9513   3.574   3.246   3.782 -0.1918  0.2855 -0.4209
    1SOL    HW2 9514   3.591   3.332   3.821 -2.8361  0.5752  0.1680
    1SOL    HW3 9515   3.585   3.260   3.688 -2.0937  1.6807 -0.4633
    1SOL    MW4 9516   3.577   3.259   3.774 -0.7915  0.5076 -0.3486
    1SOL     OW 9517   3.632   3.498   3.906 -0.3557  0.3642 -0.4128
    1SOL    HW2 9518   3.633   3.488   4.001  0.3124  0.3137 -0.4208
    1SOL    HW3 9519   3.549   3.542   3.887 -0.3452  0.6650  0.2270
    1SOL    MW4 9520   3.621   3.503   3.916 -0.2663  0.3970 -0.3295
    1SOL     OW 9521   3.833   3.604   3.764  0.3141  0.0843 -0.0277
    1SOL    HW2 9522   3.830   3.696   3.790 -0.5404  0.3100 -0.8976
    1SOL    HW3 9523   3.766   3.561   3.817 -0.4026  0.2643 -0.7954
    1SOL    MW4 9524   3.824   3.611   3.774  0.1068  0.1380 -0.2439
    1SOL     OW 9525   3.820   3.849   3.878 -0.1541 -0.2901  0.0059
    1SOL    HW2 9526   3.815   3.837   3.973  1.5178 -0.9006  0.0321
    1SOL    HW3 9527   3.900   3.899   3.863  0.4245 -1.5053 -1.1743
    1SOL    MW4 9528   3.830   3.854   3.888  0.1428 -0.5310 -0.1464
    1SOL     OW 9529   3.592   3.964   3.780 -0.4553  0.1435 -0.2582
    1SOL    HW2 9530   3.593   4.053   3.813  0.9869  1.0162 -2.5443
    1SOL    HW3 9531   3.672   3.924   3.816 -1.3824 -0.4053  1.2072
    1SOL    MW4 9532   3.603   3.970   3.789 -0.3874  0.1864 -0.3664
    1SOL     OW 9533   3.595   4.216   3.880 -0.3045 -0.0486  0.4630
    1SOL    HW2 9534   3.590   4.211   3.976  0.7743 -0.0710  0.5320
    1SOL    HW3 9535   3.678   4.262   3.864  1.9166 -4.1440 -0.5259
    1SOL    MW4 9536   3.605   4.222   3.891  0.1309 -0.5918  0.3417
    1SOL     OW 9537   3.801   4.382   3.797  0.4319  0.0108  0.3804
    1SOL    HW2 9538   3.876   4.324   3.812  0.3793 -0.2445 -0.3435
    1SOL    HW3 9539   3.783   4.375   3.703 -0.2774  0.3463  0.4860
    1SOL    MW4 9540   3.809   4.373   3.786  0.3312  0.0215  0.2990
    1SOL     OW 9541   4.250   4.647   3.905 -0.4534  0.0686  0.2921
    1SOL    HW2 9542   4.265   4.649   3.999  1.2093 -2.2058  0.0955
    1SOL    HW3 9543   4.330   4.684   3.867  0.6276 -2.8178 -0.3581
    1SOL    MW4 9544   4.262   4.652   3.912 -0.0911 -0.6127  0.1805
    1SOL     OW 9545   4.018   0.093   3.797  0.5648 -0.0110 -0.2900
    1SOL    HW2 9546   4.100   0.055   3.829  0.2920 -1.0887 -0.8568
    1SOL    HW3 9547   4.026   0.093   3.702 -0.1238 -0.2124 -0.3547
    1SOL    MW4 9548   4.030   0.088   3.789  0.4382 -0.1797 -0.3734
    1SOL     OW 9549   4.033   0.372   3.900 -0.1514 -0.4406  0.2926
    1SOL    HW2 9550   4.047   0.372   3.995 -0.9984  1.2262  0.4317
    1SOL    HW3 9551   4.022   0.280   3.877  2.3269 -1.0612  1.4662
    1SOL    MW4 9552   4.033   0.360   3.909  0.0634 -0.3026  0.4659
    1SOL     OW 9553   4.255   0.513   3.814 -0.3988 -0.6686  0.1665
    1SOL    HW2 9554   4.186   0.460   3.852 -1.2727 -0.4727 -1.1124
    1SOL    HW3 9555   4.245   0.502   3.720 -0.9893  2.2264 -0.1756
    1SOL    MW4 9556   4.245   0.505   3.807 -0.5918 -0.2608 -0.0472
    1SOL     OW 9557   4.266   0.785   3.871 -0.2517 -0.0154 -0.1289
    1SOL    HW2 9558   4.181   0.808   3.834 -0.6915 -0.2325  0.7199
    1SOL    HW3 9559   4.278   0.693   3.847  1.1051  0.8007 -2.7658
    1SOL    MW4 9560   4.256   0.776   3.863 -0.1302  0.0637 -0.3648
    1SOL     OW 9561   4.031   0.881   3.784  0.0912 -0.2071  0.3489
    1SOL    HW2 9562   4.007   0.969   3.811  0.4297 -0.4631  1.4794
    1SOL    HW3 9563   4.018   0.881   3.689 -0.2411  0.9488  0.3911
    1SOL    MW4 9564   4.026   0.892   3.775  0.0925 -0.0884  0.5038
    1SOL     OW 9565   3.997   1.141   3.850  0.2649  0.1304 -0.2808
    1SOL    HW2 9566   4.013   1.142   3.944  0.2979  0.8731 -0.2926
    1SOL    HW3 9567   4.079   1.174   3.812  0.4797 -0.7583 -0.6059
    1SOL    MW4 9568   4.010   1.145   3.857  0.2975  0.1110 -0.3254
    1SOL     OW 9569   4.223   1.265   3.741  0.1461 -0.0090 -0.5854
    1SOL    HW2 9570   4.211   1.358   3.758 -1.7176 -0.0938 -1.2044
    1SOL    HW3 9571   4.217   1.258   3.645 -1.3257 -0.9327 -0.4458
    1SOL    MW4 9572   4.220   1.276   3.730 -0.2933 -0.1421 -0.6487
    1SOL     OW 9573   4.225   1.524   3.818 -0.2910  0.1469  0.5261
    1SOL    HW2 9574   4.158   1.585   3.787 -0.7293 -0.8199 -0.4313
    1SOL    HW3 9575   4.308   1.563   3.790 -0.6370 -0.3277 -1.2122
    1SOL    MW4 9576   4.227   1.537   3.810 -0.3943 -0.0433  0.1705
    1SOL     OW 9577   4.004   1.698   3.781  0.5396 -0.5043 -0.3037
    1SOL    HW2 9578   3.998   1.792   3.800  1.1340 -0.2852 -1.1865
    1SOL    HW3 9579   3.930   1.660   3.829 -0.2504  0.5254 -0.6639
    1SOL    MW4 9580   3.993   1.705   3.790  0.5143 -0.3395 -0.4678
    1SOL     OW 9581   3.978   1.951   3.863 -0.2081 -0.1448 -0.1170
    1SOL    HW2 9582   3.965   1.984   3.952  0.6166 -1.4176  0.4754
    1SOL    HW3 9583   4.057   1.994   3.833  0.2457 -0.7184  0.2493
    1SOL    MW4 9584   3.987   1.961   3.871 -0.0391 -0.3885  0.0095
    1SOL     OW 9585   4.205   2.061   3.780  0.0515  0.6509  0.5295
    1SOL    HW2 9586   4.223   2.149   3.811 -0.1107  0.9247 -0.1608
    1SOL    HW3 9587   4.216   2.065   3.685  1.8434 -0.4891  0.6565
    1SOL    MW4 9588   4.209   2.073   3.772  0.2661  0.5364  0.4551
    1SOL     OW 9589   4.231   2.328   3.890  0.1151 -0.5506 -0.5533
    1SOL    HW2 9590   4.206   2.338   3.982 -0.0810  1.4909 -0.8035
    1SOL    HW3 9591   4.153   2.354   3.841  0.5821 -0.5524 -1.3138
    1SOL    MW4 9592   4.217   2.333   3.895  0.1507 -0.2813 -0.6862
    1SOL     OW 9593   3.978   2.437   3.742  0.5428  0.1754  0.0893
    1SOL    HW2 9594   3.987   2.527   3.772 -1.0803  0.0440  1.0185
    1SOL    HW3 9595   3.895   2.407   3.780  0.7852 -1.5198 -0.6748
    1SOL    MW4 9596   3.968   2.444   3.751  0.3605 -0.0656  0.1111
    1SOL     OW 9597   4.025   2.694   3.855  0.5099 -0.1259 -0.2000
    1SOL    HW2 9598   4.025   2.710   3.949  0.0261  0.3354 -0.2737
    1SOL    HW3 9599   4.102   2.739   3.822  1.0131 -0.7951  0.0570
    1SOL    MW4 9600   4.035   2.702   3.863  0.5126 -0.1531 -0.1757
    1SOL     OW 9601   4.212   2.868   3.739 -0.2080  0.0956  0.2944
    1SOL    HW2 9602   4.226   2.956   3.774  0.9690  0.1116 -0.1912
    1SOL    HW3 9603   4.289   2.819   3.767 -1.5425 -1.1977  1.8220
    1SOL    MW4 9604   4.224   2.873   3.748 -0.2289 -0.0730  0.4318
    1SOL     OW 9605   4.277   3.111   3.881  0.2006 -0.2304 -0.3835
    1SOL    HW2 9606   4.195   3.151   3.849 -0.0254 -0.0350  0.4282
    1SOL    HW3 9607   4.346   3.157   3.833 -0.0234  1.5941  0.9702
    1SOL    MW4 9608   4.275   3.122   3.871  0.1416  0.0362 -0.0975
    1SOL     OW 9609   4.041   3.221   3.773  0.1493  0.2477  1.0570
    1SOL    HW2 9610   3.955   3.187   3.800  0.1023  0.5551  1.3058
    1SOL    HW3 9611   4.036   3.228   3.678 -0.3482  0.9239  1.1308
    1SOL    MW4 9612   4.029   3.217   3.764  0.0777  0.3772  1.0996
    1SOL     OW 9613   4.077   3.491   3.858  0.0419  0.0813  0.0505
    1SOL    HW2 9614   4.071   3.400   3.829 -2.5076 -0.1958  1.3654
    1SOL    HW3 9615   4.011   3.537   3.806  1.9313  1.3902 -1.2496
    1SOL    MW4 9616   4.068   3.485   3.847 -0.0448  0.2170  0.0522
    1SOL     OW 9617   4.324   3.607   3.788 -0.4851  0.3318 -0.1133
    1SOL    HW2 9618   4.244   3.566   3.820  0.1016 -2.3292 -1.8975
    1SOL    HW3 9619   4.394   3.564   3.835  0.0278  1.2362 -0.0289
    1SOL    MW4 9620   4.322   3.596   3.798 -0.3405  0.1001 -0.3376
    1SOL     OW 9621   4.287   3.874   3.919  0.2972  0.1488 -0.0339
    1SOL    HW2 9622   4.203   3.911   3.889  1.1956  1.9672 -0.3692
    1SOL    HW3 9623   4.297   3.794   3.868 -0.7318  0.4732 -0.7660
    1SOL    MW4 9624   4.277   3.868   3.908  0.2799  0.4315 -0.1748
    1SOL     OW 9625   4.052   3.989   3.820  0.3212 -0.2787 -0.0590
    1SOL    HW2 9626   4.030   4.077   3.849  0.3280 -0.3220  0.0796
    1SOL    HW3 9627   4.036   3.990   3.725  1.5263  0.2331 -0.2569
    1SOL    MW4 9628   4.047   4.000   3.811  0.4811 -0.2174 -0.0670
    1SOL     OW 9629   4.030   4.255   3.864  0.5990  0.0167 -0.4119
    1SOL    HW2 9630   4.029   4.246   3.960  0.7999 -2.1530 -0.6022
    1SOL    HW3 9631   4.111   4.303   3.847  0.4728  0.5840  0.5203
    1SOL    MW4 9632   4.041   4.260   3.875  0.6094 -0.1950 -0.3142
    1SOL     OW 9633   4.253   4.383   3.785  0.5928  0.9025  0.1541
    1SOL    HW2 9634   4.256   4.470   3.823 -2.3899 -0.1623  3.0062
    1SOL    HW3 9635   4.332   4.339   3.818  1.8294  2.2942 -0.8781
    1SOL    MW4 9636   4.264   4.389   3.794  0.3624  0.9456  0.3943
    1SOL     OW 9637   3.304   1.256   4.564  0.1515 -0.0183  0.2295
    1SOL    HW2 9638   3.345   1.269   4.479 -1.5594 -0.2674 -0.6588
    1SOL    HW3 9639   3.361   1.195   4.611  1.3875  0.5619 -0.5316
    1SOL    MW4 9640   3.317   1.250   4.559  0.0889  0.0254  0.0114
    1SOL     OW 9641   4.054   4.237   4.142  0.2643 -0.0686 -0.0691
    1SOL    HW2 9642   4.065   4.147   4.175  0.0422  0.2618  0.9066
    1SOL    HW3 9643   3.981   4.272   4.191  1.9292  1.4993  1.3644
    1SOL    MW4 9644   4.046   4.229   4.153  0.4549  0.1817  0.2484
    1SOL     OW 9645   2.128   0.406   4.586 -0.5903  0.1887 -0.3288
    1SOL    HW2 9646   2.041   0.366   4.583 -0.2806 -0.5187  0.0420
    1SOL    HW3 9647   2.114   0.496   4.554 -1.5750  0.3085  0.4222
    1SOL    MW4 9648   2.115   0.413   4.581 -0.6795  0.1111 -0.1812
    1SOL     OW 9649   0.669   0.721   4.135 -0.2176 -0.3361  0.0249
    1SOL    HW2 9650   0.750   0.766   4.159 -1.4844  1.8177  0.4458
    1SOL    HW3 9651   0.666   0.727   4.039  0.1334 -0.4144  0.0106
    1SOL    MW4 9652   0.679   0.728   4.125 -0.3384 -0.0622  0.0787
    1SOL     OW 9653   4.237   0.807   4.149  0.0064  0.2501 -0.5291
    1SOL    HW2 9654   4.247   0.800   4.054  0.6460 -2.3327 -0.2910
    1SOL    HW3 9655   4.316   0.853   4.178 -0.4422  1.5297 -1.2809
    1SOL    MW4 9656   4.249   0.813   4.140  0.0319  0.0782 -0.5970
    1SOL     OW 9657   1.903   2.221   4.453 -0.0655  0.1229 -0.0124
    1SOL    HW2 9658   1.900   2.258   4.541 -0.7763  0.4195 -0.1582
    1SOL    HW3 9659   1.987   2.251   4.418 -0.2190  0.8248  0.2105
    1SOL    MW4 9660   1.914   2.230   4.460 -0.1795  0.2549 -0.0024
    1SOL     OW 9661   0.046   1.157   4.089 -0.0186 -0.0299  0.3401
    1SOL    HW2 9662  -0.023   1.190   4.148  0.1705  1.3154 -0.1753
    1SOL    HW3 9663   0.127   1.190   4.128  0.2268 -0.4285  0.1622
    1SOL    MW4 9664   0.048   1.166   4.102  0.0388  0.0950  0.2484
    1SOL     OW 9665   1.106   2.787   4.248 -0.5816  0.1250  0.1644
    1SOL    HW2 9666   1.120   2.879   4.226 -1.7944  0.0055 -1.1202
    1SOL    HW3 9667   1.063   2.789   4.334 -0.6575  0.7505  0.1115
    1SOL    MW4 9668   1.102   2.799   4.257 -0.7517  0.1917 -0.0119
    1SOL     OW 9669   0.987   4.549   4.715  0.0224  0.0700  0.3750
    1SOL    HW2 9670   0.918   4.603   4.677 -0.5105  0.0307  1.2755
    1SOL    HW3 9671   0.951   4.519   4.798  0.1673 -1.9742 -0.2711
    1SOL    MW4 9672   0.973   4.552   4.721 -0.0288 -0.2046  0.4086
    1SOL     OW 9673   3.609   3.475   4.542 -0.3671  0.3881  0.3554
    1SOL    HW2 9674   3.699   3.486   4.573  0.5322  1.6579 -2.5243
    1SOL    HW3 9675   3.606   3.384   4.512  0.2059  0.5713 -0.2726
    1SOL    MW4 9676   3.621   3.464   4.542 -0.1731  0.5798 -0.1078
    1SOL     OW 9677   0.571   3.815   4.723 -0.1280 -0.9233  0.0647
    1SOL    HW2 9678   0.662   3.841   4.742 -0.1077 -0.9224 -0.0334
    1SOL    HW3 9679   0.528   3.896   4.696 -0.0321 -1.0150 -0.3635
    1SOL    MW4 9680   0.578   3.829   4.722 -0.1127 -0.9353 -0.0048
    1SOL     OW 9681   1.294   3.970   4.258 -0.0325 -0.1055 -0.0731
    1SOL    HW2 9682   1.384   3.940   4.250 -0.1194 -0.5374  0.5080
    1SOL    HW3 9683   1.267   3.941   4.345 -0.5110  0.6140  0.0209
    1SOL    MW4 9684   1.302   3.962   4.269 -0.1070 -0.0677  0.0157
    1SOL     OW 9685   0.198   2.319   4.079  0.0053  0.1161 -0.1706
    1SOL    HW2 9686   0.204   2.224   4.072 -1.2263 -0.1337  1.9445
    1SOL    HW3 9687   0.280   2.346   4.120 -0.4032 -0.2047  0.8474
    1SOL    MW4 9688   0.210   2.310   4.083 -0.2111  0.0408  0.2427
    1SOL     OW 9689   1.115   4.355   4.257 -0.1178  0.7831 -0.0984
    1SOL    HW2 9690   1.113   4.372   4.351  1.5411  2.3495 -0.3120
    1SOL    HW3 9691   1.199   4.313   4.241 -1.1811 -1.2292 -0.6441
    1SOL    MW4 9692   1.126   4.352   4.267 -0.0392  0.7243 -0.1988
    1SOL     OW 9693   4.285   4.353   4.255 -0.0538 -0.5339 -0.2634
    1SOL    HW2 9694   4.290   4.442   4.221  0.5753 -0.6631 -0.5101
    1SOL    HW3 9695   4.208   4.316   4.212 -0.8438  0.1716  0.5150
    1SOL    MW4 9696   4.276   4.360   4.245 -0.0753 -0.4578 -0.1931
    1SOL     OW 9697   0.468   1.521   4.513 -0.0616  0.3224 -0.4110
    1SOL    HW2 9698   0.541   1.463   4.531 -0.9461 -0.6417  0.1439
    1SOL    HW3 9699   0.482   1.551   4.424 -1.1177 -3.0508 -1.7935
    1SOL    MW4 9700   0.479   1.517   4.504 -0.3176 -0.2500 -0.5202
    1SOL     OW 9701   0.234   2.807   4.232  0.3234 -0.4185  0.0949
    1SOL    HW2 9702   0.241   2.896   4.197 -1.6995 -0.4616 -0.4730
    1SOL    HW3 9703   0.158   2.770   4.187  1.0197 -2.3680  0.4899
    1SOL    MW4 9704   0.225   2.814   4.221  0.1483 -0.6814  0.0720
    1SOL     OW 9705   1.748   1.461   4.835 -1.0237 -0.0588 -0.6012
    1SOL    HW2 9706   1.749   1.366   4.820 -1.7025  0.0911 -1.6338
    1SOL    HW3 9707   1.711   1.470   4.923 -1.6270 -0.7200 -0.7817
    1SOL    MW4 9708   1.743   1.450   4.845 -1.1927 -0.1262 -0.7610
    1SOL     OW 9709   4.282   3.045   4.156 -0.3831  0.3584 -0.3954
    1SOL    HW2 9710   4.353   3.085   4.206  0.6187 -1.6929 -0.1136
    1SOL    HW3 9711   4.288   3.084   4.069  1.7620 -0.5380 -0.6729
    1SOL    MW4 9712   4.292   3.056   4.151  0.0324 -0.0305 -0.3948
    1SOL     OW 9713   3.310   2.793   4.545  0.6053  0.0742 -0.0403
    1SOL    HW2 9714   3.249   2.864   4.564 -0.3752 -0.5110 -0.9060
    1SOL    HW3 9715   3.395   2.826   4.571 -0.0368  1.0335  0.8911
    1SOL    MW4 9716   3.313   2.807   4.551  0.3910  0.1235 -0.0315
    1SOL     OW 9717   1.953   1.214   4.596 -0.1932  0.9833  0.0069
    1SOL    HW2 9718   1.956   1.300   4.554  0.0598  0.1518 -1.7068
    1SOL    HW3 9719   2.045   1.187   4.600 -0.2727  0.7887  0.5590
    1SOL    MW4 9720   1.966   1.222   4.591 -0.1704  0.8479 -0.1464
    1SOL     OW 9721   0.906   1.823   4.610 -0.8532  0.7900  0.6845
    1SOL    HW2 9722   0.945   1.874   4.538 -0.5893 -0.9819 -0.4623
    1SOL    HW3 9723   0.840   1.882   4.648 -0.0383  2.2538 -0.1166
    1SOL    MW4 9724   0.903   1.838   4.605 -0.7108  0.7493  0.4268
    1SOL     OW 9725   0.199   4.375   4.292  0.0634 -0.1586  0.1083
    1SOL    HW2 9726   0.165   4.399   4.378 -0.7744 -0.0991 -0.2320
    1SOL    HW3 9727   0.142   4.303   4.263  0.1793 -0.0079 -0.4968
    1SOL    MW4 9728   0.187   4.369   4.300 -0.0318 -0.1307 -0.0162
    1SOL     OW 9729   3.171   1.135   4.161 -0.1169 -0.2337 -0.3561
    1SOL    HW2 9730   3.161   1.142   4.066  0.5648  1.7809 -0.2902
    1SOL    HW3 9731   3.085   1.158   4.196  0.2126  1.0712 -0.4048
    1SOL    MW4 9732   3.159   1.139   4.153  0.0162  0.2042 -0.3538
    1SOL     OW 9733   1.101   1.033   4.620  0.1960 -0.1180 -0.0177
    1SOL    HW2 9734   1.177   0.976   4.634 -0.6472 -1.1649  0.3795
    1SOL    HW3 9735   1.034   0.975   4.585  0.0704  1.1175 -1.8644
    1SOL    MW4 9736   1.102   1.018   4.617  0.0681 -0.0931 -0.2089
    1SOL     OW 9737   0.468   0.036   4.121 -0.0295  0.1783  0.0323
    1SOL    HW2 9738   0.476   0.131   4.126  0.6727  0.0576  1.4590
    1SOL    HW3 9739   0.513   0.012   4.040  2.8010  0.7734  1.3518
    1SOL    MW4 9740   0.475   0.045   4.111  0.4366  0.2409  0.3943
    1SOL     OW 9741   0.455   0.324   4.131  0.0679 -0.4118 -0.1001
    1SOL    HW2 9742   0.528   0.382   4.151  0.9858 -1.4333 -0.4180
    1SOL    HW3 9743   0.451   0.321   4.036 -2.0287  1.6337 -0.1160
    1SOL    MW4 9744   0.464   0.331   4.121 -0.0876 -0.2767 -0.1440
    1SOL     OW 9745   0.896   0.863   4.209 -0.2866  0.1768 -0.5830
    1SOL    HW2 9746   0.901   0.956   4.190  0.6228  0.6518  1.8392
    1SOL    HW3 9747   0.897   0.857   4.304 -0.6150 -2.3019 -0.6846
    1SOL    MW4 9748   0.896   0.874   4.219 -0.2100 -0.0875 -0.2775
    1SOL     OW 9749   4.070   1.125   4.608  0.0821  0.1401 -0.4150
    1SOL    HW2 9750   3.984   1.156   4.579  0.0506 -0.1276 -0.6041
    1SOL    HW3 9751   4.131   1.170   4.550  0.0508  0.0705 -0.5035
    1SOL    MW4 9752   4.066   1.135   4.596  0.0749  0.0956 -0.4511
    1SOL     OW 9753   2.621   1.939   4.373 -0.8709  0.0866  0.0179
    1SOL    HW2 9754   2.669   1.885   4.436  0.9593  0.4425 -1.0619
    1SOL    HW3 9755   2.555   1.879   4.337 -0.0309 -0.9399  0.1528
    1SOL    MW4 9756   2.618   1.924   4.376 -0.5186 -0.0018 -0.1073
    1SOL     OW 9757   0.670   1.551   4.111 -0.2195 -0.6642  0.2952
    1SOL    HW2 9758   0.699   1.460   4.118  1.5370 -0.1057  0.5489
    1SOL    HW3 9759   0.681   1.573   4.019  1.0427 -0.1668  0.5641
    1SOL    MW4 9760   0.675   1.542   4.100  0.1788 -0.5249  0.3638
    1SOL     OW 9761   0.254   0.751   4.126 -0.1893 -0.1729  0.0687
    1SOL    HW2 9762   0.249   0.662   4.161  0.2580 -0.2930 -0.1765
    1SOL    HW3 9763   0.178   0.795   4.164  1.2152  0.2020  2.6059
    1SOL    MW4 9764   0.243   0.745   4.136  0.0551 -0.1393  0.3710
    1SOL     OW 9765   0.774   2.451   4.410  0.1212 -0.0805 -0.2008
    1SOL    HW2 9766   0.829   2.436   4.333 -0.1018  0.8606 -0.5558
    1SOL    HW3 9767   0.753   2.363   4.442  1.5133 -0.4543 -0.2712
    1SOL    MW4 9768   0.778   2.437   4.404  0.2754 -0.0055 -0.2570
    1SOL     OW 9769   3.660   0.937   4.545 -0.0484 -0.0259  0.6380
    1SOL    HW2 9770   3.622   0.906   4.463 -0.1714 -0.2542  0.7800
    1SOL    HW3 9771   3.713   1.013   4.520  0.1454 -0.2678  0.3082
    1SOL    MW4 9772   3.662   0.943   4.531 -0.0391 -0.0880  0.6132
    1SOL     OW 9773   0.448   1.625   4.252 -0.5166 -0.3876 -0.1728
    1SOL    HW2 9774   0.458   1.718   4.269 -0.7021 -0.3498 -0.2637
    1SOL    HW3 9775   0.530   1.599   4.210 -0.5306 -0.2276 -0.3023
    1SOL    MW4 9776   0.460   1.634   4.248 -0.5429 -0.3616 -0.2017
    1SOL     OW 9777   1.801   3.261   4.536 -0.3092  0.2427 -0.4154
    1SOL    HW2 9778   1.819   3.175   4.574 -0.7099  0.1231 -0.4942
    1SOL    HW3 9779   1.830   3.254   4.445  1.1510  0.6975  0.0015
    1SOL    MW4 9780   1.808   3.249   4.529 -0.1694  0.2868 -0.3710
    1SOL     OW 9781   0.677   2.237   4.094 -0.0676 -0.0612 -0.2036
    1SOL    HW2 9782   0.602   2.296   4.104 -0.3644 -0.3272 -0.8841
    1SOL    HW3 9783   0.681   2.218   4.000  1.6231  0.9604 -0.3521
    1SOL    MW4 9784   0.667   2.242   4.083  0.1163  0.0384 -0.3128
    1SOL     OW 9785   1.999   4.130   4.563  0.0946 -0.0993 -0.4431
    1SOL    HW2 9786   1.947   4.135   4.643  1.6676 -0.6608  0.6451
    1SOL    HW3 9787   2.029   4.219   4.548 -1.8535  0.4080 -1.5762
    1SOL    MW4 9788   1.996   4.142   4.572  0.0451 -0.1068 -0.4487
    1SOL     OW 9789   0.691   2.841   4.161 -0.5463 -0.1065  0.2762
    1SOL    HW2 9790   0.766   2.785   4.136 -0.4780 -0.4337  1.2071
    1SOL    HW3 9791   0.614   2.787   4.143 -0.5337 -0.0548  0.0565
    1SOL    MW4 9792   0.691   2.826   4.155 -0.5356 -0.1431  0.3700
    1SOL     OW 9793   1.597   2.843   4.247 -0.0896  0.3533  0.3275
    1SOL    HW2 9794   1.616   2.855   4.340 -1.0884 -0.3375  0.6229
    1SOL    HW3 9795   1.679   2.813   4.209  1.0284  3.0584  0.5237
    1SOL    MW4 9796   1.610   2.841   4.254 -0.0738  0.6192  0.3924
    1SOL     OW 9797   0.724   3.112   4.120 -0.2154 -0.4308 -0.0446
    1SOL    HW2 9798   0.727   3.020   4.143  0.7591 -0.2594  0.5465
    1SOL    HW3 9799   0.639   3.142   4.151  0.1681 -0.7329  1.3360
    1SOL    MW4 9800   0.713   3.104   4.127 -0.0362 -0.4482  0.2160
    1SOL     OW 9801   4.490   3.178   4.288 -0.5393 -0.0123 -0.2526
    1SOL    HW2 9802   4.483   3.264   4.247  1.7574  0.7996  0.9812
    1SOL    HW3 9803   4.492   3.197   4.382 -2.1068 -1.5733  0.1222
    1SOL    MW4 9804   4.489   3.192   4.295 -0.4431 -0.1111 -0.0405
    1SOL     OW 9805   0.889   0.876   4.483 -0.8566 -0.1633  0.1782
    1SOL    HW2 9806   0.838   0.800   4.511  0.6242 -1.2786 -0.1165
    1SOL    HW3 9807   0.831   0.950   4.499 -1.6774 -1.1827  2.1237
    1SOL    MW4 9808   0.875   0.876   4.489 -0.7695 -0.4450  0.3958
    1SOL     OW 9809   3.696   3.730   4.479  0.1682 -0.1422  0.0178
    1SOL    HW2 9810   3.626   3.791   4.501 -0.2531 -0.2463 -1.0037
    1SOL    HW3 9811   3.653   3.644   4.474  0.2446 -0.1238 -1.1820
    1SOL    MW4 9812   3.681   3.726   4.481  0.1228 -0.1535 -0.2751
    1SOL     OW 9813   0.676   3.635   4.301 -0.0678 -0.5494 -0.0395
    1SOL    HW2 9814   0.746   3.574   4.278 -0.1944 -0.4928 -0.5946
    1SOL    HW3 9815   0.654   3.614   4.391  0.8767 -0.3577  0.2439
    1SOL    MW4 9816   0.682   3.624   4.310  0.0402 -0.5167 -0.0758
    1SOL     OW 9817   2.526   0.332   4.483 -0.5261  0.0973 -0.1937
    1SOL    HW2 9818   2.597   0.267   4.484 -0.3054  0.3198  1.6610
    1SOL    HW3 9819   2.533   0.375   4.398  1.9802  0.5490  0.2043
    1SOL    MW4 9820   2.537   0.329   4.472 -0.1662  0.1862  0.1035
    1SOL     OW 9821   4.393   0.476   4.502  0.2443 -0.1810 -0.7946
    1SOL    HW2 9822   4.367   0.494   4.412 -0.4297 -0.7275 -0.7134
    1SOL    HW3 9823   4.316   0.435   4.542  0.3713  0.4850  0.1670
    1SOL    MW4 9824   4.380   0.473   4.495  0.1721 -0.1652 -0.6571
    1SOL     OW 9825   0.053   4.407   4.540 -0.3169  0.1855  0.1681
    1SOL    HW2 9826   0.043   4.502   4.543 -1.4077  0.1925 -2.2577
    1SOL    HW3 9827  -0.036   4.373   4.548  0.2173 -0.7442  2.7507
    1SOL    MW4 9828   0.040   4.415   4.541 -0.3903  0.0634  0.1888
    1SOL     OW 9829   1.119   4.610   4.141 -0.3791  0.0428 -0.3164
    1SOL    HW2 9830   1.102   4.522   4.173  1.5596 -0.6074 -1.0214
    1SOL    HW3 9831   1.111   4.603   4.046 -2.5525  1.1692 -0.2541
    1SOL    MW4 9832   1.116   4.598   4.133 -0.4102  0.1059 -0.4015
    1SOL     OW 9833   0.963   0.125   4.289  0.1570  0.3763  0.5632
    1SOL    HW2 9834   0.957   0.205   4.236  0.2071  0.6457  0.9630
    1SOL    HW3 9835   1.005   0.061   4.231 -0.5718  0.4160 -0.0146
    1SOL    MW4 9836   0.968   0.127   4.274  0.0675  0.4171  0.5398
    1SOL     OW 9837   1.169   3.971   4.544 -0.4012  0.4095  0.0635
    1SOL    HW2 9838   1.085   4.004   4.578  0.3091  1.0836  1.1856
    1SOL    HW3 9839   1.231   4.042   4.560  0.0522  0.5932 -2.2878
    1SOL    MW4 9840   1.166   3.985   4.550 -0.2478  0.5226 -0.0992
    1SOL     OW 9841   0.491   1.870   4.397  0.3889 -0.1560 -0.0702
    1SOL    HW2 9842   0.485   1.829   4.484  0.0117  0.0525  0.0068
    1SOL    HW3 9843   0.579   1.908   4.395  0.1212  0.5205  0.5362
    1SOL    MW4 9844   0.502   1.870   4.408  0.3038 -0.0392  0.0200
    1SOL     OW 9845   1.128   0.717   4.168  0.0330  0.0203  0.2289
    1SOL    HW2 9846   1.197   0.772   4.204  0.4494  0.1164 -0.7132
    1SOL    HW3 9847   1.047   0.766   4.187  0.0825 -0.6839  2.4433
    1SOL    MW4 9848   1.126   0.731   4.176  0.0943 -0.0599  0.3972
    1SOL     OW 9849   1.696   0.500   4.517 -0.2487  0.3473  0.4406
    1SOL    HW2 9850   1.717   0.591   4.538 -0.2249  0.3460  0.4242
    1SOL    HW3 9851   1.639   0.471   4.588 -0.8084  0.5806  0.0894
    1SOL    MW4 9852   1.691   0.508   4.529 -0.3195  0.3778  0.3929
    1SOL     OW 9853   0.916   1.127   4.154  0.1509 -0.3342 -0.5127
    1SOL    HW2 9854   0.852   1.185   4.196 -0.2253 -0.5988 -0.7076
    1SOL    HW3 9855   1.001   1.166   4.173  0.1063 -1.3697  1.9036
    1SOL    MW4 9856   0.919   1.140   4.162  0.0954 -0.5057 -0.2193
    1SOL     OW 9857   4.482   1.596   4.454  0.2492  0.2658 -1.1525
    1SOL    HW2 9858   4.555   1.533   4.453  0.9042  0.9363  0.7754
    1SOL    HW3 9859   4.525   1.682   4.452 -0.5399  0.6660 -1.0280
    1SOL    MW4 9860   4.497   1.599   4.454  0.2317  0.4071 -0.8821
    1SOL     OW 9861   4.027   3.721   4.670  0.0491  0.1398 -0.2466
    1SOL    HW2 9862   4.006   3.648   4.611  0.1967  1.4477 -1.9724
    1SOL    HW3 9863   3.965   3.712   4.742 -0.9116 -0.8256 -1.1723
    1SOL    MW4 9864   4.016   3.710   4.671 -0.0577  0.1850 -0.5965
    1SOL     OW 9865   1.132   3.693   4.575 -0.2320 -0.0895  0.1347
    1SOL    HW2 9866   1.146   3.669   4.484  0.2178 -1.2032  0.4874
    1SOL    HW3 9867   1.148   3.787   4.578 -1.1032  0.1146 -1.0955
    1SOL    MW4 9868   1.136   3.702   4.564 -0.2875 -0.2098  0.0191
    1SOL     OW 9869   0.471   1.760   4.656  0.3661  0.2731  0.0637
    1SOL    HW2 9870   0.408   1.749   4.727  1.2296  1.3486  1.0227
    1SOL    HW3 9871   0.483   1.672   4.620 -1.7494  0.0779 -0.1996
    1SOL    MW4 9872   0.465   1.747   4.661  0.2009  0.3892  0.1550
    1SOL     OW 9873   0.937   1.871   4.137  0.2654 -0.6046 -0.1092
    1SOL    HW2 9874   1.008   1.932   4.161 -0.1297 -0.4042  0.5421
    1SOL    HW3 9875   0.940   1.868   4.041  1.1372 -0.5711 -0.0867
    1SOL    MW4 9876   0.947   1.879   4.127  0.3283 -0.5738 -0.0200
    1SOL     OW 9877   2.482   2.211   4.524  0.4783 -0.4741  0.3524
    1SOL    HW2 9878   2.424   2.284   4.505 -0.1450 -0.9782  0.3276
    1SOL    HW3 9879   2.431   2.153   4.580  0.7634 -1.1774 -0.1057
    1SOL    MW4 9880   2.468   2.213   4.529  0.4337 -0.6332  0.2885
    1SOL     OW 9881   0.460   4.043   4.610 -0.2317 -0.1635 -0.2399
    1SOL    HW2 9882   0.454   4.005   4.523 -0.8274 -1.6369  0.4160
    1SOL    HW3 9883   0.370   4.064   4.634 -0.1174 -0.1159  0.1626
    1SOL    MW4 9884   0.447   4.041   4.602 -0.2952 -0.3514 -0.1006
    1SOL     OW 9885   0.886   2.679   4.102  0.2180 -0.8126 -0.5086
    1SOL    HW2 9886   0.883   2.586   4.124 -0.6990 -0.8218 -0.6384
    1SOL    HW3 9887   0.968   2.710   4.140  0.1177 -1.4876  0.2849
    1SOL    MW4 9888   0.896   2.671   4.110  0.0838 -0.9029 -0.4210
    1SOL     OW 9889   0.309   3.689   4.728  0.0104 -0.5797 -0.1814
    1SOL    HW2 9890   0.232   3.742   4.747 -0.2742 -1.2899  0.6484
    1SOL    HW3 9891   0.383   3.741   4.759 -0.2899 -0.7852  0.8814
    1SOL    MW4 9892   0.309   3.703   4.735 -0.0667 -0.7007  0.0687
    1SOL     OW 9893   1.162   3.065   4.162  0.3728 -0.3953 -0.2932
    1SOL    HW2 9894   1.150   3.085   4.069 -0.0332  0.8698  0.0163
    1SOL    HW3 9895   1.090   3.112   4.205  1.2031 -0.0829  0.7506
    1SOL    MW4 9896   1.151   3.074   4.155  0.4288 -0.1872 -0.1144
    1SOL     OW 9897   3.597   0.098   4.296  0.3768 -0.5213 -0.2769
    1SOL    HW2 9898   3.661   0.049   4.245 -0.3036 -0.2556 -1.3870
    1SOL    HW3 9899   3.605   0.188   4.263  1.2379  0.0384  1.3642
    1SOL    MW4 9900   3.607   0.104   4.285  0.4010 -0.4124 -0.2069
    1SOL     OW 9901   0.207   3.579   4.287 -0.9212 -0.3758 -0.4278
    1SOL    HW2 9902   0.207   3.674   4.272 -1.3065 -0.0226  1.7000
    1SOL    HW3 9903   0.299   3.554   4.283 -0.6725  0.3632  0.6745
    1SOL    MW4 9904   0.219   3.588   4.284 -0.9392 -0.2315 -0.0019
    1SOL     OW 9905   3.976   2.767   4.140 -0.5468 -0.0873 -0.1820
    1SOL    HW2 9906   3.945   2.691   4.189  0.1953 -0.0872  0.2830
    1SOL    HW3 9907   3.921   2.840   4.171 -0.0964 -0.0918  0.6261
    1SOL    MW4 9908   3.965   2.767   4.151 -0.3893 -0.0880 -0.0138
    1SOL     OW 9909   2.026   2.877   4.273  0.2859  0.2851  0.5722
    1SOL    HW2 9910   1.948   2.836   4.235  0.5344  0.7310 -0.4569
    1SOL    HW3 9911   2.099   2.830   4.233  0.5495  0.5033  0.7989
    1SOL    MW4 9912   2.025   2.866   4.263  0.3533  0.3726  0.4663
    1SOL     OW 9913   0.468   3.193   4.232  0.3328 -0.2908  0.3695
    1SOL    HW2 9914   0.459   3.288   4.223 -0.3332 -0.3784  0.0553
    1SOL    HW3 9915   0.442   3.175   4.322  0.7514 -0.1398  0.5203
    1SOL    MW4 9916   0.463   3.203   4.242  0.3001 -0.2828  0.3481
    1SOL     OW 9917   0.876   4.011   4.265  0.3719  0.2907  0.5359
    1SOL    HW2 9918   0.951   3.959   4.236 -0.1500  0.4670 -1.2395
    1SOL    HW3 9919   0.879   4.090   4.210 -1.6390 -0.1519 -0.2755
    1SOL    MW4 9920   0.886   4.014   4.254  0.0377  0.2551  0.1945
    1SOL     OW 9921   1.065   0.260   4.706  0.0425 -0.4901 -0.2978
    1SOL    HW2 9922   0.978   0.222   4.721  0.4932 -1.3347  0.1722
    1SOL    HW3 9923   1.098   0.216   4.628  0.4750 -0.8975  0.1175
    1SOL    MW4 9924   1.058   0.250   4.698  0.1591 -0.6553 -0.1812
    1SOL     OW 9925   2.709   3.994   4.297  0.0265  0.2465  0.2392
    1SOL    HW2 9926   2.736   3.966   4.384 -1.0841  0.7158  0.7510
    1SOL    HW3 9927   2.618   3.964   4.289  0.1419  0.1252 -0.7979
    1SOL    MW4 9928   2.701   3.986   4.307 -0.1047  0.2925  0.1698
    1SOL     OW 9929   1.394   0.007   4.106 -0.0484  0.4220 -0.2782
    1SOL    HW2 9930   1.441  -0.039   4.176  0.1646 -0.1617 -0.8023
    1SOL    HW3 9931   1.303  -0.017   4.118  0.0365  0.0120 -0.4267
    1SOL    MW4 9932   1.388  -0.002   4.117 -0.0091  0.2913 -0.3667
    1SOL     OW 9933   1.303   0.253   4.057 -0.4825 -0.0260  0.0624
    1SOL    HW2 9934   1.297   0.296   4.143 -1.7891 -1.3445  0.6675
    1SOL    HW3 9935   1.330   0.164   4.078 -1.3606 -0.5123 -0.8498
    1SOL    MW4 9936   1.306   0.247   4.071 -0.7707 -0.2641  0.0215
    1SOL     OW 9937   1.565   3.422   4.494  0.2540 -0.1489 -0.2286
    1SOL    HW2 9938   1.651   3.389   4.521  0.7640  1.0447 -0.3943
    1SOL    HW3 9939   1.529   3.464   4.572 -0.8245 -1.9351  0.2648
    1SOL    MW4 9940   1.572   3.423   4.508  0.1789 -0.2270 -0.1855
    1SOL     OW 9941   2.343   2.007   4.655  0.0732 -0.0302 -0.8819
    1SOL    HW2 9942   2.269   2.050   4.698  0.7294 -0.3154  0.5649
    1SOL    HW3 9943   2.305   1.967   4.577 -0.9378  1.3870 -1.1385
    1SOL    MW4 9944   2.328   2.007   4.650  0.0265  0.1194 -0.7253
    1SOL     OW 9945   1.777   4.566   4.578  0.0701 -0.0490  0.2930
    1SOL    HW2 9946   1.756   4.641   4.634  0.1388  0.0809  0.1451
    1SOL    HW3 9947   1.799   4.605   4.493 -1.0224 -0.3058 -0.1143
    1SOL    MW4 9948   1.778   4.581   4.574 -0.0650 -0.0658  0.2193
    1SOL     OW 9949   0.952   3.196   4.260 -0.1888  0.2974 -0.4827
    1SOL    HW2 9950   0.929   3.164   4.347 -0.2953  1.0698 -0.2283
    1SOL    HW3 9951   0.880   3.166   4.204  0.2622 -0.8715 -0.4587
    1SOL    MW4 9952   0.939   3.188   4.264 -0.1433  0.2451 -0.4458
    1SOL     OW 9953   1.388   1.145   4.128  0.1542 -0.4855  0.1608
    1SOL    HW2 9954   1.484   1.142   4.128  0.2017  0.8598 -0.0070
    1SOL    HW3 9955   1.365   1.147   4.035 -0.0773 -1.6590  0.1847
    1SOL    MW4 9956   1.398   1.145   4.116  0.1299 -0.4630  0.1426
    1SOL     OW 9957   3.145   2.996   4.565  0.0599  0.4077 -0.4245
    1SOL    HW2 9958   3.165   3.090   4.560 -0.2813  0.4405 -1.2671
    1SOL    HW3 9959   3.087   2.980   4.491  0.6576 -0.6040 -0.6881
    1SOL    MW4 9960   3.140   3.006   4.554  0.0937  0.2785 -0.5698
    1SOL     OW 9961   3.422   4.314   4.581  0.2960  0.0290  0.0174
    1SOL    HW2 9962   3.327   4.318   4.589  0.0565  0.3562 -2.6479
    1SOL    HW3 9963   3.451   4.403   4.603 -0.1730  0.3916 -0.7935
    1SOL    MW4 9964   3.414   4.326   4.585  0.2027  0.1197 -0.4416
    1SOL     OW 9965   2.739   2.201   4.329 -0.3738 -0.5062  0.1103
    1SOL    HW2 9966   2.692   2.128   4.370  0.0781 -0.4529  0.7235
    1SOL    HW3 9967   2.670   2.255   4.290 -0.6824 -1.5180 -0.7890
    1SOL    MW4 9968   2.724   2.199   4.329 -0.3550 -0.6328  0.0730
    1SOL     OW 9969   1.176   0.156   4.474  0.3636  0.3014 -0.6086
    1SOL    HW2 9970   1.239   0.214   4.430  1.8189 -0.8330 -0.0730
    1SOL    HW3 9971   1.110   0.139   4.407  0.7714  1.2836 -1.2903
    1SOL    MW4 9972   1.176   0.162   4.459  0.6094  0.2813 -0.6280
    1SOL     OW 9973   2.075   0.653   4.467  0.4034  0.2335 -0.1136
    1SOL    HW2 9974   2.063   0.616   4.379  0.2873 -0.3572  0.1474
    1SOL    HW3 9975   2.125   0.734   4.453  0.4889  0.0777 -0.7094
    1SOL    MW4 9976   2.080   0.659   4.453  0.3998  0.1351 -0.1578
    1SOL     OW 9977   1.798   2.729   3.850  0.7847  0.5470 -0.3608
    1SOL    HW2 9978   1.714   2.765   3.820  0.0365 -0.7411  0.1563
    1SOL    HW3 9979   1.799   2.639   3.817  1.4074  0.1611  0.7055
    1SOL    MW4 9980   1.787   2.722   3.842  0.7681  0.3264 -0.1519
    1SOL     OW 9981   3.130   3.745   4.622  0.3692 -0.0626  0.1632
    1SOL    HW2 9982   3.064   3.761   4.689 -1.7439  0.7400 -2.0117
    1SOL    HW3 9983   3.161   3.832   4.598  0.3780 -0.2691 -0.5935
    1SOL    MW4 9984   3.125   3.759   4.627  0.0916  0.0160 -0.2236
    1SOL     OW 9985   1.149   2.044   4.177  0.0691  0.0068  0.0570
    1SOL    HW2 9986   1.214   1.980   4.150  0.0086  0.5501 -1.4339
    1SOL    HW3 9987   1.129   2.022   4.268  1.8165 -0.5932  0.3114
    1SOL    MW4 9988   1.155   2.033   4.185  0.2917 -0.0007 -0.1063
    1SOL     OW 9989   3.612   3.968   4.255 -0.0380  0.2588 -0.1946
    1SOL    HW2 9990   3.691   3.925   4.223 -0.3195 -0.3062 -0.1334
    1SOL    HW3 9991   3.542   3.903   4.244 -0.1617  0.0870  1.4144
    1SOL    MW4 9992   3.613   3.954   4.250 -0.0916  0.1619  0.0257
    1SOL     OW 9993   3.406   0.558   4.495  0.3361  0.5978 -0.2217
    1SOL    HW2 9994   3.411   0.646   4.532 -0.5015  0.9965 -1.0524
    1SOL    HW3 9995   3.314   0.533   4.505  0.1159  0.6681 -1.9203
    1SOL    MW4 9996   3.395   0.566   4.501  0.1969  0.6597 -0.5550
    1SOL     OW 9997   3.296   0.009   4.651  0.1399 -0.4871 -0.5270
    1SOL    HW2 9998   3.378  -0.012   4.607 -0.1678 -0.2776 -1.2020
    1SOL    HW3 9999   3.317   0.003   4.744  1.1513  0.4259 -0.6831
    1SOL    MW410000   3.309   0.006   4.657  0.2327 -0.3390 -0.6361
    1SOL     OW10001   1.806   0.128   4.297 -0.4134  0.4323 -0.1665
    1SOL    HW210002   1.870   0.078   4.246  0.6759  0.4180  1.1873
    1SOL    HW310003   1.724   0.080   4.285 -0.2522  0.6180 -2.1642
    1SOL    MW410004   1.804   0.115   4.288 -0.2484  0.4549 -0.2518
    1SOL     OW10005   0.653   3.882   4.180 -0.5038 -0.0579 -0.0817
    1SOL    HW210006   0.726   3.935   4.212 -1.4366 -0.1291  2.2493
    1SOL    HW310007   0.668   3.795   4.218 -1.7267 -0.0926  0.3599
    1SOL    MW410008   0.664   3.878   4.190 -0.7882 -0.0720  0.2842
    1SOL     OW10009   0.828   3.908   4.790  0.2375  0.1444 -0.5630
    1SOL    HW210010   0.861   3.819   4.776 -1.0719 -0.3499 -0.5878
    1SOL    HW310011   0.865   3.959   4.718  3.0361  0.1970  0.8190
    1SOL    MW410012   0.837   3.903   4.779  0.4340  0.0861 -0.3843
    1SOL     OW10013   1.572   0.474   4.269 -0.1805 -0.0081  0.0563
    1SOL    HW210014   1.615   0.478   4.354 -1.3921 -0.2334  0.6980
    1SOL    HW310015   1.578   0.562   4.234  1.7584 -0.2884 -0.3592
    1SOL    MW410016   1.579   0.486   4.275 -0.0845 -0.0748  0.0858
    1SOL     OW10017   1.874   0.265   4.528  0.6900 -0.0389 -0.2255
    1SOL    HW210018   1.822   0.344   4.509 -0.7101 -0.3572  2.1186
    1SOL    HW310019   1.875   0.217   4.446  0.5065  1.8278 -1.3543
    1SOL    MW410020   1.867   0.269   4.515  0.4811  0.1654 -0.0653
    1SOL     OW10021   1.998   0.005   4.162  0.4693 -0.1040 -0.1719
    1SOL    HW210022   2.074   0.040   4.209 -0.2585  0.8644  0.3063
    1SOL    HW310023   2.016   0.024   4.070  0.0958  1.5653  0.0789
    1SOL    MW410024   2.010   0.012   4.156  0.3242  0.2437 -0.0758
    1SOL     OW10025   2.028   0.536   4.211 -0.1366 -0.1987  0.8228
    1SOL    HW210026   2.099   0.475   4.192 -0.0533  0.4713 -1.1076
    1SOL    HW310027   1.948   0.492   4.181 -0.1158  0.4635 -0.2478
    1SOL    MW410028   2.027   0.522   4.204 -0.1228 -0.0229  0.4272
    1SOL     OW10029   1.584   4.592   4.287 -0.0403 -0.3622 -0.3290
    1SOL    HW210030   1.510   4.577   4.346  0.0402 -0.9206 -0.3639
    1SOL    HW310031   1.610   4.504   4.258  0.1894 -0.1223 -0.8632
    1SOL    MW410032   1.578   4.579   4.291  0.0006 -0.4044 -0.4044
    1SOL     OW10033   1.045   0.526   4.597  0.0520  0.1058 -0.2964
    1SOL    HW210034   1.040   0.437   4.632 -0.6716  0.5979  0.9029
    1SOL    HW310035   0.955   0.560   4.605  0.3587  1.0000 -0.5816
    1SOL    MW410036   1.032   0.519   4.603 -0.0030  0.2887 -0.1760
    1SOL     OW10037   3.809   0.736   4.157  0.0330 -0.1279 -0.4900
    1SOL    HW210038   3.741   0.796   4.187 -1.1937 -1.1711 -1.1198
    1SOL    HW310039   3.807   0.742   4.062  1.9185  1.0047 -0.4672
    1SOL    MW410040   3.799   0.745   4.149  0.1202 -0.1162 -0.5703
    1SOL     OW10041   3.572   4.618   4.537 -0.2376  0.1711  0.2115
    1SOL    HW210042   3.637   4.551   4.516 -0.0730 -0.0006  1.2331
    1SOL    HW310043   3.582   4.684   4.469  0.1506 -0.4583 -0.3437
    1SOL    MW410044   3.582   4.617   4.525 -0.1645  0.0658  0.2723
    1SOL     OW10045   1.739   1.191   4.778 -0.1881  0.1318 -0.1485
    1SOL    HW210046   1.816   1.184   4.722  1.1897 -0.1682  1.7460
    1SOL    HW310047   1.677   1.128   4.741  1.6968 -2.0367  0.2482
    1SOL    MW410048   1.741   1.182   4.765  0.2422 -0.1940  0.1540
    1SOL     OW10049   1.169   2.145   4.610  0.4381  0.1276 -0.0231
    1SOL    HW210050   1.258   2.123   4.639  0.8680  1.3387 -0.4010
    1SOL    HW310051   1.177   2.234   4.575 -0.9294  0.2462 -0.0358
    1SOL    MW410052   1.182   2.154   4.609  0.3144  0.3030 -0.0753
    1SOL     OW10053   1.713   1.338   4.273 -0.7818  0.6654 -0.6799
    1SOL    HW210054   1.792   1.351   4.325  0.5703 -0.4907 -2.3846
    1SOL    HW310055   1.643   1.324   4.337  0.7120 -0.0571  0.8199
    1SOL    MW410056   1.714   1.338   4.288 -0.4064  0.4175 -0.7071
    1SOL     OW10057   1.612   1.557   4.113  0.4886 -0.3586 -0.1531
    1SOL    HW210058   1.648   1.480   4.157  0.2189 -0.0807  0.5501
    1SOL    HW310059   1.666   1.630   4.143 -1.9812  0.4030  2.5896
    1SOL    MW410060   1.624   1.556   4.123  0.1272 -0.2215  0.3018
    1SOL     OW10061   1.149   1.500   4.129 -0.0753  0.3510  0.0074
    1SOL    HW210062   1.151   1.411   4.165 -0.0606 -0.3705 -1.6789
    1SOL    HW310063   1.070   1.539   4.165  0.5503  0.0642  1.7080
    1SOL    MW410064   1.139   1.493   4.138  0.0093  0.2180  0.0091
    1SOL     OW10065   0.376   2.321   4.443 -0.2588 -0.1191  0.5287
    1SOL    HW210066   0.345   2.232   4.425 -0.2835 -0.3582  1.7406
    1SOL    HW310067   0.470   2.311   4.459 -0.0603  0.2268 -0.3965
    1SOL    MW410068   0.384   2.308   4.443 -0.2359 -0.1049  0.5665
    1SOL     OW10069   3.572   2.683   4.198  0.4805 -0.0993  0.0222
    1SOL    HW210070   3.578   2.698   4.104  1.5855  0.4967  0.1752
    1SOL    HW310071   3.486   2.718   4.222  1.0238  1.6232 -0.4465
    1SOL    MW410072   3.561   2.690   4.189  0.6981  0.2067 -0.0196
    1SOL     OW10073   3.471   1.812   4.553  0.2494  0.6904  0.2664
    1SOL    HW210074   3.465   1.906   4.537  0.1340  0.5407 -0.6163
    1SOL    HW310075   3.380   1.784   4.562  0.2452  0.5532 -0.1746
    1SOL    MW410076   3.458   1.821   4.552  0.2337  0.6524  0.0920
    1SOL     OW10077   2.215   2.719   4.155  0.2926  0.7832  0.1117
    1SOL    HW210078   2.211   2.713   4.059  2.3105 -0.1042  0.0540
    1SOL    HW310079   2.207   2.628   4.185 -1.3117  1.1586  0.8368
    1SOL    MW410080   2.214   2.706   4.146  0.3469  0.7155  0.2003
    1SOL     OW10081   2.127   1.448   4.307 -0.4603 -0.3880  0.1767
    1SOL    HW210082   2.110   1.497   4.227  0.6256 -1.6327 -0.8425
    1SOL    HW310083   2.173   1.509   4.364 -1.5788  0.6238  0.0220
    1SOL    MW410084   2.131   1.462   4.304 -0.4647 -0.4187  0.0219
    1SOL     OW10085   2.761   1.850   4.158  0.3661 -0.4426  0.3511
    1SOL    HW210086   2.704   1.896   4.219  2.1966 -0.5008  2.1584
    1SOL    HW310087   2.721   1.764   4.147 -0.5830 -0.0330  0.5746
    1SOL    MW410088   2.748   1.845   4.165  0.4823 -0.3965  0.6194
    1SOL     OW10089   1.358   2.678   4.149 -0.5048 -0.1272 -0.4331
    1SOL    HW210090   1.288   2.728   4.192 -0.8733  0.4967 -1.7489
    1SOL    HW310091   1.439   2.721   4.178 -0.7556  0.3648 -0.4519
    1SOL    MW410092   1.360   2.690   4.159 -0.5865  0.0200 -0.6089
    1SOL     OW10093   2.005   3.590   4.294  0.1824  0.4246 -0.0934
    1SOL    HW210094   1.930   3.563   4.240  0.5192 -1.8011  0.4837
    1SOL    HW310095   2.028   3.676   4.261 -3.6599  1.9271  0.8008
    1SOL    MW410096   1.998   3.598   4.282 -0.2804  0.3295  0.0997
    1SOL     OW10097   1.320   1.781   4.466 -0.0386  0.3351 -0.1822
    1SOL    HW210098   1.342   1.725   4.391 -1.4114 -0.1914 -0.2094
    1SOL    HW310099   1.311   1.720   4.539  0.5357  0.7653  0.2507
    1SOL    MW410100   1.322   1.766   4.465 -0.1439  0.3225 -0.1287
    1SOL     OW10101   2.066   3.836   4.202 -0.2944 -0.4697  0.0068
    1SOL    HW210102   2.052   3.863   4.111  0.7776 -0.0748 -0.0426
    1SOL    HW310103   2.001   3.887   4.251 -0.5330 -0.3057 -0.4700
    1SOL    MW410104   2.055   3.847   4.196 -0.1845 -0.3960 -0.0629
    1SOL     OW10105   1.358   4.227   4.168 -0.1585 -0.3377  0.0790
    1SOL    HW210106   1.350   4.226   4.073 -2.2098  0.5248  0.2337
    1SOL    HW310107   1.347   4.135   4.194 -0.7851 -0.4052 -0.4211
    1SOL    MW410108   1.356   4.215   4.159 -0.5116 -0.2327  0.0329
    1SOL     OW10109   1.543   3.840   4.201  0.4153 -0.3161  0.1568
    1SOL    HW210110   1.614   3.853   4.264  1.4093 -0.4020 -0.9234
    1SOL    HW310111   1.525   3.746   4.205  1.7916 -0.6453 -1.0574
    1SOL    MW410112   1.550   3.829   4.210  0.7280 -0.3712 -0.1454
    1SOL     OW10113   2.464   2.827   4.242  0.4504 -0.3023  0.7822
    1SOL    HW210114   2.446   2.921   4.246 -0.4270 -0.4318  0.0472
    1SOL    HW310115   2.382   2.788   4.212  1.4930 -1.0778 -1.1413
    1SOL    MW410116   2.451   2.834   4.239  0.4723 -0.4218  0.4320
    1SOL     OW10117   2.433   4.638   4.101  0.1145 -0.1726 -0.2994
    1SOL    HW210118   2.512   4.674   4.143 -0.5174  0.1824  0.6137
    1SOL    HW310119   2.429   4.548   4.133  0.1695 -0.2024 -0.3767
    1SOL    MW410120   2.443   4.631   4.111  0.0386 -0.1297 -0.1898
    1SOL     OW10121   4.082   1.901   4.337  0.0571  0.3402  0.5153
    1SOL    HW210122   4.072   1.811   4.305  1.1004  0.5726 -0.5331
    1SOL    HW310123   4.061   1.897   4.430 -0.1485 -0.9421  0.4150
    1SOL    MW410124   4.078   1.889   4.345  0.1674  0.2017  0.3633
    1SOL     OW10125   1.437   4.620   4.716  0.2174  0.1386 -0.4784
    1SOL    HW210126   1.358   4.652   4.758 -0.2418 -0.2427 -1.0546
    1SOL    HW310127   1.504   4.684   4.740 -0.3477  0.6711 -0.3088
    1SOL    MW410128   1.436   4.633   4.724  0.0821  0.1588 -0.5322
    1SOL     OW10129   2.520   0.744   4.151  0.0560 -0.3478 -0.5854
    1SOL    HW210130   2.491   0.726   4.062  0.3582  0.0774 -0.7745
    1SOL    HW310131   2.602   0.792   4.140 -0.1763  0.1705 -0.0893
    1SOL    MW410132   2.527   0.748   4.138  0.0651 -0.2234 -0.5450
    1SOL     OW10133   3.588   2.887   4.583  0.4198  0.1257 -0.8272
    1SOL    HW210134   3.626   2.856   4.501 -0.8036  0.4461 -1.5380
    1SOL    HW310135   3.607   2.981   4.585 -1.1962  0.4999 -1.7060
    1SOL    MW410136   3.595   2.895   4.572  0.0448  0.2174 -1.0366
    1SOL     OW10137   2.032   0.793   4.099  0.1754  0.0672  0.0192
    1SOL    HW210138   2.112   0.841   4.122  0.0431 -0.4751  1.7607
    1SOL    HW310139   2.047   0.705   4.134 -0.8572 -0.2704 -0.3639
    1SOL    MW410140   2.045   0.788   4.107  0.0219 -0.0488  0.1984
    1SOL     OW10141   0.443   2.399   4.175 -0.3149  0.5164  0.4357
    1SOL    HW210142   0.436   2.393   4.270  0.9532  1.7499  0.6269
    1SOL    HW310143   0.458   2.492   4.158 -0.2481  0.2648 -0.9573
    1SOL    MW410144   0.444   2.411   4.185 -0.1388  0.6459  0.2766
    1SOL     OW10145   0.274   1.293   4.214 -0.3762  0.2340 -0.2905
    1SOL    HW210146   0.266   1.373   4.161 -0.3135  0.4446  0.0125
    1SOL    HW310147   0.360   1.257   4.192 -0.2088  0.5027 -0.0876
    1SOL    MW410148   0.284   1.299   4.204 -0.3458  0.2974 -0.2236
    1SOL     OW10149   2.707   1.134   4.108 -0.2378  0.4019  0.3269
    1SOL    HW210150   2.710   1.039   4.109 -0.2458  0.3769 -0.8393
    1SOL    HW310151   2.717   1.157   4.016  2.5505  1.6215  0.8969
    1SOL    MW410152   2.709   1.125   4.096  0.1292  0.5594  0.2484
    1SOL     OW10153   3.140   2.657   4.096  0.0123 -0.6516 -0.6212
    1SOL    HW210154   3.058   2.680   4.139 -0.0209 -1.1258 -0.4258
    1SOL    HW310155   3.162   2.570   4.130  2.1471  0.6791  1.6303
    1SOL    MW410156   3.132   2.649   4.106  0.2897 -0.5386 -0.2985
    1SOL     OW10157   0.444   4.256   4.201 -0.2727 -0.0019  0.4141
    1SOL    HW210158   0.435   4.254   4.106 -0.5593  3.7520  0.3254
    1SOL    HW310159   0.356   4.277   4.233 -0.3690 -2.0461  1.6119
    1SOL    MW410160   0.431   4.258   4.193 -0.3232  0.2236  0.5603
    1SOL     OW10161   1.095   1.960   4.429 -0.1400  0.2127  0.0875
    1SOL    HW210162   1.169   1.902   4.448  0.6188  0.8581 -0.8284
    1SOL    HW310163   1.108   2.036   4.485 -0.6269 -0.0860  0.6095
    1SOL    MW410164   1.106   1.962   4.439 -0.1041  0.2583  0.0358
    1SOL     OW10165   2.692   1.528   4.534 -0.1280 -0.1507  0.0962
    1SOL    HW210166   2.741   1.608   4.552 -0.4329  0.0087  0.2167
    1SOL    HW310167   2.759   1.460   4.527  0.0470 -0.1107  1.2267
    1SOL    MW410168   2.708   1.530   4.536 -0.1450 -0.1243  0.2613
    1SOL     OW10169   2.895   1.114   4.669 -0.1130 -0.4781  0.1345
    1SOL    HW210170   2.965   1.086   4.610  0.2828  2.2829 -0.7791
    1SOL    HW310171   2.816   1.074   4.633  0.3278  0.0910 -1.5041
    1SOL    MW410172   2.894   1.105   4.657 -0.0026 -0.0387 -0.2017
    1SOL     OW10173   2.546   2.424   4.803 -0.2990  0.9247 -0.2352
    1SOL    HW210174   2.609   2.354   4.786 -1.3274 -0.3453  1.0116
    1SOL    HW310175   2.598   2.505   4.799  0.9690  0.0815 -1.3501
    1SOL    MW410176   2.561   2.426   4.800 -0.2675  0.6459 -0.2179
    1SOL     OW10177   4.487   2.436   4.236 -0.0903  0.2119 -0.3117
    1SOL    HW210178   4.520   2.467   4.321 -0.2076  1.2136 -0.6278
    1SOL    HW310179   4.564   2.398   4.193  0.4832  1.7622 -0.6872
    1SOL    MW410180   4.502   2.435   4.242 -0.0301  0.5488 -0.4029
    1SOL     OW10181   4.042   3.165   4.245 -0.2273 -0.0846  0.0478
    1SOL    HW210182   4.122   3.121   4.217  0.7496  1.4753  0.2961
    1SOL    HW310183   4.047   3.252   4.204 -1.7640  0.0498  0.1097
    1SOL    MW410184   4.053   3.171   4.236 -0.3014  0.1390  0.0887
    1SOL     OW10185   1.825   2.722   4.122 -0.3506 -0.1544  0.1420
    1SOL    HW210186   1.871   2.640   4.139 -0.0601  0.0996  0.5988
    1SOL    HW310187   1.815   2.724   4.027  0.2216 -0.4125  0.0685
    1SOL    MW410188   1.830   2.712   4.112 -0.2366 -0.1550  0.1922
    1SOL     OW10189   0.669   2.735   4.431  0.1805 -0.1122 -0.1185
    1SOL    HW210190   0.682   2.780   4.348 -1.6272 -0.0342 -0.3648
    1SOL    HW310191   0.695   2.645   4.414  1.1818  0.2146 -0.3640
    1SOL    MW410192   0.674   2.729   4.418  0.0741 -0.0591 -0.1831
    1SOL     OW10193   4.308   3.797   4.673  0.5807 -0.1207 -0.6324
    1SOL    HW210194   4.304   3.883   4.631 -0.4709 -0.1892 -0.6883
    1SOL    HW310195   4.217   3.772   4.685  0.8781 -0.9915 -0.1174
    1SOL    MW410196   4.296   3.805   4.669  0.4816 -0.2446 -0.5717
    1SOL     OW10197   2.475   3.091   4.546  0.3091  0.1178 -0.4112
    1SOL    HW210198   2.432   3.012   4.579  0.8309 -0.0900 -0.2153
    1SOL    HW310199   2.408   3.135   4.494 -0.1228 -0.2238 -0.1472
    1SOL    MW410200   2.461   3.086   4.543  0.3211  0.0453 -0.3500
    1SOL     OW10201   2.252   4.010   4.263  0.0174 -0.0262  0.1066
    1SOL    HW210202   2.333   3.962   4.247  0.4345  0.3745  1.0081
    1SOL    HW310203   2.183   3.950   4.234  0.4468 -1.6708  2.3459
    1SOL    MW410204   2.254   3.996   4.257  0.1292 -0.1903  0.5207
    1SOL     OW10205   2.483   4.377   4.340 -0.5423  0.5609 -0.0621
    1SOL    HW210206   2.495   4.325   4.419  1.0301  0.8913 -0.0676
    1SOL    HW310207   2.464   4.466   4.371  1.4834  1.0045 -0.0300
    1SOL    MW410208   2.482   4.382   4.354 -0.0677  0.6633 -0.0591
    1SOL     OW10209   2.473   0.789   4.441  0.4424  0.5718 -0.2187
    1SOL    HW210210   2.516   0.720   4.492 -0.0106  0.5789  0.1778
    1SOL    HW310211   2.496   0.771   4.350  2.9849  1.7539  0.1508
    1SOL    MW410212   2.482   0.778   4.436  0.7181  0.7287 -0.1178
    1SOL     OW10213   2.685   0.058   4.202 -0.4349 -0.2173  0.0971
    1SOL    HW210214   2.693   0.154   4.201  1.5022 -0.3518 -0.4922
    1SOL    HW310215   2.775   0.027   4.188 -0.9189 -2.1249  1.0351
    1SOL    MW410216   2.698   0.067   4.200 -0.2432 -0.4867  0.1435
    1SOL     OW10217   2.894   3.355   4.560  0.0372  0.4248 -0.1867
    1SOL    HW210218   2.801   3.373   4.550 -0.3729  0.0939  2.5274
    1SOL    HW310219   2.898   3.275   4.612  1.8361  0.8317  0.3619
    1SOL    MW410220   2.882   3.347   4.566  0.2203  0.4351  0.2437
    1SOL     OW10221   2.721   0.319   4.158 -0.7023 -0.4720 -0.5424
    1SOL    HW210222   2.645   0.370   4.185 -0.0481  0.0644  0.2855
    1SOL    HW310223   2.725   0.331   4.063  0.0849  1.8826 -0.2184
    1SOL    MW410224   2.711   0.327   4.149 -0.5119 -0.0906 -0.3910
    1SOL     OW10225   0.670   4.359   4.325 -0.1265 -0.0550  0.0857
    1SOL    HW210226   0.586   4.338   4.285  0.0803 -1.5493  0.4078
    1SOL    HW310227   0.663   4.326   4.415  1.2364 -1.3344 -0.2452
    1SOL    MW410228   0.658   4.352   4.332  0.0806 -0.4215  0.0839
    1SOL     OW10229   3.029   0.703   4.093 -0.4116 -0.2451  0.1339
    1SOL    HW210230   2.986   0.633   4.141 -1.6093  1.2450  1.2909
    1SOL    HW310231   2.977   0.714   4.014 -0.5240 -0.3261  0.1974
    1SOL    MW410232   3.017   0.695   4.089 -0.5846 -0.0592  0.2947
    1SOL     OW10233   2.454   2.648   4.488  0.3467 -0.0078  0.2122
    1SOL    HW210234   2.464   2.700   4.408  1.1448  0.6823  0.7436
    1SOL    HW310235   2.417   2.565   4.459 -0.1602  0.5516 -0.7610
    1SOL    MW410236   2.451   2.644   4.474  0.3848  0.1571  0.1545
    1SOL     OW10237   2.449   4.226   4.581 -0.1451  0.1635 -0.3359
    1SOL    HW210238   2.406   4.293   4.634  1.1779  0.2078  0.7041
    1SOL    HW310239   2.386   4.155   4.575 -1.0155  0.9286 -0.2623
    1SOL    MW410240   2.435   4.225   4.587 -0.0854  0.2699 -0.1893
    1SOL     OW10241   2.440   3.510   4.577  0.4042  0.1316 -0.3261
    1SOL    HW210242   2.506   3.443   4.562 -0.3985 -0.9469  0.7576
    1SOL    HW310243   2.382   3.472   4.644 -0.3046  1.7415  0.0169
    1SOL    MW410244   2.441   3.496   4.584  0.2048  0.2017 -0.1378
    1SOL     OW10245   3.135   1.488   4.475  0.1865 -0.1692  0.4188
    1SOL    HW210246   3.056   1.447   4.510  0.3614 -0.3033  0.6603
    1SOL    HW310247   3.205   1.426   4.496  0.2025 -0.5508 -0.7178
    1SOL    MW410248   3.134   1.474   4.482  0.2117 -0.2375  0.3009
    1SOL     OW10249   0.142   3.539   4.544  0.0373 -0.2226 -0.2657
    1SOL    HW210250   0.183   3.551   4.458 -0.3770  1.4617 -0.2404
    1SOL    HW310251   0.190   3.598   4.602 -0.7818 -0.1079  0.3062
    1SOL    MW410252   0.154   3.548   4.540 -0.1255  0.0148 -0.1869
    1SOL     OW10253   3.647   3.189   4.523  0.1338 -0.2163  0.1971
    1SOL    HW210254   3.625   3.163   4.434 -0.0309  0.9463 -0.1185
    1SOL    HW310255   3.741   3.203   4.522  0.1922 -0.6128  0.3113
    1SOL    MW410256   3.656   3.188   4.511  0.1197 -0.1152  0.1702
    1SOL     OW10257   2.846   2.091   3.761 -0.0732 -0.0094  0.0728
    1SOL    HW210258   2.780   2.035   3.802 -0.3530  0.3455  0.1052
    1SOL    HW310259   2.851   2.167   3.819 -0.3022  0.3858 -0.4338
    1SOL    MW410260   2.838   2.094   3.774 -0.1407  0.0899  0.0103
    1SOL     OW10261   0.716   4.192   4.868  0.4840  0.3735 -0.1689
    1SOL    HW210262   0.759   4.109   4.849  0.4774  0.1285  0.8270
    1SOL    HW310263   0.715   4.197   4.964 -0.1132  1.2049 -0.2088
    1SOL    MW410264   0.721   4.182   4.878  0.4044  0.4506 -0.0424
    1SOL     OW10265   2.615   0.602   4.568  0.0169  0.5046  0.0527
    1SOL    HW210266   2.619   0.599   4.663 -0.7602  1.2155  0.1177
    1SOL    HW310267   2.577   0.517   4.544  0.8341  0.0572  0.3302
    1SOL    MW410268   2.610   0.590   4.577  0.0222  0.5394  0.0973
    1SOL     OW10269   4.435   2.792   4.604  0.0925  0.2609 -0.1869
    1SOL    HW210270   4.468   2.720   4.658  0.1483  0.9576  0.7303
    1SOL    HW310271   4.346   2.765   4.580  0.3134 -0.3607 -0.3042
    1SOL    MW410272   4.427   2.779   4.608  0.1292  0.2708 -0.0815
    1SOL     OW10273   2.571   1.854   4.747  0.2773  0.6149 -0.3222
    1SOL    HW210274   2.508   1.926   4.743 -0.5904 -0.0623  0.9968
    1SOL    HW310275   2.633   1.880   4.815  1.2636  1.1222 -1.3821
    1SOL    MW410276   2.571   1.867   4.755  0.2930  0.5924 -0.2875
    1SOL     OW10277   0.342   3.184   4.482  0.1559 -0.2683 -0.6937
    1SOL    HW210278   0.392   3.236   4.545 -0.0042 -1.7675  0.7471
    1SOL    HW310279   0.361   3.093   4.507 -3.5614 -0.8856  0.1627
    1SOL    MW410280   0.351   3.179   4.494 -0.3557 -0.5479 -0.3905
    1SOL     OW10281   2.720   2.903   4.558  0.5094 -0.2846 -0.6959
    1SOL    HW210282   2.718   2.816   4.599  0.5948 -1.1819 -2.5222
    1SOL    HW310283   2.635   2.941   4.579  0.0904 -1.2001 -0.6707
    1SOL    MW410284   2.708   2.896   4.566  0.4654 -0.5236 -0.9336
    1SOL     OW10285   2.907   3.585   4.247  0.5263  0.0930  0.1690
    1SOL    HW210286   2.896   3.591   4.342  0.3045  0.6947  0.1062
    1SOL    HW310287   2.907   3.676   4.217 -0.7874 -0.1274 -0.5629
    1SOL    MW410288   2.905   3.598   4.255  0.3238  0.1433  0.0644
    1SOL     OW10289   2.665   3.236   4.229  0.1908  0.1015  0.4705
    1SOL    HW210290   2.666   3.329   4.207 -0.3949  0.3115  1.3058
    1SOL    HW310291   2.753   3.205   4.210 -0.2314  0.3148 -1.9636
    1SOL    MW410292   2.677   3.244   4.224  0.0579  0.1574  0.2589
    1SOL     OW10293   2.914   3.855   4.160 -0.1583  0.0157 -0.0659
    1SOL    HW210294   2.834   3.894   4.195 -0.5152  0.3765 -1.2667
    1SOL    HW310295   2.985   3.895   4.211 -0.7151 -0.1797  0.8857
    1SOL    MW410296   2.913   3.865   4.172 -0.2792  0.0377 -0.0992
    1SOL     OW10297   2.705   4.259   4.204  0.2090 -0.1183 -0.0397
    1SOL    HW210298   2.637   4.303   4.255  2.0627  0.3517  2.1022
    1SOL    HW310299   2.695   4.167   4.226  0.1192 -0.0744  0.1072
    1SOL    MW410300   2.695   4.253   4.214  0.4416 -0.0505  0.2623
    1SOL     OW10301   2.468   3.848   4.207 -0.3312 -0.3627  0.0047
    1SOL    HW210302   2.473   3.833   4.113  0.3144 -1.0321  0.1369
    1SOL    HW310303   2.468   3.760   4.245  0.0373 -0.0818  0.6605
    1SOL    MW410304   2.468   3.834   4.200 -0.1974 -0.4141  0.1087
    1SOL     OW10305   2.947   4.369   4.248  0.1511 -0.1732  0.4899
    1SOL    HW210306   2.859   4.343   4.220 -0.3745  0.9187  1.1020
    1SOL    HW310307   3.003   4.297   4.219 -0.6789 -0.0699 -1.4966
    1SOL    MW410308   2.943   4.356   4.240 -0.0277 -0.0157  0.3085
    1SOL     OW10309   3.379   4.594   4.203  0.1606  0.5049 -0.0560
    1SOL    HW210310   3.447   4.643   4.250 -0.3301  0.2135  0.9851
    1SOL    HW310311   3.297   4.632   4.232 -0.1921 -0.3814  0.1431
    1SOL    MW410312   3.377   4.605   4.213  0.0491  0.3490  0.1073
    1SOL     OW10313   1.369   1.635   4.223 -0.2567 -0.0802  0.0566
    1SOL    HW210314   1.297   1.574   4.208 -0.0257 -0.0311 -1.3474
    1SOL    HW310315   1.443   1.596   4.175 -0.2564  1.5695 -1.3214
    1SOL    MW410316   1.369   1.622   4.215 -0.2260  0.1440 -0.3109
    1SOL     OW10317   2.943   0.491   4.242 -0.2903  0.0470 -0.2351
    1SOL    HW210318   2.860   0.447   4.223 -0.8688  1.1098 -0.2018
    1SOL    HW310319   2.922   0.548   4.316  0.3623  0.6587 -0.5272
    1SOL    MW410320   2.929   0.493   4.250 -0.2804  0.2679 -0.2694
    1SOL     OW10321   3.388   0.524   4.215  0.0105 -0.2271  0.2912
    1SOL    HW210322   3.380   0.554   4.306  1.9771  2.4329 -0.3470
    1SOL    HW310323   3.462   0.463   4.216 -0.4459 -0.7816  0.5922
    1SOL    MW410324   3.397   0.520   4.227  0.2098  0.0507  0.2470
    1SOL     OW10325   2.301   0.198   4.520  0.2433  0.1225 -0.1281
    1SOL    HW210326   2.378   0.250   4.499 -0.3772  0.4129 -1.7499
    1SOL    HW310327   2.237   0.261   4.553 -0.0734  0.2202 -0.9133
    1SOL    MW410328   2.303   0.213   4.522  0.1197  0.1737 -0.4458
    1SOL     OW10329   4.000   4.328   4.681  0.0828  0.3099 -0.3001
    1SOL    HW210330   4.030   4.392   4.746 -0.4934 -0.6465  0.9369
    1SOL    HW310331   4.076   4.312   4.626  0.1679  2.2189 -0.7567
    1SOL    MW410332   4.014   4.334   4.683  0.0176  0.4358 -0.1969
    1SOL     OW10333   3.199   0.860   4.229 -0.1090 -0.4227  0.0054
    1SOL    HW210334   3.134   0.812   4.178 -0.1346  1.7459 -2.1167
    1SOL    HW310335   3.184   0.952   4.206  1.6090  0.3925  1.9658
    1SOL    MW410336   3.188   0.866   4.219  0.1144 -0.0290 -0.0157
    1SOL     OW10337   1.653   0.161   4.698 -0.2461  0.1544  0.4370
    1SOL    HW210338   1.599   0.238   4.715 -1.6697 -0.6955 -0.1391
    1SOL    HW310339   1.726   0.194   4.645  0.4812  1.5369  2.2278
    1SOL    MW410340   1.656   0.176   4.693 -0.3380  0.2247  0.5975
    1SOL     OW10341   2.944   2.924   4.393 -0.3581  0.0793 -0.0610
    1SOL    HW210342   2.866   2.913   4.447 -0.7373  0.3071 -0.5573
    1SOL    HW310343   2.915   2.979   4.320  0.5148  1.0088  0.2838
    1SOL    MW410344   2.930   2.930   4.390 -0.2928  0.2320 -0.0806
    1SOL     OW10345   2.691   1.588   4.244 -0.5346 -0.1524 -0.1983
    1SOL    HW210346   2.693   1.580   4.340 -0.7018  1.5200 -0.0349
    1SOL    HW310347   2.612   1.639   4.226 -0.7925 -0.9256 -1.2671
    1SOL    MW410348   2.681   1.594   4.255 -0.5906 -0.0339 -0.3181
    1SOL     OW10349   2.736   0.153   4.462  0.0681 -0.0881  0.4269
    1SOL    HW210350   2.757   0.080   4.520  0.7412 -0.9061 -0.8304
    1SOL    HW310351   2.714   0.113   4.378  2.5940  1.2081 -0.9263
    1SOL    MW410352   2.736   0.138   4.459  0.4902 -0.0250  0.0825
    1SOL     OW10353   2.334   2.284   4.043 -0.1861  0.0857 -0.0868
    1SOL    HW210354   2.345   2.204   4.093 -1.4958  0.1300  0.2674
    1SOL    HW310355   2.300   2.348   4.106  0.1810  0.7344 -0.5325
    1SOL    MW410356   2.331   2.282   4.058 -0.3104  0.1769 -0.0987
    1SOL     OW10357   3.866   0.745   4.575  0.1876 -0.1206  0.1940
    1SOL    HW210358   3.946   0.797   4.576 -0.2595  0.6727 -2.6190
    1SOL    HW310359   3.795   0.808   4.573 -0.4273 -0.8313 -0.7912
    1SOL    MW410360   3.867   0.760   4.575  0.0474 -0.1097 -0.3076
    1SOL     OW10361   2.789   1.992   4.853 -0.6030  0.5461  0.1156
    1SOL    HW210362   2.788   2.066   4.793 -0.3570  1.4945  1.2457
    1SOL    HW310363   2.790   2.033   4.940 -0.4674 -0.7895  0.7461
    1SOL    MW410364   2.789   2.007   4.857 -0.5529  0.4952  0.3476
    1SOL     OW10365   3.452   2.330   4.153  0.5145 -0.3303 -0.0528
    1SOL    HW210366   3.375   2.368   4.193 -0.1700 -1.3445 -0.3750
    1SOL    HW310367   3.430   2.321   4.060  1.6100  0.8285 -0.4390
    1SOL    MW410368   3.439   2.334   4.146  0.5689 -0.3114 -0.1464
    1SOL     OW10369   2.262   4.287   4.200 -0.1029 -0.0565 -0.2171
    1SOL    HW210370   2.265   4.193   4.213 -1.7468 -0.1460 -0.4393
    1SOL    HW310371   2.328   4.322   4.260  1.2093 -1.4125 -0.8486
    1SOL    MW410372   2.271   4.279   4.209 -0.1469 -0.2470 -0.3295
    1SOL     OW10373   3.343   3.046   4.132  0.1282  0.4552  0.3337
    1SOL    HW210374   3.279   3.110   4.163 -1.0744  0.4095 -1.9217
    1SOL    HW310375   3.325   2.967   4.182 -1.7284  0.3964 -0.3853
    1SOL    MW410376   3.332   3.044   4.142 -0.2756  0.4416 -0.0587
    1SOL     OW10377   2.423   3.105   4.203  0.1840 -0.1248 -0.5171
    1SOL    HW210378   2.512   3.138   4.214  0.5763 -1.3678  0.1226
    1SOL    HW310379   2.370   3.159   4.262  0.8507 -0.7615  0.6829
    1SOL    MW410380   2.427   3.117   4.213  0.3235 -0.3729 -0.2742
    1SOL     OW10381   3.389   3.551   4.263 -0.0355  0.1129 -0.1904
    1SOL    HW210382   3.309   3.517   4.223 -0.8995  0.6495  1.0622
    1SOL    HW310383   3.371   3.552   4.357  1.9789 -1.1627  0.2420
    1SOL    MW410384   3.376   3.547   4.270  0.1163  0.0155  0.0319
    1SOL     OW10385   3.628   3.417   4.175 -0.4056 -0.3561 -0.0595
    1SOL    HW210386   3.605   3.324   4.182 -2.2291  0.0752 -0.0365
    1SOL    HW310387   3.554   3.463   4.214  0.0724  1.1460 -0.8754
    1SOL    MW410388   3.615   3.411   4.181 -0.5832 -0.1011 -0.1636
    1SOL     OW10389   3.413   3.806   4.161 -0.0291 -0.2887  0.2537
    1SOL    HW210390   3.411   3.713   4.182  1.2651 -0.2609  0.5401
    1SOL    HW310391   3.401   3.809   4.066 -0.4310 -0.7158  0.2863
    1SOL    MW410392   3.411   3.794   4.151  0.0887 -0.3414  0.2961
    1SOL     OW10393   4.485   2.693   4.118  0.0403  0.5021 -0.2683
    1SOL    HW210394   4.408   2.741   4.149 -0.4161  0.1858 -0.9002
    1SOL    HW310395   4.477   2.607   4.160  0.9746  1.0364  1.0375
    1SOL    MW410396   4.473   2.688   4.128  0.1040  0.5307 -0.1793
    1SOL     OW10397   0.015   0.884   4.190 -0.1572 -0.1730 -0.0257
    1SOL    HW210398   0.036   0.908   4.280 -0.1892 -0.3863  0.0404
    1SOL    HW310399   0.032   0.963   4.140 -0.5129  0.0635  0.2247
    1SOL    MW410400   0.020   0.898   4.196 -0.2084 -0.1699  0.0167
    1SOL     OW10401   3.580   4.217   4.154 -0.3114 -0.1247  0.2634
    1SOL    HW210402   3.501   4.251   4.196 -1.3041 -0.6352 -1.1855
    1SOL    HW310403   3.594   4.131   4.196 -0.1106  0.2667  1.0146
    1SOL    MW410404   3.572   4.210   4.165 -0.4158 -0.1407  0.1712
    1SOL     OW10405   3.814   4.621   4.178 -0.3156 -0.2970 -0.1819
    1SOL    HW210406   3.828   4.527   4.188 -1.1665 -0.4294 -0.1843
    1SOL    HW310407   3.814   4.636   4.083  3.5832  0.3087 -0.1771
    1SOL    MW410408   3.816   4.611   4.167  0.0863 -0.2346 -0.1817
    1SOL     OW10409   2.370   2.082   4.288  0.0829  0.0614 -0.3277
    1SOL    HW210410   2.450   2.081   4.340  0.6897  0.3762 -1.2489
    1SOL    HW310411   2.315   2.148   4.331  0.7165  0.5640 -0.2832
    1SOL    MW410412   2.373   2.091   4.301  0.2465  0.1690 -0.4435
    1SOL     OW10413   3.616   0.354   4.218  0.2102  0.0995  0.1902
    1SOL    HW210414   3.696   0.399   4.243  0.4667 -0.8193  1.0711
    1SOL    HW310415   3.616   0.356   4.122  1.0221  0.5493  0.1986
    1SOL    MW410416   3.626   0.360   4.208  0.3512  0.0376  0.3071
    1SOL     OW10417   4.101   0.357   4.173  0.0522  0.0232 -0.3642
    1SOL    HW210418   4.096   0.263   4.190 -2.9145 -0.1183 -1.7071
    1SOL    HW310419   4.024   0.393   4.218  0.3937  1.6164 -1.0195
    1SOL    MW410420   4.090   0.350   4.181 -0.2947  0.2147 -0.6280
    1SOL     OW10421   1.186   0.043   4.827  0.1694 -0.1852 -0.2145
    1SOL    HW210422   1.151   0.130   4.806 -0.5701 -0.7848 -1.4897
    1SOL    HW310423   1.131  -0.018   4.779 -0.7742 -1.5498  2.4558
    1SOL    MW410424   1.175   0.047   4.818 -0.0527 -0.4444 -0.0305
    1SOL     OW10425   2.430   4.603   4.499 -0.1259  0.4346  0.0885
    1SOL    HW210426   2.399   4.692   4.513 -0.2263  0.1896  1.4976
    1SOL    HW310427   2.379   4.550   4.560 -0.6018 -0.6971 -1.2842
    1SOL    MW410428   2.419   4.608   4.509 -0.2022  0.2532  0.0935
    1SOL     OW10429   2.062   2.130   4.131 -0.2702  0.1853  0.1395
    1SOL    HW210430   2.069   2.192   4.058 -0.8537  0.2740  0.1578
    1SOL    HW310431   2.101   2.177   4.205  0.6258 -0.0297 -0.1861
    1SOL    MW410432   2.068   2.145   4.131 -0.2291  0.1686  0.0992
    1SOL     OW10433   4.441   2.524   4.696 -0.6660  0.4075  0.1990
    1SOL    HW210434   4.362   2.489   4.655 -0.5681 -0.4868  0.7599
    1SOL    HW310435   4.510   2.509   4.631 -0.4834 -1.1448  0.7398
    1SOL    MW410436   4.439   2.518   4.682 -0.6294  0.0849  0.3443
    1SOL     OW10437   4.101   2.329   4.156  0.1256  0.1352  0.1054
    1SOL    HW210438   4.177   2.322   4.214 -0.2237 -1.2787  0.4115
    1SOL    HW310439   4.073   2.239   4.142 -0.9561  0.5885 -0.7336
    1SOL    MW410440   4.107   2.316   4.162 -0.0629  0.0088  0.0348
    1SOL     OW10441   3.376   1.549   4.167 -0.0579 -0.5287  0.2798
    1SOL    HW210442   3.289   1.586   4.185  0.0673 -0.6106  1.0605
    1SOL    HW310443   3.388   1.563   4.073 -1.6446 -2.0571 -0.1918
    1SOL    MW410444   3.366   1.556   4.157 -0.2506 -0.7411  0.3204
    1SOL     OW10445   3.594   1.946   4.126  0.1390 -0.3979  0.0826
    1SOL    HW210446   3.608   1.867   4.180 -0.8378  0.7035  1.9928
    1SOL    HW310447   3.511   1.981   4.156  0.0404  0.7713 -1.5272
    1SOL    MW410448   3.585   1.940   4.137 -0.0031 -0.0985  0.1221
    1SOL     OW10449   1.698   1.677   4.452 -0.4180  0.2726 -0.0227
    1SOL    HW210450   1.739   1.720   4.377  0.3631  0.5542  0.5522
    1SOL    HW310451   1.755   1.603   4.472 -0.4594  0.3723  0.4744
    1SOL    MW410452   1.711   1.673   4.445 -0.3203  0.3229  0.1187
    1SOL     OW10453   1.142   4.415   4.529 -0.1802  0.2931  0.5658
    1SOL    HW210454   1.208   4.477   4.501  0.1378 -0.5705 -0.6399
    1SOL    HW310455   1.085   4.464   4.588  1.5702  1.0166  1.6609
    1SOL    MW410456   1.143   4.429   4.533  0.0926  0.2742  0.5507
    1SOL     OW10457   3.605   2.495   4.437 -0.2010 -0.1932 -0.0259
    1SOL    HW210458   3.669   2.537   4.494  0.3739 -1.5270  0.3261
    1SOL    HW310459   3.611   2.544   4.354 -0.5578  1.3083  0.8174
    1SOL    MW410460   3.614   2.507   4.433 -0.1721 -0.1709  0.1316
    1SOL     OW10461   3.744   2.131   4.253  0.4645  0.4704  0.0164
    1SOL    HW210462   3.687   2.070   4.206  0.8719 -0.1288  0.2945
    1SOL    HW310463   3.713   2.218   4.226  1.0141  0.1368 -1.7442
    1SOL    MW410464   3.732   2.134   4.243  0.5906  0.3476 -0.1788
    1SOL     OW10465   1.768   4.180   4.748  0.1041  0.5853  0.2042
    1SOL    HW210466   1.735   4.102   4.703  1.3821  0.5656 -0.7488
    1SOL    HW310467   1.698   4.244   4.742 -0.0481  0.3064 -1.1368
    1SOL    MW410468   1.755   4.178   4.742  0.2527  0.5465 -0.0987
    1SOL     OW10469   3.818   3.017   4.150  0.6101 -0.0233  0.1598
    1SOL    HW210470   3.895   3.070   4.172  0.2914  0.3560  0.3673
    1SOL    HW310471   3.797   3.041   4.060 -0.0921  0.9015  0.5572
    1SOL    MW410472   3.826   3.028   4.141  0.4756  0.1485  0.2398
    1SOL     OW10473   3.817   4.351   4.227 -0.3284 -0.0966  0.1260
    1SOL    HW210474   3.732   4.316   4.201 -0.2173 -0.5354  0.3581
    1SOL    HW310475   3.802   4.386   4.315 -0.0398 -0.9969  0.5337
    1SOL    MW410476   3.804   4.351   4.236 -0.2759 -0.2732  0.2103
    1SOL     OW10477   3.584   3.147   4.251  0.0299  0.0110 -0.3150
    1SOL    HW210478   3.501   3.116   4.213  0.0891 -1.9010  1.0254
    1SOL    HW310479   3.652   3.102   4.201  0.1817 -0.2595  0.1291
    1SOL    MW410480   3.582   3.137   4.239  0.0577 -0.2770 -0.0796
    1SOL     OW10481   1.229   2.369   4.485 -0.3380  0.3935  0.3673
    1SOL    HW210482   1.301   2.396   4.542 -0.6857 -0.1706  1.0867
    1SOL    HW310483   1.271   2.348   4.402  0.5708 -1.4192  1.2362
    1SOL    MW410484   1.244   2.370   4.482 -0.2640  0.0796  0.5765
    1SOL     OW10485   4.189   2.717   4.509  0.5502  0.1980 -0.3016
    1SOL    HW210486   4.130   2.786   4.541  1.1281  0.9344 -0.8030
    1SOL    HW310487   4.206   2.741   4.418 -1.9436 -2.4597 -1.5493
    1SOL    MW410488   4.183   2.729   4.501  0.2971 -0.0553 -0.5322
    1SOL     OW10489   1.323   3.434   4.197 -0.2794 -0.0444  0.1079
    1SOL    HW210490   1.338   3.445   4.103  0.3465  1.6119  0.3813
    1SOL    HW310491   1.356   3.346   4.217 -2.1485 -1.1545 -1.5427
    1SOL    MW410492   1.330   3.423   4.188 -0.4435  0.0274 -0.0739
    1SOL     OW10493   3.155   4.202   4.194  0.2706 -0.0931  0.0477
    1SOL    HW210494   3.167   4.111   4.221 -1.1462 -0.2794  0.0641
    1SOL    HW310495   3.231   4.247   4.229  0.6237 -1.1407  0.6536
    1SOL    MW410496   3.167   4.196   4.202  0.1302 -0.2556  0.1297
    1SOL     OW10497   0.363   0.943   4.504 -0.0192  0.0883  0.0673
    1SOL    HW210498   0.396   0.913   4.420 -2.3796 -0.7805 -0.6059
    1SOL    HW310499   0.326   0.865   4.545 -0.2519  0.7898  1.2449
    1SOL    MW410500   0.362   0.929   4.498 -0.3613  0.0662  0.1340
    1SOL     OW10501   4.245   4.345   4.535  0.3330  0.1145 -0.0825
    1SOL    HW210502   4.251   4.350   4.440  2.3168 -0.2805  0.0079
    1SOL    HW310503   4.249   4.437   4.563 -2.0027  0.3706 -0.4294
    1SOL    MW410504   4.246   4.358   4.526  0.2861  0.0963 -0.1168
    1SOL     OW10505   4.285   2.295   4.345 -0.2193 -0.1634 -0.4798
    1SOL    HW210506   4.258   2.352   4.417  0.2115 -0.6685  0.0800
    1SOL    HW310507   4.363   2.336   4.309 -1.2495  0.8734 -1.5992
    1SOL    MW410508   4.291   2.308   4.349 -0.2985 -0.0935 -0.5541
    1SOL     OW10509   3.095   0.192   4.548 -0.4116 -0.0506 -0.4633
    1SOL    HW210510   3.017   0.136   4.540  0.5385 -1.1567 -2.1705
    1SOL    HW310511   3.158   0.138   4.595  0.2902 -0.1626 -1.5407
    1SOL    MW410512   3.093   0.178   4.553 -0.1936 -0.2113 -0.8307
    1SOL     OW10513   0.774   0.610   4.584 -0.0382 -0.1678  0.2463
    1SOL    HW210514   0.717   0.627   4.659 -0.6911 -0.2696 -0.2162
    1SOL    HW310515   0.733   0.535   4.540  0.9633 -0.8256  0.4150
    1SOL    MW410516   0.761   0.602   4.588  0.0077 -0.2680  0.2079
    1SOL     OW10517   0.045   0.031   4.585 -0.2333 -0.3735 -0.3559
    1SOL    HW210518   0.138   0.017   4.603 -0.4442 -1.0535  0.2334
    1SOL    HW310519   0.043   0.066   4.496  0.8617  3.3142  0.9864
    1SOL    MW410520   0.057   0.034   4.576 -0.1167  0.0233 -0.1011
    1SOL     OW10521   4.272   4.600   4.644 -0.2632 -0.1184 -0.1135
    1SOL    HW210522   4.351   4.650   4.663 -0.0501 -1.0417  1.6396
    1SOL    HW310523   4.210   4.664   4.608  1.2165  0.6360 -1.3506
    1SOL    MW410524   4.274   4.615   4.642 -0.0396 -0.1407 -0.0453
    1SOL     OW10525   4.050   1.137   4.128  0.1128  0.3029  0.8212
    1SOL    HW210526   3.983   1.203   4.145  0.8095  0.8742  1.4180
    1SOL    HW310527   4.029   1.065   4.187 -0.4791  0.1162  0.3823
    1SOL    MW410528   4.038   1.137   4.138  0.1268  0.3536  0.8426
    1SOL     OW10529   2.888   0.931   4.349  0.2492 -0.1531  0.0504
    1SOL    HW210530   2.967   0.956   4.397  0.9328 -3.2087  0.6374
    1SOL    HW310531   2.816   0.964   4.402  1.0858  0.2299  0.9603
    1SOL    MW410532   2.889   0.938   4.362  0.4499 -0.5057  0.2484
    1SOL     OW10533   1.221   1.262   4.499 -0.7618 -0.0245 -0.5667
    1SOL    HW210534   1.174   1.192   4.544 -0.8734  0.9938  0.9174
    1SOL    HW310535   1.193   1.342   4.543  2.2441  0.6418  0.2418
    1SOL    MW410536   1.211   1.263   4.511 -0.3798  0.1978 -0.2637
    1SOL     OW10537   1.857   0.733   4.607 -0.4852  0.7186  0.2890
    1SOL    HW210538   1.927   0.704   4.549 -0.8183  1.0696 -0.2879
    1SOL    HW310539   1.891   0.718   4.695  0.3733  1.0321  0.0103
    1SOL    MW410540   1.870   0.727   4.611 -0.4159  0.8063  0.1760
    1SOL     OW10541   1.334   4.232   4.586 -0.1817 -0.4944  0.2764
    1SOL    HW210542   1.413   4.284   4.603 -0.3883  0.4946 -1.6009
    1SOL    HW310543   1.264   4.297   4.578 -0.9721 -1.2848  0.7270
    1SOL    MW410544   1.336   4.248   4.587 -0.3133 -0.4683  0.0882
    1SOL     OW10545   3.855   0.487   4.289  0.3957 -0.2620 -0.1933
    1SOL    HW210546   3.855   0.571   4.242 -1.7081 -0.5900 -0.8468
    1SOL    HW310547   3.887   0.509   4.376  3.4954  0.5170 -1.4518
    1SOL    MW410548   3.859   0.501   4.294  0.5269 -0.2025 -0.4454
    1SOL     OW10549   3.725   2.379   4.122  0.1364  0.3187 -0.0072
    1SOL    HW210550   3.733   2.371   4.027  0.8182  0.3443  0.0461
    1SOL    HW310551   3.630   2.384   4.138  0.0754  1.8890 -0.8083
    1SOL    MW410552   3.713   2.379   4.112  0.2184  0.5293 -0.1059
    1SOL     OW10553   4.051   3.415   4.120  0.0646 -0.3232 -0.0550
    1SOL    HW210554   4.056   3.461   4.036  0.7951 -1.6255 -0.7408
    1SOL    HW310555   4.121   3.454   4.173 -0.3067  0.4039 -0.0968
    1SOL    MW410556   4.061   3.426   4.116  0.1116 -0.3991 -0.1512
    1SOL     OW10557   3.912   2.516   4.280  0.1273  0.2721 -0.1618
    1SOL    HW210558   3.843   2.496   4.216 -0.2773 -1.5829  0.8134
    1SOL    HW310559   3.991   2.475   4.243  0.1599  0.2538 -0.0711
    1SOL    MW410560   3.913   2.508   4.266  0.0782  0.0248 -0.0215
    1SOL     OW10561   1.264   3.304   4.666  0.2832  0.4247 -0.3034
    1SOL    HW210562   1.170   3.322   4.673  0.1546  0.7263 -2.5872
    1SOL    HW310563   1.306   3.383   4.700 -0.2628  0.0195  1.3764
    1SOL    MW410564   1.257   3.317   4.671  0.1941  0.4108 -0.3834
    1SOL     OW10565   3.261   0.815   4.502 -0.1997  0.4386  0.5595
    1SOL    HW210566   3.264   0.833   4.408  0.5478  0.3030  0.5526
    1SOL    HW310567   3.219   0.730   4.509  1.8846 -0.6749  0.1738
    1SOL    MW410568   3.256   0.806   4.491  0.1738  0.2738  0.5074
    1SOL     OW10569   3.870   3.556   4.252  0.2747  0.0433  0.5105
    1SOL    HW210570   3.784   3.516   4.234  0.1951 -0.6987  2.4353
    1SOL    HW310571   3.931   3.506   4.198 -0.2880 -0.4160  0.2880
    1SOL    MW410572   3.867   3.544   4.242  0.1900 -0.1152  0.7343
    1SOL     OW10573   2.075   1.637   4.102 -0.0713 -0.1658 -0.1884
    1SOL    HW210574   2.084   1.601   4.013 -1.1067  2.5366 -1.4540
    1SOL    HW310575   2.125   1.718   4.100 -1.0205  0.4752  1.3550
    1SOL    MW410576   2.083   1.643   4.090 -0.3328  0.2753 -0.1516
    1SOL     OW10577   4.255   3.567   4.268  0.3945  0.3297 -0.0754
    1SOL    HW210578   4.317   3.508   4.225  0.1209  0.7489 -1.0620
    1SOL    HW310579   4.283   3.568   4.359  0.7721 -0.8497 -0.1689
    1SOL    MW410580   4.267   3.559   4.274  0.4086  0.2294 -0.2179
    1SOL     OW10581   0.445   4.008   4.332 -0.4604  0.2143 -0.2807
    1SOL    HW210582   0.449   4.095   4.293  1.2152  0.6307  0.7657
    1SOL    HW310583   0.515   3.959   4.288  0.7431  0.3739  1.4019
    1SOL    MW410584   0.455   4.013   4.321 -0.0805  0.2904  0.0796
    1SOL     OW10585   1.541   0.453   4.733  0.0263 -0.3440  0.0355
    1SOL    HW210586   1.468   0.493   4.685  1.6831  0.9709 -1.4284
    1SOL    HW310587   1.550   0.507   4.812 -0.1970 -0.1474 -0.0725
    1SOL    MW410588   1.532   0.466   4.737  0.2155 -0.1446 -0.1721
    1SOL     OW10589   3.824   3.825   4.150 -0.1849 -0.2110 -0.2419
    1SOL    HW210590   3.900   3.880   4.169 -0.7797 -0.1663  2.1699
    1SOL    HW310591   3.846   3.740   4.187 -0.6827 -0.6432 -0.9303
    1SOL    MW410592   3.837   3.821   4.158 -0.3288 -0.2623 -0.0143
    1SOL     OW10593   2.866   4.631   4.635  1.0139  0.1438  0.4650
    1SOL    HW210594   2.849   4.607   4.726  0.6655 -1.6236 -0.0521
    1SOL    HW310595   2.882   4.548   4.590  1.0177  0.9730 -1.1220
    1SOL    MW410596   2.866   4.617   4.641  0.9685  0.0205  0.1879
    1SOL     OW10597   3.767   2.637   4.597 -0.0450 -0.3387 -0.0672
    1SOL    HW210598   3.714   2.696   4.650 -0.4471  0.1923 -1.0490
    1SOL    HW310599   3.801   2.692   4.527 -1.0972 -1.4225 -1.4735
    1SOL    MW410600   3.764   2.652   4.595 -0.2370 -0.4115 -0.3824
    1SOL     OW10601   1.987   1.559   4.732 -0.1063  0.2882  0.1043
    1SOL    HW210602   1.900   1.541   4.768 -0.4302  0.4266 -0.5987
    1SOL    HW310603   1.994   1.654   4.731 -0.2984  0.3005 -0.6484
    1SOL    MW410604   1.977   1.569   4.737 -0.1742  0.3080 -0.0877
    1SOL     OW10605   4.356   1.956   4.315  0.2210  0.1748 -0.4469
    1SOL    HW210606   4.352   2.052   4.324  0.1651  0.0378  1.1644
    1SOL    HW310607   4.264   1.928   4.319  0.4254 -0.2045  2.5008
    1SOL    MW410608   4.343   1.965   4.317  0.2413  0.1068  0.1545
    1SOL     OW10609   4.045   0.077   4.300  0.3478  0.7284 -0.0774
    1SOL    HW210610   4.065   0.093   4.392  0.0540 -0.5755  0.2262
    1SOL    HW310611   3.967   0.021   4.302  1.5585 -1.0334 -1.0444
    1SOL    MW410612   4.037   0.071   4.312  0.4687  0.3239 -0.1650
    1SOL     OW10613   0.655   3.117   4.614 -0.2113  0.3690 -0.6344
    1SOL    HW210614   0.604   3.197   4.628 -0.4176 -0.1708  1.8361
    1SOL    HW310615   0.589   3.047   4.610  0.0518  0.1651 -1.7193
    1SOL    MW410616   0.639   3.118   4.615 -0.2039  0.2708 -0.4520
    1SOL     OW10617   1.807   0.995   4.471  0.3372  0.1397  0.5060
    1SOL    HW210618   1.839   0.918   4.520 -1.3302 -0.2179  1.0582
    1SOL    HW310619   1.870   1.064   4.491  1.9450 -1.1242 -0.1117
    1SOL    MW410620   1.820   0.994   4.480  0.3294 -0.0741  0.4973
    1SOL     OW10621   1.862   2.997   4.632 -0.7672  0.0172  0.3028
    1SOL    HW210622   1.951   2.997   4.598 -0.3341 -0.2970  1.4155
    1SOL    HW310623   1.862   2.932   4.702 -1.9349 -0.1735  0.1471
    1SOL    MW410624   1.874   2.989   4.637 -0.8641 -0.0491  0.4292
    1SOL     OW10625   0.246   1.556   4.085 -0.4237  0.0833 -0.3739
    1SOL    HW210626   0.160   1.572   4.125 -0.1311  0.6341  0.0439
    1SOL    HW310627   0.309   1.591   4.149  0.0948 -0.0029 -0.8363
    1SOL    MW410628   0.243   1.563   4.099 -0.3167  0.1446 -0.3800
    1SOL     OW10629   3.932   3.890   4.483  0.0239  0.2129 -0.2870
    1SOL    HW210630   3.851   3.842   4.468 -0.9564  1.7903 -0.1258
    1SOL    HW310631   3.986   3.831   4.536 -1.0111 -0.8395 -0.3952
    1SOL    MW410632   3.928   3.876   4.488 -0.2420  0.2820 -0.2799
    1SOL     OW10633   0.752   1.104   4.627  0.1884 -0.2329  0.0731
    1SOL    HW210634   0.808   1.119   4.704  0.3156 -2.7378  0.5122
    1SOL    HW310635   0.672   1.066   4.663 -0.3083 -0.1330 -0.9173
    1SOL    MW410636   0.749   1.101   4.642  0.1397 -0.5503  0.0010
    1SOL     OW10637   0.524   0.990   4.733  0.0730  0.5048 -0.1294
    1SOL    HW210638   0.462   0.975   4.662  0.4023  0.3911 -0.3934
    1SOL    HW310639   0.477   1.045   4.795 -0.3164  0.3592 -0.2956
    1SOL    MW410640   0.510   0.995   4.732  0.0650  0.4706 -0.1860
    1SOL     OW10641   4.481   1.865   4.084 -0.0150  0.2142 -0.3768
    1SOL    HW210642   4.488   1.776   4.119  2.4467  0.9729  1.1328
    1SOL    HW310643   4.436   1.914   4.153 -0.0656  0.4794 -0.5973
    1SOL    MW410644   4.476   1.860   4.098  0.3028  0.3494 -0.2065
    1SOL     OW10645   2.485   3.803   4.552 -0.1959 -0.4117 -0.1136
    1SOL    HW210646   2.400   3.844   4.567  0.0824 -0.1417  0.7439
    1SOL    HW310647   2.471   3.710   4.573 -0.3533 -0.4219 -0.2636
    1SOL    MW410648   2.472   3.796   4.556 -0.1798 -0.3774 -0.0205
    1SOL     OW10649   4.154   0.393   4.662  0.1660  0.1990 -0.2657
    1SOL    HW210650   4.083   0.441   4.620 -0.5971 -0.5833  0.1113
    1SOL    HW310651   4.161   0.433   4.749 -0.2811 -0.1812 -0.0530
    1SOL    MW410652   4.146   0.404   4.668  0.0067  0.0457 -0.1879
    1SOL     OW10653   0.462   3.491   4.219 -0.4367 -0.0508  0.0531
    1SOL    HW210654   0.534   3.552   4.232  0.7040 -1.3838  0.1434
    1SOL    HW310655   0.456   3.481   4.124 -0.2085 -0.2782  0.0624
    1SOL    MW410656   0.470   3.498   4.208 -0.2561 -0.2568  0.0663
    1SOL     OW10657   3.223   1.725   4.586  0.1085 -0.5768  0.2263
    1SOL    HW210658   3.152   1.771   4.630 -0.6069 -1.4639  0.0348
    1SOL    HW310659   3.183   1.643   4.556  0.8622 -0.4879 -1.0731
    1SOL    MW410660   3.208   1.720   4.588  0.1137 -0.6822  0.0300
    1SOL     OW10661   0.031   0.878   4.754  0.2877  0.0283 -0.4906
    1SOL    HW210662  -0.044   0.818   4.745 -0.0370  0.6014 -1.6601
    1SOL    HW310663   0.010   0.930   4.832 -0.5311  0.1748 -0.7990
    1SOL    MW410664   0.018   0.877   4.763  0.1367  0.1233 -0.6857
    1SOL     OW10665   3.631   0.354   4.533 -0.4888 -0.0935  0.1086
    1SOL    HW210666   3.573   0.430   4.525 -0.4659  0.0521  1.2707
    1SOL    HW310667   3.606   0.298   4.459 -2.5144 -0.3009  0.9105
    1SOL    MW410668   3.620   0.357   4.522 -0.7529 -0.1017  0.3676
    1SOL     OW10669   0.955   1.161   4.813 -0.3672  0.0543 -0.2473
    1SOL    HW210670   0.993   1.248   4.823  0.4750 -0.5758  2.7714
    1SOL    HW310671   1.011   1.116   4.750  1.3817  0.5319  0.9394
    1SOL    MW410672   0.968   1.166   4.806 -0.0253  0.0341  0.3071
    1SOL     OW10673   0.231   3.865   4.216  0.6451 -0.1288  0.6233
    1SOL    HW210674   0.308   3.906   4.256  0.4459 -0.6455  1.5459
    1SOL    HW310675   0.158   3.919   4.243  0.6424  0.2164 -0.0486
    1SOL    MW410676   0.232   3.877   4.225  0.6185 -0.1516  0.6566
    1SOL     OW10677   2.268   0.939   4.135  0.6142  0.1184  0.0281
    1SOL    HW210678   2.265   1.023   4.180 -0.6902 -0.1475  0.4671
    1SOL    HW310679   2.349   0.898   4.166  0.7471  0.7924  0.5867
    1SOL    MW410680   2.278   0.944   4.145  0.4599  0.1723  0.1593
    1SOL     OW10681   1.575   4.378   4.654 -0.0088 -0.7806 -0.3847
    1SOL    HW210682   1.539   4.459   4.691  1.8990 -0.1394  0.1318
    1SOL    HW310683   1.652   4.407   4.605  0.2467 -2.2098 -0.8406
    1SOL    MW410684   1.580   4.392   4.652  0.2767 -0.8845 -0.3762
    1SOL     OW10685   4.357   3.560   4.536  0.2549 -0.2230 -0.1648
    1SOL    HW210686   4.452   3.552   4.530  0.2484  0.4303 -1.4311
    1SOL    HW310687   4.342   3.643   4.581  0.2775 -0.3284  0.0397
    1SOL    MW410688   4.367   3.570   4.541  0.2570 -0.1504 -0.3052
    1SOL     OW10689   0.802   0.108   4.702 -0.2129 -0.2510  0.3418
    1SOL    HW210690   0.785   0.131   4.611 -0.8474 -1.6115  0.1134
    1SOL    HW310691   0.716   0.086   4.738 -0.0013  0.4956  1.3350
    1SOL    MW410692   0.788   0.109   4.695 -0.2687 -0.3320  0.4430
    1SOL     OW10693   0.192   1.421   4.448  0.4069  0.1145  0.1282
    1SOL    HW210694   0.217   1.373   4.369  0.8422  0.2688  0.1688
    1SOL    HW310695   0.275   1.445   4.489  0.1912  0.5755  0.3046
    1SOL    MW410696   0.206   1.418   4.443  0.4359  0.1956  0.1574
    1SOL     OW10697   4.236   1.505   4.098 -0.2442 -0.5299  0.3553
    1SOL    HW210698   4.273   1.421   4.123  1.7125 -0.0125 -0.6791
    1SOL    HW310699   4.245   1.508   4.003  0.8160  1.3248  0.4796
    1SOL    MW410700   4.242   1.495   4.089  0.1531 -0.2171  0.2346
    1SOL     OW10701   2.927   1.243   4.263 -0.0822 -0.1545  0.3169
    1SOL    HW210702   2.867   1.185   4.216 -1.9873  1.1927  1.0188
    1SOL    HW310703   2.920   1.326   4.217  1.1744  0.0500  0.4839
    1SOL    MW410704   2.918   1.246   4.251 -0.1678  0.0502  0.4315
    1SOL     OW10705   3.730   2.822   4.361 -0.3555 -0.3033 -0.3660
    1SOL    HW210706   3.764   2.899   4.316  0.5619 -1.4463 -1.6587
    1SOL    HW310707   3.679   2.776   4.294 -0.9176 -0.8207  0.4042
    1SOL    MW410708   3.728   2.826   4.347 -0.3085 -0.5224 -0.4349
    1SOL     OW10709   3.935   1.903   4.626 -0.0316  0.0155  0.3362
    1SOL    HW210710   3.998   1.934   4.692  0.3290 -0.1330  0.0665
    1SOL    HW310711   3.891   1.983   4.596  0.2836  0.1692  0.2687
    1SOL    MW410712   3.938   1.918   4.631  0.0572  0.0161  0.2918
    1SOL     OW10713   4.237   1.291   4.457  0.1267  0.3778  0.1063
    1SOL    HW210714   4.161   1.347   4.443  0.0510 -0.2256 -2.1525
    1SOL    HW310715   4.304   1.350   4.491  0.3592  2.1377 -3.1658
    1SOL    MW410716   4.236   1.306   4.460  0.1473  0.5305 -0.6232
    1SOL     OW10717   2.022   4.402   4.244  0.4446 -0.2743 -0.5989
    1SOL    HW210718   2.021   4.488   4.203 -0.0823 -0.4494 -0.9588
    1SOL    HW310719   2.105   4.363   4.217  0.0343 -0.4480 -1.6226
    1SOL    MW410720   2.033   4.408   4.235  0.3209 -0.3204 -0.7811
    1SOL     OW10721   2.894   4.382   4.520  0.2447 -0.1113 -0.2828
    1SOL    HW210722   2.914   4.371   4.428 -0.5147  0.7730 -0.5648
    1SOL    HW310723   2.842   4.305   4.543  0.4959 -0.3658 -0.5715
    1SOL    MW410724   2.889   4.370   4.511  0.1779 -0.0286 -0.3581
    1SOL     OW10725   2.696   2.198   4.699 -0.2920  0.1830 -0.0621
    1SOL    HW210726   2.768   2.238   4.652  0.3356 -1.0919 -0.2247
    1SOL    HW310727   2.622   2.199   4.637 -0.4738  1.6272  0.1621
    1SOL    MW410728   2.695   2.203   4.685 -0.2334  0.2053 -0.0539
    1SOL     OW10729   1.118   0.507   4.328 -0.1447  0.6146  0.3502
    1SOL    HW210730   1.097   0.539   4.416  0.9055  0.2640  0.7394
    1SOL    HW310731   1.130   0.586   4.276 -1.1484  0.8219  0.4273
    1SOL    MW410732   1.117   0.521   4.333 -0.1386  0.5957  0.4125
    1SOL     OW10733   0.332   0.296   4.564  0.1447  0.2235 -0.1030
    1SOL    HW210734   0.264   0.348   4.521  1.4731  1.0490 -1.2477
    1SOL    HW310735   0.308   0.205   4.545 -0.1494  0.5330 -1.2455
    1SOL    MW410736   0.320   0.291   4.556  0.2811  0.3732 -0.4048
    1SOL     OW10737   0.684   0.452   4.217  0.1681  0.2966  0.2995
    1SOL    HW210738   0.644   0.445   4.303  0.7585  0.8123  0.6210
    1SOL    HW310739   0.675   0.545   4.194  1.4865  0.4972  0.5369
    1SOL    MW410740   0.678   0.463   4.225  0.4200  0.3911  0.3729
    1SOL     OW10741   0.973   3.335   4.692 -0.0334  0.3568 -0.1614
    1SOL    HW210742   0.948   3.280   4.618  1.3079 -0.1660 -0.2391
    1SOL    HW310743   0.963   3.279   4.769  0.5502  0.2535 -0.1579
    1SOL    MW410744   0.969   3.320   4.692  0.2207  0.2742 -0.1717
    1SOL     OW10745   1.114   3.602   4.291 -0.4861 -0.0314 -0.0630
    1SOL    HW210746   1.178   3.535   4.267 -0.6954  0.2182 -1.3691
    1SOL    HW310747   1.029   3.561   4.273 -0.6340  0.3595 -0.2618
    1SOL    MW410748   1.111   3.588   4.286 -0.5332  0.0534 -0.2618
    1SOL     OW10749   3.162   3.259   4.211  0.5229  0.2640 -0.2890
    1SOL    HW210750   3.147   3.338   4.160 -0.3025  0.1739 -0.1893
    1SOL    HW310751   3.152   3.286   4.302 -0.0778 -0.0229 -0.2683
    1SOL    MW410752   3.159   3.273   4.217  0.3347  0.2143 -0.2732
    1SOL     OW10753   3.398   2.348   4.503 -0.4079 -0.1622  0.3203
    1SOL    HW210754   3.469   2.405   4.472  0.0756  0.6388  2.7983
    1SOL    HW310755   3.327   2.409   4.525 -1.0428 -0.7790 -0.0251
    1SOL    MW410756   3.398   2.364   4.502 -0.4277 -0.1378  0.6013
    1SOL     OW10757   0.727   1.293   4.251  0.0079 -0.4485  0.4167
    1SOL    HW210758   0.719   1.307   4.345 -0.0345  0.0113  0.3460
    1SOL    HW310759   0.646   1.249   4.226 -0.2583  0.0083  0.4848
    1SOL    MW410760   0.715   1.289   4.260 -0.0328 -0.3275  0.4168
    1SOL     OW10761   1.546   2.045   4.218  0.0265 -0.1585 -0.2288
    1SOL    HW210762   1.634   2.032   4.184  0.8541  0.4639  1.5997
    1SOL    HW310763   1.550   2.015   4.309 -1.5891  0.0636 -0.0598
    1SOL    MW410764   1.558   2.040   4.226 -0.0775 -0.0470  0.0348
    1SOL     OW10765   1.470   3.165   4.545  0.0595  0.1337 -0.1003
    1SOL    HW210766   1.526   3.239   4.519 -1.5605  1.1130 -0.8900
    1SOL    HW310767   1.391   3.206   4.579 -0.6473 -1.2539 -0.0349
    1SOL    MW410768   1.467   3.180   4.546 -0.2475  0.0801 -0.1955
    1SOL     OW10769   0.884   4.258   4.155  0.2903  0.0224  0.0594
    1SOL    HW210770   0.968   4.276   4.197 -0.1290 -0.2309  1.0375
    1SOL    HW310771   0.819   4.300   4.212 -0.3991 -1.4778  0.4128
    1SOL    MW410772   0.886   4.266   4.168  0.1440 -0.2089  0.2346
    1SOL     OW10773   4.474   3.437   4.169 -0.0264  0.0311  0.1584
    1SOL    HW210774   4.540   3.484   4.219 -1.2427  1.3203  0.5988
    1SOL    HW310775   4.497   3.452   4.078  2.0226 -2.0690  0.2912
    1SOL    MW410776   4.486   3.445   4.164  0.0835 -0.0758  0.2341
    1SOL     OW10777   3.622   1.601   4.706  0.5370 -0.0064 -0.0295
    1SOL    HW210778   3.553   1.595   4.772  0.8207 -1.4670  0.1627
    1SOL    HW310779   3.599   1.678   4.654  0.1678  1.0074  1.6034
    1SOL    MW410780   3.610   1.610   4.708  0.5260 -0.0652  0.2112
    1SOL     OW10781   4.269   4.066   4.545  0.1682 -0.1618  0.1300
    1SOL    HW210782   4.313   4.051   4.462 -2.5896  0.2871 -1.4600
    1SOL    HW310783   4.251   4.160   4.546 -1.8747 -0.5462  0.1796
    1SOL    MW410784   4.273   4.077   4.534 -0.4654 -0.1526 -0.0730
    1SOL     OW10785   2.614   3.309   4.493  0.2190 -0.1031  0.4826
    1SOL    HW210786   2.634   3.294   4.400  1.5661 -0.5720  0.8458
    1SOL    HW310787   2.573   3.227   4.522 -0.0021 -0.0349  0.3716
    1SOL    MW410788   2.611   3.296   4.484  0.3676 -0.1562  0.5155
    1SOL     OW10789   0.262   0.726   4.621  0.8378  0.3656 -0.9757
    1SOL    HW210790   0.232   0.651   4.570  0.8115 -0.0445 -0.3503
    1SOL    HW310791   0.190   0.746   4.680  2.2108 -1.3513  1.3592
    1SOL    MW410792   0.249   0.719   4.622  1.0154  0.0849 -0.5851
    1SOL     OW10793   2.235   1.404   4.649 -0.2120  0.1089 -0.1074
    1SOL    HW210794   2.162   1.439   4.699 -0.1953 -0.9936  0.7206
    1SOL    HW310795   2.313   1.445   4.688 -0.3207  0.5832 -0.3873
    1SOL    MW410796   2.236   1.414   4.661 -0.2244  0.0261 -0.0353
    1SOL     OW10797   1.537   3.572   4.264 -0.4176  0.0219  0.0588
    1SOL    HW210798   1.449   3.537   4.247  0.2664 -1.7631  0.0734
    1SOL    HW310799   1.561   3.535   4.349 -0.2405  1.7065  0.7519
    1SOL    MW410800   1.528   3.562   4.273 -0.3041  0.0086  0.1521
    1SOL     OW10801   3.179   3.933   4.264 -0.0866  0.2027  0.1182
    1SOL    HW210802   3.261   3.903   4.225  0.7374  1.0660  1.1661
    1SOL    HW310803   3.202   3.955   4.354 -1.2219  1.5242  0.1036
    1SOL    MW410804   3.193   3.932   4.270 -0.1278  0.4909  0.2546
    1SOL     OW10805   0.227   2.038   4.095  0.1703  0.4545  0.2402
    1SOL    HW210806   0.152   1.979   4.088  0.6474 -0.0867 -0.4083
    1SOL    HW310807   0.286   2.010   4.025 -0.6958  3.2693 -1.7419
    1SOL    MW410808   0.225   2.027   4.085  0.1190  0.7546 -0.1063
    1SOL     OW10809   1.945   1.938   4.408  0.0898 -0.4445 -0.0670
    1SOL    HW210810   1.929   2.031   4.425 -0.2710 -0.3699 -0.7832
    1SOL    HW310811   1.937   1.930   4.313 -0.5044 -1.3367  0.0610
    1SOL    MW410812   1.942   1.950   4.398 -0.0362 -0.5523 -0.1450
    1SOL     OW10813   2.899   3.642   4.517  0.4513 -0.1005  0.2126
    1SOL    HW210814   2.983   3.677   4.547 -0.2054  0.2003  1.7269
    1SOL    HW310815   2.892   3.556   4.560  0.2702 -0.4016 -0.4134
    1SOL    MW410816   2.909   3.635   4.527  0.3407 -0.1004  0.3300
    1SOL     OW10817   0.645   3.579   4.570 -0.4994 -0.0954 -0.0745
    1SOL    HW210818   0.730   3.598   4.609 -0.5523  1.3782 -0.6762
    1SOL    HW310819   0.588   3.651   4.598 -1.4109 -0.7774 -0.1306
    1SOL    MW410820   0.648   3.591   4.579 -0.6267  0.0088 -0.1616
    1SOL     OW10821   1.855   3.283   4.259 -0.1169  0.1825 -0.4368
    1SOL    HW210822   1.799   3.214   4.225  1.2229  0.1164 -2.5847
    1SOL    HW310823   1.815   3.365   4.229 -0.5114  0.2493  0.2669
    1SOL    MW410824   1.843   3.285   4.251  0.0079  0.1826 -0.6275
    1SOL     OW10825   2.968   2.264   4.162  0.5035  0.0940  0.8489
    1SOL    HW210826   2.893   2.236   4.214  1.3998 -0.8076  1.6540
    1SOL    HW310827   2.931   2.283   4.075 -0.6513 -0.3350  1.2456
    1SOL    MW410828   2.953   2.263   4.157  0.4694 -0.0813  1.0076
    1SOL     OW10829   2.741   4.166   4.603  0.2886 -0.4649 -0.1352
    1SOL    HW210830   2.735   4.074   4.577  0.1715 -0.5364  0.1407
    1SOL    HW310831   2.650   4.196   4.605  0.1782 -0.8814  1.6752
    1SOL    MW410832   2.728   4.158   4.600  0.2589 -0.5288  0.1402
    1SOL     OW10833   1.341   4.602   4.459 -0.2356  0.1722 -0.1423
    1SOL    HW210834   1.393   4.609   4.539 -0.2734 -0.1022 -0.0918
    1SOL    HW310835   1.295   4.686   4.453 -0.2806  0.1693  0.1560
    1SOL    MW410836   1.342   4.614   4.469 -0.2465  0.1359 -0.0963
    1SOL     OW10837   0.108   1.837   4.389 -0.0809 -0.0453  0.3057
    1SOL    HW210838   0.028   1.881   4.359 -0.7947 -1.9587 -0.6569
    1SOL    HW310839   0.165   1.909   4.418 -1.3477  1.4853 -0.8816
    1SOL    MW410840   0.105   1.853   4.389 -0.3422 -0.0960  0.0224
    1SOL     OW10841   2.219   3.448   4.723 -0.4277 -0.1381  0.1005
    1SOL    HW210842   2.161   3.427   4.650 -0.5408 -0.0827  0.1733
    1SOL    HW310843   2.173   3.414   4.800 -0.5626  0.2805  0.2075
    1SOL    MW410844   2.205   3.441   4.724 -0.4604 -0.0756  0.1245
    1SOL     OW10845   1.806   2.005   4.113 -0.4275  0.6763  0.2405
    1SOL    HW210846   1.789   1.991   4.020 -0.4950 -0.3138  0.3886
    1SOL    HW310847   1.879   2.067   4.115 -0.1108  0.3407 -0.4873
    1SOL    MW410848   1.813   2.011   4.101 -0.3947  0.5014  0.1640
    1SOL     OW10849   1.677   1.105   4.129 -0.5563  0.0529 -0.1925
    1SOL    HW210850   1.721   1.025   4.156 -1.7052 -1.1151 -1.6706
    1SOL    HW310851   1.702   1.170   4.195  2.7054 -0.7540 -0.5263
    1SOL    MW410852   1.686   1.103   4.141 -0.2775 -0.2077 -0.4315
    1SOL     OW10853   3.943   3.204   4.515 -0.0758 -0.0909 -0.1406
    1SOL    HW210854   3.973   3.115   4.535  0.9083  0.3440  0.3482
    1SOL    HW310855   3.966   3.216   4.423 -0.3591 -0.3957 -0.2546
    1SOL    MW410856   3.950   3.194   4.506  0.0167 -0.0739 -0.0916
    1SOL     OW10857   0.533   0.656   4.770 -0.7196 -0.7585 -0.0032
    1SOL    HW210858   0.451   0.667   4.723 -0.8201 -0.0575  0.3397
    1SOL    HW310859   0.544   0.737   4.820 -0.0765 -1.0552  0.3453
    1SOL    MW410860   0.524   0.668   4.770 -0.6480 -0.7052  0.0877
    1SOL     OW10861   2.324   2.855   4.614 -0.2104  0.0491 -0.2780
    1SOL    HW210862   2.260   2.824   4.679 -0.3161  0.8970  0.0313
    1SOL    HW310863   2.358   2.776   4.574 -1.4683 -0.4215 -0.4501
    1SOL    MW410864   2.320   2.841   4.618 -0.3905  0.0989 -0.2599
    1SOL     OW10865   3.498   2.076   4.483  0.1246  0.1134  0.2732
    1SOL    HW210866   3.468   2.162   4.513 -0.7460  0.2001 -0.8025
    1SOL    HW310867   3.590   2.090   4.461 -0.0550  0.8142 -0.0599
    1SOL    MW410868   3.506   2.089   4.484 -0.0138  0.2174  0.0873
    1SOL     OW10869   1.599   2.311   4.106  0.1778  0.3221  0.2090
    1SOL    HW210870   1.658   2.345   4.173 -0.3067 -0.5085  1.0792
    1SOL    HW310871   1.585   2.219   4.131  0.3928 -0.1439 -1.3213
    1SOL    MW410872   1.605   2.303   4.118  0.1422  0.1514  0.1216
    1SOL     OW10873   1.286   1.610   4.694 -0.3810 -0.1927 -0.6368
    1SOL    HW210874   1.294   1.688   4.748 -1.1946 -0.0133 -0.7697
    1SOL    HW310875   1.376   1.583   4.677 -0.0885  0.8210 -0.7351
    1SOL    MW410876   1.299   1.617   4.699 -0.4498 -0.0353 -0.6676
    1SOL     OW10877   4.081   0.136   4.577  0.3704  0.2323 -0.0769
    1SOL    HW210878   3.990   0.132   4.606  0.2866 -0.2248 -0.3925
    1SOL    HW310879   4.110   0.224   4.599  0.0780  0.1344  0.7065
    1SOL    MW410880   4.073   0.147   4.584  0.3209  0.1591 -0.0153
    1SOL     OW10881   2.111   3.002   4.503  0.1635  0.2933 -0.5539
    1SOL    HW210882   2.077   2.956   4.426  0.3844 -1.3278  0.3067
    1SOL    HW310883   2.182   2.946   4.535 -0.9090  0.1826  1.7190
    1SOL    MW410884   2.116   2.989   4.497  0.0515  0.0646 -0.1407
    1SOL     OW10885   4.298   3.837   4.208  0.3308  0.3260 -0.1107
    1SOL    HW210886   4.300   3.743   4.229  0.4005  0.2915 -0.2737
    1SOL    HW310887   4.308   3.840   4.113 -0.9850  0.4330 -0.2590
    1SOL    MW410888   4.299   3.825   4.199  0.1659  0.3355 -0.1516
    1SOL     OW10889   1.013   2.554   4.543 -0.7343  0.7353  0.3436
    1SOL    HW210890   1.078   2.487   4.524 -0.8762  0.6294  0.2277
    1SOL    HW310891   0.933   2.523   4.501 -0.2009  2.1449 -1.7954
    1SOL    MW410892   1.011   2.541   4.535 -0.6827  0.9077  0.0458
    1SOL     OW10893   1.340   0.615   4.608 -0.0323  0.1875  0.0564
    1SOL    HW210894   1.245   0.626   4.616  0.1750  1.0363  1.5602
    1SOL    HW310895   1.372   0.701   4.585  0.2820 -0.3476 -1.5679
    1SOL    MW410896   1.331   0.627   4.606  0.0366  0.2288  0.0410
    1SOL     OW10897   4.225   2.787   4.244  0.1734  0.0119 -0.5912
    1SOL    HW210898   4.258   2.876   4.232  1.1618 -0.3083 -0.3215
    1SOL    HW310899   4.135   2.790   4.213 -0.3565  1.5388  1.0564
    1SOL    MW410900   4.218   2.799   4.238  0.2341  0.1712 -0.3381
    1SOL     OW10901   0.195   4.622   4.183  0.0500 -0.1269 -0.2032
    1SOL    HW210902   0.286   4.651   4.174  0.1099 -0.5410 -0.9946
    1SOL    HW310903   0.201   4.538   4.227  0.1360 -0.6590 -1.2024
    1SOL    MW410904   0.208   4.615   4.187  0.0693 -0.2518 -0.4392
    1SOL     OW10905   3.103   2.087   4.488 -0.1751  0.2607  0.1439
    1SOL    HW210906   3.078   2.008   4.439 -0.3399 -0.2660  1.0742
    1SOL    HW310907   3.186   2.113   4.448 -0.8926  0.5209 -1.2095
    1SOL    MW410908   3.111   2.080   4.476 -0.2913  0.2253  0.0882
    1SOL     OW10909   0.527   1.138   4.143  0.5062 -0.1812  0.3630
    1SOL    HW210910   0.523   1.048   4.174  1.0431 -0.1572  0.4937
    1SOL    HW310911   0.513   1.132   4.048 -1.5314 -0.2241  0.6411
    1SOL    MW410912   0.524   1.125   4.134  0.3082 -0.1836  0.4168
    1SOL     OW10913   2.275   3.234   4.401 -0.6508 -0.5337  0.0153
    1SOL    HW210914   2.207   3.167   4.413 -0.7939 -0.1849  1.2402
    1SOL    HW310915   2.233   3.315   4.430 -0.0580 -0.1363 -0.2408
    1SOL    MW410916   2.260   3.235   4.407 -0.5915 -0.4354  0.1431
    1SOL     OW10917   4.475   0.071   4.303 -0.1017 -0.2970 -0.4690
    1SOL    HW210918   4.550   0.028   4.262  0.5084  0.5175 -0.2147
    1SOL    HW310919   4.474   0.159   4.266 -1.6108 -0.6482 -1.3172
    1SOL    MW410920   4.485   0.077   4.293 -0.2204 -0.2359 -0.5469
    1SOL     OW10921   1.494   3.835   4.700 -0.3125 -0.1183 -0.1323
    1SOL    HW210922   1.514   3.904   4.763 -0.3291 -0.2756  0.0483
    1SOL    HW310923   1.562   3.843   4.633  1.0688 -1.3684  1.0623
    1SOL    MW410924   1.506   3.845   4.699 -0.1324 -0.3040  0.0496
    1SOL     OW10925   0.896   3.601   4.691 -0.4255  0.4496 -0.4209
    1SOL    HW210926   0.981   3.632   4.658 -0.4088  1.2038  0.3243
    1SOL    HW310927   0.908   3.507   4.703 -0.1357  0.3122 -1.6656
    1SOL    MW410928   0.909   3.592   4.688 -0.3850  0.5310 -0.4869
    1SOL     OW10929   2.457   1.614   4.678 -0.0462 -0.4106  0.4115
    1SOL    HW210930   2.520   1.571   4.620 -0.4184  0.8014 -0.9214
    1SOL    HW310931   2.500   1.695   4.705 -0.4421 -0.2837  0.6739
    1SOL    MW410932   2.471   1.619   4.674 -0.1476 -0.2340  0.2704
    1SOL     OW10933   2.653   1.011   4.467  0.1476 -0.4194 -0.0837
    1SOL    HW210934   2.639   1.088   4.412  0.7670  0.3036  0.7516
    1SOL    HW310935   2.573   0.959   4.456 -0.6910  0.8086  0.0851
    1SOL    MW410936   2.641   1.014   4.459  0.1187 -0.1621  0.0482
    1SOL     OW10937   1.310   0.904   4.250  0.0764  0.0125 -0.0902
    1SOL    HW210938   1.388   0.849   4.240 -0.2158 -0.1982 -1.2700
    1SOL    HW310939   1.336   0.988   4.213  0.4410  0.6008  1.4844
    1SOL    MW410940   1.324   0.908   4.244  0.0859  0.0623 -0.0386
    1SOL     OW10941   4.136   0.855   4.525 -0.7974 -0.5539 -0.6124
    1SOL    HW210942   4.094   0.878   4.442 -1.2299  0.6226 -0.0801
    1SOL    HW310943   4.135   0.937   4.576 -1.8088 -1.5969  1.0899
    1SOL    MW410944   4.130   0.869   4.521 -0.9885 -0.5363 -0.3176
    1SOL     OW10945   2.230   1.138   4.563  0.2066 -0.1506 -0.0525
    1SOL    HW210946   2.238   1.159   4.470 -0.9198  0.0038 -0.1204
    1SOL    HW310947   2.231   1.223   4.607  0.3938 -0.2032  0.0422
    1SOL    MW410948   2.231   1.152   4.557  0.0827 -0.1372 -0.0491
    1SOL     OW10949   1.414   3.193   4.254 -0.2003 -0.2280 -0.0039
    1SOL    HW210950   1.433   3.173   4.346 -2.8498  0.9714  0.8714
    1SOL    HW310951   1.338   3.138   4.233  0.1804 -0.2510 -1.3798
    1SOL    MW410952   1.406   3.183   4.263 -0.4997 -0.0727 -0.0701
    1SOL     OW10953   1.135   2.310   4.115 -0.1467  0.1195  0.3687
    1SOL    HW210954   1.218   2.346   4.144  0.1568 -0.8001  0.6693
    1SOL    HW310955   1.145   2.215   4.126 -1.4532  0.0382  1.0208
    1SOL    MW410956   1.147   2.302   4.121 -0.2791 -0.0124  0.4940
    1SOL     OW10957   0.093   0.948   4.463  0.2545 -0.0490  0.0977
    1SOL    HW210958   0.186   0.970   4.471  0.9888 -2.3057 -1.6178
    1SOL    HW310959   0.060   0.952   4.553  2.2058 -0.0594  0.8573
    1SOL    MW410960   0.101   0.951   4.476  0.6088 -0.3481 -0.0281
    1SOL     OW10961   3.783   0.109   4.601 -0.1759  0.3379 -0.0950
    1SOL    HW210962   3.701   0.060   4.597 -0.7524  1.2215  0.6375
    1SOL    HW310963   3.757   0.200   4.594  0.5892  0.7322  1.8771
    1SOL    MW410964   3.769   0.114   4.600 -0.1512  0.5065  0.2623
    1SOL     OW10965   3.115   1.053   4.505 -0.2400  0.4930  0.0049
    1SOL    HW210966   3.177   1.120   4.535 -0.2046  1.1547 -1.5130
    1SOL    HW310967   3.162   0.971   4.518  0.3490  0.8746  0.3623
    1SOL    MW410968   3.130   1.051   4.511 -0.1576  0.6309 -0.1483
    1SOL     OW10969   3.514   3.936   4.537  0.1896 -0.1398 -0.0724
    1SOL    HW210970   3.553   3.971   4.457 -0.3522 -0.9936 -0.7142
    1SOL    HW310971   3.566   3.975   4.608  0.1916  1.2157 -0.8025
    1SOL    MW410972   3.526   3.946   4.536  0.1183 -0.0739 -0.2532
    1SOL     OW10973   0.726   0.142   4.441  0.1329 -0.9614 -0.4099
    1SOL    HW210974   0.798   0.149   4.378  2.2715 -1.0093  1.9471
    1SOL    HW310975   0.676   0.066   4.413  1.7056 -1.6488 -1.3883
    1SOL    MW410976   0.729   0.133   4.429  0.6225 -1.0584 -0.2279
    1SOL     OW10977   0.297   2.063   4.372  0.0119 -0.3475  0.2106
    1SOL    HW210978   0.364   1.996   4.386  1.8813  1.6778  1.0100
    1SOL    HW310979   0.283   2.063   4.278  1.2700 -0.6558  0.0171
    1SOL    MW410980   0.304   2.054   4.362  0.4245 -0.1209  0.2904
    1SOL     OW10981   1.901   1.466   4.465  0.1959 -0.1375  0.2883
    1SOL    HW210982   1.972   1.476   4.402 -0.8511  1.3171 -0.6972
    1SOL    HW310983   1.937   1.499   4.547  0.4725  1.1510 -0.3460
    1SOL    MW410984   1.915   1.472   4.467  0.0942  0.2245  0.0749
    1SOL     OW10985   4.274   4.619   4.174 -0.1212 -0.5468 -0.1637
    1SOL    HW210986   4.197   4.653   4.219  0.4891  0.7880 -0.0940
    1SOL    HW310987   4.348   4.658   4.220  0.5680 -0.8220 -1.0140
    1SOL    MW410988   4.274   4.629   4.186  0.0510 -0.4063 -0.2666
    1SOL     OW10989   2.664   2.630   4.665  0.4538  0.3171  0.0706
    1SOL    HW210990   2.597   2.629   4.597 -0.3691 -0.0792  0.8789
    1SOL    HW310991   2.742   2.594   4.623  0.0916  0.5525 -0.8067
    1SOL    MW410992   2.666   2.625   4.650  0.2975  0.2959  0.0615
    1SOL     OW10993   2.032   4.429   4.534 -0.0462 -0.5453  0.1267
    1SOL    HW210994   2.010   4.428   4.440  0.5774 -1.3177 -0.0190
    1SOL    HW310995   1.957   4.472   4.575 -0.2129  0.0282 -0.7554
    1SOL    MW410996   2.019   4.434   4.527  0.0141 -0.5713 -0.0091
    1SOL     OW10997   3.146   4.256   4.589  0.6701 -0.2794  0.2687
    1SOL    HW210998   3.124   4.215   4.672  2.2392 -2.3398 -0.3034
    1SOL    HW310999   3.067   4.304   4.564  0.2536  0.5431  3.0166
    1SOL    MW411000   3.133   4.257   4.596  0.8221 -0.4430  0.5555
    1SOL     OW11001   3.588   4.111   4.749  0.5239 -0.3736  0.1091
    1SOL    HW211002   3.677   4.128   4.718 -0.3205  0.6912 -1.8267
    1SOL    HW311003   3.535   4.178   4.706 -1.0366 -0.2249  2.2021
    1SOL    MW411004   3.593   4.122   4.739  0.2065 -0.2136  0.1302
    1SOL     OW11005   3.018   1.881   4.691  0.3766  0.1136  0.3653
    1SOL    HW211006   2.962   1.913   4.761 -3.6947  0.7445 -2.9487
    1SOL    HW311007   3.050   1.960   4.648  0.1136 -0.2232 -0.4763
    1SOL    MW411008   3.015   1.896   4.694 -0.1953  0.1523 -0.1831
    1SOL     OW11009   1.830   4.222   4.135  0.3172 -0.5553  0.4785
    1SOL    HW211010   1.829   4.238   4.040 -0.4400  0.1369  0.5875
    1SOL    HW311011   1.889   4.289   4.170 -1.3034  0.8124  0.7280
    1SOL    MW411012   1.837   4.233   4.127  0.0035 -0.2837  0.5260
    1SOL     OW11013   2.256   1.189   4.288  0.3519 -0.5210  0.0421
    1SOL    HW211014   2.222   1.276   4.267 -0.7324 -0.7404  0.8760
    1SOL    HW311015   2.351   1.201   4.290  0.2325  0.5434 -0.2940
    1SOL    MW411016   2.264   1.202   4.286  0.1931 -0.4095  0.1073
    1SOL     OW11017   0.892   4.070   4.542 -0.8460 -0.3744 -0.1769
    1SOL    HW211018   0.893   4.059   4.447 -0.3316  0.5640 -0.2913
    1SOL    HW311019   0.809   4.113   4.561 -1.2289 -1.1322 -0.1313
    1SOL    MW411020   0.881   4.074   4.532 -0.8287 -0.3505 -0.1855
    1SOL     OW11021   3.139   0.510   4.498 -0.4319 -0.3847  0.4768
    1SOL    HW211022   3.053   0.552   4.488 -0.8725 -1.0504  1.4381
    1SOL    HW311023   3.119   0.423   4.533  0.4276 -1.6535 -2.0572
    1SOL    MW411024   3.125   0.504   4.501 -0.3762 -0.6400  0.2694
    1SOL     OW11025   4.055   1.646   4.261  0.3356 -0.0401 -0.2190
    1SOL    HW211026   4.127   1.604   4.214 -0.9887  0.3693 -2.7462
    1SOL    HW311027   4.028   1.582   4.327  0.8356 -1.5994 -1.4983
    1SOL    MW411028   4.061   1.632   4.263  0.2265 -0.1918 -0.7210
    1SOL     OW11029   1.900   1.843   4.703 -0.0144 -0.0073 -0.3881
    1SOL    HW211030   1.900   1.847   4.607  0.5277 -1.9378 -0.4919
    1SOL    HW311031   1.807   1.840   4.726 -0.1403 -0.0960 -0.8849
    1SOL    MW411032   1.888   1.843   4.693  0.0405 -0.2736 -0.4678
    1SOL     OW11033   0.679   1.952   4.677 -0.1185  0.4053  0.0720
    1SOL    HW211034   0.617   1.879   4.679  0.2877  0.0511 -0.1051
    1SOL    HW311035   0.673   1.991   4.764 -1.0546  0.7689 -0.1520
    1SOL    MW411036   0.670   1.948   4.689 -0.1884  0.4065  0.0191
    1SOL     OW11037   2.923   2.679   4.266 -0.1384 -0.4847  0.7359
    1SOL    HW211038   2.912   2.762   4.313  0.6474 -0.5761  1.0972
    1SOL    HW311039   2.835   2.654   4.240 -0.1766  1.6420 -1.4068
    1SOL    MW411040   2.910   2.687   4.269 -0.0396 -0.2165  0.5012
    1SOL     OW11041   1.548   0.740   4.184 -0.0016 -0.2543 -0.2796
    1SOL    HW211042   1.637   0.777   4.190  0.0531 -0.4451  0.0728
    1SOL    HW311043   1.533   0.731   4.090  0.3876 -0.3021 -0.3398
    1SOL    MW411044   1.558   0.744   4.172  0.0570 -0.2858 -0.2413
    1SOL     OW11045   3.919   2.399   4.536  0.3081 -0.1854  0.1884
    1SOL    HW211046   3.896   2.477   4.586  2.6589 -0.2952  1.4891
    1SOL    HW311047   3.915   2.428   4.444 -2.5839  0.3867  0.4361
    1SOL    MW411048   3.915   2.413   4.530  0.2370 -0.1242  0.3929
    1SOL     OW11049   4.052   3.964   4.229  0.2143  0.2629 -0.0982
    1SOL    HW211050   4.128   3.906   4.227 -0.4121 -0.6047  0.6781
    1SOL    HW311051   4.015   3.952   4.317 -2.4575 -1.5226 -1.4069
    1SOL    MW411052   4.057   3.955   4.240 -0.2203 -0.0873 -0.1683
    1SOL     OW11053   3.244   3.991   4.523  0.2244  0.2224 -0.1377
    1SOL    HW211054   3.338   3.980   4.534  0.3144  0.0981 -1.0095
    1SOL    HW311055   3.229   4.085   4.536  0.3758  0.1389  0.6505
    1SOL    MW411056   3.254   4.002   4.526  0.2563  0.1950 -0.1488
    1SOL     OW11057   0.522   0.084   4.787  0.4038  0.6039 -0.0421
    1SOL    HW211058   0.525   0.044   4.874  0.3637  0.9387  0.1125
    1SOL    HW311059   0.514   0.177   4.804 -1.1253  0.5551 -0.4240
    1SOL    MW411060   0.522   0.091   4.801  0.1968  0.6417 -0.0725
    1SOL     OW11061   0.925   2.818   4.468 -0.0751  0.4979 -0.2767
    1SOL    HW211062   0.963   2.742   4.513 -0.6398 -0.1279 -0.8606
    1SOL    HW311063   0.831   2.799   4.463 -0.0005  0.5000 -1.8501
    1SOL    MW411064   0.918   2.806   4.474 -0.1398  0.4158 -0.5612
    1SOL     OW11065   0.140   2.495   4.475  0.4995  0.1574  0.1697
    1SOL    HW211066   0.186   2.579   4.479 -0.1786  0.4581  1.7685
    1SOL    HW311067   0.209   2.429   4.491  1.0057  0.4021 -0.9589
    1SOL    MW411068   0.155   2.497   4.478  0.4769  0.2294  0.2317
    1SOL     OW11069   1.618   1.862   4.740  0.2915  0.2269  0.4151
    1SOL    HW211070   1.541   1.860   4.797  0.1204  0.1136  0.1835
    1SOL    HW311071   1.582   1.877   4.653  0.5798  0.7415  0.3877
    1SOL    MW411072   1.603   1.863   4.736  0.3068  0.2797  0.3810
    1SOL     OW11073   0.474   0.886   4.264  0.1659 -0.2174  0.1489
    1SOL    HW211074   0.540   0.824   4.234  0.4924  0.5225 -0.6798
    1SOL    HW311075   0.393   0.857   4.223  0.3409 -0.0352 -0.3310
    1SOL    MW411076   0.472   0.874   4.255  0.2321 -0.0957 -0.0238
    1SOL     OW11077   2.459   1.760   4.242  0.2022  0.1221  0.1446
    1SOL    HW211078   2.426   1.701   4.309  0.7221 -0.0543  0.2471
    1SOL    HW311079   2.381   1.804   4.208  0.1669  2.1040  2.6624
    1SOL    MW411080   2.444   1.758   4.246  0.2661  0.3603  0.4902
    1SOL     OW11081   3.195   2.532   4.512  0.4307  0.0703 -0.6303
    1SOL    HW211082   3.253   2.604   4.535 -0.1898  0.5612 -0.5856
    1SOL    HW311083   3.109   2.558   4.547  0.0490 -0.3497 -1.2432
    1SOL    MW411084   3.191   2.545   4.520  0.2985  0.0796 -0.7048
    1SOL     OW11085   2.290   2.457   4.707 -0.1916 -0.2818  0.3841
    1SOL    HW211086   2.313   2.465   4.614 -0.4015  0.1945  0.3673
    1SOL    HW311087   2.371   2.427   4.749 -0.2693 -1.0867 -0.0387
    1SOL    MW411088   2.304   2.454   4.700 -0.2294 -0.3250  0.3257
    1SOL     OW11089   1.161   1.248   4.224 -0.0720 -0.1641  0.0067
    1SOL    HW211090   1.244   1.211   4.195  1.0130  1.1794  1.2882
    1SOL    HW311091   1.167   1.247   4.320 -1.3999  0.2293  0.0961
    1SOL    MW411092   1.173   1.243   4.233 -0.1042  0.0651  0.1879
    1SOL     OW11093   2.896   1.352   4.521 -0.0790  0.0183 -0.2306
    1SOL    HW211094   2.917   1.298   4.445  1.5467 -0.5296  0.5764
    1SOL    HW311095   2.894   1.291   4.594  1.9335  1.0538  0.7248
    1SOL    MW411096   2.899   1.337   4.521  0.4010  0.0825  0.0024
    1SOL     OW11097   1.901   4.026   4.343  0.1182  0.3299 -0.6929
    1SOL    HW211098   1.870   4.092   4.280  0.5672  0.9081 -0.3197
    1SOL    HW311099   1.929   4.077   4.419  0.8381 -0.2626 -0.5480
    1SOL    MW411100   1.901   4.042   4.345  0.2724  0.3285 -0.6247
    1SOL     OW11101   4.019   0.890   4.275 -0.3627  0.1973  0.2547
    1SOL    HW211102   3.965   0.821   4.237  0.0587  0.2154 -0.3786
    1SOL    HW311103   4.107   0.873   4.242  0.1616 -0.2177  1.8015
    1SOL    MW411104   4.024   0.878   4.266 -0.2375  0.1449  0.3753
    1SOL     OW11105   0.228   0.479   4.184  0.6305  0.0526 -0.5229
    1SOL    HW211106   0.145   0.435   4.166  0.0941  0.8747 -0.0795
    1SOL    HW311107   0.294   0.417   4.155 -0.1413 -0.5180 -1.0973
    1SOL    MW411108   0.225   0.465   4.178  0.4579  0.0857 -0.5403
    1SOL     OW11109   0.907   3.092   4.518 -0.4556 -0.1061  0.0611
    1SOL    HW211110   0.932   3.001   4.508  0.1107  0.2535 -2.0018
    1SOL    HW311111   0.818   3.089   4.553 -0.5340 -1.4337 -0.2461
    1SOL    MW411112   0.899   3.080   4.521 -0.3912 -0.2339 -0.2513
    1SOL     OW11113   1.681   3.897   4.487  0.2740 -0.2200  0.4788
    1SOL    HW211114   1.766   3.929   4.458  0.2643 -0.9963 -0.4139
    1SOL    HW311115   1.621   3.969   4.467  0.6209  0.0976  0.5737
    1SOL    MW411116   1.684   3.911   4.481  0.3184 -0.2804  0.3734
    1SOL     OW11117   4.476   3.982   4.340  0.1781 -0.1634  0.2133
    1SOL    HW211118   4.416   3.940   4.279  0.1302 -0.7805  0.6827
    1SOL    HW311119   4.499   4.065   4.298 -1.1940  0.1901  0.1504
    1SOL    MW411120   4.471   3.987   4.327 -0.0095 -0.1981  0.2666
    1SOL     OW11121   0.547   4.595   4.376 -0.2216  0.4186  0.1117
    1SOL    HW211122   0.588   4.510   4.359  0.3401  0.6666  0.2032
    1SOL    HW311123   0.522   4.626   4.289  2.4852  1.6007 -0.3006
    1SOL    MW411124   0.549   4.588   4.362  0.2097  0.6075  0.0691
    1SOL     OW11125   0.478   3.371   4.648 -0.3872  0.2238  0.5698
    1SOL    HW211126   0.445   3.414   4.726 -2.0864  0.4419 -0.2560
    1SOL    HW311127   0.535   3.436   4.607  1.0283 -0.1115  1.9200
    1SOL    MW411128   0.481   3.385   4.653 -0.4247  0.2086  0.6390
    1SOL     OW11129   4.476   0.342   4.171 -0.3295  0.4075 -0.0032
    1SOL    HW211130   4.463   0.331   4.077  1.2358 -0.2167 -0.1673
    1SOL    HW311131   4.411   0.407   4.197 -2.6337 -1.4303 -0.9973
    1SOL    MW411132   4.466   0.349   4.162 -0.4272  0.0827 -0.1559
    1SOL     OW11133   1.356   1.873   4.089  0.1201 -0.0190  0.5083
    1SOL    HW211134   1.434   1.913   4.129 -0.0100  0.9918 -0.2192
    1SOL    HW311135   1.351   1.786   4.128  1.0037  0.3031  1.3668
    1SOL    MW411136   1.366   1.867   4.099  0.2195  0.1569  0.5245
    1SOL     OW11137   1.651   3.101   4.135  0.1253  0.1240  0.5141
    1SOL    HW211138   1.576   3.150   4.170 -1.0698  0.7141 -2.6561
    1SOL    HW311139   1.631   3.010   4.153 -1.8015  0.2111 -0.9767
    1SOL    MW411140   1.638   3.096   4.142 -0.2865  0.2134 -0.1011
    1SOL     OW11141   2.440   3.571   4.303  0.0514 -0.6877  0.0784
    1SOL    HW211142   2.366   3.527   4.260 -1.2750  0.7074  0.8814
    1SOL    HW311143   2.433   3.544   4.395  0.7249 -0.7819  0.1029
    1SOL    MW411144   2.429   3.562   4.310 -0.0348 -0.5159  0.1879
    1SOL     OW11145   2.552   2.378   4.221  0.3611  0.4509 -0.0683
    1SOL    HW211146   2.477   2.384   4.281 -1.2346  1.2527 -2.0822
    1SOL    HW311147   2.516   2.334   4.143  2.6179 -1.3692 -0.1298
    1SOL    MW411148   2.537   2.373   4.219  0.4482  0.3166 -0.3424
    1SOL     OW11149   0.153   4.110   4.561 -0.2531  0.3989  0.5851
    1SOL    HW211150   0.095   4.074   4.493  1.4848  0.4590 -0.9946
    1SOL    HW311151   0.136   4.204   4.561 -0.0571  0.4367  0.0123
    1SOL    MW411152   0.143   4.117   4.552  0.0021  0.4115  0.3014
    1SOL     OW11153   0.885   2.409   4.165 -0.2516 -0.1300  0.6353
    1SOL    HW211154   0.817   2.350   4.133 -0.4442 -0.3112  1.3711
    1SOL    HW311155   0.967   2.369   4.136 -0.4841  0.5780 -1.0709
    1SOL    MW411156   0.887   2.396   4.157 -0.3076 -0.0606  0.5074
    1SOL     OW11157   2.227   1.861   4.118 -0.1314 -0.3236 -0.0892
    1SOL    HW211158   2.208   1.947   4.154 -1.6249 -0.7717  0.2070
    1SOL    HW311159   2.242   1.877   4.025 -1.8134  0.0718 -0.3080
    1SOL    MW411160   2.227   1.874   4.111 -0.5505 -0.3306 -0.0796
    1SOL     OW11161   2.274   4.002   4.552  0.3658 -0.4691 -0.1304
    1SOL    HW211162   2.255   4.011   4.459  1.4331 -1.4389 -0.4610
    1SOL    HW311163   2.190   4.015   4.595 -0.3161 -0.9306 -1.2953
    1SOL    MW411164   2.260   4.005   4.546  0.4165 -0.6580 -0.3271
    1SOL     OW11165   4.016   1.440   4.443  0.2189  0.0216  0.0766
    1SOL    HW211166   3.971   1.495   4.507 -0.4307 -0.4985  0.0722
    1SOL    HW311167   3.955   1.368   4.427  0.3720  0.1505 -1.1213
    1SOL    MW411168   4.002   1.438   4.449  0.1535 -0.0300 -0.0820
    1SOL     OW11169   3.792   1.588   4.181  0.3329  0.3149  0.3845
    1SOL    HW211170   3.722   1.629   4.231  0.8726 -0.8828  2.1322
    1SOL    HW311171   3.870   1.638   4.204  0.3743  0.5725 -0.2771
    1SOL    MW411172   3.793   1.600   4.191  0.4094  0.1910  0.5279
    1SOL     OW11173   4.315   1.246   4.194 -0.3388 -0.1292  0.3832
    1SOL    HW211174   4.237   1.202   4.160 -0.6950 -0.0144  1.0470
    1SOL    HW311175   4.294   1.264   4.285 -0.7902  2.7600 -0.2421
    1SOL    MW411176   4.302   1.242   4.201 -0.4454  0.2670  0.3886
    1SOL     OW11177   2.249   0.106   4.251 -0.0506  0.0700 -0.2712
    1SOL    HW211178   2.323   0.051   4.222  1.8398  2.2644  0.2748
    1SOL    HW311179   2.266   0.122   4.344 -0.4434  1.7750 -0.4866
    1SOL    MW411180   2.261   0.101   4.259  0.1471  0.5845 -0.2279
    1SOL     OW11181   0.696   1.359   4.512  0.1172  0.2376  0.1556
    1SOL    HW211182   0.765   1.425   4.519  0.3685 -0.1363  1.4478
    1SOL    HW311183   0.730   1.284   4.561 -0.3534 -0.6860 -0.9211
    1SOL    MW411184   0.710   1.358   4.520  0.0882  0.0665  0.1841
    1SOL     OW11185   1.339   0.913   4.535 -0.3956  0.3208  0.2350
    1SOL    HW211186   1.337   0.919   4.439  0.7900 -0.9203  0.1299
    1SOL    HW311187   1.416   0.963   4.560  0.3893 -0.9514  0.4009
    1SOL    MW411188   1.349   0.921   4.525 -0.1355 -0.0108  0.2432
    1SOL     OW11189   3.358   1.306   4.301 -0.3879 -0.2298 -0.1510
    1SOL    HW211190   3.373   1.387   4.252 -0.4714 -0.7259 -1.0234
    1SOL    HW311191   3.289   1.261   4.252  1.0349 -1.7360 -0.8192
    1SOL    MW411192   3.351   1.310   4.288 -0.2112 -0.4940 -0.3543
    1SOL     OW11193   1.790   0.855   4.203 -0.1373  0.2124 -0.3273
    1SOL    HW211194   1.873   0.843   4.157 -0.0715 -0.2299 -0.1005
    1SOL    HW311195   1.816   0.890   4.289 -0.1864  0.0650 -0.2532
    1SOL    MW411196   1.805   0.858   4.209 -0.1353  0.1347 -0.2871
    1SOL     OW11197   1.805   1.734   4.188 -0.0717 -0.3107  0.3194
    1SOL    HW211198   1.887   1.693   4.161 -0.6062 -0.4468 -1.1023
    1SOL    HW311199   1.802   1.816   4.139 -0.9968 -0.5056  0.0459
    1SOL    MW411200   1.815   1.739   4.178 -0.2642 -0.3544  0.0958
    1SOL     OW11201   2.223   1.872   4.432 -0.3258  0.1065  0.3331
    1SOL    HW211202   2.135   1.908   4.428  0.5520  2.2544  0.0201
    1SOL    HW311203   2.271   1.916   4.361  0.6664 -1.9859 -0.3593
    1SOL    MW411204   2.218   1.882   4.422 -0.0789  0.1138  0.2003
    1SOL     OW11205   3.146   2.066   4.071 -0.0982  0.0762 -0.0533
    1SOL    HW211206   3.112   2.150   4.100  1.9434  0.6598  0.7771
    1SOL    HW311207   3.218   2.047   4.131  0.1154 -1.7836 -0.8507
    1SOL    MW411208   3.151   2.075   4.083  0.1996 -0.0923 -0.0486
    1SOL     OW11209   2.042   3.410   4.519 -0.3957 -0.2492 -0.2571
    1SOL    HW211210   2.029   3.485   4.460  1.2025  0.6976  0.5622
    1SOL    HW311211   1.955   3.371   4.527 -1.2817  1.5564 -0.6644
    1SOL    MW411212   2.028   3.415   4.512 -0.3016  0.1137 -0.2022
    1SOL     OW11213   1.763   2.401   4.316  0.4399  0.0694  0.0054
    1SOL    HW211214   1.790   2.324   4.366  2.7007  0.6375 -0.2631
    1SOL    HW311215   1.791   2.475   4.369  0.4609  0.6913 -0.8585
    1SOL    MW411216   1.770   2.401   4.329  0.7409  0.2265 -0.1440
    1SOL     OW11217   3.823   1.182   4.477 -0.4119 -0.0770  0.1128
    1SOL    HW211218   3.813   1.184   4.382  0.2383 -1.8184 -0.0230
    1SOL    HW311219   3.770   1.255   4.509 -1.8131 -0.3558 -1.4949
    1SOL    MW411220   3.814   1.192   4.469 -0.5109 -0.3436 -0.1173
    1SOL     OW11221   0.653   4.247   4.582  0.7600 -0.1259  0.1695
    1SOL    HW211222   0.674   4.259   4.675  2.2319 -0.9580 -0.0347
    1SOL    HW311223   0.587   4.177   4.581  1.2188 -0.5621  0.5428
    1SOL    MW411224   0.647   4.239   4.594  1.0146 -0.2933  0.1922
    1SOL     OW11225   2.889   2.283   4.533 -0.2608  0.1881 -0.0292
    1SOL    HW211226   2.840   2.276   4.452 -0.5362  0.0448  0.1509
    1SOL    HW311227   2.955   2.213   4.528  0.0989  0.5533 -0.3896
    1SOL    MW411228   2.891   2.273   4.522 -0.2499  0.2172 -0.0534
    1SOL     OW11229   2.916   3.109   4.168  0.5702 -0.2567 -0.2025
    1SOL    HW211230   2.909   3.095   4.073 -0.6670 -0.0295 -0.1451
    1SOL    HW311231   3.001   3.152   4.179  1.0907 -1.0013 -1.1219
    1SOL    MW411232   2.926   3.113   4.157  0.4759 -0.3250 -0.3166
    1SOL     OW11233   1.623   2.917   4.511 -0.3895  0.3710  0.1047
    1SOL    HW211234   1.710   2.943   4.539 -0.5795 -0.1117  1.1781
    1SOL    HW311235   1.568   2.993   4.530 -0.2262  0.6196 -0.4298
    1SOL    MW411236   1.627   2.930   4.517 -0.3930  0.3402  0.1755
    1SOL     OW11237   1.331   0.331   4.336 -0.5221  0.5637 -0.8127
    1SOL    HW211238   1.265   0.400   4.338 -1.1991 -0.0584 -1.0663
    1SOL    HW311239   1.414   0.376   4.319 -0.9547  1.3088 -0.9537
    1SOL    MW411240   1.333   0.346   4.334 -0.6686  0.5800 -0.8645
    1SOL     OW11241   1.079   1.418   4.695  0.0549  0.3386 -0.3598
    1SOL    HW211242   1.029   1.453   4.621  1.0841  1.1671 -0.6651
    1SOL    HW311243   1.138   1.489   4.720 -0.0567 -0.0520  1.0572
    1SOL    MW411244   1.080   1.432   4.689  0.1760  0.3964 -0.2131
    1SOL     OW11245   0.214   2.770   4.513 -0.4382 -0.0431  0.0735
    1SOL    HW211246   0.226   2.790   4.420  0.7782 -0.3620  0.1597
    1SOL    HW311247   0.124   2.799   4.532 -0.3864  0.8421 -0.9810
    1SOL    MW411248   0.203   2.777   4.503 -0.2709  0.0315 -0.0544
    1SOL     OW11249   3.359   2.071   4.247 -0.1483  0.2102 -0.0556
    1SOL    HW211250   3.391   2.155   4.213  0.0116  0.1819  0.0225
    1SOL    HW311251   3.396   2.066   4.335  0.8067 -0.4767 -0.4811
    1SOL    MW411252   3.368   2.082   4.254 -0.0012  0.1156 -0.1016
    1SOL     OW11253   3.812   4.144   4.599 -0.5325 -0.2591  0.3182
    1SOL    HW211254   3.887   4.190   4.637 -0.7477  1.3601 -1.1795
    1SOL    HW311255   3.851   4.068   4.555  0.0377 -0.4322  1.1242
    1SOL    MW411256   3.827   4.140   4.598 -0.4857 -0.0682  0.2275
    1SOL     OW11257   3.303   3.524   4.539 -0.4098 -0.1799  0.1525
    1SOL    HW211258   3.259   3.605   4.564  0.9055  0.2738  1.0232
    1SOL    HW311259   3.384   3.524   4.589  0.2946 -1.3165 -0.9554
    1SOL    MW411260   3.308   3.535   4.549 -0.1435 -0.2699  0.1216
    1SOL     OW11261   0.092   3.858   4.737 -0.0173 -0.5874 -0.0661
    1SOL    HW211262   0.102   3.945   4.699  0.9186 -0.8584 -0.4600
    1SOL    HW311263  -0.003   3.841   4.733 -0.0894 -0.0230 -0.9661
    1SOL    MW411264   0.080   3.867   4.731  0.0966 -0.5488 -0.2370
    1SOL     OW11265   3.168   0.341   4.164 -0.0453 -0.4517  0.0047
    1SOL    HW211266   3.093   0.378   4.210 -1.1322 -0.5179 -1.6634
    1SOL    HW311267   3.240   0.402   4.182 -0.1957 -0.9947  2.5432
    1SOL    MW411268   3.167   0.354   4.172 -0.2091 -0.5321  0.1197
    1SOL     OW11269   0.210   3.088   4.135  0.2733 -0.1578 -0.3220
    1SOL    HW211270   0.277   3.149   4.166  0.1298 -0.1507 -0.0155
    1SOL    HW311271   0.131   3.113   4.184 -0.0043 -0.0244 -0.8417
    1SOL    MW411272   0.208   3.099   4.146  0.2177 -0.1395 -0.3500
    1SOL     OW11273   1.564   1.062   4.575 -0.1759 -0.8549 -0.4015
    1SOL    HW211274   1.648   1.030   4.543  0.0194 -1.0847  0.3433
    1SOL    HW311275   1.547   1.141   4.523 -0.1003 -1.4959 -1.4205
    1SOL    MW411276   1.573   1.068   4.564 -0.1402 -0.9699 -0.4377
    1SOL     OW11277   2.229   3.458   4.191 -0.4332 -0.0571 -0.0928
    1SOL    HW211278   2.217   3.363   4.202  1.0386 -0.3256 -0.5516
    1SOL    HW311279   2.149   3.497   4.225 -0.4177 -1.3880  1.5308
    1SOL    MW411280   2.217   3.450   4.197 -0.2372 -0.2682  0.0606
    1SOL     OW11281   3.522   1.133   4.688 -0.0318 -0.0177 -0.0653
    1SOL    HW211282   3.552   1.054   4.645 -0.0413  0.4343 -0.9223
    1SOL    HW311283   3.570   1.136   4.770 -0.7704 -1.4351  0.4422
    1SOL    MW411284   3.532   1.123   4.693 -0.1304 -0.1452 -0.1111
    1SOL     OW11285   2.223   0.882   4.453  0.1396  0.1918 -0.5546
    1SOL    HW211286   2.238   0.965   4.498 -0.7712 -0.4762  1.0488
    1SOL    HW311287   2.311   0.852   4.430  0.6392  0.5647  0.8014
    1SOL    MW411288   2.237   0.889   4.456  0.0854  0.1529 -0.1645
    1SOL     OW11289   4.339   3.074   4.607 -0.5151 -0.3391  0.3211
    1SOL    HW211290   4.414   3.132   4.621 -0.0181 -0.9083  0.0060
    1SOL    HW311291   4.377   2.988   4.592 -1.2205 -0.5735 -0.1551
    1SOL    MW411292   4.354   3.071   4.607 -0.5426 -0.4449  0.2165
    1SOL     OW11293   2.277   0.367   4.160  0.3723 -0.2980  0.3359
    1SOL    HW211294   2.280   0.355   4.065  0.5178 -0.3510  0.3472
    1SOL    HW311295   2.280   0.278   4.196  0.9249 -0.2501  0.4069
    1SOL    MW411296   2.277   0.354   4.152  0.4642 -0.2986  0.3467
    1SOL     OW11297   3.632   0.927   4.241 -0.1341  0.2101 -0.1879
    1SOL    HW211298   3.565   0.874   4.196 -0.4141 -0.6046  1.1570
    1SOL    HW311299   3.617   1.016   4.208  0.4096 -0.5324 -2.5622
    1SOL    MW411300   3.621   0.932   4.231 -0.0992  0.0047 -0.3238
    1SOL     OW11301   0.470   2.922   4.524  0.5074 -0.4414  0.0666
    1SOL    HW211302   0.399   2.871   4.563  0.4682  0.1194  0.7140
    1SOL    HW311303   0.529   2.855   4.487  0.1141 -0.9355  0.3261
    1SOL    MW411304   0.469   2.906   4.524  0.4504 -0.4330  0.1860
    1SOL     OW11305   2.311   1.620   4.435  0.6394  0.1123  0.0103
    1SOL    HW211306   2.352   1.619   4.522 -0.7615 -1.2752  0.7042
    1SOL    HW311307   2.267   1.705   4.430 -1.7230 -0.9192  1.9248
    1SOL    MW411308   2.310   1.631   4.446  0.1428 -0.2068  0.3538
    1SOL     OW11309   0.914   1.621   4.221  0.2884  0.0420 -0.4942
    1SOL    HW211310   0.828   1.600   4.186  0.6818 -0.9149 -0.8735
    1SOL    HW311311   0.916   1.717   4.222 -0.8912  0.0736 -0.2042
    1SOL    MW411312   0.903   1.631   4.217  0.1846 -0.0800 -0.5059
    1SOL     OW11313   3.567   1.722   4.290 -0.3452  0.5043 -0.3325
    1SOL    HW211314   3.548   1.751   4.379 -0.3066  0.1275 -0.2052
    1SOL    HW311315   3.505   1.652   4.273  0.7641 -0.5652 -0.0026
    1SOL    MW411316   3.556   1.717   4.300 -0.1936  0.3134 -0.2728
    1SOL     OW11317   3.317   2.802   4.269  0.1746  0.0387 -0.0540
    1SOL    HW211318   3.255   2.739   4.233 -0.5197  0.9650 -0.5057
    1SOL    HW311319   3.304   2.797   4.364 -0.3080 -0.0724 -0.1247
    1SOL    MW411320   3.307   2.793   4.277  0.0193  0.1466 -0.1230
    1SOL     OW11321   3.800   2.116   4.530  0.0076  0.1132 -0.4990
    1SOL    HW211322   3.802   2.121   4.435 -0.1665  1.2702 -0.4531
    1SOL    HW311323   3.828   2.203   4.559 -0.9089  0.0908  0.4993
    1SOL    MW411324   3.804   2.129   4.522 -0.1364  0.2630 -0.3614
    1SOL     OW11325   0.477   0.348   4.816 -0.0632 -0.3547  0.0255
    1SOL    HW211326   0.432   0.341   4.732  1.0022  0.2193 -0.6012
    1SOL    HW311327   0.482   0.442   4.834  0.2418 -0.4486  0.4504
    1SOL    MW411328   0.472   0.359   4.808  0.1176 -0.2913 -0.0019
    1SOL     OW11329   1.606   4.302   4.272 -0.1436  0.4839  0.1258
    1SOL    HW211330   1.671   4.279   4.205  0.2242  1.0244  0.2911
    1SOL    HW311331   1.522   4.280   4.232  0.1382 -0.1094 -0.1376
    1SOL    MW411332   1.603   4.296   4.258 -0.0579  0.4768  0.1130
    1SOL     OW11333   3.034   1.903   4.259  0.3664 -0.7888 -0.2015
    1SOL    HW211334   2.940   1.901   4.238 -0.1052 -0.1270  1.7392
    1SOL    HW311335   3.070   1.968   4.199 -0.7964  0.4723  0.4326
    1SOL    MW411336   3.026   1.911   4.249  0.1509 -0.5351  0.1378
    1SOL     OW11337   3.592   1.202   4.171  0.4518 -0.0645  0.0066
    1SOL    HW211338   3.564   1.210   4.080  0.5034  0.3267  0.0256
    1SOL    HW311339   3.515   1.225   4.222  0.9265  1.4433  0.0588
    1SOL    MW411340   3.578   1.206   4.166  0.5214  0.1860  0.0162
    1SOL     OW11341   1.806   0.375   4.158 -0.3348  0.2012  0.2899
    1SOL    HW211342   1.728   0.418   4.193  0.3449 -0.0613  2.1656
    1SOL    HW311343   1.806   0.289   4.198  0.1472 -0.3294 -0.8331
    1SOL    MW411344   1.796   0.370   4.168 -0.1814  0.0965  0.3886
    1SOL     OW11345   3.379   4.343   4.309  0.2085  0.0819 -0.5363
    1SOL    HW211346   3.425   4.339   4.393 -2.4361 -0.5372  0.9116
    1SOL    HW311347   3.381   4.435   4.285  0.8494  0.2885  0.2797
    1SOL    MW411348   3.386   4.354   4.317 -0.0560  0.0272 -0.2370
    1SOL     OW11349   2.515   0.470   4.242  0.2922  0.0245  0.0310
    1SOL    HW211350   2.525   0.555   4.199  3.5629 -0.1331  0.3453
    1SOL    HW311351   2.434   0.434   4.205 -0.5545  2.7695 -0.9367
    1SOL    MW411352   2.506   0.477   4.231  0.6118  0.3658 -0.0548
    1SOL     OW11353   2.665   2.619   4.164 -0.0757 -0.3002  0.2314
    1SOL    HW211354   2.603   2.689   4.187  0.3953  0.4931 -0.8785
    1SOL    HW311355   2.617   2.539   4.183 -0.1931  0.3017  2.6926
    1SOL    MW411356   2.651   2.618   4.169 -0.0291 -0.1161  0.4101
    1SOL     OW11357   2.544   1.231   4.321  0.2097  0.2840  0.2332
    1SOL    HW211358   2.591   1.231   4.238  0.2610  0.4887  0.2611
    1SOL    HW311359   2.573   1.311   4.365 -2.0401  1.7190 -0.8020
    1SOL    MW411360   2.554   1.242   4.316 -0.0803  0.5003  0.0997
    1SOL     OW11361   3.140   3.521   4.105  0.1651 -0.1547 -0.3991
    1SOL    HW211362   3.119   3.522   4.011  0.0039  1.3406 -0.3521
    1SOL    HW311363   3.058   3.543   4.148  0.3935 -0.2325  0.0778
    1SOL    MW411364   3.126   3.524   4.098  0.1740  0.0322 -0.3300
    1SOL     OW11365   3.917   3.498   4.544 -0.0440 -0.2500  0.3041
    1SOL    HW211366   3.909   3.509   4.450 -0.1905 -0.1735  0.3242
    1SOL    HW311367   3.939   3.406   4.556 -1.0459 -0.5006  0.2511
    1SOL    MW411368   3.919   3.488   4.533 -0.1957 -0.2725  0.2999
    1SOL     OW11369   3.834   1.314   4.220  0.6709 -0.3859  0.0675
    1SOL    HW211370   3.832   1.406   4.194  0.3953 -0.9294 -1.9522
    1SOL    HW311371   3.746   1.281   4.199  0.8522 -1.1748  0.5072
    1SOL    MW411372   3.822   1.322   4.214  0.6583 -0.5618 -0.1411
    1SOL     OW11373   3.130   1.641   4.227  0.2562  0.2452 -0.1732
    1SOL    HW211374   3.122   1.603   4.315 -0.0916 -0.9022 -0.6902
    1SOL    HW311375   3.097   1.730   4.237  2.4634  0.9334  1.3832
    1SOL    MW411376   3.124   1.647   4.240  0.5014  0.1845 -0.0362
    1SOL     OW11377   3.767   4.418   4.507 -0.0044  0.2103 -0.2793
    1SOL    HW211378   3.754   4.324   4.520 -0.5514  0.3412  0.1545
    1SOL    HW311379   3.844   4.440   4.560  0.0896  0.0191 -0.3368
    1SOL    MW411380   3.775   4.409   4.515 -0.0644  0.2022 -0.2298
    1SOL     OW11381   2.924   1.474   4.121 -0.1562  0.4094  0.2391
    1SOL    HW211382   2.853   1.510   4.175 -1.1535  0.0655 -0.8136
    1SOL    HW311383   2.998   1.532   4.139 -1.2604  2.0059 -0.1575
    1SOL    MW411384   2.924   1.487   4.131 -0.4332  0.5747  0.0482
    1SOL     OW11385   4.287   0.530   4.250 -0.2298 -0.2772  0.5495
    1SOL    HW211386   4.258   0.612   4.209  0.5185  0.2928  1.1445
    1SOL    HW311387   4.221   0.466   4.224 -0.1668  0.2359 -0.9524
    1SOL    MW411388   4.274   0.532   4.241 -0.1230 -0.1343  0.4301
    1SOL     OW11389   3.924   0.489   4.545  0.5533  0.2950  0.0535
    1SOL    HW211390   3.836   0.453   4.549  0.9227 -0.4378  3.0219
    1SOL    HW311391   3.913   0.583   4.562  0.2858  0.2811 -0.0553
    1SOL    MW411392   3.911   0.497   4.548  0.5667  0.1965  0.4311
    1SOL     OW11393   2.075   3.119   4.156  0.8225 -0.6202  0.1666
    1SOL    HW211394   2.052   3.030   4.183  1.7939 -1.1212 -0.6123
    1SOL    HW311395   2.006   3.174   4.193 -0.5445 -1.8551 -0.4773
    1SOL    MW411396   2.063   3.114   4.164  0.7706 -0.8492 -0.0210
    1SOL     OW11397   1.547   1.538   4.635 -0.1277 -0.5607 -0.6461
    1SOL    HW211398   1.572   1.608   4.574  0.7047 -2.0105 -2.0264
    1SOL    HW311399   1.625   1.525   4.689 -0.2713 -0.4348 -0.4110
    1SOL    MW411400   1.561   1.546   4.634 -0.0368 -0.7353 -0.7968
    1SOL     OW11401   0.912   1.555   4.502  0.6066  0.2577  0.0262
    1SOL    HW211402   0.919   1.552   4.406  2.2564 -0.9357  0.1553
    1SOL    HW311403   0.924   1.647   4.524 -0.6742  0.6812 -0.9605
    1SOL    MW411404   0.915   1.566   4.492  0.6552  0.1563 -0.0868
    1SOL     OW11405   2.884   0.660   4.440 -0.3993 -0.5305 -0.3304
    1SOL    HW211406   2.807   0.650   4.496  1.5194 -2.0483  2.1937
    1SOL    HW311407   2.881   0.751   4.410 -1.4796  0.3846  2.3600
    1SOL    MW411408   2.874   0.671   4.444 -0.2885 -0.6100  0.3576
    1SOL     OW11409   3.435   0.780   4.118  0.1918 -0.2748  0.3068
    1SOL    HW211410   3.438   0.687   4.143 -1.1123 -0.5321 -0.4544
    1SOL    HW311411   3.353   0.812   4.155  0.4726  0.4976  0.2748
    1SOL    MW411412   3.425   0.772   4.127  0.0567 -0.2068  0.2027
    1SOL     OW11413   4.311   0.686   4.668  0.2960 -0.1629 -0.1404
    1SOL    HW211414   4.337   0.612   4.613 -1.0162  0.4676 -1.6565
    1SOL    HW311415   4.265   0.745   4.608  1.4066  1.9282  1.0209
    1SOL    MW411416   4.308   0.684   4.653  0.2689  0.1961 -0.1879
    1SOL     OW11417   2.461   2.349   3.805 -0.4395 -0.2491  0.3442
    1SOL    HW211418   2.417   2.333   3.888 -1.0319 -0.3104  0.0221
    1SOL    HW311419   2.462   2.263   3.762  1.2593 -0.5576  0.9503
    1SOL    MW411420   2.455   2.335   3.810 -0.2935 -0.2980  0.3815
    1SOL     OW11421   2.288   4.423   4.654  0.5185  0.4020 -0.0484
    1SOL    HW211422   2.260   4.452   4.741  0.7664 -1.6587  0.7681
    1SOL    HW311423   2.209   4.423   4.601  0.2552  1.1197  0.3479
    1SOL    MW411424   2.274   4.427   4.659  0.5167  0.2251  0.1116
    1SOL     OW11425   3.633   1.377   4.557 -0.1241  0.4631  0.2278
    1SOL    HW211426   3.573   1.316   4.599 -1.9459  1.1899 -1.2952
    1SOL    HW311427   3.622   1.459   4.606  0.6045  0.2451  0.7727
    1SOL    MW411428   3.624   1.379   4.569 -0.2682  0.5300  0.0987
    1SOL     OW11429   3.186   0.086   4.304  0.0131  0.5086  0.4648
    1SOL    HW211430   3.180   0.159   4.243  2.4488  0.1864 -0.1873
    1SOL    HW311431   3.157   0.122   4.388 -1.4927  1.4519 -0.4270
    1SOL    MW411432   3.181   0.100   4.307  0.1357  0.5906  0.2608
    1SOL     OW11433   2.662   3.517   4.157 -0.3607  0.0835  0.2911
    1SOL    HW211434   2.742   3.545   4.202 -0.7854  1.3271  0.3070
    1SOL    HW311435   2.592   3.533   4.221 -0.7711  0.2569 -0.1932
    1SOL    MW411436   2.663   3.523   4.172 -0.4711  0.2704  0.2294
    1SOL     OW11437   1.077   3.855   4.150 -0.3015 -0.5641  0.0035
    1SOL    HW211438   1.147   3.904   4.192 -0.6559  0.1884 -0.2707
    1SOL    HW311439   1.084   3.767   4.185 -1.2644  0.2935  2.4523
    1SOL    MW411440   1.087   3.850   4.160 -0.4753 -0.3514  0.2904
    1SOL     OW11441   0.177   0.528   4.451  0.1578 -0.3672  0.1580
    1SOL    HW211442   0.084   0.512   4.459  0.0087 -0.0150 -0.7546
    1SOL    HW311443   0.194   0.525   4.356  0.7589  1.1873  0.2000
    1SOL    MW411444   0.167   0.526   4.439  0.2174 -0.1156  0.0439
    1SOL     OW11445   0.733   2.018   4.269  0.0431  0.0366 -0.3175
    1SOL    HW211446   0.809   1.976   4.230  1.7852  0.4985  2.3937
    1SOL    HW311447   0.711   2.089   4.210  1.7376 -0.0965 -1.1222
    1SOL    MW411448   0.740   2.022   4.256  0.4966  0.0801 -0.0663
    1SOL     OW11449   0.482   2.679   4.151  0.0509 -0.2195 -0.0514
    1SOL    HW211450   0.474   2.680   4.055 -1.1184 -0.6346  0.0315
    1SOL    HW311451   0.400   2.717   4.182 -0.1791 -1.3879  0.8133
    1SOL    MW411452   0.470   2.684   4.142 -0.1337 -0.4282  0.0734
    1SOL     OW11453   1.357   2.404   4.230  0.0985 -0.0844  0.0262
    1SOL    HW211454   1.438   2.388   4.182 -0.1869 -1.5245 -0.0011
    1SOL    HW311455   1.343   2.498   4.223  1.1313  0.0041 -0.9881
    1SOL    MW411456   1.366   2.414   4.223  0.1972 -0.2627 -0.1116
    1SOL     OW11457   2.898   3.112   4.668  0.0053 -0.1343 -0.1758
    1SOL    HW211458   2.987   3.077   4.666  0.5934  1.2246  0.8869
    1SOL    HW311459   2.843   3.041   4.635  1.4181 -1.1938 -0.3038
    1SOL    MW411460   2.903   3.098   4.664  0.2694 -0.0947 -0.0529
    1SOL     OW11461   2.765   0.848   4.104  0.2036 -0.7415  0.5657
    1SOL    HW211462   2.822   0.835   4.028  0.2932 -0.4735  0.5871
    1SOL    HW311463   2.824   0.863   4.177  0.1047  1.9965  0.1508
    1SOL    MW411464   2.780   0.848   4.103  0.2019 -0.3449  0.5136
    1SOL     OW11465   0.364   0.017   4.553 -0.3700 -0.0808 -0.2598
    1SOL    HW211466   0.417   0.026   4.632 -0.2102  2.7022 -0.6335
    1SOL    HW311467   0.423  -0.024   4.490 -0.1644 -1.3420  0.7361
    1SOL    MW411468   0.379   0.013   4.555 -0.3218  0.1200 -0.1779
    1SOL     OW11469   0.086   3.250   4.545 -0.1624  0.0935 -0.3858
    1SOL    HW211470   0.173   3.223   4.515  0.1507  1.1669 -0.4830
    1SOL    HW311471   0.092   3.346   4.554 -1.2034  0.1351  0.0238
    1SOL    MW411472   0.098   3.259   4.542 -0.2584  0.2406 -0.3443
    1SOL     OW11473   3.164   3.286   4.490  0.1572 -0.2085  0.1996
    1SOL    HW211474   3.074   3.304   4.519  0.3124 -1.5129  1.5681
    1SOL    HW311475   3.211   3.367   4.510  0.1052 -0.8180  3.0950
    1SOL    MW411476   3.158   3.299   4.497  0.1707 -0.4609  0.7620
    1SOL     OW11477   1.500   1.308   4.442  0.4102  0.1494  0.4694
    1SOL    HW211478   1.514   1.392   4.488 -0.0039  0.8183 -0.6079
    1SOL    HW311479   1.407   1.290   4.456  0.4141  0.0614  0.3711
    1SOL    MW411480   1.490   1.317   4.450  0.3561  0.2260  0.3142
    1SOL     OW11481   1.336   1.885   4.776 -0.0019 -0.0234 -0.5352
    1SOL    HW211482   1.244   1.889   4.803  0.2424 -0.2143  0.3497
    1SOL    HW311483   1.360   1.976   4.758  0.2882  0.3342  1.5063
    1SOL    MW411484   1.327   1.898   4.777  0.0687 -0.0014 -0.1488
    1SOL     OW11485   3.985   2.071   4.117  0.1851  0.2444 -0.5066
    1SOL    HW211486   3.897   2.084   4.150  0.4849  1.6577 -0.2288
    1SOL    HW311487   4.027   2.014   4.182 -0.5313 -0.5116 -0.6900
    1SOL    MW411488   3.979   2.065   4.130  0.1302  0.3312 -0.4940
    1SOL     OW11489   2.939   4.644   4.186  0.3968 -0.1636  0.3725
    1SOL    HW211490   3.008   4.686   4.237  1.2179  0.1068 -0.9220
    1SOL    HW311491   2.952   4.550   4.201  1.3643 -0.1390 -0.2220
    1SOL    MW411492   2.950   4.637   4.195  0.6330 -0.1245  0.1230
    1SOL     OW11493   0.585   0.386   4.467  0.1701  0.1920 -0.0498
    1SOL    HW211494   0.503   0.368   4.513  0.4081  0.4650  0.4932
    1SOL    HW311495   0.634   0.304   4.472  0.2064  0.2295  0.2104
    1SOL    MW411496   0.581   0.373   4.474  0.2062  0.2330  0.0563
    1SOL     OW11497   1.511   4.083   4.427 -0.1484 -0.2304 -0.3290
    1SOL    HW211498   1.560   4.152   4.382 -2.2472  0.7843 -1.1459
    1SOL    HW311499   1.442   4.130   4.475  0.0820 -1.5538  1.3506
    1SOL    MW411500   1.508   4.099   4.428 -0.3949 -0.2718 -0.2155
    1SOL     OW11501   3.892   1.629   4.616 -0.1937 -0.1190  0.2270
    1SOL    HW211502   3.899   1.724   4.620  0.2620 -0.1536  0.2184
    1SOL    HW311503   3.820   1.608   4.676  1.3679  0.0170  2.2064
    1SOL    MW411504   3.883   1.639   4.624  0.0725 -0.1056  0.4864
    1SOL     OW11505   4.206   2.433   4.555 -0.3618  0.0056  0.0863
    1SOL    HW211506   4.116   2.403   4.568 -0.1382 -0.6993  0.0120
    1SOL    HW311507   4.197   2.527   4.536 -1.1735 -0.2971 -1.1123
    1SOL    MW411508   4.193   2.442   4.554 -0.4392 -0.1276 -0.0815
    1SOL     OW11509   2.758   3.877   4.535 -0.4577 -0.0074 -0.0817
    1SOL    HW211510   2.665   3.854   4.543 -0.2115 -0.9650  0.1872
    1SOL    HW311511   2.804   3.794   4.552  0.4299  0.3493 -0.7174
    1SOL    MW411512   2.752   3.863   4.539 -0.3078 -0.0865 -0.1302
    1SOL     OW11513   1.397   3.564   4.690 -0.2015  0.4780  0.4844
    1SOL    HW211514   1.448   3.644   4.700 -0.6775  1.0661 -1.4683
    1SOL    HW311515   1.314   3.594   4.652  0.4871 -1.1476 -2.5032
    1SOL    MW411516   1.393   3.579   4.686 -0.1736  0.3407 -0.1674
    1SOL     OW11517   1.782   3.518   4.145 -0.0560 -0.0777 -0.1187
    1SOL    HW211518   1.784   3.508   4.050 -2.2748  0.3804 -0.2335
    1SOL    HW311519   1.694   3.551   4.164  0.9532  1.5059  1.9338
    1SOL    MW411520   1.771   3.521   4.135 -0.2155  0.1917  0.1369
    1SOL     OW11521   1.545   1.921   4.462  0.0642 -0.1600 -0.5090
    1SOL    HW211522   1.459   1.879   4.455  0.0359  0.0221 -1.2353
    1SOL    HW311523   1.607   1.849   4.452  0.0174 -0.0058 -1.9653
    1SOL    MW411524   1.542   1.906   4.460  0.0542 -0.1156 -0.7973
    1SOL     OW11525   2.145   2.225   4.657  0.2395 -0.0363 -0.2948
    1SOL    HW211526   2.136   2.224   4.561 -1.1608  0.7066 -0.1914
    1SOL    HW311527   2.182   2.312   4.676 -0.1058  0.0675 -0.1073
    1SOL    MW411528   2.149   2.237   4.647  0.0091  0.0753 -0.2565
    1SOL     OW11529   0.870   3.468   4.228 -0.3941 -0.0049 -0.0091
    1SOL    HW211530   0.890   3.381   4.262 -0.9976  0.1359  0.7253
    1SOL    HW311531   0.868   3.458   4.133  0.3255 -0.6220  0.0434
    1SOL    MW411532   0.872   3.455   4.220 -0.3787 -0.0679  0.0944
    1SOL     OW11533   4.489   1.602   4.172  0.2872 -0.1854 -0.0855
    1SOL    HW211534   4.479   1.599   4.268 -0.0234 -1.0291 -0.1361
    1SOL    HW311535   4.407   1.566   4.139  0.9050 -1.1063 -0.6401
    1SOL    MW411536   4.477   1.597   4.180  0.3276 -0.4182 -0.1659
    1SOL     OW11537   4.071   2.961   4.617  0.1460 -0.1368 -0.0612
    1SOL    HW211538   4.147   3.016   4.600  1.2349 -0.9480  1.9859
    1SOL    HW311539   4.048   2.980   4.709  0.0087 -2.4441  0.4166
    1SOL    MW411540   4.078   2.971   4.627  0.2718 -0.5481  0.2718
    1SOL     OW11541   3.200   2.437   4.248 -0.3581  0.5160 -0.1960
    1SOL    HW211542   3.202   2.452   4.342 -1.9868 -0.2999 -0.0075
    1SOL    HW311543   3.120   2.386   4.233  0.5926 -0.5732 -1.8470
    1SOL    MW411544   3.190   2.432   4.258 -0.4475  0.2649 -0.3886
    1SOL     OW11545   0.019   4.192   4.167  0.2590 -0.2558  0.3059
    1SOL    HW211546  -0.050   4.239   4.212 -0.2027 -0.2681 -0.3816
    1SOL    HW311547   0.014   4.222   4.076  0.5154 -0.9819  0.0468
    1SOL    MW411548   0.009   4.202   4.161  0.2317 -0.3529  0.1812
    1SOL     OW11549   1.948   2.464   4.114  0.1027  0.0536 -0.3969
    1SOL    HW211550   1.894   2.419   4.179  0.2239 -2.7714 -2.1168
    1SOL    HW311551   2.037   2.460   4.149 -0.0465 -0.0810 -0.0327
    1SOL    MW411552   1.953   2.457   4.127  0.0991 -0.3366 -0.5765
    1SOL     OW11553   0.955   0.356   4.134  0.1408 -0.0873  0.3157
    1SOL    HW211554   0.996   0.417   4.195  0.3916 -0.9948  1.0605
    1SOL    HW311555   0.861   0.364   4.152  0.0282  1.3750 -0.8141
    1SOL    MW411556   0.948   0.365   4.145  0.1590 -0.0141  0.2651
    1NA      NA11557   3.148   4.030   0.489  0.2859 -0.5087  0.4340
    1NA      NA11558   0.907   2.450   0.729 -0.2869 -0.4553  0.4389
   4.49070   4.66690  10.00000
