GRoups of Organic Molecules in ACtion for Science
11587
    1A      O5'    1   2.494   2.206   5.426
    1A      H5T    2   2.567   2.153   5.469
    1A      C5'    3   2.529   2.344   5.426
    1A     H5'1    4   2.615   2.354   5.376
    1A     H5'2    5   2.542   2.373   5.521
    1A      C4'    6   2.418   2.424   5.360
    1A      H4'    7   2.447   2.519   5.348
    1A      O4'    8   2.387   2.365   5.231
    1A      C1'    9   2.247   2.363   5.216
    1A      H1'   10   2.228   2.413   5.131
    1A       N9   11   2.201   2.224   5.203
    1A       C8   12   2.275   2.108   5.209
    1A       H8   13   2.374   2.107   5.223
    1A       N7   14   2.204   1.999   5.194
    1A       C5   15   2.074   2.047   5.177
    1A       C6   16   1.952   1.981   5.156
    1A       N6   17   1.942   1.859   5.149
    1A      H61   18   2.023   1.802   5.158
    1A      H62   19   1.853   1.817   5.134
    1A       N1   20   1.843   2.066   5.143
    1A       C2   21   1.845   2.209   5.149
    1A       H2   22   1.762   2.264   5.139
    1A       N3   23   1.963   2.264   5.169
    1A       C4   24   2.071   2.183   5.182
    1A      C3'   25   2.291   2.411   5.443
    1A      H3'   26   2.285   2.329   5.500
    1A      C2'   27   2.181   2.427   5.338
    1A     H2'1   28   2.090   2.393   5.363
    1A      O2'   29   2.159   2.564   5.313
    1A     HO'2   30   2.116   2.606   5.393
    1A      O3'   31   2.284   2.519   5.536
    2G        P   32   2.281   2.488   5.694
    2G      O1P   33   2.235   2.611   5.763
    2G      O2P   34   2.412   2.428   5.730
    2G      O5'   35   2.168   2.376   5.710
    2G      C5'   36   2.030   2.408   5.694
    2G     H5'1   37   2.020   2.463   5.611
    2G     H5'2   38   2.001   2.461   5.773
    2G      C4'   39   1.949   2.281   5.683
    2G      H4'   40   1.852   2.305   5.674
    2G      O4'   41   1.994   2.205   5.567
    2G      C1'   42   2.003   2.068   5.603
    2G      H1'   43   1.947   2.017   5.538
    2G       N9   44   2.143   2.024   5.592
    2G       C8   45   2.255   2.077   5.651
    2G       H8   46   2.252   2.157   5.711
    2G       N7   47   2.365   2.014   5.622
    2G       C5   48   2.324   1.912   5.537
    2G       C6   49   2.393   1.810   5.471
    2G       O6   50   2.515   1.795   5.480
    2G       N1   51   2.313   1.726   5.394
    2G       H1   52   2.359   1.652   5.345
    2G       C2   53   2.172   1.736   5.378
    2G       N2   54   2.099   1.652   5.302
    2G      H21   55   2.144   1.577   5.253
    2G      H22   56   2.000   1.664   5.295
    2G       N3   57   2.112   1.834   5.443
    2G       C4   58   2.188   1.917   5.518
    2G      C3'   59   1.978   2.191   5.803
    2G      H3'   60   2.067   2.205   5.847
    2G      C2'   61   1.955   2.051   5.747
    2G     H2'1   62   1.995   1.975   5.799
    2G      O2'   63   1.817   2.022   5.747
    2G     HO'2   64   1.785   2.011   5.841
    2G      O3'   65   1.882   2.218   5.905
    2G      H3T   66   1.900   2.160   5.984
    3SOL     OW   67   0.355   0.147   0.481
    3SOL    HW2   68   0.448   0.161   0.466
    3SOL    HW3   69   0.312   0.218   0.433
    3SOL    MW4   70   0.361   0.158   0.472
    4SOL     OW   71   3.984   0.231   0.489
    4SOL    HW2   72   4.062   0.181   0.469
    4SOL    HW3   73   3.990   0.309   0.433
    4SOL    MW4   74   3.995   0.235   0.479
    5SOL     OW   75   3.790   0.311   0.132
    5SOL    HW2   76   3.714   0.293   0.075
    5SOL    HW3   77   3.773   0.260   0.211
    5SOL    MW4   78   3.777   0.302   0.135
    6SOL     OW   79   4.462   1.673   0.514
    6SOL    HW2   80   4.486   1.657   0.606
    6SOL    HW3   81   4.537   1.641   0.464
    6SOL    MW4   82   4.475   1.667   0.520
    7SOL     OW   83   1.324   0.826   0.288
    7SOL    HW2   84   1.230   0.835   0.306
    7SOL    HW3   85   1.328   0.792   0.199
    7SOL    MW4   86   1.312   0.822   0.279
    8SOL     OW   87   0.166   0.552   0.486
    8SOL    HW2   88   0.179   0.549   0.581
    8SOL    HW3   89   0.146   0.461   0.462
    8SOL    MW4   90   0.165   0.539   0.496
    9SOL     OW   91   0.416   0.913   0.476
    9SOL    HW2   92   0.438   0.886   0.565
    9SOL    HW3   93   0.397   0.831   0.430
    9SOL    MW4   94   0.416   0.898   0.482
   10SOL     OW   95   0.782   0.858   0.443
   10SOL    HW2   96   0.823   0.895   0.521
   10SOL    HW3   97   0.748   0.935   0.396
   10SOL    MW4   98   0.783   0.873   0.447
   11SOL     OW   99   0.624   1.042   0.308
   11SOL    HW2  100   0.594   1.056   0.219
   11SOL    HW3  101   0.545   1.018   0.357
   11SOL    MW4  102   0.610   1.041   0.303
   12SOL     OW  103   4.284   1.808   0.172
   12SOL    HW2  104   4.260   1.753   0.247
   12SOL    HW3  105   4.248   1.895   0.194
   12SOL    MW4  106   4.276   1.812   0.185
   13SOL     OW  107   4.213   1.628   0.400
   13SOL    HW2  108   4.153   1.695   0.432
   13SOL    HW3  109   4.295   1.643   0.448
   13SOL    MW4  110   4.216   1.639   0.411
   14SOL     OW  111   0.051   1.930   0.377
   14SOL    HW2  112   0.014   1.862   0.433
   14SOL    HW3  113   0.037   1.899   0.288
   14SOL    MW4  114   0.045   1.917   0.373
   15SOL     OW  115   0.157   2.495   0.334
   15SOL    HW2  116   0.106   2.477   0.255
   15SOL    HW3  117   0.248   2.491   0.306
   15SOL    MW4  118   0.162   2.492   0.320
   16SOL     OW  119   4.310   2.814   0.476
   16SOL    HW2  120   4.402   2.787   0.475
   16SOL    HW3  121   4.314   2.910   0.479
   16SOL    MW4  122   4.323   2.823   0.477
   17SOL     OW  123   4.284   3.411   0.438
   17SOL    HW2  124   4.223   3.343   0.468
   17SOL    HW3  125   4.356   3.362   0.399
   17SOL    MW4  126   4.285   3.395   0.437
   18SOL     OW  127   0.328   3.212   0.323
   18SOL    HW2  128   0.357   3.204   0.414
   18SOL    HW3  129   0.404   3.247   0.276
   18SOL    MW4  130   0.342   3.216   0.329
   19SOL     OW  131   0.844   3.411   0.387
   19SOL    HW2  132   0.892   3.457   0.317
   19SOL    HW3  133   0.818   3.480   0.448
   19SOL    MW4  134   0.847   3.426   0.386
   20SOL     OW  135   0.972   3.808   0.287
   20SOL    HW2  136   1.030   3.884   0.296
   20SOL    HW3  137   0.890   3.835   0.328
   20SOL    MW4  138   0.969   3.821   0.294
   21SOL     OW  139   3.815   3.350   0.431
   21SOL    HW2  140   3.817   3.439   0.468
   21SOL    HW3  141   3.905   3.334   0.403
   21SOL    MW4  142   3.827   3.360   0.432
   22SOL     OW  143   4.479   3.850   0.448
   22SOL    HW2  144   4.403   3.795   0.467
   22SOL    HW3  145   4.446   3.939   0.455
   22SOL    MW4  146   4.465   3.854   0.451
   23SOL     OW  147   0.203   4.545   0.507
   23SOL    HW2  148   0.251   4.623   0.480
   23SOL    HW3  149   0.199   4.490   0.429
   23SOL    MW4  150   0.208   4.548   0.493
   24SOL     OW  151   0.108   4.393   0.282
   24SOL    HW2  152   0.020   4.370   0.312
   24SOL    HW3  153   0.100   4.402   0.187
   24SOL    MW4  154   0.095   4.392   0.273
   25SOL     OW  155   4.335   4.323   0.397
   25SOL    HW2  156   4.310   4.244   0.445
   25SOL    HW3  157   4.254   4.374   0.391
   25SOL    MW4  158   4.321   4.319   0.403
   26SOL     OW  159   0.432   3.669   0.499
   26SOL    HW2  160   0.526   3.654   0.501
   26SOL    HW3  161   0.423   3.763   0.483
   26SOL    MW4  162   0.443   3.679   0.497
   27SOL     OW  163   0.737   0.008   0.357
   27SOL    HW2  164   0.830   0.006   0.378
   27SOL    HW3  165   0.727  -0.055   0.285
   27SOL    MW4  166   0.748  -0.001   0.350
   28SOL     OW  167   0.106   0.263   0.398
   28SOL    HW2  168   0.070   0.199   0.459
   28SOL    HW3  169   0.042   0.270   0.328
   28SOL    MW4  170   0.093   0.256   0.397
   29SOL     OW  171   4.378   0.566   0.482
   29SOL    HW2  172   4.473   0.565   0.479
   29SOL    HW3  173   4.354   0.656   0.463
   29SOL    MW4  174   4.387   0.577   0.479
   30SOL     OW  175   1.049   4.435   0.524
   30SOL    HW2  176   0.966   4.387   0.526
   30SOL    HW3  177   1.096   4.405   0.601
   30SOL    MW4  178   1.044   4.425   0.534
   31SOL     OW  179   1.062   0.803   0.358
   31SOL    HW2  180   0.968   0.813   0.374
   31SOL    HW3  181   1.087   0.727   0.411
   31SOL    MW4  182   1.053   0.794   0.367
   32SOL     OW  183   0.583   0.469   0.258
   32SOL    HW2  184   0.666   0.496   0.219
   32SOL    HW3  185   0.606   0.395   0.314
   32SOL    MW4  186   0.597   0.463   0.260
   33SOL     OW  187   0.180   1.083   0.496
   33SOL    HW2  188   0.101   1.029   0.496
   33SOL    HW3  189   0.252   1.021   0.485
   33SOL    MW4  190   0.179   1.068   0.495
   34SOL     OW  191   0.459   1.626   0.480
   34SOL    HW2  192   0.526   1.557   0.476
   34SOL    HW3  193   0.389   1.595   0.422
   34SOL    MW4  194   0.458   1.613   0.472
   35SOL     OW  195   0.205   1.625   0.337
   35SOL    HW2  196   0.162   1.539   0.338
   35SOL    HW3  197   0.173   1.667   0.257
   35SOL    MW4  198   0.195   1.619   0.326
   36SOL     OW  199   0.418   2.496   0.222
   36SOL    HW2  200   0.496   2.449   0.253
   36SOL    HW3  201   0.440   2.588   0.233
   36SOL    MW4  202   0.431   2.502   0.228
   37SOL     OW  203   0.072   2.732   0.489
   37SOL    HW2  204   0.086   2.654   0.435
   37SOL    HW3  205   0.135   2.796   0.456
   37SOL    MW4  206   0.083   2.730   0.477
   38SOL     OW  207   3.868   2.281   0.268
   38SOL    HW2  208   3.893   2.371   0.289
   38SOL    HW3  209   3.882   2.274   0.173
   38SOL    MW4  210   3.873   2.292   0.258
   39SOL     OW  211   0.589   2.540   0.526
   39SOL    HW2  212   0.563   2.462   0.477
   39SOL    HW3  213   0.679   2.557   0.497
   39SOL    MW4  214   0.598   2.532   0.516
   40SOL     OW  215   0.499   2.739   0.330
   40SOL    HW2  216   0.528   2.680   0.400
   40SOL    HW3  217   0.555   2.816   0.339
   40SOL    MW4  218   0.510   2.741   0.341
   41SOL     OW  219   4.342   3.085   0.482
   41SOL    HW2  220   4.259   3.131   0.491
   41SOL    HW3  221   4.404   3.137   0.533
   41SOL    MW4  222   4.340   3.098   0.490
   42SOL     OW  223   0.288   2.917   0.374
   42SOL    HW2  224   0.305   3.000   0.329
   42SOL    HW3  225   0.366   2.864   0.357
   42SOL    MW4  226   0.301   2.921   0.366
   43SOL     OW  227   0.802   4.452   0.208
   43SOL    HW2  228   0.784   4.429   0.117
   43SOL    HW3  229   0.895   4.434   0.219
   43SOL    MW4  230   0.812   4.446   0.197
   44SOL     OW  231   0.105   3.350   0.414
   44SOL    HW2  232   0.125   3.443   0.423
   44SOL    HW3  233   0.175   3.315   0.360
   44SOL    MW4  234   0.117   3.357   0.408
   45SOL     OW  235   0.722   3.623   0.529
   45SOL    HW2  236   0.714   3.712   0.494
   45SOL    HW3  237   0.704   3.632   0.622
   45SOL    MW4  238   0.718   3.636   0.537
   46SOL     OW  239   1.156   3.639   0.447
   46SOL    HW2  240   1.071   3.672   0.417
   46SOL    HW3  241   1.173   3.563   0.391
   46SOL    MW4  242   1.147   3.633   0.436
   47SOL     OW  243   0.450   3.956   0.441
   47SOL    HW2  244   0.436   3.994   0.527
   47SOL    HW3  245   0.367   3.968   0.395
   47SOL    MW4  246   0.437   3.962   0.446
   48SOL     OW  247   0.987   3.567   0.198
   48SOL    HW2  248   0.954   3.557   0.108
   48SOL    HW3  249   0.980   3.661   0.215
   48SOL    MW4  250   0.982   3.578   0.188
   49SOL     OW  251   0.746   4.395   0.504
   49SOL    HW2  252   0.712   4.462   0.445
   49SOL    HW3  253   0.725   4.427   0.591
   49SOL    MW4  254   0.739   4.408   0.508
   50SOL     OW  255   0.613   0.237   0.450
   50SOL    HW2  256   0.665   0.165   0.415
   50SOL    HW3  257   0.662   0.266   0.527
   50SOL    MW4  258   0.627   0.232   0.456
   51SOL     OW  259   0.681   0.602   0.514
   51SOL    HW2  260   0.717   0.688   0.495
   51SOL    HW3  261   0.628   0.580   0.437
   51SOL    MW4  262   0.679   0.610   0.501
   52SOL     OW  263   0.363   0.665   0.328
   52SOL    HW2  264   0.289   0.635   0.381
   52SOL    HW3  265   0.420   0.588   0.321
   52SOL    MW4  266   0.361   0.651   0.334
   53SOL     OW  267   1.378   0.555   0.329
   53SOL    HW2  268   1.365   0.650   0.329
   53SOL    HW3  269   1.469   0.543   0.358
   53SOL    MW4  270   1.389   0.566   0.333
   54SOL     OW  271   1.799   0.693   0.263
   54SOL    HW2  272   1.782   0.787   0.271
   54SOL    HW3  273   1.735   0.653   0.323
   54SOL    MW4  274   1.788   0.700   0.272
   55SOL     OW  275   1.487   0.972   0.458
   55SOL    HW2  276   1.427   0.935   0.393
   55SOL    HW3  277   1.445   0.955   0.542
   55SOL    MW4  278   1.474   0.965   0.460
   56SOL     OW  279   0.678   1.451   0.522
   56SOL    HW2  280   0.694   1.362   0.489
   56SOL    HW3  281   0.766   1.488   0.532
   56SOL    MW4  282   0.692   1.444   0.519
   57SOL     OW  283   0.781   1.202   0.487
   57SOL    HW2  284   0.745   1.160   0.409
   57SOL    HW3  285   0.869   1.230   0.461
   57SOL    MW4  286   0.788   1.200   0.473
   58SOL     OW  287   1.737   1.395   0.446
   58SOL    HW2  288   1.776   1.482   0.440
   58SOL    HW3  289   1.812   1.335   0.446
   58SOL    MW4  290   1.752   1.398   0.445
   59SOL     OW  291   1.036   1.368   0.480
   59SOL    HW2  292   1.124   1.377   0.445
   59SOL    HW3  293   1.005   1.459   0.489
   59SOL    MW4  294   1.043   1.381   0.476
   60SOL     OW  295   0.928   1.619   0.533
   60SOL    HW2  296   1.016   1.654   0.518
   60SOL    HW3  297   0.916   1.625   0.628
   60SOL    MW4  298   0.938   1.625   0.544
   61SOL     OW  299   0.315   1.900   0.430
   61SOL    HW2  300   0.223   1.905   0.406
   61SOL    HW3  301   0.331   1.806   0.443
   61SOL    MW4  302   0.305   1.888   0.428
   62SOL     OW  303   0.700   1.790   0.465
   62SOL    HW2  304   0.769   1.728   0.486
   62SOL    HW3  305   0.620   1.737   0.465
   62SOL    MW4  306   0.698   1.774   0.468
   63SOL     OW  307   0.856   2.546   0.468
   63SOL    HW2  308   0.863   2.460   0.428
   63SOL    HW3  309   0.893   2.535   0.555
   63SOL    MW4  310   0.862   2.533   0.474
   64SOL     OW  311   0.565   2.041   0.464
   64SOL    HW2  312   0.620   1.966   0.440
   64SOL    HW3  313   0.477   2.015   0.439
   64SOL    MW4  314   0.561   2.028   0.457
   65SOL     OW  315   1.096   2.685   0.417
   65SOL    HW2  316   1.023   2.624   0.410
   65SOL    HW3  317   1.058   2.771   0.399
   65SOL    MW4  318   1.081   2.688   0.414
   66SOL     OW  319   0.608   2.314   0.346
   66SOL    HW2  320   0.694   2.301   0.306
   66SOL    HW3  321   0.581   2.225   0.372
   66SOL    MW4  322   0.616   2.300   0.344
   67SOL     OW  323   0.695   2.937   0.454
   67SOL    HW2  324   0.731   2.915   0.540
   67SOL    HW3  325   0.674   3.030   0.460
   67SOL    MW4  326   0.697   2.946   0.466
   68SOL     OW  327   1.014   3.236   0.479
   68SOL    HW2  328   0.989   3.217   0.569
   68SOL    HW3  329   0.948   3.298   0.448
   68SOL    MW4  330   1.002   3.242   0.486
   69SOL     OW  331   1.395   3.779   0.506
   69SOL    HW2  332   1.465   3.717   0.486
   69SOL    HW3  333   1.316   3.737   0.472
   69SOL    MW4  334   1.394   3.765   0.499
   70SOL     OW  335   1.079   4.063   0.381
   70SOL    HW2  336   1.097   4.138   0.323
   70SOL    HW3  337   1.000   4.088   0.428
   70SOL    MW4  338   1.071   4.077   0.379
   71SOL     OW  339   0.711   3.890   0.411
   71SOL    HW2  340   0.767   3.958   0.448
   71SOL    HW3  341   0.622   3.924   0.420
   71SOL    MW4  342   0.706   3.903   0.417
   72SOL     OW  343   1.088   4.422   0.261
   72SOL    HW2  344   1.169   4.448   0.217
   72SOL    HW3  345   1.108   4.426   0.354
   72SOL    MW4  346   1.101   4.426   0.267
   73SOL     OW  347   1.145   0.505   0.461
   73SOL    HW2  348   1.139   0.409   0.468
   73SOL    HW3  349   1.229   0.520   0.417
   73SOL    MW4  350   1.156   0.494   0.456
   74SOL     OW  351   0.982   0.037   0.485
   74SOL    HW2  352   1.020  -0.051   0.490
   74SOL    HW3  353   0.947   0.053   0.572
   74SOL    MW4  354   0.983   0.028   0.497
   75SOL     OW  355   1.449   0.272   0.283
   75SOL    HW2  356   1.544   0.282   0.293
   75SOL    HW3  357   1.418   0.362   0.268
   75SOL    MW4  358   1.458   0.285   0.283
   76SOL     OW  359   1.635   0.537   0.443
   76SOL    HW2  360   1.678   0.456   0.416
   76SOL    HW3  361   1.623   0.528   0.537
   76SOL    MW4  362   1.639   0.525   0.452
   77SOL     OW  363   1.178   0.226   0.482
   77SOL    HW2  364   1.106   0.163   0.478
   77SOL    HW3  365   1.238   0.199   0.413
   77SOL    MW4  366   1.177   0.214   0.473
   78SOL     OW  367   1.969   0.469   0.244
   78SOL    HW2  368   2.014   0.437   0.165
   78SOL    HW3  369   1.920   0.546   0.214
   78SOL    MW4  370   1.969   0.475   0.229
   79SOL     OW  371   2.214   0.802   0.477
   79SOL    HW2  372   2.178   0.713   0.471
   79SOL    HW3  373   2.298   0.797   0.432
   79SOL    MW4  374   2.220   0.789   0.470
   80SOL     OW  375   1.761   0.950   0.439
   80SOL    HW2  376   1.784   0.904   0.520
   80SOL    HW3  377   1.665   0.949   0.438
   80SOL    MW4  378   1.751   0.944   0.450
   81SOL     OW  379   1.483   1.269   0.461
   81SOL    HW2  380   1.474   1.173   0.464
   81SOL    HW3  381   1.570   1.283   0.425
   81SOL    MW4  382   1.493   1.258   0.457
   82SOL     OW  383   1.304   1.462   0.361
   82SOL    HW2  384   1.374   1.411   0.401
   82SOL    HW3  385   1.303   1.433   0.270
   82SOL    MW4  386   1.313   1.451   0.354
   83SOL     OW  387   1.200   1.694   0.486
   83SOL    HW2  388   1.248   1.659   0.561
   83SOL    HW3  389   1.221   1.634   0.414
   83SOL    MW4  390   1.209   1.681   0.486
   84SOL     OW  391   1.151   2.178   0.286
   84SOL    HW2  392   1.225   2.233   0.312
   84SOL    HW3  393   1.174   2.090   0.317
   84SOL    MW4  394   1.164   2.173   0.293
   85SOL     OW  395   1.340   2.548   0.466
   85SOL    HW2  396   1.258   2.596   0.452
   85SOL    HW3  397   1.408   2.615   0.461
   85SOL    MW4  398   1.338   2.563   0.463
   86SOL     OW  399   1.950   2.149   0.450
   86SOL    HW2  400   1.960   2.114   0.538
   86SOL    HW3  401   2.007   2.094   0.396
   86SOL    MW4  402   1.959   2.137   0.455
   87SOL     OW  403   1.517   2.044   0.487
   87SOL    HW2  404   1.511   2.130   0.444
   87SOL    HW3  405   1.430   2.005   0.474
   87SOL    MW4  406   1.504   2.050   0.480
   88SOL     OW  407   0.898   2.280   0.359
   88SOL    HW2  408   0.905   2.226   0.439
   88SOL    HW3  409   0.982   2.268   0.315
   88SOL    MW4  410   0.910   2.271   0.364
   89SOL     OW  411   1.007   2.961   0.405
   89SOL    HW2  412   0.921   2.946   0.366
   89SOL    HW3  413   1.006   3.053   0.431
   89SOL    MW4  414   0.996   2.971   0.403
   90SOL     OW  415   2.107   2.419   0.433
   90SOL    HW2  416   2.199   2.405   0.453
   90SOL    HW3  417   2.067   2.332   0.439
   90SOL    MW4  418   2.114   2.406   0.437
   91SOL     OW  419   1.720   4.107   0.510
   91SOL    HW2  420   1.656   4.160   0.463
   91SOL    HW3  421   1.710   4.019   0.473
   91SOL    MW4  422   1.710   4.102   0.499
   92SOL     OW  423   1.350   4.038   0.434
   92SOL    HW2  424   1.368   3.950   0.467
   92SOL    HW3  425   1.257   4.037   0.412
   92SOL    MW4  426   1.340   4.026   0.436
   93SOL     OW  427   1.748   2.837   0.347
   93SOL    HW2  428   1.661   2.804   0.368
   93SOL    HW3  429   1.808   2.778   0.394
   93SOL    MW4  430   1.745   2.825   0.356
   94SOL     OW  431   1.678   3.620   0.256
   94SOL    HW2  432   1.763   3.578   0.243
   94SOL    HW3  433   1.621   3.550   0.286
   94SOL    MW4  434   1.682   3.605   0.258
   95SOL     OW  435   1.294   3.251   0.476
   95SOL    HW2  436   1.315   3.164   0.444
   95SOL    HW3  437   1.199   3.258   0.468
   95SOL    MW4  438   1.284   3.241   0.470
   96SOL     OW  439   1.583   3.392   0.440
   96SOL    HW2  440   1.504   3.371   0.488
   96SOL    HW3  441   1.616   3.307   0.409
   96SOL    MW4  442   1.577   3.378   0.442
   97SOL     OW  443   0.846   4.128   0.489
   97SOL    HW2  444   0.831   4.096   0.578
   97SOL    HW3  445   0.797   4.210   0.485
   97SOL    MW4  446   0.837   4.135   0.500
   98SOL     OW  447   2.274   0.001   0.605
   98SOL    HW2  448   2.242  -0.085   0.578
   98SOL    HW3  449   2.370  -0.005   0.597
   98SOL    MW4  450   2.283  -0.011   0.600
   99SOL     OW  451   1.840   4.515   0.398
   99SOL    HW2  452   1.748   4.492   0.409
   99SOL    HW3  453   1.884   4.431   0.382
   99SOL    MW4  454   1.834   4.501   0.398
  100SOL     OW  455   1.888   0.112   0.465
  100SOL    HW2  456   1.860   0.119   0.556
  100SOL    HW3  457   1.871   0.021   0.441
  100SOL    MW4  458   1.882   0.101   0.474
  101SOL     OW  459   1.398   0.015   0.351
  101SOL    HW2  460   1.423   0.102   0.322
  101SOL    HW3  461   1.468  -0.012   0.411
  101SOL    MW4  462   1.410   0.023   0.355
  102SOL     OW  463   2.149   0.458   0.451
  102SOL    HW2  464   2.135   0.365   0.474
  102SOL    HW3  465   2.109   0.467   0.365
  102SOL    MW4  466   2.142   0.447   0.443
  103SOL     OW  467   2.382   1.531   0.435
  103SOL    HW2  468   2.325   1.475   0.488
  103SOL    HW3  469   2.326   1.604   0.408
  103SOL    MW4  470   2.367   1.533   0.439
  104SOL     OW  471   2.182   1.082   0.447
  104SOL    HW2  472   2.275   1.097   0.466
  104SOL    HW3  473   2.172   0.987   0.447
  104SOL    MW4  474   2.193   1.071   0.450
  105SOL     OW  475   1.918   1.169   0.487
  105SOL    HW2  476   1.865   1.091   0.472
  105SOL    HW3  477   2.005   1.146   0.455
  105SOL    MW4  478   1.923   1.156   0.481
  106SOL     OW  479   2.598   1.349   0.364
  106SOL    HW2  480   2.675   1.403   0.345
  106SOL    HW3  481   2.530   1.412   0.389
  106SOL    MW4  482   2.599   1.365   0.365
  107SOL     OW  483   2.160   1.719   0.471
  107SOL    HW2  484   2.164   1.811   0.446
  107SOL    HW3  485   2.067   1.701   0.483
  107SOL    MW4  486   2.149   1.729   0.470
  108SOL     OW  487   1.773   1.930   0.412
  108SOL    HW2  488   1.811   2.017   0.402
  108SOL    HW3  489   1.680   1.945   0.425
  108SOL    MW4  490   1.766   1.943   0.412
  109SOL     OW  491   2.373   2.406   0.534
  109SOL    HW2  492   2.450   2.462   0.525
  109SOL    HW3  493   2.328   2.441   0.612
  109SOL    MW4  494   2.377   2.418   0.543
  110SOL     OW  495   1.914   3.262   0.484
  110SOL    HW2  496   1.976   3.194   0.460
  110SOL    HW3  497   1.929   3.331   0.419
  110SOL    MW4  498   1.924   3.262   0.472
  111SOL     OW  499   1.495   2.771   0.443
  111SOL    HW2  500   1.444   2.851   0.433
  111SOL    HW3  501   1.535   2.779   0.530
  111SOL    MW4  502   1.494   2.783   0.453
  112SOL     OW  503   1.318   2.993   0.370
  112SOL    HW2  504   1.363   3.010   0.287
  112SOL    HW3  505   1.227   2.976   0.343
  112SOL    MW4  506   1.312   2.993   0.355
  113SOL     OW  507   1.245   1.977   0.479
  113SOL    HW2  508   1.191   1.987   0.557
  113SOL    HW3  509   1.245   1.883   0.462
  113SOL    MW4  510   1.238   1.966   0.487
  114SOL     OW  511   3.601   2.339   0.388
  114SOL    HW2  512   3.662   2.301   0.325
  114SOL    HW3  513   3.595   2.274   0.458
  114SOL    MW4  514   3.608   2.325   0.389
  115SOL     OW  515   1.923   2.661   0.473
  115SOL    HW2  516   1.956   2.712   0.546
  115SOL    HW3  517   1.992   2.596   0.457
  115SOL    MW4  518   1.937   2.659   0.480
  116SOL     OW  519   1.513   2.305   0.402
  116SOL    HW2  520   1.607   2.325   0.409
  116SOL    HW3  521   1.470   2.388   0.420
  116SOL    MW4  522   1.520   2.319   0.406
  117SOL     OW  523   1.673   3.113   0.414
  117SOL    HW2  524   1.699   3.025   0.387
  117SOL    HW3  525   1.753   3.153   0.449
  117SOL    MW4  526   1.687   3.107   0.415
  118SOL     OW  527   2.273   3.191   0.479
  118SOL    HW2  528   2.206   3.124   0.467
  118SOL    HW3  529   2.255   3.227   0.566
  118SOL    MW4  530   2.262   3.187   0.489
  119SOL     OW  531   1.788   3.836   0.420
  119SOL    HW2  532   1.756   3.789   0.343
  119SOL    HW3  533   1.883   3.821   0.420
  119SOL    MW4  534   1.796   3.828   0.410
  120SOL     OW  535   1.508   4.249   0.352
  120SOL    HW2  536   1.464   4.177   0.397
  120SOL    HW3  537   1.442   4.284   0.292
  120SOL    MW4  538   1.494   4.244   0.350
  121SOL     OW  539   1.580   4.497   0.469
  121SOL    HW2  540   1.588   4.475   0.562
  121SOL    HW3  541   1.559   4.413   0.427
  121SOL    MW4  542   1.578   4.483   0.476
  122SOL     OW  543   1.351   4.471   0.188
  122SOL    HW2  544   1.370   4.533   0.258
  122SOL    HW3  545   1.369   4.520   0.107
  122SOL    MW4  546   1.356   4.486   0.186
  123SOL     OW  547   2.419   0.193   0.351
  123SOL    HW2  548   2.453   0.136   0.420
  123SOL    HW3  549   2.324   0.190   0.361
  123SOL    MW4  550   2.411   0.185   0.361
  124SOL     OW  551   2.151   0.178   0.458
  124SOL    HW2  552   2.175   0.107   0.518
  124SOL    HW3  553   2.056   0.169   0.448
  124SOL    MW4  554   2.142   0.167   0.464
  125SOL     OW  555   2.690   0.929   0.499
  125SOL    HW2  556   2.639   0.855   0.465
  125SOL    HW3  557   2.772   0.927   0.451
  125SOL    MW4  558   2.694   0.919   0.488
  126SOL     OW  559   2.477   0.746   0.390
  126SOL    HW2  560   2.468   0.652   0.409
  126SOL    HW3  561   2.522   0.748   0.305
  126SOL    MW4  562   2.482   0.734   0.381
  127SOL     OW  563   2.905   0.897   0.131
  127SOL    HW2  564   2.915   0.933   0.219
  127SOL    HW3  565   2.982   0.842   0.118
  127SOL    MW4  566   2.916   0.894   0.141
  128SOL     OW  567   2.946   1.000   0.397
  128SOL    HW2  568   3.017   0.981   0.458
  128SOL    HW3  569   2.914   1.086   0.423
  128SOL    MW4  570   2.951   1.009   0.408
  129SOL     OW  571   2.960   1.247   0.503
  129SOL    HW2  572   2.934   1.336   0.479
  129SOL    HW3  573   2.926   1.235   0.592
  129SOL    MW4  574   2.952   1.257   0.511
  130SOL     OW  575   2.732   1.664   0.429
  130SOL    HW2  576   2.717   1.696   0.518
  130SOL    HW3  577   2.694   1.732   0.373
  130SOL    MW4  578   2.725   1.677   0.433
  131SOL     OW  579   2.809   0.674   0.366
  131SOL    HW2  580   2.892   0.714   0.341
  131SOL    HW3  581   2.750   0.692   0.293
  131SOL    MW4  582   2.812   0.681   0.353
  132SOL     OW  583   2.212   2.003   0.336
  132SOL    HW2  584   2.287   2.045   0.378
  132SOL    HW3  585   2.234   1.999   0.244
  132SOL    MW4  586   2.225   2.008   0.330
  133SOL     OW  587   1.890   1.675   0.481
  133SOL    HW2  588   1.850   1.675   0.568
  133SOL    HW3  589   1.870   1.762   0.446
  133SOL    MW4  590   1.882   1.687   0.488
  134SOL     OW  591   2.425   2.138   0.475
  134SOL    HW2  592   2.405   2.228   0.501
  134SOL    HW3  593   2.520   2.138   0.458
  134SOL    MW4  594   2.435   2.150   0.476
  135SOL     OW  595   2.706   2.165   0.441
  135SOL    HW2  596   2.737   2.252   0.413
  135SOL    HW3  597   2.774   2.134   0.500
  135SOL    MW4  598   2.719   2.173   0.445
  136SOL     OW  599   2.577   2.793   0.462
  136SOL    HW2  600   2.577   2.864   0.398
  136SOL    HW3  601   2.526   2.826   0.536
  136SOL    MW4  602   2.571   2.807   0.463
  137SOL     OW  603   1.769   2.407   0.441
  137SOL    HW2  604   1.837   2.341   0.428
  137SOL    HW3  605   1.807   2.488   0.408
  137SOL    MW4  606   1.783   2.409   0.435
  138SOL     OW  607   2.050   3.014   0.468
  138SOL    HW2  608   2.034   2.964   0.548
  138SOL    HW3  609   2.000   2.968   0.400
  138SOL    MW4  610   2.041   3.001   0.469
  139SOL     OW  611   2.034   3.702   0.485
  139SOL    HW2  612   2.129   3.711   0.477
  139SOL    HW3  613   2.019   3.680   0.577
  139SOL    MW4  614   2.044   3.700   0.496
  140SOL     OW  615   2.188   4.063   0.445
  140SOL    HW2  616   2.199   3.995   0.379
  140SOL    HW3  617   2.264   4.120   0.433
  140SOL    MW4  618   2.200   4.062   0.435
  141SOL     OW  619   1.628   3.631   0.564
  141SOL    HW2  620   1.635   3.538   0.541
  141SOL    HW3  621   1.705   3.671   0.525
  141SOL    MW4  622   1.639   3.624   0.556
  142SOL     OW  623   1.921   3.494   0.315
  142SOL    HW2  624   1.990   3.471   0.253
  142SOL    HW3  625   1.957   3.568   0.364
  142SOL    MW4  626   1.935   3.501   0.314
  143SOL     OW  627   2.098   4.472   0.519
  143SOL    HW2  628   2.085   4.378   0.514
  143SOL    HW3  629   2.019   4.510   0.481
  143SOL    MW4  630   2.086   4.465   0.513
  144SOL     OW  631   1.976   4.232   0.451
  144SOL    HW2  632   1.902   4.173   0.464
  144SOL    HW3  633   2.051   4.174   0.436
  144SOL    MW4  634   1.976   4.217   0.450
  145SOL     OW  635   2.400   4.266   0.427
  145SOL    HW2  636   2.405   4.303   0.515
  145SOL    HW3  637   2.443   4.332   0.372
  145SOL    MW4  638   2.407   4.280   0.431
  146SOL     OW  639   2.329   3.898   0.261
  146SOL    HW2  640   2.300   3.866   0.176
  146SOL    HW3  641   2.310   3.826   0.321
  146SOL    MW4  642   2.323   3.884   0.258
  147SOL     OW  643   2.773   3.919   0.507
  147SOL    HW2  644   2.692   3.948   0.465
  147SOL    HW3  645   2.835   3.990   0.490
  147SOL    MW4  646   2.770   3.932   0.499
  148SOL     OW  647   2.443   0.470   0.445
  148SOL    HW2  648   2.348   0.474   0.435
  148SOL    HW3  649   2.466   0.382   0.415
  148SOL    MW4  650   2.434   0.459   0.440
  149SOL     OW  651   1.740   0.305   0.341
  149SOL    HW2  652   1.811   0.356   0.302
  149SOL    HW3  653   1.784   0.231   0.384
  149SOL    MW4  654   1.755   0.302   0.341
  150SOL     OW  655   3.138   0.373   0.376
  150SOL    HW2  656   3.229   0.402   0.372
  150SOL    HW3  657   3.143   0.279   0.391
  150SOL    MW4  658   3.150   0.365   0.377
  151SOL     OW  659   2.467   1.115   0.474
  151SOL    HW2  660   2.514   1.180   0.422
  151SOL    HW3  661   2.526   1.040   0.480
  151SOL    MW4  662   2.481   1.114   0.468
  152SOL     OW  663   3.261   0.784   0.429
  152SOL    HW2  664   3.336   0.841   0.414
  152SOL    HW3  665   3.219   0.819   0.507
  152SOL    MW4  666   3.266   0.796   0.437
  153SOL     OW  667   3.198   1.614   0.475
  153SOL    HW2  668   3.212   1.519   0.478
  153SOL    HW3  669   3.283   1.650   0.448
  153SOL    MW4  670   3.211   1.606   0.471
  154SOL     OW  671   3.195   1.192   0.366
  154SOL    HW2  672   3.158   1.161   0.284
  154SOL    HW3  673   3.119   1.213   0.421
  154SOL    MW4  674   3.180   1.191   0.362
  155SOL     OW  675   3.430   1.770   0.426
  155SOL    HW2  676   3.399   1.846   0.376
  155SOL    HW3  677   3.512   1.799   0.467
  155SOL    MW4  678   3.437   1.784   0.425
  156SOL     OW  679   2.763   0.195   0.617
  156SOL    HW2  680   2.756   0.258   0.688
  156SOL    HW3  681   2.801   0.244   0.545
  156SOL    MW4  682   2.767   0.209   0.617
  157SOL     OW  683   3.165   2.071   0.619
  157SOL    HW2  684   3.070   2.084   0.618
  157SOL    HW3  685   3.179   2.000   0.681
  157SOL    MW4  686   3.154   2.064   0.627
  158SOL     OW  687   2.825   2.416   0.303
  158SOL    HW2  688   2.852   2.399   0.212
  158SOL    HW3  689   2.908   2.418   0.351
  158SOL    MW4  690   2.840   2.414   0.297
  159SOL     OW  691   2.947   1.496   0.379
  159SOL    HW2  692   2.866   1.545   0.393
  159SOL    HW3  693   3.016   1.553   0.414
  159SOL    MW4  694   2.946   1.510   0.386
  160SOL     OW  695   2.620   2.521   0.471
  160SOL    HW2  696   2.598   2.612   0.451
  160SOL    HW3  697   2.682   2.496   0.403
  160SOL    MW4  698   2.625   2.530   0.460
  161SOL     OW  699   2.736   3.193   0.572
  161SOL    HW2  700   2.786   3.262   0.529
  161SOL    HW3  701   2.741   3.213   0.665
  161SOL    MW4  702   2.743   3.204   0.578
  162SOL     OW  703   2.856   3.393   0.422
  162SOL    HW2  704   2.946   3.361   0.422
  162SOL    HW3  705   2.864   3.488   0.434
  162SOL    MW4  706   2.869   3.401   0.424
  163SOL     OW  707   3.095   3.249   0.482
  163SOL    HW2  708   3.109   3.155   0.470
  163SOL    HW3  709   3.095   3.262   0.577
  163SOL    MW4  710   3.097   3.239   0.493
  164SOL     OW  711   2.355   3.461   0.360
  164SOL    HW2  712   2.446   3.451   0.334
  164SOL    HW3  713   2.341   3.394   0.427
  164SOL    MW4  714   2.365   3.451   0.365
  165SOL     OW  715   2.164   3.460   0.116
  165SOL    HW2  716   2.232   3.478   0.180
  165SOL    HW3  717   2.210   3.422   0.041
  165SOL    MW4  718   2.179   3.458   0.114
  166SOL     OW  719   3.626   3.473   0.241
  166SOL    HW2  720   3.668   3.416   0.305
  166SOL    HW3  721   3.532   3.456   0.251
  166SOL    MW4  722   3.619   3.463   0.251
  167SOL     OW  723   2.567   4.031   0.352
  167SOL    HW2  724   2.535   4.121   0.359
  167SOL    HW3  725   2.499   3.986   0.301
  167SOL    MW4  726   2.554   4.037   0.346
  168SOL     OW  727   2.304   3.705   0.463
  168SOL    HW2  728   2.334   3.694   0.553
  168SOL    HW3  729   2.335   3.626   0.418
  168SOL    MW4  730   2.312   3.693   0.469
  169SOL     OW  731   3.615   3.995   0.456
  169SOL    HW2  732   3.541   4.048   0.427
  169SOL    HW3  733   3.597   3.907   0.422
  169SOL    MW4  734   3.603   3.990   0.447
  170SOL     OW  735   2.937   4.391   0.416
  170SOL    HW2  736   2.915   4.414   0.506
  170SOL    HW3  737   2.900   4.304   0.404
  170SOL    MW4  738   2.929   4.382   0.427
  171SOL     OW  739   3.394   4.408   0.464
  171SOL    HW2  740   3.461   4.464   0.424
  171SOL    HW3  741   3.311   4.442   0.430
  171SOL    MW4  742   3.392   4.420   0.454
  172SOL     OW  743   3.161   4.522   0.339
  172SOL    HW2  744   3.080   4.479   0.365
  172SOL    HW3  745   3.155   4.529   0.244
  172SOL    MW4  746   3.150   4.517   0.330
  173SOL     OW  747   2.901   4.124   0.329
  173SOL    HW2  748   2.841   4.085   0.265
  173SOL    HW3  749   2.988   4.098   0.299
  173SOL    MW4  750   2.905   4.115   0.316
  174SOL     OW  751   2.636   0.798   0.160
  174SOL    HW2  752   2.593   0.800   0.075
  174SOL    HW3  753   2.710   0.858   0.151
  174SOL    MW4  754   2.640   0.806   0.148
  175SOL     OW  755   3.370   0.538   0.407
  175SOL    HW2  756   3.460   0.549   0.376
  175SOL    HW3  757   3.335   0.626   0.411
  175SOL    MW4  758   3.378   0.551   0.403
  176SOL     OW  759   2.893   0.430   0.499
  176SOL    HW2  760   2.854   0.495   0.441
  176SOL    HW3  761   2.979   0.412   0.462
  176SOL    MW4  762   2.899   0.437   0.486
  177SOL     OW  763   3.626   0.476   0.334
  177SOL    HW2  764   3.696   0.497   0.395
  177SOL    HW3  765   3.671   0.457   0.251
  177SOL    MW4  766   3.641   0.476   0.331
  178SOL     OW  767   3.080   0.698   0.229
  178SOL    HW2  768   3.155   0.729   0.281
  178SOL    HW3  769   3.073   0.605   0.250
  178SOL    MW4  770   3.089   0.690   0.239
  179SOL     OW  771   3.672   1.870   0.534
  179SOL    HW2  772   3.660   1.830   0.620
  179SOL    HW3  773   3.624   1.953   0.539
  179SOL    MW4  774   3.664   1.876   0.546
  180SOL     OW  775   3.318   2.062   0.393
  180SOL    HW2  776   3.264   2.045   0.470
  180SOL    HW3  777   3.294   2.150   0.366
  180SOL    MW4  778   3.308   2.071   0.399
  181SOL     OW  779   3.461   0.993   0.406
  181SOL    HW2  780   3.407   1.069   0.384
  181SOL    HW3  781   3.470   0.997   0.501
  181SOL    MW4  782   3.455   1.004   0.416
  182SOL     OW  783   3.546   2.110   0.541
  182SOL    HW2  784   3.466   2.100   0.489
  182SOL    HW3  785   3.517   2.102   0.632
  182SOL    MW4  786   3.531   2.108   0.546
  183SOL     OW  787   3.278   2.321   0.664
  183SOL    HW2  788   3.235   2.236   0.652
  183SOL    HW3  789   3.325   2.312   0.747
  183SOL    MW4  790   3.279   2.308   0.674
  184SOL     OW  791   3.573   2.739   0.600
  184SOL    HW2  792   3.596   2.753   0.692
  184SOL    HW3  793   3.622   2.660   0.576
  184SOL    MW4  794   3.583   2.731   0.609
  185SOL     OW  795   2.530   3.082   0.413
  185SOL    HW2  796   2.452   3.131   0.438
  185SOL    HW3  797   2.595   3.105   0.480
  185SOL    MW4  798   2.528   3.091   0.425
  186SOL     OW  799   3.138   2.752   0.277
  186SOL    HW2  800   3.125   2.663   0.312
  186SOL    HW3  801   3.143   2.739   0.182
  186SOL    MW4  802   3.137   2.738   0.269
  187SOL     OW  803   2.928   2.855   0.836
  187SOL    HW2  804   2.928   2.861   0.740
  187SOL    HW3  805   3.012   2.814   0.857
  187SOL    MW4  806   2.939   2.851   0.826
  188SOL     OW  807   3.210   0.105   0.456
  188SOL    HW2  808   3.191   0.089   0.548
  188SOL    HW3  809   3.185   0.024   0.412
  188SOL    MW4  810   3.204   0.092   0.462
  189SOL     OW  811   3.168   3.806   0.442
  189SOL    HW2  812   3.230   3.738   0.468
  189SOL    HW3  813   3.158   3.861   0.519
  189SOL    MW4  814   3.175   3.805   0.455
  190SOL     OW  815   3.586   3.713   0.406
  190SOL    HW2  816   3.597   3.664   0.324
  190SOL    HW3  817   3.504   3.680   0.443
  190SOL    MW4  818   3.577   3.702   0.400
  191SOL     OW  819   3.575   3.244   0.455
  191SOL    HW2  820   3.664   3.278   0.445
  191SOL    HW3  821   3.582   3.150   0.439
  191SOL    MW4  822   3.587   3.236   0.451
  192SOL     OW  823   3.348   3.374   0.376
  192SOL    HW2  824   3.271   3.318   0.388
  192SOL    HW3  825   3.419   3.327   0.418
  192SOL    MW4  826   3.347   3.361   0.383
  193SOL     OW  827   3.154   4.035   0.227
  193SOL    HW2  828   3.152   3.958   0.284
  193SOL    HW3  829   3.176   4.001   0.140
  193SOL    MW4  830   3.157   4.020   0.223
  194SOL     OW  831   2.601   3.343   0.297
  194SOL    HW2  832   2.697   3.345   0.297
  194SOL    HW3  833   2.579   3.253   0.320
  194SOL    MW4  834   2.611   3.332   0.300
  195SOL     OW  835   4.220   0.086   0.423
  195SOL    HW2  836   4.306   0.067   0.459
  195SOL    HW3  837   4.169   0.006   0.437
  195SOL    MW4  838   4.225   0.073   0.429
  196SOL     OW  839   3.734   0.168   0.364
  196SOL    HW2  840   3.665   0.202   0.421
  196SOL    HW3  841   3.815   0.189   0.411
  196SOL    MW4  842   3.736   0.176   0.378
  197SOL     OW  843   3.514   0.260   0.492
  197SOL    HW2  844   3.425   0.225   0.486
  197SOL    HW3  845   3.510   0.345   0.448
  197SOL    MW4  846   3.502   0.267   0.485
  198SOL     OW  847   3.858   0.583   0.506
  198SOL    HW2  848   3.848   0.570   0.600
  198SOL    HW3  849   3.927   0.522   0.481
  198SOL    MW4  850   3.865   0.573   0.515
  199SOL     OW  851   4.009   0.425   0.301
  199SOL    HW2  852   4.098   0.405   0.273
  199SOL    HW3  853   3.953   0.389   0.232
  199SOL    MW4  854   4.013   0.417   0.289
  200SOL     OW  855   4.227   0.822   0.434
  200SOL    HW2  856   4.143   0.819   0.480
  200SOL    HW3  857   4.204   0.807   0.342
  200SOL    MW4  858   4.213   0.819   0.428
  201SOL     OW  859   3.757   1.032   0.449
  201SOL    HW2  860   3.757   1.127   0.462
  201SOL    HW3  861   3.665   1.010   0.437
  201SOL    MW4  862   3.745   1.042   0.449
  202SOL     OW  863   4.091   1.387   0.364
  202SOL    HW2  864   4.067   1.403   0.273
  202SOL    HW3  865   4.125   1.471   0.395
  202SOL    MW4  866   4.092   1.401   0.356
  203SOL     OW  867   3.820   1.313   0.466
  203SOL    HW2  868   3.909   1.343   0.448
  203SOL    HW3  869   3.766   1.391   0.454
  203SOL    MW4  870   3.825   1.328   0.462
  204SOL     OW  871   3.371   1.394   0.484
  204SOL    HW2  872   3.381   1.369   0.576
  204SOL    HW3  873   3.328   1.319   0.443
  204SOL    MW4  874   3.367   1.381   0.491
  205SOL     OW  875   3.670   1.568   0.494
  205SOL    HW2  876   3.579   1.548   0.473
  205SOL    HW3  877   3.676   1.663   0.487
  205SOL    MW4  878   3.659   1.578   0.490
  206SOL     OW  879   3.731   2.521   0.539
  206SOL    HW2  880   3.684   2.456   0.487
  206SOL    HW3  881   3.722   2.491   0.629
  206SOL    MW4  882   3.724   2.508   0.544
  207SOL     OW  883   3.949   2.519   0.378
  207SOL    HW2  884   3.873   2.517   0.435
  207SOL    HW3  885   4.017   2.473   0.426
  207SOL    MW4  886   3.948   2.512   0.392
  208SOL     OW  887   3.070   2.489   0.401
  208SOL    HW2  888   3.147   2.444   0.366
  208SOL    HW3  889   3.086   2.493   0.496
  208SOL    MW4  890   3.082   2.484   0.409
  209SOL     OW  891   2.907   3.661   0.498
  209SOL    HW2  892   2.993   3.699   0.481
  209SOL    HW3  893   2.846   3.735   0.494
  209SOL    MW4  894   2.910   3.676   0.495
  210SOL     OW  895   3.092   2.954   0.441
  210SOL    HW2  896   3.109   2.892   0.370
  210SOL    HW3  897   3.007   2.927   0.476
  210SOL    MW4  898   3.083   2.942   0.436
  211SOL     OW  899   4.037   2.784   0.411
  211SOL    HW2  900   4.131   2.789   0.425
  211SOL    HW3  901   4.022   2.695   0.379
  211SOL    MW4  902   4.047   2.773   0.408
  212SOL     OW  903   3.689   2.980   0.520
  212SOL    HW2  904   3.763   2.979   0.580
  212SOL    HW3  905   3.640   2.900   0.541
  212SOL    MW4  906   3.692   2.969   0.530
  213SOL     OW  907   3.982   3.751   0.388
  213SOL    HW2  908   3.954   3.691   0.457
  213SOL    HW3  909   3.949   3.712   0.307
  213SOL    MW4  910   3.974   3.738   0.386
  214SOL     OW  911   3.307   2.352   0.360
  214SOL    HW2  912   3.317   2.338   0.455
  214SOL    HW3  913   3.395   2.371   0.329
  214SOL    MW4  914   3.320   2.353   0.369
  215SOL     OW  915   3.349   3.613   0.514
  215SOL    HW2  916   3.333   3.525   0.482
  215SOL    HW3  917   3.374   3.601   0.606
  215SOL    MW4  918   3.350   3.600   0.522
  216SOL     OW  919   4.239   3.695   0.479
  216SOL    HW2  920   4.153   3.720   0.446
  216SOL    HW3  921   4.257   3.611   0.438
  216SOL    MW4  922   4.230   3.687   0.469
  217SOL     OW  923   3.376   4.134   0.376
  217SOL    HW2  924   3.377   4.227   0.395
  217SOL    HW3  925   3.303   4.122   0.316
  217SOL    MW4  926   3.367   4.144   0.371
  218SOL     OW  927   3.803   4.425   0.565
  218SOL    HW2  928   3.831   4.343   0.524
  218SOL    HW3  929   3.805   4.406   0.658
  218SOL    MW4  930   3.807   4.411   0.572
  219SOL     OW  931   4.487   0.051   0.552
  219SOL    HW2  932   4.539  -0.029   0.539
  219SOL    HW3  933   4.486   0.064   0.647
  219SOL    MW4  934   4.494   0.042   0.563
  220SOL     OW  935   3.957   0.838   0.508
  220SOL    HW2  936   3.897   0.900   0.467
  220SOL    HW3  937   3.906   0.758   0.519
  220SOL    MW4  938   3.943   0.836   0.504
  221SOL     OW  939   0.055   1.764   0.115
  221SOL    HW2  940  -0.040   1.768   0.109
  221SOL    HW3  941   0.087   1.801   0.033
  221SOL    MW4  942   0.047   1.770   0.104
  222SOL     OW  943   4.288   0.339   0.316
  222SOL    HW2  944   4.282   0.253   0.359
  222SOL    HW3  945   4.330   0.395   0.381
  222SOL    MW4  946   4.293   0.335   0.331
  223SOL     OW  947   4.423   0.996   0.519
  223SOL    HW2  948   4.413   1.089   0.498
  223SOL    HW3  949   4.347   0.954   0.480
  223SOL    MW4  950   4.412   1.003   0.511
  224SOL     OW  951   3.626   4.620   0.484
  224SOL    HW2  952   3.698   4.560   0.507
  224SOL    HW3  953   3.668   4.687   0.430
  224SOL    MW4  954   3.641   4.621   0.480
  225SOL     OW  955   4.321   1.253   0.438
  225SOL    HW2  956   4.295   1.266   0.529
  225SOL    HW3  957   4.248   1.288   0.387
  225SOL    MW4  958   4.308   1.259   0.444
  226SOL     OW  959   0.064   1.376   0.431
  226SOL    HW2  960  -0.028   1.360   0.453
  226SOL    HW3  961   0.108   1.292   0.446
  226SOL    MW4  962   0.058   1.363   0.436
  227SOL     OW  963   4.001   2.123   0.475
  227SOL    HW2  964   3.945   2.163   0.410
  227SOL    HW3  965   4.055   2.195   0.508
  227SOL    MW4  966   4.001   2.138   0.471
  228SOL     OW  967   4.084   1.845   0.531
  228SOL    HW2  968   4.153   1.912   0.529
  228SOL    HW3  969   4.005   1.892   0.506
  228SOL    MW4  970   4.083   1.860   0.527
  229SOL     OW  971   4.389   2.139   0.438
  229SOL    HW2  972   4.430   2.224   0.455
  229SOL    HW3  973   4.462   2.080   0.418
  229SOL    MW4  974   4.404   2.142   0.437
  230SOL     OW  975   4.195   2.081   0.251
  230SOL    HW2  976   4.117   2.106   0.301
  230SOL    HW3  977   4.268   2.116   0.301
  230SOL    MW4  978   4.194   2.089   0.264
  231SOL     OW  979   4.449   2.405   0.513
  231SOL    HW2  980   4.520   2.443   0.461
  231SOL    HW3  981   4.458   2.446   0.599
  231SOL    MW4  982   4.460   2.416   0.517
  232SOL     OW  983   3.927   3.032   0.329
  232SOL    HW2  984   3.971   2.947   0.333
  232SOL    HW3  985   3.835   3.012   0.342
  232SOL    MW4  986   3.921   3.018   0.331
  233SOL     OW  987   4.166   2.360   0.541
  233SOL    HW2  988   4.147   2.400   0.626
  233SOL    HW3  989   4.261   2.351   0.539
  233SOL    MW4  990   4.176   2.364   0.552
  234SOL     OW  991   0.166   3.630   0.453
  234SOL    HW2  992   0.117   3.711   0.434
  234SOL    HW3  993   0.257   3.658   0.456
  234SOL    MW4  994   0.171   3.644   0.450
  235SOL     OW  995   3.829   3.631   0.155
  235SOL    HW2  996   3.764   3.565   0.180
  235SOL    HW3  997   3.801   3.660   0.068
  235SOL    MW4  998   3.817   3.626   0.147
  236SOL     OW  999   0.604   3.221   0.451
  236SOL    HW2 1000   0.560   3.264   0.523
  236SOL    HW3 1001   0.669   3.284   0.420
  236SOL    MW4 1002   0.607   3.235   0.456
  237SOL     OW 1003   3.803   3.602   0.543
  237SOL    HW2 1004   3.730   3.645   0.498
  237SOL    HW3 1005   3.782   3.612   0.636
  237SOL    MW4 1006   3.790   3.609   0.550
  238SOL     OW 1007   4.083   3.204   0.489
  238SOL    HW2 1008   4.048   3.186   0.577
  238SOL    HW3 1009   4.035   3.144   0.432
  238SOL    MW4 1010   4.072   3.194   0.493
  239SOL     OW 1011   4.304   4.081   0.523
  239SOL    HW2 1012   4.224   4.029   0.532
  239SOL    HW3 1013   4.359   4.053   0.597
  239SOL    MW4 1014   4.301   4.070   0.534
  240SOL     OW 1015   4.010   3.999   0.512
  240SOL    HW2 1016   3.992   3.915   0.469
  240SOL    HW3 1017   3.941   4.057   0.481
  240SOL    MW4 1018   3.999   3.996   0.502
  241SOL     OW 1019   3.846   4.195   0.413
  241SOL    HW2 1020   3.757   4.160   0.408
  241SOL    HW3 1021   3.868   4.215   0.322
  241SOL    MW4 1022   3.837   4.193   0.400
  242SOL     OW 1023   4.083   4.504   0.485
  242SOL    HW2 1024   4.126   4.455   0.555
  242SOL    HW3 1025   3.990   4.482   0.495
  242SOL    MW4 1026   4.076   4.494   0.495
  243SOL     OW 1027   0.237   4.639   0.905
  243SOL    HW2 1028   0.240   4.549   0.873
  243SOL    HW3 1029   0.154   4.673   0.873
  243SOL    MW4 1030   0.227   4.632   0.897
  244SOL     OW 1031   0.013   0.085   0.819
  244SOL    HW2 1032  -0.079   0.063   0.806
  244SOL    HW3 1033   0.015   0.181   0.817
  244SOL    MW4 1034   0.001   0.095   0.817
  245SOL     OW 1035   4.487   0.362   0.829
  245SOL    HW2 1036   4.479   0.373   0.924
  245SOL    HW3 1037   4.567   0.410   0.806
  245SOL    MW4 1038   4.497   0.370   0.839
  246SOL     OW 1039   0.196   0.537   0.755
  246SOL    HW2 1040   0.269   0.487   0.792
  246SOL    HW3 1041   0.206   0.625   0.790
  246SOL    MW4 1042   0.207   0.542   0.764
  247SOL     OW 1043   0.197   0.791   0.846
  247SOL    HW2 1044   0.193   0.772   0.939
  247SOL    HW3 1045   0.111   0.828   0.825
  247SOL    MW4 1046   0.185   0.794   0.855
  248SOL     OW 1047   4.443   0.893   0.781
  248SOL    HW2 1048   4.360   0.857   0.811
  248SOL    HW3 1049   4.432   0.903   0.686
  248SOL    MW4 1050   4.431   0.889   0.772
  249SOL     OW 1051   0.014   1.152   0.856
  249SOL    HW2 1052   0.001   1.160   0.951
  249SOL    HW3 1053   0.001   1.059   0.838
  249SOL    MW4 1054   0.011   1.141   0.866
  250SOL     OW 1055   0.244   1.232   0.731
  250SOL    HW2 1056   0.160   1.207   0.771
  250SOL    HW3 1057   0.251   1.177   0.653
  250SOL    MW4 1058   0.234   1.221   0.726
  251SOL     OW 1059   0.239   1.505   0.842
  251SOL    HW2 1060   0.328   1.537   0.832
  251SOL    HW3 1061   0.239   1.418   0.803
  251SOL    MW4 1062   0.251   1.498   0.836
  252SOL     OW 1063   0.017   1.651   0.793
  252SOL    HW2 1064  -0.064   1.605   0.815
  252SOL    HW3 1065   0.087   1.596   0.828
  252SOL    MW4 1066   0.015   1.638   0.801
  253SOL     OW 1067   0.011   1.943   0.816
  253SOL    HW2 1068   0.088   1.974   0.769
  253SOL    HW3 1069   0.013   1.848   0.806
  253SOL    MW4 1070   0.021   1.935   0.808
  254SOL     OW 1071   0.252   2.026   0.679
  254SOL    HW2 1072   0.255   2.121   0.675
  254SOL    HW3 1073   0.289   1.997   0.596
  254SOL    MW4 1074   0.257   2.035   0.668
  255SOL     OW 1075   0.291   2.305   0.790
  255SOL    HW2 1076   0.279   2.288   0.883
  255SOL    HW3 1077   0.364   2.366   0.785
  255SOL    MW4 1078   0.299   2.311   0.801
  256SOL     OW 1079   0.058   2.471   0.770
  256SOL    HW2 1080  -0.006   2.404   0.794
  256SOL    HW3 1081   0.142   2.426   0.770
  256SOL    MW4 1082   0.061   2.456   0.773
  257SOL     OW 1083   0.078   2.742   0.831
  257SOL    HW2 1084   0.077   2.745   0.927
  257SOL    HW3 1085   0.074   2.649   0.810
  257SOL    MW4 1086   0.077   2.730   0.841
  258SOL     OW 1087   0.285   2.860   0.706
  258SOL    HW2 1088   0.208   2.810   0.736
  258SOL    HW3 1089   0.278   2.860   0.611
  258SOL    MW4 1090   0.274   2.853   0.697
  259SOL     OW 1091   0.240   3.114   0.787
  259SOL    HW2 1092   0.247   3.115   0.883
  259SOL    HW3 1093   0.249   3.022   0.763
  259SOL    MW4 1094   0.242   3.102   0.797
  260SOL     OW 1095   0.026   3.228   0.656
  260SOL    HW2 1096   0.102   3.187   0.696
  260SOL    HW3 1097   0.061   3.277   0.581
  260SOL    MW4 1098   0.040   3.229   0.651
  261SOL     OW 1099   4.471   3.444   0.831
  261SOL    HW2 1100   4.402   3.497   0.793
  261SOL    HW3 1101   4.481   3.370   0.771
  261SOL    MW4 1102   4.463   3.441   0.818
  262SOL     OW 1103   0.163   3.609   0.734
  262SOL    HW2 1104   0.105   3.543   0.772
  262SOL    HW3 1105   0.161   3.592   0.640
  262SOL    MW4 1106   0.155   3.598   0.727
  263SOL     OW 1107   0.219   3.897   0.814
  263SOL    HW2 1108   0.225   3.923   0.906
  263SOL    HW3 1109   0.181   3.810   0.816
  263SOL    MW4 1110   0.215   3.889   0.826
  264SOL     OW 1111   4.470   4.012   0.726
  264SOL    HW2 1112   4.415   3.950   0.773
  264SOL    HW3 1113   4.560   3.981   0.741
  264SOL    MW4 1114   4.475   4.000   0.734
  265SOL     OW 1115   4.440   4.281   0.798
  265SOL    HW2 1116   4.433   4.277   0.893
  265SOL    HW3 1117   4.443   4.189   0.769
  265SOL    MW4 1118   4.440   4.268   0.806
  266SOL     OW 1119   0.215   4.407   0.757
  266SOL    HW2 1120   0.130   4.363   0.760
  266SOL    HW3 1121   0.217   4.448   0.671
  266SOL    MW4 1122   0.204   4.406   0.746
  267SOL     OW 1123   0.674   0.053   0.869
  267SOL    HW2 1124   0.669   0.046   0.964
  267SOL    HW3 1125   0.588   0.084   0.842
  267SOL    MW4 1126   0.662   0.056   0.878
  268SOL     OW 1127   0.414   0.150   0.764
  268SOL    HW2 1128   0.352   0.083   0.793
  268SOL    HW3 1129   0.427   0.133   0.671
  268SOL    MW4 1130   0.407   0.139   0.756
  269SOL     OW 1131   0.414   0.402   0.886
  269SOL    HW2 1132   0.504   0.424   0.859
  269SOL    HW3 1133   0.392   0.326   0.833
  269SOL    MW4 1134   0.423   0.395   0.875
  270SOL     OW 1135   0.655   0.493   0.766
  270SOL    HW2 1136   0.745   0.463   0.778
  270SOL    HW3 1137   0.652   0.527   0.677
  270SOL    MW4 1138   0.667   0.493   0.756
  271SOL     OW 1139   0.708   0.765   0.803
  271SOL    HW2 1140   0.629   0.803   0.764
  271SOL    HW3 1141   0.693   0.671   0.800
  271SOL    MW4 1142   0.696   0.758   0.797
  272SOL     OW 1143   0.452   0.872   0.749
  272SOL    HW2 1144   0.473   0.958   0.785
  272SOL    HW3 1145   0.368   0.849   0.789
  272SOL    MW4 1146   0.444   0.880   0.759
  273SOL     OW 1147   0.481   1.132   0.844
  273SOL    HW2 1148   0.559   1.167   0.801
  273SOL    HW3 1149   0.408   1.177   0.802
  273SOL    MW4 1150   0.482   1.143   0.833
  274SOL     OW 1151   0.708   1.261   0.756
  274SOL    HW2 1152   0.705   1.356   0.767
  274SOL    HW3 1153   0.728   1.249   0.663
  274SOL    MW4 1154   0.710   1.272   0.745
  275SOL     OW 1155   0.716   1.533   0.849
  275SOL    HW2 1156   0.706   1.528   0.944
  275SOL    HW3 1157   0.628   1.550   0.817
  275SOL    MW4 1158   0.703   1.535   0.858
  276SOL     OW 1159   0.480   1.623   0.753
  276SOL    HW2 1160   0.494   1.714   0.778
  276SOL    HW3 1161   0.474   1.625   0.658
  276SOL    MW4 1162   0.481   1.635   0.744
  277SOL     OW 1163   0.445   1.909   0.866
  277SOL    HW2 1164   0.446   1.926   0.960
  277SOL    HW3 1165   0.368   1.955   0.834
  277SOL    MW4 1166   0.435   1.917   0.874
  278SOL     OW 1167   0.623   2.093   0.753
  278SOL    HW2 1168   0.571   2.028   0.800
  278SOL    HW3 1169   0.596   2.083   0.661
  278SOL    MW4 1170   0.613   2.083   0.747
  279SOL     OW 1171   0.692   2.360   0.850
  279SOL    HW2 1172   0.713   2.351   0.943
  279SOL    HW3 1173   0.671   2.270   0.822
  279SOL    MW4 1174   0.692   2.347   0.859
  280SOL     OW 1175   0.469   2.496   0.773
  280SOL    HW2 1176   0.546   2.448   0.804
  280SOL    HW3 1177   0.489   2.516   0.681
  280SOL    MW4 1178   0.482   2.493   0.765
  281SOL     OW 1179   0.492   2.763   0.873
  281SOL    HW2 1180   0.472   2.670   0.856
  281SOL    HW3 1181   0.423   2.810   0.826
  281SOL    MW4 1182   0.480   2.757   0.864
  282SOL     OW 1183   0.713   2.858   0.731
  282SOL    HW2 1184   0.795   2.811   0.749
  282SOL    HW3 1185   0.646   2.807   0.775
  282SOL    MW4 1186   0.715   2.845   0.739
  283SOL     OW 1187   0.675   3.118   0.808
  283SOL    HW2 1188   0.602   3.159   0.763
  283SOL    HW3 1189   0.686   3.033   0.764
  283SOL    MW4 1190   0.667   3.112   0.796
  284SOL     OW 1191   0.460   3.252   0.710
  284SOL    HW2 1192   0.443   3.339   0.746
  284SOL    HW3 1193   0.382   3.201   0.734
  284SOL    MW4 1194   0.447   3.257   0.718
  285SOL     OW 1195   0.406   3.495   0.834
  285SOL    HW2 1196   0.414   3.508   0.929
  285SOL    HW3 1197   0.327   3.543   0.809
  285SOL    MW4 1198   0.397   3.503   0.844
  286SOL     OW 1199   0.651   3.614   0.791
  286SOL    HW2 1200   0.571   3.562   0.801
  286SOL    HW3 1201   0.623   3.704   0.805
  286SOL    MW4 1202   0.637   3.619   0.794
  287SOL     OW 1203   0.628   3.891   0.838
  287SOL    HW2 1204   0.707   3.919   0.791
  287SOL    HW3 1205   0.559   3.947   0.804
  287SOL    MW4 1206   0.630   3.902   0.827
  288SOL     OW 1207   0.448   4.053   0.710
  288SOL    HW2 1208   0.438   4.141   0.747
  288SOL    HW3 1209   0.375   4.003   0.749
  288SOL    MW4 1210   0.437   4.058   0.720
  289SOL     OW 1211   0.462   4.311   0.836
  289SOL    HW2 1212   0.451   4.301   0.931
  289SOL    HW3 1213   0.381   4.354   0.807
  289SOL    MW4 1214   0.450   4.315   0.845
  290SOL     OW 1215   0.700   4.456   0.785
  290SOL    HW2 1216   0.629   4.396   0.805
  290SOL    HW3 1217   0.678   4.537   0.831
  290SOL    MW4 1218   0.688   4.459   0.793
  291SOL     OW 1219   1.152   0.023   0.892
  291SOL    HW2 1220   1.215   0.081   0.849
  291SOL    HW3 1221   1.067   0.052   0.860
  291SOL    MW4 1222   1.149   0.035   0.882
  292SOL     OW 1223   0.921   0.108   0.748
  292SOL    HW2 1224   0.943   0.197   0.774
  292SOL    HW3 1225   0.834   0.092   0.785
  292SOL    MW4 1226   0.912   0.118   0.756
  293SOL     OW 1227   0.899   0.368   0.840
  293SOL    HW2 1228   0.900   0.375   0.935
  293SOL    HW3 1229   0.981   0.410   0.812
  293SOL    MW4 1230   0.910   0.375   0.849
  294SOL     OW 1231   1.130   0.504   0.746
  294SOL    HW2 1232   1.204   0.456   0.784
  294SOL    HW3 1233   1.149   0.507   0.652
  294SOL    MW4 1234   1.142   0.498   0.739
  295SOL     OW 1235   1.153   0.777   0.807
  295SOL    HW2 1236   1.140   0.770   0.901
  295SOL    HW3 1237   1.158   0.687   0.776
  295SOL    MW4 1238   1.152   0.764   0.815
  296SOL     OW 1239   0.910   0.914   0.692
  296SOL    HW2 1240   0.998   0.880   0.708
  296SOL    HW3 1241   0.852   0.847   0.728
  296SOL    MW4 1242   0.914   0.900   0.699
  297SOL     OW 1243   0.906   1.123   0.880
  297SOL    HW2 1244   0.915   1.045   0.826
  297SOL    HW3 1245   0.835   1.173   0.839
  297SOL    MW4 1246   0.898   1.119   0.867
  298SOL     OW 1247   1.116   1.310   0.748
  298SOL    HW2 1248   1.057   1.250   0.794
  298SOL    HW3 1249   1.096   1.297   0.655
  298SOL    MW4 1250   1.105   1.301   0.742
  299SOL     OW 1251   1.140   1.545   0.899
  299SOL    HW2 1252   1.069   1.606   0.880
  299SOL    HW3 1253   1.122   1.469   0.845
  299SOL    MW4 1254   1.128   1.543   0.890
  300SOL     OW 1255   0.936   1.697   0.804
  300SOL    HW2 1256   0.922   1.791   0.811
  300SOL    HW3 1257   0.851   1.658   0.824
  300SOL    MW4 1258   0.923   1.704   0.808
  301SOL     OW 1259   0.883   1.964   0.844
  301SOL    HW2 1260   0.879   1.973   0.940
  301SOL    HW3 1261   0.800   2.001   0.813
  301SOL    MW4 1262   0.872   1.970   0.853
  302SOL     OW 1263   1.143   2.055   0.719
  302SOL    HW2 1264   1.144   2.141   0.762
  302SOL    HW3 1265   1.067   2.010   0.756
  302SOL    MW4 1266   1.133   2.061   0.729
  303SOL     OW 1267   1.105   2.307   0.882
  303SOL    HW2 1268   1.113   2.302   0.977
  303SOL    HW3 1269   1.175   2.365   0.855
  303SOL    MW4 1270   1.115   2.314   0.891
  304SOL     OW 1271   0.904   2.439   0.720
  304SOL    HW2 1272   0.969   2.399   0.779
  304SOL    HW3 1273   0.820   2.407   0.752
  304SOL    MW4 1274   0.902   2.430   0.732
  305SOL     OW 1275   0.922   2.697   0.842
  305SOL    HW2 1276   0.921   2.680   0.936
  305SOL    HW3 1277   0.900   2.612   0.803
  305SOL    MW4 1278   0.919   2.683   0.849
  306SOL     OW 1279   1.159   2.766   0.696
  306SOL    HW2 1280   1.076   2.747   0.739
  306SOL    HW3 1281   1.145   2.744   0.604
  306SOL    MW4 1282   1.146   2.760   0.690
  307SOL     OW 1283   1.154   3.037   0.816
  307SOL    HW2 1284   1.073   3.083   0.796
  307SOL    HW3 1285   1.150   2.956   0.765
  307SOL    MW4 1286   1.143   3.032   0.807
  308SOL     OW 1287   0.932   3.214   0.764
  308SOL    HW2 1288   0.934   3.307   0.787
  308SOL    HW3 1289   0.841   3.188   0.777
  308SOL    MW4 1290   0.920   3.223   0.769
  309SOL     OW 1291   0.912   3.485   0.840
  309SOL    HW2 1292   0.970   3.548   0.796
  309SOL    HW3 1293   0.825   3.523   0.831
  309SOL    MW4 1294   0.908   3.499   0.833
  310SOL     OW 1295   1.107   3.634   0.719
  310SOL    HW2 1296   1.185   3.593   0.756
  310SOL    HW3 1297   1.109   3.611   0.626
  310SOL    MW4 1298   1.117   3.625   0.712
  311SOL     OW 1299   1.124   3.888   0.832
  311SOL    HW2 1300   1.129   3.874   0.926
  311SOL    HW3 1301   1.118   3.801   0.794
  311SOL    MW4 1302   1.124   3.875   0.839
  312SOL     OW 1303   0.879   4.006   0.755
  312SOL    HW2 1304   0.877   4.092   0.797
  312SOL    HW3 1305   0.955   3.962   0.793
  312SOL    MW4 1306   0.889   4.011   0.766
  313SOL     OW 1307   0.895   4.257   0.873
  313SOL    HW2 1308   0.980   4.300   0.861
  313SOL    HW3 1309   0.833   4.315   0.830
  313SOL    MW4 1310   0.898   4.270   0.865
  314SOL     OW 1311   1.117   4.418   0.815
  314SOL    HW2 1312   1.200   4.377   0.839
  314SOL    HW3 1313   1.127   4.509   0.844
  314SOL    MW4 1314   1.129   4.425   0.822
  315SOL     OW 1315   1.595   0.041   0.859
  315SOL    HW2 1316   1.574   0.006   0.946
  315SOL    HW3 1317   1.515   0.084   0.831
  315SOL    MW4 1318   1.582   0.042   0.867
  316SOL     OW 1319   1.339   0.145   0.716
  316SOL    HW2 1320   1.343   0.239   0.736
  316SOL    HW3 1321   1.307   0.142   0.626
  316SOL    MW4 1322   1.335   0.157   0.707
  317SOL     OW 1323   1.358   0.391   0.861
  317SOL    HW2 1324   1.363   0.386   0.956
  317SOL    HW3 1325   1.436   0.440   0.835
  317SOL    MW4 1326   1.369   0.397   0.870
  318SOL     OW 1327   1.602   0.515   0.734
  318SOL    HW2 1328   1.592   0.608   0.757
  318SOL    HW3 1329   1.684   0.489   0.775
  318SOL    MW4 1330   1.611   0.524   0.742
  319SOL     OW 1331   1.558   0.789   0.824
  319SOL    HW2 1332   1.634   0.832   0.786
  319SOL    HW3 1333   1.483   0.836   0.788
  319SOL    MW4 1334   1.558   0.801   0.814
  320SOL     OW 1335   1.361   0.951   0.721
  320SOL    HW2 1336   1.367   1.023   0.784
  320SOL    HW3 1337   1.285   0.901   0.748
  320SOL    MW4 1338   1.352   0.954   0.733
  321SOL     OW 1339   1.342   1.184   0.860
  321SOL    HW2 1340   1.426   1.218   0.830
  321SOL    HW3 1341   1.277   1.233   0.809
  321SOL    MW4 1342   1.344   1.195   0.849
  322SOL     OW 1343   1.562   1.293   0.725
  322SOL    HW2 1344   1.584   1.380   0.756
  322SOL    HW3 1345   1.544   1.305   0.631
  322SOL    MW4 1346   1.563   1.306   0.716
  323SOL     OW 1347   1.575   1.563   0.805
  323SOL    HW2 1348   1.562   1.568   0.900
  323SOL    HW3 1349   1.491   1.590   0.767
  323SOL    MW4 1350   1.562   1.567   0.812
  324SOL     OW 1351   1.331   1.644   0.721
  324SOL    HW2 1352   1.319   1.736   0.744
  324SOL    HW3 1353   1.285   1.596   0.790
  324SOL    MW4 1354   1.323   1.650   0.733
  325SOL     OW 1355   1.344   1.898   0.811
  325SOL    HW2 1356   1.329   1.891   0.905
  325SOL    HW3 1357   1.272   1.953   0.779
  325SOL    MW4 1358   1.332   1.904   0.819
  326SOL     OW 1359   1.557   2.055   0.762
  326SOL    HW2 1360   1.481   2.002   0.788
  326SOL    HW3 1361   1.557   2.051   0.666
  326SOL    MW4 1362   1.547   2.047   0.753
  327SOL     OW 1363   1.535   2.312   0.872
  327SOL    HW2 1364   1.466   2.360   0.828
  327SOL    HW3 1365   1.525   2.222   0.840
  327SOL    MW4 1366   1.524   2.306   0.862
  328SOL     OW 1367   1.315   2.445   0.780
  328SOL    HW2 1368   1.342   2.533   0.805
  328SOL    HW3 1369   1.305   2.449   0.685
  328SOL    MW4 1370   1.317   2.457   0.771
  329SOL     OW 1371   1.387   2.719   0.853
  329SOL    HW2 1372   1.357   2.728   0.944
  329SOL    HW3 1373   1.314   2.752   0.801
  329SOL    MW4 1374   1.373   2.725   0.858
  330SOL     OW 1375   1.586   2.822   0.706
  330SOL    HW2 1376   1.588   2.912   0.738
  330SOL    HW3 1377   1.523   2.777   0.762
  330SOL    MW4 1378   1.578   2.828   0.717
  331SOL     OW 1379   1.569   3.076   0.797
  331SOL    HW2 1380   1.571   3.080   0.892
  331SOL    HW3 1381   1.484   3.114   0.773
  331SOL    MW4 1382   1.558   3.081   0.806
  332SOL     OW 1383   1.338   3.223   0.749
  332SOL    HW2 1384   1.268   3.169   0.786
  332SOL    HW3 1385   1.323   3.221   0.655
  332SOL    MW4 1386   1.327   3.215   0.742
  333SOL     OW 1387   1.326   3.514   0.841
  333SOL    HW2 1388   1.398   3.576   0.850
  333SOL    HW3 1389   1.364   3.440   0.793
  333SOL    MW4 1390   1.341   3.512   0.836
  334SOL     OW 1391   1.552   3.666   0.830
  334SOL    HW2 1392   1.620   3.610   0.868
  334SOL    HW3 1393   1.571   3.666   0.736
  334SOL    MW4 1394   1.564   3.659   0.822
  335SOL     OW 1395   1.543   3.927   0.906
  335SOL    HW2 1396   1.459   3.952   0.866
  335SOL    HW3 1397   1.557   3.837   0.877
  335SOL    MW4 1398   1.534   3.918   0.897
  336SOL     OW 1399   1.326   4.057   0.725
  336SOL    HW2 1400   1.241   4.020   0.749
  336SOL    HW3 1401   1.326   4.057   0.629
  336SOL    MW4 1402   1.315   4.052   0.715
  337SOL     OW 1403   1.371   4.280   0.868
  337SOL    HW2 1404   1.457   4.303   0.832
  337SOL    HW3 1405   1.348   4.198   0.824
  337SOL    MW4 1406   1.380   4.272   0.857
  338SOL     OW 1407   1.587   4.460   0.742
  338SOL    HW2 1408   1.653   4.410   0.790
  338SOL    HW3 1409   1.593   4.549   0.776
  338SOL    MW4 1410   1.596   4.465   0.753
  339SOL     OW 1411   2.044   0.014   0.887
  339SOL    HW2 1412   2.138   0.030   0.893
  339SOL    HW3 1413   2.037  -0.077   0.857
  339SOL    MW4 1414   2.056   0.004   0.883
  340SOL     OW 1415   1.835   0.140   0.742
  340SOL    HW2 1416   1.913   0.107   0.786
  340SOL    HW3 1417   1.763   0.089   0.778
  340SOL    MW4 1418   1.836   0.129   0.753
  341SOL     OW 1419   1.858   0.402   0.835
  341SOL    HW2 1420   1.866   0.322   0.783
  341SOL    HW3 1421   1.936   0.453   0.813
  341SOL    MW4 1422   1.869   0.398   0.825
  342SOL     OW 1423   2.079   0.525   0.733
  342SOL    HW2 1424   2.158   0.491   0.775
  342SOL    HW3 1425   2.083   0.490   0.643
  342SOL    MW4 1426   2.090   0.516   0.726
  343SOL     OW 1427   2.036   0.794   0.825
  343SOL    HW2 1428   2.104   0.854   0.796
  343SOL    HW3 1429   2.059   0.710   0.784
  343SOL    MW4 1430   2.048   0.791   0.816
  344SOL     OW 1431   1.799   0.908   0.737
  344SOL    HW2 1432   1.814   0.999   0.762
  344SOL    HW3 1433   1.875   0.861   0.770
  344SOL    MW4 1434   1.811   0.914   0.744
  345SOL     OW 1435   1.800   1.178   0.854
  345SOL    HW2 1436   1.876   1.218   0.813
  345SOL    HW3 1437   1.725   1.218   0.809
  345SOL    MW4 1438   1.800   1.189   0.843
  346SOL     OW 1439   1.997   1.317   0.734
  346SOL    HW2 1440   2.080   1.278   0.762
  346SOL    HW3 1441   1.982   1.283   0.646
  346SOL    MW4 1442   2.006   1.308   0.726
  347SOL     OW 1443   2.017   1.545   0.886
  347SOL    HW2 1444   2.098   1.581   0.850
  347SOL    HW3 1445   2.002   1.464   0.837
  347SOL    MW4 1446   2.026   1.539   0.875
  348SOL     OW 1447   1.796   1.696   0.749
  348SOL    HW2 1448   1.854   1.636   0.794
  348SOL    HW3 1449   1.709   1.656   0.757
  348SOL    MW4 1450   1.792   1.683   0.756
  349SOL     OW 1451   1.814   1.964   0.815
  349SOL    HW2 1452   1.811   1.873   0.786
  349SOL    HW3 1453   1.724   1.996   0.806
  349SOL    MW4 1454   1.802   1.956   0.810
  350SOL     OW 1455   2.047   2.074   0.721
  350SOL    HW2 1456   2.040   2.160   0.761
  350SOL    HW3 1457   1.965   2.030   0.743
  350SOL    MW4 1458   2.036   2.079   0.729
  351SOL     OW 1459   1.998   2.325   0.857
  351SOL    HW2 1460   1.979   2.312   0.950
  351SOL    HW3 1461   1.912   2.341   0.818
  351SOL    MW4 1462   1.984   2.326   0.864
  352SOL     OW 1463   1.749   2.409   0.724
  352SOL    HW2 1464   1.666   2.376   0.758
  352SOL    HW3 1465   1.733   2.421   0.630
  352SOL    MW4 1466   1.736   2.406   0.716
  353SOL     OW 1467   1.801   2.666   0.832
  353SOL    HW2 1468   1.800   2.574   0.806
  353SOL    HW3 1469   1.732   2.707   0.780
  353SOL    MW4 1470   1.792   2.659   0.822
  354SOL     OW 1471   1.984   2.817   0.688
  354SOL    HW2 1472   2.075   2.799   0.713
  354SOL    HW3 1473   1.932   2.769   0.753
  354SOL    MW4 1474   1.989   2.808   0.700
  355SOL     OW 1475   1.990   3.043   0.869
  355SOL    HW2 1476   1.911   3.095   0.854
  355SOL    HW3 1477   1.973   2.960   0.824
  355SOL    MW4 1478   1.977   3.039   0.861
  356SOL     OW 1479   1.821   3.259   0.764
  356SOL    HW2 1480   1.733   3.223   0.748
  356SOL    HW3 1481   1.865   3.250   0.679
  356SOL    MW4 1482   1.815   3.253   0.750
  357SOL     OW 1483   1.768   3.496   0.889
  357SOL    HW2 1484   1.757   3.479   0.982
  357SOL    HW3 1485   1.787   3.410   0.851
  357SOL    MW4 1486   1.769   3.482   0.896
  358SOL     OW 1487   1.977   3.641   0.764
  358SOL    HW2 1488   1.960   3.730   0.794
  358SOL    HW3 1489   1.901   3.591   0.792
  358SOL    MW4 1490   1.965   3.646   0.772
  359SOL     OW 1491   1.964   3.898   0.846
  359SOL    HW2 1492   1.978   3.915   0.940
  359SOL    HW3 1493   1.886   3.948   0.825
  359SOL    MW4 1494   1.956   3.907   0.856
  360SOL     OW 1495   1.754   4.054   0.781
  360SOL    HW2 1496   1.669   4.014   0.800
  360SOL    HW3 1497   1.755   4.063   0.686
  360SOL    MW4 1498   1.743   4.050   0.771
  361SOL     OW 1499   1.777   4.316   0.878
  361SOL    HW2 1500   1.764   4.301   0.971
  361SOL    HW3 1501   1.759   4.231   0.837
  361SOL    MW4 1502   1.773   4.303   0.885
  362SOL     OW 1503   2.023   4.402   0.794
  362SOL    HW2 1504   1.939   4.366   0.821
  362SOL    HW3 1505   2.010   4.428   0.703
  362SOL    MW4 1506   2.010   4.401   0.786
  363SOL     OW 1507   2.559   4.583   0.840
  363SOL    HW2 1508   2.598   4.581   0.928
  363SOL    HW3 1509   2.539   4.492   0.820
  363SOL    MW4 1510   2.562   4.571   0.849
  364SOL     OW 1511   2.320   0.088   0.871
  364SOL    HW2 1512   2.394   0.032   0.894
  364SOL    HW3 1513   2.295   0.058   0.783
  364SOL    MW4 1514   2.326   0.076   0.862
  365SOL     OW 1515   2.271   0.369   0.877
  365SOL    HW2 1516   2.349   0.408   0.837
  365SOL    HW3 1517   2.289   0.275   0.878
  365SOL    MW4 1518   2.284   0.362   0.872
  366SOL     OW 1519   2.461   0.495   0.721
  366SOL    HW2 1520   2.553   0.471   0.736
  366SOL    HW3 1521   2.449   0.485   0.627
  366SOL    MW4 1522   2.472   0.491   0.711
  367SOL     OW 1523   2.447   0.788   0.813
  367SOL    HW2 1524   2.541   0.802   0.810
  367SOL    HW3 1525   2.435   0.698   0.783
  367SOL    MW4 1526   2.457   0.778   0.809
  368SOL     OW 1527   2.244   0.941   0.735
  368SOL    HW2 1528   2.323   0.901   0.771
  368SOL    HW3 1529   2.244   0.914   0.643
  368SOL    MW4 1530   2.255   0.932   0.727
  369SOL     OW 1531   2.209   1.192   0.833
  369SOL    HW2 1532   2.215   1.180   0.928
  369SOL    HW3 1533   2.222   1.105   0.796
  369SOL    MW4 1534   2.212   1.179   0.841
  370SOL     OW 1535   2.469   1.233   0.725
  370SOL    HW2 1536   2.382   1.223   0.764
  370SOL    HW3 1537   2.465   1.182   0.644
  370SOL    MW4 1538   2.457   1.225   0.719
  371SOL     OW 1539   2.457   1.537   0.783
  371SOL    HW2 1540   2.538   1.584   0.764
  371SOL    HW3 1541   2.472   1.449   0.750
  371SOL    MW4 1542   2.470   1.532   0.776
  372SOL     OW 1543   2.222   1.678   0.740
  372SOL    HW2 1544   2.308   1.637   0.733
  372SOL    HW3 1545   2.191   1.685   0.649
  372SOL    MW4 1546   2.229   1.673   0.727
  373SOL     OW 1547   2.253   1.932   0.832
  373SOL    HW2 1548   2.242   1.840   0.810
  373SOL    HW3 1549   2.185   1.977   0.781
  373SOL    MW4 1550   2.243   1.926   0.822
  374SOL     OW 1551   2.479   2.084   0.761
  374SOL    HW2 1552   2.414   2.017   0.784
  374SOL    HW3 1553   2.466   2.100   0.668
  374SOL    MW4 1554   2.469   2.077   0.752
  375SOL     OW 1555   2.472   2.325   0.890
  375SOL    HW2 1556   2.534   2.382   0.844
  375SOL    HW3 1557   2.480   2.240   0.845
  375SOL    MW4 1558   2.481   2.321   0.878
  376SOL     OW 1559   2.237   2.463   0.782
  376SOL    HW2 1560   2.308   2.422   0.832
  376SOL    HW3 1561   2.158   2.421   0.815
  376SOL    MW4 1562   2.236   2.452   0.793
  377SOL     OW 1563   2.210   2.737   0.834
  377SOL    HW2 1564   2.222   2.743   0.929
  377SOL    HW3 1565   2.206   2.643   0.817
  377SOL    MW4 1566   2.211   2.725   0.845
  378SOL     OW 1567   2.457   2.843   0.724
  378SOL    HW2 1568   2.523   2.811   0.786
  378SOL    HW3 1569   2.376   2.800   0.751
  378SOL    MW4 1570   2.455   2.833   0.736
  379SOL     OW 1571   2.415   3.107   0.854
  379SOL    HW2 1572   2.422   3.089   0.948
  379SOL    HW3 1573   2.428   3.022   0.812
  379SOL    MW4 1574   2.418   3.093   0.861
  380SOL     OW 1575   2.184   3.234   0.750
  380SOL    HW2 1576   2.119   3.177   0.792
  380SOL    HW3 1577   2.269   3.195   0.775
  380SOL    MW4 1578   2.187   3.221   0.759
  381SOL     OW 1579   2.211   3.502   0.834
  381SOL    HW2 1580   2.201   3.412   0.805
  381SOL    HW3 1581   2.124   3.541   0.820
  381SOL    MW4 1582   2.198   3.496   0.828
  382SOL     OW 1583   2.429   3.647   0.701
  382SOL    HW2 1584   2.512   3.604   0.723
  382SOL    HW3 1585   2.362   3.592   0.739
  382SOL    MW4 1586   2.431   3.634   0.709
  383SOL     OW 1587   2.432   3.882   0.874
  383SOL    HW2 1588   2.360   3.932   0.834
  383SOL    HW3 1589   2.427   3.797   0.831
  383SOL    MW4 1590   2.422   3.878   0.863
  384SOL     OW 1591   2.182   4.010   0.733
  384SOL    HW2 1592   2.104   3.963   0.762
  384SOL    HW3 1593   2.170   4.023   0.639
  384SOL    MW4 1594   2.170   4.006   0.725
  385SOL     OW 1595   2.240   4.268   0.859
  385SOL    HW2 1596   2.219   4.185   0.816
  385SOL    HW3 1597   2.174   4.329   0.827
  385SOL    MW4 1598   2.228   4.265   0.849
  386SOL     OW 1599   2.452   4.369   0.688
  386SOL    HW2 1600   2.534   4.323   0.704
  386SOL    HW3 1601   2.390   4.333   0.751
  386SOL    MW4 1602   2.455   4.358   0.698
  387SOL     OW 1603   2.898   0.016   0.784
  387SOL    HW2 1604   2.903  -0.072   0.747
  387SOL    HW3 1605   2.845   0.066   0.721
  387SOL    MW4 1606   2.891   0.011   0.770
  388SOL     OW 1607   2.570   4.651   0.548
  388SOL    HW2 1608   2.637   4.719   0.557
  388SOL    HW3 1609   2.559   4.617   0.637
  388SOL    MW4 1610   2.578   4.655   0.561
  389SOL     OW 1611   2.717   0.369   0.820
  389SOL    HW2 1612   2.725   0.355   0.915
  389SOL    HW3 1613   2.789   0.428   0.799
  389SOL    MW4 1614   2.728   0.375   0.830
  390SOL     OW 1615   2.944   0.493   0.755
  390SOL    HW2 1616   3.012   0.430   0.780
  390SOL    HW3 1617   2.923   0.471   0.664
  390SOL    MW4 1618   2.950   0.482   0.746
  391SOL     OW 1619   3.027   0.743   0.789
  391SOL    HW2 1620   2.987   0.766   0.872
  391SOL    HW3 1621   3.003   0.651   0.776
  391SOL    MW4 1622   3.018   0.734   0.798
  392SOL     OW 1623   2.697   0.892   0.775
  392SOL    HW2 1624   2.778   0.842   0.785
  392SOL    HW3 1625   2.696   0.917   0.683
  392SOL    MW4 1626   2.708   0.888   0.764
  393SOL     OW 1627   2.672   1.140   0.895
  393SOL    HW2 1628   2.673   1.048   0.868
  393SOL    HW3 1629   2.624   1.185   0.825
  393SOL    MW4 1630   2.666   1.134   0.882
  394SOL     OW 1631   2.878   1.253   0.770
  394SOL    HW2 1632   2.956   1.218   0.813
  394SOL    HW3 1633   2.805   1.215   0.818
  394SOL    MW4 1634   2.879   1.244   0.782
  395SOL     OW 1635   2.915   1.540   0.825
  395SOL    HW2 1636   2.998   1.572   0.789
  395SOL    HW3 1637   2.908   1.450   0.793
  395SOL    MW4 1638   2.925   1.532   0.816
  396SOL     OW 1639   2.689   1.686   0.734
  396SOL    HW2 1640   2.690   1.766   0.787
  396SOL    HW3 1641   2.768   1.640   0.762
  396SOL    MW4 1642   2.700   1.691   0.745
  397SOL     OW 1643   2.713   1.950   0.814
  397SOL    HW2 1644   2.719   1.955   0.910
  397SOL    HW3 1645   2.631   1.994   0.793
  397SOL    MW4 1646   2.703   1.957   0.824
  398SOL     OW 1647   2.881   2.099   0.640
  398SOL    HW2 1648   2.882   2.176   0.697
  398SOL    HW3 1649   2.836   2.032   0.692
  398SOL    MW4 1650   2.875   2.101   0.654
  399SOL     OW 1651   2.867   2.342   0.774
  399SOL    HW2 1652   2.886   2.331   0.867
  399SOL    HW3 1653   2.781   2.382   0.771
  399SOL    MW4 1654   2.858   2.346   0.786
  400SOL     OW 1655   2.645   2.503   0.751
  400SOL    HW2 1656   2.644   2.522   0.657
  400SOL    HW3 1657   2.667   2.587   0.792
  400SOL    MW4 1658   2.648   2.517   0.744
  401SOL     OW 1659   2.681   2.757   0.873
  401SOL    HW2 1660   2.688   2.742   0.968
  401SOL    HW3 1661   2.769   2.782   0.847
  401SOL    MW4 1662   2.693   2.758   0.882
  402SOL     OW 1663   2.824   2.912   0.566
  402SOL    HW2 1664   2.758   2.859   0.522
  402SOL    HW3 1665   2.786   3.000   0.570
  402SOL    MW4 1666   2.810   2.916   0.561
  403SOL     OW 1667   2.923   3.126   0.930
  403SOL    HW2 1668   2.829   3.139   0.913
  403SOL    HW3 1669   2.945   3.044   0.886
  403SOL    MW4 1670   2.913   3.117   0.922
  404SOL     OW 1671   2.677   3.209   0.850
  404SOL    HW2 1672   2.654   3.301   0.836
  404SOL    HW3 1673   2.593   3.163   0.845
  404SOL    MW4 1674   2.663   3.215   0.847
  405SOL     OW 1675   2.624   3.480   0.817
  405SOL    HW2 1676   2.633   3.484   0.913
  405SOL    HW3 1677   2.711   3.505   0.784
  405SOL    MW4 1678   2.637   3.484   0.826
  406SOL     OW 1679   2.870   3.568   0.766
  406SOL    HW2 1680   2.876   3.655   0.807
  406SOL    HW3 1681   2.901   3.582   0.676
  406SOL    MW4 1682   2.875   3.582   0.759
  407SOL     OW 1683   2.910   3.843   0.846
  407SOL    HW2 1684   2.920   3.838   0.941
  407SOL    HW3 1685   2.828   3.892   0.833
  407SOL    MW4 1686   2.900   3.849   0.857
  408SOL     OW 1687   2.675   3.993   0.773
  408SOL    HW2 1688   2.594   3.951   0.803
  408SOL    HW3 1689   2.688   3.959   0.685
  408SOL    MW4 1690   2.666   3.983   0.765
  409SOL     OW 1691   2.684   4.256   0.803
  409SOL    HW2 1692   2.672   4.267   0.897
  409SOL    HW3 1693   2.688   4.161   0.790
  409SOL    MW4 1694   2.683   4.245   0.813
  410SOL     OW 1695   2.881   4.401   0.691
  410SOL    HW2 1696   2.958   4.348   0.714
  410SOL    HW3 1697   2.807   4.353   0.729
  410SOL    MW4 1698   2.881   4.388   0.699
  411SOL     OW 1699   3.337   4.582   0.848
  411SOL    HW2 1700   3.323   4.596   0.942
  411SOL    HW3 1701   3.282   4.648   0.806
  411SOL    MW4 1702   3.328   4.593   0.855
  412SOL     OW 1703   3.168   0.093   0.725
  412SOL    HW2 1704   3.168   0.184   0.752
  412SOL    HW3 1705   3.078   0.063   0.739
  412SOL    MW4 1706   3.156   0.101   0.730
  413SOL     OW 1707   3.186   0.370   0.822
  413SOL    HW2 1708   3.196   0.389   0.915
  413SOL    HW3 1709   3.251   0.425   0.779
  413SOL    MW4 1710   3.196   0.380   0.829
  414SOL     OW 1711   3.367   0.532   0.691
  414SOL    HW2 1712   3.440   0.477   0.721
  414SOL    HW3 1713   3.376   0.532   0.596
  414SOL    MW4 1714   3.378   0.525   0.682
  415SOL     OW 1715   3.313   0.775   0.817
  415SOL    HW2 1716   3.219   0.779   0.804
  415SOL    HW3 1717   3.340   0.693   0.776
  415SOL    MW4 1718   3.304   0.765   0.810
  416SOL     OW 1719   3.115   0.940   0.605
  416SOL    HW2 1720   3.123   1.008   0.671
  416SOL    HW3 1721   3.057   0.875   0.644
  416SOL    MW4 1722   3.109   0.940   0.619
  417SOL     OW 1723   3.160   1.147   0.809
  417SOL    HW2 1724   3.183   1.147   0.902
  417SOL    HW3 1725   3.231   1.194   0.766
  417SOL    MW4 1726   3.172   1.153   0.815
  418SOL     OW 1727   3.399   1.287   0.731
  418SOL    HW2 1728   3.478   1.235   0.749
  418SOL    HW3 1729   3.411   1.366   0.784
  418SOL    MW4 1730   3.411   1.291   0.740
  419SOL     OW 1731   3.409   1.537   0.839
  419SOL    HW2 1732   3.421   1.526   0.934
  419SOL    HW3 1733   3.470   1.606   0.815
  419SOL    MW4 1734   3.418   1.544   0.849
  420SOL     OW 1735   3.166   1.631   0.746
  420SOL    HW2 1736   3.256   1.604   0.765
  420SOL    HW3 1737   3.166   1.653   0.653
  420SOL    MW4 1738   3.178   1.630   0.736
  421SOL     OW 1739   3.235   1.884   0.825
  421SOL    HW2 1740   3.183   1.897   0.904
  421SOL    HW3 1741   3.208   1.798   0.792
  421SOL    MW4 1742   3.224   1.875   0.831
  422SOL     OW 1743   3.459   2.047   0.797
  422SOL    HW2 1744   3.445   2.131   0.841
  422SOL    HW3 1745   3.379   1.997   0.813
  422SOL    MW4 1746   3.446   2.051   0.805
  423SOL     OW 1747   3.453   2.299   0.888
  423SOL    HW2 1748   3.421   2.323   0.975
  423SOL    HW3 1749   3.513   2.370   0.865
  423SOL    MW4 1750   3.457   2.312   0.896
  424SOL     OW 1751   3.085   2.522   0.680
  424SOL    HW2 1752   3.154   2.456   0.673
  424SOL    HW3 1753   3.006   2.472   0.705
  424SOL    MW4 1754   3.083   2.506   0.683
  425SOL     OW 1755   3.160   2.733   0.883
  425SOL    HW2 1756   3.126   2.656   0.837
  425SOL    HW3 1757   3.225   2.770   0.823
  425SOL    MW4 1758   3.164   2.728   0.869
  426SOL     OW 1759   3.291   2.890   0.651
  426SOL    HW2 1760   3.232   2.923   0.584
  426SOL    HW3 1761   3.360   2.845   0.602
  426SOL    MW4 1762   3.292   2.888   0.636
  427SOL     OW 1763   3.339   3.087   0.843
  427SOL    HW2 1764   3.362   3.058   0.932
  427SOL    HW3 1765   3.326   3.005   0.795
  427SOL    MW4 1766   3.340   3.072   0.849
  428SOL     OW 1767   3.111   3.249   0.779
  428SOL    HW2 1768   3.182   3.186   0.782
  428SOL    HW3 1769   3.039   3.207   0.827
  428SOL    MW4 1770   3.111   3.235   0.786
  429SOL     OW 1771   3.108   3.487   0.905
  429SOL    HW2 1772   3.118   3.398   0.872
  429SOL    HW3 1773   3.024   3.517   0.871
  429SOL    MW4 1774   3.099   3.479   0.896
  430SOL     OW 1775   3.347   3.577   0.784
  430SOL    HW2 1776   3.332   3.672   0.779
  430SOL    HW3 1777   3.267   3.543   0.825
  430SOL    MW4 1778   3.334   3.585   0.789
  431SOL     OW 1779   3.323   3.858   0.838
  431SOL    HW2 1780   3.337   3.859   0.933
  431SOL    HW3 1781   3.394   3.910   0.802
  431SOL    MW4 1782   3.334   3.865   0.846
  432SOL     OW 1783   3.105   3.970   0.691
  432SOL    HW2 1784   3.187   3.949   0.734
  432SOL    HW3 1785   3.039   3.919   0.738
  432SOL    MW4 1786   3.107   3.961   0.703
  433SOL     OW 1787   3.088   4.239   0.793
  433SOL    HW2 1788   3.180   4.264   0.780
  433SOL    HW3 1789   3.079   4.157   0.744
  433SOL    MW4 1790   3.099   4.231   0.785
  434SOL     OW 1791   3.322   4.355   0.714
  434SOL    HW2 1792   3.319   4.437   0.762
  434SOL    HW3 1793   3.355   4.378   0.627
  434SOL    MW4 1794   3.326   4.369   0.709
  435SOL     OW 1795   3.789   4.664   0.843
  435SOL    HW2 1796   3.860   4.709   0.798
  435SOL    HW3 1797   3.711   4.716   0.822
  435SOL    MW4 1798   3.788   4.677   0.834
  436SOL     OW 1799   3.541   0.107   0.757
  436SOL    HW2 1800   3.484   0.040   0.795
  436SOL    HW3 1801   3.558   0.076   0.668
  436SOL    MW4 1802   3.535   0.094   0.751
  437SOL     OW 1803   3.606   0.375   0.790
  437SOL    HW2 1804   3.585   0.379   0.883
  437SOL    HW3 1805   3.577   0.288   0.762
  437SOL    MW4 1806   3.600   0.364   0.799
  438SOL     OW 1807   3.818   0.560   0.772
  438SOL    HW2 1808   3.789   0.646   0.804
  438SOL    HW3 1809   3.747   0.500   0.795
  438SOL    MW4 1810   3.805   0.564   0.779
  439SOL     OW 1811   3.748   0.811   0.846
  439SOL    HW2 1812   3.746   0.812   0.942
  439SOL    HW3 1813   3.834   0.847   0.823
  439SOL    MW4 1814   3.759   0.816   0.856
  440SOL     OW 1815   3.487   0.950   0.674
  440SOL    HW2 1816   3.565   0.895   0.680
  440SOL    HW3 1817   3.423   0.906   0.729
  440SOL    MW4 1818   3.489   0.937   0.682
  441SOL     OW 1819   3.632   1.139   0.834
  441SOL    HW2 1820   3.608   1.131   0.926
  441SOL    HW3 1821   3.594   1.061   0.793
  441SOL    MW4 1822   3.623   1.127   0.841
  442SOL     OW 1823   3.853   1.303   0.756
  442SOL    HW2 1824   3.777   1.249   0.777
  442SOL    HW3 1825   3.850   1.312   0.661
  442SOL    MW4 1826   3.843   1.297   0.746
  443SOL     OW 1827   3.825   1.567   0.846
  443SOL    HW2 1828   3.901   1.618   0.818
  443SOL    HW3 1829   3.841   1.479   0.812
  443SOL    MW4 1830   3.837   1.562   0.838
  444SOL     OW 1831   3.601   1.722   0.771
  444SOL    HW2 1832   3.630   1.795   0.825
  444SOL    HW3 1833   3.671   1.657   0.779
  444SOL    MW4 1834   3.614   1.723   0.779
  445SOL     OW 1835   3.682   1.946   0.922
  445SOL    HW2 1836   3.747   1.999   0.876
  445SOL    HW3 1837   3.598   1.978   0.889
  445SOL    MW4 1838   3.679   1.958   0.911
  446SOL     OW 1839   3.874   2.062   0.730
  446SOL    HW2 1840   3.960   2.031   0.760
  446SOL    HW3 1841   3.888   2.086   0.639
  446SOL    MW4 1842   3.887   2.061   0.722
  447SOL     OW 1843   3.861   2.319   0.857
  447SOL    HW2 1844   3.844   2.301   0.949
  447SOL    HW3 1845   3.860   2.233   0.815
  447SOL    MW4 1846   3.859   2.305   0.863
  448SOL     OW 1847   3.653   2.494   0.812
  448SOL    HW2 1848   3.659   2.583   0.848
  448SOL    HW3 1849   3.733   2.451   0.840
  448SOL    MW4 1850   3.664   2.500   0.820
  449SOL     OW 1851   3.678   2.783   0.867
  449SOL    HW2 1852   3.668   2.776   0.962
  449SOL    HW3 1853   3.728   2.864   0.854
  449SOL    MW4 1854   3.683   2.793   0.878
  450SOL     OW 1855   3.872   2.781   0.643
  450SOL    HW2 1856   3.784   2.745   0.630
  450SOL    HW3 1857   3.907   2.788   0.554
  450SOL    MW4 1858   3.865   2.778   0.630
  451SOL     OW 1859   3.794   3.037   0.872
  451SOL    HW2 1860   3.869   3.090   0.844
  451SOL    HW3 1861   3.718   3.084   0.839
  451SOL    MW4 1862   3.794   3.050   0.864
  452SOL     OW 1863   3.573   3.179   0.746
  452SOL    HW2 1864   3.490   3.137   0.767
  452SOL    HW3 1865   3.574   3.183   0.650
  452SOL    MW4 1866   3.562   3.174   0.736
  453SOL     OW 1867   3.579   3.445   0.856
  453SOL    HW2 1868   3.562   3.354   0.830
  453SOL    HW3 1869   3.499   3.492   0.831
  453SOL    MW4 1870   3.566   3.439   0.849
  454SOL     OW 1871   3.804   3.595   0.867
  454SOL    HW2 1872   3.887   3.548   0.860
  454SOL    HW3 1873   3.738   3.527   0.856
  454SOL    MW4 1874   3.806   3.580   0.865
  455SOL     OW 1875   3.767   3.863   0.852
  455SOL    HW2 1876   3.693   3.888   0.796
  455SOL    HW3 1877   3.762   3.767   0.857
  455SOL    MW4 1878   3.757   3.853   0.845
  456SOL     OW 1879   3.541   3.979   0.723
  456SOL    HW2 1880   3.536   4.069   0.755
  456SOL    HW3 1881   3.558   3.987   0.629
  456SOL    MW4 1882   3.543   3.992   0.715
  457SOL     OW 1883   3.562   4.248   0.838
  457SOL    HW2 1884   3.646   4.294   0.833
  457SOL    HW3 1885   3.498   4.311   0.807
  457SOL    MW4 1886   3.565   4.262   0.834
  458SOL     OW 1887   3.796   4.400   0.844
  458SOL    HW2 1888   3.880   4.359   0.864
  458SOL    HW3 1889   3.815   4.494   0.840
  458SOL    MW4 1890   3.809   4.407   0.846
  459SOL     OW 1891   4.247   4.661   0.823
  459SOL    HW2 1892   4.249   4.656   0.918
  459SOL    HW3 1893   4.167   4.710   0.803
  459SOL    MW4 1894   4.237   4.667   0.833
  460SOL     OW 1895   4.013   0.145   0.742
  460SOL    HW2 1896   4.015   0.213   0.810
  460SOL    HW3 1897   3.999   0.193   0.661
  460SOL    MW4 1898   4.011   0.160   0.741
  461SOL     OW 1899   4.035   0.398   0.857
  461SOL    HW2 1900   4.111   0.432   0.811
  461SOL    HW3 1901   3.961   0.444   0.818
  461SOL    MW4 1902   4.035   0.409   0.846
  462SOL     OW 1903   4.271   0.496   0.726
  462SOL    HW2 1904   4.339   0.464   0.784
  462SOL    HW3 1905   4.316   0.516   0.644
  462SOL    MW4 1906   4.286   0.495   0.723
  463SOL     OW 1907   4.224   0.763   0.865
  463SOL    HW2 1908   4.141   0.804   0.840
  463SOL    HW3 1909   4.212   0.670   0.845
  463SOL    MW4 1910   4.212   0.756   0.859
  464SOL     OW 1911   4.002   0.895   0.770
  464SOL    HW2 1912   4.023   0.985   0.794
  464SOL    HW3 1913   4.008   0.894   0.674
  464SOL    MW4 1914   4.005   0.906   0.761
  465SOL     OW 1915   4.075   1.158   0.831
  465SOL    HW2 1916   4.059   1.140   0.924
  465SOL    HW3 1917   3.997   1.205   0.802
  465SOL    MW4 1918   4.062   1.162   0.839
  466SOL     OW 1919   4.292   1.285   0.730
  466SOL    HW2 1920   4.209   1.241   0.751
  466SOL    HW3 1921   4.359   1.225   0.763
  466SOL    MW4 1922   4.290   1.271   0.737
  467SOL     OW 1923   4.257   1.537   0.853
  467SOL    HW2 1924   4.280   1.530   0.946
  467SOL    HW3 1925   4.271   1.448   0.819
  467SOL    MW4 1926   4.262   1.524   0.861
  468SOL     OW 1927   4.068   1.716   0.797
  468SOL    HW2 1928   4.130   1.645   0.813
  468SOL    HW3 1929   4.076   1.734   0.703
  468SOL    MW4 1930   4.078   1.709   0.787
  469SOL     OW 1931   4.123   1.978   0.870
  469SOL    HW2 1932   4.204   2.016   0.836
  469SOL    HW3 1933   4.129   1.885   0.849
  469SOL    MW4 1934   4.135   1.971   0.863
  470SOL     OW 1935   4.278   2.049   0.661
  470SOL    HW2 1936   4.349   1.993   0.693
  470SOL    HW3 1937   4.311   2.085   0.578
  470SOL    MW4 1938   4.292   2.046   0.654
  471SOL     OW 1939   4.348   2.298   0.800
  471SOL    HW2 1940   4.260   2.337   0.808
  471SOL    HW3 1941   4.332   2.210   0.768
  471SOL    MW4 1942   4.334   2.292   0.797
  472SOL     OW 1943   4.108   2.438   0.802
  472SOL    HW2 1944   4.093   2.531   0.818
  472SOL    HW3 1945   4.028   2.395   0.831
  472SOL    MW4 1946   4.096   2.445   0.808
  473SOL     OW 1947   4.076   2.702   0.819
  473SOL    HW2 1948   4.153   2.754   0.797
  473SOL    HW3 1949   4.011   2.728   0.754
  473SOL    MW4 1950   4.078   2.712   0.808
  474SOL     OW 1951   4.311   2.835   0.768
  474SOL    HW2 1952   4.395   2.810   0.805
  474SOL    HW3 1953   4.323   2.825   0.673
  474SOL    MW4 1954   4.323   2.830   0.760
  475SOL     OW 1955   4.304   3.112   0.838
  475SOL    HW2 1956   4.317   3.025   0.803
  475SOL    HW3 1957   4.355   3.169   0.780
  475SOL    MW4 1958   4.313   3.108   0.826
  476SOL     OW 1959   4.012   3.164   0.760
  476SOL    HW2 1960   4.015   3.256   0.786
  476SOL    HW3 1961   4.099   3.130   0.782
  476SOL    MW4 1962   4.024   3.172   0.767
  477SOL     OW 1963   4.041   3.450   0.840
  477SOL    HW2 1964   4.056   3.464   0.934
  477SOL    HW3 1965   4.113   3.494   0.797
  477SOL    MW4 1966   4.052   3.457   0.847
  478SOL     OW 1967   4.269   3.593   0.733
  478SOL    HW2 1968   4.272   3.674   0.783
  478SOL    HW3 1969   4.266   3.620   0.642
  478SOL    MW4 1970   4.269   3.607   0.728
  479SOL     OW 1971   4.267   3.845   0.853
  479SOL    HW2 1972   4.261   3.855   0.948
  479SOL    HW3 1973   4.181   3.871   0.821
  479SOL    MW4 1974   4.255   3.850   0.861
  480SOL     OW 1975   4.020   3.974   0.780
  480SOL    HW2 1976   3.945   3.930   0.820
  480SOL    HW3 1977   3.998   3.981   0.687
  480SOL    MW4 1978   4.007   3.969   0.773
  481SOL     OW 1979   4.035   4.236   0.843
  481SOL    HW2 1980   4.100   4.293   0.802
  481SOL    HW3 1981   4.047   4.151   0.802
  481SOL    MW4 1982   4.045   4.232   0.832
  482SOL     OW 1983   4.216   4.402   0.699
  482SOL    HW2 1984   4.224   4.493   0.727
  482SOL    HW3 1985   4.305   4.366   0.710
  482SOL    MW4 1986   4.229   4.409   0.704
  483SOL     OW 1987   0.211   0.018   1.182
  483SOL    HW2 1988   0.295   0.049   1.216
  483SOL    HW3 1989   0.226   0.007   1.088
  483SOL    MW4 1990   0.224   0.021   1.174
  484SOL     OW 1991   4.461   0.140   1.251
  484SOL    HW2 1992   4.389   0.091   1.211
  484SOL    HW3 1993   4.539   0.087   1.233
  484SOL    MW4 1994   4.462   0.127   1.243
  485SOL     OW 1995   4.465   0.391   1.121
  485SOL    HW2 1996   4.387   0.429   1.161
  485SOL    HW3 1997   4.469   0.302   1.156
  485SOL    MW4 1998   4.456   0.384   1.131
  486SOL     OW 1999   0.187   0.514   1.246
  486SOL    HW2 2000   0.196   0.590   1.189
  486SOL    HW3 2001   0.118   0.461   1.206
  486SOL    MW4 2002   0.179   0.517   1.233
  487SOL     OW 2003   0.217   0.752   1.111
  487SOL    HW2 2004   0.301   0.781   1.146
  487SOL    HW3 2005   0.151   0.800   1.161
  487SOL    MW4 2006   0.219   0.762   1.122
  488SOL     OW 2007   4.483   0.912   1.241
  488SOL    HW2 2008   4.486   0.895   1.335
  488SOL    HW3 2009   4.412   0.856   1.208
  488SOL    MW4 2010   4.474   0.903   1.249
  489SOL     OW 2011   4.453   1.161   1.124
  489SOL    HW2 2012   4.372   1.196   1.160
  489SOL    HW3 2013   4.466   1.077   1.168
  489SOL    MW4 2014   4.444   1.155   1.134
  490SOL     OW 2015   0.199   1.262   1.230
  490SOL    HW2 2016   0.259   1.202   1.185
  490SOL    HW3 2017   0.112   1.236   1.199
  490SOL    MW4 2018   0.195   1.250   1.220
  491SOL     OW 2019   0.238   1.516   1.129
  491SOL    HW2 2020   0.254   1.426   1.159
  491SOL    HW3 2021   0.225   1.508   1.034
  491SOL    MW4 2022   0.239   1.503   1.120
  492SOL     OW 2023   0.023   1.663   1.235
  492SOL    HW2 2024   0.033   1.746   1.188
  492SOL    HW3 2025   0.098   1.611   1.208
  492SOL    MW4 2026   0.034   1.667   1.225
  493SOL     OW 2027   0.007   1.911   1.121
  493SOL    HW2 2028  -0.064   1.963   1.159
  493SOL    HW3 2029   0.001   1.928   1.027
  493SOL    MW4 2030  -0.003   1.920   1.113
  494SOL     OW 2031   0.198   2.064   1.249
  494SOL    HW2 2032   0.202   2.136   1.187
  494SOL    HW3 2033   0.140   1.999   1.208
  494SOL    MW4 2034   0.191   2.065   1.236
  495SOL     OW 2035   0.230   2.289   1.070
  495SOL    HW2 2036   0.314   2.335   1.076
  495SOL    HW3 2037   0.166   2.353   1.098
  495SOL    MW4 2038   0.233   2.303   1.074
  496SOL     OW 2039   0.033   2.432   1.194
  496SOL    HW2 2040   0.029   2.425   1.289
  496SOL    HW3 2041  -0.034   2.371   1.162
  496SOL    MW4 2042   0.023   2.423   1.202
  497SOL     OW 2043   0.033   2.718   1.111
  497SOL    HW2 2044  -0.033   2.745   1.174
  497SOL    HW3 2045   0.014   2.625   1.094
  497SOL    MW4 2046   0.022   2.709   1.117
  498SOL     OW 2047   0.246   2.855   1.221
  498SOL    HW2 2048   0.226   2.841   1.314
  498SOL    HW3 2049   0.178   2.807   1.174
  498SOL    MW4 2050   0.234   2.847   1.227
  499SOL     OW 2051   0.205   3.090   1.077
  499SOL    HW2 2052   0.276   3.148   1.104
  499SOL    HW3 2053   0.216   3.012   1.130
  499SOL    MW4 2054   0.216   3.088   1.087
  500SOL     OW 2055   4.484   3.233   1.210
  500SOL    HW2 2056   4.417   3.169   1.188
  500SOL    HW3 2057   4.563   3.200   1.167
  500SOL    MW4 2058   4.485   3.220   1.201
  501SOL     OW 2059   4.449   3.500   1.107
  501SOL    HW2 2060   4.461   3.416   1.150
  501SOL    HW3 2061   4.465   3.482   1.014
  501SOL    MW4 2062   4.453   3.487   1.100
  502SOL     OW 2063   0.185   3.647   1.191
  502SOL    HW2 2064   0.189   3.635   1.285
  502SOL    HW3 2065   0.105   3.602   1.164
  502SOL    MW4 2066   0.175   3.639   1.200
  503SOL     OW 2067   0.212   3.915   1.098
  503SOL    HW2 2068   0.141   3.952   1.152
  503SOL    HW3 2069   0.204   3.821   1.110
  503SOL    MW4 2070   0.202   3.908   1.107
  504SOL     OW 2071   4.465   4.002   1.203
  504SOL    HW2 2072   4.451   3.996   1.297
  504SOL    HW3 2073   4.393   3.953   1.164
  504SOL    MW4 2074   4.454   3.995   1.210
  505SOL     OW 2075   4.449   4.264   1.094
  505SOL    HW2 2076   4.534   4.293   1.127
  505SOL    HW3 2077   4.450   4.169   1.104
  505SOL    MW4 2078   4.460   4.255   1.100
  506SOL     OW 2079   0.149   4.414   1.236
  506SOL    HW2 2080   0.180   4.409   1.326
  506SOL    HW3 2081   0.159   4.506   1.212
  506SOL    MW4 2082   0.154   4.426   1.244
  507SOL     OW 2083   0.679   4.653   1.144
  507SOL    HW2 2084   0.751   4.687   1.198
  507SOL    HW3 2085   0.664   4.564   1.178
  507SOL    MW4 2086   0.687   4.645   1.156
  508SOL     OW 2087   0.472   0.120   1.268
  508SOL    HW2 2088   0.458   0.206   1.228
  508SOL    HW3 2089   0.548   0.084   1.222
  508SOL    MW4 2090   0.480   0.127   1.257
  509SOL     OW 2091   0.416   0.379   1.166
  509SOL    HW2 2092   0.330   0.408   1.196
  509SOL    HW3 2093   0.411   0.386   1.070
  509SOL    MW4 2094   0.404   0.384   1.157
  510SOL     OW 2095   0.653   0.489   1.248
  510SOL    HW2 2096   0.652   0.576   1.209
  510SOL    HW3 2097   0.569   0.450   1.224
  510SOL    MW4 2098   0.642   0.495   1.240
  511SOL     OW 2099   0.649   0.731   1.092
  511SOL    HW2 2100   0.578   0.791   1.116
  511SOL    HW3 2101   0.665   0.748   1.000
  511SOL    MW4 2102   0.642   0.741   1.083
  512SOL     OW 2103   0.444   0.885   1.210
  512SOL    HW2 2104   0.426   0.908   1.302
  512SOL    HW3 2105   0.432   0.967   1.162
  512SOL    MW4 2106   0.440   0.899   1.216
  513SOL     OW 2107   0.422   1.138   1.117
  513SOL    HW2 2108   0.499   1.161   1.169
  513SOL    HW3 2109   0.451   1.148   1.026
  513SOL    MW4 2110   0.436   1.142   1.112
  514SOL     OW 2111   0.627   1.254   1.251
  514SOL    HW2 2112   0.705   1.199   1.250
  514SOL    HW3 2113   0.657   1.337   1.213
  514SOL    MW4 2114   0.642   1.258   1.246
  515SOL     OW 2115   0.683   1.546   1.133
  515SOL    HW2 2116   0.751   1.603   1.167
  515SOL    HW3 2117   0.602   1.597   1.142
  515SOL    MW4 2118   0.681   1.560   1.139
  516SOL     OW 2119   0.446   1.666   1.227
  516SOL    HW2 2120   0.436   1.648   1.320
  516SOL    HW3 2121   0.374   1.619   1.186
  516SOL    MW4 2122   0.436   1.657   1.234
  517SOL     OW 2123   0.430   1.935   1.141
  517SOL    HW2 2124   0.436   1.844   1.170
  517SOL    HW3 2125   0.341   1.961   1.165
  517SOL    MW4 2126   0.419   1.927   1.148
  518SOL     OW 2127   0.654   2.050   1.220
  518SOL    HW2 2128   0.645   2.055   1.315
  518SOL    HW3 2129   0.582   1.995   1.192
  518SOL    MW4 2130   0.643   2.044   1.229
  519SOL     OW 2131   0.705   2.310   1.128
  519SOL    HW2 2132   0.622   2.358   1.133
  519SOL    HW3 2133   0.686   2.226   1.169
  519SOL    MW4 2134   0.691   2.305   1.134
  520SOL     OW 2135   0.445   2.424   1.176
  520SOL    HW2 2136   0.442   2.408   1.270
  520SOL    HW3 2137   0.450   2.519   1.168
  520SOL    MW4 2138   0.445   2.434   1.187
  521SOL     OW 2139   0.480   2.704   1.160
  521SOL    HW2 2140   0.401   2.752   1.186
  521SOL    HW3 2141   0.490   2.724   1.067
  521SOL    MW4 2142   0.471   2.713   1.151
  522SOL     OW 2143   0.695   2.884   1.211
  522SOL    HW2 2144   0.680   2.970   1.173
  522SOL    HW3 2145   0.618   2.833   1.187
  522SOL    MW4 2146   0.683   2.888   1.203
  523SOL     OW 2147   0.668   3.126   1.086
  523SOL    HW2 2148   0.755   3.145   1.121
  523SOL    HW3 2149   0.682   3.120   0.991
  523SOL    MW4 2150   0.682   3.128   1.078
  524SOL     OW 2151   0.418   3.264   1.170
  524SOL    HW2 2152   0.426   3.356   1.147
  524SOL    HW3 2153   0.497   3.223   1.133
  524SOL    MW4 2154   0.430   3.271   1.162
  525SOL     OW 2155   0.433   3.540   1.104
  525SOL    HW2 2156   0.517   3.578   1.132
  525SOL    HW3 2157   0.367   3.597   1.143
  525SOL    MW4 2158   0.436   3.553   1.113
  526SOL     OW 2159   0.667   3.673   1.183
  526SOL    HW2 2160   0.675   3.678   1.278
  526SOL    HW3 2161   0.665   3.764   1.154
  526SOL    MW4 2162   0.668   3.685   1.191
  527SOL     OW 2163   0.679   3.933   1.096
  527SOL    HW2 2164   0.602   3.972   1.139
  527SOL    HW3 2165   0.656   3.933   1.003
  527SOL    MW4 2166   0.666   3.938   1.089
  528SOL     OW 2167   0.446   4.056   1.204
  528SOL    HW2 2168   0.437   4.151   1.208
  528SOL    HW3 2169   0.368   4.026   1.158
  528SOL    MW4 2170   0.435   4.065   1.198
  529SOL     OW 2171   0.391   4.312   1.119
  529SOL    HW2 2172   0.464   4.354   1.164
  529SOL    HW3 2173   0.313   4.348   1.160
  529SOL    MW4 2174   0.390   4.322   1.130
  530SOL     OW 2175   0.642   4.394   1.226
  530SOL    HW2 2176   0.640   4.387   1.322
  530SOL    HW3 2177   0.730   4.365   1.202
  530SOL    MW4 2178   0.653   4.389   1.236
  531SOL     OW 2179   1.100   0.038   1.170
  531SOL    HW2 2180   1.102  -0.057   1.185
  531SOL    HW3 2181   1.121   0.048   1.077
  531SOL    MW4 2182   1.103   0.026   1.160
  532SOL     OW 2183   0.878   0.144   1.263
  532SOL    HW2 2184   0.886   0.120   1.355
  532SOL    HW3 2185   0.956   0.108   1.221
  532SOL    MW4 2186   0.889   0.136   1.269
  533SOL     OW 2187   0.885   0.375   1.123
  533SOL    HW2 2188   0.870   0.292   1.170
  533SOL    HW3 2189   0.815   0.433   1.153
  533SOL    MW4 2190   0.874   0.371   1.133
  534SOL     OW 2191   1.147   0.473   1.226
  534SOL    HW2 2192   1.135   0.481   1.321
  534SOL    HW3 2193   1.061   0.444   1.194
  534SOL    MW4 2194   1.134   0.471   1.234
  535SOL     OW 2195   1.133   0.756   1.103
  535SOL    HW2 2196   1.049   0.787   1.137
  535SOL    HW3 2197   1.143   0.669   1.140
  535SOL    MW4 2198   1.123   0.749   1.112
  536SOL     OW 2199   0.882   0.829   1.186
  536SOL    HW2 2200   0.869   0.924   1.179
  536SOL    HW3 2201   0.807   0.792   1.138
  536SOL    MW4 2202   0.870   0.837   1.178
  537SOL     OW 2203   0.868   1.109   1.163
  537SOL    HW2 2204   0.937   1.170   1.188
  537SOL    HW3 2205   0.864   1.115   1.068
  537SOL    MW4 2206   0.877   1.118   1.154
  538SOL     OW 2207   1.074   1.273   1.266
  538SOL    HW2 2208   1.087   1.288   1.360
  538SOL    HW3 2209   1.158   1.236   1.237
  538SOL    MW4 2210   1.087   1.270   1.275
  539SOL     OW 2211   1.105   1.529   1.175
  539SOL    HW2 2212   1.072   1.443   1.203
  539SOL    HW3 2213   1.128   1.516   1.083
  539SOL    MW4 2214   1.103   1.516   1.167
  540SOL     OW 2215   0.891   1.686   1.230
  540SOL    HW2 2216   0.902   1.764   1.176
  540SOL    HW3 2217   0.972   1.636   1.217
  540SOL    MW4 2218   0.903   1.689   1.221
  541SOL     OW 2219   0.890   1.940   1.125
  541SOL    HW2 2220   0.961   1.984   1.172
  541SOL    HW3 2221   0.812   1.990   1.148
  541SOL    MW4 2222   0.889   1.952   1.134
  542SOL     OW 2223   1.105   2.060   1.251
  542SOL    HW2 2224   1.109   2.053   1.347
  542SOL    HW3 2225   1.130   2.150   1.232
  542SOL    MW4 2226   1.109   2.071   1.261
  543SOL     OW 2227   1.148   2.327   1.170
  543SOL    HW2 2228   1.219   2.382   1.202
  543SOL    HW3 2229   1.069   2.377   1.189
  543SOL    MW4 2230   1.147   2.341   1.177
  544SOL     OW 2231   0.897   2.483   1.234
  544SOL    HW2 2232   0.888   2.481   1.330
  544SOL    HW3 2233   0.833   2.418   1.203
  544SOL    MW4 2234   0.887   2.474   1.243
  545SOL     OW 2235   0.901   2.719   1.115
  545SOL    HW2 2236   0.881   2.636   1.158
  545SOL    HW3 2237   0.830   2.777   1.142
  545SOL    MW4 2238   0.889   2.715   1.124
  546SOL     OW 2239   1.113   2.823   1.254
  546SOL    HW2 2240   1.102   2.809   1.348
  546SOL    HW3 2241   1.034   2.787   1.215
  546SOL    MW4 2242   1.101   2.817   1.261
  547SOL     OW 2243   1.148   3.075   1.116
  547SOL    HW2 2244   1.147   2.994   1.167
  547SOL    HW3 2245   1.126   3.048   1.027
  547SOL    MW4 2246   1.145   3.061   1.111
  548SOL     OW 2247   0.892   3.209   1.232
  548SOL    HW2 2248   0.895   3.300   1.202
  548SOL    HW3 2249   0.979   3.175   1.212
  548SOL    MW4 2250   0.903   3.216   1.225
  549SOL     OW 2251   0.840   3.441   1.110
  549SOL    HW2 2252   0.773   3.507   1.128
  549SOL    HW3 2253   0.859   3.451   1.017
  549SOL    MW4 2254   0.833   3.451   1.100
  550SOL     OW 2255   1.069   3.593   1.191
  550SOL    HW2 2256   1.147   3.551   1.155
  550SOL    HW3 2257   0.995   3.545   1.154
  550SOL    MW4 2258   1.070   3.581   1.181
  551SOL     OW 2259   1.139   3.847   1.111
  551SOL    HW2 2260   1.062   3.889   1.150
  551SOL    HW3 2261   1.125   3.753   1.125
  551SOL    MW4 2262   1.127   3.840   1.118
  552SOL     OW 2263   0.929   4.014   1.205
  552SOL    HW2 2264   0.915   4.029   1.299
  552SOL    HW3 2265   0.843   3.985   1.173
  552SOL    MW4 2266   0.916   4.012   1.213
  553SOL     OW 2267   0.895   4.308   1.161
  553SOL    HW2 2268   0.905   4.215   1.179
  553SOL    HW3 2269   0.897   4.314   1.065
  553SOL    MW4 2270   0.897   4.296   1.150
  554SOL     OW 2271   1.118   4.442   1.232
  554SOL    HW2 2272   1.120   4.427   1.327
  554SOL    HW3 2273   1.034   4.405   1.205
  554SOL    MW4 2274   1.107   4.435   1.241
  555SOL     OW 2275   1.616   4.615   1.115
  555SOL    HW2 2276   1.665   4.670   1.176
  555SOL    HW3 2277   1.581   4.544   1.169
  555SOL    MW4 2278   1.618   4.613   1.130
  556SOL     OW 2279   1.385   0.123   1.204
  556SOL    HW2 2280   1.443   0.059   1.164
  556SOL    HW3 2281   1.297   0.088   1.190
  556SOL    MW4 2282   1.381   0.110   1.197
  557SOL     OW 2283   1.397   0.406   1.127
  557SOL    HW2 2284   1.402   0.316   1.157
  557SOL    HW3 2285   1.318   0.441   1.168
  557SOL    MW4 2286   1.387   0.399   1.136
  558SOL     OW 2287   1.636   0.516   1.209
  558SOL    HW2 2288   1.622   0.598   1.162
  558SOL    HW3 2289   1.556   0.465   1.193
  558SOL    MW4 2290   1.623   0.520   1.201
  559SOL     OW 2291   1.566   0.748   1.099
  559SOL    HW2 2292   1.652   0.787   1.118
  559SOL    HW3 2293   1.564   0.740   1.004
  559SOL    MW4 2294   1.577   0.752   1.089
  560SOL     OW 2295   1.335   0.878   1.254
  560SOL    HW2 2296   1.407   0.837   1.207
  560SOL    HW3 2297   1.256   0.837   1.219
  560SOL    MW4 2298   1.334   0.867   1.243
  561SOL     OW 2299   1.322   1.156   1.173
  561SOL    HW2 2300   1.308   1.062   1.186
  561SOL    HW3 2301   1.314   1.169   1.079
  561SOL    MW4 2302   1.319   1.146   1.163
  562SOL     OW 2303   1.558   1.317   1.215
  562SOL    HW2 2304   1.618   1.261   1.166
  562SOL    HW3 2305   1.475   1.269   1.215
  562SOL    MW4 2306   1.555   1.303   1.208
  563SOL     OW 2307   1.546   1.555   1.082
  563SOL    HW2 2308   1.619   1.607   1.116
  563SOL    HW3 2309   1.566   1.465   1.107
  563SOL    MW4 2310   1.558   1.550   1.090
  564SOL     OW 2311   1.342   1.671   1.230
  564SOL    HW2 2312   1.416   1.624   1.192
  564SOL    HW3 2313   1.269   1.609   1.223
  564SOL    MW4 2314   1.342   1.656   1.224
  565SOL     OW 2315   1.299   1.926   1.107
  565SOL    HW2 2316   1.320   1.839   1.141
  565SOL    HW3 2317   1.232   1.960   1.166
  565SOL    MW4 2318   1.293   1.919   1.119
  566SOL     OW 2319   1.535   2.058   1.195
  566SOL    HW2 2320   1.552   2.151   1.181
  566SOL    HW3 2321   1.457   2.040   1.143
  566SOL    MW4 2322   1.527   2.068   1.186
  567SOL     OW 2323   1.561   2.332   1.144
  567SOL    HW2 2324   1.489   2.385   1.177
  567SOL    HW3 2325   1.554   2.339   1.048
  567SOL    MW4 2326   1.550   2.340   1.136
  568SOL     OW 2327   1.370   2.480   1.251
  568SOL    HW2 2328   1.339   2.478   1.342
  568SOL    HW3 2329   1.347   2.568   1.221
  568SOL    MW4 2330   1.363   2.491   1.259
  569SOL     OW 2331   1.331   2.726   1.136
  569SOL    HW2 2332   1.409   2.764   1.175
  569SOL    HW3 2333   1.258   2.762   1.186
  569SOL    MW4 2334   1.332   2.735   1.148
  570SOL     OW 2335   1.567   2.853   1.207
  570SOL    HW2 2336   1.642   2.801   1.179
  570SOL    HW3 2337   1.563   2.926   1.146
  570SOL    MW4 2338   1.576   2.855   1.196
  571SOL     OW 2339   1.552   3.106   1.073
  571SOL    HW2 2340   1.638   3.131   1.106
  571SOL    HW3 2341   1.491   3.160   1.123
  571SOL    MW4 2342   1.555   3.116   1.084
  572SOL     OW 2343   1.342   3.225   1.220
  572SOL    HW2 2344   1.328   3.226   1.315
  572SOL    HW3 2345   1.273   3.168   1.186
  572SOL    MW4 2346   1.331   3.217   1.228
  573SOL     OW 2347   1.301   3.477   1.116
  573SOL    HW2 2348   1.318   3.386   1.140
  573SOL    HW3 2349   1.312   3.479   1.021
  573SOL    MW4 2350   1.305   3.465   1.106
  574SOL     OW 2351   1.518   3.583   1.234
  574SOL    HW2 2352   1.529   3.676   1.217
  574SOL    HW3 2353   1.425   3.566   1.221
  574SOL    MW4 2354   1.507   3.593   1.230
  575SOL     OW 2355   1.530   3.846   1.181
  575SOL    HW2 2356   1.462   3.902   1.219
  575SOL    HW3 2357   1.529   3.867   1.088
  575SOL    MW4 2358   1.521   3.857   1.174
  576SOL     OW 2359   1.319   4.010   1.262
  576SOL    HW2 2360   1.321   4.090   1.211
  576SOL    HW3 2361   1.253   3.955   1.220
  576SOL    MW4 2362   1.311   4.013   1.250
  577SOL     OW 2363   1.293   4.247   1.127
  577SOL    HW2 2364   1.230   4.316   1.147
  577SOL    HW3 2365   1.323   4.268   1.038
  577SOL    MW4 2366   1.289   4.259   1.118
  578SOL     OW 2367   1.490   4.408   1.242
  578SOL    HW2 2368   1.496   4.392   1.336
  578SOL    HW3 2369   1.425   4.345   1.211
  578SOL    MW4 2370   1.482   4.398   1.251
  579SOL     OW 2371   1.995   4.646   1.162
  579SOL    HW2 2372   2.009   4.556   1.191
  579SOL    HW3 2373   1.983   4.640   1.068
  579SOL    MW4 2374   1.995   4.633   1.154
  580SOL     OW 2375   1.801   0.128   1.265
  580SOL    HW2 2376   1.823   0.211   1.222
  580SOL    HW3 2377   1.866   0.066   1.232
  580SOL    MW4 2378   1.812   0.131   1.255
  581SOL     OW 2379   1.840   0.370   1.125
  581SOL    HW2 2380   1.772   0.435   1.144
  581SOL    HW3 2381   1.836   0.358   1.030
  581SOL    MW4 2382   1.831   0.377   1.115
  582SOL     OW 2383   2.030   0.548   1.212
  582SOL    HW2 2384   2.035   0.548   1.307
  582SOL    HW3 2385   1.966   0.480   1.190
  582SOL    MW4 2386   2.022   0.539   1.221
  583SOL     OW 2387   2.031   0.802   1.099
  583SOL    HW2 2388   2.036   0.709   1.122
  583SOL    HW3 2389   2.031   0.803   1.003
  583SOL    MW4 2390   2.032   0.790   1.089
  584SOL     OW 2391   1.788   0.896   1.186
  584SOL    HW2 2392   1.793   0.917   1.280
  584SOL    HW3 2393   1.878   0.874   1.162
  584SOL    MW4 2394   1.801   0.896   1.196
  585SOL     OW 2395   1.777   1.185   1.126
  585SOL    HW2 2396   1.774   1.092   1.148
  585SOL    HW3 2397   1.787   1.186   1.031
  585SOL    MW4 2398   1.778   1.173   1.116
  586SOL     OW 2399   1.986   1.307   1.244
  586SOL    HW2 2400   2.062   1.258   1.214
  586SOL    HW3 2401   1.911   1.261   1.206
  586SOL    MW4 2402   1.986   1.294   1.235
  587SOL     OW 2403   2.005   1.582   1.147
  587SOL    HW2 2404   2.012   1.493   1.182
  587SOL    HW3 2405   2.010   1.570   1.052
  587SOL    MW4 2406   2.007   1.569   1.139
  588SOL     OW 2407   1.757   1.680   1.223
  588SOL    HW2 2408   1.764   1.770   1.190
  588SOL    HW3 2409   1.834   1.636   1.188
  588SOL    MW4 2410   1.768   1.686   1.214
  589SOL     OW 2411   1.787   1.950   1.117
  589SOL    HW2 2412   1.696   1.978   1.119
  589SOL    HW3 2413   1.810   1.949   1.024
  589SOL    MW4 2414   1.778   1.953   1.105
  590SOL     OW 2415   2.043   2.082   1.201
  590SOL    HW2 2416   2.044   2.069   1.296
  590SOL    HW3 2417   1.958   2.051   1.173
  590SOL    MW4 2418   2.032   2.076   1.210
  591SOL     OW 2419   2.010   2.357   1.153
  591SOL    HW2 2420   2.096   2.395   1.172
  591SOL    HW3 2421   2.018   2.265   1.176
  591SOL    MW4 2422   2.022   2.350   1.158
  592SOL     OW 2423   1.782   2.453   1.261
  592SOL    HW2 2424   1.867   2.416   1.241
  592SOL    HW3 2425   1.720   2.400   1.211
  592SOL    MW4 2426   1.785   2.441   1.252
  593SOL     OW 2427   1.803   2.700   1.121
  593SOL    HW2 2428   1.798   2.614   1.163
  593SOL    HW3 2429   1.792   2.681   1.028
  593SOL    MW4 2430   1.800   2.686   1.114
  594SOL     OW 2431   2.044   2.790   1.242
  594SOL    HW2 2432   2.036   2.876   1.201
  594SOL    HW3 2433   1.969   2.741   1.208
  594SOL    MW4 2434   2.033   2.795   1.232
  595SOL     OW 2435   2.015   3.060   1.137
  595SOL    HW2 2436   1.931   3.089   1.172
  595SOL    HW3 2437   2.002   3.055   1.042
  595SOL    MW4 2438   2.003   3.063   1.129
  596SOL     OW 2439   1.784   3.185   1.216
  596SOL    HW2 2440   1.776   3.191   1.311
  596SOL    HW3 2441   1.773   3.274   1.185
  596SOL    MW4 2442   1.781   3.197   1.224
  597SOL     OW 2443   1.743   3.469   1.156
  597SOL    HW2 2444   1.801   3.545   1.167
  597SOL    HW3 2445   1.655   3.504   1.171
  597SOL    MW4 2446   1.739   3.484   1.159
  598SOL     OW 2447   1.981   3.648   1.213
  598SOL    HW2 2448   1.994   3.643   1.308
  598SOL    HW3 2449   2.056   3.602   1.175
  598SOL    MW4 2450   1.993   3.641   1.220
  599SOL     OW 2451   2.005   3.915   1.123
  599SOL    HW2 2452   1.929   3.966   1.150
  599SOL    HW3 2453   1.989   3.828   1.159
  599SOL    MW4 2454   1.993   3.910   1.131
  600SOL     OW 2455   1.758   4.001   1.214
  600SOL    HW2 2456   1.771   4.011   1.308
  600SOL    HW3 2457   1.680   3.947   1.207
  600SOL    MW4 2458   1.749   3.995   1.226
  601SOL     OW 2459   1.737   4.276   1.155
  601SOL    HW2 2460   1.733   4.182   1.169
  601SOL    HW3 2461   1.652   4.308   1.186
  601SOL    MW4 2462   1.725   4.268   1.161
  602SOL     OW 2463   1.993   4.383   1.218
  602SOL    HW2 2464   1.975   4.385   1.312
  602SOL    HW3 2465   1.912   4.351   1.179
  602SOL    MW4 2466   1.980   4.379   1.226
  603SOL     OW 2467   2.496   4.663   1.121
  603SOL    HW2 2468   2.569   4.719   1.146
  603SOL    HW3 2469   2.419   4.708   1.153
  603SOL    MW4 2470   2.496   4.676   1.129
  604SOL     OW 2471   2.239   0.077   1.207
  604SOL    HW2 2472   2.240   0.170   1.186
  604SOL    HW3 2473   2.150   0.049   1.186
  604SOL    MW4 2474   2.227   0.086   1.202
  605SOL     OW 2475   2.241   0.357   1.146
  605SOL    HW2 2476   2.171   0.420   1.163
  605SOL    HW3 2477   2.245   0.351   1.051
  605SOL    MW4 2478   2.233   0.365   1.136
  606SOL     OW 2479   2.475   0.503   1.219
  606SOL    HW2 2480   2.482   0.521   1.312
  606SOL    HW3 2481   2.401   0.444   1.211
  606SOL    MW4 2482   2.466   0.498   1.230
  607SOL     OW 2483   2.452   0.763   1.100
  607SOL    HW2 2484   2.455   0.670   1.122
  607SOL    HW3 2485   2.431   0.765   1.006
  607SOL    MW4 2486   2.450   0.751   1.090
  608SOL     OW 2487   2.249   0.920   1.204
  608SOL    HW2 2488   2.324   0.870   1.172
  608SOL    HW3 2489   2.173   0.872   1.171
  608SOL    MW4 2490   2.249   0.907   1.195
  609SOL     OW 2491   2.209   1.195   1.116
  609SOL    HW2 2492   2.296   1.231   1.134
  609SOL    HW3 2493   2.213   1.105   1.148
  609SOL    MW4 2494   2.221   1.188   1.123
  610SOL     OW 2495   2.454   1.319   1.200
  610SOL    HW2 2496   2.533   1.271   1.178
  610SOL    HW3 2497   2.470   1.408   1.169
  610SOL    MW4 2498   2.466   1.325   1.193
  611SOL     OW 2499   2.472   1.553   1.063
  611SOL    HW2 2500   2.388   1.593   1.084
  611SOL    HW3 2501   2.470   1.540   0.968
  611SOL    MW4 2502   2.461   1.557   1.053
  612SOL     OW 2503   2.263   1.679   1.202
  612SOL    HW2 2504   2.263   1.765   1.160
  612SOL    HW3 2505   2.172   1.650   1.197
  612SOL    MW4 2506   2.251   1.686   1.195
  613SOL     OW 2507   2.267   1.946   1.113
  613SOL    HW2 2508   2.186   1.995   1.132
  613SOL    HW3 2509   2.265   1.934   1.018
  613SOL    MW4 2510   2.256   1.951   1.103
  614SOL     OW 2511   2.474   2.090   1.224
  614SOL    HW2 2512   2.549   2.048   1.182
  614SOL    HW3 2513   2.399   2.037   1.199
  614SOL    MW4 2514   2.474   2.078   1.215
  615SOL     OW 2515   2.477   2.338   1.149
  615SOL    HW2 2516   2.489   2.250   1.184
  615SOL    HW3 2517   2.453   2.326   1.058
  615SOL    MW4 2518   2.476   2.325   1.142
  616SOL     OW 2519   2.264   2.485   1.229
  616SOL    HW2 2520   2.258   2.483   1.324
  616SOL    HW3 2521   2.338   2.428   1.208
  616SOL    MW4 2522   2.273   2.477   1.239
  617SOL     OW 2523   2.274   2.753   1.107
  617SOL    HW2 2524   2.281   2.658   1.104
  617SOL    HW3 2525   2.193   2.770   1.155
  617SOL    MW4 2526   2.264   2.743   1.113
  618SOL     OW 2527   2.514   2.841   1.234
  618SOL    HW2 2528   2.509   2.832   1.329
  618SOL    HW3 2529   2.437   2.795   1.201
  618SOL    MW4 2530   2.503   2.834   1.242
  619SOL     OW 2531   2.436   3.099   1.138
  619SOL    HW2 2532   2.359   3.147   1.168
  619SOL    HW3 2533   2.437   3.020   1.192
  619SOL    MW4 2534   2.426   3.095   1.149
  620SOL     OW 2535   2.214   3.232   1.219
  620SOL    HW2 2536   2.199   3.310   1.166
  620SOL    HW3 2537   2.149   3.168   1.188
  620SOL    MW4 2538   2.203   3.234   1.208
  621SOL     OW 2539   2.200   3.493   1.113
  621SOL    HW2 2540   2.285   3.527   1.140
  621SOL    HW3 2541   2.204   3.490   1.017
  621SOL    MW4 2542   2.212   3.497   1.104
  622SOL     OW 2543   2.452   3.617   1.188
  622SOL    HW2 2544   2.463   3.590   1.280
  622SOL    HW3 2545   2.453   3.712   1.191
  622SOL    MW4 2546   2.454   3.626   1.201
  623SOL     OW 2547   2.475   3.889   1.149
  623SOL    HW2 2548   2.392   3.921   1.182
  623SOL    HW3 2549   2.459   3.873   1.056
  623SOL    MW4 2550   2.462   3.891   1.141
  624SOL     OW 2551   2.235   4.023   1.231
  624SOL    HW2 2552   2.240   4.114   1.200
  624SOL    HW3 2553   2.155   3.989   1.192
  624SOL    MW4 2554   2.225   4.031   1.222
  625SOL     OW 2555   2.243   4.279   1.138
  625SOL    HW2 2556   2.160   4.314   1.170
  625SOL    HW3 2557   2.237   4.286   1.042
  625SOL    MW4 2558   2.231   4.284   1.129
  626SOL     OW 2559   2.463   4.400   1.245
  626SOL    HW2 2560   2.406   4.336   1.202
  626SOL    HW3 2561   2.448   4.482   1.196
  626SOL    MW4 2562   2.454   4.402   1.233
  627SOL     OW 2563   2.955   4.637   1.098
  627SOL    HW2 2564   2.925   4.554   1.135
  627SOL    HW3 2565   2.937   4.630   1.004
  627SOL    MW4 2566   2.949   4.625   1.090
  628SOL     OW 2567   2.720   0.119   1.208
  628SOL    HW2 2568   2.746   0.124   1.300
  628SOL    HW3 2569   2.794   0.077   1.164
  628SOL    MW4 2570   2.733   0.114   1.214
  629SOL     OW 2571   2.698   0.379   1.103
  629SOL    HW2 2572   2.703   0.292   1.143
  629SOL    HW3 2573   2.607   0.405   1.115
  629SOL    MW4 2574   2.687   0.371   1.110
  630SOL     OW 2575   2.915   0.544   1.171
  630SOL    HW2 2576   2.916   0.622   1.116
  630SOL    HW3 2577   2.838   0.495   1.141
  630SOL    MW4 2578   2.905   0.548   1.159
  631SOL     OW 2579   2.912   0.784   1.037
  631SOL    HW2 2580   2.983   0.827   1.084
  631SOL    HW3 2581   2.833   0.809   1.085
  631SOL    MW4 2582   2.911   0.793   1.049
  632SOL     OW 2583   2.696   0.888   1.188
  632SOL    HW2 2584   2.673   0.981   1.185
  632SOL    HW3 2585   2.613   0.842   1.174
  632SOL    MW4 2586   2.682   0.894   1.186
  633SOL     OW 2587   2.692   1.173   1.169
  633SOL    HW2 2588   2.777   1.205   1.199
  633SOL    HW3 2589   2.702   1.160   1.075
  633SOL    MW4 2590   2.704   1.175   1.160
  634SOL     OW 2591   2.950   1.287   1.212
  634SOL    HW2 2592   2.955   1.310   1.305
  634SOL    HW3 2593   2.945   1.371   1.166
  634SOL    MW4 2594   2.950   1.301   1.218
  635SOL     OW 2595   2.916   1.549   1.115
  635SOL    HW2 2596   2.992   1.590   1.156
  635SOL    HW3 2597   2.931   1.559   1.021
  635SOL    MW4 2598   2.928   1.555   1.108
  636SOL     OW 2599   2.680   1.690   1.193
  636SOL    HW2 2600   2.756   1.635   1.175
  636SOL    HW3 2601   2.611   1.655   1.136
  636SOL    MW4 2602   2.681   1.678   1.183
  637SOL     OW 2603   2.685   1.949   1.116
  637SOL    HW2 2604   2.767   1.985   1.148
  637SOL    HW3 2605   2.688   1.856   1.139
  637SOL    MW4 2606   2.696   1.941   1.124
  638SOL     OW 2607   2.914   2.079   1.198
  638SOL    HW2 2608   2.939   2.106   1.286
  638SOL    HW3 2609   2.910   2.160   1.148
  638SOL    MW4 2610   2.917   2.093   1.203
  639SOL     OW 2611   2.910   2.321   1.066
  639SOL    HW2 2612   2.987   2.359   1.108
  639SOL    HW3 2613   2.836   2.358   1.113
  639SOL    MW4 2614   2.910   2.331   1.078
  640SOL     OW 2615   2.711   2.460   1.210
  640SOL    HW2 2616   2.720   2.464   1.305
  640SOL    HW3 2617   2.628   2.415   1.195
  640SOL    MW4 2618   2.701   2.454   1.220
  641SOL     OW 2619   2.751   2.725   1.132
  641SOL    HW2 2620   2.733   2.632   1.148
  641SOL    HW3 2621   2.672   2.770   1.161
  641SOL    MW4 2622   2.738   2.718   1.138
  642SOL     OW 2623   2.962   2.855   1.265
  642SOL    HW2 2624   2.955   2.838   1.359
  642SOL    HW3 2625   2.894   2.800   1.225
  642SOL    MW4 2626   2.953   2.845   1.272
  643SOL     OW 2627   2.850   3.104   1.194
  643SOL    HW2 2628   2.875   3.013   1.212
  643SOL    HW3 2629   2.875   3.118   1.103
  643SOL    MW4 2630   2.857   3.094   1.184
  644SOL     OW 2631   2.628   3.250   1.252
  644SOL    HW2 2632   2.707   3.198   1.238
  644SOL    HW3 2633   2.558   3.199   1.211
  644SOL    MW4 2634   2.629   3.236   1.245
  645SOL     OW 2635   2.666   3.464   1.089
  645SOL    HW2 2636   2.664   3.379   1.133
  645SOL    HW3 2637   2.589   3.510   1.122
  645SOL    MW4 2638   2.656   3.459   1.099
  646SOL     OW 2639   2.872   3.580   1.249
  646SOL    HW2 2640   2.954   3.533   1.230
  646SOL    HW3 2641   2.807   3.538   1.193
  646SOL    MW4 2642   2.875   3.568   1.239
  647SOL     OW 2643   2.896   3.843   1.118
  647SOL    HW2 2644   2.977   3.878   1.155
  647SOL    HW3 2645   2.890   3.754   1.151
  647SOL    MW4 2646   2.906   3.836   1.127
  648SOL     OW 2647   2.704   4.033   1.197
  648SOL    HW2 2648   2.767   3.965   1.174
  648SOL    HW3 2649   2.620   3.997   1.169
  648SOL    MW4 2650   2.701   4.019   1.190
  649SOL     OW 2651   2.671   4.307   1.085
  649SOL    HW2 2652   2.679   4.215   1.112
  649SOL    HW3 2653   2.610   4.345   1.148
  649SOL    MW4 2654   2.664   4.300   1.097
  650SOL     OW 2655   2.877   4.395   1.213
  650SOL    HW2 2656   2.947   4.343   1.173
  650SOL    HW3 2657   2.798   4.369   1.165
  650SOL    MW4 2658   2.876   4.384   1.201
  651SOL     OW 2659   3.330   4.658   1.115
  651SOL    HW2 2660   3.408   4.698   1.153
  651SOL    HW3 2661   3.262   4.724   1.124
  651SOL    MW4 2662   3.331   4.672   1.121
  652SOL     OW 2663   3.127   0.170   1.174
  652SOL    HW2 2664   3.136   0.164   1.269
  652SOL    HW3 2665   3.072   0.095   1.151
  652SOL    MW4 2666   3.121   0.159   1.184
  653SOL     OW 2667   3.170   0.435   1.127
  653SOL    HW2 2668   3.141   0.345   1.143
  653SOL    HW3 2669   3.092   0.488   1.141
  653SOL    MW4 2670   3.156   0.430   1.131
  654SOL     OW 2671   3.394   0.555   1.222
  654SOL    HW2 2672   3.386   0.644   1.190
  654SOL    HW3 2673   3.312   0.512   1.195
  654SOL    MW4 2674   3.382   0.561   1.214
  655SOL     OW 2675   3.362   0.796   1.086
  655SOL    HW2 2676   3.274   0.816   1.118
  655SOL    HW3 2677   3.352   0.790   0.991
  655SOL    MW4 2678   3.349   0.798   1.077
  656SOL     OW 2679   3.119   0.870   1.209
  656SOL    HW2 2680   3.143   0.864   1.301
  656SOL    HW3 2681   3.134   0.962   1.186
  656SOL    MW4 2682   3.124   0.882   1.218
  657SOL     OW 2683   3.166   1.140   1.149
  657SOL    HW2 2684   3.244   1.192   1.163
  657SOL    HW3 2685   3.093   1.200   1.166
  657SOL    MW4 2686   3.167   1.155   1.153
  658SOL     OW 2687   3.388   1.293   1.220
  658SOL    HW2 2688   3.387   1.306   1.315
  658SOL    HW3 2689   3.374   1.381   1.184
  658SOL    MW4 2690   3.386   1.306   1.228
  659SOL     OW 2691   3.369   1.544   1.125
  659SOL    HW2 2692   3.443   1.599   1.152
  659SOL    HW3 2693   3.292   1.593   1.151
  659SOL    MW4 2694   3.369   1.558   1.132
  660SOL     OW 2695   3.142   1.683   1.204
  660SOL    HW2 2696   3.132   1.716   1.293
  660SOL    HW3 2697   3.123   1.759   1.148
  660SOL    MW4 2698   3.138   1.698   1.208
  661SOL     OW 2699   3.110   1.930   1.080
  661SOL    HW2 2700   3.187   1.971   1.119
  661SOL    HW3 2701   3.037   1.984   1.110
  661SOL    MW4 2702   3.111   1.943   1.089
  662SOL     OW 2703   3.340   2.045   1.212
  662SOL    HW2 2704   3.430   2.015   1.199
  662SOL    HW3 2705   3.340   2.135   1.180
  662SOL    MW4 2706   3.352   2.053   1.206
  663SOL     OW 2707   3.333   2.309   1.140
  663SOL    HW2 2708   3.404   2.358   1.183
  663SOL    HW3 2709   3.255   2.332   1.190
  663SOL    MW4 2710   3.332   2.319   1.152
  664SOL     OW 2711   3.114   2.460   1.235
  664SOL    HW2 2712   3.126   2.461   1.330
  664SOL    HW3 2713   3.156   2.540   1.204
  664SOL    MW4 2714   3.121   2.471   1.244
  665SOL     OW 2715   3.183   2.724   1.166
  665SOL    HW2 2716   3.101   2.766   1.191
  665SOL    HW3 2717   3.186   2.731   1.071
  665SOL    MW4 2718   3.172   2.730   1.157
  666SOL     OW 2719   3.411   2.822   1.271
  666SOL    HW2 2720   3.395   2.911   1.239
  666SOL    HW3 2721   3.329   2.775   1.255
  666SOL    MW4 2722   3.398   2.827   1.265
  667SOL     OW 2723   3.356   3.075   1.122
  667SOL    HW2 2724   3.437   3.112   1.157
  667SOL    HW3 2725   3.287   3.129   1.159
  667SOL    MW4 2726   3.358   3.087   1.132
  668SOL     OW 2727   3.116   3.213   1.243
  668SOL    HW2 2728   3.112   3.307   1.224
  668SOL    HW3 2729   3.026   3.182   1.228
  668SOL    MW4 2730   3.103   3.221   1.239
  669SOL     OW 2731   3.107   3.474   1.182
  669SOL    HW2 2732   3.195   3.512   1.181
  669SOL    HW3 2733   3.086   3.459   1.090
  669SOL    MW4 2734   3.116   3.477   1.170
  670SOL     OW 2735   3.339   3.609   1.200
  670SOL    HW2 2736   3.342   3.628   1.294
  670SOL    HW3 2737   3.417   3.557   1.183
  670SOL    MW4 2738   3.350   3.605   1.210
  671SOL     OW 2739   3.382   3.875   1.108
  671SOL    HW2 2740   3.300   3.907   1.144
  671SOL    HW3 2741   3.384   3.782   1.132
  671SOL    MW4 2742   3.371   3.867   1.116
  672SOL     OW 2743   3.134   3.971   1.190
  672SOL    HW2 2744   3.133   3.981   1.285
  672SOL    HW3 2745   3.117   4.059   1.156
  672SOL    MW4 2746   3.131   3.984   1.198
  673SOL     OW 2747   3.096   4.238   1.096
  673SOL    HW2 2748   3.165   4.303   1.108
  673SOL    HW3 2749   3.101   4.215   1.003
  673SOL    MW4 2750   3.106   4.244   1.085
  674SOL     OW 2751   3.337   4.374   1.161
  674SOL    HW2 2752   3.425   4.342   1.145
  674SOL    HW3 2753   3.341   4.467   1.139
  674SOL    MW4 2754   3.349   4.382   1.156
  675SOL     OW 2755   3.797   4.650   1.138
  675SOL    HW2 2756   3.799   4.557   1.160
  675SOL    HW3 2757   3.805   4.652   1.042
  675SOL    MW4 2758   3.798   4.638   1.128
  676SOL     OW 2759   3.560   0.104   1.192
  676SOL    HW2 2760   3.565   0.175   1.128
  676SOL    HW3 2761   3.642   0.056   1.181
  676SOL    MW4 2762   3.571   0.107   1.182
  677SOL     OW 2763   3.560   0.361   1.063
  677SOL    HW2 2764   3.634   0.376   1.122
  677SOL    HW3 2765   3.498   0.431   1.083
  677SOL    MW4 2766   3.561   0.372   1.074
  678SOL     OW 2767   3.751   0.476   1.233
  678SOL    HW2 2768   3.841   0.467   1.200
  678SOL    HW3 2769   3.729   0.568   1.218
  678SOL    MW4 2770   3.760   0.487   1.227
  679SOL     OW 2771   3.747   0.734   1.143
  679SOL    HW2 2772   3.824   0.778   1.178
  679SOL    HW3 2773   3.672   0.784   1.177
  679SOL    MW4 2774   3.747   0.746   1.152
  680SOL     OW 2775   3.581   0.926   1.208
  680SOL    HW2 2776   3.599   1.008   1.163
  680SOL    HW3 2777   3.496   0.897   1.174
  680SOL    MW4 2778   3.572   0.933   1.198
  681SOL     OW 2779   3.608   1.180   1.104
  681SOL    HW2 2780   3.674   1.223   1.158
  681SOL    HW3 2781   3.525   1.199   1.148
  681SOL    MW4 2782   3.605   1.188   1.117
  682SOL     OW 2783   3.813   1.295   1.248
  682SOL    HW2 2784   3.815   1.321   1.341
  682SOL    HW3 2785   3.811   1.378   1.200
  682SOL    MW4 2786   3.813   1.310   1.254
  683SOL     OW 2787   3.830   1.546   1.123
  683SOL    HW2 2788   3.899   1.608   1.148
  683SOL    HW3 2789   3.833   1.545   1.027
  683SOL    MW4 2790   3.840   1.554   1.113
  684SOL     OW 2791   3.602   1.687   1.210
  684SOL    HW2 2792   3.621   1.780   1.208
  684SOL    HW3 2793   3.683   1.645   1.181
  684SOL    MW4 2794   3.615   1.693   1.206
  685SOL     OW 2795   3.608   1.964   1.204
  685SOL    HW2 2796   3.681   2.018   1.234
  685SOL    HW3 2797   3.628   1.946   1.112
  685SOL    MW4 2798   3.620   1.969   1.196
  686SOL     OW 2799   3.839   2.080   1.275
  686SOL    HW2 2800   3.860   2.067   1.368
  686SOL    HW3 2801   3.896   2.018   1.230
  686SOL    MW4 2802   3.849   2.070   1.282
  687SOL     OW 2803   3.821   2.330   1.132
  687SOL    HW2 2804   3.894   2.385   1.160
  687SOL    HW3 2805   3.838   2.245   1.174
  687SOL    MW4 2806   3.833   2.326   1.141
  688SOL     OW 2807   3.570   2.423   1.227
  688SOL    HW2 2808   3.586   2.428   1.321
  688SOL    HW3 2809   3.649   2.382   1.191
  688SOL    MW4 2810   3.583   2.418   1.235
  689SOL     OW 2811   3.626   2.699   1.143
  689SOL    HW2 2812   3.614   2.608   1.168
  689SOL    HW3 2813   3.555   2.746   1.186
  689SOL    MW4 2814   3.615   2.693   1.152
  690SOL     OW 2815   3.863   2.864   1.243
  690SOL    HW2 2816   3.859   2.871   1.339
  690SOL    HW3 2817   3.795   2.800   1.222
  690SOL    MW4 2818   3.853   2.857   1.253
  691SOL     OW 2819   3.789   3.103   1.151
  691SOL    HW2 2820   3.823   3.023   1.191
  691SOL    HW3 2821   3.768   3.077   1.061
  691SOL    MW4 2822   3.791   3.089   1.144
  692SOL     OW 2823   3.569   3.216   1.239
  692SOL    HW2 2824   3.549   3.299   1.195
  692SOL    HW3 2825   3.648   3.185   1.195
  692SOL    MW4 2826   3.577   3.223   1.227
  693SOL     OW 2827   3.573   3.485   1.129
  693SOL    HW2 2828   3.653   3.527   1.162
  693SOL    HW3 2829   3.589   3.474   1.035
  693SOL    MW4 2830   3.586   3.489   1.121
  694SOL     OW 2831   3.791   3.606   1.227
  694SOL    HW2 2832   3.802   3.594   1.321
  694SOL    HW3 2833   3.815   3.698   1.212
  694SOL    MW4 2834   3.796   3.617   1.237
  695SOL     OW 2835   3.816   3.878   1.136
  695SOL    HW2 2836   3.739   3.922   1.171
  695SOL    HW3 2837   3.806   3.883   1.041
  695SOL    MW4 2838   3.805   3.884   1.128
  696SOL     OW 2839   3.591   4.000   1.232
  696SOL    HW2 2840   3.579   3.973   1.323
  696SOL    HW3 2841   3.518   3.959   1.185
  696SOL    MW4 2842   3.580   3.991   1.238
  697SOL     OW 2843   3.584   4.263   1.134
  697SOL    HW2 2844   3.593   4.178   1.177
  697SOL    HW3 2845   3.589   4.242   1.040
  697SOL    MW4 2846   3.586   4.249   1.127
  698SOL     OW 2847   3.828   4.382   1.224
  698SOL    HW2 2848   3.823   4.377   1.319
  698SOL    HW3 2849   3.751   4.333   1.193
  698SOL    MW4 2850   3.817   4.375   1.232
  699SOL     OW 2851   4.257   0.008   1.113
  699SOL    HW2 2852   4.249  -0.082   1.146
  699SOL    HW3 2853   4.182   0.054   1.149
  699SOL    MW4 2854   4.246   0.002   1.122
  700SOL     OW 2855   4.024   0.117   1.203
  700SOL    HW2 2856   4.020   0.136   1.297
  700SOL    HW3 2857   3.943   0.068   1.186
  700SOL    MW4 2858   4.013   0.113   1.213
  701SOL     OW 2859   3.999   0.401   1.126
  701SOL    HW2 2860   4.005   0.307   1.143
  701SOL    HW3 2861   4.020   0.410   1.033
  701SOL    MW4 2862   4.002   0.390   1.116
  702SOL     OW 2863   4.235   0.492   1.235
  702SOL    HW2 2864   4.224   0.481   1.329
  702SOL    HW3 2865   4.150   0.469   1.198
  702SOL    MW4 2866   4.222   0.487   1.242
  703SOL     OW 2867   4.262   0.765   1.146
  703SOL    HW2 2868   4.239   0.676   1.170
  703SOL    HW3 2869   4.259   0.766   1.050
  703SOL    MW4 2870   4.259   0.754   1.136
  704SOL     OW 2871   3.984   0.881   1.243
  704SOL    HW2 2872   3.991   0.881   1.339
  704SOL    HW3 2873   4.065   0.839   1.213
  704SOL    MW4 2874   3.995   0.875   1.252
  705SOL     OW 2875   4.001   1.143   1.113
  705SOL    HW2 2876   3.987   1.053   1.142
  705SOL    HW3 2877   3.928   1.192   1.149
  705SOL    MW4 2878   3.990   1.137   1.121
  706SOL     OW 2879   4.226   1.296   1.216
  706SOL    HW2 2880   4.219   1.279   1.310
  706SOL    HW3 2881   4.145   1.261   1.179
  706SOL    MW4 2882   4.214   1.289   1.223
  707SOL     OW 2883   4.275   1.550   1.123
  707SOL    HW2 2884   4.270   1.458   1.149
  707SOL    HW3 2885   4.362   1.578   1.153
  707SOL    MW4 2886   4.286   1.541   1.130
  708SOL     OW 2887   4.059   1.705   1.225
  708SOL    HW2 2888   4.088   1.700   1.317
  708SOL    HW3 2889   4.124   1.654   1.177
  708SOL    MW4 2890   4.071   1.698   1.231
  709SOL     OW 2891   4.050   1.962   1.141
  709SOL    HW2 2892   4.053   1.871   1.171
  709SOL    HW3 2893   4.069   1.957   1.048
  709SOL    MW4 2894   4.053   1.949   1.133
  710SOL     OW 2895   4.292   2.052   1.235
  710SOL    HW2 2896   4.301   2.139   1.195
  710SOL    HW3 2897   4.208   2.020   1.203
  710SOL    MW4 2898   4.282   2.059   1.226
  711SOL     OW 2899   4.310   2.280   1.076
  711SOL    HW2 2900   4.234   2.331   1.104
  711SOL    HW3 2901   4.319   2.298   0.983
  711SOL    MW4 2902   4.301   2.289   1.068
  712SOL     OW 2903   4.046   2.452   1.229
  712SOL    HW2 2904   4.044   2.436   1.324
  712SOL    HW3 2905   4.066   2.546   1.221
  712SOL    MW4 2906   4.048   2.463   1.241
  713SOL     OW 2907   4.077   2.723   1.120
  713SOL    HW2 2908   4.001   2.774   1.148
  713SOL    HW3 2909   4.073   2.726   1.024
  713SOL    MW4 2910   4.066   2.730   1.111
  714SOL     OW 2911   4.292   2.841   1.248
  714SOL    HW2 2912   4.303   2.923   1.199
  714SOL    HW3 2913   4.229   2.791   1.196
  714SOL    MW4 2914   4.285   2.845   1.234
  715SOL     OW 2915   4.257   3.099   1.113
  715SOL    HW2 2916   4.187   3.156   1.145
  715SOL    HW3 2917   4.260   3.114   1.019
  715SOL    MW4 2918   4.248   3.108   1.105
  716SOL     OW 2919   4.030   3.251   1.188
  716SOL    HW2 2920   4.037   3.237   1.283
  716SOL    HW3 2921   3.953   3.199   1.163
  716SOL    MW4 2922   4.021   3.242   1.198
  717SOL     OW 2923   4.035   3.519   1.101
  717SOL    HW2 2924   4.036   3.437   1.150
  717SOL    HW3 2925   3.947   3.555   1.116
  717SOL    MW4 2926   4.023   3.513   1.109
  718SOL     OW 2927   4.254   3.641   1.250
  718SOL    HW2 2928   4.182   3.587   1.217
  718SOL    HW3 2929   4.333   3.600   1.216
  718SOL    MW4 2930   4.255   3.629   1.241
  719SOL     OW 2931   4.216   3.880   1.128
  719SOL    HW2 2932   4.146   3.929   1.173
  719SOL    HW3 2933   4.212   3.793   1.167
  719SOL    MW4 2934   4.206   3.875   1.139
  720SOL     OW 2935   4.022   4.028   1.275
  720SOL    HW2 2936   4.032   4.107   1.222
  720SOL    HW3 2937   3.948   3.981   1.235
  720SOL    MW4 2938   4.014   4.032   1.263
  721SOL     OW 2939   4.040   4.263   1.128
  721SOL    HW2 2940   3.956   4.298   1.157
  721SOL    HW3 2941   4.031   4.254   1.033
  721SOL    MW4 2942   4.028   4.266   1.119
  722SOL     OW 2943   4.253   4.417   1.209
  722SOL    HW2 2944   4.175   4.367   1.186
  722SOL    HW3 2945   4.325   4.368   1.169
  722SOL    MW4 2946   4.252   4.404   1.201
  723SOL     OW 2947   0.208   4.654   1.628
  723SOL    HW2 2948   0.288   4.700   1.602
  723SOL    HW3 2949   0.137   4.710   1.598
  723SOL    MW4 2950   0.210   4.668   1.621
  724SOL     OW 2951   4.484   0.123   1.527
  724SOL    HW2 2952   4.401   0.086   1.556
  724SOL    HW3 2953   4.474   0.133   1.432
  724SOL    MW4 2954   4.471   0.120   1.518
  725SOL     OW 2955   4.471   0.386   1.601
  725SOL    HW2 2956   4.461   0.393   1.696
  725SOL    HW3 2957   4.490   0.293   1.586
  725SOL    MW4 2958   4.472   0.374   1.611
  726SOL     OW 2959   0.199   0.534   1.526
  726SOL    HW2 2960   0.123   0.482   1.552
  726SOL    HW3 2961   0.187   0.548   1.432
  726SOL    MW4 2962   0.187   0.529   1.517
  727SOL     OW 2963   0.240   0.782   1.663
  727SOL    HW2 2964   0.302   0.835   1.611
  727SOL    HW3 2965   0.223   0.705   1.609
  727SOL    MW4 2966   0.246   0.779   1.649
  728SOL     OW 2967   0.001   0.863   1.532
  728SOL    HW2 2968  -0.022   0.956   1.540
  728SOL    HW3 2969   0.075   0.851   1.591
  728SOL    MW4 2970   0.008   0.874   1.541
  729SOL     OW 2971   4.467   1.131   1.571
  729SOL    HW2 2972   4.463   1.128   1.666
  729SOL    HW3 2973   4.552   1.170   1.551
  729SOL    MW4 2974   4.478   1.136   1.581
  730SOL     OW 2975   0.226   1.236   1.509
  730SOL    HW2 2976   0.234   1.327   1.539
  730SOL    HW3 2977   0.222   1.242   1.414
  730SOL    MW4 2978   0.226   1.249   1.501
  731SOL     OW 2979   0.200   1.492   1.624
  731SOL    HW2 2980   0.218   1.497   1.718
  731SOL    HW3 2981   0.122   1.547   1.612
  731SOL    MW4 2982   0.192   1.500   1.635
  732SOL     OW 2983   4.475   1.663   1.528
  732SOL    HW2 2984   4.496   1.753   1.556
  732SOL    HW3 2985   4.494   1.663   1.434
  732SOL    MW4 2986   4.480   1.675   1.519
  733SOL     OW 2987   4.479   1.931   1.619
  733SOL    HW2 2988   4.474   1.929   1.714
  733SOL    HW3 2989   4.423   2.005   1.594
  733SOL    MW4 2990   4.471   1.941   1.628
  734SOL     OW 2991   0.230   2.088   1.536
  734SOL    HW2 2992   0.158   2.033   1.566
  734SOL    HW3 2993   0.212   2.101   1.443
  734SOL    MW4 2994   0.218   2.083   1.528
  735SOL     OW 2995   0.214   2.376   1.607
  735SOL    HW2 2996   0.219   2.386   1.702
  735SOL    HW3 2997   0.219   2.281   1.594
  735SOL    MW4 2998   0.215   2.365   1.618
  736SOL     OW 2999   0.003   2.454   1.461
  736SOL    HW2 3000  -0.068   2.425   1.518
  736SOL    HW3 3001   0.082   2.440   1.513
  736SOL    MW4 3002   0.004   2.448   1.476
  737SOL     OW 3003   4.482   2.708   1.591
  737SOL    HW2 3004   4.407   2.760   1.562
  737SOL    HW3 3005   4.473   2.624   1.548
  737SOL    MW4 3006   4.471   2.704   1.582
  738SOL     OW 3007   0.226   2.826   1.505
  738SOL    HW2 3008   0.302   2.776   1.534
  738SOL    HW3 3009   0.151   2.781   1.543
  738SOL    MW4 3010   0.226   2.814   1.514
  739SOL     OW 3011   0.242   3.095   1.596
  739SOL    HW2 3012   0.158   3.130   1.565
  739SOL    HW3 3013   0.245   3.006   1.559
  739SOL    MW4 3014   0.231   3.088   1.587
  740SOL     OW 3015   0.014   3.235   1.494
  740SOL    HW2 3016   0.018   3.324   1.528
  740SOL    HW3 3017   0.004   3.246   1.399
  740SOL    MW4 3018   0.013   3.248   1.486
  741SOL     OW 3019   0.036   3.495   1.608
  741SOL    HW2 3020   0.058   3.506   1.701
  741SOL    HW3 3021  -0.051   3.535   1.600
  741SOL    MW4 3022   0.027   3.502   1.619
  742SOL     OW 3023   0.222   3.613   1.468
  742SOL    HW2 3024   0.225   3.705   1.494
  742SOL    HW3 3025   0.158   3.574   1.527
  742SOL    MW4 3026   0.214   3.620   1.479
  743SOL     OW 3027   0.198   3.862   1.599
  743SOL    HW2 3028   0.209   3.870   1.693
  743SOL    HW3 3029   0.264   3.920   1.562
  743SOL    MW4 3030   0.208   3.870   1.606
  744SOL     OW 3031   4.481   3.987   1.479
  744SOL    HW2 3032   4.482   4.071   1.526
  744SOL    HW3 3033   4.559   3.942   1.510
  744SOL    MW4 3034   4.491   3.992   1.490
  745SOL     OW 3035   0.010   4.238   1.593
  745SOL    HW2 3036   0.002   4.246   1.688
  745SOL    HW3 3037  -0.062   4.290   1.558
  745SOL    MW4 3038  -0.000   4.246   1.601
  746SOL     OW 3039   0.232   4.400   1.508
  746SOL    HW2 3040   0.167   4.340   1.545
  746SOL    HW3 3041   0.219   4.481   1.556
  746SOL    MW4 3042   0.221   4.402   1.519
  747SOL     OW 3043   0.671   4.638   1.639
  747SOL    HW2 3044   0.743   4.689   1.603
  747SOL    HW3 3045   0.592   4.687   1.614
  747SOL    MW4 3046   0.670   4.651   1.631
  748SOL     OW 3047   0.444   0.106   1.556
  748SOL    HW2 3048   0.454   0.199   1.574
  748SOL    HW3 3049   0.442   0.100   1.460
  748SOL    MW4 3050   0.445   0.117   1.546
  749SOL     OW 3051   0.459   0.408   1.601
  749SOL    HW2 3052   0.539   0.448   1.566
  749SOL    HW3 3053   0.388   0.456   1.560
  749SOL    MW4 3054   0.460   0.419   1.591
  750SOL     OW 3055   0.710   0.526   1.508
  750SOL    HW2 3056   0.678   0.615   1.525
  750SOL    HW3 3057   0.698   0.513   1.414
  750SOL    MW4 3058   0.704   0.536   1.498
  751SOL     OW 3059   0.652   0.781   1.571
  751SOL    HW2 3060   0.679   0.766   1.662
  751SOL    HW3 3061   0.727   0.825   1.530
  751SOL    MW4 3062   0.665   0.785   1.578
  752SOL     OW 3063   0.432   0.925   1.480
  752SOL    HW2 3064   0.436   1.003   1.535
  752SOL    HW3 3065   0.511   0.875   1.503
  752SOL    MW4 3066   0.443   0.929   1.490
  753SOL     OW 3067   0.424   1.109   1.671
  753SOL    HW2 3068   0.502   1.153   1.636
  753SOL    HW3 3069   0.351   1.152   1.628
  753SOL    MW4 3070   0.425   1.120   1.661
  754SOL     OW 3071   0.645   1.259   1.535
  754SOL    HW2 3072   0.639   1.354   1.547
  754SOL    HW3 3073   0.626   1.246   1.442
  754SOL    MW4 3074   0.642   1.270   1.524
  755SOL     OW 3075   0.648   1.545   1.625
  755SOL    HW2 3076   0.719   1.572   1.568
  755SOL    HW3 3077   0.568   1.564   1.575
  755SOL    MW4 3078   0.647   1.551   1.611
  756SOL     OW 3079   0.421   1.638   1.504
  756SOL    HW2 3080   0.426   1.732   1.524
  756SOL    HW3 3081   0.336   1.611   1.539
  756SOL    MW4 3082   0.411   1.647   1.512
  757SOL     OW 3083   0.429   1.903   1.588
  757SOL    HW2 3084   0.440   1.903   1.684
  757SOL    HW3 3085   0.358   1.965   1.572
  757SOL    MW4 3086   0.421   1.911   1.599
  758SOL     OW 3087   0.653   2.071   1.511
  758SOL    HW2 3088   0.735   2.027   1.532
  758SOL    HW3 3089   0.587   2.025   1.563
  758SOL    MW4 3090   0.655   2.059   1.521
  759SOL     OW 3091   0.630   2.335   1.608
  759SOL    HW2 3092   0.551   2.370   1.569
  759SOL    HW3 3093   0.628   2.241   1.587
  759SOL    MW4 3094   0.619   2.327   1.600
  760SOL     OW 3095   0.434   2.461   1.455
  760SOL    HW2 3096   0.452   2.544   1.499
  760SOL    HW3 3097   0.350   2.433   1.491
  760SOL    MW4 3098   0.425   2.468   1.466
  761SOL     OW 3099   0.447   2.689   1.597
  761SOL    HW2 3100   0.446   2.682   1.692
  761SOL    HW3 3101   0.516   2.753   1.578
  761SOL    MW4 3102   0.456   2.696   1.607
  762SOL     OW 3103   0.671   2.849   1.523
  762SOL    HW2 3104   0.657   2.939   1.550
  762SOL    HW3 3105   0.649   2.848   1.430
  762SOL    MW4 3106   0.666   2.861   1.514
  763SOL     OW 3107   0.666   3.115   1.583
  763SOL    HW2 3108   0.746   3.150   1.543
  763SOL    HW3 3109   0.597   3.173   1.553
  763SOL    MW4 3110   0.668   3.127   1.574
  764SOL     OW 3111   0.456   3.262   1.449
  764SOL    HW2 3112   0.376   3.226   1.487
  764SOL    HW3 3113   0.443   3.254   1.354
  764SOL    MW4 3114   0.444   3.256   1.441
  765SOL     OW 3115   0.448   3.519   1.586
  765SOL    HW2 3116   0.460   3.438   1.536
  765SOL    HW3 3117   0.368   3.557   1.551
  765SOL    MW4 3118   0.439   3.513   1.575
  766SOL     OW 3119   0.667   3.640   1.464
  766SOL    HW2 3120   0.735   3.584   1.502
  766SOL    HW3 3121   0.585   3.603   1.495
  766SOL    MW4 3122   0.665   3.628   1.473
  767SOL     OW 3123   0.646   3.888   1.582
  767SOL    HW2 3124   0.720   3.930   1.538
  767SOL    HW3 3125   0.646   3.798   1.548
  767SOL    MW4 3126   0.656   3.882   1.572
  768SOL     OW 3127   0.417   4.017   1.485
  768SOL    HW2 3128   0.494   3.974   1.523
  768SOL    HW3 3129   0.442   4.035   1.394
  768SOL    MW4 3130   0.431   4.014   1.478
  769SOL     OW 3131   0.440   4.264   1.627
  769SOL    HW2 3132   0.440   4.181   1.579
  769SOL    HW3 3133   0.379   4.320   1.579
  769SOL    MW4 3134   0.432   4.261   1.614
  770SOL     OW 3135   0.662   4.392   1.508
  770SOL    HW2 3136   0.582   4.356   1.549
  770SOL    HW3 3137   0.674   4.477   1.551
  770SOL    MW4 3138   0.653   4.398   1.519
  771SOL     OW 3139   1.111   4.644   1.635
  771SOL    HW2 3140   1.117   4.668   1.727
  771SOL    HW3 3141   1.182   4.693   1.593
  771SOL    MW4 3142   1.122   4.654   1.642
  772SOL     OW 3143   0.873   0.114   1.542
  772SOL    HW2 3144   0.890   0.204   1.568
  772SOL    HW3 3145   0.940   0.063   1.588
  772SOL    MW4 3146   0.884   0.119   1.552
  773SOL     OW 3147   0.912   0.380   1.634
  773SOL    HW2 3148   0.899   0.400   1.726
  773SOL    HW3 3149   0.843   0.430   1.589
  773SOL    MW4 3150   0.901   0.389   1.640
  774SOL     OW 3151   1.128   0.531   1.512
  774SOL    HW2 3152   1.111   0.616   1.553
  774SOL    HW3 3153   1.056   0.475   1.543
  774SOL    MW4 3154   1.116   0.535   1.522
  775SOL     OW 3155   1.113   0.808   1.605
  775SOL    HW2 3156   1.111   0.796   1.700
  775SOL    HW3 3157   1.193   0.857   1.590
  775SOL    MW4 3158   1.123   0.813   1.616
  776SOL     OW 3159   0.890   0.879   1.470
  776SOL    HW2 3160   0.977   0.865   1.506
  776SOL    HW3 3161   0.894   0.840   1.382
  776SOL    MW4 3162   0.902   0.872   1.463
  777SOL     OW 3163   0.877   1.135   1.619
  777SOL    HW2 3164   0.879   1.052   1.572
  777SOL    HW3 3165   0.797   1.178   1.588
  777SOL    MW4 3166   0.866   1.129   1.609
  778SOL     OW 3167   1.112   1.318   1.532
  778SOL    HW2 3168   1.194   1.297   1.577
  778SOL    HW3 3169   1.045   1.272   1.582
  778SOL    MW4 3170   1.114   1.309   1.544
  779SOL     OW 3171   1.093   1.578   1.617
  779SOL    HW2 3172   1.164   1.623   1.571
  779SOL    HW3 3173   1.090   1.491   1.577
  779SOL    MW4 3174   1.102   1.573   1.606
  780SOL     OW 3175   0.850   1.675   1.506
  780SOL    HW2 3176   0.934   1.648   1.545
  780SOL    HW3 3177   0.868   1.680   1.412
  780SOL    MW4 3178   0.863   1.672   1.499
  781SOL     OW 3179   0.872   1.942   1.606
  781SOL    HW2 3180   0.957   1.980   1.586
  781SOL    HW3 3181   0.874   1.854   1.568
  781SOL    MW4 3182   0.883   1.935   1.598
  782SOL     OW 3183   1.118   2.072   1.526
  782SOL    HW2 3184   1.203   2.037   1.551
  782SOL    HW3 3185   1.117   2.162   1.560
  782SOL    MW4 3186   1.129   2.080   1.534
  783SOL     OW 3187   1.082   2.330   1.630
  783SOL    HW2 3188   1.149   2.385   1.590
  783SOL    HW3 3189   1.002   2.352   1.583
  783SOL    MW4 3190   1.081   2.340   1.618
  784SOL     OW 3191   0.852   2.451   1.494
  784SOL    HW2 3192   0.856   2.542   1.525
  784SOL    HW3 3193   0.773   2.415   1.536
  784SOL    MW4 3194   0.842   2.458   1.504
  785SOL     OW 3195   0.884   2.709   1.607
  785SOL    HW2 3196   0.886   2.700   1.702
  785SOL    HW3 3197   0.801   2.752   1.588
  785SOL    MW4 3198   0.873   2.714   1.617
  786SOL     OW 3199   1.114   2.819   1.519
  786SOL    HW2 3200   1.093   2.912   1.525
  786SOL    HW3 3201   1.035   2.774   1.549
  786SOL    MW4 3202   1.101   2.825   1.524
  787SOL     OW 3203   1.121   3.091   1.594
  787SOL    HW2 3204   1.136   3.095   1.689
  787SOL    HW3 3205   1.206   3.113   1.555
  787SOL    MW4 3206   1.135   3.094   1.602
  788SOL     OW 3207   0.908   3.238   1.503
  788SOL    HW2 3208   0.987   3.204   1.544
  788SOL    HW3 3209   0.914   3.208   1.412
  788SOL    MW4 3210   0.919   3.230   1.496
  789SOL     OW 3211   0.874   3.503   1.596
  789SOL    HW2 3212   0.950   3.550   1.561
  789SOL    HW3 3213   0.888   3.412   1.568
  789SOL    MW4 3214   0.886   3.497   1.588
  790SOL     OW 3215   1.107   3.629   1.468
  790SOL    HW2 3216   1.179   3.572   1.495
  790SOL    HW3 3217   1.106   3.623   1.373
  790SOL    MW4 3218   1.116   3.621   1.459
  791SOL     OW 3219   1.090   3.875   1.591
  791SOL    HW2 3220   1.177   3.914   1.576
  791SOL    HW3 3221   1.093   3.792   1.545
  791SOL    MW4 3222   1.102   3.869   1.583
  792SOL     OW 3223   0.861   4.015   1.477
  792SOL    HW2 3224   0.861   4.108   1.502
  792SOL    HW3 3225   0.935   3.978   1.524
  792SOL    MW4 3226   0.871   4.022   1.486
  793SOL     OW 3227   0.902   4.257   1.604
  793SOL    HW2 3228   0.914   4.263   1.699
  793SOL    HW3 3229   0.820   4.302   1.587
  793SOL    MW4 3230   0.893   4.264   1.614
  794SOL     OW 3231   1.128   4.387   1.500
  794SOL    HW2 3232   1.051   4.340   1.532
  794SOL    HW3 3233   1.122   4.473   1.540
  794SOL    MW4 3234   1.117   4.392   1.510
  795SOL     OW 3235   1.537   4.657   1.567
  795SOL    HW2 3236   1.540   4.656   1.663
  795SOL    HW3 3237   1.456   4.704   1.547
  795SOL    MW4 3238   1.527   4.663   1.577
  796SOL     OW 3239   1.299   0.137   1.487
  796SOL    HW2 3240   1.309   0.223   1.529
  796SOL    HW3 3241   1.308   0.156   1.393
  796SOL    MW4 3242   1.302   0.151   1.480
  797SOL     OW 3243   1.343   0.377   1.594
  797SOL    HW2 3244   1.425   0.416   1.564
  797SOL    HW3 3245   1.275   0.438   1.564
  797SOL    MW4 3246   1.345   0.390   1.586
  798SOL     OW 3247   1.567   0.519   1.488
  798SOL    HW2 3248   1.637   0.484   1.543
  798SOL    HW3 3249   1.604   0.523   1.400
  798SOL    MW4 3250   1.581   0.515   1.484
  799SOL     OW 3251   1.585   0.806   1.571
  799SOL    HW2 3252   1.573   0.795   1.665
  799SOL    HW3 3253   1.564   0.721   1.534
  799SOL    MW4 3254   1.580   0.794   1.578
  800SOL     OW 3255   1.345   0.963   1.517
  800SOL    HW2 3256   1.424   0.919   1.550
  800SOL    HW3 3257   1.347   0.948   1.423
  800SOL    MW4 3258   1.356   0.955   1.509
  801SOL     OW 3259   1.348   1.235   1.623
  801SOL    HW2 3260   1.354   1.215   1.716
  801SOL    HW3 3261   1.357   1.151   1.579
  801SOL    MW4 3262   1.350   1.222   1.629
  802SOL     OW 3263   1.559   1.376   1.488
  802SOL    HW2 3264   1.485   1.333   1.531
  802SOL    HW3 3265   1.547   1.355   1.395
  802SOL    MW4 3266   1.547   1.367   1.482
  803SOL     OW 3267   1.531   1.625   1.633
  803SOL    HW2 3268   1.524   1.611   1.727
  803SOL    HW3 3269   1.562   1.541   1.598
  803SOL    MW4 3270   1.534   1.612   1.641
  804SOL     OW 3271   1.301   1.721   1.501
  804SOL    HW2 3272   1.374   1.671   1.538
  804SOL    HW3 3273   1.308   1.708   1.406
  804SOL    MW4 3274   1.312   1.713   1.493
  805SOL     OW 3275   1.354   1.964   1.605
  805SOL    HW2 3276   1.373   1.953   1.698
  805SOL    HW3 3277   1.358   1.875   1.570
  805SOL    MW4 3278   1.357   1.951   1.612
  806SOL     OW 3279   1.574   2.073   1.486
  806SOL    HW2 3280   1.499   2.026   1.523
  806SOL    HW3 3281   1.564   2.062   1.391
  806SOL    MW4 3282   1.563   2.066   1.478
  807SOL     OW 3283   1.522   2.326   1.595
  807SOL    HW2 3284   1.607   2.370   1.593
  807SOL    HW3 3285   1.536   2.245   1.546
  807SOL    MW4 3286   1.535   2.321   1.589
  808SOL     OW 3287   1.302   2.462   1.510
  808SOL    HW2 3288   1.308   2.554   1.537
  808SOL    HW3 3289   1.375   2.419   1.554
  808SOL    MW4 3290   1.312   2.469   1.519
  809SOL     OW 3291   1.332   2.701   1.652
  809SOL    HW2 3292   1.388   2.746   1.589
  809SOL    HW3 3293   1.244   2.735   1.634
  809SOL    MW4 3294   1.328   2.712   1.641
  810SOL     OW 3295   1.521   2.831   1.500
  810SOL    HW2 3296   1.595   2.787   1.543
  810SOL    HW3 3297   1.542   2.829   1.407
  810SOL    MW4 3298   1.534   2.825   1.494
  811SOL     OW 3299   1.551   3.081   1.599
  811SOL    HW2 3300   1.631   3.125   1.570
  811SOL    HW3 3301   1.555   2.994   1.559
  811SOL    MW4 3302   1.562   3.075   1.590
  812SOL     OW 3303   1.336   3.203   1.486
  812SOL    HW2 3304   1.342   3.292   1.521
  812SOL    HW3 3305   1.410   3.157   1.524
  812SOL    MW4 3306   1.347   3.209   1.495
  813SOL     OW 3307   1.311   3.473   1.578
  813SOL    HW2 3308   1.316   3.471   1.673
  813SOL    HW3 3309   1.395   3.510   1.550
  813SOL    MW4 3310   1.323   3.478   1.587
  814SOL     OW 3311   1.541   3.568   1.498
  814SOL    HW2 3312   1.541   3.662   1.517
  814SOL    HW3 3313   1.549   3.562   1.403
  814SOL    MW4 3314   1.542   3.580   1.488
  815SOL     OW 3315   1.586   3.832   1.591
  815SOL    HW2 3316   1.596   3.848   1.685
  815SOL    HW3 3317   1.511   3.885   1.566
  815SOL    MW4 3318   1.578   3.841   1.600
  816SOL     OW 3319   1.363   3.966   1.526
  816SOL    HW2 3320   1.361   4.051   1.569
  816SOL    HW3 3321   1.333   3.983   1.437
  816SOL    MW4 3322   1.358   3.979   1.520
  817SOL     OW 3323   1.347   4.230   1.623
  817SOL    HW2 3324   1.422   4.276   1.586
  817SOL    HW3 3325   1.270   4.275   1.588
  817SOL    MW4 3326   1.347   4.242   1.614
  818SOL     OW 3327   1.531   4.384   1.510
  818SOL    HW2 3328   1.612   4.347   1.545
  818SOL    HW3 3329   1.541   4.478   1.523
  818SOL    MW4 3330   1.543   4.392   1.516
  819SOL     OW 3331   1.996   0.005   1.602
  819SOL    HW2 3332   1.999   0.003   1.698
  819SOL    HW3 3333   1.925   0.066   1.582
  819SOL    MW4 3334   1.987   0.013   1.612
  820SOL     OW 3335   1.778   0.153   1.543
  820SOL    HW2 3336   1.700   0.103   1.569
  820SOL    HW3 3337   1.787   0.137   1.449
  820SOL    MW4 3338   1.769   0.144   1.534
  821SOL     OW 3339   1.786   0.432   1.652
  821SOL    HW2 3340   1.856   0.470   1.599
  821SOL    HW3 3341   1.786   0.339   1.627
  821SOL    MW4 3342   1.796   0.424   1.641
  822SOL     OW 3343   2.013   0.523   1.495
  822SOL    HW2 3344   2.102   0.492   1.510
  822SOL    HW3 3345   2.017   0.617   1.511
  822SOL    MW4 3346   2.025   0.531   1.499
  823SOL     OW 3347   2.038   0.791   1.540
  823SOL    HW2 3348   2.120   0.837   1.522
  823SOL    HW3 3349   1.972   0.839   1.491
  823SOL    MW4 3350   2.040   0.803   1.531
  824SOL     OW 3351   1.781   0.971   1.453
  824SOL    HW2 3352   1.778   1.048   1.510
  824SOL    HW3 3353   1.708   0.917   1.483
  824SOL    MW4 3354   1.771   0.974   1.465
  825SOL     OW 3355   1.770   1.214   1.626
  825SOL    HW2 3356   1.852   1.255   1.598
  825SOL    HW3 3357   1.702   1.257   1.573
  825SOL    MW4 3358   1.772   1.225   1.615
  826SOL     OW 3359   2.011   1.320   1.518
  826SOL    HW2 3360   2.015   1.413   1.541
  826SOL    HW3 3361   2.012   1.320   1.422
  826SOL    MW4 3362   2.012   1.332   1.508
  827SOL     OW 3363   2.032   1.600   1.617
  827SOL    HW2 3364   2.108   1.627   1.564
  827SOL    HW3 3365   1.958   1.643   1.575
  827SOL    MW4 3366   2.033   1.610   1.604
  828SOL     OW 3367   1.779   1.704   1.507
  828SOL    HW2 3368   1.698   1.679   1.550
  828SOL    HW3 3369   1.757   1.709   1.414
  828SOL    MW4 3370   1.766   1.701   1.501
  829SOL     OW 3371   1.822   1.982   1.580
  829SOL    HW2 3372   1.822   1.891   1.553
  829SOL    HW3 3373   1.739   2.017   1.547
  829SOL    MW4 3374   1.811   1.975   1.572
  830SOL     OW 3375   2.054   2.097   1.484
  830SOL    HW2 3376   2.123   2.032   1.499
  830SOL    HW3 3377   1.975   2.055   1.518
  830SOL    MW4 3378   2.053   2.083   1.491
  831SOL     OW 3379   2.015   2.338   1.626
  831SOL    HW2 3380   2.017   2.312   1.719
  831SOL    HW3 3381   2.026   2.256   1.578
  831SOL    MW4 3382   2.017   2.324   1.632
  832SOL     OW 3383   1.772   2.445   1.554
  832SOL    HW2 3384   1.857   2.410   1.581
  832SOL    HW3 3385   1.777   2.451   1.459
  832SOL    MW4 3386   1.784   2.441   1.545
  833SOL     OW 3387   1.756   2.709   1.619
  833SOL    HW2 3388   1.839   2.745   1.586
  833SOL    HW3 3389   1.760   2.616   1.595
  833SOL    MW4 3390   1.768   2.702   1.611
  834SOL     OW 3391   1.975   2.817   1.502
  834SOL    HW2 3392   2.009   2.903   1.526
  834SOL    HW3 3393   1.986   2.812   1.407
  834SOL    MW4 3394   1.981   2.827   1.493
  835SOL     OW 3395   2.007   3.078   1.595
  835SOL    HW2 3396   2.019   3.068   1.690
  835SOL    HW3 3397   2.082   3.130   1.567
  835SOL    MW4 3398   2.019   3.083   1.604
  836SOL     OW 3399   1.780   3.205   1.490
  836SOL    HW2 3400   1.771   3.288   1.537
  836SOL    HW3 3401   1.860   3.166   1.525
  836SOL    MW4 3402   1.789   3.211   1.501
  837SOL     OW 3403   1.801   3.463   1.588
  837SOL    HW2 3404   1.811   3.469   1.683
  837SOL    HW3 3405   1.713   3.496   1.570
  837SOL    MW4 3406   1.791   3.468   1.598
  838SOL     OW 3407   1.999   3.629   1.483
  838SOL    HW2 3408   2.069   3.580   1.526
  838SOL    HW3 3409   1.919   3.583   1.507
  838SOL    MW4 3410   1.998   3.616   1.492
  839SOL     OW 3411   2.009   3.876   1.593
  839SOL    HW2 3412   2.078   3.924   1.547
  839SOL    HW3 3413   2.009   3.789   1.552
  839SOL    MW4 3414   2.018   3.870   1.581
  840SOL     OW 3415   1.798   4.014   1.481
  840SOL    HW2 3416   1.874   3.984   1.531
  840SOL    HW3 3417   1.726   3.958   1.511
  840SOL    MW4 3418   1.798   4.003   1.491
  841SOL     OW 3419   1.761   4.262   1.627
  841SOL    HW2 3420   1.841   4.307   1.599
  841SOL    HW3 3421   1.761   4.180   1.578
  841SOL    MW4 3422   1.772   4.257   1.617
  842SOL     OW 3423   1.979   4.406   1.504
  842SOL    HW2 3424   2.052   4.352   1.534
  842SOL    HW3 3425   1.996   4.492   1.543
  842SOL    MW4 3426   1.991   4.410   1.513
  843SOL     OW 3427   2.471   4.648   1.597
  843SOL    HW2 3428   2.479   4.677   1.688
  843SOL    HW3 3429   2.392   4.693   1.564
  843SOL    MW4 3430   2.462   4.658   1.604
  844SOL     OW 3431   2.231   0.107   1.489
  844SOL    HW2 3432   2.161   0.050   1.522
  844SOL    HW3 3433   2.235   0.087   1.395
  844SOL    MW4 3434   2.222   0.097   1.481
  845SOL     OW 3435   2.247   0.398   1.553
  845SOL    HW2 3436   2.243   0.387   1.648
  845SOL    HW3 3437   2.241   0.310   1.517
  845SOL    MW4 3438   2.246   0.385   1.561
  846SOL     OW 3439   2.499   0.529   1.487
  846SOL    HW2 3440   2.573   0.474   1.513
  846SOL    HW3 3441   2.422   0.482   1.519
  846SOL    MW4 3442   2.498   0.515   1.495
  847SOL     OW 3443   2.506   0.779   1.576
  847SOL    HW2 3444   2.420   0.810   1.548
  847SOL    HW3 3445   2.507   0.687   1.552
  847SOL    MW4 3446   2.495   0.771   1.569
  848SOL     OW 3447   2.278   0.912   1.475
  848SOL    HW2 3448   2.280   0.998   1.518
  848SOL    HW3 3449   2.292   0.932   1.382
  848SOL    MW4 3450   2.280   0.926   1.468
  849SOL     OW 3451   2.258   1.180   1.590
  849SOL    HW2 3452   2.260   1.176   1.686
  849SOL    HW3 3453   2.181   1.232   1.570
  849SOL    MW4 3454   2.248   1.186   1.600
  850SOL     OW 3455   2.471   1.312   1.477
  850SOL    HW2 3456   2.394   1.269   1.515
  850SOL    HW3 3457   2.459   1.305   1.383
  850SOL    MW4 3458   2.459   1.305   1.470
  851SOL     OW 3459   2.491   1.543   1.623
  851SOL    HW2 3460   2.566   1.597   1.600
  851SOL    HW3 3461   2.497   1.467   1.566
  851SOL    MW4 3462   2.502   1.540   1.613
  852SOL     OW 3463   2.269   1.648   1.483
  852SOL    HW2 3464   2.351   1.610   1.516
  852SOL    HW3 3465   2.281   1.652   1.388
  852SOL    MW4 3466   2.282   1.644   1.475
  853SOL     OW 3467   2.260   1.912   1.554
  853SOL    HW2 3468   2.261   1.925   1.649
  853SOL    HW3 3469   2.249   1.818   1.542
  853SOL    MW4 3470   2.259   1.902   1.565
  854SOL     OW 3471   2.494   2.054   1.494
  854SOL    HW2 3472   2.425   1.999   1.532
  854SOL    HW3 3473   2.481   2.047   1.400
  854SOL    MW4 3474   2.483   2.046   1.487
  855SOL     OW 3475   2.476   2.331   1.581
  855SOL    HW2 3476   2.456   2.326   1.674
  855SOL    HW3 3477   2.479   2.240   1.552
  855SOL    MW4 3478   2.474   2.318   1.589
  856SOL     OW 3479   2.232   2.449   1.503
  856SOL    HW2 3480   2.319   2.418   1.526
  856SOL    HW3 3481   2.172   2.397   1.556
  856SOL    MW4 3482   2.235   2.438   1.513
  857SOL     OW 3483   2.233   2.717   1.570
  857SOL    HW2 3484   2.234   2.626   1.539
  857SOL    HW3 3485   2.144   2.747   1.552
  857SOL    MW4 3486   2.221   2.709   1.563
  858SOL     OW 3487   2.452   2.847   1.488
  858SOL    HW2 3488   2.454   2.916   1.554
  858SOL    HW3 3489   2.381   2.788   1.516
  858SOL    MW4 3490   2.443   2.848   1.500
  859SOL     OW 3491   2.426   3.082   1.618
  859SOL    HW2 3492   2.510   3.124   1.605
  859SOL    HW3 3493   2.362   3.144   1.583
  859SOL    MW4 3494   2.428   3.096   1.612
  860SOL     OW 3495   2.225   3.236   1.509
  860SOL    HW2 3496   2.211   3.324   1.542
  860SOL    HW3 3497   2.231   3.247   1.414
  860SOL    MW4 3498   2.224   3.249   1.501
  861SOL     OW 3499   2.213   3.500   1.615
  861SOL    HW2 3500   2.242   3.508   1.706
  861SOL    HW3 3501   2.286   3.532   1.563
  861SOL    MW4 3502   2.226   3.505   1.620
  862SOL     OW 3503   2.451   3.571   1.483
  862SOL    HW2 3504   2.529   3.537   1.527
  862SOL    HW3 3505   2.443   3.661   1.514
  862SOL    MW4 3506   2.460   3.578   1.493
  863SOL     OW 3507   2.432   3.835   1.568
  863SOL    HW2 3508   2.423   3.833   1.663
  863SOL    HW3 3509   2.507   3.893   1.553
  863SOL    MW4 3510   2.441   3.842   1.578
  864SOL     OW 3511   2.238   4.026   1.501
  864SOL    HW2 3512   2.302   3.962   1.535
  864SOL    HW3 3513   2.250   4.023   1.406
  864SOL    MW4 3514   2.248   4.017   1.493
  865SOL     OW 3515   2.194   4.272   1.633
  865SOL    HW2 3516   2.262   4.325   1.591
  865SOL    HW3 3517   2.192   4.191   1.583
  865SOL    MW4 3518   2.203   4.268   1.621
  866SOL     OW 3519   2.395   4.405   1.517
  866SOL    HW2 3520   2.416   4.496   1.538
  866SOL    HW3 3521   2.416   4.397   1.424
  866SOL    MW4 3522   2.401   4.416   1.507
  867SOL     OW 3523   2.934   4.642   1.543
  867SOL    HW2 3524   2.933   4.636   1.638
  867SOL    HW3 3525   2.849   4.680   1.520
  867SOL    MW4 3526   2.923   4.646   1.552
  868SOL     OW 3527   2.711   0.122   1.488
  868SOL    HW2 3528   2.708   0.211   1.522
  868SOL    HW3 3529   2.632   0.081   1.521
  868SOL    MW4 3530   2.700   0.128   1.497
  869SOL     OW 3531   2.709   0.381   1.605
  869SOL    HW2 3532   2.716   0.377   1.700
  869SOL    HW3 3533   2.793   0.417   1.577
  869SOL    MW4 3534   2.721   0.385   1.614
  870SOL     OW 3535   2.912   0.515   1.462
  870SOL    HW2 3536   2.910   0.605   1.496
  870SOL    HW3 3537   2.910   0.525   1.367
  870SOL    MW4 3538   2.911   0.529   1.454
  871SOL     OW 3539   2.922   0.770   1.570
  871SOL    HW2 3540   2.913   0.763   1.665
  871SOL    HW3 3541   2.865   0.843   1.546
  871SOL    MW4 3542   2.913   0.778   1.580
  872SOL     OW 3543   2.726   0.949   1.485
  872SOL    HW2 3544   2.660   0.886   1.511
  872SOL    HW3 3545   2.756   0.919   1.399
  872SOL    MW4 3546   2.721   0.937   1.477
  873SOL     OW 3547   2.702   1.230   1.593
  873SOL    HW2 3548   2.712   1.139   1.566
  873SOL    HW3 3549   2.632   1.264   1.538
  873SOL    MW4 3550   2.694   1.223   1.583
  874SOL     OW 3551   2.955   1.333   1.490
  874SOL    HW2 3552   3.021   1.273   1.523
  874SOL    HW3 3553   2.872   1.293   1.516
  874SOL    MW4 3554   2.952   1.320   1.498
  875SOL     OW 3555   2.929   1.587   1.601
  875SOL    HW2 3556   2.850   1.625   1.562
  875SOL    HW3 3557   2.939   1.503   1.558
  875SOL    MW4 3558   2.920   1.581   1.590
  876SOL     OW 3559   2.713   1.698   1.477
  876SOL    HW2 3560   2.725   1.790   1.502
  876SOL    HW3 3561   2.682   1.702   1.387
  876SOL    MW4 3562   2.711   1.711   1.468
  877SOL     OW 3563   2.758   1.976   1.562
  877SOL    HW2 3564   2.757   1.955   1.655
  877SOL    HW3 3565   2.672   2.015   1.545
  877SOL    MW4 3566   2.747   1.979   1.572
  878SOL     OW 3567   2.973   2.124   1.498
  878SOL    HW2 3568   2.963   2.209   1.541
  878SOL    HW3 3569   2.889   2.079   1.514
  878SOL    MW4 3570   2.960   2.129   1.506
  879SOL     OW 3571   2.925   2.357   1.649
  879SOL    HW2 3572   2.910   2.337   1.741
  879SOL    HW3 3573   2.841   2.390   1.617
  879SOL    MW4 3574   2.912   2.359   1.657
  880SOL     OW 3575   2.701   2.457   1.474
  880SOL    HW2 3576   2.697   2.543   1.517
  880SOL    HW3 3577   2.623   2.411   1.506
  880SOL    MW4 3578   2.690   2.462   1.484
  881SOL     OW 3579   2.691   2.718   1.587
  881SOL    HW2 3580   2.762   2.780   1.569
  881SOL    HW3 3581   2.611   2.766   1.562
  881SOL    MW4 3582   2.690   2.733   1.581
  882SOL     OW 3583   2.906   2.862   1.539
  882SOL    HW2 3584   2.978   2.814   1.580
  882SOL    HW3 3585   2.908   2.948   1.580
  882SOL    MW4 3586   2.916   2.867   1.549
  883SOL     OW 3587   2.896   3.117   1.628
  883SOL    HW2 3588   2.901   3.141   1.721
  883SOL    HW3 3589   2.972   3.159   1.589
  883SOL    MW4 3590   2.907   3.125   1.635
  884SOL     OW 3591   2.647   3.199   1.529
  884SOL    HW2 3592   2.737   3.167   1.533
  884SOL    HW3 3593   2.632   3.216   1.436
  884SOL    MW4 3594   2.657   3.197   1.517
  885SOL     OW 3595   2.682   3.452   1.627
  885SOL    HW2 3596   2.659   3.462   1.720
  885SOL    HW3 3597   2.670   3.359   1.609
  885SOL    MW4 3598   2.678   3.441   1.637
  886SOL     OW 3599   2.894   3.601   1.545
  886SOL    HW2 3600   2.830   3.546   1.590
  886SOL    HW3 3601   2.891   3.572   1.454
  886SOL    MW4 3602   2.885   3.590   1.539
  887SOL     OW 3603   2.879   3.887   1.586
  887SOL    HW2 3604   2.796   3.919   1.549
  887SOL    HW3 3605   2.881   3.794   1.565
  887SOL    MW4 3606   2.868   3.879   1.578
  888SOL     OW 3607   2.657   4.007   1.483
  888SOL    HW2 3608   2.656   4.094   1.522
  888SOL    HW3 3609   2.656   4.023   1.388
  888SOL    MW4 3610   2.657   4.021   1.476
  889SOL     OW 3611   2.639   4.276   1.588
  889SOL    HW2 3612   2.715   4.320   1.551
  889SOL    HW3 3613   2.564   4.331   1.562
  889SOL    MW4 3614   2.639   4.289   1.580
  890SOL     OW 3615   2.856   4.395   1.467
  890SOL    HW2 3616   2.883   4.485   1.489
  890SOL    HW3 3617   2.849   4.396   1.371
  890SOL    MW4 3618   2.859   4.407   1.457
  891SOL     OW 3619   3.331   4.664   1.590
  891SOL    HW2 3620   3.411   4.699   1.550
  891SOL    HW3 3621   3.330   4.571   1.565
  891SOL    MW4 3622   3.342   4.656   1.581
  892SOL     OW 3623   3.133   0.124   1.432
  892SOL    HW2 3624   3.205   0.082   1.479
  892SOL    HW3 3625   3.055   0.077   1.460
  892SOL    MW4 3626   3.132   0.112   1.442
  893SOL     OW 3627   3.150   0.385   1.536
  893SOL    HW2 3628   3.140   0.296   1.502
  893SOL    HW3 3629   3.066   0.428   1.517
  893SOL    MW4 3630   3.137   0.379   1.529
  894SOL     OW 3631   3.392   0.536   1.499
  894SOL    HW2 3632   3.312   0.485   1.512
  894SOL    HW3 3633   3.399   0.546   1.404
  894SOL    MW4 3634   3.382   0.531   1.488
  895SOL     OW 3635   3.396   0.785   1.620
  895SOL    HW2 3636   3.378   0.775   1.713
  895SOL    HW3 3637   3.410   0.696   1.588
  895SOL    MW4 3638   3.396   0.772   1.628
  896SOL     OW 3639   3.176   0.882   1.494
  896SOL    HW2 3640   3.243   0.842   1.550
  896SOL    HW3 3641   3.097   0.829   1.509
  896SOL    MW4 3642   3.174   0.870   1.503
  897SOL     OW 3643   3.132   1.146   1.583
  897SOL    HW2 3644   3.162   1.145   1.674
  897SOL    HW3 3645   3.132   1.054   1.556
  897SOL    MW4 3646   3.136   1.134   1.591
  898SOL     OW 3647   3.326   1.304   1.485
  898SOL    HW2 3648   3.409   1.270   1.520
  898SOL    HW3 3649   3.259   1.246   1.520
  898SOL    MW4 3650   3.328   1.292   1.494
  899SOL     OW 3651   3.335   1.572   1.557
  899SOL    HW2 3652   3.320   1.546   1.648
  899SOL    HW3 3653   3.357   1.491   1.511
  899SOL    MW4 3654   3.336   1.558   1.563
  900SOL     OW 3655   3.140   1.725   1.459
  900SOL    HW2 3656   3.215   1.675   1.490
  900SOL    HW3 3657   3.065   1.687   1.505
  900SOL    MW4 3658   3.140   1.713   1.469
  901SOL     OW 3659   3.174   1.970   1.606
  901SOL    HW2 3660   3.155   1.883   1.570
  901SOL    HW3 3661   3.103   2.025   1.573
  901SOL    MW4 3662   3.162   1.966   1.597
  902SOL     OW 3663   3.406   2.095   1.511
  902SOL    HW2 3664   3.333   2.043   1.545
  902SOL    HW3 3665   3.393   2.095   1.416
  902SOL    MW4 3666   3.395   2.088   1.503
  903SOL     OW 3667   3.387   2.344   1.638
  903SOL    HW2 3668   3.443   2.389   1.575
  903SOL    HW3 3669   3.394   2.252   1.616
  903SOL    MW4 3670   3.395   2.338   1.627
  904SOL     OW 3671   3.147   2.442   1.523
  904SOL    HW2 3672   3.222   2.415   1.576
  904SOL    HW3 3673   3.071   2.423   1.578
  904SOL    MW4 3674   3.147   2.436   1.537
  905SOL     OW 3675   3.142   2.710   1.606
  905SOL    HW2 3676   3.220   2.760   1.583
  905SOL    HW3 3677   3.156   2.624   1.566
  905SOL    MW4 3678   3.154   2.705   1.598
  906SOL     OW 3679   3.387   2.841   1.542
  906SOL    HW2 3680   3.354   2.929   1.560
  906SOL    HW3 3681   3.391   2.836   1.446
  906SOL    MW4 3682   3.383   2.852   1.531
  907SOL     OW 3683   3.333   3.110   1.606
  907SOL    HW2 3684   3.352   3.092   1.698
  907SOL    HW3 3685   3.414   3.146   1.571
  907SOL    MW4 3686   3.346   3.112   1.614
  908SOL     OW 3687   3.113   3.241   1.520
  908SOL    HW2 3688   3.196   3.205   1.550
  908SOL    HW3 3689   3.116   3.232   1.425
  908SOL    MW4 3690   3.124   3.235   1.511
  909SOL     OW 3691   3.158   3.504   1.594
  909SOL    HW2 3692   3.137   3.418   1.557
  909SOL    HW3 3693   3.081   3.558   1.576
  909SOL    MW4 3694   3.145   3.500   1.586
  910SOL     OW 3695   3.376   3.624   1.486
  910SOL    HW2 3696   3.447   3.577   1.531
  910SOL    HW3 3697   3.296   3.588   1.523
  910SOL    MW4 3698   3.375   3.613   1.497
  911SOL     OW 3699   3.319   3.877   1.599
  911SOL    HW2 3700   3.244   3.908   1.548
  911SOL    HW3 3701   3.326   3.784   1.578
  911SOL    MW4 3702   3.310   3.869   1.589
  912SOL     OW 3703   3.106   4.001   1.456
  912SOL    HW2 3704   3.102   4.093   1.480
  912SOL    HW3 3705   3.030   3.961   1.498
  912SOL    MW4 3706   3.096   4.008   1.465
  913SOL     OW 3707   3.095   4.263   1.557
  913SOL    HW2 3708   3.094   4.247   1.651
  913SOL    HW3 3709   3.009   4.299   1.538
  913SOL    MW4 3710   3.084   4.265   1.567
  914SOL     OW 3711   3.338   4.411   1.484
  914SOL    HW2 3712   3.254   4.370   1.507
  914SOL    HW3 3713   3.331   4.430   1.390
  914SOL    MW4 3714   3.326   4.408   1.475
  915SOL     OW 3715   3.810   4.616   1.582
  915SOL    HW2 3716   3.814   4.626   1.677
  915SOL    HW3 3717   3.880   4.672   1.549
  915SOL    MW4 3718   3.820   4.625   1.591
  916SOL     OW 3719   3.567   0.069   1.471
  916SOL    HW2 3720   3.650   0.023   1.486
  916SOL    HW3 3721   3.562   0.078   1.376
  916SOL    MW4 3722   3.578   0.064   1.460
  917SOL     OW 3723   3.555   0.329   1.611
  917SOL    HW2 3724   3.568   0.250   1.558
  917SOL    HW3 3725   3.493   0.381   1.561
  917SOL    MW4 3726   3.549   0.325   1.598
  918SOL     OW 3727   3.760   0.469   1.513
  918SOL    HW2 3728   3.680   0.427   1.543
  918SOL    HW3 3729   3.760   0.456   1.418
  918SOL    MW4 3730   3.749   0.462   1.504
  919SOL     OW 3731   3.795   0.744   1.564
  919SOL    HW2 3732   3.716   0.794   1.548
  919SOL    HW3 3733   3.768   0.652   1.557
  919SOL    MW4 3734   3.781   0.738   1.561
  920SOL     OW 3735   3.588   0.936   1.493
  920SOL    HW2 3736   3.509   0.888   1.518
  920SOL    HW3 3737   3.589   0.933   1.397
  920SOL    MW4 3738   3.578   0.929   1.484
  921SOL     OW 3739   3.570   1.208   1.572
  921SOL    HW2 3740   3.657   1.240   1.550
  921SOL    HW3 3741   3.565   1.121   1.532
  921SOL    MW4 3742   3.581   1.201   1.564
  922SOL     OW 3743   3.816   1.327   1.523
  922SOL    HW2 3744   3.900   1.282   1.538
  922SOL    HW3 3745   3.825   1.409   1.572
  922SOL    MW4 3746   3.829   1.332   1.532
  923SOL     OW 3747   3.822   1.591   1.615
  923SOL    HW2 3748   3.813   1.571   1.708
  923SOL    HW3 3749   3.733   1.616   1.588
  923SOL    MW4 3750   3.809   1.591   1.623
  924SOL     OW 3751   3.587   1.676   1.488
  924SOL    HW2 3752   3.498   1.643   1.502
  924SOL    HW3 3753   3.600   1.669   1.394
  924SOL    MW4 3754   3.577   1.671   1.477
  925SOL     OW 3755   3.591   1.920   1.600
  925SOL    HW2 3756   3.589   1.834   1.558
  925SOL    HW3 3757   3.546   1.978   1.540
  925SOL    MW4 3758   3.585   1.916   1.587
  926SOL     OW 3759   3.851   2.042   1.535
  926SOL    HW2 3760   3.835   2.131   1.568
  926SOL    HW3 3761   3.774   1.992   1.564
  926SOL    MW4 3762   3.838   2.047   1.543
  927SOL     OW 3763   3.805   2.308   1.600
  927SOL    HW2 3764   3.798   2.321   1.695
  927SOL    HW3 3765   3.886   2.352   1.575
  927SOL    MW4 3766   3.814   2.316   1.609
  928SOL     OW 3767   3.604   2.460   1.497
  928SOL    HW2 3768   3.615   2.550   1.528
  928SOL    HW3 3769   3.688   2.417   1.517
  928SOL    MW4 3770   3.617   2.466   1.503
  929SOL     OW 3771   3.615   2.719   1.612
  929SOL    HW2 3772   3.620   2.716   1.707
  929SOL    HW3 3773   3.532   2.761   1.593
  929SOL    MW4 3774   3.605   2.724   1.622
  930SOL     OW 3775   3.873   2.870   1.526
  930SOL    HW2 3776   3.934   2.804   1.559
  930SOL    HW3 3777   3.786   2.838   1.552
  930SOL    MW4 3778   3.869   2.857   1.533
  931SOL     OW 3779   3.819   3.126   1.599
  931SOL    HW2 3780   3.894   3.170   1.559
  931SOL    HW3 3781   3.834   3.033   1.580
  931SOL    MW4 3782   3.831   3.119   1.591
  932SOL     OW 3783   3.571   3.219   1.521
  932SOL    HW2 3784   3.657   3.183   1.541
  932SOL    HW3 3785   3.561   3.207   1.427
  932SOL    MW4 3786   3.581   3.212   1.511
  933SOL     OW 3787   3.565   3.485   1.626
  933SOL    HW2 3788   3.648   3.514   1.587
  933SOL    HW3 3789   3.558   3.392   1.602
  933SOL    MW4 3790   3.575   3.476   1.618
  934SOL     OW 3791   3.785   3.610   1.511
  934SOL    HW2 3792   3.866   3.566   1.534
  934SOL    HW3 3793   3.794   3.698   1.547
  934SOL    MW4 3794   3.797   3.616   1.519
  935SOL     OW 3795   3.792   3.854   1.625
  935SOL    HW2 3796   3.864   3.909   1.593
  935SOL    HW3 3797   3.716   3.884   1.577
  935SOL    MW4 3798   3.792   3.865   1.615
  936SOL     OW 3799   3.560   3.971   1.495
  936SOL    HW2 3800   3.562   4.064   1.515
  936SOL    HW3 3801   3.473   3.942   1.524
  936SOL    MW4 3802   3.548   3.979   1.502
  937SOL     OW 3803   3.574   4.248   1.557
  937SOL    HW2 3804   3.565   4.271   1.649
  937SOL    HW3 3805   3.509   4.301   1.512
  937SOL    MW4 3806   3.564   4.258   1.563
  938SOL     OW 3807   3.826   4.356   1.498
  938SOL    HW2 3808   3.745   4.305   1.506
  938SOL    HW3 3809   3.807   4.438   1.543
  938SOL    MW4 3810   3.813   4.360   1.505
  939SOL     OW 3811   4.228   0.002   1.587
  939SOL    HW2 3812   4.246  -0.023   1.677
  939SOL    HW3 3813   4.231  -0.080   1.538
  939SOL    MW4 3814   4.231  -0.012   1.592
  940SOL     OW 3815   4.002   0.152   1.481
  940SOL    HW2 3816   4.004   0.236   1.526
  940SOL    HW3 3817   4.077   0.104   1.518
  940SOL    MW4 3818   4.012   0.157   1.492
  941SOL     OW 3819   3.997   0.385   1.631
  941SOL    HW2 3820   4.003   0.386   1.727
  941SOL    HW3 3821   3.907   0.411   1.613
  941SOL    MW4 3822   3.986   0.389   1.642
  942SOL     OW 3823   4.221   0.495   1.517
  942SOL    HW2 3824   4.149   0.451   1.562
  942SOL    HW3 3825   4.300   0.453   1.550
  942SOL    MW4 3826   4.222   0.484   1.527
  943SOL     OW 3827   4.249   0.755   1.627
  943SOL    HW2 3828   4.242   0.670   1.584
  943SOL    HW3 3829   4.326   0.796   1.588
  943SOL    MW4 3830   4.258   0.749   1.616
  944SOL     OW 3831   4.032   0.888   1.525
  944SOL    HW2 3832   4.110   0.863   1.575
  944SOL    HW3 3833   3.967   0.821   1.547
  944SOL    MW4 3834   4.034   0.876   1.534
  945SOL     OW 3835   4.029   1.149   1.591
  945SOL    HW2 3836   4.008   1.144   1.684
  945SOL    HW3 3837   4.019   1.059   1.559
  945SOL    MW4 3838   4.025   1.137   1.599
  946SOL     OW 3839   4.243   1.288   1.504
  946SOL    HW2 3840   4.176   1.230   1.540
  946SOL    HW3 3841   4.326   1.250   1.533
  946SOL    MW4 3842   4.245   1.275   1.512
  947SOL     OW 3843   4.259   1.526   1.658
  947SOL    HW2 3844   4.261   1.431   1.641
  947SOL    HW3 3845   4.342   1.558   1.622
  947SOL    MW4 3846   4.270   1.517   1.651
  948SOL     OW 3847   4.069   1.687   1.525
  948SOL    HW2 3848   4.129   1.627   1.569
  948SOL    HW3 3849   3.981   1.656   1.549
  948SOL    MW4 3850   4.065   1.675   1.534
  949SOL     OW 3851   4.099   1.947   1.621
  949SOL    HW2 3852   4.098   1.855   1.595
  949SOL    HW3 3853   4.019   1.984   1.582
  949SOL    MW4 3854   4.088   1.940   1.612
  950SOL     OW 3855   4.292   2.112   1.524
  950SOL    HW2 3856   4.221   2.052   1.546
  950SOL    HW3 3857   4.302   2.105   1.429
  950SOL    MW4 3858   4.284   2.103   1.514
  951SOL     OW 3859   4.278   2.361   1.620
  951SOL    HW2 3860   4.268   2.350   1.714
  951SOL    HW3 3861   4.278   2.272   1.585
  951SOL    MW4 3862   4.277   2.348   1.628
  952SOL     OW 3863   4.045   2.448   1.515
  952SOL    HW2 3864   4.052   2.537   1.548
  952SOL    HW3 3865   4.126   2.406   1.542
  952SOL    MW4 3866   4.056   2.454   1.523
  953SOL     OW 3867   4.047   2.690   1.623
  953SOL    HW2 3868   4.035   2.695   1.718
  953SOL    HW3 3869   4.123   2.746   1.606
  953SOL    MW4 3870   4.055   2.698   1.634
  954SOL     OW 3871   4.262   2.840   1.537
  954SOL    HW2 3872   4.254   2.935   1.549
  954SOL    HW3 3873   4.280   2.829   1.444
  954SOL    MW4 3874   4.264   2.851   1.526
  955SOL     OW 3875   4.273   3.125   1.584
  955SOL    HW2 3876   4.287   3.133   1.679
  955SOL    HW3 3877   4.356   3.152   1.545
  955SOL    MW4 3878   4.286   3.129   1.592
  956SOL     OW 3879   4.034   3.277   1.480
  956SOL    HW2 3880   4.029   3.367   1.512
  956SOL    HW3 3881   4.115   3.243   1.519
  956SOL    MW4 3882   4.044   3.284   1.490
  957SOL     OW 3883   4.018   3.518   1.600
  957SOL    HW2 3884   4.015   3.499   1.694
  957SOL    HW3 3885   4.110   3.535   1.581
  957SOL    MW4 3886   4.029   3.517   1.610
  958SOL     OW 3887   4.288   3.593   1.525
  958SOL    HW2 3888   4.284   3.683   1.555
  958SOL    HW3 3889   4.289   3.600   1.429
  958SOL    MW4 3890   4.288   3.606   1.516
  959SOL     OW 3891   4.286   3.860   1.613
  959SOL    HW2 3892   4.210   3.902   1.572
  959SOL    HW3 3893   4.361   3.894   1.565
  959SOL    MW4 3894   4.285   3.870   1.601
  960SOL     OW 3895   4.023   3.959   1.554
  960SOL    HW2 3896   4.045   4.043   1.594
  960SOL    HW3 3897   4.027   3.976   1.459
  960SOL    MW4 3898   4.026   3.972   1.547
  961SOL     OW 3899   4.057   4.238   1.606
  961SOL    HW2 3900   4.039   4.231   1.699
  961SOL    HW3 3901   3.971   4.257   1.566
  961SOL    MW4 3902   4.043   4.240   1.613
  962SOL     OW 3903   4.278   4.403   1.493
  962SOL    HW2 3904   4.193   4.370   1.523
  962SOL    HW3 3905   4.272   4.399   1.398
  962SOL    MW4 3906   4.266   4.398   1.484
  963SOL     OW 3907   0.216   4.667   1.939
  963SOL    HW2 3908   0.294   4.708   1.975
  963SOL    HW3 3909   0.231   4.665   1.845
  963SOL    MW4 3910   0.228   4.672   1.931
  964SOL     OW 3911   4.467   0.129   2.004
  964SOL    HW2 3912   4.460   0.219   1.971
  964SOL    HW3 3913   4.554   0.100   1.975
  964SOL    MW4 3914   4.478   0.137   1.996
  965SOL     OW 3915   4.447   0.391   1.891
  965SOL    HW2 3916   4.387   0.453   1.932
  965SOL    HW3 3917   4.534   0.422   1.916
  965SOL    MW4 3918   4.450   0.403   1.900
  966SOL     OW 3919   0.188   0.475   1.991
  966SOL    HW2 3920   0.267   0.438   1.950
  966SOL    HW3 3921   0.183   0.564   1.957
  966SOL    MW4 3922   0.198   0.482   1.981
  967SOL     OW 3923   0.199   0.762   1.947
  967SOL    HW2 3924   0.276   0.803   1.987
  967SOL    HW3 3925   0.218   0.763   1.853
  967SOL    MW4 3926   0.212   0.768   1.939
  968SOL     OW 3927   4.476   0.923   2.019
  968SOL    HW2 3928   4.402   0.867   1.994
  968SOL    HW3 3929   4.554   0.875   1.992
  968SOL    MW4 3930   4.476   0.909   2.012
  969SOL     OW 3931   4.448   1.133   1.846
  969SOL    HW2 3932   4.378   1.181   1.888
  969SOL    HW3 3933   4.464   1.058   1.904
  969SOL    MW4 3934   4.441   1.129   1.859
  970SOL     OW 3935   0.174   1.249   1.981
  970SOL    HW2 3936   0.174   1.338   1.945
  970SOL    HW3 3937   0.101   1.206   1.937
  970SOL    MW4 3938   0.164   1.255   1.970
  971SOL     OW 3939   0.222   1.508   1.897
  971SOL    HW2 3940   0.301   1.550   1.931
  971SOL    HW3 3941   0.152   1.570   1.917
  971SOL    MW4 3942   0.223   1.522   1.904
  972SOL     OW 3943   0.017   1.682   1.988
  972SOL    HW2 3944   0.026   1.679   2.083
  972SOL    HW3 3945  -0.067   1.638   1.970
  972SOL    MW4 3946   0.007   1.676   1.998
  973SOL     OW 3947   4.488   1.942   1.898
  973SOL    HW2 3948   4.414   1.979   1.945
  973SOL    HW3 3949   4.494   1.851   1.930
  973SOL    MW4 3950   4.479   1.935   1.909
  974SOL     OW 3951   0.245   2.075   1.974
  974SOL    HW2 3952   0.223   2.163   1.942
  974SOL    HW3 3953   0.169   2.022   1.950
  974SOL    MW4 3954   0.232   2.080   1.967
  975SOL     OW 3955   0.188   2.338   1.889
  975SOL    HW2 3956   0.273   2.370   1.921
  975SOL    HW3 3957   0.124   2.396   1.931
  975SOL    MW4 3958   0.191   2.350   1.899
  976SOL     OW 3959   4.450   2.457   2.031
  976SOL    HW2 3960   4.464   2.438   2.124
  976SOL    HW3 3961   4.465   2.551   2.023
  976SOL    MW4 3962   4.454   2.467   2.042
  977SOL     OW 3963   4.473   2.701   1.888
  977SOL    HW2 3964   4.392   2.747   1.908
  977SOL    HW3 3965   4.479   2.702   1.793
  977SOL    MW4 3966   4.463   2.707   1.878
  978SOL     OW 3967   0.203   2.854   1.982
  978SOL    HW2 3968   0.197   2.944   1.952
  978SOL    HW3 3969   0.127   2.811   1.944
  978SOL    MW4 3970   0.192   2.860   1.973
  979SOL     OW 3971   0.232   3.148   1.887
  979SOL    HW2 3972   0.314   3.163   1.933
  979SOL    HW3 3973   0.253   3.160   1.795
  979SOL    MW4 3974   0.245   3.152   1.881
  980SOL     OW 3975   0.017   3.252   2.014
  980SOL    HW2 3976  -0.050   3.214   1.958
  980SOL    HW3 3977   0.097   3.204   1.993
  980SOL    MW4 3978   0.019   3.241   2.004
  981SOL     OW 3979   0.033   3.505   1.892
  981SOL    HW2 3980   0.101   3.551   1.941
  981SOL    HW3 3981   0.046   3.412   1.912
  981SOL    MW4 3982   0.044   3.499   1.901
  982SOL     OW 3983   0.261   3.631   1.998
  982SOL    HW2 3984   0.261   3.612   2.092
  982SOL    HW3 3985   0.320   3.566   1.960
  982SOL    MW4 3986   0.269   3.620   2.005
  983SOL     OW 3987   0.244   3.871   1.875
  983SOL    HW2 3988   0.315   3.931   1.901
  983SOL    HW3 3989   0.268   3.787   1.913
  983SOL    MW4 3990   0.257   3.868   1.883
  984SOL     OW 3991   0.016   4.005   1.981
  984SOL    HW2 3992   0.026   4.093   1.942
  984SOL    HW3 3993   0.089   3.955   1.946
  984SOL    MW4 3994   0.027   4.010   1.971
  985SOL     OW 3995   4.490   4.237   1.863
  985SOL    HW2 3996   4.410   4.271   1.903
  985SOL    HW3 3997   4.561   4.289   1.903
  985SOL    MW4 3998   4.489   4.249   1.874
  986SOL     OW 3999   0.190   4.386   2.000
  986SOL    HW2 4000   0.200   4.386   2.095
  986SOL    HW3 4001   0.196   4.478   1.974
  986SOL    MW4 4002   0.192   4.398   2.009
  987SOL     OW 4003   0.689   0.004   1.910
  987SOL    HW2 4004   0.690  -0.085   1.944
  987SOL    HW3 4005   0.702  -0.006   1.815
  987SOL    MW4 4006   0.691  -0.009   1.902
  988SOL     OW 4007   0.464   0.117   2.014
  988SOL    HW2 4008   0.445   0.200   1.969
  988SOL    HW3 4009   0.544   0.085   1.973
  988SOL    MW4 4010   0.472   0.124   2.003
  989SOL     OW 4011   0.421   0.368   1.882
  989SOL    HW2 4012   0.499   0.416   1.911
  989SOL    HW3 4013   0.417   0.383   1.787
  989SOL    MW4 4014   0.431   0.376   1.873
  990SOL     OW 4015   0.622   0.517   1.976
  990SOL    HW2 4016   0.631   0.513   2.071
  990SOL    HW3 4017   0.702   0.475   1.943
  990SOL    MW4 4018   0.634   0.511   1.984
  991SOL     OW 4019   0.681   0.751   1.835
  991SOL    HW2 4020   0.746   0.790   1.894
  991SOL    HW3 4021   0.650   0.674   1.882
  991SOL    MW4 4022   0.686   0.746   1.849
  992SOL     OW 4023   0.451   0.864   2.008
  992SOL    HW2 4024   0.453   0.958   1.990
  992SOL    HW3 4025   0.530   0.830   1.964
  992SOL    MW4 4026   0.462   0.872   2.000
  993SOL     OW 4027   0.416   1.133   1.956
  993SOL    HW2 4028   0.340   1.188   1.978
  993SOL    HW3 4029   0.426   1.143   1.862
  993SOL    MW4 4030   0.407   1.142   1.947
  994SOL     OW 4031   0.668   1.271   2.009
  994SOL    HW2 4032   0.702   1.257   2.097
  994SOL    HW3 4033   0.589   1.217   2.005
  994SOL    MW4 4034   0.662   1.262   2.020
  995SOL     OW 4035   0.690   1.535   1.907
  995SOL    HW2 4036   0.680   1.442   1.930
  995SOL    HW3 4037   0.692   1.535   1.811
  995SOL    MW4 4038   0.689   1.522   1.897
  996SOL     OW 4039   0.448   1.683   1.953
  996SOL    HW2 4040   0.453   1.700   2.047
  996SOL    HW3 4041   0.531   1.641   1.932
  996SOL    MW4 4042   0.460   1.680   1.963
  997SOL     OW 4043   0.475   1.946   1.872
  997SOL    HW2 4044   0.474   1.855   1.902
  997SOL    HW3 4045   0.399   1.986   1.913
  997SOL    MW4 4046   0.465   1.939   1.881
  998SOL     OW 4047   0.707   2.063   1.950
  998SOL    HW2 4048   0.688   2.067   2.043
  998SOL    HW3 4049   0.626   2.030   1.911
  998SOL    MW4 4050   0.694   2.060   1.957
  999SOL     OW 4051   0.664   2.347   1.893
  999SOL    HW2 4052   0.674   2.253   1.911
  999SOL    HW3 4053   0.681   2.354   1.799
  999SOL    MW4 4054   0.667   2.335   1.883
 1000SOL     OW 4055   0.421   2.461   1.987
 1000SOL    HW2 4056   0.432   2.467   2.082
 1000SOL    HW3 4057   0.497   2.412   1.957
 1000SOL    MW4 4058   0.433   2.455   1.995
 1001SOL     OW 4059   0.445   2.728   1.892
 1001SOL    HW2 4060   0.449   2.638   1.924
 1001SOL    HW3 4061   0.359   2.760   1.920
 1001SOL    MW4 4062   0.434   2.721   1.900
 1002SOL     OW 4063   0.673   2.842   2.009
 1002SOL    HW2 4064   0.650   2.854   2.101
 1002SOL    HW3 4065   0.588   2.828   1.966
 1002SOL    MW4 4066   0.659   2.842   2.015
 1003SOL     OW 4067   0.690   3.101   1.861
 1003SOL    HW2 4068   0.681   3.010   1.891
 1003SOL    HW3 4069   0.694   3.095   1.766
 1003SOL    MW4 4070   0.690   3.088   1.852
 1004SOL     OW 4071   0.492   3.247   1.998
 1004SOL    HW2 4072   0.475   3.325   1.945
 1004SOL    HW3 4073   0.568   3.207   1.956
 1004SOL    MW4 4074   0.500   3.252   1.985
 1005SOL     OW 4075   0.437   3.474   1.861
 1005SOL    HW2 4076   0.511   3.523   1.896
 1005SOL    HW3 4077   0.438   3.493   1.767
 1005SOL    MW4 4078   0.446   3.483   1.853
 1006SOL     OW 4079   0.637   3.616   1.996
 1006SOL    HW2 4080   0.716   3.567   1.974
 1006SOL    HW3 4081   0.648   3.700   1.953
 1006SOL    MW4 4082   0.649   3.620   1.988
 1007SOL     OW 4083   0.675   3.848   1.865
 1007SOL    HW2 4084   0.754   3.894   1.892
 1007SOL    HW3 4085   0.662   3.873   1.774
 1007SOL    MW4 4086   0.684   3.857   1.856
 1008SOL     OW 4087   0.453   4.021   2.001
 1008SOL    HW2 4088   0.459   4.110   1.968
 1008SOL    HW3 4089   0.538   3.982   1.978
 1008SOL    MW4 4090   0.465   4.027   1.993
 1009SOL     OW 4091   0.447   4.298   1.921
 1009SOL    HW2 4092   0.356   4.313   1.945
 1009SOL    HW3 4093   0.445   4.285   1.826
 1009SOL    MW4 4094   0.435   4.298   1.911
 1010SOL     OW 4095   0.692   4.413   1.977
 1010SOL    HW2 4096   0.754   4.360   1.928
 1010SOL    HW3 4097   0.607   4.372   1.960
 1010SOL    MW4 4098   0.689   4.400   1.969
 1011SOL     OW 4099   1.073   0.014   1.905
 1011SOL    HW2 4100   1.156   0.057   1.926
 1011SOL    HW3 4101   1.088  -0.078   1.925
 1011SOL    MW4 4102   1.086   0.008   1.911
 1012SOL     OW 4103   0.870   0.164   2.050
 1012SOL    HW2 4104   0.958   0.138   2.023
 1012SOL    HW3 4105   0.812   0.099   2.009
 1012SOL    MW4 4106   0.874   0.152   2.041
 1013SOL     OW 4107   0.868   0.394   1.901
 1013SOL    HW2 4108   0.953   0.429   1.928
 1013SOL    HW3 4109   0.861   0.311   1.948
 1013SOL    MW4 4110   0.878   0.387   1.911
 1014SOL     OW 4111   1.113   0.511   2.000
 1014SOL    HW2 4112   1.190   0.467   1.965
 1014SOL    HW3 4113   1.111   0.596   1.956
 1014SOL    MW4 4114   1.123   0.516   1.990
 1015SOL     OW 4115   1.102   0.752   1.874
 1015SOL    HW2 4116   1.179   0.801   1.902
 1015SOL    HW3 4117   1.029   0.796   1.917
 1015SOL    MW4 4118   1.103   0.765   1.883
 1016SOL     OW 4119   0.858   0.871   2.013
 1016SOL    HW2 4120   0.873   0.890   2.105
 1016SOL    HW3 4121   0.865   0.956   1.970
 1016SOL    MW4 4122   0.861   0.885   2.019
 1017SOL     OW 4123   0.871   1.118   1.887
 1017SOL    HW2 4124   0.798   1.171   1.917
 1017SOL    HW3 4125   0.870   1.125   1.792
 1017SOL    MW4 4126   0.861   1.126   1.878
 1018SOL     OW 4127   1.087   1.251   1.980
 1018SOL    HW2 4128   1.094   1.337   1.939
 1018SOL    HW3 4129   0.999   1.220   1.959
 1018SOL    MW4 4130   1.077   1.258   1.972
 1019SOL     OW 4131   1.126   1.519   1.883
 1019SOL    HW2 4132   1.044   1.539   1.928
 1019SOL    HW3 4133   1.113   1.549   1.794
 1019SOL    MW4 4134   1.114   1.525   1.877
 1020SOL     OW 4135   0.914   1.641   1.996
 1020SOL    HW2 4136   0.921   1.730   1.961
 1020SOL    HW3 4137   0.831   1.608   1.963
 1020SOL    MW4 4138   0.904   1.649   1.987
 1021SOL     OW 4139   0.915   1.900   1.884
 1021SOL    HW2 4140   0.839   1.939   1.925
 1021SOL    HW3 4141   0.894   1.897   1.791
 1021SOL    MW4 4142   0.902   1.905   1.877
 1022SOL     OW 4143   1.146   2.032   1.958
 1022SOL    HW2 4144   1.135   2.122   1.929
 1022SOL    HW3 4145   1.070   1.985   1.924
 1022SOL    MW4 4146   1.135   2.037   1.950
 1023SOL     OW 4147   1.097   2.306   1.898
 1023SOL    HW2 4148   1.181   2.347   1.920
 1023SOL    HW3 4149   1.088   2.320   1.804
 1023SOL    MW4 4150   1.107   2.313   1.889
 1024SOL     OW 4151   0.893   2.454   1.982
 1024SOL    HW2 4152   0.954   2.386   1.952
 1024SOL    HW3 4153   0.808   2.427   1.947
 1024SOL    MW4 4154   0.890   2.441   1.974
 1025SOL     OW 4155   0.915   2.733   1.893
 1025SOL    HW2 4156   0.932   2.648   1.934
 1025SOL    HW3 4157   0.828   2.757   1.924
 1025SOL    MW4 4158   0.906   2.725   1.902
 1026SOL     OW 4159   1.149   2.859   1.990
 1026SOL    HW2 4160   1.134   2.861   2.085
 1026SOL    HW3 4161   1.068   2.825   1.953
 1026SOL    MW4 4162   1.137   2.855   1.998
 1027SOL     OW 4163   1.158   3.100   1.881
 1027SOL    HW2 4164   1.075   3.142   1.900
 1027SOL    HW3 4165   1.154   3.016   1.927
 1027SOL    MW4 4166   1.146   3.094   1.889
 1028SOL     OW 4167   0.916   3.234   1.938
 1028SOL    HW2 4168   0.898   3.252   2.030
 1028SOL    HW3 4169   0.850   3.169   1.913
 1028SOL    MW4 4170   0.905   3.228   1.947
 1029SOL     OW 4171   0.844   3.493   1.868
 1029SOL    HW2 4172   0.857   3.400   1.889
 1029SOL    HW3 4173   0.839   3.496   1.773
 1029SOL    MW4 4174   0.845   3.481   1.858
 1030SOL     OW 4175   1.092   3.601   1.915
 1030SOL    HW2 4176   1.085   3.629   2.006
 1030SOL    HW3 4177   1.006   3.565   1.894
 1030SOL    MW4 4178   1.080   3.600   1.924
 1031SOL     OW 4179   1.139   3.864   1.882
 1031SOL    HW2 4180   1.115   3.771   1.882
 1031SOL    HW3 4181   1.139   3.888   1.789
 1031SOL    MW4 4182   1.135   3.855   1.870
 1032SOL     OW 4183   0.901   3.973   1.968
 1032SOL    HW2 4184   0.913   3.999   2.059
 1032SOL    HW3 4185   0.989   3.951   1.937
 1032SOL    MW4 4186   0.914   3.974   1.976
 1033SOL     OW 4187   0.888   4.249   1.882
 1033SOL    HW2 4188   0.972   4.278   1.918
 1033SOL    HW3 4189   0.885   4.155   1.902
 1033SOL    MW4 4190   0.899   4.240   1.889
 1034SOL     OW 4191   1.097   4.416   1.983
 1034SOL    HW2 4192   1.108   4.402   2.077
 1034SOL    HW3 4193   1.162   4.359   1.942
 1034SOL    MW4 4194   1.107   4.407   1.990
 1035SOL     OW 4195   1.543   4.655   1.859
 1035SOL    HW2 4196   1.616   4.690   1.910
 1035SOL    HW3 4197   1.539   4.563   1.884
 1035SOL    MW4 4198   1.552   4.648   1.869
 1036SOL     OW 4199   1.317   0.115   1.950
 1036SOL    HW2 4200   1.341   0.115   2.042
 1036SOL    HW3 4201   1.392   0.077   1.905
 1036SOL    MW4 4202   1.330   0.110   1.956
 1037SOL     OW 4203   1.337   0.392   1.896
 1037SOL    HW2 4204   1.322   0.299   1.911
 1037SOL    HW3 4205   1.333   0.403   1.801
 1037SOL    MW4 4206   1.334   0.381   1.885
 1038SOL     OW 4207   1.524   0.530   2.010
 1038SOL    HW2 4208   1.603   0.487   1.978
 1038SOL    HW3 4209   1.452   0.483   1.968
 1038SOL    MW4 4210   1.525   0.518   2.000
 1039SOL     OW 4211   1.559   0.772   1.864
 1039SOL    HW2 4212   1.641   0.811   1.896
 1039SOL    HW3 4213   1.552   0.689   1.913
 1039SOL    MW4 4214   1.569   0.766   1.875
 1040SOL     OW 4215   1.331   0.897   1.941
 1040SOL    HW2 4216   1.340   0.898   2.037
 1040SOL    HW3 4217   1.414   0.864   1.909
 1040SOL    MW4 4218   1.343   0.893   1.950
 1041SOL     OW 4219   1.369   1.174   1.900
 1041SOL    HW2 4220   1.368   1.079   1.907
 1041SOL    HW3 4221   1.281   1.201   1.926
 1041SOL    MW4 4222   1.357   1.165   1.905
 1042SOL     OW 4223   1.580   1.290   2.038
 1042SOL    HW2 4224   1.589   1.372   1.989
 1042SOL    HW3 4225   1.519   1.237   1.987
 1042SOL    MW4 4226   1.573   1.294   2.025
 1043SOL     OW 4227   1.574   1.518   1.884
 1043SOL    HW2 4228   1.642   1.582   1.905
 1043SOL    HW3 4229   1.494   1.556   1.919
 1043SOL    MW4 4230   1.573   1.532   1.891
 1044SOL     OW 4231   1.358   1.595   2.017
 1044SOL    HW2 4232   1.369   1.607   2.111
 1044SOL    HW3 4233   1.264   1.575   2.006
 1044SOL    MW4 4234   1.347   1.594   2.028
 1045SOL     OW 4235   1.362   1.898   1.877
 1045SOL    HW2 4236   1.372   1.816   1.925
 1045SOL    HW3 4237   1.282   1.937   1.913
 1045SOL    MW4 4238   1.352   1.892   1.888
 1046SOL     OW 4239   1.584   2.032   1.987
 1046SOL    HW2 4240   1.569   2.125   1.970
 1046SOL    HW3 4241   1.513   1.988   1.940
 1046SOL    MW4 4242   1.572   2.038   1.979
 1047SOL     OW 4243   1.545   2.300   1.875
 1047SOL    HW2 4244   1.627   2.347   1.890
 1047SOL    HW3 4245   1.528   2.310   1.781
 1047SOL    MW4 4246   1.554   2.307   1.864
 1048SOL     OW 4247   1.326   2.410   1.976
 1048SOL    HW2 4248   1.351   2.501   1.961
 1048SOL    HW3 4249   1.400   2.359   1.943
 1048SOL    MW4 4250   1.339   2.416   1.970
 1049SOL     OW 4251   1.352   2.658   1.925
 1049SOL    HW2 4252   1.283   2.719   1.952
 1049SOL    HW3 4253   1.357   2.667   1.830
 1049SOL    MW4 4254   1.344   2.667   1.916
 1050SOL     OW 4255   1.588   2.819   1.992
 1050SOL    HW2 4256   1.667   2.773   1.963
 1050SOL    HW3 4257   1.517   2.760   1.969
 1050SOL    MW4 4258   1.589   2.805   1.985
 1051SOL     OW 4259   1.565   3.082   1.873
 1051SOL    HW2 4260   1.579   2.991   1.900
 1051SOL    HW3 4261   1.567   3.079   1.778
 1051SOL    MW4 4262   1.567   3.069   1.864
 1052SOL     OW 4263   1.371   3.234   1.995
 1052SOL    HW2 4264   1.439   3.187   1.947
 1052SOL    HW3 4265   1.290   3.187   1.973
 1052SOL    MW4 4266   1.369   3.221   1.986
 1053SOL     OW 4267   1.333   3.470   1.856
 1053SOL    HW2 4268   1.351   3.385   1.897
 1053SOL    HW3 4269   1.245   3.492   1.886
 1053SOL    MW4 4270   1.324   3.462   1.865
 1054SOL     OW 4271   1.549   3.604   1.987
 1054SOL    HW2 4272   1.534   3.623   2.080
 1054SOL    HW3 4273   1.467   3.563   1.958
 1054SOL    MW4 4274   1.536   3.601   1.996
 1055SOL     OW 4275   1.596   3.860   1.869
 1055SOL    HW2 4276   1.674   3.904   1.902
 1055SOL    HW3 4277   1.593   3.776   1.915
 1055SOL    MW4 4278   1.606   3.855   1.879
 1056SOL     OW 4279   1.368   4.000   1.975
 1056SOL    HW2 4280   1.457   3.976   1.949
 1056SOL    HW3 4281   1.312   3.934   1.935
 1056SOL    MW4 4282   1.372   3.988   1.966
 1057SOL     OW 4283   1.286   4.242   1.900
 1057SOL    HW2 4284   1.302   4.153   1.929
 1057SOL    HW3 4285   1.300   4.240   1.805
 1057SOL    MW4 4286   1.290   4.230   1.891
 1058SOL     OW 4287   1.513   4.379   1.982
 1058SOL    HW2 4288   1.514   4.380   2.077
 1058SOL    HW3 4289   1.439   4.322   1.960
 1058SOL    MW4 4290   1.503   4.371   1.991
 1059SOL     OW 4291   1.988   0.046   1.886
 1059SOL    HW2 4292   2.065   0.098   1.911
 1059SOL    HW3 4293   2.010  -0.043   1.914
 1059SOL    MW4 4294   2.001   0.041   1.893
 1060SOL     OW 4295   1.732   0.130   1.975
 1060SOL    HW2 4296   1.736   0.130   2.071
 1060SOL    HW3 4297   1.813   0.087   1.948
 1060SOL    MW4 4298   1.743   0.124   1.984
 1061SOL     OW 4299   1.751   0.404   1.918
 1061SOL    HW2 4300   1.751   0.309   1.929
 1061SOL    HW3 4301   1.768   0.416   1.824
 1061SOL    MW4 4302   1.753   0.393   1.907
 1062SOL     OW 4303   2.015   0.496   1.982
 1062SOL    HW2 4304   2.014   0.588   1.954
 1062SOL    HW3 4305   1.932   0.461   1.950
 1062SOL    MW4 4306   2.004   0.504   1.974
 1063SOL     OW 4307   2.018   0.751   1.835
 1063SOL    HW2 4308   2.102   0.789   1.860
 1063SOL    HW3 4309   2.018   0.752   1.740
 1063SOL    MW4 4310   2.029   0.756   1.826
 1064SOL     OW 4311   1.790   0.899   1.970
 1064SOL    HW2 4312   1.787   0.988   1.934
 1064SOL    HW3 4313   1.863   0.857   1.925
 1064SOL    MW4 4314   1.799   0.905   1.959
 1065SOL     OW 4315   1.769   1.161   1.902
 1065SOL    HW2 4316   1.700   1.211   1.945
 1065SOL    HW3 4317   1.771   1.195   1.812
 1065SOL    MW4 4318   1.760   1.172   1.896
 1066SOL     OW 4319   2.008   1.297   1.957
 1066SOL    HW2 4320   2.082   1.242   1.930
 1066SOL    HW3 4321   1.931   1.246   1.932
 1066SOL    MW4 4322   2.007   1.283   1.950
 1067SOL     OW 4323   2.013   1.575   1.885
 1067SOL    HW2 4324   2.013   1.481   1.900
 1067SOL    HW3 4325   2.006   1.585   1.790
 1067SOL    MW4 4326   2.012   1.564   1.875
 1068SOL     OW 4327   1.774   1.697   1.969
 1068SOL    HW2 4328   1.783   1.778   1.920
 1068SOL    HW3 4329   1.853   1.648   1.948
 1068SOL    MW4 4330   1.786   1.701   1.960
 1069SOL     OW 4331   1.803   1.963   1.854
 1069SOL    HW2 4332   1.728   2.008   1.893
 1069SOL    HW3 4333   1.797   1.981   1.761
 1069SOL    MW4 4334   1.792   1.971   1.847
 1070SOL     OW 4335   2.034   2.052   1.954
 1070SOL    HW2 4336   2.104   2.019   1.898
 1070SOL    HW3 4337   1.955   2.010   1.921
 1070SOL    MW4 4338   2.033   2.042   1.942
 1071SOL     OW 4339   2.017   2.328   1.893
 1071SOL    HW2 4340   2.105   2.364   1.903
 1071SOL    HW3 4341   2.024   2.237   1.921
 1071SOL    MW4 4342   2.029   2.321   1.898
 1072SOL     OW 4343   1.763   2.446   1.929
 1072SOL    HW2 4344   1.747   2.443   2.024
 1072SOL    HW3 4345   1.852   2.414   1.918
 1072SOL    MW4 4346   1.772   2.442   1.940
 1073SOL     OW 4347   1.835   2.712   1.895
 1073SOL    HW2 4348   1.828   2.619   1.916
 1073SOL    HW3 4349   1.821   2.717   1.801
 1073SOL    MW4 4350   1.832   2.700   1.886
 1074SOL     OW 4351   2.081   2.852   1.972
 1074SOL    HW2 4352   2.094   2.843   2.066
 1074SOL    HW3 4353   2.013   2.788   1.950
 1074SOL    MW4 4354   2.074   2.843   1.981
 1075SOL     OW 4355   2.013   3.089   1.871
 1075SOL    HW2 4356   1.928   3.115   1.907
 1075SOL    HW3 4357   2.033   3.006   1.916
 1075SOL    MW4 4358   2.004   3.081   1.882
 1076SOL     OW 4359   1.779   3.212   1.969
 1076SOL    HW2 4360   1.783   3.197   2.063
 1076SOL    HW3 4361   1.706   3.158   1.939
 1076SOL    MW4 4362   1.770   3.203   1.978
 1077SOL     OW 4363   1.784   3.468   1.870
 1077SOL    HW2 4364   1.782   3.377   1.900
 1077SOL    HW3 4365   1.700   3.504   1.898
 1077SOL    MW4 4366   1.772   3.461   1.878
 1078SOL     OW 4367   2.000   3.611   1.953
 1078SOL    HW2 4368   1.994   3.700   1.917
 1078SOL    HW3 4369   1.924   3.566   1.918
 1078SOL    MW4 4370   1.989   3.617   1.944
 1079SOL     OW 4371   1.978   3.871   1.871
 1079SOL    HW2 4372   2.061   3.889   1.915
 1079SOL    HW3 4373   1.998   3.879   1.778
 1079SOL    MW4 4374   1.992   3.875   1.865
 1080SOL     OW 4375   1.784   4.008   1.988
 1080SOL    HW2 4376   1.761   4.090   1.944
 1080SOL    HW3 4377   1.861   3.976   1.940
 1080SOL    MW4 4378   1.791   4.014   1.976
 1081SOL     OW 4379   1.766   4.293   1.917
 1081SOL    HW2 4380   1.676   4.311   1.942
 1081SOL    HW3 4381   1.766   4.294   1.821
 1081SOL    MW4 4382   1.754   4.296   1.908
 1082SOL     OW 4383   2.007   4.430   1.979
 1082SOL    HW2 4384   2.073   4.372   1.940
 1082SOL    HW3 4385   1.926   4.380   1.976
 1082SOL    MW4 4386   2.005   4.416   1.974
 1083SOL     OW 4387   2.455   4.661   1.888
 1083SOL    HW2 4388   2.535   4.705   1.916
 1083SOL    HW3 4389   2.456   4.578   1.934
 1083SOL    MW4 4390   2.465   4.656   1.898
 1084SOL     OW 4391   2.229   0.154   1.977
 1084SOL    HW2 4392   2.242   0.147   2.071
 1084SOL    HW3 4393   2.300   0.103   1.938
 1084SOL    MW4 4394   2.240   0.146   1.984
 1085SOL     OW 4395   2.235   0.388   1.829
 1085SOL    HW2 4396   2.265   0.324   1.894
 1085SOL    HW3 4397   2.157   0.427   1.868
 1085SOL    MW4 4398   2.229   0.385   1.843
 1086SOL     OW 4399   2.461   0.526   1.923
 1086SOL    HW2 4400   2.533   0.471   1.891
 1086SOL    HW3 4401   2.382   0.482   1.893
 1086SOL    MW4 4402   2.460   0.512   1.915
 1087SOL     OW 4403   2.483   0.795   1.842
 1087SOL    HW2 4404   2.479   0.704   1.873
 1087SOL    HW3 4405   2.487   0.788   1.747
 1087SOL    MW4 4406   2.483   0.782   1.834
 1088SOL     OW 4407   2.247   0.886   1.938
 1088SOL    HW2 4408   2.259   0.855   2.027
 1088SOL    HW3 4409   2.331   0.869   1.895
 1088SOL    MW4 4410   2.260   0.880   1.944
 1089SOL     OW 4411   2.228   1.155   1.883
 1089SOL    HW2 4412   2.305   1.186   1.929
 1089SOL    HW3 4413   2.228   1.060   1.897
 1089SOL    MW4 4414   2.238   1.147   1.891
 1090SOL     OW 4415   2.473   1.279   1.967
 1090SOL    HW2 4416   2.461   1.293   2.061
 1090SOL    HW3 4417   2.455   1.364   1.927
 1090SOL    MW4 4418   2.469   1.292   1.974
 1091SOL     OW 4419   2.436   1.547   1.886
 1091SOL    HW2 4420   2.369   1.610   1.913
 1091SOL    HW3 4421   2.443   1.560   1.791
 1091SOL    MW4 4422   2.428   1.557   1.877
 1092SOL     OW 4423   2.250   1.711   2.001
 1092SOL    HW2 4424   2.226   1.710   2.094
 1092SOL    HW3 4425   2.176   1.667   1.958
 1092SOL    MW4 4426   2.237   1.705   2.008
 1093SOL     OW 4427   2.251   1.933   1.823
 1093SOL    HW2 4428   2.329   1.974   1.859
 1093SOL    HW3 4429   2.238   1.854   1.875
 1093SOL    MW4 4430   2.259   1.928   1.835
 1094SOL     OW 4431   2.474   2.055   1.920
 1094SOL    HW2 4432   2.563   2.018   1.911
 1094SOL    HW3 4433   2.484   2.147   1.897
 1094SOL    MW4 4434   2.487   2.062   1.916
 1095SOL     OW 4435   2.453   2.332   1.854
 1095SOL    HW2 4436   2.523   2.395   1.872
 1095SOL    HW3 4437   2.373   2.376   1.882
 1095SOL    MW4 4438   2.452   2.346   1.860
 1096SOL     OW 4439   2.239   2.471   1.938
 1096SOL    HW2 4440   2.262   2.475   2.031
 1096SOL    HW3 4441   2.235   2.563   1.911
 1096SOL    MW4 4442   2.242   2.484   1.947
 1097SOL     OW 4443   2.291   2.716   1.848
 1097SOL    HW2 4444   2.214   2.767   1.873
 1097SOL    HW3 4445   2.283   2.705   1.753
 1097SOL    MW4 4446   2.280   2.721   1.839
 1098SOL     OW 4447   2.494   2.863   1.958
 1098SOL    HW2 4448   2.465   2.951   1.933
 1098SOL    HW3 4449   2.424   2.805   1.928
 1098SOL    MW4 4450   2.481   2.867   1.951
 1099SOL     OW 4451   2.434   3.114   1.901
 1099SOL    HW2 4452   2.348   3.144   1.931
 1099SOL    HW3 4453   2.430   3.122   1.806
 1099SOL    MW4 4454   2.422   3.119   1.893
 1100SOL     OW 4455   2.212   3.234   1.977
 1100SOL    HW2 4456   2.179   3.239   2.067
 1100SOL    HW3 4457   2.150   3.178   1.931
 1100SOL    MW4 4458   2.200   3.227   1.983
 1101SOL     OW 4459   2.257   3.507   1.924
 1101SOL    HW2 4460   2.241   3.414   1.942
 1101SOL    HW3 4461   2.175   3.550   1.945
 1101SOL    MW4 4462   2.244   3.500   1.929
 1102SOL     OW 4463   2.494   3.653   1.970
 1102SOL    HW2 4464   2.502   3.656   2.065
 1102SOL    HW3 4465   2.420   3.594   1.955
 1102SOL    MW4 4466   2.485   3.645   1.981
 1103SOL     OW 4467   2.454   3.908   1.856
 1103SOL    HW2 4468   2.380   3.943   1.905
 1103SOL    HW3 4469   2.472   3.823   1.896
 1103SOL    MW4 4470   2.447   3.902   1.868
 1104SOL     OW 4471   2.223   3.981   1.974
 1104SOL    HW2 4472   2.205   3.989   2.068
 1104SOL    HW3 4473   2.207   4.069   1.940
 1104SOL    MW4 4474   2.219   3.994   1.982
 1105SOL     OW 4475   2.200   4.256   1.902
 1105SOL    HW2 4476   2.271   4.312   1.931
 1105SOL    HW3 4477   2.199   4.265   1.807
 1105SOL    MW4 4478   2.209   4.265   1.894
 1106SOL     OW 4479   2.427   4.400   1.977
 1106SOL    HW2 4480   2.449   4.400   2.070
 1106SOL    HW3 4481   2.508   4.373   1.933
 1106SOL    MW4 4482   2.441   4.396   1.983
 1107SOL     OW 4483   2.918   4.666   1.823
 1107SOL    HW2 4484   2.984   4.720   1.865
 1107SOL    HW3 4485   2.938   4.577   1.851
 1107SOL    MW4 4486   2.929   4.661   1.832
 1108SOL     OW 4487   2.697   0.124   1.957
 1108SOL    HW2 4488   2.708   0.130   2.052
 1108SOL    HW3 4489   2.775   0.078   1.927
 1108SOL    MW4 4490   2.708   0.119   1.966
 1109SOL     OW 4491   2.702   0.385   1.885
 1109SOL    HW2 4492   2.784   0.426   1.910
 1109SOL    HW3 4493   2.705   0.297   1.922
 1109SOL    MW4 4494   2.713   0.379   1.893
 1110SOL     OW 4495   2.941   0.503   1.925
 1110SOL    HW2 4496   3.019   0.461   1.888
 1110SOL    HW3 4497   2.940   0.590   1.886
 1110SOL    MW4 4498   2.951   0.509   1.915
 1111SOL     OW 4499   2.911   0.757   1.844
 1111SOL    HW2 4500   2.993   0.795   1.877
 1111SOL    HW3 4501   2.843   0.795   1.900
 1111SOL    MW4 4502   2.913   0.767   1.856
 1112SOL     OW 4503   2.693   0.893   1.987
 1112SOL    HW2 4504   2.695   0.980   1.947
 1112SOL    HW3 4505   2.626   0.845   1.938
 1112SOL    MW4 4506   2.684   0.898   1.975
 1113SOL     OW 4507   2.691   1.155   1.876
 1113SOL    HW2 4508   2.613   1.193   1.915
 1113SOL    HW3 4509   2.674   1.158   1.781
 1113SOL    MW4 4510   2.678   1.161   1.868
 1114SOL     OW 4511   2.938   1.295   1.924
 1114SOL    HW2 4512   2.923   1.390   1.917
 1114SOL    HW3 4513   2.857   1.256   1.891
 1114SOL    MW4 4514   2.925   1.302   1.918
 1115SOL     OW 4515   2.903   1.587   1.907
 1115SOL    HW2 4516   2.991   1.606   1.940
 1115SOL    HW3 4517   2.912   1.593   1.812
 1115SOL    MW4 4518   2.916   1.590   1.899
 1116SOL     OW 4519   2.658   1.685   1.971
 1116SOL    HW2 4520   2.743   1.641   1.963
 1116SOL    HW3 4521   2.595   1.622   1.937
 1116SOL    MW4 4522   2.661   1.671   1.965
 1117SOL     OW 4523   2.703   1.920   1.848
 1117SOL    HW2 4524   2.776   1.954   1.899
 1117SOL    HW3 4525   2.684   1.835   1.887
 1117SOL    MW4 4526   2.710   1.913   1.860
 1118SOL     OW 4527   2.926   2.060   1.958
 1118SOL    HW2 4528   2.919   2.071   2.053
 1118SOL    HW3 4529   3.015   2.028   1.944
 1118SOL    MW4 4530   2.937   2.058   1.968
 1119SOL     OW 4531   2.915   2.332   1.920
 1119SOL    HW2 4532   3.003   2.365   1.938
 1119SOL    HW3 4533   2.922   2.237   1.932
 1119SOL    MW4 4534   2.928   2.323   1.924
 1120SOL     OW 4535   2.680   2.466   1.984
 1120SOL    HW2 4536   2.701   2.551   1.944
 1120SOL    HW3 4537   2.762   2.417   1.979
 1120SOL    MW4 4538   2.694   2.471   1.978
 1121SOL     OW 4539   2.711   2.722   1.878
 1121SOL    HW2 4540   2.639   2.776   1.911
 1121SOL    HW3 4541   2.693   2.711   1.785
 1121SOL    MW4 4542   2.699   2.728   1.870
 1122SOL     OW 4543   2.920   2.877   1.981
 1122SOL    HW2 4544   2.911   2.967   1.951
 1122SOL    HW3 4545   2.846   2.831   1.941
 1122SOL    MW4 4546   2.909   2.883   1.972
 1123SOL     OW 4547   2.930   3.149   1.910
 1123SOL    HW2 4548   3.004   3.182   1.961
 1123SOL    HW3 4549   2.853   3.180   1.958
 1123SOL    MW4 4550   2.929   3.157   1.923
 1124SOL     OW 4551   2.665   3.220   2.003
 1124SOL    HW2 4552   2.668   3.309   1.967
 1124SOL    HW3 4553   2.581   3.186   1.974
 1124SOL    MW4 4554   2.654   3.227   1.994
 1125SOL     OW 4555   2.692   3.480   1.901
 1125SOL    HW2 4556   2.776   3.519   1.924
 1125SOL    HW3 4557   2.627   3.541   1.937
 1125SOL    MW4 4558   2.695   3.493   1.909
 1126SOL     OW 4559   2.921   3.625   1.947
 1126SOL    HW2 4560   2.917   3.642   2.041
 1126SOL    HW3 4561   2.994   3.564   1.937
 1126SOL    MW4 4562   2.930   3.619   1.958
 1127SOL     OW 4563   2.900   3.903   1.864
 1127SOL    HW2 4564   2.900   3.810   1.888
 1127SOL    HW3 4565   2.883   3.903   1.770
 1127SOL    MW4 4566   2.898   3.891   1.855
 1128SOL     OW 4567   2.657   4.067   1.947
 1128SOL    HW2 4568   2.737   4.022   1.919
 1128SOL    HW3 4569   2.586   4.011   1.917
 1128SOL    MW4 4570   2.658   4.054   1.940
 1129SOL     OW 4571   2.666   4.316   1.853
 1129SOL    HW2 4572   2.665   4.233   1.901
 1129SOL    HW3 4573   2.666   4.291   1.761
 1129SOL    MW4 4574   2.666   4.302   1.847
 1130SOL     OW 4575   2.919   4.416   1.945
 1130SOL    HW2 4576   2.921   4.409   2.040
 1130SOL    HW3 4577   2.830   4.392   1.921
 1130SOL    MW4 4578   2.908   4.412   1.954
 1131SOL     OW 4579   3.402   4.636   1.864
 1131SOL    HW2 4580   3.393   4.545   1.895
 1131SOL    HW3 4581   3.383   4.632   1.771
 1131SOL    MW4 4582   3.398   4.623   1.856
 1132SOL     OW 4583   3.165   0.100   1.919
 1132SOL    HW2 4584   3.182   0.104   2.014
 1132SOL    HW3 4585   3.230   0.037   1.886
 1132SOL    MW4 4586   3.176   0.092   1.927
 1133SOL     OW 4587   3.184   0.379   1.821
 1133SOL    HW2 4588   3.193   0.285   1.834
 1133SOL    HW3 4589   3.187   0.391   1.726
 1133SOL    MW4 4590   3.186   0.368   1.810
 1134SOL     OW 4591   3.380   0.498   1.971
 1134SOL    HW2 4592   3.460   0.455   1.940
 1134SOL    HW3 4593   3.311   0.463   1.916
 1134SOL    MW4 4594   3.382   0.488   1.960
 1135SOL     OW 4595   3.385   0.781   1.889
 1135SOL    HW2 4596   3.302   0.828   1.902
 1135SOL    HW3 4597   3.373   0.698   1.936
 1135SOL    MW4 4598   3.372   0.776   1.897
 1136SOL     OW 4599   3.131   0.878   1.965
 1136SOL    HW2 4600   3.149   0.887   2.059
 1136SOL    HW3 4601   3.131   0.968   1.932
 1136SOL    MW4 4602   3.134   0.891   1.973
 1137SOL     OW 4603   3.157   1.133   1.869
 1137SOL    HW2 4604   3.224   1.195   1.900
 1137SOL    HW3 4605   3.074   1.176   1.891
 1137SOL    MW4 4606   3.154   1.147   1.876
 1138SOL     OW 4607   3.380   1.296   1.959
 1138SOL    HW2 4608   3.390   1.302   2.054
 1138SOL    HW3 4609   3.369   1.386   1.930
 1138SOL    MW4 4610   3.380   1.308   1.968
 1139SOL     OW 4611   3.346   1.533   1.835
 1139SOL    HW2 4612   3.430   1.574   1.855
 1139SOL    HW3 4613   3.282   1.581   1.887
 1139SOL    MW4 4614   3.349   1.544   1.845
 1140SOL     OW 4615   3.173   1.661   2.004
 1140SOL    HW2 4616   3.149   1.664   2.097
 1140SOL    HW3 4617   3.162   1.751   1.974
 1140SOL    MW4 4618   3.169   1.673   2.013
 1141SOL     OW 4619   3.166   1.921   1.884
 1141SOL    HW2 4620   3.240   1.965   1.926
 1141SOL    HW3 4621   3.179   1.936   1.790
 1141SOL    MW4 4622   3.177   1.929   1.877
 1142SOL     OW 4623   3.393   2.084   1.986
 1142SOL    HW2 4624   3.457   2.036   1.933
 1142SOL    HW3 4625   3.398   2.174   1.954
 1142SOL    MW4 4626   3.402   2.089   1.975
 1143SOL     OW 4627   3.422   2.346   1.906
 1143SOL    HW2 4628   3.338   2.388   1.924
 1143SOL    HW3 4629   3.427   2.341   1.811
 1143SOL    MW4 4630   3.412   2.351   1.896
 1144SOL     OW 4631   3.179   2.467   1.958
 1144SOL    HW2 4632   3.166   2.463   2.052
 1144SOL    HW3 4633   3.150   2.554   1.932
 1144SOL    MW4 4634   3.174   2.478   1.967
 1145SOL     OW 4635   3.136   2.727   1.891
 1145SOL    HW2 4636   3.055   2.773   1.913
 1145SOL    HW3 4637   3.141   2.735   1.795
 1145SOL    MW4 4638   3.126   2.734   1.881
 1146SOL     OW 4639   3.380   2.862   1.993
 1146SOL    HW2 4640   3.372   2.882   2.086
 1146SOL    HW3 4641   3.297   2.820   1.970
 1146SOL    MW4 4642   3.368   2.859   2.002
 1147SOL     OW 4643   3.353   3.098   1.868
 1147SOL    HW2 4644   3.419   3.149   1.915
 1147SOL    HW3 4645   3.359   3.011   1.906
 1147SOL    MW4 4646   3.363   3.093   1.879
 1148SOL     OW 4647   3.147   3.244   2.018
 1148SOL    HW2 4648   3.149   3.325   1.968
 1148SOL    HW3 4649   3.209   3.186   1.973
 1148SOL    MW4 4650   3.156   3.247   2.006
 1149SOL     OW 4651   3.146   3.480   1.878
 1149SOL    HW2 4652   3.226   3.521   1.911
 1149SOL    HW3 4653   3.147   3.499   1.784
 1149SOL    MW4 4654   3.157   3.488   1.870
 1150SOL     OW 4655   3.351   3.642   1.980
 1150SOL    HW2 4656   3.438   3.610   1.958
 1150SOL    HW3 4657   3.351   3.733   1.950
 1150SOL    MW4 4658   3.362   3.650   1.973
 1151SOL     OW 4659   3.344   3.910   1.873
 1151SOL    HW2 4660   3.266   3.960   1.897
 1151SOL    HW3 4661   3.341   3.906   1.777
 1151SOL    MW4 4662   3.333   3.916   1.863
 1152SOL     OW 4663   3.123   4.036   1.957
 1152SOL    HW2 4664   3.156   4.011   2.043
 1152SOL    HW3 4665   3.041   3.987   1.947
 1152SOL    MW4 4666   3.117   4.026   1.967
 1153SOL     OW 4667   3.143   4.281   1.840
 1153SOL    HW2 4668   3.139   4.193   1.876
 1153SOL    HW3 4669   3.064   4.324   1.873
 1153SOL    MW4 4670   3.132   4.275   1.849
 1154SOL     OW 4671   3.364   4.372   1.988
 1154SOL    HW2 4672   3.444   4.329   1.958
 1154SOL    HW3 4673   3.294   4.330   1.938
 1154SOL    MW4 4674   3.365   4.361   1.977
 1155SOL     OW 4675   3.820   4.653   1.871
 1155SOL    HW2 4676   3.827   4.562   1.901
 1155SOL    HW3 4677   3.742   4.687   1.914
 1155SOL    MW4 4678   3.810   4.645   1.880
 1156SOL     OW 4679   3.603   0.093   1.986
 1156SOL    HW2 4680   3.586   0.103   2.080
 1156SOL    HW3 4681   3.524   0.051   1.952
 1156SOL    MW4 4682   3.590   0.089   1.994
 1157SOL     OW 4683   3.595   0.354   1.877
 1157SOL    HW2 4684   3.606   0.265   1.909
 1157SOL    HW3 4685   3.578   0.344   1.783
 1157SOL    MW4 4686   3.594   0.341   1.869
 1158SOL     OW 4687   3.790   0.508   2.005
 1158SOL    HW2 4688   3.789   0.593   1.960
 1158SOL    HW3 4689   3.724   0.456   1.960
 1158SOL    MW4 4690   3.781   0.512   1.993
 1159SOL     OW 4691   3.813   0.744   1.860
 1159SOL    HW2 4692   3.740   0.801   1.884
 1159SOL    HW3 4693   3.812   0.743   1.764
 1159SOL    MW4 4694   3.804   0.751   1.850
 1160SOL     OW 4695   3.609   0.900   1.962
 1160SOL    HW2 4696   3.601   0.992   1.935
 1160SOL    HW3 4697   3.532   0.858   1.925
 1160SOL    MW4 4698   3.597   0.907   1.954
 1161SOL     OW 4699   3.592   1.186   1.847
 1161SOL    HW2 4700   3.508   1.225   1.872
 1161SOL    HW3 4701   3.591   1.186   1.751
 1161SOL    MW4 4702   3.581   1.191   1.837
 1162SOL     OW 4703   3.823   1.278   1.982
 1162SOL    HW2 4704   3.818   1.281   2.077
 1162SOL    HW3 4705   3.736   1.250   1.954
 1162SOL    MW4 4706   3.811   1.275   1.991
 1163SOL     OW 4707   3.815   1.547   1.894
 1163SOL    HW2 4708   3.878   1.604   1.938
 1163SOL    HW3 4709   3.824   1.463   1.940
 1163SOL    MW4 4710   3.824   1.543   1.906
 1164SOL     OW 4711   3.580   1.658   1.961
 1164SOL    HW2 4712   3.599   1.751   1.943
 1164SOL    HW3 4713   3.658   1.612   1.932
 1164SOL    MW4 4714   3.593   1.664   1.955
 1165SOL     OW 4715   3.581   1.921   1.862
 1165SOL    HW2 4716   3.654   1.975   1.892
 1165SOL    HW3 4717   3.592   1.918   1.766
 1165SOL    MW4 4718   3.592   1.928   1.853
 1166SOL     OW 4719   3.790   2.073   1.950
 1166SOL    HW2 4720   3.879   2.040   1.937
 1166SOL    HW3 4721   3.791   2.160   1.909
 1166SOL    MW4 4722   3.802   2.080   1.943
 1167SOL     OW 4723   3.829   2.341   1.880
 1167SOL    HW2 4724   3.914   2.371   1.911
 1167SOL    HW3 4725   3.769   2.413   1.900
 1167SOL    MW4 4726   3.833   2.355   1.886
 1168SOL     OW 4727   3.642   2.506   2.001
 1168SOL    HW2 4728   3.614   2.586   1.957
 1168SOL    HW3 4729   3.576   2.441   1.976
 1168SOL    MW4 4730   3.630   2.508   1.992
 1169SOL     OW 4731   3.618   2.749   1.887
 1169SOL    HW2 4732   3.682   2.798   1.939
 1169SOL    HW3 4733   3.535   2.793   1.904
 1169SOL    MW4 4734   3.616   2.761   1.896
 1170SOL     OW 4735   3.815   2.896   2.016
 1170SOL    HW2 4736   3.836   2.919   2.107
 1170SOL    HW3 4737   3.823   2.979   1.969
 1170SOL    MW4 4738   3.819   2.910   2.022
 1171SOL     OW 4739   3.818   3.147   1.887
 1171SOL    HW2 4740   3.734   3.181   1.917
 1171SOL    HW3 4741   3.808   3.140   1.792
 1171SOL    MW4 4742   3.806   3.151   1.878
 1172SOL     OW 4743   3.547   3.236   1.993
 1172SOL    HW2 4744   3.568   3.248   2.085
 1172SOL    HW3 4745   3.561   3.322   1.954
 1172SOL    MW4 4746   3.552   3.249   2.000
 1173SOL     OW 4747   3.578   3.496   1.899
 1173SOL    HW2 4748   3.670   3.498   1.926
 1173SOL    HW3 4749   3.581   3.490   1.804
 1173SOL    MW4 4750   3.591   3.496   1.890
 1174SOL     OW 4751   3.835   3.561   1.979
 1174SOL    HW2 4752   3.916   3.530   1.940
 1174SOL    HW3 4753   3.832   3.654   1.958
 1174SOL    MW4 4754   3.845   3.569   1.971
 1175SOL     OW 4755   3.814   3.830   1.925
 1175SOL    HW2 4756   3.731   3.873   1.946
 1175SOL    HW3 4757   3.816   3.829   1.829
 1175SOL    MW4 4758   3.803   3.836   1.915
 1176SOL     OW 4759   3.571   4.014   1.973
 1176SOL    HW2 4760   3.564   4.016   2.069
 1176SOL    HW3 4761   3.488   3.978   1.944
 1176SOL    MW4 4762   3.559   4.009   1.982
 1177SOL     OW 4763   3.592   4.270   1.863
 1177SOL    HW2 4764   3.668   4.313   1.902
 1177SOL    HW3 4765   3.588   4.185   1.906
 1177SOL    MW4 4766   3.602   4.265   1.874
 1178SOL     OW 4767   3.809   4.401   1.987
 1178SOL    HW2 4768   3.817   4.378   2.080
 1178SOL    HW3 4769   3.873   4.345   1.943
 1178SOL    MW4 4770   3.819   4.390   1.994
 1179SOL     OW 4771   4.266   4.638   1.878
 1179SOL    HW2 4772   4.194   4.682   1.923
 1179SOL    HW3 4773   4.345   4.682   1.911
 1179SOL    MW4 4774   4.267   4.650   1.888
 1180SOL     OW 4775   4.045   0.082   2.002
 1180SOL    HW2 4776   4.039   0.088   2.097
 1180SOL    HW3 4777   3.961   0.043   1.976
 1180SOL    MW4 4778   4.033   0.078   2.011
 1181SOL     OW 4779   4.035   0.365   1.907
 1181SOL    HW2 4780   4.033   0.270   1.911
 1181SOL    HW3 4781   3.950   0.393   1.941
 1181SOL    MW4 4782   4.023   0.356   1.912
 1182SOL     OW 4783   4.231   0.521   2.005
 1182SOL    HW2 4784   4.231   0.530   2.100
 1182SOL    HW3 4785   4.154   0.468   1.986
 1182SOL    MW4 4786   4.221   0.515   2.015
 1183SOL     OW 4787   4.247   0.780   1.908
 1183SOL    HW2 4788   4.227   0.695   1.949
 1183SOL    HW3 4789   4.238   0.763   1.814
 1183SOL    MW4 4790   4.243   0.766   1.901
 1184SOL     OW 4791   4.017   0.868   2.028
 1184SOL    HW2 4792   4.102   0.840   1.994
 1184SOL    HW3 4793   3.953   0.816   1.979
 1184SOL    MW4 4794   4.019   0.858   2.017
 1185SOL     OW 4795   4.038   1.121   1.885
 1185SOL    HW2 4796   4.046   1.031   1.918
 1185SOL    HW3 4797   3.963   1.158   1.932
 1185SOL    MW4 4798   4.029   1.114   1.896
 1186SOL     OW 4799   4.249   1.271   1.991
 1186SOL    HW2 4800   4.232   1.281   2.085
 1186SOL    HW3 4801   4.182   1.209   1.961
 1186SOL    MW4 4802   4.238   1.264   2.000
 1187SOL     OW 4803   4.269   1.538   1.944
 1187SOL    HW2 4804   4.251   1.445   1.959
 1187SOL    HW3 4805   4.280   1.545   1.849
 1187SOL    MW4 4806   4.268   1.526   1.933
 1188SOL     OW 4807   4.017   1.683   2.012
 1188SOL    HW2 4808   4.015   1.670   2.107
 1188SOL    HW3 4809   4.090   1.629   1.982
 1188SOL    MW4 4810   4.026   1.674   2.021
 1189SOL     OW 4811   4.037   1.927   1.889
 1189SOL    HW2 4812   4.045   1.837   1.919
 1189SOL    HW3 4813   4.067   1.924   1.798
 1189SOL    MW4 4814   4.042   1.915   1.881
 1190SOL     OW 4815   4.252   2.064   1.996
 1190SOL    HW2 4816   4.263   2.054   2.091
 1190SOL    HW3 4817   4.170   2.019   1.977
 1190SOL    MW4 4818   4.243   2.057   2.006
 1191SOL     OW 4819   4.238   2.330   1.902
 1191SOL    HW2 4820   4.234   2.243   1.942
 1191SOL    HW3 4821   4.321   2.366   1.933
 1191SOL    MW4 4822   4.248   2.323   1.912
 1192SOL     OW 4823   4.039   2.501   1.997
 1192SOL    HW2 4824   4.049   2.490   2.091
 1192SOL    HW3 4825   4.103   2.441   1.958
 1192SOL    MW4 4826   4.048   2.491   2.004
 1193SOL     OW 4827   4.004   2.755   1.889
 1193SOL    HW2 4828   4.021   2.670   1.930
 1193SOL    HW3 4829   3.934   2.794   1.942
 1193SOL    MW4 4830   3.997   2.749   1.902
 1194SOL     OW 4831   4.251   2.863   1.974
 1194SOL    HW2 4832   4.270   2.846   2.067
 1194SOL    HW3 4833   4.167   2.821   1.958
 1194SOL    MW4 4834   4.243   2.855   1.984
 1195SOL     OW 4835   4.313   3.122   1.858
 1195SOL    HW2 4836   4.237   3.157   1.905
 1195SOL    HW3 4837   4.307   3.027   1.870
 1195SOL    MW4 4838   4.302   3.114   1.866
 1196SOL     OW 4839   4.080   3.201   1.989
 1196SOL    HW2 4840   4.081   3.202   2.085
 1196SOL    HW3 4841   3.998   3.158   1.966
 1196SOL    MW4 4842   4.070   3.195   1.999
 1197SOL     OW 4843   4.056   3.457   1.879
 1197SOL    HW2 4844   4.133   3.494   1.923
 1197SOL    HW3 4845   4.059   3.364   1.901
 1197SOL    MW4 4846   4.067   3.449   1.888
 1198SOL     OW 4847   4.279   3.616   1.978
 1198SOL    HW2 4848   4.257   3.701   1.941
 1198SOL    HW3 4849   4.366   3.596   1.943
 1198SOL    MW4 4850   4.287   3.624   1.968
 1199SOL     OW 4851   4.283   3.880   1.901
 1199SOL    HW2 4852   4.369   3.917   1.917
 1199SOL    HW3 4853   4.275   3.876   1.806
 1199SOL    MW4 4854   4.293   3.884   1.891
 1200SOL     OW 4855   4.032   3.977   1.959
 1200SOL    HW2 4856   4.108   3.920   1.949
 1200SOL    HW3 4857   3.957   3.917   1.959
 1200SOL    MW4 4858   4.032   3.962   1.958
 1201SOL     OW 4859   4.009   4.255   1.872
 1201SOL    HW2 4860   4.087   4.306   1.891
 1201SOL    HW3 4861   4.025   4.169   1.912
 1201SOL    MW4 4862   4.021   4.250   1.880
 1202SOL     OW 4863   4.252   4.365   1.956
 1202SOL    HW2 4864   4.259   4.383   2.050
 1202SOL    HW3 4865   4.257   4.451   1.915
 1202SOL    MW4 4866   4.254   4.379   1.963
 1203SOL     OW 4867   0.198   0.017   2.376
 1203SOL    HW2 4868   0.206   0.034   2.469
 1203SOL    HW3 4869   0.284   0.037   2.340
 1203SOL    MW4 4870   0.210   0.022   2.383
 1204SOL     OW 4871   4.469   0.158   2.284
 1204SOL    HW2 4872   4.558   0.128   2.300
 1204SOL    HW3 4873   4.458   0.149   2.189
 1204SOL    MW4 4874   4.479   0.153   2.273
 1205SOL     OW 4875   4.465   0.424   2.349
 1205SOL    HW2 4876   4.552   0.449   2.319
 1205SOL    HW3 4877   4.458   0.331   2.329
 1205SOL    MW4 4878   4.476   0.415   2.343
 1206SOL     OW 4879   0.230   0.488   2.252
 1206SOL    HW2 4880   0.313   0.455   2.287
 1206SOL    HW3 4881   0.241   0.485   2.157
 1206SOL    MW4 4882   0.242   0.483   2.244
 1207SOL     OW 4883   0.238   0.756   2.358
 1207SOL    HW2 4884   0.217   0.747   2.451
 1207SOL    HW3 4885   0.227   0.668   2.322
 1207SOL    MW4 4886   0.234   0.743   2.365
 1208SOL     OW 4887   0.016   0.921   2.311
 1208SOL    HW2 4888   0.088   0.861   2.332
 1208SOL    HW3 4889  -0.003   0.904   2.219
 1208SOL    MW4 4890   0.023   0.911   2.302
 1209SOL     OW 4891   0.004   1.220   2.372
 1209SOL    HW2 4892  -0.011   1.224   2.466
 1209SOL    HW3 4893   0.007   1.127   2.351
 1209SOL    MW4 4894   0.002   1.208   2.381
 1210SOL     OW 4895   0.256   1.257   2.246
 1210SOL    HW2 4896   0.180   1.229   2.296
 1210SOL    HW3 4897   0.230   1.248   2.155
 1210SOL    MW4 4898   0.243   1.252   2.241
 1211SOL     OW 4899   0.239   1.514   2.341
 1211SOL    HW2 4900   0.241   1.514   2.437
 1211SOL    HW3 4901   0.250   1.422   2.317
 1211SOL    MW4 4902   0.241   1.502   2.350
 1212SOL     OW 4903   0.013   1.663   2.270
 1212SOL    HW2 4904   0.001   1.737   2.330
 1212SOL    HW3 4905   0.098   1.626   2.295
 1212SOL    MW4 4906   0.023   1.668   2.281
 1213SOL     OW 4907   4.468   1.918   2.385
 1213SOL    HW2 4908   4.399   1.961   2.335
 1213SOL    HW3 4909   4.549   1.962   2.357
 1213SOL    MW4 4910   4.470   1.930   2.374
 1214SOL     OW 4911   0.207   2.034   2.252
 1214SOL    HW2 4912   0.296   2.000   2.263
 1214SOL    HW3 4913   0.200   2.054   2.159
 1214SOL    MW4 4914   0.218   2.032   2.241
 1215SOL     OW 4915   0.235   2.288   2.377
 1215SOL    HW2 4916   0.216   2.277   2.470
 1215SOL    HW3 4917   0.219   2.202   2.339
 1215SOL    MW4 4918   0.230   2.276   2.384
 1216SOL     OW 4919   4.475   2.391   2.318
 1216SOL    HW2 4920   4.472   2.485   2.339
 1216SOL    HW3 4921   4.567   2.367   2.325
 1216SOL    MW4 4922   4.487   2.400   2.322
 1217SOL     OW 4923   0.037   2.668   2.322
 1217SOL    HW2 4924   0.040   2.667   2.418
 1217SOL    HW3 4925   0.094   2.742   2.297
 1217SOL    MW4 4926   0.045   2.678   2.331
 1218SOL     OW 4927   0.218   2.873   2.254
 1218SOL    HW2 4928   0.294   2.819   2.276
 1218SOL    HW3 4929   0.207   2.861   2.160
 1218SOL    MW4 4930   0.227   2.865   2.245
 1219SOL     OW 4931   0.216   3.135   2.353
 1219SOL    HW2 4932   0.137   3.182   2.325
 1219SOL    HW3 4933   0.200   3.044   2.329
 1219SOL    MW4 4934   0.203   3.129   2.346
 1220SOL     OW 4935   4.474   3.238   2.296
 1220SOL    HW2 4936   4.466   3.321   2.342
 1220SOL    HW3 4937   4.480   3.262   2.203
 1220SOL    MW4 4938   4.473   3.252   2.290
 1221SOL     OW 4939   4.485   3.496   2.401
 1221SOL    HW2 4940   4.456   3.495   2.493
 1221SOL    HW3 4941   4.422   3.554   2.357
 1221SOL    MW4 4942   4.473   3.503   2.408
 1222SOL     OW 4943   0.228   3.564   2.267
 1222SOL    HW2 4944   0.312   3.527   2.295
 1222SOL    HW3 4945   0.164   3.525   2.327
 1222SOL    MW4 4946   0.231   3.554   2.279
 1223SOL     OW 4947   0.221   3.854   2.383
 1223SOL    HW2 4948   0.143   3.897   2.349
 1223SOL    HW3 4949   0.223   3.769   2.338
 1223SOL    MW4 4950   0.211   3.848   2.373
 1224SOL     OW 4951   4.479   3.983   2.249
 1224SOL    HW2 4952   4.491   4.072   2.281
 1224SOL    HW3 4953   4.490   3.990   2.154
 1224SOL    MW4 4954   4.482   3.996   2.240
 1225SOL     OW 4955   4.467   4.248   2.330
 1225SOL    HW2 4956   4.460   4.241   2.425
 1225SOL    HW3 4957   4.538   4.311   2.315
 1225SOL    MW4 4958   4.475   4.255   2.340
 1226SOL     OW 4959   0.198   4.377   2.277
 1226SOL    HW2 4960   0.279   4.346   2.318
 1226SOL    HW3 4961   0.187   4.466   2.310
 1226SOL    MW4 4962   0.208   4.385   2.287
 1227SOL     OW 4963   0.699   4.649   2.377
 1227SOL    HW2 4964   0.681   4.638   2.470
 1227SOL    HW3 4965   0.775   4.707   2.374
 1227SOL    MW4 4966   0.706   4.655   2.389
 1228SOL     OW 4967   0.454   0.110   2.283
 1228SOL    HW2 4968   0.537   0.068   2.305
 1228SOL    HW3 4969   0.454   0.114   2.187
 1228SOL    MW4 4970   0.465   0.105   2.273
 1229SOL     OW 4971   0.462   0.370   2.357
 1229SOL    HW2 4972   0.469   0.370   2.452
 1229SOL    HW3 4973   0.440   0.280   2.334
 1229SOL    MW4 4974   0.460   0.358   2.366
 1230SOL     OW 4975   0.687   0.478   2.251
 1230SOL    HW2 4976   0.681   0.569   2.280
 1230SOL    HW3 4977   0.610   0.435   2.288
 1230SOL    MW4 4978   0.676   0.485   2.260
 1231SOL     OW 4979   0.686   0.729   2.349
 1231SOL    HW2 4980   0.691   0.724   2.444
 1231SOL    HW3 4981   0.610   0.785   2.332
 1231SOL    MW4 4982   0.677   0.736   2.359
 1232SOL     OW 4983   0.474   0.889   2.289
 1232SOL    HW2 4984   0.388   0.861   2.321
 1232SOL    HW3 4985   0.472   0.869   2.196
 1232SOL    MW4 4986   0.462   0.883   2.281
 1233SOL     OW 4987   0.484   1.159   2.385
 1233SOL    HW2 4988   0.485   1.069   2.352
 1233SOL    HW3 4989   0.425   1.205   2.325
 1233SOL    MW4 4990   0.476   1.153   2.373
 1234SOL     OW 4991   0.715   1.264   2.284
 1234SOL    HW2 4992   0.708   1.357   2.304
 1234SOL    HW3 4993   0.641   1.224   2.330
 1234SOL    MW4 4994   0.704   1.271   2.293
 1235SOL     OW 4995   0.656   1.542   2.355
 1235SOL    HW2 4996   0.672   1.538   2.449
 1235SOL    HW3 4997   0.739   1.575   2.318
 1235SOL    MW4 4998   0.669   1.546   2.362
 1236SOL     OW 4999   0.440   1.678   2.241
 1236SOL    HW2 5000   0.521   1.651   2.284
 1236SOL    HW3 5001   0.374   1.618   2.273
 1236SOL    MW4 5002   0.442   1.667   2.251
 1237SOL     OW 5003   0.445   1.931   2.336
 1237SOL    HW2 5004   0.525   1.972   2.301
 1237SOL    HW3 5005   0.440   1.846   2.293
 1237SOL    MW4 5006   0.455   1.925   2.326
 1238SOL     OW 5007   0.664   2.044   2.226
 1238SOL    HW2 5008   0.746   2.005   2.257
 1238SOL    HW3 5009   0.664   2.132   2.263
 1238SOL    MW4 5010   0.675   2.051   2.235
 1239SOL     OW 5011   0.698   2.301   2.344
 1239SOL    HW2 5012   0.691   2.318   2.437
 1239SOL    HW3 5013   0.763   2.364   2.312
 1239SOL    MW4 5014   0.706   2.311   2.352
 1240SOL     OW 5015   0.453   2.421   2.265
 1240SOL    HW2 5016   0.529   2.370   2.295
 1240SOL    HW3 5017   0.378   2.378   2.306
 1240SOL    MW4 5018   0.454   2.409   2.275
 1241SOL     OW 5019   0.400   2.679   2.349
 1241SOL    HW2 5020   0.428   2.678   2.440
 1241SOL    HW3 5021   0.401   2.587   2.322
 1241SOL    MW4 5022   0.404   2.667   2.357
 1242SOL     OW 5023   0.660   2.834   2.279
 1242SOL    HW2 5024   0.738   2.787   2.308
 1242SOL    HW3 5025   0.587   2.777   2.302
 1242SOL    MW4 5026   0.660   2.820   2.286
 1243SOL     OW 5027   0.702   3.103   2.392
 1243SOL    HW2 5028   0.617   3.138   2.364
 1243SOL    HW3 5029   0.706   3.016   2.354
 1243SOL    MW4 5030   0.691   3.096   2.384
 1244SOL     OW 5031   0.471   3.205   2.281
 1244SOL    HW2 5032   0.379   3.178   2.290
 1244SOL    HW3 5033   0.484   3.214   2.187
 1244SOL    MW4 5034   0.460   3.203   2.270
 1245SOL     OW 5035   0.458   3.456   2.408
 1245SOL    HW2 5036   0.531   3.503   2.368
 1245SOL    HW3 5037   0.459   3.370   2.366
 1245SOL    MW4 5038   0.468   3.451   2.397
 1246SOL     OW 5039   0.646   3.636   2.283
 1246SOL    HW2 5040   0.666   3.727   2.306
 1246SOL    HW3 5041   0.629   3.638   2.189
 1246SOL    MW4 5042   0.646   3.648   2.274
 1247SOL     OW 5043   0.684   3.916   2.348
 1247SOL    HW2 5044   0.675   3.904   2.443
 1247SOL    HW3 5045   0.596   3.940   2.319
 1247SOL    MW4 5046   0.671   3.918   2.357
 1248SOL     OW 5047   0.435   4.026   2.287
 1248SOL    HW2 5048   0.365   3.971   2.321
 1248SOL    HW3 5049   0.428   4.021   2.192
 1248SOL    MW4 5050   0.425   4.018   2.279
 1249SOL     OW 5051   0.445   4.309   2.354
 1249SOL    HW2 5052   0.525   4.351   2.322
 1249SOL    HW3 5053   0.454   4.217   2.329
 1249SOL    MW4 5054   0.457   4.303   2.347
 1250SOL     OW 5055   0.686   4.390   2.251
 1250SOL    HW2 5056   0.697   4.478   2.287
 1250SOL    HW3 5057   0.699   4.401   2.157
 1250SOL    MW4 5058   0.689   4.403   2.243
 1251SOL     OW 5059   1.130   4.640   2.363
 1251SOL    HW2 5060   1.121   4.612   2.455
 1251SOL    HW3 5061   1.051   4.690   2.345
 1251SOL    MW4 5062   1.118   4.643   2.373
 1252SOL     OW 5063   0.909   0.150   2.323
 1252SOL    HW2 5064   0.925   0.238   2.357
 1252SOL    HW3 5065   0.881   0.164   2.232
 1252SOL    MW4 5066   0.907   0.164   2.316
 1253SOL     OW 5067   0.925   0.415   2.398
 1253SOL    HW2 5068   0.998   0.461   2.358
 1253SOL    HW3 5069   0.847   0.452   2.356
 1253SOL    MW4 5070   0.924   0.426   2.387
 1254SOL     OW 5071   1.164   0.523   2.268
 1254SOL    HW2 5072   1.227   0.456   2.294
 1254SOL    HW3 5073   1.161   0.519   2.173
 1254SOL    MW4 5074   1.172   0.514   2.259
 1255SOL     OW 5075   1.128   0.797   2.362
 1255SOL    HW2 5076   1.042   0.824   2.329
 1255SOL    HW3 5077   1.139   0.708   2.329
 1255SOL    MW4 5078   1.118   0.789   2.354
 1256SOL     OW 5079   0.889   0.925   2.294
 1256SOL    HW2 5080   0.913   1.002   2.345
 1256SOL    HW3 5081   0.819   0.883   2.344
 1256SOL    MW4 5082   0.883   0.929   2.307
 1257SOL     OW 5083   0.969   1.168   2.421
 1257SOL    HW2 5084   1.044   1.196   2.370
 1257SOL    HW3 5085   0.897   1.223   2.390
 1257SOL    MW4 5086   0.969   1.179   2.410
 1258SOL     OW 5087   1.151   1.289   2.245
 1258SOL    HW2 5088   1.226   1.230   2.249
 1258SOL    HW3 5089   1.119   1.281   2.155
 1258SOL    MW4 5090   1.157   1.280   2.234
 1259SOL     OW 5091   1.141   1.541   2.371
 1259SOL    HW2 5092   1.062   1.590   2.348
 1259SOL    HW3 5093   1.137   1.462   2.318
 1259SOL    MW4 5094   1.130   1.537   2.361
 1260SOL     OW 5095   0.901   1.670   2.275
 1260SOL    HW2 5096   0.891   1.764   2.288
 1260SOL    HW3 5097   0.908   1.660   2.180
 1260SOL    MW4 5098   0.901   1.681   2.264
 1261SOL     OW 5099   0.899   1.932   2.316
 1261SOL    HW2 5100   0.903   1.931   2.412
 1261SOL    HW3 5101   0.970   1.991   2.290
 1261SOL    MW4 5102   0.909   1.940   2.325
 1262SOL     OW 5103   1.124   2.103   2.241
 1262SOL    HW2 5104   1.194   2.053   2.281
 1262SOL    HW3 5105   1.125   2.077   2.149
 1262SOL    MW4 5106   1.133   2.093   2.234
 1263SOL     OW 5107   1.112   2.347   2.356
 1263SOL    HW2 5108   1.191   2.393   2.328
 1263SOL    HW3 5109   1.118   2.262   2.313
 1263SOL    MW4 5110   1.123   2.342   2.347
 1264SOL     OW 5111   0.899   2.489   2.247
 1264SOL    HW2 5112   0.967   2.432   2.284
 1264SOL    HW3 5113   0.897   2.467   2.154
 1264SOL    MW4 5114   0.908   2.478   2.240
 1265SOL     OW 5115   0.896   2.729   2.369
 1265SOL    HW2 5116   0.894   2.717   2.464
 1265SOL    HW3 5117   0.904   2.641   2.334
 1265SOL    MW4 5118   0.896   2.716   2.377
 1266SOL     OW 5119   1.128   2.856   2.283
 1266SOL    HW2 5120   1.205   2.804   2.305
 1266SOL    HW3 5121   1.055   2.807   2.322
 1266SOL    MW4 5122   1.128   2.842   2.291
 1267SOL     OW 5123   1.127   3.125   2.373
 1267SOL    HW2 5124   1.069   3.185   2.325
 1267SOL    HW3 5125   1.102   3.038   2.342
 1267SOL    MW4 5126   1.116   3.121   2.362
 1268SOL     OW 5127   0.900   3.252   2.239
 1268SOL    HW2 5128   0.898   3.336   2.286
 1268SOL    HW3 5129   0.850   3.192   2.296
 1268SOL    MW4 5130   0.893   3.255   2.253
 1269SOL     OW 5131   0.884   3.507   2.361
 1269SOL    HW2 5132   0.879   3.478   2.452
 1269SOL    HW3 5133   0.802   3.555   2.347
 1269SOL    MW4 5134   0.872   3.509   2.371
 1270SOL     OW 5135   1.090   3.617   2.203
 1270SOL    HW2 5136   1.175   3.601   2.245
 1270SOL    HW3 5137   1.026   3.576   2.261
 1270SOL    MW4 5138   1.093   3.609   2.216
 1271SOL     OW 5139   1.075   3.852   2.332
 1271SOL    HW2 5140   1.157   3.895   2.305
 1271SOL    HW3 5141   1.068   3.775   2.275
 1271SOL    MW4 5142   1.085   3.847   2.321
 1272SOL     OW 5143   0.902   4.034   2.246
 1272SOL    HW2 5144   0.960   3.963   2.272
 1272SOL    HW3 5145   0.816   4.008   2.279
 1272SOL    MW4 5146   0.898   4.021   2.254
 1273SOL     OW 5147   0.907   4.272   2.383
 1273SOL    HW2 5148   0.905   4.185   2.344
 1273SOL    HW3 5149   0.834   4.318   2.342
 1273SOL    MW4 5150   0.897   4.267   2.372
 1274SOL     OW 5151   1.123   4.387   2.252
 1274SOL    HW2 5152   1.052   4.337   2.291
 1274SOL    HW3 5153   1.111   4.476   2.285
 1274SOL    MW4 5154   1.112   4.392   2.261
 1275SOL     OW 5155   1.548   4.637   2.371
 1275SOL    HW2 5156   1.622   4.674   2.322
 1275SOL    HW3 5157   1.471   4.664   2.321
 1275SOL    MW4 5158   1.548   4.645   2.358
 1276SOL     OW 5159   1.341   0.101   2.231
 1276SOL    HW2 5160   1.347   0.184   2.277
 1276SOL    HW3 5161   1.270   0.054   2.275
 1276SOL    MW4 5162   1.332   0.106   2.243
 1277SOL     OW 5163   1.340   0.355   2.365
 1277SOL    HW2 5164   1.352   0.350   2.460
 1277SOL    HW3 5165   1.418   0.401   2.334
 1277SOL    MW4 5166   1.352   0.360   2.374
 1278SOL     OW 5167   1.547   0.533   2.291
 1278SOL    HW2 5168   1.626   0.480   2.295
 1278SOL    HW3 5169   1.533   0.549   2.197
 1278SOL    MW4 5170   1.555   0.528   2.279
 1279SOL     OW 5171   1.569   0.807   2.370
 1279SOL    HW2 5172   1.644   0.833   2.316
 1279SOL    HW3 5173   1.559   0.713   2.354
 1279SOL    MW4 5174   1.577   0.798   2.361
 1280SOL     OW 5175   1.349   0.912   2.229
 1280SOL    HW2 5176   1.427   0.881   2.276
 1280SOL    HW3 5177   1.276   0.872   2.275
 1280SOL    MW4 5178   1.350   0.903   2.241
 1281SOL     OW 5179   1.349   1.145   2.368
 1281SOL    HW2 5180   1.341   1.119   2.460
 1281SOL    HW3 5181   1.344   1.064   2.319
 1281SOL    MW4 5182   1.348   1.131   2.374
 1282SOL     OW 5183   1.560   1.301   2.303
 1282SOL    HW2 5184   1.494   1.237   2.329
 1282SOL    HW3 5185   1.562   1.295   2.207
 1282SOL    MW4 5186   1.552   1.292   2.294
 1283SOL     OW 5187   1.554   1.549   2.419
 1283SOL    HW2 5188   1.617   1.591   2.360
 1283SOL    HW3 5189   1.536   1.464   2.378
 1283SOL    MW4 5190   1.560   1.543   2.406
 1284SOL     OW 5191   1.360   1.698   2.272
 1284SOL    HW2 5192   1.434   1.667   2.324
 1284SOL    HW3 5193   1.286   1.645   2.302
 1284SOL    MW4 5194   1.360   1.687   2.283
 1285SOL     OW 5195   1.353   1.972   2.369
 1285SOL    HW2 5196   1.442   2.003   2.352
 1285SOL    HW3 5197   1.344   1.894   2.314
 1285SOL    MW4 5198   1.364   1.966   2.360
 1286SOL     OW 5199   1.580   2.063   2.261
 1286SOL    HW2 5200   1.655   2.008   2.286
 1286SOL    HW3 5201   1.573   2.051   2.166
 1286SOL    MW4 5202   1.589   2.054   2.252
 1287SOL     OW 5203   1.565   2.344   2.380
 1287SOL    HW2 5204   1.558   2.333   2.475
 1287SOL    HW3 5205   1.576   2.255   2.346
 1287SOL    MW4 5206   1.565   2.330   2.388
 1288SOL     OW 5207   1.337   2.470   2.254
 1288SOL    HW2 5208   1.411   2.434   2.303
 1288SOL    HW3 5209   1.335   2.419   2.173
 1288SOL    MW4 5210   1.346   2.458   2.250
 1289SOL     OW 5211   1.350   2.726   2.352
 1289SOL    HW2 5212   1.434   2.765   2.327
 1289SOL    HW3 5213   1.348   2.643   2.305
 1289SOL    MW4 5214   1.361   2.720   2.342
 1290SOL     OW 5215   1.580   2.838   2.261
 1290SOL    HW2 5216   1.579   2.932   2.276
 1290SOL    HW3 5217   1.578   2.829   2.165
 1290SOL    MW4 5218   1.580   2.849   2.250
 1291SOL     OW 5219   1.580   3.108   2.336
 1291SOL    HW2 5220   1.564   3.089   2.429
 1291SOL    HW3 5221   1.504   3.160   2.309
 1291SOL    MW4 5222   1.568   3.113   2.345
 1292SOL     OW 5223   1.369   3.266   2.262
 1292SOL    HW2 5224   1.314   3.198   2.300
 1292SOL    HW3 5225   1.362   3.252   2.167
 1292SOL    MW4 5226   1.361   3.256   2.254
 1293SOL     OW 5227   1.302   3.534   2.349
 1293SOL    HW2 5228   1.290   3.524   2.444
 1293SOL    HW3 5229   1.315   3.445   2.317
 1293SOL    MW4 5230   1.302   3.521   2.357
 1294SOL     OW 5231   1.555   3.602   2.268
 1294SOL    HW2 5232   1.567   3.683   2.318
 1294SOL    HW3 5233   1.471   3.568   2.297
 1294SOL    MW4 5234   1.546   3.608   2.278
 1295SOL     OW 5235   1.583   3.863   2.372
 1295SOL    HW2 5236   1.578   3.867   2.467
 1295SOL    HW3 5237   1.649   3.927   2.348
 1295SOL    MW4 5238   1.591   3.872   2.381
 1296SOL     OW 5239   1.340   3.964   2.274
 1296SOL    HW2 5240   1.416   3.919   2.312
 1296SOL    HW3 5241   1.353   3.957   2.180
 1296SOL    MW4 5242   1.352   3.957   2.267
 1297SOL     OW 5243   1.344   4.240   2.359
 1297SOL    HW2 5244   1.341   4.153   2.319
 1297SOL    HW3 5245   1.268   4.285   2.324
 1297SOL    MW4 5246   1.334   4.235   2.349
 1298SOL     OW 5247   1.553   4.375   2.252
 1298SOL    HW2 5248   1.480   4.332   2.296
 1298SOL    HW3 5249   1.558   4.461   2.293
 1298SOL    MW4 5250   1.544   4.381   2.263
 1299SOL     OW 5251   2.025   0.003   2.368
 1299SOL    HW2 5252   2.097   0.056   2.333
 1299SOL    HW3 5253   2.034  -0.082   2.324
 1299SOL    MW4 5254   2.036  -0.001   2.357
 1300SOL     OW 5255   1.777   0.084   2.241
 1300SOL    HW2 5256   1.781   0.177   2.264
 1300SOL    HW3 5257   1.856   0.046   2.281
 1300SOL    MW4 5258   1.788   0.091   2.250
 1301SOL     OW 5259   1.773   0.349   2.324
 1301SOL    HW2 5260   1.767   0.349   2.420
 1301SOL    HW3 5261   1.861   0.382   2.306
 1301SOL    MW4 5262   1.784   0.353   2.334
 1302SOL     OW 5263   2.011   0.502   2.256
 1302SOL    HW2 5264   2.021   0.595   2.276
 1302SOL    HW3 5265   2.013   0.497   2.160
 1302SOL    MW4 5266   2.013   0.513   2.246
 1303SOL     OW 5267   2.025   0.757   2.357
 1303SOL    HW2 5268   2.100   0.804   2.321
 1303SOL    HW3 5269   1.949   0.793   2.311
 1303SOL    MW4 5270   2.025   0.768   2.346
 1304SOL     OW 5271   1.813   0.898   2.252
 1304SOL    HW2 5272   1.809   0.986   2.292
 1304SOL    HW3 5273   1.808   0.914   2.158
 1304SOL    MW4 5274   1.812   0.912   2.245
 1305SOL     OW 5275   1.797   1.158   2.354
 1305SOL    HW2 5276   1.874   1.190   2.306
 1305SOL    HW3 5277   1.726   1.215   2.325
 1305SOL    MW4 5278   1.798   1.170   2.344
 1306SOL     OW 5279   2.018   1.286   2.235
 1306SOL    HW2 5280   1.999   1.367   2.281
 1306SOL    HW3 5281   2.014   1.309   2.142
 1306SOL    MW4 5282   2.015   1.300   2.229
 1307SOL     OW 5283   1.971   1.539   2.333
 1307SOL    HW2 5284   1.984   1.549   2.427
 1307SOL    HW3 5285   1.886   1.580   2.315
 1307SOL    MW4 5286   1.962   1.546   2.343
 1308SOL     OW 5287   1.727   1.668   2.242
 1308SOL    HW2 5288   1.764   1.751   2.272
 1308SOL    HW3 5289   1.736   1.671   2.147
 1308SOL    MW4 5290   1.733   1.680   2.234
 1309SOL     OW 5291   1.809   1.924   2.328
 1309SOL    HW2 5292   1.804   1.942   2.422
 1309SOL    HW3 5293   1.881   1.978   2.297
 1309SOL    MW4 5294   1.817   1.933   2.336
 1310SOL     OW 5295   2.014   2.091   2.231
 1310SOL    HW2 5296   2.094   2.047   2.261
 1310SOL    HW3 5297   2.011   2.074   2.137
 1310SOL    MW4 5298   2.024   2.083   2.222
 1311SOL     OW 5299   2.003   2.355   2.321
 1311SOL    HW2 5300   2.066   2.407   2.271
 1311SOL    HW3 5301   2.019   2.265   2.293
 1311SOL    MW4 5302   2.014   2.350   2.311
 1312SOL     OW 5303   1.766   2.466   2.206
 1312SOL    HW2 5304   1.844   2.415   2.227
 1312SOL    HW3 5305   1.695   2.420   2.251
 1312SOL    MW4 5306   1.767   2.453   2.214
 1313SOL     OW 5307   1.832   2.719   2.320
 1313SOL    HW2 5308   1.805   2.641   2.271
 1313SOL    HW3 5309   1.756   2.776   2.319
 1313SOL    MW4 5310   1.819   2.716   2.314
 1314SOL     OW 5311   2.070   2.861   2.259
 1314SOL    HW2 5312   2.129   2.817   2.320
 1314SOL    HW3 5313   1.984   2.821   2.275
 1314SOL    MW4 5314   2.066   2.850   2.269
 1315SOL     OW 5315   2.020   3.105   2.365
 1315SOL    HW2 5316   2.092   3.159   2.334
 1315SOL    HW3 5317   2.034   3.020   2.325
 1315SOL    MW4 5318   2.031   3.101   2.356
 1316SOL     OW 5319   1.807   3.231   2.245
 1316SOL    HW2 5320   1.874   3.176   2.286
 1316SOL    HW3 5321   1.724   3.194   2.273
 1316SOL    MW4 5322   1.805   3.219   2.254
 1317SOL     OW 5323   1.796   3.492   2.345
 1317SOL    HW2 5324   1.792   3.399   2.321
 1317SOL    HW3 5325   1.707   3.524   2.333
 1317SOL    MW4 5326   1.784   3.484   2.340
 1318SOL     OW 5327   2.029   3.611   2.223
 1318SOL    HW2 5328   1.952   3.575   2.266
 1318SOL    HW3 5329   2.009   3.606   2.129
 1318SOL    MW4 5330   2.016   3.605   2.216
 1319SOL     OW 5331   2.001   3.865   2.345
 1319SOL    HW2 5332   2.045   3.867   2.430
 1319SOL    HW3 5333   2.023   3.780   2.308
 1319SOL    MW4 5334   2.010   3.854   2.352
 1320SOL     OW 5335   1.792   4.021   2.278
 1320SOL    HW2 5336   1.862   3.958   2.295
 1320SOL    HW3 5337   1.790   4.031   2.183
 1320SOL    MW4 5338   1.801   4.014   2.268
 1321SOL     OW 5339   1.797   4.290   2.331
 1321SOL    HW2 5340   1.800   4.195   2.317
 1321SOL    HW3 5341   1.707   4.315   2.310
 1321SOL    MW4 5342   1.786   4.281   2.327
 1322SOL     OW 5343   2.032   4.416   2.246
 1322SOL    HW2 5344   1.951   4.380   2.281
 1322SOL    HW3 5345   2.017   4.424   2.152
 1322SOL    MW4 5346   2.020   4.412   2.239
 1323SOL     OW 5347   2.495   4.649   2.373
 1323SOL    HW2 5348   2.562   4.697   2.325
 1323SOL    HW3 5349   2.494   4.562   2.333
 1323SOL    MW4 5350   2.504   4.644   2.362
 1324SOL     OW 5351   2.272   0.120   2.253
 1324SOL    HW2 5352   2.287   0.209   2.284
 1324SOL    HW3 5353   2.343   0.069   2.292
 1324SOL    MW4 5354   2.284   0.125   2.262
 1325SOL     OW 5355   2.261   0.383   2.340
 1325SOL    HW2 5356   2.333   0.436   2.306
 1325SOL    HW3 5357   2.182   0.423   2.303
 1325SOL    MW4 5358   2.260   0.396   2.331
 1326SOL     OW 5359   2.469   0.530   2.206
 1326SOL    HW2 5360   2.547   0.481   2.231
 1326SOL    HW3 5361   2.464   0.522   2.111
 1326SOL    MW4 5362   2.479   0.523   2.197
 1327SOL     OW 5363   2.470   0.773   2.356
 1327SOL    HW2 5364   2.545   0.826   2.327
 1327SOL    HW3 5365   2.480   0.690   2.310
 1327SOL    MW4 5366   2.481   0.769   2.346
 1328SOL     OW 5367   2.243   0.866   2.231
 1328SOL    HW2 5368   2.233   0.960   2.244
 1328SOL    HW3 5369   2.314   0.841   2.289
 1328SOL    MW4 5370   2.251   0.875   2.240
 1329SOL     OW 5371   2.240   1.131   2.296
 1329SOL    HW2 5372   2.320   1.180   2.279
 1329SOL    HW3 5373   2.170   1.187   2.260
 1329SOL    MW4 5374   2.241   1.145   2.289
 1330SOL     OW 5375   2.456   1.294   2.248
 1330SOL    HW2 5376   2.537   1.251   2.277
 1330SOL    HW3 5377   2.460   1.381   2.288
 1330SOL    MW4 5378   2.467   1.300   2.257
 1331SOL     OW 5379   2.429   1.552   2.382
 1331SOL    HW2 5380   2.455   1.546   2.474
 1331SOL    HW3 5381   2.504   1.594   2.339
 1331SOL    MW4 5382   2.442   1.557   2.389
 1332SOL     OW 5383   2.209   1.698   2.272
 1332SOL    HW2 5384   2.271   1.637   2.312
 1332SOL    HW3 5385   2.123   1.663   2.297
 1332SOL    MW4 5386   2.206   1.685   2.281
 1333SOL     OW 5387   2.226   1.967   2.318
 1333SOL    HW2 5388   2.301   2.002   2.270
 1333SOL    HW3 5389   2.230   1.873   2.303
 1333SOL    MW4 5390   2.237   1.959   2.310
 1334SOL     OW 5391   2.452   2.087   2.201
 1334SOL    HW2 5392   2.523   2.036   2.238
 1334SOL    HW3 5393   2.461   2.075   2.106
 1334SOL    MW4 5394   2.462   2.079   2.193
 1335SOL     OW 5395   2.462   2.318   2.358
 1335SOL    HW2 5396   2.528   2.378   2.321
 1335SOL    HW3 5397   2.459   2.245   2.296
 1335SOL    MW4 5398   2.471   2.317   2.345
 1336SOL     OW 5399   2.233   2.460   2.209
 1336SOL    HW2 5400   2.248   2.533   2.270
 1336SOL    HW3 5401   2.294   2.392   2.237
 1336SOL    MW4 5402   2.243   2.461   2.221
 1337SOL     OW 5403   2.256   2.693   2.366
 1337SOL    HW2 5404   2.238   2.712   2.458
 1337SOL    HW3 5405   2.314   2.764   2.337
 1337SOL    MW4 5406   2.262   2.705   2.374
 1338SOL     OW 5407   2.445   2.870   2.266
 1338SOL    HW2 5408   2.520   2.817   2.293
 1338SOL    HW3 5409   2.458   2.884   2.172
 1338SOL    MW4 5410   2.456   2.865   2.257
 1339SOL     OW 5411   2.470   3.136   2.362
 1339SOL    HW2 5412   2.547   3.182   2.329
 1339SOL    HW3 5413   2.478   3.047   2.328
 1339SOL    MW4 5414   2.481   3.130   2.353
 1340SOL     OW 5415   2.235   3.252   2.258
 1340SOL    HW2 5416   2.250   3.346   2.264
 1340SOL    HW3 5417   2.316   3.213   2.290
 1340SOL    MW4 5418   2.248   3.259   2.263
 1341SOL     OW 5419   2.264   3.523   2.314
 1341SOL    HW2 5420   2.251   3.499   2.406
 1341SOL    HW3 5421   2.178   3.555   2.285
 1341SOL    MW4 5422   2.251   3.524   2.322
 1342SOL     OW 5423   2.505   3.647   2.233
 1342SOL    HW2 5424   2.489   3.736   2.266
 1342SOL    HW3 5425   2.429   3.597   2.261
 1342SOL    MW4 5426   2.493   3.652   2.241
 1343SOL     OW 5427   2.459   3.904   2.342
 1343SOL    HW2 5428   2.461   3.903   2.437
 1343SOL    HW3 5429   2.378   3.951   2.319
 1343SOL    MW4 5430   2.448   3.910   2.351
 1344SOL     OW 5431   2.213   3.997   2.241
 1344SOL    HW2 5432   2.204   4.090   2.262
 1344SOL    HW3 5433   2.144   3.954   2.292
 1344SOL    MW4 5434   2.203   4.004   2.251
 1345SOL     OW 5435   2.235   4.271   2.332
 1345SOL    HW2 5436   2.245   4.280   2.427
 1345SOL    HW3 5437   2.173   4.340   2.308
 1345SOL    MW4 5438   2.228   4.282   2.341
 1346SOL     OW 5439   2.506   4.392   2.251
 1346SOL    HW2 5440   2.578   4.348   2.297
 1346SOL    HW3 5441   2.428   4.345   2.280
 1346SOL    MW4 5442   2.505   4.380   2.261
 1347SOL     OW 5443   2.928   0.006   2.323
 1347SOL    HW2 5444   3.000   0.054   2.282
 1347SOL    HW3 5445   2.933  -0.081   2.284
 1347SOL    MW4 5446   2.938   0.001   2.312
 1348SOL     OW 5447   2.688   0.113   2.228
 1348SOL    HW2 5448   2.679   0.206   2.246
 1348SOL    HW3 5449   2.770   0.088   2.270
 1348SOL    MW4 5450   2.698   0.122   2.236
 1349SOL     OW 5451   2.674   0.376   2.283
 1349SOL    HW2 5452   2.655   0.393   2.375
 1349SOL    HW3 5453   2.765   0.405   2.272
 1349SOL    MW4 5454   2.684   0.382   2.294
 1350SOL     OW 5455   2.926   0.502   2.213
 1350SOL    HW2 5456   2.932   0.590   2.251
 1350SOL    HW3 5457   2.930   0.516   2.119
 1350SOL    MW4 5458   2.927   0.516   2.206
 1351SOL     OW 5459   2.928   0.747   2.359
 1351SOL    HW2 5460   2.930   0.756   2.454
 1351SOL    HW3 5461   2.846   0.789   2.333
 1351SOL    MW4 5462   2.917   0.754   2.368
 1352SOL     OW 5463   2.710   0.881   2.262
 1352SOL    HW2 5464   2.700   0.974   2.286
 1352SOL    HW3 5465   2.724   0.883   2.167
 1352SOL    MW4 5466   2.710   0.894   2.252
 1353SOL     OW 5467   2.684   1.149   2.327
 1353SOL    HW2 5468   2.684   1.148   2.423
 1353SOL    HW3 5469   2.764   1.195   2.303
 1353SOL    MW4 5470   2.695   1.155   2.336
 1354SOL     OW 5471   2.911   1.274   2.222
 1354SOL    HW2 5472   2.989   1.234   2.260
 1354SOL    HW3 5473   2.928   1.276   2.128
 1354SOL    MW4 5474   2.923   1.269   2.215
 1355SOL     OW 5475   2.883   1.530   2.336
 1355SOL    HW2 5476   2.897   1.516   2.429
 1355SOL    HW3 5477   2.877   1.442   2.299
 1355SOL    MW4 5478   2.884   1.517   2.343
 1356SOL     OW 5479   2.642   1.652   2.235
 1356SOL    HW2 5480   2.716   1.593   2.243
 1356SOL    HW3 5481   2.636   1.671   2.142
 1356SOL    MW4 5482   2.651   1.647   2.224
 1357SOL     OW 5483   2.659   1.925   2.308
 1357SOL    HW2 5484   2.681   1.932   2.401
 1357SOL    HW3 5485   2.652   1.831   2.292
 1357SOL    MW4 5486   2.661   1.914   2.318
 1358SOL     OW 5487   2.881   2.078   2.233
 1358SOL    HW2 5488   2.963   2.037   2.262
 1358SOL    HW3 5489   2.812   2.022   2.267
 1358SOL    MW4 5490   2.883   2.065   2.241
 1359SOL     OW 5491   2.900   2.340   2.335
 1359SOL    HW2 5492   2.907   2.309   2.425
 1359SOL    HW3 5493   2.896   2.260   2.283
 1359SOL    MW4 5494   2.900   2.325   2.340
 1360SOL     OW 5495   2.654   2.481   2.259
 1360SOL    HW2 5496   2.736   2.438   2.284
 1360SOL    HW3 5497   2.651   2.473   2.164
 1360SOL    MW4 5498   2.664   2.474   2.250
 1361SOL     OW 5499   2.679   2.742   2.355
 1361SOL    HW2 5500   2.750   2.788   2.310
 1361SOL    HW3 5501   2.686   2.651   2.325
 1361SOL    MW4 5502   2.689   2.736   2.345
 1362SOL     OW 5503   2.901   2.857   2.252
 1362SOL    HW2 5504   2.907   2.943   2.294
 1362SOL    HW3 5505   2.910   2.875   2.159
 1362SOL    MW4 5506   2.903   2.871   2.246
 1363SOL     OW 5507   2.936   3.108   2.363
 1363SOL    HW2 5508   2.996   3.175   2.331
 1363SOL    HW3 5509   2.852   3.128   2.320
 1363SOL    MW4 5510   2.933   3.119   2.353
 1364SOL     OW 5511   2.712   3.232   2.270
 1364SOL    HW2 5512   2.720   3.324   2.296
 1364SOL    HW3 5513   2.703   3.235   2.174
 1364SOL    MW4 5514   2.712   3.245   2.261
 1365SOL     OW 5515   2.715   3.503   2.346
 1365SOL    HW2 5516   2.784   3.547   2.296
 1365SOL    HW3 5517   2.634   3.547   2.317
 1365SOL    MW4 5518   2.713   3.515   2.336
 1366SOL     OW 5519   2.917   3.652   2.214
 1366SOL    HW2 5520   2.981   3.602   2.265
 1366SOL    HW3 5521   2.897   3.727   2.268
 1366SOL    MW4 5522   2.923   3.655   2.228
 1367SOL     OW 5523   2.904   3.923   2.328
 1367SOL    HW2 5524   2.907   3.907   2.422
 1367SOL    HW3 5525   2.815   3.955   2.313
 1367SOL    MW4 5526   2.892   3.925   2.339
 1368SOL     OW 5527   2.671   4.074   2.259
 1368SOL    HW2 5528   2.589   4.039   2.294
 1368SOL    HW3 5529   2.669   4.051   2.166
 1368SOL    MW4 5530   2.660   4.066   2.251
 1369SOL     OW 5531   2.742   4.318   2.390
 1369SOL    HW2 5532   2.704   4.302   2.476
 1369SOL    HW3 5533   2.733   4.235   2.344
 1369SOL    MW4 5534   2.736   4.305   2.396
 1370SOL     OW 5535   2.948   4.405   2.226
 1370SOL    HW2 5536   3.026   4.361   2.259
 1370SOL    HW3 5537   2.878   4.377   2.285
 1370SOL    MW4 5538   2.949   4.396   2.238
 1371SOL     OW 5539   3.360   4.637   2.309
 1371SOL    HW2 5540   3.361   4.672   2.398
 1371SOL    HW3 5541   3.444   4.665   2.272
 1371SOL    MW4 5542   3.372   4.646   2.316
 1372SOL     OW 5543   3.168   0.113   2.200
 1372SOL    HW2 5544   3.173   0.202   2.236
 1372SOL    HW3 5545   3.243   0.067   2.239
 1372SOL    MW4 5546   3.178   0.119   2.210
 1373SOL     OW 5547   3.133   0.380   2.343
 1373SOL    HW2 5548   3.211   0.432   2.323
 1373SOL    HW3 5549   3.064   0.419   2.290
 1373SOL    MW4 5550   3.134   0.392   2.333
 1374SOL     OW 5551   3.351   0.530   2.241
 1374SOL    HW2 5552   3.426   0.483   2.276
 1374SOL    HW3 5553   3.358   0.521   2.146
 1374SOL    MW4 5554   3.362   0.522   2.233
 1375SOL     OW 5555   3.361   0.762   2.379
 1375SOL    HW2 5556   3.448   0.787   2.348
 1375SOL    HW3 5557   3.348   0.674   2.342
 1375SOL    MW4 5558   3.371   0.753   2.370
 1376SOL     OW 5559   3.158   0.876   2.242
 1376SOL    HW2 5560   3.237   0.845   2.287
 1376SOL    HW3 5561   3.087   0.823   2.278
 1376SOL    MW4 5562   3.159   0.865   2.252
 1377SOL     OW 5563   3.139   1.145   2.329
 1377SOL    HW2 5564   3.217   1.187   2.293
 1377SOL    HW3 5565   3.136   1.059   2.286
 1377SOL    MW4 5566   3.149   1.139   2.318
 1378SOL     OW 5567   3.375   1.273   2.238
 1378SOL    HW2 5568   3.452   1.230   2.276
 1378SOL    HW3 5569   3.372   1.359   2.281
 1378SOL    MW4 5570   3.385   1.279   2.249
 1379SOL     OW 5571   3.352   1.523   2.325
 1379SOL    HW2 5572   3.376   1.536   2.417
 1379SOL    HW3 5573   3.279   1.583   2.311
 1379SOL    MW4 5574   3.345   1.533   2.336
 1380SOL     OW 5575   3.132   1.678   2.275
 1380SOL    HW2 5576   3.125   1.772   2.294
 1380SOL    HW3 5577   3.049   1.641   2.307
 1380SOL    MW4 5578   3.120   1.685   2.282
 1381SOL     OW 5579   3.117   1.968   2.342
 1381SOL    HW2 5580   3.120   1.955   2.437
 1381SOL    HW3 5581   3.207   1.992   2.318
 1381SOL    MW4 5582   3.129   1.970   2.351
 1382SOL     OW 5583   3.363   2.050   2.243
 1382SOL    HW2 5584   3.436   2.006   2.286
 1382SOL    HW3 5585   3.385   2.049   2.150
 1382SOL    MW4 5586   3.375   2.044   2.236
 1383SOL     OW 5587   3.364   2.313   2.352
 1383SOL    HW2 5588   3.296   2.353   2.299
 1383SOL    HW3 5589   3.377   2.226   2.312
 1383SOL    MW4 5590   3.357   2.307   2.340
 1384SOL     OW 5591   3.140   2.448   2.237
 1384SOL    HW2 5592   3.142   2.537   2.272
 1384SOL    HW3 5593   3.056   2.412   2.266
 1384SOL    MW4 5594   3.129   2.455   2.245
 1385SOL     OW 5595   3.127   2.717   2.333
 1385SOL    HW2 5596   3.146   2.703   2.426
 1385SOL    HW3 5597   3.040   2.755   2.332
 1385SOL    MW4 5598   3.118   2.720   2.345
 1386SOL     OW 5599   3.358   2.872   2.273
 1386SOL    HW2 5600   3.361   2.955   2.320
 1386SOL    HW3 5601   3.272   2.835   2.296
 1386SOL    MW4 5602   3.347   2.878   2.282
 1387SOL     OW 5603   3.393   3.110   2.387
 1387SOL    HW2 5604   3.467   3.161   2.354
 1387SOL    HW3 5605   3.316   3.158   2.359
 1387SOL    MW4 5606   3.393   3.123   2.379
 1388SOL     OW 5607   3.159   3.263   2.292
 1388SOL    HW2 5608   3.158   3.358   2.308
 1388SOL    HW3 5609   3.152   3.255   2.197
 1388SOL    MW4 5610   3.158   3.275   2.282
 1389SOL     OW 5611   3.112   3.538   2.357
 1389SOL    HW2 5612   3.121   3.533   2.453
 1389SOL    HW3 5613   3.194   3.578   2.328
 1389SOL    MW4 5614   3.124   3.543   2.366
 1390SOL     OW 5615   3.335   3.668   2.255
 1390SOL    HW2 5616   3.415   3.624   2.283
 1390SOL    HW3 5617   3.330   3.651   2.161
 1390SOL    MW4 5618   3.345   3.660   2.246
 1391SOL     OW 5619   3.358   3.905   2.394
 1391SOL    HW2 5620   3.416   3.954   2.336
 1391SOL    HW3 5621   3.350   3.819   2.353
 1391SOL    MW4 5622   3.365   3.900   2.381
 1392SOL     OW 5623   3.153   3.985   2.237
 1392SOL    HW2 5624   3.217   3.953   2.301
 1392SOL    HW3 5625   3.069   3.952   2.268
 1392SOL    MW4 5626   3.151   3.976   2.250
 1393SOL     OW 5627   3.133   4.240   2.327
 1393SOL    HW2 5628   3.215   4.276   2.292
 1393SOL    HW3 5629   3.134   4.148   2.302
 1393SOL    MW4 5630   3.144   4.233   2.319
 1394SOL     OW 5631   3.366   4.375   2.256
 1394SOL    HW2 5632   3.378   4.465   2.285
 1394SOL    HW3 5633   3.369   4.379   2.160
 1394SOL    MW4 5634   3.368   4.387   2.247
 1395SOL     OW 5635   3.786   4.644   2.384
 1395SOL    HW2 5636   3.814   4.649   2.476
 1395SOL    HW3 5637   3.857   4.686   2.335
 1395SOL    MW4 5638   3.799   4.650   2.390
 1396SOL     OW 5639   3.581   0.142   2.268
 1396SOL    HW2 5640   3.576   0.221   2.323
 1396SOL    HW3 5641   3.650   0.090   2.309
 1396SOL    MW4 5642   3.589   0.146   2.281
 1397SOL     OW 5643   3.552   0.401   2.379
 1397SOL    HW2 5644   3.556   0.388   2.474
 1397SOL    HW3 5645   3.628   0.456   2.359
 1397SOL    MW4 5646   3.563   0.407   2.389
 1398SOL     OW 5647   3.782   0.518   2.294
 1398SOL    HW2 5648   3.793   0.610   2.317
 1398SOL    HW3 5649   3.799   0.515   2.199
 1398SOL    MW4 5650   3.785   0.530   2.284
 1399SOL     OW 5651   3.825   0.783   2.358
 1399SOL    HW2 5652   3.814   0.801   2.451
 1399SOL    HW3 5653   3.913   0.815   2.337
 1399SOL    MW4 5654   3.835   0.789   2.367
 1400SOL     OW 5655   3.586   0.870   2.247
 1400SOL    HW2 5656   3.675   0.844   2.274
 1400SOL    HW3 5657   3.595   0.890   2.154
 1400SOL    MW4 5658   3.599   0.869   2.238
 1401SOL     OW 5659   3.602   1.135   2.335
 1401SOL    HW2 5660   3.602   1.143   2.431
 1401SOL    HW3 5661   3.602   1.040   2.319
 1401SOL    MW4 5662   3.602   1.123   2.346
 1402SOL     OW 5663   3.830   1.255   2.248
 1402SOL    HW2 5664   3.815   1.344   2.279
 1402SOL    HW3 5665   3.761   1.203   2.289
 1402SOL    MW4 5666   3.819   1.260   2.257
 1403SOL     OW 5667   3.796   1.507   2.347
 1403SOL    HW2 5668   3.809   1.537   2.437
 1403SOL    HW3 5669   3.729   1.566   2.313
 1403SOL    MW4 5670   3.789   1.519   2.355
 1404SOL     OW 5671   3.542   1.697   2.226
 1404SOL    HW2 5672   3.477   1.630   2.247
 1404SOL    HW3 5673   3.554   1.690   2.131
 1404SOL    MW4 5674   3.535   1.687   2.216
 1405SOL     OW 5675   3.586   1.936   2.361
 1405SOL    HW2 5676   3.649   1.978   2.303
 1405SOL    HW3 5677   3.570   1.851   2.322
 1405SOL    MW4 5678   3.592   1.931   2.348
 1406SOL     OW 5679   3.788   2.068   2.229
 1406SOL    HW2 5680   3.871   2.027   2.254
 1406SOL    HW3 5681   3.790   2.068   2.133
 1406SOL    MW4 5682   3.799   2.062   2.219
 1407SOL     OW 5683   3.793   2.328   2.359
 1407SOL    HW2 5684   3.715   2.380   2.342
 1407SOL    HW3 5685   3.783   2.250   2.304
 1407SOL    MW4 5686   3.782   2.324   2.349
 1408SOL     OW 5687   3.557   2.494   2.280
 1408SOL    HW2 5688   3.497   2.422   2.298
 1408SOL    HW3 5689   3.567   2.494   2.185
 1408SOL    MW4 5690   3.550   2.484   2.270
 1409SOL     OW 5691   3.590   2.763   2.357
 1409SOL    HW2 5692   3.569   2.674   2.332
 1409SOL    HW3 5693   3.518   2.816   2.324
 1409SOL    MW4 5694   3.578   2.758   2.349
 1410SOL     OW 5695   3.866   2.890   2.287
 1410SOL    HW2 5696   3.849   2.974   2.329
 1410SOL    HW3 5697   3.793   2.834   2.316
 1410SOL    MW4 5698   3.854   2.894   2.297
 1411SOL     OW 5699   3.797   3.148   2.388
 1411SOL    HW2 5700   3.809   3.126   2.481
 1411SOL    HW3 5701   3.884   3.174   2.359
 1411SOL    MW4 5702   3.810   3.149   2.397
 1412SOL     OW 5703   3.579   3.278   2.259
 1412SOL    HW2 5704   3.572   3.365   2.298
 1412SOL    HW3 5705   3.666   3.247   2.285
 1412SOL    MW4 5706   3.590   3.286   2.267
 1413SOL     OW 5707   3.596   3.544   2.342
 1413SOL    HW2 5708   3.606   3.569   2.434
 1413SOL    HW3 5709   3.685   3.549   2.306
 1413SOL    MW4 5710   3.609   3.548   2.350
 1414SOL     OW 5711   3.853   3.596   2.265
 1414SOL    HW2 5712   3.846   3.689   2.289
 1414SOL    HW3 5713   3.854   3.596   2.170
 1414SOL    MW4 5714   3.852   3.609   2.256
 1415SOL     OW 5715   3.758   3.864   2.358
 1415SOL    HW2 5716   3.763   3.865   2.454
 1415SOL    HW3 5717   3.830   3.920   2.329
 1415SOL    MW4 5718   3.768   3.871   2.367
 1416SOL     OW 5719   3.560   4.023   2.243
 1416SOL    HW2 5720   3.560   4.092   2.309
 1416SOL    HW3 5721   3.631   3.964   2.269
 1416SOL    MW4 5722   3.569   4.024   2.255
 1417SOL     OW 5723   3.583   4.262   2.374
 1417SOL    HW2 5724   3.653   4.309   2.330
 1417SOL    HW3 5725   3.502   4.301   2.340
 1417SOL    MW4 5726   3.581   4.273   2.364
 1418SOL     OW 5727   3.806   4.374   2.262
 1418SOL    HW2 5728   3.875   4.323   2.304
 1418SOL    HW3 5729   3.806   4.458   2.308
 1418SOL    MW4 5730   3.815   4.378   2.274
 1419SOL     OW 5731   4.265   4.652   2.399
 1419SOL    HW2 5732   4.291   4.653   2.491
 1419SOL    HW3 5733   4.323   4.715   2.356
 1419SOL    MW4 5734   4.276   4.661   2.405
 1420SOL     OW 5735   4.022   0.102   2.279
 1420SOL    HW2 5736   3.994   0.184   2.319
 1420SOL    HW3 5737   4.094   0.072   2.335
 1420SOL    MW4 5738   4.028   0.109   2.291
 1421SOL     OW 5739   4.006   0.356   2.369
 1421SOL    HW2 5740   4.080   0.401   2.327
 1421SOL    HW3 5741   3.931   0.411   2.349
 1421SOL    MW4 5742   4.006   0.369   2.361
 1422SOL     OW 5743   4.225   0.520   2.278
 1422SOL    HW2 5744   4.214   0.603   2.325
 1422SOL    HW3 5745   4.315   0.493   2.296
 1422SOL    MW4 5746   4.236   0.527   2.286
 1423SOL     OW 5747   4.294   0.770   2.389
 1423SOL    HW2 5748   4.223   0.826   2.359
 1423SOL    HW3 5749   4.374   0.819   2.368
 1423SOL    MW4 5750   4.295   0.784   2.382
 1424SOL     OW 5751   4.081   0.891   2.302
 1424SOL    HW2 5752   4.090   0.984   2.323
 1424SOL    HW3 5753   4.095   0.887   2.207
 1424SOL    MW4 5754   4.084   0.903   2.292
 1425SOL     OW 5755   4.059   1.182   2.366
 1425SOL    HW2 5756   4.042   1.173   2.460
 1425SOL    HW3 5757   3.975   1.208   2.329
 1425SOL    MW4 5758   4.046   1.184   2.374
 1426SOL     OW 5759   4.252   1.326   2.255
 1426SOL    HW2 5760   4.197   1.266   2.305
 1426SOL    HW3 5761   4.342   1.304   2.281
 1426SOL    MW4 5762   4.257   1.316   2.265
 1427SOL     OW 5763   4.266   1.570   2.387
 1427SOL    HW2 5764   4.255   1.476   2.374
 1427SOL    HW3 5765   4.340   1.593   2.331
 1427SOL    MW4 5766   4.274   1.561   2.378
 1428SOL     OW 5767   4.028   1.649   2.274
 1428SOL    HW2 5768   4.099   1.603   2.318
 1428SOL    HW3 5769   3.951   1.593   2.285
 1428SOL    MW4 5770   4.027   1.636   2.281
 1429SOL     OW 5771   4.013   1.915   2.319
 1429SOL    HW2 5772   4.026   1.918   2.414
 1429SOL    HW3 5773   4.028   1.823   2.296
 1429SOL    MW4 5774   4.017   1.903   2.328
 1430SOL     OW 5775   4.252   2.036   2.273
 1430SOL    HW2 5776   4.247   2.125   2.309
 1430SOL    HW3 5777   4.166   1.998   2.291
 1430SOL    MW4 5778   4.240   2.043   2.280
 1431SOL     OW 5779   4.244   2.277   2.403
 1431SOL    HW2 5780   4.178   2.327   2.355
 1431SOL    HW3 5781   4.327   2.302   2.362
 1431SOL    MW4 5782   4.247   2.287   2.391
 1432SOL     OW 5783   4.027   2.447   2.264
 1432SOL    HW2 5784   4.026   2.537   2.296
 1432SOL    HW3 5785   3.948   2.408   2.301
 1432SOL    MW4 5786   4.016   2.454   2.273
 1433SOL     OW 5787   4.056   2.703   2.338
 1433SOL    HW2 5788   4.057   2.713   2.434
 1433SOL    HW3 5789   4.008   2.780   2.307
 1433SOL    MW4 5790   4.050   2.714   2.347
 1434SOL     OW 5791   4.307   2.781   2.223
 1434SOL    HW2 5792   4.234   2.735   2.263
 1434SOL    HW3 5793   4.385   2.741   2.261
 1434SOL    MW4 5794   4.308   2.770   2.233
 1435SOL     OW 5795   4.258   3.046   2.319
 1435SOL    HW2 5796   4.246   2.954   2.294
 1435SOL    HW3 5797   4.327   3.077   2.261
 1435SOL    MW4 5798   4.265   3.038   2.308
 1436SOL     OW 5799   4.035   3.211   2.259
 1436SOL    HW2 5800   4.045   3.291   2.310
 1436SOL    HW3 5801   4.113   3.159   2.281
 1436SOL    MW4 5802   4.047   3.214   2.269
 1437SOL     OW 5803   4.097   3.466   2.369
 1437SOL    HW2 5804   4.170   3.509   2.325
 1437SOL    HW3 5805   4.019   3.502   2.327
 1437SOL    MW4 5806   4.096   3.476   2.358
 1438SOL     OW 5807   4.295   3.625   2.248
 1438SOL    HW2 5808   4.261   3.713   2.263
 1438SOL    HW3 5809   4.297   3.616   2.153
 1438SOL    MW4 5810   4.291   3.635   2.238
 1439SOL     OW 5811   4.233   3.891   2.365
 1439SOL    HW2 5812   4.246   3.887   2.459
 1439SOL    HW3 5813   4.318   3.920   2.330
 1439SOL    MW4 5814   4.246   3.894   2.373
 1440SOL     OW 5815   4.019   4.003   2.244
 1440SOL    HW2 5816   4.086   3.952   2.288
 1440SOL    HW3 5817   4.037   3.991   2.151
 1440SOL    MW4 5818   4.030   3.995   2.237
 1441SOL     OW 5819   4.039   4.255   2.359
 1441SOL    HW2 5820   4.104   4.305   2.310
 1441SOL    HW3 5821   4.045   4.166   2.324
 1441SOL    MW4 5822   4.048   4.250   2.348
 1442SOL     OW 5823   4.250   4.415   2.257
 1442SOL    HW2 5824   4.257   4.498   2.303
 1442SOL    HW3 5825   4.320   4.361   2.294
 1442SOL    MW4 5826   4.260   4.419   2.268
 1443SOL     OW 5827   0.231   4.657   2.642
 1443SOL    HW2 5828   0.222   4.565   2.668
 1443SOL    HW3 5829   0.159   4.701   2.687
 1443SOL    MW4 5830   0.220   4.651   2.651
 1444SOL     OW 5831   0.026   0.142   2.761
 1444SOL    HW2 5832   0.026   0.153   2.856
 1444SOL    HW3 5833   0.015   0.231   2.727
 1444SOL    MW4 5834   0.025   0.155   2.769
 1445SOL     OW 5835   0.017   0.405   2.641
 1445SOL    HW2 5836   0.094   0.458   2.662
 1445SOL    HW3 5837   0.010   0.410   2.545
 1445SOL    MW4 5838   0.026   0.413   2.631
 1446SOL     OW 5839   0.257   0.526   2.748
 1446SOL    HW2 5840   0.271   0.522   2.842
 1446SOL    HW3 5841   0.316   0.459   2.712
 1446SOL    MW4 5842   0.267   0.517   2.755
 1447SOL     OW 5843   0.215   0.764   2.650
 1447SOL    HW2 5844   0.297   0.800   2.685
 1447SOL    HW3 5845   0.217   0.672   2.676
 1447SOL    MW4 5846   0.226   0.757   2.658
 1448SOL     OW 5847   0.006   0.902   2.760
 1448SOL    HW2 5848  -0.064   0.838   2.741
 1448SOL    HW3 5849   0.085   0.862   2.723
 1448SOL    MW4 5850   0.007   0.888   2.752
 1449SOL     OW 5851   4.484   1.160   2.644
 1449SOL    HW2 5852   4.562   1.201   2.681
 1449SOL    HW3 5853   4.486   1.070   2.678
 1449SOL    MW4 5854   4.495   1.153   2.653
 1450SOL     OW 5855   0.214   1.275   2.752
 1450SOL    HW2 5856   0.280   1.225   2.705
 1450SOL    HW3 5857   0.221   1.364   2.717
 1450SOL    MW4 5858   0.223   1.280   2.741
 1451SOL     OW 5859   0.219   1.521   2.629
 1451SOL    HW2 5860   0.303   1.559   2.654
 1451SOL    HW3 5861   0.153   1.576   2.670
 1451SOL    MW4 5862   0.222   1.533   2.638
 1452SOL     OW 5863   0.043   1.694   2.764
 1452SOL    HW2 5864   0.018   1.698   2.856
 1452SOL    HW3 5865   0.018   1.779   2.728
 1452SOL    MW4 5866   0.036   1.706   2.771
 1453SOL     OW 5867   4.463   1.942   2.662
 1453SOL    HW2 5868   4.546   1.983   2.685
 1453SOL    HW3 5869   4.462   1.940   2.567
 1453SOL    MW4 5870   4.474   1.947   2.653
 1454SOL     OW 5871   0.223   2.053   2.714
 1454SOL    HW2 5872   0.298   2.001   2.683
 1454SOL    HW3 5873   0.244   2.142   2.688
 1454SOL    MW4 5874   0.236   2.058   2.707
 1455SOL     OW 5875   0.246   2.328   2.661
 1455SOL    HW2 5876   0.321   2.375   2.698
 1455SOL    HW3 5877   0.171   2.362   2.710
 1455SOL    MW4 5878   0.246   2.339   2.672
 1456SOL     OW 5879   0.020   2.425   2.764
 1456SOL    HW2 5880   0.018   2.425   2.860
 1456SOL    HW3 5881  -0.061   2.380   2.739
 1456SOL    MW4 5882   0.009   2.419   2.774
 1457SOL     OW 5883   0.002   2.668   2.593
 1457SOL    HW2 5884  -0.056   2.735   2.629
 1457SOL    HW3 5885  -0.009   2.593   2.652
 1457SOL    MW4 5886  -0.007   2.667   2.605
 1458SOL     OW 5887   0.238   2.825   2.699
 1458SOL    HW2 5888   0.219   2.916   2.675
 1458SOL    HW3 5889   0.158   2.777   2.675
 1458SOL    MW4 5890   0.225   2.831   2.693
 1459SOL     OW 5891   0.212   3.081   2.623
 1459SOL    HW2 5892   0.291   3.118   2.662
 1459SOL    HW3 5893   0.223   3.095   2.529
 1459SOL    MW4 5894   0.224   3.088   2.616
 1460SOL     OW 5895   4.484   3.212   2.740
 1460SOL    HW2 5896   4.415   3.161   2.697
 1460SOL    HW3 5897   4.564   3.188   2.693
 1460SOL    MW4 5898   4.485   3.202   2.728
 1461SOL     OW 5899   4.451   3.494   2.689
 1461SOL    HW2 5900   4.544   3.511   2.705
 1461SOL    HW3 5901   4.436   3.406   2.723
 1461SOL    MW4 5902   4.461   3.485   2.696
 1462SOL     OW 5903   0.211   3.582   2.746
 1462SOL    HW2 5904   0.208   3.582   2.842
 1462SOL    HW3 5905   0.295   3.542   2.724
 1462SOL    MW4 5906   0.221   3.577   2.756
 1463SOL     OW 5907   0.212   3.859   2.667
 1463SOL    HW2 5908   0.205   3.766   2.692
 1463SOL    HW3 5909   0.228   3.857   2.572
 1463SOL    MW4 5910   0.213   3.846   2.658
 1464SOL     OW 5911   4.488   4.021   2.747
 1464SOL    HW2 5912   4.479   4.102   2.696
 1464SOL    HW3 5913   4.561   3.975   2.706
 1464SOL    MW4 5914   4.496   4.026   2.735
 1465SOL     OW 5915   0.008   4.268   2.606
 1465SOL    HW2 5916  -0.062   4.314   2.652
 1465SOL    HW3 5917   0.088   4.291   2.654
 1465SOL    MW4 5918   0.009   4.277   2.618
 1466SOL     OW 5919   0.223   4.394   2.743
 1466SOL    HW2 5920   0.239   4.379   2.836
 1466SOL    HW3 5921   0.301   4.360   2.699
 1466SOL    MW4 5922   0.235   4.388   2.749
 1467SOL     OW 5923   0.664   4.639   2.645
 1467SOL    HW2 5924   0.734   4.700   2.668
 1467SOL    HW3 5925   0.583   4.683   2.673
 1467SOL    MW4 5926   0.662   4.653   2.651
 1468SOL     OW 5927   0.459   0.100   2.742
 1468SOL    HW2 5928   0.461   0.086   2.836
 1468SOL    HW3 5929   0.377   0.060   2.713
 1468SOL    MW4 5930   0.448   0.093   2.750
 1469SOL     OW 5931   0.470   0.379   2.632
 1469SOL    HW2 5932   0.531   0.432   2.683
 1469SOL    HW3 5933   0.479   0.291   2.670
 1469SOL    MW4 5934   0.479   0.374   2.644
 1470SOL     OW 5935   0.658   0.506   2.775
 1470SOL    HW2 5936   0.656   0.509   2.870
 1470SOL    HW3 5937   0.743   0.468   2.754
 1470SOL    MW4 5938   0.669   0.501   2.785
 1471SOL     OW 5939   0.697   0.731   2.628
 1471SOL    HW2 5940   0.778   0.772   2.660
 1471SOL    HW3 5941   0.687   0.653   2.683
 1471SOL    MW4 5942   0.707   0.726   2.640
 1472SOL     OW 5943   0.468   0.858   2.742
 1472SOL    HW2 5944   0.465   0.939   2.692
 1472SOL    HW3 5945   0.542   0.809   2.705
 1472SOL    MW4 5946   0.477   0.862   2.731
 1473SOL     OW 5947   0.412   1.122   2.656
 1473SOL    HW2 5948   0.486   1.164   2.700
 1473SOL    HW3 5949   0.424   1.142   2.564
 1473SOL    MW4 5950   0.423   1.130   2.650
 1474SOL     OW 5951   0.640   1.241   2.769
 1474SOL    HW2 5952   0.643   1.249   2.864
 1474SOL    HW3 5953   0.721   1.196   2.745
 1474SOL    MW4 5954   0.651   1.236   2.778
 1475SOL     OW 5955   0.666   1.494   2.633
 1475SOL    HW2 5956   0.597   1.551   2.666
 1475SOL    HW3 5957   0.644   1.407   2.668
 1475SOL    MW4 5958   0.654   1.490   2.642
 1476SOL     OW 5959   0.446   1.650   2.714
 1476SOL    HW2 5960   0.447   1.664   2.809
 1476SOL    HW3 5961   0.455   1.737   2.677
 1476SOL    MW4 5962   0.447   1.663   2.722
 1477SOL     OW 5963   0.447   1.908   2.622
 1477SOL    HW2 5964   0.521   1.963   2.646
 1477SOL    HW3 5965   0.445   1.911   2.526
 1477SOL    MW4 5966   0.456   1.915   2.612
 1478SOL     OW 5967   0.660   2.062   2.701
 1478SOL    HW2 5968   0.658   2.071   2.796
 1478SOL    HW3 5969   0.744   2.020   2.682
 1478SOL    MW4 5970   0.671   2.058   2.711
 1479SOL     OW 5971   0.664   2.320   2.626
 1479SOL    HW2 5972   0.748   2.355   2.657
 1479SOL    HW3 5973   0.668   2.227   2.648
 1479SOL    MW4 5974   0.676   2.312   2.633
 1480SOL     OW 5975   0.473   2.457   2.766
 1480SOL    HW2 5976   0.466   2.537   2.713
 1480SOL    HW3 5977   0.537   2.403   2.720
 1480SOL    MW4 5978   0.481   2.460   2.753
 1481SOL     OW 5979   0.471   2.698   2.616
 1481SOL    HW2 5980   0.545   2.746   2.652
 1481SOL    HW3 5981   0.394   2.742   2.653
 1481SOL    MW4 5982   0.471   2.710   2.625
 1482SOL     OW 5983   0.674   2.818   2.748
 1482SOL    HW2 5984   0.652   2.840   2.839
 1482SOL    HW3 5985   0.673   2.902   2.703
 1482SOL    MW4 5986   0.671   2.832   2.754
 1483SOL     OW 5987   0.678   3.094   2.676
 1483SOL    HW2 5988   0.761   3.121   2.715
 1483SOL    HW3 5989   0.691   3.104   2.582
 1483SOL    MW4 5990   0.691   3.099   2.669
 1484SOL     OW 5991   0.433   3.176   2.782
 1484SOL    HW2 5992   0.429   3.190   2.876
 1484SOL    HW3 5993   0.517   3.132   2.768
 1484SOL    MW4 5994   0.444   3.172   2.792
 1485SOL     OW 5995   0.458   3.461   2.680
 1485SOL    HW2 5996   0.448   3.368   2.701
 1485SOL    HW3 5997   0.463   3.463   2.584
 1485SOL    MW4 5998   0.458   3.449   2.670
 1486SOL     OW 5999   0.673   3.619   2.718
 1486SOL    HW2 6000   0.667   3.641   2.811
 1486SOL    HW3 6001   0.596   3.566   2.700
 1486SOL    MW4 6002   0.662   3.615   2.727
 1487SOL     OW 6003   0.641   3.885   2.622
 1487SOL    HW2 6004   0.577   3.918   2.684
 1487SOL    HW3 6005   0.657   3.795   2.649
 1487SOL    MW4 6006   0.635   3.878   2.634
 1488SOL     OW 6007   0.442   4.020   2.759
 1488SOL    HW2 6008   0.438   4.100   2.707
 1488SOL    HW3 6009   0.361   3.973   2.737
 1488SOL    MW4 6010   0.431   4.025   2.749
 1489SOL     OW 6011   0.457   4.285   2.652
 1489SOL    HW2 6012   0.523   4.332   2.702
 1489SOL    HW3 6013   0.484   4.294   2.561
 1489SOL    MW4 6014   0.469   4.292   2.647
 1490SOL     OW 6015   0.661   4.396   2.788
 1490SOL    HW2 6016   0.738   4.347   2.758
 1490SOL    HW3 6017   0.663   4.477   2.737
 1490SOL    MW4 6018   0.671   4.400   2.777
 1491SOL     OW 6019   1.130   4.617   2.634
 1491SOL    HW2 6020   1.209   4.651   2.675
 1491SOL    HW3 6021   1.126   4.525   2.662
 1491SOL    MW4 6022   1.140   4.609   2.644
 1492SOL     OW 6023   0.903   0.110   2.723
 1492SOL    HW2 6024   0.907   0.111   2.818
 1492SOL    HW3 6025   0.986   0.070   2.696
 1492SOL    MW4 6026   0.914   0.105   2.732
 1493SOL     OW 6027   0.889   0.391   2.673
 1493SOL    HW2 6028   0.885   0.295   2.679
 1493SOL    HW3 6029   0.901   0.408   2.579
 1493SOL    MW4 6030   0.890   0.380   2.661
 1494SOL     OW 6031   1.133   0.486   2.737
 1494SOL    HW2 6032   1.128   0.577   2.708
 1494SOL    HW3 6033   1.052   0.446   2.705
 1494SOL    MW4 6034   1.122   0.492   2.729
 1495SOL     OW 6035   1.124   0.754   2.656
 1495SOL    HW2 6036   1.195   0.805   2.696
 1495SOL    HW3 6037   1.143   0.758   2.562
 1495SOL    MW4 6038   1.136   0.761   2.649
 1496SOL     OW 6039   0.901   0.872   2.755
 1496SOL    HW2 6040   0.916   0.893   2.847
 1496SOL    HW3 6041   0.980   0.825   2.727
 1496SOL    MW4 6042   0.913   0.868   2.763
 1497SOL     OW 6043   0.881   1.136   2.690
 1497SOL    HW2 6044   0.894   1.042   2.696
 1497SOL    HW3 6045   0.909   1.158   2.601
 1497SOL    MW4 6046   0.886   1.127   2.679
 1498SOL     OW 6047   1.109   1.240   2.804
 1498SOL    HW2 6048   1.118   1.310   2.739
 1498SOL    HW3 6049   1.023   1.201   2.785
 1498SOL    MW4 6050   1.099   1.244   2.793
 1499SOL     OW 6051   1.122   1.478   2.641
 1499SOL    HW2 6052   1.047   1.535   2.656
 1499SOL    HW3 6053   1.134   1.478   2.546
 1499SOL    MW4 6054   1.113   1.486   2.630
 1500SOL     OW 6055   0.899   1.634   2.709
 1500SOL    HW2 6056   0.895   1.639   2.805
 1500SOL    HW3 6057   0.836   1.567   2.686
 1500SOL    MW4 6058   0.890   1.626   2.719
 1501SOL     OW 6059   0.884   1.908   2.609
 1501SOL    HW2 6060   0.954   1.960   2.648
 1501SOL    HW3 6061   0.910   1.817   2.625
 1501SOL    MW4 6062   0.897   1.903   2.616
 1502SOL     OW 6063   1.101   2.062   2.716
 1502SOL    HW2 6064   1.184   2.023   2.692
 1502SOL    HW3 6065   1.102   2.149   2.674
 1502SOL    MW4 6066   1.112   2.069   2.707
 1503SOL     OW 6067   1.124   2.318   2.619
 1503SOL    HW2 6068   1.202   2.363   2.651
 1503SOL    HW3 6069   1.118   2.343   2.527
 1503SOL    MW4 6070   1.133   2.327   2.611
 1504SOL     OW 6071   0.904   2.409   2.743
 1504SOL    HW2 6072   0.902   2.499   2.712
 1504SOL    HW3 6073   0.979   2.370   2.698
 1504SOL    MW4 6074   0.914   2.416   2.733
 1505SOL     OW 6075   0.874   2.673   2.635
 1505SOL    HW2 6076   0.947   2.714   2.680
 1505SOL    HW3 6077   0.796   2.710   2.676
 1505SOL    MW4 6078   0.873   2.683   2.646
 1506SOL     OW 6079   1.083   2.832   2.735
 1506SOL    HW2 6080   1.106   2.825   2.828
 1506SOL    HW3 6081   1.159   2.795   2.689
 1506SOL    MW4 6082   1.096   2.826   2.741
 1507SOL     OW 6083   1.148   3.096   2.655
 1507SOL    HW2 6084   1.122   3.007   2.677
 1507SOL    HW3 6085   1.136   3.101   2.560
 1507SOL    MW4 6086   1.143   3.085   2.645
 1508SOL     OW 6087   0.919   3.208   2.767
 1508SOL    HW2 6088   0.903   3.287   2.715
 1508SOL    HW3 6089   1.006   3.179   2.741
 1508SOL    MW4 6090   0.929   3.215   2.757
 1509SOL     OW 6091   0.887   3.462   2.637
 1509SOL    HW2 6092   0.960   3.509   2.676
 1509SOL    HW3 6093   0.810   3.512   2.664
 1509SOL    MW4 6094   0.886   3.475   2.646
 1510SOL     OW 6095   1.102   3.599   2.774
 1510SOL    HW2 6096   1.101   3.626   2.866
 1510SOL    HW3 6097   1.100   3.682   2.725
 1510SOL    MW4 6098   1.102   3.614   2.780
 1511SOL     OW 6099   1.098   3.851   2.622
 1511SOL    HW2 6100   1.178   3.889   2.659
 1511SOL    HW3 6101   1.111   3.859   2.527
 1511SOL    MW4 6102   1.110   3.857   2.614
 1512SOL     OW 6103   0.893   4.008   2.729
 1512SOL    HW2 6104   0.957   3.963   2.674
 1512SOL    HW3 6105   0.809   3.968   2.704
 1512SOL    MW4 6106   0.890   3.997   2.718
 1513SOL     OW 6107   0.888   4.266   2.665
 1513SOL    HW2 6108   0.892   4.173   2.689
 1513SOL    HW3 6109   0.884   4.265   2.569
 1513SOL    MW4 6110   0.888   4.253   2.655
 1514SOL     OW 6111   1.144   4.351   2.722
 1514SOL    HW2 6112   1.137   4.378   2.813
 1514SOL    HW3 6113   1.055   4.327   2.697
 1514SOL    MW4 6114   1.131   4.351   2.731
 1515SOL     OW 6115   1.593   4.643   2.655
 1515SOL    HW2 6116   1.588   4.549   2.671
 1515SOL    HW3 6117   1.581   4.652   2.561
 1515SOL    MW4 6118   1.591   4.632   2.645
 1516SOL     OW 6119   1.351   0.086   2.746
 1516SOL    HW2 6120   1.350   0.171   2.702
 1516SOL    HW3 6121   1.436   0.049   2.726
 1516SOL    MW4 6122   1.362   0.093   2.737
 1517SOL     OW 6123   1.360   0.344   2.646
 1517SOL    HW2 6124   1.437   0.387   2.682
 1517SOL    HW3 6125   1.286   0.396   2.678
 1517SOL    MW4 6126   1.360   0.356   2.655
 1518SOL     OW 6127   1.566   0.501   2.735
 1518SOL    HW2 6128   1.641   0.458   2.694
 1518SOL    HW3 6129   1.565   0.589   2.695
 1518SOL    MW4 6130   1.576   0.507   2.724
 1519SOL     OW 6131   1.571   0.749   2.637
 1519SOL    HW2 6132   1.490   0.778   2.680
 1519SOL    HW3 6133   1.566   0.787   2.549
 1519SOL    MW4 6134   1.559   0.758   2.631
 1520SOL     OW 6135   1.337   0.859   2.764
 1520SOL    HW2 6136   1.328   0.833   2.856
 1520SOL    HW3 6137   1.331   0.955   2.766
 1520SOL    MW4 6138   1.335   0.869   2.776
 1521SOL     OW 6139   1.335   1.125   2.679
 1521SOL    HW2 6140   1.413   1.167   2.716
 1521SOL    HW3 6141   1.262   1.163   2.728
 1521SOL    MW4 6142   1.335   1.135   2.691
 1522SOL     OW 6143   1.558   1.260   2.777
 1522SOL    HW2 6144   1.578   1.271   2.870
 1522SOL    HW3 6145   1.639   1.228   2.738
 1522SOL    MW4 6146   1.571   1.257   2.784
 1523SOL     OW 6147   1.515   1.539   2.694
 1523SOL    HW2 6148   1.527   1.446   2.716
 1523SOL    HW3 6149   1.510   1.540   2.598
 1523SOL    MW4 6150   1.516   1.526   2.684
 1524SOL     OW 6151   1.300   1.665   2.776
 1524SOL    HW2 6152   1.380   1.625   2.743
 1524SOL    HW3 6153   1.230   1.605   2.749
 1524SOL    MW4 6154   1.301   1.652   2.768
 1525SOL     OW 6155   1.342   1.924   2.641
 1525SOL    HW2 6156   1.316   1.841   2.679
 1525SOL    HW3 6157   1.337   1.911   2.547
 1525SOL    MW4 6158   1.338   1.911   2.634
 1526SOL     OW 6159   1.584   2.067   2.742
 1526SOL    HW2 6160   1.662   2.038   2.695
 1526SOL    HW3 6161   1.515   2.006   2.713
 1526SOL    MW4 6162   1.585   2.055   2.732
 1527SOL     OW 6163   1.562   2.317   2.654
 1527SOL    HW2 6164   1.644   2.356   2.682
 1527SOL    HW3 6165   1.565   2.227   2.688
 1527SOL    MW4 6166   1.573   2.310   2.662
 1528SOL     OW 6167   1.332   2.452   2.719
 1528SOL    HW2 6168   1.338   2.539   2.679
 1528SOL    HW3 6169   1.416   2.411   2.698
 1528SOL    MW4 6170   1.344   2.458   2.711
 1529SOL     OW 6171   1.329   2.709   2.634
 1529SOL    HW2 6172   1.409   2.736   2.678
 1529SOL    HW3 6173   1.351   2.707   2.541
 1529SOL    MW4 6174   1.342   2.712   2.628
 1530SOL     OW 6175   1.573   2.787   2.713
 1530SOL    HW2 6176   1.569   2.818   2.803
 1530SOL    HW3 6177   1.663   2.757   2.702
 1530SOL    MW4 6178   1.584   2.787   2.723
 1531SOL     OW 6179   1.597   3.047   2.609
 1531SOL    HW2 6180   1.667   3.093   2.655
 1531SOL    HW3 6181   1.593   2.961   2.651
 1531SOL    MW4 6182   1.606   3.042   2.621
 1532SOL     OW 6183   1.387   3.208   2.711
 1532SOL    HW2 6184   1.448   3.151   2.664
 1532SOL    HW3 6185   1.303   3.163   2.704
 1532SOL    MW4 6186   1.384   3.194   2.704
 1533SOL     OW 6187   1.302   3.459   2.618
 1533SOL    HW2 6188   1.319   3.370   2.647
 1533SOL    HW3 6189   1.230   3.490   2.672
 1533SOL    MW4 6190   1.295   3.452   2.629
 1534SOL     OW 6191   1.556   3.601   2.701
 1534SOL    HW2 6192   1.633   3.551   2.674
 1534SOL    HW3 6193   1.482   3.544   2.680
 1534SOL    MW4 6194   1.556   3.587   2.695
 1535SOL     OW 6195   1.581   3.904   2.648
 1535SOL    HW2 6196   1.495   3.930   2.679
 1535SOL    HW3 6197   1.587   3.811   2.667
 1535SOL    MW4 6198   1.571   3.895   2.655
 1536SOL     OW 6199   1.337   3.976   2.743
 1536SOL    HW2 6200   1.345   3.982   2.838
 1536SOL    HW3 6201   1.341   4.066   2.712
 1536SOL    MW4 6202   1.339   3.988   2.751
 1537SOL     OW 6203   1.379   4.239   2.641
 1537SOL    HW2 6204   1.294   4.278   2.664
 1537SOL    HW3 6205   1.382   4.243   2.545
 1537SOL    MW4 6206   1.368   4.245   2.631
 1538SOL     OW 6207   1.571   4.383   2.737
 1538SOL    HW2 6208   1.552   4.406   2.828
 1538SOL    HW3 6209   1.493   4.335   2.708
 1538SOL    MW4 6210   1.558   4.379   2.746
 1539SOL     OW 6211   2.016   0.050   2.649
 1539SOL    HW2 6212   2.102   0.072   2.685
 1539SOL    HW3 6213   2.031   0.038   2.555
 1539SOL    MW4 6214   2.029   0.051   2.641
 1540SOL     OW 6215   1.789   0.149   2.771
 1540SOL    HW2 6216   1.873   0.112   2.744
 1540SOL    HW3 6217   1.724   0.099   2.722
 1540SOL    MW4 6218   1.791   0.137   2.761
 1541SOL     OW 6219   1.769   0.374   2.615
 1541SOL    HW2 6220   1.854   0.408   2.643
 1541SOL    HW3 6221   1.753   0.298   2.672
 1541SOL    MW4 6222   1.778   0.368   2.626
 1542SOL     OW 6223   1.984   0.492   2.745
 1542SOL    HW2 6224   2.064   0.448   2.715
 1542SOL    HW3 6225   1.998   0.584   2.720
 1542SOL    MW4 6226   1.996   0.499   2.738
 1543SOL     OW 6227   2.029   0.754   2.647
 1543SOL    HW2 6228   1.949   0.800   2.671
 1543SOL    HW3 6229   2.029   0.755   2.551
 1543SOL    MW4 6230   2.019   0.760   2.637
 1544SOL     OW 6231   1.807   0.875   2.734
 1544SOL    HW2 6232   1.806   0.961   2.693
 1544SOL    HW3 6233   1.742   0.824   2.685
 1544SOL    MW4 6234   1.799   0.880   2.722
 1545SOL     OW 6235   1.780   1.168   2.642
 1545SOL    HW2 6236   1.863   1.209   2.665
 1545SOL    HW3 6237   1.776   1.175   2.546
 1545SOL    MW4 6238   1.790   1.174   2.632
 1546SOL     OW 6239   2.011   1.304   2.718
 1546SOL    HW2 6240   2.021   1.309   2.813
 1546SOL    HW3 6241   2.097   1.274   2.687
 1546SOL    MW4 6242   2.024   1.301   2.727
 1547SOL     OW 6243   2.000   1.556   2.603
 1547SOL    HW2 6244   1.926   1.601   2.642
 1547SOL    HW3 6245   1.996   1.467   2.639
 1547SOL    MW4 6246   1.990   1.550   2.613
 1548SOL     OW 6247   1.774   1.708   2.719
 1548SOL    HW2 6248   1.772   1.700   2.815
 1548SOL    HW3 6249   1.696   1.663   2.690
 1548SOL    MW4 6250   1.764   1.701   2.728
 1549SOL     OW 6251   1.794   1.958   2.612
 1549SOL    HW2 6252   1.878   1.994   2.640
 1549SOL    HW3 6253   1.783   1.878   2.663
 1549SOL    MW4 6254   1.804   1.952   2.622
 1550SOL     OW 6255   2.041   2.066   2.691
 1550SOL    HW2 6256   2.045   2.088   2.785
 1550SOL    HW3 6257   2.035   2.151   2.647
 1550SOL    MW4 6258   2.041   2.080   2.698
 1551SOL     OW 6259   2.046   2.326   2.577
 1551SOL    HW2 6260   2.126   2.374   2.600
 1551SOL    HW3 6261   2.042   2.333   2.481
 1551SOL    MW4 6262   2.056   2.333   2.567
 1552SOL     OW 6263   1.823   2.409   2.713
 1552SOL    HW2 6264   1.833   2.391   2.806
 1552SOL    HW3 6265   1.911   2.396   2.677
 1552SOL    MW4 6266   1.836   2.405   2.720
 1553SOL     OW 6267   1.832   2.682   2.643
 1553SOL    HW2 6268   1.826   2.589   2.663
 1553SOL    HW3 6269   1.845   2.686   2.549
 1553SOL    MW4 6270   1.833   2.670   2.634
 1554SOL     OW 6271   2.025   2.851   2.751
 1554SOL    HW2 6272   2.105   2.807   2.721
 1554SOL    HW3 6273   1.954   2.798   2.716
 1554SOL    MW4 6274   2.026   2.838   2.742
 1555SOL     OW 6275   2.045   3.121   2.641
 1555SOL    HW2 6276   2.049   3.034   2.679
 1555SOL    HW3 6277   2.054   3.107   2.547
 1555SOL    MW4 6278   2.046   3.108   2.633
 1556SOL     OW 6279   1.788   3.219   2.702
 1556SOL    HW2 6280   1.804   3.311   2.681
 1556SOL    HW3 6281   1.873   3.176   2.689
 1556SOL    MW4 6282   1.801   3.226   2.698
 1557SOL     OW 6283   1.803   3.479   2.622
 1557SOL    HW2 6284   1.882   3.528   2.646
 1557SOL    HW3 6285   1.799   3.483   2.527
 1557SOL    MW4 6286   1.813   3.486   2.613
 1558SOL     OW 6287   2.017   3.630   2.708
 1558SOL    HW2 6288   2.029   3.615   2.802
 1558SOL    HW3 6289   2.079   3.571   2.666
 1558SOL    MW4 6290   2.027   3.620   2.715
 1559SOL     OW 6291   2.012   3.900   2.640
 1559SOL    HW2 6292   1.943   3.947   2.687
 1559SOL    HW3 6293   2.004   3.809   2.670
 1559SOL    MW4 6294   2.002   3.894   2.650
 1560SOL     OW 6295   1.796   4.017   2.798
 1560SOL    HW2 6296   1.824   4.097   2.753
 1560SOL    HW3 6297   1.730   3.979   2.740
 1560SOL    MW4 6298   1.791   4.023   2.785
 1561SOL     OW 6299   1.841   4.273   2.648
 1561SOL    HW2 6300   1.749   4.293   2.665
 1561SOL    HW3 6301   1.847   4.265   2.553
 1561SOL    MW4 6302   1.830   4.275   2.638
 1562SOL     OW 6303   2.041   4.447   2.744
 1562SOL    HW2 6304   1.967   4.402   2.702
 1562SOL    HW3 6305   2.037   4.536   2.710
 1562SOL    MW4 6306   2.031   4.452   2.734
 1563SOL     OW 6307   2.492   4.641   2.646
 1563SOL    HW2 6308   2.555   4.700   2.687
 1563SOL    HW3 6309   2.503   4.656   2.552
 1563SOL    MW4 6310   2.501   4.651   2.639
 1564SOL     OW 6311   2.271   0.121   2.744
 1564SOL    HW2 6312   2.267   0.097   2.837
 1564SOL    HW3 6313   2.334   0.060   2.706
 1564SOL    MW4 6314   2.279   0.110   2.751
 1565SOL     OW 6315   2.221   0.358   2.633
 1565SOL    HW2 6316   2.266   0.278   2.659
 1565SOL    HW3 6317   2.212   0.351   2.538
 1565SOL    MW4 6318   2.226   0.346   2.623
 1566SOL     OW 6319   2.457   0.502   2.722
 1566SOL    HW2 6320   2.458   0.593   2.695
 1566SOL    HW3 6321   2.374   0.468   2.688
 1566SOL    MW4 6322   2.446   0.509   2.714
 1567SOL     OW 6323   2.466   0.759   2.629
 1567SOL    HW2 6324   2.404   0.829   2.648
 1567SOL    HW3 6325   2.465   0.752   2.534
 1567SOL    MW4 6326   2.458   0.767   2.619
 1568SOL     OW 6327   2.259   0.925   2.703
 1568SOL    HW2 6328   2.274   0.928   2.797
 1568SOL    HW3 6329   2.180   0.872   2.693
 1568SOL    MW4 6330   2.250   0.918   2.714
 1569SOL     OW 6331   2.245   1.176   2.575
 1569SOL    HW2 6332   2.265   1.086   2.600
 1569SOL    HW3 6333   2.232   1.172   2.480
 1569SOL    MW4 6334   2.246   1.163   2.566
 1570SOL     OW 6335   2.486   1.264   2.709
 1570SOL    HW2 6336   2.563   1.224   2.668
 1570SOL    HW3 6337   2.411   1.227   2.661
 1570SOL    MW4 6338   2.486   1.254   2.697
 1571SOL     OW 6339   2.478   1.569   2.658
 1571SOL    HW2 6340   2.397   1.599   2.700
 1571SOL    HW3 6341   2.476   1.474   2.669
 1571SOL    MW4 6342   2.467   1.560   2.665
 1572SOL     OW 6343   2.215   1.683   2.736
 1572SOL    HW2 6344   2.233   1.767   2.693
 1572SOL    HW3 6345   2.143   1.645   2.685
 1572SOL    MW4 6346   2.208   1.689   2.724
 1573SOL     OW 6347   2.257   1.917   2.599
 1573SOL    HW2 6348   2.183   1.960   2.641
 1573SOL    HW3 6349   2.248   1.939   2.506
 1573SOL    MW4 6350   2.246   1.926   2.592
 1574SOL     OW 6351   2.482   2.035   2.715
 1574SOL    HW2 6352   2.478   2.115   2.662
 1574SOL    HW3 6353   2.402   1.988   2.693
 1574SOL    MW4 6354   2.471   2.039   2.705
 1575SOL     OW 6355   2.510   2.300   2.619
 1575SOL    HW2 6356   2.578   2.363   2.638
 1575SOL    HW3 6357   2.498   2.305   2.524
 1575SOL    MW4 6358   2.517   2.309   2.609
 1576SOL     OW 6359   2.283   2.439   2.679
 1576SOL    HW2 6360   2.282   2.456   2.774
 1576SOL    HW3 6361   2.369   2.401   2.663
 1576SOL    MW4 6362   2.294   2.436   2.690
 1577SOL     OW 6363   2.252   2.732   2.644
 1577SOL    HW2 6364   2.334   2.772   2.675
 1577SOL    HW3 6365   2.273   2.639   2.637
 1577SOL    MW4 6366   2.266   2.725   2.647
 1578SOL     OW 6367   2.484   2.843   2.754
 1578SOL    HW2 6368   2.567   2.800   2.736
 1578SOL    HW3 6369   2.493   2.930   2.715
 1578SOL    MW4 6370   2.496   2.849   2.747
 1579SOL     OW 6371   2.477   3.115   2.642
 1579SOL    HW2 6372   2.402   3.150   2.691
 1579SOL    HW3 6373   2.455   3.131   2.551
 1579SOL    MW4 6374   2.464   3.122   2.637
 1580SOL     OW 6375   2.247   3.248   2.762
 1580SOL    HW2 6376   2.257   3.222   2.854
 1580SOL    HW3 6377   2.174   3.196   2.730
 1580SOL    MW4 6378   2.238   3.238   2.770
 1581SOL     OW 6379   2.255   3.480   2.600
 1581SOL    HW2 6380   2.336   3.527   2.621
 1581SOL    HW3 6381   2.253   3.408   2.663
 1581SOL    MW4 6382   2.265   3.477   2.611
 1582SOL     OW 6383   2.468   3.622   2.685
 1582SOL    HW2 6384   2.451   3.624   2.779
 1582SOL    HW3 6385   2.461   3.714   2.658
 1582SOL    MW4 6386   2.465   3.635   2.693
 1583SOL     OW 6387   2.443   3.898   2.628
 1583SOL    HW2 6388   2.520   3.943   2.663
 1583SOL    HW3 6389   2.371   3.932   2.680
 1583SOL    MW4 6390   2.444   3.908   2.640
 1584SOL     OW 6391   2.229   4.032   2.750
 1584SOL    HW2 6392   2.214   4.023   2.845
 1584SOL    HW3 6393   2.151   3.995   2.710
 1584SOL    MW4 6394   2.217   4.026   2.757
 1585SOL     OW 6395   2.235   4.285   2.621
 1585SOL    HW2 6396   2.237   4.205   2.674
 1585SOL    HW3 6397   2.170   4.340   2.664
 1585SOL    MW4 6398   2.227   4.282   2.634
 1586SOL     OW 6399   2.420   4.404   2.775
 1586SOL    HW2 6400   2.348   4.370   2.722
 1586SOL    HW3 6401   2.446   4.485   2.731
 1586SOL    MW4 6402   2.414   4.411   2.762
 1587SOL     OW 6403   2.926   0.002   2.612
 1587SOL    HW2 6404   3.007   0.042   2.644
 1587SOL    HW3 6405   2.934   0.005   2.517
 1587SOL    MW4 6406   2.938   0.007   2.604
 1588SOL     OW 6407   2.688   0.144   2.738
 1588SOL    HW2 6408   2.691   0.129   2.832
 1588SOL    HW3 6409   2.766   0.099   2.704
 1588SOL    MW4 6410   2.699   0.136   2.746
 1589SOL     OW 6411   2.639   0.380   2.579
 1589SOL    HW2 6412   2.642   0.298   2.627
 1589SOL    HW3 6413   2.576   0.434   2.627
 1589SOL    MW4 6414   2.631   0.377   2.592
 1590SOL     OW 6415   2.897   0.474   2.697
 1590SOL    HW2 6416   2.892   0.569   2.695
 1590SOL    HW3 6417   2.830   0.444   2.636
 1590SOL    MW4 6418   2.888   0.482   2.689
 1591SOL     OW 6419   2.888   0.756   2.632
 1591SOL    HW2 6420   2.965   0.811   2.648
 1591SOL    HW3 6421   2.814   0.812   2.658
 1591SOL    MW4 6422   2.888   0.771   2.638
 1592SOL     OW 6423   2.674   0.915   2.724
 1592SOL    HW2 6424   2.676   0.889   2.816
 1592SOL    HW3 6425   2.615   0.853   2.682
 1592SOL    MW4 6426   2.667   0.904   2.730
 1593SOL     OW 6427   2.698   1.152   2.594
 1593SOL    HW2 6428   2.772   1.192   2.640
 1593SOL    HW3 6429   2.687   1.067   2.636
 1593SOL    MW4 6430   2.706   1.146   2.606
 1594SOL     OW 6431   2.900   1.295   2.718
 1594SOL    HW2 6432   2.896   1.295   2.814
 1594SOL    HW3 6433   2.984   1.254   2.698
 1594SOL    MW4 6434   2.910   1.289   2.728
 1595SOL     OW 6435   2.940   1.548   2.622
 1595SOL    HW2 6436   2.862   1.600   2.640
 1595SOL    HW3 6437   2.924   1.464   2.664
 1595SOL    MW4 6438   2.928   1.544   2.630
 1596SOL     OW 6439   2.725   1.694   2.724
 1596SOL    HW2 6440   2.715   1.721   2.815
 1596SOL    HW3 6441   2.653   1.632   2.710
 1596SOL    MW4 6442   2.714   1.689   2.734
 1597SOL     OW 6443   2.702   1.925   2.586
 1597SOL    HW2 6444   2.719   1.840   2.627
 1597SOL    HW3 6445   2.638   1.967   2.644
 1597SOL    MW4 6446   2.696   1.919   2.599
 1598SOL     OW 6447   2.910   2.054   2.734
 1598SOL    HW2 6448   2.917   2.141   2.696
 1598SOL    HW3 6449   2.842   2.010   2.682
 1598SOL    MW4 6450   2.902   2.060   2.722
 1599SOL     OW 6451   2.934   2.292   2.608
 1599SOL    HW2 6452   3.016   2.337   2.629
 1599SOL    HW3 6453   2.866   2.350   2.643
 1599SOL    MW4 6454   2.936   2.306   2.615
 1600SOL     OW 6455   2.719   2.451   2.684
 1600SOL    HW2 6456   2.714   2.454   2.780
 1600SOL    HW3 6457   2.722   2.543   2.658
 1600SOL    MW4 6458   2.719   2.463   2.693
 1601SOL     OW 6459   2.723   2.735   2.649
 1601SOL    HW2 6460   2.801   2.789   2.661
 1601SOL    HW3 6461   2.707   2.738   2.554
 1601SOL    MW4 6462   2.731   2.743   2.638
 1602SOL     OW 6463   2.961   2.851   2.693
 1602SOL    HW2 6464   2.948   2.849   2.788
 1602SOL    HW3 6465   2.968   2.944   2.672
 1602SOL    MW4 6466   2.960   2.863   2.703
 1603SOL     OW 6467   2.968   3.110   2.637
 1603SOL    HW2 6468   2.894   3.164   2.665
 1603SOL    HW3 6469   2.965   3.114   2.541
 1603SOL    MW4 6470   2.958   3.118   2.628
 1604SOL     OW 6471   2.727   3.236   2.703
 1604SOL    HW2 6472   2.723   3.327   2.673
 1604SOL    HW3 6473   2.643   3.198   2.677
 1604SOL    MW4 6474   2.716   3.243   2.695
 1605SOL     OW 6475   2.697   3.497   2.614
 1605SOL    HW2 6476   2.614   3.541   2.633
 1605SOL    HW3 6477   2.703   3.497   2.519
 1605SOL    MW4 6478   2.687   3.503   2.604
 1606SOL     OW 6479   2.918   3.634   2.713
 1606SOL    HW2 6480   2.924   3.611   2.806
 1606SOL    HW3 6481   2.843   3.584   2.681
 1606SOL    MW4 6482   2.909   3.624   2.721
 1607SOL     OW 6483   2.918   3.889   2.606
 1607SOL    HW2 6484   2.989   3.936   2.650
 1607SOL    HW3 6485   2.912   3.805   2.652
 1607SOL    MW4 6486   2.927   3.884   2.618
 1608SOL     OW 6487   2.685   3.982   2.722
 1608SOL    HW2 6488   2.675   4.077   2.718
 1608SOL    HW3 6489   2.765   3.965   2.673
 1608SOL    MW4 6490   2.694   3.992   2.715
 1609SOL     OW 6491   2.650   4.255   2.676
 1609SOL    HW2 6492   2.723   4.309   2.704
 1609SOL    HW3 6493   2.572   4.301   2.708
 1609SOL    MW4 6494   2.649   4.268   2.684
 1610SOL     OW 6495   2.875   4.427   2.741
 1610SOL    HW2 6496   2.850   4.441   2.833
 1610SOL    HW3 6497   2.893   4.514   2.708
 1610SOL    MW4 6498   2.874   4.440   2.749
 1611SOL     OW 6499   3.380   4.659   2.584
 1611SOL    HW2 6500   3.368   4.574   2.626
 1611SOL    HW3 6501   3.315   4.716   2.625
 1611SOL    MW4 6502   3.370   4.656   2.595
 1612SOL     OW 6503   3.137   0.141   2.700
 1612SOL    HW2 6504   3.130   0.125   2.794
 1612SOL    HW3 6505   3.139   0.237   2.691
 1612SOL    MW4 6506   3.136   0.152   2.711
 1613SOL     OW 6507   3.160   0.408   2.619
 1613SOL    HW2 6508   3.074   0.444   2.642
 1613SOL    HW3 6509   3.153   0.385   2.527
 1613SOL    MW4 6510   3.148   0.410   2.610
 1614SOL     OW 6511   3.377   0.530   2.751
 1614SOL    HW2 6512   3.378   0.623   2.727
 1614SOL    HW3 6513   3.310   0.492   2.696
 1614SOL    MW4 6514   3.368   0.537   2.741
 1615SOL     OW 6515   3.359   0.788   2.655
 1615SOL    HW2 6516   3.434   0.842   2.680
 1615SOL    HW3 6517   3.374   0.767   2.562
 1615SOL    MW4 6518   3.371   0.792   2.646
 1616SOL     OW 6519   3.109   0.893   2.692
 1616SOL    HW2 6520   3.111   0.903   2.787
 1616SOL    HW3 6521   3.183   0.836   2.672
 1616SOL    MW4 6522   3.119   0.887   2.701
 1617SOL     OW 6523   3.125   1.171   2.620
 1617SOL    HW2 6524   3.127   1.077   2.633
 1617SOL    HW3 6525   3.129   1.183   2.525
 1617SOL    MW4 6526   3.126   1.161   2.609
 1618SOL     OW 6527   3.355   1.330   2.690
 1618SOL    HW2 6528   3.384   1.316   2.780
 1618SOL    HW3 6529   3.284   1.267   2.677
 1618SOL    MW4 6530   3.350   1.320   2.700
 1619SOL     OW 6531   3.382   1.593   2.626
 1619SOL    HW2 6532   3.306   1.639   2.662
 1619SOL    HW3 6533   3.372   1.503   2.658
 1619SOL    MW4 6534   3.370   1.587   2.635
 1620SOL     OW 6535   3.151   1.680   2.728
 1620SOL    HW2 6536   3.143   1.762   2.679
 1620SOL    HW3 6537   3.087   1.621   2.687
 1620SOL    MW4 6538   3.141   1.683   2.716
 1621SOL     OW 6539   3.133   1.941   2.613
 1621SOL    HW2 6540   3.201   1.976   2.671
 1621SOL    HW3 6541   3.051   1.960   2.658
 1621SOL    MW4 6542   3.131   1.948   2.626
 1622SOL     OW 6543   3.369   2.049   2.730
 1622SOL    HW2 6544   3.366   2.059   2.825
 1622SOL    HW3 6545   3.383   2.138   2.697
 1622SOL    MW4 6546   3.370   2.062   2.738
 1623SOL     OW 6547   3.386   2.306   2.618
 1623SOL    HW2 6548   3.454   2.365   2.650
 1623SOL    HW3 6549   3.386   2.317   2.523
 1623SOL    MW4 6550   3.395   2.315   2.610
 1624SOL     OW 6551   3.158   2.427   2.708
 1624SOL    HW2 6552   3.153   2.511   2.663
 1624SOL    HW3 6553   3.237   2.385   2.674
 1624SOL    MW4 6554   3.167   2.432   2.698
 1625SOL     OW 6555   3.163   2.687   2.595
 1625SOL    HW2 6556   3.228   2.748   2.632
 1625SOL    HW3 6557   3.079   2.726   2.618
 1625SOL    MW4 6558   3.161   2.700   2.603
 1626SOL     OW 6559   3.392   2.854   2.724
 1626SOL    HW2 6560   3.386   2.845   2.819
 1626SOL    HW3 6561   3.466   2.799   2.699
 1626SOL    MW4 6562   3.401   2.846   2.733
 1627SOL     OW 6563   3.390   3.135   2.653
 1627SOL    HW2 6564   3.406   3.048   2.690
 1627SOL    HW3 6565   3.388   3.121   2.559
 1627SOL    MW4 6566   3.392   3.122   2.646
 1628SOL     OW 6567   3.168   3.254   2.766
 1628SOL    HW2 6568   3.248   3.236   2.715
 1628SOL    HW3 6569   3.101   3.201   2.724
 1628SOL    MW4 6570   3.170   3.244   2.754
 1629SOL     OW 6571   3.130   3.509   2.613
 1629SOL    HW2 6572   3.121   3.440   2.679
 1629SOL    HW3 6573   3.051   3.562   2.623
 1629SOL    MW4 6574   3.118   3.507   2.623
 1630SOL     OW 6575   3.349   3.630   2.732
 1630SOL    HW2 6576   3.353   3.587   2.817
 1630SOL    HW3 6577   3.269   3.596   2.692
 1630SOL    MW4 6578   3.339   3.620   2.738
 1631SOL     OW 6579   3.343   3.911   2.669
 1631SOL    HW2 6580   3.354   3.822   2.702
 1631SOL    HW3 6581   3.359   3.904   2.575
 1631SOL    MW4 6582   3.346   3.898   2.661
 1632SOL     OW 6583   3.118   4.035   2.743
 1632SOL    HW2 6584   3.125   4.123   2.705
 1632SOL    HW3 6585   3.200   3.993   2.719
 1632SOL    MW4 6586   3.130   4.041   2.735
 1633SOL     OW 6587   3.110   4.277   2.619
 1633SOL    HW2 6588   3.031   4.324   2.645
 1633SOL    HW3 6589   3.096   4.256   2.527
 1633SOL    MW4 6590   3.097   4.280   2.610
 1634SOL     OW 6591   3.349   4.414   2.719
 1634SOL    HW2 6592   3.333   4.420   2.813
 1634SOL    HW3 6593   3.266   4.381   2.683
 1634SOL    MW4 6594   3.336   4.411   2.726
 1635SOL     OW 6595   3.829   4.655   2.658
 1635SOL    HW2 6596   3.831   4.572   2.705
 1635SOL    HW3 6597   3.747   4.697   2.685
 1635SOL    MW4 6598   3.819   4.650   2.668
 1636SOL     OW 6599   3.584   0.111   2.728
 1636SOL    HW2 6600   3.571   0.203   2.706
 1636SOL    HW3 6601   3.525   0.063   2.670
 1636SOL    MW4 6602   3.575   0.117   2.718
 1637SOL     OW 6603   3.578   0.382   2.651
 1637SOL    HW2 6604   3.664   0.421   2.669
 1637SOL    HW3 6605   3.515   0.443   2.689
 1637SOL    MW4 6606   3.581   0.395   2.658
 1638SOL     OW 6607   3.810   0.519   2.718
 1638SOL    HW2 6608   3.816   0.514   2.814
 1638SOL    HW3 6609   3.885   0.467   2.688
 1638SOL    MW4 6610   3.821   0.511   2.727
 1639SOL     OW 6611   3.807   0.781   2.630
 1639SOL    HW2 6612   3.730   0.809   2.680
 1639SOL    HW3 6613   3.814   0.687   2.649
 1639SOL    MW4 6614   3.798   0.772   2.639
 1640SOL     OW 6615   3.589   0.913   2.727
 1640SOL    HW2 6616   3.605   0.921   2.821
 1640SOL    HW3 6617   3.590   1.003   2.695
 1640SOL    MW4 6618   3.591   0.926   2.735
 1641SOL     OW 6619   3.587   1.173   2.620
 1641SOL    HW2 6620   3.659   1.212   2.670
 1641SOL    HW3 6621   3.510   1.222   2.647
 1641SOL    MW4 6622   3.587   1.185   2.630
 1642SOL     OW 6623   3.825   1.269   2.731
 1642SOL    HW2 6624   3.912   1.240   2.704
 1642SOL    HW3 6625   3.809   1.347   2.679
 1642SOL    MW4 6626   3.835   1.275   2.721
 1643SOL     OW 6627   3.814   1.518   2.622
 1643SOL    HW2 6628   3.893   1.565   2.652
 1643SOL    HW3 6629   3.742   1.574   2.649
 1643SOL    MW4 6630   3.815   1.532   2.630
 1644SOL     OW 6631   3.637   1.715   2.688
 1644SOL    HW2 6632   3.654   1.803   2.655
 1644SOL    HW3 6633   3.565   1.683   2.635
 1644SOL    MW4 6634   3.630   1.722   2.677
 1645SOL     OW 6635   3.624   1.992   2.622
 1645SOL    HW2 6636   3.539   2.013   2.661
 1645SOL    HW3 6637   3.607   1.989   2.528
 1645SOL    MW4 6638   3.611   1.995   2.615
 1646SOL     OW 6639   3.846   2.072   2.744
 1646SOL    HW2 6640   3.912   2.013   2.707
 1646SOL    HW3 6641   3.763   2.042   2.706
 1646SOL    MW4 6642   3.844   2.060   2.734
 1647SOL     OW 6643   3.808   2.325   2.627
 1647SOL    HW2 6644   3.817   2.234   2.656
 1647SOL    HW3 6645   3.788   2.318   2.534
 1647SOL    MW4 6646   3.806   2.312   2.618
 1648SOL     OW 6647   3.600   2.467   2.730
 1648SOL    HW2 6648   3.602   2.470   2.825
 1648SOL    HW3 6649   3.683   2.426   2.705
 1648SOL    MW4 6650   3.611   2.462   2.739
 1649SOL     OW 6651   3.627   2.725   2.635
 1649SOL    HW2 6652   3.619   2.633   2.660
 1649SOL    HW3 6653   3.612   2.726   2.540
 1649SOL    MW4 6654   3.624   2.713   2.626
 1650SOL     OW 6655   3.823   2.875   2.785
 1650SOL    HW2 6656   3.907   2.853   2.746
 1650SOL    HW3 6657   3.759   2.824   2.736
 1650SOL    MW4 6658   3.826   2.866   2.774
 1651SOL     OW 6659   3.844   3.125   2.668
 1651SOL    HW2 6660   3.776   3.178   2.710
 1651SOL    HW3 6661   3.836   3.039   2.709
 1651SOL    MW4 6662   3.834   3.121   2.679
 1652SOL     OW 6663   3.614   3.308   2.728
 1652SOL    HW2 6664   3.611   3.389   2.676
 1652SOL    HW3 6665   3.547   3.252   2.688
 1652SOL    MW4 6666   3.605   3.312   2.716
 1653SOL     OW 6667   3.612   3.581   2.598
 1653SOL    HW2 6668   3.681   3.610   2.658
 1653SOL    HW3 6669   3.531   3.604   2.642
 1653SOL    MW4 6670   3.611   3.588   2.611
 1654SOL     OW 6671   3.809   3.635   2.768
 1654SOL    HW2 6672   3.878   3.589   2.720
 1654SOL    HW3 6673   3.805   3.721   2.728
 1654SOL    MW4 6674   3.818   3.640   2.756
 1655SOL     OW 6675   3.799   3.876   2.636
 1655SOL    HW2 6676   3.882   3.916   2.664
 1655SOL    HW3 6677   3.731   3.931   2.674
 1655SOL    MW4 6678   3.801   3.888   2.644
 1656SOL     OW 6679   3.589   4.015   2.749
 1656SOL    HW2 6680   3.592   4.099   2.704
 1656SOL    HW3 6681   3.500   3.983   2.733
 1656SOL    MW4 6682   3.577   4.022   2.741
 1657SOL     OW 6683   3.590   4.268   2.654
 1657SOL    HW2 6684   3.522   4.327   2.685
 1657SOL    HW3 6685   3.591   4.278   2.559
 1657SOL    MW4 6686   3.581   4.277   2.645
 1658SOL     OW 6687   3.817   4.410   2.777
 1658SOL    HW2 6688   3.893   4.362   2.745
 1658SOL    HW3 6689   3.742   4.363   2.741
 1658SOL    MW4 6690   3.817   4.398   2.768
 1659SOL     OW 6691   4.305   4.650   2.684
 1659SOL    HW2 6692   4.237   4.700   2.729
 1659SOL    HW3 6693   4.386   4.697   2.705
 1659SOL    MW4 6694   4.307   4.663   2.693
 1660SOL     OW 6695   4.070   0.117   2.746
 1660SOL    HW2 6696   4.055   0.124   2.841
 1660SOL    HW3 6697   3.994   0.068   2.713
 1660SOL    MW4 6698   4.058   0.111   2.754
 1661SOL     OW 6699   4.036   0.369   2.637
 1661SOL    HW2 6700   4.048   0.281   2.672
 1661SOL    HW3 6701   4.025   0.356   2.543
 1661SOL    MW4 6702   4.036   0.356   2.629
 1662SOL     OW 6703   4.254   0.496   2.746
 1662SOL    HW2 6704   4.185   0.447   2.701
 1662SOL    HW3 6705   4.335   0.467   2.703
 1662SOL    MW4 6706   4.255   0.485   2.734
 1663SOL     OW 6707   4.257   0.767   2.671
 1663SOL    HW2 6708   4.263   0.675   2.695
 1663SOL    HW3 6709   4.266   0.768   2.576
 1663SOL    MW4 6710   4.259   0.755   2.662
 1664SOL     OW 6711   4.040   0.896   2.778
 1664SOL    HW2 6712   4.108   0.840   2.742
 1664SOL    HW3 6713   3.958   0.861   2.742
 1664SOL    MW4 6714   4.038   0.884   2.768
 1665SOL     OW 6715   4.065   1.156   2.642
 1665SOL    HW2 6716   4.136   1.205   2.684
 1665SOL    HW3 6717   4.066   1.071   2.685
 1665SOL    MW4 6718   4.075   1.151   2.653
 1666SOL     OW 6719   4.272   1.323   2.782
 1666SOL    HW2 6720   4.294   1.414   2.758
 1666SOL    HW3 6721   4.324   1.270   2.722
 1666SOL    MW4 6722   4.282   1.328   2.771
 1667SOL     OW 6723   4.304   1.577   2.667
 1667SOL    HW2 6724   4.395   1.597   2.691
 1667SOL    HW3 6725   4.303   1.578   2.572
 1667SOL    MW4 6726   4.316   1.580   2.658
 1668SOL     OW 6727   4.045   1.675   2.711
 1668SOL    HW2 6728   4.046   1.684   2.806
 1668SOL    HW3 6729   4.129   1.633   2.690
 1668SOL    MW4 6730   4.056   1.670   2.721
 1669SOL     OW 6731   4.084   1.930   2.629
 1669SOL    HW2 6732   4.147   1.967   2.690
 1669SOL    HW3 6733   4.077   1.838   2.655
 1669SOL    MW4 6734   4.091   1.922   2.641
 1670SOL     OW 6735   4.255   2.055   2.804
 1670SOL    HW2 6736   4.239   2.139   2.761
 1670SOL    HW3 6737   4.330   2.018   2.757
 1670SOL    MW4 6738   4.263   2.061   2.792
 1671SOL     OW 6739   4.248   2.322   2.686
 1671SOL    HW2 6740   4.173   2.381   2.677
 1671SOL    HW3 6741   4.262   2.288   2.597
 1671SOL    MW4 6742   4.240   2.325   2.673
 1672SOL     OW 6743   4.016   2.473   2.718
 1672SOL    HW2 6744   4.021   2.448   2.810
 1672SOL    HW3 6745   3.955   2.411   2.679
 1672SOL    MW4 6746   4.009   2.462   2.725
 1673SOL     OW 6747   4.049   2.743   2.611
 1673SOL    HW2 6748   4.132   2.772   2.648
 1673SOL    HW3 6749   4.037   2.654   2.647
 1673SOL    MW4 6750   4.058   2.735   2.621
 1674SOL     OW 6751   4.312   2.838   2.702
 1674SOL    HW2 6752   4.298   2.839   2.796
 1674SOL    HW3 6753   4.305   2.930   2.676
 1674SOL    MW4 6754   4.309   2.851   2.711
 1675SOL     OW 6755   4.276   3.092   2.621
 1675SOL    HW2 6756   4.201   3.144   2.651
 1675SOL    HW3 6757   4.262   3.083   2.527
 1675SOL    MW4 6758   4.264   3.098   2.613
 1676SOL     OW 6759   4.087   3.254   2.743
 1676SOL    HW2 6760   4.066   3.346   2.726
 1676SOL    HW3 6761   4.004   3.208   2.733
 1676SOL    MW4 6762   4.073   3.260   2.740
 1677SOL     OW 6763   4.047   3.520   2.637
 1677SOL    HW2 6764   4.118   3.570   2.678
 1677SOL    HW3 6765   4.077   3.508   2.546
 1677SOL    MW4 6766   4.061   3.525   2.630
 1678SOL     OW 6767   4.249   3.656   2.741
 1678SOL    HW2 6768   4.252   3.674   2.835
 1678SOL    HW3 6769   4.323   3.598   2.726
 1678SOL    MW4 6770   4.259   3.651   2.751
 1679SOL     OW 6771   4.252   3.917   2.641
 1679SOL    HW2 6772   4.243   3.823   2.656
 1679SOL    HW3 6773   4.340   3.938   2.673
 1679SOL    MW4 6774   4.262   3.908   2.647
 1680SOL     OW 6775   4.011   4.028   2.748
 1680SOL    HW2 6776   4.022   4.025   2.843
 1680SOL    HW3 6777   4.093   3.992   2.714
 1680SOL    MW4 6778   4.023   4.023   2.756
 1681SOL     OW 6779   4.018   4.283   2.664
 1681SOL    HW2 6780   4.004   4.194   2.697
 1681SOL    HW3 6781   4.036   4.271   2.571
 1681SOL    MW4 6782   4.018   4.270   2.656
 1682SOL     OW 6783   4.289   4.384   2.753
 1682SOL    HW2 6784   4.197   4.356   2.751
 1682SOL    HW3 6785   4.287   4.476   2.726
 1682SOL    MW4 6786   4.277   4.392   2.749
 1683SOL     OW 6787   0.184   4.624   3.124
 1683SOL    HW2 6788   0.191   4.644   3.217
 1683SOL    HW3 6789   0.114   4.681   3.092
 1683SOL    MW4 6790   0.176   4.634   3.132
 1684SOL     OW 6791   0.016   0.148   3.028
 1684SOL    HW2 6792  -0.068   0.107   3.049
 1684SOL    HW3 6793   0.014   0.233   3.070
 1684SOL    MW4 6794   0.005   0.153   3.036
 1685SOL     OW 6795   4.483   0.389   3.131
 1685SOL    HW2 6796   4.474   0.379   3.226
 1685SOL    HW3 6797   4.403   0.432   3.104
 1685SOL    MW4 6798   4.471   0.393   3.140
 1686SOL     OW 6799   0.237   0.495   3.025
 1686SOL    HW2 6800   0.311   0.436   3.038
 1686SOL    HW3 6801   0.161   0.444   3.052
 1686SOL    MW4 6802   0.237   0.481   3.030
 1687SOL     OW 6803   0.233   0.753   3.124
 1687SOL    HW2 6804   0.217   0.761   3.218
 1687SOL    HW3 6805   0.222   0.659   3.106
 1687SOL    MW4 6806   0.229   0.742   3.134
 1688SOL     OW 6807   4.485   0.910   3.033
 1688SOL    HW2 6808   4.559   0.853   3.052
 1688SOL    HW3 6809   4.492   0.929   2.939
 1688SOL    MW4 6810   4.496   0.905   3.023
 1689SOL     OW 6811   0.004   1.151   3.164
 1689SOL    HW2 6812  -0.066   1.201   3.122
 1689SOL    HW3 6813   0.001   1.065   3.121
 1689SOL    MW4 6814  -0.006   1.146   3.153
 1690SOL     OW 6815   0.246   1.283   3.034
 1690SOL    HW2 6816   0.167   1.239   3.067
 1690SOL    HW3 6817   0.236   1.280   2.939
 1690SOL    MW4 6818   0.234   1.277   3.026
 1691SOL     OW 6819   0.240   1.542   3.105
 1691SOL    HW2 6820   0.162   1.591   3.080
 1691SOL    HW3 6821   0.227   1.456   3.066
 1691SOL    MW4 6822   0.228   1.537   3.096
 1692SOL     OW 6823   0.005   1.682   3.032
 1692SOL    HW2 6824  -0.065   1.640   3.081
 1692SOL    HW3 6825   0.007   1.772   3.065
 1692SOL    MW4 6826  -0.004   1.689   3.043
 1693SOL     OW 6827   4.477   1.914   3.167
 1693SOL    HW2 6828   4.392   1.947   3.137
 1693SOL    HW3 6829   4.541   1.977   3.131
 1693SOL    MW4 6830   4.475   1.927   3.158
 1694SOL     OW 6831   0.170   2.058   2.989
 1694SOL    HW2 6832   0.193   2.142   3.028
 1694SOL    HW3 6833   0.176   2.073   2.894
 1694SOL    MW4 6834   0.174   2.071   2.981
 1695SOL     OW 6835   0.250   2.311   3.130
 1695SOL    HW2 6836   0.259   2.318   3.225
 1695SOL    HW3 6837   0.323   2.363   3.096
 1695SOL    MW4 6838   0.261   2.319   3.138
 1696SOL     OW 6839   0.008   2.424   3.034
 1696SOL    HW2 6840   0.003   2.513   3.069
 1696SOL    HW3 6841   0.088   2.388   3.072
 1696SOL    MW4 6842   0.018   2.431   3.044
 1697SOL     OW 6843   0.003   2.686   3.115
 1697SOL    HW2 6844   0.003   2.694   3.210
 1697SOL    HW3 6845   0.069   2.749   3.086
 1697SOL    MW4 6846   0.012   2.696   3.124
 1698SOL     OW 6847   0.199   2.862   3.002
 1698SOL    HW2 6848   0.281   2.832   3.040
 1698SOL    HW3 6849   0.214   2.860   2.907
 1698SOL    MW4 6850   0.212   2.858   2.994
 1699SOL     OW 6851   0.164   3.097   3.143
 1699SOL    HW2 6852   0.096   3.137   3.088
 1699SOL    HW3 6853   0.190   3.019   3.096
 1699SOL    MW4 6854   0.158   3.092   3.130
 1700SOL     OW 6855   4.463   3.238   3.010
 1700SOL    HW2 6856   4.390   3.181   3.031
 1700SOL    HW3 6857   4.471   3.234   2.915
 1700SOL    MW4 6858   4.455   3.230   3.001
 1701SOL     OW 6859   4.471   3.497   3.129
 1701SOL    HW2 6860   4.395   3.553   3.112
 1701SOL    HW3 6861   4.454   3.418   3.077
 1701SOL    MW4 6862   4.459   3.494   3.120
 1702SOL     OW 6863   0.204   3.611   3.020
 1702SOL    HW2 6864   0.201   3.704   3.041
 1702SOL    HW3 6865   0.123   3.575   3.058
 1702SOL    MW4 6866   0.193   3.618   3.028
 1703SOL     OW 6867   0.203   3.872   3.124
 1703SOL    HW2 6868   0.190   3.884   3.218
 1703SOL    HW3 6869   0.271   3.935   3.100
 1703SOL    MW4 6870   0.210   3.882   3.133
 1704SOL     OW 6871   4.484   4.027   3.023
 1704SOL    HW2 6872   4.561   3.976   3.049
 1704SOL    HW3 6873   4.489   4.030   2.927
 1704SOL    MW4 6874   4.495   4.020   3.014
 1705SOL     OW 6875   4.484   4.271   3.154
 1705SOL    HW2 6876   4.477   4.257   3.249
 1705SOL    HW3 6877   4.472   4.185   3.116
 1705SOL    MW4 6878   4.482   4.258   3.162
 1706SOL     OW 6879   0.221   4.368   3.030
 1706SOL    HW2 6880   0.139   4.322   3.049
 1706SOL    HW3 6881   0.206   4.458   3.059
 1706SOL    MW4 6882   0.208   4.373   3.036
 1707SOL     OW 6883   0.652   4.651   3.161
 1707SOL    HW2 6884   0.650   4.557   3.141
 1707SOL    HW3 6885   0.582   4.688   3.108
 1707SOL    MW4 6886   0.642   4.643   3.152
 1708SOL     OW 6887   0.429   0.087   3.037
 1708SOL    HW2 6888   0.445   0.176   3.068
 1708SOL    HW3 6889   0.338   0.069   3.060
 1708SOL    MW4 6890   0.419   0.096   3.044
 1709SOL     OW 6891   0.471   0.347   3.105
 1709SOL    HW2 6892   0.467   0.358   3.200
 1709SOL    HW3 6893   0.547   0.399   3.079
 1709SOL    MW4 6894   0.481   0.355   3.114
 1710SOL     OW 6895   0.687   0.529   3.055
 1710SOL    HW2 6896   0.772   0.484   3.057
 1710SOL    HW3 6897   0.706   0.616   3.088
 1710SOL    MW4 6898   0.701   0.534   3.059
 1711SOL     OW 6899   0.727   0.793   3.152
 1711SOL    HW2 6900   0.712   0.775   3.245
 1711SOL    HW3 6901   0.640   0.808   3.116
 1711SOL    MW4 6902   0.714   0.793   3.159
 1712SOL     OW 6903   0.473   0.855   3.023
 1712SOL    HW2 6904   0.393   0.818   3.061
 1712SOL    HW3 6905   0.455   0.862   2.929
 1712SOL    MW4 6906   0.460   0.851   3.016
 1713SOL     OW 6907   0.455   1.109   3.152
 1713SOL    HW2 6908   0.477   1.030   3.103
 1713SOL    HW3 6909   0.381   1.147   3.105
 1713SOL    MW4 6910   0.448   1.104   3.139
 1714SOL     OW 6911   0.673   1.257   3.048
 1714SOL    HW2 6912   0.756   1.232   3.089
 1714SOL    HW3 6913   0.608   1.205   3.094
 1714SOL    MW4 6914   0.676   1.247   3.060
 1715SOL     OW 6915   0.670   1.529   3.115
 1715SOL    HW2 6916   0.699   1.535   3.206
 1715SOL    HW3 6917   0.674   1.435   3.096
 1715SOL    MW4 6918   0.675   1.517   3.125
 1716SOL     OW 6919   0.456   1.666   3.001
 1716SOL    HW2 6920   0.529   1.635   3.054
 1716SOL    HW3 6921   0.386   1.604   3.018
 1716SOL    MW4 6922   0.457   1.653   3.010
 1717SOL     OW 6923   0.408   1.920   3.073
 1717SOL    HW2 6924   0.417   1.829   3.045
 1717SOL    HW3 6925   0.329   1.952   3.028
 1717SOL    MW4 6926   0.399   1.913   3.064
 1718SOL     OW 6927   0.637   2.082   2.975
 1718SOL    HW2 6928   0.700   2.035   3.029
 1718SOL    HW3 6929   0.557   2.029   2.979
 1718SOL    MW4 6930   0.635   2.069   2.983
 1719SOL     OW 6931   0.662   2.343   3.092
 1719SOL    HW2 6932   0.646   2.337   3.186
 1719SOL    HW3 6933   0.650   2.253   3.061
 1719SOL    MW4 6934   0.658   2.330   3.101
 1720SOL     OW 6935   0.437   2.475   3.025
 1720SOL    HW2 6936   0.511   2.419   3.050
 1720SOL    HW3 6937   0.436   2.473   2.930
 1720SOL    MW4 6938   0.447   2.467   3.016
 1721SOL     OW 6939   0.434   2.739   3.128
 1721SOL    HW2 6940   0.506   2.781   3.081
 1721SOL    HW3 6941   0.437   2.647   3.101
 1721SOL    MW4 6942   0.444   2.733   3.118
 1722SOL     OW 6943   0.660   2.857   3.021
 1722SOL    HW2 6944   0.740   2.814   3.048
 1722SOL    HW3 6945   0.669   2.947   3.052
 1722SOL    MW4 6946   0.672   2.864   3.028
 1723SOL     OW 6947   0.683   3.120   3.147
 1723SOL    HW2 6948   0.668   3.117   3.242
 1723SOL    HW3 6949   0.602   3.156   3.111
 1723SOL    MW4 6950   0.670   3.124   3.155
 1724SOL     OW 6951   0.428   3.185   3.055
 1724SOL    HW2 6952   0.426   3.281   3.060
 1724SOL    HW3 6953   0.342   3.157   3.086
 1724SOL    MW4 6954   0.416   3.194   3.059
 1725SOL     OW 6955   0.423   3.465   3.084
 1725SOL    HW2 6956   0.419   3.477   3.179
 1725SOL    HW3 6957   0.345   3.509   3.051
 1725SOL    MW4 6958   0.412   3.472   3.092
 1726SOL     OW 6959   0.626   3.625   2.987
 1726SOL    HW2 6960   0.714   3.605   3.019
 1726SOL    HW3 6961   0.570   3.558   3.029
 1726SOL    MW4 6962   0.630   3.613   2.997
 1727SOL     OW 6963   0.663   3.874   3.087
 1727SOL    HW2 6964   0.696   3.871   3.177
 1727SOL    HW3 6965   0.641   3.784   3.066
 1727SOL    MW4 6966   0.665   3.862   3.096
 1728SOL     OW 6967   0.450   4.044   3.034
 1728SOL    HW2 6968   0.530   3.994   3.049
 1728SOL    HW3 6969   0.438   4.043   2.939
 1728SOL    MW4 6970   0.459   4.038   3.024
 1729SOL     OW 6971   0.451   4.286   3.162
 1729SOL    HW2 6972   0.458   4.202   3.119
 1729SOL    HW3 6973   0.372   4.326   3.126
 1729SOL    MW4 6974   0.442   4.280   3.152
 1730SOL     OW 6975   0.693   4.387   3.060
 1730SOL    HW2 6976   0.604   4.354   3.072
 1730SOL    HW3 6977   0.704   4.391   2.965
 1730SOL    MW4 6978   0.683   4.383   3.049
 1731SOL     OW 6979   1.077   4.635   3.125
 1731SOL    HW2 6980   1.149   4.694   3.102
 1731SOL    HW3 6981   1.006   4.660   3.065
 1731SOL    MW4 6982   1.077   4.646   3.114
 1732SOL     OW 6983   0.875   0.098   2.993
 1732SOL    HW2 6984   0.903   0.182   3.028
 1732SOL    HW3 6985   0.804   0.070   3.050
 1732SOL    MW4 6986   0.869   0.105   3.005
 1733SOL     OW 6987   0.898   0.346   3.125
 1733SOL    HW2 6988   0.895   0.351   3.220
 1733SOL    HW3 6989   0.977   0.395   3.100
 1733SOL    MW4 6990   0.908   0.353   3.134
 1734SOL     OW 6991   1.112   0.475   3.013
 1734SOL    HW2 6992   1.198   0.436   3.031
 1734SOL    HW3 6993   1.100   0.463   2.919
 1734SOL    MW4 6994   1.122   0.468   3.003
 1735SOL     OW 6995   1.113   0.759   3.122
 1735SOL    HW2 6996   1.113   0.740   3.216
 1735SOL    HW3 6997   1.107   0.674   3.080
 1735SOL    MW4 6998   1.112   0.745   3.129
 1736SOL     OW 6999   0.927   0.931   3.013
 1736SOL    HW2 7000   0.981   0.869   3.062
 1736SOL    HW3 7001   0.838   0.898   3.025
 1736SOL    MW4 7002   0.922   0.918   3.021
 1737SOL     OW 7003   0.912   1.183   3.143
 1737SOL    HW2 7004   1.000   1.218   3.130
 1737SOL    HW3 7005   0.917   1.093   3.112
 1737SOL    MW4 7006   0.924   1.176   3.137
 1738SOL     OW 7007   1.169   1.280   3.087
 1738SOL    HW2 7008   1.260   1.252   3.096
 1738SOL    HW3 7009   1.159   1.297   2.993
 1738SOL    MW4 7010   1.180   1.278   3.076
 1739SOL     OW 7011   1.111   1.570   3.117
 1739SOL    HW2 7012   1.198   1.604   3.096
 1739SOL    HW3 7013   1.121   1.475   3.109
 1739SOL    MW4 7014   1.124   1.562   3.113
 1740SOL     OW 7015   0.878   1.669   2.992
 1740SOL    HW2 7016   0.950   1.638   3.047
 1740SOL    HW3 7017   0.802   1.621   3.024
 1740SOL    MW4 7018   0.878   1.658   3.004
 1741SOL     OW 7019   0.829   1.930   3.082
 1741SOL    HW2 7020   0.831   1.899   3.173
 1741SOL    HW3 7021   0.845   1.851   3.030
 1741SOL    MW4 7022   0.831   1.915   3.087
 1742SOL     OW 7023   1.076   2.043   3.005
 1742SOL    HW2 7024   0.991   2.011   3.037
 1742SOL    HW3 7025   1.066   2.047   2.910
 1742SOL    MW4 7026   1.063   2.039   2.997
 1743SOL     OW 7027   1.128   2.297   3.105
 1743SOL    HW2 7028   1.050   2.345   3.076
 1743SOL    HW3 7029   1.117   2.209   3.069
 1743SOL    MW4 7030   1.116   2.292   3.096
 1744SOL     OW 7031   0.909   2.444   3.033
 1744SOL    HW2 7032   0.822   2.405   3.037
 1744SOL    HW3 7033   0.934   2.439   2.941
 1744SOL    MW4 7034   0.901   2.438   3.021
 1745SOL     OW 7035   0.896   2.724   3.114
 1745SOL    HW2 7036   0.901   2.723   3.209
 1745SOL    HW3 7037   0.898   2.632   3.088
 1745SOL    MW4 7038   0.897   2.712   3.123
 1746SOL     OW 7039   1.131   2.821   2.994
 1746SOL    HW2 7040   1.144   2.910   3.027
 1746SOL    HW3 7041   1.051   2.791   3.037
 1746SOL    MW4 7042   1.122   2.829   3.004
 1747SOL     OW 7043   1.148   3.096   3.105
 1747SOL    HW2 7044   1.218   3.147   3.066
 1747SOL    HW3 7045   1.067   3.141   3.078
 1747SOL    MW4 7046   1.146   3.109   3.097
 1748SOL     OW 7047   0.913   3.216   3.044
 1748SOL    HW2 7048   0.831   3.178   3.074
 1748SOL    HW3 7049   0.903   3.225   2.949
 1748SOL    MW4 7050   0.901   3.212   3.035
 1749SOL     OW 7051   0.862   3.499   3.097
 1749SOL    HW2 7052   0.940   3.548   3.072
 1749SOL    HW3 7053   0.885   3.408   3.083
 1749SOL    MW4 7054   0.876   3.494   3.092
 1750SOL     OW 7055   1.097   3.623   3.051
 1750SOL    HW2 7056   1.185   3.591   3.069
 1750SOL    HW3 7057   1.095   3.710   3.091
 1750SOL    MW4 7058   1.108   3.630   3.059
 1751SOL     OW 7059   1.113   3.882   3.144
 1751SOL    HW2 7060   1.094   3.890   3.238
 1751SOL    HW3 7061   1.039   3.925   3.101
 1751SOL    MW4 7062   1.101   3.889   3.151
 1752SOL     OW 7063   0.893   4.003   3.014
 1752SOL    HW2 7064   0.806   3.975   3.042
 1752SOL    HW3 7065   0.890   3.999   2.919
 1752SOL    MW4 7066   0.881   3.999   3.005
 1753SOL     OW 7067   0.927   4.260   3.155
 1753SOL    HW2 7068   0.933   4.175   3.111
 1753SOL    HW3 7069   0.841   4.293   3.131
 1753SOL    MW4 7070   0.916   4.253   3.146
 1754SOL     OW 7071   1.107   4.415   2.980
 1754SOL    HW2 7072   1.029   4.370   3.012
 1754SOL    HW3 7073   1.112   4.494   3.033
 1754SOL    MW4 7074   1.097   4.419   2.991
 1755SOL     OW 7075   1.536   4.646   3.123
 1755SOL    HW2 7076   1.545   4.648   3.219
 1755SOL    HW3 7077   1.451   4.687   3.107
 1755SOL    MW4 7078   1.526   4.652   3.134
 1756SOL     OW 7079   1.295   0.103   3.014
 1756SOL    HW2 7080   1.326   0.192   3.030
 1756SOL    HW3 7081   1.314   0.087   2.922
 1756SOL    MW4 7082   1.302   0.113   3.004
 1757SOL     OW 7083   1.371   0.373   3.100
 1757SOL    HW2 7084   1.355   0.384   3.194
 1757SOL    HW3 7085   1.445   0.430   3.081
 1757SOL    MW4 7086   1.379   0.382   3.110
 1758SOL     OW 7087   1.599   0.512   3.018
 1758SOL    HW2 7088   1.604   0.604   3.045
 1758SOL    HW3 7089   1.589   0.515   2.923
 1758SOL    MW4 7090   1.599   0.525   3.009
 1759SOL     OW 7091   1.642   0.770   3.118
 1759SOL    HW2 7092   1.640   0.758   3.213
 1759SOL    HW3 7093   1.553   0.795   3.095
 1759SOL    MW4 7094   1.630   0.772   3.127
 1760SOL     OW 7095   1.360   0.857   3.050
 1760SOL    HW2 7096   1.368   0.950   3.068
 1760SOL    HW3 7097   1.277   0.831   3.090
 1760SOL    MW4 7098   1.350   0.866   3.058
 1761SOL     OW 7099   1.389   1.118   3.119
 1761SOL    HW2 7100   1.381   1.125   3.214
 1761SOL    HW3 7101   1.473   1.158   3.099
 1761SOL    MW4 7102   1.399   1.125   3.129
 1762SOL     OW 7103   1.594   1.297   3.037
 1762SOL    HW2 7104   1.677   1.261   3.066
 1762SOL    HW3 7105   1.596   1.389   3.065
 1762SOL    MW4 7106   1.605   1.305   3.044
 1763SOL     OW 7107   1.590   1.553   3.119
 1763SOL    HW2 7108   1.668   1.596   3.084
 1763SOL    HW3 7109   1.518   1.613   3.095
 1763SOL    MW4 7110   1.591   1.567   3.111
 1764SOL     OW 7111   1.346   1.695   3.041
 1764SOL    HW2 7112   1.342   1.790   3.055
 1764SOL    HW3 7113   1.333   1.684   2.947
 1764SOL    MW4 7114   1.344   1.706   3.031
 1765SOL     OW 7115   1.336   1.974   3.089
 1765SOL    HW2 7116   1.333   1.973   3.185
 1765SOL    HW3 7117   1.249   2.002   3.062
 1765SOL    MW4 7118   1.325   1.977   3.098
 1766SOL     OW 7119   1.608   2.051   3.010
 1766SOL    HW2 7120   1.524   2.018   3.041
 1766SOL    HW3 7121   1.599   2.052   2.915
 1766SOL    MW4 7122   1.595   2.047   3.002
 1767SOL     OW 7123   1.570   2.329   3.072
 1767SOL    HW2 7124   1.497   2.356   3.016
 1767SOL    HW3 7125   1.581   2.236   3.053
 1767SOL    MW4 7126   1.562   2.320   3.062
 1768SOL     OW 7127   1.360   2.484   2.989
 1768SOL    HW2 7128   1.286   2.436   3.028
 1768SOL    HW3 7129   1.343   2.481   2.895
 1768SOL    MW4 7130   1.348   2.477   2.982
 1769SOL     OW 7131   1.372   2.741   3.110
 1769SOL    HW2 7132   1.362   2.649   3.086
 1769SOL    HW3 7133   1.289   2.782   3.086
 1769SOL    MW4 7134   1.360   2.734   3.104
 1770SOL     OW 7135   1.578   2.862   2.983
 1770SOL    HW2 7136   1.647   2.808   3.020
 1770SOL    HW3 7137   1.497   2.828   3.021
 1770SOL    MW4 7138   1.577   2.851   2.993
 1771SOL     OW 7139   1.602   3.117   3.107
 1771SOL    HW2 7140   1.618   3.114   3.201
 1771SOL    HW3 7141   1.601   3.025   3.080
 1771SOL    MW4 7142   1.604   3.104   3.116
 1772SOL     OW 7143   1.361   3.215   2.994
 1772SOL    HW2 7144   1.435   3.183   3.046
 1772SOL    HW3 7145   1.391   3.212   2.904
 1772SOL    MW4 7146   1.374   3.211   2.989
 1773SOL     OW 7147   1.336   3.490   3.105
 1773SOL    HW2 7148   1.347   3.468   3.198
 1773SOL    HW3 7149   1.339   3.406   3.060
 1773SOL    MW4 7150   1.338   3.476   3.111
 1774SOL     OW 7151   1.551   3.643   2.993
 1774SOL    HW2 7152   1.486   3.582   3.028
 1774SOL    HW3 7153   1.544   3.633   2.898
 1774SOL    MW4 7154   1.542   3.634   2.985
 1775SOL     OW 7155   1.566   3.893   3.163
 1775SOL    HW2 7156   1.650   3.932   3.141
 1775SOL    HW3 7157   1.562   3.812   3.112
 1775SOL    MW4 7158   1.576   3.888   3.153
 1776SOL     OW 7159   1.342   3.986   3.013
 1776SOL    HW2 7160   1.421   3.976   3.066
 1776SOL    HW3 7161   1.277   3.930   3.057
 1776SOL    MW4 7162   1.344   3.977   3.026
 1777SOL     OW 7163   1.290   4.255   3.111
 1777SOL    HW2 7164   1.299   4.166   3.076
 1777SOL    HW3 7165   1.227   4.297   3.052
 1777SOL    MW4 7166   1.283   4.249   3.098
 1778SOL     OW 7167   1.498   4.399   3.006
 1778SOL    HW2 7168   1.423   4.356   3.047
 1778SOL    HW3 7169   1.495   4.489   3.039
 1778SOL    MW4 7170   1.488   4.405   3.016
 1779SOL     OW 7171   2.020   4.658   3.124
 1779SOL    HW2 7172   2.016   4.646   3.218
 1779SOL    HW3 7173   1.943   4.711   3.103
 1779SOL    MW4 7174   2.010   4.664   3.133
 1780SOL     OW 7175   1.773   0.111   3.065
 1780SOL    HW2 7176   1.694   0.060   3.079
 1780SOL    HW3 7177   1.777   0.123   2.970
 1780SOL    MW4 7178   1.763   0.106   3.054
 1781SOL     OW 7179   1.786   0.372   3.146
 1781SOL    HW2 7180   1.767   0.280   3.127
 1781SOL    HW3 7181   1.708   0.419   3.117
 1781SOL    MW4 7182   1.773   0.366   3.139
 1782SOL     OW 7183   1.974   0.521   3.016
 1782SOL    HW2 7184   1.916   0.468   3.071
 1782SOL    HW3 7185   1.950   0.498   2.926
 1782SOL    MW4 7186   1.963   0.511   3.011
 1783SOL     OW 7187   2.045   0.781   3.056
 1783SOL    HW2 7188   1.963   0.819   3.024
 1783SOL    HW3 7189   2.031   0.687   3.054
 1783SOL    MW4 7190   2.033   0.774   3.051
 1784SOL     OW 7191   1.830   0.925   2.994
 1784SOL    HW2 7192   1.764   0.868   3.034
 1784SOL    HW3 7193   1.811   0.922   2.901
 1784SOL    MW4 7194   1.819   0.917   2.987
 1785SOL     OW 7195   1.831   1.169   3.119
 1785SOL    HW2 7196   1.818   1.158   3.214
 1785SOL    HW3 7197   1.844   1.079   3.087
 1785SOL    MW4 7198   1.831   1.155   3.127
 1786SOL     OW 7199   2.049   1.280   2.978
 1786SOL    HW2 7200   2.122   1.236   3.023
 1786SOL    HW3 7201   1.971   1.249   3.024
 1786SOL    MW4 7202   2.048   1.270   2.990
 1787SOL     OW 7203   2.047   1.548   3.103
 1787SOL    HW2 7204   2.040   1.528   3.197
 1787SOL    HW3 7205   2.053   1.462   3.061
 1787SOL    MW4 7206   2.047   1.534   3.110
 1788SOL     OW 7207   1.803   1.687   3.007
 1788SOL    HW2 7208   1.835   1.771   3.039
 1788SOL    HW3 7209   1.879   1.629   3.013
 1788SOL    MW4 7210   1.817   1.690   3.012
 1789SOL     OW 7211   1.862   1.950   3.086
 1789SOL    HW2 7212   1.929   1.998   3.038
 1789SOL    HW3 7213   1.780   1.992   3.061
 1789SOL    MW4 7214   1.860   1.962   3.077
 1790SOL     OW 7215   2.054   2.129   2.981
 1790SOL    HW2 7216   2.130   2.082   3.016
 1790SOL    HW3 7217   2.057   2.215   3.023
 1790SOL    MW4 7218   2.064   2.134   2.991
 1791SOL     OW 7219   2.080   2.356   3.118
 1791SOL    HW2 7220   2.161   2.386   3.076
 1791SOL    HW3 7221   2.011   2.405   3.075
 1791SOL    MW4 7222   2.082   2.366   3.107
 1792SOL     OW 7223   1.824   2.438   2.994
 1792SOL    HW2 7224   1.809   2.532   3.007
 1792SOL    HW3 7225   1.737   2.399   3.008
 1792SOL    MW4 7226   1.810   2.446   2.997
 1793SOL     OW 7227   1.788   2.711   3.072
 1793SOL    HW2 7228   1.786   2.709   3.168
 1793SOL    HW3 7229   1.875   2.745   3.050
 1793SOL    MW4 7230   1.799   2.715   3.082
 1794SOL     OW 7231   2.028   2.844   3.041
 1794SOL    HW2 7232   2.033   2.936   3.066
 1794SOL    HW3 7233   2.036   2.845   2.945
 1794SOL    MW4 7234   2.030   2.857   3.031
 1795SOL     OW 7235   2.038   3.095   3.103
 1795SOL    HW2 7236   2.038   3.122   3.195
 1795SOL    HW3 7237   1.958   3.132   3.067
 1795SOL    MW4 7238   2.028   3.103   3.110
 1796SOL     OW 7239   1.830   3.240   2.983
 1796SOL    HW2 7240   1.748   3.200   3.014
 1796SOL    HW3 7241   1.826   3.230   2.888
 1796SOL    MW4 7242   1.818   3.233   2.975
 1797SOL     OW 7243   1.789   3.530   3.077
 1797SOL    HW2 7244   1.775   3.444   3.037
 1797SOL    HW3 7245   1.716   3.583   3.045
 1797SOL    MW4 7246   1.777   3.525   3.067
 1798SOL     OW 7247   2.038   3.630   2.981
 1798SOL    HW2 7248   2.042   3.710   3.033
 1798SOL    HW3 7249   1.955   3.590   3.004
 1798SOL    MW4 7250   2.028   3.635   2.991
 1799SOL     OW 7251   2.019   3.871   3.115
 1799SOL    HW2 7252   2.039   3.871   3.208
 1799SOL    HW3 7253   1.943   3.929   3.107
 1799SOL    MW4 7254   2.011   3.879   3.126
 1800SOL     OW 7255   1.793   4.035   3.075
 1800SOL    HW2 7256   1.772   4.126   3.095
 1800SOL    HW3 7257   1.790   4.030   2.980
 1800SOL    MW4 7258   1.790   4.046   3.065
 1801SOL     OW 7259   1.726   4.300   3.133
 1801SOL    HW2 7260   1.789   4.358   3.091
 1801SOL    HW3 7261   1.640   4.334   3.107
 1801SOL    MW4 7262   1.723   4.312   3.124
 1802SOL     OW 7263   1.958   4.409   3.026
 1802SOL    HW2 7264   1.960   4.493   3.070
 1802SOL    HW3 7265   1.997   4.426   2.940
 1802SOL    MW4 7266   1.963   4.422   3.020
 1803SOL     OW 7267   2.453   4.627   3.164
 1803SOL    HW2 7268   2.463   4.547   3.113
 1803SOL    HW3 7269   2.377   4.670   3.126
 1803SOL    MW4 7270   2.444   4.622   3.152
 1804SOL     OW 7271   2.271   0.102   3.018
 1804SOL    HW2 7272   2.255   0.196   3.029
 1804SOL    HW3 7273   2.193   0.061   3.056
 1804SOL    MW4 7274   2.259   0.109   3.025
 1805SOL     OW 7275   2.188   0.357   3.073
 1805SOL    HW2 7276   2.190   0.381   3.165
 1805SOL    HW3 7277   2.106   0.394   3.041
 1805SOL    MW4 7278   2.177   0.365   3.081
 1806SOL     OW 7279   2.401   0.517   3.004
 1806SOL    HW2 7280   2.315   0.477   3.009
 1806SOL    HW3 7281   2.417   0.529   2.910
 1806SOL    MW4 7282   2.392   0.513   2.992
 1807SOL     OW 7283   2.458   0.752   3.108
 1807SOL    HW2 7284   2.541   0.770   3.063
 1807SOL    HW3 7285   2.432   0.665   3.076
 1807SOL    MW4 7286   2.466   0.743   3.098
 1808SOL     OW 7287   2.285   0.919   2.978
 1808SOL    HW2 7288   2.347   0.873   3.035
 1808SOL    HW3 7289   2.201   0.877   2.994
 1808SOL    MW4 7290   2.282   0.907   2.987
 1809SOL     OW 7291   2.298   1.176   3.100
 1809SOL    HW2 7292   2.294   1.161   3.195
 1809SOL    HW3 7293   2.309   1.089   3.063
 1809SOL    MW4 7294   2.299   1.163   3.108
 1810SOL     OW 7295   2.515   1.321   2.985
 1810SOL    HW2 7296   2.437   1.281   3.024
 1810SOL    HW3 7297   2.499   1.317   2.891
 1810SOL    MW4 7298   2.502   1.315   2.978
 1811SOL     OW 7299   2.480   1.566   3.094
 1811SOL    HW2 7300   2.392   1.593   3.068
 1811SOL    HW3 7301   2.494   1.483   3.049
 1811SOL    MW4 7302   2.470   1.559   3.084
 1812SOL     OW 7303   2.249   1.700   3.010
 1812SOL    HW2 7304   2.181   1.654   3.060
 1812SOL    HW3 7305   2.214   1.705   2.921
 1812SOL    MW4 7306   2.235   1.695   3.005
 1813SOL     OW 7307   2.243   1.959   3.098
 1813SOL    HW2 7308   2.319   2.006   3.064
 1813SOL    HW3 7309   2.251   1.870   3.063
 1813SOL    MW4 7310   2.254   1.953   3.089
 1814SOL     OW 7311   2.470   2.110   2.997
 1814SOL    HW2 7312   2.548   2.070   3.036
 1814SOL    HW3 7313   2.475   2.087   2.904
 1814SOL    MW4 7314   2.481   2.101   2.990
 1815SOL     OW 7315   2.488   2.359   3.110
 1815SOL    HW2 7316   2.481   2.344   3.204
 1815SOL    HW3 7317   2.484   2.272   3.071
 1815SOL    MW4 7318   2.487   2.346   3.117
 1816SOL     OW 7319   2.285   2.469   2.965
 1816SOL    HW2 7320   2.281   2.552   3.013
 1816SOL    HW3 7321   2.355   2.420   3.009
 1816SOL    MW4 7322   2.294   2.473   2.977
 1817SOL     OW 7323   2.256   2.694   3.113
 1817SOL    HW2 7324   2.321   2.753   3.076
 1817SOL    HW3 7325   2.175   2.745   3.114
 1817SOL    MW4 7326   2.254   2.709   3.109
 1818SOL     OW 7327   2.484   2.835   3.034
 1818SOL    HW2 7328   2.506   2.922   3.067
 1818SOL    HW3 7329   2.487   2.844   2.939
 1818SOL    MW4 7330   2.488   2.848   3.026
 1819SOL     OW 7331   2.530   3.106   3.106
 1819SOL    HW2 7332   2.610   3.153   3.083
 1819SOL    HW3 7333   2.460   3.158   3.066
 1819SOL    MW4 7334   2.531   3.119   3.098
 1820SOL     OW 7335   2.282   3.215   3.030
 1820SOL    HW2 7336   2.264   3.307   3.048
 1820SOL    HW3 7337   2.204   3.169   3.062
 1820SOL    MW4 7338   2.269   3.221   3.037
 1821SOL     OW 7339   2.229   3.475   3.102
 1821SOL    HW2 7340   2.302   3.514   3.055
 1821SOL    HW3 7341   2.151   3.509   3.058
 1821SOL    MW4 7342   2.228   3.484   3.090
 1822SOL     OW 7343   2.430   3.617   2.967
 1822SOL    HW2 7344   2.509   3.570   2.994
 1822SOL    HW3 7345   2.431   3.698   3.018
 1822SOL    MW4 7346   2.440   3.621   2.977
 1823SOL     OW 7347   2.472   3.872   3.105
 1823SOL    HW2 7348   2.477   3.869   3.200
 1823SOL    HW3 7349   2.556   3.910   3.078
 1823SOL    MW4 7350   2.484   3.877   3.114
 1824SOL     OW 7351   2.234   4.020   3.023
 1824SOL    HW2 7352   2.308   3.965   3.052
 1824SOL    HW3 7353   2.156   3.972   3.053
 1824SOL    MW4 7354   2.234   4.006   3.031
 1825SOL     OW 7355   2.194   4.268   3.154
 1825SOL    HW2 7356   2.215   4.179   3.125
 1825SOL    HW3 7357   2.103   4.281   3.127
 1825SOL    MW4 7358   2.185   4.258   3.146
 1826SOL     OW 7359   2.444   4.374   3.057
 1826SOL    HW2 7360   2.361   4.333   3.083
 1826SOL    HW3 7361   2.437   4.381   2.962
 1826SOL    MW4 7362   2.432   4.369   3.048
 1827SOL     OW 7363   2.885   0.037   3.107
 1827SOL    HW2 7364   2.970   0.064   3.073
 1827SOL    HW3 7365   2.882  -0.058   3.091
 1827SOL    MW4 7366   2.896   0.028   3.100
 1828SOL     OW 7367   2.640   0.127   3.002
 1828SOL    HW2 7368   2.721   0.091   3.039
 1828SOL    HW3 7369   2.571   0.073   3.039
 1828SOL    MW4 7370   2.642   0.115   3.012
 1829SOL     OW 7371   2.630   0.388   3.084
 1829SOL    HW2 7372   2.637   0.298   3.050
 1829SOL    HW3 7373   2.544   0.418   3.055
 1829SOL    MW4 7374   2.620   0.380   3.076
 1830SOL     OW 7375   2.875   0.466   2.984
 1830SOL    HW2 7376   2.799   0.418   3.016
 1830SOL    HW3 7377   2.872   0.456   2.889
 1830SOL    MW4 7378   2.865   0.458   2.976
 1831SOL     OW 7379   2.930   0.741   3.051
 1831SOL    HW2 7380   2.924   0.736   3.146
 1831SOL    HW3 7381   2.922   0.650   3.021
 1831SOL    MW4 7382   2.928   0.728   3.059
 1832SOL     OW 7383   2.683   0.868   2.998
 1832SOL    HW2 7384   2.692   0.961   3.018
 1832SOL    HW3 7385   2.772   0.833   3.007
 1832SOL    MW4 7386   2.696   0.876   3.002
 1833SOL     OW 7387   2.719   1.127   3.069
 1833SOL    HW2 7388   2.802   1.173   3.052
 1833SOL    HW3 7389   2.652   1.195   3.062
 1833SOL    MW4 7390   2.721   1.142   3.066
 1834SOL     OW 7391   2.933   1.289   3.006
 1834SOL    HW2 7392   3.019   1.250   3.021
 1834SOL    HW3 7393   2.937   1.373   3.052
 1834SOL    MW4 7394   2.945   1.295   3.014
 1835SOL     OW 7395   2.923   1.569   3.110
 1835SOL    HW2 7396   2.928   1.594   3.202
 1835SOL    HW3 7397   3.003   1.604   3.071
 1835SOL    MW4 7398   2.934   1.577   3.117
 1836SOL     OW 7399   2.712   1.730   3.020
 1836SOL    HW2 7400   2.785   1.677   3.051
 1836SOL    HW3 7401   2.636   1.673   3.027
 1836SOL    MW4 7402   2.711   1.716   3.025
 1837SOL     OW 7403   2.704   2.001   3.095
 1837SOL    HW2 7404   2.790   2.028   3.064
 1837SOL    HW3 7405   2.698   1.908   3.071
 1837SOL    MW4 7406   2.714   1.992   3.088
 1838SOL     OW 7407   2.957   2.059   3.011
 1838SOL    HW2 7408   2.936   2.151   3.028
 1838SOL    HW3 7409   2.950   2.050   2.916
 1838SOL    MW4 7410   2.954   2.070   3.001
 1839SOL     OW 7411   2.898   2.324   3.068
 1839SOL    HW2 7412   2.981   2.367   3.047
 1839SOL    HW3 7413   2.831   2.385   3.036
 1839SOL    MW4 7414   2.900   2.337   3.061
 1840SOL     OW 7415   2.700   2.491   2.971
 1840SOL    HW2 7416   2.722   2.568   3.023
 1840SOL    HW3 7417   2.634   2.445   3.022
 1840SOL    MW4 7418   2.694   2.495   2.984
 1841SOL     OW 7419   2.726   2.718   3.131
 1841SOL    HW2 7420   2.737   2.715   3.226
 1841SOL    HW3 7421   2.636   2.746   3.118
 1841SOL    MW4 7422   2.716   2.721   3.142
 1842SOL     OW 7423   2.921   2.859   2.966
 1842SOL    HW2 7424   3.004   2.823   2.995
 1842SOL    HW3 7425   2.855   2.799   3.003
 1842SOL    MW4 7426   2.923   2.846   2.975
 1843SOL     OW 7427   2.923   3.092   3.118
 1843SOL    HW2 7428   2.873   3.155   3.066
 1843SOL    HW3 7429   2.906   3.007   3.078
 1843SOL    MW4 7430   2.914   3.089   3.106
 1844SOL     OW 7431   2.735   3.252   2.985
 1844SOL    HW2 7432   2.704   3.338   3.013
 1844SOL    HW3 7433   2.736   3.257   2.889
 1844SOL    MW4 7434   2.731   3.264   2.976
 1845SOL     OW 7435   2.658   3.489   3.082
 1845SOL    HW2 7436   2.672   3.472   3.175
 1845SOL    HW3 7437   2.737   3.535   3.054
 1845SOL    MW4 7438   2.670   3.493   3.091
 1846SOL     OW 7439   2.918   3.599   2.977
 1846SOL    HW2 7440   2.993   3.566   3.026
 1846SOL    HW3 7441   2.917   3.693   2.994
 1846SOL    MW4 7442   2.928   3.607   2.986
 1847SOL     OW 7443   2.926   3.859   3.083
 1847SOL    HW2 7444   2.935   3.860   3.179
 1847SOL    HW3 7445   2.843   3.903   3.067
 1847SOL    MW4 7446   2.916   3.865   3.094
 1848SOL     OW 7447   2.693   3.966   2.996
 1848SOL    HW2 7448   2.688   4.055   3.032
 1848SOL    HW3 7449   2.690   3.978   2.901
 1848SOL    MW4 7450   2.692   3.979   2.989
 1849SOL     OW 7451   2.667   4.218   3.128
 1849SOL    HW2 7452   2.688   4.243   3.218
 1849SOL    HW3 7453   2.588   4.268   3.107
 1849SOL    MW4 7454   2.659   4.228   3.137
 1850SOL     OW 7455   2.854   4.428   3.033
 1850SOL    HW2 7456   2.939   4.393   3.060
 1850SOL    HW3 7457   2.790   4.365   3.066
 1850SOL    MW4 7458   2.857   4.415   3.041
 1851SOL     OW 7459   3.362   4.657   3.145
 1851SOL    HW2 7460   3.427   4.705   3.094
 1851SOL    HW3 7461   3.354   4.573   3.100
 1851SOL    MW4 7462   3.370   4.652   3.132
 1852SOL     OW 7463   3.139   0.075   2.993
 1852SOL    HW2 7464   3.131   0.164   3.029
 1852SOL    HW3 7465   3.221   0.042   3.031
 1852SOL    MW4 7466   3.149   0.082   3.003
 1853SOL     OW 7467   3.086   0.334   3.098
 1853SOL    HW2 7468   3.162   0.384   3.069
 1853SOL    HW3 7469   3.012   0.373   3.050
 1853SOL    MW4 7470   3.086   0.346   3.088
 1854SOL     OW 7471   3.331   0.440   3.021
 1854SOL    HW2 7472   3.419   0.418   3.052
 1854SOL    HW3 7473   3.344   0.469   2.931
 1854SOL    MW4 7474   3.345   0.441   3.013
 1855SOL     OW 7475   3.362   0.745   3.090
 1855SOL    HW2 7476   3.357   0.746   3.186
 1855SOL    HW3 7477   3.336   0.656   3.066
 1855SOL    MW4 7478   3.358   0.733   3.100
 1856SOL     OW 7479   3.140   0.889   2.961
 1856SOL    HW2 7480   3.211   0.853   3.014
 1856SOL    HW3 7481   3.062   0.842   2.990
 1856SOL    MW4 7482   3.139   0.878   2.972
 1857SOL     OW 7483   3.168   1.164   3.058
 1857SOL    HW2 7484   3.256   1.198   3.040
 1857SOL    HW3 7485   3.160   1.087   3.003
 1857SOL    MW4 7486   3.179   1.159   3.048
 1858SOL     OW 7487   3.421   1.271   2.954
 1858SOL    HW2 7488   3.484   1.231   3.015
 1858SOL    HW3 7489   3.404   1.358   2.991
 1858SOL    MW4 7490   3.427   1.277   2.967
 1859SOL     OW 7491   3.392   1.525   3.050
 1859SOL    HW2 7492   3.416   1.518   3.142
 1859SOL    HW3 7493   3.454   1.588   3.013
 1859SOL    MW4 7494   3.403   1.532   3.057
 1860SOL     OW 7495   3.181   1.678   3.013
 1860SOL    HW2 7496   3.255   1.622   3.037
 1860SOL    HW3 7497   3.174   1.670   2.918
 1860SOL    MW4 7498   3.190   1.669   3.004
 1861SOL     OW 7499   3.192   1.926   3.106
 1861SOL    HW2 7500   3.199   1.840   3.065
 1861SOL    HW3 7501   3.119   1.968   3.061
 1861SOL    MW4 7502   3.183   1.920   3.094
 1862SOL     OW 7503   3.377   2.107   3.004
 1862SOL    HW2 7504   3.462   2.063   3.008
 1862SOL    HW3 7505   3.316   2.046   3.046
 1862SOL    MW4 7506   3.380   2.094   3.010
 1863SOL     OW 7507   3.360   2.375   3.080
 1863SOL    HW2 7508   3.366   2.355   3.173
 1863SOL    HW3 7509   3.375   2.291   3.037
 1863SOL    MW4 7510   3.363   2.361   3.087
 1864SOL     OW 7511   3.123   2.468   2.982
 1864SOL    HW2 7512   3.191   2.414   3.023
 1864SOL    HW3 7513   3.134   2.452   2.888
 1864SOL    MW4 7514   3.134   2.459   2.975
 1865SOL     OW 7515   3.145   2.734   3.083
 1865SOL    HW2 7516   3.165   2.720   3.176
 1865SOL    HW3 7517   3.133   2.646   3.048
 1865SOL    MW4 7518   3.146   2.720   3.091
 1866SOL     OW 7519   3.393   2.840   3.027
 1866SOL    HW2 7520   3.400   2.934   3.045
 1866SOL    HW3 7521   3.301   2.819   3.046
 1866SOL    MW4 7522   3.381   2.850   3.032
 1867SOL     OW 7523   3.427   3.111   3.120
 1867SOL    HW2 7524   3.429   3.113   3.216
 1867SOL    HW3 7525   3.343   3.149   3.097
 1867SOL    MW4 7526   3.416   3.116   3.130
 1868SOL     OW 7527   3.162   3.201   3.038
 1868SOL    HW2 7528   3.084   3.155   3.068
 1868SOL    HW3 7529   3.150   3.208   2.943
 1868SOL    MW4 7530   3.150   3.196   3.029
 1869SOL     OW 7531   3.141   3.485   3.110
 1869SOL    HW2 7532   3.222   3.524   3.075
 1869SOL    HW3 7533   3.136   3.399   3.068
 1869SOL    MW4 7534   3.151   3.479   3.100
 1870SOL     OW 7535   3.372   3.602   3.017
 1870SOL    HW2 7536   3.459   3.579   3.049
 1870SOL    HW3 7537   3.366   3.697   3.029
 1870SOL    MW4 7538   3.383   3.612   3.023
 1871SOL     OW 7539   3.331   3.872   3.047
 1871SOL    HW2 7540   3.327   3.864   3.142
 1871SOL    HW3 7541   3.252   3.920   3.023
 1871SOL    MW4 7542   3.320   3.877   3.056
 1872SOL     OW 7543   3.116   4.063   3.003
 1872SOL    HW2 7544   3.040   4.016   3.036
 1872SOL    HW3 7545   3.114   4.051   2.909
 1872SOL    MW4 7546   3.106   4.055   2.995
 1873SOL     OW 7547   3.097   4.317   3.107
 1873SOL    HW2 7548   3.106   4.307   3.202
 1873SOL    HW3 7549   3.129   4.234   3.071
 1873SOL    MW4 7550   3.103   4.305   3.115
 1874SOL     OW 7551   3.326   4.431   2.993
 1874SOL    HW2 7552   3.398   4.377   3.026
 1874SOL    HW3 7553   3.249   4.400   3.040
 1874SOL    MW4 7554   3.326   4.420   3.004
 1875SOL     OW 7555   3.812   4.652   3.146
 1875SOL    HW2 7556   3.817   4.558   3.126
 1875SOL    HW3 7557   3.726   4.678   3.114
 1875SOL    MW4 7558   3.801   4.643   3.139
 1876SOL     OW 7559   3.605   0.105   3.007
 1876SOL    HW2 7560   3.620   0.194   3.037
 1876SOL    HW3 7561   3.610   0.111   2.912
 1876SOL    MW4 7562   3.608   0.117   2.998
 1877SOL     OW 7563   3.591   0.373   3.112
 1877SOL    HW2 7564   3.587   0.390   3.206
 1877SOL    HW3 7565   3.649   0.440   3.078
 1877SOL    MW4 7566   3.598   0.384   3.120
 1878SOL     OW 7567   3.795   0.527   2.996
 1878SOL    HW2 7568   3.866   0.485   3.045
 1878SOL    HW3 7569   3.791   0.616   3.032
 1878SOL    MW4 7570   3.804   0.533   3.007
 1879SOL     OW 7571   3.800   0.765   3.136
 1879SOL    HW2 7572   3.815   0.739   3.227
 1879SOL    HW3 7573   3.883   0.803   3.107
 1879SOL    MW4 7574   3.813   0.767   3.144
 1880SOL     OW 7575   3.600   0.911   3.015
 1880SOL    HW2 7576   3.669   0.857   3.053
 1880SOL    HW3 7577   3.519   0.862   3.032
 1880SOL    MW4 7578   3.598   0.898   3.022
 1881SOL     OW 7579   3.608   1.177   3.128
 1881SOL    HW2 7580   3.689   1.223   3.104
 1881SOL    HW3 7581   3.628   1.085   3.110
 1881SOL    MW4 7582   3.622   1.171   3.122
 1882SOL     OW 7583   3.836   1.286   3.014
 1882SOL    HW2 7584   3.827   1.380   3.028
 1882SOL    HW3 7585   3.829   1.275   2.919
 1882SOL    MW4 7586   3.834   1.297   3.003
 1883SOL     OW 7587   3.819   1.543   3.078
 1883SOL    HW2 7588   3.814   1.536   3.174
 1883SOL    HW3 7589   3.736   1.583   3.052
 1883SOL    MW4 7590   3.807   1.547   3.087
 1884SOL     OW 7591   3.602   1.677   2.964
 1884SOL    HW2 7592   3.588   1.764   3.001
 1884SOL    HW3 7593   3.636   1.695   2.876
 1884SOL    MW4 7594   3.605   1.691   2.957
 1885SOL     OW 7595   3.573   1.912   3.073
 1885SOL    HW2 7596   3.566   1.894   3.167
 1885SOL    HW3 7597   3.661   1.948   3.061
 1885SOL    MW4 7598   3.583   1.914   3.084
 1886SOL     OW 7599   3.825   2.062   3.027
 1886SOL    HW2 7600   3.817   2.150   3.065
 1886SOL    HW3 7601   3.853   2.078   2.936
 1886SOL    MW4 7602   3.828   2.076   3.020
 1887SOL     OW 7603   3.797   2.329   3.129
 1887SOL    HW2 7604   3.775   2.335   3.222
 1887SOL    HW3 7605   3.724   2.372   3.084
 1887SOL    MW4 7606   3.784   2.336   3.135
 1888SOL     OW 7607   3.605   2.472   3.004
 1888SOL    HW2 7608   3.603   2.559   3.045
 1888SOL    HW3 7609   3.515   2.440   3.012
 1888SOL    MW4 7610   3.593   2.479   3.011
 1889SOL     OW 7611   3.590   2.697   3.151
 1889SOL    HW2 7612   3.671   2.742   3.125
 1889SOL    HW3 7613   3.520   2.755   3.121
 1889SOL    MW4 7614   3.591   2.710   3.143
 1890SOL     OW 7615   3.822   2.851   3.058
 1890SOL    HW2 7616   3.806   2.943   3.077
 1890SOL    HW3 7617   3.822   2.846   2.963
 1890SOL    MW4 7618   3.820   2.862   3.048
 1891SOL     OW 7619   3.839   3.129   3.091
 1891SOL    HW2 7620   3.922   3.176   3.092
 1891SOL    HW3 7621   3.775   3.194   3.062
 1891SOL    MW4 7622   3.841   3.144   3.087
 1892SOL     OW 7623   3.624   3.266   3.009
 1892SOL    HW2 7624   3.548   3.220   3.043
 1892SOL    HW3 7625   3.611   3.269   2.914
 1892SOL    MW4 7626   3.612   3.261   3.001
 1893SOL     OW 7627   3.622   3.516   3.127
 1893SOL    HW2 7628   3.705   3.558   3.104
 1893SOL    HW3 7629   3.628   3.429   3.088
 1893SOL    MW4 7630   3.634   3.510   3.119
 1894SOL     OW 7631   3.859   3.619   3.037
 1894SOL    HW2 7632   3.845   3.712   3.056
 1894SOL    HW3 7633   3.848   3.612   2.942
 1894SOL    MW4 7634   3.856   3.630   3.027
 1895SOL     OW 7635   3.796   3.904   3.133
 1895SOL    HW2 7636   3.798   3.918   3.227
 1895SOL    HW3 7637   3.712   3.941   3.105
 1895SOL    MW4 7638   3.785   3.911   3.141
 1896SOL     OW 7639   3.562   4.012   3.011
 1896SOL    HW2 7640   3.486   3.957   3.031
 1896SOL    HW3 7641   3.568   4.010   2.915
 1896SOL    MW4 7642   3.553   4.004   3.001
 1897SOL     OW 7643   3.535   4.275   3.129
 1897SOL    HW2 7644   3.611   4.318   3.089
 1897SOL    HW3 7645   3.533   4.188   3.090
 1897SOL    MW4 7646   3.544   4.269   3.119
 1898SOL     OW 7647   3.781   4.395   3.045
 1898SOL    HW2 7648   3.868   4.369   3.076
 1898SOL    HW3 7649   3.793   4.409   2.951
 1898SOL    MW4 7650   3.794   4.393   3.036
 1899SOL     OW 7651   4.268   0.023   3.099
 1899SOL    HW2 7652   4.281   0.021   3.194
 1899SOL    HW3 7653   4.260  -0.069   3.075
 1899SOL    MW4 7654   4.268   0.011   3.109
 1900SOL     OW 7655   4.028   0.157   3.041
 1900SOL    HW2 7656   4.106   0.123   3.084
 1900SOL    HW3 7657   3.956   0.109   3.080
 1900SOL    MW4 7658   4.029   0.146   3.052
 1901SOL     OW 7659   4.015   0.421   3.120
 1901SOL    HW2 7660   4.100   0.452   3.089
 1901SOL    HW3 7661   4.012   0.329   3.096
 1901SOL    MW4 7662   4.026   0.413   3.113
 1902SOL     OW 7663   4.262   0.515   3.024
 1902SOL    HW2 7664   4.270   0.602   3.063
 1902SOL    HW3 7665   4.271   0.530   2.930
 1902SOL    MW4 7666   4.264   0.528   3.017
 1903SOL     OW 7667   4.276   0.747   3.146
 1903SOL    HW2 7668   4.199   0.783   3.104
 1903SOL    HW3 7669   4.348   0.802   3.116
 1903SOL    MW4 7670   4.276   0.759   3.137
 1904SOL     OW 7671   4.046   0.876   3.061
 1904SOL    HW2 7672   4.053   0.966   3.093
 1904SOL    HW3 7673   4.033   0.885   2.967
 1904SOL    MW4 7674   4.045   0.889   3.053
 1905SOL     OW 7675   4.061   1.164   3.091
 1905SOL    HW2 7676   4.054   1.155   3.186
 1905SOL    HW3 7677   3.982   1.210   3.065
 1905SOL    MW4 7678   4.050   1.169   3.100
 1906SOL     OW 7679   4.297   1.298   3.050
 1906SOL    HW2 7680   4.214   1.256   3.070
 1906SOL    HW3 7681   4.294   1.312   2.955
 1906SOL    MW4 7682   4.286   1.295   3.040
 1907SOL     OW 7683   4.275   1.545   3.142
 1907SOL    HW2 7684   4.197   1.575   3.096
 1907SOL    HW3 7685   4.289   1.456   3.109
 1907SOL    MW4 7686   4.267   1.537   3.132
 1908SOL     OW 7687   4.072   1.644   3.009
 1908SOL    HW2 7688   4.064   1.731   3.049
 1908SOL    HW3 7689   3.991   1.599   3.033
 1908SOL    MW4 7690   4.060   1.650   3.017
 1909SOL     OW 7691   4.037   1.909   3.087
 1909SOL    HW2 7692   4.113   1.966   3.092
 1909SOL    HW3 7693   3.963   1.969   3.070
 1909SOL    MW4 7694   4.037   1.925   3.085
 1910SOL     OW 7695   4.277   2.048   3.080
 1910SOL    HW2 7696   4.271   2.142   3.095
 1910SOL    HW3 7697   4.269   2.039   2.985
 1910SOL    MW4 7698   4.275   2.059   3.069
 1911SOL     OW 7699   4.246   2.307   3.104
 1911SOL    HW2 7700   4.179   2.364   3.067
 1911SOL    HW3 7701   4.329   2.347   3.079
 1911SOL    MW4 7702   4.248   2.320   3.096
 1912SOL     OW 7703   4.018   2.459   3.016
 1912SOL    HW2 7704   4.012   2.551   3.040
 1912SOL    HW3 7705   3.941   2.418   3.056
 1912SOL    MW4 7706   4.007   2.466   3.025
 1913SOL     OW 7707   4.069   2.737   3.104
 1913SOL    HW2 7708   4.067   2.728   3.200
 1913SOL    HW3 7709   3.983   2.773   3.083
 1913SOL    MW4 7710   4.057   2.740   3.114
 1914SOL     OW 7711   4.277   2.845   2.974
 1914SOL    HW2 7712   4.203   2.796   3.008
 1914SOL    HW3 7713   4.354   2.805   3.015
 1914SOL    MW4 7714   4.277   2.833   2.984
 1915SOL     OW 7715   4.250   3.092   3.115
 1915SOL    HW2 7716   4.179   3.134   3.066
 1915SOL    HW3 7717   4.254   3.003   3.079
 1915SOL    MW4 7718   4.241   3.086   3.104
 1916SOL     OW 7719   4.063   3.270   3.025
 1916SOL    HW2 7720   4.077   3.363   3.045
 1916SOL    HW3 7721   4.080   3.263   2.931
 1916SOL    MW4 7722   4.067   3.281   3.015
 1917SOL     OW 7723   4.077   3.514   3.167
 1917SOL    HW2 7724   4.066   3.512   3.262
 1917SOL    HW3 7725   4.003   3.567   3.135
 1917SOL    MW4 7726   4.066   3.521   3.175
 1918SOL     OW 7727   4.266   3.686   3.025
 1918SOL    HW2 7728   4.272   3.770   3.070
 1918SOL    HW3 7729   4.200   3.637   3.074
 1918SOL    MW4 7730   4.258   3.691   3.037
 1919SOL     OW 7731   4.254   3.933   3.148
 1919SOL    HW2 7732   4.172   3.953   3.103
 1919SOL    HW3 7733   4.321   3.977   3.097
 1919SOL    MW4 7734   4.252   3.941   3.135
 1920SOL     OW 7735   4.029   4.020   3.036
 1920SOL    HW2 7736   4.026   4.111   3.067
 1920SOL    HW3 7737   3.948   3.981   3.070
 1920SOL    MW4 7738   4.018   4.027   3.044
 1921SOL     OW 7739   4.043   4.288   3.125
 1921SOL    HW2 7740   4.033   4.275   3.219
 1921SOL    HW3 7741   4.132   4.323   3.115
 1921SOL    MW4 7742   4.054   4.291   3.136
 1922SOL     OW 7743   4.282   4.418   3.033
 1922SOL    HW2 7744   4.353   4.363   3.067
 1922SOL    HW3 7745   4.280   4.399   2.939
 1922SOL    MW4 7746   4.291   4.408   3.025
 1923SOL     OW 7747   0.233   0.010   3.386
 1923SOL    HW2 7748   0.307   0.058   3.422
 1923SOL    HW3 7749   0.250  -0.082   3.407
 1923SOL    MW4 7750   0.245   0.004   3.394
 1924SOL     OW 7751   0.019   0.116   3.515
 1924SOL    HW2 7752   0.032   0.208   3.491
 1924SOL    HW3 7753   0.094   0.071   3.477
 1924SOL    MW4 7754   0.031   0.122   3.507
 1925SOL     OW 7755   0.041   0.376   3.421
 1925SOL    HW2 7756  -0.034   0.421   3.460
 1925SOL    HW3 7757   0.117   0.410   3.468
 1925SOL    MW4 7758   0.041   0.386   3.432
 1926SOL     OW 7759   0.267   0.510   3.541
 1926SOL    HW2 7760   0.335   0.471   3.486
 1926SOL    HW3 7761   0.246   0.593   3.498
 1926SOL    MW4 7762   0.273   0.516   3.528
 1927SOL     OW 7763   0.219   0.759   3.438
 1927SOL    HW2 7764   0.294   0.815   3.460
 1927SOL    HW3 7765   0.142   0.814   3.452
 1927SOL    MW4 7766   0.219   0.773   3.443
 1928SOL     OW 7767   4.490   0.895   3.505
 1928SOL    HW2 7768   4.517   0.894   3.597
 1928SOL    HW3 7769   4.493   0.987   3.481
 1928SOL    MW4 7770   4.494   0.907   3.514
 1929SOL     OW 7771   4.464   1.158   3.433
 1929SOL    HW2 7772   4.544   1.198   3.465
 1929SOL    HW3 7773   4.463   1.176   3.339
 1929SOL    MW4 7774   4.474   1.166   3.425
 1930SOL     OW 7775   0.213   1.290   3.507
 1930SOL    HW2 7776   0.281   1.227   3.483
 1930SOL    HW3 7777   0.229   1.366   3.450
 1930SOL    MW4 7778   0.224   1.292   3.496
 1931SOL     OW 7779   0.255   1.538   3.390
 1931SOL    HW2 7780   0.339   1.577   3.415
 1931SOL    HW3 7781   0.261   1.528   3.295
 1931SOL    MW4 7782   0.267   1.542   3.381
 1932SOL     OW 7783   0.024   1.664   3.484
 1932SOL    HW2 7784  -0.053   1.621   3.448
 1932SOL    HW3 7785   0.098   1.611   3.453
 1932SOL    MW4 7786   0.023   1.652   3.475
 1933SOL     OW 7787   4.454   1.937   3.435
 1933SOL    HW2 7788   4.469   1.843   3.448
 1933SOL    HW3 7789   4.454   1.949   3.340
 1933SOL    MW4 7790   4.456   1.926   3.424
 1934SOL     OW 7791   0.222   2.047   3.469
 1934SOL    HW2 7792   0.261   2.020   3.552
 1934SOL    HW3 7793   0.140   1.998   3.464
 1934SOL    MW4 7794   0.216   2.037   3.480
 1935SOL     OW 7795   0.249   2.313   3.412
 1935SOL    HW2 7796   0.167   2.356   3.437
 1935SOL    HW3 7797   0.231   2.220   3.423
 1935SOL    MW4 7798   0.235   2.306   3.417
 1936SOL     OW 7799   0.023   2.448   3.462
 1936SOL    HW2 7800   0.015   2.442   3.557
 1936SOL    HW3 7801  -0.057   2.408   3.428
 1936SOL    MW4 7802   0.011   2.442   3.470
 1937SOL     OW 7803   0.001   2.712   3.391
 1937SOL    HW2 7804   0.078   2.747   3.435
 1937SOL    HW3 7805  -0.001   2.620   3.418
 1937SOL    MW4 7806   0.011   2.704   3.401
 1938SOL     OW 7807   0.214   2.818   3.505
 1938SOL    HW2 7808   0.290   2.779   3.461
 1938SOL    HW3 7809   0.211   2.908   3.472
 1938SOL    MW4 7810   0.224   2.825   3.495
 1939SOL     OW 7811   0.208   3.064   3.421
 1939SOL    HW2 7812   0.129   3.099   3.463
 1939SOL    HW3 7813   0.188   3.065   3.328
 1939SOL    MW4 7814   0.195   3.069   3.414
 1940SOL     OW 7815   4.480   3.182   3.529
 1940SOL    HW2 7816   4.401   3.148   3.488
 1940SOL    HW3 7817   4.491   3.270   3.493
 1940SOL    MW4 7818   4.471   3.189   3.519
 1941SOL     OW 7819   4.486   3.426   3.402
 1941SOL    HW2 7820   4.417   3.479   3.442
 1941SOL    HW3 7821   4.484   3.450   3.309
 1941SOL    MW4 7822   4.477   3.436   3.395
 1942SOL     OW 7823   0.204   3.590   3.475
 1942SOL    HW2 7824   0.192   3.577   3.569
 1942SOL    HW3 7825   0.137   3.535   3.434
 1942SOL    MW4 7826   0.193   3.581   3.482
 1943SOL     OW 7827   0.227   3.848   3.391
 1943SOL    HW2 7828   0.154   3.887   3.438
 1943SOL    HW3 7829   0.216   3.754   3.404
 1943SOL    MW4 7830   0.216   3.841   3.399
 1944SOL     OW 7831   0.012   3.994   3.503
 1944SOL    HW2 7832   0.037   3.984   3.595
 1944SOL    HW3 7833   0.027   4.086   3.483
 1944SOL    MW4 7834   0.017   4.005   3.512
 1945SOL     OW 7835   0.030   4.275   3.422
 1945SOL    HW2 7836  -0.053   4.318   3.445
 1945SOL    HW3 7837   0.097   4.328   3.465
 1945SOL    MW4 7838   0.028   4.288   3.431
 1946SOL     OW 7839   0.231   4.418   3.526
 1946SOL    HW2 7840   0.226   4.411   3.622
 1946SOL    HW3 7841   0.306   4.363   3.503
 1946SOL    MW4 7842   0.241   4.410   3.536
 1947SOL     OW 7843   0.623   4.594   3.437
 1947SOL    HW2 7844   0.696   4.645   3.472
 1947SOL    HW3 7845   0.622   4.615   3.343
 1947SOL    MW4 7846   0.632   4.604   3.429
 1948SOL     OW 7847   0.459   0.141   3.501
 1948SOL    HW2 7848   0.468   0.160   3.594
 1948SOL    HW3 7849   0.513   0.063   3.486
 1948SOL    MW4 7850   0.467   0.133   3.511
 1949SOL     OW 7851   0.449   0.393   3.380
 1949SOL    HW2 7852   0.533   0.429   3.410
 1949SOL    HW3 7853   0.442   0.308   3.422
 1949SOL    MW4 7854   0.459   0.387   3.389
 1950SOL     OW 7855   0.670   0.494   3.500
 1950SOL    HW2 7856   0.692   0.504   3.592
 1950SOL    HW3 7857   0.738   0.436   3.465
 1950SOL    MW4 7858   0.682   0.488   3.507
 1951SOL     OW 7859   0.698   0.748   3.420
 1951SOL    HW2 7860   0.613   0.784   3.444
 1951SOL    HW3 7861   0.692   0.654   3.441
 1951SOL    MW4 7862   0.686   0.740   3.426
 1952SOL     OW 7863   0.464   0.884   3.514
 1952SOL    HW2 7864   0.472   0.885   3.610
 1952SOL    HW3 7865   0.446   0.976   3.491
 1952SOL    MW4 7866   0.463   0.896   3.524
 1953SOL     OW 7867   0.435   1.140   3.425
 1953SOL    HW2 7868   0.518   1.186   3.441
 1953SOL    HW3 7869   0.436   1.119   3.332
 1953SOL    MW4 7870   0.446   1.143   3.415
 1954SOL     OW 7871   0.682   1.267   3.485
 1954SOL    HW2 7872   0.768   1.226   3.476
 1954SOL    HW3 7873   0.697   1.359   3.462
 1954SOL    MW4 7874   0.695   1.274   3.481
 1955SOL     OW 7875   0.744   1.544   3.396
 1955SOL    HW2 7876   0.807   1.603   3.439
 1955SOL    HW3 7877   0.659   1.581   3.419
 1955SOL    MW4 7878   0.741   1.557   3.405
 1956SOL     OW 7879   0.484   1.669   3.447
 1956SOL    HW2 7880   0.474   1.666   3.542
 1956SOL    HW3 7881   0.449   1.755   3.422
 1956SOL    MW4 7882   0.478   1.680   3.456
 1957SOL     OW 7883   0.439   1.919   3.366
 1957SOL    HW2 7884   0.368   1.968   3.407
 1957SOL    HW3 7885   0.413   1.908   3.275
 1957SOL    MW4 7886   0.427   1.924   3.359
 1958SOL     OW 7887   0.688   1.998   3.469
 1958SOL    HW2 7888   0.666   1.993   3.562
 1958SOL    HW3 7889   0.607   1.973   3.424
 1958SOL    MW4 7890   0.674   1.994   3.476
 1959SOL     OW 7891   0.671   2.288   3.375
 1959SOL    HW2 7892   0.754   2.327   3.399
 1959SOL    HW3 7893   0.679   2.196   3.399
 1959SOL    MW4 7894   0.683   2.281   3.381
 1960SOL     OW 7895   0.476   2.457   3.475
 1960SOL    HW2 7896   0.547   2.401   3.444
 1960SOL    HW3 7897   0.396   2.410   3.450
 1960SOL    MW4 7898   0.475   2.443   3.468
 1961SOL     OW 7899   0.442   2.737   3.399
 1961SOL    HW2 7900   0.473   2.652   3.432
 1961SOL    HW3 7901   0.433   2.724   3.304
 1961SOL    MW4 7902   0.445   2.724   3.391
 1962SOL     OW 7903   0.683   2.846   3.493
 1962SOL    HW2 7904   0.740   2.783   3.449
 1962SOL    HW3 7905   0.595   2.813   3.480
 1962SOL    MW4 7906   0.679   2.834   3.485
 1963SOL     OW 7907   0.686   3.130   3.424
 1963SOL    HW2 7908   0.595   3.149   3.444
 1963SOL    HW3 7909   0.695   3.035   3.439
 1963SOL    MW4 7910   0.676   3.120   3.428
 1964SOL     OW 7911   0.437   3.213   3.473
 1964SOL    HW2 7912   0.440   3.219   3.568
 1964SOL    HW3 7913   0.363   3.155   3.454
 1964SOL    MW4 7914   0.428   3.206   3.483
 1965SOL     OW 7915   0.430   3.460   3.366
 1965SOL    HW2 7916   0.420   3.375   3.408
 1965SOL    HW3 7917   0.359   3.513   3.401
 1965SOL    MW4 7918   0.419   3.456   3.376
 1966SOL     OW 7919   0.658   3.591   3.489
 1966SOL    HW2 7920   0.743   3.560   3.456
 1966SOL    HW3 7921   0.594   3.536   3.444
 1966SOL    MW4 7922   0.661   3.579   3.478
 1967SOL     OW 7923   0.688   3.838   3.361
 1967SOL    HW2 7924   0.604   3.878   3.385
 1967SOL    HW3 7925   0.687   3.753   3.404
 1967SOL    MW4 7926   0.677   3.832   3.370
 1968SOL     OW 7927   0.430   3.988   3.509
 1968SOL    HW2 7928   0.406   4.078   3.488
 1968SOL    HW3 7929   0.366   3.934   3.462
 1968SOL    MW4 7930   0.419   3.992   3.500
 1969SOL     OW 7931   0.425   4.254   3.429
 1969SOL    HW2 7932   0.507   4.295   3.456
 1969SOL    HW3 7933   0.425   4.264   3.333
 1969SOL    MW4 7934   0.436   4.261   3.420
 1970SOL     OW 7935   0.661   4.343   3.555
 1970SOL    HW2 7936   0.738   4.294   3.524
 1970SOL    HW3 7937   0.667   4.427   3.510
 1970SOL    MW4 7938   0.672   4.348   3.545
 1971SOL     OW 7939   1.102   4.667   3.410
 1971SOL    HW2 7940   1.191   4.700   3.423
 1971SOL    HW3 7941   1.089   4.669   3.315
 1971SOL    MW4 7942   1.112   4.671   3.399
 1972SOL     OW 7943   0.849   0.071   3.505
 1972SOL    HW2 7944   0.857   0.069   3.601
 1972SOL    HW3 7945   0.930   0.031   3.474
 1972SOL    MW4 7946   0.861   0.065   3.514
 1973SOL     OW 7947   0.899   0.328   3.422
 1973SOL    HW2 7948   0.988   0.351   3.448
 1973SOL    HW3 7949   0.884   0.241   3.461
 1973SOL    MW4 7950   0.909   0.319   3.430
 1974SOL     OW 7951   1.149   0.478   3.502
 1974SOL    HW2 7952   1.155   0.492   3.597
 1974SOL    HW3 7953   1.133   0.566   3.467
 1974SOL    MW4 7954   1.147   0.491   3.510
 1975SOL     OW 7955   1.119   0.731   3.408
 1975SOL    HW2 7956   1.203   0.770   3.434
 1975SOL    HW3 7957   1.054   0.777   3.461
 1975SOL    MW4 7958   1.122   0.742   3.418
 1976SOL     OW 7959   0.918   0.883   3.525
 1976SOL    HW2 7960   0.918   0.971   3.487
 1976SOL    HW3 7961   0.844   0.839   3.483
 1976SOL    MW4 7962   0.908   0.889   3.514
 1977SOL     OW 7963   0.944   1.154   3.442
 1977SOL    HW2 7964   1.016   1.210   3.470
 1977SOL    HW3 7965   0.949   1.156   3.346
 1977SOL    MW4 7966   0.954   1.162   3.433
 1978SOL     OW 7967   1.166   1.304   3.506
 1978SOL    HW2 7968   1.194   1.322   3.596
 1978SOL    HW3 7969   1.158   1.391   3.466
 1978SOL    MW4 7970   1.169   1.318   3.513
 1979SOL     OW 7971   1.170   1.555   3.404
 1979SOL    HW2 7972   1.249   1.607   3.421
 1979SOL    HW3 7973   1.144   1.579   3.315
 1979SOL    MW4 7974   1.177   1.565   3.394
 1980SOL     OW 7975   0.947   1.691   3.521
 1980SOL    HW2 7976   0.951   1.766   3.462
 1980SOL    HW3 7977   1.024   1.639   3.500
 1980SOL    MW4 7978   0.958   1.694   3.511
 1981SOL     OW 7979   0.905   1.909   3.351
 1981SOL    HW2 7980   0.979   1.949   3.396
 1981SOL    HW3 7981   0.830   1.929   3.407
 1981SOL    MW4 7982   0.905   1.917   3.364
 1982SOL     OW 7983   1.130   2.038   3.470
 1982SOL    HW2 7984   1.216   2.000   3.453
 1982SOL    HW3 7985   1.130   2.122   3.424
 1982SOL    MW4 7986   1.141   2.044   3.462
 1983SOL     OW 7987   1.145   2.315   3.404
 1983SOL    HW2 7988   1.207   2.382   3.432
 1983SOL    HW3 7989   1.145   2.319   3.309
 1983SOL    MW4 7990   1.153   2.324   3.396
 1984SOL     OW 7991   0.892   2.396   3.494
 1984SOL    HW2 7992   0.890   2.409   3.589
 1984SOL    HW3 7993   0.970   2.342   3.480
 1984SOL    MW4 7994   0.902   2.391   3.505
 1985SOL     OW 7995   0.874   2.675   3.409
 1985SOL    HW2 7996   0.945   2.728   3.445
 1985SOL    HW3 7997   0.900   2.585   3.426
 1985SOL    MW4 7998   0.887   2.670   3.416
 1986SOL     OW 7999   1.104   2.814   3.488
 1986SOL    HW2 8000   1.125   2.831   3.580
 1986SOL    HW3 8001   1.185   2.782   3.450
 1986SOL    MW4 8002   1.117   2.812   3.495
 1987SOL     OW 8003   1.108   3.097   3.402
 1987SOL    HW2 8004   1.088   3.004   3.418
 1987SOL    HW3 8005   1.138   3.100   3.311
 1987SOL    MW4 8006   1.109   3.085   3.392
 1988SOL     OW 8007   0.910   3.262   3.518
 1988SOL    HW2 8008   0.983   3.211   3.484
 1988SOL    HW3 8009   0.833   3.226   3.474
 1988SOL    MW4 8010   0.909   3.251   3.507
 1989SOL     OW 8011   0.895   3.490   3.368
 1989SOL    HW2 8012   0.912   3.401   3.399
 1989SOL    HW3 8013   0.888   3.481   3.273
 1989SOL    MW4 8014   0.896   3.477   3.359
 1990SOL     OW 8015   1.126   3.611   3.466
 1990SOL    HW2 8016   1.124   3.601   3.561
 1990SOL    HW3 8017   1.044   3.572   3.435
 1990SOL    MW4 8018   1.115   3.605   3.474
 1991SOL     OW 8019   1.122   3.871   3.430
 1991SOL    HW2 8020   1.202   3.922   3.441
 1991SOL    HW3 8021   1.148   3.781   3.451
 1991SOL    MW4 8022   1.136   3.866   3.434
 1992SOL     OW 8023   0.874   3.984   3.513
 1992SOL    HW2 8024   0.949   3.954   3.461
 1992SOL    HW3 8025   0.798   3.940   3.475
 1992SOL    MW4 8026   0.874   3.974   3.501
 1993SOL     OW 8027   0.890   4.258   3.429
 1993SOL    HW2 8028   0.920   4.169   3.445
 1993SOL    HW3 8029   0.913   4.276   3.338
 1993SOL    MW4 8030   0.897   4.249   3.419
 1994SOL     OW 8031   1.109   4.419   3.536
 1994SOL    HW2 8032   1.033   4.363   3.523
 1994SOL    HW3 8033   1.089   4.497   3.484
 1994SOL    MW4 8034   1.096   4.422   3.527
 1995SOL     OW 8035   1.598   4.636   3.416
 1995SOL    HW2 8036   1.587   4.551   3.458
 1995SOL    HW3 8037   1.516   4.682   3.435
 1995SOL    MW4 8038   1.586   4.631   3.424
 1996SOL     OW 8039   1.345   0.099   3.468
 1996SOL    HW2 8040   1.350   0.109   3.563
 1996SOL    HW3 8041   1.359   0.187   3.434
 1996SOL    MW4 8042   1.348   0.112   3.476
 1997SOL     OW 8043   1.357   0.374   3.386
 1997SOL    HW2 8044   1.424   0.415   3.442
 1997SOL    HW3 8045   1.275   0.409   3.420
 1997SOL    MW4 8046   1.355   0.384   3.398
 1998SOL     OW 8047   1.563   0.489   3.514
 1998SOL    HW2 8048   1.573   0.508   3.608
 1998SOL    HW3 8049   1.649   0.457   3.487
 1998SOL    MW4 8050   1.576   0.488   3.523
 1999SOL     OW 8051   1.579   0.734   3.388
 1999SOL    HW2 8052   1.506   0.785   3.424
 1999SOL    HW3 8053   1.571   0.648   3.428
 1999SOL    MW4 8054   1.568   0.730   3.398
 2000SOL     OW 8055   1.367   0.862   3.491
 2000SOL    HW2 8056   1.377   0.870   3.586
 2000SOL    HW3 8057   1.371   0.952   3.459
 2000SOL    MW4 8058   1.369   0.875   3.499
 2001SOL     OW 8059   1.365   1.121   3.402
 2001SOL    HW2 8060   1.440   1.171   3.436
 2001SOL    HW3 8061   1.289   1.164   3.440
 2001SOL    MW4 8062   1.365   1.134   3.411
 2002SOL     OW 8063   1.587   1.272   3.493
 2002SOL    HW2 8064   1.588   1.263   3.588
 2002SOL    HW3 8065   1.667   1.227   3.464
 2002SOL    MW4 8066   1.598   1.265   3.502
 2003SOL     OW 8067   1.618   1.529   3.385
 2003SOL    HW2 8068   1.597   1.437   3.402
 2003SOL    HW3 8069   1.600   1.541   3.292
 2003SOL    MW4 8070   1.613   1.518   3.375
 2004SOL     OW 8071   1.406   1.690   3.449
 2004SOL    HW2 8072   1.396   1.681   3.544
 2004SOL    HW3 8073   1.477   1.630   3.426
 2004SOL    MW4 8074   1.414   1.681   3.458
 2005SOL     OW 8075   1.363   1.939   3.365
 2005SOL    HW2 8076   1.441   1.987   3.395
 2005SOL    HW3 8077   1.381   1.848   3.389
 2005SOL    MW4 8078   1.376   1.933   3.372
 2006SOL     OW 8079   1.586   2.092   3.469
 2006SOL    HW2 8080   1.662   2.057   3.422
 2006SOL    HW3 8081   1.572   2.178   3.431
 2006SOL    MW4 8082   1.594   2.098   3.457
 2007SOL     OW 8083   1.585   2.348   3.360
 2007SOL    HW2 8084   1.513   2.389   3.409
 2007SOL    HW3 8085   1.565   2.366   3.269
 2007SOL    MW4 8086   1.573   2.356   3.355
 2008SOL     OW 8087   1.375   2.482   3.491
 2008SOL    HW2 8088   1.369   2.473   3.586
 2008SOL    HW3 8089   1.387   2.576   3.476
 2008SOL    MW4 8090   1.376   2.493   3.502
 2009SOL     OW 8091   1.338   2.748   3.376
 2009SOL    HW2 8092   1.424   2.781   3.400
 2009SOL    HW3 8093   1.339   2.742   3.281
 2009SOL    MW4 8094   1.349   2.752   3.367
 2010SOL     OW 8095   1.589   2.819   3.473
 2010SOL    HW2 8096   1.654   2.760   3.437
 2010SOL    HW3 8097   1.614   2.906   3.441
 2010SOL    MW4 8098   1.601   2.823   3.464
 2011SOL     OW 8099   1.622   3.082   3.379
 2011SOL    HW2 8100   1.678   3.158   3.393
 2011SOL    HW3 8101   1.533   3.114   3.394
 2011SOL    MW4 8102   1.617   3.096   3.383
 2012SOL     OW 8103   1.361   3.201   3.483
 2012SOL    HW2 8104   1.362   3.205   3.579
 2012SOL    HW3 8105   1.276   3.163   3.462
 2012SOL    MW4 8106   1.350   3.197   3.493
 2013SOL     OW 8107   1.380   3.464   3.382
 2013SOL    HW2 8108   1.381   3.373   3.410
 2013SOL    HW3 8109   1.293   3.496   3.407
 2013SOL    MW4 8110   1.368   3.456   3.389
 2014SOL     OW 8111   1.576   3.627   3.488
 2014SOL    HW2 8112   1.573   3.615   3.583
 2014SOL    HW3 8113   1.507   3.570   3.455
 2014SOL    MW4 8114   1.566   3.618   3.496
 2015SOL     OW 8115   1.551   3.912   3.445
 2015SOL    HW2 8116   1.560   3.818   3.465
 2015SOL    HW3 8117   1.561   3.918   3.350
 2015SOL    MW4 8118   1.553   3.900   3.435
 2016SOL     OW 8119   1.329   4.058   3.506
 2016SOL    HW2 8120   1.326   4.141   3.459
 2016SOL    HW3 8121   1.405   4.013   3.469
 2016SOL    MW4 8122   1.338   4.063   3.495
 2017SOL     OW 8123   1.330   4.298   3.375
 2017SOL    HW2 8124   1.245   4.331   3.404
 2017SOL    HW3 8125   1.328   4.308   3.280
 2017SOL    MW4 8126   1.319   4.304   3.366
 2018SOL     OW 8127   1.558   4.385   3.526
 2018SOL    HW2 8128   1.632   4.331   3.498
 2018SOL    HW3 8129   1.482   4.346   3.484
 2018SOL    MW4 8130   1.558   4.373   3.517
 2019SOL     OW 8131   1.997   0.014   3.404
 2019SOL    HW2 8132   2.068   0.074   3.428
 2019SOL    HW3 8133   1.919   0.054   3.443
 2019SOL    MW4 8134   1.996   0.027   3.413
 2020SOL     OW 8135   1.787   0.135   3.522
 2020SOL    HW2 8136   1.791   0.119   3.617
 2020SOL    HW3 8137   1.726   0.069   3.489
 2020SOL    MW4 8138   1.780   0.124   3.531
 2021SOL     OW 8139   1.815   0.394   3.439
 2021SOL    HW2 8140   1.801   0.305   3.472
 2021SOL    HW3 8141   1.822   0.385   3.345
 2021SOL    MW4 8142   1.814   0.381   3.431
 2022SOL     OW 8143   2.011   0.573   3.522
 2022SOL    HW2 8144   2.004   0.646   3.460
 2022SOL    HW3 8145   1.937   0.517   3.500
 2022SOL    MW4 8146   2.000   0.576   3.511
 2023SOL     OW 8147   2.022   0.812   3.357
 2023SOL    HW2 8148   2.107   0.849   3.382
 2023SOL    HW3 8149   2.026   0.809   3.261
 2023SOL    MW4 8150   2.034   0.817   3.347
 2024SOL     OW 8151   1.782   0.891   3.498
 2024SOL    HW2 8152   1.865   0.860   3.462
 2024SOL    HW3 8153   1.716   0.838   3.455
 2024SOL    MW4 8154   1.784   0.880   3.488
 2025SOL     OW 8155   1.809   1.159   3.389
 2025SOL    HW2 8156   1.894   1.198   3.409
 2025SOL    HW3 8157   1.804   1.081   3.444
 2025SOL    MW4 8158   1.819   1.154   3.399
 2026SOL     OW 8159   2.065   1.254   3.485
 2026SOL    HW2 8160   2.068   1.253   3.580
 2026SOL    HW3 8161   2.062   1.347   3.461
 2026SOL    MW4 8162   2.065   1.266   3.494
 2027SOL     OW 8163   2.050   1.507   3.367
 2027SOL    HW2 8164   2.127   1.556   3.396
 2027SOL    HW3 8165   1.975   1.556   3.401
 2027SOL    MW4 8166   2.050   1.520   3.375
 2028SOL     OW 8167   1.841   1.666   3.462
 2028SOL    HW2 8168   1.823   1.746   3.413
 2028SOL    HW3 8169   1.764   1.611   3.448
 2028SOL    MW4 8170   1.828   1.669   3.454
 2029SOL     OW 8171   1.815   1.945   3.372
 2029SOL    HW2 8172   1.885   1.970   3.432
 2029SOL    HW3 8173   1.852   1.957   3.285
 2029SOL    MW4 8174   1.829   1.950   3.369
 2030SOL     OW 8175   2.035   2.083   3.478
 2030SOL    HW2 8176   2.121   2.056   3.445
 2030SOL    HW3 8177   2.028   2.176   3.453
 2030SOL    MW4 8178   2.046   2.092   3.470
 2031SOL     OW 8179   2.036   2.363   3.381
 2031SOL    HW2 8180   2.108   2.415   3.417
 2031SOL    HW3 8181   2.048   2.369   3.286
 2031SOL    MW4 8182   2.047   2.371   3.373
 2032SOL     OW 8183   1.812   2.467   3.493
 2032SOL    HW2 8184   1.898   2.447   3.457
 2032SOL    HW3 8185   1.754   2.401   3.456
 2032SOL    MW4 8186   1.816   2.456   3.483
 2033SOL     OW 8187   1.808   2.710   3.352
 2033SOL    HW2 8188   1.889   2.760   3.363
 2033SOL    HW3 8189   1.829   2.623   3.385
 2033SOL    MW4 8190   1.822   2.705   3.358
 2034SOL     OW 8191   2.022   2.852   3.433
 2034SOL    HW2 8192   2.028   2.843   3.528
 2034SOL    HW3 8193   2.002   2.944   3.418
 2034SOL    MW4 8194   2.021   2.863   3.443
 2035SOL     OW 8195   1.995   3.120   3.385
 2035SOL    HW2 8196   2.077   3.158   3.417
 2035SOL    HW3 8197   1.930   3.189   3.399
 2035SOL    MW4 8198   1.997   3.134   3.391
 2036SOL     OW 8199   1.789   3.295   3.460
 2036SOL    HW2 8200   1.757   3.304   3.550
 2036SOL    HW3 8201   1.793   3.385   3.427
 2036SOL    MW4 8202   1.785   3.308   3.468
 2037SOL     OW 8203   1.812   3.555   3.356
 2037SOL    HW2 8204   1.727   3.577   3.396
 2037SOL    HW3 8205   1.792   3.547   3.262
 2037SOL    MW4 8206   1.798   3.557   3.349
 2038SOL     OW 8207   2.020   3.647   3.506
 2038SOL    HW2 8208   2.093   3.611   3.456
 2038SOL    HW3 8209   1.942   3.611   3.464
 2038SOL    MW4 8210   2.020   3.638   3.494
 2039SOL     OW 8211   2.051   3.908   3.399
 2039SOL    HW2 8212   1.979   3.959   3.435
 2039SOL    HW3 8213   2.045   3.823   3.443
 2039SOL    MW4 8214   2.041   3.903   3.409
 2040SOL     OW 8215   1.803   4.006   3.500
 2040SOL    HW2 8216   1.808   3.993   3.595
 2040SOL    HW3 8217   1.724   3.959   3.474
 2040SOL    MW4 8218   1.793   3.998   3.509
 2041SOL     OW 8219   1.808   4.306   3.407
 2041SOL    HW2 8220   1.807   4.212   3.423
 2041SOL    HW3 8221   1.780   4.316   3.316
 2041SOL    MW4 8222   1.804   4.295   3.398
 2042SOL     OW 8223   2.003   4.449   3.535
 2042SOL    HW2 8224   1.929   4.402   3.498
 2042SOL    HW3 8225   1.999   4.536   3.495
 2042SOL    MW4 8226   1.993   4.455   3.525
 2043SOL     OW 8227   2.417   0.007   3.426
 2043SOL    HW2 8228   2.417  -0.071   3.481
 2043SOL    HW3 8229   2.429  -0.025   3.337
 2043SOL    MW4 8230   2.419  -0.007   3.421
 2044SOL     OW 8231   2.199   0.175   3.502
 2044SOL    HW2 8232   2.200   0.254   3.447
 2044SOL    HW3 8233   2.276   0.125   3.474
 2044SOL    MW4 8234   2.209   0.179   3.491
 2045SOL     OW 8235   2.167   0.414   3.352
 2045SOL    HW2 8236   2.257   0.426   3.384
 2045SOL    HW3 8237   2.114   0.468   3.410
 2045SOL    MW4 8238   2.172   0.422   3.364
 2046SOL     OW 8239   2.414   0.474   3.466
 2046SOL    HW2 8240   2.491   0.439   3.421
 2046SOL    HW3 8241   2.411   0.566   3.440
 2046SOL    MW4 8242   2.424   0.482   3.457
 2047SOL     OW 8243   2.457   0.737   3.393
 2047SOL    HW2 8244   2.534   0.788   3.422
 2047SOL    HW3 8245   2.466   0.733   3.298
 2047SOL    MW4 8246   2.469   0.743   3.384
 2048SOL     OW 8247   2.245   0.904   3.483
 2048SOL    HW2 8248   2.271   0.991   3.454
 2048SOL    HW3 8249   2.317   0.847   3.456
 2048SOL    MW4 8250   2.258   0.908   3.476
 2049SOL     OW 8251   2.293   1.151   3.370
 2049SOL    HW2 8252   2.357   1.205   3.416
 2049SOL    HW3 8253   2.208   1.187   3.397
 2049SOL    MW4 8254   2.290   1.163   3.380
 2050SOL     OW 8255   2.526   1.278   3.451
 2050SOL    HW2 8256   2.529   1.268   3.546
 2050SOL    HW3 8257   2.599   1.226   3.418
 2050SOL    MW4 8258   2.536   1.270   3.459
 2051SOL     OW 8259   2.518   1.547   3.372
 2051SOL    HW2 8260   2.535   1.455   3.391
 2051SOL    HW3 8261   2.513   1.551   3.276
 2051SOL    MW4 8262   2.520   1.536   3.361
 2052SOL     OW 8263   2.273   1.659   3.453
 2052SOL    HW2 8264   2.272   1.660   3.549
 2052SOL    HW3 8265   2.356   1.617   3.430
 2052SOL    MW4 8266   2.284   1.654   3.463
 2053SOL     OW 8267   2.270   1.949   3.388
 2053SOL    HW2 8268   2.258   1.861   3.422
 2053SOL    HW3 8269   2.239   1.944   3.297
 2053SOL    MW4 8270   2.264   1.937   3.380
 2054SOL     OW 8271   2.488   2.062   3.504
 2054SOL    HW2 8272   2.478   2.058   3.599
 2054SOL    HW3 8273   2.418   2.007   3.470
 2054SOL    MW4 8274   2.478   2.054   3.512
 2055SOL     OW 8275   2.475   2.320   3.381
 2055SOL    HW2 8276   2.558   2.353   3.417
 2055SOL    HW3 8277   2.473   2.228   3.405
 2055SOL    MW4 8278   2.486   2.312   3.389
 2056SOL     OW 8279   2.253   2.486   3.481
 2056SOL    HW2 8280   2.260   2.575   3.447
 2056SOL    HW3 8281   2.330   2.441   3.445
 2056SOL    MW4 8282   2.264   2.492   3.471
 2057SOL     OW 8283   2.266   2.729   3.374
 2057SOL    HW2 8284   2.186   2.778   3.393
 2057SOL    HW3 8285   2.260   2.709   3.280
 2057SOL    MW4 8286   2.254   2.733   3.364
 2058SOL     OW 8287   2.474   2.835   3.522
 2058SOL    HW2 8288   2.486   2.927   3.498
 2058SOL    HW3 8289   2.407   2.803   3.462
 2058SOL    MW4 8290   2.467   2.843   3.511
 2059SOL     OW 8291   2.457   3.080   3.394
 2059SOL    HW2 8292   2.520   3.133   3.442
 2059SOL    HW3 8293   2.480   3.092   3.302
 2059SOL    MW4 8294   2.468   3.089   3.388
 2060SOL     OW 8295   2.213   3.251   3.492
 2060SOL    HW2 8296   2.219   3.241   3.587
 2060SOL    HW3 8297   2.284   3.197   3.458
 2060SOL    MW4 8298   2.223   3.243   3.500
 2061SOL     OW 8299   2.247   3.523   3.390
 2061SOL    HW2 8300   2.246   3.437   3.433
 2061SOL    HW3 8301   2.234   3.503   3.297
 2061SOL    MW4 8302   2.245   3.509   3.383
 2062SOL     OW 8303   2.479   3.635   3.480
 2062SOL    HW2 8304   2.489   3.718   3.433
 2062SOL    HW3 8305   2.400   3.596   3.442
 2062SOL    MW4 8306   2.470   3.641   3.469
 2063SOL     OW 8307   2.496   3.895   3.385
 2063SOL    HW2 8308   2.567   3.948   3.421
 2063SOL    HW3 8309   2.418   3.925   3.430
 2063SOL    MW4 8310   2.495   3.906   3.396
 2064SOL     OW 8311   2.273   4.021   3.509
 2064SOL    HW2 8312   2.271   4.111   3.475
 2064SOL    HW3 8313   2.204   3.976   3.460
 2064SOL    MW4 8314   2.263   4.027   3.498
 2065SOL     OW 8315   2.205   4.304   3.427
 2065SOL    HW2 8316   2.129   4.350   3.463
 2065SOL    HW3 8317   2.186   4.294   3.334
 2065SOL    MW4 8318   2.193   4.309   3.420
 2066SOL     OW 8319   2.470   4.408   3.528
 2066SOL    HW2 8320   2.476   4.410   3.623
 2066SOL    HW3 8321   2.378   4.386   3.511
 2066SOL    MW4 8322   2.458   4.405   3.538
 2067SOL     OW 8323   2.865   4.661   3.386
 2067SOL    HW2 8324   2.788   4.711   3.412
 2067SOL    HW3 8325   2.872   4.676   3.292
 2067SOL    MW4 8326   2.856   4.670   3.377
 2068SOL     OW 8327   2.658   0.121   3.507
 2068SOL    HW2 8328   2.664   0.205   3.463
 2068SOL    HW3 8329   2.570   0.088   3.486
 2068SOL    MW4 8330   2.647   0.127   3.498
 2069SOL     OW 8331   2.661   0.354   3.386
 2069SOL    HW2 8332   2.735   0.396   3.429
 2069SOL    HW3 8333   2.674   0.371   3.293
 2069SOL    MW4 8334   2.672   0.361   3.379
 2070SOL     OW 8335   2.909   0.521   3.465
 2070SOL    HW2 8336   2.928   0.537   3.557
 2070SOL    HW3 8337   2.910   0.608   3.424
 2070SOL    MW4 8338   2.911   0.535   3.472
 2071SOL     OW 8339   2.905   0.777   3.332
 2071SOL    HW2 8340   2.985   0.808   3.375
 2071SOL    HW3 8341   2.836   0.795   3.395
 2071SOL    MW4 8342   2.907   0.784   3.346
 2072SOL     OW 8343   2.702   0.889   3.489
 2072SOL    HW2 8344   2.714   0.916   3.580
 2072SOL    HW3 8345   2.721   0.968   3.438
 2072SOL    MW4 8346   2.706   0.903   3.494
 2073SOL     OW 8347   2.739   1.126   3.352
 2073SOL    HW2 8348   2.779   1.209   3.379
 2073SOL    HW3 8349   2.770   1.113   3.263
 2073SOL    MW4 8350   2.749   1.135   3.344
 2074SOL     OW 8351   2.897   1.329   3.431
 2074SOL    HW2 8352   2.897   1.328   3.526
 2074SOL    HW3 8353   2.969   1.272   3.405
 2074SOL    MW4 8354   2.906   1.321   3.440
 2075SOL     OW 8355   2.923   1.595   3.379
 2075SOL    HW2 8356   2.845   1.637   3.416
 2075SOL    HW3 8357   2.912   1.502   3.399
 2075SOL    MW4 8358   2.912   1.588   3.387
 2076SOL     OW 8359   2.714   1.725   3.493
 2076SOL    HW2 8360   2.727   1.805   3.443
 2076SOL    HW3 8361   2.647   1.677   3.444
 2076SOL    MW4 8362   2.707   1.729   3.480
 2077SOL     OW 8363   2.731   1.966   3.377
 2077SOL    HW2 8364   2.655   2.000   3.423
 2077SOL    HW3 8365   2.712   1.982   3.284
 2077SOL    MW4 8366   2.718   1.972   3.371
 2078SOL     OW 8367   2.955   2.089   3.470
 2078SOL    HW2 8368   2.949   2.108   3.564
 2078SOL    HW3 8369   2.877   2.038   3.450
 2078SOL    MW4 8370   2.944   2.085   3.480
 2079SOL     OW 8371   2.891   2.343   3.344
 2079SOL    HW2 8372   2.891   2.251   3.371
 2079SOL    HW3 8373   2.875   2.340   3.250
 2079SOL    MW4 8374   2.889   2.330   3.335
 2080SOL     OW 8375   2.702   2.453   3.483
 2080SOL    HW2 8376   2.706   2.422   3.573
 2080SOL    HW3 8377   2.779   2.415   3.441
 2080SOL    MW4 8378   2.713   2.444   3.490
 2081SOL     OW 8379   2.723   2.708   3.425
 2081SOL    HW2 8380   2.702   2.616   3.444
 2081SOL    HW3 8381   2.641   2.755   3.441
 2081SOL    MW4 8382   2.709   2.702   3.429
 2082SOL     OW 8383   2.963   2.835   3.485
 2082SOL    HW2 8384   2.976   2.856   3.578
 2082SOL    HW3 8385   2.879   2.789   3.483
 2082SOL    MW4 8386   2.953   2.832   3.497
 2083SOL     OW 8387   2.936   3.114   3.410
 2083SOL    HW2 8388   2.955   3.023   3.433
 2083SOL    HW3 8389   2.924   3.113   3.316
 2083SOL    MW4 8390   2.937   3.102   3.401
 2084SOL     OW 8391   2.681   3.237   3.476
 2084SOL    HW2 8392   2.677   3.221   3.571
 2084SOL    HW3 8393   2.767   3.204   3.450
 2084SOL    MW4 8394   2.692   3.230   3.485
 2085SOL     OW 8395   2.685   3.485   3.372
 2085SOL    HW2 8396   2.680   3.397   3.410
 2085SOL    HW3 8397   2.615   3.533   3.414
 2085SOL    MW4 8398   2.675   3.480   3.382
 2086SOL     OW 8399   2.906   3.608   3.501
 2086SOL    HW2 8400   2.906   3.693   3.457
 2086SOL    HW3 8401   2.834   3.560   3.460
 2086SOL    MW4 8402   2.896   3.613   3.490
 2087SOL     OW 8403   2.912   3.879   3.349
 2087SOL    HW2 8404   2.990   3.917   3.390
 2087SOL    HW3 8405   2.839   3.925   3.390
 2087SOL    MW4 8406   2.913   3.890   3.359
 2088SOL     OW 8407   2.709   4.019   3.486
 2088SOL    HW2 8408   2.681   4.015   3.577
 2088SOL    HW3 8409   2.703   4.112   3.463
 2088SOL    MW4 8410   2.705   4.031   3.495
 2089SOL     OW 8411   2.674   4.279   3.423
 2089SOL    HW2 8412   2.754   4.319   3.455
 2089SOL    HW3 8413   2.604   4.330   3.463
 2089SOL    MW4 8414   2.675   4.291   3.432
 2090SOL     OW 8415   2.933   4.390   3.486
 2090SOL    HW2 8416   2.939   4.402   3.581
 2090SOL    HW3 8417   2.908   4.476   3.453
 2090SOL    MW4 8418   2.931   4.403   3.494
 2091SOL     OW 8419   3.347   0.014   3.411
 2091SOL    HW2 8420   3.264   0.045   3.447
 2091SOL    HW3 8421   3.336   0.018   3.316
 2091SOL    MW4 8422   3.335   0.019   3.403
 2092SOL     OW 8423   3.095   0.095   3.527
 2092SOL    HW2 8424   3.105   0.187   3.503
 2092SOL    HW3 8425   3.020   0.065   3.475
 2092SOL    MW4 8426   3.087   0.103   3.517
 2093SOL     OW 8427   3.110   0.337   3.394
 2093SOL    HW2 8428   3.035   0.393   3.415
 2093SOL    HW3 8429   3.109   0.332   3.298
 2093SOL    MW4 8430   3.100   0.344   3.384
 2094SOL     OW 8431   3.350   0.493   3.461
 2094SOL    HW2 8432   3.355   0.522   3.552
 2094SOL    HW3 8433   3.264   0.452   3.453
 2094SOL    MW4 8434   3.339   0.492   3.472
 2095SOL     OW 8435   3.369   0.762   3.368
 2095SOL    HW2 8436   3.446   0.810   3.400
 2095SOL    HW3 8437   3.371   0.679   3.415
 2095SOL    MW4 8438   3.380   0.757   3.378
 2096SOL     OW 8439   3.141   0.911   3.443
 2096SOL    HW2 8440   3.133   0.998   3.405
 2096SOL    HW3 8441   3.223   0.876   3.406
 2096SOL    MW4 8442   3.151   0.918   3.433
 2097SOL     OW 8443   3.122   1.162   3.338
 2097SOL    HW2 8444   3.202   1.211   3.357
 2097SOL    HW3 8445   3.126   1.146   3.243
 2097SOL    MW4 8446   3.133   1.167   3.328
 2098SOL     OW 8447   3.339   1.295   3.458
 2098SOL    HW2 8448   3.413   1.239   3.436
 2098SOL    HW3 8449   3.363   1.381   3.422
 2098SOL    MW4 8450   3.352   1.299   3.450
 2099SOL     OW 8451   3.379   1.535   3.341
 2099SOL    HW2 8452   3.450   1.575   3.391
 2099SOL    HW3 8453   3.299   1.570   3.380
 2099SOL    MW4 8454   3.377   1.545   3.353
 2100SOL     OW 8455   3.162   1.645   3.476
 2100SOL    HW2 8456   3.167   1.736   3.446
 2100SOL    HW3 8457   3.074   1.617   3.453
 2100SOL    MW4 8458   3.151   1.653   3.469
 2101SOL     OW 8459   3.167   1.915   3.384
 2101SOL    HW2 8460   3.091   1.964   3.417
 2101SOL    HW3 8461   3.163   1.924   3.289
 2101SOL    MW4 8462   3.157   1.923   3.376
 2102SOL     OW 8463   3.398   2.085   3.503
 2102SOL    HW2 8464   3.405   2.162   3.447
 2102SOL    HW3 8465   3.312   2.048   3.482
 2102SOL    MW4 8466   3.387   2.090   3.493
 2103SOL     OW 8467   3.384   2.332   3.358
 2103SOL    HW2 8468   3.455   2.371   3.409
 2103SOL    HW3 8469   3.307   2.385   3.381
 2103SOL    MW4 8470   3.383   2.344   3.368
 2104SOL     OW 8471   3.139   2.456   3.478
 2104SOL    HW2 8472   3.141   2.540   3.433
 2104SOL    HW3 8473   3.072   2.406   3.433
 2104SOL    MW4 8474   3.131   2.461   3.466
 2105SOL     OW 8475   3.179   2.716   3.360
 2105SOL    HW2 8476   3.247   2.753   3.418
 2105SOL    HW3 8477   3.097   2.743   3.400
 2105SOL    MW4 8478   3.177   2.724   3.373
 2106SOL     OW 8479   3.363   2.824   3.526
 2106SOL    HW2 8480   3.429   2.769   3.484
 2106SOL    HW3 8481   3.365   2.906   3.477
 2106SOL    MW4 8482   3.372   2.828   3.514
 2107SOL     OW 8483   3.383   3.084   3.398
 2107SOL    HW2 8484   3.457   3.132   3.436
 2107SOL    HW3 8485   3.306   3.124   3.438
 2107SOL    MW4 8486   3.383   3.095   3.409
 2108SOL     OW 8487   3.162   3.261   3.510
 2108SOL    HW2 8488   3.174   3.342   3.460
 2108SOL    HW3 8489   3.088   3.218   3.467
 2108SOL    MW4 8490   3.154   3.266   3.498
 2109SOL     OW 8491   3.149   3.507   3.395
 2109SOL    HW2 8492   3.071   3.552   3.428
 2109SOL    HW3 8493   3.140   3.509   3.300
 2109SOL    MW4 8494   3.138   3.513   3.387
 2110SOL     OW 8495   3.375   3.629   3.503
 2110SOL    HW2 8496   3.367   3.705   3.447
 2110SOL    HW3 8497   3.304   3.571   3.475
 2110SOL    MW4 8498   3.365   3.631   3.492
 2111SOL     OW 8499   3.351   3.854   3.331
 2111SOL    HW2 8500   3.419   3.905   3.375
 2111SOL    HW3 8501   3.269   3.894   3.360
 2111SOL    MW4 8502   3.349   3.866   3.340
 2112SOL     OW 8503   3.142   3.995   3.470
 2112SOL    HW2 8504   3.136   4.014   3.564
 2112SOL    HW3 8505   3.137   4.081   3.428
 2112SOL    MW4 8506   3.140   4.009   3.477
 2113SOL     OW 8507   3.147   4.253   3.370
 2113SOL    HW2 8508   3.220   4.300   3.409
 2113SOL    HW3 8509   3.069   4.292   3.410
 2113SOL    MW4 8510   3.146   4.265   3.380
 2114SOL     OW 8511   3.364   4.408   3.483
 2114SOL    HW2 8512   3.351   4.393   3.576
 2114SOL    HW3 8513   3.358   4.503   3.473
 2114SOL    MW4 8514   3.362   4.419   3.494
 2115SOL     OW 8515   3.837   4.636   3.402
 2115SOL    HW2 8516   3.760   4.680   3.438
 2115SOL    HW3 8517   3.828   4.644   3.308
 2115SOL    MW4 8518   3.826   4.643   3.395
 2116SOL     OW 8519   3.612   0.119   3.511
 2116SOL    HW2 8520   3.597   0.195   3.455
 2116SOL    HW3 8521   3.530   0.071   3.509
 2116SOL    MW4 8522   3.599   0.123   3.503
 2117SOL     OW 8523   3.590   0.371   3.401
 2117SOL    HW2 8524   3.661   0.424   3.438
 2117SOL    HW3 8525   3.510   0.411   3.436
 2117SOL    MW4 8526   3.589   0.383   3.411
 2118SOL     OW 8527   3.798   0.486   3.550
 2118SOL    HW2 8528   3.821   0.484   3.643
 2118SOL    HW3 8529   3.879   0.462   3.505
 2118SOL    MW4 8530   3.812   0.483   3.556
 2119SOL     OW 8531   3.807   0.740   3.433
 2119SOL    HW2 8532   3.890   0.778   3.463
 2119SOL    HW3 8533   3.803   0.656   3.477
 2119SOL    MW4 8534   3.818   0.734   3.443
 2120SOL     OW 8535   3.589   0.892   3.501
 2120SOL    HW2 8536   3.583   0.905   3.595
 2120SOL    HW3 8537   3.661   0.831   3.489
 2120SOL    MW4 8538   3.598   0.886   3.511
 2121SOL     OW 8539   3.564   1.147   3.401
 2121SOL    HW2 8540   3.578   1.056   3.428
 2121SOL    HW3 8541   3.569   1.145   3.305
 2121SOL    MW4 8542   3.566   1.135   3.392
 2122SOL     OW 8543   3.797   1.282   3.449
 2122SOL    HW2 8544   3.809   1.283   3.544
 2122SOL    HW3 8545   3.719   1.228   3.435
 2122SOL    MW4 8546   3.788   1.275   3.460
 2123SOL     OW 8547   3.803   1.560   3.371
 2123SOL    HW2 8548   3.886   1.593   3.405
 2123SOL    HW3 8549   3.794   1.473   3.407
 2123SOL    MW4 8550   3.813   1.553   3.380
 2124SOL     OW 8551   3.584   1.685   3.468
 2124SOL    HW2 8552   3.586   1.777   3.442
 2124SOL    HW3 8553   3.657   1.645   3.420
 2124SOL    MW4 8554   3.594   1.692   3.458
 2125SOL     OW 8555   3.597   1.928   3.364
 2125SOL    HW2 8556   3.681   1.969   3.382
 2125SOL    HW3 8557   3.533   1.984   3.407
 2125SOL    MW4 8558   3.600   1.941   3.372
 2126SOL     OW 8559   3.811   2.060   3.460
 2126SOL    HW2 8560   3.809   2.051   3.555
 2126SOL    HW3 8561   3.884   2.005   3.432
 2126SOL    MW4 8562   3.820   2.052   3.468
 2127SOL     OW 8563   3.789   2.322   3.405
 2127SOL    HW2 8564   3.876   2.357   3.420
 2127SOL    HW3 8565   3.802   2.227   3.401
 2127SOL    MW4 8566   3.802   2.314   3.406
 2128SOL     OW 8567   3.573   2.427   3.532
 2128SOL    HW2 8568   3.588   2.518   3.507
 2128SOL    HW3 8569   3.650   2.380   3.499
 2128SOL    MW4 8570   3.586   2.433   3.524
 2129SOL     OW 8571   3.580   2.685   3.415
 2129SOL    HW2 8572   3.666   2.716   3.445
 2129SOL    HW3 8573   3.582   2.697   3.320
 2129SOL    MW4 8574   3.591   2.691   3.406
 2130SOL     OW 8575   3.818   2.822   3.504
 2130SOL    HW2 8576   3.832   2.831   3.598
 2130SOL    HW3 8577   3.800   2.911   3.473
 2130SOL    MW4 8578   3.817   2.835   3.512
 2131SOL     OW 8579   3.795   3.085   3.375
 2131SOL    HW2 8580   3.869   3.126   3.420
 2131SOL    HW3 8581   3.811   3.101   3.282
 2131SOL    MW4 8582   3.807   3.093   3.369
 2132SOL     OW 8583   3.592   3.240   3.479
 2132SOL    HW2 8584   3.613   3.329   3.449
 2132SOL    HW3 8585   3.659   3.185   3.439
 2132SOL    MW4 8586   3.603   3.245   3.470
 2133SOL     OW 8587   3.629   3.493   3.421
 2133SOL    HW2 8588   3.553   3.544   3.450
 2133SOL    HW3 8589   3.637   3.513   3.328
 2133SOL    MW4 8590   3.620   3.502   3.412
 2134SOL     OW 8591   3.834   3.656   3.494
 2134SOL    HW2 8592   3.830   3.653   3.590
 2134SOL    HW3 8593   3.756   3.607   3.466
 2134SOL    MW4 8594   3.823   3.649   3.503
 2135SOL     OW 8595   3.838   3.917   3.399
 2135SOL    HW2 8596   3.754   3.948   3.434
 2135SOL    HW3 8597   3.842   3.825   3.425
 2135SOL    MW4 8598   3.827   3.909   3.407
 2136SOL     OW 8599   3.586   3.984   3.473
 2136SOL    HW2 8600   3.594   4.006   3.566
 2136SOL    HW3 8601   3.579   4.069   3.429
 2136SOL    MW4 8602   3.586   3.998   3.480
 2137SOL     OW 8603   3.581   4.246   3.387
 2137SOL    HW2 8604   3.514   4.304   3.422
 2137SOL    HW3 8605   3.577   4.257   3.292
 2137SOL    MW4 8606   3.572   4.255   3.379
 2138SOL     OW 8607   3.807   4.360   3.505
 2138SOL    HW2 8608   3.732   4.315   3.467
 2138SOL    HW3 8609   3.806   4.447   3.465
 2138SOL    MW4 8610   3.797   4.366   3.495
 2139SOL     OW 8611   4.276   0.017   3.372
 2139SOL    HW2 8612   4.270  -0.077   3.391
 2139SOL    HW3 8613   4.361   0.043   3.409
 2139SOL    MW4 8614   4.287   0.008   3.380
 2140SOL     OW 8615   4.055   0.125   3.503
 2140SOL    HW2 8616   4.140   0.092   3.474
 2140SOL    HW3 8617   3.992   0.060   3.473
 2140SOL    MW4 8618   4.058   0.112   3.495
 2141SOL     OW 8619   4.030   0.403   3.402
 2141SOL    HW2 8620   4.039   0.309   3.418
 2141SOL    HW3 8621   4.028   0.411   3.306
 2141SOL    MW4 8622   4.031   0.392   3.391
 2142SOL     OW 8623   4.277   0.509   3.488
 2142SOL    HW2 8624   4.265   0.604   3.476
 2142SOL    HW3 8625   4.194   0.471   3.460
 2142SOL    MW4 8626   4.265   0.517   3.483
 2143SOL     OW 8627   4.245   0.771   3.424
 2143SOL    HW2 8628   4.324   0.810   3.460
 2143SOL    HW3 8629   4.260   0.766   3.330
 2143SOL    MW4 8630   4.257   0.776   3.416
 2144SOL     OW 8631   4.031   0.893   3.493
 2144SOL    HW2 8632   4.024   0.970   3.437
 2144SOL    HW3 8633   4.110   0.849   3.463
 2144SOL    MW4 8634   4.041   0.898   3.482
 2145SOL     OW 8635   4.024   1.151   3.362
 2145SOL    HW2 8636   4.106   1.178   3.404
 2145SOL    HW3 8637   3.958   1.209   3.399
 2145SOL    MW4 8638   4.026   1.162   3.372
 2146SOL     OW 8639   4.223   1.273   3.515
 2146SOL    HW2 8640   4.214   1.362   3.482
 2146SOL    HW3 8641   4.315   1.251   3.501
 2146SOL    MW4 8642   4.234   1.282   3.509
 2147SOL     OW 8643   4.264   1.538   3.411
 2147SOL    HW2 8644   4.187   1.586   3.441
 2147SOL    HW3 8645   4.255   1.534   3.316
 2147SOL    MW4 8646   4.253   1.543   3.402
 2148SOL     OW 8647   4.021   1.656   3.505
 2148SOL    HW2 8648   4.021   1.672   3.599
 2148SOL    HW3 8649   4.035   1.742   3.466
 2148SOL    MW4 8650   4.023   1.669   3.512
 2149SOL     OW 8651   4.021   1.908   3.378
 2149SOL    HW2 8652   4.095   1.959   3.412
 2149SOL    HW3 8653   4.026   1.919   3.283
 2149SOL    MW4 8654   4.032   1.916   3.370
 2150SOL     OW 8655   4.216   2.063   3.490
 2150SOL    HW2 8656   4.234   2.148   3.450
 2150SOL    HW3 8657   4.300   2.017   3.490
 2150SOL    MW4 8658   4.229   2.068   3.485
 2151SOL     OW 8659   4.269   2.319   3.388
 2151SOL    HW2 8660   4.181   2.343   3.415
 2151SOL    HW3 8661   4.265   2.317   3.292
 2151SOL    MW4 8662   4.257   2.322   3.379
 2152SOL     OW 8663   4.029   2.433   3.455
 2152SOL    HW2 8664   4.014   2.454   3.547
 2152SOL    HW3 8665   4.038   2.519   3.412
 2152SOL    MW4 8666   4.028   2.447   3.461
 2153SOL     OW 8667   4.033   2.691   3.378
 2153SOL    HW2 8668   4.105   2.732   3.426
 2153SOL    HW3 8669   3.955   2.738   3.408
 2153SOL    MW4 8670   4.032   2.703   3.388
 2154SOL     OW 8671   4.242   2.810   3.484
 2154SOL    HW2 8672   4.249   2.806   3.579
 2154SOL    HW3 8673   4.329   2.786   3.453
 2154SOL    MW4 8674   4.254   2.806   3.492
 2155SOL     OW 8675   4.251   3.074   3.407
 2155SOL    HW2 8676   4.255   2.982   3.433
 2155SOL    HW3 8677   4.258   3.073   3.312
 2155SOL    MW4 8678   4.253   3.062   3.398
 2156SOL     OW 8679   4.011   3.202   3.509
 2156SOL    HW2 8680   4.006   3.297   3.501
 2156SOL    HW3 8681   4.090   3.178   3.461
 2156SOL    MW4 8682   4.021   3.211   3.502
 2157SOL     OW 8683   4.056   3.492   3.451
 2157SOL    HW2 8684   4.133   3.519   3.500
 2157SOL    HW3 8685   3.996   3.567   3.456
 2157SOL    MW4 8686   4.058   3.506   3.458
 2158SOL     OW 8687   4.294   3.614   3.504
 2158SOL    HW2 8688   4.294   3.633   3.597
 2158SOL    HW3 8689   4.281   3.699   3.462
 2158SOL    MW4 8690   4.293   3.627   3.511
 2159SOL     OW 8691   4.285   3.870   3.407
 2159SOL    HW2 8692   4.362   3.915   3.442
 2159SOL    HW3 8693   4.276   3.904   3.318
 2159SOL    MW4 8694   4.294   3.881   3.400
 2160SOL     OW 8695   4.072   3.989   3.533
 2160SOL    HW2 8696   4.145   3.942   3.495
 2160SOL    HW3 8697   3.994   3.953   3.490
 2160SOL    MW4 8698   4.071   3.978   3.522
 2161SOL     OW 8699   4.062   4.255   3.409
 2161SOL    HW2 8700   4.053   4.168   3.447
 2161SOL    HW3 8701   3.985   4.303   3.440
 2161SOL    MW4 8702   4.051   4.250   3.418
 2162SOL     OW 8703   4.281   4.417   3.492
 2162SOL    HW2 8704   4.295   4.421   3.586
 2162SOL    HW3 8705   4.202   4.365   3.481
 2162SOL    MW4 8706   4.273   4.411   3.503
 2163SOL     OW 8707   0.270   0.010   3.883
 2163SOL    HW2 8708   0.269   0.014   3.978
 2163SOL    HW3 8709   0.199   0.068   3.856
 2163SOL    MW4 8710   0.260   0.018   3.892
 2164SOL     OW 8711   0.057   0.145   3.777
 2164SOL    HW2 8712   0.035   0.233   3.807
 2164SOL    HW3 8713   0.041   0.146   3.683
 2164SOL    MW4 8714   0.052   0.157   3.769
 2165SOL     OW 8715   0.020   0.393   3.891
 2165SOL    HW2 8716  -0.050   0.437   3.842
 2165SOL    HW3 8717   0.099   0.444   3.871
 2165SOL    MW4 8718   0.021   0.405   3.882
 2166SOL     OW 8719   0.262   0.535   3.828
 2166SOL    HW2 8720   0.241   0.627   3.848
 2166SOL    HW3 8721   0.288   0.536   3.736
 2166SOL    MW4 8722   0.263   0.548   3.818
 2167SOL     OW 8723   0.247   0.803   3.907
 2167SOL    HW2 8724   0.244   0.792   4.002
 2167SOL    HW3 8725   0.164   0.846   3.885
 2167SOL    MW4 8726   0.235   0.808   3.917
 2168SOL     OW 8727   0.034   0.906   3.787
 2168SOL    HW2 8728  -0.042   0.863   3.827
 2168SOL    HW3 8729   0.036   0.993   3.827
 2168SOL    MW4 8730   0.024   0.912   3.797
 2169SOL     OW 8731   0.032   1.162   3.909
 2169SOL    HW2 8732  -0.044   1.187   3.856
 2169SOL    HW3 8733   0.102   1.220   3.880
 2169SOL    MW4 8734   0.031   1.173   3.898
 2170SOL     OW 8735   0.253   1.275   3.784
 2170SOL    HW2 8736   0.262   1.365   3.814
 2170SOL    HW3 8737   0.251   1.282   3.688
 2170SOL    MW4 8738   0.254   1.288   3.775
 2171SOL     OW 8739   0.225   1.555   3.857
 2171SOL    HW2 8740   0.218   1.568   3.951
 2171SOL    HW3 8741   0.136   1.567   3.824
 2171SOL    MW4 8742   0.212   1.559   3.865
 2172SOL     OW 8743   4.475   1.654   3.757
 2172SOL    HW2 8744   4.468   1.742   3.794
 2172SOL    HW3 8745   4.510   1.667   3.669
 2172SOL    MW4 8746   4.479   1.667   3.750
 2173SOL     OW 8747   4.474   1.924   3.837
 2173SOL    HW2 8748   4.471   1.935   3.932
 2173SOL    HW3 8749   4.417   1.993   3.803
 2173SOL    MW4 8750   4.466   1.935   3.845
 2174SOL     OW 8751   0.245   2.013   3.733
 2174SOL    HW2 8752   0.224   2.099   3.767
 2174SOL    HW3 8753   0.170   1.958   3.757
 2174SOL    MW4 8754   0.233   2.017   3.741
 2175SOL     OW 8755   0.213   2.258   3.827
 2175SOL    HW2 8756   0.217   2.264   3.923
 2175SOL    HW3 8757   0.134   2.306   3.803
 2175SOL    MW4 8758   0.203   2.265   3.837
 2176SOL     OW 8759   4.487   2.440   3.744
 2176SOL    HW2 8760   4.401   2.421   3.781
 2176SOL    HW3 8761   4.512   2.524   3.783
 2176SOL    MW4 8762   4.479   2.449   3.754
 2177SOL     OW 8763   0.016   2.677   3.876
 2177SOL    HW2 8764   0.011   2.688   3.971
 2177SOL    HW3 8765   0.092   2.729   3.849
 2177SOL    MW4 8766   0.025   2.686   3.885
 2178SOL     OW 8767   0.231   2.831   3.802
 2178SOL    HW2 8768   0.300   2.769   3.828
 2178SOL    HW3 8769   0.239   2.836   3.707
 2178SOL    MW4 8770   0.241   2.823   3.793
 2179SOL     OW 8771   0.267   3.102   3.851
 2179SOL    HW2 8772   0.275   3.103   3.947
 2179SOL    HW3 8773   0.258   3.010   3.829
 2179SOL    MW4 8774   0.267   3.090   3.861
 2180SOL     OW 8775   0.012   3.185   3.804
 2180SOL    HW2 8776   0.104   3.158   3.811
 2180SOL    HW3 8777  -0.011   3.167   3.713
 2180SOL    MW4 8778   0.021   3.179   3.793
 2181SOL     OW 8779   4.480   3.446   3.860
 2181SOL    HW2 8780   4.553   3.493   3.819
 2181SOL    HW3 8781   4.496   3.354   3.840
 2181SOL    MW4 8782   4.492   3.440   3.852
 2182SOL     OW 8783   0.205   3.609   3.772
 2182SOL    HW2 8784   0.294   3.576   3.766
 2182SOL    HW3 8785   0.213   3.694   3.816
 2182SOL    MW4 8786   0.218   3.616   3.777
 2183SOL     OW 8787   0.231   3.849   3.899
 2183SOL    HW2 8788   0.243   3.820   3.990
 2183SOL    HW3 8789   0.304   3.908   3.882
 2183SOL    MW4 8790   0.242   3.853   3.909
 2184SOL     OW 8791   0.041   4.000   3.779
 2184SOL    HW2 8792  -0.029   3.964   3.833
 2184SOL    HW3 8793   0.120   3.955   3.808
 2184SOL    MW4 8794   0.042   3.990   3.790
 2185SOL     OW 8795   0.007   4.271   3.867
 2185SOL    HW2 8796   0.084   4.323   3.843
 2185SOL    HW3 8797   0.026   4.183   3.834
 2185SOL    MW4 8798   0.020   4.266   3.859
 2186SOL     OW 8799   0.241   4.406   3.799
 2186SOL    HW2 8800   0.310   4.356   3.842
 2186SOL    HW3 8801   0.254   4.496   3.828
 2186SOL    MW4 8802   0.252   4.411   3.808
 2187SOL     OW 8803   0.684   0.013   3.957
 2187SOL    HW2 8804   0.674  -0.071   3.913
 2187SOL    HW3 8805   0.615   0.069   3.921
 2187SOL    MW4 8806   0.674   0.010   3.947
 2188SOL     OW 8807   0.496   0.135   3.773
 2188SOL    HW2 8808   0.475   0.214   3.824
 2188SOL    HW3 8809   0.428   0.072   3.797
 2188SOL    MW4 8810   0.484   0.137   3.783
 2189SOL     OW 8811   0.478   0.372   3.909
 2189SOL    HW2 8812   0.551   0.428   3.883
 2189SOL    HW3 8813   0.399   0.421   3.886
 2189SOL    MW4 8814   0.477   0.386   3.903
 2190SOL     OW 8815   0.709   0.495   3.791
 2190SOL    HW2 8816   0.781   0.444   3.827
 2190SOL    HW3 8817   0.720   0.582   3.830
 2190SOL    MW4 8818   0.720   0.500   3.801
 2191SOL     OW 8819   0.682   0.745   3.909
 2191SOL    HW2 8820   0.761   0.782   3.870
 2191SOL    HW3 8821   0.611   0.801   3.878
 2191SOL    MW4 8822   0.683   0.757   3.899
 2192SOL     OW 8823   0.487   0.898   3.806
 2192SOL    HW2 8824   0.493   0.986   3.842
 2192SOL    HW3 8825   0.410   0.861   3.849
 2192SOL    MW4 8826   0.477   0.905   3.816
 2193SOL     OW 8827   0.501   1.156   3.879
 2193SOL    HW2 8828   0.569   1.212   3.841
 2193SOL    HW3 8829   0.419   1.191   3.847
 2193SOL    MW4 8830   0.499   1.168   3.870
 2194SOL     OW 8831   0.687   1.321   3.756
 2194SOL    HW2 8832   0.767   1.278   3.785
 2194SOL    HW3 8833   0.676   1.292   3.665
 2194SOL    MW4 8834   0.696   1.311   3.748
 2195SOL     OW 8835   0.667   1.570   3.882
 2195SOL    HW2 8836   0.740   1.623   3.850
 2195SOL    HW3 8837   0.671   1.490   3.831
 2195SOL    MW4 8838   0.677   1.567   3.871
 2196SOL     OW 8839   0.444   1.654   3.706
 2196SOL    HW2 8840   0.523   1.617   3.746
 2196SOL    HW3 8841   0.372   1.618   3.756
 2196SOL    MW4 8842   0.445   1.645   3.718
 2197SOL     OW 8843   0.441   1.890   3.874
 2197SOL    HW2 8844   0.441   1.808   3.826
 2197SOL    HW3 8845   0.358   1.932   3.851
 2197SOL    MW4 8846   0.430   1.885   3.865
 2198SOL     OW 8847   0.624   2.031   3.730
 2198SOL    HW2 8848   0.616   2.116   3.774
 2198SOL    HW3 8849   0.546   1.983   3.757
 2198SOL    MW4 8850   0.612   2.036   3.739
 2199SOL     OW 8851   0.658   2.268   3.865
 2199SOL    HW2 8852   0.732   2.317   3.828
 2199SOL    HW3 8853   0.581   2.306   3.823
 2199SOL    MW4 8854   0.658   2.280   3.854
 2200SOL     OW 8855   0.446   2.390   3.743
 2200SOL    HW2 8856   0.368   2.334   3.752
 2200SOL    HW3 8857   0.448   2.413   3.650
 2200SOL    MW4 8858   0.436   2.386   3.732
 2201SOL     OW 8859   0.458   2.647   3.879
 2201SOL    HW2 8860   0.520   2.689   3.819
 2201SOL    HW3 8861   0.445   2.560   3.842
 2201SOL    MW4 8862   0.464   2.641   3.866
 2202SOL     OW 8863   0.688   2.822   3.777
 2202SOL    HW2 8864   0.767   2.778   3.807
 2202SOL    HW3 8865   0.697   2.826   3.682
 2202SOL    MW4 8866   0.699   2.817   3.769
 2203SOL     OW 8867   0.684   3.082   3.859
 2203SOL    HW2 8868   0.681   3.075   3.954
 2203SOL    HW3 8869   0.692   2.992   3.829
 2203SOL    MW4 8870   0.685   3.069   3.868
 2204SOL     OW 8871   0.470   3.230   3.731
 2204SOL    HW2 8872   0.549   3.196   3.773
 2204SOL    HW3 8873   0.399   3.183   3.773
 2204SOL    MW4 8874   0.471   3.220   3.742
 2205SOL     OW 8875   0.461   3.498   3.826
 2205SOL    HW2 8876   0.543   3.543   3.803
 2205SOL    HW3 8877   0.470   3.411   3.788
 2205SOL    MW4 8878   0.473   3.493   3.818
 2206SOL     OW 8879   0.714   3.602   3.766
 2206SOL    HW2 8880   0.708   3.696   3.777
 2206SOL    HW3 8881   0.718   3.589   3.671
 2206SOL    MW4 8882   0.714   3.612   3.755
 2207SOL     OW 8883   0.709   3.868   3.834
 2207SOL    HW2 8884   0.720   3.863   3.929
 2207SOL    HW3 8885   0.779   3.926   3.805
 2207SOL    MW4 8886   0.720   3.875   3.843
 2208SOL     OW 8887   0.452   4.000   3.787
 2208SOL    HW2 8888   0.536   3.968   3.820
 2208SOL    HW3 8889   0.458   3.991   3.692
 2208SOL    MW4 8890   0.464   3.995   3.779
 2209SOL     OW 8891   0.442   4.260   3.916
 2209SOL    HW2 8892   0.514   4.320   3.901
 2209SOL    HW3 8893   0.463   4.183   3.862
 2209SOL    MW4 8894   0.454   4.258   3.907
 2210SOL     OW 8895   0.658   4.435   3.821
 2210SOL    HW2 8896   0.743   4.398   3.844
 2210SOL    HW3 8897   0.646   4.412   3.729
 2210SOL    MW4 8898   0.667   4.427   3.812
 2211SOL     OW 8899   1.136   0.024   3.865
 2211SOL    HW2 8900   1.217   0.064   3.833
 2211SOL    HW3 8901   1.148  -0.070   3.849
 2211SOL    MW4 8902   1.149   0.017   3.859
 2212SOL     OW 8903   0.881   0.095   3.786
 2212SOL    HW2 8904   0.971   0.079   3.815
 2212SOL    HW3 8905   0.826   0.056   3.854
 2212SOL    MW4 8906   0.886   0.088   3.799
 2213SOL     OW 8907   0.923   0.349   3.888
 2213SOL    HW2 8908   0.928   0.359   3.983
 2213SOL    HW3 8909   0.894   0.259   3.875
 2213SOL    MW4 8910   0.920   0.339   3.899
 2214SOL     OW 8911   1.144   0.499   3.779
 2214SOL    HW2 8912   1.223   0.458   3.814
 2214SOL    HW3 8913   1.073   0.442   3.808
 2214SOL    MW4 8914   1.145   0.486   3.787
 2215SOL     OW 8915   1.127   0.771   3.871
 2215SOL    HW2 8916   1.125   0.765   3.966
 2215SOL    HW3 8917   1.126   0.679   3.842
 2215SOL    MW4 8918   1.127   0.758   3.879
 2216SOL     OW 8919   0.900   0.891   3.811
 2216SOL    HW2 8920   0.983   0.847   3.828
 2216SOL    HW3 8921   0.883   0.876   3.718
 2216SOL    MW4 8922   0.909   0.883   3.801
 2217SOL     OW 8923   0.920   1.156   3.861
 2217SOL    HW2 8924   0.915   1.161   3.956
 2217SOL    HW3 8925   0.907   1.063   3.841
 2217SOL    MW4 8926   0.917   1.144   3.871
 2218SOL     OW 8927   1.152   1.307   3.789
 2218SOL    HW2 8928   1.152   1.388   3.840
 2218SOL    HW3 8929   1.080   1.256   3.827
 2218SOL    MW4 8930   1.142   1.311   3.801
 2219SOL     OW 8931   1.145   1.582   3.906
 2219SOL    HW2 8932   1.168   1.579   3.999
 2219SOL    HW3 8933   1.225   1.610   3.862
 2219SOL    MW4 8934   1.158   1.585   3.913
 2220SOL     OW 8935   0.899   1.690   3.799
 2220SOL    HW2 8936   0.981   1.670   3.844
 2220SOL    HW3 8937   0.923   1.702   3.708
 2220SOL    MW4 8938   0.913   1.689   3.793
 2221SOL     OW 8939   0.859   1.959   3.869
 2221SOL    HW2 8940   0.863   1.864   3.858
 2221SOL    HW3 8941   0.779   1.984   3.822
 2221SOL    MW4 8942   0.849   1.950   3.861
 2222SOL     OW 8943   1.104   2.052   3.753
 2222SOL    HW2 8944   1.051   1.990   3.803
 2222SOL    HW3 8945   1.083   2.034   3.662
 2222SOL    MW4 8946   1.094   2.042   3.748
 2223SOL     OW 8947   1.116   2.312   3.861
 2223SOL    HW2 8948   1.113   2.312   3.956
 2223SOL    HW3 8949   1.113   2.220   3.837
 2223SOL    MW4 8950   1.115   2.300   3.870
 2224SOL     OW 8951   0.869   2.429   3.765
 2224SOL    HW2 8952   0.897   2.519   3.786
 2224SOL    HW3 8953   0.948   2.377   3.777
 2224SOL    MW4 8954   0.883   2.434   3.770
 2225SOL     OW 8955   0.933   2.693   3.824
 2225SOL    HW2 8956   0.937   2.679   3.919
 2225SOL    HW3 8957   1.014   2.740   3.804
 2225SOL    MW4 8958   0.945   2.698   3.834
 2226SOL     OW 8959   1.157   2.854   3.755
 2226SOL    HW2 8960   1.224   2.802   3.798
 2226SOL    HW3 8961   1.158   2.938   3.801
 2226SOL    MW4 8962   1.166   2.858   3.766
 2227SOL     OW 8963   1.161   3.088   3.892
 2227SOL    HW2 8964   1.228   3.134   3.841
 2227SOL    HW3 8965   1.078   3.121   3.857
 2227SOL    MW4 8966   1.159   3.099   3.880
 2228SOL     OW 8967   0.922   3.181   3.798
 2228SOL    HW2 8968   0.840   3.133   3.816
 2228SOL    HW3 8969   0.908   3.221   3.712
 2228SOL    MW4 8970   0.909   3.180   3.789
 2229SOL     OW 8971   0.895   3.451   3.908
 2229SOL    HW2 8972   0.893   3.359   3.882
 2229SOL    HW3 8973   0.834   3.495   3.849
 2229SOL    MW4 8974   0.887   3.445   3.897
 2230SOL     OW 8975   1.122   3.580   3.759
 2230SOL    HW2 8976   1.135   3.667   3.798
 2230SOL    HW3 8977   1.051   3.541   3.810
 2230SOL    MW4 8978   1.115   3.586   3.771
 2231SOL     OW 8979   1.141   3.834   3.874
 2231SOL    HW2 8980   1.146   3.845   3.969
 2231SOL    HW3 8981   1.210   3.891   3.840
 2231SOL    MW4 8982   1.151   3.843   3.882
 2232SOL     OW 8983   0.932   4.025   3.794
 2232SOL    HW2 8984   1.008   3.974   3.822
 2232SOL    HW3 8985   0.932   4.017   3.699
 2232SOL    MW4 8986   0.942   4.017   3.786
 2233SOL     OW 8987   0.902   4.312   3.866
 2233SOL    HW2 8988   0.904   4.310   3.962
 2233SOL    HW3 8989   0.904   4.220   3.839
 2233SOL    MW4 8990   0.902   4.300   3.875
 2234SOL     OW 8991   1.156   4.422   3.817
 2234SOL    HW2 8992   1.081   4.368   3.842
 2234SOL    HW3 8993   1.144   4.436   3.723
 2234SOL    MW4 8994   1.145   4.417   3.808
 2235SOL     OW 8995   1.584   4.650   3.885
 2235SOL    HW2 8996   1.580   4.655   3.980
 2235SOL    HW3 8997   1.582   4.557   3.865
 2235SOL    MW4 8998   1.583   4.639   3.895
 2236SOL     OW 8999   1.380   0.107   3.730
 2236SOL    HW2 9000   1.374   0.201   3.749
 2236SOL    HW3 9001   1.458   0.078   3.778
 2236SOL    MW4 9002   1.390   0.116   3.739
 2237SOL     OW 9003   1.378   0.369   3.849
 2237SOL    HW2 9004   1.384   0.361   3.944
 2237SOL    HW3 9005   1.452   0.424   3.825
 2237SOL    MW4 9006   1.388   0.375   3.859
 2238SOL     OW 9007   1.593   0.530   3.798
 2238SOL    HW2 9008   1.666   0.482   3.837
 2238SOL    HW3 9009   1.602   0.619   3.832
 2238SOL    MW4 9010   1.604   0.536   3.807
 2239SOL     OW 9011   1.593   0.795   3.903
 2239SOL    HW2 9012   1.661   0.839   3.851
 2239SOL    HW3 9013   1.511   0.822   3.861
 2239SOL    MW4 9014   1.591   0.805   3.891
 2240SOL     OW 9015   1.362   0.910   3.787
 2240SOL    HW2 9016   1.386   0.984   3.842
 2240SOL    HW3 9017   1.280   0.878   3.823
 2240SOL    MW4 9018   1.355   0.915   3.799
 2241SOL     OW 9019   1.369   1.169   3.914
 2241SOL    HW2 9020   1.448   1.214   3.883
 2241SOL    HW3 9021   1.297   1.212   3.868
 2241SOL    MW4 9022   1.370   1.180   3.904
 2242SOL     OW 9023   1.626   1.256   3.781
 2242SOL    HW2 9024   1.710   1.233   3.821
 2242SOL    HW3 9025   1.622   1.352   3.786
 2242SOL    MW4 9026   1.636   1.266   3.787
 2243SOL     OW 9027   1.604   1.544   3.824
 2243SOL    HW2 9028   1.601   1.549   3.919
 2243SOL    HW3 9029   1.686   1.586   3.800
 2243SOL    MW4 9030   1.614   1.550   3.833
 2244SOL     OW 9031   1.343   1.643   3.722
 2244SOL    HW2 9032   1.336   1.736   3.742
 2244SOL    HW3 9033   1.426   1.616   3.762
 2244SOL    MW4 9034   1.353   1.652   3.730
 2245SOL     OW 9035   1.322   1.895   3.809
 2245SOL    HW2 9036   1.345   1.918   3.900
 2245SOL    HW3 9037   1.248   1.952   3.788
 2245SOL    MW4 9038   1.315   1.906   3.818
 2246SOL     OW 9039   1.600   2.047   3.756
 2246SOL    HW2 9040   1.516   2.002   3.765
 2246SOL    HW3 9041   1.605   2.070   3.663
 2246SOL    MW4 9042   1.589   2.044   3.745
 2247SOL     OW 9043   1.570   2.301   3.863
 2247SOL    HW2 9044   1.651   2.349   3.842
 2247SOL    HW3 9045   1.583   2.215   3.824
 2247SOL    MW4 9046   1.583   2.296   3.855
 2248SOL     OW 9047   1.366   2.456   3.766
 2248SOL    HW2 9048   1.436   2.404   3.804
 2248SOL    HW3 9049   1.285   2.415   3.798
 2248SOL    MW4 9050   1.364   2.444   3.775
 2249SOL     OW 9051   1.366   2.714   3.865
 2249SOL    HW2 9052   1.352   2.716   3.960
 2249SOL    HW3 9053   1.364   2.622   3.842
 2249SOL    MW4 9054   1.364   2.702   3.875
 2250SOL     OW 9055   1.587   2.851   3.755
 2250SOL    HW2 9056   1.512   2.801   3.786
 2250SOL    HW3 9057   1.581   2.847   3.659
 2250SOL    MW4 9058   1.576   2.844   3.746
 2251SOL     OW 9059   1.579   3.115   3.855
 2251SOL    HW2 9060   1.590   3.103   3.950
 2251SOL    HW3 9061   1.594   3.028   3.818
 2251SOL    MW4 9062   1.582   3.102   3.863
 2252SOL     OW 9063   1.359   3.212   3.757
 2252SOL    HW2 9064   1.368   3.305   3.781
 2252SOL    HW3 9065   1.437   3.171   3.793
 2252SOL    MW4 9066   1.371   3.219   3.765
 2253SOL     OW 9067   1.346   3.463   3.853
 2253SOL    HW2 9068   1.421   3.516   3.827
 2253SOL    HW3 9069   1.272   3.504   3.807
 2253SOL    MW4 9070   1.346   3.475   3.843
 2254SOL     OW 9071   1.594   3.587   3.784
 2254SOL    HW2 9072   1.681   3.562   3.813
 2254SOL    HW3 9073   1.579   3.674   3.822
 2254SOL    MW4 9074   1.603   3.595   3.792
 2255SOL     OW 9075   1.570   3.866   3.844
 2255SOL    HW2 9076   1.579   3.880   3.938
 2255SOL    HW3 9077   1.492   3.916   3.820
 2255SOL    MW4 9078   1.561   3.874   3.853
 2256SOL     OW 9079   1.330   4.009   3.775
 2256SOL    HW2 9080   1.352   4.097   3.807
 2256SOL    HW3 9081   1.304   4.023   3.684
 2256SOL    MW4 9082   1.330   4.023   3.767
 2257SOL     OW 9083   1.364   4.263   3.892
 2257SOL    HW2 9084   1.448   4.305   3.872
 2257SOL    HW3 9085   1.298   4.325   3.863
 2257SOL    MW4 9086   1.366   4.277   3.885
 2258SOL     OW 9087   1.609   4.378   3.828
 2258SOL    HW2 9088   1.677   4.321   3.865
 2258SOL    HW3 9089   1.621   4.371   3.733
 2258SOL    MW4 9090   1.620   4.370   3.820
 2259SOL     OW 9091   2.005   4.650   3.920
 2259SOL    HW2 9092   2.081   4.692   3.879
 2259SOL    HW3 9093   1.990   4.572   3.867
 2259SOL    MW4 9094   2.013   4.646   3.907
 2260SOL     OW 9095   1.793   0.134   3.820
 2260SOL    HW2 9096   1.862   0.072   3.847
 2260SOL    HW3 9097   1.712   0.092   3.847
 2260SOL    MW4 9098   1.792   0.120   3.827
 2261SOL     OW 9099   1.812   0.419   3.916
 2261SOL    HW2 9100   1.823   0.427   4.011
 2261SOL    HW3 9101   1.800   0.325   3.901
 2261SOL    MW4 9102   1.812   0.408   3.927
 2262SOL     OW 9103   2.044   0.490   3.792
 2262SOL    HW2 9104   1.959   0.483   3.835
 2262SOL    HW3 9105   2.024   0.500   3.699
 2262SOL    MW4 9106   2.030   0.491   3.786
 2263SOL     OW 9107   2.055   0.752   3.870
 2263SOL    HW2 9108   2.027   0.753   3.961
 2263SOL    HW3 9109   2.080   0.661   3.853
 2263SOL    MW4 9110   2.055   0.740   3.880
 2264SOL     OW 9111   1.823   0.888   3.782
 2264SOL    HW2 9112   1.909   0.846   3.784
 2264SOL    HW3 9113   1.800   0.891   3.689
 2264SOL    MW4 9114   1.832   0.883   3.770
 2265SOL     OW 9115   1.845   1.150   3.935
 2265SOL    HW2 9116   1.824   1.146   4.028
 2265SOL    HW3 9117   1.838   1.059   3.905
 2265SOL    MW4 9118   1.841   1.138   3.943
 2266SOL     OW 9119   2.073   1.236   3.769
 2266SOL    HW2 9120   2.151   1.198   3.810
 2266SOL    HW3 9121   2.000   1.201   3.820
 2266SOL    MW4 9122   2.074   1.227   3.781
 2267SOL     OW 9123   2.035   1.510   3.882
 2267SOL    HW2 9124   1.964   1.557   3.839
 2267SOL    HW3 9125   2.043   1.428   3.834
 2267SOL    MW4 9126   2.027   1.506   3.870
 2268SOL     OW 9127   1.843   1.662   3.758
 2268SOL    HW2 9128   1.861   1.752   3.784
 2268SOL    HW3 9129   1.852   1.663   3.663
 2268SOL    MW4 9130   1.847   1.674   3.749
 2269SOL     OW 9131   1.833   1.908   3.857
 2269SOL    HW2 9132   1.833   1.903   3.953
 2269SOL    HW3 9133   1.745   1.938   3.835
 2269SOL    MW4 9134   1.821   1.911   3.867
 2270SOL     OW 9135   2.018   2.073   3.765
 2270SOL    HW2 9136   1.945   2.016   3.788
 2270SOL    HW3 9137   2.019   2.073   3.669
 2270SOL    MW4 9138   2.009   2.065   3.755
 2271SOL     OW 9139   2.013   2.317   3.918
 2271SOL    HW2 9140   1.944   2.355   3.864
 2271SOL    HW3 9141   2.034   2.233   3.875
 2271SOL    MW4 9142   2.007   2.311   3.905
 2272SOL     OW 9143   1.810   2.436   3.753
 2272SOL    HW2 9144   1.834   2.526   3.775
 2272SOL    HW3 9145   1.805   2.434   3.658
 2272SOL    MW4 9146   1.813   2.448   3.744
 2273SOL     OW 9147   1.826   2.696   3.864
 2273SOL    HW2 9148   1.836   2.705   3.959
 2273SOL    HW3 9149   1.745   2.742   3.843
 2273SOL    MW4 9150   1.817   2.703   3.874
 2274SOL     OW 9151   2.023   2.829   3.706
 2274SOL    HW2 9152   2.104   2.804   3.751
 2274SOL    HW3 9153   1.954   2.784   3.755
 2274SOL    MW4 9154   2.024   2.820   3.718
 2275SOL     OW 9155   1.989   3.079   3.814
 2275SOL    HW2 9156   2.076   3.118   3.801
 2275SOL    HW3 9157   1.993   2.995   3.769
 2275SOL    MW4 9158   2.001   3.073   3.806
 2276SOL     OW 9159   1.800   3.243   3.737
 2276SOL    HW2 9160   1.883   3.198   3.748
 2276SOL    HW3 9161   1.738   3.195   3.791
 2276SOL    MW4 9162   1.803   3.231   3.745
 2277SOL     OW 9163   1.838   3.485   3.863
 2277SOL    HW2 9164   1.906   3.538   3.820
 2277SOL    HW3 9165   1.840   3.401   3.816
 2277SOL    MW4 9166   1.847   3.481   3.851
 2278SOL     OW 9167   2.039   3.664   3.768
 2278SOL    HW2 9168   2.123   3.623   3.787
 2278SOL    HW3 9169   2.034   3.665   3.672
 2278SOL    MW4 9170   2.049   3.659   3.758
 2279SOL     OW 9171   2.036   3.894   3.925
 2279SOL    HW2 9172   2.112   3.931   3.879
 2279SOL    HW3 9173   2.021   3.809   3.882
 2279SOL    MW4 9174   2.044   3.888   3.913
 2280SOL     OW 9175   1.809   3.991   3.780
 2280SOL    HW2 9176   1.885   3.951   3.822
 2280SOL    HW3 9177   1.738   3.930   3.796
 2280SOL    MW4 9178   1.810   3.978   3.788
 2281SOL     OW 9179   1.812   4.217   3.916
 2281SOL    HW2 9180   1.874   4.276   3.873
 2281SOL    HW3 9181   1.812   4.138   3.861
 2281SOL    MW4 9182   1.820   4.214   3.903
 2282SOL     OW 9183   1.988   4.391   3.809
 2282SOL    HW2 9184   2.068   4.347   3.838
 2282SOL    HW3 9185   2.002   4.408   3.716
 2282SOL    MW4 9186   2.001   4.387   3.801
 2283SOL     OW 9187   2.459   0.012   3.861
 2283SOL    HW2 9188   2.458   0.021   3.957
 2283SOL    HW3 9189   2.529   0.071   3.833
 2283SOL    MW4 9190   2.468   0.021   3.870
 2284SOL     OW 9191   2.215   0.115   3.781
 2284SOL    HW2 9192   2.297   0.066   3.786
 2284SOL    HW3 9193   2.198   0.125   3.688
 2284SOL    MW4 9194   2.223   0.110   3.770
 2285SOL     OW 9195   2.277   0.376   3.890
 2285SOL    HW2 9196   2.263   0.284   3.868
 2285SOL    HW3 9197   2.196   0.419   3.864
 2285SOL    MW4 9198   2.265   0.369   3.884
 2286SOL     OW 9199   2.470   0.504   3.744
 2286SOL    HW2 9200   2.407   0.450   3.792
 2286SOL    HW3 9201   2.456   0.481   3.652
 2286SOL    MW4 9202   2.459   0.494   3.739
 2287SOL     OW 9203   2.504   0.776   3.851
 2287SOL    HW2 9204   2.424   0.822   3.826
 2287SOL    HW3 9205   2.491   0.686   3.823
 2287SOL    MW4 9206   2.492   0.770   3.844
 2288SOL     OW 9207   2.278   0.897   3.744
 2288SOL    HW2 9208   2.198   0.859   3.780
 2288SOL    HW3 9209   2.269   0.886   3.649
 2288SOL    MW4 9210   2.266   0.890   3.736
 2289SOL     OW 9211   2.314   1.137   3.849
 2289SOL    HW2 9212   2.288   1.141   3.941
 2289SOL    HW3 9213   2.293   1.048   3.822
 2289SOL    MW4 9214   2.308   1.126   3.858
 2290SOL     OW 9215   2.521   1.274   3.730
 2290SOL    HW2 9216   2.498   1.360   3.764
 2290SOL    HW3 9217   2.445   1.219   3.752
 2290SOL    MW4 9218   2.508   1.278   3.737
 2291SOL     OW 9219   2.472   1.510   3.856
 2291SOL    HW2 9220   2.548   1.561   3.828
 2291SOL    HW3 9221   2.397   1.562   3.827
 2291SOL    MW4 9222   2.472   1.524   3.849
 2292SOL     OW 9223   2.240   1.647   3.746
 2292SOL    HW2 9224   2.221   1.737   3.773
 2292SOL    HW3 9225   2.176   1.594   3.794
 2292SOL    MW4 9226   2.229   1.651   3.756
 2293SOL     OW 9227   2.242   1.919   3.841
 2293SOL    HW2 9228   2.256   1.909   3.935
 2293SOL    HW3 9229   2.154   1.955   3.834
 2293SOL    MW4 9230   2.232   1.922   3.852
 2294SOL     OW 9231   2.470   2.057   3.780
 2294SOL    HW2 9232   2.444   2.141   3.816
 2294SOL    HW3 9233   2.396   1.999   3.801
 2294SOL    MW4 9234   2.457   2.060   3.787
 2295SOL     OW 9235   2.456   2.312   3.878
 2295SOL    HW2 9236   2.528   2.351   3.828
 2295SOL    HW3 9237   2.378   2.356   3.845
 2295SOL    MW4 9238   2.455   2.323   3.867
 2296SOL     OW 9239   2.238   2.424   3.752
 2296SOL    HW2 9240   2.157   2.375   3.764
 2296SOL    HW3 9241   2.242   2.441   3.658
 2296SOL    MW4 9242   2.228   2.420   3.741
 2297SOL     OW 9243   2.216   2.712   3.862
 2297SOL    HW2 9244   2.224   2.723   3.957
 2297SOL    HW3 9245   2.224   2.618   3.848
 2297SOL    MW4 9246   2.218   2.701   3.873
 2298SOL     OW 9247   2.463   2.803   3.787
 2298SOL    HW2 9248   2.377   2.764   3.801
 2298SOL    HW3 9249   2.471   2.812   3.692
 2298SOL    MW4 9250   2.453   2.799   3.777
 2299SOL     OW 9251   2.481   3.072   3.837
 2299SOL    HW2 9252   2.498   3.077   3.931
 2299SOL    HW3 9253   2.449   2.983   3.824
 2299SOL    MW4 9254   2.479   3.061   3.848
 2300SOL     OW 9255   2.220   3.220   3.779
 2300SOL    HW2 9256   2.236   3.314   3.778
 2300SOL    HW3 9257   2.306   3.182   3.798
 2300SOL    MW4 9258   2.234   3.227   3.782
 2301SOL     OW 9259   2.284   3.494   3.813
 2301SOL    HW2 9260   2.296   3.492   3.908
 2301SOL    HW3 9261   2.363   3.536   3.780
 2301SOL    MW4 9262   2.296   3.499   3.821
 2302SOL     OW 9263   2.535   3.651   3.751
 2302SOL    HW2 9264   2.601   3.585   3.772
 2302SOL    HW3 9265   2.516   3.636   3.659
 2302SOL    MW4 9266   2.541   3.640   3.742
 2303SOL     OW 9267   2.483   3.896   3.855
 2303SOL    HW2 9268   2.553   3.948   3.817
 2303SOL    HW3 9269   2.493   3.809   3.817
 2303SOL    MW4 9270   2.494   3.892   3.845
 2304SOL     OW 9271   2.243   4.014   3.783
 2304SOL    HW2 9272   2.324   3.967   3.800
 2304SOL    HW3 9273   2.240   4.024   3.688
 2304SOL    MW4 9274   2.253   4.009   3.773
 2305SOL     OW 9275   2.250   4.278   3.860
 2305SOL    HW2 9276   2.260   4.260   3.953
 2305SOL    HW3 9277   2.245   4.192   3.819
 2305SOL    MW4 9278   2.250   4.264   3.867
 2306SOL     OW 9279   2.490   4.418   3.803
 2306SOL    HW2 9280   2.407   4.380   3.834
 2306SOL    HW3 9281   2.484   4.511   3.826
 2306SOL    MW4 9282   2.478   4.425   3.810
 2307SOL     OW 9283   2.918   4.662   3.877
 2307SOL    HW2 9284   2.920   4.679   3.972
 2307SOL    HW3 9285   3.000   4.698   3.844
 2307SOL    MW4 9286   2.929   4.669   3.885
 2308SOL     OW 9287   2.701   0.146   3.777
 2308SOL    HW2 9288   2.780   0.101   3.809
 2308SOL    HW3 9289   2.700   0.127   3.683
 2308SOL    MW4 9290   2.712   0.138   3.769
 2309SOL     OW 9291   2.721   0.431   3.820
 2309SOL    HW2 9292   2.718   0.336   3.807
 2309SOL    HW3 9293   2.632   0.460   3.802
 2309SOL    MW4 9294   2.709   0.422   3.816
 2310SOL     OW 9295   2.954   0.555   3.728
 2310SOL    HW2 9296   3.013   0.483   3.751
 2310SOL    HW3 9297   2.867   0.523   3.751
 2310SOL    MW4 9298   2.950   0.541   3.734
 2311SOL     OW 9299   2.949   0.809   3.876
 2311SOL    HW2 9300   3.004   0.866   3.823
 2311SOL    HW3 9301   2.955   0.723   3.834
 2311SOL    MW4 9302   2.957   0.805   3.864
 2312SOL     OW 9303   2.737   0.915   3.755
 2312SOL    HW2 9304   2.814   0.880   3.799
 2312SOL    HW3 9305   2.664   0.864   3.791
 2312SOL    MW4 9306   2.737   0.903   3.765
 2313SOL     OW 9307   2.707   1.174   3.892
 2313SOL    HW2 9308   2.726   1.089   3.853
 2313SOL    HW3 9309   2.636   1.210   3.839
 2313SOL    MW4 9310   2.700   1.168   3.880
 2314SOL     OW 9311   2.919   1.296   3.731
 2314SOL    HW2 9312   2.931   1.378   3.779
 2314SOL    HW3 9313   2.840   1.257   3.770
 2314SOL    MW4 9314   2.910   1.302   3.743
 2315SOL     OW 9315   2.943   1.556   3.835
 2315SOL    HW2 9316   2.947   1.564   3.930
 2315SOL    HW3 9317   3.027   1.590   3.804
 2315SOL    MW4 9318   2.955   1.561   3.843
 2316SOL     OW 9319   2.697   1.678   3.766
 2316SOL    HW2 9320   2.778   1.633   3.788
 2316SOL    HW3 9321   2.706   1.700   3.673
 2316SOL    MW4 9322   2.709   1.675   3.757
 2317SOL     OW 9323   2.706   1.940   3.847
 2317SOL    HW2 9324   2.697   1.851   3.812
 2317SOL    HW3 9325   2.620   1.979   3.837
 2317SOL    MW4 9326   2.694   1.933   3.841
 2318SOL     OW 9327   2.942   2.064   3.742
 2318SOL    HW2 9328   2.942   2.152   3.781
 2318SOL    HW3 9329   2.873   2.017   3.788
 2318SOL    MW4 9330   2.933   2.070   3.753
 2319SOL     OW 9331   2.955   2.310   3.848
 2319SOL    HW2 9332   2.963   2.315   3.944
 2319SOL    HW3 9333   3.025   2.368   3.816
 2319SOL    MW4 9334   2.965   2.318   3.857
 2320SOL     OW 9335   2.704   2.412   3.758
 2320SOL    HW2 9336   2.702   2.506   3.775
 2320SOL    HW3 9337   2.785   2.382   3.798
 2320SOL    MW4 9338   2.715   2.421   3.766
 2321SOL     OW 9339   2.698   2.687   3.815
 2321SOL    HW2 9340   2.705   2.681   3.910
 2321SOL    HW3 9341   2.617   2.736   3.800
 2321SOL    MW4 9342   2.688   2.692   3.826
 2322SOL     OW 9343   2.945   2.869   3.760
 2322SOL    HW2 9344   2.948   2.958   3.795
 2322SOL    HW3 9345   2.855   2.839   3.777
 2322SOL    MW4 9346   2.933   2.877   3.767
 2323SOL     OW 9347   2.949   3.105   3.869
 2323SOL    HW2 9348   3.023   3.158   3.840
 2323SOL    HW3 9349   2.872   3.147   3.830
 2323SOL    MW4 9350   2.949   3.117   3.860
 2324SOL     OW 9351   2.708   3.199   3.751
 2324SOL    HW2 9352   2.700   3.284   3.794
 2324SOL    HW3 9353   2.641   3.145   3.793
 2324SOL    MW4 9354   2.698   3.203   3.762
 2325SOL     OW 9355   2.702   3.463   3.846
 2325SOL    HW2 9356   2.687   3.472   3.940
 2325SOL    HW3 9357   2.776   3.521   3.828
 2325SOL    MW4 9358   2.710   3.472   3.856
 2326SOL     OW 9359   2.911   3.634   3.784
 2326SOL    HW2 9360   2.988   3.593   3.823
 2326SOL    HW3 9361   2.928   3.634   3.689
 2326SOL    MW4 9362   2.923   3.629   3.776
 2327SOL     OW 9363   2.937   3.899   3.843
 2327SOL    HW2 9364   2.941   3.891   3.938
 2327SOL    HW3 9365   2.929   3.808   3.812
 2327SOL    MW4 9366   2.937   3.886   3.852
 2328SOL     OW 9367   2.709   4.008   3.766
 2328SOL    HW2 9368   2.709   4.087   3.820
 2328SOL    HW3 9369   2.790   3.963   3.789
 2328SOL    MW4 9370   2.719   4.013   3.776
 2329SOL     OW 9371   2.715   4.278   3.902
 2329SOL    HW2 9372   2.792   4.329   3.877
 2329SOL    HW3 9373   2.641   4.334   3.880
 2329SOL    MW4 9374   2.716   4.292   3.896
 2330SOL     OW 9375   2.931   4.421   3.756
 2330SOL    HW2 9376   3.004   4.381   3.804
 2330SOL    HW3 9377   2.921   4.507   3.795
 2330SOL    MW4 9378   2.939   4.427   3.767
 2331SOL     OW 9379   3.385   0.024   3.906
 2331SOL    HW2 9380   3.393   0.049   3.998
 2331SOL    HW3 9381   3.459   0.066   3.863
 2331SOL    MW4 9382   3.396   0.033   3.913
 2332SOL     OW 9383   3.135   0.134   3.801
 2332SOL    HW2 9384   3.221   0.112   3.838
 2332SOL    HW3 9385   3.138   0.101   3.712
 2332SOL    MW4 9386   3.147   0.127   3.794
 2333SOL     OW 9387   3.151   0.403   3.850
 2333SOL    HW2 9388   3.157   0.408   3.946
 2333SOL    HW3 9389   3.147   0.310   3.831
 2333SOL    MW4 9390   3.151   0.392   3.860
 2334SOL     OW 9391   3.370   0.529   3.733
 2334SOL    HW2 9392   3.446   0.498   3.783
 2334SOL    HW3 9393   3.294   0.491   3.778
 2334SOL    MW4 9394   3.370   0.520   3.746
 2335SOL     OW 9395   3.355   0.804   3.795
 2335SOL    HW2 9396   3.373   0.814   3.888
 2335SOL    HW3 9397   3.348   0.709   3.781
 2335SOL    MW4 9398   3.356   0.793   3.805
 2336SOL     OW 9399   3.127   0.937   3.718
 2336SOL    HW2 9400   3.210   0.899   3.746
 2336SOL    HW3 9401   3.130   0.935   3.622
 2336SOL    MW4 9402   3.138   0.932   3.709
 2337SOL     OW 9403   3.145   1.177   3.819
 2337SOL    HW2 9404   3.145   1.089   3.782
 2337SOL    HW3 9405   3.063   1.216   3.788
 2337SOL    MW4 9406   3.134   1.170   3.810
 2338SOL     OW 9407   3.389   1.308   3.742
 2338SOL    HW2 9408   3.304   1.276   3.771
 2338SOL    HW3 9409   3.383   1.309   3.647
 2338SOL    MW4 9410   3.377   1.304   3.733
 2339SOL     OW 9411   3.418   1.548   3.862
 2339SOL    HW2 9412   3.338   1.596   3.840
 2339SOL    HW3 9413   3.407   1.463   3.821
 2339SOL    MW4 9414   3.406   1.543   3.854
 2340SOL     OW 9415   3.199   1.646   3.747
 2340SOL    HW2 9416   3.192   1.740   3.765
 2340SOL    HW3 9417   3.210   1.641   3.652
 2340SOL    MW4 9418   3.199   1.658   3.736
 2341SOL     OW 9419   3.152   1.905   3.818
 2341SOL    HW2 9420   3.129   1.914   3.910
 2341SOL    HW3 9421   3.085   1.956   3.771
 2341SOL    MW4 9422   3.140   1.913   3.824
 2342SOL     OW 9423   3.387   2.051   3.768
 2342SOL    HW2 9424   3.313   1.991   3.782
 2342SOL    HW3 9425   3.401   2.050   3.673
 2342SOL    MW4 9426   3.379   2.043   3.757
 2343SOL     OW 9427   3.356   2.283   3.903
 2343SOL    HW2 9428   3.283   2.321   3.854
 2343SOL    HW3 9429   3.371   2.198   3.863
 2343SOL    MW4 9430   3.348   2.277   3.891
 2344SOL     OW 9431   3.182   2.441   3.754
 2344SOL    HW2 9432   3.184   2.534   3.778
 2344SOL    HW3 9433   3.177   2.441   3.659
 2344SOL    MW4 9434   3.181   2.453   3.745
 2345SOL     OW 9435   3.137   2.699   3.855
 2345SOL    HW2 9436   3.134   2.717   3.949
 2345SOL    HW3 9437   3.066   2.752   3.819
 2345SOL    MW4 9438   3.127   2.709   3.863
 2346SOL     OW 9439   3.364   2.853   3.809
 2346SOL    HW2 9440   3.276   2.827   3.836
 2346SOL    HW3 9441   3.363   2.849   3.713
 2346SOL    MW4 9442   3.353   2.849   3.800
 2347SOL     OW 9443   3.375   3.119   3.864
 2347SOL    HW2 9444   3.452   3.155   3.822
 2347SOL    HW3 9445   3.373   3.028   3.838
 2347SOL    MW4 9446   3.385   3.112   3.855
 2348SOL     OW 9447   3.148   3.275   3.784
 2348SOL    HW2 9448   3.229   3.232   3.811
 2348SOL    HW3 9449   3.154   3.278   3.688
 2348SOL    MW4 9450   3.159   3.270   3.775
 2349SOL     OW 9451   3.150   3.536   3.894
 2349SOL    HW2 9452   3.231   3.574   3.860
 2349SOL    HW3 9453   3.146   3.450   3.853
 2349SOL    MW4 9454   3.160   3.530   3.884
 2350SOL     OW 9455   3.379   3.658   3.773
 2350SOL    HW2 9456   3.390   3.749   3.799
 2350SOL    HW3 9457   3.373   3.662   3.677
 2350SOL    MW4 9458   3.380   3.671   3.764
 2351SOL     OW 9459   3.400   3.904   3.873
 2351SOL    HW2 9460   3.477   3.945   3.833
 2351SOL    HW3 9461   3.326   3.938   3.823
 2351SOL    MW4 9462   3.401   3.914   3.861
 2352SOL     OW 9463   3.164   4.021   3.742
 2352SOL    HW2 9464   3.157   4.112   3.770
 2352SOL    HW3 9465   3.086   3.978   3.776
 2352SOL    MW4 9466   3.153   4.027   3.750
 2353SOL     OW 9467   3.159   4.292   3.866
 2353SOL    HW2 9468   3.164   4.261   3.957
 2353SOL    HW3 9469   3.246   4.327   3.847
 2353SOL    MW4 9470   3.171   4.292   3.876
 2354SOL     OW 9471   3.382   4.449   3.786
 2354SOL    HW2 9472   3.459   4.403   3.819
 2354SOL    HW3 9473   3.389   4.537   3.823
 2354SOL    MW4 9474   3.393   4.454   3.795
 2355SOL     OW 9475   3.840   0.063   3.868
 2355SOL    HW2 9476   3.931   0.085   3.849
 2355SOL    HW3 9477   3.830  -0.028   3.839
 2355SOL    MW4 9478   3.850   0.054   3.862
 2356SOL     OW 9479   3.595   0.165   3.784
 2356SOL    HW2 9480   3.675   0.134   3.825
 2356SOL    HW3 9481   3.612   0.157   3.690
 2356SOL    MW4 9482   3.608   0.160   3.777
 2357SOL     OW 9483   3.574   0.440   3.885
 2357SOL    HW2 9484   3.656   0.479   3.853
 2357SOL    HW3 9485   3.579   0.348   3.858
 2357SOL    MW4 9486   3.586   0.433   3.877
 2358SOL     OW 9487   3.842   0.497   3.821
 2358SOL    HW2 9488   3.922   0.456   3.855
 2358SOL    HW3 9489   3.862   0.591   3.823
 2358SOL    MW4 9490   3.855   0.504   3.826
 2359SOL     OW 9491   3.797   0.779   3.865
 2359SOL    HW2 9492   3.887   0.812   3.865
 2359SOL    HW3 9493   3.747   0.846   3.818
 2359SOL    MW4 9494   3.802   0.792   3.859
 2360SOL     OW 9495   3.599   0.950   3.766
 2360SOL    HW2 9496   3.608   1.036   3.808
 2360SOL    HW3 9497   3.507   0.926   3.780
 2360SOL    MW4 9498   3.588   0.958   3.774
 2361SOL     OW 9499   3.604   1.202   3.893
 2361SOL    HW2 9500   3.673   1.236   3.835
 2361SOL    HW3 9501   3.523   1.214   3.843
 2361SOL    MW4 9502   3.602   1.208   3.878
 2362SOL     OW 9503   3.836   1.267   3.716
 2362SOL    HW2 9504   3.911   1.226   3.758
 2362SOL    HW3 9505   3.828   1.353   3.759
 2362SOL    MW4 9506   3.845   1.273   3.727
 2363SOL     OW 9507   3.813   1.501   3.852
 2363SOL    HW2 9508   3.819   1.512   3.947
 2363SOL    HW3 9509   3.752   1.569   3.824
 2363SOL    MW4 9510   3.806   1.511   3.861
 2364SOL     OW 9511   3.652   1.687   3.749
 2364SOL    HW2 9512   3.576   1.645   3.789
 2364SOL    HW3 9513   3.640   1.674   3.655
 2364SOL    MW4 9514   3.640   1.680   3.742
 2365SOL     OW 9515   3.628   1.946   3.882
 2365SOL    HW2 9516   3.641   1.863   3.835
 2365SOL    HW3 9517   3.542   1.977   3.852
 2365SOL    MW4 9518   3.618   1.939   3.872
 2366SOL     OW 9519   3.826   2.102   3.750
 2366SOL    HW2 9520   3.910   2.066   3.779
 2366SOL    HW3 9521   3.761   2.055   3.803
 2366SOL    MW4 9522   3.829   2.091   3.761
 2367SOL     OW 9523   3.819   2.323   3.901
 2367SOL    HW2 9524   3.748   2.383   3.878
 2367SOL    HW3 9525   3.817   2.256   3.833
 2367SOL    MW4 9526   3.810   2.322   3.889
 2368SOL     OW 9527   3.593   2.455   3.816
 2368SOL    HW2 9528   3.517   2.408   3.851
 2368SOL    HW3 9529   3.583   2.448   3.721
 2368SOL    MW4 9530   3.581   2.448   3.808
 2369SOL     OW 9531   3.603   2.724   3.842
 2369SOL    HW2 9532   3.587   2.630   3.853
 2369SOL    HW3 9533   3.516   2.762   3.828
 2369SOL    MW4 9534   3.590   2.716   3.842
 2370SOL     OW 9535   3.851   2.830   3.776
 2370SOL    HW2 9536   3.910   2.782   3.833
 2370SOL    HW3 9537   3.764   2.794   3.796
 2370SOL    MW4 9538   3.847   2.819   3.786
 2371SOL     OW 9539   3.827   3.113   3.890
 2371SOL    HW2 9540   3.748   3.151   3.851
 2371SOL    HW3 9541   3.833   3.026   3.850
 2371SOL    MW4 9542   3.817   3.106   3.879
 2372SOL     OW 9543   3.607   3.250   3.756
 2372SOL    HW2 9544   3.608   3.341   3.785
 2372SOL    HW3 9545   3.604   3.255   3.660
 2372SOL    MW4 9546   3.607   3.262   3.747
 2373SOL     OW 9547   3.601   3.502   3.883
 2373SOL    HW2 9548   3.598   3.506   3.979
 2373SOL    HW3 9549   3.516   3.534   3.854
 2373SOL    MW4 9550   3.590   3.507   3.892
 2374SOL     OW 9551   3.821   3.648   3.771
 2374SOL    HW2 9552   3.824   3.736   3.808
 2374SOL    HW3 9553   3.753   3.603   3.822
 2374SOL    MW4 9554   3.812   3.653   3.782
 2375SOL     OW 9555   3.847   3.902   3.875
 2375SOL    HW2 9556   3.859   3.908   3.969
 2375SOL    HW3 9557   3.925   3.944   3.838
 2375SOL    MW4 9558   3.859   3.909   3.882
 2376SOL     OW 9559   3.593   4.044   3.757
 2376SOL    HW2 9560   3.596   4.137   3.781
 2376SOL    HW3 9561   3.681   4.012   3.775
 2376SOL    MW4 9562   3.605   4.052   3.763
 2377SOL     OW 9563   3.602   4.306   3.866
 2377SOL    HW2 9564   3.617   4.294   3.960
 2377SOL    HW3 9565   3.677   4.357   3.836
 2377SOL    MW4 9566   3.614   4.311   3.875
 2378SOL     OW 9567   3.814   4.449   3.772
 2378SOL    HW2 9568   3.888   4.406   3.815
 2378SOL    HW3 9569   3.818   4.417   3.681
 2378SOL    MW4 9570   3.824   4.439   3.765
 2379SOL     OW 9571   4.318   4.665   3.887
 2379SOL    HW2 9572   4.325   4.693   3.979
 2379SOL    HW3 9573   4.399   4.697   3.846
 2379SOL    MW4 9574   4.330   4.673   3.894
 2380SOL     OW 9575   4.091   0.124   3.793
 2380SOL    HW2 9576   4.171   0.080   3.820
 2380SOL    HW3 9577   4.082   0.103   3.700
 2380SOL    MW4 9578   4.100   0.116   3.784
 2381SOL     OW 9579   4.083   0.389   3.900
 2381SOL    HW2 9580   4.075   0.383   3.995
 2381SOL    HW3 9581   4.080   0.298   3.870
 2381SOL    MW4 9582   4.082   0.376   3.908
 2382SOL     OW 9583   4.293   0.521   3.771
 2382SOL    HW2 9584   4.229   0.466   3.815
 2382SOL    HW3 9585   4.274   0.509   3.678
 2382SOL    MW4 9586   4.282   0.512   3.764
 2383SOL     OW 9587   4.289   0.776   3.868
 2383SOL    HW2 9588   4.213   0.828   3.842
 2383SOL    HW3 9589   4.279   0.693   3.821
 2383SOL    MW4 9590   4.278   0.772   3.858
 2384SOL     OW 9591   4.061   0.894   3.782
 2384SOL    HW2 9592   4.065   0.983   3.818
 2384SOL    HW3 9593   4.057   0.908   3.687
 2384SOL    MW4 9594   4.061   0.908   3.774
 2385SOL     OW 9595   4.040   1.157   3.868
 2385SOL    HW2 9596   4.030   1.156   3.964
 2385SOL    HW3 9597   4.129   1.188   3.854
 2385SOL    MW4 9598   4.051   1.161   3.879
 2386SOL     OW 9599   4.279   1.252   3.785
 2386SOL    HW2 9600   4.266   1.342   3.814
 2386SOL    HW3 9601   4.253   1.252   3.693
 2386SOL    MW4 9602   4.274   1.264   3.777
 2387SOL     OW 9603   4.234   1.515   3.868
 2387SOL    HW2 9604   4.157   1.557   3.829
 2387SOL    HW3 9605   4.309   1.564   3.833
 2387SOL    MW4 9606   4.234   1.527   3.858
 2388SOL     OW 9607   4.027   1.675   3.780
 2388SOL    HW2 9608   4.042   1.766   3.807
 2388SOL    HW3 9609   3.938   1.656   3.811
 2388SOL    MW4 9610   4.017   1.685   3.788
 2389SOL     OW 9611   4.049   1.957   3.863
 2389SOL    HW2 9612   4.035   1.976   3.956
 2389SOL    HW3 9613   4.126   2.008   3.839
 2389SOL    MW4 9614   4.057   1.966   3.872
 2390SOL     OW 9615   4.271   2.104   3.753
 2390SOL    HW2 9616   4.268   2.193   3.787
 2390SOL    HW3 9617   4.250   2.113   3.661
 2390SOL    MW4 9618   4.268   2.117   3.746
 2391SOL     OW 9619   4.235   2.368   3.836
 2391SOL    HW2 9620   4.210   2.365   3.928
 2391SOL    HW3 9621   4.156   2.397   3.790
 2391SOL    MW4 9622   4.222   2.372   3.842
 2392SOL     OW 9623   3.980   2.485   3.730
 2392SOL    HW2 9624   3.997   2.565   3.779
 2392SOL    HW3 9625   3.924   2.433   3.787
 2392SOL    MW4 9626   3.975   2.488   3.744
 2393SOL     OW 9627   4.050   2.688   3.909
 2393SOL    HW2 9628   4.062   2.699   4.004
 2393SOL    HW3 9629   4.133   2.717   3.871
 2393SOL    MW4 9630   4.062   2.694   3.917
 2394SOL     OW 9631   4.267   2.788   3.769
 2394SOL    HW2 9632   4.258   2.877   3.805
 2394SOL    HW3 9633   4.350   2.756   3.806
 2394SOL    MW4 9634   4.277   2.796   3.779
 2395SOL     OW 9635   4.259   3.102   3.898
 2395SOL    HW2 9636   4.197   3.164   3.860
 2395SOL    HW3 9637   4.345   3.134   3.871
 2395SOL    MW4 9638   4.262   3.115   3.890
 2396SOL     OW 9639   4.063   3.252   3.764
 2396SOL    HW2 9640   4.000   3.202   3.817
 2396SOL    HW3 9641   4.034   3.238   3.674
 2396SOL    MW4 9642   4.051   3.244   3.759
 2397SOL     OW 9643   4.049   3.530   3.893
 2397SOL    HW2 9644   4.038   3.445   3.850
 2397SOL    HW3 9645   3.973   3.581   3.865
 2397SOL    MW4 9646   4.038   3.525   3.884
 2398SOL     OW 9647   4.291   3.627   3.778
 2398SOL    HW2 9648   4.211   3.590   3.816
 2398SOL    HW3 9649   4.361   3.570   3.809
 2398SOL    MW4 9650   4.290   3.615   3.787
 2399SOL     OW 9651   4.316   3.884   3.906
 2399SOL    HW2 9652   4.252   3.935   3.856
 2399SOL    HW3 9653   4.312   3.797   3.867
 2399SOL    MW4 9654   4.307   3.879   3.894
 2400SOL     OW 9655   4.103   4.027   3.799
 2400SOL    HW2 9656   4.089   4.120   3.819
 2400SOL    HW3 9657   4.086   4.020   3.705
 2400SOL    MW4 9658   4.099   4.038   3.789
 2401SOL     OW 9659   4.017   4.288   3.857
 2401SOL    HW2 9660   4.018   4.287   3.952
 2401SOL    HW3 9661   4.100   4.329   3.832
 2401SOL    MW4 9662   4.028   4.294   3.866
 2402SOL     OW 9663   4.298   4.404   3.763
 2402SOL    HW2 9664   4.310   4.484   3.813
 2402SOL    HW3 9665   4.364   4.344   3.798
 2402SOL    MW4 9666   4.309   4.406   3.774
 2403SOL     OW 9667   0.260   4.665   4.144
 2403SOL    HW2 9668   0.335   4.702   4.191
 2403SOL    HW3 9669   0.247   4.579   4.184
 2403SOL    MW4 9670   0.268   4.659   4.156
 2404SOL     OW 9671   0.062   0.158   4.249
 2404SOL    HW2 9672   0.097   0.171   4.337
 2404SOL    HW3 9673   0.129   0.108   4.203
 2404SOL    MW4 9674   0.075   0.153   4.255
 2405SOL     OW 9675   4.479   0.394   4.156
 2405SOL    HW2 9676   4.492   0.304   4.187
 2405SOL    HW3 9677   4.485   0.389   4.061
 2405SOL    MW4 9678   4.481   0.382   4.148
 2406SOL     OW 9679   0.215   0.503   4.294
 2406SOL    HW2 9680   0.296   0.461   4.263
 2406SOL    HW3 9681   0.146   0.462   4.241
 2406SOL    MW4 9682   0.217   0.492   4.283
 2407SOL     OW 9683   0.228   0.758   4.188
 2407SOL    HW2 9684   0.161   0.809   4.235
 2407SOL    HW3 9685   0.224   0.672   4.229
 2407SOL    MW4 9686   0.219   0.754   4.200
 2408SOL     OW 9687   0.010   0.881   4.330
 2408SOL    HW2 9688  -0.052   0.852   4.264
 2408SOL    HW3 9689   0.020   0.975   4.316
 2408SOL    MW4 9690   0.003   0.889   4.320
 2409SOL     OW 9691   0.032   1.132   4.197
 2409SOL    HW2 9692   0.087   1.202   4.231
 2409SOL    HW3 9693   0.029   1.147   4.102
 2409SOL    MW4 9694   0.039   1.143   4.189
 2410SOL     OW 9695   0.246   1.294   4.255
 2410SOL    HW2 9696   0.283   1.283   4.342
 2410SOL    HW3 9697   0.289   1.227   4.201
 2410SOL    MW4 9698   0.257   1.284   4.259
 2411SOL     OW 9699   0.085   1.506   4.610
 2411SOL    HW2 9700   0.172   1.536   4.635
 2411SOL    HW3 9701   0.044   1.582   4.569
 2411SOL    MW4 9702   0.091   1.520   4.608
 2412SOL     OW 9703   0.006   1.694   4.213
 2412SOL    HW2 9704  -0.064   1.637   4.180
 2412SOL    HW3 9705  -0.025   1.783   4.196
 2412SOL    MW4 9706  -0.007   1.698   4.206
 2413SOL     OW 9707   0.224   2.001   4.225
 2413SOL    HW2 9708   0.217   1.999   4.321
 2413SOL    HW3 9709   0.297   1.942   4.206
 2413SOL    MW4 9710   0.233   1.993   4.235
 2414SOL     OW 9711   0.450   1.828   4.567
 2414SOL    HW2 9712   0.361   1.858   4.546
 2414SOL    HW3 9713   0.479   1.783   4.488
 2414SOL    MW4 9714   0.442   1.826   4.554
 2415SOL     OW 9715   0.224   2.254   4.106
 2415SOL    HW2 9716   0.298   2.312   4.124
 2415SOL    HW3 9717   0.239   2.178   4.162
 2415SOL    MW4 9718   0.236   2.252   4.116
 2416SOL     OW 9719   0.047   2.439   4.213
 2416SOL    HW2 9720  -0.041   2.416   4.183
 2416SOL    HW3 9721   0.103   2.368   4.182
 2416SOL    MW4 9722   0.042   2.426   4.205
 2417SOL     OW 9723   0.018   2.703   4.162
 2417SOL    HW2 9724   0.082   2.754   4.211
 2417SOL    HW3 9725   0.023   2.615   4.200
 2417SOL    MW4 9726   0.027   2.698   4.173
 2418SOL     OW 9727   0.234   2.853   4.299
 2418SOL    HW2 9728   0.293   2.801   4.244
 2418SOL    HW3 9729   0.219   2.932   4.248
 2418SOL    MW4 9730   0.240   2.856   4.285
 2419SOL     OW 9731   0.226   3.097   4.126
 2419SOL    HW2 9732   0.308   3.138   4.153
 2419SOL    HW3 9733   0.158   3.151   4.166
 2419SOL    MW4 9734   0.228   3.110   4.135
 2420SOL     OW 9735   4.474   3.237   4.249
 2420SOL    HW2 9736   4.395   3.206   4.206
 2420SOL    HW3 9737   4.483   3.328   4.221
 2420SOL    MW4 9738   4.465   3.245   4.240
 2421SOL     OW 9739   0.007   3.495   4.136
 2421SOL    HW2 9740  -0.066   3.548   4.169
 2421SOL    HW3 9741  -0.007   3.491   4.042
 2421SOL    MW4 9742  -0.005   3.501   4.128
 2422SOL     OW 9743   0.245   3.576   4.229
 2422SOL    HW2 9744   0.313   3.517   4.195
 2422SOL    HW3 9745   0.164   3.544   4.188
 2422SOL    MW4 9746   0.243   3.564   4.219
 2423SOL     OW 9747   0.292   3.852   4.172
 2423SOL    HW2 9748   0.215   3.898   4.206
 2423SOL    HW3 9749   0.278   3.760   4.196
 2423SOL    MW4 9750   0.280   3.846   4.180
 2424SOL     OW 9751   0.066   3.972   4.272
 2424SOL    HW2 9752   0.065   3.988   4.366
 2424SOL    HW3 9753  -0.022   3.939   4.252
 2424SOL    MW4 9754   0.054   3.970   4.282
 2425SOL     OW 9755   0.030   4.224   4.148
 2425SOL    HW2 9756   0.041   4.134   4.179
 2425SOL    HW3 9757   0.015   4.216   4.054
 2425SOL    MW4 9758   0.029   4.211   4.140
 2426SOL     OW 9759   0.199   4.415   4.252
 2426SOL    HW2 9760   0.167   4.423   4.342
 2426SOL    HW3 9761   0.139   4.353   4.211
 2426SOL    MW4 9762   0.186   4.408   4.259
 2427SOL     OW 9763   0.703   4.650   4.260
 2427SOL    HW2 9764   0.613   4.681   4.270
 2427SOL    HW3 9765   0.722   4.660   4.167
 2427SOL    MW4 9766   0.694   4.656   4.249
 2428SOL     OW 9767   0.458   0.098   4.291
 2428SOL    HW2 9768   0.419   0.091   4.378
 2428SOL    HW3 9769   0.471   0.192   4.278
 2428SOL    MW4 9770   0.455   0.110   4.301
 2429SOL     OW 9771   0.456   0.357   4.207
 2429SOL    HW2 9772   0.522   0.414   4.246
 2429SOL    HW3 9773   0.480   0.352   4.114
 2429SOL    MW4 9774   0.468   0.364   4.200
 2430SOL     OW 9775   0.680   0.500   4.289
 2430SOL    HW2 9776   0.753   0.469   4.236
 2430SOL    HW3 9777   0.672   0.593   4.267
 2430SOL    MW4 9778   0.689   0.508   4.279
 2431SOL     OW 9779   0.701   0.774   4.217
 2431SOL    HW2 9780   0.633   0.835   4.247
 2431SOL    HW3 9781   0.699   0.782   4.122
 2431SOL    MW4 9782   0.691   0.783   4.208
 2432SOL     OW 9783   0.462   0.904   4.265
 2432SOL    HW2 9784   0.451   0.993   4.230
 2432SOL    HW3 9785   0.391   0.854   4.225
 2432SOL    MW4 9786   0.451   0.909   4.255
 2433SOL     OW 9787   0.469   1.152   4.151
 2433SOL    HW2 9788   0.534   1.204   4.199
 2433SOL    HW3 9789   0.500   1.153   4.060
 2433SOL    MW4 9790   0.482   1.159   4.145
 2434SOL     OW 9791   0.691   1.283   4.277
 2434SOL    HW2 9792   0.697   1.299   4.371
 2434SOL    HW3 9793   0.692   1.370   4.238
 2434SOL    MW4 9794   0.692   1.297   4.284
 2435SOL     OW 9795   0.696   1.529   4.164
 2435SOL    HW2 9796   0.789   1.552   4.171
 2435SOL    HW3 9797   0.679   1.525   4.069
 2435SOL    MW4 9798   0.706   1.531   4.152
 2436SOL     OW 9799   0.259   1.579   4.156
 2436SOL    HW2 9800   0.272   1.501   4.209
 2436SOL    HW3 9801   0.178   1.618   4.189
 2436SOL    MW4 9802   0.250   1.574   4.168
 2437SOL     OW 9803   0.425   1.819   4.177
 2437SOL    HW2 9804   0.387   1.731   4.172
 2437SOL    HW3 9805   0.455   1.837   4.088
 2437SOL    MW4 9806   0.424   1.810   4.165
 2438SOL     OW 9807   0.715   2.023   4.289
 2438SOL    HW2 9808   0.711   2.046   4.382
 2438SOL    HW3 9809   0.643   1.962   4.277
 2438SOL    MW4 9810   0.705   2.018   4.299
 2439SOL     OW 9811   0.686   2.274   4.141
 2439SOL    HW2 9812   0.711   2.187   4.171
 2439SOL    HW3 9813   0.702   2.273   4.046
 2439SOL    MW4 9814   0.691   2.263   4.132
 2440SOL     OW 9815   0.464   2.415   4.167
 2440SOL    HW2 9816   0.476   2.503   4.131
 2440SOL    HW3 9817   0.549   2.372   4.153
 2440SOL    MW4 9818   0.477   2.421   4.161
 2441SOL     OW 9819   0.426   2.709   4.144
 2441SOL    HW2 9820   0.514   2.731   4.171
 2441SOL    HW3 9821   0.429   2.708   4.048
 2441SOL    MW4 9822   0.438   2.712   4.135
 2442SOL     OW 9823   0.655   2.799   4.260
 2442SOL    HW2 9824   0.684   2.801   4.351
 2442SOL    HW3 9825   0.648   2.891   4.235
 2442SOL    MW4 9826   0.658   2.811   4.269
 2443SOL     OW 9827   0.663   3.052   4.144
 2443SOL    HW2 9828   0.740   3.096   4.180
 2443SOL    HW3 9829   0.589   3.108   4.168
 2443SOL    MW4 9830   0.663   3.065   4.152
 2444SOL     OW 9831   0.471   3.224   4.245
 2444SOL    HW2 9832   0.490   3.260   4.331
 2444SOL    HW3 9833   0.468   3.300   4.187
 2444SOL    MW4 9834   0.473   3.238   4.249
 2445SOL     OW 9835   0.450   3.458   4.111
 2445SOL    HW2 9836   0.521   3.502   4.159
 2445SOL    HW3 9837   0.461   3.488   4.021
 2445SOL    MW4 9838   0.461   3.468   4.105
 2446SOL     OW 9839   0.682   3.628   4.260
 2446SOL    HW2 9840   0.677   3.618   4.355
 2446SOL    HW3 9841   0.764   3.585   4.236
 2446SOL    MW4 9842   0.692   3.621   4.269
 2447SOL     OW 9843   0.714   3.884   4.113
 2447SOL    HW2 9844   0.640   3.934   4.150
 2447SOL    HW3 9845   0.712   3.801   4.160
 2447SOL    MW4 9846   0.704   3.880   4.124
 2448SOL     OW 9847   0.510   3.998   4.250
 2448SOL    HW2 9848   0.487   4.090   4.236
 2448SOL    HW3 9849   0.432   3.950   4.222
 2448SOL    MW4 9850   0.497   4.004   4.245
 2449SOL     OW 9851   0.415   4.257   4.200
 2449SOL    HW2 9852   0.338   4.309   4.223
 2449SOL    HW3 9853   0.419   4.262   4.104
 2449SOL    MW4 9854   0.406   4.264   4.190
 2450SOL     OW 9855   0.670   4.356   4.279
 2450SOL    HW2 9856   0.586   4.312   4.269
 2450SOL    HW3 9857   0.653   4.447   4.256
 2450SOL    MW4 9858   0.657   4.362   4.275
 2451SOL     OW 9859   1.125   0.028   4.144
 2451SOL    HW2 9860   1.111  -0.066   4.156
 2451SOL    HW3 9861   1.152   0.036   4.052
 2451SOL    MW4 9862   1.127   0.016   4.133
 2452SOL     OW 9863   0.924   0.130   4.299
 2452SOL    HW2 9864   0.982   0.089   4.235
 2452SOL    HW3 9865   0.846   0.075   4.299
 2452SOL    MW4 9866   0.921   0.117   4.290
 2453SOL     OW 9867   0.904   0.382   4.176
 2453SOL    HW2 9868   0.989   0.424   4.188
 2453SOL    HW3 9869   0.912   0.298   4.221
 2453SOL    MW4 9870   0.916   0.376   4.183
 2454SOL     OW 9871   1.157   0.502   4.225
 2454SOL    HW2 9872   1.177   0.509   4.318
 2454SOL    HW3 9873   1.226   0.446   4.190
 2454SOL    MW4 9874   1.169   0.496   4.233
 2455SOL     OW 9875   1.129   0.753   4.131
 2455SOL    HW2 9876   1.191   0.804   4.183
 2455SOL    HW3 9877   1.140   0.663   4.162
 2455SOL    MW4 9878   1.138   0.748   4.142
 2456SOL     OW 9879   0.942   0.890   4.287
 2456SOL    HW2 9880   1.006   0.841   4.236
 2456SOL    HW3 9881   0.859   0.846   4.270
 2456SOL    MW4 9882   0.939   0.878   4.278
 2457SOL     OW 9883   0.901   1.136   4.154
 2457SOL    HW2 9884   0.913   1.046   4.184
 2457SOL    HW3 9885   0.828   1.169   4.205
 2457SOL    MW4 9886   0.893   1.129   4.164
 2458SOL     OW 9887   1.125   1.259   4.290
 2458SOL    HW2 9888   1.100   1.261   4.382
 2458SOL    HW3 9889   1.042   1.252   4.243
 2458SOL    MW4 9890   1.111   1.259   4.296
 2459SOL     OW 9891   1.189   1.548   4.186
 2459SOL    HW2 9892   1.098   1.565   4.210
 2459SOL    HW3 9893   1.202   1.455   4.204
 2459SOL    MW4 9894   1.179   1.538   4.192
 2460SOL     OW 9895   0.936   1.622   4.268
 2460SOL    HW2 9896   0.918   1.619   4.362
 2460SOL    HW3 9897   0.934   1.715   4.245
 2460SOL    MW4 9898   0.933   1.633   4.277
 2461SOL     OW 9899   0.910   1.877   4.173
 2461SOL    HW2 9900   0.843   1.920   4.226
 2461SOL    HW3 9901   0.898   1.913   4.085
 2461SOL    MW4 9902   0.900   1.887   4.168
 2462SOL     OW 9903   1.158   2.047   4.229
 2462SOL    HW2 9904   1.149   2.060   4.323
 2462SOL    HW3 9905   1.083   1.992   4.205
 2462SOL    MW4 9906   1.147   2.042   4.238
 2463SOL     OW 9907   1.103   2.309   4.147
 2463SOL    HW2 9908   1.186   2.345   4.181
 2463SOL    HW3 9909   1.097   2.222   4.186
 2463SOL    MW4 9910   1.113   2.302   4.156
 2464SOL     OW 9911   0.886   2.458   4.234
 2464SOL    HW2 9912   0.968   2.413   4.212
 2464SOL    HW3 9913   0.818   2.392   4.219
 2464SOL    MW4 9914   0.888   2.443   4.229
 2465SOL     OW 9915   0.862   2.684   4.112
 2465SOL    HW2 9916   0.864   2.600   4.158
 2465SOL    HW3 9917   0.786   2.729   4.149
 2465SOL    MW4 9918   0.853   2.679   4.123
 2466SOL     OW 9919   1.087   2.810   4.246
 2466SOL    HW2 9920   1.094   2.894   4.202
 2466SOL    HW3 9921   1.006   2.771   4.213
 2466SOL    MW4 9922   1.077   2.816   4.236
 2467SOL     OW 9923   1.136   3.065   4.160
 2467SOL    HW2 9924   1.205   3.115   4.204
 2467SOL    HW3 9925   1.153   3.078   4.067
 2467SOL    MW4 9926   1.147   3.073   4.154
 2468SOL     OW 9927   0.893   3.169   4.243
 2468SOL    HW2 9928   0.886   3.122   4.327
 2468SOL    HW3 9929   0.969   3.130   4.201
 2468SOL    MW4 9930   0.902   3.157   4.249
 2469SOL     OW 9931   0.900   3.463   4.208
 2469SOL    HW2 9932   0.905   3.369   4.224
 2469SOL    HW3 9933   0.886   3.471   4.114
 2469SOL    MW4 9934   0.899   3.452   4.198
 2470SOL     OW 9935   1.152   3.604   4.269
 2470SOL    HW2 9936   1.132   3.691   4.234
 2470SOL    HW3 9937   1.068   3.559   4.272
 2470SOL    MW4 9938   1.138   3.609   4.265
 2471SOL     OW 9939   1.118   3.861   4.161
 2471SOL    HW2 9940   1.199   3.898   4.195
 2471SOL    HW3 9941   1.050   3.924   4.186
 2471SOL    MW4 9942   1.119   3.874   4.169
 2472SOL     OW 9943   0.896   4.029   4.246
 2472SOL    HW2 9944   0.900   4.111   4.197
 2472SOL    HW3 9945   0.824   3.980   4.205
 2472SOL    MW4 9946   0.887   4.033   4.234
 2473SOL     OW 9947   0.875   4.294   4.131
 2473SOL    HW2 9948   0.946   4.343   4.171
 2473SOL    HW3 9949   0.797   4.318   4.183
 2473SOL    MW4 9950   0.874   4.304   4.143
 2474SOL     OW 9951   1.098   4.428   4.260
 2474SOL    HW2 9952   1.094   4.403   4.352
 2474SOL    HW3 9953   1.182   4.393   4.229
 2474SOL    MW4 9954   1.109   4.420   4.268
 2475SOL     OW 9955   1.598   4.634   4.162
 2475SOL    HW2 9956   1.681   4.663   4.201
 2475SOL    HW3 9957   1.531   4.670   4.219
 2475SOL    MW4 9958   1.600   4.642   4.175
 2476SOL     OW 9959   1.377   0.081   4.264
 2476SOL    HW2 9960   1.372   0.074   4.359
 2476SOL    HW3 9961   1.288   0.063   4.233
 2476SOL    MW4 9962   1.365   0.078   4.272
 2477SOL     OW 9963   1.371   0.350   4.133
 2477SOL    HW2 9964   1.454   0.392   4.154
 2477SOL    HW3 9965   1.377   0.264   4.174
 2477SOL    MW4 9966   1.383   0.344   4.141
 2478SOL     OW 9967   1.576   0.495   4.261
 2478SOL    HW2 9968   1.584   0.505   4.356
 2478SOL    HW3 9969   1.580   0.584   4.227
 2478SOL    MW4 9970   1.577   0.508   4.269
 2479SOL     OW 9971   1.572   0.757   4.167
 2479SOL    HW2 9972   1.649   0.801   4.204
 2479SOL    HW3 9973   1.583   0.766   4.072
 2479SOL    MW4 9974   1.584   0.764   4.159
 2480SOL     OW 9975   1.337   0.870   4.273
 2480SOL    HW2 9976   1.363   0.962   4.267
 2480SOL    HW3 9977   1.413   0.821   4.241
 2480SOL    MW4 9978   1.351   0.875   4.268
 2481SOL     OW 9979   1.360   1.142   4.192
 2481SOL    HW2 9980   1.276   1.176   4.221
 2481SOL    HW3 9981   1.360   1.154   4.098
 2481SOL    MW4 9982   1.349   1.148   4.184
 2482SOL     OW 9983   1.558   1.312   4.253
 2482SOL    HW2 9984   1.546   1.337   4.345
 2482SOL    HW3 9985   1.486   1.251   4.235
 2482SOL    MW4 9986   1.547   1.307   4.263
 2483SOL     OW 9987   1.573   1.582   4.120
 2483SOL    HW2 9988   1.501   1.621   4.170
 2483SOL    HW3 9989   1.590   1.499   4.164
 2483SOL    MW4 9990   1.566   1.576   4.132
 2484SOL     OW 9991   1.383   1.736   4.257
 2484SOL    HW2 9992   1.381   1.807   4.193
 2484SOL    HW3 9993   1.305   1.684   4.238
 2484SOL    MW4 9994   1.372   1.738   4.246
 2485SOL     OW 9995   1.374   1.962   4.076
 2485SOL    HW2 9996   1.448   2.014   4.106
 2485SOL    HW3 9997   1.299   1.996   4.125
 2485SOL    MW4 9998   1.373   1.973   4.086
 2486SOL     OW 9999   1.599   2.071   4.182
 2486SOL    HW210000   1.561   2.053   4.268
 2486SOL    HW310001   1.586   2.165   4.168
 2486SOL    MW410002   1.592   2.081   4.191
 2487SOL     OW10003   1.526   2.333   4.132
 2487SOL    HW210004   1.600   2.389   4.155
 2487SOL    HW310005   1.530   2.327   4.036
 2487SOL    MW410006   1.536   2.340   4.122
 2488SOL     OW10007   1.319   2.446   4.254
 2488SOL    HW210008   1.320   2.538   4.228
 2488SOL    HW310009   1.392   2.407   4.207
 2488SOL    MW410010   1.328   2.453   4.244
 2489SOL     OW10011   1.329   2.702   4.159
 2489SOL    HW210012   1.404   2.748   4.196
 2489SOL    HW310013   1.253   2.743   4.201
 2489SOL    MW410014   1.329   2.713   4.170
 2490SOL     OW10015   1.572   2.832   4.236
 2490SOL    HW210016   1.573   2.848   4.330
 2490SOL    HW310017   1.587   2.918   4.197
 2490SOL    MW410018   1.574   2.845   4.243
 2491SOL     OW10019   1.593   3.092   4.124
 2491SOL    HW210020   1.663   3.141   4.168
 2491SOL    HW310021   1.512   3.133   4.155
 2491SOL    MW410022   1.591   3.104   4.134
 2492SOL     OW10023   1.361   3.215   4.245
 2492SOL    HW210024   1.388   3.224   4.336
 2492SOL    HW310025   1.358   3.304   4.211
 2492SOL    MW410026   1.364   3.228   4.253
 2493SOL     OW10027   1.354   3.469   4.125
 2493SOL    HW210028   1.285   3.523   4.164
 2493SOL    HW310029   1.337   3.473   4.030
 2493SOL    MW410030   1.343   3.477   4.117
 2494SOL     OW10031   1.587   3.576   4.239
 2494SOL    HW210032   1.556   3.562   4.329
 2494SOL    HW310033   1.516   3.545   4.184
 2494SOL    MW410034   1.574   3.570   4.244
 2495SOL     OW10035   1.630   3.835   4.134
 2495SOL    HW210036   1.560   3.899   4.148
 2495SOL    HW310037   1.599   3.756   4.177
 2495SOL    MW410038   1.617   3.833   4.141
 2496SOL     OW10039   1.375   4.010   4.189
 2496SOL    HW210040   1.365   4.026   4.283
 2496SOL    HW310041   1.347   4.092   4.148
 2496SOL    MW410042   1.370   4.023   4.196
 2497SOL     OW10043   1.331   4.300   4.164
 2497SOL    HW210044   1.407   4.341   4.204
 2497SOL    HW310045   1.343   4.316   4.070
 2497SOL    MW410046   1.343   4.307   4.157
 2498SOL     OW10047   1.574   4.367   4.267
 2498SOL    HW210048   1.608   4.446   4.226
 2498SOL    HW310049   1.639   4.300   4.246
 2498SOL    MW410050   1.587   4.369   4.259
 2499SOL     OW10051   2.028   4.643   4.189
 2499SOL    HW210052   1.943   4.671   4.224
 2499SOL    HW310053   2.023   4.661   4.095
 2499SOL    MW410054   2.016   4.649   4.182
 2500SOL     OW10055   1.801   0.085   4.280
 2500SOL    HW210056   1.772   0.091   4.371
 2500SOL    HW310057   1.808   0.176   4.251
 2500SOL    MW410058   1.798   0.097   4.289
 2501SOL     OW10059   1.829   0.337   4.194
 2501SOL    HW210060   1.903   0.391   4.224
 2501SOL    HW310061   1.752   0.381   4.229
 2501SOL    MW410062   1.829   0.350   4.202
 2502SOL     OW10063   2.037   0.500   4.259
 2502SOL    HW210064   2.045   0.499   4.355
 2502SOL    HW310065   2.121   0.465   4.228
 2502SOL    MW410066   2.049   0.495   4.268
 2503SOL     OW10067   1.992   0.746   4.135
 2503SOL    HW210068   2.078   0.762   4.175
 2503SOL    HW310069   1.973   0.654   4.154
 2503SOL    MW410070   2.001   0.736   4.143
 2504SOL     OW10071   1.796   0.881   4.283
 2504SOL    HW210072   1.805   0.976   4.276
 2504SOL    HW310073   1.860   0.847   4.221
 2504SOL    MW410074   1.805   0.889   4.274
 2505SOL     OW10075   1.799   1.161   4.233
 2505SOL    HW210076   1.873   1.216   4.259
 2505SOL    HW310077   1.724   1.221   4.231
 2505SOL    MW410078   1.799   1.176   4.236
 2506SOL     OW10079   2.025   1.293   4.276
 2506SOL    HW210080   2.090   1.255   4.217
 2506SOL    HW310081   2.023   1.386   4.254
 2506SOL    MW410082   2.033   1.300   4.265
 2507SOL     OW10083   2.013   1.562   4.170
 2507SOL    HW210084   2.090   1.606   4.204
 2507SOL    HW310085   2.038   1.533   4.082
 2507SOL    MW410086   2.026   1.564   4.163
 2508SOL     OW10087   1.790   1.668   4.273
 2508SOL    HW210088   1.870   1.637   4.230
 2508SOL    HW310089   1.720   1.638   4.216
 2508SOL    MW410090   1.791   1.660   4.260
 2509SOL     OW10091   1.825   1.904   4.143
 2509SOL    HW210092   1.809   1.825   4.195
 2509SOL    HW310093   1.750   1.961   4.161
 2509SOL    MW410094   1.813   1.901   4.152
 2510SOL     OW10095   2.050   2.041   4.245
 2510SOL    HW210096   2.125   2.016   4.192
 2510SOL    HW310097   1.976   1.996   4.206
 2510SOL    MW410098   2.050   2.032   4.233
 2511SOL     OW10099   2.003   2.317   4.188
 2511SOL    HW210100   2.027   2.227   4.210
 2511SOL    HW310101   1.996   2.318   4.093
 2511SOL    MW410102   2.005   2.305   4.178
 2512SOL     OW10103   1.767   2.445   4.230
 2512SOL    HW210104   1.738   2.448   4.321
 2512SOL    HW310105   1.845   2.391   4.231
 2512SOL    MW410106   1.773   2.438   4.242
 2513SOL     OW10107   1.800   2.712   4.142
 2513SOL    HW210108   1.794   2.620   4.169
 2513SOL    HW310109   1.718   2.752   4.174
 2513SOL    MW410110   1.788   2.705   4.150
 2514SOL     OW10111   1.983   2.891   4.246
 2514SOL    HW210112   1.996   2.889   4.341
 2514SOL    HW310113   1.916   2.824   4.229
 2514SOL    MW410114   1.976   2.882   4.256
 2515SOL     OW10115   2.036   3.115   4.090
 2515SOL    HW210116   2.000   3.040   4.137
 2515SOL    HW310117   2.033   3.088   3.998
 2515SOL    MW410118   2.031   3.101   4.084
 2516SOL     OW10119   1.803   3.233   4.205
 2516SOL    HW210120   1.810   3.320   4.167
 2516SOL    HW310121   1.875   3.183   4.165
 2516SOL    MW410122   1.813   3.238   4.195
 2517SOL     OW10123   1.837   3.489   4.134
 2517SOL    HW210124   1.751   3.522   4.163
 2517SOL    HW310125   1.830   3.486   4.039
 2517SOL    MW410126   1.824   3.493   4.125
 2518SOL     OW10127   2.101   3.615   4.181
 2518SOL    HW210128   2.078   3.706   4.199
 2518SOL    HW310129   2.017   3.573   4.161
 2518SOL    MW410130   2.087   3.621   4.181
 2519SOL     OW10131   2.106   3.892   4.224
 2519SOL    HW210132   2.018   3.901   4.262
 2519SOL    HW310133   2.092   3.903   4.130
 2519SOL    MW410134   2.092   3.895   4.217
 2520SOL     OW10135   1.844   3.928   4.285
 2520SOL    HW210136   1.799   4.003   4.247
 2520SOL    HW310137   1.809   3.853   4.237
 2520SOL    MW410138   1.834   3.928   4.274
 2521SOL     OW10139   1.794   4.222   4.194
 2521SOL    HW210140   1.881   4.256   4.216
 2521SOL    HW310141   1.796   4.209   4.099
 2521SOL    MW410142   1.806   4.225   4.184
 2522SOL     OW10143   2.043   4.367   4.242
 2522SOL    HW210144   2.041   4.388   4.336
 2522SOL    HW310145   2.060   4.450   4.199
 2522SOL    MW410146   2.045   4.380   4.249
 2523SOL     OW10147   2.425   0.005   4.137
 2523SOL    HW210148   2.501   0.048   4.177
 2523SOL    HW310149   2.430  -0.085   4.169
 2523SOL    MW410150   2.436  -0.001   4.147
 2524SOL     OW10151   2.255   0.151   4.262
 2524SOL    HW210152   2.316   0.094   4.215
 2524SOL    HW310153   2.169   0.110   4.248
 2524SOL    MW410154   2.252   0.138   4.254
 2525SOL     OW10155   2.285   0.415   4.172
 2525SOL    HW210156   2.281   0.325   4.205
 2525SOL    HW310157   2.274   0.406   4.077
 2525SOL    MW410158   2.283   0.402   4.164
 2526SOL     OW10159   2.527   0.532   4.237
 2526SOL    HW210160   2.565   0.492   4.315
 2526SOL    HW310161   2.438   0.497   4.232
 2526SOL    MW410162   2.520   0.522   4.246
 2527SOL     OW10163   2.510   0.811   4.126
 2527SOL    HW210164   2.507   0.719   4.154
 2527SOL    HW310165   2.493   0.808   4.032
 2527SOL    MW410166   2.507   0.798   4.117
 2528SOL     OW10167   2.243   0.877   4.208
 2528SOL    HW210168   2.237   0.888   4.303
 2528SOL    HW310169   2.335   0.861   4.191
 2528SOL    MW410170   2.254   0.877   4.218
 2529SOL     OW10171   2.205   1.148   4.115
 2529SOL    HW210172   2.272   1.204   4.152
 2529SOL    HW310173   2.225   1.060   4.147
 2529SOL    MW410174   2.216   1.144   4.124
 2530SOL     OW10175   2.428   1.292   4.248
 2530SOL    HW210176   2.451   1.307   4.340
 2530SOL    HW310177   2.509   1.263   4.207
 2530SOL    MW410178   2.442   1.290   4.255
 2531SOL     OW10179   2.446   1.567   4.169
 2531SOL    HW210180   2.444   1.472   4.182
 2531SOL    HW310181   2.440   1.578   4.074
 2531SOL    MW410182   2.445   1.556   4.158
 2532SOL     OW10183   2.233   1.677   4.281
 2532SOL    HW210184   2.244   1.702   4.373
 2532SOL    HW310185   2.320   1.650   4.253
 2532SOL    MW410186   2.246   1.677   4.290
 2533SOL     OW10187   2.258   1.910   4.116
 2533SOL    HW210188   2.332   1.961   4.149
 2533SOL    HW310189   2.253   1.835   4.176
 2533SOL    MW410190   2.267   1.907   4.128
 2534SOL     OW10191   2.445   2.076   4.251
 2534SOL    HW210192   2.455   2.065   4.345
 2534SOL    HW310193   2.530   2.053   4.215
 2534SOL    MW410194   2.457   2.072   4.258
 2535SOL     OW10195   2.441   2.335   4.164
 2535SOL    HW210196   2.430   2.242   4.186
 2535SOL    HW310197   2.449   2.336   4.068
 2535SOL    MW410198   2.441   2.323   4.154
 2536SOL     OW10199   2.222   2.486   4.250
 2536SOL    HW210200   2.298   2.430   4.233
 2536SOL    HW310201   2.149   2.441   4.208
 2536SOL    MW410202   2.222   2.473   4.242
 2537SOL     OW10203   2.233   2.741   4.152
 2537SOL    HW210204   2.225   2.649   4.177
 2537SOL    HW310205   2.162   2.785   4.198
 2537SOL    MW410206   2.223   2.734   4.161
 2538SOL     OW10207   2.488   2.845   4.213
 2538SOL    HW210208   2.487   2.858   4.308
 2538SOL    HW310209   2.400   2.816   4.191
 2538SOL    MW410210   2.476   2.843   4.222
 2539SOL     OW10211   2.537   3.092   4.108
 2539SOL    HW210212   2.452   3.125   4.138
 2539SOL    HW310213   2.539   3.001   4.136
 2539SOL    MW410214   2.526   3.085   4.116
 2540SOL     OW10215   2.286   3.184   4.168
 2540SOL    HW210216   2.285   3.268   4.123
 2540SOL    HW310217   2.208   3.138   4.137
 2540SOL    MW410218   2.276   3.189   4.158
 2541SOL     OW10219   2.307   3.471   4.073
 2541SOL    HW210220   2.383   3.515   4.112
 2541SOL    HW310221   2.233   3.526   4.096
 2541SOL    MW410222   2.308   3.484   4.081
 2542SOL     OW10223   2.507   3.600   4.215
 2542SOL    HW210224   2.482   3.593   4.307
 2542SOL    HW310225   2.500   3.693   4.195
 2542SOL    MW410226   2.503   3.611   4.225
 2543SOL     OW10227   2.503   3.866   4.132
 2543SOL    HW210228   2.570   3.924   4.167
 2543SOL    HW310229   2.496   3.890   4.040
 2543SOL    MW410230   2.511   3.877   4.125
 2544SOL     OW10231   2.341   4.032   4.284
 2544SOL    HW210232   2.406   3.982   4.235
 2544SOL    HW310233   2.262   3.978   4.281
 2544SOL    MW410234   2.339   4.018   4.278
 2545SOL     OW10235   2.271   4.256   4.143
 2545SOL    HW210236   2.303   4.182   4.193
 2545SOL    HW310237   2.178   4.262   4.165
 2545SOL    MW410238   2.263   4.247   4.152
 2546SOL     OW10239   2.450   4.429   4.272
 2546SOL    HW210240   2.538   4.399   4.249
 2546SOL    HW310241   2.392   4.368   4.226
 2546SOL    MW410242   2.454   4.417   4.263
 2547SOL     OW10243   2.914   0.038   4.144
 2547SOL    HW210244   2.983   0.090   4.183
 2547SOL    HW310245   2.937  -0.053   4.166
 2547SOL    MW410246   2.926   0.033   4.152
 2548SOL     OW10247   2.667   0.172   4.222
 2548SOL    HW210248   2.672   0.263   4.192
 2548SOL    HW310249   2.754   0.135   4.205
 2548SOL    MW410250   2.679   0.179   4.216
 2549SOL     OW10251   2.718   0.416   4.094
 2549SOL    HW210252   2.648   0.459   4.143
 2549SOL    HW310253   2.691   0.422   4.002
 2549SOL    MW410254   2.705   0.423   4.088
 2550SOL     OW10255   2.955   0.528   4.201
 2550SOL    HW210256   2.957   0.621   4.176
 2550SOL    HW310257   2.884   0.491   4.149
 2550SOL    MW410258   2.946   0.536   4.191
 2551SOL     OW10259   2.936   0.789   4.146
 2551SOL    HW210260   3.025   0.821   4.161
 2551SOL    HW310261   2.928   0.783   4.051
 2551SOL    MW410262   2.947   0.793   4.136
 2552SOL     OW10263   2.713   0.954   4.231
 2552SOL    HW210264   2.795   0.907   4.219
 2552SOL    HW310265   2.645   0.894   4.201
 2552SOL    MW410266   2.715   0.940   4.226
 2553SOL     OW10267   2.670   1.214   4.152
 2553SOL    HW210268   2.653   1.125   4.180
 2553SOL    HW310269   2.681   1.207   4.057
 2553SOL    MW410270   2.670   1.201   4.143
 2554SOL     OW10271   2.931   1.328   4.196
 2554SOL    HW210272   2.994   1.260   4.176
 2554SOL    HW310273   2.846   1.286   4.185
 2554SOL    MW410274   2.928   1.314   4.192
 2555SOL     OW10275   2.932   1.596   4.138
 2555SOL    HW210276   3.012   1.642   4.162
 2555SOL    HW310277   2.949   1.505   4.161
 2555SOL    MW410278   2.945   1.590   4.144
 2556SOL     OW10279   2.690   1.695   4.227
 2556SOL    HW210280   2.758   1.633   4.200
 2556SOL    HW310281   2.608   1.646   4.219
 2556SOL    MW410282   2.688   1.680   4.223
 2557SOL     OW10283   2.693   1.968   4.131
 2557SOL    HW210284   2.684   1.884   4.176
 2557SOL    HW310285   2.691   1.946   4.038
 2557SOL    MW410286   2.691   1.954   4.125
 2558SOL     OW10287   2.928   2.076   4.249
 2558SOL    HW210288   2.944   2.158   4.202
 2558SOL    HW310289   2.852   2.038   4.204
 2558SOL    MW410290   2.920   2.082   4.237
 2559SOL     OW10291   2.945   2.318   4.134
 2559SOL    HW210292   2.996   2.383   4.182
 2559SOL    HW310293   2.854   2.342   4.150
 2559SOL    MW410294   2.939   2.330   4.143
 2560SOL     OW10295   2.697   2.445   4.201
 2560SOL    HW210296   2.724   2.455   4.293
 2560SOL    HW310297   2.609   2.408   4.206
 2560SOL    MW410298   2.689   2.441   4.214
 2561SOL     OW10299   2.693   2.703   4.088
 2561SOL    HW210300   2.699   2.619   4.134
 2561SOL    HW310301   2.623   2.750   4.134
 2561SOL    MW410302   2.685   2.698   4.100
 2562SOL     OW10303   2.876   2.847   4.231
 2562SOL    HW210304   2.863   2.825   4.323
 2562SOL    HW310305   2.809   2.796   4.184
 2562SOL    MW410306   2.865   2.837   4.237
 2563SOL     OW10307   2.936   3.107   4.148
 2563SOL    HW210308   2.904   3.018   4.165
 2563SOL    HW310309   2.944   3.112   4.053
 2563SOL    MW410310   2.933   3.096   4.137
 2564SOL     OW10311   2.726   3.211   4.296
 2564SOL    HW210312   2.807   3.179   4.255
 2564SOL    HW310313   2.657   3.186   4.235
 2564SOL    MW410314   2.728   3.203   4.282
 2565SOL     OW10315   2.766   3.470   4.147
 2565SOL    HW210316   2.767   3.394   4.205
 2565SOL    HW310317   2.684   3.516   4.168
 2565SOL    MW410318   2.755   3.466   4.157
 2566SOL     OW10319   2.939   3.666   4.235
 2566SOL    HW210320   2.921   3.675   4.329
 2566SOL    HW310321   2.880   3.596   4.206
 2566SOL    MW410322   2.929   3.658   4.244
 2567SOL     OW10323   2.949   3.917   4.114
 2567SOL    HW210324   3.029   3.946   4.157
 2567SOL    HW310325   2.938   3.827   4.143
 2567SOL    MW410326   2.958   3.909   4.124
 2568SOL     OW10327   2.728   4.027   4.233
 2568SOL    HW210328   2.735   4.123   4.238
 2568SOL    HW310329   2.814   3.998   4.203
 2568SOL    MW410330   2.740   4.036   4.230
 2569SOL     OW10331   2.696   4.298   4.196
 2569SOL    HW210332   2.787   4.324   4.208
 2569SOL    HW310333   2.689   4.277   4.103
 2569SOL    MW410334   2.707   4.299   4.185
 2570SOL     OW10335   2.957   4.431   4.249
 2570SOL    HW210336   2.950   4.436   4.344
 2570SOL    HW310337   3.030   4.372   4.233
 2570SOL    MW410338   2.966   4.424   4.259
 2571SOL     OW10339   3.387   0.032   4.212
 2571SOL    HW210340   3.471   0.061   4.246
 2571SOL    HW310341   3.393  -0.064   4.213
 2571SOL    MW410342   3.399   0.023   4.216
 2572SOL     OW10343   3.142   0.167   4.235
 2572SOL    HW210344   3.131   0.179   4.330
 2572SOL    HW310345   3.228   0.125   4.227
 2572SOL    MW410346   3.152   0.163   4.247
 2573SOL     OW10347   3.193   0.416   4.122
 2573SOL    HW210348   3.178   0.333   4.167
 2573SOL    HW310349   3.114   0.468   4.140
 2573SOL    MW410350   3.180   0.412   4.130
 2574SOL     OW10351   3.419   0.587   4.192
 2574SOL    HW210352   3.495   0.530   4.180
 2574SOL    HW310353   3.345   0.533   4.165
 2574SOL    MW410354   3.420   0.572   4.187
 2575SOL     OW10355   3.400   0.842   4.066
 2575SOL    HW210356   3.323   0.877   4.112
 2575SOL    HW310357   3.416   0.757   4.107
 2575SOL    MW410358   3.392   0.836   4.078
 2576SOL     OW10359   3.185   0.916   4.213
 2576SOL    HW210360   3.179   0.916   4.309
 2576SOL    HW310361   3.149   1.000   4.186
 2576SOL    MW410362   3.179   0.927   4.222
 2577SOL     OW10363   3.139   1.156   4.098
 2577SOL    HW210364   3.216   1.196   4.137
 2577SOL    HW310365   3.154   1.163   4.004
 2577SOL    MW410366   3.151   1.162   4.091
 2578SOL     OW10367   3.388   1.271   4.239
 2578SOL    HW210368   3.399   1.280   4.334
 2578SOL    HW310369   3.382   1.361   4.207
 2578SOL    MW410370   3.389   1.284   4.248
 2579SOL     OW10371   3.402   1.544   4.141
 2579SOL    HW210372   3.325   1.602   4.146
 2579SOL    HW310373   3.421   1.539   4.047
 2579SOL    MW410374   3.394   1.551   4.129
 2580SOL     OW10375   3.178   1.695   4.203
 2580SOL    HW210376   3.192   1.709   4.297
 2580SOL    HW310377   3.144   1.779   4.171
 2580SOL    MW410378   3.175   1.708   4.212
 2581SOL     OW10379   3.125   1.946   4.094
 2581SOL    HW210380   3.204   1.989   4.129
 2581SOL    HW310381   3.054   1.979   4.148
 2581SOL    MW410382   3.126   1.956   4.106
 2582SOL     OW10383   3.328   2.036   4.259
 2582SOL    HW210384   3.400   1.995   4.211
 2582SOL    HW310385   3.325   2.126   4.227
 2582SOL    MW410386   3.337   2.042   4.248
 2583SOL     OW10387   3.362   2.313   4.177
 2583SOL    HW210388   3.446   2.352   4.198
 2583SOL    HW310389   3.360   2.310   4.082
 2583SOL    MW410390   3.373   2.318   4.167
 2584SOL     OW10391   3.158   2.487   4.254
 2584SOL    HW210392   3.143   2.575   4.219
 2584SOL    HW310393   3.234   2.454   4.206
 2584SOL    MW410394   3.166   2.495   4.243
 2585SOL     OW10395   3.110   2.731   4.125
 2585SOL    HW210396   3.182   2.770   4.174
 2585SOL    HW310397   3.033   2.781   4.154
 2585SOL    MW410398   3.109   2.743   4.136
 2586SOL     OW10399   3.349   2.840   4.211
 2586SOL    HW210400   3.429   2.800   4.178
 2586SOL    HW310401   3.359   2.934   4.192
 2586SOL    MW410402   3.361   2.847   4.204
 2587SOL     OW10403   3.382   3.106   4.145
 2587SOL    HW210404   3.311   3.157   4.186
 2587SOL    HW310405   3.364   3.112   4.051
 2587SOL    MW410406   3.370   3.114   4.138
 2588SOL     OW10407   3.159   3.229   4.270
 2588SOL    HW210408   3.141   3.321   4.251
 2588SOL    HW310409   3.089   3.181   4.225
 2588SOL    MW410410   3.147   3.235   4.262
 2589SOL     OW10411   3.152   3.511   4.184
 2589SOL    HW210412   3.080   3.567   4.214
 2589SOL    HW310413   3.156   3.526   4.090
 2589SOL    MW410414   3.143   3.521   4.176
 2590SOL     OW10415   3.376   3.677   4.262
 2590SOL    HW210416   3.381   3.691   4.357
 2590SOL    HW310417   3.295   3.626   4.250
 2590SOL    MW410418   3.366   3.672   4.273
 2591SOL     OW10419   3.403   3.923   4.137
 2591SOL    HW210420   3.389   3.833   4.166
 2591SOL    HW310421   3.419   3.916   4.043
 2591SOL    MW410422   3.403   3.910   4.128
 2592SOL     OW10423   3.160   4.021   4.249
 2592SOL    HW210424   3.142   3.982   4.335
 2592SOL    HW310425   3.242   3.982   4.221
 2592SOL    MW410426   3.168   4.011   4.257
 2593SOL     OW10427   3.141   4.273   4.142
 2593SOL    HW210428   3.217   4.329   4.155
 2593SOL    HW310429   3.167   4.188   4.178
 2593SOL    MW410430   3.154   4.269   4.148
 2594SOL     OW10431   3.378   4.415   4.215
 2594SOL    HW210432   3.391   4.392   4.308
 2594SOL    HW310433   3.446   4.365   4.169
 2594SOL    MW410434   3.389   4.405   4.221
 2595SOL     OW10435   3.850   0.004   4.156
 2595SOL    HW210436   3.929   0.053   4.177
 2595SOL    HW310437   3.834   0.023   4.063
 2595SOL    MW410438   3.858   0.013   4.146
 2596SOL     OW10439   3.641   0.136   4.258
 2596SOL    HW210440   3.649   0.227   4.227
 2596SOL    HW310441   3.712   0.089   4.213
 2596SOL    MW410442   3.651   0.142   4.248
 2597SOL     OW10443   3.625   0.415   4.155
 2597SOL    HW210444   3.704   0.455   4.191
 2597SOL    HW310445   3.629   0.434   4.061
 2597SOL    MW410446   3.636   0.423   4.147
 2598SOL     OW10447   3.855   0.488   4.270
 2598SOL    HW210448   3.851   0.494   4.365
 2598SOL    HW310449   3.835   0.576   4.239
 2598SOL    MW410450   3.852   0.500   4.279
 2599SOL     OW10451   3.796   0.725   4.142
 2599SOL    HW210452   3.730   0.791   4.165
 2599SOL    HW310453   3.799   0.726   4.046
 2599SOL    MW410454   3.788   0.734   4.132
 2600SOL     OW10455   3.624   0.940   4.216
 2600SOL    HW210456   3.625   1.031   4.188
 2600SOL    HW310457   3.547   0.902   4.174
 2600SOL    MW410458   3.614   0.947   4.207
 2601SOL     OW10459   3.648   1.210   4.163
 2601SOL    HW210460   3.559   1.232   4.191
 2601SOL    HW310461   3.644   1.212   4.068
 2601SOL    MW410462   3.636   1.213   4.154
 2602SOL     OW10463   3.876   1.346   4.239
 2602SOL    HW210464   3.789   1.315   4.214
 2602SOL    HW310465   3.888   1.426   4.189
 2602SOL    MW410466   3.866   1.352   4.229
 2603SOL     OW10467   3.892   1.587   4.106
 2603SOL    HW210468   3.961   1.640   4.146
 2603SOL    HW310469   3.812   1.614   4.151
 2603SOL    MW410470   3.890   1.597   4.118
 2604SOL     OW10471   3.631   1.665   4.228
 2604SOL    HW210472   3.552   1.620   4.198
 2604SOL    HW310473   3.637   1.644   4.321
 2604SOL    MW410474   3.622   1.656   4.236
 2605SOL     OW10475   3.564   1.932   4.163
 2605SOL    HW210476   3.572   1.840   4.189
 2605SOL    HW310477   3.591   1.934   4.072
 2605SOL    MW410478   3.569   1.920   4.155
 2606SOL     OW10479   3.684   2.106   4.323
 2606SOL    HW210480   3.757   2.059   4.363
 2606SOL    HW310481   3.647   2.044   4.260
 2606SOL    MW410482   3.689   2.092   4.320
 2607SOL     OW10483   3.802   2.325   4.176
 2607SOL    HW210484   3.779   2.239   4.212
 2607SOL    HW310485   3.805   2.311   4.081
 2607SOL    MW410486   3.799   2.312   4.168
 2608SOL     OW10487   3.569   2.474   4.216
 2608SOL    HW210488   3.571   2.508   4.305
 2608SOL    HW310489   3.659   2.443   4.200
 2608SOL    MW410490   3.581   2.474   4.225
 2609SOL     OW10491   3.582   2.731   4.122
 2609SOL    HW210492   3.568   2.637   4.128
 2609SOL    HW310493   3.587   2.750   4.029
 2609SOL    MW410494   3.581   2.721   4.111
 2610SOL     OW10495   3.814   2.845   4.236
 2610SOL    HW210496   3.799   2.891   4.318
 2610SOL    HW310497   3.726   2.823   4.204
 2610SOL    MW410498   3.801   2.848   4.243
 2611SOL     OW10499   3.811   3.112   4.154
 2611SOL    HW210500   3.831   3.021   4.178
 2611SOL    HW310501   3.812   3.112   4.059
 2611SOL    MW410502   3.814   3.100   4.145
 2612SOL     OW10503   3.586   3.257   4.260
 2612SOL    HW210504   3.660   3.206   4.227
 2612SOL    HW310505   3.509   3.214   4.223
 2612SOL    MW410506   3.586   3.245   4.251
 2613SOL     OW10507   3.596   3.525   4.156
 2613SOL    HW210508   3.593   3.438   4.195
 2613SOL    HW310509   3.535   3.578   4.208
 2613SOL    MW410510   3.588   3.521   4.168
 2614SOL     OW10511   3.824   3.645   4.257
 2614SOL    HW210512   3.896   3.588   4.232
 2614SOL    HW310513   3.750   3.614   4.206
 2614SOL    MW410514   3.824   3.633   4.247
 2615SOL     OW10515   3.866   3.901   4.157
 2615SOL    HW210516   3.786   3.947   4.181
 2615SOL    HW310517   3.849   3.809   4.179
 2615SOL    MW410518   3.853   3.895   4.163
 2616SOL     OW10519   3.648   4.030   4.243
 2616SOL    HW210520   3.618   4.040   4.333
 2616SOL    HW310521   3.568   4.007   4.194
 2616SOL    MW410522   3.633   4.028   4.248
 2617SOL     OW10523   3.608   4.285   4.142
 2617SOL    HW210524   3.672   4.341   4.187
 2617SOL    HW310525   3.631   4.196   4.169
 2617SOL    MW410526   3.619   4.281   4.151
 2618SOL     OW10527   3.848   4.417   4.252
 2618SOL    HW210528   3.923   4.361   4.228
 2618SOL    HW310529   3.868   4.502   4.213
 2618SOL    MW410530   3.861   4.420   4.244
 2619SOL     OW10531   4.317   0.015   4.172
 2619SOL    HW210532   4.330  -0.078   4.193
 2619SOL    HW310533   4.390   0.059   4.216
 2619SOL    MW410534   4.329   0.009   4.181
 2620SOL     OW10535   4.090   0.109   4.285
 2620SOL    HW210536   4.097   0.199   4.256
 2620SOL    HW310537   4.161   0.063   4.240
 2620SOL    MW410538   4.100   0.115   4.276
 2621SOL     OW10539   4.085   0.375   4.176
 2621SOL    HW210540   4.150   0.431   4.219
 2621SOL    HW310541   4.001   0.412   4.202
 2621SOL    MW410542   4.083   0.388   4.185
 2622SOL     OW10543   4.286   0.535   4.298
 2622SOL    HW210544   4.297   0.619   4.254
 2622SOL    HW310545   4.362   0.483   4.271
 2622SOL    MW410546   4.298   0.539   4.289
 2623SOL     OW10547   4.290   0.788   4.168
 2623SOL    HW210548   4.200   0.801   4.198
 2623SOL    HW310549   4.281   0.761   4.077
 2623SOL    MW410550   4.277   0.786   4.160
 2624SOL     OW10551   4.022   0.860   4.226
 2624SOL    HW210552   4.004   0.950   4.198
 2624SOL    HW310553   3.950   0.809   4.189
 2624SOL    MW410554   4.010   0.865   4.217
 2625SOL     OW10555   4.014   1.126   4.155
 2625SOL    HW210556   4.094   1.174   4.176
 2625SOL    HW310557   3.943   1.182   4.187
 2625SOL    MW410558   4.015   1.140   4.162
 2626SOL     OW10559   4.283   1.261   4.192
 2626SOL    HW210560   4.269   1.249   4.286
 2626SOL    HW310561   4.366   1.216   4.175
 2626SOL    MW410562   4.292   1.254   4.202
 2627SOL     OW10563   4.285   1.536   4.131
 2627SOL    HW210564   4.282   1.445   4.158
 2627SOL    HW310565   4.266   1.534   4.038
 2627SOL    MW410566   4.282   1.524   4.123
 2628SOL     OW10567   4.112   1.726   4.227
 2628SOL    HW210568   4.126   1.718   4.321
 2628SOL    HW310569   4.176   1.667   4.187
 2628SOL    MW410570   4.122   1.717   4.234
 2629SOL     OW10571   4.024   1.974   4.141
 2629SOL    HW210572   4.052   1.883   4.152
 2629SOL    HW310573   3.973   1.993   4.220
 2629SOL    MW410574   4.021   1.965   4.153
 2630SOL     OW10575   4.465   1.954   4.106
 2630SOL    HW210576   4.551   1.987   4.134
 2630SOL    HW310577   4.402   2.011   4.149
 2630SOL    MW410578   4.468   1.966   4.115
 2631SOL     OW10579   4.238   2.353   4.130
 2631SOL    HW210580   4.160   2.391   4.170
 2631SOL    HW310581   4.241   2.263   4.162
 2631SOL    MW410582   4.228   2.346   4.139
 2632SOL     OW10583   4.023   2.449   4.285
 2632SOL    HW210584   4.038   2.399   4.365
 2632SOL    HW310585   3.944   2.409   4.247
 2632SOL    MW410586   4.014   2.437   4.290
 2633SOL     OW10587   4.061   2.723   4.177
 2633SOL    HW210588   4.050   2.638   4.220
 2633SOL    HW310589   3.979   2.770   4.195
 2633SOL    MW410590   4.049   2.718   4.185
 2634SOL     OW10591   4.277   2.856   4.251
 2634SOL    HW210592   4.197   2.816   4.218
 2634SOL    HW310593   4.347   2.802   4.215
 2634SOL    MW410594   4.276   2.844   4.242
 2635SOL     OW10595   4.246   3.125   4.164
 2635SOL    HW210596   4.262   3.036   4.195
 2635SOL    HW310597   4.254   3.119   4.068
 2635SOL    MW410598   4.249   3.112   4.155
 2636SOL     OW10599   4.016   3.233   4.271
 2636SOL    HW210600   4.092   3.196   4.226
 2636SOL    HW310601   3.940   3.191   4.230
 2636SOL    MW410602   4.016   3.222   4.260
 2637SOL     OW10603   4.063   3.520   4.169
 2637SOL    HW210604   4.043   3.435   4.209
 2637SOL    HW310605   4.057   3.504   4.075
 2637SOL    MW410606   4.060   3.506   4.162
 2638SOL     OW10607   4.300   3.614   4.284
 2638SOL    HW210608   4.290   3.707   4.264
 2638SOL    HW310609   4.224   3.572   4.244
 2638SOL    MW410610   4.289   3.620   4.276
 2639SOL     OW10611   4.312   3.887   4.197
 2639SOL    HW210612   4.242   3.943   4.230
 2639SOL    HW310613   4.299   3.884   4.103
 2639SOL    MW410614   4.301   3.894   4.189
 2640SOL     OW10615   4.097   4.041   4.259
 2640SOL    HW210616   4.089   4.042   4.354
 2640SOL    HW310617   4.027   3.983   4.229
 2640SOL    MW410618   4.087   4.033   4.268
 2641SOL     OW10619   4.077   4.296   4.132
 2641SOL    HW210620   4.156   4.334   4.171
 2641SOL    HW310621   4.078   4.204   4.161
 2641SOL    MW410622   4.088   4.289   4.141
 2642SOL     OW10623   4.232   4.627   4.655
 2642SOL    HW210624   4.283   4.702   4.625
 2642SOL    HW310625   4.141   4.654   4.643
 2642SOL    MW410626   4.226   4.640   4.649
 2643SOL     OW10627   0.077   0.207   4.531
 2643SOL    HW210628   0.095   0.295   4.564
 2643SOL    HW310629  -0.018   0.201   4.529
 2643SOL    MW410630   0.067   0.217   4.535
 2644SOL     OW10631   4.302   4.401   4.520
 2644SOL    HW210632   4.242   4.337   4.559
 2644SOL    HW310633   4.278   4.484   4.561
 2644SOL    MW410634   4.291   4.403   4.531
 2645SOL     OW10635   3.981   0.105   4.564
 2645SOL    HW210636   3.980   0.087   4.470
 2645SOL    HW310637   3.889   0.101   4.589
 2645SOL    MW410638   3.969   0.102   4.555
 2646SOL     OW10639   4.186   1.195   4.784
 2646SOL    HW210640   4.272   1.167   4.814
 2646SOL    HW310641   4.185   1.290   4.799
 2646SOL    MW410642   4.197   1.204   4.790
 2647SOL     OW10643   0.324   0.010   4.517
 2647SOL    HW210644   0.239   0.043   4.546
 2647SOL    HW310645   0.312  -0.084   4.511
 2647SOL    MW410646   0.311   0.002   4.520
 2648SOL     OW10647   0.644   0.821   4.616
 2648SOL    HW210648   0.652   0.727   4.597
 2648SOL    HW310649   0.551   0.840   4.601
 2648SOL    MW410650   0.633   0.811   4.612
 2649SOL     OW10651   4.361   0.853   4.586
 2649SOL    HW210652   4.345   0.758   4.589
 2649SOL    HW310653   4.412   0.866   4.507
 2649SOL    MW410654   4.365   0.842   4.576
 2650SOL     OW10655   0.457   1.394   4.522
 2650SOL    HW210656   0.417   1.309   4.540
 2650SOL    HW310657   0.418   1.453   4.588
 2650SOL    MW410658   0.447   1.391   4.533
 2651SOL     OW10659   0.656   2.032   4.565
 2651SOL    HW210660   0.724   1.969   4.590
 2651SOL    HW310661   0.574   1.987   4.582
 2651SOL    MW410662   0.654   2.018   4.571
 2652SOL     OW10663   4.259   1.242   4.466
 2652SOL    HW210664   4.230   1.152   4.482
 2652SOL    HW310665   4.352   1.242   4.490
 2652SOL    MW410666   4.267   1.230   4.471
 2653SOL     OW10667   0.187   1.943   4.497
 2653SOL    HW210668   0.118   1.880   4.517
 2653SOL    HW310669   0.154   2.026   4.531
 2653SOL    MW410670   0.174   1.946   4.504
 2654SOL     OW10671   0.539   1.626   4.384
 2654SOL    HW210672   0.501   1.544   4.417
 2654SOL    HW310673   0.595   1.599   4.312
 2654SOL    MW410674   0.541   1.612   4.379
 2655SOL     OW10675   0.069   2.187   4.612
 2655SOL    HW210676   0.103   2.174   4.701
 2655SOL    HW310677   0.098   2.275   4.588
 2655SOL    MW410678   0.077   2.197   4.621
 2656SOL     OW10679   4.132   2.318   4.765
 2656SOL    HW210680   4.154   2.410   4.779
 2656SOL    HW310681   4.199   2.286   4.705
 2656SOL    MW410682   4.143   2.326   4.759
 2657SOL     OW10683   0.484   2.702   4.528
 2657SOL    HW210684   0.447   2.731   4.445
 2657SOL    HW310685   0.492   2.607   4.518
 2657SOL    MW410686   0.480   2.693   4.516
 2658SOL     OW10687   0.390   2.925   4.667
 2658SOL    HW210688   0.435   2.850   4.629
 2658SOL    HW310689   0.299   2.914   4.640
 2658SOL    MW410690   0.384   2.914   4.658
 2659SOL     OW10691   4.279   2.459   4.472
 2659SOL    HW210692   4.348   2.514   4.510
 2659SOL    HW310693   4.198   2.491   4.512
 2659SOL    MW410694   4.277   2.470   4.482
 2660SOL     OW10695   4.339   3.351   4.658
 2660SOL    HW210696   4.401   3.286   4.626
 2660SOL    HW310697   4.254   3.322   4.623
 2660SOL    MW410698   4.336   3.338   4.649
 2661SOL     OW10699   0.069   3.179   4.522
 2661SOL    HW210700   0.040   3.154   4.434
 2661SOL    HW310701   0.130   3.252   4.508
 2661SOL    MW410702   0.073   3.185   4.509
 2662SOL     OW10703   4.335   3.850   4.608
 2662SOL    HW210704   4.251   3.877   4.571
 2662SOL    HW310705   4.339   3.755   4.593
 2662SOL    MW410706   4.324   3.841   4.601
 2663SOL     OW10707   4.302   0.194   4.522
 2663SOL    HW210708   4.255   0.244   4.589
 2663SOL    HW310709   4.237   0.177   4.454
 2663SOL    MW410710   4.287   0.199   4.521
 2664SOL     OW10711   3.850   0.506   4.557
 2664SOL    HW210712   3.759   0.475   4.564
 2664SOL    HW310713   3.844   0.601   4.573
 2664SOL    MW410714   3.837   0.515   4.560
 2665SOL     OW10715   4.021   3.553   4.779
 2665SOL    HW210716   4.109   3.590   4.791
 2665SOL    HW310717   3.997   3.520   4.865
 2665SOL    MW410718   4.029   3.554   4.792
 2666SOL     OW10719   3.863   4.252   4.628
 2666SOL    HW210720   3.801   4.322   4.608
 2666SOL    HW310721   3.809   4.181   4.664
 2666SOL    MW410722   3.848   4.252   4.630
 2667SOL     OW10723   0.543   0.021   4.671
 2667SOL    HW210724   0.466   0.016   4.615
 2667SOL    HW310725   0.537  -0.054   4.729
 2667SOL    MW410726   0.532   0.011   4.671
 2668SOL     OW10727   4.463   1.066   4.786
 2668SOL    HW210728   4.414   0.996   4.743
 2668SOL    HW310729   4.538   1.022   4.826
 2668SOL    MW410730   4.466   1.051   4.786
 2669SOL     OW10731   1.427   1.099   4.785
 2669SOL    HW210732   1.424   1.072   4.877
 2669SOL    HW310733   1.360   1.046   4.742
 2669SOL    MW410734   1.418   1.088   4.791
 2670SOL     OW10735   0.715   0.282   4.697
 2670SOL    HW210736   0.788   0.238   4.654
 2670SOL    HW310737   0.643   0.219   4.694
 2670SOL    MW410738   0.715   0.268   4.691
 2671SOL     OW10739   1.217   0.969   4.658
 2671SOL    HW210740   1.275   0.916   4.604
 2671SOL    HW310741   1.130   0.931   4.645
 2671SOL    MW410742   1.213   0.957   4.649
 2672SOL     OW10743   0.374   0.918   4.544
 2672SOL    HW210744   0.336   0.832   4.563
 2672SOL    HW310745   0.411   0.909   4.456
 2672SOL    MW410746   0.374   0.905   4.535
 2673SOL     OW10747   2.107   1.172   4.523
 2673SOL    HW210748   2.091   1.206   4.435
 2673SOL    HW310749   2.175   1.230   4.558
 2673SOL    MW410750   2.114   1.184   4.516
 2674SOL     OW10751   0.783   1.641   4.515
 2674SOL    HW210752   0.797   1.718   4.570
 2674SOL    HW310753   0.690   1.643   4.493
 2674SOL    MW410754   0.773   1.652   4.519
 2675SOL     OW10755   1.282   1.328   4.637
 2675SOL    HW210756   1.322   1.257   4.687
 2675SOL    HW310757   1.188   1.310   4.641
 2675SOL    MW410758   1.275   1.316   4.644
 2676SOL     OW10759   0.894   1.862   4.662
 2676SOL    HW210760   0.955   1.909   4.605
 2676SOL    HW310761   0.951   1.816   4.724
 2676SOL    MW410762   0.910   1.862   4.662
 2677SOL     OW10763   0.694   2.323   4.513
 2677SOL    HW210764   0.778   2.363   4.535
 2677SOL    HW310765   0.703   2.232   4.541
 2677SOL    MW410766   0.707   2.316   4.519
 2678SOL     OW10767   1.095   1.693   4.823
 2678SOL    HW210768   1.095   1.661   4.913
 2678SOL    HW310769   1.181   1.667   4.788
 2678SOL    MW410770   1.106   1.685   4.830
 2679SOL     OW10771   0.149   2.417   4.490
 2679SOL    HW210772   0.116   2.428   4.401
 2679SOL    HW310773   0.244   2.419   4.481
 2679SOL    MW410774   0.157   2.419   4.477
 2680SOL     OW10775   1.080   2.686   4.561
 2680SOL    HW210776   1.087   2.777   4.532
 2680SOL    HW310777   1.149   2.676   4.627
 2680SOL    MW410778   1.090   2.696   4.566
 2681SOL     OW10779   0.430   2.420   4.452
 2681SOL    HW210780   0.514   2.383   4.480
 2681SOL    HW310781   0.441   2.433   4.358
 2681SOL    MW410782   0.443   2.417   4.443
 2682SOL     OW10783   1.376   2.938   4.603
 2682SOL    HW210784   1.295   2.943   4.552
 2682SOL    HW310785   1.364   2.863   4.660
 2682SOL    MW410786   1.363   2.929   4.604
 2683SOL     OW10787   0.626   3.133   4.615
 2683SOL    HW210788   0.584   3.213   4.582
 2683SOL    HW310789   0.553   3.078   4.644
 2683SOL    MW410790   0.611   3.137   4.614
 2684SOL     OW10791   1.303   4.484   4.634
 2684SOL    HW210792   1.231   4.434   4.596
 2684SOL    HW310793   1.382   4.435   4.609
 2684SOL    MW410794   1.304   4.471   4.626
 2685SOL     OW10795   4.474   2.643   4.580
 2685SOL    HW210796   4.547   2.584   4.563
 2685SOL    HW310797   4.511   2.731   4.575
 2685SOL    MW410798   4.488   2.647   4.577
 2686SOL     OW10799   4.440   3.589   4.537
 2686SOL    HW210800   4.400   3.517   4.585
 2686SOL    HW310801   4.409   3.579   4.447
 2686SOL    MW410802   4.431   3.578   4.531
 2687SOL     OW10803   0.775   4.352   4.532
 2687SOL    HW210804   0.774   4.436   4.579
 2687SOL    HW310805   0.715   4.365   4.459
 2687SOL    MW410806   0.767   4.365   4.529
 2688SOL     OW10807   0.060   4.300   4.520
 2688SOL    HW210808   0.048   4.205   4.528
 2688SOL    HW310809  -0.029   4.335   4.526
 2688SOL    MW410810   0.046   4.292   4.522
 2689SOL     OW10811   0.067   4.013   4.534
 2689SOL    HW210812   0.135   3.946   4.543
 2689SOL    HW310813  -0.013   3.971   4.566
 2689SOL    MW410814   0.066   3.999   4.540
 2690SOL     OW10815   0.313   4.412   4.541
 2690SOL    HW210816   0.375   4.339   4.546
 2690SOL    HW310817   0.227   4.371   4.548
 2690SOL    MW410818   0.310   4.397   4.542
 2691SOL     OW10819   1.209   0.253   4.616
 2691SOL    HW210820   1.207   0.273   4.710
 2691SOL    HW310821   1.124   0.213   4.598
 2691SOL    MW410822   1.197   0.250   4.626
 2692SOL     OW10823   0.961   0.159   4.573
 2692SOL    HW210824   0.968   0.164   4.478
 2692SOL    HW310825   0.909   0.080   4.589
 2692SOL    MW410826   0.955   0.149   4.563
 2693SOL     OW10827   0.681   0.537   4.579
 2693SOL    HW210828   0.680   0.503   4.489
 2693SOL    HW310829   0.695   0.459   4.633
 2693SOL    MW410830   0.683   0.522   4.574
 2694SOL     OW10831   1.646   1.122   4.611
 2694SOL    HW210832   1.587   1.101   4.684
 2694SOL    HW310833   1.725   1.156   4.653
 2694SOL    MW410834   1.649   1.124   4.626
 2695SOL     OW10835   1.766   0.860   4.568
 2695SOL    HW210836   1.716   0.941   4.575
 2695SOL    HW310837   1.802   0.861   4.479
 2695SOL    MW410838   1.764   0.871   4.558
 2696SOL     OW10839   0.293   1.173   4.544
 2696SOL    HW210840   0.313   1.079   4.537
 2696SOL    HW310841   0.200   1.179   4.525
 2696SOL    MW410842   0.284   1.161   4.541
 2697SOL     OW10843   0.754   1.361   4.546
 2697SOL    HW210844   0.771   1.455   4.532
 2697SOL    HW310845   0.662   1.357   4.570
 2697SOL    MW410846   0.744   1.373   4.547
 2698SOL     OW10847   0.919   0.894   4.583
 2698SOL    HW210848   0.824   0.895   4.593
 2698SOL    HW310849   0.934   0.903   4.489
 2698SOL    MW410850   0.909   0.895   4.572
 2699SOL     OW10851   1.904   1.207   4.717
 2699SOL    HW210852   1.935   1.141   4.780
 2699SOL    HW310853   1.957   1.193   4.639
 2699SOL    MW410854   1.915   1.196   4.715
 2700SOL     OW10855   1.015   1.241   4.554
 2700SOL    HW210856   1.010   1.163   4.609
 2700SOL    HW310857   0.924   1.270   4.546
 2700SOL    MW410858   1.002   1.235   4.560
 2701SOL     OW10859   1.206   2.292   4.539
 2701SOL    HW210860   1.139   2.353   4.507
 2701SOL    HW310861   1.289   2.337   4.522
 2701SOL    MW410862   1.208   2.306   4.532
 2702SOL     OW10863   1.307   2.670   4.703
 2702SOL    HW210864   1.321   2.596   4.645
 2702SOL    HW310865   1.350   2.645   4.785
 2702SOL    MW410866   1.314   2.657   4.707
 2703SOL     OW10867   1.637   2.874   4.510
 2703SOL    HW210868   1.561   2.911   4.554
 2703SOL    HW310869   1.690   2.950   4.484
 2703SOL    MW410870   1.634   2.888   4.512
 2704SOL     OW10871   1.495   3.483   4.484
 2704SOL    HW210872   1.579   3.506   4.521
 2704SOL    HW310873   1.483   3.391   4.507
 2704SOL    MW410874   1.504   3.474   4.492
 2705SOL     OW10875   0.756   2.784   4.507
 2705SOL    HW210876   0.818   2.720   4.541
 2705SOL    HW310877   0.676   2.770   4.557
 2705SOL    MW410878   0.753   2.774   4.518
 2706SOL     OW10879   0.583   3.941   4.516
 2706SOL    HW210880   0.673   3.975   4.506
 2706SOL    HW310881   0.543   3.955   4.430
 2706SOL    MW410882   0.590   3.948   4.503
 2707SOL     OW10883   1.133   2.951   4.478
 2707SOL    HW210884   1.126   2.922   4.387
 2707SOL    HW310885   1.049   2.991   4.498
 2707SOL    MW410886   1.121   2.952   4.469
 2708SOL     OW10887   0.859   3.049   4.493
 2708SOL    HW210888   0.785   3.105   4.517
 2708SOL    HW310889   0.821   2.961   4.486
 2708SOL    MW410890   0.844   3.044   4.495
 2709SOL     OW10891   1.746   3.584   4.568
 2709SOL    HW210892   1.758   3.678   4.582
 2709SOL    HW310893   1.833   3.551   4.544
 2709SOL    MW410894   1.759   3.592   4.567
 2710SOL     OW10895   0.497   3.353   4.506
 2710SOL    HW210896   0.539   3.432   4.539
 2710SOL    HW310897   0.404   3.372   4.509
 2710SOL    MW410898   0.491   3.366   4.511
 2711SOL     OW10899   0.509   4.213   4.583
 2711SOL    HW210900   0.597   4.249   4.590
 2711SOL    HW310901   0.521   4.119   4.585
 2711SOL    MW410902   0.522   4.206   4.584
 2712SOL     OW10903   0.841   4.082   4.529
 2712SOL    HW210904   0.834   4.178   4.531
 2712SOL    HW310905   0.866   4.062   4.439
 2712SOL    MW410906   0.844   4.092   4.517
 2713SOL     OW10907   0.773   4.622   4.537
 2713SOL    HW210908   0.694   4.654   4.580
 2713SOL    HW310909   0.758   4.636   4.444
 2713SOL    MW410910   0.761   4.628   4.530
 2714SOL     OW10911   1.590   4.163   4.878
 2714SOL    HW210912   1.575   4.103   4.951
 2714SOL    HW310913   1.514   4.221   4.879
 2714SOL    MW410914   1.578   4.163   4.887
 2715SOL     OW10915   1.554   4.390   4.549
 2715SOL    HW210916   1.638   4.431   4.566
 2715SOL    HW310917   1.542   4.398   4.454
 2715SOL    MW410918   1.563   4.396   4.539
 2716SOL     OW10919   1.067   4.354   4.539
 2716SOL    HW210920   1.094   4.269   4.574
 2716SOL    HW310921   0.972   4.354   4.549
 2716SOL    MW410922   1.058   4.342   4.545
 2717SOL     OW10923   1.200   0.509   4.483
 2717SOL    HW210924   1.120   0.545   4.520
 2717SOL    HW310925   1.207   0.421   4.522
 2717SOL    MW410926   1.191   0.502   4.493
 2718SOL     OW10927   1.680   0.111   4.536
 2718SOL    HW210928   1.588   0.083   4.541
 2718SOL    HW310929   1.727   0.046   4.589
 2718SOL    MW410930   1.674   0.099   4.544
 2719SOL     OW10931   1.343   0.764   4.520
 2719SOL    HW210932   1.288   0.686   4.517
 2719SOL    HW310933   1.340   0.800   4.432
 2719SOL    MW410934   1.336   0.758   4.508
 2720SOL     OW10935   1.851   1.515   4.769
 2720SOL    HW210936   1.870   1.422   4.759
 2720SOL    HW310937   1.859   1.532   4.863
 2720SOL    MW410938   1.855   1.505   4.780
 2721SOL     OW10939   0.956   0.623   4.572
 2721SOL    HW210940   0.946   0.718   4.580
 2721SOL    HW310941   0.868   0.588   4.586
 2721SOL    MW410942   0.943   0.631   4.575
 2722SOL     OW10943   2.066   0.504   4.532
 2722SOL    HW210944   2.125   0.431   4.551
 2722SOL    HW310945   1.979   0.468   4.546
 2722SOL    MW410946   2.063   0.489   4.536
 2723SOL     OW10947   1.520   1.369   4.522
 2723SOL    HW210948   1.428   1.369   4.550
 2723SOL    HW310949   1.553   1.283   4.547
 2723SOL    MW410950   1.512   1.358   4.529
 2724SOL     OW10951   1.315   1.834   4.519
 2724SOL    HW210952   1.311   1.759   4.578
 2724SOL    HW310953   1.333   1.796   4.433
 2724SOL    MW410954   1.317   1.819   4.516
 2725SOL     OW10955   1.683   2.455   4.501
 2725SOL    HW210956   1.737   2.521   4.543
 2725SOL    HW310957   1.731   2.373   4.512
 2725SOL    MW410958   1.696   2.453   4.508
 2726SOL     OW10959   1.978   2.363   4.619
 2726SOL    HW210960   1.918   2.289   4.609
 2726SOL    HW310961   1.927   2.430   4.665
 2726SOL    MW410962   1.964   2.362   4.624
 2727SOL     OW10963   0.972   2.445   4.496
 2727SOL    HW210964   0.998   2.533   4.523
 2727SOL    HW310965   0.936   2.457   4.407
 2727SOL    MW410966   0.970   2.458   4.487
 2728SOL     OW10967   1.349   3.997   4.470
 2728SOL    HW210968   1.356   3.901   4.464
 2728SOL    HW310969   1.430   4.024   4.513
 2728SOL    MW410970   1.361   3.988   4.475
 2729SOL     OW10971   1.403   2.475   4.517
 2729SOL    HW210972   1.363   2.471   4.430
 2729SOL    HW310973   1.494   2.451   4.503
 2729SOL    MW410974   1.410   2.471   4.504
 2730SOL     OW10975   1.834   2.686   4.558
 2730SOL    HW210976   1.766   2.752   4.546
 2730SOL    HW310977   1.916   2.735   4.552
 2730SOL    MW410978   1.836   2.701   4.556
 2731SOL     OW10979   1.454   3.190   4.496
 2731SOL    HW210980   1.537   3.143   4.489
 2731SOL    HW310981   1.391   3.125   4.527
 2731SOL    MW410982   1.456   3.175   4.499
 2732SOL     OW10983   1.357   3.729   4.469
 2732SOL    HW210984   1.412   3.660   4.505
 2732SOL    HW310985   1.295   3.683   4.412
 2732SOL    MW410986   1.356   3.714   4.466
 2733SOL     OW10987   0.622   3.623   4.535
 2733SOL    HW210988   0.571   3.704   4.535
 2733SOL    HW310989   0.687   3.635   4.605
 2733SOL    MW410990   0.624   3.635   4.545
 2734SOL     OW10991   2.063   3.527   4.464
 2734SOL    HW210992   2.076   3.557   4.374
 2734SOL    HW310993   2.079   3.433   4.460
 2734SOL    MW410994   2.067   3.518   4.451
 2735SOL     OW10995   1.751   3.118   4.472
 2735SOL    HW210996   1.828   3.136   4.526
 2735SOL    HW310997   1.765   3.171   4.393
 2735SOL    MW410998   1.763   3.127   4.468
 2736SOL     OW10999   2.247   3.616   4.682
 2736SOL    HW211000   2.218   3.707   4.689
 2736SOL    HW311001   2.199   3.581   4.608
 2736SOL    MW411002   2.237   3.623   4.673
 2737SOL     OW11003   1.149   4.111   4.627
 2737SOL    HW211004   1.076   4.054   4.602
 2737SOL    HW311005   1.227   4.067   4.592
 2737SOL    MW411006   1.150   4.097   4.620
 2738SOL     OW11007   1.799   4.367   4.853
 2738SOL    HW211008   1.883   4.322   4.861
 2738SOL    HW311009   1.737   4.297   4.831
 2738SOL    MW411010   1.802   4.352   4.851
 2739SOL     OW11011   2.267   0.370   4.658
 2739SOL    HW211012   2.322   0.444   4.634
 2739SOL    HW311013   2.266   0.371   4.754
 2739SOL    MW411014   2.274   0.380   4.667
 2740SOL     OW11015   1.399   0.065   4.538
 2740SOL    HW211016   1.360   0.141   4.581
 2740SOL    HW311017   1.359  -0.011   4.582
 2740SOL    MW411018   1.388   0.065   4.549
 2741SOL     OW11019   1.803   0.406   4.559
 2741SOL    HW211020   1.763   0.320   4.556
 2741SOL    HW311021   1.729   0.467   4.560
 2741SOL    MW411022   1.788   0.403   4.559
 2742SOL     OW11023   2.337   0.127   4.527
 2742SOL    HW211024   2.307   0.140   4.437
 2742SOL    HW311025   2.289   0.192   4.578
 2742SOL    MW411026   2.326   0.137   4.522
 2743SOL     OW11027   2.031   0.779   4.662
 2743SOL    HW211028   2.046   0.685   4.654
 2743SOL    HW311029   1.942   0.792   4.629
 2743SOL    MW411030   2.021   0.769   4.657
 2744SOL     OW11031   1.596   0.613   4.548
 2744SOL    HW211032   1.646   0.688   4.579
 2744SOL    HW311033   1.506   0.645   4.540
 2744SOL    MW411034   1.591   0.627   4.551
 2745SOL     OW11035   2.129   1.530   4.664
 2745SOL    HW211036   2.182   1.468   4.714
 2745SOL    HW311037   2.042   1.526   4.705
 2745SOL    MW411038   2.124   1.521   4.676
 2746SOL     OW11039   1.093   2.016   4.498
 2746SOL    HW211040   1.172   1.966   4.520
 2746SOL    HW311041   1.103   2.098   4.546
 2746SOL    MW411042   1.105   2.020   4.507
 2747SOL     OW11043   1.607   1.598   4.660
 2747SOL    HW211044   1.576   1.518   4.617
 2747SOL    HW311045   1.692   1.574   4.696
 2747SOL    MW411046   1.614   1.584   4.659
 2748SOL     OW11047   1.574   1.956   4.449
 2748SOL    HW211048   1.486   1.928   4.474
 2748SOL    HW311049   1.631   1.884   4.476
 2748SOL    MW411050   1.570   1.943   4.456
 2749SOL     OW11051   1.781   1.782   4.530
 2749SOL    HW211052   1.725   1.725   4.583
 2749SOL    HW311053   1.795   1.733   4.449
 2749SOL    MW411054   1.775   1.768   4.526
 2750SOL     OW11055   1.983   1.993   4.505
 2750SOL    HW211056   1.927   1.916   4.499
 2750SOL    HW311057   2.010   2.010   4.414
 2750SOL    MW411058   1.980   1.985   4.492
 2751SOL     OW11059   1.778   2.177   4.530
 2751SOL    HW211060   1.706   2.121   4.504
 2751SOL    HW311061   1.857   2.128   4.505
 2751SOL    MW411062   1.779   2.163   4.523
 2752SOL     OW11063   2.219   2.454   4.526
 2752SOL    HW211064   2.139   2.412   4.558
 2752SOL    HW311065   2.208   2.456   4.431
 2752SOL    MW411066   2.207   2.449   4.518
 2753SOL     OW11067   2.271   2.712   4.624
 2753SOL    HW211068   2.336   2.686   4.689
 2753SOL    HW311069   2.234   2.629   4.592
 2753SOL    MW411070   2.274   2.698   4.628
 2754SOL     OW11071   1.576   4.112   4.589
 2754SOL    HW211072   1.564   4.200   4.553
 2754SOL    HW311073   1.592   4.127   4.683
 2754SOL    MW411074   1.577   4.126   4.597
 2755SOL     OW11075   2.156   3.269   4.415
 2755SOL    HW211076   2.183   3.262   4.323
 2755SOL    HW311077   2.229   3.233   4.465
 2755SOL    MW411078   2.169   3.263   4.409
 2756SOL     OW11079   1.994   3.173   4.608
 2756SOL    HW211080   2.011   3.226   4.686
 2756SOL    HW311081   2.049   3.212   4.540
 2756SOL    MW411082   2.003   3.185   4.609
 2757SOL     OW11083   2.479   3.694   4.516
 2757SOL    HW211084   2.402   3.689   4.572
 2757SOL    HW311085   2.509   3.785   4.524
 2757SOL    MW411086   2.473   3.706   4.524
 2758SOL     OW11087   1.954   4.057   4.597
 2758SOL    HW211088   1.884   3.991   4.602
 2758SOL    HW311089   1.937   4.102   4.514
 2758SOL    MW411090   1.942   4.054   4.587
 2759SOL     OW11091   2.206   3.914   4.642
 2759SOL    HW211092   2.127   3.957   4.609
 2759SOL    HW311093   2.278   3.953   4.593
 2759SOL    MW411094   2.205   3.925   4.631
 2760SOL     OW11095   1.743   3.870   4.547
 2760SOL    HW211096   1.671   3.930   4.566
 2760SOL    HW311097   1.751   3.870   4.452
 2760SOL    MW411098   1.735   3.878   4.537
 2761SOL     OW11099   2.049   4.257   4.803
 2761SOL    HW211100   2.143   4.269   4.792
 2761SOL    HW311101   2.031   4.170   4.766
 2761SOL    MW411102   2.059   4.247   4.797
 2762SOL     OW11103   1.793   4.532   4.617
 2762SOL    HW211104   1.862   4.477   4.580
 2762SOL    HW311105   1.795   4.512   4.711
 2762SOL    MW411106   1.803   4.522   4.625
 2763SOL     OW11107   2.031   4.385   4.551
 2763SOL    HW211108   2.043   4.338   4.633
 2763SOL    HW311109   2.111   4.436   4.540
 2763SOL    MW411110   2.043   4.386   4.561
 2764SOL     OW11111   2.277   4.492   4.495
 2764SOL    HW211112   2.337   4.477   4.422
 2764SOL    HW311113   2.263   4.587   4.494
 2764SOL    MW411114   2.283   4.503   4.485
 2765SOL     OW11115   1.318   1.602   4.679
 2765SOL    HW211116   1.412   1.597   4.696
 2765SOL    HW311117   1.297   1.517   4.640
 2765SOL    MW411118   1.327   1.590   4.676
 2766SOL     OW11119   2.649   0.138   4.504
 2766SOL    HW211120   2.560   0.153   4.537
 2766SOL    HW311121   2.640   0.144   4.409
 2766SOL    MW411122   2.636   0.141   4.496
 2767SOL     OW11123   2.474   0.861   4.635
 2767SOL    HW211124   2.399   0.884   4.579
 2767SOL    HW311125   2.551   0.886   4.583
 2767SOL    MW411126   2.474   0.868   4.621
 2768SOL     OW11127   2.937   0.766   4.548
 2768SOL    HW211128   3.004   0.832   4.530
 2768SOL    HW311129   2.972   0.685   4.512
 2768SOL    MW411130   2.950   0.764   4.541
 2769SOL     OW11131   2.276   1.295   4.695
 2769SOL    HW211132   2.293   1.210   4.735
 2769SOL    HW311133   2.355   1.315   4.645
 2769SOL    MW411134   2.288   1.286   4.693
 2770SOL     OW11135   2.479   1.328   4.514
 2770SOL    HW211136   2.552   1.268   4.529
 2770SOL    HW311137   2.512   1.413   4.540
 2770SOL    MW411138   2.493   1.331   4.519
 2771SOL     OW11139   2.563   1.578   4.579
 2771SOL    HW211140   2.629   1.645   4.558
 2771SOL    HW311141   2.482   1.627   4.589
 2771SOL    MW411142   2.561   1.594   4.577
 2772SOL     OW11143   2.307   1.727   4.559
 2772SOL    HW211144   2.278   1.815   4.583
 2772SOL    HW311145   2.242   1.668   4.598
 2772SOL    MW411146   2.295   1.731   4.568
 2773SOL     OW11147   2.233   1.984   4.636
 2773SOL    HW211148   2.143   1.971   4.608
 2773SOL    HW311149   2.231   1.976   4.731
 2773SOL    MW411150   2.221   1.981   4.645
 2774SOL     OW11151   2.466   2.134   4.524
 2774SOL    HW211152   2.382   2.101   4.555
 2774SOL    HW311153   2.531   2.077   4.565
 2774SOL    MW411154   2.464   2.123   4.534
 2775SOL     OW11155   2.760   2.465   4.464
 2775SOL    HW211156   2.666   2.460   4.478
 2775SOL    HW311157   2.782   2.557   4.476
 2775SOL    MW411158   2.751   2.476   4.467
 2776SOL     OW11159   2.447   2.625   4.806
 2776SOL    HW211160   2.513   2.693   4.794
 2776SOL    HW311161   2.475   2.554   4.749
 2776SOL    MW411162   2.459   2.625   4.797
 2777SOL     OW11163   2.038   2.901   4.537
 2777SOL    HW211164   2.008   2.975   4.590
 2777SOL    HW311165   2.116   2.869   4.582
 2777SOL    MW411166   2.044   2.907   4.550
 2778SOL     OW11167   2.449   2.879   4.493
 2778SOL    HW211168   2.382   2.819   4.524
 2778SOL    HW311169   2.419   2.966   4.520
 2778SOL    MW411170   2.436   2.883   4.501
 2779SOL     OW11171   2.358   3.152   4.596
 2779SOL    HW211172   2.432   3.199   4.557
 2779SOL    HW311173   2.339   3.199   4.677
 2779SOL    MW411174   2.365   3.164   4.601
 2780SOL     OW11175   1.335   4.288   4.826
 2780SOL    HW211176   1.331   4.368   4.773
 2780SOL    HW311177   1.267   4.232   4.789
 2780SOL    MW411178   1.326   4.291   4.814
 2781SOL     OW11179   2.685   3.941   4.505
 2781SOL    HW211180   2.597   3.976   4.518
 2781SOL    HW311181   2.714   3.979   4.422
 2781SOL    MW411182   2.677   3.951   4.496
 2782SOL     OW11183   2.173   3.355   4.843
 2782SOL    HW211184   2.136   3.351   4.931
 2782SOL    HW311185   2.211   3.443   4.836
 2782SOL    MW411186   2.173   3.366   4.853
 2783SOL     OW11187   3.348   3.966   4.866
 2783SOL    HW211188   3.313   4.055   4.877
 2783SOL    HW311189   3.307   3.916   4.937
 2783SOL    MW411190   3.338   3.971   4.877
 2784SOL     OW11191   3.077   3.963   4.505
 2784SOL    HW211192   3.013   3.891   4.507
 2784SOL    HW311193   3.154   3.927   4.548
 2784SOL    MW411194   3.078   3.949   4.511
 2785SOL     OW11195   2.415   4.064   4.545
 2785SOL    HW211196   2.378   4.132   4.601
 2785SOL    HW311197   2.373   4.077   4.460
 2785SOL    MW411198   2.405   4.074   4.541
 2786SOL     OW11199   2.328   4.299   4.693
 2786SOL    HW211200   2.316   4.352   4.615
 2786SOL    HW311201   2.393   4.346   4.745
 2786SOL    MW411202   2.335   4.312   4.690
 2787SOL     OW11203   3.057   0.489   4.455
 2787SOL    HW211204   3.040   0.496   4.361
 2787SOL    HW311205   3.149   0.511   4.464
 2787SOL    MW411206   3.067   0.493   4.443
 2788SOL     OW11207   2.899   0.018   4.577
 2788SOL    HW211208   2.964   0.079   4.541
 2788SOL    HW311209   2.816   0.067   4.572
 2788SOL    MW411210   2.896   0.033   4.571
 2789SOL     OW11211   3.058   0.216   4.490
 2789SOL    HW211212   3.058   0.312   4.490
 2789SOL    HW311213   3.128   0.192   4.551
 2789SOL    MW411214   3.067   0.225   4.498
 2790SOL     OW11215   2.708   0.948   4.507
 2790SOL    HW211216   2.772   0.882   4.534
 2790SOL    HW311217   2.703   0.939   4.412
 2790SOL    MW411218   2.715   0.938   4.498
 2791SOL     OW11219   3.577   0.675   4.772
 2791SOL    HW211220   3.659   0.709   4.738
 2791SOL    HW311221   3.578   0.582   4.750
 2791SOL    MW411222   3.588   0.667   4.765
 2792SOL     OW11223   2.226   0.913   4.479
 2792SOL    HW211224   2.187   0.996   4.505
 2792SOL    HW311225   2.175   0.847   4.526
 2792SOL    MW411226   2.214   0.915   4.489
 2793SOL     OW11227   2.767   1.207   4.557
 2793SOL    HW211228   2.843   1.238   4.508
 2793SOL    HW311229   2.757   1.116   4.529
 2793SOL    MW411230   2.776   1.199   4.547
 2794SOL     OW11231   3.005   1.339   4.455
 2794SOL    HW211232   3.000   1.429   4.488
 2794SOL    HW311233   2.986   1.347   4.362
 2794SOL    MW411234   3.002   1.352   4.447
 2795SOL     OW11235   2.968   1.586   4.574
 2795SOL    HW211236   2.908   1.654   4.545
 2795SOL    HW311237   2.917   1.533   4.636
 2795SOL    MW411238   2.954   1.588   4.578
 2796SOL     OW11239   2.763   1.778   4.517
 2796SOL    HW211240   2.735   1.853   4.569
 2796SOL    HW311241   2.744   1.802   4.427
 2796SOL    MW411242   2.757   1.791   4.512
 2797SOL     OW11243   2.719   2.030   4.652
 2797SOL    HW211244   2.721   2.046   4.747
 2797SOL    HW311245   2.792   2.082   4.618
 2797SOL    MW411246   2.729   2.039   4.660
 2798SOL     OW11247   2.897   2.195   4.503
 2798SOL    HW211248   2.858   2.279   4.480
 2798SOL    HW311249   2.910   2.151   4.418
 2798SOL    MW411250   2.894   2.200   4.488
 2799SOL     OW11251   3.148   2.219   4.615
 2799SOL    HW211252   3.132   2.242   4.706
 2799SOL    HW311253   3.062   2.223   4.574
 2799SOL    MW411254   3.134   2.223   4.622
 2800SOL     OW11255   2.492   2.432   4.586
 2800SOL    HW211256   2.500   2.338   4.571
 2800SOL    HW311257   2.400   2.452   4.564
 2800SOL    MW411258   2.481   2.423   4.581
 2801SOL     OW11259   3.009   2.981   4.661
 2801SOL    HW211260   3.078   3.040   4.630
 2801SOL    HW311261   3.041   2.893   4.641
 2801SOL    MW411262   3.022   2.977   4.654
 2802SOL     OW11263   2.647   2.821   4.663
 2802SOL    HW211264   2.680   2.903   4.699
 2802SOL    HW311265   2.578   2.847   4.601
 2802SOL    MW411266   2.642   2.835   4.660
 2803SOL     OW11267   2.602   3.256   4.550
 2803SOL    HW211268   2.644   3.190   4.605
 2803SOL    HW311269   2.640   3.244   4.463
 2803SOL    MW411270   2.612   3.246   4.546
 2804SOL     OW11271   2.756   3.070   4.730
 2804SOL    HW211272   2.845   3.060   4.694
 2804SOL    HW311273   2.769   3.122   4.810
 2804SOL    MW411274   2.770   3.076   4.736
 2805SOL     OW11275   2.867   3.738   4.513
 2805SOL    HW211276   2.790   3.795   4.508
 2805SOL    HW311277   2.838   3.663   4.566
 2805SOL    MW411278   2.853   3.735   4.519
 2806SOL     OW11279   3.320   3.894   4.604
 2806SOL    HW211280   3.371   3.814   4.593
 2806SOL    HW311281   3.336   3.922   4.694
 2806SOL    MW411282   3.329   3.887   4.615
 2807SOL     OW11283   3.896   3.839   4.672
 2807SOL    HW211284   3.904   3.778   4.745
 2807SOL    HW311285   3.857   3.787   4.602
 2807SOL    MW411286   3.892   3.824   4.673
 2808SOL     OW11287   2.708   3.515   4.614
 2808SOL    HW211288   2.631   3.568   4.596
 2808SOL    HW311289   2.677   3.425   4.605
 2808SOL    MW411290   2.694   3.510   4.611
 2809SOL     OW11291   2.911   4.148   4.644
 2809SOL    HW211292   2.837   4.090   4.662
 2809SOL    HW311293   2.981   4.090   4.614
 2809SOL    MW411294   2.910   4.133   4.642
 2810SOL     OW11295   2.974   4.417   4.523
 2810SOL    HW211296   2.925   4.347   4.566
 2810SOL    HW311297   2.929   4.497   4.550
 2810SOL    MW411298   2.962   4.419   4.532
 2811SOL     OW11299   3.345   0.527   4.461
 2811SOL    HW211300   3.381   0.541   4.374
 2811SOL    HW311301   3.347   0.614   4.501
 2811SOL    MW411302   3.350   0.541   4.455
 2812SOL     OW11303   2.452   0.582   4.595
 2812SOL    HW211304   2.539   0.549   4.575
 2812SOL    HW311305   2.465   0.676   4.608
 2812SOL    MW411306   2.465   0.590   4.594
 2813SOL     OW11307   2.338   1.044   4.798
 2813SOL    HW211308   2.385   0.989   4.735
 2813SOL    HW311309   2.275   0.986   4.839
 2813SOL    MW411310   2.336   1.029   4.795
 2814SOL     OW11311   2.684   0.425   4.460
 2814SOL    HW211312   2.692   0.329   4.468
 2814SOL    HW311313   2.772   0.457   4.480
 2814SOL    MW411314   2.697   0.416   4.464
 2815SOL     OW11315   3.395   0.777   4.590
 2815SOL    HW211316   3.467   0.813   4.539
 2815SOL    HW311317   3.437   0.734   4.665
 2815SOL    MW411318   3.410   0.776   4.593
 2816SOL     OW11319   3.447   1.283   4.508
 2816SOL    HW211320   3.372   1.265   4.566
 2816SOL    HW311321   3.519   1.233   4.546
 2816SOL    MW411322   3.446   1.274   4.521
 2817SOL     OW11323   2.773   1.435   4.721
 2817SOL    HW211324   2.697   1.473   4.676
 2817SOL    HW311325   2.795   1.357   4.669
 2817SOL    MW411326   2.766   1.430   4.708
 2818SOL     OW11327   3.960   1.030   4.682
 2818SOL    HW211328   4.000   1.081   4.752
 2818SOL    HW311329   4.032   1.013   4.621
 2818SOL    MW411330   3.975   1.035   4.683
 2819SOL     OW11331   3.465   1.556   4.632
 2819SOL    HW211332   3.394   1.600   4.586
 2819SOL    HW311333   3.468   1.468   4.593
 2819SOL    MW411334   3.456   1.550   4.621
 2820SOL     OW11335   3.244   1.676   4.497
 2820SOL    HW211336   3.252   1.769   4.517
 2820SOL    HW311337   3.169   1.646   4.549
 2820SOL    MW411338   3.235   1.684   4.507
 2821SOL     OW11339   3.271   1.965   4.520
 2821SOL    HW211340   3.226   2.044   4.550
 2821SOL    HW311341   3.286   1.980   4.427
 2821SOL    MW411342   3.267   1.977   4.512
 2822SOL     OW11343   3.708   1.852   4.682
 2822SOL    HW211344   3.670   1.916   4.622
 2822SOL    HW311345   3.639   1.835   4.746
 2822SOL    MW411346   3.694   1.858   4.683
 2823SOL     OW11347   2.828   2.738   4.483
 2823SOL    HW211348   2.774   2.784   4.547
 2823SOL    HW311349   2.918   2.747   4.517
 2823SOL    MW411350   2.833   2.745   4.496
 2824SOL     OW11351   3.519   2.530   4.475
 2824SOL    HW211352   3.432   2.510   4.511
 2824SOL    HW311353   3.536   2.620   4.503
 2824SOL    MW411354   3.509   2.539   4.483
 2825SOL     OW11355   3.249   2.472   4.507
 2825SOL    HW211356   3.204   2.461   4.423
 2825SOL    HW311357   3.249   2.384   4.545
 2825SOL    MW411358   3.243   2.459   4.501
 2826SOL     OW11359   3.620   2.803   4.541
 2826SOL    HW211360   3.660   2.888   4.523
 2826SOL    HW311361   3.693   2.748   4.569
 2826SOL    MW411362   3.635   2.807   4.542
 2827SOL     OW11363   3.220   3.127   4.533
 2827SOL    HW211364   3.270   3.048   4.512
 2827SOL    HW311365   3.193   3.161   4.448
 2827SOL    MW411366   3.223   3.121   4.519
 2828SOL     OW11367   3.363   2.894   4.478
 2828SOL    HW211368   3.355   2.875   4.384
 2828SOL    HW311369   3.449   2.862   4.502
 2828SOL    MW411370   3.373   2.887   4.469
 2829SOL     OW11371   4.052   2.594   4.543
 2829SOL    HW211372   4.030   2.592   4.450
 2829SOL    HW311373   4.095   2.678   4.556
 2829SOL    MW411374   4.055   2.604   4.533
 2830SOL     OW11375   3.654   3.249   4.532
 2830SOL    HW211376   3.705   3.327   4.553
 2830SOL    HW311377   3.621   3.265   4.443
 2830SOL    MW411378   3.656   3.261   4.523
 2831SOL     OW11379   3.510   4.082   4.469
 2831SOL    HW211380   3.575   4.078   4.539
 2831SOL    HW311381   3.437   4.028   4.500
 2831SOL    MW411382   3.509   4.075   4.483
 2832SOL     OW11383   3.219   4.215   4.766
 2832SOL    HW211384   3.232   4.309   4.763
 2832SOL    HW311385   3.125   4.204   4.778
 2832SOL    MW411386   3.209   4.226   4.767
 2833SOL     OW11387   3.234   4.457   4.629
 2833SOL    HW211388   3.300   4.415   4.573
 2833SOL    HW311389   3.151   4.442   4.584
 2833SOL    MW411390   3.232   4.450   4.616
 2834SOL     OW11391   3.436   4.353   4.476
 2834SOL    HW211392   3.453   4.259   4.473
 2834SOL    HW311393   3.523   4.393   4.477
 2834SOL    MW411394   3.450   4.346   4.476
 2835SOL     OW11395   3.690   4.034   4.681
 2835SOL    HW211396   3.759   3.969   4.670
 2835SOL    HW311397   3.628   3.994   4.742
 2835SOL    MW411398   3.691   4.020   4.688
 2836SOL     OW11399   3.499   0.141   4.719
 2836SOL    HW211400   3.534   0.128   4.808
 2836SOL    HW311401   3.406   0.117   4.727
 2836SOL    MW411402   3.491   0.136   4.732
 2837SOL     OW11403   3.176   0.909   4.491
 2837SOL    HW211404   3.188   0.993   4.537
 2837SOL    HW311405   3.236   0.849   4.535
 2837SOL    MW411406   3.186   0.913   4.503
 2838SOL     OW11407   3.206   1.160   4.619
 2838SOL    HW211408   3.212   1.161   4.715
 2838SOL    HW311409   3.144   1.230   4.598
 2838SOL    MW411410   3.199   1.169   4.629
 2839SOL     OW11411   4.113   1.440   4.602
 2839SOL    HW211412   4.159   1.373   4.552
 2839SOL    HW311413   4.020   1.424   4.583
 2839SOL    MW411414   4.107   1.429   4.593
 2840SOL     OW11415   3.728   1.164   4.576
 2840SOL    HW211416   3.767   1.251   4.579
 2840SOL    HW311417   3.800   1.105   4.600
 2840SOL    MW411418   3.743   1.167   4.579
 2841SOL     OW11419   4.126   0.962   4.486
 2841SOL    HW211420   4.197   0.914   4.529
 2841SOL    HW311421   4.104   0.908   4.409
 2841SOL    MW411422   4.133   0.948   4.481
 2842SOL     OW11423   4.292   0.563   4.577
 2842SOL    HW211424   4.223   0.511   4.619
 2842SOL    HW311425   4.282   0.545   4.484
 2842SOL    MW411426   4.282   0.554   4.570
 2843SOL     OW11427   3.669   1.651   4.494
 2843SOL    HW211428   3.712   1.713   4.553
 2843SOL    HW311429   3.589   1.626   4.541
 2843SOL    MW411430   3.664   1.656   4.508
 2844SOL     OW11431   3.978   1.854   4.631
 2844SOL    HW211432   3.889   1.851   4.667
 2844SOL    HW311433   4.027   1.910   4.692
 2844SOL    MW411434   3.973   1.861   4.644
 2845SOL     OW11435   3.541   2.038   4.556
 2845SOL    HW211436   3.577   2.063   4.471
 2845SOL    HW311437   3.462   1.988   4.535
 2845SOL    MW411438   3.535   2.035   4.542
 2846SOL     OW11439   4.164   2.041   4.750
 2846SOL    HW211440   4.146   2.132   4.774
 2846SOL    HW311441   4.224   2.048   4.675
 2846SOL    MW411442   4.170   2.054   4.743
 2847SOL     OW11443   4.452   1.727   4.491
 2847SOL    HW211444   4.478   1.714   4.400
 2847SOL    HW311445   4.357   1.717   4.490
 2847SOL    MW411446   4.443   1.724   4.479
 2848SOL     OW11447   3.967   2.292   4.517
 2848SOL    HW211448   4.008   2.320   4.598
 2848SOL    HW311449   3.873   2.303   4.532
 2848SOL    MW411450   3.960   2.297   4.530
 2849SOL     OW11451   3.789   2.609   4.640
 2849SOL    HW211452   3.756   2.520   4.631
 2849SOL    HW311453   3.879   2.605   4.605
 2849SOL    MW411454   3.797   2.597   4.634
 2850SOL     OW11455   3.775   3.013   4.469
 2850SOL    HW211456   3.855   3.013   4.522
 2850SOL    HW311457   3.738   3.100   4.480
 2850SOL    MW411458   3.781   3.024   4.478
 2851SOL     OW11459   4.010   2.993   4.622
 2851SOL    HW211460   3.988   2.964   4.711
 2851SOL    HW311461   4.082   2.937   4.596
 2851SOL    MW411462   4.016   2.982   4.631
 2852SOL     OW11463   3.371   3.392   4.598
 2852SOL    HW211464   3.301   3.327   4.589
 2852SOL    HW311465   3.451   3.340   4.606
 2852SOL    MW411466   3.372   3.377   4.598
 2853SOL     OW11467   3.882   3.424   4.576
 2853SOL    HW211468   3.932   3.463   4.647
 2853SOL    HW311469   3.945   3.369   4.530
 2853SOL    MW411470   3.897   3.422   4.579
 2854SOL     OW11471   3.470   3.668   4.547
 2854SOL    HW211472   3.437   3.586   4.583
 2854SOL    HW311473   3.565   3.659   4.550
 2854SOL    MW411474   3.478   3.656   4.552
 2855SOL     OW11475   3.745   3.663   4.527
 2855SOL    HW211476   3.751   3.682   4.434
 2855SOL    HW311477   3.797   3.584   4.540
 2855SOL    MW411478   3.753   3.655   4.517
 2856SOL     OW11479   0.101   2.895   4.550
 2856SOL    HW211480   0.082   2.988   4.546
 2856SOL    HW311481   0.136   2.873   4.464
 2856SOL    MW411482   0.103   2.904   4.538
 2857SOL     OW11483   4.104   3.971   4.533
 2857SOL    HW211484   4.123   4.046   4.590
 2857SOL    HW311485   4.034   3.924   4.579
 2857SOL    MW411486   4.097   3.975   4.547
 2858SOL     OW11487   3.714   4.446   4.500
 2858SOL    HW211488   3.786   4.444   4.437
 2858SOL    HW311489   3.702   4.538   4.521
 2858SOL    MW411490   3.722   4.458   4.494
 2859SOL     OW11491   3.229   0.056   4.683
 2859SOL    HW211492   3.236  -0.035   4.655
 2859SOL    HW311493   3.155   0.058   4.743
 2859SOL    MW411494   3.220   0.044   4.687
 2860SOL     OW11495   3.608   0.928   4.488
 2860SOL    HW211496   3.644   1.013   4.513
 2860SOL    HW311497   3.623   0.923   4.393
 2860SOL    MW411498   3.615   0.939   4.479
 2861SOL     OW11499   3.801   0.784   4.612
 2861SOL    HW211500   3.871   0.846   4.631
 2861SOL    HW311501   3.731   0.836   4.572
 2861SOL    MW411502   3.801   0.799   4.609
 2862SOL     OW11503   0.099   0.496   4.585
 2862SOL    HW211504   0.006   0.517   4.592
 2862SOL    HW311505   0.118   0.501   4.491
 2862SOL    MW411506   0.089   0.500   4.573
 2863SOL     OW11507   0.325   0.652   4.616
 2863SOL    HW211508   0.394   0.613   4.670
 2863SOL    HW311509   0.254   0.588   4.618
 2863SOL    MW411510   0.325   0.638   4.624
 2864SOL     OW11511   4.092   0.360   4.622
 2864SOL    HW211512   4.053   0.276   4.597
 2864SOL    HW311513   4.022   0.424   4.609
 2864SOL    MW411514   4.078   0.357   4.617
 2865SOL     OW11515   3.847   1.409   4.534
 2865SOL    HW211516   3.850   1.397   4.439
 2865SOL    HW311517   3.790   1.485   4.547
 2865SOL    MW411518   3.840   1.417   4.523
 2866SOL     OW11519   0.027   1.239   4.534
 2866SOL    HW211520   0.029   1.334   4.546
 2866SOL    HW311521   0.011   1.205   4.622
 2866SOL    MW411522   0.025   1.247   4.547
 2867SOL     OW11523   0.336   1.598   4.699
 2867SOL    HW211524   0.319   1.617   4.791
 2867SOL    HW311525   0.387   1.673   4.667
 2867SOL    MW411526   0.341   1.610   4.707
 2868SOL     OW11527   4.176   1.687   4.507
 2868SOL    HW211528   4.156   1.598   4.538
 2868SOL    HW311529   4.114   1.743   4.553
 2868SOL    MW411530   4.166   1.682   4.517
 2869SOL     OW11531   3.123   2.751   4.525
 2869SOL    HW211532   3.202   2.804   4.519
 2869SOL    HW311533   3.155   2.661   4.539
 2869SOL    MW411534   3.138   2.746   4.526
 2870SOL     OW11535   4.254   2.097   4.237
 2870SOL    HW211536   4.168   2.061   4.219
 2870SOL    HW311537   4.267   2.083   4.331
 2870SOL    MW411538   4.245   2.090   4.247
 2871SOL     OW11539   4.296   2.201   4.541
 2871SOL    HW211540   4.377   2.199   4.592
 2871SOL    HW311541   4.295   2.288   4.500
 2871SOL    MW411542   4.307   2.212   4.542
 2872SOL     OW11543   3.939   2.024   4.413
 2872SOL    HW211544   3.958   1.976   4.493
 2872SOL    HW311545   3.957   2.116   4.435
 2872SOL    MW411546   3.944   2.030   4.426
 2873SOL     OW11547   3.691   2.322   4.560
 2873SOL    HW211548   3.628   2.377   4.513
 2873SOL    HW311549   3.642   2.242   4.580
 2873SOL    MW411550   3.676   2.319   4.556
 2874SOL     OW11551   4.320   2.544   4.797
 2874SOL    HW211552   4.380   2.576   4.730
 2874SOL    HW311553   4.376   2.528   4.874
 2874SOL    MW411554   4.336   2.546   4.799
 2875SOL     OW11555   4.231   2.847   4.521
 2875SOL    HW211556   4.313   2.840   4.570
 2875SOL    HW311557   4.258   2.855   4.430
 2875SOL    MW411558   4.245   2.847   4.516
 2876SOL     OW11559   4.093   3.250   4.540
 2876SOL    HW211560   4.080   3.244   4.445
 2876SOL    HW311561   4.043   3.176   4.575
 2876SOL    MW411562   4.085   3.239   4.532
 2877SOL     OW11563   0.211   3.439   4.471
 2877SOL    HW211564   0.217   3.489   4.390
 2877SOL    HW311565   0.128   3.466   4.510
 2877SOL    MW411566   0.201   3.449   4.466
 2878SOL     OW11567   4.127   4.223   4.653
 2878SOL    HW211568   4.151   4.240   4.744
 2878SOL    HW311569   4.036   4.254   4.645
 2878SOL    MW411570   4.118   4.230   4.664
 2879SOL     OW11571   3.680   0.064   4.531
 2879SOL    HW211572   3.608   0.099   4.584
 2879SOL    HW311573   3.667   0.104   4.445
 2879SOL    MW411574   3.669   0.074   4.527
 2880SOL     OW11575   4.288   3.601   4.855
 2880SOL    HW211576   4.330   3.686   4.864
 2880SOL    HW311577   4.361   3.538   4.857
 2880SOL    MW411578   4.303   3.604   4.857
 2881SOL     OW11579   3.555   0.422   4.639
 2881SOL    HW211580   3.478   0.437   4.584
 2881SOL    HW311581   3.546   0.332   4.669
 2881SOL    MW411582   3.544   0.412   4.636
 2882SOL     OW11583   4.322   4.416   4.238
 2882SOL    HW211584   4.395   4.363   4.207
 2882SOL    HW311585   4.323   4.406   4.333
 2882SOL    MW411586   4.332   4.408   4.246
 2883NA      NA11587   1.104   0.989   0.000
   4.49070   4.66690  10.00000
