;
;	File 'topol.top' was generated
;	By user: chemistry (1000)
;	On host: Nick2
;	At date: Thu Jul 25 15:17:48 2024
;
;	This is a standalone topology file
;
;	Created by:
;	                    :-) GROMACS - gmx pdb2gmx, 2020.3 (-:
;	
;	Executable:   /usr/local/gromacs/bin/gmx
;	Data prefix:  /usr/local/gromacs
;	Working dir:  /home/chemistry/MD/AG_RNA
;	Command line:
;	  gmx pdb2gmx -f AG_RNA.gro -ignh
;	Force field was read from the standard GROMACS share directory.
;

; Include forcefield parameters
#include "amber_na_desres.ff/forcefield.itp"

[ moleculetype ]
; Name            nrexcl
RNA                 3

[ atoms ]
;   nr       type  resnr residue  atom   cgnr     charge       mass  typeB    chargeB      massB
; residue   1 A   rtp RA5  q -0.3
     1         OH      1      A    O5'      1    -0.6223         16
     2         HO      1      A    H5T      2     0.4295      1.008
     3         CI      1      A    C5'      3     0.0558      12.01
     4         H1      1      A   H5'1      4     0.0679      1.008
     5         H1      1      A   H5'2      5     0.0679      1.008
     6         CT      1      A    C4'      6     0.1065      12.01
     7         H1      1      A    H4'      7     0.1174      1.008
     8         OS      1      A    O4'      8    -0.3548         16
     9         CT      1      A    C1'      9     0.0394      12.01
    10         H2      1      A    H1'     10     0.2007      1.008
    11    N*_desA      1      A     N9     11    -0.0251      14.01
    12    CK_desA      1      A     C8     12     0.2006      12.01
    13         H5      1      A     H8     13     0.1553      1.008
    14    NB_desA      1      A     N7     14    -0.6073      14.01
    15    CB_desA      1      A     C5     15     0.0515      12.01
    16    CA_desA      1      A     C6     16     0.7009      12.01
    17    N2_desN      1      A     N6     17    -1.0088      14.01
    18      H_des      1      A    H61     18     0.4738      1.008
    19      H_des      1      A    H62     19     0.4738      1.008
    20    NC_desA      1      A     N1     20    -0.7969      14.01
    21    CQ_desA      1      A     C2     21     0.5875      12.01
    22         H5      1      A     H2     22      0.065      1.008
    23    NC_desA      1      A     N3     23    -0.6997      14.01
    24    CB_desA      1      A     C4     24     0.3053      12.01
    25         CT      1      A    C3'     25     0.2022      12.01
    26         H1      1      A    H3'     26     0.0615      1.008
    27         CT      1      A    C2'     27      0.067      12.01
    28         H1      1      A   H2'1     28     0.0972      1.008
    29         OH      1      A    O2'     29    -0.6139         16
    30         HO      1      A   HO'2     30     0.4186      1.008
    31    OS_case      1      A    O3'     31    -0.5246         16   ; qtot -0.3081
; residue   2 G   rtp RG3  q -0.7
    32          P      2      G      P     32     1.1662      30.97
    33    O2_case      2      G    O1P     33     -0.776         16
    34    O2_case      2      G    O2P     34     -0.776         16
    35    OS_case      2      G    O5'     35    -0.4989         16
    36         CI      2      G    C5'     36     0.0558      12.01
    37         H1      2      G   H5'1     37     0.0679      1.008
    38         H1      2      G   H5'2     38     0.0679      1.008
    39         CT      2      G    C4'     39     0.1065      12.01
    40         H1      2      G    H4'     40     0.1174      1.008
    41         OS      2      G    O4'     41    -0.3548         16
    42         CT      2      G    C1'     42     0.0191      12.01
    43         H2      2      G    H1'     43     0.2006      1.008
    44    N*_desA      2      G     N9     44     0.0492      14.01
    45    CK_desN      2      G     C8     45     0.1374      12.01
    46         H5      2      G     H8     46      0.164      1.008
    47    NB_desA      2      G     N7     47    -0.5709      14.01
    48    CB_desN      2      G     C5     48     0.1744      12.01
    49     C_desN      2      G     C6     49      0.477      12.01
    50          O      2      G     O6     50    -0.5597         16
    51    NA_desN      2      G     N1     51    -0.5606      14.01
    52      H_des      2      G     H1     52     0.4243      1.008
    53    CA_desN      2      G     C2     53     0.7657      12.01
    54    N2_desN      2      G     N2     54    -1.0158      14.01
    55      H_des      2      G    H21     55     0.4607      1.008
    56      H_des      2      G    H22     56     0.4607      1.008
    57    NC_desN      2      G     N3     57    -0.6323      14.01
    58    CB_desN      2      G     C4     58     0.1222      12.01
    59         CT      2      G    C3'     59     0.2022      12.01
    60         H1      2      G    H3'     60     0.0615      1.008
    61         CT      2      G    C2'     61      0.067      12.01
    62         H1      2      G   H2'1     62     0.0972      1.008
    63         OH      2      G    O2'     63    -0.6139         16
    64         HO      2      G   HO'2     64     0.4186      1.008
    65         OH      2      G    O3'     65    -0.6541         16
    66         HO      2      G    H3T     66     0.4376      1.008   ; qtot -1

[ bonds ]
;  ai    aj funct            c0            c1            c2            c3
    1     2     1 
    1     3     1 
    3     4     1 
    3     5     1 
    3     6     1 
    6     7     1 
    6     8     1 
    6    25     1 
    8     9     1 
    9    10     1 
    9    11     1 
    9    27     1 
   11    12     1 
   11    24     1 
   12    13     1 
   12    14     1 
   14    15     1 
   15    16     1 
   15    24     1 
   16    17     1 
   16    20     1 
   17    18     1 
   17    19     1 
   20    21     1 
   21    22     1 
   21    23     1 
   23    24     1 
   25    26     1 
   25    27     1 
   25    31     1 
   27    28     1 
   27    29     1 
   29    30     1 
   31    32     1 
   32    33     1 
   32    34     1 
   32    35     1 
   35    36     1 
   36    37     1 
   36    38     1 
   36    39     1 
   39    40     1 
   39    41     1 
   39    59     1 
   41    42     1 
   42    43     1 
   42    44     1 
   42    61     1 
   44    45     1 
   44    58     1 
   45    46     1 
   45    47     1 
   47    48     1 
   48    49     1 
   48    58     1 
   49    50     1 
   49    51     1 
   51    52     1 
   51    53     1 
   53    54     1 
   53    57     1 
   54    55     1 
   54    56     1 
   57    58     1 
   59    60     1 
   59    61     1 
   59    65     1 
   61    62     1 
   61    63     1 
   63    64     1 
   65    66     1 

[ pairs ]
;  ai    aj funct            c0            c1            c2            c3
    1     7     1 
    1     8     1 
    1    25     1 
    2     4     1 
    2     5     1 
    2     6     1 
    3     9     1 
    3    26     1 
    3    27     1 
    3    31     1 
    4     7     1 
    4     8     1 
    4    25     1 
    5     7     1 
    5     8     1 
    5    25     1 
    6    10     1 
    6    11     1 
    6    28     1 
    6    29     1 
    6    32     1 
    7     9     1 
    7    26     1 
    7    27     1 
    7    31     1 
    8    12     1 
    8    24     1 
    8    26     1 
    8    28     1 
    8    29     1 
    8    31     1 
    9    13     1 
    9    14     1 
    9    15     1 
    9    23     1 
    9    26     1 
    9    30     1 
    9    31     1 
   10    12     1 
   10    24     1 
   10    25     1 
   10    28     1 
   10    29     1 
   11    16     1 
   11    21     1 
   11    25     1 
   11    28     1 
   11    29     1 
   12    16     1 
   12    23     1 
   12    27     1 
   13    15     1 
   13    24     1 
   14    17     1 
   14    20     1 
   14    23     1 
   15    18     1 
   15    19     1 
   15    21     1 
   16    22     1 
   16    23     1 
   17    21     1 
   17    24     1 
   18    20     1 
   19    20     1 
   20    24     1 
   22    24     1 
   24    27     1 
   25    30     1 
   25    33     1 
   25    34     1 
   25    35     1 
   26    28     1 
   26    29     1 
   26    32     1 
   27    32     1 
   28    30     1 
   28    31     1 
   29    31     1 
   31    36     1 
   32    37     1 
   32    38     1 
   32    39     1 
   33    36     1 
   34    36     1 
   35    40     1 
   35    41     1 
   35    59     1 
   36    42     1 
   36    60     1 
   36    61     1 
   36    65     1 
   37    40     1 
   37    41     1 
   37    59     1 
   38    40     1 
   38    41     1 
   38    59     1 
   39    43     1 
   39    44     1 
   39    62     1 
   39    63     1 
   39    66     1 
   40    42     1 
   40    60     1 
   40    61     1 
   40    65     1 
   41    45     1 
   41    58     1 
   41    60     1 
   41    62     1 
   41    63     1 
   41    65     1 
   42    46     1 
   42    47     1 
   42    48     1 
   42    57     1 
   42    60     1 
   42    64     1 
   42    65     1 
   43    45     1 
   43    58     1 
   43    59     1 
   43    62     1 
   43    63     1 
   44    49     1 
   44    53     1 
   44    59     1 
   44    62     1 
   44    63     1 
   45    49     1 
   45    57     1 
   45    61     1 
   46    48     1 
   46    58     1 
   47    50     1 
   47    51     1 
   47    57     1 
   48    52     1 
   48    53     1 
   49    54     1 
   49    57     1 
   50    52     1 
   50    53     1 
   50    58     1 
   51    55     1 
   51    56     1 
   51    58     1 
   52    54     1 
   52    57     1 
   54    58     1 
   55    57     1 
   56    57     1 
   58    61     1 
   59    64     1 
   60    62     1 
   60    63     1 
   60    66     1 
   61    66     1 
   62    64     1 
   62    65     1 
   63    65     1 

[ angles ]
;  ai    aj    ak funct            c0            c1            c2            c3
    2     1     3     1 
    1     3     4     1 
    1     3     5     1 
    1     3     6     1 
    4     3     5     1 
    4     3     6     1 
    5     3     6     1 
    3     6     7     1 
    3     6     8     1 
    3     6    25     1 
    7     6     8     1 
    7     6    25     1 
    8     6    25     1 
    6     8     9     1 
    8     9    10     1 
    8     9    11     1 
    8     9    27     1 
   10     9    11     1 
   10     9    27     1 
   11     9    27     1 
    9    11    12     1 
    9    11    24     1 
   12    11    24     1 
   11    12    13     1 
   11    12    14     1 
   13    12    14     1 
   12    14    15     1 
   14    15    16     1 
   14    15    24     1 
   16    15    24     1 
   15    16    17     1 
   15    16    20     1 
   17    16    20     1 
   16    17    18     1 
   16    17    19     1 
   18    17    19     1 
   16    20    21     1 
   20    21    22     1 
   20    21    23     1 
   22    21    23     1 
   21    23    24     1 
   11    24    15     1 
   11    24    23     1 
   15    24    23     1 
    6    25    26     1 
    6    25    27     1 
    6    25    31     1 
   26    25    27     1 
   26    25    31     1 
   27    25    31     1 
    9    27    25     1 
    9    27    28     1 
    9    27    29     1 
   25    27    28     1 
   25    27    29     1 
   28    27    29     1 
   27    29    30     1 
   25    31    32     1 
   31    32    33     1 
   31    32    34     1 
   31    32    35     1 
   33    32    34     1 
   33    32    35     1 
   34    32    35     1 
   32    35    36     1 
   35    36    37     1 
   35    36    38     1 
   35    36    39     1 
   37    36    38     1 
   37    36    39     1 
   38    36    39     1 
   36    39    40     1 
   36    39    41     1 
   36    39    59     1 
   40    39    41     1 
   40    39    59     1 
   41    39    59     1 
   39    41    42     1 
   41    42    43     1 
   41    42    44     1 
   41    42    61     1 
   43    42    44     1 
   43    42    61     1 
   44    42    61     1 
   42    44    45     1 
   42    44    58     1 
   45    44    58     1 
   44    45    46     1 
   44    45    47     1 
   46    45    47     1 
   45    47    48     1 
   47    48    49     1 
   47    48    58     1 
   49    48    58     1 
   48    49    50     1 
   48    49    51     1 
   50    49    51     1 
   49    51    52     1 
   49    51    53     1 
   52    51    53     1 
   51    53    54     1 
   51    53    57     1 
   54    53    57     1 
   53    54    55     1 
   53    54    56     1 
   55    54    56     1 
   53    57    58     1 
   44    58    48     1 
   44    58    57     1 
   48    58    57     1 
   39    59    60     1 
   39    59    61     1 
   39    59    65     1 
   60    59    61     1 
   60    59    65     1 
   61    59    65     1 
   42    61    59     1 
   42    61    62     1 
   42    61    63     1 
   59    61    62     1 
   59    61    63     1 
   62    61    63     1 
   61    63    64     1 
   59    65    66     1 

[ dihedrals ]
;  ai    aj    ak    al funct            c0            c1            c2            c3            c4            c5
    2     1     3     4     9 
    2     1     3     5     9 
    2     1     3     6     9 
    1     3     6     7     9 
    1     3     6     8     9 
    1     3     6    25     9 
    4     3     6     7     9 
    4     3     6     8     9 
    4     3     6    25     9 
    5     3     6     7     9 
    5     3     6     8     9 
    5     3     6    25     9 
    3     6     8     9     9 
    7     6     8     9     9 
   25     6     8     9     9 
    3     6    25    26     9 
    3     6    25    27     9 
    3     6    25    31     9 
    7     6    25    26     9 
    7     6    25    27     9 
    7     6    25    31     9 
    8     6    25    26     9 
    8     6    25    27     9 
    8     6    25    31     9 
    6     8     9    10     9 
    6     8     9    11     9 
    6     8     9    27     9 
    8     9    11    12     9    torsion_RA_O4S_C1S_N9_C8_mult1
    8     9    11    12     9    torsion_RA_O4S_C1S_N9_C8_mult2
    8     9    11    12     9    torsion_RA_O4S_C1S_N9_C8_mult3
    8     9    11    12     9    torsion_RA_O4S_C1S_N9_C8_mult4
    8     9    11    24     9 
   10     9    11    12     9 
   10     9    11    24     9 
   27     9    11    12     9 
   27     9    11    24     9 
    8     9    27    25     9 
    8     9    27    28     9 
    8     9    27    29     9 
   10     9    27    25     9 
   10     9    27    28     9 
   10     9    27    29     9 
   11     9    27    25     9 
   11     9    27    28     9 
   11     9    27    29     9 
    9    11    12    13     9 
    9    11    12    14     9 
   24    11    12    13     9 
   24    11    12    14     9 
    9    11    24    15     9 
    9    11    24    23     9 
   12    11    24    15     9 
   12    11    24    23     9 
   11    12    14    15     9 
   13    12    14    15     9 
   12    14    15    16     9 
   12    14    15    24     9 
   14    15    16    17     9 
   14    15    16    20     9 
   24    15    16    17     9 
   24    15    16    20     9 
   14    15    24    11     9 
   14    15    24    23     9 
   16    15    24    11     9 
   16    15    24    23     9 
   15    16    17    18     9 
   15    16    17    19     9 
   20    16    17    18     9 
   20    16    17    19     9 
   15    16    20    21     9 
   17    16    20    21     9 
   16    20    21    22     9 
   16    20    21    23     9 
   20    21    23    24     9 
   22    21    23    24     9 
   21    23    24    11     9 
   21    23    24    15     9 
    6    25    27     9     9 
    6    25    27    28     9 
    6    25    27    29     9 
   26    25    27     9     9 
   26    25    27    28     9 
   26    25    27    29     9 
   31    25    27     9     9 
   31    25    27    28     9 
   31    25    27    29     9 
    6    25    31    32     9 
   26    25    31    32     9 
   27    25    31    32     9 
    9    27    29    30     9 
   25    27    29    30     9 
   28    27    29    30     9 
   25    31    32    33     9 
   25    31    32    34     9 
   25    31    32    35     9 
   31    32    35    36     9 
   33    32    35    36     9 
   34    32    35    36     9 
   32    35    36    37     9 
   32    35    36    38     9 
   32    35    36    39     9 
   35    36    39    40     9 
   35    36    39    41     9 
   35    36    39    59     9 
   37    36    39    40     9 
   37    36    39    41     9 
   37    36    39    59     9 
   38    36    39    40     9 
   38    36    39    41     9 
   38    36    39    59     9 
   36    39    41    42     9 
   40    39    41    42     9 
   59    39    41    42     9 
   36    39    59    60     9 
   36    39    59    61     9 
   36    39    59    65     9 
   40    39    59    60     9 
   40    39    59    61     9 
   40    39    59    65     9 
   41    39    59    60     9 
   41    39    59    61     9 
   41    39    59    65     9 
   39    41    42    43     9 
   39    41    42    44     9 
   39    41    42    61     9 
   41    42    44    45     9    torsion_RG_O4S_C1S_N9_C8_mult1
   41    42    44    45     9    torsion_RG_O4S_C1S_N9_C8_mult2
   41    42    44    45     9    torsion_RG_O4S_C1S_N9_C8_mult3
   41    42    44    45     9    torsion_RG_O4S_C1S_N9_C8_mult4
   41    42    44    58     9 
   43    42    44    45     9 
   43    42    44    58     9 
   61    42    44    45     9 
   61    42    44    58     9 
   41    42    61    59     9 
   41    42    61    62     9 
   41    42    61    63     9 
   43    42    61    59     9 
   43    42    61    62     9 
   43    42    61    63     9 
   44    42    61    59     9 
   44    42    61    62     9 
   44    42    61    63     9 
   42    44    45    46     9 
   42    44    45    47     9 
   58    44    45    46     9 
   58    44    45    47     9 
   42    44    58    48     9 
   42    44    58    57     9 
   45    44    58    48     9 
   45    44    58    57     9 
   44    45    47    48     9 
   46    45    47    48     9 
   45    47    48    49     9 
   45    47    48    58     9 
   47    48    49    50     9 
   47    48    49    51     9 
   58    48    49    50     9 
   58    48    49    51     9 
   47    48    58    44     9 
   47    48    58    57     9 
   49    48    58    44     9 
   49    48    58    57     9 
   48    49    51    52     9 
   48    49    51    53     9 
   50    49    51    52     9 
   50    49    51    53     9 
   49    51    53    54     9 
   49    51    53    57     9 
   52    51    53    54     9 
   52    51    53    57     9 
   51    53    54    55     9 
   51    53    54    56     9 
   57    53    54    55     9 
   57    53    54    56     9 
   51    53    57    58     9 
   54    53    57    58     9 
   53    57    58    44     9 
   53    57    58    48     9 
   39    59    61    42     9 
   39    59    61    62     9 
   39    59    61    63     9 
   60    59    61    42     9 
   60    59    61    62     9 
   60    59    61    63     9 
   65    59    61    42     9 
   65    59    61    62     9 
   65    59    61    63     9 
   39    59    65    66     9 
   60    59    65    66     9 
   61    59    65    66     9 
   42    61    63    64     9 
   59    61    63    64     9 
   62    61    63    64     9 

[ dihedrals ]
;  ai    aj    ak    al funct            c0            c1            c2            c3
    9    11    12    24     4 
   11    14    12    13     4 
   15    17    16    20     4 
   16    18    17    19     4 
   20    23    21    22     4 
   42    44    45    58     4 
   44    47    45    46     4 
   48    51    49    50     4 
   49    53    51    52     4 
   53    55    54    56     4 
   54    51    53    57     4 

; Include Position restraint file
#ifdef POSRES
#include "posre.itp"
#endif

; Include water topology
#include "amber_na_desres.ff/tip4pd.itp"

#ifdef POSRES_WATER
; Position restraint for each water oxygen
[ position_restraints ]
;  i funct       fcx        fcy        fcz
   1    1       1000       1000       1000
#endif

; Include topology for ions
#include "amber_na_desres.ff/ions.itp"

[ system ]
; Name
GRoups of Organic Molecules in ACtion for Science in water

[ molecules ]
; Compound        #mols
RNA                 1
SOL              2880
NA                  1
