Gromacs Runs On Most of All Computer Systems in water
11558
    1RG35     P    1   2.246   2.419   4.418 -0.2089  0.0078 -0.0193
    1RG35   O1P    2   2.375   2.477   4.459  0.0926  0.0420  0.2723
    1RG35   O2P    3   2.234   2.277   4.466 -0.5993 -0.0948 -0.1378
    1RG35   O5'    4   2.148   2.496   4.508 -0.5984  0.0769 -0.0672
    1RG35   C5'    5   2.121   2.637   4.487  0.2769  0.5457 -0.0979
    1RG35  H5'1    6   2.096   2.648   4.382  0.6671  0.7185 -0.1716
    1RG35  H5'2    7   2.211   2.694   4.506  0.0947  0.7932  0.0279
    1RG35   C4'    8   2.009   2.695   4.572  0.4156 -0.5848  0.9812
    1RG35   H4'    9   2.003   2.803   4.556  1.0651 -0.6424  0.3227
    1RG35   O4'   10   1.882   2.648   4.537 -0.0945  0.1868 -0.3714
    1RG35   C1'   11   1.793   2.677   4.651  0.1375  0.9726 -0.7296
    1RG35   H1'   12   1.748   2.775   4.636 -1.4095  0.0805 -2.0315
    1RG35    N9   13   1.688   2.573   4.664 -0.2591  0.3721 -0.2131
    1RG35    C8   14   1.554   2.584   4.632  0.0900  0.7069  0.4760
    1RG35    H8   15   1.499   2.671   4.598 -1.0832  0.5414  1.8948
    1RG35    N7   16   1.486   2.475   4.659 -0.1844 -0.4178 -0.0387
    1RG35    C5   17   1.582   2.381   4.701  0.2027  0.4038  0.2118
    1RG35    C6   18   1.578   2.246   4.750 -0.1133 -0.5983 -0.2848
    1RG35    O6   19   1.475   2.178   4.769  0.2518 -0.0864  0.2129
    1RG35    N1   20   1.701   2.189   4.774 -0.7895 -0.7384  0.1273
    1RG35    H1   21   1.708   2.089   4.789  0.3544 -0.8250 -0.9249
    1RG35    C2   22   1.817   2.258   4.767  0.6699 -0.1572  0.0407
    1RG35    N2   23   1.930   2.195   4.786  0.3738 -0.0946 -0.1787
    1RG35   H21   24   1.933   2.099   4.817 -0.7653  0.2678  1.1183
    1RG35   H22   25   2.015   2.248   4.773  0.1144  0.3449 -0.0929
    1RG35    N3   26   1.828   2.379   4.724  0.4497 -0.1666 -0.1822
    1RG35    C4   27   1.707   2.438   4.699 -0.5619 -1.0160  0.1175
    1RG35   C3'   28   2.020   2.654   4.713  0.2438  0.1869 -0.3656
    1RG35   H3'   29   2.042   2.548   4.721 -2.6824 -0.4197  0.1866
    1RG35   C2'   30   1.884   2.686   4.776  0.2353  0.2186  0.0242
    1RG35  H2'1   31   1.857   2.614   4.853  0.9516 -0.9621 -0.8162
    1RG35   O2'   32   1.884   2.818   4.824  0.0065 -0.2022 -0.1724
    1RG35  HO'2   33   1.975   2.839   4.846 -0.6190  1.2698  1.0763
    1RG35   O3'   34   2.126   2.720   4.789 -0.1704 -0.1544  0.3374
    1RG35   H3T   35   2.198   2.657   4.781 -0.0909  0.0291 -0.5157
    1RG35   O3P   36   2.205   2.441   4.278  0.1161 -0.7885 -0.3094
    1SOL     OW   37   2.408   1.553   0.511  0.2207 -0.0770 -0.0945
    1SOL    HW2   38   2.355   1.483   0.473 -1.4393  1.9245 -1.5965
    1SOL    HW3   39   2.360   1.579   0.590  0.0720  0.3013 -0.3063
    1SOL    MW4   40   2.394   1.547   0.516 -0.0181  0.2370 -0.3206
    1SOL     OW   41   4.236   3.662   0.711  0.3441  0.2228 -0.4307
    1SOL    HW2   42   4.257   3.751   0.741  0.4456  0.3969 -1.0096
    1SOL    HW3   43   4.177   3.628   0.779  0.5536  0.6151 -0.0430
    1SOL    MW4   44   4.231   3.670   0.724  0.3858  0.2975 -0.4559
    1SOL     OW   45   2.747   0.145   0.317  0.8739  0.3711  0.2454
    1SOL    HW2   46   2.684   0.134   0.388  0.4134 -0.6742 -0.3296
    1SOL    HW3   47   2.703   0.202   0.254 -0.3131 -1.9806 -1.1159
    1SOL    MW4   48   2.733   0.151   0.318  0.6564 -0.0771 -0.0101
    1SOL     OW   49   2.428   2.723   0.253  0.1283  0.4482  0.2763
    1SOL    HW2   50   2.468   2.643   0.286 -0.1073 -0.4226 -1.4736
    1SOL    HW3   51   2.413   2.777   0.331  0.7076 -1.0143  1.4171
    1SOL    MW4   52   2.431   2.719   0.268  0.1738  0.1404  0.1960
    1SOL     OW   53   0.464   3.462   0.331 -0.2966  0.1546 -0.2288
    1SOL    HW2   54   0.384   3.482   0.379  0.5929  0.4248  1.1687
    1SOL    HW3   55   0.482   3.541   0.280 -0.5416  0.3505 -0.0127
    1SOL    MW4   56   0.456   3.475   0.330 -0.2115  0.2162 -0.0159
    1SOL     OW   57   0.039   2.468   0.757  0.1711 -0.2239  0.0626
    1SOL    HW2   58   0.018   2.450   0.665  0.0677 -0.1355  0.0691
    1SOL    HW3   59   0.017   2.560   0.769 -0.0371 -0.2972  0.2395
    1SOL    MW4   60   0.034   2.478   0.746  0.1297 -0.2217  0.0868
    1SOL     OW   61   1.297   0.178   0.467 -0.3209 -0.3906 -0.3474
    1SOL    HW2   62   1.375   0.163   0.415 -0.3129 -0.3979 -0.3336
    1SOL    HW3   63   1.314   0.134   0.550 -0.2111 -0.1251 -0.2271
    1SOL    MW4   64   1.309   0.170   0.471 -0.3053 -0.3566 -0.3297
    1SOL     OW   65   4.072   0.348   0.557  0.3436 -0.6403  0.1243
    1SOL    HW2   66   4.087   0.281   0.624  0.3357 -0.3047  0.4598
    1SOL    HW3   67   4.017   0.304   0.492  0.4936 -1.0193  0.2519
    1SOL    MW4   68   4.066   0.333   0.557  0.3624 -0.6460  0.1854
    1SOL     OW   69   2.680   1.586   0.526 -0.1547  0.1606 -0.2474
    1SOL    HW2   70   2.592   1.566   0.494 -0.0881 -1.5865  0.6134
    1SOL    HW3   71   2.734   1.515   0.491  0.6798  0.5181  0.3112
    1SOL    MW4   72   2.675   1.574   0.517 -0.0362 -0.0228 -0.0601
    1SOL     OW   73   2.212   0.091   0.703 -0.1435  0.3489 -0.2682
    1SOL    HW2   74   2.285   0.051   0.751  0.5490  1.2603 -0.5344
    1SOL    HW3   75   2.228   0.068   0.612 -0.4618  0.1464 -0.2744
    1SOL    MW4   76   2.224   0.083   0.697 -0.0939  0.4425 -0.3042
    1SOL     OW   77   4.052   1.156   0.851  0.1231  0.0321 -0.8029
    1SOL    HW2   78   4.039   1.167   0.945 -0.7031 -0.5727 -0.8363
    1SOL    HW3   79   3.974   1.197   0.812  0.3273  0.0329 -1.2079
    1SOL    MW4   80   4.040   1.163   0.858  0.0405 -0.0478 -0.8607
    1SOL     OW   81   0.446   2.424   0.802 -0.0140 -0.4103 -0.0081
    1SOL    HW2   82   0.423   2.437   0.710  0.0435 -1.2072 -0.1368
    1SOL    HW3   83   0.373   2.376   0.839 -0.6212  0.9976  0.6836
    1SOL    MW4   84   0.433   2.420   0.794 -0.0865 -0.3297  0.0661
    1SOL     OW   85   4.002   0.765   0.602 -0.3485  0.3925 -0.0120
    1SOL    HW2   86   4.005   0.811   0.686 -1.4135 -2.0895  1.4290
    1SOL    HW3   87   4.074   0.702   0.607  1.3467  2.0668 -2.1303
    1SOL    MW4   88   4.012   0.763   0.613 -0.2656  0.2859 -0.1014
    1SOL     OW   89   4.037   1.962   0.818  0.2298 -0.3873 -0.8140
    1SOL    HW2   90   4.040   1.869   0.793  1.7688 -0.2102 -1.3771
    1SOL    HW3   91   4.049   1.962   0.913  0.1747 -0.7668 -0.8065
    1SOL    MW4   92   4.039   1.949   0.827  0.4258 -0.4140 -0.8873
    1SOL     OW   93   3.636   3.048   0.502 -0.2090  0.2972  0.3488
    1SOL    HW2   94   3.693   2.983   0.462  0.1027  0.5339  0.4081
    1SOL    HW3   95   3.550   3.006   0.504  0.2867 -0.6923  1.7181
    1SOL    MW4   96   3.632   3.034   0.497 -0.1023  0.1976  0.5373
    1SOL     OW   97   0.876   0.857   0.511 -0.1338 -0.4762  0.5779
    1SOL    HW2   98   0.865   0.762   0.505 -0.3508 -0.4196  0.0650
    1SOL    HW3   99   0.788   0.892   0.500 -0.0468 -0.2115  0.7136
    1SOL    MW4  100   0.863   0.849   0.509 -0.1509 -0.4337  0.5281
    1SOL     OW  101   2.956   4.275   0.490 -0.1381 -0.5437 -0.2588
    1SOL    HW2  102   2.949   4.312   0.578 -0.3877  0.6350 -0.7652
    1SOL    HW3  103   2.950   4.351   0.431  0.3686 -1.2792 -1.2808
    1SOL    MW4  104   2.954   4.290   0.494 -0.1042 -0.4854 -0.4604
    1SOL     OW  105   1.807   0.570   0.359 -0.0215 -0.4986  0.5246
    1SOL    HW2  106   1.782   0.653   0.399 -1.6286 -0.9951  0.6151
    1SOL    HW3  107   1.888   0.545   0.403  0.1358  0.7196  0.9358
    1SOL    MW4  108   1.814   0.577   0.370 -0.2128 -0.4034  0.5908
    1SOL     OW  109   2.904   2.006   0.439 -0.0743 -0.7298  0.4943
    1SOL    HW2  110   2.832   1.957   0.399 -1.2588 -0.5354  2.3248
    1SOL    HW3  111   2.919   1.961   0.522  1.4434 -0.3342  0.4369
    1SOL    MW4  112   2.896   1.993   0.445 -0.0305 -0.6517  0.7282
    1SOL     OW  113   0.279   0.691   0.735  0.2698 -0.1167 -0.2538
    1SOL    HW2  114   0.215   0.749   0.778  0.8809 -0.1691  0.7405
    1SOL    HW3  115   0.285   0.615   0.793  0.9888 -0.2626 -0.5159
    1SOL    MW4  116   0.271   0.688   0.748  0.4453 -0.1429 -0.1572
    1SOL     OW  117   2.765   2.250   0.382 -0.0592  0.3529  0.1428
    1SOL    HW2  118   2.682   2.221   0.345 -0.0784 -0.0825  0.5259
    1SOL    HW3  119   2.811   2.170   0.406  0.8885  0.5540 -0.9382
    1SOL    MW4  120   2.760   2.236   0.380  0.0632  0.3221  0.0508
    1SOL     OW  121   0.493   0.337   0.695 -0.0725  0.7013 -0.2173
    1SOL    HW2  122   0.565   0.276   0.682  0.6516  1.5703 -0.2707
    1SOL    HW3  123   0.425   0.306   0.635 -0.0987 -0.6622  0.4872
    1SOL    MW4  124   0.493   0.325   0.686  0.0196  0.6360 -0.1314
    1SOL     OW  125   3.801   1.252   0.792 -0.4102  0.1456  0.7936
    1SOL    HW2  126   3.794   1.279   0.700 -1.6580 -0.3064  0.7433
    1SOL    HW3  127   3.719   1.206   0.809 -0.1355  0.1340  2.1075
    1SOL    MW4  128   3.789   1.250   0.782 -0.5386  0.0843  0.9603
    1SOL     OW  129   0.434   3.984   0.713 -0.0416 -0.2507 -0.2101
    1SOL    HW2  130   0.425   3.986   0.618  0.0388  1.4385 -0.1939
    1SOL    HW3  131   0.448   4.075   0.738 -0.0556 -0.6769  1.4241
    1SOL    MW4  132   0.435   3.996   0.704 -0.0329 -0.0839  0.0077
    1SOL     OW  133   0.109   0.067   0.864  0.3659 -0.0074 -0.3062
    1SOL    HW2  134   0.017   0.052   0.842  0.1005  1.2695 -0.1259
    1SOL    HW3  135   0.157   0.048   0.783 -0.0943 -0.2967 -0.5100
    1SOL    MW4  136   0.103   0.063   0.850  0.2702  0.1229 -0.3093
    1SOL     OW  137   0.200   1.937   0.231 -0.1697  0.2974 -0.1598
    1SOL    HW2  138   0.218   1.900   0.145  2.1729  0.3482  0.2661
    1SOL    HW3  139   0.105   1.930   0.241 -0.2957 -1.1563 -2.0757
    1SOL    MW4  140   0.190   1.931   0.221  0.1227  0.1122 -0.3564
    1SOL     OW  141   2.038   2.335   0.872  0.0686 -0.3408  0.2935
    1SOL    HW2  142   2.033   2.329   0.967  0.1792 -0.2306  0.3063
    1SOL    HW3  143   1.955   2.375   0.846  0.0402 -0.3675  0.3434
    1SOL    MW4  144   2.026   2.340   0.881  0.0799 -0.3300  0.3018
    1SOL     OW  145   3.960   4.333   0.431  0.4052  0.0442  0.2068
    1SOL    HW2  146   3.955   4.247   0.390  1.6627 -0.3224  0.8131
    1SOL    HW3  147   4.053   4.353   0.436  0.2442  0.4413  2.1035
    1SOL    MW4  148   3.971   4.324   0.426  0.5500  0.0486  0.5370
    1SOL     OW  149   0.998   3.902   0.455 -0.2129  0.6245 -0.2129
    1SOL    HW2  150   0.977   3.927   0.546  0.9445 -0.2896  0.3122
    1SOL    HW3  151   1.092   3.915   0.449 -0.1913  0.0118 -1.0927
    1SOL    MW4  152   1.007   3.907   0.466 -0.0575  0.4230 -0.2597
    1SOL     OW  153   1.556   2.285   0.822 -0.2041 -0.0936  0.3281
    1SOL    HW2  154   1.473   2.331   0.806  0.3199  0.0399 -2.1429
    1SOL    HW3  155   1.531   2.192   0.826 -0.6173  0.0316  0.7657
    1SOL    MW4  156   1.542   2.278   0.821 -0.1895 -0.0591  0.0598
    1SOL     OW  157   1.973   3.050   0.874  0.0088 -0.2165 -0.0214
    1SOL    HW2  158   1.977   2.970   0.822 -1.0293 -1.0828  1.1828
    1SOL    HW3  159   1.916   3.109   0.824  1.2019 -0.0072 -1.1706
    1SOL    MW4  160   1.966   3.047   0.861  0.0294 -0.3035 -0.0142
    1SOL     OW  161   2.685   2.469   0.840  0.2372 -0.1678  0.1163
    1SOL    HW2  162   2.681   2.561   0.868 -0.4115 -0.3237  0.5512
    1SOL    HW3  163   2.600   2.433   0.866  1.1266 -1.3214  1.5033
    1SOL    MW4  164   2.673   2.476   0.847  0.2689 -0.3405  0.3567
    1SOL     OW  165   0.326   4.666   0.699  0.1184  0.0885  0.1110
    1SOL    HW2  166   0.339   4.634   0.609  1.1509  0.6600  0.0557
    1SOL    HW3  167   0.410   4.652   0.742  0.1354  1.3751  0.5110
    1SOL    MW4  168   0.339   4.660   0.693  0.2569  0.3338  0.1565
    1SOL     OW  169   1.753   2.940   0.347  0.2340  0.2204  0.0856
    1SOL    HW2  170   1.827   2.919   0.289 -0.2074 -0.4884 -0.2315
    1SOL    HW3  171   1.724   2.855   0.379  0.8494  0.6419  1.8319
    1SOL    MW4  172   1.759   2.926   0.343  0.2569  0.1824  0.2742
    1SOL     OW  173   2.509   4.332   0.450  0.4204 -0.2363  0.0216
    1SOL    HW2  174   2.592   4.376   0.470 -0.2213  1.0742 -0.1434
    1SOL    HW3  175   2.532   4.239   0.446  1.6774  0.0047  1.0352
    1SOL    MW4  176   2.523   4.326   0.453  0.5014 -0.0315  0.1336
    1SOL     OW  177   0.647   1.218   0.499  0.4242 -0.0413  0.4163
    1SOL    HW2  178   0.562   1.250   0.469 -0.1237  0.4346  2.3672
    1SOL    HW3  179   0.645   1.124   0.485 -0.2798  0.0217  0.1092
    1SOL    MW4  180   0.636   1.210   0.493  0.2590  0.0297  0.6332
    1SOL     OW  181   3.338   0.780   0.824  0.3387 -0.0095 -0.2500
    1SOL    HW2  182   3.343   0.685   0.813  0.1553 -0.0143 -0.2826
    1SOL    HW3  183   3.418   0.813   0.784  0.7699 -0.2126  0.4220
    1SOL    MW4  184   3.350   0.771   0.817  0.3715 -0.0369 -0.1658
    1SOL     OW  185   1.782   3.223   0.748  0.1335  0.4362 -0.1542
    1SOL    HW2  186   1.797   3.221   0.653  0.1587  0.3202 -0.1472
    1SOL    HW3  187   1.712   3.159   0.762 -0.3156  0.9082 -0.1778
    1SOL    MW4  188   1.774   3.214   0.737  0.0775  0.4833 -0.1564
    1SOL     OW  189   2.018   2.807   0.761  0.1473  0.4870 -0.3729
    1SOL    HW2  190   2.049   2.825   0.672  1.0647 -0.4948 -0.2518
    1SOL    HW3  191   2.093   2.770   0.806  0.0579  2.1359  1.1984
    1SOL    MW4  192   2.032   2.805   0.755  0.2565  0.5748 -0.1496
    1SOL     OW  193   1.998   2.123   0.497 -0.1707 -0.0391  0.6797
    1SOL    HW2  194   2.071   2.169   0.455 -0.0881  0.3759  1.2757
    1SOL    HW3  195   2.020   2.122   0.590 -0.2605 -1.1283  0.7039
    1SOL    MW4  196   2.010   2.129   0.503 -0.1719 -0.1280  0.7616
    1SOL     OW  197   3.585   1.922   0.854 -0.1786  0.3229 -0.5045
    1SOL    HW2  198   3.653   1.981   0.821 -0.4405  0.3120 -1.0677
    1SOL    HW3  199   3.605   1.837   0.814  0.5182 -0.1061  0.7394
    1SOL    MW4  200   3.597   1.919   0.844 -0.1214  0.2648 -0.4147
    1SOL     OW  201   0.234   2.816   0.723  0.2032  0.1322 -0.0408
    1SOL    HW2  202   0.315   2.778   0.758  0.4401  0.9312  0.2925
    1SOL    HW3  203   0.236   2.907   0.752 -0.9257  0.1035  0.1470
    1SOL    MW4  204   0.245   2.823   0.731  0.0855  0.2339  0.0280
    1SOL     OW  205   1.548   4.274   0.489 -0.2917 -0.7330 -0.1685
    1SOL    HW2  206   1.469   4.267   0.436 -0.9504 -1.0170  0.8443
    1SOL    HW3  207   1.599   4.345   0.447 -1.5595  0.1823 -0.1849
    1SOL    MW4  208   1.544   4.283   0.476 -0.5459 -0.6499 -0.0371
    1SOL     OW  209   3.900   3.196   0.512 -0.1212 -0.3442  0.5740
    1SOL    HW2  210   3.812   3.161   0.497 -0.3455  0.5304 -0.2149
    1SOL    HW3  211   3.893   3.289   0.490  1.0833 -0.3362  0.1690
    1SOL    MW4  212   3.887   3.203   0.507  0.0081 -0.2279  0.4165
    1SOL     OW  213   2.454   2.070   0.735  0.3138 -0.1012 -0.0173
    1SOL    HW2  214   2.456   2.056   0.641 -0.6955 -0.2273 -0.0335
    1SOL    HW3  215   2.544   2.058   0.764  0.5866 -0.2825 -0.9368
    1SOL    MW4  216   2.466   2.066   0.727  0.2165 -0.1416 -0.1407
    1SOL     OW  217   2.887   3.051   0.854  0.0707 -0.2620 -0.3940
    1SOL    HW2  218   2.808   3.097   0.827  1.0190  1.3536 -0.4685
    1SOL    HW3  219   2.885   2.968   0.805 -1.7745 -0.4234 -0.0579
    1SOL    MW4  220   2.876   3.046   0.844 -0.0477 -0.0706 -0.3594
    1SOL     OW  221   0.907   4.247   0.828  0.0512  0.6129  0.0277
    1SOL    HW2  222   0.911   4.158   0.794  0.4976  0.4201  0.5751
    1SOL    HW3  223   0.981   4.292   0.787  1.2292  0.0922  1.5331
    1SOL    MW4  224   0.917   4.241   0.818  0.2655  0.5188  0.2986
    1SOL     OW  225   3.158   1.262   0.424 -0.3474 -0.0855 -0.1462
    1SOL    HW2  226   3.237   1.315   0.435 -0.5207  0.6172 -2.1865
    1SOL    HW3  227   3.087   1.326   0.418 -0.7789 -0.6147 -0.6877
    1SOL    MW4  228   3.159   1.277   0.425 -0.4272 -0.0627 -0.4868
    1SOL     OW  229   1.575   3.395   0.235 -0.2458  0.2052  0.2793
    1SOL    HW2  230   1.567   3.310   0.192  0.6009 -1.3857  3.1534
    1SOL    HW3  231   1.500   3.400   0.294 -0.2183  1.3961  0.2257
    1SOL    MW4  232   1.564   3.384   0.237 -0.1304  0.1523  0.6514
    1SOL     OW  233   2.030   0.199   0.388  0.0672  0.1062  0.7003
    1SOL    HW2  234   2.049   0.240   0.303 -2.5238  0.5716  0.2903
    1SOL    HW3  235   2.110   0.153   0.411  1.3079  1.1830 -1.3123
    1SOL    MW4  236   2.043   0.199   0.380 -0.1109  0.3097  0.3806
    1SOL     OW  237   0.431   4.017   0.441  0.4259 -0.0539 -0.6958
    1SOL    HW2  238   0.374   4.093   0.448  0.7657  0.1834 -0.4674
    1SOL    HW3  239   0.520   4.054   0.440  0.5858 -0.4370 -0.7284
    1SOL    MW4  240   0.435   4.032   0.442  0.4918 -0.0730 -0.6700
    1SOL     OW  241   0.387   2.502   0.533  0.6327  0.3470 -0.1621
    1SOL    HW2  242   0.360   2.588   0.501  0.6168  0.0057 -1.0966
    1SOL    HW3  243   0.327   2.441   0.489  1.2331 -0.2048 -0.2169
    1SOL    MW4  244   0.376   2.505   0.523  0.7098  0.2294 -0.2927
    1SOL     OW  245   1.476   0.866   0.481  0.0013  0.1935 -0.0991
    1SOL    HW2  246   1.421   0.790   0.462  0.6100 -0.7353  1.7142
    1SOL    HW3  247   1.442   0.900   0.564 -0.0909  1.7474 -0.7611
    1SOL    MW4  248   1.464   0.860   0.489  0.0695  0.2759  0.0528
    1SOL     OW  249   0.236   3.864   0.850  0.5482  0.0477  0.0606
    1SOL    HW2  250   0.245   3.866   0.945 -0.6379  0.1446  0.1768
    1SOL    HW3  251   0.314   3.909   0.818  1.4101 -0.7889  0.9535
    1SOL    MW4  252   0.247   3.870   0.858  0.5054 -0.0496  0.1937
    1SOL     OW  253   2.244   0.818   0.473 -0.3563 -0.0746 -0.0288
    1SOL    HW2  254   2.245   0.726   0.447  1.2782  0.2549 -1.2077
    1SOL    HW3  255   2.334   0.848   0.460 -1.1541  2.0226 -0.9404
    1SOL    MW4  256   2.256   0.810   0.468 -0.2456  0.2456 -0.3046
    1SOL     OW  257   0.447   0.925   0.792 -0.1087  0.6006 -0.0821
    1SOL    HW2  258   0.525   0.883   0.827  0.9902  0.9073 -2.0676
    1SOL    HW3  259   0.382   0.856   0.787 -0.0680  0.4000  1.8408
    1SOL    MW4  260   0.449   0.910   0.796  0.0417  0.6146 -0.0903
    1SOL     OW  261   2.857   4.000   0.440 -0.1095 -0.0967 -0.3234
    1SOL    HW2  262   2.762   4.003   0.431 -0.2357 -0.3405  0.8941
    1SOL    HW3  263   2.881   4.087   0.471 -0.0801 -0.4372  0.6295
    1SOL    MW4  264   2.848   4.012   0.443 -0.1221 -0.1745 -0.0370
    1SOL     OW  265   1.358   1.417   0.403  0.0279  0.4435  0.4930
    1SOL    HW2  266   1.275   1.395   0.446 -0.2724 -0.8754 -0.7249
    1SOL    HW3  267   1.424   1.371   0.455 -0.1405  0.4004  0.6739
    1SOL    MW4  268   1.356   1.408   0.416 -0.0339  0.2638  0.3561
    1SOL     OW  269   1.351   3.232   0.727  0.4640  0.0617  0.1680
    1SOL    HW2  270   1.343   3.204   0.636 -0.5138 -0.8274  0.5097
    1SOL    HW3  271   1.274   3.193   0.770 -0.2899  2.3181  0.9079
    1SOL    MW4  272   1.340   3.223   0.721  0.2356  0.2422  0.3107
    1SOL     OW  273   4.470   0.526   0.442 -0.0343 -0.0911 -0.0077
    1SOL    HW2  274   4.561   0.555   0.447 -0.2575  0.4598  0.8620
    1SOL    HW3  275   4.463   0.486   0.355  0.9864  0.0271 -0.1520
    1SOL    MW4  276   4.481   0.525   0.431  0.0710 -0.0029  0.0880
    1SOL     OW  277   2.729   4.457   0.549  0.5163 -0.5786 -0.0374
    1SOL    HW2  278   2.783   4.504   0.484 -0.5209  0.6886 -0.0106
    1SOL    HW3  279   2.786   4.451   0.626  0.3725  1.4933  0.2774
    1SOL    MW4  280   2.744   4.463   0.550  0.3603 -0.1378  0.0077
    1SOL     OW  281   1.123   3.112   0.831  0.4319  0.2451 -0.2464
    1SOL    HW2  282   1.035   3.146   0.814  0.6853  0.5817 -0.9519
    1SOL    HW3  283   1.124   3.026   0.789  0.5847  0.4356 -0.6314
    1SOL    MW4  284   1.111   3.105   0.823  0.4854  0.3147 -0.3902
    1SOL     OW  285   1.792   1.657   0.078 -0.1180 -0.3865 -0.3808
    1SOL    HW2  286   1.719   1.595   0.083  0.3731 -0.9677 -0.3938
    1SOL    HW3  287   1.866   1.610   0.116 -0.4246  1.2483  2.4313
    1SOL    MW4  288   1.792   1.643   0.084 -0.0938 -0.2474 -0.0115
    1SOL     OW  289   2.037   1.531   0.190 -0.0440 -0.2713  0.3073
    1SOL    HW2  290   1.988   1.497   0.265 -0.4048 -1.7730 -0.5843
    1SOL    HW3  291   2.092   1.458   0.162 -0.2659  0.1003 -1.1767
    1SOL    MW4  292   2.038   1.516   0.196 -0.1209 -0.4203 -0.0061
    1SOL     OW  293   0.639   3.044   0.798 -0.7194  0.2756 -0.4878
    1SOL    HW2  294   0.572   3.109   0.774 -0.0819  1.5331  1.0141
    1SOL    HW3  295   0.649   3.054   0.893  0.8087 -0.6519 -0.5345
    1SOL    MW4  296   0.632   3.054   0.808 -0.4337  0.3192 -0.2958
    1SOL     OW  297   0.534   3.702   0.215 -0.0894  0.5950 -0.3432
    1SOL    HW2  298   0.612   3.737   0.258 -1.1125  1.5177  0.8310
    1SOL    HW3  299   0.468   3.770   0.229 -0.8347  0.2737 -2.1880
    1SOL    MW4  300   0.536   3.716   0.223 -0.3226  0.6742 -0.4317
    1SOL     OW  301   1.123   3.613   0.470  0.1805 -0.0585  0.0668
    1SOL    HW2  302   1.121   3.614   0.566 -0.3733  0.0247  0.0558
    1SOL    HW3  303   1.092   3.700   0.444  1.2245  0.2446 -0.1764
    1SOL    MW4  304   1.118   3.625   0.479  0.2451 -0.0074  0.0333
    1SOL     OW  305   1.769   0.870   0.788  0.1169 -0.0746  0.2081
    1SOL    HW2  306   1.782   0.963   0.810  1.6758 -0.2224  0.0106
    1SOL    HW3  307   1.844   0.826   0.829 -0.8830 -1.3187  0.7139
    1SOL    MW4  308   1.781   0.877   0.796  0.1906 -0.2583  0.2487
    1SOL     OW  309   0.022   4.006   0.764  0.0091 -0.2487 -0.4376
    1SOL    HW2  310  -0.049   3.955   0.803  0.3933 -0.8551 -0.5265
    1SOL    HW3  311   0.102   3.966   0.798  0.3127  0.5627 -0.1667
    1SOL    MW4  312   0.024   3.994   0.774  0.0999 -0.2215 -0.4136
    1SOL     OW  313   3.327   4.638   0.863 -0.3148  0.0743 -0.2128
    1SOL    HW2  314   3.322   4.626   0.957  0.3642  0.6151 -0.1026
    1SOL    HW3  315   3.413   4.677   0.848  0.0841 -1.1025 -1.1702
    1SOL    MW4  316   3.338   4.641   0.873 -0.1726 -0.0100 -0.3245
    1SOL     OW  317   4.458   2.390   0.491  0.2349  0.1114 -0.0345
    1SOL    HW2  318   4.406   2.310   0.496  0.0723  0.2177 -0.0220
    1SOL    HW3  319   4.533   2.366   0.438  0.0506  0.0217 -0.2558
    1SOL    MW4  320   4.461   2.376   0.485  0.1893  0.1135 -0.0620
    1SOL     OW  321   0.625   2.043   0.499  0.1546  0.0386  0.2239
    1SOL    HW2  322   0.538   2.081   0.489  0.0287 -0.2851  0.1187
    1SOL    HW3  323   0.621   1.959   0.454  0.2887 -0.3261  0.8908
    1SOL    MW4  324   0.613   2.037   0.492  0.1557 -0.0522  0.2980
    1SOL     OW  325   2.466   4.369   0.737 -0.1376  0.0961 -0.0177
    1SOL    HW2  326   2.396   4.304   0.721  0.3394 -0.9782  2.0720
    1SOL    HW3  327   2.504   4.385   0.650  0.0638 -2.8164 -0.5170
    1SOL    MW4  328   2.461   4.362   0.723 -0.0479 -0.4306  0.1921
    1SOL     OW  329   3.077   3.127   0.422 -0.2724  0.1852 -0.1710
    1SOL    HW2  330   3.124   3.202   0.384 -0.6201 -0.3393 -1.6667
    1SOL    HW3  331   3.137   3.053   0.409 -0.8088 -0.1760 -0.5705
    1SOL    MW4  332   3.091   3.127   0.415 -0.3889  0.0684 -0.4210
    1SOL     OW  333   2.590   4.065   0.460 -0.1266 -0.2033 -0.0826
    1SOL    HW2  334   2.602   4.058   0.555  0.7870  0.0706 -0.1646
    1SOL    HW3  335   2.531   3.994   0.437  0.6233 -1.0406  0.5276
    1SOL    MW4  336   2.584   4.055   0.470  0.0927 -0.2775 -0.0129
    1SOL     OW  337   4.282   1.268   0.763  0.1630 -0.0708  0.5355
    1SOL    HW2  338   4.348   1.202   0.783  0.7812 -0.4418 -2.4240
    1SOL    HW3  339   4.198   1.226   0.779  0.5950 -0.9154  0.5682
    1SOL    MW4  340   4.280   1.254   0.767  0.3014 -0.2310  0.1493
    1SOL     OW  341   1.978   1.255   0.516 -0.0290 -0.2827 -0.5075
    1SOL    HW2  342   1.907   1.305   0.475  0.3532  1.2931  0.7205
    1SOL    HW3  343   1.961   1.164   0.490 -1.2447  0.3578 -2.0295
    1SOL    MW4  344   1.966   1.249   0.507 -0.1389  0.0098 -0.5463
    1SOL     OW  345   2.671   1.841   0.365 -0.4923  0.1435  0.0676
    1SOL    HW2  346   2.679   1.772   0.430  0.0009  0.6117  0.5101
    1SOL    HW3  347   2.586   1.827   0.324  0.3022 -1.7336 -1.0008
    1SOL    MW4  348   2.661   1.830   0.368 -0.3221 -0.0424 -0.0150
    1SOL     OW  349   0.441   3.200   0.420  0.1793 -0.1124  0.6723
    1SOL    HW2  350   0.429   3.281   0.371  1.4393  0.4689  1.3030
    1SOL    HW3  351   0.357   3.154   0.411 -0.2612  0.8733 -0.3792
    1SOL    MW4  352   0.428   3.205   0.412  0.2874  0.0944  0.6168
    1SOL     OW  353   0.678   3.031   0.399  0.5861  0.2615  0.1330
    1SOL    HW2  354   0.623   3.109   0.394 -0.2177 -0.1831  1.5694
    1SOL    HW3  355   0.765   3.065   0.423  0.3031  0.7501  0.4926
    1SOL    MW4  356   0.682   3.046   0.402  0.4427  0.2670  0.3700
    1SOL     OW  357   2.438   2.842   0.743  0.0102 -0.0078  0.6760
    1SOL    HW2  358   2.452   2.924   0.791  0.0058  1.1217 -1.2215
    1SOL    HW3  359   2.520   2.793   0.755  0.7216  1.0692  0.2785
    1SOL    MW4  360   2.451   2.847   0.751  0.1035  0.2832  0.3733
    1SOL     OW  361   3.647   3.982   0.433  0.2854 -0.0544  0.1031
    1SOL    HW2  362   3.577   4.040   0.401 -0.4107 -0.6753  0.4865
    1SOL    HW3  363   3.637   3.984   0.528 -0.1043 -1.2554  0.0932
    1SOL    MW4  364   3.636   3.990   0.442  0.1421 -0.2944  0.1523
    1SOL     OW  365   3.348   3.162   0.817  0.1609 -0.2212 -0.0714
    1SOL    HW2  366   3.256   3.175   0.795  0.2829  0.3881 -0.2282
    1SOL    HW3  367   3.346   3.121   0.904 -0.2400  0.7270  0.3781
    1SOL    MW4  368   3.336   3.159   0.826  0.1242 -0.0157 -0.0328
    1SOL     OW  369   2.750   0.882   0.274 -0.8208  0.2178 -0.3622
    1SOL    HW2  370   2.723   0.949   0.211  0.3122  1.2757  0.2499
    1SOL    HW3  371   2.824   0.921   0.320 -0.0477 -1.5257 -0.0908
    1SOL    MW4  372   2.756   0.896   0.271 -0.5693  0.1273 -0.2456
    1SOL     OW  373   4.311   2.065   0.754  0.0741  0.0404 -0.0013
    1SOL    HW2  374   4.384   2.014   0.790 -1.0225 -1.6763 -0.1645
    1SOL    HW3  375   4.233   2.021   0.786 -0.8996  0.9153 -1.1317
    1SOL    MW4  376   4.311   2.052   0.763 -0.1988 -0.0706 -0.1720
    1SOL     OW  377   0.530   0.142   0.456 -0.1888  0.0141 -0.0217
    1SOL    HW2  378   0.606   0.149   0.398 -0.2436  0.9459  0.0093
    1SOL    HW3  379   0.489   0.059   0.432  0.9137 -0.5739  0.0527
    1SOL    MW4  380   0.535   0.132   0.445 -0.0506  0.0594 -0.0077
    1SOL     OW  381   4.272   3.115   0.784  0.3625 -0.1841  0.2677
    1SOL    HW2  382   4.194   3.163   0.758 -0.2790 -1.0328  0.6067
    1SOL    HW3  383   4.344   3.178   0.772 -0.1792  0.1426 -1.4327
    1SOL    MW4  384   4.271   3.130   0.779  0.2065 -0.2530  0.0880
    1SOL     OW  385   0.263   2.048   0.729 -0.9548 -0.3421 -0.0617
    1SOL    HW2  386   0.333   2.017   0.786 -0.3739 -0.1869 -0.6829
    1SOL    HW3  387   0.241   2.135   0.762 -1.0503 -0.5102  0.3123
    1SOL    MW4  388   0.269   2.056   0.741 -0.8907 -0.3436 -0.0944
    1SOL     OW  389   0.042   4.283   0.863  0.6357  0.0670  0.3269
    1SOL    HW2  390   0.022   4.283   0.957  2.0835 -0.1099  0.6562
    1SOL    HW3  391   0.027   4.193   0.836 -0.5047  0.2806  0.2152
    1SOL    MW4  392   0.037   4.271   0.872  0.6763  0.0715  0.3556
    1SOL     OW  393   2.256   2.522   0.490  0.2445 -0.2573  0.0678
    1SOL    HW2  394   2.262   2.511   0.585  2.8784 -0.4318 -0.0607
    1SOL    HW3  395   2.179   2.576   0.476  0.8967  1.3553  2.4557
    1SOL    MW4  396   2.247   2.528   0.501  0.6781 -0.0675  0.3659
    1SOL     OW  397   2.891   1.888   0.688 -0.1177 -0.0805 -0.0774
    1SOL    HW2  398   2.961   1.921   0.744 -0.9680 -2.1249  2.3051
    1SOL    HW3  399   2.818   1.948   0.703 -0.6028 -1.0618  1.7274
    1SOL    MW4  400   2.890   1.900   0.697 -0.2937 -0.4797  0.4751
    1SOL     OW  401   1.796   0.121   0.775 -0.3033 -0.4599 -0.3133
    1SOL    HW2  402   1.721   0.064   0.793 -0.9228  0.5914  0.4733
    1SOL    HW3  403   1.872   0.064   0.787 -0.9685 -1.5937 -1.3291
    1SOL    MW4  404   1.796   0.106   0.779 -0.4728 -0.4708 -0.3436
    1SOL     OW  405   2.274   0.038   0.443  0.4041  0.5229  0.2643
    1SOL    HW2  406   2.261  -0.043   0.393  0.3366 -1.2824  3.0756
    1SOL    HW3  407   2.367   0.058   0.433  0.5347 -0.2137 -0.0350
    1SOL    MW4  408   2.284   0.030   0.435  0.4125  0.1879  0.5957
    1SOL     OW  409   1.550   2.014   0.770  0.1078  0.3406 -0.2190
    1SOL    HW2  410   1.529   2.048   0.683 -0.8298 -1.1711 -0.5902
    1SOL    HW3  411   1.467   1.980   0.803  0.4063  1.0697  1.3601
    1SOL    MW4  412   1.536   2.014   0.763  0.0234  0.2375 -0.0595
    1SOL     OW  413   1.069   1.324   0.165 -0.5695 -0.4058  0.4502
    1SOL    HW2  414   1.019   1.317   0.084 -0.4648  0.0679  0.3425
    1SOL    HW3  415   1.003   1.340   0.232 -0.7214 -1.4519  0.5623
    1SOL    MW4  416   1.054   1.325   0.163 -0.5757 -0.4814  0.4508
    1SOL     OW  417   2.054   3.617   0.454  0.0745 -0.2064  0.1784
    1SOL    HW2  418   1.977   3.582   0.409 -0.5735  1.7391 -0.2641
    1SOL    HW3  419   2.034   3.606   0.547 -0.6328  0.0478  0.0622
    1SOL    MW4  420   2.041   3.611   0.460 -0.1042  0.0837  0.1047
    1SOL     OW  421   1.711   4.042   0.457 -0.2305  0.5727 -1.1898
    1SOL    HW2  422   1.662   4.124   0.459  0.1696  0.8097 -0.7190
    1SOL    HW3  423   1.737   4.028   0.548 -0.2639 -0.0574 -1.2769
    1SOL    MW4  424   1.708   4.051   0.469 -0.1820  0.5207 -1.1392
    1SOL     OW  425   1.100   1.539   0.875 -0.3324  0.5067 -0.3737
    1SOL    HW2  426   1.124   1.448   0.858 -0.9449  0.3964 -0.6582
    1SOL    HW3  427   1.180   1.589   0.858  0.6773 -0.2246  2.0272
    1SOL    MW4  428   1.114   1.533   0.871 -0.2798  0.3958 -0.0945
    1SOL     OW  429   1.342   0.074   0.722 -0.0613  0.0125  0.4980
    1SOL    HW2  430   1.422   0.040   0.762 -0.5631  0.2405  1.7101
    1SOL    HW3  431   1.335   0.164   0.756 -1.4447 -0.3963  1.3320
    1SOL    MW4  432   1.352   0.082   0.732 -0.3101 -0.0114  0.7679
    1SOL     OW  433   3.748   1.788   0.489  0.3930  0.2386 -0.0400
    1SOL    HW2  434   3.838   1.780   0.458  0.2793 -0.5571 -0.1562
    1SOL    HW3  435   3.726   1.702   0.525  0.1578  0.8418  1.2866
    1SOL    MW4  436   3.757   1.776   0.490  0.3471  0.2131  0.1197
    1SOL     OW  437   1.345   1.474   0.120 -0.4080 -0.1464 -0.1223
    1SOL    HW2  438   1.360   1.450   0.211  1.1761  0.8671 -0.0981
    1SOL    HW3  439   1.254   1.448   0.103 -0.4590 -1.0898  1.4874
    1SOL    MW4  440   1.335   1.468   0.129 -0.2056 -0.1372  0.0933
    1SOL     OW  441   0.920   3.999   0.696  0.5518  0.1670  0.1368
    1SOL    HW2  442   0.835   3.961   0.714  0.0483  0.2373 -1.9269
    1SOL    HW3  443   0.982   3.947   0.747 -0.4035 -1.8029 -0.6626
    1SOL    MW4  444   0.917   3.987   0.705  0.3592 -0.0837 -0.2409
    1SOL     OW  445   4.036   2.732   0.833 -0.2711  0.1703  0.4270
    1SOL    HW2  446   4.054   2.640   0.812  1.8275  0.1275  2.2451
    1SOL    HW3  447   4.110   2.780   0.795 -1.4341  1.1528 -0.6420
    1SOL    MW4  448   4.048   2.726   0.825 -0.1483  0.2944  0.5259
    1SOL     OW  449   4.220   3.849   0.336  0.2493 -0.0338  0.2739
    1SOL    HW2  450   4.200   3.895   0.418 -1.0174 -0.0580 -0.0221
    1SOL    HW3  451   4.233   3.758   0.362 -0.0511 -0.0227  0.4532
    1SOL    MW4  452   4.219   3.843   0.350  0.0424 -0.0353  0.2585
    1SOL     OW  453   1.162   0.440   0.486  0.3071 -0.1057  0.3995
    1SOL    HW2  454   1.230   0.373   0.487  0.5732  0.1216 -1.3788
    1SOL    HW3  455   1.147   0.460   0.578  1.2580 -1.5591  0.8890
    1SOL    MW4  456   1.169   0.434   0.498  0.4678 -0.2675  0.2295
    1SOL     OW  457   2.674   0.855   0.713  0.1579 -0.3899  0.0583
    1SOL    HW2  458   2.708   0.940   0.742  0.3070 -0.7189  0.8482
    1SOL    HW3  459   2.734   0.791   0.750 -1.0503 -0.9514  1.0636
    1SOL    MW4  460   2.686   0.858   0.722  0.0181 -0.5074  0.2951
    1SOL     OW  461   1.800   1.942   0.835  0.2972  0.0292 -0.3225
    1SOL    HW2  462   1.713   1.966   0.803 -0.2486 -1.1990  0.2233
    1SOL    HW3  463   1.814   1.852   0.803  0.6709 -0.3900  0.9933
    1SOL    MW4  464   1.790   1.933   0.826  0.2747 -0.1882 -0.0769
    1SOL     OW  465   1.979   0.641   0.145  0.7108  0.0670 -0.3080
    1SOL    HW2  466   1.910   0.613   0.205  0.8117  0.1178 -0.1697
    1SOL    HW3  467   2.029   0.561   0.129  0.4063 -0.0496 -0.6898
    1SOL    MW4  468   1.976   0.626   0.151  0.6838  0.0584 -0.3401
    1SOL     OW  469   0.892   3.469   0.801  0.2000  0.0170  0.2206
    1SOL    HW2  470   0.876   3.375   0.794  0.1223  0.1108 -1.0217
    1SOL    HW3  471   0.805   3.508   0.811  0.1298  0.0367 -0.4103
    1SOL    MW4  472   0.879   3.462   0.801  0.1805  0.0319 -0.0266
    1SOL     OW  473   2.040   1.245   0.781  0.2949  0.3827 -0.4361
    1SOL    HW2  474   2.017   1.253   0.688 -0.1399  0.6225 -0.3114
    1SOL    HW3  475   2.133   1.222   0.781  0.1053 -0.4115 -0.9484
    1SOL    MW4  476   2.049   1.243   0.769  0.2127  0.3096 -0.4872
    1SOL     OW  477   4.457   3.417   0.466  0.3297 -0.4069 -0.2752
    1SOL    HW2  478   4.459   3.374   0.381 -0.2632 -0.7601 -0.1129
    1SOL    HW3  479   4.538   3.468   0.469  0.2481 -0.2180 -1.1419
    1SOL    MW4  480   4.468   3.418   0.455  0.2408 -0.4287 -0.3681
    1SOL     OW  481   0.400   1.642   0.783  0.0960 -0.0521 -0.2067
    1SOL    HW2  482   0.489   1.608   0.793 -0.5513 -1.1232  2.2272
    1SOL    HW3  483   0.405   1.732   0.813  0.6631  0.3975 -1.5794
    1SOL    MW4  484   0.413   1.649   0.788  0.0854 -0.1340 -0.0666
    1SOL     OW  485   0.860   4.587   0.424 -0.0449 -0.5199  0.4366
    1SOL    HW2  486   0.816   4.640   0.357 -2.8407 -1.2682  1.6135
    1SOL    HW3  487   0.917   4.649   0.470  0.2406  0.4527 -1.1703
    1SOL    MW4  488   0.862   4.602   0.421 -0.3761 -0.4902  0.3798
    1SOL     OW  489   1.305   2.421   0.725 -0.3752 -0.2133  0.1013
    1SOL    HW2  490   1.314   2.405   0.631  0.6011 -0.8475  0.2995
    1SOL    HW3  491   1.308   2.516   0.733  1.0850 -0.2025 -0.3668
    1SOL    MW4  492   1.307   2.431   0.713 -0.0536 -0.2956  0.0657
    1SOL     OW  493   1.623   2.712   0.436  0.4391 -0.1458 -0.5530
    1SOL    HW2  494   1.651   2.622   0.452 -0.0806 -0.2883 -0.4202
    1SOL    HW3  495   1.597   2.744   0.523  0.4132  0.0559 -0.6355
    1SOL    MW4  496   1.623   2.704   0.450  0.3670 -0.1378 -0.5464
    1SOL     OW  497   3.125   0.032   0.462  0.1308 -0.0923 -0.3247
    1SOL    HW2  498   3.089   0.118   0.444  0.4839 -0.0582 -0.8730
    1SOL    HW3  499   3.127   0.026   0.558  1.2473  0.9970 -0.2690
    1SOL    MW4  500   3.121   0.042   0.472  0.3250  0.0559 -0.3897
    1SOL     OW  501   2.902   4.421   0.738 -0.0293  0.6786 -0.1245
    1SOL    HW2  502   2.898   4.505   0.782 -1.9710  1.1082 -1.0566
    1SOL    HW3  503   2.837   4.367   0.783  0.2430  0.1093 -0.4022
    1SOL    MW4  504   2.893   4.425   0.749 -0.2496  0.6604 -0.2841
    1SOL     OW  505   4.491   1.641   0.798 -0.0403 -0.1437 -0.3867
    1SOL    HW2  506   4.412   1.593   0.826  1.1264 -0.8926  1.6919
    1SOL    HW3  507   4.564   1.585   0.825  1.2493  1.0648 -1.2940
    1SOL    MW4  508   4.490   1.627   0.805  0.2838 -0.0830 -0.2322
    1SOL     OW  509   1.592   1.284   0.760 -0.4824  0.6782  0.2728
    1SOL    HW2  510   1.591   1.253   0.670  1.0704  0.9234  0.1498
    1SOL    HW3  511   1.522   1.236   0.804 -0.2059 -0.6168 -0.6811
    1SOL    MW4  512   1.583   1.274   0.754 -0.2410  0.5397  0.1307
    1SOL     OW  513   1.352   3.492   0.839  0.0555  0.1435 -0.1285
    1SOL    HW2  514   1.425   3.544   0.805 -0.3187  0.0073 -1.1498
    1SOL    HW3  515   1.353   3.412   0.786 -1.9743  0.9432 -1.4130
    1SOL    MW4  516   1.362   3.488   0.828 -0.2617  0.2310 -0.4327
    1SOL     OW  517   3.853   2.354   0.841  0.2271  0.0076 -0.3899
    1SOL    HW2  518   3.776   2.397   0.804  0.5799 -0.0522 -1.2067
    1SOL    HW3  519   3.840   2.261   0.822  0.0655 -0.1120  0.2791
    1SOL    MW4  520   3.841   2.347   0.834  0.2522 -0.0162 -0.4094
    1SOL     OW  521   2.005   4.611   0.828  0.4556 -0.3649  0.1588
    1SOL    HW2  522   2.072   4.650   0.773 -0.0713 -0.3554 -0.4854
    1SOL    HW3  523   2.002   4.519   0.801 -0.2422 -0.2204 -0.2855
    1SOL    MW4  524   2.013   4.604   0.817  0.2942 -0.3448  0.0151
    1SOL     OW  525   2.739   0.469   0.501 -0.0312 -0.1796  0.1065
    1SOL    HW2  526   2.800   0.452   0.573 -1.4259  0.8287  1.5623
    1SOL    HW3  527   2.794   0.505   0.431  1.1791 -0.1193  1.0644
    1SOL    MW4  528   2.754   0.472   0.501 -0.0558 -0.0386  0.4250
    1SOL     OW  529   0.730   0.136   0.263 -0.1779  0.3674  0.3406
    1SOL    HW2  530   0.717   0.126   0.169 -1.0943 -0.2216  0.5242
    1SOL    HW3  531   0.796   0.206   0.271  1.4156 -0.9566 -0.7913
    1SOL    MW4  532   0.737   0.144   0.251 -0.0887  0.1150  0.2155
    1SOL     OW  533   0.684   2.047   0.772 -0.2168  0.1958  0.1374
    1SOL    HW2  534   0.666   2.038   0.679 -0.1622  0.4164  0.1064
    1SOL    HW3  535   0.676   2.141   0.789 -0.2724  0.1501  0.3634
    1SOL    MW4  536   0.680   2.058   0.762 -0.2170  0.2189  0.1631
    1SOL     OW  537   1.784   1.938   0.099 -0.5867  0.2280 -0.0075
    1SOL    HW2  538   1.817   1.978   0.019  0.9506 -0.8136  0.1025
    1SOL    HW3  539   1.797   1.844   0.087  0.7972  0.1400  1.9630
    1SOL    MW4  540   1.790   1.931   0.087 -0.2013  0.0789  0.2670
    1SOL     OW  541   2.386   1.787   0.343 -0.4894 -0.3203  0.0711
    1SOL    HW2  542   2.388   1.723   0.414 -0.1740  0.4298  0.7484
    1SOL    HW3  543   2.295   1.786   0.313 -1.0639  0.6075  1.6683
    1SOL    MW4  544   2.374   1.779   0.349 -0.5233 -0.0991  0.3712
    1SOL     OW  545   3.437   4.136   0.364  0.5174 -0.4288 -0.2714
    1SOL    HW2  546   3.472   4.224   0.377 -0.5014  0.2806 -2.0035
    1SOL    HW3  547   3.344   4.144   0.387  0.3956 -0.9980 -0.5584
    1SOL    MW4  548   3.429   4.149   0.368  0.3667 -0.4106 -0.5378
    1SOL     OW  549   2.140   1.774   0.217 -0.2227  0.8784 -0.5584
    1SOL    HW2  550   2.105   1.686   0.201 -1.7288  1.3093  0.2644
    1SOL    HW3  551   2.066   1.822   0.254  1.0643  2.0323  0.5275
    1SOL    MW4  552   2.125   1.768   0.220 -0.2520  1.0875 -0.3065
    1SOL     OW  553   2.672   0.411   0.176  0.0215  0.1517 -0.3900
    1SOL    HW2  554   2.748   0.461   0.207 -0.5238  0.1845  0.8950
    1SOL    HW3  555   2.635   0.465   0.106  0.9574  0.3135 -0.7713
    1SOL    MW4  556   2.677   0.425   0.171  0.0732  0.1774 -0.2708
    1SOL     OW  557   4.301   4.418   0.742 -0.1117  0.2674 -0.3597
    1SOL    HW2  558   4.372   4.365   0.778 -0.5778 -1.2248 -1.6038
    1SOL    HW3  559   4.324   4.508   0.766  1.2125 -0.3865  0.8948
    1SOL    MW4  560   4.313   4.423   0.750  0.0014 -0.0157 -0.3584
    1SOL     OW  561   1.508   0.755   0.821 -0.3609 -0.7369  0.2855
    1SOL    HW2  562   1.592   0.787   0.786 -0.9577  0.2182 -0.2886
    1SOL    HW3  563   1.444   0.819   0.791 -1.4049 -1.8300  0.1494
    1SOL    MW4  564   1.511   0.768   0.812 -0.5772 -0.7551  0.1918
    1SOL     OW  565   0.677   3.905   0.825  0.6615 -0.2005 -0.6497
    1SOL    HW2  566   0.599   3.951   0.793  0.0684  0.3736  1.5106
    1SOL    HW3  567   0.669   3.817   0.789 -0.5345  0.1118 -1.1902
    1SOL    MW4  568   0.666   3.899   0.816  0.4255 -0.0834 -0.4361
    1SOL     OW  569   1.357   3.443   0.452 -0.2465 -0.1511 -0.2003
    1SOL    HW2  570   1.427   3.490   0.498  1.0849 -0.2135 -2.0845
    1SOL    HW3  571   1.283   3.502   0.454  0.0948  0.2542  1.1369
    1SOL    MW4  572   1.357   3.457   0.458 -0.0257 -0.1061 -0.2725
    1SOL     OW  573   0.906   1.642   0.711  0.4115 -0.6618  0.7724
    1SOL    HW2  574   0.911   1.728   0.753  0.0993 -0.0069 -0.5223
    1SOL    HW3  575   0.965   1.587   0.763  2.5728  0.9469  0.1403
    1SOL    MW4  576   0.915   1.646   0.723  0.6554 -0.3631  0.5181
    1SOL     OW  577   4.303   1.409   0.519  0.2986  0.0702  0.2384
    1SOL    HW2  578   4.298   1.365   0.604 -0.3860 -0.1679  0.0719
    1SOL    HW3  579   4.388   1.382   0.484  1.2797  1.3794  1.5074
    1SOL    MW4  580   4.314   1.400   0.526  0.3376  0.2114  0.3839
    1SOL     OW  581   0.555   4.596   0.833 -0.2084 -0.0883  0.5084
    1SOL    HW2  582   0.579   4.617   0.923  0.8981  1.0901 -0.0570
    1SOL    HW3  583   0.598   4.512   0.816  0.1993  0.0501  0.8403
    1SOL    MW4  584   0.564   4.588   0.842 -0.0086  0.0849  0.4776
    1SOL     OW  585   0.223   3.597   0.766 -0.1239 -0.1077 -0.1716
    1SOL    HW2  586   0.226   3.688   0.793 -0.6185 -0.2155  0.2549
    1SOL    HW3  587   0.305   3.559   0.798 -0.4447 -0.0942  0.6795
    1SOL    MW4  588   0.234   3.604   0.774 -0.2315 -0.1202 -0.0031
    1SOL     OW  589   4.408   3.012   0.483  0.4438  0.0710 -0.0223
    1SOL    HW2  590   4.329   3.060   0.458  0.7328  1.6088  1.8493
    1SOL    HW3  591   4.382   2.961   0.559  0.8365 -0.6795 -0.3881
    1SOL    MW4  592   4.394   3.012   0.490  0.5341  0.1748  0.1763
    1SOL     OW  593   2.521   0.905   0.457  0.3939 -0.3596 -0.1401
    1SOL    HW2  594   2.566   0.881   0.538 -0.5286 -0.0101  0.4831
    1SOL    HW3  595   2.576   0.869   0.387  1.3495 -0.3958  0.6305
    1SOL    MW4  596   2.534   0.897   0.458  0.3984 -0.3183  0.0438
    1SOL     OW  597   3.949   3.463   0.503 -0.3340 -0.1179 -0.4044
    1SOL    HW2  598   3.898   3.543   0.497  0.0028  0.2238  1.1285
    1SOL    HW3  599   4.037   3.488   0.474 -0.4977 -0.2135 -1.0034
    1SOL    MW4  600   3.954   3.477   0.498 -0.3111 -0.0854 -0.2812
    1SOL     OW  601   2.715   2.049   0.836  0.0714 -0.2250  0.2388
    1SOL    HW2  602   2.764   2.129   0.852 -0.2349 -0.0145  0.1431
    1SOL    HW3  603   2.709   2.007   0.922 -0.5039  0.2821  0.4512
    1SOL    MW4  604   2.720   2.054   0.850 -0.0446 -0.1302  0.2542
    1SOL     OW  605   1.339   4.262   0.841 -0.8534  0.1515  0.0738
    1SOL    HW2  606   1.273   4.317   0.798 -0.6871 -1.5669 -2.4910
    1SOL    HW3  607   1.423   4.297   0.810 -0.7344 -1.1670 -1.1252
    1SOL    MW4  608   1.341   4.274   0.831 -0.8157 -0.2489 -0.4228
    1SOL     OW  609   2.440   3.836   0.370  0.0209  0.0934 -0.2905
    1SOL    HW2  610   2.345   3.839   0.381 -0.1788 -0.9582 -1.5903
    1SOL    HW3  611   2.466   3.753   0.408  0.2035 -0.3463 -1.3453
    1SOL    MW4  612   2.431   3.826   0.376  0.0186 -0.1035 -0.6012
    1SOL     OW  613   2.882   4.658   0.880  0.0069 -0.6187 -0.0808
    1SOL    HW2  614   2.961   4.693   0.839  0.1653 -0.1144  0.6296
    1SOL    HW3  615   2.809   4.694   0.829  0.1521  1.0447  0.8171
    1SOL    MW4  616   2.883   4.667   0.868  0.0470 -0.3333  0.1314
    1SOL     OW  617   2.268   4.433   0.343  0.5540  0.2687  0.5013
    1SOL    HW2  618   2.336   4.422   0.409  0.4268 -0.1581  0.5662
    1SOL    HW3  619   2.310   4.410   0.261  0.8511  1.2806  0.3612
    1SOL    MW4  620   2.282   4.429   0.341  0.5765  0.3462  0.4913
    1SOL     OW  621   2.445   3.847   0.850 -0.5997 -0.3185 -0.2451
    1SOL    HW2  622   2.359   3.859   0.811 -0.5909  0.7546  0.0518
    1SOL    HW3  623   2.471   3.758   0.825 -1.3179 -0.2468 -1.2623
    1SOL    MW4  624   2.437   3.837   0.841 -0.6933 -0.1676 -0.3401
    1SOL     OW  625   2.491   3.574   0.473  0.0864  0.0065  0.0400
    1SOL    HW2  626   2.568   3.527   0.441 -0.2460 -1.5394  1.4347
    1SOL    HW3  627   2.417   3.517   0.450 -0.3606  0.0383  1.3497
    1SOL    MW4  628   2.491   3.560   0.466 -0.0165 -0.1934  0.3968
    1SOL     OW  629   0.884   1.348   0.404 -0.3072 -0.4745  0.1009
    1SOL    HW2  630   0.805   1.309   0.439 -0.9631 -1.3629 -2.2604
    1SOL    HW3  631   0.878   1.441   0.427 -0.6305 -1.0260  2.3604
    1SOL    MW4  632   0.873   1.355   0.412 -0.4364 -0.6645  0.0875
    1SOL     OW  633   4.008   1.763   0.362  0.0705 -0.0846 -0.2384
    1SOL    HW2  634   4.090   1.784   0.317 -0.0927 -2.2665 -1.5844
    1SOL    HW3  635   4.031   1.691   0.421 -0.4689  0.5721  0.7943
    1SOL    MW4  636   4.022   1.757   0.364 -0.0219 -0.2857 -0.2797
    1SOL     OW  637   4.134   2.819   0.425 -0.6189  0.1612  0.7684
    1SOL    HW2  638   4.173   2.825   0.512  1.5149  2.4293 -0.2774
    1SOL    HW3  639   4.184   2.749   0.381 -0.1891  0.5430  0.6443
    1SOL    MW4  640   4.146   2.810   0.430 -0.2813  0.5107  0.6141
    1SOL     OW  641   3.641   1.531   0.545 -0.3540 -0.1806 -0.2350
    1SOL    HW2  642   3.562   1.503   0.498  0.2297 -0.7598 -0.8675
    1SOL    HW3  643   3.707   1.465   0.524  0.5369  0.7332 -0.3514
    1SOL    MW4  644   3.639   1.519   0.536 -0.1593 -0.1364 -0.3338
    1SOL     OW  645   2.647   0.100   0.744 -0.3601 -0.2070  0.0435
    1SOL    HW2  646   2.654   0.180   0.796  1.5678 -1.2336  1.4158
    1SOL    HW3  647   2.572   0.054   0.781 -1.5318  0.9682 -0.8049
    1SOL    MW4  648   2.638   0.105   0.756 -0.2604 -0.1874  0.1127
    1SOL     OW  649   3.397   1.442   0.449 -0.2502  0.4734  0.1476
    1SOL    HW2  650   3.341   1.515   0.475 -1.5198 -0.5566  0.3981
    1SOL    HW3  651   3.399   1.385   0.526 -0.6161 -0.5409 -0.5798
    1SOL    MW4  652   3.390   1.444   0.462 -0.4663  0.2037  0.0847
    1SOL     OW  653   1.311   1.930   0.873 -0.0817  0.0314  0.1264
    1SOL    HW2  654   1.312   1.843   0.834  2.1743 -0.0893  0.3678
    1SOL    HW3  655   1.328   1.915   0.966  0.4395  0.7292  0.1517
    1SOL    MW4  656   1.313   1.917   0.880  0.2847  0.1073  0.1616
    1SOL     OW  657   0.458   1.910   0.881 -0.6301 -0.0957 -0.1756
    1SOL    HW2  658   0.536   1.963   0.864  0.1512 -1.6532 -1.5791
    1SOL    HW3  659   0.452   1.906   0.977  2.3895 -1.8847  0.0082
    1SOL    MW4  660   0.468   1.917   0.892 -0.1286 -0.5372 -0.3365
    1SOL     OW  661   4.257   4.289   0.478  0.0286  0.2760 -0.2600
    1SOL    HW2  662   4.263   4.347   0.553  0.2134 -2.2887  1.7683
    1SOL    HW3  663   4.342   4.244   0.476 -0.0630  0.1367 -1.8896
    1SOL    MW4  664   4.269   4.291   0.487  0.0405 -0.0811 -0.2074
    1SOL     OW  665   0.874   3.191   0.745  0.5362 -0.5055  0.4597
    1SOL    HW2  666   0.892   3.167   0.654  0.7124 -2.7886  1.0563
    1SOL    HW3  667   0.795   3.142   0.767  0.4420  0.1069  1.5118
    1SOL    MW4  668   0.866   3.181   0.736  0.5470 -0.7257  0.6773
    1SOL     OW  669   1.802   3.461   0.406 -0.4433 -0.0132  0.2540
    1SOL    HW2  670   1.839   3.381   0.443 -0.4772  0.4003  1.1816
    1SOL    HW3  671   1.743   3.430   0.336 -0.1450 -0.7726  0.3319
    1SOL    MW4  672   1.799   3.446   0.401 -0.4085 -0.0589  0.3867
    1SOL     OW  673   2.896   3.829   0.798 -0.3277 -0.3985  0.2777
    1SOL    HW2  674   2.819   3.869   0.760 -0.5952  0.2482  1.4873
    1SOL    HW3  675   2.895   3.855   0.890  0.9886 -0.8936  0.4559
    1SOL    MW4  676   2.886   3.837   0.806 -0.1893 -0.3784  0.4607
    1SOL     OW  677   1.133   1.048   0.488 -0.0405  0.4317 -0.3294
    1SOL    HW2  678   1.050   1.000   0.477 -0.1634  0.7270 -0.7055
    1SOL    HW3  679   1.192   0.985   0.529 -0.4799  0.2467  0.0164
    1SOL    MW4  680   1.130   1.033   0.492 -0.1147  0.4462 -0.3334
    1SOL     OW  681   1.578   3.625   0.770 -0.8156 -0.4018 -0.1475
    1SOL    HW2  682   1.648   3.572   0.809  0.4676  0.3689 -1.3766
    1SOL    HW3  683   1.592   3.617   0.676 -1.0850  1.4909 -0.3576
    1SOL    MW4  684   1.589   3.617   0.763 -0.6819 -0.0503 -0.3374
    1SOL     OW  685   2.519   0.144   0.493 -0.4186  0.7123 -0.1956
    1SOL    HW2  686   2.495   0.237   0.492 -2.4919  0.3108  3.1258
    1SOL    HW3  687   2.563   0.132   0.577  1.1212 -1.0577 -1.2131
    1SOL    MW4  688   2.522   0.155   0.504 -0.4890  0.4258  0.1084
    1SOL     OW  689   0.275   0.289   0.540  0.1939  0.5219  0.5538
    1SOL    HW2  690   0.189   0.248   0.530 -0.3186  1.8775 -0.7436
    1SOL    HW3  691   0.337   0.222   0.512 -0.5627  0.1885 -0.3471
    1SOL    MW4  692   0.272   0.275   0.535  0.0264  0.6568  0.2638
    1SOL     OW  693   3.756   4.546   0.501 -0.1085  0.1269 -0.2333
    1SOL    HW2  694   3.679   4.493   0.483 -0.9390  1.5709 -1.0324
    1SOL    HW3  695   3.826   4.507   0.448 -0.0558 -1.7017  1.1488
    1SOL    MW4  696   3.755   4.534   0.491 -0.2112  0.0758 -0.1564
    1SOL     OW  697   2.438   2.342   0.897 -0.0420 -0.0840 -0.0900
    1SOL    HW2  698   2.432   2.262   0.845 -1.0192 -0.9626  1.3028
    1SOL    HW3  699   2.371   2.400   0.860 -1.7900 -1.2791  1.0897
    1SOL    MW4  700   2.428   2.339   0.885 -0.4017 -0.3579  0.2493
    1SOL     OW  701   4.239   3.581   0.453  0.1217  0.4738 -0.3250
    1SOL    HW2  702   4.243   3.604   0.546  0.7628  1.1298 -0.5140
    1SOL    HW3  703   4.312   3.519   0.441 -0.7519 -0.6115 -0.1175
    1SOL    MW4  704   4.250   3.576   0.464  0.0911  0.4175 -0.3226
    1SOL     OW  705   3.124   1.954   0.823 -0.1705  0.2336 -0.3580
    1SOL    HW2  706   3.150   1.957   0.916  0.3004 -0.2057 -0.4720
    1SOL    HW3  707   3.203   1.981   0.776 -0.1645 -0.3396 -0.6722
    1SOL    MW4  708   3.138   1.958   0.829 -0.1075  0.1001 -0.4145
    1SOL     OW  709   2.714   3.457   0.329  0.3049 -0.0866  0.4972
    1SOL    HW2  710   2.729   3.368   0.362  1.5929  0.2309  0.7871
    1SOL    HW3  711   2.795   3.504   0.348  0.3470  0.6475 -1.3402
    1SOL    MW4  712   2.727   3.451   0.336  0.4804  0.0522  0.2930
    1SOL     OW  713   1.762   4.460   0.432 -0.2907  0.1367  0.2797
    1SOL    HW2  714   1.848   4.419   0.421  0.4060  1.5550  0.3109
    1SOL    HW3  715   1.781   4.547   0.466 -1.8204 -0.0004  1.5774
    1SOL    MW4  716   1.776   4.466   0.435 -0.4007  0.3057  0.4550
    1SOL     OW  717   3.165   2.705   0.839  0.2850 -0.0876 -0.0807
    1SOL    HW2  718   3.203   2.633   0.789  1.0480 -0.3365  0.8414
    1SOL    HW3  719   3.222   2.780   0.819  0.7810 -0.2661  0.6733
    1SOL    MW4  720   3.178   2.706   0.829  0.4511 -0.1442  0.1405
    1SOL     OW  721   2.693   0.354   0.850 -0.0497 -0.4727  0.6123
    1SOL    HW2  722   2.690   0.378   0.943  2.1034 -1.1041  0.8666
    1SOL    HW3  723   2.785   0.360   0.826 -0.3155 -2.1363 -1.0035
    1SOL    MW4  724   2.704   0.358   0.859  0.1993 -0.7755  0.4327
    1SOL     OW  725   3.228   2.481   0.673  0.1080 -0.0896 -0.6031
    1SOL    HW2  726   3.303   2.431   0.707 -0.2569 -0.1173  0.1777
    1SOL    HW3  727   3.157   2.417   0.669 -0.1373  0.1687 -0.4027
    1SOL    MW4  728   3.228   2.466   0.677  0.0277 -0.0594 -0.4736
    1SOL     OW  729   1.261   1.742   0.156  0.3803 -0.1830 -0.3658
    1SOL    HW2  730   1.304   1.657   0.149  1.3447  0.3035 -0.4441
    1SOL    HW3  731   1.330   1.805   0.138 -0.7560  0.5705 -2.2022
    1SOL    MW4  732   1.276   1.739   0.153  0.3576 -0.0194 -0.6184
    1SOL     OW  733   0.722   3.805   0.406 -0.3936  0.4166 -0.3382
    1SOL    HW2  734   0.689   3.892   0.384 -0.5578  0.3761 -0.2512
    1SOL    HW3  735   0.813   3.820   0.434 -0.0979  0.4389 -1.2848
    1SOL    MW4  736   0.730   3.819   0.407 -0.3762  0.4144 -0.4516
    1SOL     OW  737   1.785   2.691   0.859 -0.5725 -0.2677  0.1597
    1SOL    HW2  738   1.718   2.729   0.803 -0.0629 -1.0189 -0.9701
    1SOL    HW3  739   1.867   2.730   0.828 -0.4920  0.8531  1.7015
    1SOL    MW4  740   1.787   2.701   0.848 -0.4946 -0.2189  0.2140
    1SOL     OW  741   2.489   3.572   0.758 -0.1345  0.1240  0.2946
    1SOL    HW2  742   2.484   3.574   0.663  0.2938 -0.9751  0.2458
    1SOL    HW3  743   2.563   3.514   0.778 -1.2709 -1.0183  1.3024
    1SOL    MW4  744   2.498   3.564   0.748 -0.2279 -0.1719  0.4211
    1SOL     OW  745   2.679   3.173   0.716 -0.7179 -0.0590 -0.1107
    1SOL    HW2  746   2.710   3.162   0.626  0.2320  1.5901 -0.0014
    1SOL    HW3  747   2.711   3.259   0.743 -3.1643  0.5889  0.9374
    1SOL    MW4  748   2.687   3.183   0.708 -0.9151  0.2437  0.0420
    1SOL     OW  749   2.702   4.249   0.854 -0.2412  0.1190 -0.0097
    1SOL    HW2  750   2.700   4.258   0.949  0.6049 -1.3591  0.1741
    1SOL    HW3  751   2.621   4.291   0.824 -0.0090  1.5174  1.2614
    1SOL    MW4  752   2.691   4.256   0.863 -0.0989  0.1082  0.1822
    1SOL     OW  753   0.266   3.800   0.352  0.2025 -0.3904 -0.4540
    1SOL    HW2  754   0.190   3.848   0.319 -0.1737 -0.5960  0.1073
    1SOL    HW3  755   0.321   3.867   0.391 -0.6612 -0.5030  0.9684
    1SOL    MW4  756   0.263   3.815   0.352  0.0389 -0.4325 -0.1923
    1SOL     OW  757   1.564   4.374   0.739  0.2142  0.0223 -0.3011
    1SOL    HW2  758   1.559   4.357   0.645  0.5639 -0.4566 -0.2312
    1SOL    HW3  759   1.647   4.337   0.766 -0.2179 -0.4922  0.3374
    1SOL    MW4  760   1.574   4.367   0.730  0.2033 -0.1082 -0.2076
    1SOL     OW  761   1.088   1.773   0.371  0.2060  0.4043  0.2548
    1SOL    HW2  762   1.072   1.867   0.383 -0.3448  0.2716  0.5767
    1SOL    HW3  763   1.140   1.768   0.291  2.4497  1.1816  1.6068
    1SOL    MW4  764   1.093   1.785   0.362  0.4294  0.4894  0.4756
    1SOL     OW  765   2.131   2.892   0.508  0.1689 -0.1060 -0.1473
    1SOL    HW2  766   2.222   2.865   0.502  0.3058  0.5461 -1.0690
    1SOL    HW3  767   2.082   2.818   0.471  0.2305 -0.9420  1.3952
    1SOL    MW4  768   2.136   2.878   0.503  0.1950 -0.1304 -0.0654
    1SOL     OW  769   0.933   3.135   0.472 -0.4913 -0.1717  0.4897
    1SOL    HW2  770   1.012   3.088   0.443 -0.0033  0.3523  0.9583
    1SOL    HW3  771   0.947   3.225   0.441 -0.1716  0.2901  1.9668
    1SOL    MW4  772   0.945   3.141   0.464 -0.3847 -0.0415  0.7464
    1SOL     OW  773   2.042   2.656   0.400  0.3463 -0.4356  0.3711
    1SOL    HW2  774   1.973   2.590   0.401 -1.7750  1.6397 -0.6723
    1SOL    HW3  775   2.083   2.647   0.314  0.5759 -0.9097  0.5334
    1SOL    MW4  776   2.038   2.646   0.388  0.0968 -0.2244  0.2548
    1SOL     OW  777   3.302   3.630   0.501 -0.0543  0.0603 -0.2199
    1SOL    HW2  778   3.386   3.659   0.464 -0.1925  1.6450  0.6724
    1SOL    HW3  779   3.322   3.609   0.592 -0.4282 -0.5704 -0.2793
    1SOL    MW4  780   3.316   3.631   0.508 -0.1218  0.1862 -0.1100
    1SOL     OW  781   1.290   4.242   0.370 -0.6483  0.1148  0.0667
    1SOL    HW2  782   1.243   4.305   0.424 -0.2378  0.2614  0.2596
    1SOL    HW3  783   1.276   4.158   0.412  0.9406  0.4397  1.2880
    1SOL    MW4  784   1.282   4.239   0.382 -0.3844  0.1774  0.2533
    1SOL     OW  785   0.922   3.420   0.451  0.0767 -0.2112  0.0521
    1SOL    HW2  786   0.840   3.469   0.464  1.2762  2.2600 -1.3555
    1SOL    HW3  787   0.991   3.486   0.456  1.9653 -2.1611  0.5174
    1SOL    MW4  788   0.920   3.435   0.453  0.4841 -0.1426 -0.0722
    1SOL     OW  789   4.094   0.135   0.747 -0.0020 -0.0311 -0.5911
    1SOL    HW2  790   4.010   0.091   0.747 -0.1102  0.1759 -1.7334
    1SOL    HW3  791   4.083   0.209   0.807 -0.4052 -0.4253 -0.1826
    1SOL    MW4  792   4.082   0.139   0.755 -0.0691 -0.0558 -0.6879
    1SOL     OW  793   0.611   0.944   0.533 -0.0751  0.2316  0.0460
    1SOL    HW2  794   0.573   0.865   0.496 -1.2085  1.5226 -1.6017
    1SOL    HW3  795   0.572   0.952   0.620  1.6643 -2.1412  1.1031
    1SOL    MW4  796   0.601   0.935   0.540  0.0048  0.0888 -0.0319
    1SOL     OW  797   2.015   0.452   0.495 -0.4321  0.5447  0.3651
    1SOL    HW2  798   2.017   0.358   0.476  1.9705  0.7014 -0.2419
    1SOL    HW3  799   2.011   0.456   0.591  0.8012 -0.1891  0.4631
    1SOL    MW4  800   2.015   0.440   0.505  0.0474  0.4686  0.2979
    1SOL     OW  801   0.759   0.595   0.443  0.3278 -0.0527  0.1309
    1SOL    HW2  802   0.723   0.580   0.531  0.3187 -0.9042 -0.0147
    1SOL    HW3  803   0.683   0.618   0.390  0.3178  0.3541  0.3164
    1SOL    MW4  804   0.744   0.596   0.448  0.3253 -0.1113  0.1362
    1SOL     OW  805   2.217   0.323   0.840 -0.3288 -0.1196 -0.0668
    1SOL    HW2  806   2.230   0.247   0.783  1.6500  2.0253 -2.5908
    1SOL    HW3  807   2.138   0.364   0.806 -1.7041 -1.2952  1.6390
    1SOL    MW4  808   2.208   0.318   0.828 -0.2491  0.0083 -0.1747
    1SOL     OW  809   3.365   4.380   0.742 -0.0257 -0.0361  0.1575
    1SOL    HW2  810   3.363   4.469   0.776 -1.3298  0.2568 -0.6377
    1SOL    HW3  811   3.279   4.344   0.766  0.5924 -1.1740  0.7191
    1SOL    MW4  812   3.353   4.387   0.750 -0.1163 -0.1478  0.1267
    1SOL     OW  813   3.606   4.280   0.829 -0.4782 -0.4809  0.0580
    1SOL    HW2  814   3.519   4.320   0.826 -0.4136 -0.3761 -0.5655
    1SOL    HW3  815   3.597   4.200   0.776 -0.4611 -1.0078  0.8353
    1SOL    MW4  816   3.594   4.274   0.821 -0.4671 -0.5364  0.0783
    1SOL     OW  817   0.692   4.117   0.416 -0.1358 -0.3352 -0.1316
    1SOL    HW2  818   0.782   4.107   0.384 -0.4839 -1.1335 -0.8917
    1SOL    HW3  819   0.675   4.211   0.409  0.4991 -0.2318 -0.3754
    1SOL    MW4  820   0.702   4.128   0.411 -0.0979 -0.4268 -0.2641
    1SOL     OW  821   2.522   2.493   0.367  0.3882 -0.1735 -0.0183
    1SOL    HW2  822   2.597   2.489   0.426  0.4218 -0.1080 -0.0563
    1SOL    HW3  823   2.446   2.490   0.425  0.4212  0.6212  0.0806
    1SOL    MW4  824   2.522   2.492   0.383  0.3970 -0.0601 -0.0103
    1SOL     OW  825   3.415   0.496   0.747 -0.2067  0.1828  0.2025
    1SOL    HW2  826   3.448   0.483   0.658  1.1500  0.5034  0.6443
    1SOL    HW3  827   3.478   0.450   0.802  0.3196  1.9940  1.1738
    1SOL    MW4  828   3.428   0.488   0.742  0.0417  0.4641  0.3889
    1SOL     OW  829   0.688   2.507   0.562 -0.0412 -0.2164 -0.0841
    1SOL    HW2  830   0.596   2.490   0.542 -0.4201  0.7442  0.8474
    1SOL    HW3  831   0.707   2.591   0.520  0.3420 -0.2608 -0.0073
    1SOL    MW4  832   0.679   2.516   0.554 -0.0406 -0.0954  0.0489
    1SOL     OW  833   0.249   4.212   0.487  0.0643 -0.1572  0.3282
    1SOL    HW2  834   0.240   4.280   0.554  0.6742 -0.4216  0.6793
    1SOL    HW3  835   0.163   4.170   0.484 -1.2336  2.5539 -1.9994
    1SOL    MW4  836   0.236   4.215   0.496 -0.0265  0.1655  0.0674
    1SOL     OW  837   0.263   0.574   0.481 -0.0087 -0.5425  0.0304
    1SOL    HW2  838   0.272   0.481   0.499  2.7289 -0.3291 -0.0175
    1SOL    HW3  839   0.273   0.616   0.566 -1.8429 -0.3107  0.1435
    1SOL    MW4  840   0.266   0.567   0.494  0.1105 -0.4837  0.0390
    1SOL     OW  841   1.996   3.606   0.747  0.9447 -0.0521 -0.0814
    1SOL    HW2  842   2.083   3.581   0.775  1.2413  1.2104  0.1677
    1SOL    HW3  843   1.937   3.556   0.804  1.5060 -0.4845  0.1239
    1SOL    MW4  844   1.999   3.596   0.758  1.0580  0.0577 -0.0215
    1SOL     OW  845   4.034   0.356   0.887  0.1389  0.0785 -0.0458
    1SOL    HW2  846   4.115   0.408   0.888 -0.8364  1.6007  1.3841
    1SOL    HW3  847   3.970   0.413   0.845 -0.6332 -0.4862  0.3722
    1SOL    MW4  848   4.036   0.371   0.881 -0.0916  0.2049  0.1980
    1SOL     OW  849   3.039   1.687   0.367  0.2271 -0.3439 -0.6507
    1SOL    HW2  850   2.999   1.601   0.382 -1.1205  0.2751 -0.6303
    1SOL    HW3  851   2.965   1.746   0.356  1.1428  0.9142 -0.1581
    1SOL    MW4  852   3.024   1.683   0.367  0.1702 -0.0961 -0.5830
    1SOL     OW  853   1.167   2.920   0.422  0.4071  0.5190 -0.8464
    1SOL    HW2  854   1.233   2.851   0.421  1.3720  1.4224 -1.1436
    1SOL    HW3  855   1.216   2.999   0.446 -0.7926  0.9836  0.1153
    1SOL    MW4  856   1.182   2.921   0.425  0.3761  0.6993 -0.7587
    1SOL     OW  857   1.002   2.443   0.443 -0.3420  0.3242  0.0998
    1SOL    HW2  858   0.944   2.376   0.408  1.0890 -0.1658 -1.4359
    1SOL    HW3  859   0.965   2.526   0.411  0.3585 -0.0514 -1.7791
    1SOL    MW4  860   0.990   2.445   0.434 -0.0609  0.2098 -0.3507
    1SOL     OW  861   1.539   3.846   0.357  0.2261  0.0035 -0.4793
    1SOL    HW2  862   1.594   3.914   0.395 -0.4857  0.4527 -0.2236
    1SOL    HW3  863   1.592   3.805   0.289  1.9158 -1.5385  1.7071
    1SOL    MW4  864   1.553   3.849   0.353  0.3552 -0.1407 -0.1571
    1SOL     OW  865   2.978   1.014   0.373  0.1382  0.7609  0.1223
    1SOL    HW2  866   3.030   1.093   0.388  1.5894 -0.0297 -0.6436
    1SOL    HW3  867   3.037   0.941   0.394 -0.8357 -0.1477 -0.2093
    1SOL    MW4  868   2.993   1.014   0.378  0.2012  0.5368 -0.0226
    1SOL     OW  869   0.714   2.326   0.815 -0.0956 -0.4710 -0.1628
    1SOL    HW2  870   0.713   2.323   0.911  1.4483  2.4813 -0.0252
    1SOL    HW3  871   0.624   2.350   0.791 -0.1901 -0.0842  0.5690
    1SOL    MW4  872   0.702   2.329   0.825  0.0957 -0.0305 -0.0480
    1SOL     OW  873   0.201   3.552   0.486 -0.6517  0.0394  0.2275
    1SOL    HW2  874   0.240   3.627   0.440 -1.7283  0.6947  0.3725
    1SOL    HW3  875   0.213   3.572   0.579 -1.1495  0.1517  0.2699
    1SOL    MW4  876   0.208   3.565   0.492 -0.8594  0.1407  0.2522
    1SOL     OW  877   3.324   2.901   0.723  0.2538 -0.2694  0.3300
    1SOL    HW2  878   3.333   2.985   0.769 -1.3680  0.1771 -0.1189
    1SOL    HW3  879   3.401   2.851   0.748  1.8890  1.8362 -0.3790
    1SOL    MW4  880   3.335   2.906   0.732  0.2556  0.0675  0.1773
    1SOL     OW  881   0.441   2.695   0.848 -0.4330 -0.2456 -0.5009
    1SOL    HW2  882   0.518   2.727   0.801 -0.5884 -0.4973 -0.9343
    1SOL    HW3  883   0.440   2.601   0.830 -0.2567 -0.4140  0.3561
    1SOL    MW4  884   0.451   2.687   0.839 -0.4302 -0.3009 -0.4450
    1SOL     OW  885   3.153   0.820   0.465 -0.3345  0.0971  0.3555
    1SOL    HW2  886   3.158   0.724   0.468 -0.1934  0.1308  1.6699
    1SOL    HW3  887   3.138   0.845   0.557  0.5868  1.3877  0.1499
    1SOL    MW4  888   3.151   0.810   0.478 -0.1943  0.2718  0.5018
    1SOL     OW  889   2.197   3.937   0.732 -0.4495 -0.0010  0.5404
    1SOL    HW2  890   2.188   3.913   0.639 -1.3033  0.3615  0.5261
    1SOL    HW3  891   2.117   3.904   0.773  0.2963 -0.8889  1.3184
    1SOL    MW4  892   2.185   3.929   0.725 -0.4640 -0.0706  0.6412
    1SOL     OW  893   1.337   4.021   0.720 -0.2499 -0.1860 -0.2294
    1SOL    HW2  894   1.277   3.976   0.780  2.3892 -1.2521  1.7364
    1SOL    HW3  895   1.346   4.109   0.757  0.4055 -0.4544  0.2764
    1SOL    MW4  896   1.331   4.026   0.733  0.1847 -0.3619  0.0967
    1SOL     OW  897   3.661   0.869   0.482  0.3696  0.3839  0.2686
    1SOL    HW2  898   3.728   0.929   0.449 -0.7704  2.0774  0.9992
    1SOL    HW3  899   3.579   0.917   0.473 -0.7424 -1.6110 -0.4435
    1SOL    MW4  900   3.659   0.883   0.476  0.0725  0.3442  0.2711
    1SOL     OW  901   0.025   1.924   0.890 -0.2582  0.0492 -0.5235
    1SOL    HW2  902   0.043   1.830   0.879  2.3542  0.1986  1.7706
    1SOL    HW3  903   0.103   1.967   0.854 -0.5105  1.2285  0.3119
    1SOL    MW4  904   0.038   1.917   0.884  0.0532  0.2246 -0.1106
    1SOL     OW  905   4.488   1.107   0.847  0.2762 -0.3772 -0.3337
    1SOL    HW2  906   4.487   1.105   0.942 -1.3420 -1.2213 -0.3498
    1SOL    HW3  907   4.518   1.020   0.821  0.4195 -0.2508 -0.5954
    1SOL    MW4  908   4.492   1.096   0.856  0.0816 -0.4719 -0.3703
    1SOL     OW  909   2.786   3.160   0.462  0.8405 -0.4640 -0.0143
    1SOL    HW2  910   2.880   3.160   0.443  0.6434 -0.8702 -1.0461
    1SOL    HW3  911   2.753   3.083   0.415 -0.2112  0.3808 -0.6735
    1SOL    MW4  912   2.794   3.150   0.453  0.6757 -0.4063 -0.2374
    1SOL     OW  913   2.175   2.648   0.160 -0.0856  0.0074 -0.0350
    1SOL    HW2  914   2.251   2.699   0.188 -0.2532 -0.5033  1.3377
    1SOL    HW3  915   2.212   2.570   0.120  0.1193 -0.0396  0.2445
    1SOL    MW4  916   2.190   2.645   0.158 -0.0806 -0.0663  0.1830
    1SOL     OW  917   3.155   1.177   0.824 -0.0699 -0.3119 -0.1079
    1SOL    HW2  918   3.235   1.216   0.788 -0.7513  0.8006 -0.4223
    1SOL    HW3  919   3.163   1.189   0.919  0.9573 -1.7942  0.0244
    1SOL    MW4  920   3.167   1.184   0.832 -0.0243 -0.3607 -0.1320
    1SOL     OW  921   2.671   2.910   0.349 -0.4519  0.4088 -0.6201
    1SOL    HW2  922   2.733   2.850   0.389 -0.9880  1.0989  1.2865
    1SOL    HW3  923   2.638   2.863   0.272  0.9576 -0.7254 -0.5443
    1SOL    MW4  924   2.675   2.896   0.344 -0.3364  0.3500 -0.3585
    1SOL     OW  925   1.311   0.928   0.699 -0.2261  0.2059  0.4964
    1SOL    HW2  926   1.329   1.013   0.739 -1.4763  0.2559  0.9747
    1SOL    HW3  927   1.262   0.880   0.765 -0.1604 -0.6122 -0.0469
    1SOL    MW4  928   1.307   0.933   0.713 -0.3824  0.1046  0.4878
    1SOL     OW  929   3.787   0.598   0.499 -0.0825 -0.6150  0.2549
    1SOL    HW2  930   3.721   0.668   0.497 -2.0739 -2.3843  1.0546
    1SOL    HW3  931   3.868   0.642   0.523 -0.8548  1.7222 -1.2754
    1SOL    MW4  932   3.789   0.613   0.502 -0.4470 -0.5401  0.1585
    1SOL     OW  933   4.090   2.481   0.784 -0.0494 -0.6267 -0.4259
    1SOL    HW2  934   4.166   2.437   0.821  0.2082 -0.7493 -1.1033
    1SOL    HW3  935   4.017   2.423   0.804  0.1985 -1.0558 -0.7587
    1SOL    MW4  936   4.090   2.467   0.791  0.0172 -0.6995 -0.5592
    1SOL     OW  937   1.762   1.685   0.455 -0.2816 -0.5008  0.1681
    1SOL    HW2  938   1.832   1.739   0.419  0.4033 -0.9202  0.8408
    1SOL    HW3  939   1.777   1.688   0.550 -0.8044 -1.0885  0.2699
    1SOL    MW4  940   1.774   1.693   0.463 -0.2601 -0.6337  0.2703
    1SOL     OW  941   1.510   1.091   0.293  0.0101 -0.1750 -0.1358
    1SOL    HW2  942   1.508   1.012   0.348 -1.7943 -0.1962 -0.1883
    1SOL    HW3  943   1.419   1.104   0.267  0.4506  1.3434 -0.9884
    1SOL    MW4  944   1.498   1.082   0.297 -0.1698  0.0225 -0.2553
    1SOL     OW  945   1.741   0.789   0.509  0.0505  0.1334  0.3013
    1SOL    HW2  946   1.648   0.804   0.490 -0.0908 -0.8202  0.2173
    1SOL    HW3  947   1.751   0.818   0.600 -0.2963  0.3840  0.2620
    1SOL    MW4  948   1.730   0.795   0.518 -0.0139  0.0406  0.2851
    1SOL     OW  949   4.051   0.876   0.861  0.3700  0.3737  0.3246
    1SOL    HW2  950   4.066   0.970   0.855  1.8970  0.1943  0.9846
    1SOL    HW3  951   4.137   0.839   0.883 -0.3327 -1.1179  0.6702
    1SOL    MW4  952   4.064   0.883   0.863  0.4792  0.1532  0.4573
    1SOL     OW  953   0.858   1.613   0.436  0.2629 -0.1441  0.0935
    1SOL    HW2  954   0.924   1.667   0.392  0.0437 -0.4792 -0.6558
    1SOL    HW3  955   0.872   1.630   0.529 -0.5308  2.0548 -0.1680
    1SOL    MW4  956   0.869   1.622   0.442  0.1293  0.1019 -0.0398
    1SOL     OW  957   0.676   3.552   0.507  0.5886 -0.1827 -0.0335
    1SOL    HW2  958   0.609   3.509   0.455  0.5797 -0.2529  0.0354
    1SOL    HW3  959   0.680   3.641   0.473 -1.1752  0.5068  1.4680
    1SOL    MW4  960   0.668   3.558   0.496  0.3546 -0.1011  0.1737
    1SOL     OW  961   1.760   1.151   0.186  0.4743  0.4475  0.1153
    1SOL    HW2  962   1.674   1.109   0.190  1.2324 -1.1639 -0.1755
    1SOL    HW3  963   1.807   1.116   0.261  1.2231  0.5295 -0.3115
    1SOL    MW4  964   1.754   1.141   0.196  0.6732  0.2457  0.0206
    1SOL     OW  965   1.309   2.168   0.316 -0.1492  0.4398  0.0624
    1SOL    HW2  966   1.330   2.119   0.236 -0.6120 -0.7782  0.6849
    1SOL    HW3  967   1.374   2.138   0.380 -0.9350  0.0341  0.6745
    1SOL    MW4  968   1.321   2.158   0.314 -0.3139  0.2255  0.2253
    1SOL     OW  969   3.937   1.016   0.458  0.4755 -0.3102 -0.1489
    1SOL    HW2  970   3.948   0.925   0.484 -0.5981 -1.2062 -2.6340
    1SOL    HW3  971   4.007   1.031   0.395  1.0116  0.7740  0.7003
    1SOL    MW4  972   3.947   1.006   0.453  0.4046 -0.2853 -0.3648
    1SOL     OW  973   1.635   1.422   0.143 -0.2629  0.2262 -0.8426
    1SOL    HW2  974   1.540   1.424   0.135 -0.1695 -0.5546 -2.2700
    1SOL    HW3  975   1.661   1.339   0.104  1.0445  0.6179 -0.8257
    1SOL    MW4  976   1.626   1.411   0.137 -0.0782  0.1750 -1.0287
    1SOL     OW  977   4.064   2.213   0.382 -0.0492 -0.2772  0.0533
    1SOL    HW2  978   3.980   2.175   0.407  1.3945 -2.4215  1.8601
    1SOL    HW3  979   4.068   2.296   0.430 -1.3441  0.0700 -0.4373
    1SOL    MW4  980   4.054   2.219   0.392 -0.0296 -0.5143  0.2269
    1SOL     OW  981   3.159   3.402   0.441  0.2720  0.3717  0.2216
    1SOL    HW2  982   3.135   3.375   0.529 -0.4172 -0.1480 -0.1227
    1SOL    HW3  983   3.217   3.477   0.454  0.1945  0.2827  1.1130
    1SOL    MW4  984   3.164   3.408   0.454  0.1709  0.2916  0.2938
    1SOL     OW  985   1.328   2.693   0.775  0.1594  0.2070 -0.3249
    1SOL    HW2  986   1.344   2.713   0.867 -0.6604  1.4683 -0.4488
    1SOL    HW3  987   1.248   2.741   0.753  1.1686  1.1259 -2.0923
    1SOL    MW4  988   1.320   2.702   0.784  0.1844  0.4947 -0.5744
    1SOL     OW  989   3.165   0.515   0.421  0.3775  0.7346 -0.0458
    1SOL    HW2  990   3.128   0.429   0.440  0.6356  0.7298  0.4480
    1SOL    HW3  991   3.256   0.498   0.398  0.1240  0.7648 -1.0843
    1SOL    MW4  992   3.172   0.501   0.421  0.3784  0.7380 -0.1177
    1SOL     OW  993   4.042   3.533   0.885  0.4511  0.4818  0.0069
    1SOL    HW2  994   4.029   3.445   0.852 -1.1206  0.6157  0.2641
    1SOL    HW3  995   4.046   3.523   0.980  0.2822  0.6898  0.0368
    1SOL    MW4  996   4.041   3.520   0.893  0.2213  0.5271  0.0449
    1SOL     OW  997   0.305   0.455   0.886  0.2167 -0.2609 -0.5909
    1SOL    HW2  998   0.223   0.408   0.872 -0.2406  0.5171 -0.5337
    1SOL    HW3  999   0.367   0.414   0.825 -0.1373 -1.0423 -0.4198
    1SOL    MW4 1000   0.303   0.443   0.876  0.1097 -0.2614 -0.5607
    1SOL     OW 1001   2.014   4.325   0.428 -0.2082 -0.0335 -0.3285
    1SOL    HW2 1002   2.018   4.234   0.401  1.0812  0.1486 -0.7812
    1SOL    HW3 1003   2.099   4.362   0.402 -0.4702  1.1312  0.4167
    1SOL    MW4 1004   2.026   4.318   0.421 -0.0725  0.1440 -0.2899
    1SOL     OW 1005   0.028   0.337   0.911 -0.2599 -0.0449  0.2337
    1SOL    HW2 1006   0.032   0.353   1.005  0.3885  0.7683  0.0759
    1SOL    HW3 1007   0.062   0.249   0.900  0.1164  0.0351  0.7230
    1SOL    MW4 1008   0.033   0.328   0.922 -0.1247  0.0729  0.2774
    1SOL     OW 1009   1.923   1.904   0.340 -0.2457  0.1706 -0.0946
    1SOL    HW2 1010   1.963   1.974   0.392 -0.2961 -0.5874  1.0004
    1SOL    HW3 1011   1.874   1.949   0.271  0.9353  1.1562 -0.2901
    1SOL    MW4 1012   1.921   1.919   0.338 -0.0966  0.2006  0.0241
    1SOL     OW 1013   0.057   0.827   0.843  0.3013  0.7019  0.0434
    1SOL    HW2 1014   0.093   0.796   0.927 -1.8091  2.6138  1.7144
    1SOL    HW3 1015  -0.036   0.806   0.848  0.1947  0.6538 -1.9358
    1SOL    MW4 1016   0.050   0.820   0.855  0.0088  0.9478  0.0027
    1SOL     OW 1017   0.499   0.728   0.390  0.2681  0.2061  0.2834
    1SOL    HW2 1018   0.424   0.673   0.412  0.6716 -0.0901  0.9138
    1SOL    HW3 1019   0.461   0.803   0.344 -0.4639  0.3173  1.0808
    1SOL    MW4 1020   0.484   0.731   0.387  0.2247  0.1817  0.4718
    1SOL     OW 1021   0.367   1.310   0.463  0.3023  0.4976  0.2755
    1SOL    HW2 1022   0.388   1.402   0.476 -1.2546  0.9928 -0.5825
    1SOL    HW3 1023   0.325   1.283   0.545 -0.7375  1.0048 -0.0857
    1SOL    MW4 1024   0.364   1.318   0.476 -0.0403  0.6299  0.1147
    1SOL     OW 1025   0.212   1.263   0.704 -0.3693 -0.2592  0.5959
    1SOL    HW2 1026   0.289   1.226   0.748  0.2304 -0.0849 -0.2954
    1SOL    HW3 1027   0.138   1.219   0.745  0.2271 -0.7591  1.1540
    1SOL    MW4 1028   0.213   1.253   0.715 -0.2114 -0.3021  0.5520
    1SOL     OW 1029   0.213   1.466   0.900 -0.5478 -0.2087  0.8228
    1SOL    HW2 1030   0.226   1.388   0.847 -0.9966  0.8513 -0.8706
    1SOL    HW3 1031   0.285   1.524   0.876 -0.8955  0.3748  1.1876
    1SOL    MW4 1032   0.224   1.463   0.890 -0.6529  0.0081  0.6474
    1SOL     OW 1033   1.109   2.850   0.727  0.3013  0.1176 -0.9368
    1SOL    HW2 1034   1.033   2.793   0.739  0.9880 -0.8060 -0.8924
    1SOL    HW3 1035   1.113   2.866   0.633  0.7621 -0.8432 -1.0896
    1SOL    MW4 1036   1.099   2.845   0.716  0.4528 -0.1309 -0.9511
    1SOL     OW 1037   4.067   2.466   0.520  0.5285 -0.1027 -0.3119
    1SOL    HW2 1038   3.986   2.516   0.511  1.6818  1.6299 -1.4169
    1SOL    HW3 1039   4.086   2.467   0.614 -0.6367 -0.3971 -0.0637
    1SOL    MW4 1040   4.059   2.473   0.531  0.5269  0.0870 -0.4250
    1SOL     OW 1041   1.060   2.327   0.801 -0.1321 -0.6696 -0.4520
    1SOL    HW2 1042   1.071   2.232   0.793  1.6786 -0.6175  1.2046
    1SOL    HW3 1043   1.142   2.363   0.766 -0.2024  0.2204  0.2859
    1SOL    MW4 1044   1.073   2.319   0.795  0.0976 -0.5453 -0.1360
    1SOL     OW 1045   4.291   2.588   0.380  0.0348 -0.6178  0.0638
    1SOL    HW2 1046   4.216   2.553   0.427 -0.2519  0.8709  0.7570
    1SOL    HW3 1047   4.363   2.529   0.402 -0.4035 -0.6915  1.3345
    1SOL    MW4 1048   4.291   2.576   0.390 -0.0610 -0.4308  0.3229
    1SOL     OW 1049   4.304   2.351   0.878  0.3819  0.0958 -0.2161
    1SOL    HW2 1050   4.303   2.264   0.837  1.4694 -0.2289  0.4236
    1SOL    HW3 1051   4.394   2.382   0.866  0.4419  0.4309  1.0251
    1SOL    MW4 1052   4.316   2.344   0.871  0.5331  0.0973  0.0321
    1SOL     OW 1053   0.190   1.683   0.366  0.4069  0.2673 -0.6656
    1SOL    HW2 1054   0.117   1.697   0.426  0.8553  0.2500 -0.1085
    1SOL    HW3 1055   0.202   1.767   0.322  0.9016  0.6614  0.2047
    1SOL    MW4 1056   0.182   1.696   0.368  0.5314  0.3171 -0.4773
    1SOL     OW 1057   4.034   1.665   0.777 -0.0424 -0.1152 -0.1516
    1SOL    HW2 1058   3.971   1.604   0.814  0.0396  0.0024  0.1861
    1SOL    HW3 1059   4.119   1.637   0.811  0.3640 -1.5439 -2.2772
    1SOL    MW4 1060   4.037   1.654   0.786  0.0219 -0.2881 -0.3875
    1SOL     OW 1061   0.214   3.105   0.774 -0.0861 -0.1368 -0.2553
    1SOL    HW2 1062   0.210   3.108   0.869 -0.3182  0.0486 -0.2706
    1SOL    HW3 1063   0.145   3.164   0.745 -0.1873 -0.3941 -0.5392
    1SOL    MW4 1064   0.205   3.113   0.783 -0.1301 -0.1464 -0.2947
    1SOL     OW 1065   1.245   1.123   0.230 -0.1026 -0.2032 -0.2550
    1SOL    HW2 1066   1.182   1.195   0.223 -0.1269 -0.0515  1.3534
    1SOL    HW3 1067   1.212   1.071   0.303  0.6559 -1.1145 -0.5693
    1SOL    MW4 1068   1.232   1.126   0.238 -0.0058 -0.3035 -0.0843
    1SOL     OW 1069   0.011   2.787   0.324 -0.6891 -0.3008 -0.1278
    1SOL    HW2 1070  -0.036   2.859   0.367 -1.5384 -0.3047 -1.0346
    1SOL    HW3 1071  -0.058   2.734   0.284 -0.0439 -1.4316  0.2420
    1SOL    MW4 1072  -0.004   2.790   0.324 -0.7161 -0.4506 -0.1987
    1SOL     OW 1073   4.482   3.277   0.723  0.1371 -0.4680  0.3555
    1SOL    HW2 1074   4.479   3.297   0.629 -0.0050 -1.2416  0.1938
    1SOL    HW3 1075   4.485   3.363   0.765  0.4910 -0.1165 -0.3665
    1SOL    MW4 1076   4.482   3.291   0.716  0.1655 -0.5236  0.2389
    1SOL     OW 1077   0.459   3.486   0.853 -0.0136 -0.5984 -0.1024
    1SOL    HW2 1078   0.475   3.447   0.939 -0.6872  0.4058  0.4766
    1SOL    HW3 1079   0.461   3.411   0.793 -1.2537 -1.5272  0.9954
    1SOL    MW4 1080   0.462   3.471   0.856 -0.2661 -0.5884  0.1189
    1SOL     OW 1081   4.163   3.127   0.437 -0.5363 -0.0794  0.2625
    1SOL    HW2 1082   4.134   3.044   0.399 -1.1455 -0.1052  0.7784
    1SOL    HW3 1083   4.084   3.165   0.474  0.0130  0.0392  1.3206
    1SOL    MW4 1084   4.149   3.121   0.437 -0.5441 -0.0672  0.4702
    1SOL     OW 1085   0.413   1.177   0.868  0.7102 -0.4402  0.2305
    1SOL    HW2 1086   0.419   1.087   0.838  0.8410  0.0803 -1.3347
    1SOL    HW3 1087   0.499   1.215   0.847  0.3649  0.2738  0.0959
    1SOL    MW4 1088   0.425   1.170   0.861  0.6819 -0.2774  0.0062
    1SOL     OW 1089   0.681   0.120   0.687 -0.2073 -0.1601 -0.1758
    1SOL    HW2 1090   0.636   0.104   0.605 -1.9709  2.0159  0.3283
    1SOL    HW3 1091   0.640   0.060   0.749 -0.0071 -0.6340 -0.4974
    1SOL    MW4 1092   0.670   0.110   0.684 -0.4136  0.0645 -0.1518
    1SOL     OW 1093   0.402   0.415   1.143  0.2306 -0.0270 -0.0814
    1SOL    HW2 1094   0.381   0.427   1.051 -2.0432 -0.1368  0.3888
    1SOL    HW3 1095   0.342   0.473   1.190  1.3822  0.0657  1.3393
    1SOL    MW4 1096   0.392   0.424   1.137  0.0825 -0.0293  0.1680
    1SOL     OW 1097   2.045   2.066   0.773  0.3914  0.1501 -0.1740
    1SOL    HW2 1098   2.051   2.137   0.837  2.0387 -1.9061  2.0315
    1SOL    HW3 1099   1.958   2.030   0.785 -0.1547  1.2686 -0.7321
    1SOL    MW4 1100   2.035   2.071   0.783  0.5369  0.0265  0.0434
    1SOL     OW 1101   3.372   1.313   0.699 -0.0916  0.2883 -0.1536
    1SOL    HW2 1102   3.438   1.254   0.736 -0.0619 -0.5291 -1.5116
    1SOL    HW3 1103   3.377   1.391   0.754  1.5356 -0.0385  0.1800
    1SOL    MW4 1104   3.382   1.316   0.711  0.1266  0.1373 -0.2888
    1SOL     OW 1105   3.591   1.645   0.787 -0.4264 -0.1901  0.1088
    1SOL    HW2 1106   3.499   1.624   0.800 -1.3590  3.2122 -0.5761
    1SOL    HW3 1107   3.611   1.614   0.699 -0.7780 -1.2907  0.4078
    1SOL    MW4 1108   3.581   1.638   0.777 -0.5956  0.1134  0.0579
    1SOL     OW 1109   0.943   0.205   0.749 -0.3137  0.0540 -0.6291
    1SOL    HW2 1110   0.978   0.213   0.660 -0.9265  1.0113 -0.7968
    1SOL    HW3 1111   0.854   0.172   0.736  0.2783 -1.7891 -0.2403
    1SOL    MW4 1112   0.936   0.202   0.735 -0.3164 -0.0629 -0.5999
    1SOL     OW 1113   0.654   2.804   0.667 -0.3235  0.1598 -0.2166
    1SOL    HW2 1114   0.660   2.894   0.699  0.7816  0.0253 -0.0214
    1SOL    HW3 1115   0.617   2.812   0.580 -0.5438  0.7816 -0.0707
    1SOL    MW4 1116   0.650   2.817   0.660 -0.2068  0.2239 -0.1715
    1SOL     OW 1117   1.541   0.177   0.323 -0.1013 -0.2158  0.2197
    1SOL    HW2 1118   1.615   0.155   0.380 -0.0214 -1.2611 -0.2758
    1SOL    HW3 1119   1.556   0.126   0.244  0.4426  2.1375 -1.2443
    1SOL    MW4 1120   1.553   0.167   0.320 -0.0188 -0.0433 -0.0389
    1SOL     OW 1121   0.468   3.251   0.699  0.2475  0.0134  0.2418
    1SOL    HW2 1122   0.481   3.238   0.605  0.9292  0.8385  0.2168
    1SOL    HW3 1123   0.384   3.209   0.717 -0.6465  1.1897 -1.0355
    1SOL    MW4 1124   0.459   3.244   0.689  0.2195  0.2778  0.0700
    1SOL     OW 1125   0.641   1.273   0.787  0.2965  0.1336 -0.2719
    1SOL    HW2 1126   0.635   1.259   0.692  2.2746  0.1673 -0.4155
    1SOL    HW3 1127   0.650   1.368   0.796 -0.8985  0.2306  0.0279
    1SOL    MW4 1128   0.641   1.284   0.775  0.3999  0.1509 -0.2513
    1SOL     OW 1129   2.900   1.558   0.872  0.0778 -0.4431 -0.4946
    1SOL    HW2 1130   2.828   1.610   0.833  0.0619  0.0028  0.1282
    1SOL    HW3 1131   2.979   1.601   0.841  0.0616  0.4909  0.7301
    1SOL    MW4 1132   2.901   1.571   0.863  0.0737 -0.2611 -0.2509
    1SOL     OW 1133   0.357   2.088   0.463 -0.4984  0.0210 -0.2224
    1SOL    HW2 1134   0.319   2.029   0.399 -0.8808 -0.8913  0.8421
    1SOL    HW3 1135   0.316   2.064   0.546  1.6358 -0.3185  0.7736
    1SOL    MW4 1136   0.347   2.077   0.465 -0.2673 -0.1440  0.0495
    1SOL     OW 1137   1.283   3.959   0.433  0.1500  0.0542  0.1928
    1SOL    HW2 1138   1.305   3.971   0.526  0.2893 -0.3956  0.2173
    1SOL    HW3 1139   1.364   3.926   0.394 -0.4037 -1.3560  0.2281
    1SOL    MW4 1140   1.297   3.956   0.440  0.0954 -0.1912  0.2007
    1SOL     OW 1141   0.871   2.198   0.512 -0.2383 -0.2082  0.5886
    1SOL    HW2 1142   0.938   2.132   0.494 -0.1133  0.1545 -0.2697
    1SOL    HW3 1143   0.788   2.150   0.505 -0.1492 -0.2747 -0.0585
    1SOL    MW4 1144   0.869   2.183   0.509 -0.2100 -0.1690  0.3901
    1SOL     OW 1145   2.912   4.551   0.356 -0.2315  0.2073 -0.8654
    1SOL    HW2 1146   2.990   4.593   0.391 -0.6420  0.1832  0.1009
    1SOL    HW3 1147   2.867   4.621   0.309 -0.7911  0.8278  0.5367
    1SOL    MW4 1148   2.916   4.566   0.355 -0.3593  0.2856 -0.5529
    1SOL     OW 1149   0.565   2.764   0.391 -0.3188 -0.1070 -0.1804
    1SOL    HW2 1150   0.586   2.853   0.363  0.4483 -0.3237 -0.3054
    1SOL    HW3 1151   0.469   2.760   0.389 -0.3177  0.2265 -1.7319
    1SOL    MW4 1152   0.555   2.775   0.387 -0.2174 -0.0916 -0.4016
    1SOL     OW 1153   0.273   2.774   0.452  0.3478  0.0459 -0.2547
    1SOL    HW2 1154   0.183   2.762   0.421  0.1839  0.5490  0.0115
    1SOL    HW3 1155   0.263   2.811   0.540  0.8149 -0.2434 -0.0802
    1SOL    MW4 1156   0.260   2.778   0.459  0.3878  0.0744 -0.1965
    1SOL     OW 1157   3.352   3.873   0.874  0.1985  0.6343  0.1566
    1SOL    HW2 1158   3.355   3.791   0.824  0.0885  1.3750 -1.0913
    1SOL    HW3 1159   3.397   3.853   0.956  1.9355 -0.1091 -0.9607
    1SOL    MW4 1160   3.358   3.859   0.878  0.4132  0.6340 -0.1555
    1SOL     OW 1161   3.656   2.513   0.756 -0.0002 -0.2786  0.8850
    1SOL    HW2 1162   3.617   2.600   0.769 -0.0305 -0.2471  0.5869
    1SOL    HW3 1163   3.582   2.453   0.759 -0.2348 -0.1184 -0.7965
    1SOL    MW4 1164   3.641   2.517   0.758 -0.0353 -0.2534  0.6238
    1SOL     OW 1165   4.452   3.532   0.840  0.5616  0.2336  0.1776
    1SOL    HW2 1166   4.534   3.550   0.794  0.1085 -1.6684 -1.4808
    1SOL    HW3 1167   4.384   3.562   0.780  0.0092 -0.3404  0.5065
    1SOL    MW4 1168   4.454   3.538   0.826  0.4292 -0.0930  0.0022
    1SOL     OW 1169   0.674   3.637   0.781  0.0012 -0.0750 -0.0547
    1SOL    HW2 1170   0.597   3.589   0.811 -1.1477  1.7257 -0.0082
    1SOL    HW3 1171   0.685   3.612   0.690 -0.8600 -0.0839 -0.1581
    1SOL    MW4 1172   0.665   3.627   0.773 -0.2640  0.1614 -0.0622
    1SOL     OW 1173   1.952   4.006   0.347 -0.2594 -0.0631  0.7726
    1SOL    HW2 1174   1.862   4.015   0.378 -0.1884  0.3632  0.8699
    1SOL    HW3 1175   1.945   3.957   0.265 -0.7188  1.1206  0.0884
    1SOL    MW4 1176   1.940   4.001   0.340 -0.3109  0.1488  0.6951
    1SOL     OW 1177   0.394   4.545   0.453 -0.2291 -0.1054  0.0572
    1SOL    HW2 1178   0.472   4.489   0.456  0.2168  0.4854 -0.2102
    1SOL    HW3 1179   0.337   4.503   0.388 -0.0251 -0.4129  0.0766
    1SOL    MW4 1180   0.397   4.532   0.445 -0.1434 -0.0677  0.0245
    1SOL     OW 1181   0.469   4.236   0.795  0.3027  0.4993 -0.3581
    1SOL    HW2 1182   0.452   4.244   0.889  0.5656  1.0338 -0.3517
    1SOL    HW3 1183   0.414   4.303   0.755 -0.6843 -0.4914 -0.6962
    1SOL    MW4 1184   0.460   4.246   0.802  0.2071  0.4392 -0.4018
    1SOL     OW 1185   0.689   4.374   0.721  0.8303 -0.4453  0.0619
    1SOL    HW2 1186   0.760   4.319   0.754 -0.9958 -2.7838  0.2141
    1SOL    HW3 1187   0.610   4.323   0.736 -0.8411  1.8112 -0.7537
    1SOL    MW4 1188   0.688   4.360   0.727  0.3688 -0.4563 -0.0256
    1SOL     OW 1189   2.058   1.175   0.143  0.0477 -0.3265 -0.3343
    1SOL    HW2 1190   1.966   1.167   0.116 -0.5949 -0.0793  1.6528
    1SOL    HW3 1191   2.080   1.087   0.175 -0.1490  0.1289  1.0812
    1SOL    MW4 1192   2.049   1.162   0.144 -0.0629 -0.2338  0.1147
    1SOL     OW 1193   1.802   1.122   0.849  0.0966 -0.3422 -0.6612
    1SOL    HW2 1194   1.741   1.185   0.812  0.3140  1.5371  1.9742
    1SOL    HW3 1195   1.888   1.161   0.834  0.3859 -1.1407 -1.0568
    1SOL    MW4 1196   1.805   1.136   0.842  0.1634 -0.1996 -0.3657
    1SOL     OW 1197   1.546   0.463   0.415  0.2155 -0.2118  0.5710
    1SOL    HW2 1198   1.636   0.496   0.409  0.2633 -0.1642  1.4692
    1SOL    HW3 1199   1.548   0.378   0.372  1.0095 -0.8358  1.8149
    1SOL    MW4 1200   1.558   0.456   0.409  0.3266 -0.2878  0.8536
    1SOL     OW 1201   1.146   0.775   0.845 -0.1255  0.1129  0.1038
    1SOL    HW2 1202   1.136   0.781   0.940  0.3768  0.0809  0.1554
    1SOL    HW3 1203   1.144   0.681   0.826  0.0976  0.1064  0.1145
    1SOL    MW4 1204   1.144   0.763   0.855 -0.0298  0.1078  0.1119
    1SOL     OW 1205   3.830   0.516   0.774 -0.1400  0.0591  0.0083
    1SOL    HW2 1206   3.809   0.523   0.681  0.1466 -0.2832 -0.0817
    1SOL    HW3 1207   3.826   0.606   0.806  1.7198  0.4361 -0.7484
    1SOL    MW4 1208   3.827   0.529   0.766  0.1431  0.0637 -0.1034
    1SOL     OW 1209   2.094   0.909   0.257  0.0400  0.1090 -0.2529
    1SOL    HW2 1210   2.146   0.885   0.334  0.0160  0.5776 -0.0908
    1SOL    HW3 1211   2.074   0.825   0.215 -0.9319 -0.2359  0.8765
    1SOL    MW4 1212   2.098   0.895   0.262 -0.0913  0.1252 -0.0825
    1SOL     OW 1213   1.123   1.335   0.528  0.0860 -0.3615  0.6382
    1SOL    HW2 1214   1.040   1.349   0.482  1.2366  0.5822 -1.1913
    1SOL    HW3 1215   1.147   1.244   0.508 -0.5663 -0.6865  1.3030
    1SOL    MW4 1216   1.115   1.325   0.519  0.1518 -0.2798  0.4845
    1SOL     OW 1217   0.676   0.789   0.868  0.2676 -0.2746  0.3411
    1SOL    HW2 1218   0.756   0.830   0.835 -0.4781  1.5161  0.6623
    1SOL    HW3 1219   0.660   0.716   0.808  1.1697  0.4178 -0.7783
    1SOL    MW4 1220   0.685   0.785   0.856  0.2882  0.0531  0.2359
    1SOL     OW 1221   0.660   1.541   0.831 -0.0614 -0.1034 -0.3329
    1SOL    HW2 1222   0.741   1.584   0.803  0.7086 -1.1889  0.2016
    1SOL    HW3 1223   0.651   1.565   0.923 -0.3637  0.0427 -0.4023
    1SOL    MW4 1224   0.670   1.550   0.839  0.0003 -0.2273 -0.2715
    1SOL     OW 1225   3.796   2.073   0.752  0.3147 -0.2559 -0.0215
    1SOL    HW2 1226   3.782   2.079   0.657  0.0251  0.3294  0.0573
    1SOL    HW3 1227   3.884   2.036   0.761  0.4968  0.0559 -0.5191
    1SOL    MW4 1228   3.806   2.069   0.741  0.3006 -0.1373 -0.0767
    1SOL     OW 1229   1.285   2.420   0.448  0.1084 -0.7210 -0.4078
    1SOL    HW2 1230   1.312   2.338   0.408  0.2049 -0.3289 -1.1618
    1SOL    HW3 1231   1.193   2.430   0.423  0.0771 -0.6294 -0.2604
    1SOL    MW4 1232   1.276   2.411   0.440  0.1171 -0.6573 -0.4879
    1SOL     OW 1233   2.934   0.430   0.699  0.4864  0.0294 -0.5724
    1SOL    HW2 1234   2.912   0.516   0.732  0.5153 -0.0543 -0.3385
    1SOL    HW3 1235   3.025   0.416   0.726  0.2061 -0.4342  0.1280
    1SOL    MW4 1236   2.943   0.439   0.707  0.4532 -0.0428 -0.4492
    1SOL     OW 1237   2.949   3.580   0.413  0.0493 -0.2531 -0.4240
    1SOL    HW2 1238   2.945   3.589   0.508  1.1433  0.8710 -0.4704
    1SOL    HW3 1239   3.019   3.516   0.398  0.2446 -0.0242 -0.4892
    1SOL    MW4 1240   2.958   3.573   0.424  0.2191 -0.0744 -0.4387
    1SOL     OW 1241   0.284   4.399   0.690 -0.0564  0.1257  0.1627
    1SOL    HW2 1242   0.290   4.490   0.718 -1.6396  0.5076 -0.6980
    1SOL    HW3 1243   0.212   4.363   0.742  0.6421 -0.6652  0.5867
    1SOL    MW4 1244   0.275   4.406   0.701 -0.1731  0.0720  0.1051
    1SOL     OW 1245   1.320   1.694   0.510 -0.2632 -0.0206  0.1034
    1SOL    HW2 1246   1.362   1.614   0.477 -0.4796  0.2175 -0.7635
    1SOL    HW3 1247   1.242   1.705   0.455 -2.1226 -1.0729  2.3833
    1SOL    MW4 1248   1.315   1.685   0.498 -0.5370 -0.1280  0.2899
    1SOL     OW 1249   0.886   0.356   0.334 -0.1801  0.3179 -0.6046
    1SOL    HW2 1250   0.971   0.398   0.318  0.8959 -1.4052  0.3866
    1SOL    HW3 1251   0.835   0.423   0.380  1.2739  0.7907  0.3673
    1SOL    MW4 1252   0.891   0.371   0.338  0.1537  0.1530 -0.3456
    1SOL     OW 1253   0.216   2.328   0.383 -0.2652  0.0632  0.2155
    1SOL    HW2 1254   0.254   2.244   0.409 -1.4211 -0.6495 -0.3234
    1SOL    HW3 1255   0.200   2.318   0.289 -1.3003  0.5269  0.3330
    1SOL    MW4 1256   0.219   2.316   0.374 -0.5543  0.0300  0.1599
    1SOL     OW 1257   1.341   2.711   0.407  0.3545  0.9639 -0.2283
    1SOL    HW2 1258   1.437   2.713   0.408  0.3216  3.0595 -0.7391
    1SOL    HW3 1259   1.320   2.617   0.405  2.3766  0.4664  0.1820
    1SOL    MW4 1260   1.351   2.699   0.407  0.6169  1.1749 -0.2415
    1SOL     OW 1261   2.531   1.181   0.485  0.5327  0.4306  0.3324
    1SOL    HW2 1262   2.533   1.087   0.468  1.2798  0.3323  0.9804
    1SOL    HW3 1263   2.441   1.206   0.463 -0.5493 -0.9535  2.9068
    1SOL    MW4 1264   2.519   1.172   0.480  0.4888  0.2350  0.7575
    1SOL     OW 1265   2.135   0.385   0.189  0.1738  0.4987 -0.4353
    1SOL    HW2 1266   2.201   0.366   0.122  0.6148 -0.2578  0.1976
    1SOL    HW3 1267   2.174   0.453   0.243 -0.3570  1.4087 -1.1986
    1SOL    MW4 1268   2.149   0.391   0.187  0.1616  0.5189 -0.4525
    1SOL     OW 1269   3.363   3.587   0.766 -0.1898 -0.1695  0.0019
    1SOL    HW2 1270   3.445   3.555   0.804 -0.4650 -1.3599 -0.3781
    1SOL    HW3 1271   3.295   3.540   0.814 -0.6858  1.4546  0.9045
    1SOL    MW4 1272   3.365   3.576   0.777 -0.2916 -0.1125  0.0709
    1SOL     OW 1273   4.431   1.671   0.525 -0.1903  0.0183 -0.1713
    1SOL    HW2 1274   4.432   1.679   0.620 -4.2779  0.1424 -0.0853
    1SOL    HW3 1275   4.403   1.581   0.509 -1.8918  0.7199 -1.2495
    1SOL    MW4 1276   4.428   1.660   0.535 -0.9542  0.1273 -0.3022
    1SOL     OW 1277   1.114   4.377   0.730 -0.5499 -0.2918  0.3332
    1SOL    HW2 1278   1.099   4.394   0.637 -0.2531 -1.3061  0.1016
    1SOL    HW3 1279   1.107   4.463   0.771  1.7747  0.5651 -0.9527
    1SOL    MW4 1280   1.111   4.391   0.723 -0.2042 -0.3128  0.1330
    1SOL     OW 1281   1.792   2.426   0.754 -0.5188 -0.2063  0.6544
    1SOL    HW2 1282   1.764   2.512   0.786  0.5971 -0.3900  2.1841
    1SOL    HW3 1283   1.720   2.368   0.778 -1.2930  0.3032 -0.4154
    1SOL    MW4 1284   1.779   2.430   0.761 -0.4736 -0.1633  0.7151
    1SOL     OW 1285   1.572   4.634   0.805 -0.7109 -0.3168 -0.4605
    1SOL    HW2 1286   1.537   4.621   0.893 -1.6003 -1.9336 -1.0456
    1SOL    HW3 1287   1.586   4.546   0.771 -0.1176  0.2988 -1.8356
    1SOL    MW4 1288   1.569   4.621   0.812 -0.7498 -0.4492 -0.7191
    1SOL     OW 1289   1.099   4.637   0.820  0.5010  0.3847 -0.0080
    1SOL    HW2 1290   1.186   4.666   0.792  0.5859 -0.2995 -0.4798
    1SOL    HW3 1291   1.039   4.703   0.786  0.9351  1.4858  1.3111
    1SOL    MW4 1292   1.103   4.649   0.812  0.5695  0.4396  0.1038
    1SOL     OW 1293   1.318   0.331   0.817  0.6151  0.0141 -0.2394
    1SOL    HW2 1294   1.322   0.342   0.912  1.0846  0.0018 -0.2532
    1SOL    HW3 1295   1.401   0.369   0.785  0.5307 -0.1227 -0.6276
    1SOL    MW4 1296   1.330   0.337   0.825  0.6660 -0.0056 -0.2925
    1SOL     OW 1297   1.536   0.484   0.705 -0.3274 -0.0514  0.1519
    1SOL    HW2 1298   1.540   0.468   0.611 -1.6735 -1.9325  0.3665
    1SOL    HW3 1299   1.513   0.576   0.714 -0.6585  0.0160 -1.3578
    1SOL    MW4 1300   1.534   0.494   0.694 -0.5488 -0.2907 -0.0190
    1SOL     OW 1301   3.255   1.674   0.537 -0.2483 -0.4407  0.2198
    1SOL    HW2 1302   3.191   1.692   0.469 -0.0787 -0.4507  0.0583
    1SOL    HW3 1303   3.332   1.726   0.513  0.2474 -1.3798 -0.2570
    1SOL    MW4 1304   3.257   1.683   0.525 -0.1607 -0.5659  0.1355
    1SOL     OW 1305   0.926   0.915   0.781  0.0825 -0.5495  0.0909
    1SOL    HW2 1306   0.913   0.906   0.687  0.1850  0.0171  0.0240
    1SOL    HW3 1307   1.003   0.862   0.800  1.6253  1.3893 -0.5532
    1SOL    MW4 1308   0.934   0.907   0.771  0.2995 -0.2189 -0.0029
    1SOL     OW 1309   1.376   1.145   0.845  0.2402  0.1081 -0.3230
    1SOL    HW2 1310   1.385   1.125   0.938  1.6562  1.8843 -0.0429
    1SOL    HW3 1311   1.293   1.192   0.838  0.4587  0.5656  0.1524
    1SOL    MW4 1312   1.366   1.148   0.856  0.4559  0.4027 -0.2233
    1SOL     OW 1313   3.369   2.070   0.729  0.0643  0.5275  0.0450
    1SOL    HW2 1314   3.406   2.089   0.643  0.6125  1.2138  0.4240
    1SOL    HW3 1315   3.433   2.012   0.771 -0.4258 -0.1782 -0.1857
    1SOL    MW4 1316   3.382   2.065   0.723  0.0718  0.5245  0.0646
    1SOL     OW 1317   4.478   4.101   0.492  0.0193 -0.0128  0.0629
    1SOL    HW2 1318   4.489   4.034   0.425 -1.9092 -1.8687  1.5307
    1SOL    HW3 1319   4.495   4.056   0.575 -1.0073  1.3699  1.0636
    1SOL    MW4 1320   4.482   4.086   0.494 -0.3705 -0.0749  0.3886
    1SOL     OW 1321   3.846   1.357   0.531  0.1768 -0.6189 -0.1823
    1SOL    HW2 1322   3.931   1.402   0.526 -0.2846  0.1000 -2.1048
    1SOL    HW3 1323   3.846   1.298   0.456 -0.8136 -1.0017  0.1164
    1SOL    MW4 1324   3.858   1.355   0.520 -0.0145 -0.5746 -0.3965
    1SOL     OW 1325   1.817   1.440   0.364  0.0864  0.4167 -0.3219
    1SOL    HW2 1326   1.794   1.527   0.397 -3.0813  0.1848 -1.7717
    1SOL    HW3 1327   1.770   1.433   0.281  0.4596 -2.6084 -0.3093
    1SOL    MW4 1328   1.808   1.451   0.357 -0.2823 -0.0130 -0.5115
    1SOL     OW 1329   3.811   2.579   0.510  0.4545  0.3146  0.1260
    1SOL    HW2 1330   3.752   2.535   0.450 -0.5998 -0.2695  1.5579
    1SOL    HW3 1331   3.787   2.545   0.597  1.3432  1.7879  0.9726
    1SOL    MW4 1332   3.800   2.569   0.514  0.4325  0.4318  0.4266
    1SOL     OW 1333   3.513   3.741   0.366  0.3159 -0.0387 -0.8852
    1SOL    HW2 1334   3.531   3.718   0.275  0.1497  1.3879 -1.2925
    1SOL    HW3 1335   3.540   3.832   0.374  0.0132 -0.0466  0.4102
    1SOL    MW4 1336   3.519   3.750   0.355  0.2539  0.1483 -0.7680
    1SOL     OW 1337   1.118   3.617   0.744  0.0459  0.0964 -0.1933
    1SOL    HW2 1338   1.191   3.572   0.785  0.0502  0.8438  0.6374
    1SOL    HW3 1339   1.043   3.560   0.759  0.0495  0.3643  0.8615
    1SOL    MW4 1340   1.118   3.604   0.751  0.0470  0.2303  0.0555
    1SOL     OW 1341   0.883   2.658   0.757  0.0802 -0.1807 -0.0944
    1SOL    HW2 1342   0.869   2.671   0.851 -1.3651 -0.7749 -0.2199
    1SOL    HW3 1343   0.804   2.692   0.716  0.1170 -1.1985 -1.0186
    1SOL    MW4 1344   0.871   2.664   0.764 -0.1057 -0.3934 -0.2329
    1SOL     OW 1345   1.569   2.811   0.693 -0.0354 -0.0627 -0.5270
    1SOL    HW2 1346   1.571   2.896   0.737 -0.0035  0.1721 -0.9757
    1SOL    HW3 1347   1.483   2.775   0.713  0.1056 -0.1146  0.0134
    1SOL    MW4 1348   1.558   2.817   0.702 -0.0125 -0.0384 -0.5149
    1SOL     OW 1349   3.179   4.085   0.548 -0.0196 -0.2096 -0.3138
    1SOL    HW2 1350   3.097   4.130   0.528 -0.1086 -1.1531 -2.2288
    1SOL    HW3 1351   3.171   4.060   0.640 -1.2302  1.0272 -0.0624
    1SOL    MW4 1352   3.167   4.088   0.557 -0.1915 -0.1707 -0.5333
    1SOL     OW 1353   3.895   4.040   0.331 -0.8854  0.0517  0.6654
    1SOL    HW2 1354   3.818   4.022   0.386 -0.5809 -0.8953  0.7916
    1SOL    HW3 1355   3.919   3.955   0.295 -0.4020  0.4891 -0.0463
    1SOL    MW4 1356   3.888   4.027   0.334 -0.7815 -0.0153  0.5882
    1SOL     OW 1357   1.125   3.882   0.844 -0.1735  0.1686  0.2173
    1SOL    HW2 1358   1.119   3.788   0.824 -1.1788  0.2235  0.2426
    1SOL    HW3 1359   1.118   3.886   0.939  0.7217  0.2094  0.2853
    1SOL    MW4 1360   1.123   3.870   0.854 -0.1879  0.1812  0.2297
    1SOL     OW 1361   4.055   4.295   0.831  0.0154 -0.0348 -0.7168
    1SOL    HW2 1362   3.977   4.340   0.799  0.3071 -0.7766 -2.4811
    1SOL    HW3 1363   4.128   4.353   0.807  0.2071 -0.4295 -1.0834
    1SOL    MW4 1364   4.055   4.309   0.824  0.0792 -0.1850 -0.9980
    1SOL     OW 1365   2.193   3.212   0.782 -0.0898  0.1540  0.0343
    1SOL    HW2 1366   2.133   3.160   0.834  0.4188 -0.0038  0.4706
    1SOL    HW3 1367   2.279   3.172   0.797  0.2561  0.9216  0.1340
    1SOL    MW4 1368   2.196   3.200   0.791  0.0229  0.2346  0.1050
    1SOL     OW 1369   2.279   1.628   0.751 -0.5142 -0.2989  0.3204
    1SOL    HW2 1370   2.348   1.598   0.809 -1.8870 -0.5598  1.8488
    1SOL    HW3 1371   2.265   1.720   0.775 -0.0520  0.0268 -0.6328
    1SOL    MW4 1372   2.286   1.636   0.762 -0.6342 -0.2905  0.3963
    1SOL     OW 1373   2.018   4.371   0.706  0.1810 -0.4081 -0.3209
    1SOL    HW2 1374   2.008   4.348   0.613 -0.7228  0.1506 -0.3700
    1SOL    HW3 1375   1.946   4.326   0.750  1.0912 -1.3421  0.2425
    1SOL    MW4 1376   2.007   4.362   0.699  0.1819 -0.4573 -0.2531
    1SOL     OW 1377   1.903   3.837   0.121 -0.2934  0.1943  0.1636
    1SOL    HW2 1378   1.938   3.816   0.035 -0.3805 -0.0670  0.1912
    1SOL    HW3 1379   1.828   3.779   0.132 -0.7572  0.7679  0.0901
    1SOL    MW4 1380   1.897   3.827   0.111 -0.3661  0.2360  0.1575
    1SOL     OW 1381   2.428   4.639   0.841 -0.0208  0.0956 -0.2518
    1SOL    HW2 1382   2.444   4.654   0.935  0.5281 -0.3551 -0.2718
    1SOL    HW3 1383   2.434   4.544   0.830 -1.5487  0.0142 -0.4883
    1SOL    MW4 1384   2.431   4.629   0.852 -0.1500  0.0253 -0.2858
    1SOL     OW 1385   1.847   3.177   0.484  0.1482  0.2304 -0.4073
    1SOL    HW2 1386   1.940   3.182   0.466 -0.0893  2.2818 -1.2218
    1SOL    HW3 1387   1.819   3.096   0.443  1.1518  0.7801 -2.2132
    1SOL    MW4 1388   1.855   3.167   0.476  0.2493  0.5736 -0.7530
    1SOL     OW 1389   1.718   0.369   0.874  0.2635  0.0313 -0.3046
    1SOL    HW2 1390   1.655   0.422   0.825  0.5715 -0.5242 -1.3045
    1SOL    HW3 1391   1.725   0.287   0.825  0.1804 -0.7436  0.9542
    1SOL    MW4 1392   1.711   0.365   0.861  0.2933 -0.1442 -0.2704
    1SOL     OW 1393   3.381   4.627   0.361 -0.0542 -0.2564  0.1438
    1SOL    HW2 1394   3.355   4.594   0.275  0.4311  0.3770 -0.2523
    1SOL    HW3 1395   3.298   4.646   0.406 -0.2877  2.3099 -1.3277
    1SOL    MW4 1396   3.366   4.625   0.356 -0.0207  0.1658 -0.1026
    1SOL     OW 1397   3.147   3.828   0.384  0.2085  0.0579  0.1772
    1SOL    HW2 1398   3.209   3.760   0.410  0.3556  1.0825  2.6526
    1SOL    HW3 1399   3.168   3.902   0.440 -3.3797  0.3600  1.2797
    1SOL    MW4 1400   3.158   3.829   0.394 -0.2453  0.2327  0.6493
    1SOL     OW 1401   1.556   3.062   0.823 -0.2179  0.2287 -0.2422
    1SOL    HW2 1402   1.545   3.072   0.917  1.7318  1.5080 -0.0972
    1SOL    HW3 1403   1.485   3.113   0.785 -0.0229  1.1314  0.5647
    1SOL    MW4 1404   1.545   3.070   0.830  0.0651  0.5164 -0.1166
    1SOL     OW 1405   3.821   3.710   0.468  0.2963  0.3377 -0.3732
    1SOL    HW2 1406   3.881   3.746   0.402  2.0859 -1.0807  0.4452
    1SOL    HW3 1407   3.735   3.716   0.427  1.2773  0.2569 -2.5261
    1SOL    MW4 1408   3.817   3.716   0.454  0.6618  0.1400 -0.5493
    1SOL     OW 1409   1.509   3.072   0.299  0.5318  0.0307  0.2150
    1SOL    HW2 1410   1.599   3.049   0.320  0.8229  0.3988 -0.6040
    1SOL    HW3 1411   1.470   2.991   0.266  1.1729  0.3596 -1.4075
    1SOL    MW4 1412   1.516   3.058   0.297  0.6548  0.1230 -0.1071
    1SOL     OW 1413   2.509   1.504   0.901 -0.0379  0.3949 -0.4778
    1SOL    HW2 1414   2.522   1.428   0.844 -2.6037  0.7808 -1.6416
    1SOL    HW3 1415   2.575   1.567   0.872 -0.3608  0.0277 -2.0400
    1SOL    MW4 1416   2.519   1.502   0.889 -0.4187  0.3972 -0.8375
    1SOL     OW 1417   4.047   4.032   0.755  0.1375 -0.2000 -0.2065
    1SOL    HW2 1418   4.088   4.034   0.669  0.2149  1.2153 -0.1410
    1SOL    HW3 1419   4.049   4.123   0.785 -2.4196 -0.1961  0.0738
    1SOL    MW4 1420   4.053   4.044   0.748 -0.1893 -0.0124 -0.1609
    1SOL     OW 1421   1.483   1.932   0.156 -0.2058 -0.2433 -0.2072
    1SOL    HW2 1422   1.557   1.926   0.095 -0.3695  0.8418 -0.5362
    1SOL    HW3 1423   1.518   1.903   0.240  0.6677  0.5077 -0.3036
    1SOL    MW4 1424   1.498   1.928   0.159 -0.1122 -0.0011 -0.2633
    1SOL     OW 1425   4.067   1.553   0.527 -0.2042 -0.1229  0.1422
    1SOL    HW2 1426   4.065   1.599   0.611  1.1472  0.3048 -0.0505
    1SOL    HW3 1427   4.156   1.517   0.521 -0.7824 -1.4995 -0.3882
    1SOL    MW4 1428   4.079   1.555   0.538 -0.1025 -0.2480  0.0468
    1SOL     OW 1429   1.491   2.100   0.516  0.3158  0.2352 -0.0600
    1SOL    HW2 1430   1.569   2.150   0.494  0.5993  0.4440  1.3595
    1SOL    HW3 1431   1.509   2.012   0.483  0.7996  0.4859 -0.4707
    1SOL    MW4 1432   1.504   2.095   0.509  0.4171  0.2959  0.0731
    1SOL     OW 1433   3.540   1.134   0.853  0.3645  0.7451  0.6409
    1SOL    HW2 1434   3.533   1.046   0.816 -1.2827  1.3249 -0.4710
    1SOL    HW3 1435   3.536   1.120   0.948  0.2618 -0.3849  0.4798
    1SOL    MW4 1436   3.538   1.120   0.861  0.1335  0.6726  0.4730
    1SOL     OW 1437   0.989   4.153   0.300  0.1748 -0.0693 -0.5552
    1SOL    HW2 1438   0.998   4.067   0.341 -0.8493  0.0035 -0.1744
    1SOL    HW3 1439   1.074   4.167   0.257  0.4408 -1.1560 -0.4190
    1SOL    MW4 1440   1.002   4.143   0.300  0.0749 -0.2027 -0.4870
    1SOL     OW 1441   1.106   2.058   0.727  0.2134  0.0243 -0.0542
    1SOL    HW2 1442   1.031   2.000   0.740  0.1413 -0.1784 -1.3824
    1SOL    HW3 1443   1.176   2.016   0.778 -0.6735  0.4615  1.5665
    1SOL    MW4 1444   1.105   2.045   0.736  0.0868  0.0553 -0.0157
    1SOL     OW 1445   3.347   1.037   0.433  0.0599  0.5525 -0.0340
    1SOL    HW2 1446   3.289   0.963   0.451  1.2770 -0.8337 -1.5981
    1SOL    HW3 1447   3.293   1.098   0.381 -0.3749 -0.1453 -0.4088
    1SOL    MW4 1448   3.332   1.035   0.428  0.1631  0.2776 -0.2898
    1SOL     OW 1449   2.851   2.737   0.489  0.2667  0.0599 -0.6048
    1SOL    HW2 1450   2.811   2.653   0.512  0.4598 -0.1182 -0.9156
    1SOL    HW3 1451   2.939   2.714   0.460  0.1606  0.3235 -1.1340
    1SOL    MW4 1452   2.857   2.722   0.488  0.2782  0.0710 -0.7156
    1SOL     OW 1453   1.794   3.466   0.865 -0.4102 -0.1522 -0.5093
    1SOL    HW2 1454   1.813   3.454   0.958 -0.7263 -0.0060 -0.4243
    1SOL    HW3 1455   1.801   3.378   0.828  0.4317 -0.1020 -0.4842
    1SOL    MW4 1456   1.797   3.453   0.872 -0.3408 -0.1266 -0.4948
    1SOL     OW 1457   0.198   3.061   0.429  0.0113  0.0731 -0.2784
    1SOL    HW2 1458   0.108   3.049   0.458  0.1765 -0.5003  0.0071
    1SOL    HW3 1459   0.235   2.973   0.430  1.2831  0.5964  1.9005
    1SOL    MW4 1460   0.191   3.048   0.433  0.2009  0.0663  0.0467
    1SOL     OW 1461   2.250   1.373   0.109 -0.2023 -0.0374  0.1765
    1SOL    HW2 1462   2.291   1.369   0.022 -0.7276 -0.1309 -0.0738
    1SOL    HW3 1463   2.200   1.292   0.115  0.2768 -0.2886  0.7983
    1SOL    MW4 1464   2.249   1.362   0.098 -0.2084 -0.0829  0.2255
    1SOL     OW 1465   0.855   0.432   0.867  0.0068 -0.4111  0.1666
    1SOL    HW2 1466   0.888   0.349   0.834  0.5677  0.0039 -0.3129
    1SOL    HW3 1467   0.849   0.419   0.962 -0.0037 -1.0317  0.0822
    1SOL    MW4 1468   0.858   0.420   0.875  0.0794 -0.4383  0.0922
    1SOL     OW 1469   0.016   3.911   0.287  0.0558 -0.4596 -0.1119
    1SOL    HW2 1470   0.009   3.952   0.201  1.0261 -0.9169 -0.4256
    1SOL    HW3 1471  -0.072   3.880   0.306 -0.7086  1.8213  0.1685
    1SOL    MW4 1472   0.004   3.912   0.278  0.0825 -0.2189 -0.1163
    1SOL     OW 1473   1.784   0.075   0.477  0.2555 -0.4052 -0.5616
    1SOL    HW2 1474   1.788   0.093   0.571 -1.0134  1.1261 -0.7823
    1SOL    HW3 1475   1.869   0.103   0.443  0.0892  0.6493 -0.1262
    1SOL    MW4 1476   1.796   0.081   0.485  0.0662 -0.0641 -0.5333
    1SOL     OW 1477   0.409   1.593   0.503 -0.4884 -0.1405  0.5375
    1SOL    HW2 1478   0.392   1.602   0.596 -2.2040 -2.3690  0.4676
    1SOL    HW3 1479   0.328   1.625   0.461  0.6606  1.8478 -0.2497
    1SOL    MW4 1480   0.396   1.599   0.509 -0.5631 -0.1724  0.4244
    1SOL     OW 1481   2.225   0.345   1.116 -0.2196  0.0078  0.0896
    1SOL    HW2 1482   2.212   0.352   1.022 -0.8600 -1.6370  0.0421
    1SOL    HW3 1483   2.146   0.383   1.154 -0.1936  0.1979 -0.0506
    1SOL    MW4 1484   2.213   0.351   1.109 -0.3006 -0.1841  0.0648
    1SOL     OW 1485   4.281   0.477   0.881  0.9736  0.4587  0.2591
    1SOL    HW2 1486   4.276   0.505   0.790 -2.8366 -0.9210 -0.0184
    1SOL    HW3 1487   4.357   0.419   0.884  0.4064 -0.4654 -2.3087
    1SOL    MW4 1488   4.291   0.473   0.870  0.3963  0.1547 -0.1164
    1SOL     OW 1489   2.994   0.277   0.461 -0.2362 -0.1994 -0.1000
    1SOL    HW2 1490   2.915   0.248   0.415 -0.0020  0.0025 -0.6282
    1SOL    HW3 1491   2.961   0.317   0.541 -0.6841  0.1501 -0.4562
    1SOL    MW4 1492   2.979   0.278   0.465 -0.2642 -0.1267 -0.2167
    1SOL     OW 1493   2.938   1.442   0.452 -0.0064 -0.9177 -0.0359
    1SOL    HW2 1494   2.889   1.366   0.423  0.3955 -1.4693  0.7137
    1SOL    HW3 1495   2.954   1.426   0.545 -2.0726  1.2194  0.7590
    1SOL    MW4 1496   2.933   1.430   0.461 -0.2258 -0.7086  0.1679
    1SOL     OW 1497   2.525   1.264   0.760 -0.0728  0.2348  0.1571
    1SOL    HW2 1498   2.518   1.255   0.665 -2.3592  0.9252  0.2417
    1SOL    HW3 1499   2.451   1.216   0.795  0.5897  0.2277  1.6049
    1SOL    MW4 1500   2.515   1.257   0.752 -0.2868  0.3250  0.3594
    1SOL     OW 1501   2.304   1.137   0.859 -0.4096 -0.1551  0.1182
    1SOL    HW2 1502   2.282   1.048   0.831  0.1678  0.0865 -1.1731
    1SOL    HW3 1503   2.292   1.137   0.954 -2.7191 -0.9440 -0.1594
    1SOL    MW4 1504   2.300   1.125   0.868 -0.6380 -0.2273 -0.0888
    1SOL     OW 1505   1.578   1.572   0.867 -0.1244  0.0046  0.0861
    1SOL    HW2 1506   1.573   1.563   0.962 -3.9785 -0.7765 -0.1106
    1SOL    HW3 1507   1.577   1.482   0.834  0.8091  0.2824 -0.7577
    1SOL    MW4 1508   1.577   1.559   0.875 -0.5097 -0.0619 -0.0512
    1SOL     OW 1509   3.106   0.897   0.764 -0.2780  0.1832 -0.1581
    1SOL    HW2 1510   3.189   0.854   0.787 -1.1192 -1.6848 -0.5321
    1SOL    HW3 1511   3.112   0.983   0.804  2.0490  0.2509 -0.5425
    1SOL    MW4 1512   3.118   0.903   0.772 -0.0818 -0.0543 -0.2582
    1SOL     OW 1513   1.340   0.645   0.458 -0.0187 -0.2348  0.2412
    1SOL    HW2 1514   1.261   0.590   0.464 -0.0350 -0.2770 -0.3582
    1SOL    HW3 1515   1.411   0.582   0.443  0.2757 -0.2905  1.7939
    1SOL    MW4 1516   1.339   0.629   0.457  0.0180 -0.2477  0.3670
    1SOL     OW 1517   2.255   1.902   0.824 -0.0146  0.0160 -0.0074
    1SOL    HW2 1518   2.176   1.954   0.810 -0.0752 -0.6282 -2.2606
    1SOL    HW3 1519   2.326   1.955   0.788  0.0479 -1.0459 -1.4740
    1SOL    MW4 1520   2.254   1.916   0.818 -0.0145 -0.2092 -0.4982
    1SOL     OW 1521   2.157   3.864   0.474 -0.0200  0.0197  0.1036
    1SOL    HW2 1522   2.091   3.915   0.428  0.5890  0.2779 -0.4893
    1SOL    HW3 1523   2.126   3.773   0.467 -0.3600  0.1491 -0.0877
    1SOL    MW4 1524   2.144   3.859   0.467  0.0155  0.0708  0.0001
    1SOL     OW 1525   3.241   2.897   0.450  0.0858 -0.8091 -0.1204
    1SOL    HW2 1526   3.272   2.895   0.541 -0.5216  0.0565  0.1101
    1SOL    HW3 1527   3.209   2.809   0.433  0.1920 -0.9712  0.5102
    1SOL    MW4 1528   3.241   2.885   0.460  0.0198 -0.7162 -0.0068
    1SOL     OW 1529   2.251   2.498   0.757  0.0908  0.0261 -0.0108
    1SOL    HW2 1530   2.173   2.453   0.791  0.3773 -0.4941 -0.0352
    1SOL    HW3 1531   2.259   2.576   0.811 -0.0013 -0.3195  0.5048
    1SOL    MW4 1532   2.241   2.502   0.769  0.1168 -0.0882  0.0540
    1SOL     OW 1533   2.251   2.731   0.911 -0.4139  0.1492 -0.5942
    1SOL    HW2 1534   2.287   2.721   0.999 -0.5840 -2.1738 -0.7653
    1SOL    HW3 1535   2.322   2.770   0.861 -0.3142  1.4885  0.5622
    1SOL    MW4 1536   2.265   2.735   0.916 -0.4234  0.0196 -0.4642
    1SOL     OW 1537   1.643   3.702   0.139 -0.0510 -0.3728 -0.4665
    1SOL    HW2 1538   1.620   3.620   0.182  0.3393  0.6531  1.7716
    1SOL    HW3 1539   1.579   3.711   0.069 -1.5893 -1.4245  0.7691
    1SOL    MW4 1540   1.632   3.692   0.136 -0.2024 -0.3760 -0.0082
    1SOL     OW 1541   1.811   4.269   0.840 -0.6404  0.1381  0.2913
    1SOL    HW2 1542   1.819   4.261   0.935 -1.2237  0.2307  0.3497
    1SOL    HW3 1543   1.789   4.181   0.810 -0.1828  0.0485  0.2091
    1SOL    MW4 1544   1.809   4.256   0.848 -0.6570  0.1388  0.2882
    1SOL     OW 1545   2.121   3.174   0.517 -0.0229  0.2854  0.8185
    1SOL    HW2 1546   2.123   3.079   0.505  2.2117  0.4118  0.0212
    1SOL    HW3 1547   2.145   3.187   0.609  0.0588  0.0847  0.8260
    1SOL    MW4 1548   2.124   3.164   0.528  0.2828  0.2756  0.7143
    1SOL     OW 1549   3.442   2.083   0.459  0.0156 -0.0632 -0.2188
    1SOL    HW2 1550   3.360   2.120   0.426  0.4019  0.2168 -0.8505
    1SOL    HW3 1551   3.441   1.993   0.427  0.1349  0.0495 -0.5378
    1SOL    MW4 1552   3.431   2.076   0.451  0.0825 -0.0112 -0.3442
    1SOL     OW 1553   1.584   3.625   0.501 -0.0041 -0.3251  0.3689
    1SOL    HW2 1554   1.568   3.712   0.467 -0.6327  0.0916  1.6784
    1SOL    HW3 1555   1.668   3.599   0.463 -0.1875  0.5287 -0.6366
    1SOL    MW4 1556   1.593   3.633   0.492 -0.1112 -0.1574  0.4090
    1SOL     OW 1557   1.758   4.014   0.732 -0.2169 -0.1782 -0.2746
    1SOL    HW2 1558   1.830   3.964   0.769 -0.5554 -0.7503 -0.3789
    1SOL    HW3 1559   1.679   3.971   0.765 -0.5130  0.0532 -0.6695
    1SOL    MW4 1560   1.757   4.001   0.741 -0.3008 -0.2232 -0.3405
    1SOL     OW 1561   3.112   4.014   0.810 -0.2385 -0.0365  0.5759
    1SOL    HW2 1562   3.059   3.940   0.782  0.0078 -0.2725  0.7211
    1SOL    HW3 1563   3.194   3.974   0.841 -0.1140  0.2930  0.6766
    1SOL    MW4 1564   3.116   3.999   0.810 -0.1893 -0.0243  0.6084
    1SOL     OW 1565   2.439   2.027   0.465 -0.0602 -0.7613 -0.0256
    1SOL    HW2 1566   2.475   2.079   0.394 -2.2257  1.6298  0.5372
    1SOL    HW3 1567   2.424   1.940   0.427  0.6684 -0.0950 -1.8683
    1SOL    MW4 1568   2.442   2.022   0.451 -0.2499 -0.3579 -0.1944
    1SOL     OW 1569   2.247   1.356   0.394 -0.2508  0.0518 -0.3692
    1SOL    HW2 1570   2.154   1.338   0.410 -0.2644 -1.3226 -1.9061
    1SOL    HW3 1571   2.253   1.367   0.299  0.8748  1.8873 -0.0939
    1SOL    MW4 1572   2.235   1.355   0.384 -0.1044  0.1127 -0.5356
    1SOL     OW 1573   2.903   0.691   0.816  0.3991  0.0604  0.0361
    1SOL    HW2 1574   2.903   0.670   0.909 -0.7843  0.9863  0.2585
    1SOL    HW3 1575   2.963   0.765   0.809  0.7068 -0.1901  0.0198
    1SOL    MW4 1576   2.911   0.698   0.827  0.2835  0.1495  0.0633
    1SOL     OW 1577   2.687   3.771   0.248 -0.1463  0.1902 -0.1862
    1SOL    HW2 1578   2.614   3.832   0.247 -0.0442  0.3565  1.3164
    1SOL    HW3 1579   2.646   3.684   0.245 -0.4368  0.2707  1.3150
    1SOL    MW4 1580   2.672   3.768   0.247 -0.1712  0.2227  0.2101
    1SOL     OW 1581   2.449   0.718   0.840 -0.7891  0.3399 -0.3574
    1SOL    HW2 1582   2.518   0.759   0.788  0.9131  0.1456  1.6566
    1SOL    HW3 1583   2.450   0.626   0.812 -1.0016  0.5783 -1.1430
    1SOL    MW4 1584   2.458   0.711   0.829 -0.5927  0.3457 -0.1953
    1SOL     OW 1585   1.882   1.006   0.404 -0.3833 -0.0361  0.2978
    1SOL    HW2 1586   1.840   0.938   0.457 -0.5867 -0.5843 -0.5485
    1SOL    HW3 1587   1.949   0.960   0.354 -0.2957  0.4417 -0.0294
    1SOL    MW4 1588   1.885   0.991   0.405 -0.3985 -0.0454  0.1429
    1SOL     OW 1589   2.877   0.583   0.262 -0.8080  0.3292  0.1196
    1SOL    HW2 1590   2.962   0.598   0.303 -0.8129 -1.4982  0.8363
    1SOL    HW3 1591   2.845   0.671   0.240  0.2449  1.1810  1.8840
    1SOL    MW4 1592   2.884   0.597   0.264 -0.6697  0.2005  0.4469
    1SOL     OW 1593   0.837   2.695   0.376 -0.6424  0.3318  0.3436
    1SOL    HW2 1594   0.869   2.779   0.407 -0.2192 -0.0025  0.8218
    1SOL    HW3 1595   0.748   2.713   0.345 -0.4834  0.9893  0.2632
    1SOL    MW4 1596   0.829   2.708   0.376 -0.5656  0.3743  0.3961
    1SOL     OW 1597   3.115   2.642   0.445 -0.2650 -0.3405 -0.1268
    1SOL    HW2 1598   3.165   2.592   0.510 -0.0486 -0.2905 -0.2533
    1SOL    HW3 1599   3.079   2.576   0.386  0.6735 -0.3087 -0.7571
    1SOL    MW4 1600   3.117   2.627   0.446 -0.1125 -0.3297 -0.2266
    1SOL     OW 1601   2.672   1.708   0.802 -0.1711  0.1660  0.1523
    1SOL    HW2 1602   2.674   1.694   0.707 -1.4983  0.2964  0.0954
    1SOL    HW3 1603   2.693   1.800   0.813 -0.0641  0.1628 -0.0219
    1SOL    MW4 1604   2.675   1.718   0.791 -0.3321  0.1827  0.1219
    1SOL     OW 1605   3.134   1.686   0.775  0.1325 -0.3903 -0.0421
    1SOL    HW2 1606   3.158   1.690   0.683 -0.0757 -1.2990 -0.1406
    1SOL    HW3 1607   3.109   1.776   0.798 -2.5843 -0.6894 -1.6217
    1SOL    MW4 1608   3.134   1.699   0.766 -0.2534 -0.5497 -0.2635
    1SOL     OW 1609   0.009   0.285   0.603  0.2870 -0.5424  0.1019
    1SOL    HW2 1610  -0.017   0.369   0.564 -0.1909 -0.9954 -0.5688
    1SOL    HW3 1611   0.001   0.299   0.697  0.8311  0.3660  0.0213
    1SOL    MW4 1612   0.005   0.298   0.610  0.2957 -0.4823  0.0027
    1SOL     OW 1613   1.801   2.486   0.471 -0.2950 -0.8925  0.1635
    1SOL    HW2 1614   1.795   2.463   0.564  1.1630 -0.5345  0.3710
    1SOL    HW3 1615   1.782   2.404   0.425  0.4891 -1.4623  0.8226
    1SOL    MW4 1616   1.798   2.472   0.478  0.0008 -0.9205  0.2778
    1SOL     OW 1617   2.766   1.124   0.795  0.4286  0.4274  0.2143
    1SOL    HW2 1618   2.835   1.183   0.766  1.6910 -0.4184  1.4092
    1SOL    HW3 1619   2.685   1.171   0.778  1.3466  1.8210 -0.3571
    1SOL    MW4 1620   2.765   1.138   0.789  0.7167  0.4997  0.2967
    1SOL     OW 1621   3.077   2.211   0.715 -0.3005  0.0312 -0.3525
    1SOL    HW2 1622   3.013   2.239   0.780  1.0709 -0.4905  1.2455
    1SOL    HW3 1623   3.105   2.124   0.744  0.1834 -0.2892 -1.7338
    1SOL    MW4 1624   3.072   2.203   0.727 -0.0556 -0.0801 -0.3240
    1SOL     OW 1625   2.867   2.271   0.896  0.4703  1.0443 -0.1645
    1SOL    HW2 1626   2.871   2.262   0.992  0.9133 -0.9101 -0.3450
    1SOL    HW3 1627   2.806   2.344   0.881 -0.3945  0.7051  1.5803
    1SOL    MW4 1628   2.859   2.280   0.907  0.4146  0.7412  0.0419
    1SOL     OW 1629   2.670   2.760   0.860 -0.6272  0.8688  0.3456
    1SOL    HW2 1630   2.759   2.781   0.833 -0.9128  2.3672  0.5695
    1SOL    HW3 1631   2.673   2.759   0.955 -0.8086  0.7101  0.3505
    1SOL    MW4 1632   2.682   2.762   0.869 -0.6886  1.0455  0.3757
    1SOL     OW 1633   1.143   1.278   0.798 -0.1110  0.2524 -0.6295
    1SOL    HW2 1634   1.057   1.238   0.811  0.3370 -0.5721 -0.2167
    1SOL    HW3 1635   1.142   1.308   0.707 -0.1445 -1.4206 -1.1890
    1SOL    MW4 1636   1.132   1.277   0.787 -0.0564 -0.0769 -0.6489
    1SOL     OW 1637   1.600   1.284   0.474 -0.1386  0.0605 -0.0231
    1SOL    HW2 1638   1.666   1.340   0.433  0.4518 -0.2564  0.4903
    1SOL    HW3 1639   1.562   1.233   0.402 -1.1372  1.5748 -0.6025
    1SOL    MW4 1640   1.603   1.285   0.459 -0.1924  0.2184 -0.0318
    1SOL     OW 1641   2.442   3.118   0.866  0.2381 -0.1025  0.5669
    1SOL    HW2 1642   2.521   3.151   0.823  0.0324 -0.0544  0.2189
    1SOL    HW3 1643   2.465   3.114   0.958  0.3555  0.7914  0.5876
    1SOL    MW4 1644   2.456   3.122   0.872  0.2267  0.0217  0.5236
    1SOL     OW 1645   2.722   3.440   0.816 -0.0615  0.2004  0.0716
    1SOL    HW2 1646   2.793   3.489   0.774 -0.8936  1.9161  0.6514
    1SOL    HW3 1647   2.744   3.441   0.909  0.0381 -0.7521  0.0656
    1SOL    MW4 1648   2.734   3.447   0.822 -0.1583  0.3011  0.1472
    1SOL     OW 1649   2.921   3.570   0.698 -0.4040  0.2316  0.2720
    1SOL    HW2 1650   2.996   3.531   0.744 -0.0997 -0.3826 -0.7195
    1SOL    HW3 1651   2.918   3.660   0.728  1.7868  0.7328 -0.9448
    1SOL    MW4 1652   2.931   3.577   0.708 -0.0744  0.2165 -0.0194
    1SOL     OW 1653   2.419   2.864   0.487 -0.0926 -0.1433 -0.0200
    1SOL    HW2 1654   2.444   2.859   0.580  1.9058  1.0079 -0.4577
    1SOL    HW3 1655   2.486   2.919   0.447 -1.7123  0.5335 -1.9060
    1SOL    MW4 1656   2.431   2.871   0.494 -0.0429  0.0980 -0.3266
    1SOL     OW 1657   0.639   4.409   0.453  0.2489  0.4451  0.0018
    1SOL    HW2 1658   0.644   4.390   0.547  2.6197 -0.7267 -0.3060
    1SOL    HW3 1659   0.710   4.472   0.438  0.1444  0.3119 -1.0649
    1SOL    MW4 1660   0.649   4.415   0.464  0.5479  0.2728 -0.1796
    1SOL     OW 1661   2.674   3.988   0.749 -0.0727  0.1745  0.0535
    1SOL    HW2 1662   2.675   4.076   0.787  0.0452  0.0596  0.3150
    1SOL    HW3 1663   2.593   3.949   0.782 -0.1194  0.1801 -0.0542
    1SOL    MW4 1664   2.664   3.995   0.759 -0.0634  0.1600  0.0737
    1SOL     OW 1665   2.946   1.336   0.704 -0.5360  0.4508  0.5786
    1SOL    HW2 1666   2.938   1.405   0.770 -0.5163  0.2837  0.7576
    1SOL    HW3 1667   3.029   1.293   0.724 -0.6775  0.2018  0.6370
    1SOL    MW4 1668   2.956   1.339   0.715 -0.5519  0.3959  0.6099
    1SOL     OW 1669   1.965   0.478   0.781 -0.2643  0.3800 -0.1037
    1SOL    HW2 1670   1.886   0.438   0.818  0.8092 -0.7243  1.0891
    1SOL    HW3 1671   1.959   0.570   0.805  0.0932 -0.1976  2.3885
    1SOL    MW4 1672   1.954   0.485   0.789 -0.0756  0.1581  0.3825
    1SOL     OW 1673   2.458   0.415   0.479  0.0570  0.4559 -0.1698
    1SOL    HW2 1674   2.548   0.442   0.463  0.4244 -0.2097  0.6804
    1SOL    HW3 1675   2.443   0.436   0.572 -1.5940  3.1186 -0.9733
    1SOL    MW4 1676   2.468   0.421   0.489 -0.1125  0.7194 -0.1636
    1SOL     OW 1677   1.092   2.040   0.428 -0.3360 -0.1895 -0.4004
    1SOL    HW2 1678   1.148   2.100   0.378  0.3396 -1.4079 -1.1361
    1SOL    HW3 1679   1.122   2.050   0.518 -0.2523  0.5995 -0.5107
    1SOL    MW4 1680   1.104   2.050   0.433 -0.2359 -0.2460 -0.5120
    1SOL     OW 1681   3.168   0.385   0.799 -0.7228 -1.0524  0.3868
    1SOL    HW2 1682   3.177   0.375   0.894 -0.9963 -1.4409  0.3707
    1SOL    HW3 1683   3.251   0.424   0.772 -0.4915 -1.2961  0.7361
    1SOL    MW4 1684   3.181   0.389   0.808 -0.7284 -1.1358  0.4308
    1SOL     OW 1685   2.731   2.472   0.562  0.3538  0.1644 -0.2400
    1SOL    HW2 1686   2.724   2.463   0.657 -2.8612 -0.0726 -0.4436
    1SOL    HW3 1687   2.750   2.384   0.531  0.5361  0.0717  0.1328
    1SOL    MW4 1688   2.732   2.459   0.571 -0.0463  0.1206 -0.2177
    1SOL     OW 1689   2.450   0.461   0.762  0.1319 -0.5307  0.0347
    1SOL    HW2 1690   2.378   0.406   0.792  0.0602 -1.6347 -2.0098
    1SOL    HW3 1691   2.528   0.423   0.803 -0.0585 -1.4710 -0.4518
    1SOL    MW4 1692   2.451   0.449   0.771  0.0975 -0.8004 -0.2993
    1SOL     OW 1693   3.827   4.428   0.737 -0.0838 -0.1087  0.4457
    1SOL    HW2 1694   3.753   4.377   0.768  0.0573 -0.5131  0.1296
    1SOL    HW3 1695   3.800   4.459   0.650  0.7808 -1.7302 -0.4383
    1SOL    MW4 1696   3.814   4.425   0.729  0.0491 -0.3757  0.2874
    1SOL     OW 1697   3.364   1.535   0.905  0.6625 -0.0549 -0.4317
    1SOL    HW2 1698   3.274   1.564   0.889  1.0657  0.2036 -2.4331
    1SOL    HW3 1699   3.376   1.545   0.999 -0.5193  2.5615 -0.5065
    1SOL    MW4 1700   3.354   1.540   0.915  0.5600  0.3245 -0.7057
    1SOL     OW 1701   2.242   0.871   0.766 -0.2081 -0.1527  0.1607
    1SOL    HW2 1702   2.232   0.859   0.672 -0.1317 -1.1023  0.2638
    1SOL    HW3 1703   2.319   0.819   0.789  0.7036  1.3119  0.5148
    1SOL    MW4 1704   2.251   0.862   0.757 -0.0775 -0.0848  0.2211
    1SOL     OW 1705   3.589   0.859   0.748 -0.0396 -0.0488  0.5745
    1SOL    HW2 1706   3.622   0.845   0.659  0.5994  0.3285  0.7520
    1SOL    HW3 1707   3.654   0.817   0.804 -0.1909  0.1449  0.8932
    1SOL    MW4 1708   3.602   0.852   0.743  0.0246  0.0265  0.6400
    1SOL     OW 1709   3.148   2.151   0.442 -0.1554 -0.5918 -0.4688
    1SOL    HW2 1710   3.070   2.100   0.424 -0.8193  0.8779 -1.8694
    1SOL    HW3 1711   3.130   2.195   0.526 -0.2988 -1.2557 -0.1508
    1SOL    MW4 1712   3.136   2.150   0.451 -0.2620 -0.4857 -0.6116
    1SOL     OW 1713   1.551   3.892   0.854 -0.0943  0.2210 -0.0209
    1SOL    HW2 1714   1.474   3.935   0.817  1.1574  0.5987 -2.2450
    1SOL    HW3 1715   1.552   3.805   0.813  0.3277 -0.0149  0.4760
    1SOL    MW4 1716   1.541   3.886   0.844  0.1265  0.2398 -0.2488
    1SOL     OW 1717   3.545   0.414   0.506  0.1573  0.2036  0.5213
    1SOL    HW2 1718   3.618   0.473   0.488 -0.7161  0.8642 -0.8865
    1SOL    HW3 1719   3.583   0.327   0.497  0.5671  0.5282 -1.1543
    1SOL    MW4 1720   3.560   0.410   0.503  0.0961  0.3336  0.1145
    1SOL     OW 1721   3.733   2.088   0.491  0.5059  0.3055 -0.1829
    1SOL    HW2 1722   3.641   2.114   0.488 -0.0415 -1.3481  1.4107
    1SOL    HW3 1723   3.732   1.994   0.478  1.9857  0.2897 -0.2689
    1SOL    MW4 1724   3.721   2.079   0.489  0.6289  0.0851  0.0160
    1SOL     OW 1725   2.921   2.809   0.743 -0.0344  0.1190  0.0223
    1SOL    HW2 1726   3.004   2.764   0.757  0.8564  1.6515 -0.2244
    1SOL    HW3 1727   2.907   2.805   0.649  0.4890  1.1277 -0.0984
    1SOL    MW4 1728   2.930   2.802   0.733  0.1521  0.4539 -0.0262
    1SOL     OW 1729   1.801   1.674   0.733  0.3878  0.7869 -0.2123
    1SOL    HW2 1730   1.729   1.639   0.785 -0.0621 -0.0919 -1.3965
    1SOL    HW3 1731   1.880   1.637   0.774  0.4023  3.8416  2.6972
    1SOL    MW4 1732   1.802   1.664   0.745  0.3304  1.0740  0.0153
    1SOL     OW 1733   1.314   3.173   0.456  0.2252 -0.0786 -0.1445
    1SOL    HW2 1734   1.386   3.136   0.405  0.4701  0.5530 -0.2564
    1SOL    HW3 1735   1.323   3.267   0.445  0.7809  0.1079  1.7370
    1SOL    MW4 1736   1.325   3.180   0.448  0.3308  0.0293  0.0890
    1SOL     OW 1737   3.097   3.172   0.703 -0.2830  0.2907 -0.1561
    1SOL    HW2 1738   3.033   3.115   0.746  1.0021 -0.6830  0.5145
    1SOL    HW3 1739   3.099   3.141   0.612  0.5283 -0.8701  0.2437
    1SOL    MW4 1740   3.089   3.160   0.696 -0.0064  0.0091 -0.0148
    1SOL     OW 1741   3.126   3.428   0.816  0.3911  0.1102  0.2690
    1SOL    HW2 1742   3.104   3.344   0.776 -0.4363  0.3715  0.1713
    1SOL    HW3 1743   3.153   3.406   0.905  0.7706 -0.3194  0.0506
    1SOL    MW4 1744   3.127   3.414   0.823  0.3319  0.0882  0.2274
    1SOL     OW 1745   3.964   3.789   0.235  0.4252  0.0987  0.2178
    1SOL    HW2 1746   3.938   3.787   0.143  0.0328  1.3051  0.2976
    1SOL    HW3 1747   4.056   3.814   0.234  0.1679  1.0752  0.1885
    1SOL    MW4 1748   3.973   3.792   0.223  0.3395  0.3867  0.2244
    1SOL     OW 1749   3.569   4.024   0.719  0.2675  0.1212  0.4047
    1SOL    HW2 1750   3.485   3.998   0.757 -0.3935 -0.4806 -1.4079
    1SOL    HW3 1751   3.634   3.969   0.763 -0.5066 -0.7202  0.4986
    1SOL    MW4 1752   3.566   4.013   0.730  0.0784 -0.0687  0.1779
    1SOL     OW 1753   4.212   0.572   0.632  0.3230 -0.3019 -0.0146
    1SOL    HW2 1754   4.172   0.492   0.599 -0.3687  0.8483 -2.0573
    1SOL    HW3 1755   4.285   0.589   0.573  1.1631 -0.0258  1.0828
    1SOL    MW4 1756   4.216   0.564   0.620  0.3424 -0.1137 -0.1394
    1SOL     OW 1757   3.127   4.275   0.875 -0.2049 -0.0048 -0.1243
    1SOL    HW2 1758   3.056   4.321   0.831  0.7216  1.2889 -0.3158
    1SOL    HW3 1759   3.116   4.183   0.851 -1.0488  0.3721 -1.1798
    1SOL    MW4 1760   3.116   4.269   0.866 -0.1941  0.2155 -0.2888
    1SOL     OW 1761   2.780   1.212   0.337 -0.1103  0.6092  0.4141
    1SOL    HW2 1762   2.813   1.126   0.362  0.3376  0.6336 -0.0730
    1SOL    HW3 1763   2.702   1.225   0.391 -0.5662 -0.3838  0.0224
    1SOL    MW4 1764   2.774   1.202   0.347 -0.1113  0.4814  0.2982
    1SOL     OW 1765   2.019   1.517   0.837 -0.4526  0.0127 -0.1108
    1SOL    HW2 1766   2.026   1.422   0.830 -0.4426 -0.0214  0.3506
    1SOL    HW3 1767   2.095   1.550   0.789 -1.1596 -0.1777 -1.3735
    1SOL    MW4 1768   2.030   1.509   0.830 -0.5448 -0.0168 -0.2165
    1SOL     OW 1769   3.112   0.105   0.762  0.1534 -0.0806 -0.0820
    1SOL    HW2 1770   3.122   0.200   0.757 -0.3699 -0.0383 -0.4412
    1SOL    HW3 1771   3.185   0.075   0.816 -0.3180  0.6478  0.9715
    1SOL    MW4 1772   3.123   0.113   0.769  0.0219  0.0211  0.0096
    1SOL     OW 1773   3.618   0.364   0.873 -0.0876  0.0394  0.1229
    1SOL    HW2 1774   3.694   0.418   0.851  0.4281 -0.7437 -0.0463
    1SOL    HW3 1775   3.600   0.385   0.965  0.6636 -0.1588  0.3249
    1SOL    MW4 1776   3.626   0.374   0.882  0.0796 -0.0900  0.1273
    1SOL     OW 1777   0.667   0.562   0.708  0.2165 -0.2902  0.8358
    1SOL    HW2 1778   0.593   0.502   0.713 -1.1760  1.4661  1.9901
    1SOL    HW3 1779   0.738   0.519   0.756 -0.5434 -1.2994  1.0440
    1SOL    MW4 1780   0.667   0.549   0.715 -0.0675 -0.1916  1.0155
    1SOL     OW 1781   3.795   0.761   0.900  0.0211  0.2356  0.1143
    1SOL    HW2 1782   3.783   0.740   0.993  0.5912 -0.5720  0.0100
    1SOL    HW3 1783   3.878   0.808   0.897  0.9296 -1.3481 -0.2116
    1SOL    MW4 1784   3.804   0.764   0.912  0.2162 -0.0799  0.0575
    1SOL     OW 1785   1.537   1.833   0.420  0.1622  0.5253 -0.2531
    1SOL    HW2 1786   1.466   1.780   0.456 -0.3157  0.4298 -1.3184
    1SOL    HW3 1787   1.616   1.782   0.440  0.0858  1.2865  2.1255
    1SOL    MW4 1788   1.538   1.819   0.427  0.0890  0.6131 -0.0799
    1SOL     OW 1789   3.814   1.516   0.885  0.1002  0.2340 -0.0585
    1SOL    HW2 1790   3.803   1.424   0.862 -0.5213  0.4808 -0.7885
    1SOL    HW3 1791   3.733   1.558   0.854  0.6388  1.1177 -0.2856
    1SOL    MW4 1792   3.802   1.510   0.878  0.0892  0.3831 -0.1847
    1SOL     OW 1793   2.499   2.217   0.276 -0.0674 -0.0247  0.0112
    1SOL    HW2 1794   2.493   2.311   0.292  0.0830 -0.3401  2.0397
    1SOL    HW3 1795   2.426   2.197   0.218 -1.1626  1.0611  1.0037
    1SOL    MW4 1796   2.489   2.226   0.271 -0.1917  0.0770  0.4098
    1SOL     OW 1797   4.252   2.853   0.693  0.4046 -0.1922  0.1282
    1SOL    HW2 1798   4.331   2.805   0.719  0.7719  0.9649  1.2168
    1SOL    HW3 1799   4.269   2.943   0.720 -0.3546  0.5182 -1.7106
    1SOL    MW4 1800   4.265   2.858   0.700  0.3529  0.0541  0.0292
    1SOL     OW 1801   1.109   0.503   0.756  0.5789  0.0817  0.2879
    1SOL    HW2 1802   1.185   0.453   0.785  1.1477  0.9394  0.3035
    1SOL    HW3 1803   1.038   0.478   0.816 -0.0434 -3.1717 -1.7149
    1SOL    MW4 1804   1.109   0.493   0.768  0.5718 -0.2344  0.0257
    1SOL     OW 1805   3.019   2.386   0.350 -0.0043 -0.1665 -0.1626
    1SOL    HW2 1806   2.927   2.360   0.347 -0.1883  0.1565  2.3615
    1SOL    HW3 1807   3.067   2.305   0.367  0.2165 -0.3366 -1.4847
    1SOL    MW4 1808   3.013   2.372   0.352  0.0005 -0.1462 -0.0041
    1SOL     OW 1809   3.429   2.341   0.819  0.4423  0.7448 -0.3261
    1SOL    HW2 1810   3.406   2.345   0.912 -1.2389  0.2817 -0.7068
    1SOL    HW3 1811   3.413   2.250   0.795 -1.2020  1.3448 -1.5778
    1SOL    MW4 1812   3.424   2.329   0.828  0.0036  0.7629 -0.5414
    1SOL     OW 1813   3.803   2.309   1.109  0.2762  0.2471  0.2742
    1SOL    HW2 1814   3.872   2.359   1.151 -0.7372  1.5191  0.4562
    1SOL    HW3 1815   3.823   2.314   1.015  0.4293  0.6334  0.3270
    1SOL    MW4 1816   3.815   2.316   1.102  0.1626  0.4656  0.3052
    1SOL     OW 1817   1.709   2.228   0.397 -0.2593 -0.2256  0.1010
    1SOL    HW2 1818   1.688   2.196   0.310 -1.3423  0.0603  0.2444
    1SOL    HW3 1819   1.786   2.178   0.424  0.0913 -0.3018 -1.0210
    1SOL    MW4 1820   1.716   2.217   0.389 -0.3560 -0.1979 -0.0281
    1SOL     OW 1821   3.549   2.751   0.799 -0.4706 -0.0409  0.3215
    1SOL    HW2 1822   3.553   2.754   0.895  0.4358  2.7131  0.2474
    1SOL    HW3 1823   3.634   2.786   0.771 -1.3428  0.6809 -1.4856
    1SOL    MW4 1824   3.561   2.756   0.808 -0.4661  0.4175  0.0733
    1SOL     OW 1825   2.261   3.413   0.421 -0.1320 -0.1138  0.5279
    1SOL    HW2 1826   2.188   3.467   0.449  0.6439  1.1749  0.1204
    1SOL    HW3 1827   2.229   3.323   0.427 -1.0094  0.3000  2.5101
    1SOL    MW4 1828   2.247   3.408   0.425 -0.1457  0.1109  0.7356
    1SOL     OW 1829   3.801   3.120   0.851 -0.2954  0.0813  0.3358
    1SOL    HW2 1830   3.732   3.170   0.807  0.2955  0.3975 -0.2392
    1SOL    HW3 1831   3.800   3.034   0.809  0.9810  0.7209 -1.0628
    1SOL    MW4 1832   3.792   3.115   0.840 -0.0494  0.2074  0.0754
    1SOL     OW 1833   4.323   2.115   0.467 -0.2674 -0.3718  0.1956
    1SOL    HW2 1834   4.305   2.084   0.556 -0.7945  1.4992  0.7728
    1SOL    HW3 1835   4.237   2.123   0.427 -0.3130  2.1267  0.7072
    1SOL    MW4 1836   4.310   2.112   0.474 -0.3424  0.2046  0.3392
    1SOL     OW 1837   3.593   3.260   0.694  0.1391 -0.1089 -0.3341
    1SOL    HW2 1838   3.591   3.196   0.622  0.5608 -0.7727  0.2351
    1SOL    HW3 1839   3.514   3.242   0.744  1.2112 -1.4891  0.9229
    1SOL    MW4 1840   3.583   3.249   0.691  0.3362 -0.3781 -0.0932
    1SOL     OW 1841   4.119   4.053   0.495 -0.0882 -0.3111 -0.0452
    1SOL    HW2 1842   4.163   4.137   0.482  0.3705 -0.5986 -0.3598
    1SOL    HW3 1843   4.039   4.059   0.443 -0.6355  0.3729  0.8663
    1SOL    MW4 1844   4.114   4.065   0.487 -0.0997 -0.2594  0.0336
    1SOL     OW 1845   3.840   3.654   0.748  0.3043 -0.4755 -0.3212
    1SOL    HW2 1846   3.919   3.620   0.790  0.0929 -0.8270 -0.2089
    1SOL    HW3 1847   3.864   3.666   0.657  0.0137 -2.0831 -0.6152
    1SOL    MW4 1848   3.854   3.651   0.742  0.2382 -0.7341 -0.3452
    1SOL     OW 1849   0.621   1.774   0.408 -0.1858 -0.4590  0.2375
    1SOL    HW2 1850   0.699   1.719   0.396 -0.9127 -1.0000 -2.2997
    1SOL    HW3 1851   0.555   1.715   0.443  0.3712 -0.1326  1.8497
    1SOL    MW4 1852   0.623   1.759   0.411 -0.2081 -0.4873  0.1155
    1SOL     OW 1853   2.231   3.493   0.825  0.4205  0.1869  0.3575
    1SOL    HW2 1854   2.217   3.402   0.797  1.0787 -0.1161  0.9873
    1SOL    HW3 1855   2.317   3.515   0.790 -0.1675  0.9089 -0.6456
    1SOL    MW4 1856   2.240   3.484   0.817  0.4296  0.2425  0.3083
    1SOL     OW 1857   1.072   4.376   0.469 -0.4019  0.2356 -0.1494
    1SOL    HW2 1858   1.039   4.300   0.421 -0.0148  0.5298 -0.9076
    1SOL    HW3 1859   1.016   4.448   0.439  1.0582  0.7858 -1.6367
    1SOL    MW4 1860   1.060   4.376   0.458 -0.1582  0.3471 -0.4457
    1SOL     OW 1861   4.328   0.009   0.854 -0.2580  0.2927  0.1324
    1SOL    HW2 1862   4.299  -0.008   0.944 -0.1597  2.2223  0.5501
    1SOL    HW3 1863   4.256   0.058   0.815  0.2185  0.5181 -0.4670
    1SOL    MW4 1864   4.315   0.013   0.861 -0.1826  0.5770  0.1084
    1SOL     OW 1865   3.576   0.102   0.796 -0.0515  0.0348  0.1197
    1SOL    HW2 1866   3.573   0.192   0.828 -1.1787 -0.0240  0.2143
    1SOL    HW3 1867   3.588   0.110   0.702  0.8480  0.2565  0.2463
    1SOL    MW4 1868   3.577   0.115   0.788 -0.0815  0.0563  0.1488
    1SOL     OW 1869   3.512   4.411   0.481  0.1167 -0.9619  0.2573
    1SOL    HW2 1870   3.472   4.494   0.455  1.5414  0.4061  2.2460
    1SOL    HW3 1871   3.481   4.397   0.571  0.8121 -1.9940  0.3422
    1SOL    MW4 1872   3.502   4.420   0.490  0.3963 -0.9179  0.5309
    1SOL     OW 1873   4.476   2.734   0.810 -0.1863  0.2335 -0.0035
    1SOL    HW2 1874   4.464   2.738   0.905  1.6480 -0.8426  0.3054
    1SOL    HW3 1875   4.563   2.771   0.795 -0.8684  1.3325 -1.3768
    1SOL    MW4 1876   4.486   2.739   0.821 -0.0343  0.2365 -0.1439
    1SOL     OW 1877   4.291   0.749   0.931 -0.6386  0.2373 -0.3591
    1SOL    HW2 1878   4.275   0.771   1.023 -2.0909  0.6284 -0.6958
    1SOL    HW3 1879   4.285   0.653   0.928 -0.4162  0.2109 -0.0229
    1SOL    MW4 1880   4.288   0.739   0.943 -0.8011  0.2854 -0.3591
    1SOL     OW 1881   3.829   2.844   0.450  0.0409  0.2279 -0.7288
    1SOL    HW2 1882   3.923   2.859   0.440  0.3892 -0.9207  0.6694
    1SOL    HW3 1883   3.821   2.750   0.467 -1.3168  0.4089 -0.2446
    1SOL    MW4 1884   3.840   2.833   0.451 -0.0925  0.1004 -0.4804
    1SOL     OW 1885   1.324   1.675   0.783  0.1009 -0.3189 -0.0494
    1SOL    HW2 1886   1.406   1.630   0.804  0.4716  0.5715  0.4306
    1SOL    HW3 1887   1.323   1.679   0.687 -0.3136 -2.0187 -0.1397
    1SOL    MW4 1888   1.335   1.669   0.773  0.0952 -0.4256  0.0021
    1SOL     OW 1889   2.254   4.201   0.762 -0.2192  0.8130 -0.2702
    1SOL    HW2 1890   2.177   4.247   0.728 -0.6218  0.6665  0.4493
    1SOL    HW3 1891   2.232   4.108   0.753 -0.2916  0.7733  0.3146
    1SOL    MW4 1892   2.241   4.195   0.756 -0.2818  0.7887 -0.0982
    1SOL     OW 1893   4.268   1.516   0.876  0.0884  0.0079  0.0950
    1SOL    HW2 1894   4.294   1.428   0.848 -1.1945 -0.0843 -0.8300
    1SOL    HW3 1895   4.275   1.514   0.971  1.3774 -0.6723 -0.0028
    1SOL    MW4 1896   4.272   1.504   0.885  0.0892 -0.0939 -0.0399
    1SOL     OW 1897   0.883   1.168   0.876  0.2934  0.0211 -0.0792
    1SOL    HW2 1898   0.801   1.209   0.847  0.9730  0.5381 -1.3034
    1SOL    HW3 1899   0.887   1.086   0.826  0.2401 -0.2901  0.4200
    1SOL    MW4 1900   0.873   1.162   0.865  0.3760  0.0483 -0.1749
    1SOL     OW 1901   1.017   0.157   0.483  0.0590 -0.1823 -0.1711
    1SOL    HW2 1902   1.104   0.158   0.444 -0.4674  0.5962 -1.3603
    1SOL    HW3 1903   0.978   0.240   0.456 -0.3878  0.3012  1.8843
    1SOL    MW4 1904   1.023   0.168   0.474 -0.0695 -0.0158 -0.0568
    1SOL     OW 1905   4.027   3.270   0.756 -0.0618 -0.2069 -0.0270
    1SOL    HW2 1906   3.961   3.217   0.801  0.2767 -0.4419  0.1874
    1SOL    HW3 1907   3.997   3.273   0.665 -1.1015  0.8162  0.3296
    1SOL    MW4 1908   4.014   3.264   0.749 -0.1545 -0.1030  0.0483
    1SOL     OW 1909   0.210   2.338   1.135 -0.4112 -0.3654  0.3875
    1SOL    HW2 1910   0.140   2.398   1.159  0.4049  0.5355  0.5456
    1SOL    HW3 1911   0.290   2.384   1.159  0.2929 -0.8281 -1.0034
    1SOL    MW4 1912   0.211   2.352   1.141 -0.2107 -0.3078  0.2249
    1SOL     OW 1913   1.951   3.857   0.839  0.1706  0.0951  0.4602
    1SOL    HW2 1914   1.969   3.867   0.932 -0.8705 -0.1679  0.6957
    1SOL    HW3 1915   1.964   3.763   0.822  0.1193  0.0975  0.4034
    1SOL    MW4 1916   1.955   3.846   0.849  0.0263  0.0606  0.4838
    1SOL     OW 1917   3.807   2.863   0.738 -0.0321 -0.2464  0.0901
    1SOL    HW2 1918   3.886   2.818   0.766 -0.8183 -0.7315  1.6037
    1SOL    HW3 1919   3.815   2.870   0.643  1.5308 -0.8351  0.1724
    1SOL    MW4 1920   3.818   2.858   0.730  0.0703 -0.3884  0.3006
    1SOL     OW 1921   0.905   1.900   0.827  0.1358 -0.1429 -0.2897
    1SOL    HW2 1922   0.831   1.958   0.811 -1.2425 -1.6187  0.6505
    1SOL    HW3 1923   0.935   1.924   0.915 -0.5924 -1.0043  0.2015
    1SOL    MW4 1924   0.899   1.911   0.837 -0.1422 -0.4513 -0.1009
    1SOL     OW 1925   2.234   0.571   0.378 -0.0649 -0.1627 -0.0104
    1SOL    HW2 1926   2.162   0.525   0.422  0.5396 -2.0183 -0.9002
    1SOL    HW3 1927   2.307   0.510   0.381  0.9062  0.9391 -0.8139
    1SOL    MW4 1928   2.234   0.557   0.384  0.1428 -0.2621 -0.2338
    1SOL     OW 1929   4.424   1.900   0.331 -0.2675 -0.3367 -0.3925
    1SOL    HW2 1930   4.381   1.978   0.368  0.3400  0.5539 -1.5141
    1SOL    HW3 1931   4.434   1.841   0.405  0.5103  1.2220  0.7976
    1SOL    MW4 1932   4.420   1.903   0.346 -0.0849 -0.0136 -0.3834
    1SOL     OW 1933   3.622   3.499   0.832  0.1291 -0.2903 -0.0126
    1SOL    HW2 1934   3.699   3.544   0.796 -1.0237  0.4750 -1.6048
    1SOL    HW3 1935   3.622   3.414   0.787 -0.7538  0.2813 -1.1313
    1SOL    MW4 1936   3.632   3.494   0.821 -0.1395 -0.1142 -0.3703
    1SOL     OW 1937   4.275   3.901   0.842 -0.4438 -0.0401 -0.0999
    1SOL    HW2 1938   4.199   3.958   0.829 -0.9964 -0.2651  2.0237
    1SOL    HW3 1939   4.285   3.894   0.937  1.5141 -0.9806 -0.3399
    1SOL    MW4 1940   4.266   3.907   0.853 -0.2584 -0.1936  0.1486
    1SOL     OW 1941   0.104   1.417   0.417  0.3172  0.4006  0.1296
    1SOL    HW2 1942   0.179   1.362   0.439  0.4303  0.8547  0.8934
    1SOL    HW3 1943   0.143   1.496   0.380  0.2108  0.5927  0.4277
    1SOL    MW4 1944   0.119   1.420   0.415  0.3181  0.4858  0.2697
    1SOL     OW 1945   3.797   3.909   0.831  0.0920  0.3384  0.1231
    1SOL    HW2 1946   3.880   3.955   0.820 -0.4591  1.1449 -0.7031
    1SOL    HW3 1947   3.809   3.826   0.785  0.7292  0.0875  0.7368
    1SOL    MW4 1948   3.809   3.904   0.823  0.1035  0.4115  0.0951
    1SOL     OW 1949   3.597   0.105   0.497 -0.2139 -0.3583 -0.5636
    1SOL    HW2 1950   3.651   0.026   0.491 -1.0152 -0.8595 -1.2206
    1SOL    HW3 1951   3.519   0.084   0.446 -0.1096  1.1238 -1.3483
    1SOL    MW4 1952   3.594   0.092   0.490 -0.3059 -0.2289 -0.7538
    1SOL     OW 1953   3.854   0.011   0.859 -0.4298 -0.1543 -0.1847
    1SOL    HW2 1954   3.861  -0.076   0.820  0.3392  0.4793 -1.5122
    1SOL    HW3 1955   3.763   0.036   0.845 -0.8750 -1.0801  0.9626
    1SOL    MW4 1956   3.843   0.003   0.852 -0.3870 -0.1929 -0.2084
    1SOL     OW 1957   0.175   4.655   1.129  0.0449 -0.1787 -0.1669
    1SOL    HW2 1958   0.259   4.698   1.144  0.5923 -1.2670 -0.0686
    1SOL    HW3 1959   0.156   4.671   1.037  0.1463  0.4370 -0.0848
    1SOL    MW4 1960   0.184   4.663   1.119  0.1305 -0.2413 -0.1433
    1SOL     OW 1961   4.451   0.113   1.248  0.0603  0.6881  0.2686
    1SOL    HW2 1962   4.377   0.068   1.207  0.2575  0.9080 -0.3454
    1SOL    HW3 1963   4.528   0.070   1.212  0.2204 -0.8674  2.4462
    1SOL    MW4 1964   4.451   0.102   1.238  0.1068  0.5119  0.4748
    1SOL     OW 1965   0.033   0.378   1.203  0.1675 -0.2138  0.3620
    1SOL    HW2 1966  -0.049   0.425   1.215  0.3732  0.4189 -0.5520
    1SOL    HW3 1967   0.013   0.287   1.222 -0.5447  0.0684  0.9575
    1SOL    MW4 1968   0.020   0.372   1.207  0.1006 -0.0931  0.3200
    1SOL     OW 1969   0.209   0.564   1.275  0.2273 -0.5445 -0.3963
    1SOL    HW2 1970   0.193   0.628   1.206  2.0412 -0.0450 -0.3911
    1SOL    HW3 1971   0.145   0.495   1.261 -1.6462  1.1956 -0.5131
    1SOL    MW4 1972   0.199   0.564   1.264  0.2194 -0.2491 -0.4110
    1SOL     OW 1973   0.176   0.763   1.081 -0.3854  0.3210  0.0449
    1SOL    HW2 1974   0.264   0.791   1.106 -0.0971 -0.8004  0.3138
    1SOL    HW3 1975   0.117   0.817   1.134  0.1176  1.6284 -0.7150
    1SOL    MW4 1976   0.180   0.774   1.091 -0.2810  0.3456 -0.0200
    1SOL     OW 1977   4.478   0.861   1.268  0.5050 -0.0414  0.1794
    1SOL    HW2 1978   4.467   0.866   1.363 -0.2782 -0.2423  0.1062
    1SOL    HW3 1979   4.462   0.950   1.237 -1.0841 -0.3508  0.0659
    1SOL    MW4 1980   4.474   0.874   1.276  0.1917 -0.1087  0.1547
    1SOL     OW 1981   4.473   1.113   1.133 -0.0130  0.0537  0.2495
    1SOL    HW2 1982   4.403   1.173   1.160 -1.6702 -1.5185 -0.4399
    1SOL    HW3 1983   4.551   1.146   1.177 -1.4533  1.0313  2.1569
    1SOL    MW4 1984   4.474   1.125   1.142 -0.4225 -0.0248  0.4102
    1SOL     OW 1985   0.191   1.236   1.275  0.0271  0.2882  0.0191
    1SOL    HW2 1986   0.204   1.263   1.366 -1.2320 -1.0188  0.6180
    1SOL    HW3 1987   0.277   1.205   1.246  0.2499 -0.0481  1.0277
    1SOL    MW4 1988   0.204   1.235   1.283 -0.1097  0.0715  0.2311
    1SOL     OW 1989   0.220   1.480   1.189 -0.2945 -0.1909  0.0355
    1SOL    HW2 1990   0.198   1.390   1.212  1.1728 -0.8143 -0.9093
    1SOL    HW3 1991   0.228   1.480   1.094 -2.9846  1.5938 -0.2426
    1SOL    MW4 1992   0.218   1.469   1.179 -0.4558 -0.0378 -0.1259
    1SOL     OW 1993   0.007   1.645   1.283  0.0988 -0.5608  0.0279
    1SOL    HW2 1994   0.010   1.724   1.230 -1.0850 -0.4728  0.0921
    1SOL    HW3 1995   0.077   1.590   1.248 -0.2259 -0.2180 -1.1669
    1SOL    MW4 1996   0.017   1.648   1.271 -0.1002 -0.5038 -0.1212
    1SOL     OW 1997   0.023   1.920   1.176 -0.0577  0.0878 -0.2218
    1SOL    HW2 1998  -0.062   1.955   1.202 -1.7186 -3.9862  0.2344
    1SOL    HW3 1999   0.029   1.937   1.082 -0.9168  1.2706 -0.0696
    1SOL    MW4 2000   0.012   1.927   1.167 -0.3902 -0.2937 -0.1415
    1SOL     OW 2001   0.243   2.054   1.248  0.0699  0.0596 -0.7937
    1SOL    HW2 2002   0.235   2.137   1.200 -1.2422  0.3855 -0.0211
    1SOL    HW3 2003   0.160   2.009   1.232 -0.4263  0.2215  1.2634
    1SOL    MW4 2004   0.231   2.059   1.239 -0.1687  0.1240 -0.4205
    1SOL     OW 2005   0.222   2.285   0.861 -0.1501  0.2252  0.3405
    1SOL    HW2 2006   0.170   2.353   0.817 -1.1872 -0.9017 -0.1853
    1SOL    HW3 2007   0.215   2.307   0.954 -1.6449  0.0579  0.2894
    1SOL    MW4 2008   0.214   2.297   0.867 -0.4842  0.0541  0.2644
    1SOL     OW 2009   4.487   2.489   1.222 -0.4896 -0.1621 -0.1030
    1SOL    HW2 2010   4.507   2.492   1.315  0.3316 -2.2578 -0.1801
    1SOL    HW3 2011   4.407   2.438   1.216 -0.8238  0.4061 -0.5046
    1SOL    MW4 2012   4.479   2.483   1.233 -0.4254 -0.3633 -0.1661
    1SOL     OW 2013   4.461   2.730   1.081  0.2038 -0.5020 -0.1460
    1SOL    HW2 2014   4.385   2.773   1.120  0.2742 -0.7213  0.2261
    1SOL    HW3 2015   4.467   2.646   1.125  0.6235 -0.5152 -0.2236
    1SOL    MW4 2016   4.452   2.725   1.092  0.2680 -0.5326 -0.1073
    1SOL     OW 2017   0.181   2.867   1.192 -0.0225 -0.0043  0.1057
    1SOL    HW2 2018   0.167   2.859   1.287 -0.6388  0.9846  0.1093
    1SOL    HW3 2019   0.100   2.832   1.154 -0.2293  0.6073 -0.0221
    1SOL    MW4 2020   0.168   2.861   1.200 -0.1311  0.2067  0.0893
    1SOL     OW 2021   0.187   3.116   1.067 -0.1707  0.2337  0.2023
    1SOL    HW2 2022   0.268   3.146   1.108  0.1262  0.0322 -0.2302
    1SOL    HW3 2023   0.167   3.033   1.110  0.2011 -0.0338 -0.1354
    1SOL    MW4 2024   0.195   3.109   1.078 -0.0825  0.1719  0.1007
    1SOL     OW 2025   4.472   3.240   1.205 -0.2960 -0.1836 -0.3037
    1SOL    HW2 2026   4.402   3.198   1.154 -0.2161 -0.0391 -0.5305
    1SOL    HW3 2027   4.551   3.194   1.178 -0.0739  0.7323 -1.2402
    1SOL    MW4 2028   4.473   3.228   1.195 -0.2565 -0.0436 -0.4573
    1SOL     OW 2029   4.465   3.510   1.117  0.2645 -0.6079  0.0088
    1SOL    HW2 2030   4.469   3.418   1.144  0.3618 -0.7468 -0.4684
    1SOL    HW3 2031   4.458   3.506   1.022  3.3538 -0.0754 -0.2980
    1SOL    MW4 2032   4.465   3.497   1.108  0.6847 -0.5558 -0.0947
    1SOL     OW 2033   0.241   3.587   1.174  0.1313  0.0781  0.0054
    1SOL    HW2 2034   0.253   3.575   1.268  0.9044 -0.9917 -0.2212
    1SOL    HW3 2035   0.150   3.562   1.157 -0.4319  1.5851  0.6646
    1SOL    MW4 2036   0.231   3.582   1.184  0.1590  0.1359  0.0626
    1SOL     OW 2037   0.250   3.861   1.122 -0.0411 -0.1646 -0.2605
    1SOL    HW2 2038   0.168   3.904   1.146 -0.7156 -1.2187 -0.6618
    1SOL    HW3 2039   0.239   3.770   1.148  1.1447 -0.2445  0.0213
    1SOL    MW4 2040   0.238   3.855   1.128  0.0264 -0.3142 -0.2762
    1SOL     OW 2041   0.008   3.999   1.201  0.5836  0.3721 -0.0937
    1SOL    HW2 2042   0.014   3.963   1.289  1.7857 -1.7794 -1.0082
    1SOL    HW3 2043  -0.072   3.961   1.164  1.0983 -0.2726 -0.5701
    1SOL    MW4 2044  -0.001   3.989   1.208  0.8101  0.0033 -0.2770
    1SOL     OW 2045   4.482   4.254   1.132  0.0424 -0.2323  0.0039
    1SOL    HW2 2046   4.559   4.291   1.176  1.3939 -0.7677 -1.8689
    1SOL    HW3 2047   4.486   4.160   1.152 -0.4745 -0.1628  0.4288
    1SOL    MW4 2048   4.493   4.246   1.141  0.1526 -0.2937 -0.1872
    1SOL     OW 2049   0.216   4.388   1.209  0.0319  0.2451  0.0890
    1SOL    HW2 2050   0.208   4.388   1.305 -0.7820  0.7753  0.0267
    1SOL    HW3 2051   0.210   4.480   1.185 -0.0500  0.0868 -0.4968
    1SOL    MW4 2052   0.214   4.400   1.219 -0.0863  0.2942  0.0036
    1SOL     OW 2053   0.605   4.656   1.099 -0.1782 -0.5182  0.1955
    1SOL    HW2 2054   0.676   4.712   1.128  1.2379 -1.6702 -0.9581
    1SOL    HW3 2055   0.613   4.577   1.152 -0.4206 -0.7700 -0.1397
    1SOL    MW4 2056   0.615   4.653   1.110 -0.0233 -0.7034 -0.0010
    1SOL     OW 2057   0.394   0.141   1.201  0.4182 -0.6196 -0.1215
    1SOL    HW2 2058   0.398   0.234   1.176  0.0771 -0.8719 -1.1388
    1SOL    HW3 2059   0.478   0.105   1.172  0.2356 -0.8017 -0.4170
    1SOL    MW4 2060   0.406   0.149   1.194  0.3491 -0.6769 -0.2947
    1SOL     OW 2061   2.214   2.241   0.406 -0.3696  0.2863 -0.0211
    1SOL    HW2 2062   2.228   2.325   0.451 -0.8479  1.0784 -1.3260
    1SOL    HW3 2063   2.295   2.192   0.421 -0.2990  0.7700  1.2117
    1SOL    MW4 2064   2.227   2.246   0.414 -0.4237  0.4547 -0.0306
    1SOL     OW 2065   0.625   0.533   1.265 -0.1781 -0.1074  0.0169
    1SOL    HW2 2066   0.620   0.620   1.225  0.7837 -0.4083 -0.7664
    1SOL    HW3 2067   0.551   0.485   1.229  0.4453 -0.2443 -1.0986
    1SOL    MW4 2068   0.615   0.538   1.255  0.0311 -0.1652 -0.2335
    1SOL     OW 2069   0.625   0.771   1.134 -0.0282 -0.4963 -0.1092
    1SOL    HW2 2070   0.545   0.821   1.151 -0.5150 -1.5786  0.9497
    1SOL    HW3 2071   0.637   0.776   1.040 -1.0112  0.1935 -0.2108
    1SOL    MW4 2072   0.616   0.778   1.124 -0.2222 -0.5482  0.0172
    1SOL     OW 2073   0.390   0.902   1.183 -0.5210 -0.0742  0.1059
    1SOL    HW2 2074   0.399   0.898   1.278 -1.0576  0.3720  0.1819
    1SOL    HW3 2075   0.408   0.993   1.161  1.4565 -0.5850 -0.4297
    1SOL    MW4 2076   0.393   0.913   1.193 -0.3309 -0.0827  0.0453
    1SOL     OW 2077   0.438   1.176   1.130 -0.2115  0.3928  0.4944
    1SOL    HW2 2078   0.521   1.221   1.147  0.7697 -0.4822 -1.7034
    1SOL    HW3 2079   0.423   1.191   1.037 -1.0347 -1.8966  0.2401
    1SOL    MW4 2080   0.447   1.184   1.120 -0.1906 -0.0246  0.1709
    1SOL     OW 2081   0.661   1.327   1.214  0.4590 -0.1262 -0.0806
    1SOL    HW2 2082   0.737   1.272   1.195  1.6739  0.8642  1.7094
    1SOL    HW3 2083   0.671   1.404   1.157 -0.1922 -0.8193 -1.1535
    1SOL    MW4 2084   0.672   1.330   1.204  0.5334 -0.0869  0.0141
    1SOL     OW 2085   0.676   1.584   1.100 -0.3767  0.0609  0.1032
    1SOL    HW2 2086   0.751   1.626   1.141 -0.1694  0.1216 -0.3280
    1SOL    HW3 2087   0.601   1.613   1.151 -0.1906  0.6343  0.0585
    1SOL    MW4 2088   0.676   1.593   1.112 -0.3248  0.1444  0.0403
    1SOL     OW 2089   0.445   1.638   1.219 -0.2474 -0.8596  0.4219
    1SOL    HW2 2090   0.438   1.663   1.312 -1.0742  0.2119  0.0840
    1SOL    HW3 2091   0.386   1.563   1.210  0.5200 -1.5377  0.9505
    1SOL    MW4 2092   0.436   1.632   1.230 -0.2552 -0.8076  0.4470
    1SOL     OW 2093   0.452   1.931   1.149  0.1753  0.0092  0.2223
    1SOL    HW2 2094   0.453   1.835   1.156 -1.4093  0.0368  1.2600
    1SOL    HW3 2095   0.371   1.957   1.193  0.0964  1.7727 -0.9182
    1SOL    MW4 2096   0.441   1.922   1.156 -0.0442  0.2456  0.2087
    1SOL     OW 2097   0.666   2.086   1.227  0.3975 -0.1657  0.4044
    1SOL    HW2 2098   0.656   2.088   1.322 -1.5925  2.1462  0.1740
    1SOL    HW3 2099   0.599   2.024   1.198  1.4686 -1.4170  0.5094
    1SOL    MW4 2100   0.656   2.078   1.236  0.2763 -0.0255  0.3879
    1SOL     OW 2101   0.687   2.333   1.128  0.7928  0.2859  0.4283
    1SOL    HW2 2102   0.617   2.384   1.167  0.5760 -0.3702  0.8957
    1SOL    HW3 2103   0.690   2.252   1.178 -0.7009 -1.3743 -2.0594
    1SOL    MW4 2104   0.678   2.329   1.140  0.5671 -0.0198  0.1619
    1SOL     OW 2105   0.439   2.474   1.237  0.3767  0.3798 -0.0657
    1SOL    HW2 2106   0.452   2.471   1.331 -0.1878 -0.0463 -0.0019
    1SOL    HW3 2107   0.445   2.567   1.215  0.5729  0.4741  0.3769
    1SOL    MW4 2108   0.442   2.486   1.246  0.3281  0.3364  0.0012
    1SOL     OW 2109   0.432   2.744   1.141 -0.0867 -0.4093  0.0196
    1SOL    HW2 2110   0.350   2.782   1.173 -1.1115 -2.3968 -0.1794
    1SOL    HW3 2111   0.415   2.728   1.048  0.5875 -0.6927 -0.0533
    1SOL    MW4 2112   0.419   2.747   1.133 -0.1329 -0.7088 -0.0163
    1SOL     OW 2113   0.682   2.843   1.198 -0.0416  0.1948 -0.6237
    1SOL    HW2 2114   0.682   2.865   1.291  0.6207 -0.6186 -0.4214
    1SOL    HW3 2115   0.595   2.808   1.181 -0.3475  0.8693 -0.4357
    1SOL    MW4 2116   0.671   2.841   1.208  0.0054  0.1764 -0.5722
    1SOL     OW 2117   0.673   3.092   1.072  0.0930 -0.2237  0.0956
    1SOL    HW2 2118   0.738   3.148   1.114 -0.8250  1.3211 -0.4988
    1SOL    HW3 2119   0.690   3.004   1.107  0.4388  0.7233  2.3571
    1SOL    MW4 2120   0.684   3.087   1.082  0.0176  0.1051  0.3155
    1SOL     OW 2121   0.417   3.173   1.204 -0.5784 -0.1843  0.0074
    1SOL    HW2 2122   0.458   3.252   1.168 -0.6192 -0.7351 -1.2820
    1SOL    HW3 2123   0.478   3.103   1.181  0.1597 -0.3636  2.3846
    1SOL    MW4 2124   0.431   3.174   1.196 -0.4864 -0.2806  0.1509
    1SOL     OW 2125   0.481   3.432   1.114  0.0794 -0.0140 -0.6627
    1SOL    HW2 2126   0.547   3.475   1.168 -1.1351 -0.7646  1.5051
    1SOL    HW3 2127   0.402   3.485   1.125  0.1226  0.4926 -2.6779
    1SOL    MW4 2128   0.479   3.445   1.123 -0.0751 -0.0465 -0.6425
    1SOL     OW 2129   0.673   3.603   1.194  0.5510  0.1927  0.7884
    1SOL    HW2 2130   0.660   3.607   1.288 -1.7846  0.3061  0.5098
    1SOL    HW3 2131   0.683   3.695   1.167 -1.5934  0.4112  0.6205
    1SOL    MW4 2132   0.673   3.616   1.203 -0.0401  0.2367  0.7293
    1SOL     OW 2133   0.688   3.866   1.099 -0.3244 -0.0951  0.3359
    1SOL    HW2 2134   0.604   3.898   1.133  0.0108  0.3953  0.7103
    1SOL    HW3 2135   0.685   3.886   1.005 -0.5946  0.0003  0.3629
    1SOL    MW4 2136   0.676   3.873   1.091 -0.3158 -0.0176  0.3889
    1SOL     OW 2137   0.468   4.020   1.189 -0.2805 -0.3176 -0.6443
    1SOL    HW2 2138   0.459   4.109   1.155 -1.1244  0.7548  2.1828
    1SOL    HW3 2139   0.386   3.976   1.164 -0.6971  0.3217 -0.4267
    1SOL    MW4 2140   0.456   4.026   1.182 -0.4468 -0.0916 -0.2426
    1SOL     OW 2141   0.458   4.294   1.075  0.1816  0.0272 -0.1448
    1SOL    HW2 2142   0.529   4.340   1.120  0.4319 -1.6109  1.1676
    1SOL    HW3 2143   0.378   4.322   1.119  0.0004  1.8235 -1.5814
    1SOL    MW4 2144   0.457   4.303   1.087  0.1908  0.0486 -0.1613
    1SOL     OW 2145   0.644   4.419   1.243 -0.2154  0.1464 -0.0069
    1SOL    HW2 2146   0.633   4.409   1.338 -1.0465  0.6466 -0.0457
    1SOL    HW3 2147   0.723   4.371   1.223 -0.6713 -0.9377  0.7746
    1SOL    MW4 2148   0.653   4.412   1.253 -0.3852  0.0701  0.0911
    1SOL     OW 2149   1.063   4.641   1.107 -0.4316 -0.1710 -0.0574
    1SOL    HW2 2150   1.087   4.553   1.138 -0.1367 -0.6311 -1.5624
    1SOL    HW3 2151   1.065   4.634   1.011  0.6473  1.7704 -0.1964
    1SOL    MW4 2152   1.066   4.628   1.098 -0.2503  0.0243 -0.2743
    1SOL     OW 2153   0.825   0.123   1.205  0.0041  0.0142  0.2705
    1SOL    HW2 2154   0.833   0.110   1.300  1.0025 -0.4877  0.1257
    1SOL    HW3 2155   0.898   0.074   1.168 -0.9476 -0.5790 -0.8325
    1SOL    MW4 2156   0.836   0.115   1.213  0.0103 -0.1303  0.1060
    1SOL     OW 2157   0.852   0.400   1.157 -0.2148 -0.1512  0.0091
    1SOL    HW2 2158   0.855   0.305   1.168  0.8649  0.1859  3.3797
    1SOL    HW3 2159   0.764   0.425   1.186 -0.5867 -0.1301 -1.1186
    1SOL    MW4 2160   0.841   0.391   1.163 -0.1214 -0.1039  0.3049
    1SOL     OW 2161   1.097   0.525   1.196 -0.4482 -0.2757 -0.2646
    1SOL    HW2 2162   1.103   0.514   1.291 -2.9025 -0.2061 -0.0673
    1SOL    HW3 2163   1.012   0.487   1.173  1.0294 -2.2656 -2.7490
    1SOL    MW4 2164   1.087   0.518   1.206 -0.5770 -0.5290 -0.5662
    1SOL     OW 2165   1.102   0.792   1.110  0.3048  0.1915  0.2038
    1SOL    HW2 2166   1.017   0.817   1.144 -0.6143 -1.8935 -0.4311
    1SOL    HW3 2167   1.109   0.698   1.129  2.2059  0.2026 -0.2758
    1SOL    MW4 2168   1.092   0.783   1.117  0.4344 -0.0822  0.0569
    1SOL     OW 2169   0.859   0.893   1.229  0.1245 -0.1567  0.3313
    1SOL    HW2 2170   0.868   0.984   1.203  1.6670 -0.3113  0.2752
    1SOL    HW3 2171   0.782   0.861   1.182  0.3039  0.7730 -0.5895
    1SOL    MW4 2172   0.850   0.900   1.219  0.3516 -0.0545  0.2025
    1SOL     OW 2173   0.882   1.152   1.145 -0.4417 -0.1470 -0.3086
    1SOL    HW2 2174   0.960   1.201   1.172 -0.9752  0.7222 -0.3255
    1SOL    HW3 2175   0.882   1.157   1.049 -1.3682  1.2187 -0.2567
    1SOL    MW4 2176   0.892   1.159   1.136 -0.6344  0.1479 -0.3040
    1SOL     OW 2177   1.110   1.275   1.216 -0.0690  0.0918 -0.2974
    1SOL    HW2 2178   1.120   1.279   1.311  1.2746  2.2403 -0.5029
    1SOL    HW3 2179   1.187   1.228   1.185 -0.2397 -0.1380 -0.3790
    1SOL    MW4 2180   1.122   1.270   1.225  0.0858  0.3448 -0.3351
    1SOL     OW 2181   1.126   1.540   1.147 -0.0790  0.0508  0.0063
    1SOL    HW2 2182   1.137   1.447   1.166 -1.7991 -0.2165 -0.2263
    1SOL    HW3 2183   1.109   1.543   1.052 -1.1801  0.4812  0.2093
    1SOL    MW4 2184   1.125   1.528   1.137 -0.4512  0.0724  0.0025
    1SOL     OW 2185   0.899   1.693   1.248 -0.0001 -0.0932 -0.1296
    1SOL    HW2 2186   0.894   1.779   1.206 -0.6781  0.2651  0.6616
    1SOL    HW3 2187   0.978   1.653   1.213  1.1739  1.4911  0.6658
    1SOL    MW4 2188   0.909   1.699   1.238  0.0654  0.1632  0.0798
    1SOL     OW 2189   0.886   1.946   1.111  0.4622 -0.5468 -0.2405
    1SOL    HW2 2190   0.958   1.988   1.159 -0.3730 -1.0140  1.4775
    1SOL    HW3 2191   0.807   1.975   1.157 -0.4324 -0.2834 -1.9259
    1SOL    MW4 2192   0.885   1.955   1.124  0.2340 -0.5736 -0.2362
    1SOL     OW 2193   1.128   2.080   1.212 -0.4244 -0.4531  0.3043
    1SOL    HW2 2194   1.146   2.087   1.306 -1.4862 -0.9874  0.5503
    1SOL    HW3 2195   1.133   2.170   1.180  2.5987 -0.5553  0.3632
    1SOL    MW4 2196   1.131   2.093   1.220 -0.1658 -0.5369  0.3445
    1SOL     OW 2197   1.136   2.337   1.092 -0.0257  0.2092  0.1454
    1SOL    HW2 2198   1.211   2.392   1.113 -0.0708  0.3662 -0.0966
    1SOL    HW3 2199   1.124   2.348   0.998  0.1821 -0.4859  0.0356
    1SOL    MW4 2200   1.144   2.346   1.082 -0.0043  0.1383  0.0989
    1SOL     OW 2201   0.907   2.476   1.209 -0.1061 -0.6495 -0.0711
    1SOL    HW2 2202   0.983   2.430   1.173 -0.2573  0.8642 -2.4338
    1SOL    HW3 2203   0.832   2.419   1.188 -0.0281 -0.4292 -0.9773
    1SOL    MW4 2204   0.907   2.462   1.201 -0.1158 -0.4208 -0.5025
    1SOL     OW 2205   0.871   2.708   1.046 -0.3774  0.2610  0.3793
    1SOL    HW2 2206   0.897   2.625   1.084  0.2950 -0.0969 -0.8419
    1SOL    HW3 2207   0.798   2.737   1.100  1.1632  0.2494  2.5324
    1SOL    MW4 2208   0.865   2.701   1.058 -0.0854  0.2122  0.5021
    1SOL     OW 2209   1.085   2.829   1.150 -0.2648 -0.1212  0.1273
    1SOL    HW2 2210   1.077   2.829   1.245 -1.2809  0.1059  0.0494
    1SOL    HW3 2211   1.000   2.798   1.119 -0.6639  1.7440 -0.7374
    1SOL    MW4 2212   1.072   2.825   1.158 -0.4514  0.1547  0.0029
    1SOL     OW 2213   1.142   3.101   1.100 -0.2596 -0.3221 -0.1491
    1SOL    HW2 2214   1.127   3.010   1.122 -0.4140 -0.7068 -1.7672
    1SOL    HW3 2215   1.141   3.103   1.004  2.0907  0.9610 -0.1901
    1SOL    MW4 2216   1.140   3.090   1.090  0.0300 -0.2034 -0.3680
    1SOL     OW 2217   0.896   3.244   1.187  0.2843  0.1754  0.1042
    1SOL    HW2 2218   0.912   3.337   1.172  0.4480  0.0484 -0.5383
    1SOL    HW3 2219   0.977   3.200   1.160  0.3176 -0.1270  0.6923
    1SOL    MW4 2220   0.909   3.250   1.181  0.3103  0.1187  0.0970
    1SOL     OW 2221   0.918   3.509   1.091  0.1405 -0.0230  0.1842
    1SOL    HW2 2222   0.834   3.547   1.116  0.5900  1.8744 -1.0040
    1SOL    HW3 2223   0.908   3.489   0.998  1.1642  0.7611 -0.1132
    1SOL    MW4 2224   0.906   3.512   1.082  0.3349  0.3309 -0.0118
    1SOL     OW 2225   1.132   3.652   1.190  0.3253 -0.4407  0.0959
    1SOL    HW2 2226   1.212   3.601   1.177  1.0449  0.6890  0.0201
    1SOL    HW3 2227   1.064   3.600   1.148  1.0731 -1.2591 -0.1309
    1SOL    MW4 2228   1.134   3.639   1.183  0.5189 -0.3996  0.0558
    1SOL     OW 2229   1.098   3.914   1.112 -0.2314 -0.0874  0.5788
    1SOL    HW2 2230   1.018   3.955   1.146 -0.5498  0.5044 -0.8132
    1SOL    HW3 2231   1.090   3.822   1.137 -1.0851  0.0778  0.9515
    1SOL    MW4 2232   1.086   3.907   1.120 -0.3860  0.0124  0.4443
    1SOL     OW 2233   0.880   4.025   1.206  0.0647 -0.2170 -0.0886
    1SOL    HW2 2234   0.899   3.989   1.293  2.6974 -2.1763 -1.4075
    1SOL    HW3 2235   0.816   3.965   1.168 -0.0235 -0.1606 -0.0279
    1SOL    MW4 2236   0.874   4.012   1.212  0.4004 -0.4683 -0.2546
    1SOL     OW 2237   0.851   4.277   1.101 -0.2998  0.0384 -0.0185
    1SOL    HW2 2238   0.856   4.189   1.136  0.2327  0.3602  0.7171
    1SOL    HW3 2239   0.861   4.266   1.006  0.4157 -0.6241  0.1338
    1SOL    MW4 2240   0.853   4.264   1.093 -0.1351 -0.0062  0.0987
    1SOL     OW 2241   1.105   4.381   1.167  0.1672 -0.0896  0.1993
    1SOL    HW2 2242   1.095   4.371   1.262 -0.0629  0.6960  0.2635
    1SOL    HW3 2243   1.025   4.342   1.130  0.5070 -0.8816  0.2997
    1SOL    MW4 2244   1.093   4.375   1.175  0.1817 -0.0906  0.2210
    1SOL     OW 2245   1.510   4.618   1.068  0.3405  0.1324  0.0481
    1SOL    HW2 2246   1.590   4.660   1.100 -0.0125  0.4890  0.4779
    1SOL    HW3 2247   1.501   4.540   1.122 -0.0901  0.5728  0.6177
    1SOL    MW4 2248   1.519   4.613   1.079  0.2372  0.2375  0.1800
    1SOL     OW 2249   1.304   0.108   1.211  0.2602 -0.0823 -0.8144
    1SOL    HW2 2250   1.373   0.072   1.155  0.4193 -0.3958 -0.4113
    1SOL    HW3 2251   1.224   0.063   1.184  0.5971 -1.3245  0.2460
    1SOL    MW4 2252   1.302   0.097   1.200  0.3256 -0.2876 -0.6213
    1SOL     OW 2253   1.296   0.357   1.091  0.3025 -0.0239  0.1181
    1SOL    HW2 2254   1.299   0.277   1.142  0.1022  0.4671  0.9094
    1SOL    HW3 2255   1.227   0.410   1.133 -0.9173 -0.2350 -1.5577
    1SOL    MW4 2256   1.287   0.354   1.103  0.1153  0.0131  0.0013
    1SOL     OW 2257   1.522   0.482   1.230 -0.6363 -0.7008 -0.2157
    1SOL    HW2 2258   1.545   0.565   1.188  0.2880 -0.5293  0.6079
    1SOL    HW3 2259   1.455   0.444   1.173 -2.3135  1.3917  0.3137
    1SOL    MW4 2260   1.517   0.488   1.217 -0.7355 -0.4021 -0.0371
    1SOL     OW 2261   1.572   0.710   1.088 -0.1920  0.2829  0.2067
    1SOL    HW2 2262   1.609   0.788   1.129 -1.6714  1.0090  0.2169
    1SOL    HW3 2263   1.554   0.737   0.998 -1.0274  0.0659  0.3054
    1SOL    MW4 2264   1.574   0.724   1.082 -0.4973  0.3501  0.2211
    1SOL     OW 2265   1.364   0.875   1.181  0.2052 -0.1349 -0.3000
    1SOL    HW2 2266   1.414   0.805   1.139 -0.5311 -2.1268  2.0479
    1SOL    HW3 2267   1.272   0.848   1.170 -0.0760  0.3523  0.8136
    1SOL    MW4 2268   1.358   0.863   1.174  0.0708 -0.3334  0.1566
    1SOL     OW 2269   1.346   1.154   1.136 -0.2164  0.3742  0.7713
    1SOL    HW2 2270   1.362   1.065   1.169  1.1218  0.6000  0.7718
    1SOL    HW3 2271   1.421   1.204   1.166  0.2747  0.9448 -1.3010
    1SOL    MW4 2272   1.358   1.149   1.144  0.0248  0.4791  0.4978
    1SOL     OW 2273   1.569   1.308   1.219 -0.0028 -0.4691  0.2853
    1SOL    HW2 2274   1.649   1.262   1.193  0.6389  0.4379  0.6658
    1SOL    HW3 2275   1.568   1.302   1.314  1.0467  1.8936  0.4776
    1SOL    MW4 2276   1.580   1.301   1.228  0.2202 -0.0378  0.3608
    1SOL     OW 2277   1.561   1.564   1.149  0.2044  0.2759  0.1576
    1SOL    HW2 2278   1.642   1.606   1.178  0.1389  1.4089 -1.2394
    1SOL    HW3 2279   1.571   1.473   1.176  1.5443  0.5867  0.8026
    1SOL    MW4 2280   1.573   1.558   1.157  0.3726  0.4665  0.0583
    1SOL     OW 2281   1.336   1.667   1.263  0.0329 -0.1722  0.3211
    1SOL    HW2 2282   1.416   1.624   1.231 -0.9993 -1.5786 -0.3823
    1SOL    HW3 2283   1.266   1.630   1.210 -1.2025  0.4218  1.5344
    1SOL    MW4 2284   1.338   1.657   1.252 -0.2661 -0.2794  0.3884
    1SOL     OW 2285   1.334   1.924   1.139 -0.0871 -0.4020  0.2971
    1SOL    HW2 2286   1.314   1.838   1.176 -2.5374 -0.8494 -1.9410
    1SOL    HW3 2287   1.257   1.978   1.158  0.4163  0.6021 -0.4131
    1SOL    MW4 2288   1.321   1.920   1.147 -0.3438 -0.3285 -0.0919
    1SOL     OW 2289   1.574   2.070   1.241  0.1923  0.1323 -0.2393
    1SOL    HW2 2290   1.581   2.150   1.189 -0.4938 -0.4523 -1.2537
    1SOL    HW3 2291   1.491   2.031   1.213 -0.8523  0.4600  2.2327
    1SOL    MW4 2292   1.564   2.076   1.231 -0.0361  0.0982 -0.0471
    1SOL     OW 2293   1.581   2.310   1.093 -0.1684 -0.2225  0.1278
    1SOL    HW2 2294   1.502   2.357   1.118  0.6406  1.4187 -0.3043
    1SOL    HW3 2295   1.578   2.306   0.998 -0.1029 -0.8384  0.1474
    1SOL    MW4 2296   1.570   2.316   1.084 -0.0532 -0.0875  0.0733
    1SOL     OW 2297   1.380   2.471   1.171 -0.2196 -0.0434 -0.4462
    1SOL    HW2 2298   1.382   2.480   1.266  2.1331 -0.5556 -0.4296
    1SOL    HW3 2299   1.366   2.560   1.139  0.9533  0.4211  0.3158
    1SOL    MW4 2300   1.378   2.484   1.179  0.2455 -0.0496 -0.3434
    1SOL     OW 2301   1.343   2.722   1.064  0.3224  0.1920  0.2303
    1SOL    HW2 2302   1.409   2.751   1.128  0.4724  0.7201 -0.1619
    1SOL    HW3 2303   1.260   2.756   1.100  0.4201  0.5838  0.0911
    1SOL    MW4 2304   1.340   2.730   1.077  0.3551  0.3135  0.1601
    1SOL     OW 2305   1.564   2.807   1.212 -1.0240  0.2195  0.6806
    1SOL    HW2 2306   1.638   2.756   1.180 -0.7939  0.4539  0.8469
    1SOL    HW3 2307   1.575   2.894   1.173 -1.0364  0.3488  0.9695
    1SOL    MW4 2308   1.575   2.812   1.202 -0.9950  0.2677  0.7406
    1SOL     OW 2309   1.573   3.067   1.116 -0.3216  0.1770  0.2629
    1SOL    HW2 2310   1.654   3.110   1.142 -0.4056  0.9840 -0.7774
    1SOL    HW3 2311   1.504   3.122   1.154 -0.3706 -1.0672  1.9968
    1SOL    MW4 2312   1.574   3.080   1.125 -0.3394  0.1192  0.3544
    1SOL     OW 2313   1.355   3.223   1.214 -0.0258 -0.0865 -0.3423
    1SOL    HW2 2314   1.337   3.221   1.308 -0.2595  0.2033 -0.3799
    1SOL    HW3 2315   1.280   3.177   1.175 -0.4005  0.6056 -0.4547
    1SOL    MW4 2316   1.343   3.217   1.221 -0.1061  0.0429 -0.3620
    1SOL     OW 2317   1.347   3.501   1.120 -0.1650 -0.7297  0.0647
    1SOL    HW2 2318   1.333   3.410   1.146  0.6947 -0.6405  0.8465
    1SOL    HW3 2319   1.361   3.497   1.025  1.5547 -1.6138  0.3439
    1SOL    MW4 2320   1.347   3.489   1.111  0.1752 -0.8349  0.2047
    1SOL     OW 2321   1.588   3.618   1.197 -0.0310 -0.2248  0.6012
    1SOL    HW2 2322   1.580   3.709   1.168 -1.0613  0.2556  2.3467
    1SOL    HW3 2323   1.508   3.576   1.165  0.4205 -0.5151 -0.1608
    1SOL    MW4 2324   1.576   3.624   1.189 -0.1073 -0.1998  0.7309
    1SOL     OW 2325   1.568   3.872   1.126 -0.0351 -0.1265 -0.2094
    1SOL    HW2 2326   1.483   3.904   1.157 -0.1898 -1.0732  0.3773
    1SOL    HW3 2327   1.560   3.872   1.031 -0.5317  0.2295 -0.1725
    1SOL    MW4 2328   1.555   3.877   1.118 -0.1209 -0.2043 -0.1271
    1SOL     OW 2329   1.325   3.998   1.233  0.2202 -0.3505  0.0868
    1SOL    HW2 2330   1.331   4.088   1.199 -0.5376 -0.5647 -0.6428
    1SOL    HW3 2331   1.245   3.963   1.193  0.2860 -1.2116  0.7029
    1SOL    MW4 2332   1.315   4.005   1.223  0.1290 -0.4916  0.0719
    1SOL     OW 2333   1.315   4.242   1.117 -0.2411  0.5092 -0.4038
    1SOL    HW2 2334   1.238   4.296   1.135 -1.0722 -0.4762 -0.9500
    1SOL    HW3 2335   1.326   4.247   1.022 -0.8916 -1.0172 -0.5787
    1SOL    MW4 2336   1.306   4.249   1.107 -0.4367  0.1779 -0.4990
    1SOL     OW 2337   1.539   4.352   1.229 -0.1698  0.3168  0.5129
    1SOL    HW2 2338   1.527   4.350   1.324 -0.3817 -1.3263  0.4589
    1SOL    HW3 2339   1.459   4.313   1.193 -0.0299  0.7920 -0.3451
    1SOL    MW4 2340   1.527   4.347   1.237 -0.1793  0.1626  0.3926
    1SOL     OW 2341   1.992   4.634   1.102 -0.2808 -0.8289 -0.2361
    1SOL    HW2 2342   2.012   4.545   1.134  0.8458 -1.5384 -2.8141
    1SOL    HW3 2343   1.979   4.623   1.008 -0.7340  1.6618 -0.4834
    1SOL    MW4 2344   1.993   4.621   1.094 -0.1920 -0.5937 -0.6088
    1SOL     OW 2345   1.744   0.061   1.187  0.5289  0.2960 -0.1101
    1SOL    HW2 2346   1.753   0.155   1.174  2.3572  0.0793 -0.4869
    1SOL    HW3 2347   1.823   0.023   1.149  0.0644 -1.3536  0.5149
    1SOL    MW4 2348   1.755   0.068   1.180  0.7088  0.0498 -0.0774
    1SOL     OW 2349   1.755   0.327   1.146  0.2283 -0.2267 -0.8658
    1SOL    HW2 2350   1.680   0.362   1.193 -0.6645 -1.8135 -1.0845
    1SOL    HW3 2351   1.732   0.337   1.053  1.1624  1.1290 -0.9711
    1SOL    MW4 2352   1.742   0.333   1.140  0.2339 -0.2572 -0.9085
    1SOL     OW 2353   1.976   0.720   1.142 -0.0428  0.0237  0.1836
    1SOL    HW2 2354   2.053   0.753   1.188  1.3535 -0.1326 -1.9673
    1SOL    HW3 2355   1.964   0.631   1.176 -0.4369  0.7137  1.8994
    1SOL    MW4 2356   1.985   0.713   1.153  0.0894  0.0941  0.1260
    1SOL     OW 2357   1.990   0.741   0.855  0.1511  0.1259 -0.3084
    1SOL    HW2 2358   2.074   0.784   0.835 -0.4439  0.8042 -1.3465
    1SOL    HW3 2359   1.987   0.739   0.951  0.4358  1.9305 -0.2419
    1SOL    MW4 2360   2.001   0.746   0.865  0.1101  0.4535 -0.4366
    1SOL     OW 2361   1.728   0.893   1.232  0.0783 -0.8266 -0.2989
    1SOL    HW2 2362   1.739   0.895   1.327  1.4365 -0.1667 -0.4570
    1SOL    HW3 2363   1.806   0.847   1.200  0.1565 -0.1070 -1.1583
    1SOL    MW4 2364   1.740   0.888   1.240  0.2679 -0.6446 -0.4331
    1SOL     OW 2365   1.784   1.154   1.141 -0.0731 -0.0284 -0.6918
    1SOL    HW2 2366   1.754   1.067   1.169 -1.8190  0.5929 -0.5788
    1SOL    HW3 2367   1.791   1.148   1.046  0.5998 -0.5234 -0.6173
    1SOL    MW4 2368   1.781   1.141   1.132 -0.2147 -0.0118 -0.6671
    1SOL     OW 2369   2.008   1.294   1.192  0.1547 -0.3213 -0.2776
    1SOL    HW2 2370   2.082   1.238   1.167  0.2873 -0.6238  0.7840
    1SOL    HW3 2371   1.931   1.242   1.171  0.2833 -1.1658  1.2848
    1SOL    MW4 2372   2.008   1.280   1.186  0.1895 -0.4725  0.0687
    1SOL     OW 2373   1.983   1.556   1.134  0.9519  0.1445  0.0162
    1SOL    HW2 2374   1.985   1.463   1.154 -2.2659 -0.3690 -1.6826
    1SOL    HW3 2375   1.995   1.560   1.039 -1.1328  1.2499 -0.2386
    1SOL    MW4 2376   1.985   1.544   1.124  0.2524  0.2226 -0.2415
    1SOL     OW 2377   1.786   1.673   1.258  0.5296  0.2832  0.3034
    1SOL    HW2 2378   1.764   1.757   1.217  0.0645  0.1156  0.2115
    1SOL    HW3 2379   1.856   1.638   1.203  1.0114  0.7999  0.5785
    1SOL    MW4 2380   1.793   1.680   1.246  0.5318  0.3293  0.3276
    1SOL     OW 2381   1.767   1.908   1.129  0.1026  0.3578  0.0950
    1SOL    HW2 2382   1.703   1.969   1.165 -0.2463 -0.2078  0.4353
    1SOL    HW3 2383   1.763   1.923   1.034 -0.2516  0.5943  0.1453
    1SOL    MW4 2384   1.758   1.918   1.121  0.0099  0.3144  0.1466
    1SOL     OW 2385   2.022   2.040   1.213 -0.3566  0.2488 -0.2103
    1SOL    HW2 2386   2.024   2.027   1.308  1.6769 -1.9222 -0.4796
    1SOL    HW3 2387   1.956   1.979   1.182 -2.8381  2.7649 -0.0016
    1SOL    MW4 2388   2.014   2.030   1.222 -0.4158  0.2942 -0.2183
    1SOL     OW 2389   2.034   2.305   1.159  0.2907 -0.6520  0.0912
    1SOL    HW2 2390   2.111   2.334   1.208  0.2390  0.4293 -0.4413
    1SOL    HW3 2391   2.028   2.211   1.177  1.5603 -0.6933  0.3747
    1SOL    MW4 2392   2.043   2.296   1.168  0.4513 -0.5147  0.0582
    1SOL     OW 2393   1.794   2.447   1.198  0.3877  0.3500 -0.0949
    1SOL    HW2 2394   1.865   2.389   1.172  0.7669  1.4428 -1.5595
    1SOL    HW3 2395   1.715   2.404   1.163  0.4986 -0.0673  0.1657
    1SOL    MW4 2396   1.793   2.433   1.190  0.4522  0.4394 -0.2537
    1SOL     OW 2397   1.824   2.726   1.149  0.0027 -0.4655  0.3610
    1SOL    HW2 2398   1.804   2.635   1.170  0.1476 -0.6396 -0.2637
    1SOL    HW3 2399   1.819   2.731   1.054 -0.2708  0.2415  0.4070
    1SOL    MW4 2400   1.821   2.715   1.139 -0.0142 -0.3951  0.2846
    1SOL     OW 2401   2.047   2.844   1.272 -0.0500 -0.3273 -0.2519
    1SOL    HW2 2402   2.049   2.928   1.226  0.9555  0.1888  0.7053
    1SOL    HW3 2403   1.973   2.797   1.233 -0.1353  0.6837 -1.3433
    1SOL    MW4 2404   2.038   2.849   1.261  0.0713 -0.1256 -0.2697
    1SOL     OW 2405   2.030   3.091   1.138  0.3953  0.1458  0.0424
    1SOL    HW2 2406   1.952   3.135   1.171  0.0140 -0.5187  0.0261
    1SOL    HW3 2407   2.011   3.073   1.046  0.3561 -0.4940  0.1757
    1SOL    MW4 2408   2.017   3.094   1.130  0.3395 -0.0265  0.0579
    1SOL     OW 2409   1.784   3.215   1.213  0.2209 -0.3635  0.0377
    1SOL    HW2 2410   1.786   3.213   1.309 -0.4051  0.1124  0.0633
    1SOL    HW3 2411   1.776   3.308   1.191  1.4789 -0.3722 -0.5060
    1SOL    MW4 2412   1.784   3.227   1.223  0.3042 -0.3018 -0.0306
    1SOL     OW 2413   1.805   3.473   1.128  0.2315 -0.6999  0.4955
    1SOL    HW2 2414   1.877   3.518   1.171 -0.0185 -0.3454  0.5491
    1SOL    HW3 2415   1.727   3.519   1.158 -0.0887 -1.6355  1.1305
    1SOL    MW4 2416   1.804   3.485   1.137  0.1563 -0.7765  0.5864
    1SOL     OW 2417   2.028   3.589   1.232  0.8025  0.0171  0.4212
    1SOL    HW2 2418   2.054   3.607   1.322 -0.7129 -0.4169  0.9468
    1SOL    HW3 2419   2.106   3.549   1.193  1.1081 -0.8438  1.8553
    1SOL    MW4 2420   2.042   3.586   1.239  0.6430 -0.1540  0.6797
    1SOL     OW 2421   1.997   3.844   1.105 -0.0339 -0.7061  0.6436
    1SOL    HW2 2422   1.925   3.884   1.152 -0.8714 -0.6468 -0.6833
    1SOL    HW3 2423   2.007   3.758   1.146 -1.8702 -1.3333 -0.1717
    1SOL    MW4 2424   1.989   3.838   1.116 -0.3867 -0.7808  0.3608
    1SOL     OW 2425   1.802   3.993   1.231 -0.2382 -0.0909 -0.1379
    1SOL    HW2 2426   1.819   3.992   1.325  0.4664  0.4712 -0.2537
    1SOL    HW3 2427   1.718   3.948   1.221 -0.5298  0.2381  0.7982
    1SOL    MW4 2428   1.793   3.987   1.242 -0.1837  0.0267 -0.0296
    1SOL     OW 2429   1.779   4.253   1.139 -0.3465  0.0576  0.5627
    1SOL    HW2 2430   1.783   4.166   1.179 -2.3499  0.3722  1.4986
    1SOL    HW3 2431   1.700   4.293   1.175 -0.8461  1.3072 -1.8130
    1SOL    MW4 2432   1.769   4.247   1.149 -0.6766  0.2637  0.3728
    1SOL     OW 2433   2.037   4.377   1.200  0.1256 -0.4900  0.0315
    1SOL    HW2 2434   2.043   4.381   1.295 -0.6932  1.2123  0.0228
    1SOL    HW3 2435   1.958   4.327   1.183 -0.1400 -0.1479  0.2518
    1SOL    MW4 2436   2.028   4.371   1.210 -0.0176 -0.2203  0.0595
    1SOL     OW 2437   2.459   0.008   1.114  0.1345  0.0540  0.7143
    1SOL    HW2 2438   2.521   0.071   1.149  0.4065  0.4554 -0.4505
    1SOL    HW3 2439   2.375   0.032   1.152  0.1779  1.3279  0.0373
    1SOL    MW4 2440   2.456   0.019   1.123  0.1760  0.2756  0.4712
    1SOL     OW 2441   2.228   0.092   1.205 -0.0182  0.1946 -0.1366
    1SOL    HW2 2442   2.229   0.181   1.169  1.1673  0.0231 -0.5468
    1SOL    HW3 2443   2.153   0.050   1.162  0.6075  0.3849 -1.4426
    1SOL    MW4 2444   2.218   0.099   1.195  0.2208  0.1971 -0.3631
    1SOL     OW 2445   1.986   0.454   1.231  0.4314 -0.2143 -0.0000
    1SOL    HW2 2446   1.997   0.441   1.326 -2.3242 -0.5925  0.2940
    1SOL    HW3 2447   1.906   0.407   1.209  0.7212  0.3531 -2.4459
    1SOL    MW4 2448   1.977   0.446   1.241  0.1062 -0.1893 -0.2841
    1SOL     OW 2449   2.445   0.503   1.191 -0.4571 -0.0228 -0.2049
    1SOL    HW2 2450   2.435   0.510   1.286  1.0212 -0.7172  0.0110
    1SOL    HW3 2451   2.370   0.450   1.163  0.3411 -1.7371  0.8604
    1SOL    MW4 2452   2.434   0.497   1.200 -0.1569 -0.3406 -0.0358
    1SOL     OW 2453   2.456   0.781   1.128  0.1360 -0.7565 -0.1661
    1SOL    HW2 2454   2.475   0.693   1.161  2.0249 -0.0442  0.7177
    1SOL    HW3 2455   2.454   0.772   1.033 -0.1616 -1.8470 -0.0607
    1SOL    MW4 2456   2.458   0.768   1.120  0.3462 -0.8065 -0.0356
    1SOL     OW 2457   2.196   0.851   1.252 -0.2677 -0.3939 -0.0758
    1SOL    HW2 2458   2.227   0.853   1.343  1.3597  1.3302 -0.6435
    1SOL    HW3 2459   2.274   0.829   1.201 -0.8918 -0.1017 -1.1614
    1SOL    MW4 2460   2.211   0.848   1.257 -0.1352 -0.1279 -0.2940
    1SOL     OW 2461   2.226   1.136   1.142  0.3236  0.2313  0.2358
    1SOL    HW2 2462   2.303   1.179   1.177  0.1082  0.8032  0.0211
    1SOL    HW3 2463   2.231   1.046   1.174  1.7250 -0.0725 -0.8021
    1SOL    MW4 2464   2.237   1.130   1.151  0.4802  0.2668  0.0706
    1SOL     OW 2465   2.480   1.253   1.186  0.0756  0.1377 -0.3632
    1SOL    HW2 2466   2.556   1.230   1.133 -0.9697 -0.9078 -1.4188
    1SOL    HW3 2467   2.476   1.348   1.182  1.5459  0.2202  0.0027
    1SOL    MW4 2468   2.489   1.262   1.179  0.1314  0.0105 -0.4542
    1SOL     OW 2469   2.472   1.528   1.172  0.2336  0.0233  0.0337
    1SOL    HW2 2470   2.384   1.566   1.173 -1.2943 -3.2397 -1.5794
    1SOL    HW3 2471   2.495   1.526   1.079  1.1638 -0.9642  0.2788
    1SOL    MW4 2472   2.463   1.533   1.160  0.1547 -0.5376 -0.1469
    1SOL     OW 2473   2.223   1.647   1.189 -0.0235 -0.5660 -0.1096
    1SOL    HW2 2474   2.226   1.736   1.155  0.1762 -0.5928 -0.1644
    1SOL    HW3 2475   2.134   1.617   1.171  0.3406 -0.8966 -1.4347
    1SOL    MW4 2476   2.212   1.655   1.182  0.0508 -0.6131 -0.2916
    1SOL     OW 2477   2.289   1.935   1.102 -0.9147 -0.3018 -0.1582
    1SOL    HW2 2478   2.209   1.975   1.138 -1.0161 -1.4291  0.8912
    1SOL    HW3 2479   2.273   1.930   1.008 -1.0523  1.7751 -0.2751
    1SOL    MW4 2480   2.276   1.940   1.094 -0.9463 -0.1764 -0.0352
    1SOL     OW 2481   2.516   2.001   1.242  0.0375 -0.1650 -0.0492
    1SOL    HW2 2482   2.589   1.949   1.209  0.6059  0.5707  0.0051
    1SOL    HW3 2483   2.439   1.968   1.197  0.3421 -1.2512  0.2231
    1SOL    MW4 2484   2.516   1.990   1.232  0.1526 -0.2112 -0.0061
    1SOL     OW 2485   2.474   2.276   1.164 -0.2331  0.0008  0.1041
    1SOL    HW2 2486   2.484   2.183   1.185  0.6830  0.1109  0.1552
    1SOL    HW3 2487   2.459   2.277   1.069 -0.4036 -0.2050  0.1273
    1SOL    MW4 2488   2.473   2.264   1.154 -0.1349 -0.0119  0.1138
    1SOL     OW 2489   2.296   2.451   1.255  0.2241  0.7146 -0.0468
    1SOL    HW2 2490   2.288   2.432   1.348  1.4455  0.2363 -0.0269
    1SOL    HW3 2491   2.365   2.391   1.224 -0.7985  0.2227 -1.4397
    1SOL    MW4 2492   2.304   2.440   1.263  0.2503  0.5863 -0.2279
    1SOL     OW 2493   2.264   2.716   1.180  0.2928  0.0641 -0.2190
    1SOL    HW2 2494   2.277   2.625   1.206  1.4824  0.1025 -0.6282
    1SOL    HW3 2495   2.192   2.747   1.234 -0.4923 -1.2912 -0.4830
    1SOL    MW4 2496   2.256   2.708   1.190  0.3464 -0.1099 -0.3079
    1SOL     OW 2497   2.478   2.874   1.256  0.0635  0.0620 -0.2577
    1SOL    HW2 2498   2.477   2.863   1.351 -0.6440  0.4716 -0.2108
    1SOL    HW3 2499   2.402   2.824   1.226  0.2046  0.0503 -0.5875
    1SOL    MW4 2500   2.468   2.866   1.265 -0.0114  0.1147 -0.2950
    1SOL     OW 2501   2.493   3.119   1.138 -0.2537 -0.0042 -0.1724
    1SOL    HW2 2502   2.416   3.163   1.174  1.5510  0.9980  2.6304
    1SOL    HW3 2503   2.490   3.032   1.177  0.4354  0.3016  0.5754
    1SOL    MW4 2504   2.482   3.114   1.148  0.0753  0.1686  0.2960
    1SOL     OW 2505   2.254   3.235   1.198 -0.1061 -0.1928  0.2309
    1SOL    HW2 2506   2.258   3.328   1.173  1.4020 -0.3612 -0.2380
    1SOL    HW3 2507   2.172   3.204   1.160  0.4193  0.4424 -1.4887
    1SOL    MW4 2508   2.244   3.243   1.189  0.1621 -0.1316 -0.0578
    1SOL     OW 2509   2.253   3.501   1.109 -0.0142 -0.2905  0.0213
    1SOL    HW2 2510   2.336   3.540   1.134 -0.2741  0.3942 -0.1723
    1SOL    HW3 2511   2.252   3.507   1.013  0.2569 -1.4153 -0.0595
    1SOL    MW4 2512   2.263   3.507   1.100 -0.0126 -0.3486 -0.0151
    1SOL     OW 2513   2.491   3.596   1.191 -0.5503 -0.1360 -0.4589
    1SOL    HW2 2514   2.501   3.600   1.286  0.9257  0.9602 -0.6317
    1SOL    HW3 2515   2.479   3.687   1.164  2.0317 -0.0666 -1.5848
    1SOL    MW4 2516   2.491   3.609   1.200 -0.0145  0.0176 -0.6303
    1SOL     OW 2517   2.470   3.852   1.117  0.0687 -0.4994 -0.0230
    1SOL    HW2 2518   2.388   3.890   1.149  0.1610 -1.2302  1.1147
    1SOL    HW3 2519   2.457   3.844   1.023 -1.8117 -2.1593  0.3463
    1SOL    MW4 2520   2.457   3.856   1.109 -0.1674 -0.8149  0.1760
    1SOL     OW 2521   2.237   3.994   1.181 -0.0309 -0.1657 -0.4772
    1SOL    HW2 2522   2.224   4.077   1.136 -1.9679  0.7825  1.7034
    1SOL    HW3 2523   2.161   3.941   1.157  0.5130 -0.8198 -0.7856
    1SOL    MW4 2524   2.225   3.998   1.172 -0.2146 -0.1271 -0.2300
    1SOL     OW 2525   2.232   4.260   1.051  0.3453  0.3846 -0.1877
    1SOL    HW2 2526   2.151   4.303   1.079  0.2065 -0.7239  1.1832
    1SOL    HW3 2527   2.222   4.251   0.956 -1.7538 -0.9277  0.1116
    1SOL    MW4 2528   2.220   4.265   1.042  0.0501  0.0653  0.0327
    1SOL     OW 2529   2.463   4.391   1.166  0.6175  0.1413 -0.3098
    1SOL    HW2 2530   2.387   4.349   1.126  0.5231 -0.9225  0.9546
    1SOL    HW3 2531   2.454   4.484   1.143 -1.9800  0.3192  1.2372
    1SOL    MW4 2532   2.452   4.398   1.157  0.2623  0.0248  0.0610
    1SOL     OW 2533   2.884   4.651   1.172 -0.0110  0.4528  0.5595
    1SOL    HW2 2534   2.902   4.563   1.206  0.0340  0.3841  0.3584
    1SOL    HW3 2535   2.873   4.639   1.078  1.6772  0.9106  0.2854
    1SOL    MW4 2536   2.885   4.638   1.164  0.2177  0.5040  0.4969
    1SOL     OW 2537   2.675   0.139   1.243 -0.0485 -0.3476 -0.1415
    1SOL    HW2 2538   2.670   0.124   1.337  0.1577  2.6552  0.3845
    1SOL    HW3 2539   2.749   0.085   1.214  0.3887 -0.6741  1.5206
    1SOL    MW4 2540   2.684   0.130   1.251  0.0365  0.0055  0.1472
    1SOL     OW 2541   2.681   0.383   1.129  0.2427 -0.4017 -0.3092
    1SOL    HW2 2542   2.678   0.293   1.161  1.7806  0.3108  1.9547
    1SOL    HW3 2543   2.603   0.424   1.165 -0.4952 -0.8257 -1.3979
    1SOL    MW4 2544   2.670   0.376   1.138  0.3486 -0.3636 -0.1541
    1SOL     OW 2545   2.947   0.488   1.194  0.0171  0.2286 -0.2061
    1SOL    HW2 2546   2.940   0.583   1.198 -0.1248  0.1874  0.5731
    1SOL    HW3 2547   2.859   0.458   1.169 -0.1103  0.2626  0.2023
    1SOL    MW4 2548   2.934   0.496   1.191 -0.0186  0.2276 -0.0495
    1SOL     OW 2549   2.892   0.763   1.192 -0.0210  0.3682 -0.0649
    1SOL    HW2 2550   2.975   0.804   1.165  0.9794 -0.6744  1.3332
    1SOL    HW3 2551   2.834   0.836   1.211  1.1871  1.1381  0.7349
    1SOL    MW4 2552   2.896   0.778   1.191  0.2701  0.3322  0.2251
    1SOL     OW 2553   2.668   0.940   1.243 -0.0105  0.2414 -0.2945
    1SOL    HW2 2554   2.668   1.027   1.204 -1.9737  0.2548 -0.2871
    1SOL    HW3 2555   2.596   0.894   1.201  0.3605 -1.0479  0.4422
    1SOL    MW4 2556   2.659   0.945   1.233 -0.2208  0.0731 -0.1963
    1SOL     OW 2557   2.716   1.142   1.071 -0.2401 -0.0798 -0.0389
    1SOL    HW2 2558   2.725   1.135   0.976  1.4256 -1.6841  0.2073
    1SOL    HW3 2559   2.789   1.198   1.098 -0.0458 -0.5397  0.4018
    1SOL    MW4 2560   2.727   1.148   1.062  0.0052 -0.3520  0.0517
    1SOL     OW 2561   2.938   1.279   1.218  0.2970 -0.4680  0.5347
    1SOL    HW2 2562   2.929   1.277   1.314 -2.0891  0.7637  0.3842
    1SOL    HW3 2563   2.936   1.372   1.196 -0.7041 -0.8102 -0.8317
    1SOL    MW4 2564   2.936   1.291   1.228 -0.1497 -0.3506  0.3346
    1SOL     OW 2565   2.888   1.561   1.169  0.1400 -0.2170  0.3175
    1SOL    HW2 2566   2.971   1.602   1.195 -0.8038  1.6953  0.4705
    1SOL    HW3 2567   2.890   1.561   1.074  0.7306 -1.0617  0.3303
    1SOL    MW4 2568   2.899   1.567   1.160  0.0935 -0.0762  0.3393
    1SOL     OW 2569   2.671   1.691   1.271 -0.2493 -0.2292  0.5998
    1SOL    HW2 2570   2.749   1.647   1.237  0.3244  0.7294  0.6809
    1SOL    HW3 2571   2.598   1.640   1.235  0.3882 -0.5842 -0.2075
    1SOL    MW4 2572   2.672   1.678   1.262 -0.0892 -0.1496  0.5039
    1SOL     OW 2573   2.710   1.908   1.085  0.0415  0.0326 -0.0091
    1SOL    HW2 2574   2.792   1.944   1.119 -0.4585  0.8755  0.3102
    1SOL    HW3 2575   2.702   1.822   1.128  1.6866 -0.8888 -1.4470
    1SOL    MW4 2576   2.720   1.901   1.095  0.1926  0.0222 -0.1568
    1SOL     OW 2577   2.944   2.022   1.222  0.0703 -0.0956  0.1510
    1SOL    HW2 2578   2.939   2.011   1.317  0.2481 -0.8996  0.0712
    1SOL    HW3 2579   2.917   2.113   1.207  3.2797  1.1006  1.2481
    1SOL    MW4 2580   2.940   2.033   1.233  0.5174 -0.0439  0.2851
    1SOL     OW 2581   2.889   2.293   1.162  0.0437  0.1166  0.6734
    1SOL    HW2 2582   2.971   2.337   1.182  0.2897  0.2541 -0.5645
    1SOL    HW3 2583   2.821   2.351   1.196  0.4600 -0.2741  2.2174
    1SOL    MW4 2584   2.891   2.306   1.169  0.1309  0.0832  0.7138
    1SOL     OW 2585   2.672   2.448   1.215  0.3121 -0.1893 -0.2091
    1SOL    HW2 2586   2.656   2.444   1.309  0.7823  0.2754 -0.1057
    1SOL    HW3 2587   2.614   2.382   1.178  1.3886 -1.6057  0.5697
    1SOL    MW4 2588   2.662   2.438   1.222  0.5164 -0.3150 -0.0926
    1SOL     OW 2589   2.669   2.724   1.130 -0.4671  0.5496 -0.1412
    1SOL    HW2 2590   2.663   2.634   1.161 -0.7040  0.4293 -0.5359
    1SOL    HW3 2591   2.613   2.774   1.189  0.7551  0.6655  0.9477
    1SOL    MW4 2592   2.661   2.718   1.142 -0.3374  0.5493 -0.0497
    1SOL     OW 2593   2.923   2.826   1.209  0.3420  0.2834 -0.0273
    1SOL    HW2 2594   2.918   2.844   1.303  0.9740  2.3378 -0.3704
    1SOL    HW3 2595   2.844   2.776   1.190 -0.4516  0.9760  1.3678
    1SOL    MW4 2596   2.912   2.822   1.219  0.3209  0.6461  0.1115
    1SOL     OW 2597   2.930   3.096   1.126 -0.6870 -0.0741 -0.0618
    1SOL    HW2 2598   2.931   3.002   1.144  0.1014  0.0760  0.6921
    1SOL    HW3 2599   2.908   3.102   1.033 -0.8247 -1.0024 -0.0911
    1SOL    MW4 2600   2.927   3.084   1.116 -0.6011 -0.1767  0.0339
    1SOL     OW 2601   2.739   3.246   1.240  0.1215 -0.0397 -0.1591
    1SOL    HW2 2602   2.818   3.201   1.211 -0.4161 -1.4280  0.4531
    1SOL    HW3 2603   2.667   3.201   1.196 -0.4858 -0.3112  1.0660
    1SOL    MW4 2604   2.740   3.234   1.231 -0.0296 -0.2589  0.0832
    1SOL     OW 2605   2.703   3.467   1.091  0.0267 -0.1624  0.3386
    1SOL    HW2 2606   2.705   3.401   1.160  0.4243 -0.0474  0.4411
    1SOL    HW3 2607   2.621   3.514   1.105  0.3384  0.1783  1.0378
    1SOL    MW4 2608   2.693   3.465   1.102  0.1202 -0.1023  0.4444
    1SOL     OW 2609   2.952   3.588   1.176  0.3205 -0.5075  0.3823
    1SOL    HW2 2610   3.017   3.531   1.134  1.0278 -0.1807  1.0203
    1SOL    HW3 2611   2.868   3.550   1.153  0.7654 -1.3858  0.1943
    1SOL    MW4 2612   2.950   3.575   1.167  0.4725 -0.5803  0.4417
    1SOL     OW 2613   2.928   3.859   1.094  0.0854  0.0519 -0.2265
    1SOL    HW2 2614   3.009   3.899   1.125  0.2435  0.0360 -0.6176
    1SOL    HW3 2615   2.938   3.766   1.113  0.0641  0.0814 -0.0694
    1SOL    MW4 2616   2.940   3.852   1.101  0.1037  0.0536 -0.2574
    1SOL     OW 2617   2.700   4.000   1.163 -0.1285 -0.0458  0.0115
    1SOL    HW2 2618   2.779   3.948   1.152  0.7845  0.9431  1.6293
    1SOL    HW3 2619   2.629   3.942   1.137  1.0518 -1.2421 -0.6156
    1SOL    MW4 2620   2.701   3.986   1.158  0.1478 -0.0730  0.1421
    1SOL     OW 2621   2.722   4.283   1.123  0.4859 -0.1389  0.1835
    1SOL    HW2 2622   2.717   4.191   1.146  1.3091  0.0817  1.3039
    1SOL    HW3 2623   2.632   4.315   1.131 -0.1396 -1.2654 -2.1211
    1SOL    MW4 2624   2.709   4.275   1.127  0.5119 -0.2584  0.0272
    1SOL     OW 2625   2.946   4.389   1.242  0.1528  0.4624  0.1744
    1SOL    HW2 2626   3.022   4.340   1.212 -0.1885 -0.6733  1.1498
    1SOL    HW3 2627   2.871   4.345   1.202 -0.3126 -1.1356  2.7375
    1SOL    MW4 2628   2.946   4.377   1.233  0.0465  0.1011  0.6411
    1SOL     OW 2629   3.355   4.650   1.140  0.2860 -0.1531 -0.3077
    1SOL    HW2 2630   3.426   4.706   1.172  0.9716 -0.0624 -1.9410
    1SOL    HW3 2631   3.275   4.697   1.161  0.7322  0.0022  1.0724
    1SOL    MW4 2632   3.354   4.663   1.147  0.4354 -0.1206 -0.3412
    1SOL     OW 2633   3.126   0.111   1.212 -0.4656 -0.4337 -0.4388
    1SOL    HW2 2634   3.117   0.124   1.306 -0.6369 -1.7084 -0.2731
    1SOL    HW3 2635   3.047   0.064   1.186  0.1235 -1.1309 -1.0085
    1SOL    MW4 2636   3.114   0.106   1.221 -0.4106 -0.6939 -0.4922
    1SOL     OW 2637   3.159   0.361   1.083  0.1321  0.1098  0.2474
    1SOL    HW2 2638   3.152   0.276   1.124  1.0785 -0.5909 -0.9932
    1SOL    HW3 2639   3.090   0.414   1.123 -0.4390 -1.2286  1.0333
    1SOL    MW4 2640   3.149   0.357   1.093  0.1817 -0.1592  0.1874
    1SOL     OW 2641   3.334   0.513   1.230  0.0705  0.6143  0.3659
    1SOL    HW2 2642   3.339   0.602   1.194 -0.0969  0.6214  0.3597
    1SOL    HW3 2643   3.286   0.463   1.164  0.1805  0.5127  0.3601
    1SOL    MW4 2644   3.329   0.518   1.216  0.0627  0.6018  0.3644
    1SOL     OW 2645   3.359   0.760   1.109  0.1265 -0.2066 -0.3849
    1SOL    HW2 2646   3.352   0.781   1.016 -0.2851  0.1795 -0.2664
    1SOL    HW3 2647   3.295   0.817   1.152  0.1969 -0.5002  0.1167
    1SOL    MW4 2648   3.350   0.770   1.103  0.0815 -0.1944 -0.3030
    1SOL     OW 2649   3.129   0.905   1.205 -0.5418  0.2864  0.0719
    1SOL    HW2 2650   3.125   0.906   1.301  1.2074  0.5993  0.1547
    1SOL    HW3 2651   3.135   0.998   1.180  0.6102  0.1431 -0.2396
    1SOL    MW4 2652   3.129   0.918   1.214 -0.1590  0.3088  0.0417
    1SOL     OW 2653   3.150   1.159   1.099  0.0638 -0.1028  0.1650
    1SOL    HW2 2654   3.211   1.207   1.154  0.3282 -1.0715  0.7284
    1SOL    HW3 2655   3.063   1.187   1.128  0.2269  2.1649 -1.4302
    1SOL    MW4 2656   3.147   1.169   1.110  0.1202  0.0687  0.0290
    1SOL     OW 2657   3.332   1.288   1.243  0.3621  0.4091  0.2284
    1SOL    HW2 2658   3.346   1.269   1.336 -0.8573  0.6048  0.4576
    1SOL    HW3 2659   3.355   1.380   1.234  2.3917 -0.1086 -0.0720
    1SOL    MW4 2660   3.337   1.298   1.254  0.4690  0.3666  0.2190
    1SOL     OW 2661   3.377   1.565   1.173  0.2427 -0.1587  0.3354
    1SOL    HW2 2662   3.451   1.615   1.207 -0.1102  0.8266 -0.3038
    1SOL    HW3 2663   3.301   1.621   1.192 -0.0649 -0.0704 -1.1212
    1SOL    MW4 2664   3.376   1.579   1.180  0.1554 -0.0169  0.0589
    1SOL     OW 2665   3.131   1.687   1.201 -0.5367 -0.0938 -0.0296
    1SOL    HW2 2666   3.142   1.670   1.295  0.1366  0.3741 -0.0186
    1SOL    HW3 2667   3.148   1.781   1.192 -0.0632 -0.2407 -0.6962
    1SOL    MW4 2668   3.135   1.697   1.212 -0.3853 -0.0514 -0.1160
    1SOL     OW 2669   3.187   1.962   1.106  0.2938 -0.0011 -0.6667
    1SOL    HW2 2670   3.261   2.012   1.139 -0.7512  1.5499 -0.5658
    1SOL    HW3 2671   3.111   2.000   1.150 -0.6058 -1.2360 -1.1135
    1SOL    MW4 2672   3.186   1.974   1.116  0.0374  0.0407 -0.7124
    1SOL     OW 2673   3.393   2.096   1.228  0.5269  0.1652 -0.0632
    1SOL    HW2 2674   3.461   2.042   1.189  0.5055  0.7838 -0.9519
    1SOL    HW3 2675   3.410   2.185   1.196 -0.0331  0.5143  0.5905
    1SOL    MW4 2676   3.404   2.101   1.219  0.4501  0.2928 -0.0943
    1SOL     OW 2677   3.391   2.346   1.102  0.1193 -0.4643 -0.1557
    1SOL    HW2 2678   3.452   2.416   1.126 -0.0045 -0.1708 -0.6879
    1SOL    HW3 2679   3.305   2.378   1.130  0.2616 -1.0471  0.9504
    1SOL    MW4 2680   3.387   2.360   1.109  0.1216 -0.5023 -0.0800
    1SOL     OW 2681   3.132   2.418   1.212 -0.0048 -0.2807  0.0123
    1SOL    HW2 2682   3.155   2.416   1.305  0.3664  1.4119 -0.0335
    1SOL    HW3 2683   3.134   2.511   1.188 -3.2888 -0.3592 -0.8775
    1SOL    MW4 2684   3.135   2.430   1.221 -0.3891 -0.0679 -0.1111
    1SOL     OW 2685   3.147   2.687   1.130 -0.0214  0.0096 -0.2603
    1SOL    HW2 2686   3.067   2.729   1.161 -0.7708 -0.9692 -0.8272
    1SOL    HW3 2687   3.147   2.704   1.036  1.0747  1.0420 -0.0859
    1SOL    MW4 2688   3.137   2.695   1.122  0.0241  0.0167 -0.3121
    1SOL     OW 2689   3.391   2.796   1.228 -0.1433  0.0612  0.0528
    1SOL    HW2 2690   3.367   2.885   1.203 -0.8478 -0.2177 -0.2809
    1SOL    HW3 2691   3.316   2.743   1.202  1.0553 -0.9182 -1.4985
    1SOL    MW4 2692   3.378   2.801   1.221 -0.0784 -0.1047 -0.1959
    1SOL     OW 2693   3.358   3.038   1.080 -0.6104  0.1851  0.5837
    1SOL    HW2 2694   3.442   3.079   1.103 -1.5763  2.2051  0.6066
    1SOL    HW3 2695   3.294   3.080   1.137 -1.5058 -2.0849  1.2864
    1SOL    MW4 2696   3.361   3.049   1.090 -0.8557  0.1519  0.6793
    1SOL     OW 2697   3.182   3.215   1.201  0.1576  0.0961  0.5645
    1SOL    HW2 2698   3.182   3.219   1.297 -1.4200  0.3961  0.5649
    1SOL    HW3 2699   3.111   3.154   1.180 -0.2325  0.8901 -0.4415
    1SOL    MW4 2700   3.172   3.208   1.211 -0.1020  0.2401  0.4318
    1SOL     OW 2701   3.197   3.456   1.071 -0.8794  0.0355  0.2138
    1SOL    HW2 2702   3.252   3.511   1.127 -1.2550 -0.2893  0.9198
    1SOL    HW3 2703   3.185   3.376   1.122 -0.4845 -0.6288 -0.7290
    1SOL    MW4 2704   3.202   3.452   1.085 -0.8767 -0.0949  0.1826
    1SOL     OW 2705   3.383   3.592   1.238  0.4552 -0.5109  0.1205
    1SOL    HW2 2706   3.401   3.589   1.332  0.1914  1.4753  0.2550
    1SOL    HW3 2707   3.460   3.554   1.197  2.1572  1.8669  0.9947
    1SOL    MW4 2708   3.395   3.587   1.245  0.6452  0.0646  0.2536
    1SOL     OW 2709   3.412   3.837   1.144 -0.4095 -0.0211  0.0129
    1SOL    HW2 2710   3.401   3.748   1.177 -0.2015 -0.4645 -1.0814
    1SOL    HW3 2711   3.327   3.879   1.160 -0.1230 -0.0371  1.6279
    1SOL    MW4 2712   3.399   3.831   1.150 -0.3440 -0.0818  0.0815
    1SOL     OW 2713   3.180   3.986   1.215  0.1072  0.5590 -0.4355
    1SOL    HW2 2714   3.182   3.979   1.310 -0.6332  1.2392 -0.3618
    1SOL    HW3 2715   3.175   4.080   1.197  1.7551  0.5123 -1.1893
    1SOL    MW4 2716   3.179   3.997   1.225  0.2267  0.6425 -0.5254
    1SOL     OW 2717   3.164   4.257   1.156  0.1046 -0.1850  0.2893
    1SOL    HW2 2718   3.254   4.284   1.173  0.3231 -0.8848  0.2819
    1SOL    HW3 2719   3.151   4.274   1.062  0.1170  0.2265  0.3620
    1SOL    MW4 2720   3.174   4.263   1.146  0.1352 -0.2232  0.2979
    1SOL     OW 2721   3.409   4.364   1.225  0.0284  0.5819 -0.9290
    1SOL    HW2 2722   3.487   4.343   1.174  1.4217  1.3749  0.7918
    1SOL    HW3 2723   3.399   4.459   1.215 -1.4404  0.3111 -2.1203
    1SOL    MW4 2724   3.418   4.374   1.217  0.0186  0.6514 -0.8590
    1SOL     OW 2725   3.805   0.020   1.155  0.0410  0.1125 -0.0395
    1SOL    HW2 2726   3.819  -0.069   1.187 -0.1500  0.1999  0.2786
    1SOL    HW3 2727   3.822   0.014   1.060  0.3658 -0.1878  0.0352
    1SOL    MW4 2728   3.809   0.008   1.146  0.0587  0.0844  0.0123
    1SOL     OW 2729   3.574   0.136   1.233 -0.3294  0.0146  0.2999
    1SOL    HW2 2730   3.572   0.229   1.209 -0.6461 -0.0236  0.1752
    1SOL    HW3 2731   3.661   0.106   1.207  0.0337  0.4503  0.9965
    1SOL    MW4 2732   3.586   0.144   1.226 -0.3233  0.0671  0.3754
    1SOL     OW 2733   3.577   0.391   1.155  0.0499 -0.0594  0.5294
    1SOL    HW2 2734   3.657   0.431   1.190  0.0423  1.6087 -1.2450
    1SOL    HW3 2735   3.507   0.452   1.178 -0.3851 -0.4139  0.1775
    1SOL    MW4 2736   3.578   0.404   1.162 -0.0083  0.1139  0.2490
    1SOL     OW 2737   3.811   0.462   1.286  0.4047 -0.0084  0.4788
    1SOL    HW2 2738   3.887   0.426   1.239  0.9193  0.9318  0.5674
    1SOL    HW3 2739   3.818   0.557   1.271 -0.5122  0.1139  0.8538
    1SOL    MW4 2740   3.822   0.470   1.278  0.3517  0.1318  0.5400
    1SOL     OW 2741   3.783   0.726   1.189  0.2021 -0.2177  0.2241
    1SOL    HW2 2742   3.854   0.778   1.228 -0.0713  0.7958 -0.6386
    1SOL    HW3 2743   3.703   0.767   1.221 -0.0116 -0.4036 -0.0796
    1SOL    MW4 2744   3.782   0.738   1.199  0.1378 -0.1085  0.0702
    1SOL     OW 2745   3.559   0.895   1.268  0.0596  0.0267  0.2838
    1SOL    HW2 2746   3.574   0.982   1.231 -1.3252  0.2169  0.1574
    1SOL    HW3 2747   3.496   0.854   1.209  0.6202 -1.0293  0.4012
    1SOL    MW4 2748   3.553   0.901   1.255 -0.0491 -0.0876  0.2825
    1SOL     OW 2749   3.561   1.155   1.142  0.4779 -0.2390 -0.1922
    1SOL    HW2 2750   3.641   1.199   1.170  0.8635 -0.6812 -0.5985
    1SOL    HW3 2751   3.490   1.211   1.175  0.9554  0.3773 -0.2116
    1SOL    MW4 2752   3.562   1.168   1.150  0.5918 -0.2159 -0.2483
    1SOL     OW 2753   3.794   1.294   1.208  0.2508  0.2273 -0.1673
    1SOL    HW2 2754   3.788   1.288   1.304  1.4625 -0.2845 -0.1150
    1SOL    HW3 2755   3.795   1.388   1.190  0.4262  0.3320  0.3617
    1SOL    MW4 2756   3.793   1.305   1.218  0.4339  0.1738 -0.0906
    1SOL     OW 2757   3.812   1.571   1.169 -0.0131  0.2823 -0.3933
    1SOL    HW2 2758   3.892   1.614   1.197  0.4225 -0.7176 -0.0572
    1SOL    HW3 2759   3.819   1.567   1.074  0.0657  0.7270 -0.4041
    1SOL    MW4 2760   3.824   1.576   1.160  0.0548  0.2090 -0.3505
    1SOL     OW 2761   3.602   1.715   1.289 -0.2270 -0.2865  0.2028
    1SOL    HW2 2762   3.591   1.793   1.235 -0.0041  0.6380  1.4543
    1SOL    HW3 2763   3.679   1.672   1.255  0.1485  0.5074  0.0376
    1SOL    MW4 2764   3.610   1.720   1.277 -0.1483 -0.0598  0.3461
    1SOL     OW 2765   3.602   1.940   1.134  0.1536 -0.0161  0.2397
    1SOL    HW2 2766   3.685   1.977   1.165 -0.2163  1.4659 -0.4572
    1SOL    HW3 2767   3.613   1.933   1.039 -1.1633  2.0079 -0.1117
    1SOL    MW4 2768   3.614   1.944   1.126 -0.0689  0.4464  0.1013
    1SOL     OW 2769   4.064   1.944   1.100  0.1888 -0.3839  0.1157
    1SOL    HW2 2770   3.982   1.982   1.132  1.5170  1.3238  1.6039
    1SOL    HW3 2771   4.070   1.860   1.145 -0.3608 -0.1638  0.6161
    1SOL    MW4 2772   4.054   1.938   1.111  0.2913 -0.1295  0.3781
    1SOL     OW 2773   3.830   2.052   1.228 -0.9526 -0.4352 -0.1597
    1SOL    HW2 2774   3.820   2.144   1.202 -1.4057 -0.1833  0.8425
    1SOL    HW3 2775   3.806   2.052   1.321  0.4534 -1.3088  0.2183
    1SOL    MW4 2776   3.826   2.064   1.237 -0.8268 -0.5174  0.0224
    1SOL     OW 2777   3.605   2.493   1.182  0.2874  0.0233  0.4642
    1SOL    HW2 2778   3.590   2.459   1.270 -0.2285 -1.8817 -0.3330
    1SOL    HW3 2779   3.677   2.439   1.148  1.3375  1.5902  0.1759
    1SOL    MW4 2780   3.613   2.481   1.189  0.3579 -0.0212  0.3210
    1SOL     OW 2781   3.611   2.762   1.073  0.5573  0.3041  0.4784
    1SOL    HW2 2782   3.615   2.670   1.103 -1.7764  0.0678  0.1969
    1SOL    HW3 2783   3.540   2.800   1.126 -0.8528  0.9910 -1.8423
    1SOL    MW4 2784   3.602   2.755   1.084  0.0634  0.3633  0.1352
    1SOL     OW 2785   3.852   2.819   1.228 -0.0516  0.1061 -0.0255
    1SOL    HW2 2786   3.818   2.823   1.317  0.1997  0.1534  0.0699
    1SOL    HW3 2787   3.778   2.789   1.175  0.0123 -0.6427  0.3133
    1SOL    MW4 2788   3.838   2.816   1.233 -0.0098  0.0136  0.0317
    1SOL     OW 2789   3.782   3.075   1.124  0.0228 -0.3645  0.6238
    1SOL    HW2 2790   3.814   2.987   1.140 -1.1297 -0.7527  0.8273
    1SOL    HW3 2791   3.782   3.085   1.029 -0.3597 -0.7728  0.5833
    1SOL    MW4 2792   3.787   3.065   1.114 -0.1800 -0.4699  0.6452
    1SOL     OW 2793   3.556   3.189   1.225 -0.4409 -0.0403  0.0939
    1SOL    HW2 2794   3.561   3.278   1.192 -1.3439 -0.8573 -2.3118
    1SOL    HW3 2795   3.636   3.146   1.194 -0.9680 -0.6174 -0.4960
    1SOL    MW4 2796   3.567   3.195   1.217 -0.6297 -0.2241 -0.3014
    1SOL     OW 2797   3.593   3.467   1.110 -0.0225 -0.1669 -0.5011
    1SOL    HW2 2798   3.664   3.515   1.154 -0.1176 -0.1338 -0.3822
    1SOL    HW3 2799   3.602   3.490   1.018  0.3324 -0.4293 -0.5356
    1SOL    MW4 2800   3.604   3.476   1.104  0.0119 -0.1972 -0.4900
    1SOL     OW 2801   3.799   3.620   1.222 -0.3272 -0.0084  0.4095
    1SOL    HW2 2802   3.806   3.630   1.317  0.8506  0.4304  0.2713
    1SOL    HW3 2803   3.825   3.705   1.187  0.5729 -0.6040 -0.3622
    1SOL    MW4 2804   3.803   3.632   1.230 -0.0532 -0.0288  0.2894
    1SOL     OW 2805   3.846   3.874   1.111  0.1486  0.6272 -0.0363
    1SOL    HW2 2806   3.766   3.914   1.146 -0.3848  0.4670 -1.0450
    1SOL    HW3 2807   3.830   3.869   1.016  1.0437 -0.1187 -0.1486
    1SOL    MW4 2808   3.833   3.879   1.103  0.1962  0.5074 -0.1842
    1SOL     OW 2809   3.624   3.990   1.236 -0.9000 -0.1221 -0.4055
    1SOL    HW2 2810   3.617   3.986   1.331  0.0856  0.2212 -0.3115
    1SOL    HW3 2811   3.546   3.945   1.204 -0.7434 -1.0852  0.5620
    1SOL    MW4 2812   3.612   3.984   1.244 -0.7493 -0.2038 -0.2654
    1SOL     OW 2813   3.649   4.279   1.103 -0.3440  0.2389  0.3729
    1SOL    HW2 2814   3.650   4.187   1.130  1.5474 -0.5747 -2.1909
    1SOL    HW3 2815   3.644   4.275   1.007  0.6629  2.7924  0.1832
    1SOL    MW4 2816   3.649   4.266   1.094  0.0384  0.4683  0.0097
    1SOL     OW 2817   3.851   4.422   1.240 -0.8906  0.2185 -0.3530
    1SOL    HW2 2818   3.851   4.383   1.327 -1.2975  0.5872 -0.1839
    1SOL    HW3 2819   3.776   4.383   1.196 -0.4409 -0.2786 -0.6808
    1SOL    MW4 2820   3.841   4.412   1.245 -0.8850  0.2012 -0.3738
    1SOL     OW 2821   4.243   4.643   1.125  0.1377  0.2927 -0.0978
    1SOL    HW2 2822   4.265   4.577   1.191 -0.2430  0.5084  0.2406
    1SOL    HW3 2823   4.176   4.697   1.166  1.7593  2.0224  0.2909
    1SOL    MW4 2824   4.237   4.641   1.139  0.3014  0.5488 -0.0018
    1SOL     OW 2825   4.048   0.122   1.261 -0.1084  0.0477  0.2986
    1SOL    HW2 2826   4.048   0.107   1.355  0.9419 -1.4302  0.0836
    1SOL    HW3 2827   3.978   0.065   1.228 -0.0729  0.1123  0.1099
    1SOL    MW4 2828   4.039   0.113   1.269  0.0348 -0.1388  0.2453
    1SOL     OW 2829   4.045   0.373   1.163 -0.2301 -0.0710 -0.3655
    1SOL    HW2 2830   4.052   0.283   1.196  2.2666 -0.1428 -1.0197
    1SOL    HW3 2831   4.033   0.362   1.069  0.2427  0.2807 -0.4652
    1SOL    MW4 2832   4.044   0.359   1.155  0.1616 -0.0341 -0.4650
    1SOL     OW 2833   4.289   0.494   1.271 -0.0739  0.3924 -0.0170
    1SOL    HW2 2834   4.287   0.490   1.366  0.7516  0.2145  0.0053
    1SOL    HW3 2835   4.210   0.448   1.243  0.1166 -0.3021  0.5709
    1SOL    MW4 2836   4.279   0.487   1.280  0.0601  0.2773  0.0634
    1SOL     OW 2837   4.244   0.763   1.200  0.0920 -0.3261 -0.0548
    1SOL    HW2 2838   4.257   0.670   1.220  0.5693  0.0111  1.2910
    1SOL    HW3 2839   4.320   0.807   1.239 -0.5856  0.7185  0.1169
    1SOL    MW4 2840   4.256   0.757   1.208  0.0653 -0.1438  0.1453
    1SOL     OW 2841   3.992   0.874   1.280 -0.4776  0.3336 -0.1042
    1SOL    HW2 2842   4.002   0.884   1.374 -0.0722  1.2824 -0.2421
    1SOL    HW3 2843   4.073   0.831   1.252 -0.0406  1.1986 -0.1877
    1SOL    MW4 2844   4.004   0.869   1.289 -0.3667  0.5729 -0.1334
    1SOL     OW 2845   4.018   1.125   1.143 -0.2694  0.0607  0.4097
    1SOL    HW2 2846   4.001   1.046   1.195  0.5213 -0.0854  0.4597
    1SOL    HW3 2847   3.943   1.182   1.160 -1.1326 -0.9107 -0.0750
    1SOL    MW4 2848   4.006   1.122   1.152 -0.2794 -0.0867  0.3523
    1SOL     OW 2849   4.241   1.256   1.223  0.0667  0.3418 -0.1438
    1SOL    HW2 2850   4.217   1.252   1.315  0.6231  0.6185  0.0165
    1SOL    HW3 2851   4.170   1.210   1.177 -0.6746  1.0213  0.3262
    1SOL    MW4 2852   4.229   1.249   1.229  0.0424  0.4678 -0.0607
    1SOL     OW 2853   4.288   1.534   1.156 -0.2011  0.2107  0.2203
    1SOL    HW2 2854   4.272   1.441   1.175  1.8322 -0.0068  0.9119
    1SOL    HW3 2855   4.368   1.555   1.204  0.8075  1.6400 -2.0334
    1SOL    MW4 2856   4.296   1.524   1.165  0.2007  0.3707  0.0142
    1SOL     OW 2857   4.078   1.707   1.251 -0.7518 -0.1154  0.1369
    1SOL    HW2 2858   4.068   1.699   1.346 -1.6934  0.2893  0.0774
    1SOL    HW3 2859   4.141   1.639   1.228  0.8023  0.9098  1.2848
    1SOL    MW4 2860   4.085   1.697   1.261 -0.6709  0.0732  0.2805
    1SOL     OW 2861   3.467   1.779   0.369  0.1401 -0.1263  0.0968
    1SOL    HW2 2862   3.560   1.788   0.391  0.7946  2.7168 -3.4365
    1SOL    HW3 2863   3.464   1.702   0.312  0.5049  0.3551 -0.5815
    1SOL    MW4 2864   3.479   1.770   0.365  0.2744  0.3122 -0.4589
    1SOL     OW 2865   4.264   2.045   1.261  0.0825  0.0281 -0.0012
    1SOL    HW2 2866   4.257   2.135   1.230 -0.7772 -0.5072 -1.4435
    1SOL    HW3 2867   4.192   1.999   1.216 -0.7011 -0.9525  2.2139
    1SOL    MW4 2868   4.253   2.050   1.251 -0.1345 -0.1719  0.1007
    1SOL     OW 2869   4.264   2.328   1.170 -0.4581 -0.2049 -0.5417
    1SOL    HW2 2870   4.177   2.367   1.177 -0.2242  0.2555 -0.1632
    1SOL    HW3 2871   4.279   2.319   1.076 -0.8567 -0.1544 -0.6096
    1SOL    MW4 2872   4.255   2.332   1.158 -0.4797 -0.1373 -0.5007
    1SOL     OW 2873   4.012   2.455   1.236  0.1835  0.6063 -0.3164
    1SOL    HW2 2874   4.010   2.455   1.332  0.7481 -0.2904 -0.3023
    1SOL    HW3 2875   4.046   2.542   1.213  1.1601  0.4013  0.3314
    1SOL    MW4 2876   4.017   2.467   1.246  0.3867  0.4609 -0.2290
    1SOL     OW 2877   4.080   2.689   1.123 -0.2789 -0.2092 -0.0356
    1SOL    HW2 2878   3.993   2.721   1.147 -0.2964 -0.2218 -0.0828
    1SOL    HW3 2879   4.076   2.677   1.028 -0.0735  0.2570 -0.1065
    1SOL    MW4 2880   4.068   2.692   1.114 -0.2542 -0.1493 -0.0511
    1SOL     OW 2881   4.274   2.856   1.228 -0.1533 -0.2963  0.2892
    1SOL    HW2 2882   4.268   2.946   1.196  0.0344  0.3777  2.1130
    1SOL    HW3 2883   4.193   2.814   1.197 -0.6308  0.7352  0.1337
    1SOL    MW4 2884   4.263   2.862   1.220 -0.1912 -0.0713  0.5094
    1SOL     OW 2885   4.262   3.114   1.070 -0.1343  0.3170 -0.1498
    1SOL    HW2 2886   4.181   3.156   1.100 -0.0505 -0.1078  0.6746
    1SOL    HW3 2887   4.260   3.124   0.975 -0.6687  1.1882 -0.0550
    1SOL    MW4 2888   4.251   3.121   1.062 -0.1936  0.3760 -0.0286
    1SOL     OW 2889   4.010   3.198   1.205 -0.3600 -0.1843 -0.0875
    1SOL    HW2 2890   4.008   3.196   1.301 -2.3428  1.6095 -0.0504
    1SOL    HW3 2891   3.926   3.162   1.179  0.8963 -2.3525 -1.2242
    1SOL    MW4 2892   3.999   3.193   1.214 -0.4563 -0.2337 -0.2325
    1SOL     OW 2893   4.033   3.467   1.175  0.0255  0.0218  0.0940
    1SOL    HW2 2894   4.030   3.378   1.209  0.8413  0.2952  0.9033
    1SOL    HW3 2895   3.949   3.505   1.200  0.4608  0.0948  1.4794
    1SOL    MW4 2896   4.022   3.461   1.183  0.1907  0.0672  0.3835
    1SOL     OW 2897   4.243   3.636   1.222 -0.2907 -0.1871 -0.4705
    1SOL    HW2 2898   4.172   3.578   1.197  0.5498 -1.6147  0.3310
    1SOL    HW3 2899   4.323   3.589   1.196  0.4114  0.5555  0.2866
    1SOL    MW4 2900   4.244   3.622   1.216 -0.0873 -0.2775 -0.2649
    1SOL     OW 2901   4.258   3.890   1.133  0.1017 -0.2611 -0.0659
    1SOL    HW2 2902   4.173   3.928   1.158  0.9875  1.5936  0.2312
    1SOL    HW3 2903   4.258   3.803   1.171 -0.3998  0.8796  2.6453
    1SOL    MW4 2904   4.247   3.884   1.141  0.1526  0.1342  0.3309
    1SOL     OW 2905   4.016   4.039   1.228  0.5306  0.1923  0.1810
    1SOL    HW2 2906   4.016   4.113   1.167  0.8450  0.3726  0.3965
    1SOL    HW3 2907   3.955   3.976   1.189  1.2259  0.0229 -0.6606
    1SOL    MW4 2908   4.008   4.041   1.215  0.6638  0.1931  0.0983
    1SOL     OW 2909   4.049   4.290   1.098  0.3472  0.4167  0.6735
    1SOL    HW2 2910   3.977   4.347   1.126  1.1428  1.8270 -0.1069
    1SOL    HW3 2911   4.049   4.297   1.002  1.9765  0.9831  0.7091
    1SOL    MW4 2912   4.039   4.298   1.089  0.6676  0.6766  0.5752
    1SOL     OW 2913   4.267   4.387   1.251  0.0074  0.0669  0.5839
    1SOL    HW2 2914   4.188   4.340   1.224  0.8568  0.0774 -2.0722
    1SOL    HW3 2915   4.339   4.340   1.209  1.3561  0.6822  2.1100
    1SOL    MW4 2916   4.266   4.375   1.242  0.2975  0.1497  0.4349
    1SOL     OW 2917   0.196   4.657   1.621  0.5642  0.4334 -0.2683
    1SOL    HW2 2918   0.269   4.706   1.582  0.3686  0.7659 -0.2175
    1SOL    HW3 2919   0.118   4.705   1.595  0.1383 -1.4583 -2.6278
    1SOL    MW4 2920   0.195   4.670   1.612  0.4822  0.2275 -0.5728
    1SOL     OW 2921   4.461   0.151   1.525 -0.0645  0.0038 -0.1031
    1SOL    HW2 2922   4.410   0.083   1.569 -1.0677  0.8864  0.1359
    1SOL    HW3 2923   4.448   0.135   1.432 -1.2574  0.5692 -0.0378
    1SOL    MW4 2924   4.453   0.140   1.518 -0.3543  0.1949 -0.0631
    1SOL     OW 2925   4.484   0.405   1.634  0.0603  0.5215  0.3369
    1SOL    HW2 2926   4.474   0.398   1.729  2.5884  0.1811  0.5898
    1SOL    HW3 2927   4.486   0.314   1.604 -0.5136  0.6302 -0.0482
    1SOL    MW4 2928   4.483   0.392   1.643  0.3181  0.4909  0.3195
    1SOL     OW 2929   0.222   0.570   1.543  0.1936  1.1569 -0.1853
    1SOL    HW2 2930   0.142   0.525   1.571  1.5650 -1.1701  0.1306
    1SOL    HW3 2931   0.213   0.580   1.449 -0.5357  1.0353 -0.1314
    1SOL    MW4 2932   0.210   0.566   1.535  0.2783  0.8338 -0.1366
    1SOL     OW 2933   0.229   0.826   1.638 -0.0916 -0.1273 -0.0768
    1SOL    HW2 2934   0.240   0.737   1.606  0.3903 -0.5552  1.2436
    1SOL    HW3 2935   0.300   0.875   1.597 -0.1289 -0.4327 -0.5117
    1SOL    MW4 2936   0.240   0.821   1.629 -0.0329 -0.2241  0.0401
    1SOL     OW 2937   4.449   0.868   1.537 -0.0615 -0.1851 -0.0017
    1SOL    HW2 2938   4.425   0.955   1.570 -0.0068 -0.2573  0.2316
    1SOL    HW3 2939   4.538   0.854   1.570  0.2510  0.0251 -0.7509
    1SOL    MW4 2940   4.457   0.878   1.546 -0.0134 -0.1669 -0.0697
    1SOL     OW 2941   4.471   1.164   1.618  0.1391  0.3190  0.2355
    1SOL    HW2 2942   4.470   1.170   1.714 -0.1657  1.3488  0.1801
    1SOL    HW3 2943   4.552   1.208   1.593  0.7746 -0.9360  0.0705
    1SOL    MW4 2944   4.481   1.171   1.628  0.1826  0.2893  0.2065
    1SOL     OW 2945   0.205   1.323   1.534 -0.4073  0.5350  0.0882
    1SOL    HW2 2946   0.288   1.291   1.568  0.1023  0.8676 -0.8356
    1SOL    HW3 2947   0.201   1.414   1.561  0.5970  1.1696 -1.8148
    1SOL    MW4 2948   0.215   1.331   1.542 -0.2075  0.6626 -0.2848
    1SOL     OW 2949   0.237   1.581   1.637 -0.1746 -0.0173  0.1061
    1SOL    HW2 2950   0.235   1.571   1.732  2.8075  0.3128  0.2685
    1SOL    HW3 2951   0.154   1.624   1.616 -1.6250 -1.5854  2.3357
    1SOL    MW4 2952   0.226   1.585   1.647  0.0275 -0.1807  0.4216
    1SOL     OW 2953   4.473   1.664   1.568  0.0358  0.4109 -0.2132
    1SOL    HW2 2954   4.484   1.752   1.604 -1.7872  0.6678 -0.2257
    1SOL    HW3 2955   4.464   1.678   1.473 -0.0213  0.1856 -0.2418
    1SOL    MW4 2956   4.473   1.678   1.560 -0.2123  0.4151 -0.2187
    1SOL     OW 2957   0.021   1.937   1.613 -0.3977 -0.1304 -0.0762
    1SOL    HW2 2958   0.015   1.931   1.708 -1.0549  0.6570 -0.0619
    1SOL    HW3 2959  -0.066   1.968   1.585 -0.1101 -0.0423 -0.8976
    1SOL    MW4 2960   0.008   1.940   1.622 -0.4464 -0.0149 -0.1827
    1SOL     OW 2961   0.240   2.085   1.524 -0.5290 -0.5033 -0.3152
    1SOL    HW2 2962   0.164   2.049   1.570 -0.3962  1.0017  1.1491
    1SOL    HW3 2963   0.217   2.080   1.432 -1.8275 -1.3547  0.0402
    1SOL    MW4 2964   0.227   2.079   1.518 -0.6828 -0.4170 -0.0751
    1SOL     OW 2965   0.251   2.336   1.644 -0.3470 -0.2998 -0.5749
    1SOL    HW2 2966   0.261   2.317   1.738 -0.3647  1.0146 -0.2943
    1SOL    HW3 2967   0.249   2.250   1.602 -1.4678 -0.9377  0.7434
    1SOL    MW4 2968   0.252   2.322   1.651 -0.4972 -0.2105 -0.3641
    1SOL     OW 2969   0.023   2.445   1.503 -0.0835  0.3000  0.1931
    1SOL    HW2 2970  -0.056   2.401   1.534  0.1422 -0.8359 -0.7871
    1SOL    HW3 2971   0.095   2.403   1.550  0.0852  0.0507 -0.2835
    1SOL    MW4 2972   0.022   2.434   1.513 -0.0315  0.1173  0.0008
    1SOL     OW 2973   0.005   2.703   1.611  0.6405  0.3190 -0.1541
    1SOL    HW2 2974  -0.080   2.726   1.573  0.2509  0.5292  0.8370
    1SOL    HW3 2975   0.020   2.613   1.582 -0.2677  0.0267  0.2510
    1SOL    MW4 2976  -0.005   2.694   1.602  0.4692  0.3080  0.0302
    1SOL     OW 2977   0.189   2.858   1.474 -0.0075 -0.1652 -0.3361
    1SOL    HW2 2978   0.270   2.811   1.492  0.0867 -0.6796 -1.9817
    1SOL    HW3 2979   0.121   2.809   1.520  0.5303 -0.0024  0.6565
    1SOL    MW4 2980   0.190   2.845   1.482  0.0759 -0.2117 -0.4222
    1SOL     OW 2981   0.176   3.091   1.621  0.0766 -0.1111 -0.2938
    1SOL    HW2 2982   0.100   3.138   1.586  1.8869  1.6095 -2.0494
    1SOL    HW3 2983   0.177   3.009   1.572 -1.9900 -1.2287  1.4353
    1SOL    MW4 2984   0.166   3.087   1.610  0.0428 -0.0315 -0.2973
    1SOL     OW 2985   4.439   3.222   1.481 -0.3687  0.3859  0.2432
    1SOL    HW2 2986   4.468   3.303   1.522  3.2668 -1.2945  1.1653
    1SOL    HW3 2987   4.457   3.234   1.388 -0.6002  0.9455  0.2708
    1SOL    MW4 2988   4.445   3.234   1.474  0.0806  0.2382  0.3687
    1SOL     OW 2989   0.029   3.443   1.583 -0.3750 -0.1171 -0.0493
    1SOL    HW2 2990   0.006   3.439   1.676 -3.3583 -1.3409 -0.7994
    1SOL    HW3 2991  -0.044   3.489   1.542 -0.7512 -2.5852 -2.2940
    1SOL    MW4 2992   0.017   3.449   1.590 -0.8182 -0.6042 -0.4443
    1SOL     OW 2993   0.281   3.591   1.443  0.4555  0.1003  0.1769
    1SOL    HW2 2994   0.292   3.670   1.496  0.2900 -0.3812  0.9387
    1SOL    HW3 2995   0.198   3.554   1.472  1.4163 -1.3399  1.1168
    1SOL    MW4 2996   0.271   3.596   1.454  0.5605 -0.1533  0.4015
    1SOL     OW 2997   0.314   3.834   1.586 -0.3362 -0.0219  0.0460
    1SOL    HW2 2998   0.299   3.858   1.678 -0.2833  2.6764 -0.5969
    1SOL    HW3 2999   0.369   3.905   1.552  0.3827 -1.4489 -1.8447
    1SOL    MW4 3000   0.320   3.847   1.594 -0.2344  0.1459 -0.2884
    1SOL     OW 3001   0.035   3.948   1.488 -0.3853  0.5240 -0.3731
    1SOL    HW2 3002   0.035   4.039   1.517 -1.8585 -0.2013  2.0227
    1SOL    HW3 3003   0.118   3.912   1.521 -0.4962  0.5877 -0.0297
    1SOL    MW4 3004   0.046   3.955   1.496 -0.5943  0.4368 -0.0116
    1SOL     OW 3005   0.024   4.212   1.577  0.6866 -0.1111  0.1154
    1SOL    HW2 3006   0.022   4.213   1.672 -0.5091  1.6834  0.1165
    1SOL    HW3 3007  -0.060   4.250   1.551  0.7986 -0.9892 -1.6639
    1SOL    MW4 3008   0.013   4.217   1.586  0.5436  0.0105 -0.1192
    1SOL     OW 3009   0.193   4.412   1.487 -0.2712  0.9060 -0.2698
    1SOL    HW2 3010   0.142   4.363   1.552 -0.4296  0.4581 -0.7315
    1SOL    HW3 3011   0.190   4.503   1.518 -0.0821  0.6455  0.5202
    1SOL    MW4 3012   0.186   4.418   1.500 -0.2672  0.8121 -0.2264
    1SOL     OW 3013   0.615   0.007   1.634  0.3203 -0.0744  0.3121
    1SOL    HW2 3014   0.694   0.041   1.591 -0.8333 -0.7398 -2.4841
    1SOL    HW3 3015   0.543   0.047   1.586 -1.0327 -1.2399  1.3446
    1SOL    MW4 3016   0.616   0.017   1.622 -0.0104 -0.3160  0.0794
    1SOL     OW 3017   0.404   0.136   1.504  0.1354 -0.3716  0.7494
    1SOL    HW2 3018   0.416   0.223   1.544  0.4107 -0.3049  0.5221
    1SOL    HW3 3019   0.390   0.154   1.412  1.7411 -0.6562  0.4342
    1SOL    MW4 3020   0.404   0.150   1.497  0.3836 -0.4003  0.6777
    1SOL     OW 3021   0.428   0.387   1.636 -0.0542 -0.6438 -0.5825
    1SOL    HW2 3022   0.503   0.446   1.623 -0.4867  0.2131  0.5929
    1SOL    HW3 3023   0.353   0.437   1.605 -0.0680 -1.7754 -2.4149
    1SOL    MW4 3024   0.428   0.402   1.630 -0.1131 -0.6800 -0.6691
    1SOL     OW 3025   0.651   0.558   1.551  0.2171 -0.2086  0.0166
    1SOL    HW2 3026   0.657   0.652   1.570 -0.5199 -0.1277 -0.1531
    1SOL    HW3 3027   0.638   0.554   1.457 -0.7896 -0.4425  0.1620
    1SOL    MW4 3028   0.650   0.570   1.541 -0.0131 -0.2288  0.0132
    1SOL     OW 3029   0.645   0.819   1.629 -0.4981  0.0062 -0.2101
    1SOL    HW2 3030   0.644   0.821   1.725  1.1634 -0.3111 -0.1837
    1SOL    HW3 3031   0.736   0.835   1.605 -0.5152 -1.9028 -1.6928
    1SOL    MW4 3032   0.657   0.821   1.639 -0.2812 -0.2875 -0.4025
    1SOL     OW 3033   0.439   0.930   1.472 -0.3703  0.4388 -0.1641
    1SOL    HW2 3034   0.431   1.015   1.515 -1.8065 -0.0533  0.5734
    1SOL    HW3 3035   0.510   0.886   1.519 -1.2568  0.2912  1.0453
    1SOL    MW4 3036   0.447   0.936   1.484 -0.6767  0.3543  0.0927
    1SOL     OW 3037   0.433   1.173   1.602 -0.6541 -0.0858 -0.3240
    1SOL    HW2 3038   0.513   1.205   1.560 -0.7217  0.0757 -0.3287
    1SOL    HW3 3039   0.456   1.166   1.695  0.4585 -3.3434 -0.7770
    1SOL    MW4 3040   0.447   1.176   1.608 -0.5162 -0.4941 -0.3844
    1SOL     OW 3041   0.682   1.288   1.491  0.2347  0.2837 -0.4919
    1SOL    HW2 3042   0.685   1.372   1.538  0.5989 -0.0216  0.0326
    1SOL    HW3 3043   0.652   1.311   1.403  0.4007  0.9748 -0.3708
    1SOL    MW4 3044   0.678   1.302   1.486  0.3046  0.3346 -0.4066
    1SOL     OW 3045   0.674   1.521   1.624 -0.5294 -0.5040  0.2863
    1SOL    HW2 3046   0.757   1.568   1.609 -0.5528 -0.5645 -0.0319
    1SOL    HW3 3047   0.608   1.574   1.579 -0.5583 -0.8393 -0.0625
    1SOL    MW4 3048   0.676   1.534   1.616 -0.5363 -0.5561  0.1982
    1SOL     OW 3049   0.465   1.667   1.496 -0.0610 -0.2458  0.2300
    1SOL    HW2 3050   0.473   1.756   1.530 -0.5907 -0.4216  0.8173
    1SOL    HW3 3051   0.394   1.628   1.546 -0.5548 -0.6552 -0.7667
    1SOL    MW4 3052   0.457   1.673   1.507 -0.1960 -0.3229  0.1762
    1SOL     OW 3053   0.479   1.924   1.609  0.5053 -0.0719 -0.2439
    1SOL    HW2 3054   0.463   1.915   1.703  0.0184 -1.4476 -0.4565
    1SOL    HW3 3055   0.401   1.968   1.576  0.0395 -0.8812 -0.2303
    1SOL    MW4 3056   0.467   1.929   1.617  0.3796 -0.3603 -0.2701
    1SOL     OW 3057   0.673   2.091   1.503  0.2940  0.1621 -0.6269
    1SOL    HW2 3058   0.760   2.078   1.541  0.5945  1.9149 -0.6695
    1SOL    HW3 3059   0.617   2.028   1.550  1.2559  0.1630  0.5538
    1SOL    MW4 3060   0.677   2.081   1.514  0.4606  0.3934 -0.4767
    1SOL     OW 3061   0.679   2.341   1.609  0.4918 -0.2936  0.0465
    1SOL    HW2 3062   0.609   2.392   1.569 -0.5893 -1.4739  0.3733
    1SOL    HW3 3063   0.664   2.252   1.577  1.2587 -0.7334  0.8959
    1SOL    MW4 3064   0.668   2.336   1.600  0.4503 -0.5071  0.2017
    1SOL     OW 3065   0.460   2.470   1.521 -0.6739  0.3841 -0.3556
    1SOL    HW2 3066   0.443   2.562   1.538 -1.5595  0.2522 -0.4978
    1SOL    HW3 3067   0.397   2.423   1.576 -0.1359 -0.1407 -0.1726
    1SOL    MW4 3068   0.450   2.476   1.531 -0.7197  0.2975 -0.3502
    1SOL     OW 3069   0.410   2.752   1.591 -0.4469 -0.1795  0.1740
    1SOL    HW2 3070   0.426   2.733   1.684 -1.0938 -0.8241  0.1566
    1SOL    HW3 3071   0.492   2.792   1.561  0.2892 -1.2569  0.6802
    1SOL    MW4 3072   0.423   2.754   1.599 -0.4351 -0.4067  0.2387
    1SOL     OW 3073   0.647   2.862   1.470 -0.5839  0.2819  0.5326
    1SOL    HW2 3074   0.655   2.939   1.527  0.5571  0.9905 -0.5704
    1SOL    HW3 3075   0.718   2.804   1.498 -0.8370  0.0537  0.7056
    1SOL    MW4 3076   0.657   2.864   1.482 -0.4668  0.3455  0.4100
    1SOL     OW 3077   0.639   3.125   1.603 -0.3222 -0.0674  0.0219
    1SOL    HW2 3078   0.706   3.163   1.546 -0.6970  0.8428  0.1870
    1SOL    HW3 3079   0.557   3.138   1.557 -0.4970 -0.3687  0.2436
    1SOL    MW4 3080   0.637   3.131   1.590 -0.3946  0.0129  0.0728
    1SOL     OW 3081   0.400   3.162   1.478  0.1668  0.2487  0.5708
    1SOL    HW2 3082   0.312   3.140   1.507 -0.1217 -0.4030 -0.8019
    1SOL    HW3 3083   0.396   3.159   1.383  1.7696 -0.1698  0.5017
    1SOL    MW4 3084   0.388   3.159   1.469  0.3402  0.1073  0.3806
    1SOL     OW 3085   0.469   3.424   1.569 -0.4043  0.1874 -0.0494
    1SOL    HW2 3086   0.454   3.338   1.530 -0.8866  0.7637 -1.1714
    1SOL    HW3 3087   0.399   3.479   1.532  0.7629  1.4126 -0.4835
    1SOL    MW4 3088   0.458   3.420   1.559 -0.3139  0.4251 -0.2548
    1SOL     OW 3089   0.677   3.599   1.508 -0.3432 -0.0334  0.0394
    1SOL    HW2 3090   0.755   3.567   1.552 -0.5511  0.6729  0.9467
    1SOL    HW3 3091   0.606   3.544   1.542 -0.3385 -0.2562 -0.3042
    1SOL    MW4 3092   0.678   3.587   1.518 -0.3700  0.0305  0.1137
    1SOL     OW 3093   0.688   3.866   1.587 -0.1211 -0.2417 -0.0348
    1SOL    HW2 3094   0.772   3.896   1.552  1.5160 -0.4562  3.4146
    1SOL    HW3 3095   0.688   3.772   1.573  1.9618 -0.8061  3.1157
    1SOL    MW4 3096   0.699   3.858   1.581  0.3697 -0.3445  0.8359
    1SOL     OW 3097   0.479   4.037   1.475 -0.4173  0.1950  0.1006
    1SOL    HW2 3098   0.540   3.974   1.513 -0.3881  0.7014  0.9129
    1SOL    HW3 3099   0.492   4.030   1.380 -0.6499 -1.2439  0.1734
    1SOL    MW4 3100   0.488   4.028   1.467 -0.4441  0.0715  0.2174
    1SOL     OW 3101   0.428   4.269   1.619 -0.0518 -0.1105 -0.3688
    1SOL    HW2 3102   0.433   4.194   1.560 -0.1009 -0.3816 -0.0351
    1SOL    HW3 3103   0.362   4.327   1.580 -0.3135 -0.4348 -0.4135
    1SOL    MW4 3104   0.420   4.267   1.606 -0.0928 -0.1893 -0.3307
    1SOL     OW 3105   0.636   4.424   1.526  0.1028 -0.0352 -0.0544
    1SOL    HW2 3106   0.577   4.368   1.578  0.4818 -0.8465 -0.4923
    1SOL    HW3 3107   0.632   4.509   1.570 -0.5264 -0.3843  0.5903
    1SOL    MW4 3108   0.627   4.428   1.539  0.0697 -0.1884 -0.0271
    1SOL     OW 3109   1.071   4.603   1.582 -0.5894  0.0831 -0.0001
    1SOL    HW2 3110   1.085   4.590   1.675 -0.3342  1.6834  0.2025
    1SOL    HW3 3111   1.148   4.653   1.553 -0.6328 -0.4596 -1.0735
    1SOL    MW4 3112   1.083   4.608   1.590 -0.5615  0.2227 -0.1149
    1SOL     OW 3113   0.841   0.083   1.492  0.6578 -0.1677 -0.3829
    1SOL    HW2 3114   0.854   0.174   1.517 -0.3703 -0.0897 -0.1086
    1SOL    HW3 3115   0.916   0.037   1.529  1.5445  0.6764 -1.1274
    1SOL    MW4 3116   0.852   0.089   1.500  0.6391 -0.0460 -0.4449
    1SOL     OW 3117   0.851   0.367   1.576  0.5859  0.5434  0.4283
    1SOL    HW2 3118   0.869   0.377   1.669 -0.9009  1.3118  0.6492
    1SOL    HW3 3119   0.777   0.425   1.559 -0.0021 -0.5641 -0.9576
    1SOL    MW4 3120   0.843   0.376   1.586  0.3121  0.4987  0.2747
    1SOL     OW 3121   1.100   0.509   1.487  0.0905 -0.0205 -0.4249
    1SOL    HW2 3122   1.114   0.591   1.535  1.5892 -1.7734  2.2450
    1SOL    HW3 3123   1.009   0.485   1.508  0.3348 -0.1295  0.5495
    1SOL    MW4 3124   1.090   0.516   1.496  0.3203 -0.2661  0.0559
    1SOL     OW 3125   1.141   0.766   1.553  0.1632 -0.1470 -0.0202
    1SOL    HW2 3126   1.147   0.772   1.649  0.7439  1.6061 -0.1608
    1SOL    HW3 3127   1.204   0.830   1.521 -0.5148 -0.2584 -1.5964
    1SOL    MW4 3128   1.150   0.775   1.562  0.1503  0.0696 -0.2466
    1SOL     OW 3129   0.899   0.893   1.510 -0.0183  0.0335 -0.4455
    1SOL    HW2 3130   0.978   0.840   1.516 -0.1595 -0.1329 -0.0895
    1SOL    HW3 3131   0.869   0.882   1.419  1.3222  1.4561 -1.0774
    1SOL    MW4 3132   0.905   0.885   1.499  0.1400  0.1993 -0.4820
    1SOL     OW 3133   0.899   1.173   1.590 -0.0664 -0.1944 -0.1315
    1SOL    HW2 3134   0.895   1.082   1.559 -0.5731 -0.2581  0.1154
    1SOL    HW3 3135   0.817   1.212   1.560  0.1389  0.1771 -0.2120
    1SOL    MW4 3136   0.888   1.166   1.582 -0.1061 -0.1538 -0.1097
    1SOL     OW 3137   1.122   1.310   1.489 -0.1574 -0.1128 -0.1262
    1SOL    HW2 3138   1.195   1.256   1.517  1.2171  1.3745 -0.7855
    1SOL    HW3 3139   1.044   1.262   1.517  1.0253 -2.4554 -0.7411
    1SOL    MW4 3140   1.121   1.297   1.496  0.1801 -0.2257 -0.2941
    1SOL     OW 3141   1.120   1.548   1.650  0.0072  0.0715  0.2185
    1SOL    HW2 3142   1.200   1.584   1.612 -0.5762  1.0992 -0.0394
    1SOL    HW3 3143   1.112   1.462   1.610  0.8178  0.0814  0.0180
    1SOL    MW4 3144   1.130   1.541   1.640  0.0372  0.2084  0.1581
    1SOL     OW 3145   0.903   1.677   1.543  0.3466  0.2872 -0.2037
    1SOL    HW2 3146   0.986   1.638   1.570 -0.7864 -1.5486  0.7444
    1SOL    HW3 3147   0.906   1.676   1.448  1.6407  0.7498 -0.1780
    1SOL    MW4 3148   0.914   1.671   1.534  0.3678  0.1060 -0.0752
    1SOL     OW 3149   0.916   1.971   1.640 -0.4596  0.1225  0.0577
    1SOL    HW2 3150   0.997   1.997   1.595  0.1334 -0.8498  0.5354
    1SOL    HW3 3151   0.898   1.883   1.608 -1.4593  0.4276 -0.2093
    1SOL    MW4 3152   0.925   1.963   1.630 -0.5133  0.0345  0.0856
    1SOL     OW 3153   1.149   2.091   1.495  0.4480  0.5190 -0.0492
    1SOL    HW2 3154   1.224   2.043   1.530  0.6015  0.7022 -0.1189
    1SOL    HW3 3155   1.154   2.177   1.538 -0.1441  0.2834  0.4886
    1SOL    MW4 3156   1.160   2.096   1.505  0.3902  0.5121  0.0125
    1SOL     OW 3157   1.161   2.350   1.608  0.6226 -0.0313  0.0039
    1SOL    HW2 3158   1.225   2.387   1.548  0.2380  1.3365  0.3920
    1SOL    HW3 3159   1.077   2.386   1.578  0.0604 -1.6619 -0.3977
    1SOL    MW4 3160   1.158   2.360   1.596  0.4977 -0.0660  0.0023
    1SOL     OW 3161   0.905   2.454   1.496  0.1889  0.1369 -0.2353
    1SOL    HW2 3162   0.907   2.447   1.401  0.1289 -3.2316 -0.0466
    1SOL    HW3 3163   0.827   2.405   1.522 -0.0412  1.3910  1.5480
    1SOL    MW4 3164   0.895   2.447   1.487  0.1506 -0.1419  0.0248
    1SOL     OW 3165   0.868   2.718   1.547 -0.0666  0.3951  0.2728
    1SOL    HW2 3166   0.894   2.719   1.639  0.1444  0.0428  0.2168
    1SOL    HW3 3167   0.868   2.626   1.523  0.3030  0.5194 -0.2050
    1SOL    MW4 3168   0.871   2.706   1.556  0.0101  0.3650  0.2024
    1SOL     OW 3169   1.093   2.823   1.435  0.1206 -0.4017  0.3109
    1SOL    HW2 3170   1.095   2.914   1.463  1.5140  0.3749 -2.1758
    1SOL    HW3 3171   1.010   2.790   1.468 -0.8622  2.0577  0.4160
    1SOL    MW4 3172   1.082   2.831   1.443  0.1748  0.0255 -0.0033
    1SOL     OW 3173   1.072   3.076   1.542  0.3017 -0.2910  0.4831
    1SOL    HW2 3174   1.085   3.082   1.636  0.0072 -2.6869  0.7144
    1SOL    HW3 3175   1.144   3.125   1.503  1.0813 -0.2803  1.9418
    1SOL    MW4 3176   1.083   3.083   1.549  0.3657 -0.6056  0.7061
    1SOL     OW 3177   0.854   3.244   1.492  0.0297  0.5690  0.4208
    1SOL    HW2 3178   0.927   3.186   1.512 -1.0874 -0.8411  0.4593
    1SOL    HW3 3179   0.849   3.245   1.397  0.4037  1.0545  0.4051
    1SOL    MW4 3180   0.863   3.237   1.482 -0.0684  0.4470  0.4239
    1SOL     OW 3181   0.885   3.486   1.639  0.5222  0.2568  0.0614
    1SOL    HW2 3182   0.967   3.518   1.601  1.1824 -0.8483  0.5411
    1SOL    HW3 3183   0.875   3.398   1.604 -0.2457  0.2391  0.3299
    1SOL    MW4 3184   0.895   3.479   1.629  0.5081  0.1087  0.1600
    1SOL     OW 3185   1.117   3.578   1.488  0.1649 -0.1525  0.3455
    1SOL    HW2 3186   1.204   3.542   1.505  0.3675  0.6393  0.9980
    1SOL    HW3 3187   1.120   3.607   1.397 -0.0809 -1.9990 -0.2685
    1SOL    MW4 3188   1.129   3.577   1.478  0.1591 -0.2918  0.3506
    1SOL     OW 3189   1.126   3.847   1.609  0.1094  0.4256 -0.1447
    1SOL    HW2 3190   1.190   3.911   1.579 -0.2023 -0.1800 -2.1926
    1SOL    HW3 3191   1.152   3.765   1.566 -1.2901 -0.1067 -0.0074
    1SOL    MW4 3192   1.138   3.845   1.599 -0.1163  0.2754 -0.3970
    1SOL     OW 3193   0.916   3.970   1.487  0.2852  0.2093 -0.0376
    1SOL    HW2 3194   0.908   4.052   1.536 -0.3456 -0.8415  1.6470
    1SOL    HW3 3195   0.991   3.926   1.526  0.1347 -0.3869 -0.4202
    1SOL    MW4 3196   0.925   3.975   1.498  0.1822 -0.0081  0.1341
    1SOL     OW 3197   0.893   4.262   1.574  0.6983 -0.5581  0.2754
    1SOL    HW2 3198   0.890   4.260   1.670  0.6433 -0.2497  0.2837
    1SOL    HW3 3199   0.811   4.305   1.549  0.3033 -1.4383  0.0502
    1SOL    MW4 3200   0.882   4.268   1.583  0.6390 -0.6332  0.2469
    1SOL     OW 3201   1.084   4.368   1.438  0.6598  0.1776  0.1752
    1SOL    HW2 3202   1.012   4.330   1.487 -0.4422  0.1899 -1.3785
    1SOL    HW3 3203   1.088   4.459   1.468 -2.8545  1.4292 -2.7801
    1SOL    MW4 3204   1.075   4.375   1.448  0.0508  0.3448 -0.4197
    1SOL     OW 3205   1.529   4.665   1.584 -0.2775  0.2569 -0.0571
    1SOL    HW2 3206   1.528   4.663   1.680  0.7965  0.9220 -0.0201
    1SOL    HW3 3207   1.444   4.702   1.560 -0.8926 -0.7057  0.6107
    1SOL    MW4 3208   1.518   4.670   1.593 -0.2171  0.2174  0.0359
    1SOL     OW 3209   1.292   0.106   1.492  0.1129  0.0927 -0.1284
    1SOL    HW2 3210   1.294   0.196   1.524  0.8097 -0.2350  0.7579
    1SOL    HW3 3211   1.293   0.114   1.397  0.2044  1.0159 -0.0493
    1SOL    MW4 3212   1.292   0.119   1.484  0.2170  0.1713 -0.0011
    1SOL     OW 3213   1.281   0.353   1.623 -0.2316 -0.0818  0.6825
    1SOL    HW2 3214   1.362   0.398   1.599  0.6166 -2.0388 -0.2124
    1SOL    HW3 3215   1.212   0.404   1.579  0.8817 -0.8690 -2.1144
    1SOL    MW4 3216   1.283   0.366   1.614  0.0272 -0.4439  0.1954
    1SOL     OW 3217   1.531   0.446   1.535  0.1625  0.2569 -0.0926
    1SOL    HW2 3218   1.616   0.410   1.557 -0.7092 -2.4485 -0.9428
    1SOL    HW3 3219   1.530   0.451   1.439 -0.6280  0.2785 -0.0908
    1SOL    MW4 3220   1.542   0.442   1.525 -0.0569 -0.0972 -0.2046
    1SOL     OW 3221   1.556   0.716   1.629 -0.1772 -0.1933  0.0681
    1SOL    HW2 3222   1.552   0.711   1.725 -1.2998 -0.1255  0.0269
    1SOL    HW3 3223   1.551   0.624   1.600  0.7360 -0.2529  0.0931
    1SOL    MW4 3224   1.555   0.703   1.638 -0.2048 -0.1922  0.0659
    1SOL     OW 3225   1.396   0.896   1.501 -0.1261  0.4326 -0.2240
    1SOL    HW2 3226   1.451   0.835   1.549  0.7143  0.6804 -0.8598
    1SOL    HW3 3227   1.404   0.869   1.409  0.2543  1.4791 -0.5135
    1SOL    MW4 3228   1.404   0.885   1.495  0.0349  0.6034 -0.3461
    1SOL     OW 3229   1.332   1.144   1.612  0.1704  0.1165 -0.1045
    1SOL    HW2 3230   1.330   1.130   1.706  0.4226 -0.8868 -0.2459
    1SOL    HW3 3231   1.352   1.058   1.575 -1.3281  0.2111 -1.1497
    1SOL    MW4 3232   1.335   1.131   1.619  0.0058 -0.0033 -0.2611
    1SOL     OW 3233   1.557   1.269   1.494  0.2133  0.0582  0.2711
    1SOL    HW2 3234   1.492   1.218   1.542  0.2696  0.3130  0.6165
    1SOL    HW3 3235   1.640   1.224   1.510  0.3412  0.5444  0.9864
    1SOL    MW4 3236   1.560   1.256   1.502  0.2376  0.1560  0.4109
    1SOL     OW 3237   1.593   1.541   1.606  0.0642  0.4718 -0.3400
    1SOL    HW2 3238   1.590   1.518   1.699 -0.3535  1.3992 -0.1241
    1SOL    HW3 3239   1.573   1.459   1.561  1.9182 -0.3864  0.3336
    1SOL    MW4 3240   1.590   1.527   1.613  0.2538  0.4810 -0.2227
    1SOL     OW 3241   1.349   1.686   1.545 -0.4448 -0.2220  0.2665
    1SOL    HW2 3242   1.434   1.649   1.569 -0.0078  0.3418 -0.4075
    1SOL    HW3 3243   1.347   1.683   1.449  0.0768  2.5519  0.1264
    1SOL    MW4 3244   1.360   1.680   1.536 -0.3183  0.2185  0.1590
    1SOL     OW 3245   1.350   1.955   1.613  0.2632  0.3472 -0.3523
    1SOL    HW2 3246   1.329   1.946   1.706  0.0366  0.4450 -0.3930
    1SOL    HW3 3247   1.348   1.866   1.579  1.6290  0.1647  0.0065
    1SOL    MW4 3248   1.347   1.942   1.621  0.4135  0.3361 -0.3104
    1SOL     OW 3249   1.575   2.090   1.507 -0.2303  0.2924  0.0416
    1SOL    HW2 3250   1.503   2.034   1.536  0.6975 -0.9833 -0.0710
    1SOL    HW3 3251   1.579   2.078   1.412 -0.4867  1.1024 -0.0702
    1SOL    MW4 3252   1.566   2.081   1.499 -0.1416  0.2308  0.0120
    1SOL     OW 3253   1.597   2.359   1.578  0.2945  0.4422  0.0771
    1SOL    HW2 3254   1.681   2.382   1.536  1.3476 -1.4470  1.0927
    1SOL    HW3 3255   1.583   2.267   1.554 -1.3282  0.6356  0.2226
    1SOL    MW4 3256   1.606   2.350   1.569  0.2195  0.2184  0.2303
    1SOL     OW 3257   1.355   2.486   1.457  0.1847 -0.1211  0.0570
    1SOL    HW2 3258   1.334   2.560   1.514 -0.1989 -0.6046  0.5534
    1SOL    HW3 3259   1.442   2.457   1.486 -0.1452 -0.5689  0.6301
    1SOL    MW4 3260   1.364   2.492   1.468  0.0907 -0.2441  0.1982
    1SOL     OW 3261   1.299   2.711   1.600  0.4803  0.4052  0.3652
    1SOL    HW2 3262   1.362   2.761   1.548 -0.8890  2.5231  0.6883
    1SOL    HW3 3263   1.214   2.734   1.563 -0.3418  0.1600  2.0765
    1SOL    MW4 3264   1.296   2.721   1.588  0.1912  0.6523  0.6336
    1SOL     OW 3265   1.535   2.842   1.493 -0.1360  0.8256 -0.5775
    1SOL    HW2 3266   1.603   2.798   1.543 -1.7613 -0.2537  0.7353
    1SOL    HW3 3267   1.558   2.826   1.401  1.1570  0.1494 -0.1467
    1SOL    MW4 3268   1.547   2.834   1.487 -0.1799  0.5937 -0.3475
    1SOL     OW 3269   1.543   3.098   1.569  0.0525  0.3904  0.0347
    1SOL    HW2 3270   1.617   3.141   1.528 -0.1708 -1.0743 -2.0089
    1SOL    HW3 3271   1.551   3.006   1.542 -2.4104  0.1854 -0.1216
    1SOL    MW4 3272   1.554   3.091   1.560 -0.3020  0.1700 -0.2556
    1SOL     OW 3273   1.304   3.230   1.493  0.2002 -0.8940  0.2181
    1SOL    HW2 3274   1.322   3.318   1.526  0.3332 -0.8577  0.0520
    1SOL    HW3 3275   1.373   3.175   1.530  0.3253 -0.8610  0.0350
    1SOL    MW4 3276   1.315   3.234   1.502  0.2342 -0.8848  0.1720
    1SOL     OW 3277   1.357   3.497   1.581 -0.2513 -0.5641 -0.1065
    1SOL    HW2 3278   1.361   3.507   1.677 -0.4622  0.6210 -0.2142
    1SOL    HW3 3279   1.430   3.551   1.549 -0.1730 -0.9756 -0.6188
    1SOL    MW4 3280   1.367   3.506   1.590 -0.2689 -0.4621 -0.1884
    1SOL     OW 3281   1.593   3.616   1.469  0.8081  0.2571  0.0047
    1SOL    HW2 3282   1.578   3.706   1.498  2.3052  0.5026  0.0623
    1SOL    HW3 3283   1.600   3.622   1.374  2.2559  0.4171  0.1108
    1SOL    MW4 3284   1.592   3.629   1.460  1.1967  0.3107  0.0263
    1SOL     OW 3285   1.566   3.869   1.537  0.3202  0.0092 -0.1004
    1SOL    HW2 3286   1.577   3.867   1.632 -0.6031  1.8381  0.0472
    1SOL    HW3 3287   1.483   3.914   1.522  0.2684 -0.5763 -1.7753
    1SOL    MW4 3288   1.557   3.874   1.547  0.1915  0.1731 -0.3021
    1SOL     OW 3289   1.326   4.005   1.512  0.7007  0.0662  0.2186
    1SOL    HW2 3290   1.320   4.097   1.535  0.3954 -0.0860  0.7737
    1SOL    HW3 3291   1.319   4.003   1.417  0.5827  0.6041  0.2158
    1SOL    MW4 3292   1.324   4.017   1.502  0.6450  0.1173  0.2915
    1SOL     OW 3293   1.303   4.259   1.602 -0.5428 -0.0424 -0.3258
    1SOL    HW2 3294   1.373   4.314   1.566 -0.0529 -0.2844  0.2436
    1SOL    HW3 3295   1.224   4.289   1.558 -0.2385  0.9372 -0.2323
    1SOL    MW4 3296   1.302   4.270   1.592 -0.4381  0.0548 -0.2384
    1SOL     OW 3297   1.523   4.401   1.500 -0.2664 -0.0151 -0.1232
    1SOL    HW2 3298   1.612   4.375   1.526 -1.0311 -2.1176  0.5224
    1SOL    HW3 3299   1.519   4.495   1.519  1.4493 -0.1330  0.9603
    1SOL    MW4 3300   1.534   4.410   1.506 -0.1409 -0.3076  0.1049
    1SOL     OW 3301   2.013   4.659   1.561  0.1157  0.1789  0.4443
    1SOL    HW2 3302   2.010   4.667   1.657 -0.8772  1.7407  0.2953
    1SOL    HW3 3303   1.929   4.692   1.531  1.0660  1.2629 -1.0840
    1SOL    MW4 3304   2.002   4.664   1.570  0.1101  0.5279  0.2229
    1SOL     OW 3305   1.756   0.114   1.473  0.1616  0.0931  0.4148
    1SOL    HW2 3306   1.673   0.082   1.508  1.0341 -0.4461  2.1066
    1SOL    HW3 3307   1.759   0.082   1.383 -0.7927 -1.1920  0.8206
    1SOL    MW4 3308   1.746   0.105   1.466  0.1507 -0.1476  0.6915
    1SOL     OW 3309   1.770   0.351   1.617  0.2908  0.1397  0.2210
    1SOL    HW2 3310   1.852   0.385   1.580  0.8363 -0.4713  0.8540
    1SOL    HW3 3311   1.762   0.263   1.579  0.1065  0.0635  0.4390
    1SOL    MW4 3312   1.780   0.344   1.607  0.3384  0.0491  0.3332
    1SOL     OW 3313   2.006   0.424   1.499 -0.0049 -0.1047  0.4590
    1SOL    HW2 3314   2.084   0.394   1.546  1.5888  2.4684 -0.4822
    1SOL    HW3 3315   2.000   0.517   1.518 -2.4587 -0.0954 -0.1050
    1SOL    MW4 3316   2.015   0.432   1.508 -0.1185  0.2360  0.2604
    1SOL     OW 3317   2.020   0.692   1.585 -0.0316 -0.2832  0.3789
    1SOL    HW2 3318   2.014   0.703   1.680 -0.2662  0.9599  0.2328
    1SOL    HW3 3319   1.939   0.731   1.551 -0.0602 -0.9356 -0.3194
    1SOL    MW4 3320   2.009   0.699   1.593 -0.0665 -0.2053  0.2674
    1SOL     OW 3321   1.775   0.849   1.499 -0.4856 -0.2614  0.3659
    1SOL    HW2 3322   1.791   0.942   1.511 -2.0778  0.4119 -2.2788
    1SOL    HW3 3323   1.702   0.829   1.557 -1.1052  0.4944 -0.1413
    1SOL    MW4 3324   1.768   0.858   1.508 -0.7774 -0.0728 -0.0499
    1SOL     OW 3325   1.794   1.122   1.584  0.1916  0.2915 -0.2368
    1SOL    HW2 3326   1.878   1.162   1.561  0.5148  0.1440  0.6792
    1SOL    HW3 3327   1.797   1.113   1.679 -0.9460  0.4670 -0.1809
    1SOL    MW4 3328   1.806   1.126   1.594  0.0840  0.2953 -0.1086
    1SOL     OW 3329   1.992   1.273   1.482  0.1177  0.2864  0.4866
    1SOL    HW2 3330   1.998   1.361   1.519  0.6324  0.1661  0.6939
    1SOL    HW3 3331   1.992   1.287   1.387 -0.4508  0.5477  0.5262
    1SOL    MW4 3332   1.993   1.286   1.474  0.1107  0.3049  0.5192
    1SOL     OW 3333   2.005   1.521   1.591  0.2487  0.6872 -0.2848
    1SOL    HW2 3334   2.077   1.573   1.559 -0.4322  1.9392  0.1808
    1SOL    HW3 3335   1.927   1.573   1.572 -0.4755 -0.3645 -0.2319
    1SOL    MW4 3336   2.004   1.535   1.585  0.0634  0.7137 -0.2164
    1SOL     OW 3337   1.802   1.705   1.518  0.5464  0.2956  0.0371
    1SOL    HW2 3338   1.728   1.648   1.537 -0.3938  1.6397  0.4818
    1SOL    HW3 3339   1.803   1.712   1.423  1.3826 -1.3737 -0.0973
    1SOL    MW4 3340   1.792   1.698   1.508  0.5327  0.2527  0.0781
    1SOL     OW 3341   1.799   1.955   1.627 -0.3643 -0.2822  0.1859
    1SOL    HW2 3342   1.790   1.874   1.577 -0.0472  0.0909 -0.4715
    1SOL    HW3 3343   1.731   2.012   1.592 -0.6203 -0.2826  0.6847
    1SOL    MW4 3344   1.789   1.952   1.616 -0.3562 -0.2329  0.1650
    1SOL     OW 3345   2.042   2.047   1.503 -0.4004  0.1706 -0.4593
    1SOL    HW2 3346   2.127   2.007   1.524 -0.0314  0.6727 -1.0112
    1SOL    HW3 3347   1.980   1.997   1.556  0.1818 -0.4891 -0.3802
    1SOL    MW4 3348   2.045   2.035   1.513 -0.2749  0.1497 -0.5217
    1SOL     OW 3349   2.015   2.311   1.621  0.3847 -0.5562 -0.1459
    1SOL    HW2 3350   2.015   2.296   1.716 -0.6984 -0.0041 -0.0503
    1SOL    HW3 3351   2.035   2.225   1.583 -1.8747 -1.3939  0.5038
    1SOL    MW4 3352   2.018   2.298   1.629 -0.0565 -0.5937 -0.0476
    1SOL     OW 3353   1.821   2.471   1.473 -0.4837 -0.1738 -0.1398
    1SOL    HW2 3354   1.903   2.445   1.515 -1.0041 -0.6290  0.5983
    1SOL    HW3 3355   1.839   2.462   1.379  1.0123  1.8349 -0.0802
    1SOL    MW4 3356   1.834   2.466   1.466 -0.3551  0.0312 -0.0346
    1SOL     OW 3357   1.750   2.721   1.601 -0.1372  0.3101 -0.0751
    1SOL    HW2 3358   1.829   2.772   1.586 -0.0550 -0.2095 -1.5096
    1SOL    HW3 3359   1.767   2.637   1.558 -1.0349 -0.2077  0.5529
    1SOL    MW4 3360   1.763   2.716   1.593 -0.2449  0.1733 -0.1813
    1SOL     OW 3361   1.999   2.828   1.536 -0.2995 -0.0624 -0.1916
    1SOL    HW2 3362   2.013   2.917   1.567  0.0191 -0.5433  1.0683
    1SOL    HW3 3363   2.010   2.833   1.441  2.0632  0.7848  0.1057
    1SOL    MW4 3364   2.002   2.840   1.527  0.0544 -0.0143  0.0138
    1SOL     OW 3365   2.050   3.091   1.603  0.0232  0.9079 -0.1061
    1SOL    HW2 3366   2.041   3.101   1.698 -0.3983 -0.9239  0.0568
    1SOL    HW3 3367   2.139   3.119   1.583 -0.0003  1.6145  0.7849
    1SOL    MW4 3368   2.060   3.096   1.613 -0.0355  0.7594  0.0330
    1SOL     OW 3369   1.799   3.220   1.504 -0.3710 -0.5491  0.0776
    1SOL    HW2 3370   1.781   3.314   1.515  0.3443 -0.2107 -1.5419
    1SOL    HW3 3371   1.890   3.210   1.532 -0.6409 -0.8797  0.8482
    1SOL    MW4 3372   1.809   3.231   1.509 -0.3123 -0.5484 -0.0345
    1SOL     OW 3373   1.798   3.484   1.583 -0.3745 -0.3771  0.1387
    1SOL    HW2 3374   1.785   3.479   1.677 -1.4825 -0.3630  0.0025
    1SOL    HW3 3375   1.718   3.527   1.550  0.0552 -0.2647 -0.7830
    1SOL    MW4 3376   1.785   3.489   1.591 -0.4640 -0.3605 -0.0010
    1SOL     OW 3377   2.029   3.612   1.521  0.4472  0.2670  0.3659
    1SOL    HW2 3378   2.095   3.560   1.567  0.0761  1.4236  2.2445
    1SOL    HW3 3379   1.947   3.564   1.533  0.8550 -0.9862 -1.6694
    1SOL    MW4 3380   2.027   3.599   1.528  0.4516  0.2542  0.3452
    1SOL     OW 3381   2.024   3.871   1.598 -0.2123 -0.3182  0.5435
    1SOL    HW2 3382   2.106   3.906   1.564 -0.7428  0.3288 -0.1075
    1SOL    HW3 3383   2.028   3.777   1.580 -0.3201 -0.0442 -1.0021
    1SOL    MW4 3384   2.035   3.863   1.591 -0.2964 -0.1965  0.2538
    1SOL     OW 3385   1.786   4.016   1.503  0.0574 -0.0962  0.0431
    1SOL    HW2 3386   1.854   3.962   1.544 -0.0518 -0.8005 -0.6899
    1SOL    HW3 3387   1.708   3.961   1.506  0.5534 -1.0957 -3.1060
    1SOL    MW4 3388   1.785   4.001   1.509  0.1085 -0.3209 -0.4692
    1SOL     OW 3389   1.774   4.284   1.584  0.0369  0.0614 -0.1260
    1SOL    HW2 3390   1.857   4.310   1.544  0.7751 -0.9789  0.6943
    1SOL    HW3 3391   1.764   4.191   1.561 -1.7764  0.5985 -1.6904
    1SOL    MW4 3392   1.783   4.275   1.576 -0.1049 -0.0052 -0.2241
    1SOL     OW 3393   2.012   4.394   1.479  0.1572  0.6982 -0.0665
    1SOL    HW2 3394   2.098   4.365   1.510  0.4663  1.7997  0.1533
    1SOL    HW3 3395   2.013   4.489   1.492 -0.8200  0.8113 -0.7443
    1SOL    MW4 3396   2.024   4.403   1.485  0.0691  0.8583 -0.1270
    1SOL     OW 3397   2.420   4.607   1.593 -0.3991 -0.5756  0.4716
    1SOL    HW2 3398   2.409   4.630   1.686 -1.5457 -0.6490  0.3587
    1SOL    HW3 3399   2.341   4.641   1.551  0.2210 -0.3496 -0.5230
    1SOL    MW4 3400   2.408   4.615   1.600 -0.4680 -0.5550  0.3254
    1SOL     OW 3401   2.237   0.127   1.476  0.3255  0.2184 -0.1964
    1SOL    HW2 3402   2.151   0.110   1.513  0.2772  0.1594 -0.3352
    1SOL    HW3 3403   2.222   0.131   1.382  0.6115 -0.6056 -0.2826
    1SOL    MW4 3404   2.224   0.125   1.469  0.3569  0.1019 -0.2260
    1SOL     OW 3405   2.264   0.360   1.611  0.0680 -0.3155  0.0157
    1SOL    HW2 3406   2.255   0.348   1.705  0.4245  0.6068  0.1694
    1SOL    HW3 3407   2.258   0.271   1.575 -1.2635 -0.5648  0.8048
    1SOL    MW4 3408   2.262   0.347   1.619 -0.0608 -0.2267  0.1401
    1SOL     OW 3409   2.417   0.525   1.474  0.2983  0.6273 -0.3475
    1SOL    HW2 3410   2.502   0.494   1.505  0.7626  3.0468  0.9281
    1SOL    HW3 3411   2.353   0.477   1.527  0.8474 -0.8916 -1.0271
    1SOL    MW4 3412   2.420   0.515   1.485  0.4318  0.7461 -0.2688
    1SOL     OW 3413   2.462   0.766   1.594  0.2809 -0.0573  0.5553
    1SOL    HW2 3414   2.383   0.820   1.589  0.2449 -0.0742  0.9007
    1SOL    HW3 3415   2.439   0.685   1.549  0.1356 -0.0200  0.5612
    1SOL    MW4 3416   2.449   0.763   1.587  0.2568 -0.0546  0.6015
    1SOL     OW 3417   2.234   0.887   1.549 -0.0108 -0.2095  0.4582
    1SOL    HW2 3418   2.225   0.982   1.560  0.7635 -0.2001  1.1241
    1SOL    HW3 3419   2.151   0.851   1.580 -0.4142  0.2696 -0.0565
    1SOL    MW4 3420   2.222   0.895   1.555  0.0381 -0.1451  0.4781
    1SOL     OW 3421   2.246   1.155   1.580  0.1144  0.1771 -0.1080
    1SOL    HW2 3422   2.230   1.170   1.673  0.7254  0.7204 -0.0859
    1SOL    HW3 3423   2.164   1.179   1.538  0.1244  0.7994  0.2116
    1SOL    MW4 3424   2.233   1.160   1.587  0.1965  0.3310 -0.0628
    1SOL     OW 3425   2.482   1.261   1.486 -0.3345  0.4901 -0.2466
    1SOL    HW2 3426   2.399   1.225   1.519 -0.1174  0.3807  0.1793
    1SOL    HW3 3427   2.487   1.230   1.396 -0.9732  0.8627 -0.4146
    1SOL    MW4 3428   2.471   1.252   1.479 -0.3901  0.5248 -0.2124
    1SOL     OW 3429   2.437   1.506   1.616 -0.0435  0.0202  0.1403
    1SOL    HW2 3430   2.517   1.553   1.594 -1.1224  0.8953 -2.0606
    1SOL    HW3 3431   2.448   1.420   1.575  0.1047 -0.1331  0.5025
    1SOL    MW4 3432   2.449   1.501   1.608 -0.1664  0.1154 -0.1024
    1SOL     OW 3433   2.229   1.664   1.508 -0.1222  0.3093  0.4123
    1SOL    HW2 3434   2.298   1.603   1.533 -0.4149  0.4432  1.5449
    1SOL    HW3 3435   2.231   1.664   1.412  0.1698 -1.1426  0.4098
    1SOL    MW4 3436   2.238   1.656   1.499 -0.1223  0.1353  0.5612
    1SOL     OW 3437   2.271   1.917   1.579 -0.3514 -0.2229 -0.3052
    1SOL    HW2 3438   2.253   1.930   1.672 -0.5948  0.3118 -0.4240
    1SOL    HW3 3439   2.251   1.825   1.563  1.0452 -0.6691  0.4694
    1SOL    MW4 3440   2.266   1.906   1.589 -0.1996 -0.2111 -0.2187
    1SOL     OW 3441   2.497   2.055   1.523 -0.2894  0.0044 -0.6131
    1SOL    HW2 3442   2.417   2.003   1.528 -0.6081  0.5269 -0.2027
    1SOL    HW3 3443   2.513   2.066   1.429 -0.3292 -0.6520 -0.7020
    1SOL    MW4 3444   2.489   2.050   1.511 -0.3366 -0.0134 -0.5707
    1SOL     OW 3445   2.461   2.309   1.588  0.1091  0.3856 -0.2710
    1SOL    HW2 3446   2.451   2.300   1.683 -1.2921  0.8022 -0.3614
    1SOL    HW3 3447   2.471   2.219   1.556 -1.4553  0.0725  0.0762
    1SOL    MW4 3448   2.461   2.296   1.596 -0.2823  0.3991 -0.2371
    1SOL     OW 3449   2.230   2.447   1.522  0.2834 -0.0821  0.0189
    1SOL    HW2 3450   2.314   2.408   1.546 -0.1213 -1.3360 -0.5444
    1SOL    HW3 3451   2.164   2.389   1.560 -0.3670  1.9093  2.0873
    1SOL    MW4 3452   2.232   2.434   1.530  0.1442  0.0153  0.2173
    1SOL     OW 3453   2.231   2.706   1.615 -0.7624 -0.0548  0.0259
    1SOL    HW2 3454   2.215   2.616   1.586 -1.2123 -0.0121  0.1343
    1SOL    HW3 3455   2.148   2.751   1.600 -0.3415  0.5044 -0.6254
    1SOL    MW4 3456   2.218   2.700   1.609 -0.7660  0.0246 -0.0457
    1SOL     OW 3457   2.482   2.823   1.531  0.6722  0.6832  0.3520
    1SOL    HW2 3458   2.473   2.909   1.571 -0.4526 -0.0818  1.7903
    1SOL    HW3 3459   2.409   2.772   1.566  1.4302 -0.9238 -0.3257
    1SOL    MW4 3460   2.471   2.827   1.541  0.6237  0.3703  0.4523
    1SOL     OW 3461   2.492   3.085   1.604 -0.0889 -0.1332 -0.3538
    1SOL    HW2 3462   2.571   3.131   1.576  0.5276 -1.1890 -0.3575
    1SOL    HW3 3463   2.420   3.137   1.568  0.6328 -0.3118 -2.1042
    1SOL    MW4 3464   2.493   3.098   1.596  0.0875 -0.2959 -0.5852
    1SOL     OW 3465   2.277   3.211   1.499 -0.1346  0.0937  0.0112
    1SOL    HW2 3466   2.263   3.303   1.523  2.1490  0.3300  0.5311
    1SOL    HW3 3467   2.276   3.212   1.403  3.0449  1.2305 -0.0571
    1SOL    MW4 3468   2.275   3.223   1.489  0.5863  0.2749  0.0707
    1SOL     OW 3469   2.260   3.466   1.605  0.1289 -0.3107  0.0552
    1SOL    HW2 3470   2.277   3.470   1.699 -0.7361 -0.7080  0.2256
    1SOL    HW3 3471   2.337   3.508   1.566  0.6862 -0.5016  0.9151
    1SOL    MW4 3472   2.273   3.472   1.612  0.0882 -0.3881  0.1912
    1SOL     OW 3473   2.474   3.599   1.490 -0.4795  0.2063  0.1737
    1SOL    HW2 3474   2.565   3.573   1.497 -0.1810  1.1605 -0.0148
    1SOL    HW3 3475   2.472   3.688   1.527 -0.8397  1.1882 -2.1310
    1SOL    MW4 3476   2.486   3.608   1.496 -0.4878  0.4618 -0.1552
    1SOL     OW 3477   2.462   3.870   1.563  0.0425 -0.0783  0.1864
    1SOL    HW2 3478   2.478   3.892   1.655 -0.4583  2.8724 -0.3771
    1SOL    HW3 3479   2.546   3.883   1.520 -0.0814 -0.0103 -0.0354
    1SOL    MW4 3480   2.475   3.874   1.570 -0.0401  0.3200  0.0829
    1SOL     OW 3481   2.225   4.006   1.469  0.3308  0.0315  0.2109
    1SOL    HW2 3482   2.307   3.965   1.494 -0.1837 -1.6404 -0.7485
    1SOL    HW3 3483   2.231   4.016   1.374 -0.3206  0.4550  0.2085
    1SOL    MW4 3484   2.236   4.002   1.459  0.1769 -0.1335  0.0840
    1SOL     OW 3485   2.241   4.277   1.579 -0.2463 -0.2147  0.3982
    1SOL    HW2 3486   2.319   4.309   1.532 -1.4890  0.2435 -1.4154
    1SOL    HW3 3487   2.230   4.187   1.547 -0.4891 -0.2571  0.6054
    1SOL    MW4 3488   2.250   4.269   1.569 -0.4420 -0.1602  0.1864
    1SOL     OW 3489   2.448   4.370   1.449  0.4579 -0.2451  0.1545
    1SOL    HW2 3490   2.438   4.461   1.479  0.4430  0.3772 -1.6307
    1SOL    HW3 3491   2.447   4.377   1.353 -0.1817 -2.2147 -0.0011
    1SOL    MW4 3492   2.447   4.383   1.440  0.3715 -0.4225 -0.1016
    1SOL     OW 3493   2.870   4.640   1.584 -0.5830 -0.2052 -0.2833
    1SOL    HW2 3494   2.880   4.651   1.679  0.0572  0.1847 -0.3887
    1SOL    HW3 3495   2.788   4.685   1.563 -0.8830 -0.5527  0.1275
    1SOL    MW4 3496   2.861   4.647   1.594 -0.5381 -0.2003 -0.2428
    1SOL     OW 3497   2.636   0.106   1.513  0.4149 -0.2382  0.5394
    1SOL    HW2 3498   2.615   0.194   1.544  0.1663 -0.1581  0.1437
    1SOL    HW3 3499   2.559   0.053   1.537  0.3878 -0.2591  0.4072
    1SOL    MW4 3500   2.623   0.111   1.520  0.3786 -0.2304  0.4698
    1SOL     OW 3501   2.654   0.403   1.569  0.2476 -0.2756  0.1421
    1SOL    HW2 3502   2.668   0.377   1.660  1.4439  0.0799  0.0561
    1SOL    HW3 3503   2.741   0.419   1.534 -0.1419 -1.2134 -1.3100
    1SOL    MW4 3504   2.667   0.402   1.577  0.3543 -0.3525 -0.0608
    1SOL     OW 3505   2.888   0.480   1.468 -0.1075  0.4884 -0.3558
    1SOL    HW2 3506   2.895   0.569   1.501 -0.7911  0.7004 -0.7695
    1SOL    HW3 3507   2.913   0.486   1.376 -1.4891  0.5143 -0.7527
    1SOL    MW4 3508   2.892   0.492   1.460 -0.3798  0.5198 -0.4627
    1SOL     OW 3509   2.925   0.731   1.564 -0.1110  0.0106 -0.3745
    1SOL    HW2 3510   2.913   0.731   1.659  0.4901 -1.0483 -0.2909
    1SOL    HW3 3511   2.847   0.775   1.530 -0.0963  0.8268  0.6310
    1SOL    MW4 3512   2.913   0.737   1.572 -0.0298 -0.0215 -0.2308
    1SOL     OW 3513   2.704   0.871   1.510 -0.0383  0.0083 -0.2349
    1SOL    HW2 3514   2.622   0.828   1.534 -0.3580  1.0439  0.5781
    1SOL    HW3 3515   2.699   0.880   1.415 -0.6712 -0.3413 -0.2400
    1SOL    MW4 3516   2.692   0.867   1.501 -0.1640  0.0988 -0.1284
    1SOL     OW 3517   2.691   1.138   1.608  0.0922 -0.4327 -0.3789
    1SOL    HW2 3518   2.686   1.046   1.583  0.8363 -0.4924 -0.3195
    1SOL    HW3 3519   2.614   1.178   1.567 -0.9628 -1.3262  0.6958
    1SOL    MW4 3520   2.680   1.131   1.599  0.0513 -0.5585 -0.2292
    1SOL     OW 3521   2.898   1.288   1.500  0.1788 -0.0030  0.2821
    1SOL    HW2 3522   2.979   1.245   1.529 -0.0005 -1.1336 -0.8158
    1SOL    HW3 3523   2.828   1.233   1.535 -0.1596  1.3594  1.8221
    1SOL    MW4 3524   2.899   1.275   1.508  0.1101  0.0275  0.3405
    1SOL     OW 3525   2.913   1.518   1.617 -0.3627 -0.0769 -0.3245
    1SOL    HW2 3526   2.828   1.560   1.607 -0.8965 -0.4782  2.1219
    1SOL    HW3 3527   2.904   1.434   1.572 -0.9180  0.3364 -0.9798
    1SOL    MW4 3528   2.901   1.512   1.610 -0.5062 -0.0753 -0.0882
    1SOL     OW 3529   2.670   1.632   1.558  0.7172 -0.1407  0.0856
    1SOL    HW2 3530   2.696   1.715   1.598  1.1526  0.7580 -1.9710
    1SOL    HW3 3531   2.683   1.646   1.464 -2.2552 -1.4802 -0.5605
    1SOL    MW4 3532   2.675   1.644   1.551  0.3822 -0.1990 -0.2711
    1SOL     OW 3533   2.692   1.892   1.670  0.0206  0.2874  0.2450
    1SOL    HW2 3534   2.682   1.904   1.765 -0.7591 -2.6084  0.5950
    1SOL    HW3 3535   2.618   1.938   1.632 -0.7634 -0.1686  1.1946
    1SOL    MW4 3536   2.681   1.899   1.678 -0.1857 -0.1549  0.4164
    1SOL     OW 3537   2.909   2.007   1.507 -0.1194  0.0397  0.3725
    1SOL    HW2 3538   2.893   2.092   1.549 -0.5347 -0.0571  0.4111
    1SOL    HW3 3539   2.838   1.951   1.538  0.1267 -0.3094  0.3065
    1SOL    MW4 3540   2.898   2.011   1.516 -0.1419 -0.0188  0.3688
    1SOL     OW 3541   2.923   2.289   1.576 -0.0556  0.0246 -0.0834
    1SOL    HW2 3542   2.918   2.284   1.672  0.3657 -1.4428 -0.1426
    1SOL    HW3 3543   2.839   2.328   1.551 -0.4375 -0.1875  0.8305
    1SOL    MW4 3544   2.911   2.294   1.586 -0.0505 -0.1969  0.0296
    1SOL     OW 3545   2.694   2.421   1.506 -0.0865 -0.2681  0.0104
    1SOL    HW2 3546   2.696   2.508   1.545 -0.6724 -0.4431  0.4408
    1SOL    HW3 3547   2.615   2.380   1.543 -0.7174 -0.3912 -1.4316
    1SOL    MW4 3548   2.684   2.427   1.516 -0.2468 -0.3076 -0.1230
    1SOL     OW 3549   2.692   2.679   1.622  0.4748  0.3284 -0.0882
    1SOL    HW2 3550   2.771   2.714   1.581  0.5818  0.5017  0.2619
    1SOL    HW3 3551   2.621   2.733   1.588  0.4428 -0.1763 -0.8229
    1SOL    MW4 3552   2.693   2.690   1.612  0.4845  0.2849 -0.1390
    1SOL     OW 3553   2.929   2.819   1.486 -0.5477 -0.2500  0.7062
    1SOL    HW2 3554   3.009   2.780   1.521 -0.3826  0.5759  1.2346
    1SOL    HW3 3555   2.928   2.909   1.519 -1.2106  0.0366 -0.0713
    1SOL    MW4 3556   2.939   2.825   1.495 -0.6135 -0.1030  0.6733
    1SOL     OW 3557   2.949   3.082   1.585  0.4000  0.3209  0.3521
    1SOL    HW2 3558   2.956   3.065   1.679  1.6800  0.7338  0.3413
    1SOL    HW3 3559   3.009   3.155   1.570 -1.1509  1.4441 -0.4811
    1SOL    MW4 3560   2.958   3.089   1.596  0.3645  0.5236  0.2408
    1SOL     OW 3561   2.724   3.206   1.515  0.1651 -0.2021 -0.7971
    1SOL    HW2 3562   2.807   3.163   1.538  0.1466 -1.2305 -2.5955
    1SOL    HW3 3563   2.736   3.233   1.424 -0.5816  1.8290 -0.3173
    1SOL    MW4 3564   2.737   3.204   1.506  0.0641 -0.0701 -0.9712
    1SOL     OW 3565   2.716   3.481   1.570 -0.0324 -0.2061  0.3552
    1SOL    HW2 3566   2.715   3.498   1.664  0.5681 -0.8412  0.4827
    1SOL    HW3 3567   2.724   3.386   1.563  2.1828  0.0085 -0.3327
    1SOL    MW4 3568   2.717   3.471   1.581  0.3390 -0.2615  0.2813
    1SOL     OW 3569   2.967   3.610   1.458 -0.3973 -0.1950  0.1599
    1SOL    HW2 3570   2.890   3.565   1.494 -0.5304  0.0933  0.2384
    1SOL    HW3 3571   2.959   3.599   1.364 -1.7517  1.7516  0.0038
    1SOL    MW4 3572   2.956   3.603   1.451 -0.5937  0.0999  0.1497
    1SOL     OW 3573   2.934   3.861   1.581 -0.3969  0.2060 -0.0523
    1SOL    HW2 3574   2.851   3.880   1.537 -0.9222 -0.4423  0.6234
    1SOL    HW3 3575   2.973   3.791   1.528  0.3077  1.3450 -1.0628
    1SOL    MW4 3576   2.928   3.854   1.568 -0.3736  0.2706 -0.0963
    1SOL     OW 3577   2.699   3.951   1.443  0.2981  0.1243  0.6115
    1SOL    HW2 3578   2.680   4.040   1.474 -1.6880  0.5084 -1.5499
    1SOL    HW3 3579   2.706   3.960   1.348 -0.2548 -2.0689  0.3377
    1SOL    MW4 3580   2.697   3.964   1.435 -0.0367 -0.1144  0.2903
    1SOL     OW 3581   2.648   4.209   1.560  0.1004  0.2216 -0.0137
    1SOL    HW2 3582   2.731   4.251   1.537  0.5217 -1.1198 -0.9850
    1SOL    HW3 3583   2.581   4.266   1.522  0.6439  0.2998 -0.8727
    1SOL    MW4 3584   2.650   4.222   1.552  0.2277  0.0548 -0.2553
    1SOL     OW 3585   2.907   4.363   1.510 -0.1780 -0.0441 -0.0189
    1SOL    HW2 3586   2.892   4.452   1.540  1.5772 -0.0406  0.9487
    1SOL    HW3 3587   2.931   4.371   1.418 -2.8473  0.1995 -0.7355
    1SOL    MW4 3588   2.908   4.376   1.502 -0.2987 -0.0110  0.0142
    1SOL     OW 3589   3.308   4.644   1.644 -0.1314  0.1108 -0.1032
    1SOL    HW2 3590   3.384   4.696   1.620 -0.1854  0.0690 -0.3631
    1SOL    HW3 3591   3.325   4.558   1.607 -0.0792 -0.0335  0.2566
    1SOL    MW4 3592   3.320   4.640   1.636 -0.1314  0.0863 -0.0900
    1SOL     OW 3593   3.109   0.101   1.468 -0.0133  0.2810  0.3670
    1SOL    HW2 3594   3.175   0.061   1.526 -0.4705 -1.4956 -0.3236
    1SOL    HW3 3595   3.028   0.054   1.487 -0.8294  1.6461  0.3408
    1SOL    MW4 3596   3.107   0.090   1.478 -0.1812  0.2267  0.2724
    1SOL     OW 3597   3.103   0.352   1.568 -0.5439  0.0736 -0.1660
    1SOL    HW2 3598   3.088   0.259   1.549 -0.0109  0.1363 -0.9126
    1SOL    HW3 3599   3.026   0.396   1.532 -0.5476 -0.0254 -0.2827
    1SOL    MW4 3600   3.091   0.345   1.561 -0.4742  0.0688 -0.2799
    1SOL     OW 3601   3.342   0.486   1.498 -0.0815  0.3574 -0.0025
    1SOL    HW2 3602   3.258   0.450   1.526 -0.1935  0.7592  0.1775
    1SOL    HW3 3603   3.331   0.501   1.404 -0.2692  0.5593  0.0496
    1SOL    MW4 3604   3.329   0.483   1.489 -0.1209  0.4371  0.0281
    1SOL     OW 3605   3.346   0.740   1.652  0.4298  0.0484 -0.2177
    1SOL    HW2 3606   3.329   0.720   1.744  0.4902  1.8663  0.2109
    1SOL    HW3 3607   3.344   0.655   1.608 -0.0061 -0.7948  1.3931
    1SOL    MW4 3608   3.343   0.726   1.658  0.3803  0.1770  0.0514
    1SOL     OW 3609   3.150   0.877   1.511  0.4771  0.2218  0.2579
    1SOL    HW2 3610   3.217   0.818   1.546 -0.4446 -2.1269 -1.8208
    1SOL    HW3 3611   3.067   0.835   1.533 -0.2783  1.7875  0.4977
    1SOL    MW4 3612   3.148   0.864   1.518  0.2561  0.1185  0.0153
    1SOL     OW 3613   3.124   1.146   1.580 -0.2025  0.5820 -0.0403
    1SOL    HW2 3614   3.109   1.137   1.674  1.9967  0.8809  0.3752
    1SOL    HW3 3615   3.146   1.058   1.551 -1.9122  0.2879 -0.4990
    1SOL    MW4 3616   3.125   1.133   1.589 -0.1380  0.5827 -0.0460
    1SOL     OW 3617   3.370   1.277   1.514  0.1993  0.1752  0.0732
    1SOL    HW2 3618   3.436   1.238   1.572 -0.3465  1.3506  1.5424
    1SOL    HW3 3619   3.287   1.243   1.547 -0.1048  0.6911 -0.1631
    1SOL    MW4 3620   3.368   1.267   1.526  0.0873  0.3984  0.2359
    1SOL     OW 3621   3.341   1.545   1.611 -0.0996  0.5806  0.0364
    1SOL    HW2 3622   3.340   1.530   1.706  1.8735  0.1189  0.0247
    1SOL    HW3 3623   3.363   1.459   1.574 -1.5008  0.6135 -0.8863
    1SOL    MW4 3624   3.344   1.531   1.619 -0.0241  0.5242 -0.0869
    1SOL     OW 3625   3.117   1.632   1.465  0.0798  0.1865 -0.0719
    1SOL    HW2 3626   3.188   1.594   1.519 -0.0641 -0.5404 -0.3873
    1SOL    HW3 3627   3.037   1.611   1.513 -0.0667 -0.6613 -0.6791
    1SOL    MW4 3628   3.116   1.624   1.479  0.0415 -0.0212 -0.1936
    1SOL     OW 3629   3.142   1.891   1.606 -0.4643  0.3301  0.2526
    1SOL    HW2 3630   3.136   1.805   1.565 -0.0052 -0.1802  1.2227
    1SOL    HW3 3631   3.062   1.936   1.581 -2.4277 -1.6902  2.6529
    1SOL    MW4 3632   3.131   1.886   1.597 -0.6628 -0.0038  0.6973
    1SOL     OW 3633   3.390   2.071   1.505  0.1015  0.0437  0.3738
    1SOL    HW2 3634   3.307   2.028   1.524 -0.0526 -0.4093 -1.2405
    1SOL    HW3 3635   3.400   2.063   1.410  1.3123  1.3277  0.3743
    1SOL    MW4 3636   3.381   2.064   1.495  0.2408  0.1535  0.1608
    1SOL     OW 3637   3.384   2.320   1.624 -0.2311  0.5613 -0.9369
    1SOL    HW2 3638   3.454   2.377   1.593 -0.0984  1.5048  0.9964
    1SOL    HW3 3639   3.402   2.236   1.584  1.0843  1.2114 -1.7504
    1SOL    MW4 3640   3.396   2.317   1.615 -0.0403  0.7715 -0.7890
    1SOL     OW 3641   3.167   2.433   1.516 -0.7832  0.8103  0.3823
    1SOL    HW2 3642   3.233   2.373   1.551  0.2006  1.1787 -0.7990
    1SOL    HW3 3643   3.084   2.392   1.537 -0.1636 -0.0022  1.3065
    1SOL    MW4 3644   3.165   2.420   1.523 -0.5715  0.7517  0.3484
    1SOL     OW 3645   3.146   2.703   1.603 -0.4410  0.5290  0.2567
    1SOL    HW2 3646   3.229   2.744   1.579  0.1232 -0.4057  0.6161
    1SOL    HW3 3647   3.155   2.612   1.577 -0.7882  0.0812  1.6308
    1SOL    MW4 3648   3.158   2.696   1.597 -0.4125  0.3467  0.4855
    1SOL     OW 3649   3.381   2.823   1.494 -0.1785  0.3330  0.4450
    1SOL    HW2 3650   3.407   2.913   1.513  1.1690  0.0988 -0.2651
    1SOL    HW3 3651   3.390   2.814   1.400 -0.0801 -0.6166  0.5373
    1SOL    MW4 3652   3.385   2.834   1.484  0.0124  0.1767  0.3635
    1SOL     OW 3653   3.376   3.099   1.573  0.4802 -0.0485 -0.5397
    1SOL    HW2 3654   3.376   3.093   1.669 -1.0951  1.0684 -0.4606
    1SOL    HW3 3655   3.452   3.154   1.553  0.0312  0.8264  0.1459
    1SOL    MW4 3656   3.386   3.106   1.583  0.2129  0.2141 -0.4389
    1SOL     OW 3657   3.165   3.237   1.479 -0.2360  0.5199 -0.3277
    1SOL    HW2 3658   3.177   3.321   1.524  0.9526  0.4851 -0.5613
    1SOL    HW3 3659   3.241   3.185   1.505  0.2995  0.3829 -2.1122
    1SOL    MW4 3660   3.177   3.241   1.489 -0.0088  0.4973 -0.5940
    1SOL     OW 3661   3.207   3.495   1.568  0.2436  0.0504 -0.3812
    1SOL    HW2 3662   3.218   3.494   1.663  0.5722 -1.0977 -0.4251
    1SOL    HW3 3663   3.130   3.551   1.554 -2.1917 -2.8454  0.8394
    1SOL    MW4 3664   3.198   3.503   1.579 -0.0343 -0.4830 -0.2259
    1SOL     OW 3665   3.430   3.647   1.506  0.0828 -0.2928 -0.5200
    1SOL    HW2 3666   3.507   3.595   1.531 -0.7027 -0.7756  0.9203
    1SOL    HW3 3667   3.355   3.591   1.527 -0.7045  0.6730 -0.7273
    1SOL    MW4 3668   3.430   3.632   1.512 -0.1247 -0.2289 -0.3574
    1SOL     OW 3669   3.406   3.883   1.638 -0.9444  0.1035 -0.1262
    1SOL    HW2 3670   3.334   3.923   1.591 -0.0363  2.2872  0.2968
    1SOL    HW3 3671   3.406   3.792   1.608 -3.4015  0.2336 -0.6573
    1SOL    MW4 3672   3.397   3.876   1.628 -1.1489  0.4086 -0.1404
    1SOL     OW 3673   3.186   3.971   1.506  0.2890  0.8342 -0.0314
    1SOL    HW2 3674   3.180   4.062   1.534  0.9928  0.3054  1.9126
    1SOL    HW3 3675   3.103   3.932   1.535 -0.6751  1.1725 -2.1985
    1SOL    MW4 3676   3.174   3.978   1.513  0.2546  0.8090 -0.0608
    1SOL     OW 3677   3.149   4.245   1.589  0.4177 -0.1741  0.1479
    1SOL    HW2 3678   3.164   4.260   1.682  1.4971 -0.4810  0.0214
    1SOL    HW3 3679   3.061   4.281   1.573 -0.6592 -2.0616  1.7317
    1SOL    MW4 3680   3.139   4.252   1.599  0.4179 -0.4630  0.3402
    1SOL     OW 3681   3.369   4.379   1.509  0.7596 -0.1050  0.1955
    1SOL    HW2 3682   3.290   4.327   1.529  0.2787  0.6562  0.2938
    1SOL    HW3 3683   3.377   4.374   1.414  0.9020 -0.6243  0.2295
    1SOL    MW4 3684   3.359   4.371   1.499  0.7150 -0.0730  0.2129
    1SOL     OW 3685   3.795   4.651   1.592  0.2323  0.2762  0.2953
    1SOL    HW2 3686   3.790   4.663   1.687 -1.2939  0.6983  0.1733
    1SOL    HW3 3687   3.883   4.681   1.569  0.2535  1.1545  1.4457
    1SOL    MW4 3688   3.806   4.657   1.602  0.0339  0.4478  0.4309
    1SOL     OW 3689   3.540   0.094   1.500  0.0259 -0.0748  0.2317
    1SOL    HW2 3690   3.624   0.055   1.523 -0.1825 -1.1594 -0.8537
    1SOL    HW3 3691   3.547   0.116   1.407 -0.7434  0.2243  0.2368
    1SOL    MW4 3692   3.552   0.092   1.491 -0.1035 -0.1785  0.0892
    1SOL     OW 3693   3.532   0.343   1.636 -0.3817  0.5386 -0.0670
    1SOL    HW2 3694   3.546   0.260   1.591 -0.0846 -0.3521  1.5924
    1SOL    HW3 3695   3.468   0.389   1.582 -0.0503 -0.4869 -1.3667
    1SOL    MW4 3696   3.525   0.338   1.623 -0.2987  0.2858 -0.0196
    1SOL     OW 3697   3.792   0.467   1.581  0.1999  0.3782  0.5216
    1SOL    HW2 3698   3.705   0.434   1.602  0.2919 -0.1239  0.1236
    1SOL    HW3 3699   3.799   0.458   1.486 -0.0813  2.2881  0.2895
    1SOL    MW4 3700   3.782   0.462   1.571  0.1752  0.5639  0.4385
    1SOL     OW 3701   3.758   0.762   1.638 -0.2397 -0.2281  0.4687
    1SOL    HW2 3702   3.673   0.797   1.611 -0.8397 -0.2312  2.2808
    1SOL    HW3 3703   3.757   0.671   1.607 -1.0060 -0.2909  0.6472
    1SOL    MW4 3704   3.747   0.754   1.631 -0.4199 -0.2368  0.7313
    1SOL     OW 3705   3.542   0.889   1.550 -0.0269 -0.2503  0.3367
    1SOL    HW2 3706   3.461   0.850   1.582 -0.1139 -1.3756 -1.1937
    1SOL    HW3 3707   3.542   0.870   1.456  1.9828 -0.1813  0.3079
    1SOL    MW4 3708   3.531   0.882   1.542  0.2267 -0.3896  0.1309
    1SOL     OW 3709   3.581   1.151   1.646  0.1303 -0.1025 -0.3191
    1SOL    HW2 3710   3.660   1.187   1.606 -0.3141  0.5640 -0.6196
    1SOL    HW3 3711   3.575   1.061   1.613  0.5521 -0.0245 -0.6024
    1SOL    MW4 3712   3.590   1.144   1.636  0.1273 -0.0043 -0.3960
    1SOL     OW 3713   3.795   1.248   1.500 -0.2450 -0.4393  0.1738
    1SOL    HW2 3714   3.881   1.213   1.525  0.2730  0.5175 -0.2186
    1SOL    HW3 3715   3.795   1.337   1.535 -0.6865 -0.1070 -0.6470
    1SOL    MW4 3716   3.807   1.255   1.508 -0.2348 -0.2691  0.0137
    1SOL     OW 3717   3.795   1.525   1.574  0.0398  0.7129 -0.0785
    1SOL    HW2 3718   3.820   1.510   1.665  0.2466  0.6615 -0.1447
    1SOL    HW3 3719   3.716   1.579   1.580  0.0116  0.6503  0.1328
    1SOL    MW4 3720   3.788   1.530   1.587  0.0634  0.6977 -0.0594
    1SOL     OW 3721   3.579   1.679   1.568 -0.1607 -0.1761  0.3660
    1SOL    HW2 3722   3.500   1.629   1.589 -0.3996 -0.2027 -0.5872
    1SOL    HW3 3723   3.584   1.679   1.473 -0.9013  2.7566  0.2795
    1SOL    MW4 3724   3.569   1.673   1.558 -0.2899  0.2074  0.2288
    1SOL     OW 3725   3.605   1.971   1.674  0.4444  0.0029  0.2582
    1SOL    HW2 3726   3.608   1.877   1.659 -0.7658 -0.0258  0.1005
    1SOL    HW3 3727   3.539   2.003   1.612  2.1295  1.2139 -0.9588
    1SOL    MW4 3728   3.596   1.963   1.664  0.5071  0.1588  0.0768
    1SOL     OW 3729   3.818   2.054   1.499  0.3248 -0.5086  0.4621
    1SOL    HW2 3730   3.820   2.148   1.518  1.6370 -0.6449  1.0647
    1SOL    HW3 3731   3.751   2.020   1.557  1.3584 -0.2646  1.8184
    1SOL    MW4 3732   3.809   2.062   1.509  0.6344 -0.4942  0.7206
    1SOL     OW 3733   3.790   2.300   1.586 -0.0008  0.0736  0.5238
    1SOL    HW2 3734   3.800   2.295   1.681 -1.0943 -1.8811  0.5544
    1SOL    HW3 3735   3.867   2.349   1.556  1.0111 -0.4209  2.2738
    1SOL    MW4 3736   3.802   2.306   1.594 -0.0117 -0.2496  0.7588
    1SOL     OW 3737   3.576   2.434   1.458 -0.3522  0.4870  0.2828
    1SOL    HW2 3738   3.584   2.523   1.493 -0.1194  0.1472  1.0919
    1SOL    HW3 3739   3.639   2.382   1.508  0.2747  0.0743 -0.9010
    1SOL    MW4 3740   3.586   2.439   1.469 -0.2389  0.3877  0.2334
    1SOL     OW 3741   3.601   2.692   1.572 -0.4434 -0.3665 -0.4310
    1SOL    HW2 3742   3.598   2.683   1.667  0.2179 -1.7881 -0.5214
    1SOL    HW3 3743   3.511   2.709   1.546 -0.6956 -0.3777  0.4165
    1SOL    MW4 3744   3.589   2.693   1.581 -0.3896 -0.5555 -0.3312
    1SOL     OW 3745   3.805   2.846   1.500  0.5795 -0.1190 -0.0443
    1SOL    HW2 3746   3.884   2.814   1.543 -0.1391  0.9006  2.1224
    1SOL    HW3 3747   3.734   2.794   1.538  0.1161 -0.5558 -1.4693
    1SOL    MW4 3748   3.806   2.835   1.511  0.4234 -0.0422  0.0535
    1SOL     OW 3749   3.787   3.081   1.618 -0.2927  0.1225 -0.1145
    1SOL    HW2 3750   3.864   3.113   1.572 -1.3079  0.1802 -1.8091
    1SOL    HW3 3751   3.779   2.989   1.592 -0.8892  0.1613 -0.0900
    1SOL    MW4 3752   3.796   3.073   1.608 -0.5052  0.1352 -0.3349
    1SOL     OW 3753   3.598   3.264   1.493 -0.0611 -0.2280 -0.1045
    1SOL    HW2 3754   3.658   3.211   1.545 -0.9659 -0.2439  0.9201
    1SOL    HW3 3755   3.596   3.220   1.407  0.5845 -0.8153  0.1767
    1SOL    MW4 3756   3.606   3.251   1.488 -0.0951 -0.3076  0.0678
    1SOL     OW 3757   3.622   3.498   1.633  0.6025 -0.3556 -0.2249
    1SOL    HW2 3758   3.702   3.539   1.601  0.9252 -0.5233  0.3770
    1SOL    HW3 3759   3.616   3.416   1.584 -0.1543  0.4779 -1.5885
    1SOL    MW4 3760   3.631   3.493   1.622  0.5453 -0.2677 -0.3254
    1SOL     OW 3761   3.849   3.619   1.494 -0.0872 -0.6110 -0.3740
    1SOL    HW2 3762   3.931   3.569   1.504 -0.5559 -1.3991 -0.4528
    1SOL    HW3 3763   3.866   3.702   1.539  1.0880 -0.3895 -1.2008
    1SOL    MW4 3764   3.862   3.623   1.501  0.0057 -0.6859 -0.4935
    1SOL     OW 3765   3.849   3.879   1.635  0.1347 -0.5101  0.3007
    1SOL    HW2 3766   3.917   3.940   1.609  0.7720 -1.1885  0.3774
    1SOL    HW3 3767   3.771   3.908   1.587  0.5259  0.1320  0.0545
    1SOL    MW4 3768   3.847   3.891   1.625  0.2704 -0.5150  0.2784
    1SOL     OW 3769   3.629   3.997   1.525  0.0135 -0.1720 -0.2468
    1SOL    HW2 3770   3.619   4.088   1.554  1.0856 -0.2388  0.3242
    1SOL    HW3 3771   3.553   3.952   1.562 -0.8745  0.6134 -1.0683
    1SOL    MW4 3772   3.617   4.003   1.534  0.0379 -0.0777 -0.2799
    1SOL     OW 3773   3.606   4.268   1.589  0.0295 -0.3353 -0.1647
    1SOL    HW2 3774   3.601   4.256   1.684  2.8275  1.3680  0.2696
    1SOL    HW3 3775   3.529   4.319   1.566 -1.6415 -2.3373  0.8902
    1SOL    MW4 3776   3.595   4.273   1.598  0.1783 -0.3748  0.0318
    1SOL     OW 3777   3.865   4.374   1.529  0.1086  0.2861  0.3618
    1SOL    HW2 3778   3.786   4.334   1.565  0.9422  0.1920  2.1201
    1SOL    HW3 3779   3.851   4.468   1.540  0.7446  0.2222  1.7647
    1SOL    MW4 3780   3.853   4.381   1.535  0.3023  0.2656  0.7788
    1SOL     OW 3781   4.268   4.638   1.631  0.3215 -0.4209  0.1256
    1SOL    HW2 3782   4.268   4.641   1.727 -0.3198  1.0939  0.0870
    1SOL    HW3 3783   4.272   4.545   1.610  1.2580 -0.7299  1.6257
    1SOL    MW4 3784   4.269   4.626   1.641  0.3605 -0.2623  0.3184
    1SOL     OW 3785   4.050   0.072   1.526  0.8598  0.9930  0.1227
    1SOL    HW2 3786   4.052   0.162   1.558  0.5220  0.7304  0.9003
    1SOL    HW3 3787   4.133   0.034   1.555  0.8660  0.9664  0.0705
    1SOL    MW4 3788   4.061   0.079   1.534  0.8159  0.9548  0.2185
    1SOL     OW 3789   4.022   0.330   1.634 -0.0749  0.0845  0.0545
    1SOL    HW2 3790   4.034   0.333   1.729 -0.6629 -2.1278  0.2444
    1SOL    HW3 3791   3.947   0.387   1.617  0.4408  1.0114  0.8241
    1SOL    MW4 3792   4.013   0.338   1.644 -0.0844 -0.0851  0.1812
    1SOL     OW 3793   4.224   0.479   1.547 -0.4548  0.1833  0.3871
    1SOL    HW2 3794   4.141   0.435   1.569 -0.9917  0.6669 -0.6177
    1SOL    HW3 3795   4.292   0.419   1.577 -1.1644 -1.7170 -1.6263
    1SOL    MW4 3796   4.222   0.465   1.554 -0.6189 -0.0036 -0.0111
    1SOL     OW 3797   4.218   0.734   1.636  0.4356 -0.3608 -0.2597
    1SOL    HW2 3798   4.239   0.645   1.609 -0.4420 -0.2407 -1.3604
    1SOL    HW3 3799   4.285   0.789   1.595 -0.1466 -0.3131 -1.1490
    1SOL    MW4 3800   4.229   0.729   1.627  0.2432 -0.3387 -0.5221
    1SOL     OW 3801   3.977   0.909   1.564 -0.1203 -0.9919 -0.2314
    1SOL    HW2 3802   4.037   0.835   1.577 -1.8589 -2.5558 -0.8069
    1SOL    HW3 3803   3.893   0.877   1.595 -1.0637  0.5123 -1.1592
    1SOL    MW4 3804   3.974   0.895   1.570 -0.4740 -0.9998 -0.4297
    1SOL     OW 3805   4.036   1.176   1.615 -0.4143 -0.1618 -0.1915
    1SOL    HW2 3806   4.011   1.178   1.707 -1.0460 -0.5262 -0.3529
    1SOL    HW3 3807   4.025   1.085   1.589  1.4521 -0.4272 -0.1728
    1SOL    MW4 3808   4.031   1.164   1.624 -0.2513 -0.2449 -0.2104
    1SOL     OW 3809   4.263   1.298   1.516 -0.0172 -0.1588 -0.1148
    1SOL    HW2 3810   4.185   1.266   1.561  0.9702 -0.7407  1.2205
    1SOL    HW3 3811   4.335   1.248   1.554  1.1111  0.9446 -0.7539
    1SOL    MW4 3812   4.262   1.287   1.527  0.2623 -0.0899 -0.0230
    1SOL     OW 3813   4.238   1.544   1.638 -0.1646  0.1278 -0.1900
    1SOL    HW2 3814   4.245   1.457   1.598  0.9746  0.3991 -0.6173
    1SOL    HW3 3815   4.324   1.584   1.622 -0.5176  1.1476  0.4294
    1SOL    MW4 3816   4.250   1.538   1.631 -0.0610  0.2981 -0.1646
    1SOL     OW 3817   4.025   1.674   1.524 -0.2138 -0.0006  0.0338
    1SOL    HW2 3818   4.092   1.627   1.573 -0.4564  0.2292  0.5914
    1SOL    HW3 3819   3.944   1.625   1.539 -0.2510 -0.0513 -0.3118
    1SOL    MW4 3820   4.023   1.662   1.532 -0.2513  0.0230  0.0616
    1SOL     OW 3821   4.042   1.935   1.616 -0.1743  0.0277 -0.2339
    1SOL    HW2 3822   4.046   1.843   1.591 -0.3908  0.2753 -1.2186
    1SOL    HW3 3823   3.966   1.969   1.568 -1.1053  0.3270  1.4296
    1SOL    MW4 3824   4.033   1.927   1.606 -0.3257  0.0999 -0.1444
    1SOL     OW 3825   4.269   2.057   1.532 -0.3087  0.3019  0.3338
    1SOL    HW2 3826   4.189   2.019   1.570 -0.4273  0.1185 -0.0951
    1SOL    HW3 3827   4.259   2.045   1.438 -0.4054  1.5120  0.1771
    1SOL    MW4 3828   4.257   2.050   1.525 -0.3371  0.4375  0.2567
    1SOL     OW 3829   4.264   2.348   1.606 -0.3941  0.2065 -0.2139
    1SOL    HW2 3830   4.262   2.328   1.700 -1.1577  1.1316 -0.0184
    1SOL    HW3 3831   4.260   2.263   1.563 -0.6078 -0.1973  0.6021
    1SOL    MW4 3832   4.263   2.334   1.613 -0.5236  0.2756 -0.0805
    1SOL     OW 3833   3.998   2.468   1.521  0.2533 -0.3437 -0.1060
    1SOL    HW2 3834   3.979   2.560   1.540 -0.1852 -0.7498  1.5064
    1SOL    HW3 3835   4.086   2.454   1.556  1.4034  0.1106 -2.6800
    1SOL    MW4 3836   4.007   2.478   1.528  0.3471 -0.3376 -0.2329
    1SOL     OW 3837   4.018   2.723   1.613 -0.0421 -0.3990 -0.6025
    1SOL    HW2 3838   4.033   2.705   1.706 -1.5763  0.3390 -0.1988
    1SOL    HW3 3839   4.105   2.737   1.577  0.6190 -1.3965  0.5787
    1SOL    MW4 3840   4.031   2.722   1.621 -0.1578 -0.4332 -0.3934
    1SOL     OW 3841   4.259   2.794   1.493 -0.0501  0.1362  0.1182
    1SOL    HW2 3842   4.254   2.881   1.531 -1.0666 -0.4918  1.4797
    1SOL    HW3 3843   4.262   2.809   1.399  0.6360  1.6574  0.3606
    1SOL    MW4 3844   4.259   2.807   1.486 -0.0939  0.2542  0.3299
    1SOL     OW 3845   4.263   3.053   1.594 -0.0556 -0.0923  0.7229
    1SOL    HW2 3846   4.267   3.065   1.689 -0.4411  0.1675  0.7069
    1SOL    HW3 3847   4.334   3.107   1.559  0.1853 -0.3096  0.8728
    1SOL    MW4 3848   4.273   3.062   1.602 -0.0744 -0.0865  0.7405
    1SOL     OW 3849   4.031   3.190   1.483  0.0495  0.1366 -0.0483
    1SOL    HW2 3850   4.038   3.278   1.520  1.0254 -0.2576  0.7429
    1SOL    HW3 3851   4.113   3.146   1.510 -0.5193 -1.0714 -0.2414
    1SOL    MW4 3852   4.043   3.195   1.491  0.1030 -0.0751  0.0308
    1SOL     OW 3853   4.045   3.452   1.568  0.0621 -0.2461  0.1887
    1SOL    HW2 3854   4.039   3.464   1.663 -1.5445  0.5122  0.0114
    1SOL    HW3 3855   4.137   3.470   1.547  0.8177 -2.0794  1.7988
    1SOL    MW4 3856   4.057   3.456   1.578 -0.0496 -0.3879  0.3778
    1SOL     OW 3857   4.284   3.575   1.491  0.1404  0.0022  0.0710
    1SOL    HW2 3858   4.277   3.664   1.525 -0.3414 -0.7270  1.9484
    1SOL    HW3 3859   4.269   3.584   1.397 -1.1260  1.7501  0.4087
    1SOL    MW4 3860   4.281   3.587   1.483 -0.0896  0.1369  0.3633
    1SOL     OW 3861   4.280   3.847   1.578 -0.1465  0.1845  0.2679
    1SOL    HW2 3862   4.210   3.908   1.555  0.8006  1.1619 -0.0868
    1SOL    HW3 3863   4.356   3.878   1.528  0.4548 -1.0540  0.3868
    1SOL    MW4 3864   4.281   3.859   1.568  0.0577  0.1500  0.2367
    1SOL     OW 3865   4.055   4.020   1.516 -0.2099 -0.0989 -0.4605
    1SOL    HW2 3866   4.081   4.100   1.562 -0.8162  0.6017 -1.2963
    1SOL    HW3 3867   4.036   4.050   1.427 -0.0705 -1.2500 -0.8807
    1SOL    MW4 3868   4.056   4.035   1.510 -0.2708 -0.1583 -0.6262
    1SOL     OW 3869   4.089   4.267   1.643 -0.1012 -0.2572  0.0222
    1SOL    HW2 3870   4.067   4.248   1.734  0.4864  0.8348  0.4080
    1SOL    HW3 3871   4.011   4.307   1.607 -0.4315 -0.9508 -0.0323
    1SOL    MW4 3872   4.076   4.270   1.650 -0.0677 -0.2046  0.0658
    1SOL     OW 3873   4.301   4.390   1.532  0.0127  0.3150  0.2451
    1SOL    HW2 3874   4.227   4.341   1.569  0.4825 -0.7970 -0.2689
    1SOL    HW3 3875   4.293   4.376   1.437  0.7301  0.4143  0.1729
    1SOL    MW4 3876   4.290   4.382   1.524  0.1688  0.1807  0.1676
    1SOL     OW 3877   0.185   4.650   1.904 -0.1098 -0.2378  0.0293
    1SOL    HW2 3878   0.267   4.693   1.929 -0.0393 -0.8669  0.9184
    1SOL    HW3 3879   0.188   4.646   1.808  0.4586  0.6033  0.0118
    1SOL    MW4 3880   0.196   4.655   1.895 -0.0255 -0.2093  0.1442
    1SOL     OW 3881   4.465   0.110   2.005  0.0746 -0.1390  0.1230
    1SOL    HW2 3882   4.471   0.200   1.971 -1.9013 -0.2677 -0.6720
    1SOL    HW3 3883   4.542   0.066   1.969  0.3029  0.8637 -0.6698
    1SOL    MW4 3884   4.476   0.116   1.995 -0.1559 -0.0237 -0.0864
    1SOL     OW 3885   4.470   0.373   1.905 -0.3498 -0.1294 -0.8295
    1SOL    HW2 3886   4.399   0.404   1.961 -0.1937 -2.1679  0.5204
    1SOL    HW3 3887   4.549   0.409   1.945 -0.4025  0.0135 -0.8538
    1SOL    MW4 3888   4.471   0.382   1.918 -0.3366 -0.3795 -0.6546
    1SOL     OW 3889   0.214   0.496   2.008  0.4207  0.7178  0.2099
    1SOL    HW2 3890   0.291   0.449   1.975 -0.5511 -0.4556 -0.4178
    1SOL    HW3 3891   0.227   0.586   1.979  1.7286  0.6175  0.4149
    1SOL    MW4 3892   0.226   0.501   2.000  0.4650  0.5497  0.1541
    1SOL     OW 3893   0.237   0.767   1.926  0.0304 -0.0460 -0.6098
    1SOL    HW2 3894   0.320   0.801   1.960 -0.7971  1.5351 -0.1307
    1SOL    HW3 3895   0.237   0.792   1.834 -0.4767  1.1036 -0.3101
    1SOL    MW4 3896   0.248   0.775   1.919 -0.1457  0.3144 -0.5071
    1SOL     OW 3897   4.477   0.888   2.016 -0.4887  0.0694  0.1158
    1SOL    HW2 3898   4.405   0.834   1.981 -0.8715  1.0533 -0.6580
    1SOL    HW3 3899   4.555   0.856   1.971 -0.6687 -0.0595 -0.1066
    1SOL    MW4 3900   4.478   0.877   2.005 -0.5631  0.1822 -0.0155
    1SOL     OW 3901   4.472   1.152   1.920  0.1791  0.0184  0.0298
    1SOL    HW2 3902   4.383   1.180   1.940 -0.3403 -1.1885 -0.5665
    1SOL    HW3 3903   4.482   1.068   1.965  1.5771  0.8969  1.4508
    1SOL    MW4 3904   4.462   1.145   1.929  0.2952 -0.0249  0.1386
    1SOL     OW 3905   0.226   1.253   2.011  0.3365  0.3225 -0.1525
    1SOL    HW2 3906   0.233   1.347   1.991  0.6366  0.3965  0.2833
    1SOL    HW3 3907   0.145   1.226   1.969  0.6480  0.6070 -0.9443
    1SOL    MW4 3908   0.217   1.262   2.003  0.4172  0.3699 -0.1996
    1SOL     OW 3909   0.227   1.502   1.903  0.2612 -0.4193  0.0781
    1SOL    HW2 3910   0.302   1.554   1.931  0.4305 -0.4348 -0.3414
    1SOL    HW3 3911   0.151   1.559   1.917  0.3393 -0.4317  0.5775
    1SOL    MW4 3912   0.227   1.516   1.909  0.2939 -0.4231  0.0887
    1SOL     OW 3913   4.465   1.655   1.970  0.0817 -0.1327 -0.2305
    1SOL    HW2 3914   4.469   1.669   2.065 -0.5766 -1.7021  0.0504
    1SOL    HW3 3915   4.393   1.593   1.959  0.0113  0.2235 -1.7893
    1SOL    MW4 3916   4.456   1.649   1.981 -0.0143 -0.2928 -0.3990
    1SOL     OW 3917   0.043   1.914   1.885 -0.2548  0.1640  0.0843
    1SOL    HW2 3918  -0.029   1.964   1.923 -1.3092 -0.6212 -0.8506
    1SOL    HW3 3919   0.018   1.823   1.897  0.4785 -0.1144 -0.4377
    1SOL    MW4 3920   0.030   1.909   1.891 -0.2972  0.0236 -0.1079
    1SOL     OW 3921   0.275   2.027   1.967 -0.1138  0.0587 -0.2400
    1SOL    HW2 3922   0.245   2.116   1.948  0.2006 -0.2148 -2.0905
    1SOL    HW3 3923   0.205   1.970   1.935  0.2364 -0.4054 -0.1984
    1SOL    MW4 3924   0.262   2.031   1.961 -0.0261 -0.0384 -0.4787
    1SOL     OW 3925   0.249   2.297   1.931  0.4889 -0.4048  0.5014
    1SOL    HW2 3926   0.314   2.366   1.939 -0.0850  0.1646  0.3337
    1SOL    HW3 3927   0.167   2.338   1.962  0.7600 -1.9679  3.5215
    1SOL    MW4 3928   0.247   2.312   1.936  0.4490 -0.5360  0.8776
    1SOL     OW 3929   4.483   2.436   1.976 -0.5133  0.0743 -0.0300
    1SOL    HW2 3930   4.474   2.457   2.069  0.9752 -0.5509  0.2732
    1SOL    HW3 3931   4.496   2.521   1.934 -0.9261  0.3396  0.3747
    1SOL    MW4 3932   4.484   2.450   1.983 -0.3715  0.0269  0.0634
    1SOL     OW 3933   0.024   2.693   1.905  0.2215 -0.0663  0.5212
    1SOL    HW2 3934  -0.042   2.757   1.933  2.6816  2.9990 -0.4542
    1SOL    HW3 3935   0.026   2.700   1.810  0.4376 -1.7729  0.3783
    1SOL    MW4 3936   0.015   2.702   1.896  0.5741  0.1128  0.3736
    1SOL     OW 3937   0.257   2.839   1.993 -0.0118  0.0664  0.2397
    1SOL    HW2 3938   0.244   2.929   1.963  0.6485 -0.0985 -0.5457
    1SOL    HW3 3939   0.172   2.796   1.979  0.1746  0.1033 -0.9920
    1SOL    MW4 3940   0.244   2.845   1.988  0.0999  0.0494 -0.0263
    1SOL     OW 3941   0.210   3.080   1.886 -0.3960  0.2216 -0.1204
    1SOL    HW2 3942   0.290   3.128   1.908  0.2594 -1.1640  0.5432
    1SOL    HW3 3943   0.198   3.096   1.792  1.0533 -0.1490 -0.3789
    1SOL    MW4 3944   0.219   3.089   1.876 -0.1183 -0.0100 -0.0670
    1SOL     OW 3945   4.484   3.212   1.986 -0.5105 -0.1454 -0.2707
    1SOL    HW2 3946   4.411   3.160   1.951 -1.2325 -0.3869  1.5440
    1SOL    HW3 3947   4.563   3.168   1.954 -1.1323 -0.5639 -1.2756
    1SOL    MW4 3948   4.484   3.199   1.977 -0.6878 -0.2325 -0.1639
    1SOL     OW 3949   4.472   3.451   1.851 -0.0748 -0.4032 -0.2118
    1SOL    HW2 3950   4.548   3.502   1.879 -0.1276 -0.8445  0.7614
    1SOL    HW3 3951   4.488   3.364   1.888 -1.6121 -0.1920  0.9959
    1SOL    MW4 3952   4.484   3.446   1.860 -0.2847 -0.4334  0.0759
    1SOL     OW 3953   0.188   3.630   1.945  0.6071  0.2628 -0.1645
    1SOL    HW2 3954   0.191   3.608   2.038 -0.4135  0.0671 -0.1685
    1SOL    HW3 3955   0.272   3.600   1.910  1.5213  1.4696  0.9293
    1SOL    MW4 3956   0.199   3.624   1.952  0.5930  0.3963 -0.0206
    1SOL     OW 3957   0.222   3.892   1.848 -0.0637 -0.1394 -0.0467
    1SOL    HW2 3958   0.283   3.926   1.913 -1.9455 -0.1480  1.7517
    1SOL    HW3 3959   0.202   3.803   1.877  0.0553 -0.6112 -1.3485
    1SOL    MW4 3960   0.228   3.885   1.860 -0.2962 -0.2027  0.0186
    1SOL     OW 3961   0.022   4.010   1.986 -0.1425  0.0710  0.6741
    1SOL    HW2 3962   0.026   4.099   1.949  0.6891 -0.3480 -0.2842
    1SOL    HW3 3963   0.096   3.965   1.945 -0.6858 -1.1239  1.0063
    1SOL    MW4 3964   0.032   4.016   1.976 -0.1045 -0.1421  0.5915
    1SOL     OW 3965   0.019   4.271   1.858 -0.1489 -0.2697 -0.2523
    1SOL    HW2 3966  -0.064   4.299   1.898 -0.0060 -0.9000  0.5073
    1SOL    HW3 3967   0.086   4.317   1.908 -0.0480  0.4429 -1.0397
    1SOL    MW4 3968   0.017   4.281   1.870 -0.1167 -0.2584 -0.2561
    1SOL     OW 3969   0.220   4.380   2.019  0.7645  0.0028 -0.6248
    1SOL    HW2 3970   0.189   4.362   2.108  0.2241 -0.5079 -0.9093
    1SOL    HW3 3971   0.211   4.474   2.009 -0.1786 -0.0652 -0.5022
    1SOL    MW4 3972   0.215   4.390   2.030  0.5687 -0.0734 -0.6461
    1SOL     OW 3973   0.685   0.016   1.899 -0.1251 -0.2011 -0.0679
    1SOL    HW2 3974   0.709  -0.075   1.912  2.2218  0.1472 -1.7258
    1SOL    HW3 3975   0.660   0.022   1.806  1.3633  1.1440 -0.4169
    1SOL    MW4 3976   0.685   0.005   1.888  0.3809  0.0224 -0.3327
    1SOL     OW 3977   0.417   0.074   2.016 -0.3028 -0.2457  0.5612
    1SOL    HW2 3978   0.423   0.167   1.994 -0.3223  0.2340  2.5536
    1SOL    HW3 3979   0.505   0.040   1.997 -0.1256  0.2957  0.4025
    1SOL    MW4 3980   0.430   0.081   2.010 -0.2820 -0.1110  0.8032
    1SOL     OW 3981   0.431   0.344   1.912  0.2843 -0.2965  0.4011
    1SOL    HW2 3982   0.505   0.403   1.917  0.9104 -1.1112  0.8860
    1SOL    HW3 3983   0.415   0.332   1.818  1.1958 -0.6447  0.2890
    1SOL    MW4 3984   0.438   0.350   1.900  0.4871 -0.4499  0.4503
    1SOL     OW 3985   0.670   0.491   1.914 -0.1549  0.5041  0.4743
    1SOL    HW2 3986   0.680   0.494   2.009  0.3423  0.7233  0.4196
    1SOL    HW3 3987   0.757   0.465   1.882 -0.6426 -0.7599  0.1488
    1SOL    MW4 3988   0.683   0.488   1.922 -0.1535  0.3662  0.4243
    1SOL     OW 3989   0.668   0.762   1.906 -0.1554  0.1130 -0.0892
    1SOL    HW2 3990   0.756   0.793   1.925 -0.4878  0.7826  0.3848
    1SOL    HW3 3991   0.674   0.667   1.910  0.4016  0.1755  0.5875
    1SOL    MW4 3992   0.680   0.754   1.909 -0.1258  0.2095  0.0625
    1SOL     OW 3993   0.456   0.897   1.986 -0.9814  0.2404 -0.3827
    1SOL    HW2 3994   0.456   0.901   2.082 -1.7900 -1.7645 -0.2731
    1SOL    HW3 3995   0.534   0.846   1.964 -1.4577 -0.3394 -0.7318
    1SOL    MW4 3996   0.466   0.891   1.996 -1.1509 -0.1006 -0.4144
    1SOL     OW 3997   0.449   1.151   1.880  0.1305 -0.3698  0.0106
    1SOL    HW2 3998   0.374   1.195   1.921 -0.5551 -0.9937 -0.5556
    1SOL    HW3 3999   0.451   1.065   1.921  0.9934 -0.1051  0.5463
    1SOL    MW4 4000   0.439   1.146   1.891  0.1539 -0.4172  0.0064
    1SOL     OW 4001   0.668   1.270   2.001 -0.0570  0.0281 -0.0857
    1SOL    HW2 4002   0.670   1.291   2.094  0.7296 -0.6555  0.0566
    1SOL    HW3 4003   0.596   1.209   1.991 -1.5046  1.7263 -0.2831
    1SOL    MW4 4004   0.659   1.265   2.012 -0.1442  0.1619 -0.0930
    1SOL     OW 4005   0.692   1.522   1.910  0.1134  0.2774 -0.2041
    1SOL    HW2 4006   0.677   1.429   1.925 -0.9929  0.4639 -0.1254
    1SOL    HW3 4007   0.684   1.533   1.815  1.8308  0.0237 -0.3932
    1SOL    MW4 4008   0.689   1.511   1.899  0.1940  0.2685 -0.2186
    1SOL     OW 4009   0.445   1.661   1.967  0.0443 -0.0929  0.9222
    1SOL    HW2 4010   0.454   1.677   2.061  1.4436  0.6265  0.6858
    1SOL    HW3 4011   0.517   1.601   1.947 -0.5784 -0.6688  0.4012
    1SOL    MW4 4012   0.456   1.655   1.977  0.1467 -0.0741  0.8224
    1SOL     OW 4013   0.496   1.915   1.873  0.0989 -0.4279  0.3157
    1SOL    HW2 4014   0.497   1.827   1.910 -0.4092 -0.0687  1.1772
    1SOL    HW3 4015   0.418   1.957   1.910 -0.3145  0.0066 -0.9840
    1SOL    MW4 4016   0.486   1.909   1.883 -0.0227 -0.3233  0.2580
    1SOL     OW 4017   0.684   2.075   1.968 -0.0471 -0.1546  0.0641
    1SOL    HW2 4018   0.683   2.053   2.061 -0.3166  1.9803  0.5807
    1SOL    HW3 4019   0.614   2.022   1.930 -0.6004 -0.2777  1.2497
    1SOL    MW4 4020   0.675   2.065   1.975 -0.1556  0.1109  0.2888
    1SOL     OW 4021   0.691   2.333   1.882  0.4978  0.4234  0.2895
    1SOL    HW2 4022   0.685   2.243   1.912  1.4734  0.2003 -0.1373
    1SOL    HW3 4023   0.683   2.327   1.787 -0.6120  0.9098  0.3567
    1SOL    MW4 4024   0.689   2.320   1.873  0.4801  0.4582  0.2420
    1SOL     OW 4025   0.471   2.463   1.967 -0.4566  0.2560  0.8419
    1SOL    HW2 4026   0.475   2.457   2.063 -0.6517 -1.3784  0.7563
    1SOL    HW3 4027   0.546   2.412   1.937 -0.4086  0.7486  0.1255
    1SOL    MW4 4028   0.481   2.455   1.976 -0.4760  0.1054  0.7361
    1SOL     OW 4029   0.474   2.723   1.858  0.0875  0.0854 -0.4355
    1SOL    HW2 4030   0.482   2.638   1.900 -0.0872  0.0182 -0.5419
    1SOL    HW3 4031   0.415   2.773   1.914  1.6120  0.7513  0.6232
    1SOL    MW4 4032   0.468   2.718   1.871  0.2656  0.1645 -0.3099
    1SOL     OW 4033   0.689   2.890   1.946 -0.6673  0.4401 -0.0902
    1SOL    HW2 4034   0.689   2.880   2.041 -0.4179 -2.0068 -0.3206
    1SOL    HW3 4035   0.608   2.849   1.916  0.9549 -2.0688 -1.2002
    1SOL    MW4 4036   0.679   2.883   1.954 -0.4203 -0.2139 -0.2671
    1SOL     OW 4037   0.675   3.155   1.867  0.3565  0.3449  0.2659
    1SOL    HW2 4038   0.688   3.065   1.895  1.1488  0.5847  0.6907
    1SOL    HW3 4039   0.676   3.151   1.771 -0.5476 -0.2251  0.2759
    1SOL    MW4 4040   0.677   3.143   1.858  0.3418  0.3016  0.3233
    1SOL     OW 4041   0.426   3.235   1.970 -0.1952 -0.4433  0.5026
    1SOL    HW2 4042   0.410   3.318   1.925 -0.4234 -1.4133 -1.2471
    1SOL    HW3 4043   0.509   3.204   1.935  0.1499 -0.7107  1.5393
    1SOL    MW4 4044   0.435   3.242   1.959 -0.1798 -0.6068  0.4086
    1SOL     OW 4045   0.401   3.486   1.830 -0.4061 -0.0228  0.4789
    1SOL    HW2 4046   0.480   3.526   1.865 -0.6544  0.7435  0.1915
    1SOL    HW3 4047   0.421   3.470   1.737 -1.1722  1.7626 -0.0144
    1SOL    MW4 4048   0.414   3.489   1.822 -0.5399  0.3138  0.3759
    1SOL     OW 4049   0.640   3.618   1.954  0.3518  0.0256 -0.3667
    1SOL    HW2 4050   0.730   3.586   1.949  0.3454  0.2167 -1.9702
    1SOL    HW3 4051   0.646   3.710   1.929 -0.2267  0.1517 -0.0417
    1SOL    MW4 4052   0.653   3.626   1.950  0.2745  0.0672 -0.5354
    1SOL     OW 4053   0.647   3.890   1.885 -0.2950  0.1621  0.3160
    1SOL    HW2 4054   0.720   3.946   1.908 -0.7090  1.1839 -0.8225
    1SOL    HW3 4055   0.639   3.897   1.790 -0.6595 -1.4448  0.2007
    1SOL    MW4 4056   0.656   3.898   1.876 -0.3977  0.0846  0.1507
    1SOL     OW 4057   0.437   4.007   2.015 -0.2523 -0.4293 -0.1437
    1SOL    HW2 4058   0.433   4.096   1.980 -0.4332  0.3237  1.7495
    1SOL    HW3 4059   0.514   3.968   1.973  0.9533  1.2654  0.4685
    1SOL    MW4 4060   0.447   4.013   2.004 -0.1171 -0.1063  0.1869
    1SOL     OW 4061   0.443   4.260   1.898  0.1921  0.3362 -0.4066
    1SOL    HW2 4062   0.366   4.309   1.927  0.1322 -0.2377  0.3979
    1SOL    HW3 4063   0.434   4.256   1.803 -0.8698  0.1025 -0.2941
    1SOL    MW4 4064   0.432   4.266   1.889  0.0440  0.2298 -0.2854
    1SOL     OW 4065   0.672   4.414   1.985  0.2380  0.5135  0.1715
    1SOL    HW2 4066   0.729   4.360   1.929  0.3643  0.6394  0.1799
    1SOL    HW3 4067   0.584   4.394   1.954  0.0435 -2.1069  2.2654
    1SOL    MW4 4068   0.668   4.404   1.973  0.2290  0.1845  0.4489
    1SOL     OW 4069   1.119   4.617   1.866  0.4641  0.1466  0.0789
    1SOL    HW2 4070   1.185   4.661   1.920  0.5250 -0.7738  0.7628
    1SOL    HW3 4071   1.114   4.528   1.901 -1.3327  0.2717  0.2137
    1SOL    MW4 4072   1.127   4.611   1.878  0.2350  0.0420  0.1869
    1SOL     OW 4073   0.927   0.121   1.974 -0.2158 -0.1118  0.3123
    1SOL    HW2 4074   0.986   0.068   1.920 -1.8557 -0.2837 -1.3593
    1SOL    HW3 4075   0.841   0.083   1.959 -1.2922  2.4607 -0.1922
    1SOL    MW4 4076   0.924   0.109   1.965 -0.5742  0.2049  0.0253
    1SOL     OW 4077   0.938   0.385   1.844 -0.0391  0.2722  0.3260
    1SOL    HW2 4078   0.994   0.450   1.886  0.6780 -0.7212  0.9416
    1SOL    HW3 4079   0.944   0.308   1.901  0.8174 -1.0475 -1.4925
    1SOL    MW4 4080   0.946   0.383   1.857  0.1686 -0.0329  0.1673
    1SOL     OW 4081   1.116   0.530   2.003  0.3100 -0.2474 -0.4204
    1SOL    HW2 4082   1.180   0.465   1.974  0.5826 -0.7461  1.2921
    1SOL    HW3 4083   1.130   0.605   1.945  0.0444 -1.6641 -2.3557
    1SOL    MW4 4084   1.126   0.531   1.991  0.3109 -0.5001 -0.4498
    1SOL     OW 4085   1.118   0.746   1.831  0.0896 -0.2826 -0.0626
    1SOL    HW2 4086   1.184   0.781   1.891 -0.4967  0.7270 -0.0029
    1SOL    HW3 4087   1.039   0.796   1.850 -0.5454 -1.0875 -0.5415
    1SOL    MW4 4088   1.116   0.757   1.842 -0.0715 -0.2556 -0.1179
    1SOL     OW 4089   0.907   0.898   1.931 -0.5332  0.2735 -0.2007
    1SOL    HW2 4090   0.887   0.899   2.025  0.3842 -1.3132  0.0247
    1SOL    HW3 4091   0.913   0.991   1.907  1.2654  0.7036  1.7469
    1SOL    MW4 4092   0.905   0.911   1.940 -0.1749  0.1209  0.0861
    1SOL     OW 4093   0.923   1.165   1.858 -0.2912 -0.0115  0.3655
    1SOL    HW2 4094   0.843   1.201   1.897 -1.1075  0.5013 -1.6826
    1SOL    HW3 4095   0.910   1.177   1.763  1.5279 -1.3576 -0.0725
    1SOL    MW4 4096   0.911   1.171   1.850 -0.1589 -0.1215  0.0376
    1SOL     OW 4097   1.147   1.269   1.984  0.0246  0.3589 -0.2385
    1SOL    HW2 4098   1.145   1.365   1.975 -0.6764  0.7567  3.5291
    1SOL    HW3 4099   1.073   1.239   1.932  0.9376  1.7438 -2.4085
    1SOL    MW4 4100   1.137   1.278   1.976  0.0525  0.5941 -0.0277
    1SOL     OW 4101   1.137   1.541   1.918 -0.1211 -0.2911 -0.5078
    1SOL    HW2 4102   1.059   1.582   1.954  1.5127  3.7731 -1.3096
    1SOL    HW3 4103   1.126   1.547   1.824  0.7683 -0.4895 -0.6282
    1SOL    MW4 4104   1.125   1.547   1.911  0.2120  0.2189 -0.6294
    1SOL     OW 4105   0.917   1.648   2.034  0.0499 -0.4445 -0.1267
    1SOL    HW2 4106   0.904   1.735   1.995  1.8330 -0.4105 -0.7100
    1SOL    HW3 4107   0.852   1.592   1.992  0.2279  0.1708 -1.2351
    1SOL    MW4 4108   0.907   1.652   2.023  0.3086 -0.3588 -0.3500
    1SOL     OW 4109   0.913   1.914   1.921  0.4216 -0.5499 -0.1114
    1SOL    HW2 4110   0.833   1.959   1.948 -1.2205 -2.5063 -1.5207
    1SOL    HW3 4111   0.925   1.941   1.830  0.1598 -1.8992 -0.5515
    1SOL    MW4 4112   0.904   1.924   1.913  0.1704 -0.9861 -0.3555
    1SOL     OW 4113   1.126   2.067   2.025 -0.5800  0.2511  0.7368
    1SOL    HW2 4114   1.106   2.149   1.979 -0.4886 -0.3823 -0.4595
    1SOL    HW3 4115   1.048   2.014   2.015  0.1397 -0.6313 -0.3639
    1SOL    MW4 4116   1.113   2.071   2.018 -0.4731  0.0513  0.4337
    1SOL     OW 4117   1.148   2.340   1.903  0.2313 -0.1952  0.2904
    1SOL    HW2 4118   1.230   2.369   1.942 -0.1572  1.3947 -0.0347
    1SOL    HW3 4119   1.166   2.339   1.808  0.1157 -0.6195  0.2721
    1SOL    MW4 4120   1.161   2.344   1.895  0.1647 -0.0415  0.2451
    1SOL     OW 4121   0.901   2.484   1.969  0.0984 -0.0667  0.2374
    1SOL    HW2 4122   0.981   2.435   1.950  0.0259  0.4470 -1.4821
    1SOL    HW3 4123   0.830   2.426   1.940 -0.1880 -0.5702  1.8595
    1SOL    MW4 4124   0.902   2.470   1.963  0.0510 -0.0653  0.2246
    1SOL     OW 4125   0.889   2.742   1.835  0.2463  0.3924 -0.2166
    1SOL    HW2 4126   0.883   2.662   1.888  0.2648 -0.1112 -0.9688
    1SOL    HW3 4127   0.820   2.799   1.870  0.5648  0.2439  0.6527
    1SOL    MW4 4128   0.879   2.739   1.846  0.2908  0.3061 -0.2013
    1SOL     OW 4129   1.116   2.841   1.959  0.0952  0.6141 -0.1957
    1SOL    HW2 4130   1.101   2.840   2.054  0.3308 -1.7397 -0.1678
    1SOL    HW3 4131   1.041   2.793   1.923  1.4086 -0.9047 -0.9728
    1SOL    MW4 4132   1.104   2.835   1.967  0.2995  0.1030 -0.2946
    1SOL     OW 4133   1.112   3.089   1.808 -0.1711 -0.3896 -0.4510
    1SOL    HW2 4134   1.044   3.121   1.867  0.0599 -0.9147  0.1119
    1SOL    HW3 4135   1.133   3.002   1.842  2.4343  0.6631  0.8122
    1SOL    MW4 4136   1.105   3.082   1.820  0.2031 -0.3202 -0.2102
    1SOL     OW 4137   0.924   3.226   1.971 -0.0203  0.0906 -0.4451
    1SOL    HW2 4138   0.921   3.209   2.065  0.8810  0.3840 -0.3597
    1SOL    HW3 4139   0.834   3.216   1.942 -0.2962 -0.0396  0.4471
    1SOL    MW4 4140   0.912   3.223   1.980  0.0622  0.1123 -0.3160
    1SOL     OW 4141   0.903   3.493   1.926  0.5116 -0.0651  0.1008
    1SOL    HW2 4142   0.920   3.401   1.950  0.5341 -0.4916 -1.5041
    1SOL    HW3 4143   0.894   3.492   1.831 -0.9644  1.3763  0.1996
    1SOL    MW4 4144   0.904   3.480   1.916  0.3198  0.0687 -0.0979
    1SOL     OW 4145   1.155   3.615   1.964  0.5022 -0.5091  0.1475
    1SOL    HW2 4146   1.155   3.612   2.060  0.2260 -0.6123  0.1465
    1SOL    HW3 4147   1.070   3.579   1.939  0.4165 -0.1306 -0.1243
    1SOL    MW4 4148   1.144   3.610   1.973  0.4543 -0.4728  0.1115
    1SOL     OW 4149   1.130   3.895   1.887  0.0406 -0.0554 -0.3124
    1SOL    HW2 4150   1.144   3.807   1.923 -0.1618 -0.0998 -0.3437
    1SOL    HW3 4151   1.108   3.880   1.795 -2.5003 -0.1263  0.2661
    1SOL    MW4 4152   1.129   3.881   1.879 -0.3213 -0.0703 -0.2403
    1SOL     OW 4153   0.874   4.022   1.961  0.1630  0.0523  0.2954
    1SOL    HW2 4154   0.860   4.016   2.056 -1.0377 -0.0630  0.1209
    1SOL    HW3 4155   0.959   3.981   1.947  1.1020  1.4966  1.5159
    1SOL    MW4 4156   0.883   4.016   1.972  0.1285  0.2279  0.4334
    1SOL     OW 4157   0.877   4.274   1.845  0.1515 -0.0508 -0.2724
    1SOL    HW2 4158   0.958   4.309   1.883 -0.5720  1.5680 -0.1896
    1SOL    HW3 4159   0.871   4.185   1.879  0.7735  0.5555  1.4642
    1SOL    MW4 4160   0.887   4.267   1.854  0.1382  0.2422 -0.0323
    1SOL     OW 4161   1.091   4.371   1.973 -0.4945  0.2198  0.3172
    1SOL    HW2 4162   1.087   4.350   2.066  0.6221  0.5048  0.4454
    1SOL    HW3 4163   1.173   4.331   1.943 -0.4558  0.7931 -0.3606
    1SOL    MW4 4164   1.101   4.363   1.981 -0.3420  0.3328  0.2446
    1SOL     OW 4165   1.526   4.657   1.872 -0.4738 -0.0263 -0.0693
    1SOL    HW2 4166   1.608   4.705   1.882 -0.1766 -0.3314 -1.0323
    1SOL    HW3 4167   1.545   4.569   1.903 -0.5412 -0.0006  0.0473
    1SOL    MW4 4168   1.539   4.652   1.878 -0.4436 -0.0629 -0.1810
    1SOL     OW 4169   1.294   0.109   2.014  0.5723  0.0929  0.2569
    1SOL    HW2 4170   1.317   0.119   2.107 -0.1690  0.1669  0.4356
    1SOL    HW3 4171   1.372   0.071   1.974  0.8973  0.0593  0.9126
    1SOL    MW4 4172   1.307   0.105   2.021  0.5174  0.0982  0.3669
    1SOL     OW 4173   1.307   0.356   1.904 -0.5919  0.0177  0.5045
    1SOL    HW2 4174   1.310   0.271   1.948 -0.6223 -0.4798 -0.4396
    1SOL    HW3 4175   1.295   0.335   1.811  0.9334  0.9893  0.0574
    1SOL    MW4 4176   1.306   0.342   1.897 -0.3946  0.0803  0.3209
    1SOL     OW 4177   1.523   0.488   2.041 -0.1578  0.0382  0.0540
    1SOL    HW2 4178   1.603   0.473   1.991 -0.1779 -1.5462  0.4748
    1SOL    HW3 4179   1.455   0.441   1.992 -0.7938  1.1810 -0.1778
    1SOL    MW4 4180   1.524   0.480   2.028 -0.2443 -0.0201  0.0792
    1SOL     OW 4181   1.533   0.728   1.900 -0.1859  0.0610 -0.0588
    1SOL    HW2 4182   1.624   0.757   1.910  0.2607 -0.9175 -1.0968
    1SOL    HW3 4183   1.527   0.650   1.956 -0.5671  0.4737  0.4831
    1SOL    MW4 4184   1.544   0.721   1.909 -0.1773 -0.0136 -0.1243
    1SOL     OW 4185   1.314   0.863   2.003 -0.0691  0.4517  0.0173
    1SOL    HW2 4186   1.324   0.876   2.097  0.7064  1.3058 -0.1754
    1SOL    HW3 4187   1.402   0.840   1.973 -0.5330 -0.9251 -0.3372
    1SOL    MW4 4188   1.327   0.862   2.012 -0.0279  0.3828 -0.0548
    1SOL     OW 4189   1.353   1.103   1.890  0.1902  0.3358 -0.4113
    1SOL    HW2 4190   1.341   1.018   1.931  0.7533  0.4440 -0.0170
    1SOL    HW3 4191   1.277   1.154   1.919  0.1938  0.1738 -0.1135
    1SOL    MW4 4192   1.341   1.099   1.900  0.2650  0.3287 -0.3200
    1SOL     OW 4193   1.561   1.241   1.997 -0.3767  0.2116  0.2500
    1SOL    HW2 4194   1.541   1.327   1.959 -0.5861 -0.0889 -0.3244
    1SOL    HW3 4195   1.482   1.189   1.981  0.0345 -0.3135 -0.0658
    1SOL    MW4 4196   1.548   1.245   1.990 -0.3501  0.1026  0.1324
    1SOL     OW 4197   1.544   1.494   1.879 -0.0503  0.3068  0.0990
    1SOL    HW2 4198   1.619   1.543   1.913 -0.1181  0.9871 -0.7157
    1SOL    HW3 4199   1.468   1.536   1.919  0.0439 -1.1290  1.8542
    1SOL    MW4 4200   1.544   1.506   1.889 -0.0466  0.2073  0.2232
    1SOL     OW 4201   1.365   1.664   2.009 -0.2127 -0.4287  0.1659
    1SOL    HW2 4202   1.378   1.657   2.104  0.0449 -1.5813  0.0547
    1SOL    HW3 4203   1.273   1.639   1.997 -0.6676  1.1595  0.2571
    1SOL    MW4 4204   1.354   1.660   2.020 -0.2388 -0.3712  0.1631
    1SOL     OW 4205   1.349   1.933   1.900 -0.3388  0.0685 -0.2754
    1SOL    HW2 4206   1.339   1.845   1.937  0.2526  0.6245  1.2221
    1SOL    HW3 4207   1.269   1.978   1.925 -0.3385  0.1689 -0.4580
    1SOL    MW4 4208   1.337   1.927   1.908 -0.2607  0.1552 -0.1018
    1SOL     OW 4209   1.596   2.075   1.999  0.1064 -0.3726  0.1769
    1SOL    HW2 4210   1.597   2.144   1.932  0.8024  0.0391  0.5989
    1SOL    HW3 4211   1.510   2.035   1.991  0.1908 -0.3488 -0.9882
    1SOL    MW4 4212   1.585   2.079   1.989  0.2093 -0.3150  0.0790
    1SOL     OW 4213   1.594   2.318   1.844 -0.3526  0.3146  0.2045
    1SOL    HW2 4214   1.675   2.358   1.876 -1.1707  1.8492  0.4072
    1SOL    HW3 4215   1.592   2.341   1.751 -0.8714  0.8017  0.3397
    1SOL    MW4 4216   1.605   2.326   1.836 -0.5289  0.5813  0.2491
    1SOL     OW 4217   1.413   2.445   2.001  0.6732 -0.7571 -0.1429
    1SOL    HW2 4218   1.396   2.527   1.955  0.7615 -0.1973  0.7945
    1SOL    HW3 4219   1.477   2.399   1.946  1.2917  0.1971 -0.2385
    1SOL    MW4 4220   1.419   2.450   1.988  0.7663 -0.5572 -0.0321
    1SOL     OW 4221   1.343   2.684   1.869  0.0202 -0.3182 -0.2267
    1SOL    HW2 4222   1.271   2.735   1.905  1.3851  1.7060 -0.2589
    1SOL    HW3 4223   1.324   2.677   1.776 -0.2801 -0.0252 -0.1867
    1SOL    MW4 4224   1.331   2.690   1.861  0.1607 -0.0124 -0.2257
    1SOL     OW 4225   1.551   2.840   1.947 -0.1001  0.3195 -1.1629
    1SOL    HW2 4226   1.633   2.793   1.934 -0.1989 -0.0250 -0.5838
    1SOL    HW3 4227   1.485   2.786   1.903 -0.2466 -0.2072 -0.3148
    1SOL    MW4 4228   1.553   2.827   1.940 -0.1324  0.2050 -0.9745
    1SOL     OW 4229   1.578   3.118   1.840  0.7916  0.0870 -0.2310
    1SOL    HW2 4230   1.554   3.031   1.871  1.2488  0.4286  1.1315
    1SOL    HW3 4231   1.582   3.110   1.745 -0.5941 -1.0105 -0.2074
    1SOL    MW4 4232   1.575   3.106   1.832  0.6690 -0.0126 -0.0482
    1SOL     OW 4233   1.345   3.231   1.923 -0.0824  0.0320  0.3119
    1SOL    HW2 4234   1.429   3.187   1.906  0.4750  1.0032  0.5314
    1SOL    HW3 4235   1.279   3.171   1.886  0.6802 -0.8675  0.3808
    1SOL    MW4 4236   1.347   3.217   1.916  0.0918  0.0410  0.3499
    1SOL     OW 4237   1.355   3.483   1.849 -0.0911  0.4328 -0.2209
    1SOL    HW2 4238   1.339   3.393   1.878 -2.1243  0.5791 -0.8511
    1SOL    HW3 4239   1.279   3.532   1.879  0.5962  1.7798 -0.6465
    1SOL    MW4 4240   1.343   3.478   1.857 -0.2688  0.6299 -0.3603
    1SOL     OW 4241   1.551   3.646   1.955  0.0522 -0.0518  0.0964
    1SOL    HW2 4242   1.557   3.631   2.049  1.6894 -1.5936 -0.2205
    1SOL    HW3 4243   1.484   3.585   1.925 -0.5161  0.4860  0.2673
    1SOL    MW4 4244   1.543   3.636   1.963  0.1932 -0.1845  0.0771
    1SOL     OW 4245   1.583   3.886   1.804 -0.3036  0.4803  0.4315
    1SOL    HW2 4246   1.665   3.927   1.832  1.5756 -2.4725 -0.5869
    1SOL    HW3 4247   1.575   3.807   1.857 -2.3031  0.5276  0.2432
    1SOL    MW4 4248   1.593   3.881   1.815 -0.3195  0.0970  0.2723
    1SOL     OW 4249   1.382   3.982   1.961  0.0675 -0.6707 -0.7224
    1SOL    HW2 4250   1.446   3.954   1.895 -0.3905  0.1958 -1.5506
    1SOL    HW3 4251   1.298   3.948   1.929 -0.3111  0.6022 -1.1296
    1SOL    MW4 4252   1.380   3.974   1.948 -0.0428 -0.3884 -0.8855
    1SOL     OW 4253   1.334   4.250   1.888  0.3420 -0.3157  0.0362
    1SOL    HW2 4254   1.342   4.157   1.906 -1.1125 -0.3044  0.8205
    1SOL    HW3 4255   1.328   4.256   1.793  0.3203 -1.0287 -0.0066
    1SOL    MW4 4256   1.334   4.239   1.878  0.1472 -0.4082  0.1339
    1SOL     OW 4257   1.554   4.396   1.960  0.3967  0.2171 -0.4103
    1SOL    HW2 4258   1.556   4.390   2.056 -0.2317  1.2990 -0.3316
    1SOL    HW3 4259   1.474   4.350   1.935  1.2409 -1.2360 -0.5154
    1SOL    MW4 4260   1.544   4.389   1.970  0.4252  0.1683 -0.4137
    1SOL     OW 4261   1.988   4.665   1.851  0.3837 -0.1047 -0.0706
    1SOL    HW2 4262   2.067   4.699   1.891  0.2258 -0.2425  0.3639
    1SOL    HW3 4263   1.972   4.582   1.896  0.7224 -0.7183 -1.0577
    1SOL    MW4 4264   1.996   4.658   1.862  0.4076 -0.2041 -0.1435
    1SOL     OW 4265   1.766   0.118   1.936  0.2151 -0.0250 -0.0681
    1SOL    HW2 4266   1.775   0.097   2.029 -2.3585  0.9401  0.4485
    1SOL    HW3 4267   1.849   0.090   1.897  1.5164 -0.0236  2.5790
    1SOL    MW4 4268   1.778   0.111   1.944  0.0471  0.1025  0.3494
    1SOL     OW 4269   1.746   0.395   1.908 -0.1136 -0.1870 -0.3807
    1SOL    HW2 4270   1.760   0.303   1.932  1.7034  0.0814 -0.3822
    1SOL    HW3 4271   1.741   0.395   1.813  0.3988 -0.2070 -0.4053
    1SOL    MW4 4272   1.747   0.383   1.899  0.1938 -0.1543 -0.3842
    1SOL     OW 4273   2.001   0.484   1.990  0.3917 -0.0056 -0.0486
    1SOL    HW2 4274   2.004   0.572   1.953  0.5227  0.6176  1.4101
    1SOL    HW3 4275   1.908   0.461   1.987  0.2503  0.5074  0.3073
    1SOL    MW4 4276   1.989   0.493   1.985  0.3904  0.1443  0.1909
    1SOL     OW 4277   2.026   0.726   1.861 -0.1446 -0.2136  0.2667
    1SOL    HW2 4278   2.095   0.785   1.888 -1.6503  1.6999  0.0309
    1SOL    HW3 4279   1.945   0.772   1.882 -1.3541 -0.5877 -3.2514
    1SOL    MW4 4280   2.024   0.740   1.867 -0.5031 -0.0105 -0.2285
    1SOL     OW 4281   1.787   0.845   1.954  0.0670 -0.0211  0.5121
    1SOL    HW2 4282   1.784   0.939   1.935  0.8747 -0.3721 -1.5565
    1SOL    HW3 4283   1.790   0.840   2.049 -1.0768  2.0143  0.6893
    1SOL    MW4 4284   1.787   0.857   1.964  0.0228  0.2011  0.2626
    1SOL     OW 4285   1.761   1.110   1.869 -0.2743 -0.2674  0.2971
    1SOL    HW2 4286   1.679   1.148   1.900  0.3711  0.1121  1.5845
    1SOL    HW3 4287   1.829   1.166   1.905  0.5635 -0.6240 -0.6976
    1SOL    MW4 4288   1.759   1.122   1.878 -0.0787 -0.2645  0.3357
    1SOL     OW 4289   1.967   1.291   1.956 -0.0441 -0.4058 -0.3859
    1SOL    HW2 4290   2.049   1.255   1.921  1.2256 -1.1133  3.0905
    1SOL    HW3 4291   1.977   1.283   2.051 -3.0778  1.9492  0.1757
    1SOL    MW4 4292   1.979   1.285   1.964 -0.2769 -0.1886  0.1467
    1SOL     OW 4293   2.025   1.546   1.873 -0.1546  0.3966 -0.3760
    1SOL    HW2 4294   2.012   1.456   1.902 -1.7618  0.5162 -0.6964
    1SOL    HW3 4295   2.031   1.539   1.778  1.1541  0.4661 -0.3015
    1SOL    MW4 4296   2.024   1.533   1.864 -0.1941  0.4215 -0.4084
    1SOL     OW 4297   1.775   1.639   1.966  0.4462 -0.0901  0.3554
    1SOL    HW2 4298   1.773   1.732   1.945 -0.1842 -0.1896 -0.0398
    1SOL    HW3 4299   1.860   1.609   1.935 -0.2190 -0.1094 -1.5348
    1SOL    MW4 4300   1.786   1.647   1.959  0.2754 -0.1057  0.0539
    1SOL     OW 4301   1.802   1.914   1.905 -0.0580  0.2089 -0.3542
    1SOL    HW2 4302   1.727   1.957   1.946 -0.9180 -0.4944 -1.1877
    1SOL    HW3 4303   1.796   1.937   1.812 -0.2378 -1.2968 -0.7226
    1SOL    MW4 4304   1.791   1.923   1.898 -0.1951 -0.0826 -0.5127
    1SOL     OW 4305   2.031   2.050   2.030  0.4615 -0.7620  0.2237
    1SOL    HW2 4306   2.096   2.013   1.970  0.9989  0.0202  0.3224
    1SOL    HW3 4307   1.948   2.015   1.999  0.7303 -0.2991 -1.0395
    1SOL    MW4 4308   2.029   2.041   2.018  0.5679 -0.5975  0.0699
    1SOL     OW 4309   2.007   2.305   1.902  0.1624  0.0275  0.0808
    1SOL    HW2 4310   2.077   2.362   1.935 -0.7719  0.6802  0.9480
    1SOL    HW3 4311   2.022   2.221   1.945 -0.9850  0.8388  2.1180
    1SOL    MW4 4312   2.018   2.302   1.912 -0.1121  0.2208  0.4641
    1SOL     OW 4313   1.791   2.460   1.989  0.1758  0.2328  0.4228
    1SOL    HW2 4314   1.792   2.463   2.084  0.6913 -0.7333  0.4471
    1SOL    HW3 4315   1.865   2.404   1.965 -0.1317  0.2205 -0.5308
    1SOL    MW4 4316   1.801   2.453   1.998  0.2031  0.1035  0.3000
    1SOL     OW 4317   1.795   2.712   1.890 -0.2121  0.1500  0.3726
    1SOL    HW2 4318   1.783   2.625   1.927 -0.9474  0.6586  1.3324
    1SOL    HW3 4319   1.767   2.703   1.799 -2.1205 -0.1696  0.9633
    1SOL    MW4 4320   1.790   2.699   1.883 -0.5610  0.1750  0.5772
    1SOL     OW 4321   2.014   2.860   1.971  0.0586  0.2308 -0.2001
    1SOL    HW2 4322   2.007   2.860   2.067  0.0767 -0.3761 -0.2014
    1SOL    HW3 4323   1.955   2.791   1.942  1.2749 -0.6697 -0.5469
    1SOL    MW4 4324   2.005   2.851   1.980  0.2217  0.0319 -0.2460
    1SOL     OW 4325   2.008   3.133   1.891  0.7006 -0.3915  0.1554
    1SOL    HW2 4326   1.936   3.172   1.940  0.3215 -0.0559 -0.6698
    1SOL    HW3 4327   2.001   3.039   1.910 -0.4873 -0.4695 -0.6010
    1SOL    MW4 4328   1.997   3.126   1.900  0.4938 -0.3574 -0.0534
    1SOL     OW 4329   1.777   3.240   1.987  0.1345 -0.2078 -0.0431
    1SOL    HW2 4330   1.748   3.242   2.078 -0.4861  0.4016 -0.2506
    1SOL    HW3 4331   1.700   3.209   1.939  0.5060 -0.6681 -0.3456
    1SOL    MW4 4332   1.763   3.236   1.993  0.1016 -0.1881 -0.1105
    1SOL     OW 4333   1.768   3.486   1.863  0.1729 -0.1128 -0.0198
    1SOL    HW2 4334   1.760   3.409   1.919  0.4360 -0.3358 -0.2852
    1SOL    HW3 4335   1.695   3.543   1.889  0.6556  0.0561  0.9556
    1SOL    MW4 4336   1.757   3.484   1.874  0.2712 -0.1197  0.0739
    1SOL     OW 4337   2.011   3.582   1.930  0.2639  0.0958 -0.3965
    1SOL    HW2 4338   2.009   3.676   1.917 -0.6222  0.2520  0.7861
    1SOL    HW3 4339   1.925   3.551   1.901  0.3535 -0.2769 -0.2766
    1SOL    MW4 4340   1.999   3.590   1.924  0.1589  0.0672 -0.2246
    1SOL     OW 4341   2.014   3.870   1.879 -0.2159  0.2030  0.0522
    1SOL    HW2 4342   2.095   3.911   1.908 -1.0643  1.8476  0.1617
    1SOL    HW3 4343   2.020   3.871   1.783 -0.0956  0.2774  0.0607
    1SOL    MW4 4344   2.025   3.875   1.870 -0.3116  0.4299  0.0678
    1SOL     OW 4345   1.786   3.990   1.968 -0.1452 -0.0625  0.2766
    1SOL    HW2 4346   1.783   4.075   1.925 -1.1810 -0.7607 -1.0468
    1SOL    HW3 4347   1.870   3.952   1.940 -1.3533 -1.0176 -2.1183
    1SOL    MW4 4348   1.797   3.996   1.959 -0.4412 -0.2806 -0.2141
    1SOL     OW 4349   1.759   4.247   1.859  0.0419 -0.4892 -0.3009
    1SOL    HW2 4350   1.683   4.288   1.900  0.4834  0.0652 -0.0247
    1SOL    HW3 4351   1.753   4.271   1.767  0.5236  0.5464 -0.0625
    1SOL    MW4 4352   1.748   4.255   1.852  0.1638 -0.2799 -0.2329
    1SOL     OW 4353   1.980   4.407   1.981  0.0931 -0.2631 -0.1072
    1SOL    HW2 4354   2.055   4.362   1.943  0.7803  1.4405 -0.8276
    1SOL    HW3 4355   1.904   4.356   1.952  0.7353 -0.0597 -2.2560
    1SOL    MW4 4356   1.980   4.395   1.972  0.2686 -0.0114 -0.4858
    1SOL     OW 4357   2.414   4.632   1.869 -0.2376 -0.2517  0.4795
    1SOL    HW2 4358   2.491   4.674   1.909  0.5282  0.5430 -1.7523
    1SOL    HW3 4359   2.426   4.539   1.887  0.4753  0.0240  1.4569
    1SOL    MW4 4360   2.426   4.626   1.877 -0.0427 -0.1106  0.3140
    1SOL     OW 4361   2.205   0.088   1.982 -0.1839  0.3388  0.5419
    1SOL    HW2 4362   2.212   0.074   2.076 -0.5817 -0.7676  0.4189
    1SOL    HW3 4363   2.274   0.032   1.945 -0.9032 -0.2656  0.1043
    1SOL    MW4 4364   2.215   0.078   1.989 -0.3312  0.1131  0.4680
    1SOL     OW 4365   2.213   0.343   1.883  0.4559  0.3104  0.5746
    1SOL    HW2 4366   2.204   0.257   1.923 -0.0646  0.3828  0.6184
    1SOL    HW3 4367   2.142   0.395   1.921  0.6986  0.7253  0.4671
    1SOL    MW4 4368   2.203   0.339   1.893  0.4194  0.3747  0.5662
    1SOL     OW 4369   2.450   0.459   1.950  0.3738  0.3160 -0.6731
    1SOL    HW2 4370   2.526   0.413   1.915 -0.2308 -0.5267 -0.8708
    1SOL    HW3 4371   2.375   0.411   1.917 -0.2256 -0.3597  1.5882
    1SOL    MW4 4372   2.450   0.447   1.941  0.2151  0.1157 -0.4009
    1SOL     OW 4373   2.445   0.737   1.872 -0.8465 -0.1320 -0.0688
    1SOL    HW2 4374   2.448   0.644   1.894  0.9118 -0.0252  0.2521
    1SOL    HW3 4375   2.439   0.739   1.777 -2.9190 -0.5752  0.0388
    1SOL    MW4 4376   2.445   0.725   1.862 -0.8879 -0.1764 -0.0123
    1SOL     OW 4377   2.229   0.884   1.965 -0.0638 -0.3157 -0.3886
    1SOL    HW2 4378   2.215   0.892   2.059 -0.6253  0.0809 -0.5046
    1SOL    HW3 4379   2.309   0.832   1.957  0.5951  0.5802  0.3119
    1SOL    MW4 4380   2.237   0.878   1.976 -0.0510 -0.1451 -0.3115
    1SOL     OW 4381   2.200   1.155   1.848  0.4598 -0.0779  0.5508
    1SOL    HW2 4382   2.280   1.197   1.879  0.8048 -0.0571 -0.3465
    1SOL    HW3 4383   2.202   1.068   1.887  0.3566  0.3119  1.4261
    1SOL    MW4 4384   2.211   1.149   1.857  0.4916 -0.0238  0.5478
    1SOL     OW 4385   2.410   1.283   1.968  0.1789  0.4940 -0.2383
    1SOL    HW2 4386   2.435   1.275   2.060 -0.9824 -1.2178 -0.0552
    1SOL    HW3 4387   2.421   1.376   1.949  2.7327  0.4907  0.9483
    1SOL    MW4 4388   2.415   1.294   1.978  0.3626  0.2677 -0.0575
    1SOL     OW 4389   2.427   1.548   1.893  0.2313  0.4070 -0.1308
    1SOL    HW2 4390   2.358   1.608   1.921 -0.8564 -0.9144  0.0896
    1SOL    HW3 4391   2.417   1.543   1.798  0.3320  0.5828 -0.1509
    1SOL    MW4 4392   2.417   1.555   1.884  0.1009  0.2559 -0.1044
    1SOL     OW 4393   2.224   1.718   1.977 -0.2471  0.2788 -0.3219
    1SOL    HW2 4394   2.213   1.707   2.072 -1.8729 -0.1897 -0.5510
    1SOL    HW3 4395   2.151   1.669   1.938  0.5074  0.3211 -1.8256
    1SOL    MW4 4396   2.213   1.710   1.984 -0.3622  0.2227 -0.5505
    1SOL     OW 4397   2.213   1.950   1.847  0.3832 -0.1462  0.3004
    1SOL    HW2 4398   2.277   1.995   1.902  0.1207  0.1445  0.3693
    1SOL    HW3 4399   2.203   1.864   1.888 -1.4795  0.8404  2.0276
    1SOL    MW4 4400   2.220   1.945   1.860  0.1028  0.0223  0.5374
    1SOL     OW 4401   2.406   2.065   1.992 -0.3630 -0.1812 -0.2274
    1SOL    HW2 4402   2.489   2.020   1.976  0.1184  0.2640  0.9265
    1SOL    HW3 4403   2.416   2.150   1.949 -0.4475 -0.3458 -0.5762
    1SOL    MW4 4404   2.418   2.070   1.984 -0.3104 -0.1440 -0.1212
    1SOL     OW 4405   2.419   2.305   1.864  0.5482  0.3007  0.3168
    1SOL    HW2 4406   2.491   2.347   1.911 -0.3953  0.3869  1.7374
    1SOL    HW3 4407   2.341   2.354   1.892 -0.4026 -1.5535  0.9778
    1SOL    MW4 4408   2.418   2.317   1.874  0.2985  0.0672  0.5915
    1SOL     OW 4409   2.213   2.453   2.001  0.2658  0.0471 -0.3859
    1SOL    HW2 4410   2.227   2.453   2.095  0.3810 -0.2394 -0.4023
    1SOL    HW3 4411   2.217   2.545   1.976 -2.2836  0.3716  0.2584
    1SOL    MW4 4412   2.216   2.465   2.010 -0.0553  0.0522 -0.3033
    1SOL     OW 4413   2.238   2.720   1.900  0.2304 -0.3741  0.2255
    1SOL    HW2 4414   2.160   2.769   1.926  1.1394  0.5627  1.2587
    1SOL    HW3 4415   2.232   2.713   1.805 -1.3433 -0.7159  0.3499
    1SOL    MW4 4416   2.227   2.726   1.891  0.1426 -0.2956  0.3779
    1SOL     OW 4417   2.483   2.832   1.976 -0.1906  0.3165 -0.1622
    1SOL    HW2 4418   2.464   2.925   1.964 -2.3831  0.1358  1.6577
    1SOL    HW3 4419   2.397   2.789   1.969  0.0678 -1.0446  3.7599
    1SOL    MW4 4420   2.469   2.838   1.973 -0.4458  0.1128  0.5953
    1SOL     OW 4421   2.467   3.102   1.907  0.3393  0.5444  0.2283
    1SOL    HW2 4422   2.388   3.153   1.924  1.1923  2.1812 -0.5996
    1SOL    HW3 4423   2.461   3.079   1.814  0.4571  0.0042  0.3541
    1SOL    MW4 4424   2.456   3.106   1.897  0.4673  0.6890  0.1358
    1SOL     OW 4425   2.251   3.237   1.982  0.0285  0.5398 -0.1617
    1SOL    HW2 4426   2.237   3.257   2.075  1.4676  0.0060  0.1896
    1SOL    HW3 4427   2.170   3.195   1.953 -0.8408  1.6998  0.5732
    1SOL    MW4 4428   2.239   3.234   1.991  0.1037  0.6223 -0.0185
    1SOL     OW 4429   2.273   3.496   1.885  0.2960  0.0661 -0.5929
    1SOL    HW2 4430   2.278   3.406   1.915 -0.5350  0.1348 -0.2284
    1SOL    HW3 4431   2.183   3.523   1.904  0.8295  1.3070  0.2741
    1SOL    MW4 4432   2.262   3.488   1.892  0.2565  0.2389 -0.4305
    1SOL     OW 4433   2.489   3.637   1.950 -0.0853 -0.4163  0.0056
    1SOL    HW2 4434   2.491   3.626   2.045 -0.0230 -0.3551  0.0119
    1SOL    HW3 4435   2.410   3.591   1.922  0.1180 -0.7841  0.0393
    1SOL    MW4 4436   2.479   3.630   1.959 -0.0501 -0.4568  0.0108
    1SOL     OW 4437   2.488   3.904   1.853  0.1092 -0.1003 -0.4779
    1SOL    HW2 4438   2.404   3.945   1.871  0.4647 -0.1103  1.3599
    1SOL    HW3 4439   2.479   3.815   1.888  0.8513 -0.1319 -0.3543
    1SOL    MW4 4440   2.476   3.898   1.860  0.2542 -0.1059 -0.2191
    1SOL     OW 4441   2.245   4.014   1.930 -0.1047 -0.3348 -0.6769
    1SOL    HW2 4442   2.257   4.010   2.025 -0.0154  0.1999 -0.6668
    1SOL    HW3 4443   2.220   4.104   1.912  1.7498  0.0614 -1.3666
    1SOL    MW4 4444   2.243   4.025   1.940  0.1516 -0.2122 -0.7665
    1SOL     OW 4445   2.203   4.280   1.870  0.6492 -0.4362  0.1201
    1SOL    HW2 4446   2.291   4.310   1.895  0.1274  2.8809 -1.5957
    1SOL    HW3 4447   2.209   4.267   1.775 -0.4792 -1.0787  0.1338
    1SOL    MW4 4448   2.215   4.283   1.861  0.4315 -0.0834 -0.1044
    1SOL     OW 4449   2.451   4.356   1.933 -0.2074 -0.4469 -0.2522
    1SOL    HW2 4450   2.474   4.349   2.026 -1.6577 -2.1277  0.0108
    1SOL    HW3 4451   2.526   4.319   1.887  0.0696 -0.5904  0.3044
    1SOL    MW4 4452   2.464   4.350   1.939 -0.3622 -0.6871 -0.1441
    1SOL     OW 4453   2.895   4.619   1.857  0.1475  0.4539 -0.1442
    1SOL    HW2 4454   2.947   4.672   1.917 -1.2298  0.6915  0.8706
    1SOL    HW3 4455   2.891   4.533   1.899  0.0779  0.3199 -0.4270
    1SOL    MW4 4456   2.901   4.614   1.870 -0.0434  0.4673 -0.0476
    1SOL     OW 4457   2.668   0.068   1.960  0.2479 -0.3629  0.3358
    1SOL    HW2 4458   2.694   0.074   2.052  1.0836  0.1397  0.0738
    1SOL    HW3 4459   2.727   0.002   1.923  0.7096  0.3026 -0.1132
    1SOL    MW4 4460   2.679   0.060   1.967  0.4191 -0.2087  0.2420
    1SOL     OW 4461   2.677   0.319   1.826  0.4391 -0.1075  0.1668
    1SOL    HW2 4462   2.746   0.371   1.869 -0.5722 -0.1816  1.9129
    1SOL    HW3 4463   2.684   0.232   1.867  0.2427 -0.5223 -0.6819
    1SOL    MW4 4464   2.687   0.314   1.837  0.2797 -0.1720  0.2851
    1SOL     OW 4465   2.890   0.478   1.955  0.1048  0.4731 -0.0084
    1SOL    HW2 4466   2.972   0.433   1.938  1.3066  1.6025  2.5110
    1SOL    HW3 4467   2.896   0.559   1.904  0.6998  0.6591  0.3422
    1SOL    MW4 4468   2.901   0.483   1.946  0.3419  0.6467  0.3704
    1SOL     OW 4469   2.898   0.713   1.836 -0.4837 -0.2011  0.3356
    1SOL    HW2 4470   2.973   0.760   1.872 -0.7374  0.4239  0.0432
    1SOL    HW3 4471   2.822   0.754   1.878 -0.7416  0.0655 -0.3818
    1SOL    MW4 4472   2.898   0.724   1.847 -0.5512 -0.0834  0.2024
    1SOL     OW 4473   2.679   0.874   1.968 -0.0057  0.4275 -0.0642
    1SOL    HW2 4474   2.681   0.964   1.936 -0.0937  0.6428  0.5306
    1SOL    HW3 4475   2.604   0.835   1.924  0.0203  0.6462 -0.3083
    1SOL    MW4 4476   2.670   0.881   1.958 -0.0141  0.4848 -0.0179
    1SOL     OW 4477   2.653   1.138   1.894 -0.1773  0.0380  0.0116
    1SOL    HW2 4478   2.572   1.186   1.909 -0.3835 -0.3693  0.2014
    1SOL    HW3 4479   2.666   1.142   1.799 -0.5571 -0.1190 -0.0487
    1SOL    MW4 4480   2.644   1.145   1.883 -0.2546 -0.0365  0.0287
    1SOL     OW 4481   2.884   1.233   1.989 -0.3799 -0.1119  0.7437
    1SOL    HW2 4482   2.872   1.326   1.972  0.9806 -0.3455 -1.7474
    1SOL    HW3 4483   2.801   1.193   1.963 -0.0325  0.1283 -0.8159
    1SOL    MW4 4484   2.871   1.240   1.983 -0.1545 -0.1110  0.2092
    1SOL     OW 4485   2.886   1.490   1.899 -0.3045  0.6811  0.1416
    1SOL    HW2 4486   2.971   1.521   1.929  0.0501  0.3771 -0.5358
    1SOL    HW3 4487   2.895   1.483   1.804 -1.3859  1.5509 -0.0271
    1SOL    MW4 4488   2.898   1.493   1.891 -0.4005  0.7558  0.0302
    1SOL     OW 4489   2.681   1.630   1.997 -0.0971 -0.0920  0.0172
    1SOL    HW2 4490   2.749   1.581   1.952  1.0970  0.3340  1.3180
    1SOL    HW3 4491   2.599   1.598   1.959  0.8164 -0.6340 -1.5292
    1SOL    MW4 4492   2.679   1.619   1.986  0.1810 -0.1072 -0.0153
    1SOL     OW 4493   2.666   1.943   1.936  0.0325  0.5431 -0.1201
    1SOL    HW2 4494   2.737   1.988   1.982 -0.0631 -1.2818  1.8910
    1SOL    HW3 4495   2.667   1.854   1.971 -0.3515 -0.8276 -3.3488
    1SOL    MW4 4496   2.676   1.937   1.947 -0.0305  0.1214 -0.2807
    1SOL     OW 4497   2.897   2.084   2.020  0.1554  0.6370  0.2690
    1SOL    HW2 4498   2.924   2.074   2.111 -1.0251  1.0264  0.6719
    1SOL    HW3 4499   2.950   2.021   1.972 -0.0152 -0.3647  1.3812
    1SOL    MW4 4500   2.907   2.075   2.026 -0.0226  0.5565  0.4687
    1SOL     OW 4501   2.890   2.314   1.858  0.3867 -0.5069 -0.0013
    1SOL    HW2 4502   2.967   2.359   1.893  0.2072 -0.7529  0.6981
    1SOL    HW3 4503   2.881   2.236   1.911 -1.8047  0.7304  1.5209
    1SOL    MW4 4504   2.899   2.310   1.869  0.0739 -0.3760  0.2917
    1SOL     OW 4505   2.650   2.429   1.968  0.0248 -0.5891  0.1561
    1SOL    HW2 4506   2.660   2.522   1.946  0.2758 -0.2312  1.7277
    1SOL    HW3 4507   2.731   2.389   1.938 -0.3394 -0.4243 -1.0938
    1SOL    MW4 4508   2.662   2.436   1.961  0.0100 -0.5202  0.1985
    1SOL     OW 4509   2.704   2.703   1.902 -0.8010  0.2357  0.6110
    1SOL    HW2 4510   2.629   2.759   1.921 -0.9416  0.3421 -0.2372
    1SOL    HW3 4511   2.701   2.690   1.807  0.7902  0.9758  0.4542
    1SOL    MW4 4512   2.693   2.708   1.892 -0.6092  0.3476  0.4783
    1SOL     OW 4513   2.936   2.839   1.975  0.1730  0.4739  0.1772
    1SOL    HW2 4514   2.933   2.922   1.927  0.5688  0.3225 -0.1150
    1SOL    HW3 4515   2.861   2.790   1.942  0.3255  0.4520 -0.1469
    1SOL    MW4 4516   2.926   2.843   1.964  0.2453  0.4508  0.0958
    1SOL     OW 4517   2.930   3.083   1.862 -0.6203 -0.1639 -0.6821
    1SOL    HW2 4518   2.997   3.134   1.907  0.1474  0.3037 -2.3241
    1SOL    HW3 4519   2.848   3.129   1.881 -0.5299 -0.8156  1.4484
    1SOL    MW4 4520   2.928   3.096   1.870 -0.5074 -0.1884 -0.6177
    1SOL     OW 4521   2.708   3.241   1.934  0.0580 -0.0894 -0.2463
    1SOL    HW2 4522   2.685   3.330   1.908 -1.1807 -0.3692 -0.1132
    1SOL    HW3 4523   2.626   3.192   1.929  0.7425 -1.2477 -0.4038
    1SOL    MW4 4524   2.695   3.246   1.930 -0.0150 -0.2792 -0.2495
    1SOL     OW 4525   2.720   3.508   1.844 -0.1959 -0.4676 -0.1217
    1SOL    HW2 4526   2.800   3.547   1.880 -0.0500 -2.7943  2.1759
    1SOL    HW3 4527   2.650   3.561   1.882  0.1784  1.3169 -1.8142
    1SOL    MW4 4528   2.721   3.520   1.854 -0.1268 -0.5393 -0.0420
    1SOL     OW 4529   2.940   3.608   1.933 -0.2941 -0.0762  0.1629
    1SOL    HW2 4530   2.943   3.598   2.028 -0.3013 -1.6569  0.0194
    1SOL    HW3 4531   3.023   3.569   1.903  0.1939  1.3852 -0.4036
    1SOL    MW4 4532   2.951   3.601   1.941 -0.2308 -0.0918  0.0691
    1SOL     OW 4533   2.926   3.891   1.868 -0.1017  0.3910 -0.2309
    1SOL    HW2 4534   2.910   3.801   1.894  0.0438  0.5546  0.4484
    1SOL    HW3 4535   2.929   3.889   1.772  0.2152 -0.3714 -0.2080
    1SOL    MW4 4536   2.924   3.879   1.859 -0.0408  0.3119 -0.1383
    1SOL     OW 4537   2.699   4.014   1.971 -0.0969 -0.1216 -0.2020
    1SOL    HW2 4538   2.775   3.966   1.937 -0.2320 -0.8483  0.4881
    1SOL    HW3 4539   2.624   3.970   1.932 -0.1450  0.9715 -1.3476
    1SOL    MW4 4540   2.699   4.002   1.961 -0.1211 -0.0734 -0.2621
    1SOL     OW 4541   2.690   4.258   1.837 -0.6584 -0.0641  0.2104
    1SOL    HW2 4542   2.696   4.171   1.878  1.4670  0.0194  0.1287
    1SOL    HW3 4543   2.689   4.240   1.743 -0.4164 -0.0187  0.1983
    1SOL    MW4 4544   2.691   4.244   1.830 -0.3459 -0.0477  0.1982
    1SOL     OW 4545   2.925   4.376   1.974 -0.5174  0.0839 -0.8024
    1SOL    HW2 4546   2.905   4.368   2.067 -1.2059  2.8497 -0.6651
    1SOL    HW3 4547   2.853   4.332   1.930 -0.2084 -1.2089 -0.0540
    1SOL    MW4 4548   2.913   4.369   1.981 -0.5674  0.2780 -0.6855
    1SOL     OW 4549   3.334   4.624   1.923 -0.5468 -0.4456  0.3578
    1SOL    HW2 4550   3.347   4.532   1.948  0.5106 -0.6782 -1.0231
    1SOL    HW3 4551   3.319   4.621   1.829 -0.0898  0.8523  0.2448
    1SOL    MW4 4552   3.334   4.611   1.914 -0.3467 -0.3052  0.1607
    1SOL     OW 4553   3.109   0.116   1.985  0.2583 -0.5612  0.2591
    1SOL    HW2 4554   3.118   0.134   2.079  0.0507 -1.1706  0.3960
    1SOL    HW3 4555   3.187   0.065   1.963  0.4850 -0.1184  0.0210
    1SOL    MW4 4556   3.120   0.111   1.994  0.2606 -0.5831  0.2458
    1SOL     OW 4557   3.113   0.356   1.845 -0.3223  0.1840  0.0205
    1SOL    HW2 4558   3.098   0.265   1.873  0.0357  0.0339 -0.2740
    1SOL    HW3 4559   3.105   0.353   1.750  0.5279  0.3063 -0.0521
    1SOL    MW4 4560   3.110   0.343   1.836 -0.1631  0.1803 -0.0280
    1SOL     OW 4561   3.319   0.453   2.007  0.1357  0.6504 -0.5874
    1SOL    HW2 4562   3.399   0.411   1.978  0.4043  2.1533 -2.0784
    1SOL    HW3 4563   3.252   0.423   1.946 -0.6115 -1.0634  0.9981
    1SOL    MW4 4564   3.320   0.444   1.995  0.0725  0.6226 -0.5751
    1SOL     OW 4565   3.342   0.720   1.924 -0.2329 -0.3443 -0.2697
    1SOL    HW2 4566   3.264   0.770   1.948  0.1351 -0.7760  1.9955
    1SOL    HW3 4567   3.324   0.631   1.956  1.1065 -0.4938  0.1141
    1SOL    MW4 4568   3.329   0.715   1.932 -0.0079 -0.4210  0.0798
    1SOL     OW 4569   3.107   0.869   1.952 -0.1856 -0.4252  0.9233
    1SOL    HW2 4570   3.123   0.873   2.046  1.9420 -0.9615  0.6181
    1SOL    HW3 4571   3.114   0.959   1.922 -1.6340 -0.1489  1.3770
    1SOL    MW4 4572   3.110   0.881   1.960 -0.0961 -0.4596  0.9428
    1SOL     OW 4573   3.107   1.136   1.857 -0.6900 -0.1023  0.1082
    1SOL    HW2 4574   3.186   1.185   1.881 -0.0183 -0.2567 -1.7094
    1SOL    HW3 4575   3.039   1.171   1.914  0.2817  1.3586  0.4060
    1SOL    MW4 4576   3.109   1.147   1.868 -0.4733  0.0702 -0.0923
    1SOL     OW 4577   3.327   1.248   1.964  0.0927 -0.4135  0.4511
    1SOL    HW2 4578   3.342   1.251   2.058  0.3360 -0.7302  0.4181
    1SOL    HW3 4579   3.327   1.340   1.937 -0.4707 -0.2955  0.8397
    1SOL    MW4 4580   3.329   1.261   1.973  0.0503 -0.4399  0.4979
    1SOL     OW 4581   3.352   1.522   1.888  0.0538 -0.1305 -0.4548
    1SOL    HW2 4582   3.427   1.574   1.917  1.0367 -0.3413 -2.5587
    1SOL    HW3 4583   3.276   1.568   1.926  1.1064  1.0724  0.2608
    1SOL    MW4 4584   3.352   1.535   1.897  0.3226  0.0004 -0.6379
    1SOL     OW 4585   3.117   1.659   1.983  0.0229 -0.1070  0.1400
    1SOL    HW2 4586   3.140   1.656   2.076 -2.0841 -0.2308  0.6902
    1SOL    HW3 4587   3.097   1.750   1.966 -0.3720 -0.2186  0.0051
    1SOL    MW4 4588   3.117   1.670   1.993 -0.3073 -0.1379  0.1949
    1SOL     OW 4589   3.108   1.912   1.882 -0.5388  0.4660  0.1677
    1SOL    HW2 4590   3.180   1.954   1.930  0.5379 -1.7909  0.5998
    1SOL    HW3 4591   3.133   1.919   1.790 -0.0981  0.2994  0.2736
    1SOL    MW4 4592   3.121   1.919   1.876 -0.3388  0.1463  0.2385
    1SOL     OW 4593   3.345   2.032   2.017 -0.6807  0.0415  0.5107
    1SOL    HW2 4594   3.432   2.000   1.993 -0.8517  0.1950 -0.3117
    1SOL    HW3 4595   3.337   2.116   1.972 -1.9509 -0.7859 -0.8141
    1SOL    MW4 4596   3.356   2.039   2.008 -0.8707 -0.0474  0.2275
    1SOL     OW 4597   3.335   2.294   1.911 -0.4121  0.1919  0.1077
    1SOL    HW2 4598   3.262   2.352   1.930  0.7106  1.8087 -0.4122
    1SOL    HW3 4599   3.336   2.288   1.815 -1.0360 -1.3876  0.1780
    1SOL    MW4 4600   3.326   2.301   1.901 -0.3464  0.1972  0.0485
    1SOL     OW 4601   3.098   2.430   1.984  0.1078  0.1298  0.3588
    1SOL    HW2 4602   3.113   2.429   2.078 -1.2033 -0.9934  0.5799
    1SOL    HW3 4603   3.124   2.518   1.956 -0.3204  0.7721  1.9158
    1SOL    MW4 4604   3.103   2.441   1.992 -0.1216  0.0660  0.5934
    1SOL     OW 4605   3.132   2.685   1.876 -0.1803  0.0491 -0.1844
    1SOL    HW2 4606   3.071   2.750   1.911 -0.1516 -0.1013  0.1504
    1SOL    HW3 4607   3.126   2.695   1.781 -2.3055 -1.3999 -0.2404
    1SOL    MW4 4608   3.123   2.695   1.868 -0.4568 -0.1619 -0.1477
    1SOL     OW 4609   3.361   2.815   1.950 -0.1460  0.1235  0.2432
    1SOL    HW2 4610   3.367   2.810   2.045  0.3926 -2.2757  0.1030
    1SOL    HW3 4611   3.278   2.772   1.929  0.4290 -0.6752 -0.4509
    1SOL    MW4 4612   3.351   2.809   1.960  0.0010 -0.2985  0.1332
    1SOL     OW 4613   3.390   3.080   1.843 -0.1129 -0.1593  0.2941
    1SOL    HW2 4614   3.470   3.113   1.884 -1.2350  0.0196  2.3837
    1SOL    HW3 4615   3.374   2.996   1.885 -1.6808  0.3625  0.7686
    1SOL    MW4 4616   3.399   3.073   1.854 -0.4678 -0.0668  0.6323
    1SOL     OW 4617   3.156   3.204   1.952 -0.2022  0.1831  0.3483
    1SOL    HW2 4618   3.170   3.204   2.046 -0.8349 -0.4066  0.4442
    1SOL    HW3 4619   3.236   3.163   1.916 -0.3169 -0.3416  0.6853
    1SOL    MW4 4620   3.169   3.198   1.959 -0.3006  0.0360  0.4054
    1SOL     OW 4621   3.185   3.463   1.851  0.0347  0.3255 -0.6923
    1SOL    HW2 4622   3.168   3.376   1.885  0.5032  0.5650  0.1700
    1SOL    HW3 4623   3.258   3.496   1.904 -0.9096  1.7026 -0.2124
    1SOL    MW4 4624   3.192   3.456   1.862 -0.0281  0.5388 -0.5152
    1SOL     OW 4625   3.406   3.596   1.979  0.0958 -0.0150  0.1015
    1SOL    HW2 4626   3.494   3.564   1.955 -1.5054 -2.0476 -3.4471
    1SOL    HW3 4627   3.408   3.689   1.958  1.0134 -0.3210 -1.2172
    1SOL    MW4 4628   3.418   3.604   1.973  0.0055 -0.3235 -0.5407
    1SOL     OW 4629   3.387   3.873   1.916  0.1608 -0.0242 -0.1517
    1SOL    HW2 4630   3.310   3.911   1.959  1.8763  3.5131  0.0587
    1SOL    HW3 4631   3.366   3.874   1.823  0.2984  1.9500 -0.1884
    1SOL    MW4 4632   3.374   3.878   1.909  0.4053  0.7029 -0.1289
    1SOL     OW 4633   3.148   4.010   1.990 -0.1166  0.6029  0.0378
    1SOL    HW2 4634   3.141   4.006   2.085  0.9054  1.2718  0.1485
    1SOL    HW3 4635   3.064   3.976   1.958 -0.0219 -0.7433  1.1593
    1SOL    MW4 4636   3.136   4.005   1.998  0.0308  0.5136  0.2004
    1SOL     OW 4637   3.167   4.258   1.885 -0.3743  0.5167 -0.0913
    1SOL    HW2 4638   3.160   4.165   1.908  0.6899  0.4842  0.1088
    1SOL    HW3 4639   3.094   4.299   1.932 -2.8011 -0.6583 -2.6836
    1SOL    MW4 4640   3.156   4.251   1.894 -0.5541  0.3576 -0.4069
    1SOL     OW 4641   3.382   4.351   2.005  0.0988 -0.5272  0.0195
    1SOL    HW2 4642   3.457   4.339   1.946 -0.8079 -0.0486 -1.2629
    1SOL    HW3 4643   3.310   4.306   1.962 -0.8891  0.9222  0.0980
    1SOL    MW4 4644   3.383   4.344   1.991 -0.1512 -0.2728 -0.1394
    1SOL     OW 4645   3.791   4.667   1.858 -0.1613 -0.1732  0.1905
    1SOL    HW2 4646   3.796   4.572   1.874 -0.3198 -0.2692 -0.3353
    1SOL    HW3 4647   3.712   4.695   1.905 -0.3796 -0.3801 -0.0567
    1SOL    MW4 4648   3.781   4.658   1.866 -0.2112 -0.2131  0.0886
    1SOL     OW 4649   3.573   0.084   1.993  0.4080 -0.3444  0.1531
    1SOL    HW2 4650   3.579   0.076   2.088 -0.3224 -0.4711  0.1904
    1SOL    HW3 4651   3.494   0.035   1.969  0.3145  0.0921 -0.4633
    1SOL    MW4 4652   3.563   0.077   2.002  0.2995 -0.3035  0.0768
    1SOL     OW 4653   3.545   0.358   1.914 -0.5605  0.2738  0.6671
    1SOL    HW2 4654   3.556   0.267   1.941  0.8863  0.3315  0.2831
    1SOL    HW3 4655   3.556   0.357   1.819  1.3049  1.1177  0.8639
    1SOL    MW4 4656   3.548   0.346   1.905 -0.1235  0.3928  0.6425
    1SOL     OW 4657   3.785   0.484   1.974  0.0479  0.7170 -0.1300
    1SOL    HW2 4658   3.763   0.574   1.951  1.3844  1.2552  0.6330
    1SOL    HW3 4659   3.705   0.435   1.958 -1.1625  2.3114  0.8649
    1SOL    MW4 4660   3.771   0.489   1.969  0.0646  0.9984  0.1020
    1SOL     OW 4661   3.798   0.765   1.917  0.0729 -0.5237 -0.1695
    1SOL    HW2 4662   3.717   0.793   1.959  0.1329 -0.4971 -0.0734
    1SOL    HW3 4663   3.773   0.750   1.825 -0.0586 -0.5958 -0.1220
    1SOL    MW4 4664   3.784   0.766   1.910  0.0634 -0.5296 -0.1506
    1SOL     OW 4665   3.562   0.869   2.022  0.2361 -0.4881  0.1158
    1SOL    HW2 4666   3.547   0.947   1.969 -1.2026 -0.3115  0.7714
    1SOL    HW3 4667   3.500   0.805   1.989  0.3188 -0.8432  0.6443
    1SOL    MW4 4668   3.552   0.871   2.011  0.0572 -0.5117  0.2720
    1SOL     OW 4669   3.554   1.110   1.907  0.1549 -0.0603 -0.1208
    1SOL    HW2 4670   3.474   1.159   1.925 -0.2560 -0.6793 -0.2112
    1SOL    HW3 4671   3.573   1.127   1.815  0.6331  0.8042  0.1381
    1SOL    MW4 4672   3.546   1.118   1.897  0.1638 -0.0280 -0.0985
    1SOL     OW 4673   3.754   1.277   1.972 -0.0033 -0.3678 -0.7239
    1SOL    HW2 4674   3.771   1.268   2.066  0.9341 -0.4813 -0.9026
    1SOL    HW3 4675   3.669   1.234   1.959  0.8532 -2.2538 -0.2794
    1SOL    MW4 4676   3.745   1.270   1.983  0.2337 -0.6317 -0.6888
    1SOL     OW 4677   3.797   1.545   1.860  0.0618  0.5903 -0.7818
    1SOL    HW2 4678   3.873   1.570   1.913 -0.2501 -0.4338  0.1770
    1SOL    HW3 4679   3.770   1.460   1.896 -0.9281  0.4762 -1.7688
    1SOL    MW4 4680   3.804   1.537   1.871 -0.1099  0.4401 -0.7855
    1SOL     OW 4681   3.593   1.679   1.970 -0.3685 -0.1787 -0.2902
    1SOL    HW2 4682   3.610   1.773   1.976 -0.5693 -0.2028  0.9916
    1SOL    HW3 4683   3.675   1.641   1.941  0.3163  0.2119  1.0792
    1SOL    MW4 4684   3.606   1.686   1.967 -0.3049 -0.1303  0.0596
    1SOL     OW 4685   3.590   1.963   1.943 -1.0574 -0.1674 -0.2410
    1SOL    HW2 4686   3.677   1.988   1.972 -0.7521 -1.4389 -0.0402
    1SOL    HW3 4687   3.588   1.986   1.850 -1.9928  3.8041  0.6585
    1SOL    MW4 4688   3.601   1.970   1.935 -1.1404  0.1888 -0.0960
    1SOL     OW 4689   3.841   2.070   2.007  0.3068 -0.0707 -0.0663
    1SOL    HW2 4690   3.908   2.022   1.958  1.4484  0.7579  0.6520
    1SOL    HW3 4691   3.820   2.146   1.952  0.3102 -0.0687 -0.0650
    1SOL    MW4 4692   3.847   2.074   1.993  0.4580  0.0391  0.0286
    1SOL     OW 4693   3.809   2.310   1.871  0.6394  1.1014 -0.5681
    1SOL    HW2 4694   3.881   2.345   1.924  0.8092  0.5263 -0.4124
    1SOL    HW3 4695   3.730   2.340   1.914  0.7356 -0.7602  1.0129
    1SOL    MW4 4696   3.808   2.318   1.884  0.6745  0.7799 -0.3392
    1SOL     OW 4697   3.585   2.410   1.983  0.1379  0.2320  0.6742
    1SOL    HW2 4698   3.581   2.485   1.923  0.9879 -0.0958  0.2088
    1SOL    HW3 4699   3.512   2.355   1.956  0.6803 -0.0485 -0.2471
    1SOL    MW4 4700   3.575   2.413   1.971  0.3216  0.1516  0.4913
    1SOL     OW 4701   3.587   2.662   1.843 -0.0116  0.1377  0.2412
    1SOL    HW2 4702   3.666   2.694   1.888  0.0546  3.3461 -2.0128
    1SOL    HW3 4703   3.519   2.725   1.867 -0.7478  0.0432 -1.5661
    1SOL    MW4 4704   3.589   2.675   1.852 -0.0999  0.5484 -0.2947
    1SOL     OW 4705   3.808   2.785   1.967  0.1923  0.1515  0.2542
    1SOL    HW2 4706   3.820   2.808   2.059 -2.1006  1.7747  0.1645
    1SOL    HW3 4707   3.800   2.868   1.922  2.7499 -0.5912 -1.6727
    1SOL    MW4 4708   3.808   2.799   1.973  0.2270  0.2675 -0.0119
    1SOL     OW 4709   3.774   3.055   1.891  0.0488  0.2490 -0.3409
    1SOL    HW2 4710   3.697   3.090   1.935  0.6611 -1.0332  1.8423
    1SOL    HW3 4711   3.761   3.075   1.798 -1.8922  1.8872  0.2640
    1SOL    MW4 4712   3.762   3.062   1.885 -0.1264  0.2956  0.0268
    1SOL     OW 4713   3.572   3.214   1.988 -0.0127  0.1242 -0.4538
    1SOL    HW2 4714   3.573   3.209   2.084  0.2439  1.3633 -0.3910
    1SOL    HW3 4715   3.597   3.304   1.968 -0.1762 -0.0970 -1.6896
    1SOL    MW4 4716   3.576   3.225   1.998 -0.0007  0.2584 -0.6084
    1SOL     OW 4717   3.637   3.463   1.907  0.3605 -0.6401 -0.0093
    1SOL    HW2 4718   3.708   3.520   1.935 -0.2755 -0.3191  0.9936
    1SOL    HW3 4719   3.633   3.474   1.812  0.3485  0.8752  0.1510
    1SOL    MW4 4720   3.646   3.472   1.898  0.2749 -0.3977  0.1441
    1SOL     OW 4721   3.840   3.630   1.986  0.1472 -0.2129  0.1886
    1SOL    HW2 4722   3.909   3.574   1.950  0.1826 -0.3344  0.4419
    1SOL    HW3 4723   3.862   3.718   1.956  0.0224 -0.3512 -0.3137
    1SOL    MW4 4724   3.852   3.635   1.977  0.1354 -0.2470  0.1557
    1SOL     OW 4725   3.848   3.899   1.902 -0.5760  0.4713 -0.3299
    1SOL    HW2 4726   3.773   3.939   1.944 -0.8168  0.1615 -0.4624
    1SOL    HW3 4727   3.829   3.904   1.808 -1.2827 -1.2446 -0.2994
    1SOL    MW4 4728   3.836   3.905   1.895 -0.7010  0.2041 -0.3432
    1SOL     OW 4729   3.610   4.042   2.005 -0.5094  0.1216  0.3502
    1SOL    HW2 4730   3.597   4.022   2.098 -3.3552  1.8846  0.3688
    1SOL    HW3 4731   3.536   4.001   1.961 -0.0215  0.6326 -0.9690
    1SOL    MW4 4732   3.599   4.034   2.011 -0.8204  0.4220  0.1788
    1SOL     OW 4733   3.606   4.278   1.871 -0.1216  0.1084 -0.2331
    1SOL    HW2 4734   3.685   4.325   1.896  0.5871 -0.1442 -1.9405
    1SOL    HW3 4735   3.609   4.198   1.924  1.2293 -0.3088 -0.9053
    1SOL    MW4 4736   3.617   4.274   1.881  0.1502  0.0200 -0.5471
    1SOL     OW 4737   3.825   4.409   1.943 -0.2319 -0.0420  0.4292
    1SOL    HW2 4738   3.815   4.405   2.038  1.1542 -1.3997  0.5424
    1SOL    HW3 4739   3.896   4.347   1.924 -0.2200  0.5174 -1.4438
    1SOL    MW4 4740   3.833   4.400   1.953 -0.0474 -0.1478  0.1969
    1SOL     OW 4741   4.244   4.634   1.900  0.2937 -0.1241 -0.1473
    1SOL    HW2 4742   4.158   4.668   1.925 -0.2710 -1.3351 -0.3934
    1SOL    HW3 4743   4.306   4.691   1.945 -0.6444  0.6869  0.1359
    1SOL    MW4 4744   4.241   4.646   1.909  0.0954 -0.1769 -0.1425
    1SOL     OW 4745   4.023   0.086   1.996  0.0528  0.1334  0.1335
    1SOL    HW2 4746   4.020   0.087   2.092 -0.0712 -0.0125  0.1315
    1SOL    HW3 4747   3.939   0.047   1.971 -0.3251  1.0377 -0.0509
    1SOL    MW4 4748   4.011   0.081   2.006 -0.0134  0.2334  0.1087
    1SOL     OW 4749   4.029   0.358   1.936 -0.0243  0.3663  0.3536
    1SOL    HW2 4750   4.019   0.264   1.954  0.0188  0.4116  0.6179
    1SOL    HW3 4751   3.940   0.392   1.943 -0.0088  0.3825  0.4834
    1SOL    MW4 4752   4.016   0.350   1.940 -0.0167  0.3745  0.4055
    1SOL     OW 4753   4.256   0.486   2.034  0.1698 -0.1003 -0.0825
    1SOL    HW2 4754   4.258   0.487   2.130 -0.5918  2.3422 -0.0568
    1SOL    HW3 4755   4.177   0.436   2.012 -1.1182  1.5632  0.6341
    1SOL    MW4 4756   4.246   0.480   2.044 -0.1006  0.4415  0.0157
    1SOL     OW 4757   4.245   0.761   1.912  0.3927  0.1868 -0.1469
    1SOL    HW2 4758   4.210   0.689   1.965 -1.0552  1.1340  0.2053
    1SOL    HW3 4759   4.245   0.728   1.822 -3.5588  0.9157 -0.4836
    1SOL    MW4 4760   4.241   0.747   1.907 -0.3190  0.4080 -0.1448
    1SOL     OW 4761   4.029   0.937   1.979 -0.2576 -0.5273 -0.3317
    1SOL    HW2 4762   4.101   0.887   1.940 -0.0478 -0.0077 -0.6272
    1SOL    HW3 4763   3.951   0.886   1.960  0.1136 -1.4368  0.5791
    1SOL    MW4 4764   4.028   0.924   1.971 -0.1807 -0.5787 -0.2506
    1SOL     OW 4765   3.983   1.195   1.888 -0.3874  0.0778  0.1056
    1SOL    HW2 4766   3.984   1.102   1.906 -2.4192 -0.2867 -1.3700
    1SOL    HW3 4767   3.893   1.222   1.906 -0.1937  1.4411 -0.8428
    1SOL    MW4 4768   3.971   1.187   1.892 -0.6299  0.2096 -0.2142
    1SOL     OW 4769   4.229   1.248   1.992  0.0792  0.3538 -0.3856
    1SOL    HW2 4770   4.216   1.255   2.087 -0.1684 -1.1752 -0.2969
    1SOL    HW3 4771   4.141   1.238   1.957  0.2455  0.0388 -0.7047
    1SOL    MW4 4772   4.216   1.248   2.000  0.0687  0.1105 -0.4160
    1SOL     OW 4773   4.244   1.526   1.921 -0.4973 -0.3344  0.3948
    1SOL    HW2 4774   4.226   1.434   1.943  1.2891 -0.7155  0.3198
    1SOL    HW3 4775   4.232   1.530   1.826 -0.2452 -0.5637  0.3532
    1SOL    MW4 4776   4.240   1.514   1.911 -0.2284 -0.4150  0.3793
    1SOL     OW 4777   4.031   1.686   2.001  0.1428 -0.0245  0.0744
    1SOL    HW2 4778   4.024   1.706   2.095  0.0052 -2.4558  0.6094
    1SOL    HW3 4779   4.107   1.629   1.995 -1.9204 -2.7677 -0.7915
    1SOL    MW4 4780   4.040   1.681   2.013 -0.1473 -0.7071  0.0308
    1SOL     OW 4781   4.059   1.936   1.890  0.1252  0.3995 -0.3265
    1SOL    HW2 4782   4.057   1.847   1.925  0.0148 -0.4697 -2.4685
    1SOL    HW3 4783   4.044   1.925   1.796  0.4758  2.6535 -0.6707
    1SOL    MW4 4784   4.057   1.923   1.882  0.1574  0.5821 -0.6545
    1SOL     OW 4785   4.306   2.026   2.030  0.1240 -0.5619 -0.0613
    1SOL    HW2 4786   4.291   2.019   2.124 -0.8090  1.5763 -0.0311
    1SOL    HW3 4787   4.225   1.995   1.990  0.5851 -1.6389 -0.1847
    1SOL    MW4 4788   4.294   2.021   2.037  0.0615 -0.4220 -0.0737
    1SOL     OW 4789   4.287   2.277   1.886 -0.1597  0.1094  0.2840
    1SOL    HW2 4790   4.309   2.199   1.936  0.3618  0.6983  0.9888
    1SOL    HW3 4791   4.353   2.341   1.911 -0.4719  0.7145 -0.4291
    1SOL    MW4 4792   4.298   2.275   1.896 -0.1321  0.2668  0.2830
    1SOL     OW 4793   4.055   2.409   1.993  0.2557  0.1371 -0.1813
    1SOL    HW2 4794   4.062   2.403   2.088 -0.5234 -1.1384 -0.1913
    1SOL    HW3 4795   4.128   2.358   1.959  0.5436  0.6040 -0.2755
    1SOL    MW4 4796   4.065   2.401   2.001  0.1907  0.0300 -0.1948
    1SOL     OW 4797   4.059   2.684   1.880 -0.3436 -0.3734 -0.7817
    1SOL    HW2 4798   4.039   2.595   1.907  0.6656 -0.2886  0.2660
    1SOL    HW3 4799   3.983   2.735   1.910 -0.7962 -0.8192 -1.1486
    1SOL    MW4 4800   4.046   2.679   1.887 -0.2699 -0.4213 -0.6918
    1SOL     OW 4801   4.278   2.832   1.967 -0.2394 -0.0917 -0.2956
    1SOL    HW2 4802   4.243   2.836   2.056 -0.2198 -0.7671 -0.2536
    1SOL    HW3 4803   4.217   2.774   1.920 -0.0553 -0.0201 -0.6263
    1SOL    MW4 4804   4.265   2.825   1.972 -0.2127 -0.1714 -0.3338
    1SOL     OW 4805   4.261   3.094   1.885 -0.3438  0.3148 -0.5489
    1SOL    HW2 4806   4.176   3.133   1.902  0.1766  1.4481 -0.4921
    1SOL    HW3 4807   4.258   3.008   1.928 -1.3993  0.4123 -0.4336
    1SOL    MW4 4808   4.250   3.088   1.893 -0.4144  0.4771 -0.5262
    1SOL     OW 4809   4.010   3.204   1.957 -0.0044  0.1142 -0.3841
    1SOL    HW2 4810   4.001   3.208   2.052 -0.8220  1.3686 -0.5117
    1SOL    HW3 4811   3.938   3.148   1.928 -0.1369  0.2551 -0.3253
    1SOL    MW4 4812   3.999   3.197   1.966 -0.1299  0.2983 -0.3932
    1SOL     OW 4813   4.008   3.458   1.853  0.0868 -0.0859 -0.0619
    1SOL    HW2 4814   4.086   3.489   1.900  1.4644 -0.9970 -1.6955
    1SOL    HW3 4815   3.986   3.376   1.897 -0.1632  0.3601  0.6424
    1SOL    MW4 4816   4.016   3.451   1.865  0.2351 -0.1471 -0.1847
    1SOL     OW 4817   4.241   3.580   1.949  0.1107  0.3128 -0.0475
    1SOL    HW2 4818   4.279   3.665   1.932  0.1568  0.3945  0.4619
    1SOL    HW3 4819   4.312   3.518   1.935  0.1123  0.3663 -0.2850
    1SOL    MW4 4820   4.255   3.583   1.945  0.1173  0.3304 -0.0118
    1SOL     OW 4821   4.304   3.844   1.848  0.2850  0.1510 -0.0914
    1SOL    HW2 4822   4.367   3.911   1.874  1.5829 -0.4432 -1.6897
    1SOL    HW3 4823   4.294   3.855   1.754 -0.6136 -0.9449 -0.1344
    1SOL    MW4 4824   4.311   3.854   1.839  0.3376 -0.0720 -0.3079
    1SOL     OW 4825   4.104   3.972   1.999 -0.0449  0.3453 -0.0703
    1SOL    HW2 4826   4.179   3.937   1.951  0.1784 -0.8497  1.1477
    1SOL    HW3 4827   4.028   3.943   1.949  0.2482  0.6409 -0.7005
    1SOL    MW4 4828   4.104   3.964   1.986  0.0229  0.2270  0.0072
    1SOL     OW 4829   4.048   4.232   1.913 -0.1872  0.1475  0.0440
    1SOL    HW2 4830   4.124   4.284   1.939 -0.8242  0.6006  1.0156
    1SOL    HW3 4831   4.070   4.143   1.942  0.1162  0.2183  0.0351
    1SOL    MW4 4832   4.061   4.227   1.920 -0.2313  0.2165  0.1711
    1SOL     OW 4833   4.274   4.362   1.991 -0.3068  0.2234 -0.3851
    1SOL    HW2 4834   4.272   4.358   2.087 -0.4393  0.8277 -0.3613
    1SOL    HW3 4835   4.260   4.455   1.970 -0.3090  0.0909 -0.9907
    1SOL    MW4 4836   4.272   4.374   2.001 -0.3247  0.2861 -0.4621
    1SOL     OW 4837   0.198   4.631   2.376 -0.7054  0.3132 -0.0158
    1SOL    HW2 4838   0.192   4.654   2.468  0.1273  0.2301  0.0668
    1SOL    HW3 4839   0.284   4.663   2.349 -0.5522 -0.5055 -0.5191
    1SOL    MW4 4840   0.209   4.638   2.384 -0.5753  0.1945 -0.0713
    1SOL     OW 4841   4.490   0.138   2.285  0.5719 -0.0212 -0.2196
    1SOL    HW2 4842   4.567   0.082   2.294  0.2277 -0.4636 -0.0464
    1SOL    HW3 4843   4.473   0.140   2.191  1.4126  0.9113 -0.3631
    1SOL    MW4 4844   4.498   0.131   2.273  0.6374  0.0435 -0.2155
    1SOL     OW 4845   0.019   0.394   2.405  0.4230  0.5793  0.0050
    1SOL    HW2 4846   0.078   0.449   2.353  0.5897  0.3721 -0.0225
    1SOL    HW3 4847   0.020   0.309   2.361  1.3752  0.0960  0.9434
    1SOL    MW4 4848   0.027   0.390   2.392  0.5706  0.4882  0.1249
    1SOL     OW 4849   0.253   0.509   2.276 -0.1477  0.1051  0.0732
    1SOL    HW2 4850   0.339   0.469   2.294 -0.0580  0.0486 -0.4693
    1SOL    HW3 4851   0.245   0.506   2.181  0.1854  2.0743 -0.0448
    1SOL    MW4 4852   0.263   0.503   2.266 -0.0919  0.3575 -0.0141
    1SOL     OW 4853   0.238   0.773   2.355 -0.2653  0.3734 -0.0509
    1SOL    HW2 4854   0.243   0.758   2.450 -0.6925  0.2654 -0.0430
    1SOL    HW3 4855   0.240   0.685   2.317  0.1290  0.4260 -0.1554
    1SOL    MW4 4856   0.239   0.759   2.363 -0.2697  0.3660 -0.0637
    1SOL     OW 4857   4.489   0.920   2.290  0.1567  0.2757 -0.6314
    1SOL    HW2 4858   4.568   0.868   2.307  0.0801  0.3389 -0.0807
    1SOL    HW3 4859   4.472   0.907   2.197  0.3533 -0.3870 -0.5795
    1SOL    MW4 4860   4.497   0.911   2.280  0.1726  0.1966 -0.5519
    1SOL     OW 4861   4.471   1.166   2.390  0.5892 -0.4757 -0.0220
    1SOL    HW2 4862   4.492   1.146   2.481  0.6856 -0.1627  0.0244
    1SOL    HW3 4863   4.482   1.083   2.344 -0.3644 -0.8410  0.4159
    1SOL    MW4 4864   4.475   1.152   2.396  0.4764 -0.4827  0.0420
    1SOL     OW 4865   0.189   1.299   2.282  0.3490 -0.0457 -0.1661
    1SOL    HW2 4866   0.101   1.269   2.303  0.1779  0.6850  0.1568
    1SOL    HW3 4867   0.208   1.260   2.197 -0.1428 -0.5060 -0.0647
    1SOL    MW4 4868   0.180   1.290   2.274  0.2615 -0.0100 -0.1101
    1SOL     OW 4869   0.244   1.555   2.373 -0.0668 -0.1961  0.3015
    1SOL    HW2 4870   0.246   1.545   2.468 -1.8711 -0.8781  0.2898
    1SOL    HW3 4871   0.235   1.465   2.340  2.4581 -0.1393 -0.6016
    1SOL    MW4 4872   0.243   1.542   2.381  0.0283 -0.2786  0.1810
    1SOL     OW 4873   0.016   1.653   2.229  0.0703 -0.0214  0.4445
    1SOL    HW2 4874   0.014   1.737   2.276  1.3661 -0.5295  1.4692
    1SOL    HW3 4875   0.104   1.619   2.248  0.1912 -0.7771 -1.4458
    1SOL    MW4 4876   0.028   1.660   2.238  0.2572 -0.1881  0.3304
    1SOL     OW 4877   0.020   1.898   2.362 -0.4986 -0.0382 -0.1004
    1SOL    HW2 4878  -0.062   1.946   2.346 -1.1605 -1.3743 -0.8334
    1SOL    HW3 4879   0.085   1.941   2.307 -0.7365  0.9638  0.3989
    1SOL    MW4 4880   0.017   1.910   2.353 -0.6173 -0.0823 -0.1309
    1SOL     OW 4881   0.208   2.040   2.227 -0.3378 -0.2089  0.5041
    1SOL    HW2 4882   0.281   2.002   2.276 -1.2966 -1.8103  0.7145
    1SOL    HW3 4883   0.245   2.057   2.140  1.1222  1.8443  1.4789
    1SOL    MW4 4884   0.222   2.037   2.222 -0.2716 -0.1490  0.6604
    1SOL     OW 4885   0.231   2.290   2.312 -0.1133  0.3455 -0.0629
    1SOL    HW2 4886   0.241   2.287   2.407  2.3611 -0.0337 -0.3041
    1SOL    HW3 4887   0.217   2.198   2.287  0.1044  0.3354 -0.1491
    1SOL    MW4 4888   0.230   2.277   2.321  0.2419  0.2942 -0.1059
    1SOL     OW 4889   0.005   2.446   2.261  0.1004  0.0030  0.2449
    1SOL    HW2 4890   0.026   2.531   2.299 -0.9329 -0.0249  0.9072
    1SOL    HW3 4891   0.083   2.392   2.278  0.0924  0.3223  1.3470
    1SOL    MW4 4892   0.018   2.450   2.268 -0.0370  0.0412  0.4776
    1SOL     OW 4893   0.016   2.720   2.350 -0.1528 -0.4263  0.8112
    1SOL    HW2 4894   0.009   2.690   2.441  0.0937  0.0593  0.9931
    1SOL    HW3 4895   0.099   2.768   2.347  0.1433 -0.9653  0.1734
    1SOL    MW4 4896   0.026   2.723   2.362 -0.0812 -0.4334  0.7510
    1SOL     OW 4897   0.257   2.840   2.281 -0.0638  0.1195  0.6974
    1SOL    HW2 4898   0.337   2.800   2.314 -0.4261 -0.2881  1.0990
    1SOL    HW3 4899   0.270   2.847   2.187  0.7411  0.7407  0.8561
    1SOL    MW4 4900   0.269   2.836   2.273 -0.0054  0.1478  0.7713
    1SOL     OW 4901   0.231   3.104   2.358 -0.3418  0.0727  0.7733
    1SOL    HW2 4902   0.143   3.130   2.331  0.3281  1.2980 -0.2872
    1SOL    HW3 4903   0.235   3.011   2.339 -0.2264  0.6822 -2.5822
    1SOL    MW4 4904   0.220   3.095   2.352 -0.2382  0.3147  0.1905
    1SOL     OW 4905   4.470   3.221   2.259 -0.2691 -0.0950  0.1575
    1SOL    HW2 4906   4.470   3.313   2.283 -1.2647 -0.3345  1.0766
    1SOL    HW3 4907   4.459   3.221   2.164  0.2546  0.7429  0.0969
    1SOL    MW4 4908   4.468   3.233   2.249 -0.3309 -0.0162  0.2706
    1SOL     OW 4909   4.474   3.477   2.364  0.2896  0.1572 -0.4201
    1SOL    HW2 4910   4.459   3.500   2.456  0.5226  2.0284 -0.8203
    1SOL    HW3 4911   4.395   3.506   2.319  0.4796 -0.0896 -0.9161
    1SOL    MW4 4912   4.462   3.484   2.370  0.3452  0.3715 -0.5381
    1SOL     OW 4913   0.202   3.573   2.226 -0.1125 -0.0547  0.1944
    1SOL    HW2 4914   0.267   3.510   2.260  0.1724  0.4690  0.6240
    1SOL    HW3 4915   0.121   3.549   2.271 -0.0438 -0.2244  0.2311
    1SOL    MW4 4916   0.200   3.561   2.237 -0.0658 -0.0081  0.2561
    1SOL     OW 4917   0.205   3.828   2.333  0.6377 -0.1928  0.3619
    1SOL    HW2 4918   0.129   3.864   2.288  2.2653  0.4776 -1.9614
    1SOL    HW3 4919   0.210   3.737   2.302  1.3129  0.0421 -0.2370
    1SOL    MW4 4920   0.195   3.821   2.323  0.9415 -0.0734 -0.0238
    1SOL     OW 4921   4.466   3.950   2.254 -0.1884 -0.3136 -0.4363
    1SOL    HW2 4922   4.493   4.025   2.307  1.1501 -1.1092  0.0493
    1SOL    HW3 4923   4.498   3.970   2.166 -0.0970 -0.1636 -0.3693
    1SOL    MW4 4924   4.474   3.962   2.249  0.0005 -0.3986 -0.3633
    1SOL     OW 4925   0.013   4.195   2.396 -0.4930  0.1235 -0.5252
    1SOL    HW2 4926   0.007   4.213   2.489 -0.5920  0.1000 -0.5263
    1SOL    HW3 4927   0.069   4.264   2.361 -0.6799  0.2925 -0.4928
    1SOL    MW4 4928   0.019   4.207   2.403 -0.5307  0.1431 -0.5212
    1SOL     OW 4929   0.202   4.364   2.290  0.2396 -0.1058  0.2047
    1SOL    HW2 4930   0.287   4.336   2.324  0.6381  1.5500  0.6224
    1SOL    HW3 4931   0.199   4.459   2.307 -1.1656  0.0752 -0.9236
    1SOL    MW4 4932   0.212   4.373   2.297  0.1068  0.1364  0.1109
    1SOL     OW 4933   0.686   4.643   2.337 -0.0881 -0.5804  0.6467
    1SOL    HW2 4934   0.680   4.637   2.432 -1.0779  0.3940  0.6506
    1SOL    HW3 4935   0.766   4.692   2.321  0.0172 -0.6422  0.9855
    1SOL    MW4 4936   0.696   4.648   2.347 -0.2048 -0.4597  0.6919
    1SOL     OW 4937   0.437   0.078   2.292 -0.5994  0.0885 -0.1510
    1SOL    HW2 4938   0.523   0.051   2.325 -0.9059 -0.0997  0.4912
    1SOL    HW3 4939   0.445   0.071   2.196 -0.8535 -2.8797  0.0060
    1SOL    MW4 4940   0.450   0.074   2.283 -0.6734 -0.3279 -0.0458
    1SOL     OW 4941   0.474   0.345   2.356 -0.2317 -0.2511  0.4711
    1SOL    HW2 4942   0.464   0.342   2.451 -1.4993 -0.3576  0.3394
    1SOL    HW3 4943   0.464   0.254   2.328  1.1425 -0.3720  0.3202
    1SOL    MW4 4944   0.472   0.333   2.365 -0.2176 -0.2811  0.4339
    1SOL     OW 4945   0.659   0.499   2.188  0.4157  0.3416  0.1113
    1SOL    HW2 4946   0.643   0.583   2.231 -0.7207  0.2032 -0.0241
    1SOL    HW3 4947   0.585   0.444   2.215  0.5392 -0.2511 -0.7305
    1SOL    MW4 4948   0.647   0.503   2.198  0.2820  0.2452 -0.0176
    1SOL     OW 4949   0.662   0.742   2.328 -0.4970  0.4338  0.4649
    1SOL    HW2 4950   0.672   0.747   2.423 -1.9767 -1.8942  0.7899
    1SOL    HW3 4951   0.595   0.808   2.308 -0.2298  0.8874  1.0559
    1SOL    MW4 4952   0.654   0.751   2.338 -0.6570  0.1866  0.5860
    1SOL     OW 4953   0.460   0.928   2.257 -0.2289 -0.4305 -0.8003
    1SOL    HW2 4954   0.477   1.021   2.269 -0.9648 -0.3275 -0.4809
    1SOL    HW3 4955   0.378   0.913   2.305 -0.3962 -1.1275 -1.2939
    1SOL    MW4 4956   0.451   0.938   2.265 -0.3481 -0.5089 -0.8233
    1SOL     OW 4957   0.452   1.190   2.318  0.0862 -0.2277 -0.4111
    1SOL    HW2 4958   0.472   1.176   2.411 -0.2728 -0.4387 -0.3646
    1SOL    HW3 4959   0.362   1.222   2.318  0.3486  0.5288 -0.6322
    1SOL    MW4 4960   0.443   1.193   2.330  0.0734 -0.1557 -0.4344
    1SOL     OW 4961   0.683   1.356   2.267 -0.0884 -0.1251  0.4595
    1SOL    HW2 4962   0.689   1.441   2.311  0.1326 -0.7324  1.6285
    1SOL    HW3 4963   0.601   1.318   2.300 -0.1242 -0.4112  0.0436
    1SOL    MW4 4964   0.673   1.362   2.278 -0.0640 -0.2429  0.5586
    1SOL     OW 4965   0.672   1.606   2.396 -0.4564  0.0217  0.0643
    1SOL    HW2 4966   0.678   1.607   2.492 -1.3335  3.2861  0.1446
    1SOL    HW3 4967   0.760   1.628   2.366 -0.3131 -0.4784  0.1038
    1SOL    MW4 4968   0.684   1.609   2.405 -0.5533  0.3864  0.0801
    1SOL     OW 4969   0.450   1.667   2.233  0.5005  0.2387 -0.1608
    1SOL    HW2 4970   0.518   1.653   2.299 -0.1558  1.0011  0.6848
    1SOL    HW3 4971   0.372   1.626   2.270  0.2808  0.1066 -0.7547
    1SOL    MW4 4972   0.449   1.660   2.247  0.3849  0.3219 -0.1278
    1SOL     OW 4973   0.426   1.911   2.349 -0.2608 -0.0518 -0.0606
    1SOL    HW2 4974   0.500   1.952   2.304 -0.4743  0.3175 -0.0823
    1SOL    HW3 4975   0.423   1.822   2.314 -0.3737  0.2084 -0.7272
    1SOL    MW4 4976   0.435   1.905   2.338 -0.3038  0.0312 -0.1514
    1SOL     OW 4977   0.666   2.032   2.228 -0.0101  0.2208  0.3409
    1SOL    HW2 4978   0.742   1.999   2.276  0.4158  0.6186 -0.0526
    1SOL    HW3 4979   0.657   2.123   2.258 -0.5629  0.0595  0.6701
    1SOL    MW4 4980   0.675   2.040   2.238 -0.0269  0.2520  0.3324
    1SOL     OW 4981   0.673   2.297   2.336 -0.0145  0.1255  0.2445
    1SOL    HW2 4982   0.673   2.292   2.432  2.5498  0.9011  0.3153
    1SOL    HW3 4983   0.744   2.357   2.315 -0.0140 -0.6770 -2.1924
    1SOL    MW4 4984   0.682   2.305   2.346  0.3239  0.1221 -0.0675
    1SOL     OW 4985   0.462   2.443   2.241  0.1131 -0.2020  0.3200
    1SOL    HW2 4986   0.539   2.398   2.275  0.1971  0.5386  1.1170
    1SOL    HW3 4987   0.388   2.389   2.268  0.4139 -1.7147 -1.7084
    1SOL    MW4 4988   0.462   2.430   2.249  0.1639 -0.3037  0.1574
    1SOL     OW 4989   0.476   2.692   2.378 -0.0449 -0.3711 -0.1961
    1SOL    HW2 4990   0.477   2.684   2.473  2.5266  1.1525 -0.0565
    1SOL    HW3 4991   0.461   2.603   2.346  1.0928 -1.2290  1.5845
    1SOL    MW4 4992   0.474   2.680   2.386  0.4445 -0.2832  0.0577
    1SOL     OW 4993   0.678   2.819   2.215  0.0910 -0.0681 -0.1211
    1SOL    HW2 4994   0.758   2.785   2.256 -0.7436  0.8216  2.3548
    1SOL    HW3 4995   0.607   2.777   2.264 -0.9439  1.1216 -0.5789
    1SOL    MW4 4996   0.679   2.809   2.227 -0.1557  0.2062  0.1450
    1SOL     OW 4997   0.697   3.053   2.375 -0.5948  0.0973 -0.2838
    1SOL    HW2 4998   0.624   3.107   2.344 -1.3094 -0.3348  0.6137
    1SOL    HW3 4999   0.689   2.971   2.325  0.0921  0.5606 -1.1642
    1SOL    MW4 5000   0.686   3.049   2.364 -0.5984  0.1016 -0.2816
    1SOL     OW 5001   0.461   3.182   2.236 -0.2927  0.3894  0.2347
    1SOL    HW2 5002   0.372   3.157   2.260 -0.1984 -2.1494 -1.7623
    1SOL    HW3 5003   0.457   3.196   2.141  1.5896 -0.7628 -0.0594
    1SOL    MW4 5004   0.449   3.180   2.226 -0.0320 -0.0978 -0.0675
    1SOL     OW 5005   0.437   3.439   2.332 -0.6513 -0.3714  0.0055
    1SOL    HW2 5006   0.511   3.491   2.301 -1.5078  0.9102  0.0611
    1SOL    HW3 5007   0.460   3.348   2.310  1.3318 -0.0982  0.8171
    1SOL    MW4 5008   0.450   3.434   2.325 -0.5027 -0.1664  0.1199
    1SOL     OW 5009   0.655   3.596   2.235 -0.1201 -0.5599  0.3650
    1SOL    HW2 5010   0.664   3.684   2.273  0.8052 -0.5417  0.1064
    1SOL    HW3 5011   0.643   3.611   2.142  0.0179 -0.7106  0.3233
    1SOL    MW4 5012   0.654   3.610   2.228  0.0201 -0.5774  0.3254
    1SOL     OW 5013   0.662   3.853   2.361 -0.1492  0.1407  0.3546
    1SOL    HW2 5014   0.656   3.857   2.456 -0.1904 -1.0327  0.4111
    1SOL    HW3 5015   0.583   3.897   2.330  0.1275  0.9976  0.8454
    1SOL    MW4 5016   0.651   3.859   2.369 -0.1181  0.0987  0.4270
    1SOL     OW 5017   0.426   4.005   2.310  0.4350  0.0423 -0.1929
    1SOL    HW2 5018   0.354   3.943   2.322  0.8480 -0.4505 -0.2443
    1SOL    HW3 5019   0.431   4.018   2.215  1.4643 -1.1788 -0.3108
    1SOL    MW4 5020   0.417   3.999   2.299  0.6253 -0.1838 -0.2155
    1SOL     OW 5021   0.447   4.267   2.381  0.2284 -0.2332  0.0238
    1SOL    HW2 5022   0.527   4.293   2.335  0.0708  0.0056 -0.1182
    1SOL    HW3 5023   0.433   4.176   2.357 -0.3391  0.1371 -1.1063
    1SOL    MW4 5024   0.456   4.259   2.372  0.1327 -0.1526 -0.1438
    1SOL     OW 5025   0.671   4.381   2.267 -0.6918 -0.3244  0.5627
    1SOL    HW2 5026   0.674   4.477   2.272  0.5385 -0.3850  1.2674
    1SOL    HW3 5027   0.683   4.362   2.174  1.5412  0.1594  0.7119
    1SOL    MW4 5028   0.673   4.392   2.255 -0.2349 -0.2685  0.6752
    1SOL     OW 5029   1.136   4.596   2.355 -0.0333  0.1973  0.2497
    1SOL    HW2 5030   1.149   4.608   2.449 -2.9003 -1.3246  0.9054
    1SOL    HW3 5031   1.062   4.653   2.334 -0.6090 -0.8798 -0.6831
    1SOL    MW4 5032   1.128   4.605   2.365 -0.4876 -0.1459  0.2134
    1SOL     OW 5033   0.922   0.123   2.280  0.5064 -0.0333 -0.5171
    1SOL    HW2 5034   0.879   0.207   2.300 -0.9039 -0.6173 -1.0076
    1SOL    HW3 5035   0.914   0.114   2.185 -0.2793 -1.2019 -0.3501
    1SOL    MW4 5036   0.915   0.133   2.270  0.2166 -0.2646 -0.5596
    1SOL     OW 5037   0.848   0.380   2.361 -0.0601  0.2405  0.6503
    1SOL    HW2 5038   0.931   0.419   2.334  0.1950  0.5810  1.8992
    1SOL    HW3 5039   0.783   0.421   2.303  0.6323 -0.0575 -0.3546
    1SOL    MW4 5040   0.850   0.391   2.350  0.0649  0.2461  0.6826
    1SOL     OW 5041   1.085   0.480   2.267  0.2733  0.2842  0.0686
    1SOL    HW2 5042   1.165   0.434   2.292 -0.4748 -1.4473 -0.6894
    1SOL    HW3 5043   1.092   0.492   2.172 -0.4523 -0.0522 -0.0308
    1SOL    MW4 5044   1.096   0.476   2.258  0.0788  0.0114 -0.0443
    1SOL     OW 5045   1.105   0.737   2.367 -0.6408  0.3675  0.0703
    1SOL    HW2 5046   1.036   0.796   2.336 -0.8258 -0.2357 -0.6956
    1SOL    HW3 5047   1.081   0.652   2.330  0.8840  0.2992 -0.7629
    1SOL    MW4 5048   1.092   0.734   2.358 -0.4642  0.2789 -0.1409
    1SOL     OW 5049   0.878   0.884   2.235  0.0026  0.3651  0.3534
    1SOL    HW2 5050   0.881   0.973   2.269 -0.5272  0.5103  0.0324
    1SOL    HW3 5051   0.798   0.847   2.272  0.3960 -0.0895  0.7558
    1SOL    MW4 5052   0.868   0.891   2.244 -0.0154  0.3243  0.3643
    1SOL     OW 5053   0.869   1.161   2.353  0.1133 -0.4357 -0.1290
    1SOL    HW2 5054   0.946   1.217   2.342  0.4496 -0.6102  1.2350
    1SOL    HW3 5055   0.797   1.210   2.313  0.7354  0.1871 -0.4878
    1SOL    MW4 5056   0.870   1.175   2.346  0.2397 -0.3766  0.0036
    1SOL     OW 5057   1.121   1.274   2.258 -0.2361 -0.4763  0.3360
    1SOL    HW2 5058   1.196   1.227   2.293 -0.1260 -0.2542  0.3973
    1SOL    HW3 5059   1.129   1.265   2.163  1.4482  1.9689  0.2164
    1SOL    MW4 5060   1.132   1.267   2.250  0.0006 -0.1245  0.3283
    1SOL     OW 5061   1.165   1.531   2.348 -0.2977 -0.1419 -0.5462
    1SOL    HW2 5062   1.097   1.592   2.320  0.7403  1.0331 -0.5765
    1SOL    HW3 5063   1.138   1.447   2.312 -2.1564  0.1328  0.1635
    1SOL    MW4 5064   1.153   1.528   2.339 -0.4059  0.0494 -0.4566
    1SOL     OW 5065   0.927   1.683   2.311  0.1107  0.2224 -0.0949
    1SOL    HW2 5066   0.916   1.778   2.323 -0.8189  0.1900 -0.5948
    1SOL    HW3 5067   0.912   1.669   2.217  0.3029 -0.4137 -0.0324
    1SOL    MW4 5068   0.923   1.694   2.300  0.0134  0.1342 -0.1528
    1SOL     OW 5069   0.889   1.954   2.380 -0.2338  0.1524 -0.6221
    1SOL    HW2 5070   0.899   1.948   2.475 -0.6094  0.5312 -0.5553
    1SOL    HW3 5071   0.963   2.007   2.351 -0.1186  0.0353 -0.5365
    1SOL    MW4 5072   0.900   1.960   2.389 -0.2682  0.1868 -0.6022
    1SOL     OW 5073   1.148   2.078   2.305 -0.1163 -0.4084  0.0626
    1SOL    HW2 5074   1.217   2.024   2.345 -0.1612  0.5947  1.5505
    1SOL    HW3 5075   1.160   2.066   2.211  1.8776 -0.5323  0.2986
    1SOL    MW4 5076   1.159   2.069   2.298  0.1409 -0.2921  0.2902
    1SOL     OW 5077   1.109   2.335   2.377  0.1036 -0.0155  0.0661
    1SOL    HW2 5078   1.187   2.380   2.345  0.5357 -0.3743  0.5892
    1SOL    HW3 5079   1.126   2.242   2.359  0.3358 -0.2174  1.2686
    1SOL    MW4 5080   1.122   2.329   2.370  0.1912 -0.0894  0.2937
    1SOL     OW 5081   0.874   2.454   2.260  0.0399 -0.0012 -0.5636
    1SOL    HW2 5082   0.952   2.417   2.302 -0.1324  0.1936 -0.0654
    1SOL    HW3 5083   0.899   2.468   2.169 -0.2779 -2.5633 -1.0831
    1SOL    MW4 5084   0.888   2.451   2.253 -0.0246 -0.3138 -0.5665
    1SOL     OW 5085   0.897   2.713   2.368 -0.0572  0.3166 -0.0622
    1SOL    HW2 5086   0.896   2.704   2.463  1.0998 -0.4426 -0.1051
    1SOL    HW3 5087   0.881   2.624   2.335  0.5555  0.3825 -0.5651
    1SOL    MW4 5088   0.895   2.700   2.376  0.1763  0.2251 -0.1342
    1SOL     OW 5089   1.103   2.826   2.243  0.0846  0.7382  0.0503
    1SOL    HW2 5090   1.179   2.773   2.267  0.0291 -0.2591 -1.8996
    1SOL    HW3 5091   1.029   2.784   2.287 -0.1937 -1.7613 -2.7425
    1SOL    MW4 5092   1.103   2.814   2.252  0.0407  0.2770 -0.5753
    1SOL     OW 5093   1.113   3.093   2.349  0.0033  0.7782 -0.1490
    1SOL    HW2 5094   1.028   3.131   2.325 -0.1672  0.5538  0.0887
    1SOL    HW3 5095   1.105   3.001   2.324  0.8472  1.1463 -1.8394
    1SOL    MW4 5096   1.101   3.086   2.342  0.0921  0.7970 -0.3407
    1SOL     OW 5097   0.887   3.194   2.255 -0.1638 -0.0797 -0.2800
    1SOL    HW2 5098   0.859   3.284   2.274  1.0799  0.1405  0.5156
    1SOL    HW3 5099   0.819   3.139   2.294 -1.2434  0.5056 -1.2693
    1SOL    MW4 5100   0.874   3.199   2.262 -0.1421  0.0267 -0.3059
    1SOL     OW 5101   0.889   3.479   2.323  0.3746  0.4684 -0.3551
    1SOL    HW2 5102   0.881   3.450   2.414 -0.9331 -0.2596 -0.6856
    1SOL    HW3 5103   0.803   3.515   2.301  1.3902  2.8350 -0.5805
    1SOL    MW4 5104   0.877   3.480   2.332  0.3360  0.6847 -0.4284
    1SOL     OW 5105   1.131   3.598   2.244 -0.2767  0.0186 -0.4743
    1SOL    HW2 5106   1.198   3.553   2.294 -0.2574 -0.5302 -1.0019
    1SOL    HW3 5107   1.048   3.566   2.281 -0.2734  1.8383  1.2270
    1SOL    MW4 5108   1.129   3.588   2.256 -0.2738  0.1862 -0.3197
    1SOL     OW 5109   1.106   3.904   2.329  0.1285  0.2850 -0.2057
    1SOL    HW2 5110   1.176   3.951   2.284  0.8404 -1.5720 -1.0802
    1SOL    HW3 5111   1.109   3.816   2.293 -0.6731 -0.6653  1.9534
    1SOL    MW4 5112   1.116   3.898   2.319  0.1167 -0.0854 -0.0360
    1SOL     OW 5113   0.861   4.008   2.244  0.6479  0.5383  0.2769
    1SOL    HW2 5114   0.935   3.961   2.281  0.2760  0.9054  1.5160
    1SOL    HW3 5115   0.784   3.965   2.282  0.2482  0.7467 -0.2883
    1SOL    MW4 5116   0.860   3.996   2.254  0.5461  0.6139  0.3657
    1SOL     OW 5117   0.882   4.261   2.392 -0.2658  0.3337  0.1677
    1SOL    HW2 5118   0.872   4.171   2.361 -0.5747  0.4703 -0.1290
    1SOL    HW3 5119   0.807   4.308   2.355  0.7298  1.0603 -0.9414
    1SOL    MW4 5120   0.871   4.255   2.383 -0.1752  0.4478 -0.0179
    1SOL     OW 5121   1.085   4.364   2.240  0.1496 -0.5805  0.0711
    1SOL    HW2 5122   1.019   4.328   2.300  0.6126  0.0209  0.9465
    1SOL    HW3 5123   1.098   4.454   2.270  0.0080 -0.1099 -1.2551
    1SOL    MW4 5124   1.078   4.371   2.252  0.1919 -0.4392  0.0114
    1SOL     OW 5125   1.600   4.612   2.319  0.2208  0.1491 -0.1625
    1SOL    HW2 5126   1.664   4.676   2.286 -0.5700  0.1192 -1.8326
    1SOL    HW3 5127   1.515   4.648   2.293 -0.3077 -0.9125  0.0714
    1SOL    MW4 5128   1.597   4.626   2.311  0.0467  0.0048 -0.3521
    1SOL     OW 5129   1.351   0.091   2.293  0.4384  0.8281 -0.1745
    1SOL    HW2 5130   1.317   0.169   2.338  1.0167 -0.0317  1.7683
    1SOL    HW3 5131   1.291   0.021   2.319  0.3498  0.4473 -1.3527
    1SOL    MW4 5132   1.338   0.092   2.302  0.5031  0.6644 -0.0737
    1SOL     OW 5133   1.327   0.362   2.374 -0.2765  0.0330  0.1245
    1SOL    HW2 5134   1.333   0.330   2.464  0.0627 -0.6405 -0.1380
    1SOL    HW3 5135   1.415   0.395   2.354  0.5605 -2.8383 -1.0872
    1SOL    MW4 5136   1.340   0.362   2.383 -0.1212 -0.4347 -0.0699
    1SOL     OW 5137   1.569   0.480   2.318 -0.3372 -0.0466 -0.5536
    1SOL    HW2 5138   1.646   0.425   2.332 -1.3636 -1.0274  1.4853
    1SOL    HW3 5139   1.560   0.486   2.223  0.9807 -1.7249 -0.8004
    1SOL    MW4 5140   1.578   0.473   2.308 -0.2989 -0.3974 -0.3169
    1SOL     OW 5141   1.591   0.746   2.383  0.7493 -0.2815 -0.2968
    1SOL    HW2 5142   1.664   0.776   2.328  0.4768 -0.1991 -0.6158
    1SOL    HW3 5143   1.580   0.654   2.359  1.4192 -0.5757  0.4971
    1SOL    MW4 5144   1.599   0.738   2.372  0.8018 -0.3095 -0.2341
    1SOL     OW 5145   1.353   0.856   2.279  0.0042 -0.5925 -0.1681
    1SOL    HW2 5146   1.433   0.806   2.296  0.3607  0.2284  0.6440
    1SOL    HW3 5147   1.283   0.803   2.318  0.4045 -0.3692  0.8852
    1SOL    MW4 5148   1.355   0.842   2.287  0.1041 -0.4547  0.0782
    1SOL     OW 5149   1.333   1.120   2.370  0.5299 -0.3575 -0.2622
    1SOL    HW2 5150   1.333   1.121   2.466 -0.6120  0.8134 -0.2612
    1SOL    HW3 5151   1.348   1.029   2.347  1.7106 -0.5113  1.0249
    1SOL    MW4 5152   1.335   1.108   2.380  0.5350 -0.2233 -0.0920
    1SOL     OW 5153   1.571   1.254   2.295  0.1047 -0.1778  0.4554
    1SOL    HW2 5154   1.491   1.203   2.308  0.0232 -0.3559 -0.7412
    1SOL    HW3 5155   1.579   1.262   2.200  0.7493  1.0426  0.6100
    1SOL    MW4 5156   1.561   1.248   2.284  0.1791 -0.0402  0.3178
    1SOL     OW 5157   1.589   1.532   2.379 -0.2201 -0.0544  0.0831
    1SOL    HW2 5158   1.656   1.573   2.325  0.5423 -0.8418  0.4338
    1SOL    HW3 5159   1.591   1.440   2.355 -0.7149 -0.1992  0.5850
    1SOL    MW4 5160   1.598   1.525   2.369 -0.1848 -0.1773  0.1955
    1SOL     OW 5161   1.394   1.696   2.294 -0.2469  0.2922 -0.3555
    1SOL    HW2 5162   1.462   1.632   2.313 -0.0457  0.2280 -1.2657
    1SOL    HW3 5163   1.312   1.649   2.307 -0.0934 -0.3024 -1.5456
    1SOL    MW4 5164   1.392   1.682   2.298 -0.2000  0.2053 -0.6328
    1SOL     OW 5165   1.381   1.943   2.405  0.2759 -0.0470 -0.2751
    1SOL    HW2 5166   1.455   1.990   2.366 -1.1404  1.3405 -1.3197
    1SOL    HW3 5167   1.384   1.856   2.365  0.7364  0.3284 -1.0599
    1SOL    MW4 5168   1.391   1.937   2.395  0.1500  0.1855 -0.5164
    1SOL     OW 5169   1.584   2.083   2.284 -0.0110 -0.4790  0.3183
    1SOL    HW2 5170   1.659   2.025   2.299  0.8111 -0.1487 -2.2061
    1SOL    HW3 5171   1.578   2.090   2.188 -1.6806  1.5797  0.5329
    1SOL    MW4 5172   1.593   2.076   2.273 -0.1229 -0.1636  0.0136
    1SOL     OW 5173   1.558   2.330   2.401  0.3416 -0.2119 -0.3084
    1SOL    HW2 5174   1.556   2.312   2.495  2.3220 -0.6671 -0.3295
    1SOL    HW3 5175   1.588   2.249   2.361  0.1140  0.1721 -1.2829
    1SOL    MW4 5176   1.562   2.317   2.408  0.5728 -0.2213 -0.4399
    1SOL     OW 5177   1.329   2.440   2.276  0.0702 -0.1985  0.9321
    1SOL    HW2 5178   1.410   2.416   2.322 -0.4070 -2.2033  0.7384
    1SOL    HW3 5179   1.350   2.431   2.183  0.0684  0.7666  0.8290
    1SOL    MW4 5180   1.343   2.436   2.270  0.0070 -0.3355  0.8929
    1SOL     OW 5181   1.335   2.708   2.317 -0.3864  0.2577 -0.2043
    1SOL    HW2 5182   1.412   2.755   2.286  0.9869 -0.6681  1.6610
    1SOL    HW3 5183   1.341   2.623   2.274 -0.4277  0.2363 -0.1670
    1SOL    MW4 5184   1.346   2.703   2.307 -0.2105  0.1328  0.0467
    1SOL     OW 5185   1.565   2.835   2.228  0.3736  0.0085  0.0653
    1SOL    HW2 5186   1.563   2.928   2.252  0.7564  0.0484 -0.0547
    1SOL    HW3 5187   1.558   2.835   2.133  0.0210 -0.1016  0.0909
    1SOL    MW4 5188   1.563   2.847   2.219  0.3777 -0.0005  0.0527
    1SOL     OW 5189   1.538   3.090   2.342  0.2377 -0.4104  0.2877
    1SOL    HW2 5190   1.516   3.103   2.434 -0.1484  2.0062 -0.1079
    1SOL    HW3 5191   1.474   3.142   2.294  0.3741 -1.7224 -1.3629
    1SOL    MW4 5192   1.527   3.098   2.348  0.2048 -0.2649  0.0174
    1SOL     OW 5193   1.325   3.238   2.213 -0.0760  0.2620 -0.1668
    1SOL    HW2 5194   1.251   3.190   2.250 -0.2544  1.0067  0.4414
    1SOL    HW3 5195   1.293   3.269   2.128 -0.3142  0.2239 -0.0903
    1SOL    MW4 5196   1.311   3.236   2.207 -0.1309  0.3552 -0.0768
    1SOL     OW 5197   1.375   3.477   2.353 -0.3791 -0.2381 -0.4558
    1SOL    HW2 5198   1.373   3.472   2.448  0.4349  1.6848 -0.3137
    1SOL    HW3 5199   1.369   3.386   2.324 -0.0262 -0.8898  1.4392
    1SOL    MW4 5200   1.374   3.464   2.361 -0.2251 -0.0706 -0.1872
    1SOL     OW 5201   1.569   3.643   2.234  0.4126  0.0749 -0.2015
    1SOL    HW2 5202   1.568   3.724   2.284  1.2316 -0.4349  0.6483
    1SOL    HW3 5203   1.515   3.583   2.286  3.1593 -1.1710  1.3160
    1SOL    MW4 5204   1.561   3.646   2.247  0.8829 -0.1569  0.1109
    1SOL     OW 5205   1.577   3.895   2.354 -0.4732 -0.0845  0.0565
    1SOL    HW2 5206   1.570   3.892   2.450  1.3915 -3.1338  0.1380
    1SOL    HW3 5207   1.652   3.952   2.338 -1.0631  0.7998  0.3664
    1SOL    MW4 5208   1.586   3.902   2.365 -0.3049 -0.3703  0.1080
    1SOL     OW 5209   1.356   4.010   2.239  0.2720 -0.0531  0.0835
    1SOL    HW2 5210   1.437   3.969   2.270  1.0435  0.9811 -0.5018
    1SOL    HW3 5211   1.361   4.002   2.144 -0.7571 -0.7867  0.0926
    1SOL    MW4 5212   1.368   4.004   2.231  0.2379 -0.0134  0.0074
    1SOL     OW 5213   1.333   4.264   2.346 -0.4815  0.1594 -0.0589
    1SOL    HW2 5214   1.341   4.176   2.308  0.2349  0.1951 -0.0089
    1SOL    HW3 5215   1.247   4.295   2.317 -1.6607 -1.3807  1.7042
    1SOL    MW4 5216   1.323   4.257   2.337 -0.5425 -0.0396  0.1805
    1SOL     OW 5217   1.568   4.356   2.227 -0.0028 -0.1981 -0.2131
    1SOL    HW2 5218   1.487   4.329   2.269 -1.2949 -0.0460 -2.5358
    1SOL    HW3 5219   1.587   4.443   2.263 -0.5161 -0.5260  0.8324
    1SOL    MW4 5220   1.560   4.364   2.237 -0.2409 -0.2213 -0.3817
    1SOL     OW 5221   2.013   4.652   2.350  0.0609  0.0562 -0.2182
    1SOL    HW2 5222   2.107   4.672   2.340  0.4101 -0.7239  1.4101
    1SOL    HW3 5223   2.006   4.559   2.327 -0.3896  0.2177 -0.7446
    1SOL    MW4 5224   2.025   4.642   2.345  0.0477 -0.0253 -0.0727
    1SOL     OW 5225   1.791   0.107   2.208 -0.4902 -0.1599  0.8862
    1SOL    HW2 5226   1.796   0.195   2.246 -0.0484  0.3925 -0.4218
    1SOL    HW3 5227   1.859   0.057   2.252  1.4046  1.0367 -0.5889
    1SOL    MW4 5228   1.800   0.112   2.219 -0.1819  0.0708  0.5188
    1SOL     OW 5229   1.790   0.332   2.372 -0.3052 -0.3948  0.1346
    1SOL    HW2 5230   1.787   0.312   2.465 -0.8078 -0.6066  0.0757
    1SOL    HW3 5231   1.878   0.366   2.357 -0.9521  1.7399  1.1047
    1SOL    MW4 5232   1.801   0.334   2.382 -0.4568 -0.1411  0.2549
    1SOL     OW 5233   2.021   0.460   2.282 -0.4951  0.3661  0.2117
    1SOL    HW2 5234   2.010   0.549   2.314 -1.0717  0.2090  0.4608
    1SOL    HW3 5235   2.032   0.470   2.187 -0.5970  0.6986  0.2338
    1SOL    MW4 5236   2.021   0.473   2.273 -0.5844  0.3892  0.2475
    1SOL     OW 5237   2.005   0.729   2.353 -0.6187  0.3000 -0.2715
    1SOL    HW2 5238   2.086   0.776   2.333 -0.7234  0.5685 -0.0704
    1SOL    HW3 5239   1.990   0.744   2.446  0.6631 -2.1863  0.3788
    1SOL    MW4 5240   2.014   0.737   2.363 -0.4632  0.0075 -0.1595
    1SOL     OW 5241   1.786   0.846   2.227 -0.3236  0.6212 -0.1592
    1SOL    HW2 5242   1.791   0.934   2.264 -0.4383  0.6210 -0.1456
    1SOL    HW3 5243   1.857   0.798   2.270 -0.9501  0.3989  0.6458
    1SOL    MW4 5244   1.796   0.851   2.238 -0.4214  0.5919 -0.0510
    1SOL     OW 5245   1.798   1.094   2.335 -0.0581 -0.1816 -0.5058
    1SOL    HW2 5246   1.870   1.138   2.288 -0.7934 -1.0411 -2.4842
    1SOL    HW3 5247   1.726   1.157   2.331  1.1234  1.6223  3.3708
    1SOL    MW4 5248   1.798   1.108   2.328  0.0007 -0.0569 -0.2553
    1SOL     OW 5249   2.010   1.249   2.253  0.0111 -0.2673  0.2874
    1SOL    HW2 5250   2.012   1.339   2.283 -0.5243 -0.4583  0.9001
    1SOL    HW3 5251   2.087   1.209   2.292  0.1334 -0.1271  0.1892
    1SOL    MW4 5252   2.020   1.255   2.262 -0.0436 -0.2741  0.3555
    1SOL     OW 5253   2.001   1.507   2.359  0.0168  0.2218 -0.5025
    1SOL    HW2 5254   1.986   1.517   2.453  0.9722 -0.6458 -0.2463
    1SOL    HW3 5255   1.925   1.548   2.318 -0.1885  0.9910  0.6388
    1SOL    MW4 5256   1.989   1.514   2.366  0.1156  0.2089 -0.3178
    1SOL     OW 5257   1.792   1.644   2.244  0.5068  0.0677 -0.2178
    1SOL    HW2 5258   1.792   1.733   2.279  0.8695 -0.1320  0.2852
    1SOL    HW3 5259   1.790   1.656   2.149  0.6844  0.6167 -0.1525
    1SOL    MW4 5260   1.792   1.657   2.236  0.5780  0.1137 -0.1428
    1SOL     OW 5261   1.778   1.911   2.346  0.3170 -0.0644  0.0572
    1SOL    HW2 5262   1.785   1.913   2.441  0.7115 -0.6488  0.0468
    1SOL    HW3 5263   1.861   1.945   2.315  0.8409 -1.4066 -0.0706
    1SOL    MW4 5264   1.790   1.916   2.354  0.4380 -0.3185  0.0389
    1SOL     OW 5265   2.019   2.046   2.309  0.0882  0.6350  0.3890
    1SOL    HW2 5266   2.101   2.006   2.337 -0.4069 -0.3749  0.4170
    1SOL    HW3 5267   2.025   2.051   2.214 -0.0841 -0.0525  0.3371
    1SOL    MW4 5268   2.030   2.041   2.300  0.0000  0.4113  0.3860
    1SOL     OW 5269   2.011   2.294   2.439 -0.5318 -0.0437 -0.2457
    1SOL    HW2 5270   2.070   2.339   2.379  0.1791  0.0893  0.5491
    1SOL    HW3 5271   2.021   2.201   2.417 -0.9395  0.0670 -0.9253
    1SOL    MW4 5272   2.020   2.288   2.428 -0.4921 -0.0114 -0.2306
    1SOL     OW 5273   1.800   2.448   2.265 -0.2443 -0.1645  0.2854
    1SOL    HW2 5274   1.873   2.401   2.306 -0.3319 -0.0229  0.6086
    1SOL    HW3 5275   1.724   2.422   2.317 -0.6347 -1.3388 -0.8533
    1SOL    MW4 5276   1.800   2.438   2.278 -0.3073 -0.3009  0.1779
    1SOL     OW 5277   1.799   2.716   2.347  0.1675  0.2011 -0.2338
    1SOL    HW2 5278   1.802   2.625   2.321 -0.8798 -0.0998  0.6425
    1SOL    HW3 5279   1.715   2.748   2.315  0.6200  0.9210 -0.7219
    1SOL    MW4 5280   1.788   2.708   2.340  0.0890  0.2565 -0.1826
    1SOL     OW 5281   2.015   2.848   2.239 -0.4570  0.6219 -0.2151
    1SOL    HW2 5282   2.091   2.798   2.270 -0.5361  0.8326  0.3304
    1SOL    HW3 5283   1.940   2.804   2.279 -0.5981  0.5920 -0.5155
    1SOL    MW4 5284   2.015   2.836   2.249 -0.4861  0.6456 -0.1826
    1SOL     OW 5285   1.991   3.099   2.347  0.7029  0.1144  0.1553
    1SOL    HW2 5286   2.070   3.137   2.308  1.6485  0.1603  2.0382
    1SOL    HW3 5287   1.995   3.006   2.325  0.7787  0.2826 -0.5533
    1SOL    MW4 5288   2.002   3.092   2.339  0.8378  0.1426  0.3104
    1SOL     OW 5289   1.765   3.242   2.254  0.3228  0.4755 -0.1243
    1SOL    HW2 5290   1.844   3.192   2.270 -0.2400 -0.3795  0.0387
    1SOL    HW3 5291   1.695   3.191   2.294 -0.4607  0.6863 -1.1745
    1SOL    MW4 5292   1.766   3.229   2.261  0.1452  0.3903 -0.2415
    1SOL     OW 5293   1.791   3.506   2.325 -0.0683 -0.2546  0.4370
    1SOL    HW2 5294   1.750   3.422   2.303  0.2041  0.3281 -2.6058
    1SOL    HW3 5295   1.730   3.572   2.292  1.1240  0.6676  0.0265
    1SOL    MW4 5296   1.778   3.504   2.317  0.1251 -0.0563 -0.0184
    1SOL     OW 5297   2.038   3.603   2.211 -0.2273  0.3210 -0.2414
    1SOL    HW2 5298   1.962   3.568   2.258  0.4157 -0.5958  0.1267
    1SOL    HW3 5299   2.015   3.593   2.118 -0.6608  0.2771 -0.1333
    1SOL    MW4 5300   2.025   3.597   2.205 -0.1998  0.1943 -0.1786
    1SOL     OW 5301   2.047   3.860   2.321 -0.4042  0.0746 -0.0859
    1SOL    HW2 5302   2.034   3.853   2.416 -2.3440  0.0417 -0.3327
    1SOL    HW3 5303   2.043   3.770   2.289  0.4376  0.0677 -0.1790
    1SOL    MW4 5304   2.045   3.847   2.329 -0.5491  0.0691 -0.1309
    1SOL     OW 5305   1.826   4.006   2.236  0.1479  0.3023 -0.0010
    1SOL    HW2 5306   1.906   3.957   2.253  1.0834  1.9190  0.3211
    1SOL    HW3 5307   1.804   3.986   2.145 -0.5931 -2.2550  0.6971
    1SOL    MW4 5308   1.833   3.997   2.226  0.1733  0.1781  0.1340
    1SOL     OW 5309   1.790   4.253   2.361 -0.3263 -0.1754 -0.0232
    1SOL    HW2 5310   1.815   4.166   2.331  1.1603  0.4940 -0.7745
    1SOL    HW3 5311   1.712   4.275   2.310 -1.0941 -1.2954  0.6235
    1SOL    MW4 5312   1.783   4.245   2.351 -0.2314 -0.2341 -0.0370
    1SOL     OW 5313   2.009   4.402   2.250  0.2206 -0.0570  0.0205
    1SOL    HW2 5314   1.933   4.349   2.273 -0.3796  0.5603 -0.5019
    1SOL    HW3 5315   2.002   4.413   2.155  0.6519  0.4715  0.0485
    1SOL    MW4 5316   1.998   4.397   2.241  0.1982  0.0939 -0.0446
    1SOL     OW 5317   2.521   4.641   2.326 -0.2918  0.2267 -0.2304
    1SOL    HW2 5318   2.596   4.684   2.284  0.9465 -1.8676 -0.2773
    1SOL    HW3 5319   2.522   4.552   2.289 -2.2395 -0.1001  0.4877
    1SOL    MW4 5320   2.531   4.635   2.315 -0.3855 -0.0930 -0.1421
    1SOL     OW 5321   2.267   0.083   2.284 -0.3779  0.0941  0.1866
    1SOL    HW2 5322   2.282   0.167   2.326  0.6512  1.4775 -2.8016
    1SOL    HW3 5323   2.353   0.040   2.284 -0.3628  0.1103 -0.4681
    1SOL    MW4 5324   2.281   0.088   2.289 -0.2401  0.2787 -0.2937
    1SOL     OW 5325   2.282   0.351   2.364  0.1208  0.2926 -0.4934
    1SOL    HW2 5326   2.197   0.377   2.329  0.5841  2.4866 -0.0851
    1SOL    HW3 5327   2.345   0.404   2.315  1.0165  0.9841  1.3455
    1SOL    MW4 5328   2.279   0.362   2.353  0.3004  0.6733 -0.1969
    1SOL     OW 5329   2.456   0.514   2.227 -0.2841 -0.0696  0.2073
    1SOL    HW2 5330   2.543   0.487   2.257  0.3907  2.3055  0.4640
    1SOL    HW3 5331   2.455   0.492   2.134  1.7970  2.7886 -0.5236
    1SOL    MW4 5332   2.467   0.507   2.219  0.0794  0.6208  0.1450
    1SOL     OW 5333   2.444   0.754   2.365  0.1261  0.2133  0.2546
    1SOL    HW2 5334   2.518   0.802   2.328 -0.0212  1.3312  1.3752
    1SOL    HW3 5335   2.449   0.667   2.323  2.7973 -0.1515  1.1800
    1SOL    MW4 5336   2.455   0.749   2.355  0.4594  0.3127  0.5245
    1SOL     OW 5337   2.228   0.864   2.253  0.2370  0.5118 -0.3118
    1SOL    HW2 5338   2.242   0.950   2.292 -0.9546  0.0001  1.2977
    1SOL    HW3 5339   2.300   0.811   2.285  0.0539  0.4769  0.0489
    1SOL    MW4 5340   2.239   0.869   2.262  0.0558  0.4396 -0.0520
    1SOL     OW 5341   2.240   1.146   2.343 -0.0824  0.0503 -0.0600
    1SOL    HW2 5342   2.314   1.198   2.311 -0.4049 -0.2523 -1.3193
    1SOL    HW3 5343   2.254   1.141   2.438  0.9338  0.8904 -0.1505
    1SOL    MW4 5344   2.252   1.152   2.351  0.0091  0.1214 -0.2382
    1SOL     OW 5345   2.454   1.294   2.253  0.1898 -0.0158  0.2627
    1SOL    HW2 5346   2.527   1.252   2.299 -0.4774 -0.5071  0.8813
    1SOL    HW3 5347   2.465   1.387   2.272 -0.1007 -0.2169  1.4528
    1SOL    MW4 5348   2.465   1.301   2.261  0.0632 -0.1070  0.5012
    1SOL     OW 5349   2.441   1.548   2.355 -0.2948  0.5287  0.1962
    1SOL    HW2 5350   2.456   1.520   2.446  0.3582  1.1684  0.2840
    1SOL    HW3 5351   2.525   1.581   2.326 -0.7323  1.1578 -0.3616
    1SOL    MW4 5352   2.454   1.548   2.363 -0.2663  0.6963  0.1340
    1SOL     OW 5353   2.217   1.686   2.283 -0.0277 -0.1248  0.4739
    1SOL    HW2 5354   2.297   1.641   2.309  0.3510 -0.4538 -1.1910
    1SOL    HW3 5355   2.146   1.630   2.313  0.4235 -1.3094 -0.6486
    1SOL    MW4 5356   2.218   1.673   2.291  0.0818 -0.3246  0.1063
    1SOL     OW 5357   2.252   1.928   2.429 -0.1135 -0.1207 -0.5034
    1SOL    HW2 5358   2.330   1.969   2.391 -0.5407  0.1091 -1.1351
    1SOL    HW3 5359   2.242   1.846   2.381  0.9205 -1.1469  0.9704
    1SOL    MW4 5360   2.261   1.923   2.418 -0.0334 -0.2259 -0.3924
    1SOL     OW 5361   2.449   2.066   2.278  0.3703  0.1448  0.1881
    1SOL    HW2 5362   2.530   2.015   2.279 -0.1250 -0.7144 -1.3165
    1SOL    HW3 5363   2.424   2.068   2.186 -2.2735 -1.1524  0.8435
    1SOL    MW4 5364   2.456   2.060   2.266 -0.0439 -0.1397  0.0761
    1SOL     OW 5365   2.441   2.337   2.354 -0.4463 -0.1004 -0.4038
    1SOL    HW2 5366   2.526   2.360   2.315 -0.4630  0.8134  0.0749
    1SOL    HW3 5367   2.432   2.243   2.338  0.5744 -0.1730 -0.6213
    1SOL    MW4 5368   2.451   2.328   2.347 -0.3140  0.0103 -0.3693
    1SOL     OW 5369   2.197   2.422   2.265 -0.1423 -0.5692 -0.2858
    1SOL    HW2 5370   2.204   2.517   2.279  0.2802 -0.4269 -1.3861
    1SOL    HW3 5371   2.276   2.386   2.305 -0.6002 -0.5265  0.6707
    1SOL    MW4 5372   2.208   2.430   2.272 -0.1469 -0.5448 -0.3047
    1SOL     OW 5373   2.231   2.693   2.323  0.0529 -0.1087 -0.2519
    1SOL    HW2 5374   2.237   2.698   2.418  1.4305  0.3873 -0.3559
    1SOL    HW3 5375   2.321   2.706   2.292 -0.2977 -0.7687 -1.6021
    1SOL    MW4 5376   2.244   2.695   2.331  0.1886 -0.1304 -0.4437
    1SOL     OW 5377   2.494   2.798   2.275  0.0879 -0.0652 -0.0627
    1SOL    HW2 5378   2.561   2.747   2.321 -0.8786 -1.8035 -0.5131
    1SOL    HW3 5379   2.517   2.788   2.182  1.0326  1.9927 -0.0792
    1SOL    MW4 5380   2.506   2.790   2.268  0.0849 -0.0229 -0.1245
    1SOL     OW 5381   2.471   3.076   2.314  0.1552  0.2551 -0.0057
    1SOL    HW2 5382   2.553   3.109   2.276  0.1053  1.0064  0.5297
    1SOL    HW3 5383   2.474   2.981   2.298  0.6900  0.4017 -0.8149
    1SOL    MW4 5384   2.482   3.068   2.307  0.2191  0.3738 -0.0415
    1SOL     OW 5385   2.239   3.213   2.245  0.2737  0.3801 -0.1132
    1SOL    HW2 5386   2.255   3.301   2.277 -2.4072 -0.2714  3.1809
    1SOL    HW3 5387   2.317   3.164   2.271 -0.1273  0.7970  1.9622
    1SOL    MW4 5388   2.252   3.218   2.252 -0.1328  0.3490  0.5951
    1SOL     OW 5389   2.260   3.481   2.294 -0.3397 -0.3138  0.1086
    1SOL    HW2 5390   2.245   3.476   2.388 -0.8350 -0.6728  0.0157
    1SOL    HW3 5391   2.182   3.523   2.259 -0.2104 -0.2870 -0.1535
    1SOL    MW4 5392   2.248   3.486   2.302 -0.3879 -0.3576  0.0618
    1SOL     OW 5393   2.496   3.594   2.215  0.2084 -0.3062  0.5232
    1SOL    HW2 5394   2.496   3.678   2.261  0.4030  0.4866 -0.9088
    1SOL    HW3 5395   2.413   3.554   2.239 -2.1605  2.4644 -2.6528
    1SOL    MW4 5396   2.485   3.600   2.225 -0.0787  0.1636 -0.0844
    1SOL     OW 5397   2.465   3.853   2.318 -0.2718  0.1006  0.3619
    1SOL    HW2 5398   2.476   3.877   2.410 -1.7288 -0.5817  0.7278
    1SOL    HW3 5399   2.386   3.899   2.290  1.0063  1.5533 -1.0128
    1SOL    MW4 5400   2.456   3.862   2.326 -0.2952  0.2022  0.2289
    1SOL     OW 5401   2.256   3.996   2.210  0.1177  0.0394 -0.1929
    1SOL    HW2 5402   2.252   4.082   2.250 -1.8587  0.2256 -0.7278
    1SOL    HW3 5403   2.176   3.952   2.239  0.4915 -1.1559 -0.9298
    1SOL    MW4 5404   2.245   4.001   2.219 -0.0935 -0.0935 -0.3605
    1SOL     OW 5405   2.254   4.276   2.275  0.8272 -0.0695  0.4299
    1SOL    HW2 5406   2.252   4.271   2.371 -0.3728 -2.3895  0.3076
    1SOL    HW3 5407   2.174   4.324   2.253  1.6412  1.4230  0.5953
    1SOL    MW4 5408   2.243   4.282   2.285  0.7761 -0.1783  0.4358
    1SOL     OW 5409   2.500   4.391   2.200  0.2080 -0.6751  0.2520
    1SOL    HW2 5410   2.561   4.337   2.251 -0.0565  0.2295  1.5639
    1SOL    HW3 5411   2.414   4.361   2.228  0.0602 -0.3230  0.1680
    1SOL    MW4 5412   2.497   4.380   2.211  0.1535 -0.5097  0.4139
    1SOL     OW 5413   2.903   4.640   2.353  0.3779 -0.1629 -0.2385
    1SOL    HW2 5414   2.988   4.665   2.317  0.0438 -0.7915 -1.4886
    1SOL    HW3 5415   2.887   4.552   2.318 -0.2771 -0.5087  0.8986
    1SOL    MW4 5416   2.912   4.632   2.344  0.2472 -0.2909 -0.2534
    1SOL     OW 5417   2.722   0.125   2.226 -0.2940 -0.2613  0.4984
    1SOL    HW2 5418   2.729   0.208   2.274 -0.6458  0.2755 -0.3676
    1SOL    HW3 5419   2.783   0.067   2.271 -1.4877 -0.1445  2.3493
    1SOL    MW4 5420   2.731   0.129   2.239 -0.4978 -0.1751  0.6285
    1SOL     OW 5421   2.680   0.387   2.333  0.2029 -0.5435 -0.3812
    1SOL    HW2 5422   2.692   0.382   2.428  0.0472  0.3421 -0.3088
    1SOL    HW3 5423   2.760   0.430   2.301  0.7080 -1.7595 -0.7646
    1SOL    MW4 5424   2.692   0.392   2.342  0.2491 -0.5871 -0.4222
    1SOL     OW 5425   2.924   0.497   2.240 -0.2484 -0.0275 -0.1075
    1SOL    HW2 5426   2.925   0.591   2.256 -0.1307  0.0983 -0.8352
    1SOL    HW3 5427   2.909   0.489   2.146 -0.3247 -0.7368 -0.0384
    1SOL    MW4 5428   2.922   0.508   2.230 -0.2429 -0.1045 -0.1943
    1SOL     OW 5429   2.911   0.765   2.307  0.2997 -0.2176  0.1508
    1SOL    HW2 5430   2.917   0.752   2.402 -1.2403 -1.0134  0.1571
    1SOL    HW3 5431   2.821   0.792   2.292  0.7232  0.5910 -1.0239
    1SOL    MW4 5432   2.900   0.767   2.317  0.1523 -0.2159 -0.0033
    1SOL     OW 5433   2.666   0.865   2.245  0.1063 -0.1685  0.1751
    1SOL    HW2 5434   2.661   0.958   2.266  2.0619 -0.2300  0.9882
    1SOL    HW3 5435   2.675   0.862   2.150 -0.4408  0.4337  0.0983
    1SOL    MW4 5436   2.666   0.877   2.235  0.2921 -0.0972  0.2725
    1SOL     OW 5437   2.684   1.138   2.318  0.5203  0.4662  0.0149
    1SOL    HW2 5438   2.690   1.146   2.413  0.0618  2.8718 -0.1330
    1SOL    HW3 5439   2.764   1.179   2.286  0.0628  0.8237 -0.6761
    1SOL    MW4 5440   2.695   1.144   2.326  0.3996  0.8308 -0.0958
    1SOL     OW 5441   2.954   1.259   2.275 -0.3660  0.5621 -0.1734
    1SOL    HW2 5442   3.036   1.219   2.304 -0.5666  0.8302  0.7889
    1SOL    HW3 5443   2.951   1.243   2.180  1.2828  1.4282 -0.3848
    1SOL    MW4 5444   2.964   1.252   2.266 -0.1750  0.7117 -0.0744
    1SOL     OW 5445   2.913   1.531   2.353 -0.0200  0.1169  0.2165
    1SOL    HW2 5446   2.924   1.541   2.448 -0.1519 -0.1770  0.2625
    1SOL    HW3 5447   2.906   1.437   2.339  1.7077  0.0514 -0.2790
    1SOL    MW4 5448   2.914   1.520   2.364  0.1907  0.0696  0.1569
    1SOL     OW 5449   2.673   1.640   2.274  0.0228  0.4653  0.1436
    1SOL    HW2 5450   2.757   1.609   2.306  0.5218  1.0585 -0.5810
    1SOL    HW3 5451   2.684   1.647   2.179 -0.9066  0.3406  0.0174
    1SOL    MW4 5452   2.685   1.637   2.266 -0.0339  0.5273  0.0317
    1SOL     OW 5453   2.672   1.911   2.351  0.1143 -0.2500 -0.2328
    1SOL    HW2 5454   2.667   1.897   2.445  1.8350  0.4163 -0.0330
    1SOL    HW3 5455   2.683   1.824   2.313 -0.6230 -0.5197  0.1633
    1SOL    MW4 5456   2.673   1.898   2.358  0.2439 -0.1976 -0.1543
    1SOL     OW 5457   2.918   2.024   2.285  0.1963  0.0593  0.3525
    1SOL    HW2 5458   2.987   1.980   2.334  0.2793  0.6346  0.7510
    1SOL    HW3 5459   2.837   1.986   2.319  0.2775  0.0478  0.5373
    1SOL    MW4 5460   2.917   2.013   2.296  0.2177  0.1333  0.4294
    1SOL     OW 5461   2.904   2.292   2.354  0.1414  0.0800 -0.2953
    1SOL    HW2 5462   2.901   2.307   2.448 -1.1122 -0.0041 -0.3098
    1SOL    HW3 5463   2.891   2.197   2.345  1.3858 -0.0797 -0.5067
    1SOL    MW4 5464   2.902   2.281   2.365  0.1407  0.0477 -0.3252
    1SOL     OW 5465   2.686   2.397   2.243  0.2851  0.1754 -0.1085
    1SOL    HW2 5466   2.766   2.349   2.265  1.4407  1.9729 -0.3072
    1SOL    HW3 5467   2.686   2.399   2.147 -0.9937 -1.4255 -0.1655
    1SOL    MW4 5468   2.697   2.391   2.233  0.2687  0.2012 -0.1423
    1SOL     OW 5469   2.740   2.680   2.343  0.1981  0.2443 -0.2573
    1SOL    HW2 5470   2.826   2.714   2.317  0.4912 -0.5185 -0.2857
    1SOL    HW3 5471   2.735   2.593   2.304 -1.4678  1.1047 -2.0321
    1SOL    MW4 5472   2.751   2.673   2.334  0.0167  0.2573 -0.4952
    1SOL     OW 5473   2.968   2.816   2.251 -0.4327 -0.0351  0.0987
    1SOL    HW2 5474   2.939   2.903   2.278 -1.9013 -0.8062  1.0898
    1SOL    HW3 5475   2.953   2.813   2.157 -0.2841  0.8071  0.0439
    1SOL    MW4 5476   2.962   2.827   2.242 -0.6068 -0.0257  0.2227
    1SOL     OW 5477   2.931   3.063   2.322  0.3696  0.0079 -0.4937
    1SOL    HW2 5478   2.933   3.079   2.416  0.3040 -2.0364 -0.1198
    1SOL    HW3 5479   2.846   3.099   2.293  0.7494  1.3863  0.0555
    1SOL    MW4 5480   2.920   3.070   2.330  0.4110 -0.0801 -0.3722
    1SOL     OW 5481   2.699   3.176   2.213 -0.1241  0.1308 -0.0288
    1SOL    HW2 5482   2.696   3.263   2.252  0.7199 -0.2762  0.9655
    1SOL    HW3 5483   2.722   3.192   2.121 -2.4029  1.1156 -0.4565
    1SOL    MW4 5484   2.702   3.190   2.206 -0.3133  0.2067  0.0460
    1SOL     OW 5485   2.738   3.446   2.308  0.0652 -0.3792 -1.0559
    1SOL    HW2 5486   2.812   3.487   2.264 -0.2171 -0.3147 -1.4717
    1SOL    HW3 5487   2.662   3.494   2.276 -0.0036  0.8111  0.8137
    1SOL    MW4 5488   2.738   3.458   2.298  0.0188 -0.2134 -0.8638
    1SOL     OW 5489   2.949   3.600   2.218  0.2962  0.1035 -0.0847
    1SOL    HW2 5490   3.018   3.552   2.264  0.8656  2.1035  1.2037
    1SOL    HW3 5491   2.941   3.682   2.266 -0.5113  1.4033 -2.3795
    1SOL    MW4 5492   2.957   3.605   2.231  0.2646  0.5386 -0.2174
    1SOL     OW 5493   2.935   3.853   2.361 -0.5957 -0.1229  0.6078
    1SOL    HW2 5494   2.932   3.850   2.457 -1.6516 -0.6859  0.5586
    1SOL    HW3 5495   2.851   3.890   2.335 -0.3508 -0.0637 -0.1137
    1SOL    MW4 5496   2.924   3.858   2.370 -0.7026 -0.1895  0.5059
    1SOL     OW 5497   2.712   3.968   2.251  0.2517 -0.3284  0.2890
    1SOL    HW2 5498   2.624   3.932   2.265  0.8717 -2.0132 -0.0209
    1SOL    HW3 5499   2.717   3.983   2.156  0.4397 -0.6507  0.2453
    1SOL    MW4 5500   2.701   3.965   2.240  0.3583 -0.5932  0.2425
    1SOL     OW 5501   2.670   4.232   2.341  0.4274  0.1617 -0.3588
    1SOL    HW2 5502   2.680   4.224   2.436 -1.0479 -0.8597 -0.2679
    1SOL    HW3 5503   2.676   4.143   2.308  1.0284  0.5236 -1.2473
    1SOL    MW4 5504   2.672   4.219   2.349  0.3121  0.0749 -0.4642
    1SOL     OW 5505   2.887   4.376   2.251  0.2163 -0.2793  0.0462
    1SOL    HW2 5506   2.957   4.322   2.289 -0.9001 -1.9128 -0.1818
    1SOL    HW3 5507   2.806   4.337   2.284 -0.6272  1.0996 -0.3479
    1SOL    MW4 5508   2.886   4.363   2.261 -0.0420 -0.3128 -0.0360
    1SOL     OW 5509   3.358   4.648   2.351  0.2346  0.4352  0.3490
    1SOL    HW2 5510   3.370   4.641   2.446  1.8759  1.3641  0.2260
    1SOL    HW3 5511   3.443   4.679   2.319 -0.5045  0.7133 -1.3523
    1SOL    MW4 5512   3.371   4.651   2.360  0.3538  0.5941  0.1085
    1SOL     OW 5513   3.132   0.114   2.264  0.5530  0.3550  0.1043
    1SOL    HW2 5514   3.126   0.191   2.320  1.1417  0.2592  0.2981
    1SOL    HW3 5515   3.211   0.068   2.293 -1.6250 -2.1936  2.3216
    1SOL    MW4 5516   3.141   0.118   2.275  0.3431  0.0061  0.4225
    1SOL     OW 5517   3.113   0.346   2.400 -0.5477  0.9670  0.0723
    1SOL    HW2 5518   3.196   0.386   2.374 -0.3949  0.9324  0.5018
    1SOL    HW3 5519   3.047   0.401   2.358 -0.3859  2.4969  1.7221
    1SOL    MW4 5520   3.115   0.359   2.391 -0.5064  1.1643  0.3469
    1SOL     OW 5521   3.358   0.464   2.286  0.5270 -0.5265  0.6597
    1SOL    HW2 5522   3.449   0.432   2.293  0.6261 -0.2424  0.6844
    1SOL    HW3 5523   3.337   0.458   2.193  0.5331 -0.6978  0.6697
    1SOL    MW4 5524   3.368   0.459   2.275  0.5405 -0.5116  0.6645
    1SOL     OW 5525   3.345   0.727   2.370  0.4489  0.3948  0.5832
    1SOL    HW2 5526   3.425   0.768   2.338  0.6425 -0.7183 -0.4109
    1SOL    HW3 5527   3.349   0.637   2.337 -0.6402 -0.0178  1.5211
    1SOL    MW4 5528   3.356   0.720   2.361  0.3307  0.1935  0.5758
    1SOL     OW 5529   3.156   0.865   2.217  0.8258 -0.7918 -0.0919
    1SOL    HW2 5530   3.220   0.807   2.258  1.1225  0.4666  1.2786
    1SOL    HW3 5531   3.071   0.830   2.242  1.0041 -0.6770  0.6845
    1SOL    MW4 5532   3.153   0.853   2.226  0.8886 -0.6106  0.1912
    1SOL     OW 5533   3.184   1.124   2.358 -0.0781  0.0326 -0.0254
    1SOL    HW2 5534   3.260   1.157   2.310  0.3827 -0.9626  0.0003
    1SOL    HW3 5535   3.156   1.047   2.307 -0.8993  0.2395  0.1142
    1SOL    MW4 5536   3.190   1.118   2.345 -0.1254 -0.0714 -0.0036
    1SOL     OW 5537   3.379   1.263   2.233  0.4263  0.1095 -0.3881
    1SOL    HW2 5538   3.458   1.220   2.266  0.4811 -0.0606 -0.7363
    1SOL    HW3 5539   3.369   1.341   2.287  0.8236  0.1228 -0.3358
    1SOL    MW4 5540   3.388   1.267   2.244  0.4857  0.0888 -0.4272
    1SOL     OW 5541   3.411   1.509   2.349 -0.2104  0.8150 -0.5107
    1SOL    HW2 5542   3.417   1.502   2.444  0.2534  1.3906 -0.4929
    1SOL    HW3 5543   3.326   1.549   2.333  0.3229  2.0887 -0.2563
    1SOL    MW4 5544   3.401   1.514   2.359 -0.0789  1.0591 -0.4747
    1SOL     OW 5545   3.165   1.635   2.269 -0.1666  0.1867  0.6665
    1SOL    HW2 5546   3.159   1.718   2.315 -0.9968  0.2432  0.4590
    1SOL    HW3 5547   3.089   1.585   2.300  0.9772 -0.9432  1.6850
    1SOL    MW4 5548   3.154   1.639   2.279 -0.1254  0.0451  0.7737
    1SOL     OW 5549   3.139   1.893   2.424 -0.0154 -0.2938  0.0982
    1SOL    HW2 5550   3.131   1.915   2.517 -0.0376  0.9763 -0.1855
    1SOL    HW3 5551   3.215   1.944   2.394  0.1021 -0.8338 -0.5391
    1SOL    MW4 5552   3.148   1.903   2.432 -0.0031 -0.1974 -0.0234
    1SOL     OW 5553   3.344   2.022   2.308  0.0194  0.3282 -0.0609
    1SOL    HW2 5554   3.432   1.991   2.328  0.2469  1.1763  0.2644
    1SOL    HW3 5555   3.345   2.040   2.214  0.1744  0.2848 -0.0675
    1SOL    MW4 5556   3.356   2.020   2.298  0.0699  0.4344 -0.0186
    1SOL     OW 5557   3.362   2.294   2.345 -0.3272 -0.1637 -0.3444
    1SOL    HW2 5558   3.275   2.314   2.310 -0.7948 -1.5771 -0.0052
    1SOL    HW3 5559   3.373   2.200   2.329  0.6421 -0.2327  0.6989
    1SOL    MW4 5560   3.352   2.284   2.338 -0.2608 -0.3595 -0.1621
    1SOL     OW 5561   3.132   2.414   2.254  0.1241  0.0215  0.5514
    1SOL    HW2 5562   3.152   2.497   2.298  0.2682 -1.0935  2.6344
    1SOL    HW3 5563   3.049   2.386   2.293  0.3070 -1.0483  0.1914
    1SOL    MW4 5564   3.123   2.421   2.265  0.1671 -0.2668  0.7789
    1SOL     OW 5565   3.179   2.672   2.354 -0.3147 -0.0896  0.8520
    1SOL    HW2 5566   3.199   2.695   2.444  1.9320  0.5485  0.2257
    1SOL    HW3 5567   3.116   2.738   2.326  0.5853  0.9608  1.3016
    1SOL    MW4 5568   3.173   2.684   2.362  0.1006  0.1333  0.8283
    1SOL     OW 5569   3.389   2.808   2.216  0.0173 -0.1964  0.4497
    1SOL    HW2 5570   3.384   2.891   2.264  1.2224  0.6267 -0.8335
    1SOL    HW3 5571   3.315   2.758   2.249  0.4055  0.6345  2.6584
    1SOL    MW4 5572   3.379   2.813   2.227  0.2277  0.0217  0.5717
    1SOL     OW 5573   3.364   3.059   2.348 -0.2404  0.0143  0.1768
    1SOL    HW2 5574   3.444   3.111   2.335  0.2869 -0.6818  0.6156
    1SOL    HW3 5575   3.295   3.110   2.304 -0.1806  2.2281  2.4981
    1SOL    MW4 5576   3.365   3.073   2.340 -0.1628  0.2146  0.5410
    1SOL     OW 5577   3.163   3.207   2.217  0.1916  0.1377  0.3839
    1SOL    HW2 5578   3.159   3.291   2.263  1.0430  0.0750  0.5864
    1SOL    HW3 5579   3.077   3.167   2.231 -0.5128  1.3642 -0.4613
    1SOL    MW4 5580   3.151   3.213   2.225  0.2110  0.2911  0.2995
    1SOL     OW 5581   3.165   3.455   2.321  0.1026 -0.4850  0.2211
    1SOL    HW2 5582   3.155   3.443   2.415  0.4539  1.3934  0.5234
    1SOL    HW3 5583   3.247   3.504   2.312 -0.5318  0.3912 -0.9673
    1SOL    MW4 5584   3.175   3.460   2.332  0.0653 -0.1218  0.1044
    1SOL     OW 5585   3.390   3.590   2.253 -0.3257 -0.6375 -0.5244
    1SOL    HW2 5586   3.472   3.544   2.270  0.8053  1.1763 -0.9153
    1SOL    HW3 5587   3.381   3.587   2.157  0.1730  0.6138 -0.6209
    1SOL    MW4 5588   3.400   3.584   2.242 -0.1109 -0.2329 -0.5887
    1SOL     OW 5589   3.376   3.860   2.377  0.3599  0.2768 -0.0486
    1SOL    HW2 5590   3.454   3.900   2.339  0.9621 -0.6497  0.1831
    1SOL    HW3 5591   3.365   3.779   2.327  0.7808 -0.6326  1.2947
    1SOL    MW4 5592   3.385   3.854   2.365  0.4950  0.0343  0.1593
    1SOL     OW 5593   3.152   4.003   2.263  0.2775 -0.6327  0.0393
    1SOL    HW2 5594   3.224   3.955   2.304  0.0372  0.8404  2.3045
    1SOL    HW3 5595   3.073   3.954   2.287  0.1411  0.2047  1.3507
    1SOL    MW4 5596   3.151   3.990   2.272  0.2279 -0.3273  0.5112
    1SOL     OW 5597   3.160   4.243   2.383 -0.5962 -0.0182  0.5859
    1SOL    HW2 5598   3.236   4.284   2.342 -0.9519 -0.0256 -0.0867
    1SOL    HW3 5599   3.152   4.159   2.339 -1.7936  0.5368 -0.2911
    1SOL    MW4 5600   3.169   4.237   2.372 -0.8013  0.0548  0.3815
    1SOL     OW 5601   3.382   4.373   2.290 -0.3702  0.2322  0.2280
    1SOL    HW2 5602   3.372   4.467   2.305  0.4560  0.4988 -0.8209
    1SOL    HW3 5603   3.383   4.364   2.194 -0.4811 -0.8467  0.3238
    1SOL    MW4 5604   3.381   4.384   2.279 -0.2759  0.1254  0.1023
    1SOL     OW 5605   3.838   4.645   2.384 -0.2275  0.1364 -0.1633
    1SOL    HW2 5606   3.831   4.659   2.479 -0.5961  1.0051 -0.3135
    1SOL    HW3 5607   3.921   4.688   2.360 -0.3675  0.3242 -0.3085
    1SOL    MW4 5608   3.848   4.652   2.394 -0.2947  0.2756 -0.2024
    1SOL     OW 5609   3.600   0.094   2.267 -0.3369 -0.5331  0.3217
    1SOL    HW2 5610   3.595   0.186   2.293  0.4153 -0.0597 -1.1366
    1SOL    HW3 5611   3.680   0.061   2.308  1.5043  0.5358 -2.2685
    1SOL    MW4 5612   3.610   0.102   2.276  0.0050 -0.3296 -0.2124
    1SOL     OW 5613   3.613   0.354   2.349 -0.0290  0.4346  0.6612
    1SOL    HW2 5614   3.612   0.377   2.442  1.0867 -0.7569  0.9855
    1SOL    HW3 5615   3.700   0.380   2.319 -0.0015 -0.1641  0.2146
    1SOL    MW4 5616   3.625   0.361   2.358  0.1216  0.1984  0.6452
    1SOL     OW 5617   3.845   0.462   2.250 -0.4233  0.6685 -0.4531
    1SOL    HW2 5618   3.845   0.553   2.280 -0.2349  0.7102 -0.5837
    1SOL    HW3 5619   3.824   0.467   2.157  0.7394  0.6629 -0.7248
    1SOL    MW4 5620   3.842   0.475   2.242 -0.2451  0.6733 -0.5062
    1SOL     OW 5621   3.855   0.738   2.340  0.3651 -0.0472  0.2088
    1SOL    HW2 5622   3.871   0.751   2.434 -1.0549  0.2311  0.4260
    1SOL    HW3 5623   3.925   0.788   2.297 -1.1374  2.9740  1.1056
    1SOL    MW4 5624   3.867   0.746   2.347 -0.0207  0.3883  0.3560
    1SOL     OW 5625   3.591   0.840   2.303 -0.5848 -0.3625  0.1683
    1SOL    HW2 5626   3.678   0.801   2.311 -0.4703 -0.2658 -0.5734
    1SOL    HW3 5627   3.577   0.847   2.208 -0.9849  0.5452  0.2935
    1SOL    MW4 5628   3.601   0.836   2.291 -0.6225 -0.2300  0.0868
    1SOL     OW 5629   3.572   1.134   2.374 -0.1809  0.4076  0.1795
    1SOL    HW2 5630   3.587   1.132   2.469  0.1382  0.1646  0.1245
    1SOL    HW3 5631   3.593   1.045   2.344  0.0302  0.5750 -0.1666
    1SOL    MW4 5632   3.577   1.122   2.383 -0.1106  0.3976  0.1264
    1SOL     OW 5633   3.792   1.258   2.249 -0.6193 -0.1262 -0.6846
    1SOL    HW2 5634   3.800   1.350   2.273  0.2625 -0.6725  1.1649
    1SOL    HW3 5635   3.729   1.222   2.310 -1.0554 -0.7389 -1.4809
    1SOL    MW4 5636   3.785   1.266   2.260 -0.5603 -0.2791 -0.5455
    1SOL     OW 5637   3.832   1.511   2.343  0.3320  0.3325 -0.3714
    1SOL    HW2 5638   3.832   1.502   2.438  1.4082  0.0760 -0.3895
    1SOL    HW3 5639   3.755   1.564   2.324  0.1429  0.4315  0.6496
    1SOL    MW4 5640   3.822   1.517   2.353  0.4489  0.3117 -0.2391
    1SOL     OW 5641   3.608   1.673   2.249 -0.3498  0.4265 -0.0099
    1SOL    HW2 5642   3.543   1.607   2.274 -0.9161  0.7462 -0.6454
    1SOL    HW3 5643   3.606   1.674   2.153  0.0898  0.9384 -0.0142
    1SOL    MW4 5644   3.599   1.665   2.240 -0.3667  0.5362 -0.0942
    1SOL     OW 5645   3.605   1.927   2.354  0.4856  0.0697  0.2168
    1SOL    HW2 5646   3.678   1.984   2.330 -1.4653  2.0460 -1.1991
    1SOL    HW3 5647   3.615   1.850   2.298  0.1964  1.3663 -1.6718
    1SOL    MW4 5648   3.616   1.924   2.344  0.1900  0.5014 -0.2193
    1SOL     OW 5649   3.828   2.065   2.294 -0.0756  0.1923 -0.0679
    1SOL    HW2 5650   3.909   2.032   2.331 -1.4063 -3.1146  0.1050
    1SOL    HW3 5651   3.841   2.061   2.199 -0.6148 -1.9201 -0.0601
    1SOL    MW4 5652   3.840   2.060   2.286 -0.3223 -0.5229 -0.0443
    1SOL     OW 5653   3.816   2.334   2.368  0.0621  0.3357  0.1650
    1SOL    HW2 5654   3.759   2.388   2.313  1.7462  0.3302 -1.6332
    1SOL    HW3 5655   3.811   2.246   2.329  1.1455  0.2961  0.1082
    1SOL    MW4 5656   3.807   2.329   2.355  0.4275  0.3295 -0.0796
    1SOL     OW 5657   3.601   2.445   2.254  0.2370 -0.4202  0.0795
    1SOL    HW2 5658   3.524   2.399   2.288 -0.0245 -1.5802 -2.0034
    1SOL    HW3 5659   3.595   2.434   2.159  0.7205  3.0933 -0.3910
    1SOL    MW4 5660   3.590   2.437   2.246  0.2663 -0.1094 -0.2573
    1SOL     OW 5661   3.625   2.686   2.362  0.6140 -0.1810  0.4576
    1SOL    HW2 5662   3.616   2.594   2.338  1.2189 -0.5903  1.7140
    1SOL    HW3 5663   3.558   2.731   2.312 -0.1858 -1.4130  0.3895
    1SOL    MW4 5664   3.615   2.680   2.352  0.5884 -0.3979  0.6142
    1SOL     OW 5665   3.833   2.813   2.233  0.3311 -0.3109  0.1906
    1SOL    HW2 5666   3.824   2.894   2.283 -0.6918  0.2871 -0.9553
    1SOL    HW3 5667   3.760   2.758   2.263  0.1326 -0.2227 -0.1293
    1SOL    MW4 5668   3.822   2.817   2.243  0.1700 -0.2203 -0.0029
    1SOL     OW 5669   3.833   3.051   2.369 -0.3918  0.0453 -0.4108
    1SOL    HW2 5670   3.841   3.055   2.465  0.4061 -1.9870 -0.3725
    1SOL    HW3 5671   3.923   3.067   2.338 -0.4879 -0.1808 -0.7990
    1SOL    MW4 5672   3.846   3.054   2.378 -0.2992 -0.2525 -0.4570
    1SOL     OW 5673   3.604   3.178   2.281 -0.6561  0.1324 -0.6418
    1SOL    HW2 5674   3.615   3.270   2.304 -1.5202 -0.6741  3.3981
    1SOL    HW3 5675   3.681   3.134   2.318 -1.3362 -1.0526 -0.5836
    1SOL    MW4 5676   3.615   3.184   2.289 -0.8600 -0.1304 -0.1011
    1SOL     OW 5677   3.616   3.435   2.319 -0.6328 -0.1060  0.2163
    1SOL    HW2 5678   3.615   3.464   2.410  0.0251  0.8489 -0.0689
    1SOL    HW3 5679   3.694   3.476   2.282  0.0737 -1.9000 -0.3212
    1SOL    MW4 5680   3.626   3.445   2.326 -0.4530 -0.2167  0.1080
    1SOL     OW 5681   3.842   3.585   2.261  0.0027 -0.1207  0.5279
    1SOL    HW2 5682   3.834   3.674   2.296 -0.8043  0.0121  0.0251
    1SOL    HW3 5683   3.843   3.596   2.166 -1.3678 -0.7266  0.4247
    1SOL    MW4 5684   3.841   3.598   2.253 -0.2844 -0.1829  0.4478
    1SOL     OW 5685   3.797   3.832   2.384 -0.2613 -0.0639  0.4684
    1SOL    HW2 5686   3.784   3.841   2.479 -0.4056 -1.4318  0.5788
    1SOL    HW3 5687   3.871   3.890   2.365 -0.0039 -0.0462  1.4703
    1SOL    MW4 5688   3.805   3.841   2.394 -0.2463 -0.2420  0.6149
    1SOL     OW 5689   3.604   3.984   2.276  0.2756 -0.2994  0.2464
    1SOL    HW2 5690   3.621   4.070   2.313 -0.9380  0.0400  0.0539
    1SOL    HW3 5691   3.676   3.929   2.306  0.1265  0.3533  1.8032
    1SOL    MW4 5692   3.616   3.988   2.285  0.0956 -0.1686  0.4268
    1SOL     OW 5693   3.644   4.259   2.384  0.2267 -0.0364 -0.0677
    1SOL    HW2 5694   3.720   4.290   2.334  0.6212  0.2434  0.7028
    1SOL    HW3 5695   3.569   4.291   2.335  0.5546 -1.7038 -1.7530
    1SOL    MW4 5696   3.644   4.267   2.371  0.3221 -0.2198 -0.1884
    1SOL     OW 5697   3.828   4.390   2.246  0.4584 -0.2231  0.0988
    1SOL    HW2 5698   3.892   4.326   2.280 -0.6783 -0.7789  1.2342
    1SOL    HW3 5699   3.854   4.473   2.286 -0.5776 -0.7801  1.9909
    1SOL    MW4 5700   3.840   4.392   2.256  0.1717 -0.3700  0.4983
    1SOL     OW 5701   4.285   4.604   2.354 -0.2499  0.1880  0.2534
    1SOL    HW2 5702   4.259   4.610   2.445 -0.4704  1.5944  0.1204
    1SOL    HW3 5703   4.362   4.661   2.348  0.0255 -0.2438 -0.3406
    1SOL    MW4 5704   4.292   4.613   2.365 -0.2427  0.3166  0.1576
    1SOL     OW 5705   4.065   0.099   2.275 -0.4065  0.0889  0.7192
    1SOL    HW2 5706   4.058   0.178   2.329  0.3867  0.3512  0.4417
    1SOL    HW3 5707   4.151   0.063   2.295 -0.8714 -0.8627  1.0461
    1SOL    MW4 5708   4.075   0.105   2.285 -0.3638 -0.0020  0.7257
    1SOL     OW 5709   4.034   0.330   2.408 -0.4735 -0.3527 -0.0113
    1SOL    HW2 5710   4.110   0.372   2.368 -0.7420  1.2294  1.0752
    1SOL    HW3 5711   3.958   0.366   2.361 -0.6594 -0.2777  0.3379
    1SOL    MW4 5712   4.034   0.340   2.397 -0.5336 -0.1341  0.1781
    1SOL     OW 5713   4.256   0.477   2.313 -0.0592  0.7974 -0.1019
    1SOL    HW2 5714   4.260   0.569   2.339  0.0069  0.3101  1.6261
    1SOL    HW3 5715   4.340   0.440   2.341 -1.0603 -0.3604  1.4000
    1SOL    MW4 5716   4.268   0.484   2.320 -0.1822  0.5803  0.3242
    1SOL     OW 5717   4.287   0.752   2.349 -0.4794  0.0074  0.5123
    1SOL    HW2 5718   4.212   0.788   2.302 -0.2048  0.7133  0.6145
    1SOL    HW3 5719   4.352   0.823   2.350  0.4446 -0.8112 -0.1578
    1SOL    MW4 5720   4.286   0.766   2.343 -0.3214 -0.0075  0.4375
    1SOL     OW 5721   4.072   0.888   2.246  0.5071 -0.3867  0.2949
    1SOL    HW2 5722   4.065   0.974   2.287  0.2651  0.2238 -0.9910
    1SOL    HW3 5723   4.060   0.905   2.153 -0.3165 -1.9210  0.1052
    1SOL    MW4 5724   4.069   0.901   2.239  0.3667 -0.5086  0.1001
    1SOL     OW 5725   4.034   1.125   2.376 -0.3588 -0.2977  0.0407
    1SOL    HW2 5726   4.030   1.115   2.472 -0.0344  0.0302  0.0887
    1SOL    HW3 5727   3.961   1.183   2.354  0.8157  1.3251  0.3231
    1SOL    MW4 5728   4.024   1.131   2.386 -0.1607 -0.0403  0.0842
    1SOL     OW 5729   4.228   1.300   2.286 -0.1905 -0.0581  0.1236
    1SOL    HW2 5730   4.160   1.244   2.323 -0.6666  0.2021 -0.3396
    1SOL    HW3 5731   4.310   1.262   2.316 -0.5091 -0.9737 -0.1410
    1SOL    MW4 5732   4.230   1.288   2.295 -0.2952 -0.1445  0.0279
    1SOL     OW 5733   4.276   1.559   2.350 -0.3641 -0.2005 -0.1560
    1SOL    HW2 5734   4.254   1.471   2.319  1.4852 -0.4503 -0.7596
    1SOL    HW3 5735   4.362   1.577   2.314  0.0993  1.1056  1.5508
    1SOL    MW4 5736   4.284   1.550   2.341 -0.0591 -0.0612 -0.0105
    1SOL     OW 5737   4.033   1.677   2.274 -0.7421 -0.3831 -0.4518
    1SOL    HW2 5738   4.117   1.633   2.287 -0.0961  0.9601 -0.0317
    1SOL    HW3 5739   3.968   1.611   2.296  0.2085 -1.2364 -0.1543
    1SOL    MW4 5740   4.036   1.663   2.279 -0.5317 -0.3184 -0.3572
    1SOL     OW 5741   4.051   1.915   2.411 -0.0586 -0.3561 -0.3427
    1SOL    HW2 5742   4.033   1.909   2.505  0.5574 -2.3029 -0.3052
    1SOL    HW3 5743   4.041   1.825   2.380 -0.1624  0.2564 -2.1315
    1SOL    MW4 5744   4.047   1.902   2.419  0.0086 -0.5322 -0.5739
    1SOL     OW 5745   4.284   2.036   2.315  0.0973  0.0092  0.3986
    1SOL    HW2 5746   4.283   2.127   2.346 -0.9086  0.6424 -1.4322
    1SOL    HW3 5747   4.203   1.998   2.349 -0.3235  0.2986 -0.2774
    1SOL    MW4 5748   4.273   2.043   2.324 -0.0906  0.1309  0.0679
    1SOL     OW 5749   4.312   2.319   2.418  0.0857 -0.5661  0.2501
    1SOL    HW2 5750   4.231   2.356   2.383  0.6835  2.2281  1.7451
    1SOL    HW3 5751   4.381   2.361   2.368  0.7567 -0.0015  1.6280
    1SOL    MW4 5752   4.310   2.329   2.407  0.2527 -0.1228  0.6292
    1SOL     OW 5753   4.084   2.416   2.298  0.0321  0.6161 -0.4821
    1SOL    HW2 5754   4.086   2.512   2.300  0.7962  0.5786  0.8590
    1SOL    HW3 5755   3.998   2.393   2.333  0.4263  0.7786  0.5981
    1SOL    MW4 5756   4.073   2.426   2.303  0.1845  0.6325 -0.1626
    1SOL     OW 5757   4.041   2.694   2.353 -0.4832 -0.1786 -0.1164
    1SOL    HW2 5758   4.006   2.684   2.441 -0.6528  0.3814 -0.1190
    1SOL    HW3 5759   3.970   2.734   2.303 -0.4766 -0.7389 -0.5691
    1SOL    MW4 5760   4.027   2.698   2.358 -0.5045 -0.1786 -0.1764
    1SOL     OW 5761   4.269   2.826   2.260 -0.2435  0.1197  0.3136
    1SOL    HW2 5762   4.193   2.782   2.297 -0.4775  0.0949 -0.1938
    1SOL    HW3 5763   4.343   2.789   2.307 -0.3535 -1.5483 -0.8295
    1SOL    MW4 5764   4.268   2.816   2.271 -0.2894 -0.1035  0.0958
    1SOL     OW 5765   4.257   3.095   2.373  0.5714  0.2657 -0.3539
    1SOL    HW2 5766   4.271   3.008   2.336  0.5186  0.1756 -0.1628
    1SOL    HW3 5767   4.327   3.149   2.336 -0.6156  0.6495 -2.1064
    1SOL    MW4 5768   4.268   3.091   2.364  0.4072  0.3045 -0.5603
    1SOL     OW 5769   4.045   3.207   2.242 -0.2323 -0.5575 -0.2988
    1SOL    HW2 5770   4.040   3.296   2.276  1.3172  0.2604 -2.1144
    1SOL    HW3 5771   4.128   3.173   2.275 -0.4581 -1.0622 -0.2356
    1SOL    MW4 5772   4.055   3.214   2.251 -0.0572 -0.5159 -0.5300
    1SOL     OW 5773   4.060   3.467   2.368 -0.0171  0.1177  0.6058
    1SOL    HW2 5774   4.133   3.495   2.313  0.1208 -1.1284  0.1284
    1SOL    HW3 5775   3.985   3.515   2.334  0.2514  0.0847 -0.0409
    1SOL    MW4 5776   4.060   3.477   2.356  0.0362 -0.0510  0.4573
    1SOL     OW 5777   4.251   3.577   2.220  0.1270  0.1195 -0.0546
    1SOL    HW2 5778   4.228   3.665   2.252 -0.0686  0.0149  0.0884
    1SOL    HW3 5779   4.234   3.581   2.126  0.1058  0.2314 -0.0468
    1SOL    MW4 5780   4.246   3.589   2.212  0.0982  0.1204 -0.0343
    1SOL     OW 5781   4.245   3.823   2.375 -0.3488 -0.2285 -0.3598
    1SOL    HW2 5782   4.259   3.833   2.469 -0.9955 -0.0510 -0.2844
    1SOL    HW3 5783   4.317   3.871   2.335 -1.0004  1.0820  0.0374
    1SOL    MW4 5784   4.257   3.830   2.382 -0.5207 -0.0322 -0.2973
    1SOL     OW 5785   4.025   3.958   2.268  0.5282  0.3038 -0.0386
    1SOL    HW2 5786   4.097   3.911   2.310  0.3356 -1.7140 -1.9039
    1SOL    HW3 5787   4.054   3.972   2.178 -0.7408  0.9025 -0.3643
    1SOL    MW4 5788   4.038   3.954   2.262  0.3352  0.1168 -0.3278
    1SOL     OW 5789   4.010   4.220   2.353  0.0099  0.4571 -0.4152
    1SOL    HW2 5790   4.098   4.243   2.324  0.2573  0.1141  0.0677
    1SOL    HW3 5791   3.999   4.129   2.325  0.6304 -0.2089  1.4712
    1SOL    MW4 5792   4.020   4.211   2.345  0.1249  0.3238 -0.1028
    1SOL     OW 5793   4.257   4.323   2.274  0.0053 -0.4299  0.1980
    1SOL    HW2 5794   4.254   4.407   2.319 -1.4469 -0.5483  0.3346
    1SOL    HW3 5795   4.325   4.274   2.321 -0.8128 -0.1956  1.6438
    1SOL    MW4 5796   4.266   4.327   2.286 -0.2942 -0.4148  0.4067
    1SOL     OW 5797   0.227   4.650   2.669 -0.1404  0.3168 -0.1456
    1SOL    HW2 5798   0.218   4.569   2.720  1.2316  0.7338  0.7903
    1SOL    HW3 5799   0.150   4.702   2.694  0.6533  0.6207  1.7353
    1SOL    MW4 5800   0.215   4.646   2.679  0.1453  0.4115  0.2263
    1SOL     OW 5801   4.490   0.096   2.766 -0.1237 -0.4644 -0.0018
    1SOL    HW2 5802   4.484   0.100   2.861 -0.1393 -0.9253  0.0200
    1SOL    HW3 5803   4.516   0.184   2.740 -3.8103  0.7252  0.1207
    1SOL    MW4 5804   4.493   0.108   2.775 -0.6122 -0.3683  0.0169
    1SOL     OW 5805   0.082   0.342   2.672  0.0075  0.0066 -0.8391
    1SOL    HW2 5806   0.145   0.409   2.698 -1.1452  0.7533  0.0689
    1SOL    HW3 5807   0.061   0.363   2.581 -0.8803  1.3057 -0.3399
    1SOL    MW4 5808   0.088   0.353   2.663 -0.2617  0.2765 -0.6535
    1SOL     OW 5809   0.260   0.509   2.761 -0.5794 -0.4761 -0.4490
    1SOL    HW2 5810   0.259   0.501   2.856  1.1524 -1.4002 -0.4881
    1SOL    HW3 5811   0.331   0.451   2.732 -1.7051 -0.9475 -2.3744
    1SOL    MW4 5812   0.269   0.501   2.769 -0.4994 -0.6602 -0.7081
    1SOL     OW 5813   0.250   0.762   2.645  0.2529 -0.1007  0.0023
    1SOL    HW2 5814   0.327   0.809   2.675 -1.1290  1.6789  0.9173
    1SOL    HW3 5815   0.250   0.680   2.695  1.0344  0.3138  0.6953
    1SOL    MW4 5816   0.260   0.758   2.656  0.1737  0.1887  0.2143
    1SOL     OW 5817   0.032   0.889   2.767 -0.3565 -0.0200 -0.5050
    1SOL    HW2 5818  -0.042   0.849   2.722  0.7228 -1.4935 -1.0298
    1SOL    HW3 5819   0.109   0.852   2.723  0.7210 -1.0140  2.1318
    1SOL    MW4 5820   0.032   0.878   2.755 -0.0719 -0.3455 -0.2263
    1SOL     OW 5821   0.013   1.144   2.667  0.0257  0.0038  0.3797
    1SOL    HW2 5822   0.090   1.187   2.704  1.8867 -1.3812 -1.7213
    1SOL    HW3 5823   0.025   1.052   2.690 -0.4997 -0.3530 -0.7526
    1SOL    MW4 5824   0.025   1.137   2.675  0.2019 -0.2260 -0.0470
    1SOL     OW 5825   0.245   1.256   2.750  0.0965  0.0816 -0.6098
    1SOL    HW2 5826   0.316   1.211   2.703  0.1675  0.9272 -1.3104
    1SOL    HW3 5827   0.258   1.348   2.732  0.6363  0.5244  1.7902
    1SOL    MW4 5828   0.256   1.262   2.742  0.1771  0.2515 -0.3858
    1SOL     OW 5829   0.253   1.519   2.659 -0.0637 -0.2232 -0.2487
    1SOL    HW2 5830   0.336   1.554   2.689  0.7363 -3.9231  2.1556
    1SOL    HW3 5831   0.187   1.573   2.702  1.0391  1.7871 -1.0155
    1SOL    MW4 5832   0.255   1.531   2.668  0.1874 -0.4461 -0.0324
    1SOL     OW 5833   0.037   1.651   2.763  0.0566  0.1796 -0.4886
    1SOL    HW2 5834   0.026   1.657   2.857 -1.3140 -1.0960 -0.5487
    1SOL    HW3 5835   0.023   1.740   2.731 -0.4189  0.4252  0.4053
    1SOL    MW4 5836   0.034   1.664   2.771 -0.1870  0.0436 -0.3788
    1SOL     OW 5837   0.023   1.918   2.657 -0.3607 -0.0195 -0.3634
    1SOL    HW2 5838   0.100   1.970   2.682 -1.0115  1.2407 -0.9282
    1SOL    HW3 5839   0.039   1.894   2.566 -0.5846  0.1389 -0.4437
    1SOL    MW4 5840   0.035   1.922   2.648 -0.4761  0.1678 -0.4487
    1SOL     OW 5841   0.232   2.062   2.733  0.0104  0.1459 -0.1676
    1SOL    HW2 5842   0.319   2.025   2.715 -0.6147 -0.7646 -1.3561
    1SOL    HW3 5843   0.228   2.141   2.680  0.2019  0.3209  0.0760
    1SOL    MW4 5844   0.243   2.067   2.724 -0.0468  0.0489 -0.2928
    1SOL     OW 5845   0.232   2.317   2.618 -0.2633 -0.0904  0.2147
    1SOL    HW2 5846   0.299   2.345   2.680 -0.1177 -0.4508  0.2201
    1SOL    HW3 5847   0.149   2.336   2.661 -0.1633  0.1501  0.2996
    1SOL    MW4 5848   0.230   2.323   2.632 -0.2309 -0.1061  0.2267
    1SOL     OW 5849   4.487   2.398   2.728 -0.3478 -0.0073 -0.0879
    1SOL    HW2 5850   4.495   2.428   2.819 -2.1649 -1.5142  0.6166
    1SOL    HW3 5851   4.395   2.373   2.720  0.0024 -0.7234 -2.0976
    1SOL    MW4 5852   4.476   2.399   2.739 -0.5414 -0.3006 -0.2601
    1SOL     OW 5853   4.463   2.658   2.610  0.6145  0.3113  0.5183
    1SOL    HW2 5854   4.390   2.691   2.663  0.1973  0.1212  0.0663
    1SOL    HW3 5855   4.477   2.569   2.642 -1.6999 -0.9463 -1.7762
    1SOL    MW4 5856   4.455   2.651   2.621  0.2542  0.1204  0.1557
    1SOL     OW 5857   0.211   2.804   2.654 -0.1385  0.3364  0.3005
    1SOL    HW2 5858   0.203   2.898   2.639  0.1719  0.2440 -0.5151
    1SOL    HW3 5859   0.125   2.768   2.632 -0.1273  0.3831  0.1768
    1SOL    MW4 5860   0.199   2.812   2.649 -0.0961  0.3304  0.1769
    1SOL     OW 5861   0.189   3.091   2.640 -0.2797  0.6493 -0.0447
    1SOL    HW2 5862   0.268   3.136   2.671 -0.7277  1.3167  0.1494
    1SOL    HW3 5863   0.188   3.105   2.546 -0.1025  0.5320 -0.0643
    1SOL    MW4 5864   0.199   3.099   2.632 -0.3154  0.7217 -0.0215
    1SOL     OW 5865   4.446   3.216   2.726  0.4274  0.1207 -0.0405
    1SOL    HW2 5866   4.373   3.167   2.688  0.1910  0.8613 -0.5501
    1SOL    HW3 5867   4.524   3.170   2.695  0.1907 -0.4277  0.1712
    1SOL    MW4 5868   4.447   3.204   2.717  0.3653  0.1462 -0.0799
    1SOL     OW 5869   4.448   3.475   2.637  0.5156  0.1318  0.2633
    1SOL    HW2 5870   4.535   3.513   2.654  1.3404 -1.7209  0.3302
    1SOL    HW3 5871   4.446   3.395   2.690 -0.4641 -0.8702 -1.2361
    1SOL    MW4 5872   4.459   3.470   2.646  0.4954 -0.2446  0.0741
    1SOL     OW 5873   0.193   3.589   2.726  0.1580 -0.2651 -0.2402
    1SOL    HW2 5874   0.187   3.584   2.822  0.1110 -0.2880 -0.2443
    1SOL    HW3 5875   0.276   3.546   2.705 -0.3849 -1.3018 -0.3000
    1SOL    MW4 5876   0.203   3.583   2.736  0.0802 -0.4051 -0.2484
    1SOL     OW 5877   0.187   3.878   2.623  0.2644  0.0957  0.4453
    1SOL    HW2 5878   0.198   3.789   2.658  0.9071 -0.1854 -0.4547
    1SOL    HW3 5879   0.207   3.870   2.530  1.2696  1.3707  0.5355
    1SOL    MW4 5880   0.191   3.865   2.615  0.4818  0.2265  0.3383
    1SOL     OW 5881   4.486   4.010   2.789 -0.0136  0.1919 -0.2982
    1SOL    HW2 5882   4.494   4.101   2.761 -1.6625  0.4347 -0.0691
    1SOL    HW3 5883   4.563   3.966   2.754  0.0599  1.3757 -1.6343
    1SOL    MW4 5884   4.497   4.016   2.781 -0.2215  0.3800 -0.4442
    1SOL     OW 5885   0.003   4.276   2.658  0.7139  0.0363 -0.1133
    1SOL    HW2 5886  -0.084   4.301   2.689 -0.3318 -0.7813 -2.2694
    1SOL    HW3 5887   0.063   4.336   2.703 -1.1099  1.7135  0.1388
    1SOL    MW4 5888  -0.000   4.287   2.668  0.3352  0.1493 -0.3643
    1SOL     OW 5889   0.235   4.379   2.786  0.1369  0.7804  0.1683
    1SOL    HW2 5890   0.258   4.362   2.878 -1.7104 -1.2142  0.3103
    1SOL    HW3 5891   0.295   4.324   2.736  0.1457  0.7255  0.2386
    1SOL    MW4 5892   0.246   4.370   2.792 -0.1057  0.5102  0.1962
    1SOL     OW 5893   0.648   4.635   2.607 -0.3282 -0.0500  0.1646
    1SOL    HW2 5894   0.719   4.674   2.657 -0.0591  0.3518 -0.5227
    1SOL    HW3 5895   0.568   4.665   2.650 -0.1035  0.4894  0.2087
    1SOL    MW4 5896   0.647   4.644   2.619 -0.2631  0.0744  0.0796
    1SOL     OW 5897   0.458   0.079   2.768 -0.4761  0.3617 -0.1259
    1SOL    HW2 5898   0.453   0.080   2.863  1.2214  0.8939 -0.0225
    1SOL    HW3 5899   0.370   0.055   2.739 -0.4446 -2.0009  1.6035
    1SOL    MW4 5900   0.446   0.076   2.777 -0.2480  0.1202  0.1159
    1SOL     OW 5901   0.466   0.341   2.639 -0.0502 -0.1294  0.5067
    1SOL    HW2 5902   0.546   0.391   2.655 -0.3396  0.3853  0.3815
    1SOL    HW3 5903   0.483   0.255   2.676  0.6796 -0.1235  0.1956
    1SOL    MW4 5904   0.479   0.336   2.646  0.0079 -0.0607  0.4492
    1SOL     OW 5905   0.696   0.488   2.712 -0.2058  0.2850 -0.4443
    1SOL    HW2 5906   0.691   0.489   2.807  0.7167  1.7960 -0.4068
    1SOL    HW3 5907   0.771   0.432   2.692 -0.9705 -0.7987 -0.3177
    1SOL    MW4 5908   0.705   0.480   2.722 -0.1850  0.3413 -0.4225
    1SOL     OW 5909   0.690   0.755   2.616 -0.4616  0.7476  0.2036
    1SOL    HW2 5910   0.769   0.782   2.663  0.6586 -1.4130 -0.3524
    1SOL    HW3 5911   0.676   0.664   2.643 -0.9129  0.0819 -2.1528
    1SOL    MW4 5912   0.698   0.746   2.626 -0.3734  0.3747 -0.1802
    1SOL     OW 5913   0.487   0.913   2.715  0.2220  0.3377  0.2683
    1SOL    HW2 5914   0.498   0.912   2.811  0.5753  0.6556  0.2298
    1SOL    HW3 5915   0.547   0.846   2.683 -1.2947 -1.1140  0.4170
    1SOL    MW4 5916   0.496   0.904   2.724  0.0685  0.1881  0.2830
    1SOL     OW 5917   0.471   1.155   2.594 -0.6345  0.0760 -0.1758
    1SOL    HW2 5918   0.538   1.196   2.648  0.9678  0.1715 -2.1748
    1SOL    HW3 5919   0.472   1.063   2.621  0.6568 -0.0222 -0.5452
    1SOL    MW4 5920   0.480   1.148   2.605 -0.2528  0.0757 -0.4880
    1SOL     OW 5921   0.668   1.271   2.748  0.0985  0.0341  0.0202
    1SOL    HW2 5922   0.676   1.270   2.843 -0.0184 -0.5422  0.0255
    1SOL    HW3 5923   0.744   1.222   2.717 -0.9811 -1.6085 -0.0965
    1SOL    MW4 5924   0.679   1.264   2.756 -0.0594 -0.2587  0.0057
    1SOL     OW 5925   0.690   1.532   2.667 -0.0618 -0.2645  0.1508
    1SOL    HW2 5926   0.614   1.573   2.708  1.0402  1.5670  0.4023
    1SOL    HW3 5927   0.678   1.439   2.683 -2.4912 -0.0486 -0.2194
    1SOL    MW4 5928   0.679   1.525   2.675 -0.2369  0.0057  0.1349
    1SOL     OW 5929   0.473   1.670   2.768 -0.0250  0.0203 -0.0150
    1SOL    HW2 5930   0.470   1.667   2.864 -2.6553 -0.8528 -0.0891
    1SOL    HW3 5931   0.467   1.762   2.746 -0.5652  0.1392  0.6276
    1SOL    MW4 5932   0.472   1.682   2.778 -0.4433 -0.0793  0.0598
    1SOL     OW 5933   0.469   1.927   2.661 -0.0445  0.1790  0.0678
    1SOL    HW2 5934   0.543   1.983   2.683 -1.7795  1.8066  1.8814
    1SOL    HW3 5935   0.469   1.924   2.565  1.3152  1.5638  0.0175
    1SOL    MW4 5936   0.479   1.934   2.651 -0.0940  0.5764  0.3006
    1SOL     OW 5937   0.686   2.071   2.769  0.5654  0.0882  0.4501
    1SOL    HW2 5938   0.681   2.054   2.863  0.4803 -2.9547 -0.0435
    1SOL    HW3 5939   0.758   2.016   2.738  0.1778  0.5538 -1.3656
    1SOL    MW4 5940   0.694   2.061   2.777  0.5030 -0.2520  0.1454
    1SOL     OW 5941   0.674   2.301   2.618  0.0502 -0.4835 -0.0692
    1SOL    HW2 5942   0.740   2.352   2.663  0.3589 -0.7456 -0.2264
    1SOL    HW3 5943   0.671   2.218   2.665  0.7602 -0.9637 -0.8634
    1SOL    MW4 5944   0.682   2.297   2.630  0.1846 -0.5815 -0.1948
    1SOL     OW 5945   0.462   2.392   2.767  0.0683  0.3293  0.4595
    1SOL    HW2 5946   0.454   2.483   2.740  1.5893  0.8364  1.6776
    1SOL    HW3 5947   0.537   2.359   2.719 -0.8923 -0.5081 -0.5093
    1SOL    MW4 5948   0.471   2.399   2.757  0.1422  0.2856  0.4926
    1SOL     OW 5949   0.443   2.639   2.653  0.0463 -0.2612  0.3506
    1SOL    HW2 5950   0.511   2.703   2.675 -0.8382  0.7739  0.0958
    1SOL    HW3 5951   0.361   2.687   2.660 -0.7284 -1.6515  1.2331
    1SOL    MW4 5952   0.441   2.654   2.657 -0.1726 -0.3078  0.4334
    1SOL     OW 5953   0.644   2.800   2.740 -0.2056 -0.3926 -0.0819
    1SOL    HW2 5954   0.648   2.789   2.835 -0.9916 -0.5324 -0.0621
    1SOL    HW3 5955   0.655   2.893   2.726 -0.3535 -0.3357  0.1684
    1SOL    MW4 5956   0.646   2.811   2.751 -0.3288 -0.4036 -0.0465
    1SOL     OW 5957   0.692   3.054   2.640  0.0284 -0.0264 -0.0410
    1SOL    HW2 5958   0.773   3.086   2.680 -0.4162  1.8047 -0.6008
    1SOL    HW3 5959   0.711   3.049   2.547 -0.2963 -0.2719 -0.0959
    1SOL    MW4 5960   0.705   3.058   2.633 -0.0731  0.1826 -0.1223
    1SOL     OW 5961   0.453   3.203   2.696 -0.1440 -0.6065  0.3488
    1SOL    HW2 5962   0.438   3.212   2.790 -2.5133 -0.0424 -0.0537
    1SOL    HW3 5963   0.532   3.149   2.689 -1.0896 -2.3848  2.6525
    1SOL    MW4 5964   0.462   3.197   2.707 -0.5814 -0.7668  0.5996
    1SOL     OW 5965   0.441   3.477   2.631  0.1803  0.1706  0.0934
    1SOL    HW2 5966   0.446   3.389   2.668  0.5313 -0.1321 -0.6699
    1SOL    HW3 5967   0.456   3.465   2.538 -0.2371  0.9889 -0.0861
    1SOL    MW4 5968   0.443   3.464   2.624  0.1715  0.2387 -0.0310
    1SOL     OW 5969   0.676   3.617   2.722  0.2496 -0.1954 -0.8363
    1SOL    HW2 5970   0.677   3.629   2.817 -0.3025  0.0709 -0.8667
    1SOL    HW3 5971   0.596   3.569   2.704  0.8911 -1.2003 -1.0550
    1SOL    MW4 5972   0.666   3.612   2.732  0.2614 -0.2930 -0.8690
    1SOL     OW 5973   0.645   3.877   2.642 -0.1555 -0.0930 -0.0904
    1SOL    HW2 5974   0.564   3.924   2.666  0.2519  0.8182 -0.4810
    1SOL    HW3 5975   0.631   3.788   2.674 -0.5950  0.5052  1.4488
    1SOL    MW4 5976   0.632   3.872   2.650 -0.1597  0.1061  0.0610
    1SOL     OW 5977   0.401   3.985   2.738 -0.2087  0.1015 -0.3914
    1SOL    HW2 5978   0.405   4.078   2.720  0.7754  0.0941 -0.2170
    1SOL    HW3 5979   0.318   3.957   2.700 -1.0852  1.2681  0.6122
    1SOL    MW4 5980   0.390   3.993   2.731 -0.1945  0.2544 -0.2358
    1SOL     OW 5981   0.431   4.259   2.660  0.3624 -0.0585 -0.1881
    1SOL    HW2 5982   0.497   4.315   2.701  0.0118 -0.3114  0.7409
    1SOL    HW3 5983   0.449   4.265   2.566  0.2966  1.6510 -0.1075
    1SOL    MW4 5984   0.442   4.267   2.653  0.3074  0.1335 -0.0548
    1SOL     OW 5985   0.661   4.391   2.757  0.0500  0.0032 -0.0260
    1SOL    HW2 5986   0.737   4.343   2.725  0.2571  0.0507  0.3966
    1SOL    HW3 5987   0.662   4.473   2.709  0.5858  0.2379  0.3857
    1SOL    MW4 5988   0.671   4.395   2.746  0.1480  0.0405  0.0839
    1SOL     OW 5989   1.131   4.619   2.644  0.0963  0.4195  0.3361
    1SOL    HW2 5990   1.214   4.656   2.675 -0.5012  1.5419  0.6359
    1SOL    HW3 5991   1.137   4.526   2.666  1.4221  0.4150  0.0241
    1SOL    MW4 5992   1.143   4.612   2.651  0.1922  0.5665  0.3345
    1SOL     OW 5993   0.883   0.068   2.728  0.1876 -0.1716  0.5131
    1SOL    HW2 5994   0.884   0.059   2.824  0.2764  0.3462  0.5597
    1SOL    HW3 5995   0.963   0.024   2.699 -0.2462 -1.0450  0.6120
    1SOL    MW4 5996   0.893   0.061   2.737  0.1420 -0.2185  0.5322
    1SOL     OW 5997   0.910   0.330   2.632 -0.0929 -0.1791 -0.2448
    1SOL    HW2 5998   0.899   0.237   2.649 -0.9819 -0.1465 -0.6148
    1SOL    HW3 5999   0.875   0.342   2.543 -0.2961  0.5622 -0.0692
    1SOL    MW4 6000   0.904   0.319   2.622 -0.2370 -0.0770 -0.2706
    1SOL     OW 6001   1.137   0.451   2.745 -0.6602 -0.2691  0.3062
    1SOL    HW2 6002   1.119   0.537   2.706  0.3538 -0.5709 -0.8224
    1SOL    HW3 6003   1.072   0.393   2.706 -0.6273 -0.2509  0.2241
    1SOL    MW4 6004   1.126   0.455   2.735 -0.5221 -0.3065  0.1464
    1SOL     OW 6005   1.107   0.719   2.653  0.3430  0.3100 -0.5138
    1SOL    HW2 6006   1.191   0.760   2.673  0.7424 -0.5167 -0.4856
    1SOL    HW3 6007   1.100   0.724   2.558  0.7108 -0.1788 -0.5669
    1SOL    MW4 6008   1.117   0.725   2.643  0.4442  0.1364 -0.5171
    1SOL     OW 6009   0.895   0.892   2.735 -0.1325 -0.0717 -0.7445
    1SOL    HW2 6010   0.881   0.897   2.830 -0.0470  0.3847 -0.7567
    1SOL    HW3 6011   0.978   0.846   2.725 -0.2708 -0.3535 -0.6052
    1SOL    MW4 6012   0.904   0.887   2.746 -0.1395 -0.0486 -0.7279
    1SOL     OW 6013   0.891   1.151   2.642  0.3011 -0.1724 -0.1250
    1SOL    HW2 6014   0.884   1.060   2.671  1.2686 -0.4079 -0.6215
    1SOL    HW3 6015   0.871   1.148   2.548  0.2299  0.1375 -0.1193
    1SOL    MW4 6016   0.887   1.139   2.633  0.4194 -0.1626 -0.1895
    1SOL     OW 6017   1.126   1.287   2.727 -0.1600 -0.1779  0.0046
    1SOL    HW2 6018   1.119   1.375   2.691 -1.2746  0.0005  0.6333
    1SOL    HW3 6019   1.043   1.245   2.705  0.1866 -0.9207  0.0991
    1SOL    MW4 6020   1.114   1.293   2.720 -0.2613 -0.2524  0.1004
    1SOL     OW 6021   1.124   1.534   2.624  0.3321 -0.4849 -0.3856
    1SOL    HW2 6022   1.039   1.577   2.638  0.3571 -0.4594 -0.3132
    1SOL    HW3 6023   1.132   1.530   2.528 -0.0994 -1.1847 -0.3928
    1SOL    MW4 6024   1.114   1.539   2.613  0.2784 -0.5739 -0.3769
    1SOL     OW 6025   0.912   1.663   2.753 -0.0859 -0.0128  0.2055
    1SOL    HW2 6026   0.914   1.674   2.848 -0.2594  1.3421  0.0743
    1SOL    HW3 6027   0.830   1.616   2.735 -0.2237  0.0409  0.7014
    1SOL    MW4 6028   0.901   1.659   2.763 -0.1270  0.1730  0.2537
    1SOL     OW 6029   0.886   1.920   2.643 -0.2009 -0.3527  0.0934
    1SOL    HW2 6030   0.964   1.969   2.670 -0.6455  0.6221 -0.3572
    1SOL    HW3 6031   0.901   1.831   2.676 -0.2734  0.5462  2.6395
    1SOL    MW4 6032   0.898   1.915   2.651 -0.2691 -0.1055  0.3700
    1SOL     OW 6033   1.117   2.064   2.763 -0.0300 -0.3723 -0.0078
    1SOL    HW2 6034   1.204   2.034   2.736 -0.8017 -1.7920 -1.0308
    1SOL    HW3 6035   1.118   2.159   2.748  1.0052 -0.5331 -1.0131
    1SOL    MW4 6036   1.128   2.073   2.757  0.0048 -0.5808 -0.2754
    1SOL     OW 6037   1.124   2.330   2.652  0.7718  0.0969  0.1542
    1SOL    HW2 6038   1.202   2.383   2.668  0.0264  1.4080 -0.4704
    1SOL    HW3 6039   1.119   2.322   2.557 -0.7368  1.3968  0.1007
    1SOL    MW4 6040   1.134   2.336   2.642  0.4743  0.4416  0.0648
    1SOL     OW 6041   0.883   2.425   2.771  0.0931 -0.1846  0.5008
    1SOL    HW2 6042   0.882   2.516   2.740 -0.5528 -0.1692  0.5671
    1SOL    HW3 6043   0.963   2.388   2.732 -1.2074 -0.4462 -2.0161
    1SOL    MW4 6044   0.894   2.432   2.761 -0.1637 -0.2174  0.1776
    1SOL     OW 6045   0.867   2.669   2.648 -0.2299 -0.1609  0.1428
    1SOL    HW2 6046   0.933   2.725   2.688  0.7368 -1.8590  0.9660
    1SOL    HW3 6047   0.783   2.706   2.677  0.4156  0.0247  1.8412
    1SOL    MW4 6048   0.865   2.682   2.657 -0.0172 -0.3605  0.4754
    1SOL     OW 6049   1.083   2.832   2.716  0.0000  0.0000 -0.0035
    1SOL    HW2 6050   1.106   2.825   2.809  0.0000  0.0000 -0.0045
    1SOL    HW3 6051   1.159   2.795   2.670  0.0000  0.0000 -0.0067
    1SOL    MW4 6052   1.096   2.826   2.722  0.0000  0.0000 -0.0041
    1SOL     OW 6053   1.148   3.096   2.625  0.0000  0.0000 -0.1464
    1SOL    HW2 6054   1.122   3.007   2.648  0.0000  0.0000 -0.1469
    1SOL    HW3 6055   1.136   3.101   2.530  0.0000  0.0000 -0.1464
    1SOL    MW4 6056   1.143   3.085   2.615  0.0000  0.0000 -0.1464
    1SOL     OW 6057   0.919   3.208   2.727  0.0000  0.0000  0.2835
    1SOL    HW2 6058   0.903   3.287   2.675  0.0000  0.0000  0.2551
    1SOL    HW3 6059   1.006   3.179   2.699  0.0000  0.0000  0.3167
    1SOL    MW4 6060   0.928   3.215   2.716  0.0000  0.0000  0.2842
    1SOL     OW 6061   0.887   3.462   2.612  0.0000  0.0000 -0.0752
    1SOL    HW2 6062   0.961   3.508   2.653  0.0000  0.0000 -0.1015
    1SOL    HW3 6063   0.810   3.511   2.642  0.0000  0.0000 -0.0535
    1SOL    MW4 6064   0.887   3.475   2.622  0.0000  0.0000 -0.0758
    1SOL     OW 6065   1.102   3.599   2.734  0.0000  0.0000 -0.2316
    1SOL    HW2 6066   1.101   3.626   2.826  0.0000  0.0000 -0.2330
    1SOL    HW3 6067   1.100   3.681   2.685  0.0000  0.0000 -0.2365
    1SOL    MW4 6068   1.102   3.613   2.740  0.0000  0.0000 -0.2322
    1SOL     OW 6069   1.098   3.851   2.611  0.0000  0.0000 -0.6208
    1SOL    HW2 6070   1.178   3.889   2.648  0.0000  0.0000 -0.6236
    1SOL    HW3 6071   1.110   3.859   2.516  0.0000  0.0000 -0.6213
    1SOL    MW4 6072   1.110   3.857   2.603  0.0000  0.0000 -0.6213
    1SOL     OW 6073   0.893   4.008   2.760  0.0000  0.0000  0.1258
    1SOL    HW2 6074   0.957   3.963   2.705  0.0000  0.0000  0.1283
    1SOL    HW3 6075   0.809   3.969   2.734  0.0000  0.0000  0.1204
    1SOL    MW4 6076   0.890   3.997   2.750  0.0000  0.0000  0.1254
    1SOL     OW 6077   0.888   4.266   2.656  0.0000  0.0000  0.0714
    1SOL    HW2 6078   0.892   4.173   2.680  0.0000  0.0000  0.0737
    1SOL    HW3 6079   0.884   4.265   2.560  0.0000  0.0000  0.0715
    1SOL    MW4 6080   0.888   4.254   2.646  0.0000  0.0000  0.0718
    1SOL     OW 6081   1.144   4.351   2.739  0.0000  0.0000  0.0432
    1SOL    HW2 6082   1.137   4.378   2.831  0.0000  0.0000  0.0433
    1SOL    HW3 6083   1.055   4.327   2.714  0.0000  0.0000  0.0489
    1SOL    MW4 6084   1.131   4.351   2.748  0.0000  0.0000  0.0439
    1SOL     OW 6085   1.629   4.614   2.617  0.4768 -0.1200  0.3677
    1SOL    HW2 6086   1.615   4.523   2.645  1.4128 -0.4405 -0.2053
    1SOL    HW3 6087   1.630   4.610   2.522  0.1287  0.5601  0.3303
    1SOL    MW4 6088   1.627   4.601   2.608  0.5543 -0.0730  0.2873
    1SOL     OW 6089   1.365   0.059   2.724 -0.2097 -0.1327  0.0390
    1SOL    HW2 6090   1.379   0.148   2.692 -0.3346 -0.0724  0.1538
    1SOL    HW3 6091   1.445   0.012   2.700  0.7377  0.5293  1.8200
    1SOL    MW4 6092   1.377   0.064   2.716 -0.1013 -0.0374  0.2892
    1SOL     OW 6093   1.359   0.319   2.646 -0.3287 -0.2671 -0.3991
    1SOL    HW2 6094   1.438   0.367   2.670 -0.5370  0.0412 -0.3338
    1SOL    HW3 6095   1.287   0.368   2.686 -0.4971 -0.9252  0.1278
    1SOL    MW4 6096   1.360   0.332   2.655 -0.3785 -0.3133 -0.3211
    1SOL     OW 6097   1.583   0.467   2.734  0.2291  0.0335  0.1324
    1SOL    HW2 6098   1.667   0.431   2.705  0.9659  2.2189 -0.5956
    1SOL    HW3 6099   1.578   0.552   2.691 -2.3824 -0.0758  0.1796
    1SOL    MW4 6100   1.593   0.474   2.725 -0.0184  0.3074  0.0427
    1SOL     OW 6101   1.558   0.721   2.641  0.2826 -0.2517  0.1938
    1SOL    HW2 6102   1.485   0.776   2.666  0.4501  0.4663 -0.8870
    1SOL    HW3 6103   1.571   0.738   2.548  0.9384 -1.4038  0.0629
    1SOL    MW4 6104   1.550   0.730   2.632  0.3912 -0.3090  0.0336
    1SOL     OW 6105   1.337   0.858   2.718  0.2545 -0.4132 -0.5227
    1SOL    HW2 6106   1.349   0.858   2.813  0.7317 -0.7858 -0.5815
    1SOL    HW3 6107   1.328   0.950   2.695  1.9387 -0.1936 -0.3445
    1SOL    MW4 6108   1.338   0.870   2.728  0.5398 -0.4334 -0.5071
    1SOL     OW 6109   1.327   1.126   2.651  0.1338 -0.2400 -0.0652
    1SOL    HW2 6110   1.407   1.173   2.675  0.7942 -2.0557  1.3760
    1SOL    HW3 6111   1.256   1.187   2.671  0.9666  0.0931  1.9145
    1SOL    MW4 6112   1.328   1.140   2.657  0.3308 -0.4356  0.3862
    1SOL     OW 6113   1.567   1.251   2.726  0.4702  0.0214 -0.5613
    1SOL    HW2 6114   1.596   1.265   2.816  0.8089  1.3730 -0.8664
    1SOL    HW3 6115   1.644   1.218   2.680  0.5617  0.2369 -0.5645
    1SOL    MW4 6116   1.581   1.249   2.731  0.5269  0.2282 -0.6020
    1SOL     OW 6117   1.583   1.520   2.673 -0.5155 -0.1813 -0.0187
    1SOL    HW2 6118   1.574   1.427   2.693  0.8381 -0.7192 -1.7834
    1SOL    HW3 6119   1.581   1.524   2.577  1.0677  1.4165 -0.0054
    1SOL    MW4 6120   1.581   1.508   2.663 -0.1280 -0.0416 -0.2499
    1SOL     OW 6121   1.355   1.668   2.742  0.0755 -0.2234  0.1480
    1SOL    HW2 6122   1.428   1.610   2.718  0.1228  0.4814 -1.4731
    1SOL    HW3 6123   1.278   1.626   2.703  0.1740  1.0249 -1.4300
    1SOL    MW4 6124   1.355   1.655   2.733  0.0949  0.0342 -0.2739
    1SOL     OW 6125   1.352   1.933   2.668  0.0873  0.1074 -0.3650
    1SOL    HW2 6126   1.352   1.843   2.701 -0.9478  0.6399  1.1403
    1SOL    HW3 6127   1.361   1.924   2.573 -1.6313 -1.6508 -0.3734
    1SOL    MW4 6128   1.353   1.920   2.660 -0.2761 -0.0544 -0.1676
    1SOL     OW 6129   1.612   2.058   2.767  0.0633  0.5504 -0.0015
    1SOL    HW2 6130   1.679   2.008   2.720  0.5562 -0.4072  1.6625
    1SOL    HW3 6131   1.531   2.009   2.753  0.4928 -0.5930  1.3835
    1SOL    MW4 6132   1.610   2.045   2.759  0.1850  0.2735  0.4008
    1SOL     OW 6133   1.561   2.316   2.680  0.3266 -0.7524  0.5104
    1SOL    HW2 6134   1.627   2.376   2.713  0.2466 -0.7937  0.7477
    1SOL    HW3 6135   1.592   2.229   2.705  1.0861 -0.9173 -0.9507
    1SOL    MW4 6136   1.574   2.313   2.688  0.4164 -0.7794  0.3488
    1SOL     OW 6137   1.332   2.472   2.743  0.3333 -0.3516  0.5475
    1SOL    HW2 6138   1.337   2.559   2.704 -0.9299 -0.3416  0.3997
    1SOL    HW3 6139   1.405   2.424   2.704  0.5451  0.3933  0.0226
    1SOL    MW4 6140   1.343   2.477   2.733  0.1945 -0.2520  0.4590
    1SOL     OW 6141   1.318   2.728   2.593 -0.1884 -0.2907 -0.0424
    1SOL    HW2 6142   1.394   2.785   2.598 -0.6510  0.3825 -0.5813
    1SOL    HW3 6143   1.316   2.697   2.502 -1.0493  0.3944 -0.2679
    1SOL    MW4 6144   1.328   2.732   2.582 -0.3630 -0.1116 -0.1433
    1SOL     OW 6145   1.563   2.866   2.679 -0.1836  0.2235  0.5223
    1SOL    HW2 6146   1.564   2.839   2.771  0.6870 -0.6290  0.2669
    1SOL    HW3 6147   1.651   2.847   2.648 -0.2724  1.1494 -0.3114
    1SOL    MW4 6148   1.575   2.860   2.687 -0.0805  0.2329  0.3786
    1SOL     OW 6149   1.566   3.132   2.615 -0.1667 -0.0552  0.2324
    1SOL    HW2 6150   1.646   3.173   2.648  1.0611 -1.0667 -1.3789
    1SOL    HW3 6151   1.568   3.043   2.650 -0.8103  0.0596  0.5548
    1SOL    MW4 6152   1.577   3.125   2.624 -0.0896 -0.1733  0.0622
    1SOL     OW 6153   1.348   3.220   2.752 -0.1625 -0.5592  0.0379
    1SOL    HW2 6154   1.430   3.196   2.709 -0.3794  0.3462 -0.9127
    1SOL    HW3 6155   1.281   3.171   2.703 -0.3387 -0.0600 -0.2301
    1SOL    MW4 6156   1.350   3.210   2.740 -0.2143 -0.3738 -0.1228
    1SOL     OW 6157   1.340   3.474   2.629 -0.5680 -0.0013  0.2910
    1SOL    HW2 6158   1.334   3.381   2.653 -0.6058  0.4955  2.2814
    1SOL    HW3 6159   1.264   3.514   2.671  1.2692  1.5048  2.2343
    1SOL    MW4 6160   1.329   3.467   2.638 -0.3306  0.2627  0.8099
    1SOL     OW 6161   1.554   3.632   2.730 -0.1516  0.2150 -0.1412
    1SOL    HW2 6162   1.622   3.570   2.705 -0.9870 -0.6274 -0.3598
    1SOL    HW3 6163   1.472   3.588   2.707 -0.7677  1.2445  0.0521
    1SOL    MW4 6164   1.552   3.618   2.724 -0.3431  0.2396 -0.1445
    1SOL     OW 6165   1.547   3.897   2.621 -0.5861  0.7058 -0.2784
    1SOL    HW2 6166   1.469   3.935   2.660 -1.3530 -0.1604 -0.9412
    1SOL    HW3 6167   1.548   3.806   2.653 -0.1291  0.5608 -0.6915
    1SOL    MW4 6168   1.537   3.890   2.630 -0.6270  0.5722 -0.4203
    1SOL     OW 6169   1.315   4.022   2.730 -0.4193  0.3762 -0.4518
    1SOL    HW2 6170   1.338   4.032   2.822  1.3745 -0.5971 -0.7681
    1SOL    HW3 6171   1.335   4.107   2.691  0.0588  0.3844 -0.1925
    1SOL    MW4 6172   1.321   4.034   2.737 -0.1196  0.2489 -0.4592
    1SOL     OW 6173   1.377   4.256   2.621 -0.1759  0.2238  0.2452
    1SOL    HW2 6174   1.294   4.284   2.660  0.2945  1.0245  0.6913
    1SOL    HW3 6175   1.362   4.258   2.527 -0.5262  0.8150  0.3125
    1SOL    MW4 6176   1.364   4.260   2.614 -0.1600  0.4077  0.3130
    1SOL     OW 6177   1.605   4.360   2.734  0.2982 -0.2495  0.0623
    1SOL    HW2 6178   1.583   4.367   2.827 -0.1333  1.3880 -0.1471
    1SOL    HW3 6179   1.532   4.311   2.696  0.2165 -0.4675  0.4954
    1SOL    MW4 6180   1.593   4.354   2.741  0.2306 -0.0620  0.0920
    1SOL     OW 6181   2.029   4.647   2.631  0.2286  0.5674 -0.0132
    1SOL    HW2 6182   2.101   4.696   2.670 -0.0059  2.0605 -1.4113
    1SOL    HW3 6183   2.028   4.674   2.539 -1.0833 -0.6756 -0.3921
    1SOL    MW4 6184   2.038   4.657   2.624  0.0246  0.6008 -0.2477
    1SOL     OW 6185   1.804   0.080   2.771  0.4220 -0.0158  0.3790
    1SOL    HW2 6186   1.886   0.032   2.763 -0.1572 -0.9056 -0.2807
    1SOL    HW3 6187   1.745   0.038   2.709 -0.4184  0.8690  0.5616
    1SOL    MW4 6188   1.807   0.068   2.762  0.2346 -0.0165  0.3161
    1SOL     OW 6189   1.801   0.326   2.636 -0.4284 -0.5812 -0.3075
    1SOL    HW2 6190   1.879   0.378   2.658 -1.2421 -0.0646  1.4326
    1SOL    HW3 6191   1.807   0.249   2.692 -1.0996 -0.5962 -0.2516
    1SOL    MW4 6192   1.812   0.323   2.646 -0.6243 -0.5150 -0.0706
    1SOL     OW 6193   1.997   0.519   2.701 -0.5842 -0.0096 -0.0274
    1SOL    HW2 6194   2.083   0.487   2.672 -0.0787  1.5438 -0.3178
    1SOL    HW3 6195   2.002   0.517   2.796 -0.4722 -0.5339 -0.0390
    1SOL    MW4 6196   2.009   0.514   2.709 -0.5026  0.1262 -0.0670
    1SOL     OW 6197   1.972   0.792   2.636 -0.3617 -0.4838  0.4944
    1SOL    HW2 6198   1.967   0.700   2.664 -1.2443 -1.0073 -1.3214
    1SOL    HW3 6199   1.893   0.833   2.671 -0.4565 -0.6456  0.4686
    1SOL    MW4 6200   1.961   0.785   2.645 -0.4908 -0.5742  0.2515
    1SOL     OW 6201   1.745   0.900   2.771 -0.1316  0.1089 -0.1254
    1SOL    HW2 6202   1.734   0.990   2.743 -0.9756  0.3270  0.9005
    1SOL    HW3 6203   1.675   0.852   2.727  0.8946 -0.2274 -1.4300
    1SOL    MW4 6204   1.735   0.905   2.762 -0.1075  0.0933 -0.1621
    1SOL     OW 6205   1.792   1.154   2.621  0.1742  0.1696 -0.2178
    1SOL    HW2 6206   1.880   1.181   2.647  0.3866 -0.9625  0.2682
    1SOL    HW3 6207   1.801   1.127   2.530  0.0218  1.4204 -0.6152
    1SOL    MW4 6208   1.805   1.154   2.612  0.1820  0.1851 -0.2062
    1SOL     OW 6209   2.029   1.254   2.714  0.1546 -0.4023 -0.3277
    1SOL    HW2 6210   2.037   1.264   2.808  1.4950  1.4762 -0.6240
    1SOL    HW3 6211   2.110   1.211   2.686  0.1961 -0.0642 -0.7422
    1SOL    MW4 6212   2.040   1.249   2.722  0.3369 -0.1098 -0.4215
    1SOL     OW 6213   2.003   1.561   2.634 -0.3699 -0.1881 -0.3675
    1SOL    HW2 6214   1.927   1.599   2.677  0.7335  0.7634  0.7695
    1SOL    HW3 6215   2.000   1.468   2.656  0.4396  0.3527  2.2297
    1SOL    MW4 6216   1.993   1.553   2.642 -0.1175  0.0087  0.1252
    1SOL     OW 6217   1.792   1.684   2.763  0.1679 -0.0266 -0.4891
    1SOL    HW2 6218   1.793   1.684   2.858 -0.2228  0.7274 -0.4811
    1SOL    HW3 6219   1.712   1.636   2.740  0.5995 -0.7757 -0.4495
    1SOL    MW4 6220   1.781   1.677   2.772  0.1732 -0.0260 -0.4828
    1SOL     OW 6221   1.803   1.926   2.616  0.5006 -0.1940 -0.0864
    1SOL    HW2 6222   1.871   1.970   2.666 -0.7810 -0.0931  1.6277
    1SOL    HW3 6223   1.780   1.849   2.668 -0.6180 -0.2788 -0.6748
    1SOL    MW4 6224   1.809   1.921   2.630  0.1839 -0.1918  0.0620
    1SOL     OW 6225   1.978   2.091   2.777  0.0810  0.3046  0.0112
    1SOL    HW2 6226   2.002   2.084   2.869  0.7149 -0.2059 -0.1942
    1SOL    HW3 6227   1.963   2.185   2.764  2.7795  0.7791 -0.0475
    1SOL    MW4 6228   1.979   2.103   2.787  0.5207  0.3002 -0.0234
    1SOL     OW 6229   2.007   2.362   2.722 -0.4320 -0.0493  0.2243
    1SOL    HW2 6230   2.088   2.406   2.746 -0.5540  0.0960  0.3699
    1SOL    HW3 6231   2.011   2.354   2.626 -0.2234 -0.0887  0.2376
    1SOL    MW4 6232   2.018   2.367   2.712 -0.4206 -0.0355  0.2453
    1SOL     OW 6233   1.765   2.477   2.775  0.1111 -0.0419  0.3306
    1SOL    HW2 6234   1.772   2.518   2.861 -0.1465  0.0061  0.3284
    1SOL    HW3 6235   1.850   2.435   2.762 -0.6266 -2.0005  1.6071
    1SOL    MW4 6236   1.777   2.477   2.785 -0.0201 -0.2942  0.4983
    1SOL     OW 6237   1.822   2.726   2.621  0.0094 -0.0227  0.4155
    1SOL    HW2 6238   1.811   2.641   2.663  1.6007 -0.9450 -0.9879
    1SOL    HW3 6239   1.792   2.712   2.531  0.6258  0.8178  0.0806
    1SOL    MW4 6240   1.816   2.713   2.614  0.3006 -0.0336  0.1862
    1SOL     OW 6241   2.046   2.846   2.709 -0.1516 -0.0513  0.0168
    1SOL    HW2 6242   2.130   2.814   2.677 -0.2195  0.0297 -0.2521
    1SOL    HW3 6243   1.981   2.800   2.656 -0.2792 -0.2429  0.3444
    1SOL    MW4 6244   2.049   2.836   2.698 -0.1771 -0.0658  0.0246
    1SOL     OW 6245   2.007   3.124   2.617 -0.2658 -0.6807 -0.2180
    1SOL    HW2 6246   2.014   3.034   2.649 -0.4525 -0.7228 -0.2943
    1SOL    HW3 6247   1.984   3.116   2.525 -1.0062 -0.5540 -0.0487
    1SOL    MW4 6248   2.005   3.111   2.609 -0.3881 -0.6692 -0.2055
    1SOL     OW 6249   1.784   3.248   2.736  0.2523 -0.4654 -0.1392
    1SOL    HW2 6250   1.791   3.334   2.693 -1.2783 -0.2153  0.0824
    1SOL    HW3 6251   1.855   3.197   2.698 -0.0309  0.2848 -1.7312
    1SOL    MW4 6252   1.795   3.253   2.725  0.0130 -0.3335 -0.3200
    1SOL     OW 6253   1.775   3.490   2.600  0.4254 -0.2733  0.1433
    1SOL    HW2 6254   1.855   3.539   2.621  1.2718 -1.2695 -0.7026
    1SOL    HW3 6255   1.771   3.492   2.504 -0.5718 -0.2246  0.1818
    1SOL    MW4 6256   1.785   3.497   2.590  0.4055 -0.3982  0.0367
    1SOL     OW 6257   2.010   3.615   2.705 -0.2213 -0.6369 -0.1803
    1SOL    HW2 6258   2.014   3.598   2.799 -0.5043 -0.8021 -0.1975
    1SOL    HW3 6259   2.076   3.557   2.667  0.4875  0.0569  0.0038
    1SOL    MW4 6260   2.019   3.605   2.712 -0.1650 -0.5672 -0.1583
    1SOL     OW 6261   2.009   3.866   2.600 -0.7180 -0.0980 -0.3132
    1SOL    HW2 6262   1.931   3.907   2.638 -0.5805 -0.3449  0.2422
    1SOL    HW3 6263   2.009   3.778   2.636  0.7776  0.4642  1.0660
    1SOL    MW4 6264   1.998   3.860   2.610 -0.5025 -0.0563 -0.0579
    1SOL     OW 6265   1.792   4.018   2.707 -0.5453  0.1348 -0.0370
    1SOL    HW2 6266   1.790   4.105   2.667 -1.3606 -0.8155 -2.1038
    1SOL    HW3 6267   1.711   3.976   2.677 -1.5704 -0.3747  3.1941
    1SOL    MW4 6268   1.781   4.024   2.698 -0.7879 -0.0577  0.1166
    1SOL     OW 6269   1.850   4.266   2.623 -0.0231  0.0596 -0.3148
    1SOL    HW2 6270   1.785   4.323   2.664  0.2983 -0.1429  0.4690
    1SOL    HW3 6271   1.820   4.257   2.532 -1.2881 -0.3280  0.1343
    1SOL    MW4 6272   1.837   4.272   2.616 -0.1475 -0.0181 -0.1523
    1SOL     OW 6273   2.074   4.383   2.718 -0.2275  0.6270  0.1366
    1SOL    HW2 6274   2.001   4.329   2.689 -0.2633  0.4697  0.5115
    1SOL    HW3 6275   2.059   4.468   2.679 -0.2154  0.3857 -0.3936
    1SOL    MW4 6276   2.063   4.387   2.709 -0.2306  0.5746  0.1161
    1SOL     OW 6277   2.483   4.620   2.608  0.3214  0.1004 -0.1693
    1SOL    HW2 6278   2.544   4.680   2.652 -0.5314  0.6590  0.2541
    1SOL    HW3 6279   2.509   4.624   2.516  0.8493  0.4388 -0.0116
    1SOL    MW4 6280   2.495   4.629   2.602  0.2785  0.2184 -0.0927
    1SOL     OW 6281   2.265   0.102   2.689 -0.1950 -0.2254 -0.1486
    1SOL    HW2 6282   2.336   0.043   2.661 -0.8383 -1.0387 -0.1034
    1SOL    HW3 6283   2.265   0.095   2.785 -0.4617 -0.3961 -0.1574
    1SOL    MW4 6284   2.274   0.093   2.698 -0.3150 -0.3552 -0.1438
    1SOL     OW 6285   2.241   0.385   2.645 -0.1075 -0.5331  0.0060
    1SOL    HW2 6286   2.246   0.391   2.549 -1.0641  1.3606  0.0385
    1SOL    HW3 6287   2.264   0.295   2.665  4.0265  0.0274 -1.7323
    1SOL    MW4 6288   2.244   0.374   2.635  0.3119 -0.2093 -0.2191
    1SOL     OW 6289   2.495   0.519   2.707  0.0162  0.0489 -0.4622
    1SOL    HW2 6290   2.488   0.613   2.688  0.6255 -0.0596 -1.2175
    1SOL    HW3 6291   2.408   0.485   2.689  0.1931  0.2064 -1.6515
    1SOL    MW4 6292   2.483   0.527   2.702  0.1202  0.0554 -0.7186
    1SOL     OW 6293   2.461   0.796   2.652  0.1648 -0.4699  0.7586
    1SOL    HW2 6294   2.378   0.821   2.691  0.1731 -0.8850  1.0417
    1SOL    HW3 6295   2.444   0.796   2.557 -0.2791 -1.0036  0.8398
    1SOL    MW4 6296   2.448   0.799   2.644  0.1073 -0.5950  0.8066
    1SOL     OW 6297   2.210   0.878   2.757  0.0074 -0.2550  0.1703
    1SOL    HW2 6298   2.205   0.886   2.853 -1.0197  1.6527 -0.0167
    1SOL    HW3 6299   2.128   0.834   2.733  0.0275 -0.2664  0.1234
    1SOL    MW4 6300   2.198   0.873   2.767 -0.1256 -0.0048  0.1397
    1SOL     OW 6301   2.262   1.122   2.625 -0.1091 -0.1696 -0.2116
    1SOL    HW2 6302   2.243   1.041   2.673  0.5555 -0.9281 -1.2068
    1SOL    HW3 6303   2.344   1.153   2.663  0.0349 -0.3770 -0.3507
    1SOL    MW4 6304   2.270   1.115   2.637 -0.0024 -0.2971 -0.3612
    1SOL     OW 6305   2.477   1.256   2.725 -0.2475 -0.2443  0.0058
    1SOL    HW2 6306   2.458   1.333   2.670 -1.4287 -1.6394 -1.5761
    1SOL    HW3 6307   2.560   1.223   2.691 -1.2419 -1.4231 -1.3588
    1SOL    MW4 6308   2.485   1.262   2.713 -0.5345 -0.5839 -0.3829
    1SOL     OW 6309   2.461   1.523   2.630  0.1451 -0.1407  0.1926
    1SOL    HW2 6310   2.387   1.577   2.657  0.0707  0.9148 -2.0250
    1SOL    HW3 6311   2.538   1.566   2.668 -0.1127  0.2643  0.2568
    1SOL    MW4 6312   2.461   1.536   2.639  0.1016  0.0520 -0.0918
    1SOL     OW 6313   2.234   1.686   2.741 -0.2076 -0.2440  0.2118
    1SOL    HW2 6314   2.222   1.780   2.726 -0.5146 -0.6641 -2.5025
    1SOL    HW3 6315   2.149   1.647   2.720 -0.3030 -1.0624  2.0707
    1SOL    MW4 6316   2.221   1.693   2.736 -0.2608 -0.4075  0.0989
    1SOL     OW 6317   2.208   1.947   2.698 -0.0528 -0.3498  0.1842
    1SOL    HW2 6318   2.133   2.007   2.705  0.3860  0.2563 -0.1972
    1SOL    HW3 6319   2.216   1.930   2.604  0.1474 -0.5937  0.2455
    1SOL    MW4 6320   2.199   1.953   2.687  0.0315 -0.3020  0.1421
    1SOL     OW 6321   2.444   2.069   2.751  0.7669  0.5456 -0.1556
    1SOL    HW2 6322   2.438   2.156   2.710  0.3362  0.6937  0.2249
    1SOL    HW3 6323   2.360   2.028   2.733  1.0868  0.0780 -0.6140
    1SOL    MW4 6324   2.432   2.075   2.743  0.7522  0.5033 -0.1659
    1SOL     OW 6325   2.453   2.344   2.638 -0.2935  0.0504  0.0303
    1SOL    HW2 6326   2.530   2.396   2.664 -0.3643  0.3934 -0.4365
    1SOL    HW3 6327   2.458   2.340   2.543 -1.8950  1.7258 -0.1640
    1SOL    MW4 6328   2.464   2.350   2.629 -0.5143  0.3166 -0.0567
    1SOL     OW 6329   2.259   2.489   2.761  0.3030 -0.0353 -0.6190
    1SOL    HW2 6330   2.262   2.469   2.854  0.2811 -1.9441 -0.9937
    1SOL    HW3 6331   2.313   2.421   2.720  0.4175  0.8484 -1.9773
    1SOL    MW4 6332   2.267   2.477   2.768  0.3150 -0.1707 -0.8478
    1SOL     OW 6333   2.271   2.703   2.593  0.3163  0.0221 -0.1671
    1SOL    HW2 6334   2.346   2.756   2.620  0.2765  0.3615 -0.7361
    1SOL    HW3 6335   2.266   2.634   2.660  1.3739 -0.2329 -0.3382
    1SOL    MW4 6336   2.280   2.701   2.606  0.4504  0.0334 -0.2646
    1SOL     OW 6337   2.487   2.869   2.706 -0.2197 -0.0677 -0.6576
    1SOL    HW2 6338   2.562   2.815   2.681 -0.1682 -0.2433 -0.1342
    1SOL    HW3 6339   2.507   2.956   2.670 -0.7518 -0.6125 -2.3167
    1SOL    MW4 6340   2.500   2.874   2.698 -0.2828 -0.1628 -0.8075
    1SOL     OW 6341   2.513   3.113   2.598  0.3121  0.3015 -0.2231
    1SOL    HW2 6342   2.434   3.161   2.621  0.1479 -0.4854  0.8847
    1SOL    HW3 6343   2.499   3.085   2.507 -0.3373  0.8265 -0.2866
    1SOL    MW4 6344   2.501   3.116   2.589  0.2046  0.2668 -0.0854
    1SOL     OW 6345   2.269   3.212   2.675  0.5529  0.0200 -0.0336
    1SOL    HW2 6346   2.275   3.213   2.771  1.6093  2.8979 -0.0830
    1SOL    HW3 6347   2.183   3.172   2.657  0.0607  0.0512  2.1122
    1SOL    MW4 6348   2.258   3.207   2.686  0.6275  0.4036  0.2429
    1SOL     OW 6349   2.243   3.486   2.569 -0.0934 -0.3002  0.2810
    1SOL    HW2 6350   2.317   3.538   2.599 -0.7577  0.4368  0.6318
    1SOL    HW3 6351   2.242   3.409   2.626  0.2028 -0.1545  0.4801
    1SOL    MW4 6352   2.253   3.483   2.580 -0.1419 -0.1836  0.3533
    1SOL     OW 6353   2.462   3.622   2.676  0.4510 -0.1959 -0.3748
    1SOL    HW2 6354   2.458   3.623   2.772 -1.2224  0.3535 -0.4397
    1SOL    HW3 6355   2.462   3.714   2.651  0.5344 -0.3429 -0.9237
    1SOL    MW4 6356   2.462   3.634   2.686  0.2410 -0.1428 -0.4559
    1SOL     OW 6357   2.478   3.870   2.585  0.4025  0.2810 -0.0881
    1SOL    HW2 6358   2.548   3.910   2.636 -0.5200 -0.6737  1.9530
    1SOL    HW3 6359   2.398   3.906   2.623 -0.2499  1.0749 -2.1563
    1SOL    MW4 6360   2.477   3.880   2.597  0.1948  0.2599 -0.0916
    1SOL     OW 6361   2.246   3.957   2.700  0.4010 -0.1722 -0.4491
    1SOL    HW2 6362   2.240   3.975   2.794  2.1136 -0.3350 -0.2943
    1SOL    HW3 6363   2.158   3.929   2.675  0.1523 -0.9630  1.2768
    1SOL    MW4 6364   2.234   3.956   2.709  0.5941 -0.2980 -0.2010
    1SOL     OW 6365   2.263   4.239   2.559 -0.0809  0.1836 -0.1546
    1SOL    HW2 6366   2.263   4.148   2.590  1.3090  0.2826  0.1637
    1SOL    HW3 6367   2.213   4.286   2.626  0.5418 -0.0825  0.5107
    1SOL    MW4 6368   2.256   4.233   2.572  0.1845  0.1616 -0.0248
    1SOL     OW 6369   2.473   4.365   2.686 -0.2356  0.0647  0.0370
    1SOL    HW2 6370   2.395   4.341   2.637  0.8169 -0.3951 -1.4260
    1SOL    HW3 6371   2.496   4.452   2.654 -0.7072  0.6444  1.2061
    1SOL    MW4 6372   2.465   4.373   2.676 -0.1590  0.0806 -0.0017
    1SOL     OW 6373   2.905   0.009   2.652 -0.1467  0.4726 -0.5200
    1SOL    HW2 6374   2.991   0.044   2.676 -0.3386  0.3391  0.3864
    1SOL    HW3 6375   2.904   0.010   2.556  0.7558  0.7401 -0.5279
    1SOL    MW4 6376   2.916   0.014   2.642 -0.0527  0.4902 -0.4015
    1SOL     OW 6377   2.656   0.115   2.741 -0.5314 -0.0229 -0.0550
    1SOL    HW2 6378   2.645   0.115   2.837  1.5310 -0.4448  0.2196
    1SOL    HW3 6379   2.747   0.087   2.728 -0.4302  1.1685 -2.1062
    1SOL    MW4 6380   2.667   0.111   2.752 -0.2460  0.0786 -0.2892
    1SOL     OW 6381   2.726   0.375   2.609  0.3110 -0.4628  0.5387
    1SOL    HW2 6382   2.722   0.287   2.647 -0.3018 -0.5549  0.2626
    1SOL    HW3 6383   2.647   0.419   2.640  0.0763 -0.3649 -0.1890
    1SOL    MW4 6384   2.715   0.369   2.618  0.1991 -0.4620  0.4063
    1SOL     OW 6385   2.883   0.529   2.747 -0.6134  0.2403 -0.2548
    1SOL    HW2 6386   2.912   0.612   2.707 -1.3373  0.6841  0.1321
    1SOL    HW3 6387   2.830   0.487   2.680 -1.0950  0.5737 -0.0889
    1SOL    MW4 6388   2.880   0.535   2.733 -0.7725  0.3428 -0.1819
    1SOL     OW 6389   2.912   0.768   2.607 -0.1005 -0.1596  0.3779
    1SOL    HW2 6390   2.992   0.812   2.638 -0.0859  0.5869 -0.6883
    1SOL    HW3 6391   2.841   0.822   2.641 -0.1184 -0.0517  0.1665
    1SOL    MW4 6392   2.913   0.781   2.616 -0.1011 -0.0469  0.2093
    1SOL     OW 6393   2.717   0.923   2.728 -0.0137  0.0807  0.1183
    1SOL    HW2 6394   2.714   0.915   2.824 -2.2102  1.0657  0.1747
    1SOL    HW3 6395   2.637   0.880   2.698 -0.3166  1.4751 -1.1382
    1SOL    MW4 6396   2.706   0.916   2.737 -0.3436  0.3945 -0.0401
    1SOL     OW 6397   2.715   1.164   2.596 -0.0139  0.0135  0.3440
    1SOL    HW2 6398   2.769   1.229   2.641  2.1704 -1.3113 -0.3256
    1SOL    HW3 6399   2.726   1.084   2.648 -1.1113 -0.3438  0.0375
    1SOL    MW4 6400   2.723   1.162   2.609  0.1297 -0.2086  0.2153
    1SOL     OW 6401   2.914   1.318   2.726 -0.2469 -0.1456 -0.0119
    1SOL    HW2 6402   2.918   1.330   2.821 -0.5747  0.7772 -0.1122
    1SOL    HW3 6403   2.996   1.275   2.704 -0.1370 -0.2981  0.6798
    1SOL    MW4 6404   2.925   1.314   2.736 -0.2756 -0.0441  0.0663
    1SOL     OW 6405   2.904   1.577   2.626 -0.1783 -0.0178  0.1260
    1SOL    HW2 6406   2.823   1.603   2.669 -0.1275  0.2198  0.0783
    1SOL    HW3 6407   2.926   1.493   2.666  0.1952  0.4932  1.0012
    1SOL    MW4 6408   2.896   1.569   2.637 -0.1223  0.0811  0.2351
    1SOL     OW 6409   2.672   1.666   2.759 -0.3590  0.5277  0.5699
    1SOL    HW2 6410   2.701   1.681   2.849  0.5164 -0.5513  0.4680
    1SOL    HW3 6411   2.663   1.754   2.723  0.9687  0.9304  1.1839
    1SOL    MW4 6412   2.674   1.680   2.766 -0.0682  0.4385  0.6378
    1SOL     OW 6413   2.668   1.928   2.634 -0.2474 -0.1678  0.0534
    1SOL    HW2 6414   2.744   1.978   2.662 -0.4688  0.3516 -0.2744
    1SOL    HW3 6415   2.593   1.981   2.661 -0.4736 -0.0291 -0.8357
    1SOL    MW4 6416   2.668   1.942   2.641 -0.3064 -0.0809 -0.1070
    1SOL     OW 6417   2.886   2.065   2.700 -0.4902  0.0583 -0.1438
    1SOL    HW2 6418   2.975   2.029   2.696 -0.3251  0.5067 -0.4497
    1SOL    HW3 6419   2.895   2.155   2.670 -0.7235  0.6884  1.5918
    1SOL    MW4 6420   2.899   2.072   2.696 -0.4995  0.2005  0.0448
    1SOL     OW 6421   2.895   2.350   2.624  0.2236 -0.5706  0.3671
    1SOL    HW2 6422   2.969   2.404   2.652  0.6423 -1.4469  0.9727
    1SOL    HW3 6423   2.818   2.397   2.654  0.6052 -0.5829  1.3762
    1SOL    MW4 6424   2.895   2.363   2.631  0.3290 -0.6878  0.5803
    1SOL     OW 6425   2.690   2.469   2.747  0.0186  0.6466 -0.2869
    1SOL    HW2 6426   2.686   2.451   2.841 -2.7808 -0.4248 -0.5592
    1SOL    HW3 6427   2.690   2.565   2.741 -0.4164  0.7247  0.8019
    1SOL    MW4 6428   2.690   2.479   2.759 -0.4079  0.5157 -0.1793
    1SOL     OW 6429   2.695   2.714   2.612  0.0951 -0.1512  0.1008
    1SOL    HW2 6430   2.768   2.754   2.659  0.1077  0.7721 -0.6975
    1SOL    HW3 6431   2.728   2.700   2.523 -0.4925 -0.3246 -0.0934
    1SOL    MW4 6432   2.709   2.717   2.607  0.0193 -0.0522 -0.0298
    1SOL     OW 6433   2.898   2.851   2.743  0.1851 -0.2549 -0.1809
    1SOL    HW2 6434   2.978   2.809   2.713  0.8063  0.7925 -0.0067
    1SOL    HW3 6435   2.898   2.838   2.838  1.0004  1.1902  0.0255
    1SOL    MW4 6436   2.908   2.844   2.752  0.3746  0.0741 -0.1307
    1SOL     OW 6437   2.896   3.081   2.595  0.2484 -0.0256 -0.2652
    1SOL    HW2 6438   2.825   3.136   2.630  1.5028  0.5872  1.3611
    1SOL    HW3 6439   2.888   2.999   2.644  2.3387  1.0225  1.9467
    1SOL    MW4 6440   2.885   3.078   2.606  0.6897  0.1934  0.2413
    1SOL     OW 6441   2.715   3.254   2.711  0.3300  0.2469  0.3634
    1SOL    HW2 6442   2.718   3.338   2.666  1.0150 -0.6726 -1.3521
    1SOL    HW3 6443   2.640   3.209   2.673  1.1064 -0.6658 -0.0881
    1SOL    MW4 6444   2.706   3.259   2.700  0.5229  0.0050  0.0777
    1SOL     OW 6445   2.712   3.510   2.601 -0.0383 -0.0231 -0.2234
    1SOL    HW2 6446   2.637   3.566   2.620  0.9419  0.8009  1.2622
    1SOL    HW3 6447   2.698   3.482   2.510 -2.2516 -0.0717  0.1001
    1SOL    MW4 6448   2.700   3.513   2.592 -0.2010  0.0792  0.0155
    1SOL     OW 6449   2.959   3.604   2.724  0.1156 -0.1526  0.4063
    1SOL    HW2 6450   2.942   3.605   2.818 -0.2671  1.5163  0.3400
    1SOL    HW3 6451   2.878   3.571   2.684  0.5744 -1.6828  0.6904
    1SOL    MW4 6452   2.946   3.600   2.731  0.1256 -0.1345  0.4346
    1SOL     OW 6453   2.937   3.875   2.643  0.1722  0.0773 -0.0659
    1SOL    HW2 6454   3.017   3.913   2.679  0.0003  0.5308 -0.1609
    1SOL    HW3 6455   2.938   3.784   2.673  0.8605  0.0076 -0.2971
    1SOL    MW4 6456   2.948   3.868   2.651  0.2403  0.1278 -0.1090
    1SOL     OW 6457   2.681   3.970   2.740 -0.1050  0.0570 -0.7812
    1SOL    HW2 6458   2.696   4.051   2.691 -0.6071  0.9823  0.5300
    1SOL    HW3 6459   2.764   3.922   2.734  0.9800  1.7182  0.2828
    1SOL    MW4 6460   2.694   3.975   2.733 -0.0284  0.3984 -0.4675
    1SOL     OW 6461   2.700   4.209   2.617  0.1719 -0.3436 -0.2457
    1SOL    HW2 6462   2.774   4.265   2.640  0.1919 -0.3262 -0.3562
    1SOL    HW3 6463   2.623   4.261   2.641  0.1835 -0.1420 -0.6406
    1SOL    MW4 6464   2.700   4.223   2.623  0.1762 -0.3152 -0.3123
    1SOL     OW 6465   2.902   4.367   2.688 -0.6739  0.0521  0.3048
    1SOL    HW2 6466   2.898   4.346   2.781 -0.2045  0.7094  0.4751
    1SOL    HW3 6467   2.891   4.462   2.684 -0.6450  0.0343 -0.3097
    1SOL    MW4 6468   2.900   4.377   2.699 -0.6080  0.1364  0.2463
    1SOL     OW 6469   3.372   4.660   2.648  0.1588 -0.0172  0.5967
    1SOL    HW2 6470   3.356   4.577   2.694 -0.9780  0.0083  0.2836
    1SOL    HW3 6471   3.298   4.715   2.673  0.6481  0.7311  0.4065
    1SOL    MW4 6472   3.360   4.656   2.658  0.0732  0.0849  0.5302
    1SOL     OW 6473   3.131   0.120   2.745  0.1719 -0.3027  0.1289
    1SOL    HW2 6474   3.115   0.135   2.838  1.6606 -0.1671  0.3780
    1SOL    HW3 6475   3.143   0.207   2.707 -0.3357 -0.3617 -0.1810
    1SOL    MW4 6476   3.131   0.134   2.752  0.3016 -0.2926  0.1206
    1SOL     OW 6477   3.126   0.395   2.671 -0.0902  0.4719 -0.2589
    1SOL    HW2 6478   3.044   0.430   2.706 -0.0181  0.8803 -0.4896
    1SOL    HW3 6479   3.110   0.388   2.577 -0.0298  0.0849 -0.2387
    1SOL    MW4 6480   3.113   0.399   2.663 -0.0730  0.4747 -0.2863
    1SOL     OW 6481   3.379   0.505   2.714  0.2346  0.6042 -0.0013
    1SOL    HW2 6482   3.375   0.596   2.685 -0.3386  0.5598 -0.0700
    1SOL    HW3 6483   3.291   0.471   2.697  1.0578 -0.5884 -2.0847
    1SOL    MW4 6484   3.367   0.512   2.708  0.2675  0.4410 -0.2851
    1SOL     OW 6485   3.359   0.763   2.646 -0.0717 -0.1482  0.0978
    1SOL    HW2 6486   3.442   0.803   2.672 -0.9560  2.4767 -0.8645
    1SOL    HW3 6487   3.363   0.757   2.551 -1.1147  0.3656  0.0048
    1SOL    MW4 6488   3.370   0.768   2.637 -0.3259  0.2658 -0.0415
    1SOL     OW 6489   3.138   0.922   2.740 -0.2984 -0.1744  0.3337
    1SOL    HW2 6490   3.150   0.893   2.831  0.5852 -1.5485 -0.2066
    1SOL    HW3 6491   3.208   0.879   2.692 -1.3853 -0.2716 -1.1843
    1SOL    MW4 6492   3.149   0.913   2.746 -0.3252 -0.3684  0.0622
    1SOL     OW 6493   3.144   1.185   2.645  0.0877  0.1001  0.0367
    1SOL    HW2 6494   3.135   1.104   2.695 -0.9206  0.5411  0.5774
    1SOL    HW3 6495   3.143   1.156   2.553  0.9055 -0.6061  0.2490
    1SOL    MW4 6496   3.142   1.170   2.639  0.0627  0.0651  0.1359
    1SOL     OW 6497   3.383   1.296   2.746 -0.2329  0.3287  0.2084
    1SOL    HW2 6498   3.372   1.302   2.841 -1.9075 -0.1483  0.0674
    1SOL    HW3 6499   3.301   1.257   2.715  0.3126  0.4443 -1.4300
    1SOL    MW4 6500   3.371   1.292   2.754 -0.3817  0.2810 -0.0265
    1SOL     OW 6501   3.406   1.530   2.618 -0.0748 -0.1021  0.1497
    1SOL    HW2 6502   3.331   1.579   2.652  0.3925  0.3009  0.6204
    1SOL    HW3 6503   3.403   1.447   2.666  0.1168  0.1471  0.5997
    1SOL    MW4 6504   3.396   1.525   2.629  0.0122 -0.0161  0.2713
    1SOL     OW 6505   3.168   1.685   2.723  0.0189 -0.2726 -0.1466
    1SOL    HW2 6506   3.081   1.652   2.698 -0.3021  1.1889 -1.0010
    1SOL    HW3 6507   3.170   1.677   2.819 -0.2291 -2.2963 -0.2819
    1SOL    MW4 6508   3.157   1.680   2.732 -0.0558 -0.3468 -0.2773
    1SOL     OW 6509   3.141   1.954   2.696 -0.3097 -0.0545 -0.2466
    1SOL    HW2 6510   3.230   1.987   2.704 -0.4810  0.7510 -1.4847
    1SOL    HW3 6511   3.149   1.859   2.703  0.3281  0.1466  2.2072
    1SOL    MW4 6512   3.154   1.946   2.698 -0.2480  0.0783 -0.0861
    1SOL     OW 6513   3.395   2.079   2.717  0.3801  0.8142  0.1003
    1SOL    HW2 6514   3.406   2.079   2.812  0.0958  0.5382  0.1353
    1SOL    HW3 6515   3.370   2.169   2.695 -0.5961  0.6264  0.4134
    1SOL    MW4 6516   3.393   2.091   2.726  0.2139  0.7532  0.1464
    1SOL     OW 6517   3.327   2.323   2.622 -0.3993 -0.4421  0.0042
    1SOL    HW2 6518   3.406   2.371   2.648 -0.2138 -0.5015 -0.4569
    1SOL    HW3 6519   3.330   2.321   2.527 -1.3983  0.3037 -0.0499
    1SOL    MW4 6520   3.338   2.329   2.613 -0.5069 -0.3514 -0.0637
    1SOL     OW 6521   3.109   2.489   2.725 -0.3327  0.1421  0.4658
    1SOL    HW2 6522   3.179   2.431   2.696  0.4626  1.0461  0.5849
    1SOL    HW3 6523   3.097   2.467   2.818 -1.1008 -0.9053  0.1430
    1SOL    MW4 6524   3.116   2.478   2.733 -0.3290  0.1233  0.4387
    1SOL     OW 6525   3.140   2.732   2.624 -0.1560 -0.5103 -0.1994
    1SOL    HW2 6526   3.212   2.766   2.676 -0.2291  1.8846 -1.5928
    1SOL    HW3 6527   3.122   2.645   2.660  1.7630 -0.1038  1.7652
    1SOL    MW4 6528   3.147   2.725   2.635  0.0873 -0.1404 -0.1240
    1SOL     OW 6529   3.345   2.856   2.776 -0.2383  0.1228 -0.2213
    1SOL    HW2 6530   3.340   2.844   2.871  1.1168  2.2349  0.1542
    1SOL    HW3 6531   3.420   2.803   2.749 -0.0572  0.2568  0.0217
    1SOL    MW4 6532   3.354   2.848   2.785 -0.0358  0.4194 -0.1397
    1SOL     OW 6533   3.380   3.100   2.640 -0.1222 -0.1194 -0.2005
    1SOL    HW2 6534   3.377   3.015   2.684 -1.8713  0.4877  0.9576
    1SOL    HW3 6535   3.373   3.079   2.547  2.7284 -1.3909 -0.1788
    1SOL    MW4 6536   3.378   3.086   2.634  0.0231 -0.2072 -0.0448
    1SOL     OW 6537   3.120   3.221   2.724 -0.0594 -0.1864  0.1031
    1SOL    HW2 6538   3.205   3.183   2.701 -0.1455  0.5544 -1.4620
    1SOL    HW3 6539   3.057   3.173   2.670 -0.6817 -0.8771  1.4077
    1SOL    MW4 6540   3.123   3.209   2.714 -0.1531 -0.1798  0.0687
    1SOL     OW 6541   3.163   3.467   2.600  0.1734  0.2473  0.1547
    1SOL    HW2 6542   3.161   3.381   2.642  1.3785 -0.3999 -1.0805
    1SOL    HW3 6543   3.093   3.516   2.643 -0.0626 -1.1131  1.3661
    1SOL    MW4 6544   3.153   3.462   2.611  0.3014 -0.0176  0.1514
    1SOL     OW 6545   3.393   3.620   2.707 -0.1039 -0.3265 -0.3952
    1SOL    HW2 6546   3.379   3.613   2.801  0.9557 -0.5897 -0.2552
    1SOL    HW3 6547   3.318   3.575   2.668 -1.4314  1.2127  0.2863
    1SOL    MW4 6548   3.381   3.613   2.714 -0.1395 -0.1583 -0.2871
    1SOL     OW 6549   3.374   3.910   2.639 -0.0183 -0.2111 -0.2790
    1SOL    HW2 6550   3.370   3.823   2.680 -1.8153 -0.9114 -1.8587
    1SOL    HW3 6551   3.363   3.893   2.545  0.4041  1.6653 -0.6896
    1SOL    MW4 6552   3.372   3.896   2.632 -0.2000 -0.0560 -0.5419
    1SOL     OW 6553   3.151   4.004   2.765  0.0582 -0.3556  0.1050
    1SOL    HW2 6554   3.151   4.093   2.732  0.7422 -0.3555  0.0878
    1SOL    HW3 6555   3.236   3.969   2.738 -0.0538 -0.8846  0.4376
    1SOL    MW4 6556   3.163   4.011   2.757  0.1335 -0.4253  0.1464
    1SOL     OW 6557   3.155   4.284   2.648  0.1648  0.3789  0.2998
    1SOL    HW2 6558   3.064   4.311   2.660 -0.1818 -0.4922 -0.2993
    1SOL    HW3 6559   3.160   4.256   2.557  0.8263 -0.3790  0.5615
    1SOL    MW4 6560   3.144   4.284   2.637  0.2062  0.1640  0.2553
    1SOL     OW 6561   3.384   4.410   2.753 -0.4324  0.0667  0.1367
    1SOL    HW2 6562   3.368   4.414   2.847 -0.1492  0.0503  0.1843
    1SOL    HW3 6563   3.307   4.364   2.718 -0.2689 -0.4336  0.4245
    1SOL    MW4 6564   3.372   4.404   2.761 -0.3734 -0.0014  0.1812
    1SOL     OW 6565   3.832   0.001   2.665  0.4080  0.1029  0.3459
    1SOL    HW2 6566   3.841  -0.090   2.693  0.2512 -0.0007  0.0621
    1SOL    HW3 6567   3.755   0.033   2.711 -0.4623 -0.3767 -0.7661
    1SOL    MW4 6568   3.823  -0.006   2.675  0.2723  0.0257  0.1616
    1SOL     OW 6569   3.599   0.110   2.766  0.1345 -0.4487  0.4748
    1SOL    HW2 6570   3.604   0.192   2.716  0.6571 -1.4879 -1.2229
    1SOL    HW3 6571   3.526   0.063   2.726  1.5704 -1.9902 -0.4257
    1SOL    MW4 6572   3.590   0.115   2.754  0.3929 -0.7892  0.1318
    1SOL     OW 6573   3.613   0.347   2.632 -0.4866 -0.2146  0.0116
    1SOL    HW2 6574   3.686   0.403   2.660 -0.9362  0.2435  0.2901
    1SOL    HW3 6575   3.535   0.397   2.656 -0.8891 -0.6017 -0.4892
    1SOL    MW4 6576   3.613   0.361   2.639 -0.5991 -0.2053 -0.0176
    1SOL     OW 6577   3.833   0.514   2.739  0.2497  0.0881 -0.2509
    1SOL    HW2 6578   3.801   0.506   2.828 -0.2755 -0.0937 -0.4575
    1SOL    HW3 6579   3.916   0.465   2.739 -0.1547 -0.5971 -0.0727
    1SOL    MW4 6580   3.840   0.506   2.750  0.1271 -0.0262 -0.2549
    1SOL     OW 6581   3.846   0.778   2.624  0.2668  0.0203 -0.1325
    1SOL    HW2 6582   3.756   0.808   2.620  0.0585 -0.6477 -0.6730
    1SOL    HW3 6583   3.840   0.689   2.660  0.6015 -0.4354 -1.1854
    1SOL    MW4 6584   3.833   0.770   2.628  0.2835 -0.1280 -0.3426
    1SOL     OW 6585   3.598   0.881   2.693  0.1252 -0.0380  0.2139
    1SOL    HW2 6586   3.604   0.869   2.788 -0.1967 -0.9141  0.1265
    1SOL    HW3 6587   3.586   0.975   2.682 -0.2439  0.0216  1.0647
    1SOL    MW4 6588   3.597   0.892   2.704  0.0341 -0.1457  0.3147
    1SOL     OW 6589   3.600   1.157   2.647 -0.1513  0.3963  0.0666
    1SOL    HW2 6590   3.678   1.187   2.695 -0.0788  1.0698 -0.4633
    1SOL    HW3 6591   3.528   1.209   2.684  0.1362  1.9746 -1.5723
    1SOL    MW4 6592   3.601   1.168   2.658 -0.1037  0.6933 -0.2193
    1SOL     OW 6593   3.817   1.265   2.759 -0.1258 -0.5633  0.4653
    1SOL    HW2 6594   3.885   1.214   2.715 -0.7070 -1.4119  0.5459
    1SOL    HW3 6595   3.840   1.356   2.740  0.7979 -0.8562  0.1477
    1SOL    MW4 6596   3.829   1.270   2.751 -0.0806 -0.7139  0.4339
    1SOL     OW 6597   3.855   1.521   2.626  0.3095 -0.4762 -0.1420
    1SOL    HW2 6598   3.925   1.568   2.671  0.4141 -1.1040  0.3458
    1SOL    HW3 6599   3.774   1.559   2.662  0.3938 -0.4913  0.0641
    1SOL    MW4 6600   3.853   1.533   2.637  0.3343 -0.5611 -0.0505
    1SOL     OW 6601   3.635   1.638   2.731 -0.1452  0.3776 -0.0726
    1SOL    HW2 6602   3.618   1.725   2.696 -0.0636  0.1404 -0.7045
    1SOL    HW3 6603   3.551   1.593   2.725 -0.0567  0.2357 -0.2446
    1SOL    MW4 6604   3.622   1.644   2.726 -0.1228  0.3276 -0.1786
    1SOL     OW 6605   3.578   1.890   2.626  0.0895  0.0121  0.0391
    1SOL    HW2 6606   3.502   1.946   2.641  0.7845  1.1312 -0.5530
    1SOL    HW3 6607   3.596   1.898   2.532  0.2075 -1.1981 -0.0505
    1SOL    MW4 6608   3.570   1.899   2.616  0.1965  0.0002 -0.0510
    1SOL     OW 6609   3.796   2.041   2.744 -0.0393 -0.0407 -0.0314
    1SOL    HW2 6610   3.881   2.000   2.733 -0.2996 -0.3675 -0.8141
    1SOL    HW3 6611   3.734   1.983   2.700 -0.8876 -0.5941  1.8351
    1SOL    MW4 6612   3.799   2.028   2.737 -0.1855 -0.1571  0.1118
    1SOL     OW 6613   3.741   2.299   2.642  0.6625 -0.3498 -0.1572
    1SOL    HW2 6614   3.765   2.206   2.648  1.1000 -0.2678 -0.5594
    1SOL    HW3 6615   3.764   2.323   2.553  1.4958  0.3991  0.2544
    1SOL    MW4 6616   3.747   2.290   2.631  0.8307 -0.2401 -0.1559
    1SOL     OW 6617   3.534   2.433   2.741 -0.3484  0.1935  0.4973
    1SOL    HW2 6618   3.552   2.450   2.833 -0.5719 -0.2146  0.6201
    1SOL    HW3 6619   3.613   2.389   2.709  0.0499  1.0462  0.2902
    1SOL    MW4 6620   3.547   2.429   2.749 -0.3254  0.2520  0.4859
    1SOL     OW 6621   3.550   2.706   2.638 -0.2292 -0.0810 -0.3389
    1SOL    HW2 6622   3.549   2.614   2.665  0.9319 -0.3711 -1.2685
    1SOL    HW3 6623   3.574   2.704   2.545 -2.0062  1.0476 -0.8477
    1SOL    MW4 6624   3.553   2.694   2.629 -0.3104  0.0298 -0.5286
    1SOL     OW 6625   3.785   2.833   2.752 -0.1624  0.3288 -0.0377
    1SOL    HW2 6626   3.844   2.771   2.710 -0.9511  1.1392 -2.4631
    1SOL    HW3 6627   3.698   2.799   2.735 -0.6143  2.1494 -1.5673
    1SOL    MW4 6628   3.782   2.821   2.744 -0.3262  0.6759 -0.5591
    1SOL     OW 6629   3.816   3.078   2.635 -0.2055  1.2036 -0.1742
    1SOL    HW2 6630   3.734   3.127   2.648 -1.2842 -0.2844 -1.1759
    1SOL    HW3 6631   3.793   2.988   2.657  1.1748  0.7724 -0.4729
    1SOL    MW4 6632   3.802   3.073   2.640 -0.1655  0.9503 -0.3457
    1SOL     OW 6633   3.613   3.246   2.694  0.3169 -0.5045  0.3439
    1SOL    HW2 6634   3.620   3.339   2.674  1.6396 -0.4733  0.9306
    1SOL    HW3 6635   3.527   3.221   2.660  0.6128  0.5629 -1.2727
    1SOL    MW4 6636   3.602   3.255   2.687  0.5305 -0.3595  0.2084
    1SOL     OW 6637   3.616   3.509   2.591 -0.0445 -0.0056  0.1363
    1SOL    HW2 6638   3.691   3.540   2.642  0.6200 -0.2493 -0.6870
    1SOL    HW3 6639   3.541   3.559   2.625  0.3645 -0.2730  1.4425
    1SOL    MW4 6640   3.616   3.520   2.602  0.0973 -0.0730  0.2000
    1SOL     OW 6641   3.829   3.586   2.727  0.2020  0.2875 -0.1226
    1SOL    HW2 6642   3.914   3.550   2.702  0.1266 -0.5899  0.8715
    1SOL    HW3 6643   3.835   3.679   2.703  1.8412  0.4860  0.9248
    1SOL    MW4 6644   3.841   3.594   2.720  0.4082  0.1979  0.1469
    1SOL     OW 6645   3.810   3.852   2.665  0.5758  0.1455  0.5888
    1SOL    HW2 6646   3.887   3.896   2.702 -0.3387  0.1554  2.5524
    1SOL    HW3 6647   3.738   3.913   2.681  0.2797  0.5441 -2.0527
    1SOL    MW4 6648   3.811   3.866   2.672  0.4158  0.1993  0.4995
    1SOL     OW 6649   3.601   4.032   2.750  0.1210 -0.1138 -0.2913
    1SOL    HW2 6650   3.606   4.123   2.720 -1.4186 -0.2640 -1.0281
    1SOL    HW3 6651   3.523   3.997   2.709 -0.0696 -1.3806  1.0946
    1SOL    MW4 6652   3.592   4.039   2.741 -0.1073 -0.3009 -0.2058
    1SOL     OW 6653   3.601   4.285   2.651  0.2116  0.5378 -0.4689
    1SOL    HW2 6654   3.527   4.342   2.672 -0.3248  0.4019 -1.9584
    1SOL    HW3 6655   3.613   4.294   2.557  0.1400 -1.7832 -0.7338
    1SOL    MW4 6656   3.593   4.293   2.641  0.1314  0.2136 -0.7002
    1SOL     OW 6657   3.839   4.401   2.747 -0.2115  0.4329 -0.4026
    1SOL    HW2 6658   3.909   4.346   2.712  0.5844  0.5617  0.9429
    1SOL    HW3 6659   3.759   4.351   2.729  0.4385 -0.8390  0.1217
    1SOL    MW4 6660   3.838   4.387   2.740 -0.0207  0.2818 -0.1554
    1SOL     OW 6661   4.261   4.659   2.641 -0.0829 -0.0158 -0.6063
    1SOL    HW2 6662   4.182   4.689   2.686  0.1237  1.1458 -1.0009
    1SOL    HW3 6663   4.333   4.699   2.689  0.2516 -0.7662 -0.4792
    1SOL    MW4 6664   4.260   4.668   2.653 -0.0114  0.0384 -0.6416
    1SOL     OW 6665   4.050   0.115   2.800  0.1211 -0.0028  0.3508
    1SOL    HW2 6666   4.030   0.130   2.892 -0.6762 -2.0856  0.5369
    1SOL    HW3 6667   3.967   0.087   2.761  0.5927  0.2398 -0.8763
    1SOL    MW4 6668   4.037   0.113   2.807  0.0782 -0.2456  0.2136
    1SOL     OW 6669   4.075   0.373   2.695 -0.0995 -0.2680  0.2234
    1SOL    HW2 6670   4.088   0.284   2.729 -0.6107 -0.1924  0.6296
    1SOL    HW3 6671   4.052   0.360   2.603  1.2971 -0.4761 -0.1044
    1SOL    MW4 6672   4.073   0.359   2.688  0.0172 -0.2855  0.2337
    1SOL     OW 6673   4.304   0.508   2.762  0.0140 -0.1531  0.2107
    1SOL    HW2 6674   4.224   0.463   2.734 -0.6572  0.3196  1.3384
    1SOL    HW3 6675   4.375   0.451   2.733 -0.7647 -1.0884  0.1009
    1SOL    MW4 6676   4.303   0.495   2.754 -0.1769 -0.2142  0.3450
    1SOL     OW 6677   4.289   0.761   2.621  0.2580  0.2709  0.0944
    1SOL    HW2 6678   4.304   0.674   2.656  1.4819  0.6886  0.6182
    1SOL    HW3 6679   4.292   0.750   2.526 -1.5968 -0.5997  0.1074
    1SOL    MW4 6680   4.291   0.748   2.613  0.1745  0.2111  0.1652
    1SOL     OW 6681   4.088   0.894   2.762 -0.4597  0.0922 -0.0499
    1SOL    HW2 6682   4.158   0.846   2.719 -0.9595 -1.3247  0.6971
    1SOL    HW3 6683   4.007   0.852   2.732 -0.8794  0.0844  1.0400
    1SOL    MW4 6684   4.086   0.882   2.752 -0.5808 -0.0957  0.1926
    1SOL     OW 6685   4.042   1.143   2.666 -0.0993  0.0115 -0.0768
    1SOL    HW2 6686   4.119   1.195   2.689 -0.1744  0.8061 -1.5512
    1SOL    HW3 6687   4.060   1.056   2.701  0.6838  0.6521  1.1364
    1SOL    MW4 6688   4.055   1.138   2.674 -0.0062  0.2006 -0.1113
    1SOL     OW 6689   4.276   1.277   2.774 -0.0599  0.4614  0.5098
    1SOL    HW2 6690   4.279   1.364   2.734 -1.4553 -0.0557 -0.7811
    1SOL    HW3 6691   4.358   1.235   2.747 -0.4911  0.5131 -0.9440
    1SOL    MW4 6692   4.287   1.283   2.765 -0.3014  0.4001  0.1478
    1SOL     OW 6693   4.288   1.524   2.631 -0.0594  0.4408  0.2819
    1SOL    HW2 6694   4.362   1.575   2.664  0.9251 -0.2843 -0.7784
    1SOL    HW3 6695   4.292   1.535   2.536 -1.1748  0.1985  0.1992
    1SOL    MW4 6696   4.298   1.533   2.623 -0.0768  0.3132  0.1309
    1SOL     OW 6697   4.069   1.647   2.760 -0.1563 -0.3108  0.3707
    1SOL    HW2 6698   4.081   1.641   2.855  0.1023  0.2017  0.3685
    1SOL    HW3 6699   4.143   1.598   2.723 -0.5407 -0.9488  0.4417
    1SOL    MW4 6700   4.080   1.640   2.767 -0.1731 -0.3273  0.3796
    1SOL     OW 6701   4.037   1.918   2.689  0.0123 -0.1391 -0.0922
    1SOL    HW2 6702   4.125   1.949   2.712  0.0036 -1.2832  1.6269
    1SOL    HW3 6703   4.034   1.828   2.722 -1.9303 -0.0011  0.1836
    1SOL    MW4 6704   4.048   1.910   2.697 -0.2446 -0.2718  0.1712
    1SOL     OW 6705   4.266   2.042   2.743 -0.2061 -0.1704  0.2217
    1SOL    HW2 6706   4.268   2.131   2.708  1.4236 -0.8224 -1.4574
    1SOL    HW3 6707   4.345   2.001   2.707 -0.2484 -1.8942  2.0421
    1SOL    MW4 6708   4.277   2.048   2.733  0.0033 -0.4838  0.2401
    1SOL     OW 6709   4.238   2.302   2.683 -0.3165 -0.4021  0.2649
    1SOL    HW2 6710   4.148   2.332   2.695 -0.0052  0.4400  0.4939
    1SOL    HW3 6711   4.247   2.290   2.588 -0.5138  0.0045  0.1928
    1SOL    MW4 6712   4.227   2.304   2.672 -0.3009 -0.2375  0.2856
    1SOL     OW 6713   3.989   2.402   2.734 -0.4500  0.0202 -0.1755
    1SOL    HW2 6714   3.972   2.413   2.827  0.7955  0.9176 -0.0329
    1SOL    HW3 6715   3.913   2.354   2.700 -1.5719  0.9216  1.0295
    1SOL    MW4 6716   3.977   2.397   2.742 -0.4339  0.2575  0.0024
    1SOL     OW 6717   3.984   2.663   2.633  0.1615  0.2047 -0.2888
    1SOL    HW2 6718   4.065   2.703   2.665 -0.3757  0.7104  0.4267
    1SOL    HW3 6719   3.990   2.572   2.662  0.5345  0.2012 -0.3644
    1SOL    MW4 6720   3.996   2.656   2.641  0.1400  0.2708 -0.2043
    1SOL     OW 6721   4.239   2.775   2.733 -0.7869 -0.0437  0.4274
    1SOL    HW2 6722   4.263   2.790   2.824  0.1700  0.1271  0.1506
    1SOL    HW3 6723   4.215   2.862   2.700 -3.5284 -0.4793  1.1906
    1SOL    MW4 6724   4.239   2.789   2.740 -1.0228 -0.0787  0.4916
    1SOL     OW 6725   4.218   3.046   2.650 -0.1782  0.2547 -0.4779
    1SOL    HW2 6726   4.154   3.114   2.667 -0.2739  0.4304 -1.5155
    1SOL    HW3 6727   4.238   3.054   2.557  0.1525 -0.8336 -0.5128
    1SOL    MW4 6728   4.212   3.056   2.640 -0.1469  0.1342 -0.6194
    1SOL     OW 6729   4.029   3.230   2.747  0.1185  0.1992 -0.2649
    1SOL    HW2 6730   4.039   3.316   2.708  1.4581 -0.2877 -1.0381
    1SOL    HW3 6731   3.953   3.192   2.703  0.3420  0.4773 -0.8983
    1SOL    MW4 6732   4.021   3.236   2.736  0.3242  0.1717 -0.4506
    1SOL     OW 6733   4.056   3.473   2.633 -0.4992 -0.1002  0.4855
    1SOL    HW2 6734   4.118   3.541   2.659 -0.4138 -0.1709  0.4663
    1SOL    HW3 6735   4.056   3.475   2.537 -0.0163 -0.5617  0.4777
    1SOL    MW4 6736   4.064   3.482   2.624 -0.4244 -0.1705  0.4818
    1SOL     OW 6737   4.254   3.666   2.752 -0.2020  0.2104  0.0614
    1SOL    HW2 6738   4.247   3.663   2.847  1.3708  1.7452  0.2592
    1SOL    HW3 6739   4.326   3.606   2.732  0.8249  1.4355  0.0333
    1SOL    MW4 6740   4.263   3.657   2.762  0.1416  0.5746  0.0842
    1SOL     OW 6741   4.297   3.895   2.636 -0.6642 -0.1465  0.1170
    1SOL    HW2 6742   4.287   3.808   2.675  1.4457 -0.6503 -0.4243
    1SOL    HW3 6743   4.365   3.937   2.688 -0.1690  0.3950 -0.9563
    1SOL    MW4 6744   4.304   3.889   2.648 -0.3204 -0.1416 -0.0961
    1SOL     OW 6745   4.064   4.009   2.750  0.3130 -0.2399 -0.2691
    1SOL    HW2 6746   4.076   4.012   2.845  0.7754 -0.8040 -0.3053
    1SOL    HW3 6747   4.145   3.969   2.717  0.2071  0.0729 -0.9082
    1SOL    MW4 6748   4.077   4.004   2.758  0.3600 -0.2728 -0.3581
    1SOL     OW 6749   4.043   4.244   2.625  0.3946 -0.2162 -0.1586
    1SOL    HW2 6750   4.036   4.157   2.664 -2.4764 -0.0534 -0.2373
    1SOL    HW3 6751   4.028   4.231   2.532 -0.8703  0.4401 -0.0637
    1SOL    MW4 6752   4.040   4.231   2.618 -0.1512 -0.1087 -0.1564
    1SOL     OW 6753   4.231   4.375   2.756  0.0549 -0.2558 -0.1426
    1SOL    HW2 6754   4.172   4.322   2.703 -0.4125 -0.0256  0.1487
    1SOL    HW3 6755   4.234   4.460   2.711 -1.9280  0.6094  1.2861
    1SOL    MW4 6756   4.224   4.380   2.743 -0.2685 -0.1111  0.0844
    1SOL     OW 6757   0.215   4.642   3.152 -0.1026  0.2939  0.5210
    1SOL    HW2 6758   0.199   4.647   3.246  1.1216  2.4279  0.6360
    1SOL    HW3 6759   0.133   4.672   3.112 -0.0766  0.8950  0.9222
    1SOL    MW4 6760   0.202   4.646   3.159  0.0623  0.6547  0.5894
    1SOL     OW 6761   4.481   0.080   3.034  0.0778 -0.1094 -0.0130
    1SOL    HW2 6762   4.393   0.052   3.056 -0.3011  0.4391 -0.7982
    1SOL    HW3 6763   4.493   0.162   3.082  0.4020 -0.5192  0.6083
    1SOL    MW4 6764   4.471   0.087   3.043  0.0706 -0.0911 -0.0343
    1SOL     OW 6765   0.009   0.350   3.139 -0.0846  0.5152  0.2398
    1SOL    HW2 6766   0.005   0.353   3.235 -1.8820  2.5478  0.1405
    1SOL    HW3 6767  -0.082   0.360   3.111  0.5429  0.9908 -1.7130
    1SOL    MW4 6768  -0.003   0.352   3.148 -0.2390  0.8461 -0.0310
    1SOL     OW 6769   0.228   0.445   3.028 -0.0427  0.2620 -0.1601
    1SOL    HW2 6770   0.293   0.395   3.077 -0.2218  1.1397  0.9764
    1SOL    HW3 6771   0.144   0.420   3.067 -0.2805  0.1901 -0.7047
    1SOL    MW4 6772   0.226   0.435   3.039 -0.0977  0.3684 -0.0820
    1SOL     OW 6773   0.240   0.726   3.094  0.0313  0.0931  0.2689
    1SOL    HW2 6774   0.266   0.742   3.185  2.5820 -0.4952 -0.2974
    1SOL    HW3 6775   0.226   0.631   3.090 -2.5743  0.4405  0.6243
    1SOL    MW4 6776   0.242   0.715   3.106  0.0240  0.0613  0.2408
    1SOL     OW 6777   0.008   0.863   3.041  0.6980 -0.0675 -0.3564
    1SOL    HW2 6778   0.093   0.822   3.062  0.4180 -0.4542  0.0207
    1SOL    HW3 6779   0.008   0.868   2.945  1.4514  0.5822 -0.3315
    1SOL    MW4 6780   0.019   0.858   3.031  0.7604 -0.0328 -0.3035
    1SOL     OW 6781   0.043   1.124   3.111 -0.2905  0.2970 -0.0173
    1SOL    HW2 6782  -0.033   1.172   3.079 -0.9461 -0.2240  0.7494
    1SOL    HW3 6783   0.024   1.032   3.089 -1.3367 -0.2390  2.9562
    1SOL    MW4 6784   0.030   1.118   3.104 -0.5151  0.1575  0.4759
    1SOL     OW 6785   0.271   1.258   3.031  0.0693  0.4236 -0.5243
    1SOL    HW2 6786   0.201   1.207   3.072 -0.0410  0.7067 -0.3617
    1SOL    HW3 6787   0.254   1.251   2.937  1.1051 -1.3650 -0.6078
    1SOL    MW4 6788   0.260   1.250   3.024  0.1915  0.2248 -0.5138
    1SOL     OW 6789   0.259   1.543   3.128  0.1366  0.2924 -0.3617
    1SOL    HW2 6790   0.177   1.570   3.087 -0.9976 -0.4864  1.3186
    1SOL    HW3 6791   0.273   1.454   3.096  0.9789  0.8564 -1.5941
    1SOL    MW4 6792   0.250   1.535   3.119  0.0981  0.2642 -0.3026
    1SOL     OW 6793   0.006   1.669   3.042 -0.0997 -0.2373  0.3062
    1SOL    HW2 6794  -0.068   1.615   3.072 -0.5994 -0.2583 -0.9445
    1SOL    HW3 6795  -0.005   1.751   3.090 -0.6795 -0.4002  0.4674
    1SOL    MW4 6796  -0.005   1.673   3.052 -0.2421 -0.2617  0.1624
    1SOL     OW 6797   4.437   1.937   3.138  0.2115 -0.4345  0.1580
    1SOL    HW2 6798   4.348   1.961   3.113  0.1783  1.7794  2.1347
    1SOL    HW3 6799   4.493   1.976   3.071 -0.1563  0.7377  0.5295
    1SOL    MW4 6800   4.433   1.945   3.126  0.1583  0.0122  0.4678
    1SOL     OW 6801   0.170   2.037   2.996  0.1840 -0.1656 -0.1590
    1SOL    HW2 6802   0.162   2.128   3.027 -0.9820  0.3161 -1.8694
    1SOL    HW3 6803   0.201   2.045   2.906 -0.3687 -1.4723 -0.4661
    1SOL    MW4 6804   0.173   2.050   2.988 -0.0428 -0.2747 -0.4251
    1SOL     OW 6805   0.183   2.297   3.126  0.3524 -0.4421 -0.2071
    1SOL    HW2 6806   0.188   2.281   3.220  1.4378  1.0340  0.0056
    1SOL    HW3 6807   0.271   2.326   3.102  0.2410 -1.3348 -1.7842
    1SOL    MW4 6808   0.195   2.299   3.136  0.4809 -0.3653 -0.3872
    1SOL     OW 6809   4.490   2.464   3.000  0.5091  0.0944  0.1676
    1SOL    HW2 6810   4.478   2.551   3.038  0.6580  0.5790 -0.8779
    1SOL    HW3 6811   4.552   2.420   3.059  1.0992  0.9936  0.2262
    1SOL    MW4 6812   4.496   2.469   3.013  0.6065  0.2770  0.0374
    1SOL     OW 6813   4.486   2.710   3.119  0.6467  0.1515  0.5186
    1SOL    HW2 6814   4.497   2.710   3.214  1.1483 -0.2326  0.4624
    1SOL    HW3 6815   4.570   2.740   3.085 -0.4839  3.2789  0.2930
    1SOL    MW4 6816   4.499   2.714   3.127  0.5636  0.5131  0.4814
    1SOL     OW 6817   0.210   2.782   2.931 -0.5471 -0.2730 -0.4649
    1SOL    HW2 6818   0.270   2.722   2.976 -0.4589 -0.0488 -0.2794
    1SOL    HW3 6819   0.229   2.769   2.838  0.6531  0.6719 -0.3727
    1SOL    MW4 6820   0.221   2.772   2.925 -0.3771 -0.1187 -0.4284
    1SOL     OW 6821   0.244   3.036   3.050 -0.0176  0.1786 -0.4248
    1SOL    HW2 6822   0.167   3.089   3.028  0.1114  0.5888  0.0893
    1SOL    HW3 6823   0.227   2.951   3.011 -0.9369  0.1344  0.0773
    1SOL    MW4 6824   0.232   3.032   3.042 -0.1218  0.2270 -0.2906
    1SOL     OW 6825   0.013   3.224   3.007  0.0706  0.1200  0.1939
    1SOL    HW2 6826  -0.061   3.186   3.054  0.0327  0.0126  0.0461
    1SOL    HW3 6827  -0.013   3.220   2.915 -0.1343  0.9209  0.2098
    1SOL    MW4 6828  -0.000   3.219   3.001  0.0385  0.2115  0.1762
    1SOL     OW 6829   4.468   3.462   3.123  0.1420 -0.3957 -0.3385
    1SOL    HW2 6830   4.383   3.481   3.084 -0.0206 -1.4436 -0.5224
    1SOL    HW3 6831   4.494   3.379   3.082 -0.2453 -1.7819  2.1456
    1SOL    MW4 6832   4.460   3.453   3.112  0.0691 -0.7169 -0.0350
    1SOL     OW 6833   0.192   3.595   3.002  0.3461  0.1158 -0.6239
    1SOL    HW2 6834   0.209   3.677   3.047  0.8040  0.0292 -0.6314
    1SOL    HW3 6835   0.109   3.564   3.038 -0.0030  0.7566 -0.8799
    1SOL    MW4 6836   0.184   3.602   3.013  0.3604  0.1888 -0.6585
    1SOL     OW 6837   0.208   3.814   3.151  0.1798 -0.3360  0.0153
    1SOL    HW2 6838   0.218   3.795   3.244 -0.0915 -0.7747 -0.0402
    1SOL    HW3 6839   0.281   3.872   3.130  0.6499 -0.8017  0.3458
    1SOL    MW4 6840   0.219   3.819   3.160  0.2060 -0.4554  0.0515
    1SOL     OW 6841   0.023   3.981   3.059  0.3788  0.2146  0.0497
    1SOL    HW2 6842   0.090   3.920   3.090  0.3033 -0.4220 -1.0303
    1SOL    HW3 6843   0.027   3.976   2.964  0.1004  1.6135 -0.0515
    1SOL    MW4 6844   0.032   3.972   3.051  0.3319  0.3152 -0.1063
    1SOL     OW 6845   4.483   4.247   3.119  0.1794  0.3814  0.0011
    1SOL    HW2 6846   4.479   4.255   3.214 -0.7931  1.5213 -0.1257
    1SOL    HW3 6847   4.495   4.153   3.104 -0.6730  0.0602  1.2179
    1SOL    MW4 6848   4.484   4.235   3.130 -0.0610  0.4897  0.1447
    1SOL     OW 6849   0.247   4.369   3.062 -0.0723 -0.1362  0.0767
    1SOL    HW2 6850   0.156   4.339   3.067 -0.1334  0.2464  1.5200
    1SOL    HW3 6851   0.241   4.464   3.078  0.4508  0.0929 -1.1009
    1SOL    MW4 6852   0.234   4.378   3.065 -0.0113 -0.0553  0.1113
    1SOL     OW 6853   0.678   4.652   3.140 -0.0784  0.4285  0.2029
    1SOL    HW2 6854   0.675   4.559   3.116  2.4350  0.5470 -0.6436
    1SOL    HW3 6855   0.602   4.690   3.096 -0.9808 -1.1649  0.3482
    1SOL    MW4 6856   0.667   4.645   3.131  0.1342  0.2337  0.1104
    1SOL     OW 6857   0.435   0.090   3.043  0.1746  0.1089  0.0414
    1SOL    HW2 6858   0.432   0.179   3.080 -0.3471 -0.0587  0.4041
    1SOL    HW3 6859   0.368   0.042   3.091  1.5929 -0.9375  1.0103
    1SOL    MW4 6860   0.425   0.096   3.054  0.2928 -0.0513  0.2170
    1SOL     OW 6861   0.477   0.343   3.148  0.1021  0.3689 -1.0011
    1SOL    HW2 6862   0.491   0.361   3.241 -1.2929  0.8840 -0.8796
    1SOL    HW3 6863   0.551   0.384   3.104  0.0194  1.3744 -0.2264
    1SOL    MW4 6864   0.489   0.351   3.155 -0.0929  0.5695 -0.8829
    1SOL     OW 6865   0.655   0.494   2.988  0.0286 -0.0245  0.4069
    1SOL    HW2 6866   0.727   0.463   3.043 -0.4618  0.5736  1.3896
    1SOL    HW3 6867   0.620   0.570   3.034 -0.8391  0.0636 -0.3801
    1SOL    MW4 6868   0.660   0.500   3.001 -0.1506  0.0660  0.4327
    1SOL     OW 6869   0.676   0.732   3.139  0.2671  0.1859  0.3348
    1SOL    HW2 6870   0.684   0.732   3.234 -0.8295  2.6791  0.4504
    1SOL    HW3 6871   0.762   0.760   3.108  0.3057  0.4103  0.6394
    1SOL    MW4 6872   0.689   0.735   3.147  0.1275  0.5444  0.3903
    1SOL     OW 6873   0.482   0.883   3.009 -0.0608  0.1723  0.4992
    1SOL    HW2 6874   0.400   0.850   3.044 -0.2469 -1.6849 -1.5215
    1SOL    HW3 6875   0.550   0.831   3.052 -0.2288 -1.3429 -0.9995
    1SOL    MW4 6876   0.480   0.872   3.019 -0.1074 -0.2727  0.0350
    1SOL     OW 6877   0.477   1.109   3.149  0.0457  0.1278  0.1495
    1SOL    HW2 6878   0.496   1.030   3.098  1.4075  0.0397  0.7828
    1SOL    HW3 6879   0.414   1.158   3.096  0.2500 -0.7246 -0.8779
    1SOL    MW4 6880   0.471   1.105   3.135  0.2523  0.0036  0.0970
    1SOL     OW 6881   0.689   1.261   3.027 -0.1572 -0.1582  0.0474
    1SOL    HW2 6882   0.762   1.200   3.035  0.2779  0.2113 -1.0024
    1SOL    HW3 6883   0.619   1.221   3.078  0.3706 -1.1500  0.0133
    1SOL    MW4 6884   0.689   1.248   3.035 -0.0302 -0.2403 -0.0956
    1SOL     OW 6885   0.707   1.529   3.102 -0.1235 -0.3886 -0.0956
    1SOL    HW2 6886   0.728   1.526   3.196  0.8086 -0.6243 -0.3098
    1SOL    HW3 6887   0.703   1.437   3.075 -1.6073 -0.3622 -0.0313
    1SOL    MW4 6888   0.709   1.516   3.111 -0.1963 -0.4162 -0.1154
    1SOL     OW 6889   0.471   1.691   3.046 -0.2265  0.1372  0.0087
    1SOL    HW2 6890   0.552   1.644   3.067 -0.0771  1.3195  2.2250
    1SOL    HW3 6891   0.401   1.632   3.075 -0.0705  0.5516  1.2695
    1SOL    MW4 6892   0.473   1.677   3.053 -0.1863  0.3479  0.4678
    1SOL     OW 6893   0.427   1.943   3.141 -0.1480  0.1712  0.6995
    1SOL    HW2 6894   0.443   1.850   3.126  0.2442  0.3276  0.1344
    1SOL    HW3 6895   0.346   1.961   3.094 -0.6777 -0.0735  1.5151
    1SOL    MW4 6896   0.419   1.933   3.133 -0.1661  0.1596  0.7324
    1SOL     OW 6897   0.655   2.037   3.039  0.0426  0.3416  0.1788
    1SOL    HW2 6898   0.729   1.980   3.063 -0.1129 -0.8979 -2.1475
    1SOL    HW3 6899   0.579   1.994   3.079  0.1555 -0.1019 -0.0830
    1SOL    MW4 6900   0.655   2.023   3.048  0.0370  0.1194 -0.1628
    1SOL     OW 6901   0.675   2.321   3.126 -0.8922 -0.0410 -0.0228
    1SOL    HW2 6902   0.676   2.302   3.220 -1.1885 -0.1583 -0.0419
    1SOL    HW3 6903   0.672   2.234   3.084 -0.2422 -0.0069 -0.1519
    1SOL    MW4 6904   0.675   2.307   3.133 -0.8454 -0.0520 -0.0420
    1SOL     OW 6905   0.428   2.401   3.034  0.3030  0.8133  0.1981
    1SOL    HW2 6906   0.514   2.377   3.069  1.1902  1.5837 -1.3806
    1SOL    HW3 6907   0.439   2.395   2.939 -2.2378 -1.9068  0.0410
    1SOL    MW4 6908   0.441   2.397   3.026  0.0849  0.5560 -0.0310
    1SOL     OW 6909   0.393   2.667   3.102 -0.3262 -0.1695  0.4442
    1SOL    HW2 6910   0.464   2.719   3.064 -0.1707 -0.4219  0.3911
    1SOL    HW3 6911   0.410   2.578   3.073 -0.6572 -0.2324  0.4452
    1SOL    MW4 6912   0.405   2.662   3.093 -0.3493 -0.2112  0.4373
    1SOL     OW 6913   0.626   2.808   3.010 -0.1305  0.0289  0.2787
    1SOL    HW2 6914   0.710   2.791   3.053  0.5044  0.2682 -0.8322
    1SOL    HW3 6915   0.612   2.902   3.021 -0.5133 -0.0991  0.9116
    1SOL    MW4 6916   0.636   2.818   3.017 -0.0972  0.0434  0.2158
    1SOL     OW 6917   0.671   3.068   3.071 -0.1714  0.2606  0.2358
    1SOL    HW2 6918   0.663   3.061   3.166  1.2025  1.5006  0.4723
    1SOL    HW3 6919   0.601   3.128   3.046 -1.1658 -0.8527  0.3355
    1SOL    MW4 6920   0.661   3.075   3.080 -0.1213  0.2773  0.2799
    1SOL     OW 6921   0.439   3.225   2.989  0.0708 -0.0390  0.1150
    1SOL    HW2 6922   0.431   3.305   3.041 -2.3665 -0.0950 -0.0901
    1SOL    HW3 6923   0.377   3.164   3.029  1.0023 -1.4050 -0.4967
    1SOL    MW4 6924   0.429   3.228   3.001 -0.1279 -0.2267  0.0074
    1SOL     OW 6925   0.436   3.476   3.095  0.6506  0.2992 -0.4519
    1SOL    HW2 6926   0.430   3.455   3.188  0.6011 -0.9482 -0.7236
    1SOL    HW3 6927   0.346   3.494   3.068  0.3124 -1.7312 -0.7782
    1SOL    MW4 6928   0.424   3.476   3.103  0.5995 -0.1335 -0.5307
    1SOL     OW 6929   0.679   3.606   3.007 -0.2700  0.3526 -0.3235
    1SOL    HW2 6930   0.750   3.546   3.030  0.7419  1.6576  0.0481
    1SOL    HW3 6931   0.600   3.566   3.044  0.4055 -0.6651  0.0386
    1SOL    MW4 6932   0.678   3.593   3.015 -0.0473  0.3905 -0.2270
    1SOL     OW 6933   0.656   3.860   3.100  0.0451  0.2944 -0.1164
    1SOL    HW2 6934   0.640   3.856   3.194 -0.6804 -0.4900 -0.2710
    1SOL    HW3 6935   0.637   3.772   3.068 -0.4745  0.7578 -1.1167
    1SOL    MW4 6936   0.652   3.848   3.108 -0.1192  0.2522 -0.2685
    1SOL     OW 6937   0.403   3.967   3.031 -0.0365 -0.0113  0.0473
    1SOL    HW2 6938   0.487   3.925   3.051 -0.7858 -1.8416 -0.5821
    1SOL    HW3 6939   0.409   3.990   2.938 -0.2286 -0.1184  0.0089
    1SOL    MW4 6940   0.415   3.965   3.021 -0.1607 -0.2668 -0.0410
    1SOL     OW 6941   0.468   4.225   3.145  0.2029  0.3727  0.2866
    1SOL    HW2 6942   0.448   4.135   3.122 -1.8513  0.9036 -0.0712
    1SOL    HW3 6943   0.393   4.276   3.115  1.0898  2.1440  0.9437
    1SOL    MW4 6944   0.456   4.220   3.138  0.0489  0.6766  0.3262
    1SOL     OW 6945   0.677   4.390   3.045  0.5979  0.5820 -0.2316
    1SOL    HW2 6946   0.611   4.325   3.069  2.0678 -0.3678  1.3111
    1SOL    HW3 6947   0.671   4.395   2.949 -0.4613 -0.8307 -0.2547
    1SOL    MW4 6948   0.667   4.382   3.035  0.6521  0.2704 -0.0310
    1SOL     OW 6949   1.102   4.644   3.131 -0.0059 -0.2238 -0.1565
    1SOL    HW2 6950   1.169   4.691   3.082 -0.4411  0.8487  0.2651
    1SOL    HW3 6951   1.022   4.694   3.117 -0.4382 -0.7277  0.4675
    1SOL    MW4 6952   1.100   4.657   3.122 -0.1204 -0.1488 -0.0186
    1SOL     OW 6953   0.887   0.105   3.015 -0.2797  0.1311 -0.0152
    1SOL    HW2 6954   0.878   0.199   3.031 -0.0033 -0.0557  1.3042
    1SOL    HW3 6955   0.802   0.068   3.041  0.1221 -0.1588  0.9069
    1SOL    MW4 6956   0.875   0.112   3.020 -0.1903  0.0682  0.2806
    1SOL     OW 6957   0.869   0.378   3.111  0.3552 -0.2137  0.3873
    1SOL    HW2 6958   0.866   0.373   3.207  0.1617  1.3593  0.4763
    1SOL    HW3 6959   0.957   0.411   3.092  0.6587 -1.2211 -0.0330
    1SOL    MW4 6960   0.880   0.381   3.122  0.3697 -0.1391  0.3440
    1SOL     OW 6961   1.091   0.489   3.019 -0.1408 -0.1392 -0.2478
    1SOL    HW2 6962   1.157   0.438   3.066 -0.7488 -0.2212  0.5291
    1SOL    HW3 6963   1.108   0.471   2.927  0.1530 -1.1238 -0.0124
    1SOL    MW4 6964   1.102   0.480   3.013 -0.1824 -0.2800 -0.1144
    1SOL     OW 6965   1.140   0.739   3.113  0.1967 -0.0984  0.0655
    1SOL    HW2 6966   1.163   0.716   3.203  1.1247 -2.0007 -0.6147
    1SOL    HW3 6967   1.131   0.654   3.069  0.7324  0.8242 -1.8699
    1SOL    MW4 6968   1.142   0.725   3.119  0.3899 -0.2276 -0.2794
    1SOL     OW 6969   0.909   0.865   3.028 -0.0980 -0.0780 -0.2133
    1SOL    HW2 6970   0.907   0.953   3.065  1.6585  0.3062 -1.0147
    1SOL    HW3 6971   0.993   0.828   3.055 -0.0106 -0.8271 -1.4442
    1SOL    MW4 6972   0.920   0.871   3.036  0.1453 -0.1262 -0.4816
    1SOL     OW 6973   0.922   1.134   3.092 -0.2158  0.3461 -0.5672
    1SOL    HW2 6974   0.910   1.157   3.184 -0.4403 -0.5137 -0.3804
    1SOL    HW3 6975   1.005   1.174   3.068 -0.2469  0.7300 -0.0415
    1SOL    MW4 6976   0.931   1.143   3.101 -0.2495  0.2834 -0.4730
    1SOL     OW 6977   1.168   1.260   3.006 -0.6255 -0.1565 -0.0280
    1SOL    HW2 6978   1.251   1.223   3.035 -0.4601  1.0037  1.0477
    1SOL    HW3 6979   1.173   1.260   2.910  0.8579  0.4273  0.0417
    1SOL    MW4 6980   1.179   1.255   2.997 -0.4079  0.0736  0.1230
    1SOL     OW 6981   1.125   1.510   3.124 -0.1856 -0.2889  0.0313
    1SOL    HW2 6982   1.204   1.558   3.101 -0.3366  0.3017  0.7317
    1SOL    HW3 6983   1.139   1.422   3.088  0.3685  0.0868 -0.6865
    1SOL    MW4 6984   1.137   1.505   3.116 -0.1323 -0.1613  0.0291
    1SOL     OW 6985   0.948   1.684   3.023 -0.0397 -0.4788 -0.6729
    1SOL    HW2 6986   1.007   1.612   3.046 -0.1754 -0.0464  1.0929
    1SOL    HW3 6987   0.861   1.650   3.044 -0.1936 -0.1308 -0.7537
    1SOL    MW4 6988   0.944   1.670   3.029 -0.0780 -0.3760 -0.4508
    1SOL     OW 6989   0.897   1.938   3.129 -0.0563 -0.1476 -0.5833
    1SOL    HW2 6990   0.882   1.926   3.222 -0.6319  0.3696 -0.6038
    1SOL    HW3 6991   0.920   1.851   3.096 -0.1127 -0.3779 -0.0081
    1SOL    MW4 6992   0.898   1.925   3.137 -0.1397 -0.1098 -0.5102
    1SOL     OW 6993   1.142   2.079   3.048 -0.2335  0.4084 -0.0358
    1SOL    HW2 6994   1.070   2.031   3.088  0.5577 -0.3301  0.5150
    1SOL    HW3 6995   1.133   2.061   2.954 -0.3447 -0.2619  0.0994
    1SOL    MW4 6996   1.131   2.070   3.041 -0.1440  0.2224  0.0548
    1SOL     OW 6997   1.164   2.344   3.125  0.1631  0.0841  0.1656
    1SOL    HW2 6998   1.078   2.374   3.095  1.0068  0.1206 -2.3263
    1SOL    HW3 6999   1.171   2.255   3.093  0.7734 -0.1755  0.9948
    1SOL    MW4 7000   1.153   2.337   3.117  0.3548  0.0546 -0.0536
    1SOL     OW 7001   0.910   2.463   3.051  0.3339  0.1348  0.0397
    1SOL    HW2 7002   0.836   2.414   3.086  0.0382  0.2685 -0.3962
    1SOL    HW3 7003   0.893   2.467   2.957  0.6264  0.6217  0.0097
    1SOL    MW4 7004   0.898   2.457   3.043  0.3334  0.2167 -0.0219
    1SOL     OW 7005   0.851   2.713   3.116 -0.1627 -0.2663 -0.0309
    1SOL    HW2 7006   0.855   2.722   3.211  1.1980  0.6470 -0.1555
    1SOL    HW3 7007   0.880   2.623   3.100  1.2004  0.0843  0.3438
    1SOL    MW4 7008   0.856   2.702   3.126  0.1967 -0.0997  0.0019
    1SOL     OW 7009   1.100   2.812   2.990 -0.1264  0.0584  0.2727
    1SOL    HW2 7010   1.119   2.895   3.034 -0.4339  0.4487 -0.3244
    1SOL    HW3 7011   1.023   2.778   3.035  0.4703 -0.2989  1.0434
    1SOL    MW4 7012   1.092   2.819   3.001 -0.0882  0.0627  0.2959
    1SOL     OW 7013   1.130   3.075   3.126 -0.3751 -0.3274  0.2057
    1SOL    HW2 7014   1.205   3.127   3.097  0.6627 -0.5384  2.4694
    1SOL    HW3 7015   1.054   3.121   3.089  0.6480  1.6979  0.5539
    1SOL    MW4 7016   1.130   3.088   3.117 -0.1031 -0.0880  0.5505
    1SOL     OW 7017   0.905   3.204   3.016  0.3390  0.1232  0.4335
    1SOL    HW2 7018   0.825   3.154   3.035 -0.1116  1.0562  1.0525
    1SOL    HW3 7019   0.908   3.211   2.921 -1.7466  2.3305  0.4798
    1SOL    MW4 7020   0.895   3.198   3.006  0.0045  0.5376  0.5217
    1SOL     OW 7021   0.901   3.479   3.107 -0.4055  0.3463  0.3161
    1SOL    HW2 7022   0.974   3.533   3.077  1.3309 -0.0003  3.6537
    1SOL    HW3 7023   0.922   3.391   3.078 -0.2557  0.4776  0.0231
    1SOL    MW4 7024   0.913   3.475   3.099 -0.1566  0.3178  0.7179
    1SOL     OW 7025   1.092   3.634   3.019  0.3301  0.1625  0.2748
    1SOL    HW2 7026   1.166   3.577   3.043  1.0924  1.7103  1.7095
    1SOL    HW3 7027   1.113   3.718   3.058 -0.8583  1.4219 -1.7152
    1SOL    MW4 7028   1.105   3.637   3.027  0.2738  0.5329  0.2015
    1SOL     OW 7029   1.168   3.891   3.131  0.2616  0.0477 -0.1994
    1SOL    HW2 7030   1.161   3.872   3.225  0.8467 -0.8977 -0.3416
    1SOL    HW3 7031   1.085   3.933   3.109 -0.6105 -1.3724  0.3608
    1SOL    MW4 7032   1.156   3.894   3.141  0.2238 -0.2642 -0.1442
    1SOL     OW 7033   0.917   4.012   3.037  0.0926 -0.0802 -0.0631
    1SOL    HW2 7034   0.840   3.960   3.062 -0.0520  0.4773  0.6437
    1SOL    HW3 7035   0.911   4.018   2.941 -0.1240 -1.0019 -0.1117
    1SOL    MW4 7036   0.906   4.006   3.028  0.0449 -0.1278  0.0238
    1SOL     OW 7037   0.891   4.269   3.168  0.3044  0.2009 -0.1262
    1SOL    HW2 7038   0.900   4.191   3.113 -0.8394  0.2554 -0.3949
    1SOL    HW3 7039   0.820   4.319   3.127 -0.5145  0.2739  1.3754
    1SOL    MW4 7040   0.883   4.266   3.155  0.0454  0.2174  0.0365
    1SOL     OW 7041   1.109   4.386   3.038  0.0899 -0.0121  0.2213
    1SOL    HW2 7042   1.038   4.338   3.081  1.1189  0.7887  2.9303
    1SOL    HW3 7043   1.104   4.474   3.074  2.0242  0.2361 -0.0612
    1SOL    MW4 7044   1.099   4.391   3.049  0.4809  0.1259  0.5414
    1SOL     OW 7045   1.555   4.634   3.100  0.5633  0.1685  0.0178
    1SOL    HW2 7046   1.547   4.642   3.195  0.0313 -1.2556  0.1029
    1SOL    HW3 7047   1.476   4.674   3.066 -0.2199 -1.1033  0.2778
    1SOL    MW4 7048   1.544   4.640   3.108  0.3897 -0.1869  0.0632
    1SOL     OW 7049   1.324   0.092   3.001 -0.0050 -0.3656 -0.0580
    1SOL    HW2 7050   1.325   0.184   3.026  2.2656 -1.1048  2.7657
    1SOL    HW3 7051   1.326   0.094   2.905  0.0610  2.4965 -0.0460
    1SOL    MW4 7052   1.324   0.105   2.991  0.3034 -0.0855  0.3161
    1SOL     OW 7053   1.310   0.356   3.117  0.0597  0.3260 -0.0655
    1SOL    HW2 7054   1.337   0.323   3.203 -0.6143  1.7859  0.7409
    1SOL    HW3 7055   1.389   0.394   3.080 -0.1775  1.9108  0.9980
    1SOL    MW4 7056   1.324   0.357   3.124 -0.0604  0.7277  0.1812
    1SOL     OW 7057   1.549   0.485   3.024 -0.1956 -0.0737  0.2991
    1SOL    HW2 7058   1.572   0.572   3.058 -0.9046  0.1005  0.3374
    1SOL    HW3 7059   1.556   0.494   2.929 -1.7292  0.4501  0.2258
    1SOL    MW4 7060   1.553   0.498   3.016 -0.4915  0.0184  0.2942
    1SOL     OW 7061   1.586   0.746   3.102  0.3972  0.1887  0.3485
    1SOL    HW2 7062   1.574   0.757   3.197  0.8785 -1.1596  0.5628
    1SOL    HW3 7063   1.502   0.773   3.065  0.4285  1.3806  1.0993
    1SOL    MW4 7064   1.573   0.751   3.110  0.4648  0.1681  0.4759
    1SOL     OW 7065   1.351   0.869   2.990  0.3024 -0.1736 -0.0457
    1SOL    HW2 7066   1.362   0.957   3.024 -0.1721 -0.6409  1.3514
    1SOL    HW3 7067   1.274   0.834   3.036  0.4394 -1.2849 -0.6264
    1SOL    MW4 7068   1.342   0.876   3.000  0.2577 -0.3819  0.0620
    1SOL     OW 7069   1.389   1.123   3.073 -0.0254 -0.4028 -0.0622
    1SOL    HW2 7070   1.398   1.136   3.168  1.3336  0.7859 -0.3441
    1SOL    HW3 7071   1.464   1.168   3.035 -0.5011 -0.9660 -1.7148
    1SOL    MW4 7072   1.400   1.130   3.081  0.0911 -0.3202 -0.3171
    1SOL     OW 7073   1.650   1.270   2.984 -0.1590  0.5028 -0.1184
    1SOL    HW2 7074   1.729   1.229   3.019 -1.1284 -0.0403  1.4930
    1SOL    HW3 7075   1.635   1.345   3.042 -0.9654  0.4384 -0.2419
    1SOL    MW4 7076   1.658   1.275   2.997 -0.3934  0.4226  0.0780
    1SOL     OW 7077   1.616   1.505   3.137 -0.0163  0.5437 -0.0403
    1SOL    HW2 7078   1.683   1.563   3.099  0.5278  1.4714  2.2594
    1SOL    HW3 7079   1.534   1.552   3.123  0.1099  0.6210 -0.5413
    1SOL    MW4 7080   1.614   1.519   3.130  0.0720  0.6763  0.1972
    1SOL     OW 7081   1.320   1.675   3.023  0.0425  0.7088  0.1343
    1SOL    HW2 7082   1.321   1.765   3.056  0.5677  1.0400 -0.7872
    1SOL    HW3 7083   1.321   1.683   2.928 -2.8801 -0.2344 -0.0223
    1SOL    MW4 7084   1.321   1.688   3.015 -0.2738  0.6279 -0.0076
    1SOL     OW 7085   1.361   1.927   3.142 -0.3116  0.1864 -0.2854
    1SOL    HW2 7086   1.360   1.916   3.237  0.9378 -1.1643 -0.4191
    1SOL    HW3 7087   1.283   1.980   3.123 -0.7902  0.1184  1.4401
    1SOL    MW4 7088   1.351   1.933   3.152 -0.2099 -0.0008 -0.0751
    1SOL     OW 7089   1.582   2.083   3.059 -0.1747  0.3143 -0.4000
    1SOL    HW2 7090   1.505   2.034   3.088  0.3077  0.0841  0.5162
    1SOL    HW3 7091   1.594   2.058   2.968 -0.5550 -0.4658 -0.2352
    1SOL    MW4 7092   1.573   2.073   3.051 -0.1613  0.1807 -0.2575
    1SOL     OW 7093   1.610   2.356   3.136  0.1063  0.5753 -0.1622
    1SOL    HW2 7094   1.537   2.402   3.095 -1.0482 -0.3909  0.7707
    1SOL    HW3 7095   1.602   2.266   3.104 -1.0987 -0.3235  2.4979
    1SOL    MW4 7096   1.599   2.350   3.126 -0.2050  0.3295  0.3119
    1SOL     OW 7097   1.379   2.477   3.033 -0.5393 -0.0759 -0.1862
    1SOL    HW2 7098   1.306   2.427   3.070 -0.2384  0.1342  0.7154
    1SOL    HW3 7099   1.375   2.460   2.939 -0.4876 -1.7260  0.1086
    1SOL    MW4 7100   1.369   2.468   3.026 -0.4928 -0.2658 -0.0284
    1SOL     OW 7101   1.355   2.743   3.099  0.3357  0.2974  0.3927
    1SOL    HW2 7102   1.367   2.649   3.091 -0.6783  0.0813  1.2538
    1SOL    HW3 7103   1.275   2.762   3.050  1.7875  1.0890 -1.7786
    1SOL    MW4 7104   1.346   2.733   3.092  0.3936  0.3731  0.2198
    1SOL     OW 7105   1.573   2.853   2.966  0.1343  0.4508  0.5471
    1SOL    HW2 7106   1.640   2.815   3.022 -0.6244 -0.7608  0.6618
    1SOL    HW3 7107   1.490   2.830   3.010 -0.4059  0.6531 -0.3597
    1SOL    MW4 7108   1.571   2.845   2.979 -0.0371  0.3176  0.4423
    1SOL     OW 7109   1.596   3.095   3.102  0.5985 -0.1973  0.3943
    1SOL    HW2 7110   1.604   3.091   3.197  1.1929  1.1404  0.4189
    1SOL    HW3 7111   1.585   3.004   3.074  1.2107 -0.6665  1.6660
    1SOL    MW4 7112   1.595   3.083   3.111  0.7578 -0.0830  0.5655
    1SOL     OW 7113   1.359   3.220   3.040 -0.3455 -0.7086  0.2827
    1SOL    HW2 7114   1.450   3.198   3.062  0.4026  0.3379 -1.6033
    1SOL    HW3 7115   1.356   3.218   2.944 -2.0295  0.3148  0.2843
    1SOL    MW4 7116   1.371   3.217   3.030 -0.4690 -0.4354  0.0339
    1SOL     OW 7117   1.307   3.489   3.112 -0.0598 -0.2665  0.5772
    1SOL    HW2 7118   1.324   3.507   3.204 -2.3171  0.3078  0.9153
    1SOL    HW3 7119   1.310   3.394   3.104 -0.4066 -0.3398  1.3642
    1SOL    MW4 7120   1.310   3.479   3.123 -0.4034 -0.2000  0.7257
    1SOL     OW 7121   1.570   3.606   3.000 -0.1718 -0.1008  0.5707
    1SOL    HW2 7122   1.483   3.571   3.019  0.3492 -1.6268  0.2362
    1SOL    HW3 7123   1.564   3.636   2.910 -0.2410 -0.6137  0.3987
    1SOL    MW4 7124   1.558   3.605   2.991 -0.1123 -0.3698  0.5040
    1SOL     OW 7125   1.586   3.860   3.122  0.2688  0.0172 -0.0362
    1SOL    HW2 7126   1.667   3.895   3.085  1.7062 -1.4290  1.6198
    1SOL    HW3 7127   1.584   3.768   3.094 -0.0129 -0.3574  1.1565
    1SOL    MW4 7128   1.596   3.852   3.114  0.4212 -0.2232  0.3397
    1SOL     OW 7129   1.380   4.018   3.017 -0.0449 -0.0096  0.5129
    1SOL    HW2 7130   1.453   3.969   3.056  0.2514  0.4544  0.5535
    1SOL    HW3 7131   1.302   3.982   3.058  0.1837 -0.3249  0.6754
    1SOL    MW4 7132   1.380   4.006   3.028  0.0243  0.0100  0.5398
    1SOL     OW 7133   1.323   4.265   3.155  0.0917 -0.0645  0.2905
    1SOL    HW2 7134   1.341   4.189   3.099  0.0485 -0.1641  0.4132
    1SOL    HW3 7135   1.248   4.308   3.113  0.7683  0.5019 -0.3710
    1SOL    MW4 7136   1.316   4.261   3.142  0.1752 -0.0029  0.2196
    1SOL     OW 7137   1.520   4.369   2.993  0.2944  0.0407  0.5034
    1SOL    HW2 7138   1.455   4.324   3.048 -0.1194  0.7047  0.5581
    1SOL    HW3 7139   1.536   4.452   3.037 -0.8565  1.0641 -0.9400
    1SOL    MW4 7140   1.513   4.374   3.006  0.0879  0.2632  0.3204
    1SOL     OW 7141   2.049   4.648   3.084  0.3744 -0.4445  0.5606
    1SOL    HW2 7142   2.053   4.628   3.177 -0.3711 -0.9169  0.4962
    1SOL    HW3 7143   1.962   4.687   3.071 -0.0925 -1.6827 -0.1783
    1SOL    MW4 7144   2.038   4.650   3.094  0.2146 -0.6704  0.4547
    1SOL     OW 7145   1.800   0.093   3.043  0.1751  0.3658  0.0943
    1SOL    HW2 7146   1.718   0.051   3.069  0.8602 -0.9966  0.1016
    1SOL    HW3 7147   1.796   0.097   2.948 -0.0458  0.6002  0.1134
    1SOL    MW4 7148   1.789   0.088   3.034  0.2363  0.2170  0.0980
    1SOL     OW 7149   1.782   0.347   3.126  0.3079 -0.5000  0.1132
    1SOL    HW2 7150   1.777   0.254   3.103  1.7335 -0.6648  0.4330
    1SOL    HW3 7151   1.704   0.386   3.086 -0.7617 -1.9854  0.6917
    1SOL    MW4 7152   1.771   0.340   3.118  0.3549 -0.7177  0.2315
    1SOL     OW 7153   1.986   0.501   2.997  0.0119  0.1272 -0.2028
    1SOL    HW2 7154   1.918   0.455   3.047 -0.2070  2.2219  1.4673
    1SOL    HW3 7155   2.068   0.459   3.024 -0.0866  1.3368  2.0648
    1SOL    MW4 7156   1.988   0.489   3.007 -0.0299  0.5631  0.3171
    1SOL     OW 7157   2.007   0.764   3.089 -0.0699  0.1146 -0.4456
    1SOL    HW2 7158   1.928   0.817   3.074  0.3995  0.4921 -1.6311
    1SOL    HW3 7159   1.988   0.680   3.048  0.2118  0.2632 -0.8794
    1SOL    MW4 7160   1.994   0.760   3.082  0.0291  0.1840 -0.6592
    1SOL     OW 7161   1.767   0.923   3.042 -0.5917 -0.0122 -0.0789
    1SOL    HW2 7162   1.692   0.867   3.065  0.8047 -1.2679  1.5365
    1SOL    HW3 7163   1.773   0.917   2.947 -1.4430 -1.3336 -0.0696
    1SOL    MW4 7164   1.758   0.915   3.033 -0.5198 -0.3521  0.1352
    1SOL     OW 7165   1.872   1.163   3.106 -0.0838 -0.3233  0.0944
    1SOL    HW2 7166   1.859   1.158   3.201  1.1833 -2.1630  0.2072
    1SOL    HW3 7167   1.842   1.079   3.074  0.3348 -0.0484 -1.0304
    1SOL    MW4 7168   1.866   1.151   3.115  0.1385 -0.5298 -0.0391
    1SOL     OW 7169   2.078   1.303   3.004  0.2060  0.7197  0.6235
    1SOL    HW2 7170   2.154   1.260   3.043  0.0485  0.4460  0.6326
    1SOL    HW3 7171   2.003   1.250   3.033  0.2061 -0.3163 -1.1967
    1SOL    MW4 7172   2.078   1.290   3.013  0.1850  0.5468  0.3843
    1SOL     OW 7173   2.039   1.544   3.125  0.3107  0.2369 -0.5004
    1SOL    HW2 7174   2.036   1.521   3.218 -0.8407  2.0710 -0.0568
    1SOL    HW3 7175   2.042   1.460   3.080 -0.1383 -0.7034  1.1606
    1SOL    MW4 7176   2.039   1.530   3.131  0.0997  0.3549 -0.2227
    1SOL     OW 7177   1.811   1.680   3.036  0.0795  0.1403 -0.3366
    1SOL    HW2 7178   1.811   1.775   3.053  1.0409 -0.0933  1.0869
    1SOL    HW3 7179   1.895   1.650   3.071 -0.7052 -1.4268  0.2525
    1SOL    MW4 7180   1.822   1.689   3.043  0.1029 -0.0973 -0.0710
    1SOL     OW 7181   1.806   1.933   3.134  0.4531  0.3226 -0.7201
    1SOL    HW2 7182   1.878   1.996   3.124  0.2992  0.5758 -0.2390
    1SOL    HW3 7183   1.727   1.985   3.126  0.3164  0.5641  1.8128
    1SOL    MW4 7184   1.805   1.948   3.132  0.4148  0.3878 -0.3223
    1SOL     OW 7185   2.013   2.104   3.058  0.0662 -0.5157 -0.0915
    1SOL    HW2 7186   2.098   2.070   3.086  0.5373  1.9680  1.6079
    1SOL    HW3 7187   2.006   2.190   3.099 -2.4812  0.1106 -1.7021
    1SOL    MW4 7188   2.023   2.111   3.067 -0.2077 -0.1054 -0.0796
    1SOL     OW 7189   2.026   2.351   3.179  0.4387  0.4969  0.0905
    1SOL    HW2 7190   2.110   2.374   3.138  0.5574 -0.3401 -0.1491
    1SOL    HW3 7191   1.961   2.400   3.129  0.6219 -0.2234 -0.8748
    1SOL    MW4 7192   2.029   2.361   3.167  0.4785  0.2916 -0.0684
    1SOL     OW 7193   1.834   2.484   3.039  0.7340  0.0830 -0.2101
    1SOL    HW2 7194   1.818   2.572   3.074 -0.2531 -0.4317  0.6601
    1SOL    HW3 7195   1.754   2.436   3.059  1.2822 -1.0236 -0.6692
    1SOL    MW4 7196   1.821   2.489   3.046  0.6762 -0.1309 -0.1559
    1SOL     OW 7197   1.779   2.739   3.134 -0.1436  0.0703  0.5416
    1SOL    HW2 7198   1.785   2.715   3.226  1.3783 -0.7906  0.2243
    1SOL    HW3 7199   1.865   2.773   3.112 -0.6900  0.8619 -0.4089
    1SOL    MW4 7200   1.791   2.740   3.143 -0.0149  0.0613  0.3741
    1SOL     OW 7201   2.024   2.816   2.993  0.3034  0.2862  0.0051
    1SOL    HW2 7202   2.010   2.907   3.018 -2.0333  0.0891 -0.4725
    1SOL    HW3 7203   2.009   2.814   2.899  0.0526 -0.6373  0.0574
    1SOL    MW4 7204   2.020   2.828   2.984 -0.0381  0.1383 -0.0513
    1SOL     OW 7205   2.017   3.085   3.064  0.2281 -0.3511 -0.1345
    1SOL    HW2 7206   2.031   3.085   3.159 -1.2789  1.0002  0.0977
    1SOL    HW3 7207   1.949   3.150   3.050  0.2911 -0.7055 -2.1350
    1SOL    MW4 7208   2.010   3.093   3.075  0.0372 -0.2196 -0.3676
    1SOL     OW 7209   1.801   3.257   3.018 -0.0581 -0.0880 -0.6280
    1SOL    HW2 7210   1.735   3.193   3.047 -0.2375  0.7786  0.9425
    1SOL    HW3 7211   1.778   3.275   2.927 -2.7139  1.0165  0.2008
    1SOL    MW4 7212   1.789   3.251   3.010 -0.4321  0.1721 -0.3114
    1SOL     OW 7213   1.784   3.494   3.135  0.2835 -0.5137 -0.4921
    1SOL    HW2 7214   1.792   3.403   3.106 -1.5449 -1.2853  1.3202
    1SOL    HW3 7215   1.712   3.530   3.082  0.3765 -0.4088 -0.5471
    1SOL    MW4 7216   1.775   3.487   3.124  0.0546 -0.6018 -0.2601
    1SOL     OW 7217   1.997   3.606   2.981  0.3193 -0.3630 -0.2165
    1SOL    HW2 7218   1.993   3.687   3.033  1.4282  0.1085 -0.8215
    1SOL    HW3 7219   1.934   3.547   3.022 -1.0352  1.0684 -0.2045
    1SOL    MW4 7220   1.988   3.609   2.993  0.2868 -0.1121 -0.2949
    1SOL     OW 7221   2.031   3.876   3.123 -0.5088 -0.1595  0.0313
    1SOL    HW2 7222   2.026   3.899   3.216 -0.6214  2.9603 -0.7188
    1SOL    HW3 7223   1.956   3.921   3.083  0.5625 -0.0126 -1.8633
    1SOL    MW4 7224   2.020   3.885   3.130 -0.3824  0.2713 -0.3176
    1SOL     OW 7225   1.814   4.001   2.996 -0.3630  0.3559  0.3403
    1SOL    HW2 7226   1.810   4.090   3.031 -0.6425 -0.1422  1.5848
    1SOL    HW3 7227   1.812   4.013   2.901  1.1778  1.7671  0.4504
    1SOL    MW4 7228   1.813   4.015   2.988 -0.1966  0.4768  0.5188
    1SOL     OW 7229   1.777   4.257   3.090 -0.1096  0.0848 -0.0297
    1SOL    HW2 7230   1.841   4.303   3.036 -0.1204 -0.3290 -0.4001
    1SOL    HW3 7231   1.692   4.279   3.051 -0.1174 -0.2186 -0.1804
    1SOL    MW4 7232   1.774   4.266   3.078 -0.1121 -0.0095 -0.0982
    1SOL     OW 7233   1.962   4.405   2.971 -0.3252  0.2546 -0.3308
    1SOL    HW2 7234   1.995   4.487   3.010  1.0668 -0.1762 -0.5619
    1SOL    HW3 7235   2.007   4.399   2.887 -0.7711 -0.5220 -0.5189
    1SOL    MW4 7236   1.972   4.415   2.965 -0.2003  0.0954 -0.3862
    1SOL     OW 7237   2.437   4.617   3.095  0.2671  0.0467 -0.2729
    1SOL    HW2 7238   2.429   4.527   3.063  0.3808  0.1508 -0.5976
    1SOL    HW3 7239   2.366   4.665   3.052  0.8101  0.3259 -0.8675
    1SOL    MW4 7240   2.427   4.611   3.086  0.3541  0.0968 -0.3941
    1SOL     OW 7241   2.265   0.115   2.971  0.3959 -0.5037  0.3574
    1SOL    HW2 7242   2.276   0.205   3.003  1.5910 -0.5777  0.1830
    1SOL    HW3 7243   2.181   0.087   3.006  0.0929  0.6282  0.5576
    1SOL    MW4 7244   2.256   0.123   2.980  0.5133 -0.3641  0.3610
    1SOL     OW 7245   2.247   0.379   3.070  0.0701 -0.2905 -0.0790
    1SOL    HW2 7246   2.255   0.381   3.165  0.1991 -1.8198 -0.0563
    1SOL    HW3 7247   2.327   0.422   3.038 -0.0749  0.4101  0.5037
    1SOL    MW4 7248   2.259   0.385   3.078  0.0682 -0.3998  0.0007
    1SOL     OW 7249   2.483   0.513   2.997  0.0824  0.0204 -0.1395
    1SOL    HW2 7250   2.544   0.446   3.027 -0.5297 -0.0908  0.8795
    1SOL    HW3 7251   2.495   0.515   2.902 -1.0712 -2.7130 -0.3917
    1SOL    MW4 7252   2.493   0.504   2.988 -0.1502 -0.3549 -0.0381
    1SOL     OW 7253   2.460   0.777   3.117  0.0111 -0.1858 -0.3734
    1SOL    HW2 7254   2.541   0.823   3.093  0.9638 -1.5733  0.0644
    1SOL    HW3 7255   2.475   0.687   3.087 -0.6829 -0.8519  1.2104
    1SOL    MW4 7256   2.473   0.771   3.110  0.0453 -0.4568 -0.1068
    1SOL     OW 7257   2.230   0.922   3.041  0.2677 -0.8062 -0.5565
    1SOL    HW2 7258   2.307   0.874   3.073 -0.4309 -0.2876  1.9661
    1SOL    HW3 7259   2.156   0.866   3.065 -0.3300  0.0316 -0.4585
    1SOL    MW4 7260   2.230   0.908   3.048  0.0966 -0.6273 -0.2108
    1SOL     OW 7261   2.299   1.187   3.138 -0.0081  0.0172 -0.1683
    1SOL    HW2 7262   2.271   1.188   3.229  0.6625  0.3264  0.0411
    1SOL    HW3 7263   2.287   1.097   3.109  0.3102 -0.2036  0.3958
    1SOL    MW4 7264   2.294   1.176   3.146  0.1223  0.0288 -0.0660
    1SOL     OW 7265   2.506   1.321   3.011  0.1823  0.4053 -0.1826
    1SOL    HW2 7266   2.427   1.278   3.043  1.2482 -0.7306  0.9837
    1SOL    HW3 7267   2.498   1.317   2.915 -0.3198 -1.3338 -0.0869
    1SOL    MW4 7268   2.494   1.315   3.002  0.2568  0.0261 -0.0160
    1SOL     OW 7269   2.462   1.562   3.134  0.0474  0.6363  0.1335
    1SOL    HW2 7270   2.393   1.601   3.080 -1.1644 -0.9637  0.5036
    1SOL    HW3 7271   2.484   1.480   3.090  0.5759  0.3574  0.9114
    1SOL    MW4 7272   2.456   1.557   3.121 -0.0424  0.3886  0.2849
    1SOL     OW 7273   2.237   1.703   3.036  0.1998  0.0426 -0.4954
    1SOL    HW2 7274   2.165   1.643   3.056 -1.1773  2.0893  0.8335
    1SOL    HW3 7275   2.233   1.714   2.941 -1.5466  0.4976 -0.3863
    1SOL    MW4 7276   2.227   1.696   3.026 -0.2122  0.3726 -0.3059
    1SOL     OW 7277   2.220   1.967   3.151 -0.0299  0.4714 -0.1949
    1SOL    HW2 7278   2.302   2.009   3.123  0.0810 -0.3118 -1.0790
    1SOL    HW3 7279   2.226   1.878   3.116 -0.4528 -0.1506  1.2994
    1SOL    MW4 7280   2.232   1.961   3.142 -0.0710  0.2861 -0.1144
    1SOL     OW 7281   2.461   2.045   3.036  0.3564 -0.1522  0.1179
    1SOL    HW2 7282   2.535   1.986   3.052  0.5220  0.0207 -0.0101
    1SOL    HW3 7283   2.452   2.047   2.941  0.9102  0.7121  0.0723
    1SOL    MW4 7284   2.470   2.037   3.026  0.4516 -0.0153  0.0949
    1SOL     OW 7285   2.492   2.304   3.112  0.3119  0.5496 -0.1151
    1SOL    HW2 7286   2.500   2.294   3.207  1.4069  0.7710 -0.1803
    1SOL    HW3 7287   2.488   2.215   3.079 -2.4080  0.4541  0.3048
    1SOL    MW4 7288   2.492   2.291   3.120  0.0975  0.5660 -0.0682
    1SOL     OW 7289   2.246   2.429   3.031  0.0735 -0.2710  0.2592
    1SOL    HW2 7290   2.259   2.519   3.062  0.6026  0.5157 -2.1629
    1SOL    HW3 7291   2.327   2.384   3.056 -1.0800 -0.7321  3.4953
    1SOL    MW4 7292   2.259   2.435   3.039 -0.0088 -0.2277  0.3664
    1SOL     OW 7293   2.261   2.706   3.099  0.5015  0.4431 -0.2805
    1SOL    HW2 7294   2.332   2.769   3.086 -0.2642  0.9606 -2.0979
    1SOL    HW3 7295   2.191   2.735   3.040 -0.3207 -1.4257 -0.2741
    1SOL    MW4 7296   2.261   2.718   3.090  0.2921  0.2646 -0.5195
    1SOL     OW 7297   2.488   2.867   2.988 -0.5263  0.1916  0.1077
    1SOL    HW2 7298   2.475   2.953   3.028  0.4524  0.1147  0.5973
    1SOL    HW3 7299   2.490   2.884   2.894  0.0924  0.7587  0.2257
    1SOL    MW4 7300   2.486   2.881   2.981 -0.3154  0.2563  0.1879
    1SOL     OW 7301   2.477   3.119   3.086 -0.1133  0.1017  0.0619
    1SOL    HW2 7302   2.560   3.148   3.048  0.1533 -1.7951 -0.8684
    1SOL    HW3 7303   2.410   3.171   3.043  0.3837 -0.3578 -1.2834
    1SOL    MW4 7304   2.480   3.129   3.075 -0.0124 -0.2093 -0.2384
    1SOL     OW 7305   2.262   3.237   2.943  0.2010 -0.4731  0.1776
    1SOL    HW2 7306   2.262   3.323   2.985  0.2489  0.3613 -1.4709
    1SOL    HW3 7307   2.189   3.190   2.984 -1.4770  1.2834 -0.7353
    1SOL    MW4 7308   2.252   3.242   2.954 -0.0143 -0.1311 -0.1605
    1SOL     OW 7309   2.226   3.485   3.068 -0.1158 -0.1425  0.0830
    1SOL    HW2 7310   2.288   3.553   3.042 -0.4141  0.2586  0.4217
    1SOL    HW3 7311   2.140   3.519   3.044 -0.3447 -0.0074  1.0596
    1SOL    MW4 7312   2.223   3.498   3.061 -0.1855 -0.0720  0.2563
    1SOL     OW 7313   2.428   3.617   2.949  0.0511 -0.4921  0.5446
    1SOL    HW2 7314   2.499   3.563   2.985 -0.1492 -0.2957  1.2428
    1SOL    HW3 7315   2.439   3.702   2.991  0.6825  0.1763 -0.9548
    1SOL    MW4 7316   2.439   3.621   2.960  0.1078 -0.3781  0.4387
    1SOL     OW 7317   2.470   3.855   3.109 -0.1846 -0.1079 -0.0982
    1SOL    HW2 7318   2.492   3.851   3.202  0.1550 -1.0882 -0.2162
    1SOL    HW3 7319   2.547   3.892   3.067 -0.3147  0.2770 -0.0024
    1SOL    MW4 7320   2.483   3.859   3.116 -0.1571 -0.1862 -0.1013
    1SOL     OW 7321   2.233   3.983   2.983 -0.2134 -0.0262  0.1048
    1SOL    HW2 7322   2.300   3.925   3.019  0.1142  1.1712  1.4553
    1SOL    HW3 7323   2.150   3.947   3.016 -0.1590 -0.8730 -0.6794
    1SOL    MW4 7324   2.231   3.971   2.992 -0.1628  0.0200  0.1795
    1SOL     OW 7325   2.200   4.238   3.096  0.3838  0.2371  0.4724
    1SOL    HW2 7326   2.203   4.158   3.043 -1.0798  1.3356 -1.3298
    1SOL    HW3 7327   2.107   4.263   3.094  1.1959  3.2915 -1.0184
    1SOL    MW4 7328   2.188   4.231   3.089  0.2978  0.7849  0.0381
    1SOL     OW 7329   2.434   4.359   2.995  0.1674 -0.2400  0.0488
    1SOL    HW2 7330   2.357   4.310   3.023 -0.5913  1.0866  0.3233
    1SOL    HW3 7331   2.434   4.353   2.900 -0.6315  0.2624  0.0092
    1SOL    MW4 7332   2.424   4.352   2.986 -0.0381  0.0014  0.0799
    1SOL     OW 7333   2.878   4.584   3.107 -0.2786  0.1540 -0.0046
    1SOL    HW2 7334   2.947   4.642   3.075  0.9595 -1.0799  0.3829
    1SOL    HW3 7335   2.890   4.503   3.058 -1.2489 -0.1924  0.3115
    1SOL    MW4 7336   2.888   4.581   3.096 -0.2432 -0.0544  0.0882
    1SOL     OW 7337   2.672   0.075   3.026  0.1200  0.2314 -0.2508
    1SOL    HW2 7338   2.738   0.013   3.057  0.4413 -0.0491 -1.4896
    1SOL    HW3 7339   2.588   0.034   3.050  0.3700  0.1942  0.5729
    1SOL    MW4 7340   2.669   0.061   3.033  0.1953  0.1895 -0.3054
    1SOL     OW 7341   2.688   0.335   3.106 -0.2184 -0.2307  0.2702
    1SOL    HW2 7342   2.689   0.243   3.081 -1.3814 -0.2505  0.2860
    1SOL    HW3 7343   2.682   0.334   3.202  1.1243 -0.1368  0.3665
    1SOL    MW4 7344   2.688   0.323   3.116 -0.1948 -0.2209  0.2847
    1SOL     OW 7345   2.910   0.484   3.025  0.3774  0.3064 -0.1725
    1SOL    HW2 7346   2.836   0.428   3.051  0.0091  1.0251  0.3373
    1SOL    HW3 7347   2.896   0.500   2.931  0.2543 -0.1086 -0.2278
    1SOL    MW4 7348   2.898   0.479   3.016  0.3126  0.3465 -0.1123
    1SOL     OW 7349   2.921   0.738   3.107 -0.1145 -0.3056  0.1033
    1SOL    HW2 7350   2.904   0.751   3.201 -0.5919 -1.2104  0.1474
    1SOL    HW3 7351   2.920   0.643   3.096  0.9633 -0.2375 -0.6344
    1SOL    MW4 7352   2.919   0.727   3.118 -0.0355 -0.4160  0.0119
    1SOL     OW 7353   2.717   0.899   2.999  0.4065  0.3951  0.0766
    1SOL    HW2 7354   2.737   0.983   3.042  1.8946  0.6464 -1.0688
    1SOL    HW3 7355   2.780   0.838   3.036 -0.1930 -0.0609  0.3594
    1SOL    MW4 7356   2.728   0.902   3.010  0.5238  0.3681 -0.0372
    1SOL     OW 7357   2.731   1.168   3.105  0.2776 -0.1825 -0.0663
    1SOL    HW2 7358   2.815   1.199   3.072  0.1308  0.9275  0.5786
    1SOL    HW3 7359   2.668   1.233   3.074 -0.0369  0.1509  1.2645
    1SOL    MW4 7360   2.734   1.181   3.097  0.2167  0.0081  0.1945
    1SOL     OW 7361   2.965   1.273   3.002  0.4818  0.2771 -0.0079
    1SOL    HW2 7362   3.036   1.220   3.038  1.4993  1.1399 -0.7390
    1SOL    HW3 7363   2.958   1.348   3.061  0.3005  0.2933 -0.0479
    1SOL    MW4 7364   2.973   1.276   3.015  0.5922  0.3932 -0.1094
    1SOL     OW 7365   2.942   1.530   3.113 -0.2797 -0.2170 -0.2606
    1SOL    HW2 7366   2.952   1.533   3.208  0.6174 -2.4398 -0.2589
    1SOL    HW3 7367   3.012   1.586   3.079  0.3485 -0.6467  0.3352
    1SOL    MW4 7368   2.953   1.538   3.121 -0.0784 -0.5671 -0.1817
    1SOL     OW 7369   2.720   1.662   3.019 -0.2489  0.2954 -0.3841
    1SOL    HW2 7370   2.801   1.618   3.044 -0.0577  1.1379  0.4870
    1SOL    HW3 7371   2.651   1.615   3.065 -0.3981 -1.1802 -2.0587
    1SOL    MW4 7372   2.721   1.650   3.028 -0.2437  0.2118 -0.4902
    1SOL     OW 7373   2.690   1.925   3.105 -0.3026 -0.0560  0.7674
    1SOL    HW2 7374   2.763   1.983   3.081 -2.1666  1.0933 -2.3323
    1SOL    HW3 7375   2.712   1.841   3.066 -0.7167  0.3473 -0.3505
    1SOL    MW4 7376   2.703   1.922   3.097 -0.6032  0.1488  0.2108
    1SOL     OW 7377   2.907   2.074   2.995  0.5943 -0.2231 -0.2191
    1SOL    HW2 7378   2.922   2.165   3.022  0.5464 -0.2676 -0.0416
    1SOL    HW3 7379   2.880   2.080   2.904 -0.6882  0.0436  0.1689
    1SOL    MW4 7380   2.905   2.087   2.987  0.4184 -0.1938 -0.1445
    1SOL     OW 7381   2.918   2.325   3.123  0.5100 -0.4551 -0.0987
    1SOL    HW2 7382   2.989   2.370   3.078  0.1410  0.0187 -0.1987
    1SOL    HW3 7383   2.842   2.380   3.111  0.5249 -0.0263  1.5740
    1SOL    MW4 7384   2.918   2.338   3.116  0.4632 -0.3362  0.1087
    1SOL     OW 7385   2.692   2.474   3.035  0.1645  0.0930 -0.4945
    1SOL    HW2 7386   2.668   2.563   3.058 -0.8779 -0.7165  1.6910
    1SOL    HW3 7387   2.623   2.420   3.072  1.8644 -1.7856  0.0619
    1SOL    MW4 7388   2.680   2.478   3.043  0.2513 -0.2615 -0.1326
    1SOL     OW 7389   2.645   2.720   3.152  0.3983  0.2753 -0.1251
    1SOL    HW2 7390   2.647   2.756   3.241 -0.5521  1.9819 -0.7605
    1SOL    HW3 7391   2.582   2.775   3.106  1.2819 -0.2514 -2.0034
    1SOL    MW4 7392   2.637   2.732   3.158  0.3896  0.4311 -0.4570
    1SOL     OW 7393   2.875   2.815   3.019 -0.0404 -0.0239  0.0893
    1SOL    HW2 7394   2.943   2.752   3.043 -0.1434 -0.2798 -0.2904
    1SOL    HW3 7395   2.796   2.784   3.064 -0.9326 -2.1051 -2.7606
    1SOL    MW4 7396   2.873   2.803   3.028 -0.1717 -0.3321 -0.3369
    1SOL     OW 7397   2.934   3.077   3.135  0.2255 -0.2651  0.0189
    1SOL    HW2 7398   2.862   3.136   3.113  0.7023  0.9763  1.7118
    1SOL    HW3 7399   2.912   2.995   3.090 -0.3343  1.2444 -2.5451
    1SOL    MW4 7400   2.921   3.074   3.126  0.2143  0.0978 -0.0958
    1SOL     OW 7401   2.725   3.240   3.009 -0.2498 -0.4771 -0.2805
    1SOL    HW2 7402   2.732   3.328   3.048  0.0732 -1.0740  1.0288
    1SOL    HW3 7403   2.706   3.257   2.917  0.8465  0.9986 -0.2698
    1SOL    MW4 7404   2.724   3.254   3.002 -0.0622 -0.3610 -0.1063
    1SOL     OW 7405   2.655   3.506   3.094  0.3357 -0.4232  0.2893
    1SOL    HW2 7406   2.678   3.493   3.186  0.2410 -0.0941  0.3585
    1SOL    HW3 7407   2.726   3.560   3.059  0.8067 -1.2403 -0.0365
    1SOL    MW4 7408   2.668   3.511   3.101  0.3853 -0.4878  0.2553
    1SOL     OW 7409   2.885   3.604   2.978  0.4663 -0.3404 -0.3896
    1SOL    HW2 7410   2.960   3.550   3.004  0.4544  0.4901  1.3812
    1SOL    HW3 7411   2.903   3.690   3.015 -1.2303 -0.0511 -0.2185
    1SOL    MW4 7412   2.897   3.608   2.986  0.2408 -0.1926 -0.1335
    1SOL     OW 7413   2.916   3.838   3.112  0.0201  0.2068 -0.0702
    1SOL    HW2 7414   2.904   3.854   3.206  1.4361 -0.2465  0.1980
    1SOL    HW3 7415   2.843   3.884   3.070  0.4268  1.9871  1.1298
    1SOL    MW4 7416   2.904   3.847   3.119  0.2604  0.3819  0.1233
    1SOL     OW 7417   2.706   3.989   3.010  0.0273 -0.7299 -0.2497
    1SOL    HW2 7418   2.686   4.082   3.020 -0.3741 -0.8199 -0.2086
    1SOL    HW3 7419   2.703   3.974   2.915 -0.9937 -0.9381 -0.1888
    1SOL    MW4 7420   2.703   3.999   2.998 -0.1602 -0.7691 -0.2360
    1SOL     OW 7421   2.677   4.261   3.102 -1.0813 -0.0899  0.2429
    1SOL    HW2 7422   2.664   4.236   3.194 -0.4231  1.0253  0.6539
    1SOL    HW3 7423   2.592   4.296   3.075 -0.8060  1.1465  0.9471
    1SOL    MW4 7424   2.664   4.262   3.111 -0.9580  0.2203  0.3901
    1SOL     OW 7425   2.904   4.348   2.982  0.2779  0.0552 -0.2552
    1SOL    HW2 7426   2.974   4.299   3.026  1.6483  0.6309 -1.7414
    1SOL    HW3 7427   2.824   4.318   3.024  1.4081 -0.6208  1.4990
    1SOL    MW4 7428   2.903   4.338   2.993  0.6080  0.0420 -0.2201
    1SOL     OW 7429   3.303   0.004   3.097 -0.4893 -0.4694  0.0977
    1SOL    HW2 7430   3.385   0.048   3.075 -0.7038 -0.4554 -0.6877
    1SOL    HW3 7431   3.316  -0.086   3.067 -1.0916 -0.2483 -0.8493
    1SOL    MW4 7432   3.315  -0.002   3.090 -0.5968 -0.4382 -0.1309
    1SOL     OW 7433   3.081   0.130   3.010 -0.1542  0.2234 -0.2214
    1SOL    HW2 7434   3.092   0.215   3.052 -0.8946 -0.4654  1.3881
    1SOL    HW3 7435   3.151   0.076   3.046 -0.0917 -0.0472 -0.7427
    1SOL    MW4 7436   3.091   0.134   3.020 -0.2437  0.0968 -0.0782
    1SOL     OW 7437   3.128   0.390   3.142 -0.1953 -0.2095  0.5014
    1SOL    HW2 7438   3.192   0.440   3.092 -0.6177  0.9727  1.1166
    1SOL    HW3 7439   3.043   0.416   3.105 -0.5206  0.7751  1.8955
    1SOL    MW4 7440   3.125   0.400   3.131 -0.2942  0.0764  0.7663
    1SOL     OW 7441   3.343   0.489   2.984 -0.2004  0.1651  0.6188
    1SOL    HW2 7442   3.430   0.470   3.017  0.2600 -0.5362 -0.9362
    1SOL    HW3 7443   3.354   0.496   2.889 -2.0217 -1.1111  0.2725
    1SOL    MW4 7444   3.356   0.488   2.975 -0.3800 -0.0958  0.3676
    1SOL     OW 7445   3.396   0.735   3.084  0.4546 -0.5841  0.6799
    1SOL    HW2 7446   3.392   0.726   3.179 -0.2382  0.6159  0.7764
    1SOL    HW3 7447   3.368   0.649   3.051 -0.9930 -0.4777  1.5590
    1SOL    MW4 7448   3.392   0.722   3.092  0.1721 -0.4117  0.8085
    1SOL     OW 7449   3.144   0.859   3.022  0.1509 -0.4245  0.4052
    1SOL    HW2 7450   3.216   0.818   3.071 -0.1653 -0.4380  0.8652
    1SOL    HW3 7451   3.067   0.808   3.046  0.2753 -1.5447 -1.4975
    1SOL    MW4 7452   3.144   0.847   3.032  0.1256 -0.5741  0.2146
    1SOL     OW 7453   3.150   1.119   3.113  0.1126 -0.5805 -0.4661
    1SOL    HW2 7454   3.225   1.171   3.086  2.1493 -1.8466  2.4762
    1SOL    HW3 7455   3.162   1.034   3.070  0.2961 -0.7545 -0.0679
    1SOL    MW4 7456   3.161   1.115   3.104  0.4053 -0.7706 -0.0255
    1SOL     OW 7457   3.362   1.274   3.028 -0.2596  0.2178 -0.2313
    1SOL    HW2 7458   3.432   1.223   3.069  0.3312  0.6666 -0.6629
    1SOL    HW3 7459   3.365   1.359   3.073 -0.2786  0.3671 -0.5122
    1SOL    MW4 7460   3.372   1.279   3.039 -0.1841  0.2968 -0.3252
    1SOL     OW 7461   3.389   1.550   3.123  0.7822 -0.1398  0.0896
    1SOL    HW2 7462   3.392   1.559   3.218  0.3349  0.3079  0.0590
    1SOL    HW3 7463   3.474   1.584   3.093  1.6200 -1.8155  0.4465
    1SOL    MW4 7464   3.401   1.556   3.132  0.8335 -0.3017  0.1328
    1SOL     OW 7465   3.174   1.674   2.987  0.4869  0.6656 -0.2807
    1SOL    HW2 7466   3.248   1.632   3.031  0.9125  1.4476 -0.2296
    1SOL    HW3 7467   3.169   1.761   3.027 -0.4701  0.6126 -0.2832
    1SOL    MW4 7468   3.183   1.680   2.998  0.4170  0.7617 -0.2742
    1SOL     OW 7469   3.160   1.954   3.059 -0.6523 -0.1806 -0.7709
    1SOL    HW2 7470   3.159   1.958   3.154 -0.1830 -0.6858 -0.7393
    1SOL    HW3 7471   3.082   2.001   3.032 -0.4599  0.4940 -0.1565
    1SOL    MW4 7472   3.150   1.961   3.068 -0.5653 -0.1582 -0.6855
    1SOL     OW 7473   3.403   2.068   3.001  0.0960  0.3347 -0.0148
    1SOL    HW2 7474   3.468   2.005   3.032  0.3685  0.7701  0.3095
    1SOL    HW3 7475   3.319   2.029   3.024  0.2016 -0.7684 -1.4591
    1SOL    MW4 7476   3.401   2.054   3.008  0.1459  0.2468 -0.1624
    1SOL     OW 7477   3.360   2.315   3.119 -0.3153  0.2733  0.1887
    1SOL    HW2 7478   3.345   2.319   3.213 -1.0300  0.5742  0.0710
    1SOL    HW3 7479   3.374   2.223   3.099 -0.7498  0.1411  0.5054
    1SOL    MW4 7480   3.360   2.304   3.128 -0.4671  0.2954  0.2148
    1SOL     OW 7481   3.130   2.449   2.999 -0.4051  0.4299 -0.1479
    1SOL    HW2 7482   3.212   2.408   3.025 -0.7770  0.2022  0.6686
    1SOL    HW3 7483   3.132   2.535   3.040 -0.1307  0.8190 -0.9510
    1SOL    MW4 7484   3.141   2.455   3.008 -0.4179  0.4511 -0.1462
    1SOL     OW 7485   3.103   2.681   3.116  0.1978  0.0054  0.1232
    1SOL    HW2 7486   3.185   2.720   3.086 -0.6554 -0.0802 -2.4631
    1SOL    HW3 7487   3.109   2.683   3.211  2.2260  2.0671  0.0060
    1SOL    MW4 7488   3.114   2.687   3.124  0.3526  0.2661 -0.2337
    1SOL     OW 7489   3.341   2.814   3.051 -0.2433  0.0674  0.0225
    1SOL    HW2 7490   3.421   2.769   3.079  0.0465 -0.4284 -1.5096
    1SOL    HW3 7491   3.358   2.906   3.072  0.2150 -0.1988  0.8555
    1SOL    MW4 7492   3.354   2.820   3.057 -0.1447 -0.0331 -0.0696
    1SOL     OW 7493   3.365   3.081   3.098 -0.0213  0.1979  0.0812
    1SOL    HW2 7494   3.277   3.111   3.075 -0.5428 -0.8932  0.5925
    1SOL    HW3 7495   3.374   3.104   3.191  0.2840  0.4290 -0.0056
    1SOL    MW4 7496   3.354   3.088   3.108 -0.0498  0.0842  0.1373
    1SOL     OW 7497   3.142   3.213   3.002 -0.5119 -0.4528 -0.0513
    1SOL    HW2 7498   3.076   3.161   3.047 -1.5331  0.4896 -0.4273
    1SOL    HW3 7499   3.123   3.201   2.909 -0.3146  0.0435 -0.1564
    1SOL    MW4 7500   3.131   3.205   2.996 -0.6204 -0.2630 -0.1144
    1SOL     OW 7501   3.117   3.493   3.063 -0.1613 -0.3524  0.1619
    1SOL    HW2 7502   3.196   3.533   3.026  0.0052 -0.5595  0.2898
    1SOL    HW3 7503   3.127   3.399   3.045 -1.3810 -0.1530 -1.6876
    1SOL    MW4 7504   3.129   3.486   3.055 -0.3002 -0.3536 -0.0651
    1SOL     OW 7505   3.351   3.614   2.967 -0.2346  0.2723  0.0470
    1SOL    HW2 7506   3.400   3.551   3.020  0.0533  1.8587  1.7088
    1SOL    HW3 7507   3.359   3.697   3.014 -3.1518  0.9215 -0.4748
    1SOL    MW4 7508   3.358   3.617   2.980 -0.5815  0.5674  0.1972
    1SOL     OW 7509   3.355   3.848   3.128  0.6601  0.2540 -0.1470
    1SOL    HW2 7510   3.369   3.862   3.222  1.3390 -0.9347 -0.0582
    1SOL    HW3 7511   3.279   3.903   3.106 -0.8116 -1.0369  1.5414
    1SOL    MW4 7512   3.347   3.857   3.137  0.5555 -0.0732  0.0875
    1SOL     OW 7513   3.139   3.988   3.046  0.2774 -0.3735  0.0986
    1SOL    HW2 7514   3.054   3.943   3.050  0.3851 -0.6843 -0.8408
    1SOL    HW3 7515   3.158   3.994   2.952  0.9412  0.3698  0.2732
    1SOL    MW4 7516   3.130   3.983   3.034  0.3791 -0.3166 -0.0021
    1SOL     OW 7517   3.133   4.262   3.123 -0.5294  0.0486 -0.1960
    1SOL    HW2 7518   3.144   4.269   3.218 -1.8481  2.0926 -0.1610
    1SOL    HW3 7519   3.148   4.170   3.103  0.2017 -0.3030  1.9424
    1SOL    MW4 7520   3.136   4.251   3.133 -0.6070  0.2713  0.0908
    1SOL     OW 7521   3.345   4.408   3.022  0.6285 -0.0070 -0.0263
    1SOL    HW2 7522   3.416   4.379   3.079  1.0051  0.4506 -0.2594
    1SOL    HW3 7523   3.267   4.365   3.057  1.3484 -2.2032 -1.0440
    1SOL    MW4 7524   3.344   4.398   3.034  0.7730 -0.2356 -0.1912
    1SOL     OW 7525   3.741   4.651   3.157  0.1883  0.0314  0.3057
    1SOL    HW2 7526   3.750   4.574   3.100  0.0344  0.9146 -0.9152
    1SOL    HW3 7527   3.687   4.712   3.107  0.7997  1.1734  1.0347
    1SOL    MW4 7528   3.735   4.649   3.143  0.2487  0.2985  0.2408
    1SOL     OW 7529   3.523   0.143   3.040 -0.2457  0.4255 -0.2655
    1SOL    HW2 7530   3.545   0.230   3.074  0.8550  0.1165 -0.1494
    1SOL    HW3 7531   3.542   0.149   2.946 -0.1057  0.2988 -0.2463
    1SOL    MW4 7532   3.529   0.156   3.032 -0.0820  0.3680 -0.2477
    1SOL     OW 7533   3.563   0.384   3.133  0.3437  0.2227  0.3468
    1SOL    HW2 7534   3.547   0.397   3.227 -0.3853  2.4186 -0.0470
    1SOL    HW3 7535   3.655   0.403   3.121  0.6737 -1.0609  0.7677
    1SOL    MW4 7536   3.573   0.388   3.144  0.2909  0.3430  0.3507
    1SOL     OW 7537   3.814   0.505   3.035  0.1029  0.0408 -0.0164
    1SOL    HW2 7538   3.888   0.455   3.070 -0.6011 -0.7474  0.3662
    1SOL    HW3 7539   3.836   0.596   3.055  1.7716 -0.0154 -1.4365
    1SOL    MW4 7540   3.827   0.510   3.043  0.2303 -0.0706 -0.1531
    1SOL     OW 7541   3.830   0.778   3.115 -0.2773  0.0014  0.0377
    1SOL    HW2 7542   3.831   0.762   3.209  1.6882  0.7540  0.1660
    1SOL    HW3 7543   3.918   0.810   3.095 -1.9245  3.9134 -1.3454
    1SOL    MW4 7544   3.842   0.780   3.124 -0.2356  0.6168 -0.1280
    1SOL     OW 7545   3.600   0.865   2.963 -0.6944 -0.4175 -0.1757
    1SOL    HW2 7546   3.678   0.832   3.007 -0.5441  0.0610 -0.0811
    1SOL    HW3 7547   3.527   0.821   3.008 -0.4591 -1.2418 -0.5985
    1SOL    MW4 7548   3.600   0.855   2.975 -0.6435 -0.4631 -0.2189
    1SOL     OW 7549   3.573   1.105   3.103  0.0777  0.5874  0.0906
    1SOL    HW2 7550   3.655   1.156   3.104 -0.4230  1.4729 -1.7828
    1SOL    HW3 7551   3.596   1.025   3.055  0.4782 -0.3340  1.7648
    1SOL    MW4 7552   3.587   1.101   3.097  0.0646  0.5827  0.0644
    1SOL     OW 7553   3.805   1.253   3.040  0.1962 -0.1183 -0.0379
    1SOL    HW2 7554   3.806   1.344   3.070 -1.1617 -0.4064  0.9939
    1SOL    HW3 7555   3.818   1.258   2.946 -2.3514  1.3559 -0.3797
    1SOL    MW4 7556   3.807   1.266   3.032 -0.3192  0.0381  0.0532
    1SOL     OW 7557   3.843   1.504   3.124 -0.3271  0.0738  0.2220
    1SOL    HW2 7558   3.829   1.523   3.217  0.3387  0.2603  0.2853
    1SOL    HW3 7559   3.770   1.548   3.080 -0.7906 -0.2279  0.6711
    1SOL    MW4 7560   3.831   1.512   3.130 -0.3004  0.0587  0.2894
    1SOL     OW 7561   3.629   1.640   3.014 -0.3132  0.6026 -0.5767
    1SOL    HW2 7562   3.634   1.727   3.052 -0.4886 -0.0279  0.9050
    1SOL    HW3 7563   3.623   1.656   2.919 -2.0921  2.2458 -0.2152
    1SOL    MW4 7564   3.629   1.653   3.006 -0.5710  0.7362 -0.3335
    1SOL     OW 7565   3.579   1.888   3.129  0.0157  0.1102 -0.0354
    1SOL    HW2 7566   3.567   1.913   3.220  0.5352 -0.1849  0.1151
    1SOL    HW3 7567   3.652   1.942   3.099 -0.0147  0.0519 -0.2161
    1SOL    MW4 7568   3.587   1.899   3.137  0.0803  0.0635 -0.0396
    1SOL     OW 7569   3.803   2.045   3.029  0.1988 -0.4187  0.4060
    1SOL    HW2 7570   3.798   2.135   3.060  0.3427 -0.1197 -0.4233
    1SOL    HW3 7571   3.788   2.052   2.934 -1.3775 -1.4266  0.5719
    1SOL    MW4 7572   3.801   2.058   3.020  0.0098 -0.5121  0.3185
    1SOL     OW 7573   3.795   2.305   3.135 -0.1803  0.2390  0.0988
    1SOL    HW2 7574   3.769   2.310   3.227  0.9063  3.6747  0.2954
    1SOL    HW3 7575   3.722   2.344   3.087  0.2119  0.4510 -0.3211
    1SOL    MW4 7576   3.782   2.310   3.141  0.0148  0.7200  0.0694
    1SOL     OW 7577   3.595   2.444   3.025 -0.2860  0.1818 -0.7167
    1SOL    HW2 7578   3.585   2.534   3.057 -3.3936  0.2717 -1.7464
    1SOL    HW3 7579   3.521   2.397   3.064  0.8136 -1.7358 -0.8855
    1SOL    MW4 7580   3.584   2.450   3.034 -0.5510 -0.0591 -0.8748
    1SOL     OW 7581   3.582   2.696   3.124  0.5576 -0.0431 -0.1723
    1SOL    HW2 7582   3.576   2.689   3.219 -1.5975  1.4636 -0.1715
    1SOL    HW3 7583   3.661   2.749   3.108  0.8147 -0.1417  0.7707
    1SOL    MW4 7584   3.592   2.702   3.134  0.3073  0.1426 -0.0477
    1SOL     OW 7585   3.795   2.813   3.020 -0.3934  0.1945  0.1642
    1SOL    HW2 7586   3.801   2.907   3.040 -2.3766  0.2338  0.7444
    1SOL    HW3 7587   3.802   2.808   2.925  0.2901  0.8848  0.1779
    1SOL    MW4 7588   3.797   2.825   3.010 -0.5648  0.2906  0.2425
    1SOL     OW 7589   3.827   3.071   3.100  0.1153 -0.3681 -0.1312
    1SOL    HW2 7590   3.907   3.122   3.091 -0.8304  1.2730  0.4783
    1SOL    HW3 7591   3.759   3.125   3.060 -1.0331 -0.8274  1.1564
    1SOL    MW4 7592   3.829   3.085   3.094 -0.1607 -0.2122  0.1194
    1SOL     OW 7593   3.597   3.219   2.998  0.3676 -0.0152 -0.3359
    1SOL    HW2 7594   3.523   3.162   3.022  0.9899 -0.8527 -0.3966
    1SOL    HW3 7595   3.597   3.218   2.903 -0.2358  0.8941 -0.3514
    1SOL    MW4 7596   3.587   3.211   2.989  0.3703 -0.0057 -0.3459
    1SOL     OW 7597   3.529   3.474   3.103 -0.1917 -0.1365 -0.4188
    1SOL    HW2 7598   3.612   3.515   3.078  1.0864 -1.1712  1.9796
    1SOL    HW3 7599   3.536   3.384   3.071 -0.3979 -0.2101 -0.2563
    1SOL    MW4 7600   3.541   3.467   3.096 -0.0501 -0.2825 -0.0811
    1SOL     OW 7601   3.753   3.615   3.007 -0.1297  0.3771  0.2901
    1SOL    HW2 7602   3.743   3.710   3.016  1.5789  0.5168  0.8513
    1SOL    HW3 7603   3.762   3.600   2.913  1.1530  0.9504  0.3058
    1SOL    MW4 7604   3.753   3.626   2.996  0.2649  0.4711  0.3662
    1SOL     OW 7605   3.822   3.894   3.074  0.0629 -0.4029  0.0795
    1SOL    HW2 7606   3.824   3.875   3.168 -1.2809  0.0308  0.2016
    1SOL    HW3 7607   3.744   3.947   3.062  0.5540  0.0387 -1.2032
    1SOL    MW4 7608   3.812   3.898   3.085 -0.0498 -0.2875 -0.0734
    1SOL     OW 7609   3.565   4.017   3.037 -0.6522 -0.1492  0.2590
    1SOL    HW2 7610   3.479   3.977   3.052  0.2812 -3.0306 -1.7803
    1SOL    HW3 7611   3.572   4.022   2.942 -0.1199  3.6754  0.4138
    1SOL    MW4 7612   3.554   4.013   3.026 -0.4587 -0.0253  0.0100
    1SOL     OW 7613   3.571   4.283   3.124 -0.3825  0.3226  0.2774
    1SOL    HW2 7614   3.654   4.320   3.094 -1.0498  0.2539 -1.7903
    1SOL    HW3 7615   3.571   4.194   3.088 -0.8580 -0.0490  1.2000
    1SOL    MW4 7616   3.582   4.276   3.115 -0.5333  0.2642  0.1264
    1SOL     OW 7617   3.793   4.409   3.014 -0.2154 -0.0488  0.2503
    1SOL    HW2 7618   3.873   4.373   3.052 -1.1114 -2.9550 -0.4457
    1SOL    HW3 7619   3.810   4.415   2.920 -1.0868 -1.5416 -0.0225
    1SOL    MW4 7620   3.806   4.405   3.007 -0.4487 -0.6289  0.1223
    1SOL     OW 7621   4.224   0.005   3.104  0.4592  0.0163  0.0876
    1SOL    HW2 7622   4.250  -0.012   3.195 -0.1260 -0.5186  0.1612
    1SOL    HW3 7623   4.232  -0.080   3.061 -1.7973 -0.3392  0.2737
    1SOL    MW4 7624   4.228  -0.009   3.110  0.0849 -0.1011  0.1218
    1SOL     OW 7625   3.977   0.108   3.066  0.2818 -0.3695 -0.1087
    1SOL    HW2 7626   4.061   0.064   3.077  0.3811 -0.0949  0.2221
    1SOL    HW3 7627   3.914   0.052   3.112 -0.0150 -1.5312 -1.8874
    1SOL    MW4 7628   3.980   0.095   3.074  0.2556 -0.4865 -0.2995
    1SOL     OW 7629   4.014   0.372   3.154 -0.1887 -0.2989 -0.3997
    1SOL    HW2 7630   4.095   0.405   3.116  0.3408 -0.3391  0.6592
    1SOL    HW3 7631   4.015   0.278   3.135  0.4618 -0.4585  0.3756
    1SOL    MW4 7632   4.025   0.364   3.147 -0.0329 -0.3252 -0.1578
    1SOL     OW 7633   4.254   0.479   3.060 -0.2842  0.0166 -0.2198
    1SOL    HW2 7634   4.266   0.566   3.099  0.8100  0.0432 -0.6257
    1SOL    HW3 7635   4.254   0.495   2.966 -0.7491 -0.3426 -0.2828
    1SOL    MW4 7636   4.255   0.493   3.053 -0.2017 -0.0273 -0.2818
    1SOL     OW 7637   4.287   0.728   3.162  0.1169  0.2983 -0.0213
    1SOL    HW2 7638   4.222   0.787   3.125  0.5927  1.3153  0.7264
    1SOL    HW3 7639   4.371   0.770   3.143  0.3612  1.1565  2.6434
    1SOL    MW4 7640   4.289   0.742   3.155  0.2122  0.5457  0.4289
    1SOL     OW 7641   4.079   0.866   3.032 -0.0849  0.1663  0.2970
    1SOL    HW2 7642   4.088   0.956   3.065  0.1078  0.1917  0.1795
    1SOL    HW3 7643   4.084   0.876   2.937  2.6113 -0.2459  0.3470
    1SOL    MW4 7644   4.081   0.879   3.024  0.2961  0.1152  0.2880
    1SOL     OW 7645   4.057   1.130   3.110 -0.1235  0.0059 -0.8718
    1SOL    HW2 7646   4.050   1.138   3.205  1.8381 -1.2254 -0.5822
    1SOL    HW3 7647   3.978   1.172   3.076 -0.9528  0.2727  1.3019
    1SOL    MW4 7648   4.046   1.137   3.118  0.0257 -0.1212 -0.5469
    1SOL     OW 7649   4.294   1.245   3.058  0.0396 -0.3793 -0.2419
    1SOL    HW2 7650   4.223   1.187   3.087 -0.3885  0.2041 -0.1217
    1SOL    HW3 7651   4.281   1.253   2.963  0.3138 -0.7673 -0.3133
    1SOL    MW4 7652   4.283   1.238   3.049  0.0196 -0.3536 -0.2353
    1SOL     OW 7653   4.307   1.521   3.146 -0.0470 -0.0430 -0.1533
    1SOL    HW2 7654   4.226   1.544   3.101  0.1202  0.5050 -0.1797
    1SOL    HW3 7655   4.323   1.430   3.121 -0.1663  0.1317 -0.8961
    1SOL    MW4 7656   4.298   1.512   3.137 -0.0401  0.0521 -0.2546
    1SOL     OW 7657   4.078   1.629   3.037  0.0435  0.0741  0.2390
    1SOL    HW2 7658   4.068   1.714   3.079  0.0030  0.9525 -1.5102
    1SOL    HW3 7659   3.996   1.584   3.053 -1.0074  1.4388 -1.1640
    1SOL    MW4 7660   4.066   1.634   3.045 -0.1011  0.3700 -0.1767
    1SOL     OW 7661   4.027   1.894   3.154 -0.0673  0.0916 -0.1066
    1SOL    HW2 7662   4.098   1.953   3.130 -0.4816  0.4106 -0.5765
    1SOL    HW3 7663   3.949   1.933   3.114 -0.3408 -0.8080 -0.4705
    1SOL    MW4 7664   4.026   1.907   3.146 -0.1583  0.0150 -0.2167
    1SOL     OW 7665   4.213   2.034   3.012  0.1767 -0.2751  0.2622
    1SOL    HW2 7666   4.236   2.124   3.036 -0.2900 -0.0017 -0.3160
    1SOL    HW3 7667   4.232   2.028   2.918 -0.6324 -0.5165  0.1139
    1SOL    MW4 7668   4.219   2.045   3.003  0.0081 -0.2708  0.1662
    1SOL     OW 7669   4.255   2.326   3.076 -0.0895 -0.2905  0.1157
    1SOL    HW2 7670   4.178   2.371   3.040 -1.7328 -1.7765  1.6278
    1SOL    HW3 7671   4.329   2.364   3.030 -1.7358  1.2189 -1.3726
    1SOL    MW4 7672   4.254   2.337   3.066 -0.5231 -0.2878  0.1190
    1SOL     OW 7673   4.006   2.429   2.996  0.2295  0.0152  0.0520
    1SOL    HW2 7674   4.016   2.517   3.032 -0.7316  0.0522  0.2413
    1SOL    HW3 7675   3.937   2.389   3.050 -1.0593 -0.0115 -1.5751
    1SOL    MW4 7676   3.998   2.435   3.008 -0.0672  0.0167 -0.1376
    1SOL     OW 7677   4.027   2.703   3.092 -0.5967  0.3633  0.1227
    1SOL    HW2 7678   4.033   2.689   3.187  0.0859  1.6666  0.2844
    1SOL    HW3 7679   3.941   2.741   3.079 -0.1054  1.5967  0.4133
    1SOL    MW4 7680   4.017   2.706   3.103 -0.4425  0.6981  0.1824
    1SOL     OW 7681   4.265   2.853   3.013  0.5847  0.1910 -0.0150
    1SOL    HW2 7682   4.189   2.799   3.035  1.0201 -0.8935 -1.1054
    1SOL    HW3 7683   4.339   2.808   3.054  0.7922  0.6069  0.0631
    1SOL    MW4 7684   4.265   2.840   3.021  0.6695  0.1028 -0.1485
    1SOL     OW 7685   4.286   3.106   3.121 -0.4823  0.0979 -0.0905
    1SOL    HW2 7686   4.208   3.148   3.084 -1.1778 -0.5539  0.6227
    1SOL    HW3 7687   4.282   3.016   3.089 -0.5540 -0.1996  0.7358
    1SOL    MW4 7688   4.275   3.100   3.112 -0.5841 -0.0277  0.1123
    1SOL     OW 7689   4.064   3.237   3.017 -0.2558  0.4031 -0.0773
    1SOL    HW2 7690   4.038   3.325   3.043  0.8920  0.8837 -0.4989
    1SOL    HW3 7691   4.048   3.234   2.923  1.2673  0.7496 -0.3692
    1SOL    MW4 7692   4.059   3.248   3.008  0.0973  0.5121 -0.1714
    1SOL     OW 7693   3.995   3.489   3.079 -0.0668 -0.4331  0.1390
    1SOL    HW2 7694   4.001   3.475   3.174  0.7937 -2.5945 -0.2076
    1SOL    HW3 7695   3.910   3.530   3.067 -0.4627 -0.7158  1.8128
    1SOL    MW4 7696   3.984   3.492   3.090 -0.0055 -0.7555  0.3140
    1SOL     OW 7697   4.251   3.620   3.014 -0.1223  0.5531 -0.1771
    1SOL    HW2 7698   4.250   3.691   3.078 -0.9370  1.5757 -1.2792
    1SOL    HW3 7699   4.167   3.575   3.026  0.5087 -0.4140  0.7063
    1SOL    MW4 7700   4.239   3.623   3.024 -0.1464  0.5603 -0.2062
    1SOL     OW 7701   4.254   3.868   3.152  0.6483 -0.8229  0.1627
    1SOL    HW2 7702   4.193   3.931   3.114  0.7477 -0.1507  1.0909
    1SOL    HW3 7703   4.340   3.903   3.131  0.7083  0.0981  1.8464
    1SOL    MW4 7704   4.257   3.881   3.144  0.6690 -0.6127  0.5069
    1SOL     OW 7705   4.059   4.036   3.023 -0.2558 -0.5319  0.0376
    1SOL    HW2 7706   4.031   4.122   3.052 -0.0716 -0.6105  0.4518
    1SOL    HW3 7707   3.980   3.982   3.027 -1.1677  0.4266 -3.4436
    1SOL    MW4 7708   4.045   4.040   3.027 -0.3524 -0.4153 -0.3667
    1SOL     OW 7709   4.004   4.293   3.129  0.4029  0.0017 -0.1866
    1SOL    HW2 7710   4.007   4.301   3.224 -0.3859  0.2435 -0.1826
    1SOL    HW3 7711   4.088   4.329   3.100  0.1062  1.1236  0.3330
    1SOL    MW4 7712   4.016   4.299   3.138  0.2599  0.1817 -0.1173
    1SOL     OW 7713   4.254   4.405   3.043  0.3288  0.4621  0.4769
    1SOL    HW2 7714   4.336   4.362   3.067  0.8081  1.0873 -0.0262
    1SOL    HW3 7715   4.233   4.371   2.956  0.4705  0.8981  0.2701
    1SOL    MW4 7716   4.262   4.395   3.035  0.4106  0.6027  0.3834
    1SOL     OW 7717   0.176   4.658   3.422  0.0538 -0.1652  0.3014
    1SOL    HW2 7718   0.257   4.697   3.454  0.6476 -0.9312 -0.2382
    1SOL    HW3 7719   0.174   4.571   3.462 -0.4480 -0.1810  0.2404
    1SOL    MW4 7720   0.187   4.652   3.431  0.0659 -0.2685  0.2227
    1SOL     OW 7721   4.446   0.134   3.506  0.1299  0.4813  0.0214
    1SOL    HW2 7722   4.463   0.226   3.486 -0.3954  0.2055 -1.7714
    1SOL    HW3 7723   4.525   0.088   3.478 -0.9988 -0.0310 -2.4095
    1SOL    MW4 7724   4.459   0.140   3.500 -0.0887  0.3773 -0.5357
    1SOL     OW 7725   0.013   0.379   3.411 -0.1554 -0.3680 -0.0139
    1SOL    HW2 7726  -0.058   0.426   3.455  1.4767  1.5299  0.6606
    1SOL    HW3 7727   0.093   0.423   3.441  1.4459 -3.4772  0.5429
    1SOL    MW4 7728   0.014   0.391   3.421  0.2708 -0.5278  0.1485
    1SOL     OW 7729   0.222   0.543   3.496 -0.3037 -0.6090  0.2699
    1SOL    HW2 7730   0.296   0.487   3.471  0.0839 -0.5281  1.2139
    1SOL    HW3 7731   0.226   0.617   3.434  0.8101 -0.2694  0.7338
    1SOL    MW4 7732   0.233   0.545   3.484 -0.1056 -0.5535  0.4559
    1SOL     OW 7733   0.267   0.780   3.353  0.0012 -0.7443 -0.8174
    1SOL    HW2 7734   0.350   0.819   3.378 -0.3821  0.7592 -1.8318
    1SOL    HW3 7735   0.205   0.809   3.420  0.1251 -1.2308 -0.4892
    1SOL    MW4 7736   0.270   0.789   3.365 -0.0330 -0.6101 -0.9081
    1SOL     OW 7737   0.041   0.880   3.496 -0.3148 -0.3337 -0.2724
    1SOL    HW2 7738   0.036   0.888   3.591 -1.1119  0.0821 -0.3464
    1SOL    HW3 7739   0.043   0.971   3.465 -0.9198 -0.4650 -0.6954
    1SOL    MW4 7740   0.040   0.893   3.504 -0.4997 -0.2962 -0.3378
    1SOL     OW 7741   0.047   1.145   3.388  0.3089 -0.3342 -0.2384
    1SOL    HW2 7742   0.125   1.193   3.414  0.1157 -0.0160 -0.2495
    1SOL    HW3 7743   0.051   1.143   3.292 -0.0258  0.2336 -0.2677
    1SOL    MW4 7744   0.058   1.151   3.378  0.2392 -0.2173 -0.2437
    1SOL     OW 7745   0.259   1.273   3.494  0.5080 -0.2965 -0.1358
    1SOL    HW2 7746   0.254   1.279   3.589  1.5332  0.5263 -0.1174
    1SOL    HW3 7747   0.252   1.364   3.464 -1.9467 -0.7293 -0.9670
    1SOL    MW4 7748   0.258   1.286   3.502  0.3194 -0.2451 -0.2432
    1SOL     OW 7749   0.260   1.544   3.400  0.4220 -0.2647  0.9082
    1SOL    HW2 7750   0.341   1.584   3.432  1.0757 -1.2848  0.5371
    1SOL    HW3 7751   0.261   1.562   3.306 -0.0123  0.1114  0.9715
    1SOL    MW4 7752   0.271   1.552   3.391  0.4509 -0.3496  0.8676
    1SOL     OW 7753   0.023   1.681   3.466 -0.4382 -0.5118 -0.0375
    1SOL    HW2 7754  -0.046   1.617   3.452  0.1538 -1.0946 -0.2844
    1SOL    HW3 7755   0.103   1.637   3.439 -0.0911  0.5061 -0.7144
    1SOL    MW4 7756   0.024   1.667   3.460 -0.3143 -0.4544 -0.1595
    1SOL     OW 7757   4.455   1.950   3.415  0.1682 -0.2841  0.5999
    1SOL    HW2 7758   4.469   1.859   3.440  0.5828 -0.7601 -1.3502
    1SOL    HW3 7759   4.465   1.952   3.320 -0.4880  1.6788  0.5382
    1SOL    MW4 7760   4.458   1.938   3.406  0.1364 -0.0880  0.3343
    1SOL     OW 7761   0.219   2.029   3.534  0.0343 -0.2830  0.0409
    1SOL    HW2 7762   0.133   2.002   3.500  0.1946 -0.1970 -0.4324
    1SOL    HW3 7763   0.204   2.042   3.627 -0.6939  0.6447 -0.1938
    1SOL    MW4 7764   0.205   2.027   3.542 -0.0406 -0.1495 -0.0525
    1SOL     OW 7765   0.226   2.292   3.399 -0.0488 -0.5225 -0.1113
    1SOL    HW2 7766   0.144   2.332   3.429 -0.8709 -1.3801 -1.1552
    1SOL    HW3 7767   0.232   2.211   3.449  0.5474 -0.1143  0.4895
    1SOL    MW4 7768   0.216   2.287   3.410 -0.0786 -0.5820 -0.1698
    1SOL     OW 7769   0.003   2.444   3.495 -0.1571  0.3043  0.5203
    1SOL    HW2 7770  -0.023   2.440   3.587 -1.5119  0.1573  0.1339
    1SOL    HW3 7771  -0.070   2.405   3.447  1.2357 -1.1353 -0.4977
    1SOL    MW4 7772  -0.010   2.439   3.501 -0.1526  0.0949  0.3350
    1SOL     OW 7773   4.462   2.718   3.414 -0.3244  0.2257 -0.4380
    1SOL    HW2 7774   4.544   2.760   3.442 -0.0033 -0.7084  0.0478
    1SOL    HW3 7775   4.471   2.628   3.443 -1.2718 -0.0313 -0.9437
    1SOL    MW4 7776   4.474   2.712   3.422 -0.4072  0.0687 -0.4406
    1SOL     OW 7777   0.219   2.823   3.463  0.1482  0.6592 -0.0208
    1SOL    HW2 7778   0.296   2.769   3.444 -1.2754 -0.5477 -2.6532
    1SOL    HW3 7779   0.236   2.905   3.417 -0.0157  0.4935 -0.3774
    1SOL    MW4 7780   0.231   2.827   3.454 -0.0612  0.4783 -0.4148
    1SOL     OW 7781   0.251   3.072   3.355  0.0216 -0.0873  0.2212
    1SOL    HW2 7782   0.197   3.149   3.372 -1.0592 -0.8635  0.3507
    1SOL    HW3 7783   0.256   3.068   3.259 -0.0334  0.0590  0.2107
    1SOL    MW4 7784   0.244   3.082   3.344 -0.1283 -0.1705  0.2370
    1SOL     OW 7785   0.054   3.253   3.473  0.1383 -0.1078 -0.1011
    1SOL    HW2 7786  -0.026   3.207   3.449 -0.4513  1.2289 -0.7357
    1SOL    HW3 7787   0.036   3.345   3.453  1.1765  0.4499  1.4393
    1SOL    MW4 7788   0.041   3.259   3.467  0.1975  0.1421  0.0188
    1SOL     OW 7789   0.018   3.531   3.401  0.5480 -0.2847  0.0222
    1SOL    HW2 7790  -0.070   3.547   3.434  0.9490  1.3557  0.3315
    1SOL    HW3 7791   0.006   3.522   3.306  0.3331  2.2927 -0.2242
    1SOL    MW4 7792   0.005   3.532   3.393  0.5727  0.2718  0.0308
    1SOL     OW 7793   0.247   3.585   3.541 -0.5162  0.1232  0.0637
    1SOL    HW2 7794   0.222   3.605   3.632 -1.6998 -0.7707 -0.0622
    1SOL    HW3 7795   0.164   3.570   3.496  0.2043 -2.2367 -0.5146
    1SOL    MW4 7796   0.233   3.586   3.547 -0.5773 -0.3061 -0.0293
    1SOL     OW 7797   0.245   3.841   3.425  0.0478  0.4071  0.4512
    1SOL    HW2 7798   0.166   3.882   3.461 -1.0610  0.2078 -1.6301
    1SOL    HW3 7799   0.245   3.753   3.462 -0.7465  0.3927  0.4337
    1SOL    MW4 7800   0.235   3.835   3.434 -0.2033  0.3788  0.1745
    1SOL     OW 7801   0.005   3.962   3.501  0.2306 -0.4778  0.0908
    1SOL    HW2 7802   0.008   3.964   3.596 -0.0291 -0.8267  0.1055
    1SOL    HW3 7803  -0.018   4.051   3.475  0.4290 -0.3515  0.3481
    1SOL    MW4 7804   0.003   3.974   3.510  0.2225 -0.5071  0.1268
    1SOL     OW 7805   4.456   4.235   3.404 -0.1301 -0.0300  0.4129
    1SOL    HW2 7806   4.376   4.276   3.437  0.0330  0.6116 -0.0021
    1SOL    HW3 7807   4.527   4.278   3.452 -0.0645 -1.1814  1.4057
    1SOL    MW4 7808   4.455   4.246   3.415 -0.0997 -0.0968  0.4890
    1SOL     OW 7809   0.170   4.392   3.495 -0.1391 -0.0631  0.6580
    1SOL    HW2 7810   0.190   4.398   3.589 -0.3232 -0.5525  0.7274
    1SOL    HW3 7811   0.245   4.348   3.457  0.6336  1.4987  0.3374
    1SOL    MW4 7812   0.182   4.387   3.503 -0.0615  0.0782  0.6249
    1SOL     OW 7813   0.630   4.651   3.402 -0.2170 -0.7911  0.0606
    1SOL    HW2 7814   0.711   4.688   3.437  0.2363 -0.6509 -1.1000
    1SOL    HW3 7815   0.647   4.641   3.308 -1.5607 -0.7282 -0.2016
    1SOL    MW4 7816   0.643   4.654   3.394 -0.3345 -0.7643 -0.1273
    1SOL     OW 7817   0.408   0.131   3.492  0.1828  0.2868 -0.1176
    1SOL    HW2 7818   0.427   0.126   3.585  0.3790 -0.0281 -0.1764
    1SOL    HW3 7819   0.476   0.078   3.450 -0.1482  0.0911 -0.4095
    1SOL    MW4 7820   0.420   0.124   3.499  0.1650  0.2194 -0.1638
    1SOL     OW 7821   0.440   0.392   3.416  0.0047 -0.2530 -0.3949
    1SOL    HW2 7822   0.521   0.423   3.458 -0.5065 -1.1283  1.2591
    1SOL    HW3 7823   0.432   0.301   3.443 -1.4799 -0.2164 -0.6794
    1SOL    MW4 7824   0.450   0.384   3.425 -0.2586 -0.3637 -0.2143
    1SOL     OW 7825   0.667   0.517   3.557 -0.6054 -0.4419 -0.0587
    1SOL    HW2 7826   0.666   0.516   3.652  0.8770  0.5045 -0.0240
    1SOL    HW3 7827   0.730   0.448   3.533 -0.2328 -0.0163 -0.3198
    1SOL    MW4 7828   0.675   0.508   3.566 -0.3607 -0.2609 -0.0887
    1SOL     OW 7829   0.695   0.769   3.429 -0.0115 -0.1683  0.6953
    1SOL    HW2 7830   0.611   0.810   3.450  0.1249  0.5747 -0.1390
    1SOL    HW3 7831   0.706   0.701   3.495 -0.2917  1.0915  2.0889
    1SOL    MW4 7832   0.685   0.766   3.440 -0.0305  0.0960  0.7691
    1SOL     OW 7833   0.458   0.915   3.487 -0.0570  0.0095 -0.1241
    1SOL    HW2 7834   0.469   0.917   3.582  1.2026  3.0145 -0.2640
    1SOL    HW3 7835   0.458   1.007   3.461  1.3929 -0.7826 -3.2170
    1SOL    MW4 7836   0.459   0.928   3.496  0.3005  0.3015 -0.5505
    1SOL     OW 7837   0.527   1.176   3.420  0.3548  0.2464 -0.4359
    1SOL    HW2 7838   0.443   1.210   3.451 -0.4285 -0.9459 -1.2137
    1SOL    HW3 7839   0.515   1.168   3.325  1.5185  0.5231 -0.6127
    1SOL    MW4 7840   0.514   1.180   3.411  0.4051  0.1255 -0.5620
    1SOL     OW 7841   0.732   1.311   3.536 -0.1376 -0.4717  0.1237
    1SOL    HW2 7842   0.668   1.249   3.502 -1.4680  0.0706  1.5709
    1SOL    HW3 7843   0.726   1.386   3.476 -0.7294 -0.5021  0.1402
    1SOL    MW4 7844   0.723   1.313   3.523 -0.3912 -0.4042  0.3166
    1SOL     OW 7845   0.707   1.566   3.377 -0.0239  0.3238 -0.5125
    1SOL    HW2 7846   0.772   1.609   3.432 -0.7200 -1.0098  1.4500
    1SOL    HW3 7847   0.625   1.613   3.395 -0.2410 -0.0755 -0.4423
    1SOL    MW4 7848   0.705   1.578   3.387 -0.1444  0.0951 -0.2444
    1SOL     OW 7849   0.484   1.680   3.486  0.7274  0.1517  0.4129
    1SOL    HW2 7850   0.492   1.663   3.580 -3.3216 -0.5996  0.7097
    1SOL    HW3 7851   0.458   1.772   3.480  0.4046  0.0404  0.0632
    1SOL    MW4 7852   0.482   1.690   3.498  0.1506  0.0378  0.4060
    1SOL     OW 7853   0.467   1.949   3.417  0.3778  0.6921 -0.8709
    1SOL    HW2 7854   0.382   1.977   3.451 -0.1832 -0.5585 -1.1990
    1SOL    HW3 7855   0.457   1.955   3.322  0.3811 -0.1939 -0.9348
    1SOL    MW4 7856   0.454   1.953   3.409  0.3042  0.4102 -0.9222
    1SOL     OW 7857   0.712   2.039   3.508  0.3235 -0.0640 -0.2306
    1SOL    HW2 7858   0.709   2.039   3.603  0.3137  1.5737 -0.2262
    1SOL    HW3 7859   0.626   2.006   3.481  0.2722 -0.3871  0.3228
    1SOL    MW4 7860   0.700   2.035   3.517  0.3155  0.1097 -0.1571
    1SOL     OW 7861   0.698   2.276   3.392  0.3586  0.1750 -0.4735
    1SOL    HW2 7862   0.766   2.331   3.431 -1.1419  1.0651  0.9823
    1SOL    HW3 7863   0.711   2.190   3.432 -0.3511  0.7534  1.0672
    1SOL    MW4 7864   0.709   2.272   3.403  0.0670  0.3688 -0.0782
    1SOL     OW 7865   0.481   2.404   3.479  0.2347  0.2201 -0.6939
    1SOL    HW2 7866   0.554   2.359   3.438 -0.7076 -1.7758 -0.2386
    1SOL    HW3 7867   0.403   2.366   3.438 -0.6482 -0.3786  1.4725
    1SOL    MW4 7868   0.480   2.393   3.468 -0.0061 -0.1221 -0.3481
    1SOL     OW 7869   0.457   2.672   3.401 -0.3151  0.1728 -0.1335
    1SOL    HW2 7870   0.465   2.579   3.421  2.6085  0.2698 -0.6359
    1SOL    HW3 7871   0.439   2.675   3.307  1.1045  0.1409 -0.4141
    1SOL    MW4 7872   0.456   2.660   3.391  0.2579  0.1814 -0.2370
    1SOL     OW 7873   0.653   2.823   3.507  0.8981  0.2149 -0.4493
    1SOL    HW2 7874   0.732   2.771   3.491  0.7205 -0.5468  1.1275
    1SOL    HW3 7875   0.581   2.768   3.476  0.8425  0.2079 -0.3064
    1SOL    MW4 7876   0.654   2.809   3.501  0.8674  0.1135 -0.2227
    1SOL     OW 7877   0.668   3.050   3.350  0.0938 -0.1697  0.1572
    1SOL    HW2 7878   0.601   3.102   3.396  0.3042  0.2596 -0.0166
    1SOL    HW3 7879   0.666   2.965   3.393 -0.2446 -0.0120  0.4591
    1SOL    MW4 7880   0.659   3.046   3.361  0.0769 -0.0923  0.1740
    1SOL     OW 7881   0.464   3.193   3.488 -0.2995 -0.5880 -0.3224
    1SOL    HW2 7882   0.457   3.188   3.583  0.3205 -1.8300 -0.3394
    1SOL    HW3 7883   0.389   3.143   3.455  0.4409 -1.5941 -0.4856
    1SOL    MW4 7884   0.453   3.186   3.496 -0.1200 -0.8843 -0.3462
    1SOL     OW 7885   0.453   3.448   3.363  0.1775  0.1224  0.4198
    1SOL    HW2 7886   0.474   3.359   3.394  0.2558 -0.1069 -0.2720
    1SOL    HW3 7887   0.388   3.480   3.426  0.4340 -0.2787  0.8989
    1SOL    MW4 7888   0.447   3.440   3.376  0.2217  0.0391  0.3917
    1SOL     OW 7889   0.645   3.594   3.474 -0.0144 -0.0008  0.1919
    1SOL    HW2 7890   0.732   3.578   3.437 -0.0089  1.8135 -0.6204
    1SOL    HW3 7891   0.588   3.530   3.433  1.0104 -1.5021  1.0592
    1SOL    MW4 7892   0.649   3.583   3.464  0.1215  0.0405  0.1991
    1SOL     OW 7893   0.635   3.861   3.390  0.4008 -0.3443  0.6627
    1SOL    HW2 7894   0.575   3.920   3.436  0.0056 -1.2581  1.3357
    1SOL    HW3 7895   0.627   3.778   3.436  0.9613 -0.9275 -0.2748
    1SOL    MW4 7896   0.626   3.858   3.402  0.4227 -0.5419  0.6280
    1SOL     OW 7897   0.435   4.019   3.521 -0.1614  0.0348  0.2089
    1SOL    HW2 7898   0.405   4.101   3.480 -0.9923 -0.4424 -0.1607
    1SOL    HW3 7899   0.374   3.952   3.488  0.6601 -0.7742  0.3138
    1SOL    MW4 7900   0.423   4.021   3.511 -0.1626 -0.1349  0.1743
    1SOL     OW 7901   0.411   4.282   3.412 -0.2585  0.0997 -0.7055
    1SOL    HW2 7902   0.484   4.333   3.447  0.4963 -1.5825  0.2280
    1SOL    HW3 7903   0.434   4.267   3.320  0.8160 -0.8699 -0.2757
    1SOL    MW4 7904   0.424   4.287   3.404 -0.0172 -0.2499 -0.5255
    1SOL     OW 7905   0.636   4.399   3.526  0.0367 -0.6364 -0.0360
    1SOL    HW2 7906   0.712   4.365   3.480  0.5135  0.1953  0.1207
    1SOL    HW3 7907   0.614   4.480   3.479 -1.0506 -1.1100 -0.3821
    1SOL    MW4 7908   0.643   4.406   3.514 -0.0439 -0.5889 -0.0608
    1SOL     OW 7909   1.106   4.640   3.413  0.7311 -0.2203  0.0606
    1SOL    HW2 7910   1.198   4.660   3.433  0.9886 -1.0070 -0.3359
    1SOL    HW3 7911   1.101   4.643   3.318  0.5726 -1.1896  0.0395
    1SOL    MW4 7912   1.118   4.643   3.403  0.7441 -0.4520  0.0055
    1SOL     OW 7913   0.860   0.087   3.522  0.1851  0.6413  0.1668
    1SOL    HW2 7914   0.864   0.062   3.615  0.9174  2.5049  0.6599
    1SOL    HW3 7915   0.947   0.064   3.488  0.3872  1.2261  0.2845
    1SOL    MW4 7916   0.872   0.081   3.530  0.3084  0.9643  0.2472
    1SOL     OW 7917   0.846   0.337   3.411  0.2257 -0.4741  0.6159
    1SOL    HW2 7918   0.937   0.363   3.424  0.2988 -1.2882  1.9404
    1SOL    HW3 7919   0.844   0.245   3.440 -1.3347  0.0058  2.1197
    1SOL    MW4 7920   0.858   0.328   3.417  0.0294 -0.5182  0.9892
    1SOL     OW 7921   1.108   0.435   3.456  0.1359  0.0027  0.0416
    1SOL    HW2 7922   1.101   0.443   3.552 -3.0989  1.3425 -0.2298
    1SOL    HW3 7923   1.125   0.524   3.426 -0.5810 -0.1066 -0.7217
    1SOL    MW4 7924   1.109   0.448   3.465 -0.3855  0.1651 -0.0949
    1SOL     OW 7925   1.157   0.705   3.392  0.1252 -0.2929 -0.3085
    1SOL    HW2 7926   1.239   0.753   3.395 -0.2630  0.3908 -0.6981
    1SOL    HW3 7927   1.090   0.770   3.412 -0.5329 -0.3681 -2.2040
    1SOL    MW4 7928   1.159   0.720   3.395 -0.0129 -0.2126 -0.6101
    1SOL     OW 7929   0.938   0.903   3.423  0.4911  0.1827 -0.1480
    1SOL    HW2 7930   0.913   0.995   3.415 -0.0411 -0.0409 -1.2048
    1SOL    HW3 7931   0.856   0.855   3.418  0.8003 -0.3693  0.0551
    1SOL    MW4 7932   0.924   0.909   3.421  0.4618  0.0803 -0.2608
    1SOL     OW 7933   0.919   1.173   3.381 -0.0717 -0.5011  0.4940
    1SOL    HW2 7934   1.003   1.172   3.427 -0.0986  0.0985  0.5609
    1SOL    HW3 7935   0.859   1.217   3.441 -0.0171  0.6126 -0.2553
    1SOL    MW4 7936   0.922   1.178   3.395 -0.0681 -0.2751  0.4036
    1SOL     OW 7937   1.184   1.241   3.470 -0.2448  0.3310 -0.3240
    1SOL    HW2 7938   1.187   1.226   3.564 -1.3984 -0.8716 -0.4646
    1SOL    HW3 7939   1.143   1.328   3.462  0.1727  0.5904  0.2821
    1SOL    MW4 7940   1.179   1.251   3.481 -0.3419  0.2066 -0.2627
    1SOL     OW 7941   1.116   1.495   3.415  0.3315  0.0308 -0.0638
    1SOL    HW2 7942   1.188   1.548   3.449  0.5183 -0.1239 -0.2192
    1SOL    HW3 7943   1.121   1.507   3.320  1.4321 -1.6193 -0.2395
    1SOL    MW4 7944   1.126   1.504   3.407  0.5014 -0.2072 -0.1075
    1SOL     OW 7945   0.922   1.661   3.521  0.6043 -0.4989  0.4891
    1SOL    HW2 7946   0.928   1.746   3.477  0.9274 -1.0110 -0.4874
    1SOL    HW3 7947   0.994   1.610   3.483  0.5830 -1.1109  1.2732
    1SOL    MW4 7948   0.932   1.665   3.510  0.6441 -0.6472  0.4640
    1SOL     OW 7949   0.918   1.897   3.393  0.5020 -0.0310 -0.1697
    1SOL    HW2 7950   0.984   1.960   3.421  1.2917  0.3895 -2.8262
    1SOL    HW3 7951   0.835   1.933   3.426  1.1725  1.3357  0.0745
    1SOL    MW4 7952   0.916   1.910   3.401  0.6947  0.2048 -0.4880
    1SOL     OW 7953   1.139   2.016   3.542 -0.2892  0.4957  0.2588
    1SOL    HW2 7954   1.208   1.969   3.495  0.3652 -1.1975  2.8194
    1SOL    HW3 7955   1.135   2.102   3.499  2.3661  0.0995 -0.8915
    1SOL    MW4 7956   1.148   2.021   3.530  0.1475  0.2198  0.4449
    1SOL     OW 7957   1.139   2.268   3.414 -0.4529 -0.0986  0.1497
    1SOL    HW2 7958   1.202   2.325   3.458  1.6500 -1.1607 -1.3922
    1SOL    HW3 7959   1.145   2.293   3.321 -2.8677  0.2979  0.0672
    1SOL    MW4 7960   1.148   2.279   3.407 -0.4940 -0.1864 -0.0646
    1SOL     OW 7961   0.906   2.434   3.476  0.0460  0.2167 -0.1182
    1SOL    HW2 7962   0.912   2.425   3.571  1.1679  1.5419 -0.0542
    1SOL    HW3 7963   0.978   2.381   3.442  0.3576  0.6712 -0.1729
    1SOL    MW4 7964   0.916   2.426   3.484  0.2351  0.4518 -0.1171
    1SOL     OW 7965   0.884   2.713   3.410 -0.4013 -0.0450  0.5026
    1SOL    HW2 7966   0.960   2.764   3.436  0.8906 -0.1973 -2.7622
    1SOL    HW3 7967   0.903   2.624   3.437  1.3471 -0.3800 -1.7292
    1SOL    MW4 7968   0.896   2.708   3.417 -0.0001 -0.1090 -0.2224
    1SOL     OW 7969   1.116   2.863   3.478  0.5473 -0.3239  0.1260
    1SOL    HW2 7970   1.119   2.852   3.573  1.8772 -0.4198  0.0819
    1SOL    HW3 7971   1.186   2.807   3.445 -0.8315 -1.4081 -1.0270
    1SOL    MW4 7972   1.125   2.854   3.486  0.5409 -0.4795 -0.0317
    1SOL     OW 7973   1.127   3.136   3.399 -0.2106  0.1156 -0.1438
    1SOL    HW2 7974   1.126   3.045   3.427  1.3538 -0.0823 -0.6811
    1SOL    HW3 7975   1.106   3.132   3.306 -0.1335  0.3167 -0.1686
    1SOL    MW4 7976   1.124   3.123   3.391  0.0060  0.1159 -0.2177
    1SOL     OW 7977   0.875   3.237   3.453 -0.0060  0.2431 -0.3880
    1SOL    HW2 7978   0.957   3.194   3.428 -0.3481 -0.0888 -0.9369
    1SOL    HW3 7979   0.806   3.177   3.424 -0.4398  0.3518  0.3883
    1SOL    MW4 7980   0.877   3.223   3.446 -0.1083  0.2136 -0.3579
    1SOL     OW 7981   0.876   3.524   3.379  0.4700 -0.0339 -0.2063
    1SOL    HW2 7982   0.899   3.434   3.403  0.7105 -0.0995 -0.6669
    1SOL    HW3 7983   0.895   3.529   3.285 -0.4657  0.2098 -0.3912
    1SOL    MW4 7984   0.882   3.513   3.370  0.3783 -0.0107 -0.2916
    1SOL     OW 7985   1.127   3.639   3.501 -0.0280 -0.2461 -0.0724
    1SOL    HW2 7986   1.140   3.617   3.593  1.0838 -2.3692 -0.6922
    1SOL    HW3 7987   1.047   3.592   3.477  0.5717 -1.0323 -0.5763
    1SOL    MW4 7988   1.118   3.630   3.510  0.1979 -0.6299 -0.2205
    1SOL     OW 7989   1.117   3.891   3.412 -0.0532 -0.0300  0.2122
    1SOL    HW2 7990   1.198   3.930   3.445 -0.2650  0.9007 -0.3301
    1SOL    HW3 7991   1.123   3.799   3.436  0.7626  0.2074  0.9502
    1SOL    MW4 7992   1.129   3.884   3.419  0.0265  0.1242  0.2379
    1SOL     OW 7993   0.857   3.982   3.500  0.5586  0.3265  0.2359
    1SOL    HW2 7994   0.938   3.942   3.468  0.1627 -0.8530  0.6923
    1SOL    HW3 7995   0.788   3.939   3.450  0.1756  1.0354  0.1463
    1SOL    MW4 7996   0.859   3.971   3.489  0.4557  0.2644  0.2842
    1SOL     OW 7997   0.834   4.244   3.434  0.0153 -0.2429  0.1387
    1SOL    HW2 7998   0.835   4.149   3.448  1.6837 -0.1916  0.4713
    1SOL    HW3 7999   0.862   4.255   3.343 -0.9206 -0.1033 -0.1334
    1SOL    MW4 8000   0.838   4.233   3.424  0.1119 -0.2179  0.1469
    1SOL     OW 8001   1.086   4.372   3.510 -0.1848  0.1623  0.1303
    1SOL    HW2 8002   1.000   4.330   3.502 -0.2121  0.3214 -0.4101
    1SOL    HW3 8003   1.071   4.463   3.483  0.4855 -0.2044 -1.5624
    1SOL    MW4 8004   1.073   4.378   3.505 -0.1000  0.1349 -0.1643
    1SOL     OW 8005   1.534   4.610   3.368 -0.3522 -0.1236 -0.0883
    1SOL    HW2 8006   1.528   4.528   3.417 -0.4856 -0.7801 -1.1812
    1SOL    HW3 8007   1.468   4.666   3.407 -0.9080 -0.8703  0.0569
    1SOL    MW4 8008   1.525   4.606   3.380 -0.4432 -0.3085 -0.2134
    1SOL     OW 8009   1.345   0.091   3.496  0.3969 -0.7827 -0.2224
    1SOL    HW2 8010   1.345   0.097   3.592  1.2373 -0.1177 -0.2622
    1SOL    HW3 8011   1.347   0.182   3.466 -2.4876 -0.8898 -0.8951
    1SOL    MW4 8012   1.345   0.104   3.505  0.1272 -0.7091 -0.3164
    1SOL     OW 8013   1.351   0.351   3.395 -0.3599 -0.1433  0.1723
    1SOL    HW2 8014   1.412   0.400   3.451 -0.4986  1.2952 -0.8940
    1SOL    HW3 8015   1.264   0.377   3.426 -0.4607  1.9278 -1.7138
    1SOL    MW4 8016   1.348   0.361   3.407 -0.3915  0.3198 -0.2172
    1SOL     OW 8017   1.558   0.519   3.515 -0.2835  0.5678  0.0997
    1SOL    HW2 8018   1.558   0.518   3.611  1.0516  0.9075  0.1106
    1SOL    HW3 8019   1.629   0.460   3.490 -0.6775  0.4151 -0.6971
    1SOL    MW4 8020   1.567   0.511   3.525 -0.1594  0.5925 -0.0041
    1SOL     OW 8021   1.596   0.757   3.370  0.5003  0.2578  0.1964
    1SOL    HW2 8022   1.516   0.805   3.391  1.0676  1.0721  0.5243
    1SOL    HW3 8023   1.583   0.671   3.409 -0.3732  0.2617 -0.0759
    1SOL    MW4 8024   1.584   0.752   3.378  0.4598  0.3658  0.2038
    1SOL     OW 8025   1.370   0.896   3.412  0.0114 -0.1254  0.4168
    1SOL    HW2 8026   1.372   0.907   3.507  0.6706 -1.7229  0.6164
    1SOL    HW3 8027   1.392   0.982   3.377  0.0132  0.4174  1.7238
    1SOL    MW4 8028   1.373   0.909   3.420  0.0987 -0.2645  0.6154
    1SOL     OW 8029   1.412   1.166   3.336  0.6742 -0.0902  0.2261
    1SOL    HW2 8030   1.486   1.211   3.377  0.2392 -1.1971  2.2924
    1SOL    HW3 8031   1.336   1.196   3.386 -0.1670  0.3158 -1.2784
    1SOL    MW4 8032   1.412   1.176   3.348  0.5058 -0.1826  0.3002
    1SOL     OW 8033   1.624   1.269   3.460  0.5484  0.1475 -0.7009
    1SOL    HW2 8034   1.609   1.248   3.553 -0.8626 -2.2867 -1.4264
    1SOL    HW3 8035   1.709   1.229   3.441 -0.1827 -1.3267 -0.9871
    1SOL    MW4 8036   1.633   1.261   3.470  0.2658 -0.3680 -0.8342
    1SOL     OW 8037   1.582   1.549   3.418  1.3140  0.3913  0.3010
    1SOL    HW2 8038   1.606   1.460   3.444 -0.3439 -0.3147 -0.5323
    1SOL    HW3 8039   1.598   1.551   3.323 -0.8832  0.2277 -0.0889
    1SOL    MW4 8040   1.588   1.538   3.409  0.8054  0.2766  0.1397
    1SOL     OW 8041   1.336   1.646   3.520  0.4671 -0.3636 -0.2175
    1SOL    HW2 8042   1.335   1.666   3.613 -0.4082 -2.3748  0.2448
    1SOL    HW3 8043   1.421   1.605   3.504  0.7192  0.2104 -0.3677
    1SOL    MW4 8044   1.347   1.643   3.530  0.3847 -0.5531 -0.1764
    1SOL     OW 8045   1.360   1.919   3.427  0.1705 -0.1229 -0.6269
    1SOL    HW2 8046   1.434   1.959   3.472 -1.1189  0.3915  1.0814
    1SOL    HW3 8047   1.365   1.826   3.452  0.5494 -0.1961 -0.9641
    1SOL    MW4 8048   1.371   1.912   3.436  0.0504 -0.0647 -0.4456
    1SOL     OW 8049   1.582   2.075   3.556  0.3086  0.1822 -0.0919
    1SOL    HW2 8050   1.659   2.028   3.525  1.7788  1.6927  1.1934
    1SOL    HW3 8051   1.580   2.156   3.505 -1.2364 -0.4566 -1.0892
    1SOL    MW4 8052   1.592   2.079   3.546  0.2987  0.2971 -0.0539
    1SOL     OW 8053   1.589   2.338   3.424  0.2575 -0.0424  0.1705
    1SOL    HW2 8054   1.511   2.393   3.433  0.5079  0.3881 -0.2704
    1SOL    HW3 8055   1.609   2.340   3.331 -0.8888 -2.5124 -0.1619
    1SOL    MW4 8056   1.581   2.346   3.413  0.1392 -0.3116  0.0684
    1SOL     OW 8057   1.337   2.438   3.532 -0.3697  0.4532  0.2017
    1SOL    HW2 8058   1.357   2.459   3.623  0.6712  2.7106 -0.4989
    1SOL    HW3 8059   1.328   2.524   3.489 -0.3311 -0.5597 -1.9146
    1SOL    MW4 8060   1.339   2.452   3.538 -0.2273  0.6173 -0.1700
    1SOL     OW 8061   1.336   2.702   3.393  0.3049 -0.0026  0.2756
    1SOL    HW2 8062   1.404   2.757   3.432  0.9466 -0.6676  0.1078
    1SOL    HW3 8063   1.336   2.726   3.301  0.0168  0.3052  0.3570
    1SOL    MW4 8064   1.345   2.713   3.386  0.3517 -0.0498  0.2644
    1SOL     OW 8065   1.549   2.880   3.476 -0.4499 -0.1079  0.1387
    1SOL    HW2 8066   1.625   2.840   3.433 -2.3029 -2.3224 -1.1976
    1SOL    HW3 8067   1.550   2.970   3.445  0.7367 -0.5287 -1.1484
    1SOL    MW4 8068   1.560   2.886   3.466 -0.5379 -0.4559 -0.2077
    1SOL     OW 8069   1.599   3.138   3.380 -0.1663 -0.1237 -0.2074
    1SOL    HW2 8070   1.674   3.186   3.413  0.8045 -1.6259 -0.1521
    1SOL    HW3 8071   1.523   3.188   3.409  0.7422  0.1786  1.7231
    1SOL    MW4 8072   1.599   3.151   3.388  0.0817 -0.2823  0.0544
    1SOL     OW 8073   1.370   3.273   3.448  0.2007 -0.1200 -0.0660
    1SOL    HW2 8074   1.370   3.271   3.544 -0.6622  0.9728 -0.0208
    1SOL    HW3 8075   1.293   3.223   3.423 -0.1512  0.4530 -0.1466
    1SOL    MW4 8076   1.360   3.266   3.458  0.0404  0.0999 -0.0708
    1SOL     OW 8077   1.357   3.538   3.380 -0.0136  0.1254  0.0440
    1SOL    HW2 8078   1.365   3.445   3.401 -0.5467 -0.1511 -0.9260
    1SOL    HW3 8079   1.274   3.564   3.420  0.3327  0.2911  0.6656
    1SOL    MW4 8080   1.347   3.529   3.388 -0.0381  0.1106 -0.0019
    1SOL     OW 8081   1.592   3.661   3.483 -0.2584 -0.1224 -0.4754
    1SOL    HW2 8082   1.589   3.673   3.577  0.8015  0.4628 -0.5096
    1SOL    HW3 8083   1.507   3.622   3.461  0.3634 -2.4447  1.0131
    1SOL    MW4 8084   1.580   3.657   3.492 -0.0365 -0.3519 -0.2837
    1SOL     OW 8085   1.573   3.918   3.392 -0.0072  0.1837 -0.0029
    1SOL    HW2 8086   1.576   3.831   3.431 -0.9547  0.0775 -0.1628
    1SOL    HW3 8087   1.568   3.902   3.298 -0.7659  0.4025 -0.0020
    1SOL    MW4 8088   1.573   3.904   3.384 -0.2322  0.1986 -0.0238
    1SOL     OW 8089   1.346   4.002   3.540  0.4064  0.0419  0.3974
    1SOL    HW2 8090   1.335   4.095   3.522  0.1844 -0.1938 -0.6856
    1SOL    HW3 8091   1.422   3.975   3.489 -0.3896 -0.6797 -0.4401
    1SOL    MW4 8092   1.355   4.010   3.531  0.2720 -0.0844  0.1440
    1SOL     OW 8093   1.325   4.263   3.452  0.1483  0.0654  0.2194
    1SOL    HW2 8094   1.240   4.306   3.467  0.3549  0.6681 -0.3137
    1SOL    HW3 8095   1.332   4.256   3.357  0.9108  0.4552  0.2464
    1SOL    MW4 8096   1.315   4.268   3.442  0.2760  0.1965  0.1526
    1SOL     OW 8097   1.560   4.380   3.540 -0.6049  0.1338 -0.3440
    1SOL    HW2 8098   1.627   4.349   3.479 -0.3257  2.1089 -1.0864
    1SOL    HW3 8099   1.479   4.337   3.511  0.2635 -2.1539  0.4719
    1SOL    MW4 8100   1.558   4.370   3.528 -0.4535  0.0925 -0.3345
    1SOL     OW 8101   2.011   4.607   3.367  0.5237  0.0966 -0.3121
    1SOL    HW2 8102   2.071   4.652   3.426  0.7042  0.5168 -0.8141
    1SOL    HW3 8103   1.926   4.649   3.382  0.9062  1.3551 -1.5584
    1SOL    MW4 8104   2.008   4.618   3.377  0.5977  0.3176 -0.5426
    1SOL     OW 8105   1.772   0.057   3.458 -0.2119  0.5906  0.1231
    1SOL    HW2 8106   1.771   0.041   3.552 -0.6038 -1.1146 -0.1563
    1SOL    HW3 8107   1.693   0.013   3.425  0.0334  0.9896 -1.0327
    1SOL    MW4 8108   1.761   0.049   3.466 -0.2311  0.4182 -0.0663
    1SOL     OW 8109   1.783   0.349   3.423 -0.3381  0.5302  0.3431
    1SOL    HW2 8110   1.789   0.254   3.436 -1.5116  0.6793  2.2200
    1SOL    HW3 8111   1.782   0.361   3.328 -0.2664 -1.3424  0.0969
    1SOL    MW4 8112   1.783   0.338   3.413 -0.4835  0.3028  0.5581
    1SOL     OW 8113   2.029   0.473   3.518  0.1041  0.1608  0.2951
    1SOL    HW2 8114   2.039   0.547   3.458  0.3942  0.0636  0.2215
    1SOL    HW3 8115   1.943   0.436   3.497  0.3564 -0.0909 -0.3091
    1SOL    MW4 8116   2.019   0.478   3.508  0.1760  0.1148  0.2055
    1SOL     OW 8117   2.023   0.708   3.360  0.4642  0.4382 -0.3198
    1SOL    HW2 8118   2.103   0.754   3.387  0.8803 -0.7997  0.5944
    1SOL    HW3 8119   2.016   0.727   3.266  2.0183  0.2935 -0.4887
    1SOL    MW4 8120   2.033   0.716   3.351  0.7241  0.2558 -0.2215
    1SOL     OW 8121   1.856   0.888   3.475 -0.1224 -0.1024 -0.3257
    1SOL    HW2 8122   1.925   0.828   3.444 -0.8439 -0.3280 -1.5251
    1SOL    HW3 8123   1.774   0.841   3.457 -0.5902  0.1379  1.1723
    1SOL    MW4 8124   1.855   0.874   3.468 -0.2793 -0.1006 -0.2863
    1SOL     OW 8125   1.864   1.157   3.391 -0.4767 -0.1563 -0.1397
    1SOL    HW2 8126   1.938   1.202   3.432 -1.0901  1.2114 -0.5203
    1SOL    HW3 8127   1.868   1.068   3.426  0.5860  0.2631  0.8308
    1SOL    MW4 8128   1.875   1.151   3.401 -0.4175  0.0794 -0.0618
    1SOL     OW 8129   2.057   1.286   3.538 -0.0697  0.1004  0.2728
    1SOL    HW2 8130   2.065   1.291   3.633  0.5471  0.9345  0.1872
    1SOL    HW3 8131   2.065   1.377   3.509 -1.7165  0.0188 -0.4697
    1SOL    MW4 8132   2.059   1.299   3.547 -0.2058  0.1998  0.1636
    1SOL     OW 8133   2.050   1.543   3.434 -0.1064  0.5308 -0.0926
    1SOL    HW2 8134   2.125   1.596   3.462  0.6703 -0.1147 -0.9122
    1SOL    HW3 8135   1.973   1.591   3.464  0.6495  1.0743  0.9767
    1SOL    MW4 8136   2.050   1.556   3.441  0.0956  0.5172 -0.0598
    1SOL     OW 8137   1.803   1.667   3.537 -0.5660  0.1880 -0.4368
    1SOL    HW2 8138   1.792   1.762   3.535 -1.2809  0.1080 -0.1834
    1SOL    HW3 8139   1.725   1.632   3.494 -0.2947 -0.2873 -0.5509
    1SOL    MW4 8140   1.791   1.674   3.531 -0.6247  0.1146 -0.4184
    1SOL     OW 8141   1.790   1.915   3.414 -0.1048 -0.0201 -0.0702
    1SOL    HW2 8142   1.878   1.951   3.421 -1.3928  3.6288 -1.2134
    1SOL    HW3 8143   1.781   1.892   3.321 -0.9999  1.5623 -0.3995
    1SOL    MW4 8144   1.800   1.917   3.402 -0.3930  0.6702 -0.2646
    1SOL     OW 8145   2.016   2.044   3.514  0.2227  0.3783 -0.1329
    1SOL    HW2 8146   2.090   2.000   3.472  0.4772 -0.4992  1.2006
    1SOL    HW3 8147   2.030   2.137   3.496  0.1142  0.0030 -2.3021
    1SOL    MW4 8148   2.028   2.051   3.506  0.2418  0.2129 -0.2432
    1SOL     OW 8149   2.021   2.316   3.452 -0.2466 -0.3516  0.4110
    1SOL    HW2 8150   1.945   2.365   3.484  0.0775  0.1375  0.4363
    1SOL    HW3 8151   2.020   2.328   3.357  0.6744  0.9395  0.5514
    1SOL    MW4 8152   2.011   2.324   3.444 -0.0825 -0.1166  0.4330
    1SOL     OW 8153   1.792   2.469   3.546 -0.3962 -0.1721 -0.2096
    1SOL    HW2 8154   1.780   2.466   3.640  0.6612 -2.5617 -0.1147
    1SOL    HW3 8155   1.722   2.414   3.511 -0.3070  0.0719 -0.7839
    1SOL    MW4 8156   1.781   2.462   3.553 -0.2449 -0.4551 -0.2730
    1SOL     OW 8157   1.777   2.710   3.408  0.1373  0.5135  0.2373
    1SOL    HW2 8158   1.860   2.745   3.439  0.1257 -1.5106  2.7148
    1SOL    HW3 8159   1.772   2.623   3.447 -3.6684  1.0225  1.0843
    1SOL    MW4 8160   1.788   2.703   3.417 -0.3663  0.3133  0.6762
    1SOL     OW 8161   2.015   2.843   3.455 -0.1506  0.1000  0.0867
    1SOL    HW2 8162   2.040   2.862   3.546  0.4770  0.0171 -0.0659
    1SOL    HW3 8163   2.006   2.929   3.414  1.6628  0.0965 -0.3303
    1SOL    MW4 8164   2.017   2.857   3.462  0.1717  0.0887  0.0117
    1SOL     OW 8165   2.027   3.102   3.337  0.0519  0.3764 -0.2537
    1SOL    HW2 8166   2.113   3.127   3.369 -0.8150  0.3824  2.1291
    1SOL    HW3 8167   1.969   3.173   3.364 -1.0456 -0.5202 -0.1936
    1SOL    MW4 8168   2.030   3.115   3.345 -0.2072  0.2587  0.0684
    1SOL     OW 8169   1.831   3.264   3.479 -0.4413 -0.3932  0.0504
    1SOL    HW2 8170   1.834   3.261   3.574 -1.3248 -1.1684  0.0632
    1SOL    HW3 8171   1.835   3.357   3.457 -1.4068 -0.1496  0.8909
    1SOL    MW4 8172   1.831   3.276   3.488 -0.6853 -0.4635  0.1631
    1SOL     OW 8173   1.814   3.528   3.411  0.0693  0.3896 -0.0926
    1SOL    HW2 8174   1.735   3.570   3.446 -0.9626 -0.8210 -0.9180
    1SOL    HW3 8175   1.800   3.527   3.316  0.9583 -0.0940 -0.2215
    1SOL    MW4 8176   1.801   3.533   3.403  0.0504  0.1659 -0.2184
    1SOL     OW 8177   2.037   3.668   3.461  0.4548 -0.9204  0.1736
    1SOL    HW2 8178   2.111   3.620   3.422 -0.6240 -1.7114 -0.9181
    1SOL    HW3 8179   1.960   3.616   3.437 -0.6127  0.7203  0.0368
    1SOL    MW4 8180   2.037   3.655   3.453  0.1717 -0.8082  0.0114
    1SOL     OW 8181   2.023   3.942   3.393 -0.2931  0.3576  0.4153
    1SOL    HW2 8182   1.941   3.984   3.419 -0.9986  0.3491 -1.6415
    1SOL    HW3 8183   2.011   3.850   3.415 -0.8125  0.3673  0.1803
    1SOL    MW4 8184   2.010   3.936   3.399 -0.4547  0.3576  0.1130
    1SOL     OW 8185   1.794   4.047   3.473 -0.5430 -0.1921 -0.0584
    1SOL    HW2 8186   1.778   4.057   3.567 -1.0465  0.0285 -0.1681
    1SOL    HW3 8187   1.727   3.986   3.444 -0.8386  0.2942 -0.4081
    1SOL    MW4 8188   1.783   4.041   3.482 -0.6484 -0.0992 -0.1190
    1SOL     OW 8189   1.748   4.293   3.376 -0.0302 -0.4795  0.0470
    1SOL    HW2 8190   1.761   4.201   3.399 -0.1105 -0.3828  0.4825
    1SOL    HW3 8191   1.738   4.293   3.281 -2.3082 -1.1911  0.2540
    1SOL    MW4 8192   1.749   4.281   3.367 -0.3414 -0.5603  0.1321
    1SOL     OW 8193   2.011   4.352   3.489  0.1857 -0.1425  0.2875
    1SOL    HW2 8194   1.923   4.324   3.465  0.2765 -0.2993  0.1303
    1SOL    HW3 8195   2.022   4.437   3.447 -0.0227  0.0436  0.6084
    1SOL    MW4 8196   2.001   4.359   3.480  0.1702 -0.1388  0.3090
    1SOL     OW 8197   2.441   4.647   3.386 -0.3256  0.2552 -0.2414
    1SOL    HW2 8198   2.447   4.558   3.421 -0.4590  0.8184  1.2308
    1SOL    HW3 8199   2.433   4.634   3.291 -0.9106 -1.3160 -0.0024
    1SOL    MW4 8200   2.441   4.633   3.378 -0.4201  0.1225 -0.0155
    1SOL     OW 8201   2.214   0.092   3.481 -0.2650  0.2183  0.0768
    1SOL    HW2 8202   2.214   0.175   3.433  0.9281  0.0728 -0.2015
    1SOL    HW3 8203   2.298   0.052   3.458 -0.7708 -0.9986  0.3313
    1SOL    MW4 8204   2.225   0.097   3.472 -0.1740  0.0386  0.0737
    1SOL     OW 8205   2.242   0.352   3.359  0.2462  0.0361  0.0003
    1SOL    HW2 8206   2.320   0.397   3.392  0.6579  0.6619 -1.7586
    1SOL    HW3 8207   2.173   0.375   3.421  0.9824  1.2501  0.3806
    1SOL    MW4 8208   2.243   0.361   3.371  0.3974  0.2789 -0.1812
    1SOL     OW 8209   2.447   0.474   3.494  0.3619 -0.3641 -0.1597
    1SOL    HW2 8210   2.530   0.437   3.464  0.7723  0.6240 -0.2503
    1SOL    HW3 8211   2.449   0.565   3.463  0.1227  0.2256  1.5253
    1SOL    MW4 8212   2.458   0.481   3.486  0.3843 -0.1559  0.0508
    1SOL     OW 8213   2.462   0.754   3.405  0.2348  0.6439  0.5814
    1SOL    HW2 8214   2.543   0.800   3.426  0.1231  1.0631  0.1023
    1SOL    HW3 8215   2.461   0.749   3.309 -0.4812  0.9493  0.5703
    1SOL    MW4 8216   2.473   0.759   3.395  0.1256  0.7396  0.5167
    1SOL     OW 8217   2.220   0.863   3.442  0.3315 -0.5991  0.0266
    1SOL    HW2 8218   2.208   0.950   3.404 -1.4274  0.0425  1.9098
    1SOL    HW3 8219   2.311   0.840   3.423  0.4337  1.0971 -1.6152
    1SOL    MW4 8220   2.231   0.872   3.435  0.1130 -0.2906  0.0584
    1SOL     OW 8221   2.245   1.141   3.399 -0.0202 -0.1159 -0.4829
    1SOL    HW2 8222   2.333   1.171   3.421  0.2706 -1.0837 -0.3013
    1SOL    HW3 8223   2.187   1.193   3.454  0.4267  0.6949 -0.7806
    1SOL    MW4 8224   2.249   1.152   3.409  0.0772 -0.1366 -0.4983
    1SOL     OW 8225   2.485   1.249   3.470  0.0576 -0.4008 -0.4039
    1SOL    HW2 8226   2.480   1.236   3.565 -2.1346 -1.1462 -0.5863
    1SOL    HW3 8227   2.567   1.209   3.444  0.6269 -0.2788  1.1764
    1SOL    MW4 8228   2.495   1.242   3.479 -0.1566 -0.4830 -0.2196
    1SOL     OW 8229   2.501   1.520   3.410  0.0146  0.2579  0.3323
    1SOL    HW2 8230   2.497   1.424   3.419  0.7588  0.1792 -0.1709
    1SOL    HW3 8231   2.473   1.537   3.321  0.9419  0.4318  0.0749
    1SOL    MW4 8232   2.497   1.509   3.400  0.2348  0.2702  0.2320
    1SOL     OW 8233   2.266   1.679   3.520  0.0737 -0.2728  0.2003
    1SOL    HW2 8234   2.245   1.663   3.611  0.5075  2.1988  0.7838
    1SOL    HW3 8235   2.335   1.616   3.499  1.6476  0.7118  2.2814
    1SOL    MW4 8236   2.272   1.669   3.529  0.3386  0.1832  0.5519
    1SOL     OW 8237   2.244   1.933   3.416  0.5901  0.1391 -0.3643
    1SOL    HW2 8238   2.254   1.840   3.433  0.6269  0.2278  0.1052
    1SOL    HW3 8239   2.252   1.941   3.321 -0.0549 -0.4078 -0.4645
    1SOL    MW4 8240   2.247   1.922   3.406  0.5095  0.0787 -0.3154
    1SOL     OW 8241   2.495   2.041   3.482 -0.0258  0.0915  0.4662
    1SOL    HW2 8242   2.407   2.008   3.469 -0.1056  0.3123  0.4415
    1SOL    HW3 8243   2.489   2.134   3.461  0.3129  0.0114  0.0095
    1SOL    MW4 8244   2.483   2.049   3.477  0.0083  0.1101  0.4025
    1SOL     OW 8245   2.484   2.309   3.391  0.3875  0.3584  0.1100
    1SOL    HW2 8246   2.402   2.352   3.414 -0.3260 -0.8848 -0.1242
    1SOL    HW3 8247   2.552   2.369   3.424 -0.5855  1.8506 -0.5504
    1SOL    MW4 8248   2.482   2.323   3.399  0.1650  0.3912 -0.0083
    1SOL     OW 8249   2.259   2.451   3.492 -0.0918  0.5283 -0.0079
    1SOL    HW2 8250   2.176   2.405   3.477  0.5019 -0.4957 -0.1768
    1SOL    HW3 8251   2.243   2.540   3.461 -0.8049  0.0590 -1.0076
    1SOL    MW4 8252   2.246   2.456   3.486 -0.1075  0.3316 -0.1621
    1SOL     OW 8253   2.224   2.694   3.386  0.1347  0.6716  0.1840
    1SOL    HW2 8254   2.151   2.753   3.401  1.0458  1.7122  0.5545
    1SOL    HW3 8255   2.234   2.693   3.290 -0.2184  0.6951  0.1459
    1SOL    MW4 8256   2.216   2.701   3.375  0.2079  0.8118  0.2277
    1SOL     OW 8257   2.430   2.846   3.530 -0.0610  0.3277 -0.1750
    1SOL    HW2 8258   2.440   2.924   3.475 -0.8715  1.1716  0.8473
    1SOL    HW3 8259   2.356   2.799   3.492 -0.7128  0.9854  0.2689
    1SOL    MW4 8260   2.422   2.850   3.518 -0.2542  0.5257  0.0186
    1SOL     OW 8261   2.446   3.055   3.357 -0.2225  0.0177  0.0163
    1SOL    HW2 8262   2.524   3.089   3.400  0.4012  0.5544 -1.5211
    1SOL    HW3 8263   2.463   3.065   3.264 -1.5987 -1.0476 -0.3703
    1SOL    MW4 8264   2.459   3.061   3.351 -0.3219 -0.0520 -0.2375
    1SOL     OW 8265   2.258   3.253   3.426 -0.4579 -0.2151 -0.5624
    1SOL    HW2 8266   2.277   3.253   3.519 -0.4650 -1.5448 -0.5604
    1SOL    HW3 8267   2.322   3.194   3.387 -0.3817  0.4068 -1.4197
    1SOL    MW4 8268   2.269   3.245   3.433 -0.4489 -0.3085 -0.6754
    1SOL     OW 8269   2.235   3.518   3.333 -0.0319  0.2446 -0.1597
    1SOL    HW2 8270   2.234   3.425   3.354 -1.6304  0.6183  1.4794
    1SOL    HW3 8271   2.217   3.522   3.239  0.5178 -1.1051 -0.3259
    1SOL    MW4 8272   2.233   3.507   3.323 -0.1705  0.1161  0.0348
    1SOL     OW 8273   2.466   3.627   3.481 -0.0362 -0.2984 -0.5811
    1SOL    HW2 8274   2.495   3.715   3.456  1.2253 -0.6554 -0.4235
    1SOL    HW3 8275   2.404   3.602   3.412  0.3735  0.3155 -1.1857
    1SOL    MW4 8276   2.462   3.635   3.468  0.1843 -0.2646 -0.6402
    1SOL     OW 8277   2.499   3.891   3.386  0.4713 -0.3693 -0.2097
    1SOL    HW2 8278   2.566   3.948   3.424  1.2392 -1.4014  0.0439
    1SOL    HW3 8279   2.417   3.921   3.424  0.9062  0.3598  0.1661
    1SOL    MW4 8280   2.497   3.902   3.396  0.6297 -0.4094 -0.1268
    1SOL     OW 8281   2.269   4.007   3.507 -0.5576 -0.0391  0.5041
    1SOL    HW2 8282   2.257   4.094   3.469 -1.7388 -0.3743  0.0654
    1SOL    HW3 8283   2.187   3.962   3.488 -0.3684 -0.8968  1.6621
    1SOL    MW4 8284   2.256   4.013   3.499 -0.6886 -0.1969  0.5987
    1SOL     OW 8285   2.247   4.260   3.376 -0.5633  0.4812  0.4726
    1SOL    HW2 8286   2.166   4.287   3.419 -0.5408  0.5954  0.4458
    1SOL    HW3 8287   2.223   4.245   3.285 -0.9926 -1.5890  0.9097
    1SOL    MW4 8288   2.233   4.262   3.370 -0.6170  0.2232  0.5269
    1SOL     OW 8289   2.455   4.386   3.489 -0.3175  0.3939 -0.0564
    1SOL    HW2 8290   2.440   4.355   3.579 -0.1372  0.2521 -0.0740
    1SOL    HW3 8291   2.380   4.353   3.440 -0.6040  0.7878  0.1180
    1SOL    MW4 8292   2.443   4.377   3.494 -0.3314  0.4272 -0.0358
    1SOL     OW 8293   2.896   4.585   3.399  0.4549  0.1968 -0.6071
    1SOL    HW2 8294   2.819   4.635   3.428  0.1076 -1.1564  0.8687
    1SOL    HW3 8295   2.885   4.576   3.305 -0.7696  0.7339 -0.5231
    1SOL    MW4 8296   2.884   4.591   3.391  0.2477  0.0892 -0.4013
    1SOL     OW 8297   2.678   0.096   3.492  0.0695 -0.1709  0.1240
    1SOL    HW2 8298   2.674   0.098   3.587 -0.6521  2.2543  0.0564
    1SOL    HW3 8299   2.591   0.067   3.465 -0.0008 -0.0132  0.1804
    1SOL    MW4 8300   2.666   0.092   3.501 -0.0350  0.1699  0.1223
    1SOL     OW 8301   2.688   0.342   3.373  0.2034  0.7337 -0.0294
    1SOL    HW2 8302   2.768   0.384   3.405  1.0457 -0.4541 -0.5742
    1SOL    HW3 8303   2.688   0.256   3.414 -0.4858  0.4990 -0.5133
    1SOL    MW4 8304   2.699   0.336   3.383  0.2234  0.5460 -0.1650
    1SOL     OW 8305   2.925   0.475   3.483  0.1909 -0.4280 -0.3713
    1SOL    HW2 8306   2.932   0.492   3.577 -0.1117 -0.8621 -0.2675
    1SOL    HW3 8307   2.915   0.561   3.443  0.9897 -0.1974 -0.0642
    1SOL    MW4 8308   2.925   0.488   3.490  0.2563 -0.4548 -0.3171
    1SOL     OW 8309   2.923   0.729   3.392 -0.4679 -0.3050 -0.3888
    1SOL    HW2 8310   2.997   0.784   3.417 -0.8450  0.6449 -1.3727
    1SOL    HW3 8311   2.847   0.775   3.427 -0.6823 -0.8085 -0.1885
    1SOL    MW4 8312   2.923   0.742   3.400 -0.5460 -0.2460 -0.4926
    1SOL     OW 8313   2.700   0.877   3.470  0.3811  0.0507  0.5652
    1SOL    HW2 8314   2.690   0.876   3.565 -0.0576  0.7434  0.5307
    1SOL    HW3 8315   2.714   0.969   3.449  0.5140 -0.1080 -0.0394
    1SOL    MW4 8316   2.700   0.889   3.480  0.3407  0.1212  0.4809
    1SOL     OW 8317   2.716   1.142   3.388  0.6287 -0.4092 -0.1075
    1SOL    HW2 8318   2.779   1.213   3.396 -0.1629  0.1803  0.9793
    1SOL    HW3 8319   2.714   1.121   3.295  1.2521  0.6362 -0.3508
    1SOL    MW4 8320   2.724   1.148   3.377  0.6065 -0.1935  0.0041
    1SOL     OW 8321   2.941   1.288   3.479  0.3374 -0.1805 -0.0812
    1SOL    HW2 8322   2.928   1.275   3.573  2.9315 -0.9710  0.2056
    1SOL    HW3 8323   3.020   1.238   3.459  0.6917  1.2533 -2.3821
    1SOL    MW4 8324   2.950   1.280   3.489  0.7262 -0.0955 -0.3469
    1SOL     OW 8325   2.954   1.557   3.392  0.4367 -0.6018 -0.1390
    1SOL    HW2 8326   2.881   1.596   3.439  2.0903  1.6493  0.6693
    1SOL    HW3 8327   2.953   1.465   3.418 -1.1295 -0.2426  1.1058
    1SOL    MW4 8328   2.945   1.550   3.402  0.4480 -0.2574  0.1321
    1SOL     OW 8329   2.726   1.647   3.517  0.3090  0.1481  0.0795
    1SOL    HW2 8330   2.737   1.729   3.467  1.2361 -0.2910 -0.4583
    1SOL    HW3 8331   2.653   1.602   3.473  0.6528  0.0915 -0.4379
    1SOL    MW4 8332   2.718   1.652   3.504  0.4768  0.0829 -0.0596
    1SOL     OW 8333   2.703   1.894   3.373 -0.3569 -0.3091 -0.1956
    1SOL    HW2 8334   2.624   1.939   3.401  0.6776  1.8451 -0.6173
    1SOL    HW3 8335   2.696   1.890   3.277 -0.0203 -0.2155 -0.2257
    1SOL    MW4 8336   2.692   1.899   3.364 -0.1760 -0.0125 -0.2551
    1SOL     OW 8337   2.927   2.065   3.487  0.1742  0.2757 -0.4372
    1SOL    HW2 8338   2.905   2.054   3.580  0.6545  3.0069  0.0123
    1SOL    HW3 8339   2.852   2.026   3.441 -0.1031 -1.0365  1.0539
    1SOL    MW4 8340   2.914   2.058   3.493  0.2012  0.4630 -0.1812
    1SOL     OW 8341   2.910   2.315   3.399  0.1442  0.1457 -0.0152
    1SOL    HW2 8342   2.917   2.228   3.437  0.8596  1.3445  2.7679
    1SOL    HW3 8343   2.918   2.302   3.305  1.5213 -2.6338  0.4549
    1SOL    MW4 8344   2.912   2.302   3.391  0.4203 -0.0632  0.4141
    1SOL     OW 8345   2.672   2.477   3.472  0.0432 -0.1422 -0.4636
    1SOL    HW2 8346   2.671   2.457   3.566  0.3285 -1.4949 -0.7275
    1SOL    HW3 8347   2.757   2.443   3.441  0.8416  2.1289 -0.8439
    1SOL    MW4 8348   2.683   2.470   3.480  0.1860 -0.0212 -0.5486
    1SOL     OW 8349   2.653   2.745   3.430  0.0693  0.3642 -0.3410
    1SOL    HW2 8350   2.656   2.651   3.452 -0.0230  0.1612 -1.1758
    1SOL    HW3 8351   2.576   2.778   3.477  0.3078  0.0961  0.2410
    1SOL    MW4 8352   2.643   2.737   3.439  0.0887  0.3021 -0.3743
    1SOL     OW 8353   2.917   2.791   3.518  0.5515 -0.4699  0.3752
    1SOL    HW2 8354   2.936   2.804   3.611  0.8416  0.1184  0.2372
    1SOL    HW3 8355   2.824   2.769   3.515  0.5826 -0.6514  0.8204
    1SOL    MW4 8356   2.908   2.790   3.530  0.5941 -0.4163  0.4158
    1SOL     OW 8357   2.933   3.053   3.419  0.2317  0.3742 -0.0962
    1SOL    HW2 8358   2.921   2.962   3.444 -1.7953  0.6967  0.1947
    1SOL    HW3 8359   2.926   3.053   3.323 -0.0804  0.2646 -0.0736
    1SOL    MW4 8360   2.930   3.041   3.409 -0.0768  0.4022 -0.0546
    1SOL     OW 8361   2.694   3.196   3.466  0.2829  0.1924 -0.2283
    1SOL    HW2 8362   2.683   3.192   3.561 -0.5569  0.5347 -0.3108
    1SOL    HW3 8363   2.782   3.161   3.451 -0.1743 -1.3396  0.5438
    1SOL    MW4 8364   2.704   3.191   3.477  0.1118  0.0353 -0.1371
    1SOL     OW 8365   2.702   3.470   3.370  0.5808  0.2109  0.4327
    1SOL    HW2 8366   2.683   3.382   3.402 -0.6785  0.3292  0.0530
    1SOL    HW3 8367   2.635   3.525   3.410 -0.5734  0.4886 -1.7509
    1SOL    MW4 8368   2.690   3.466   3.379  0.2625  0.2635  0.0944
    1SOL     OW 8369   2.919   3.596   3.492 -0.0566 -0.4069  0.2922
    1SOL    HW2 8370   2.921   3.679   3.444  1.6596 -0.3899  0.3612
    1SOL    HW3 8371   2.854   3.544   3.446 -0.6967  0.7464 -0.1357
    1SOL    MW4 8372   2.911   3.600   3.479  0.0856 -0.2527  0.2446
    1SOL     OW 8373   2.943   3.855   3.393  0.0176 -0.1961  0.1865
    1SOL    HW2 8374   3.024   3.901   3.416 -0.1979  1.3142 -1.9663
    1SOL    HW3 8375   2.874   3.904   3.436  0.1060 -0.7033  0.9230
    1SOL    MW4 8376   2.945   3.867   3.402  0.0010 -0.0639 -0.0005
    1SOL     OW 8377   2.717   4.001   3.514  0.5052 -0.0317  0.0598
    1SOL    HW2 8378   2.715   3.997   3.609  2.5829  0.7749  0.1636
    1SOL    HW3 8379   2.706   4.094   3.493  1.3634 -0.0310 -0.4235
    1SOL    MW4 8380   2.716   4.013   3.523  0.8926  0.0744  0.0098
    1SOL     OW 8381   2.681   4.240   3.385  0.5234  0.4242  0.3536
    1SOL    HW2 8382   2.755   4.271   3.437  0.3168  0.1918  0.7789
    1SOL    HW3 8383   2.607   4.293   3.415  0.4306  0.3754  0.2104
    1SOL    MW4 8384   2.681   4.251   3.396  0.4840  0.3877  0.3910
    1SOL     OW 8385   2.904   4.329   3.525 -0.1162 -0.3298 -0.0887
    1SOL    HW2 8386   2.911   4.336   3.620  0.6878 -1.6453 -0.0453
    1SOL    HW3 8387   2.921   4.417   3.493 -0.7446  0.2001  1.0028
    1SOL    MW4 8388   2.907   4.342   3.533 -0.0932 -0.4334  0.0608
    1SOL     OW 8389   3.353   0.009   3.370  0.6003  0.1426  0.4292
    1SOL    HW2 8390   3.264   0.007   3.407  0.8564 -0.4981  1.0187
    1SOL    HW3 8391   3.340   0.017   3.276 -0.1072 -1.0651  0.4156
    1SOL    MW4 8392   3.339   0.010   3.363  0.5410 -0.1013  0.5050
    1SOL     OW 8393   3.121   0.046   3.491  0.2913  0.2637  0.5149
    1SOL    HW2 8394   3.109   0.134   3.456 -0.3825  0.3054  0.8448
    1SOL    HW3 8395   3.035   0.004   3.482  1.1814 -1.1296 -1.7637
    1SOL    MW4 8396   3.108   0.052   3.485  0.3197  0.0854  0.2580
    1SOL     OW 8397   3.149   0.327   3.409 -0.0719 -0.0098 -0.2716
    1SOL    HW2 8398   3.080   0.389   3.435 -3.1481 -3.0630 -0.8082
    1SOL    HW3 8399   3.152   0.334   3.314  0.9331  0.6762 -0.1937
    1SOL    MW4 8400   3.140   0.336   3.400 -0.3452 -0.3222 -0.3321
    1SOL     OW 8401   3.332   0.515   3.514  0.2278  0.0826 -0.0999
    1SOL    HW2 8402   3.314   0.509   3.608 -2.6539  2.2237 -0.4590
    1SOL    HW3 8403   3.276   0.448   3.474  0.1907  0.3116 -0.4375
    1SOL    MW4 8404   3.322   0.505   3.521 -0.1571  0.3952 -0.1917
    1SOL     OW 8405   3.367   0.738   3.378  0.2917  0.2696  0.3282
    1SOL    HW2 8406   3.439   0.783   3.423 -0.3722  1.1090  0.5874
    1SOL    HW3 8407   3.365   0.651   3.418  1.2973  0.1623  0.1612
    1SOL    MW4 8408   3.376   0.733   3.389  0.3366  0.3662  0.3405
    1SOL     OW 8409   3.144   0.875   3.482  0.0631  0.1021  0.2459
    1SOL    HW2 8410   3.142   0.961   3.441 -1.1875 -0.3185 -0.6164
    1SOL    HW3 8411   3.221   0.832   3.444  0.1632  0.5139 -0.0142
    1SOL    MW4 8412   3.154   0.881   3.472 -0.0887  0.1010  0.0978
    1SOL     OW 8413   3.146   1.128   3.394 -0.2971  0.0540 -0.1056
    1SOL    HW2 8414   3.232   1.161   3.419 -0.9569  0.6181  1.4741
    1SOL    HW3 8415   3.148   1.125   3.298  0.2410  3.4209 -0.2472
    1SOL    MW4 8416   3.157   1.132   3.384 -0.3133  0.5727  0.0842
    1SOL     OW 8417   3.380   1.263   3.468  0.2418  0.3062 -0.2212
    1SOL    HW2 8418   3.463   1.222   3.444  1.2353  1.2890  1.4145
    1SOL    HW3 8419   3.390   1.354   3.442 -0.4777  0.3504 -0.3565
    1SOL    MW4 8420   3.392   1.270   3.461  0.2780  0.4416 -0.0231
    1SOL     OW 8421   3.392   1.547   3.409 -0.4345  0.4313  0.4810
    1SOL    HW2 8422   3.477   1.590   3.418 -0.6331  0.9572 -0.1410
    1SOL    HW3 8423   3.331   1.602   3.459 -0.9186  1.5661 -1.3068
    1SOL    MW4 8424   3.395   1.560   3.417 -0.5248  0.6504  0.1631
    1SOL     OW 8425   3.169   1.705   3.488  0.3700  0.7220  0.1637
    1SOL    HW2 8426   3.169   1.783   3.432  2.4281  0.6700  0.0346
    1SOL    HW3 8427   3.094   1.654   3.459  0.6231  1.3535 -1.6372
    1SOL    MW4 8428   3.159   1.709   3.477  0.6750  0.7983 -0.0913
    1SOL     OW 8429   3.140   1.956   3.337  0.4769  0.1380  0.0584
    1SOL    HW2 8430   3.058   1.993   3.370  0.4543  0.5517 -0.4714
    1SOL    HW3 8431   3.206   1.985   3.400  0.3744  0.6390 -0.0619
    1SOL    MW4 8432   3.138   1.965   3.350  0.4604  0.2587 -0.0274
    1SOL     OW 8433   3.358   2.040   3.513 -0.1754  0.1414  0.0682
    1SOL    HW2 8434   3.358   2.120   3.461 -2.0503  0.4801  0.5702
    1SOL    HW3 8435   3.369   2.069   3.603  0.7284 -0.2799  0.0983
    1SOL    MW4 8436   3.359   2.054   3.518 -0.3033  0.1307  0.1383
    1SOL     OW 8437   3.310   2.324   3.392  0.0780  0.1653 -0.1189
    1SOL    HW2 8438   3.385   2.364   3.438  0.6431 -1.5296  0.4642
    1SOL    HW3 8439   3.234   2.351   3.444  0.6653 -1.3368  1.5719
    1SOL    MW4 8440   3.310   2.333   3.405  0.2303 -0.2565  0.1807
    1SOL     OW 8441   3.112   2.439   3.536 -0.3446 -0.8186  0.4398
    1SOL    HW2 8442   3.120   2.519   3.484 -0.1539 -1.6328 -0.7974
    1SOL    HW3 8443   3.042   2.389   3.494 -0.3839 -1.3682  1.1358
    1SOL    MW4 8444   3.104   2.443   3.524 -0.3245 -0.9987  0.3686
    1SOL     OW 8445   3.125   2.672   3.390 -0.1394 -0.2265 -0.3166
    1SOL    HW2 8446   3.200   2.714   3.432  0.8664 -0.6306 -1.6673
    1SOL    HW3 8447   3.049   2.718   3.426  0.7846  0.6973  0.5063
    1SOL    MW4 8448   3.125   2.684   3.400  0.1152 -0.1578 -0.3860
    1SOL     OW 8449   3.329   2.820   3.484  0.3647  0.7032 -0.5325
    1SOL    HW2 8450   3.348   2.838   3.576 -1.1919  1.1393 -0.2732
    1SOL    HW3 8451   3.325   2.906   3.443  1.9784  0.4681 -1.2178
    1SOL    MW4 8452   3.331   2.834   3.491  0.3724  0.7296 -0.5884
    1SOL     OW 8453   3.360   3.092   3.385  0.4325  0.3022  0.4959
    1SOL    HW2 8454   3.448   3.115   3.414  0.6964 -0.3824  0.2661
    1SOL    HW3 8455   3.302   3.156   3.427  1.0761  0.9844  0.3514
    1SOL    MW4 8456   3.364   3.103   3.394  0.5522  0.3018  0.4466
    1SOL     OW 8457   3.161   3.242   3.471  0.1277 -0.4128  0.2441
    1SOL    HW2 8458   3.147   3.334   3.447 -0.1243 -1.1266 -2.4005
    1SOL    HW3 8459   3.085   3.196   3.437  0.6801 -1.7447  0.7766
    1SOL    MW4 8460   3.149   3.248   3.464  0.1676 -0.6826 -0.0346
    1SOL     OW 8461   3.146   3.504   3.360  0.2799 -0.2169  0.2179
    1SOL    HW2 8462   3.074   3.547   3.408  0.0414 -0.2828 -0.0789
    1SOL    HW3 8463   3.129   3.524   3.268 -0.2396 -1.5569  0.0125
    1SOL    MW4 8464   3.134   3.512   3.354  0.1800 -0.4025  0.1516
    1SOL     OW 8465   3.357   3.633   3.483  0.1099 -0.3931 -0.1365
    1SOL    HW2 8466   3.380   3.713   3.434  0.2610 -0.9436 -0.9740
    1SOL    HW3 8467   3.291   3.590   3.429 -0.4620 -0.5026  0.6484
    1SOL    MW4 8468   3.352   3.638   3.469  0.0546 -0.4804 -0.1435
    1SOL     OW 8469   3.408   3.896   3.400 -0.0333  0.0339  0.1206
    1SOL    HW2 8470   3.483   3.949   3.425 -0.2796 -0.1543  1.3234
    1SOL    HW3 8471   3.334   3.935   3.448 -0.2691 -1.1953  0.7939
    1SOL    MW4 8472   3.408   3.908   3.410 -0.0966 -0.1531  0.3681
    1SOL     OW 8473   3.165   3.995   3.500 -0.2695 -0.3308 -0.2532
    1SOL    HW2 8474   3.138   3.990   3.592  0.4220 -0.4629 -0.0580
    1SOL    HW3 8475   3.167   4.089   3.481  0.1688 -0.2826  0.0359
    1SOL    MW4 8476   3.161   4.007   3.510 -0.1204 -0.3419 -0.1893
    1SOL     OW 8477   3.152   4.264   3.416  0.6825 -0.3409 -0.2136
    1SOL    HW2 8478   3.217   4.329   3.441  0.4366 -0.1863  0.0315
    1SOL    HW3 8479   3.075   4.286   3.469  0.3891 -0.4390 -0.5969
    1SOL    MW4 8480   3.150   4.276   3.427  0.6113 -0.3338 -0.2315
    1SOL     OW 8481   3.361   4.416   3.492  0.0620 -0.2404  0.2800
    1SOL    HW2 8482   3.375   4.422   3.587 -0.8252  0.4299  0.3756
    1SOL    HW3 8483   3.366   4.507   3.462 -1.4175 -0.2636 -0.0555
    1SOL    MW4 8484   3.364   4.429   3.501 -0.2501 -0.1554  0.2484
    1SOL     OW 8485   3.795   0.005   3.420 -0.0988  0.2772 -0.1370
    1SOL    HW2 8486   3.719   0.054   3.450 -1.6518 -1.7991 -0.4968
    1SOL    HW3 8487   3.787   0.005   3.324  0.5248  0.3135 -0.1890
    1SOL    MW4 8488   3.784   0.011   3.411 -0.2215  0.0080 -0.1912
    1SOL     OW 8489   3.549   0.141   3.501 -0.3249 -0.2444  0.1107
    1SOL    HW2 8490   3.545   0.229   3.464  1.3034 -0.5878 -0.8967
    1SOL    HW3 8491   3.474   0.096   3.462 -0.5197  0.3579 -0.2215
    1SOL    MW4 8492   3.538   0.147   3.491 -0.1359 -0.2102 -0.0660
    1SOL     OW 8493   3.548   0.389   3.425 -0.1929 -0.3227  0.0391
    1SOL    HW2 8494   3.632   0.423   3.457 -0.1542 -1.0179  0.6877
    1SOL    HW3 8495   3.483   0.451   3.459 -0.0779 -0.6281  0.8386
    1SOL    MW4 8496   3.550   0.402   3.434 -0.1729 -0.4547  0.2303
    1SOL     OW 8497   3.786   0.519   3.507  0.3122 -0.4274  0.1617
    1SOL    HW2 8498   3.793   0.537   3.601  2.4282  0.7242 -0.1804
    1SOL    HW3 8499   3.865   0.470   3.486  0.9044  1.1751 -1.4173
    1SOL    MW4 8500   3.797   0.515   3.517  0.6692 -0.0640 -0.0916
    1SOL     OW 8501   3.814   0.756   3.379  0.3962  0.2568  0.1080
    1SOL    HW2 8502   3.884   0.793   3.433  0.7136 -0.9618  0.5315
    1SOL    HW3 8503   3.811   0.664   3.403 -0.4415  0.0153 -0.9066
    1SOL    MW4 8504   3.823   0.749   3.389  0.3276  0.0641  0.0298
    1SOL     OW 8505   3.586   0.864   3.490 -0.2735  0.2994  0.0736
    1SOL    HW2 8506   3.604   0.860   3.585  1.0953 -0.3145 -0.1932
    1SOL    HW3 8507   3.663   0.824   3.450 -0.8625  0.5324 -1.3102
    1SOL    MW4 8508   3.599   0.858   3.498 -0.1705  0.2491 -0.1442
    1SOL     OW 8509   3.606   1.131   3.386 -0.2288 -0.5120  0.3169
    1SOL    HW2 8510   3.598   1.040   3.412 -0.3802 -0.5974 -0.0266
    1SOL    HW3 8511   3.611   1.128   3.290 -0.5614 -0.1366  0.2893
    1SOL    MW4 8512   3.606   1.119   3.377 -0.2923 -0.4739  0.2680
    1SOL     OW 8513   3.827   1.289   3.468 -0.0648  0.4905 -0.3214
    1SOL    HW2 8514   3.833   1.286   3.564  1.3259 -0.5829 -0.4332
    1SOL    HW3 8515   3.747   1.240   3.448  0.3645 -0.4382  0.2152
    1SOL    MW4 8516   3.817   1.282   3.478  0.1752  0.2264 -0.2651
    1SOL     OW 8517   3.863   1.564   3.405 -0.7073 -0.4195  0.2416
    1SOL    HW2 8518   3.939   1.603   3.447 -1.4022  0.2438  0.9140
    1SOL    HW3 8519   3.865   1.472   3.431  0.7683 -0.7795 -1.0992
    1SOL    MW4 8520   3.873   1.557   3.414 -0.6042 -0.3794  0.1533
    1SOL     OW 8521   3.625   1.668   3.511 -0.5801 -0.2760  0.1254
    1SOL    HW2 8522   3.629   1.758   3.480 -2.0430 -0.3155 -0.2485
    1SOL    HW3 8523   3.710   1.630   3.488  0.2741  1.1661  0.8336
    1SOL    MW4 8524   3.637   1.675   3.504 -0.6599 -0.0908  0.1695
    1SOL     OW 8525   3.588   1.919   3.413 -0.6330 -0.1967 -0.3344
    1SOL    HW2 8526   3.649   1.983   3.450 -0.7876  0.8110 -1.7941
    1SOL    HW3 8527   3.502   1.948   3.442 -0.8250  1.0145 -2.0239
    1SOL    MW4 8528   3.585   1.931   3.422 -0.6788  0.0961 -0.7498
    1SOL     OW 8529   3.774   2.082   3.530 -0.1134 -0.3316  0.3191
    1SOL    HW2 8530   3.787   2.069   3.624  1.3585  1.6990  0.4250
    1SOL    HW3 8531   3.846   2.034   3.488 -0.0841 -0.2593  0.2863
    1SOL    MW4 8532   3.785   2.074   3.537  0.0846 -0.0541  0.3288
    1SOL     OW 8533   3.764   2.337   3.398 -0.1089 -0.2513  0.0511
    1SOL    HW2 8534   3.846   2.371   3.436 -1.1496  1.1348  1.0965
    1SOL    HW3 8535   3.750   2.253   3.442 -0.7739  0.8734  2.0610
    1SOL    MW4 8536   3.773   2.331   3.409 -0.3340  0.0801  0.4542
    1SOL     OW 8537   3.536   2.440   3.508  0.4136  0.1764  0.3159
    1SOL    HW2 8538   3.532   2.530   3.475 -1.4481 -0.7904 -2.2514
    1SOL    HW3 8539   3.617   2.404   3.471 -0.1243  0.0354 -0.7360
    1SOL    MW4 8540   3.546   2.447   3.499  0.0970  0.0300 -0.1616
    1SOL     OW 8541   3.563   2.682   3.403  0.0483 -0.1984 -0.3088
    1SOL    HW2 8542   3.636   2.728   3.446  0.0185  1.1494 -1.6573
    1SOL    HW3 8543   3.485   2.728   3.434 -0.0229  0.2718 -1.1619
    1SOL    MW4 8544   3.563   2.694   3.413  0.0350  0.0412 -0.5989
    1SOL     OW 8545   3.782   2.829   3.527  0.2682  0.4849  0.6993
    1SOL    HW2 8546   3.794   2.847   3.620  0.8821  2.1057  0.3057
    1SOL    HW3 8547   3.777   2.915   3.485 -1.4789 -0.2006 -0.5841
    1SOL    MW4 8548   3.783   2.843   3.534  0.1185  0.6084  0.4780
    1SOL     OW 8549   3.804   3.084   3.374 -0.2036 -0.4021  0.5137
    1SOL    HW2 8550   3.889   3.120   3.401  1.1641 -3.1397 -0.0121
    1SOL    HW3 8551   3.815   3.065   3.281 -1.9485  0.6952  0.0563
    1SOL    MW4 8552   3.817   3.086   3.365 -0.2534 -0.6187  0.3839
    1SOL     OW 8553   3.587   3.221   3.500  0.2348  0.1474  0.4440
    1SOL    HW2 8554   3.571   3.296   3.443 -0.7547 -0.9237 -0.6812
    1SOL    HW3 8555   3.657   3.172   3.457 -0.7003 -0.8084 -0.0107
    1SOL    MW4 8556   3.594   3.225   3.487 -0.0191 -0.1199  0.2356
    1SOL     OW 8557   3.583   3.479   3.392 -0.2745  0.3441  0.0342
    1SOL    HW2 8558   3.508   3.522   3.433  0.4272  0.9481  0.7117
    1SOL    HW3 8559   3.570   3.491   3.298 -1.2288  0.0916  0.1328
    1SOL    MW4 8560   3.571   3.487   3.385 -0.3080  0.3905  0.1366
    1SOL     OW 8561   3.814   3.611   3.492  0.5937  0.1104  0.2293
    1SOL    HW2 8562   3.814   3.606   3.587  0.9719 -0.4475  0.1997
    1SOL    HW3 8563   3.730   3.574   3.466 -0.2671  1.8684  0.4244
    1SOL    MW4 8564   3.803   3.606   3.501  0.5300  0.2687  0.2511
    1SOL     OW 8565   3.820   3.868   3.377  0.1373 -0.3319 -0.0877
    1SOL    HW2 8566   3.749   3.913   3.422  0.0240  0.3578 -0.9357
    1SOL    HW3 8567   3.808   3.776   3.399 -1.8686 -0.4070 -1.3212
    1SOL    MW4 8568   3.809   3.862   3.386 -0.1423 -0.2506 -0.3619
    1SOL     OW 8569   3.632   4.021   3.512 -0.0141 -0.3357  0.0980
    1SOL    HW2 8570   3.611   4.013   3.605 -0.3548 -0.7174 -0.0075
    1SOL    HW3 8571   3.614   4.112   3.491 -2.4066 -0.8402 -0.1760
    1SOL    MW4 8572   3.627   4.032   3.522 -0.3748 -0.4525  0.0482
    1SOL     OW 8573   3.567   4.255   3.393  0.0037  0.1225  0.1571
    1SOL    HW2 8574   3.491   4.310   3.412 -2.6020 -3.1715 -0.0757
    1SOL    HW3 8575   3.570   4.250   3.297  1.0831  0.9532  0.1404
    1SOL    MW4 8576   3.557   4.261   3.383 -0.1976 -0.2022  0.1240
    1SOL     OW 8577   3.756   4.410   3.509  0.0725 -0.7107 -0.0498
    1SOL    HW2 8578   3.685   4.375   3.454 -0.0960  0.2439 -0.4368
    1SOL    HW3 8579   3.757   4.504   3.491  1.2105 -0.6645  0.2254
    1SOL    MW4 8580   3.746   4.418   3.499  0.2003 -0.5784 -0.0646
    1SOL     OW 8581   4.259   4.649   3.385  0.3111 -0.2791  0.1853
    1SOL    HW2 8582   4.272   4.567   3.432 -0.8943 -0.8563 -0.4759
    1SOL    HW3 8583   4.322   4.710   3.425  0.5121 -1.2378  1.3475
    1SOL    MW4 8584   4.269   4.646   3.396  0.1793 -0.4821  0.2513
    1SOL     OW 8585   4.044   0.096   3.526 -0.2570  0.0239 -0.0953
    1SOL    HW2 8586   4.112   0.047   3.480  0.1158  1.5509 -1.1853
    1SOL    HW3 8587   3.962   0.064   3.489 -0.2142 -2.1735  1.5592
    1SOL    MW4 8588   4.043   0.085   3.515 -0.2022 -0.0646 -0.0205
    1SOL     OW 8589   4.010   0.369   3.444 -0.3298 -0.2442  0.3275
    1SOL    HW2 8590   4.031   0.278   3.466 -0.0293 -0.0757  0.7472
    1SOL    HW3 8591   3.988   0.366   3.351 -2.8168 -1.1545  0.9086
    1SOL    MW4 8592   4.010   0.357   3.434 -0.6185 -0.3421  0.4597
    1SOL     OW 8593   4.264   0.487   3.507  0.8168  0.0773 -0.2879
    1SOL    HW2 8594   4.246   0.580   3.497  1.4029  0.2165 -0.0870
    1SOL    HW3 8595   4.191   0.443   3.463  0.3597  0.6261 -0.0842
    1SOL    MW4 8596   4.252   0.493   3.500  0.8340  0.1681 -0.2344
    1SOL     OW 8597   4.294   0.762   3.454  0.2112  0.1639  0.3805
    1SOL    HW2 8598   4.371   0.809   3.486  0.1724  1.7176 -1.7349
    1SOL    HW3 8599   4.315   0.737   3.364 -1.4315 -0.1212  0.0481
    1SOL    MW4 8600   4.307   0.765   3.447 -0.0105  0.3312  0.0575
    1SOL     OW 8601   4.036   0.863   3.496  0.1725 -0.2132 -0.2925
    1SOL    HW2 8602   4.021   0.950   3.459 -0.7778 -0.1921  0.1287
    1SOL    HW3 8603   4.126   0.841   3.470  1.0555  1.6460  1.1318
    1SOL    MW4 8604   4.046   0.872   3.487  0.1636  0.0349 -0.0491
    1SOL     OW 8605   4.060   1.136   3.394  0.1095 -0.0869 -0.4215
    1SOL    HW2 8606   4.147   1.144   3.432  1.2370  0.1470 -2.9770
    1SOL    HW3 8607   4.008   1.204   3.437  1.7546  1.2170 -0.4608
    1SOL    MW4 8608   4.064   1.146   3.405  0.4749  0.1161 -0.7637
    1SOL     OW 8609   4.301   1.245   3.504 -0.0319  0.1099 -0.0828
    1SOL    HW2 8610   4.287   1.335   3.476  0.3185  0.2719  0.2639
    1SOL    HW3 8611   4.387   1.222   3.468  1.0357  0.7600  1.9624
    1SOL    MW4 8612   4.311   1.254   3.495  0.1554  0.2171  0.2329
    1SOL     OW 8613   4.290   1.521   3.418 -0.5204  0.2273  0.5372
    1SOL    HW2 8614   4.219   1.581   3.441 -0.1563  1.0307 -0.3676
    1SOL    HW3 8615   4.291   1.521   3.322  0.6881  0.2300  0.5446
    1SOL    MW4 8616   4.281   1.529   3.409 -0.3133  0.3337  0.4189
    1SOL     OW 8617   4.078   1.717   3.504 -0.0997 -0.3085  0.0886
    1SOL    HW2 8618   4.075   1.719   3.599 -0.3490 -0.1880  0.0777
    1SOL    HW3 8619   4.043   1.801   3.477 -0.3648 -0.4852 -0.1184
    1SOL    MW4 8620   4.073   1.728   3.513 -0.1678 -0.3159  0.0601
    1SOL     OW 8621   3.984   1.965   3.411  0.1503 -0.4978 -0.3224
    1SOL    HW2 8622   4.065   2.008   3.438 -0.4222  0.9958 -0.9344
    1SOL    HW3 8623   3.997   1.946   3.318 -0.5934  0.6724 -0.6710
    1SOL    MW4 8624   3.996   1.968   3.403 -0.0234 -0.1464 -0.4492
    1SOL     OW 8625   4.222   2.080   3.492 -0.4010  0.2916 -0.2933
    1SOL    HW2 8626   4.222   2.163   3.443  1.3054 -0.3664 -1.4516
    1SOL    HW3 8627   4.310   2.044   3.478 -1.2601 -1.9163 -0.1212
    1SOL    MW4 8628   4.234   2.086   3.484 -0.2885 -0.0865 -0.4234
    1SOL     OW 8629   4.244   2.325   3.380  0.2754 -0.2635 -0.2585
    1SOL    HW2 8630   4.159   2.361   3.408  0.2152  1.1562 -2.1915
    1SOL    HW3 8631   4.244   2.335   3.285  1.6146 -2.5048 -0.5115
    1SOL    MW4 8632   4.233   2.331   3.371  0.4449 -0.3717 -0.5469
    1SOL     OW 8633   4.012   2.442   3.498 -0.2765  0.0920  0.2881
    1SOL    HW2 8634   4.014   2.467   3.591 -3.5409  0.4076  0.3079
    1SOL    HW3 8635   3.998   2.524   3.451 -1.4824 -0.4213 -0.2778
    1SOL    MW4 8636   4.011   2.456   3.504 -0.8669  0.0658  0.2160
    1SOL     OW 8637   4.000   2.712   3.381  0.3439 -0.6386  0.1714
    1SOL    HW2 8638   4.069   2.753   3.433 -0.1431 -0.4953  0.7110
    1SOL    HW3 8639   3.919   2.754   3.411 -0.0139 -1.0167 -0.2471
    1SOL    MW4 8640   3.998   2.723   3.392  0.2327 -0.6697  0.1874
    1SOL     OW 8641   4.233   2.813   3.509  0.5776  0.0307  0.3759
    1SOL    HW2 8642   4.258   2.825   3.600  0.8663 -0.0048  0.3019
    1SOL    HW3 8643   4.315   2.797   3.463  0.5737  1.3050 -0.0989
    1SOL    MW4 8644   4.247   2.813   3.515  0.6151  0.1943  0.3035
    1SOL     OW 8645   4.304   3.130   3.405  0.1892 -0.1289 -0.1513
    1SOL    HW2 8646   4.303   3.037   3.429 -0.2665 -0.4108 -1.2112
    1SOL    HW3 8647   4.307   3.130   3.309 -0.5837  0.9447 -0.1860
    1SOL    MW4 8648   4.304   3.118   3.396  0.0272 -0.0243 -0.2954
    1SOL     OW 8649   4.055   3.202   3.448  0.0971 -0.6881  0.2663
    1SOL    HW2 8650   4.048   3.293   3.419 -0.3467 -1.1665 -1.1535
    1SOL    HW3 8651   4.144   3.177   3.424 -0.0007 -0.8403  0.0713
    1SOL    MW4 8652   4.066   3.211   3.441  0.0262 -0.7713  0.0532
    1SOL     OW 8653   4.025   3.489   3.360 -0.7704 -0.3882  0.6019
    1SOL    HW2 8654   4.102   3.542   3.381 -1.1687  0.1674  0.6657
    1SOL    HW3 8655   3.956   3.525   3.415 -1.5698  0.4025 -0.9012
    1SOL    MW4 8656   4.026   3.501   3.370 -0.9284 -0.2105  0.4120
    1SOL     OW 8657   4.247   3.614   3.498  0.0091  0.3746 -0.2401
    1SOL    HW2 8658   4.240   3.606   3.593 -0.2158 -0.6066 -0.3373
    1SOL    HW3 8659   4.245   3.708   3.482  1.2944  0.6043  0.8244
    1SOL    MW4 8660   4.246   3.625   3.508  0.1488  0.2754 -0.1125
    1SOL     OW 8661   4.234   3.886   3.433 -0.6340 -0.0487  0.4660
    1SOL    HW2 8662   4.320   3.911   3.467 -0.2859 -0.9592  0.2715
    1SOL    HW3 8663   4.238   3.905   3.340 -0.1006 -1.5068  0.1771
    1SOL    MW4 8664   4.246   3.892   3.425 -0.5183 -0.3612  0.4020
    1SOL     OW 8665   4.008   4.042   3.486 -0.2020 -0.1456  0.1075
    1SOL    HW2 8666   4.082   3.990   3.457  1.0705  0.6948  1.7351
    1SOL    HW3 8667   3.932   3.985   3.475  0.9570 -1.7668  0.3785
    1SOL    MW4 8668   4.008   4.028   3.481  0.1187 -0.2489  0.3579
    1SOL     OW 8669   4.000   4.317   3.431  0.0394  0.1459  0.4458
    1SOL    HW2 8670   3.994   4.223   3.449 -1.8587 -0.2964 -2.1291
    1SOL    HW3 8671   3.915   4.352   3.456 -0.6986  0.4296 -2.2502
    1SOL    MW4 8672   3.988   4.309   3.436 -0.3083  0.1254 -0.2499
    1SOL     OW 8673   4.255   4.393   3.499  0.3786  0.2595 -0.1873
    1SOL    HW2 8674   4.246   4.414   3.592  0.2324  0.9790 -0.3665
    1SOL    HW3 8675   4.168   4.365   3.472  0.7561 -1.4014  0.2502
    1SOL    MW4 8676   4.242   4.392   3.508  0.4096  0.1354 -0.1533
    1SOL     OW 8677   0.176   0.002   3.881  0.3917 -0.1788  0.2013
    1SOL    HW2 8678   0.192   0.015   3.974  1.0248  1.0264 -0.0716
    1SOL    HW3 8679   0.098   0.055   3.863  0.3248 -0.3371  0.0301
    1SOL    MW4 8680   0.168   0.011   3.891  0.4664 -0.0405  0.1428
    1SOL     OW 8681   4.426   0.118   3.787  0.2967 -0.5963 -0.1659
    1SOL    HW2 8682   4.451   0.210   3.797  0.1241 -0.6538  0.8463
    1SOL    HW3 8683   4.433   0.102   3.693  0.1569  0.4966 -0.3741
    1SOL    MW4 8684   4.430   0.128   3.776  0.2561 -0.4597 -0.0598
    1SOL     OW 8685   0.017   0.365   3.870 -0.2451  0.3849  0.2992
    1SOL    HW2 8686  -0.057   0.419   3.842 -0.3761  0.6820  1.1832
    1SOL    HW3 8687   0.095   0.412   3.838 -0.4751 -0.6362 -1.8179
    1SOL    MW4 8688   0.018   0.378   3.862 -0.2928  0.2894  0.1366
    1SOL     OW 8689   0.208   0.538   3.778  0.0518 -0.0967 -0.5038
    1SOL    HW2 8690   0.226   0.624   3.815  1.4410 -0.4138 -0.4452
    1SOL    HW3 8691   0.202   0.554   3.683  2.3826 -0.2553 -0.7102
    1SOL    MW4 8692   0.209   0.552   3.770  0.5426 -0.1596 -0.5233
    1SOL     OW 8693   0.252   0.791   3.884  0.0518 -0.3040  0.0847
    1SOL    HW2 8694   0.239   0.758   3.973  0.0200  2.0777  0.9918
    1SOL    HW3 8695   0.175   0.846   3.867  1.0438  0.8963 -0.6228
    1SOL    MW4 8696   0.240   0.794   3.894  0.1785  0.1685  0.1111
    1SOL     OW 8697   0.012   0.909   3.775  0.2280 -0.0794 -0.2693
    1SOL    HW2 8698  -0.058   0.858   3.816 -0.7138  0.8641 -0.6935
    1SOL    HW3 8699   0.000   0.998   3.809  1.1789  0.1048 -0.4040
    1SOL    MW4 8700   0.002   0.914   3.785  0.2292  0.0694 -0.3433
    1SOL     OW 8701   0.027   1.182   3.862  0.1001  0.7261 -0.0908
    1SOL    HW2 8702  -0.065   1.200   3.848  0.0582  0.2861 -0.4126
    1SOL    HW3 8703   0.034   1.161   3.955 -0.1021  0.8957 -0.0382
    1SOL    MW4 8704   0.016   1.182   3.872  0.0679  0.6905 -0.1261
    1SOL     OW 8705   0.280   1.274   3.769  0.6532  0.0793  0.0765
    1SOL    HW2 8706   0.279   1.366   3.796  2.5992  0.0966  0.0956
    1SOL    HW3 8707   0.204   1.236   3.814 -0.9754  1.9536 -1.0110
    1SOL    MW4 8708   0.270   1.281   3.779  0.6950  0.3289 -0.0644
    1SOL     OW 8709   0.256   1.541   3.845 -0.1639  0.4365  0.1963
    1SOL    HW2 8710   0.242   1.549   3.939  0.6263 -1.1668  0.4752
    1SOL    HW3 8711   0.174   1.570   3.805 -0.6048  0.8349  1.3876
    1SOL    MW4 8712   0.243   1.546   3.852 -0.1178  0.2776  0.3901
    1SOL     OW 8713   0.039   1.637   3.733 -0.1608  0.1455 -0.4170
    1SOL    HW2 8714   0.025   1.725   3.769  1.7656 -0.1414  1.0823
    1SOL    HW3 8715   0.017   1.646   3.640 -1.0645  1.9318 -0.0553
    1SOL    MW4 8716   0.034   1.650   3.725 -0.0258  0.3433 -0.1712
    1SOL     OW 8717   4.472   1.904   3.838 -0.0548  0.0324 -0.0212
    1SOL    HW2 8718   4.455   1.900   3.932 -0.2883  1.0500 -0.0055
    1SOL    HW3 8719   4.412   1.971   3.806  1.0367  0.7314 -0.6574
    1SOL    MW4 8720   4.462   1.913   3.846  0.0582  0.2588 -0.1030
    1SOL     OW 8721   0.250   2.009   3.817  0.4686  0.5683 -0.8901
    1SOL    HW2 8722   0.256   2.103   3.836 -0.8052  0.7861 -1.4875
    1SOL    HW3 8723   0.161   1.985   3.842  0.4259 -0.2385 -1.7725
    1SOL    MW4 8724   0.239   2.019   3.822  0.2950  0.4907 -1.0853
    1SOL     OW 8725   0.237   2.312   3.831  0.7700 -0.5737 -0.0694
    1SOL    HW2 8726   0.234   2.325   3.926  0.8402  1.2066 -0.2911
    1SOL    HW3 8727   0.155   2.350   3.798  0.3335 -1.9969 -0.6295
    1SOL    MW4 8728   0.226   2.319   3.839  0.7217 -0.5267 -0.1726
    1SOL     OW 8729   4.474   2.429   3.786 -0.4786  0.2756 -0.1182
    1SOL    HW2 8730   4.408   2.386   3.841 -0.7664 -0.1930 -0.8140
    1SOL    HW3 8731   4.459   2.522   3.799 -0.4567  0.1717  0.6950
    1SOL    MW4 8732   4.463   2.435   3.795 -0.5140  0.2003 -0.1028
    1SOL     OW 8733   0.007   2.737   3.822 -0.9095  0.0007  0.2204
    1SOL    HW2 8734   0.016   2.727   3.917 -2.2378  4.6761  1.0135
    1SOL    HW3 8735   0.081   2.792   3.796 -1.4728  0.1328 -1.1682
    1SOL    MW4 8736   0.018   2.743   3.831 -1.1590  0.6351  0.1419
    1SOL     OW 8737   0.239   2.886   3.756  0.3637  0.3137  0.3537
    1SOL    HW2 8738   0.316   2.850   3.799  0.8006  0.7878 -0.0126
    1SOL    HW3 8739   0.258   2.877   3.662 -1.3077 -2.2728  0.2242
    1SOL    MW4 8740   0.251   2.880   3.749  0.2008  0.0348  0.2885
    1SOL     OW 8741   0.216   3.133   3.872 -0.9372  0.3573 -0.6495
    1SOL    HW2 8742   0.219   3.132   3.968  0.6377 -0.2138 -0.6957
    1SOL    HW3 8743   0.206   3.041   3.847  0.6580  0.2883 -1.0786
    1SOL    MW4 8744   0.215   3.120   3.882 -0.5189  0.2730 -0.7119
    1SOL     OW 8745   0.029   3.297   3.740 -0.2793 -0.0661 -0.2748
    1SOL    HW2 8746   0.099   3.245   3.778 -0.2411  0.6728  0.6949
    1SOL    HW3 8747   0.045   3.295   3.646 -0.1313 -1.5750 -0.2200
    1SOL    MW4 8748   0.040   3.290   3.733 -0.2547 -0.1678 -0.1395
    1SOL     OW 8749   4.478   3.519   3.893 -0.2093 -0.1548 -0.2130
    1SOL    HW2 8750   4.553   3.570   3.865 -1.3412  1.7078  0.0674
    1SOL    HW3 8751   4.481   3.440   3.839  1.1657  0.5213 -1.1500
    1SOL    MW4 8752   4.488   3.515   3.882 -0.1769  0.1800 -0.2995
    1SOL     OW 8753   0.206   3.641   3.802  0.5945  0.4357  0.1450
    1SOL    HW2 8754   0.286   3.594   3.827  0.5392  0.7663  0.9764
    1SOL    HW3 8755   0.210   3.722   3.853 -1.4421 -0.5803  2.0224
    1SOL    MW4 8756   0.217   3.646   3.812  0.3185  0.3455  0.5023
    1SOL     OW 8757   0.208   3.886   3.927  0.7023  0.0222  0.1328
    1SOL    HW2 8758   0.281   3.938   3.893  1.3014  0.4277  1.9747
    1SOL    HW3 8759   0.225   3.880   4.021 -1.8183  0.3806  0.6306
    1SOL    MW4 8760   0.220   3.892   3.935  0.4488  0.1230  0.4413
    1SOL     OW 8761   0.021   4.000   3.782  0.6443  0.1704 -0.0779
    1SOL    HW2 8762  -0.058   3.953   3.809 -0.2257 -0.1352 -2.9495
    1SOL    HW3 8763   0.093   3.956   3.827 -0.5781 -1.2202  0.5220
    1SOL    MW4 8764   0.020   3.988   3.792  0.3691 -0.0532 -0.3774
    1SOL     OW 8765   4.489   4.277   3.861  0.5378 -0.1318 -0.2922
    1SOL    HW2 8766   4.561   4.313   3.810  0.6678 -1.2133 -0.8837
    1SOL    HW3 8767   4.491   4.183   3.843 -0.1711 -0.3617  0.7513
    1SOL    MW4 8768   4.499   4.269   3.852  0.4616 -0.3052 -0.2325
    1SOL     OW 8769   0.227   4.409   3.756  0.1456  0.6525 -0.5551
    1SOL    HW2 8770   0.310   4.379   3.794  0.3431  0.6475 -0.9892
    1SOL    HW3 8771   0.207   4.489   3.805 -0.4262 -0.2174  0.6620
    1SOL    MW4 8772   0.235   4.416   3.768  0.0962  0.5369 -0.4520
    1SOL     OW 8773   0.641   0.007   3.898 -0.1729  0.3984  0.4470
    1SOL    HW2 8774   0.657  -0.083   3.868 -0.0417  0.7783 -0.6234
    1SOL    HW3 8775   0.570   0.039   3.841  2.7433  2.4965 -2.1873
    1SOL    MW4 8776   0.634  -0.001   3.886  0.2292  0.7253 -0.0417
    1SOL     OW 8777   0.406   0.120   3.766  0.3600  0.0031 -0.0165
    1SOL    HW2 8778   0.390   0.210   3.793  1.0079  0.3099 -0.6445
    1SOL    HW3 8779   0.336   0.070   3.808  0.0775  0.7747  0.4480
    1SOL    MW4 8780   0.394   0.125   3.775  0.4083  0.1454 -0.0381
    1SOL     OW 8781   0.409   0.379   3.850 -0.0782  0.1556 -0.1769
    1SOL    HW2 8782   0.493   0.419   3.828  0.4933 -0.8449  0.1327
    1SOL    HW3 8783   0.344   0.444   3.825  0.7680  0.7642 -0.8233
    1SOL    MW4 8784   0.412   0.393   3.844  0.1089  0.1039 -0.2215
    1SOL     OW 8785   0.669   0.500   3.835  0.6718  0.0800  0.0193
    1SOL    HW2 8786   0.748   0.446   3.840  1.4017  1.0966 -0.3640
    1SOL    HW3 8787   0.700   0.589   3.849 -0.1372  0.6859 -1.8699
    1SOL    MW4 8788   0.684   0.505   3.837  0.6614  0.2940 -0.2806
    1SOL     OW 8789   0.725   0.761   3.862 -0.1358  0.1727  0.3193
    1SOL    HW2 8790   0.803   0.794   3.817 -0.7113  1.4105  0.1928
    1SOL    HW3 8791   0.652   0.811   3.823 -0.7873  0.3158  1.6878
    1SOL    MW4 8792   0.725   0.772   3.851 -0.2976  0.3549  0.4828
    1SOL     OW 8793   0.510   0.914   3.764 -0.0593 -0.0637  0.0070
    1SOL    HW2 8794   0.517   1.002   3.799  1.8225 -0.5455  0.9223
    1SOL    HW3 8795   0.432   0.877   3.805 -0.9425  1.2048 -0.5052
    1SOL    MW4 8796   0.501   0.921   3.774  0.0724  0.0401  0.0598
    1SOL     OW 8797   0.523   1.171   3.868  0.2265  0.4078 -0.0237
    1SOL    HW2 8798   0.593   1.229   3.837  0.3544  0.0926 -0.3313
    1SOL    HW3 8799   0.443   1.209   3.831  0.2060  0.9068  0.5290
    1SOL    MW4 8800   0.522   1.184   3.859  0.2406  0.4321  0.0086
    1SOL     OW 8801   0.759   1.304   3.812 -0.3145  0.2352 -0.0530
    1SOL    HW2 8802   0.813   1.226   3.826 -0.2447  0.4493  0.9340
    1SOL    HW3 8803   0.756   1.315   3.717  0.9054 -0.1204 -0.1410
    1SOL    MW4 8804   0.766   1.295   3.801 -0.1442  0.2165  0.0653
    1SOL     OW 8805   0.745   1.583   3.912  0.1250  0.0645  0.0458
    1SOL    HW2 8806   0.831   1.623   3.900  0.7164 -1.0181  0.6334
    1SOL    HW3 8807   0.760   1.489   3.902 -0.8227 -0.2066  1.0665
    1SOL    MW4 8808   0.758   1.576   3.909  0.0780 -0.1141  0.2580
    1SOL     OW 8809   0.497   1.628   3.753 -0.1720  0.0447 -0.4717
    1SOL    HW2 8810   0.574   1.597   3.802 -0.0239  1.2855  0.0989
    1SOL    HW3 8811   0.424   1.579   3.790 -0.0502  0.8992  0.9441
    1SOL    MW4 8812   0.498   1.618   3.764 -0.1364  0.3211 -0.2096
    1SOL     OW 8813   0.476   1.870   3.886  0.4867  0.0655  0.3200
    1SOL    HW2 8814   0.484   1.785   3.842  1.0250  0.0477  0.4471
    1SOL    HW3 8815   0.388   1.900   3.864  0.1063 -0.7557  0.6805
    1SOL    MW4 8816   0.466   1.863   3.878  0.5075 -0.0451  0.3843
    1SOL     OW 8817   0.682   2.060   3.803 -0.0406  0.1332  0.8212
    1SOL    HW2 8818   0.679   2.152   3.830  0.0664  0.7502 -1.1695
    1SOL    HW3 8819   0.611   2.018   3.853  0.0257  1.2479  1.8733
    1SOL    MW4 8820   0.672   2.066   3.813 -0.0177  0.3617  0.6979
    1SOL     OW 8821   0.679   2.336   3.874 -0.1295  0.4239  0.1195
    1SOL    HW2 8822   0.759   2.369   3.833  0.6044 -0.2113  1.0183
    1SOL    HW3 8823   0.608   2.374   3.822  0.7567  0.6925 -0.9174
    1SOL    MW4 8824   0.680   2.345   3.861  0.0842  0.3753  0.1011
    1SOL     OW 8825   0.466   2.457   3.751 -0.2250 -0.0828 -0.0861
    1SOL    HW2 8826   0.385   2.412   3.773 -0.2397 -0.4903 -0.9608
    1SOL    HW3 8827   0.489   2.425   3.664  0.1836  1.0129 -0.3882
    1SOL    MW4 8828   0.458   2.447   3.743 -0.1731  0.0081 -0.2413
    1SOL     OW 8829   0.452   2.718   3.855 -0.3695  0.7531  0.1623
    1SOL    HW2 8830   0.534   2.768   3.846 -0.1812  0.6786  1.2994
    1SOL    HW3 8831   0.466   2.639   3.804 -0.1791  1.2753 -0.6067
    1SOL    MW4 8832   0.465   2.714   3.847 -0.3196  0.8118  0.2108
    1SOL     OW 8833   0.705   2.837   3.775  0.1802 -0.4208 -0.1369
    1SOL    HW2 8834   0.785   2.785   3.783  1.2198  0.8319 -1.8835
    1SOL    HW3 8835   0.674   2.819   3.686 -0.6620  0.2386  0.0163
    1SOL    MW4 8836   0.712   2.828   3.764  0.2062 -0.1686 -0.3469
    1SOL     OW 8837   0.694   3.107   3.865 -0.0632  0.9248 -0.3748
    1SOL    HW2 8838   0.681   3.109   3.960 -0.0859  0.5130 -0.3669
    1SOL    HW3 8839   0.695   3.014   3.843 -0.7556  1.0276 -0.8696
    1SOL    MW4 8840   0.692   3.095   3.875 -0.1575  0.8841 -0.4389
    1SOL     OW 8841   0.460   3.215   3.756 -0.3981 -0.0733  0.2047
    1SOL    HW2 8842   0.539   3.174   3.790 -0.8047 -0.8336  0.2437
    1SOL    HW3 8843   0.390   3.182   3.813 -0.7946  0.3177 -0.0491
    1SOL    MW4 8844   0.461   3.205   3.768 -0.5040 -0.1218  0.1762
    1SOL     OW 8845   0.442   3.487   3.844 -0.0456  0.0420  0.6906
    1SOL    HW2 8846   0.520   3.520   3.800  0.5498  0.2527  1.8644
    1SOL    HW3 8847   0.430   3.399   3.809 -0.0720  0.5055 -0.4864
    1SOL    MW4 8848   0.451   3.480   3.834  0.0295  0.1309  0.6905
    1SOL     OW 8849   0.682   3.595   3.755  0.0773  1.0163 -0.4212
    1SOL    HW2 8850   0.676   3.687   3.781 -1.8033  1.0308 -0.8500
    1SOL    HW3 8851   0.668   3.596   3.660 -0.5195  0.2286 -0.3482
    1SOL    MW4 8852   0.680   3.607   3.746 -0.2495  0.9141 -0.4680
    1SOL     OW 8853   0.659   3.859   3.858 -0.1321  0.3616 -0.6078
    1SOL    HW2 8854   0.686   3.845   3.948 -0.0387  1.2666 -0.4899
    1SOL    HW3 8855   0.725   3.918   3.821  0.2583 -0.6134 -1.4927
    1SOL    MW4 8856   0.671   3.865   3.865 -0.0684  0.3521 -0.7086
    1SOL     OW 8857   0.442   4.023   3.810  0.1605 -0.1425  0.5444
    1SOL    HW2 8858   0.517   3.972   3.838 -0.2098 -0.8847  0.2088
    1SOL    HW3 8859   0.443   4.018   3.715  0.9055  1.6252  0.4526
    1SOL    MW4 8860   0.452   4.016   3.801  0.2100 -0.0072  0.4880
    1SOL     OW 8861   0.467   4.302   3.869 -0.0234 -0.1943  0.1625
    1SOL    HW2 8862   0.548   4.331   3.828  0.2782 -0.5878  0.4755
    1SOL    HW3 8863   0.463   4.208   3.852 -1.3150  0.1190 -1.3827
    1SOL    MW4 8864   0.477   4.294   3.862 -0.1540 -0.2050 -0.0002
    1SOL     OW 8865   0.707   4.429   3.788  0.4179 -0.0535 -0.0902
    1SOL    HW2 8866   0.778   4.370   3.812 -1.1240 -1.8119  0.2375
    1SOL    HW3 8867   0.707   4.429   3.692  1.0086  0.1497 -0.0912
    1SOL    MW4 8868   0.716   4.421   3.778  0.2924 -0.2584 -0.0474
    1SOL     OW 8869   1.120   4.635   3.873 -0.1606 -0.1530 -0.3511
    1SOL    HW2 8870   1.194   4.684   3.836 -0.8220  0.0422 -1.4678
    1SOL    HW3 8871   1.119   4.553   3.824 -1.1471  0.1705 -0.8909
    1SOL    MW4 8872   1.130   4.631   3.861 -0.3781 -0.0844 -0.5696
    1SOL     OW 8873   0.884   0.069   3.795 -0.1556 -0.2683 -0.1182
    1SOL    HW2 8874   0.966   0.024   3.814  0.6879  1.2997  0.0218
    1SOL    HW3 8875   0.826   0.046   3.867  0.9299  0.4840  1.0091
    1SOL    MW4 8876   0.887   0.060   3.807  0.0989  0.0378  0.0491
    1SOL     OW 8877   0.915   0.330   3.830  0.5932 -0.3347  0.0396
    1SOL    HW2 8878   0.960   0.328   3.915  0.4877 -0.1367  0.1019
    1SOL    HW3 8879   0.910   0.239   3.803  1.2029 -0.3422 -0.0556
    1SOL    MW4 8880   0.920   0.318   3.838  0.6596 -0.3096  0.0353
    1SOL     OW 8881   1.136   0.453   3.722 -0.2409  0.2811  0.0235
    1SOL    HW2 8882   1.200   0.417   3.784 -0.1396  0.8036  0.2228
    1SOL    HW3 8883   1.052   0.418   3.751  0.2402 -2.5563 -1.7912
    1SOL    MW4 8884   1.133   0.443   3.734 -0.1642 -0.0243 -0.1898
    1SOL     OW 8885   1.178   0.722   3.775 -0.0763 -0.1262 -0.1788
    1SOL    HW2 8886   1.174   0.731   3.870 -0.4889  1.9549 -0.3854
    1SOL    HW3 8887   1.154   0.630   3.759  0.8111 -0.7323  1.7560
    1SOL    MW4 8888   1.174   0.711   3.785 -0.0136  0.0684  0.0489
    1SOL     OW 8889   0.951   0.872   3.713 -0.2072 -0.7087 -0.0801
    1SOL    HW2 8890   1.033   0.825   3.725  0.4814  0.7643  1.2637
    1SOL    HW3 8891   0.952   0.901   3.622  0.4256 -1.3320 -0.2714
    1SOL    MW4 8892   0.962   0.870   3.703 -0.0328 -0.5966  0.0720
    1SOL     OW 8893   0.955   1.105   3.876  0.0558 -0.3237  0.4605
    1SOL    HW2 8894   0.963   1.073   3.966  0.6097 -0.3898  0.3887
    1SOL    HW3 8895   0.956   1.025   3.822  0.7452 -0.2280  0.3277
    1SOL    MW4 8896   0.956   1.090   3.880  0.2198 -0.3198  0.4334
    1SOL     OW 8897   1.173   1.248   3.770 -0.0160 -0.3560 -0.3507
    1SOL    HW2 8898   1.164   1.342   3.786  1.9090 -0.5567  2.0933
    1SOL    HW3 8899   1.092   1.210   3.804 -0.3524  0.3152 -0.4019
    1SOL    MW4 8900   1.161   1.255   3.777  0.1934 -0.2940 -0.0350
    1SOL     OW 8901   1.151   1.509   3.844  0.4403  0.2846 -0.3170
    1SOL    HW2 8902   1.157   1.470   3.931 -0.4886 -0.8923 -0.7541
    1SOL    HW3 8903   1.235   1.554   3.831  0.5201  0.5770  1.2237
    1SOL    MW4 8904   1.163   1.509   3.853  0.3282  0.1678 -0.1712
    1SOL     OW 8905   0.980   1.714   3.804 -0.0801 -0.2055 -0.3872
    1SOL    HW2 8906   1.046   1.653   3.836  0.0226  0.3663  0.5011
    1SOL    HW3 8907   0.973   1.695   3.710  0.7221 -0.8461 -0.3189
    1SOL    MW4 8908   0.988   1.703   3.796  0.0393 -0.2146 -0.2611
    1SOL     OW 8909   0.913   1.974   3.922 -0.2016 -0.4082  0.6288
    1SOL    HW2 8910   0.936   1.886   3.894 -0.9090  0.1444 -1.8389
    1SOL    HW3 8911   0.821   1.984   3.894  0.0860  1.3278  0.2713
    1SOL    MW4 8912   0.904   1.964   3.914 -0.2570 -0.1063  0.2565
    1SOL     OW 8913   1.166   2.076   3.808 -0.2376  0.2720  0.0883
    1SOL    HW2 8914   1.083   2.053   3.850 -1.1875  0.2224 -1.7847
    1SOL    HW3 8915   1.151   2.061   3.715  2.4266 -1.3795 -0.1276
    1SOL    MW4 8916   1.153   2.071   3.801 -0.0114  0.0472 -0.1872
    1SOL     OW 8917   1.145   2.339   3.890  0.5775  0.4048  0.0584
    1SOL    HW2 8918   1.137   2.344   3.985  0.7055  0.7385  0.0515
    1SOL    HW3 8919   1.153   2.245   3.872 -2.4162  0.0900  0.1149
    1SOL    MW4 8920   1.145   2.327   3.900  0.1994  0.4070  0.0648
    1SOL     OW 8921   0.925   2.431   3.755  0.0210 -0.3115 -0.0797
    1SOL    HW2 8922   0.938   2.523   3.776  0.2581 -0.0211 -1.4610
    1SOL    HW3 8923   0.996   2.385   3.800  1.7012  0.5029 -1.8399
    1SOL    MW4 8924   0.936   2.437   3.764  0.2740 -0.1657 -0.4942
    1SOL     OW 8925   0.939   2.691   3.808  0.1081 -0.2918  0.0313
    1SOL    HW2 8926   0.959   2.692   3.901  0.8337  0.0315 -0.1298
    1SOL    HW3 8927   1.012   2.737   3.766 -0.1456 -0.5448 -0.7061
    1SOL    MW4 8928   0.951   2.697   3.815  0.1704 -0.2823 -0.0873
    1SOL     OW 8929   1.137   2.859   3.749 -0.0004 -0.0425  0.6416
    1SOL    HW2 8930   1.213   2.825   3.796  0.7459  0.5279 -0.1317
    1SOL    HW3 8931   1.115   2.940   3.794 -0.1036 -0.1659  0.8145
    1SOL    MW4 8932   1.145   2.865   3.761  0.0844  0.0167  0.5622
    1SOL     OW 8933   1.112   3.140   3.826  0.1371  0.1198  0.2955
    1SOL    HW2 8934   1.183   3.192   3.788  0.5446 -1.0859 -0.5963
    1SOL    HW3 8935   1.032   3.187   3.801  0.4585 -0.1207 -1.1950
    1SOL    MW4 8936   1.111   3.153   3.818  0.2332 -0.0710 -0.0188
    1SOL     OW 8937   0.859   3.276   3.741  0.0261 -0.0219 -0.5732
    1SOL    HW2 8938   0.793   3.230   3.793 -1.1129  1.6761 -0.4442
    1SOL    HW3 8939   0.833   3.261   3.650 -0.8888  1.0854 -0.5127
    1SOL    MW4 8940   0.847   3.268   3.736 -0.2449  0.3483 -0.5481
    1SOL     OW 8941   0.920   3.506   3.863  0.2526  0.1512 -0.1540
    1SOL    HW2 8942   0.909   3.425   3.812 -1.4424  0.2830 -0.0369
    1SOL    HW3 8943   0.839   3.555   3.846  0.4045  0.9260  1.3655
    1SOL    MW4 8944   0.908   3.501   3.854  0.0490  0.2706  0.0618
    1SOL     OW 8945   1.137   3.627   3.779  0.0548 -0.4789  0.0457
    1SOL    HW2 8946   1.117   3.718   3.800 -1.2917 -0.1267 -2.4865
    1SOL    HW3 8947   1.055   3.580   3.797  0.1132 -0.8340 -0.6090
    1SOL    MW4 8948   1.123   3.632   3.784 -0.1153 -0.4790 -0.3750
    1SOL     OW 8949   1.051   3.898   3.876  0.4293 -0.0996  0.2420
    1SOL    HW2 8950   1.062   3.864   3.965  0.9290 -0.0154  0.2130
    1SOL    HW3 8951   1.136   3.935   3.854  0.1907  0.2259 -0.1270
    1SOL    MW4 8952   1.063   3.898   3.885  0.4638 -0.0455  0.1895
    1SOL     OW 8953   0.851   4.040   3.769 -0.0883 -0.0220 -0.2985
    1SOL    HW2 8954   0.926   3.990   3.800 -1.2146 -1.6639 -0.1245
    1SOL    HW3 8955   0.853   4.031   3.674  0.0811  0.1564 -0.3119
    1SOL    MW4 8956   0.861   4.032   3.761 -0.2145 -0.2146 -0.2775
    1SOL     OW 8957   0.921   4.279   3.890  0.4183  0.0032 -0.0262
    1SOL    HW2 8958   0.894   4.274   3.982  0.1241 -1.5223 -0.1800
    1SOL    HW3 8959   0.907   4.191   3.856  1.6504  0.2439 -1.2297
    1SOL    MW4 8960   0.916   4.267   3.898  0.5420 -0.1659 -0.2055
    1SOL     OW 8961   1.147   4.368   3.781 -0.4145 -0.3410 -0.0269
    1SOL    HW2 8962   1.063   4.353   3.825 -0.0183 -0.9297  0.5433
    1SOL    HW3 8963   1.127   4.363   3.688 -1.9057  4.0380 -0.0900
    1SOL    MW4 8964   1.133   4.366   3.775 -0.5591  0.1593  0.0398
    1SOL     OW 8965   1.579   4.657   3.915 -0.3244  0.2011  0.1160
    1SOL    HW2 8966   1.568   4.667   4.010  1.5072  0.1731  0.3375
    1SOL    HW3 8967   1.607   4.567   3.904 -0.6230  0.1807 -0.4636
    1SOL    MW4 8968   1.581   4.647   3.926 -0.1221  0.1950  0.0687
    1SOL     OW 8969   1.347   0.088   3.778  0.2532  0.2859 -0.1541
    1SOL    HW2 8970   1.346   0.179   3.808  1.2919  0.1830  0.2044
    1SOL    HW3 8971   1.422   0.049   3.822 -1.2426 -1.2413  1.0802
    1SOL    MW4 8972   1.357   0.095   3.787  0.1928  0.0708  0.0560
    1SOL     OW 8973   1.324   0.354   3.888 -0.2268 -0.1214 -0.0250
    1SOL    HW2 8974   1.336   0.350   3.983  0.5729 -0.7766 -0.1373
    1SOL    HW3 8975   1.397   0.408   3.856 -0.8426  0.6068 -0.2122
    1SOL    MW4 8976   1.335   0.360   3.896 -0.2027 -0.1117 -0.0646
    1SOL     OW 8977   1.544   0.506   3.787 -0.1883  0.2324 -0.0655
    1SOL    HW2 8978   1.614   0.444   3.808 -0.9805 -0.7175 -0.1781
    1SOL    HW3 8979   1.566   0.585   3.836  0.6662 -0.2502  0.3333
    1SOL    MW4 8980   1.556   0.508   3.796 -0.1801  0.0434 -0.0277
    1SOL     OW 8981   1.599   0.766   3.843 -0.2452  0.3395  0.3489
    1SOL    HW2 8982   1.674   0.793   3.791  0.1213 -1.3041 -0.0270
    1SOL    HW3 8983   1.523   0.790   3.790  0.0152  1.6570  0.5594
    1SOL    MW4 8984   1.599   0.772   3.829 -0.1624  0.2965  0.3271
    1SOL     OW 8985   1.397   0.862   3.700  0.2657  0.0247 -0.2317
    1SOL    HW2 8986   1.382   0.940   3.754  0.1554 -0.1301 -0.0383
    1SOL    HW3 8987   1.327   0.802   3.725 -0.7342  0.5517 -1.6710
    1SOL    MW4 8988   1.385   0.864   3.710  0.1193  0.0738 -0.3960
    1SOL     OW 8989   1.399   1.109   3.835 -0.1533  0.1188  0.2521
    1SOL    HW2 8990   1.473   1.145   3.786 -0.2530  1.0993  0.7978
    1SOL    HW3 8991   1.325   1.164   3.811 -0.6282 -0.6192  0.0031
    1SOL    MW4 8992   1.399   1.121   3.826 -0.2290  0.1508  0.2913
    1SOL     OW 8993   1.603   1.262   3.748 -0.0999 -0.6133  0.5777
    1SOL    HW2 8994   1.688   1.230   3.778  0.1629 -0.2439  0.2459
    1SOL    HW3 8995   1.580   1.331   3.810 -0.4167 -1.0978  0.9891
    1SOL    MW4 8996   1.611   1.267   3.760 -0.1070 -0.6285  0.5879
    1SOL     OW 8997   1.592   1.490   3.899  0.1874 -0.0803 -0.5211
    1SOL    HW2 8998   1.597   1.481   3.994  1.1971 -1.5100 -0.6893
    1SOL    HW3 8999   1.677   1.525   3.874 -0.2317  0.7090 -0.8691
    1SOL    MW4 9000   1.604   1.494   3.909  0.2651 -0.1646 -0.5891
    1SOL     OW 9001   1.393   1.648   3.785 -0.7867 -0.5256 -0.3165
    1SOL    HW2 9002   1.384   1.729   3.835 -1.8974 -1.3617  0.8899
    1SOL    HW3 9003   1.465   1.601   3.826 -0.0810 -0.1067 -1.0750
    1SOL    MW4 9004   1.401   1.652   3.797 -0.8402 -0.5807 -0.2573
    1SOL     OW 9005   1.355   1.889   3.913 -0.7456  0.2589 -0.0695
    1SOL    HW2 9006   1.332   1.866   4.003 -0.6124 -1.5049 -0.4685
    1SOL    HW3 9007   1.284   1.948   3.885 -1.2830  0.0708  0.8697
    1SOL    MW4 9008   1.342   1.894   3.921 -0.7988  0.0013  0.0017
    1SOL     OW 9009   1.589   2.066   3.842  0.5606 -0.0497 -0.2800
    1SOL    HW2 9010   1.509   2.015   3.852  0.0670  0.9361  0.8140
    1SOL    HW3 9011   1.594   2.084   3.748  0.4043 -1.5434 -0.5881
    1SOL    MW4 9012   1.579   2.062   3.831  0.4748 -0.1171 -0.1764
    1SOL     OW 9013   1.602   2.337   3.981 -0.1343  0.2744  0.3856
    1SOL    HW2 9014   1.594   2.329   4.076  1.3329 -0.3710  0.4645
    1SOL    HW3 9015   1.602   2.247   3.949 -0.7276  0.4910 -0.2394
    1SOL    MW4 9016   1.601   2.324   3.989 -0.0191  0.2182  0.3133
    1SOL     OW 9017   1.399   2.463   3.800 -0.3498 -0.2536 -0.3735
    1SOL    HW2 9018   1.473   2.414   3.837  0.3880  1.0655 -0.0777
    1SOL    HW3 9019   1.321   2.423   3.840  0.3957  0.8584  2.3061
    1SOL    MW4 9020   1.398   2.451   3.810 -0.1541  0.0672  0.0191
    1SOL     OW 9021   1.354   2.720   3.863 -0.6897 -0.0677  0.5127
    1SOL    HW2 9022   1.361   2.714   3.958 -2.3532  0.0444  0.6558
    1SOL    HW3 9023   1.384   2.634   3.832  0.1750  0.0114  1.1111
    1SOL    MW4 9024   1.359   2.708   3.871 -0.7951 -0.0424  0.6106
    1SOL     OW 9025   1.591   2.843   3.780  0.1115  0.3495  0.0143
    1SOL    HW2 9026   1.508   2.822   3.822  0.8894 -1.5103  0.6589
    1SOL    HW3 9027   1.574   2.834   3.687 -0.7059  1.1089  0.0801
    1SOL    MW4 9028   1.578   2.839   3.774  0.1063  0.2043  0.1082
    1SOL     OW 9029   1.595   3.112   3.843 -0.2847  0.0334  0.3670
    1SOL    HW2 9030   1.604   3.098   3.937  0.0572 -0.5818  0.2456
    1SOL    HW3 9031   1.589   3.024   3.806 -0.6574  0.2801 -0.1627
    1SOL    MW4 9032   1.595   3.098   3.851 -0.2886 -0.0153  0.2811
    1SOL     OW 9033   1.372   3.233   3.726  0.5491 -0.0285 -0.2747
    1SOL    HW2 9034   1.359   3.322   3.758  0.6432  0.2006 -0.8633
    1SOL    HW3 9035   1.432   3.193   3.789  0.4846  0.3154  0.0044
    1SOL    MW4 9036   1.378   3.240   3.738  0.5530  0.0470 -0.3152
    1SOL     OW 9037   1.354   3.465   3.873  0.2812 -0.2912 -0.0077
    1SOL    HW2 9038   1.433   3.513   3.849  0.0478  0.1601  0.1153
    1SOL    HW3 9039   1.283   3.526   3.854  0.0079 -0.4334  0.5422
    1SOL    MW4 9040   1.355   3.480   3.867  0.2142 -0.2506  0.0811
    1SOL     OW 9041   1.555   3.620   3.762 -0.3151  0.0580  0.0007
    1SOL    HW2 9042   1.637   3.583   3.794  0.8273  0.3785 -2.4492
    1SOL    HW3 9043   1.552   3.708   3.798  0.5516  0.1281 -0.0795
    1SOL    MW4 9044   1.565   3.626   3.771 -0.0498  0.1097 -0.3331
    1SOL     OW 9045   1.554   3.902   3.852  0.1180 -0.5295  0.0976
    1SOL    HW2 9046   1.556   3.884   3.946  0.6944  1.9113  0.5895
    1SOL    HW3 9047   1.462   3.916   3.833  0.0857 -0.1946  0.4780
    1SOL    MW4 9048   1.543   3.902   3.862  0.1898 -0.1631  0.2127
    1SOL     OW 9049   1.303   3.976   3.828  0.7812 -0.1114 -0.3557
    1SOL    HW2 9050   1.325   4.061   3.866  1.6304 -0.8336  0.7922
    1SOL    HW3 9051   1.331   3.983   3.737  1.3495  0.6594 -0.1329
    1SOL    MW4 9052   1.310   3.988   3.821  0.9682 -0.1051 -0.1752
    1SOL     OW 9053   1.358   4.244   3.899 -0.2530 -0.5229 -0.4917
    1SOL    HW2 9054   1.441   4.289   3.887 -0.2369 -0.0634  1.2139
    1SOL    HW3 9055   1.294   4.297   3.851  0.2910 -0.4041 -1.0845
    1SOL    MW4 9056   1.360   4.257   3.891 -0.1791 -0.4463 -0.3450
    1SOL     OW 9057   1.590   4.392   3.813  0.0168  0.1683 -0.2424
    1SOL    HW2 9058   1.673   4.351   3.839 -1.1732 -1.3846  1.2137
    1SOL    HW3 9059   1.591   4.389   3.717  1.1623 -0.8209 -0.2100
    1SOL    MW4 9060   1.601   4.386   3.804  0.0108 -0.1669 -0.0460
    1SOL     OW 9061   1.993   4.653   3.843  0.1522  0.1851 -0.5641
    1SOL    HW2 9062   2.077   4.686   3.811  0.1650  0.4052 -0.3067
    1SOL    HW3 9063   1.991   4.561   3.816  1.3034 -0.3333  1.0696
    1SOL    MW4 9064   2.004   4.645   3.835  0.3057  0.1454 -0.3147
    1SOL     OW 9065   1.774   0.082   3.734 -0.0554 -0.1036 -0.0050
    1SOL    HW2 9066   1.856   0.046   3.766  0.2857  0.9998  0.3522
    1SOL    HW3 9067   1.708   0.048   3.795  0.3756  0.5905  0.8495
    1SOL    MW4 9068   1.776   0.072   3.746  0.0465  0.1336  0.1550
    1SOL     OW 9069   1.769   0.336   3.843 -0.5013  0.2378  0.0549
    1SOL    HW2 9070   1.753   0.314   3.935  1.6958  0.4718  0.5273
    1SOL    HW3 9071   1.770   0.252   3.798  2.3816 -0.2328  0.9296
    1SOL    MW4 9072   1.767   0.322   3.850  0.1689  0.2066  0.2327
    1SOL     OW 9073   2.030   0.486   3.803 -0.0468  0.0706 -0.2395
    1SOL    HW2 9074   1.941   0.457   3.821 -0.3772  0.8394 -0.5849
    1SOL    HW3 9075   2.042   0.470   3.709  0.0432  0.3186 -0.2721
    1SOL    MW4 9076   2.020   0.480   3.793 -0.0787  0.2048 -0.2894
    1SOL     OW 9077   2.038   0.745   3.832 -0.0900  0.1322 -0.2966
    1SOL    HW2 9078   2.010   0.769   3.920 -0.2389 -0.4604 -0.1822
    1SOL    HW3 9079   2.026   0.650   3.828  1.8821 -0.1444 -0.2384
    1SOL    MW4 9080   2.033   0.736   3.843  0.1507  0.0175 -0.2739
    1SOL     OW 9081   1.833   0.883   3.740  0.2074 -0.1260 -0.5127
    1SOL    HW2 9082   1.916   0.844   3.768  0.1633 -0.9418 -1.4875
    1SOL    HW3 9083   1.844   0.899   3.646 -0.3310  0.8269 -0.4270
    1SOL    MW4 9084   1.845   0.880   3.731  0.1305 -0.1079 -0.6301
    1SOL     OW 9085   1.802   1.132   3.859  0.4313 -0.1637  0.3576
    1SOL    HW2 9086   1.806   1.113   3.952 -0.5687  1.2337  0.7177
    1SOL    HW3 9087   1.811   1.047   3.816 -0.2912 -0.9736  1.7663
    1SOL    MW4 9088   1.803   1.118   3.865  0.2041 -0.0863  0.5913
    1SOL     OW 9089   2.042   1.259   3.823 -0.4667  0.1620 -0.2219
    1SOL    HW2 9090   2.111   1.198   3.849 -0.6585  1.4491  3.5443
    1SOL    HW3 9091   1.961   1.210   3.838 -0.5650  0.7970  1.4275
    1SOL    MW4 9092   2.040   1.244   3.828 -0.5047  0.4157  0.4923
    1SOL     OW 9093   2.034   1.510   3.955 -0.6146  0.8123 -0.3095
    1SOL    HW2 9094   1.961   1.546   3.904 -1.4402 -0.4158 -0.0235
    1SOL    HW3 9095   2.040   1.419   3.926 -0.0941  0.5256  0.6973
    1SOL    MW4 9096   2.025   1.503   3.944 -0.6549  0.6125 -0.1390
    1SOL     OW 9097   1.822   1.603   3.805 -0.2946 -0.0882  0.2488
    1SOL    HW2 9098   1.821   1.697   3.822 -0.1877 -0.1723  0.7087
    1SOL    HW3 9099   1.815   1.597   3.709 -0.6510  0.3780  0.2409
    1SOL    MW4 9100   1.821   1.615   3.794 -0.3276 -0.0379  0.3085
    1SOL     OW 9101   1.801   1.872   3.886 -0.2901 -0.4233 -0.5158
    1SOL    HW2 9102   1.733   1.935   3.863 -1.0162 -0.8283  0.5278
    1SOL    HW3 9103   1.883   1.915   3.859 -0.8537  0.5487 -0.7043
    1SOL    MW4 9104   1.803   1.886   3.879 -0.4601 -0.3484 -0.4032
    1SOL     OW 9105   2.053   2.331   3.939  0.1350 -0.1551 -0.3900
    1SOL    HW2 9106   2.124   2.376   3.894 -1.4851  1.6405 -1.2206
    1SOL    HW3 9107   2.028   2.390   4.011 -1.9963  0.3313 -1.4752
    1SOL    MW4 9108   2.059   2.344   3.943 -0.3600  0.1457 -0.6425
    1SOL     OW 9109   2.257   2.472   3.780 -0.4002 -0.1836  0.1155
    1SOL    HW2 9110   2.248   2.486   3.685 -0.4224 -0.6127  0.0536
    1SOL    HW3 9111   2.334   2.416   3.788  0.9338  1.6720  0.5007
    1SOL    MW4 9112   2.266   2.467   3.768 -0.2270  0.0048  0.1585
    1SOL     OW 9113   1.821   2.457   3.840  0.1864 -0.4108 -0.2465
    1SOL    HW2 9114   1.896   2.402   3.860  0.4881 -0.2270 -0.8638
    1SOL    HW3 9115   1.747   2.415   3.884  0.2220 -1.8626 -1.5448
    1SOL    MW4 9116   1.821   2.444   3.848  0.2309 -0.5779 -0.4990
    1SOL     OW 9117   3.166   2.537   4.464 -0.0263 -0.0934 -0.2131
    1SOL    HW2 9118   3.089   2.508   4.513 -0.4268  1.3663  0.0281
    1SOL    HW3 9119   3.204   2.606   4.518  1.0618 -0.3303 -0.6709
    1SOL    MW4 9120   3.161   2.542   4.478  0.0646  0.0679 -0.2418
    1SOL     OW 9121   2.058   3.133   3.833  0.0354 -0.7239  0.5158
    1SOL    HW2 9122   2.132   3.175   3.788 -0.2916  0.6081  1.1927
    1SOL    HW3 9123   2.071   3.155   3.925 -1.8812  0.6031  0.4990
    1SOL    MW4 9124   2.070   3.141   3.839 -0.2606 -0.3731  0.6030
    1SOL     OW 9125   2.052   2.873   3.728 -0.1716  0.0433 -0.1093
    1SOL    HW2 9126   2.046   2.963   3.759 -0.6409  0.4232 -1.2829
    1SOL    HW3 9127   1.968   2.834   3.752 -0.2522  0.1323 -0.2423
    1SOL    MW4 9128   2.040   2.880   3.735 -0.2439  0.1054 -0.2813
    1SOL     OW 9129   1.823   3.253   3.756  0.0925 -0.1533  0.4009
    1SOL    HW2 9130   1.899   3.212   3.798  1.3568  1.0317 -0.6587
    1SOL    HW3 9131   1.748   3.211   3.796  1.3128 -1.3228  1.5261
    1SOL    MW4 9132   1.823   3.242   3.767  0.4203 -0.1514  0.4098
    1SOL     OW 9133   1.804   3.527   3.816 -0.0912 -0.3358  0.2230
    1SOL    HW2 9134   1.884   3.572   3.788 -0.9033  0.7167 -0.4529
    1SOL    HW3 9135   1.816   3.437   3.788  0.5994 -0.0552 -0.4203
    1SOL    MW4 9136   1.816   3.521   3.809 -0.1073 -0.1597  0.0489
    1SOL     OW 9137   2.036   3.651   3.746 -0.0434  0.0992  0.3284
    1SOL    HW2 9138   2.107   3.602   3.787  0.3578  0.5891  0.2197
    1SOL    HW3 9139   2.049   3.638   3.652 -0.9253 -0.9705  0.3447
    1SOL    MW4 9140   2.047   3.642   3.739 -0.1068  0.0226  0.3161
    1SOL     OW 9141   2.018   3.902   3.875 -0.3668 -0.1712  0.5704
    1SOL    HW2 9142   2.100   3.947   3.856 -0.1963 -0.6246  0.2252
    1SOL    HW3 9143   2.029   3.815   3.836 -0.8812 -0.3450  0.8127
    1SOL    MW4 9144   2.030   3.896   3.868 -0.4122 -0.2539  0.5569
    1SOL     OW 9145   1.792   4.016   3.756  0.3945  0.3635 -0.5355
    1SOL    HW2 9146   1.876   3.989   3.793  0.0432  1.8906  1.4888
    1SOL    HW3 9147   1.728   3.955   3.793  0.3559  0.4582 -0.4427
    1SOL    MW4 9148   1.794   4.005   3.766  0.3431  0.5774 -0.2563
    1SOL     OW 9149   1.813   4.258   3.905  0.2617  0.0516 -0.3864
    1SOL    HW2 9150   1.885   4.306   3.864 -0.5234  1.3496 -0.2769
    1SOL    HW3 9151   1.802   4.179   3.852  0.9152  0.4883 -1.1625
    1SOL    MW4 9152   1.821   4.254   3.893  0.2444  0.2804 -0.4742
    1SOL     OW 9153   2.011   4.393   3.766 -0.4009 -0.2652 -0.4221
    1SOL    HW2 9154   2.083   4.355   3.816  0.0487  1.2785  0.1537
    1SOL    HW3 9155   2.011   4.347   3.683 -1.1383 -2.8793  0.9646
    1SOL    MW4 9156   2.020   4.382   3.762 -0.4387 -0.4063 -0.1631
    1SOL     OW 9157   2.483   4.611   3.854 -0.4008  0.2213  0.1637
    1SOL    HW2 9158   2.466   4.609   3.949 -2.3098  1.2978 -0.1166
    1SOL    HW3 9159   2.461   4.522   3.824 -0.6676  0.1404  0.5948
    1SOL    MW4 9160   2.478   4.599   3.863 -0.6881  0.3533  0.1836
    1SOL     OW 9161   2.246   0.067   3.769 -0.2597 -0.0156  0.1146
    1SOL    HW2 9162   2.333   0.028   3.783 -1.1709 -2.0920  0.0925
    1SOL    HW3 9163   2.249   0.101   3.680 -0.0359 -1.5960 -0.4888
    1SOL    MW4 9164   2.258   0.066   3.759 -0.3507 -0.4981  0.0319
    1SOL     OW 9165   2.248   0.331   3.897 -0.3639 -0.1713 -0.4137
    1SOL    HW2 9166   2.232   0.242   3.865 -1.6370 -0.1125  0.0501
    1SOL    HW3 9167   2.172   0.381   3.869 -0.3917  0.4130  0.6571
    1SOL    MW4 9168   2.236   0.326   3.889 -0.5355 -0.0865 -0.2112
    1SOL     OW 9169   2.473   0.456   3.768 -0.3857  0.6380 -0.3863
    1SOL    HW2 9170   2.390   0.420   3.799  1.1841 -2.5211  0.3154
    1SOL    HW3 9171   2.465   0.459   3.673 -0.8203 -0.9408 -0.4056
    1SOL    MW4 9172   2.461   0.452   3.759 -0.2360  0.0129 -0.2964
    1SOL     OW 9173   2.458   0.723   3.874 -0.0526  0.3661 -0.1799
    1SOL    HW2 9174   2.381   0.761   3.831  0.2271  1.1015 -0.0320
    1SOL    HW3 9175   2.468   0.637   3.833 -0.0685  0.8718 -1.2512
    1SOL    MW4 9176   2.449   0.717   3.863 -0.0179  0.5299 -0.3016
    1SOL     OW 9177   2.272   0.828   3.721  0.0616  0.1709 -0.1394
    1SOL    HW2 9178   2.188   0.790   3.747  0.6793 -1.3620 -0.3142
    1SOL    HW3 9179   2.261   0.850   3.629 -0.9827  2.3608  0.4920
    1SOL    MW4 9180   2.260   0.826   3.712  0.0055  0.2576 -0.0792
    1SOL     OW 9181   2.257   1.069   3.871 -0.1408  0.4126 -0.1211
    1SOL    HW2 9182   2.248   1.051   3.964 -1.3069 -0.1739 -0.3361
    1SOL    HW3 9183   2.250   0.982   3.830 -0.7831  0.7953 -0.8263
    1SOL    MW4 9184   2.255   1.055   3.878 -0.3796  0.3858 -0.2425
    1SOL     OW 9185   2.443   1.258   3.754  0.2619  0.3777 -0.2483
    1SOL    HW2 9186   2.453   1.340   3.801  1.3751 -0.2685  0.6638
    1SOL    HW3 9187   2.378   1.209   3.804  0.5877  0.1573 -0.0434
    1SOL    MW4 9188   2.436   1.262   3.766  0.4516  0.2632 -0.1009
    1SOL     OW 9189   2.430   1.500   3.877  0.0360  0.0072 -0.4186
    1SOL    HW2 9190   2.507   1.543   3.840 -0.1837  0.0242 -0.8672
    1SOL    HW3 9191   2.356   1.552   3.846 -0.1218  0.3682  0.5379
    1SOL    MW4 9192   2.430   1.513   3.868 -0.0138  0.0570 -0.3517
    1SOL     OW 9193   2.210   1.636   3.800 -0.0541 -0.2748 -0.2643
    1SOL    HW2 9194   2.196   1.722   3.840 -0.9250 -0.3509 -0.3811
    1SOL    HW3 9195   2.145   1.580   3.842  1.1596 -1.1159  0.5229
    1SOL    MW4 9196   2.199   1.640   3.810 -0.0083 -0.3960 -0.1762
    1SOL     OW 9197   2.223   1.901   3.910  0.6631 -0.0463 -0.3190
    1SOL    HW2 9198   2.147   1.942   3.870  0.3595  0.9920  1.2585
    1SOL    HW3 9199   2.298   1.946   3.871  0.3432  1.7601  1.0544
    1SOL    MW4 9200   2.223   1.912   3.900  0.5808  0.3290  0.0703
    1SOL     OW 9201   2.461   2.016   3.758 -0.5899 -0.0925  0.2344
    1SOL    HW2 9202   2.485   2.030   3.667 -0.9586  1.5784  0.3805
    1SOL    HW3 9203   2.525   1.952   3.790  0.1816  0.0852 -0.9174
    1SOL    MW4 9204   2.473   2.010   3.750 -0.5367  0.1512  0.1016
    1SOL     OW 9205   2.209   2.718   3.884 -0.3061 -0.2596 -0.0946
    1SOL    HW2 9206   2.135   2.757   3.838 -0.4801 -0.8513 -0.3250
    1SOL    HW3 9207   2.224   2.635   3.839  0.2924 -0.2887  0.1544
    1SOL    MW4 9208   2.201   2.712   3.872 -0.2501 -0.3417 -0.0920
    1SOL     OW 9209   0.623   2.023   4.470 -0.2596  0.2980  0.0389
    1SOL    HW2 9210   0.713   1.990   4.477 -0.1487  0.6451  0.2612
    1SOL    HW3 9211   0.621   2.066   4.385 -0.8335 -1.5657 -0.9269
    1SOL    MW4 9212   0.635   2.024   4.460 -0.3207  0.0978 -0.0596
    1SOL     OW 9213   2.026   2.041   3.787 -0.0298 -0.2941 -0.0531
    1SOL    HW2 9214   2.029   2.130   3.821  0.7564 -0.1033 -0.6183
    1SOL    HW3 9215   2.030   2.050   3.692  3.1204 -1.0278 -0.0457
    1SOL    MW4 9216   2.027   2.054   3.779  0.4895 -0.3657 -0.1266
    1SOL     OW 9217   2.452   2.855   3.816 -0.5685 -0.1718 -0.3262
    1SOL    HW2 9218   2.379   2.817   3.865  0.0691 -1.5587 -0.4286
    1SOL    HW3 9219   2.419   2.862   3.726 -0.1506 -2.0163 -0.6409
    1SOL    MW4 9220   2.438   2.851   3.811 -0.4292 -0.5980 -0.3815
    1SOL     OW 9221   2.447   3.117   3.864  0.0815  0.3154 -0.0789
    1SOL    HW2 9222   2.441   3.120   3.960 -0.1059  0.6979 -0.1034
    1SOL    HW3 9223   2.455   3.024   3.844 -0.3081  0.2006  0.2812
    1SOL    MW4 9224   2.448   3.105   3.874  0.0050  0.3510 -0.0348
    1SOL     OW 9225   2.287   3.266   3.705 -0.3198 -0.0588  0.1311
    1SOL    HW2 9226   2.281   3.351   3.750  2.0915  0.6768 -0.8556
    1SOL    HW3 9227   2.350   3.216   3.757  0.7056 -0.0524 -1.0789
    1SOL    MW4 9228   2.295   3.271   3.718  0.1335  0.0389 -0.1590
    1SOL     OW 9229   2.239   3.497   3.858 -0.3378 -0.1502  0.0746
    1SOL    HW2 9230   2.246   3.483   3.952 -1.0007  0.2824  0.1885
    1SOL    HW3 9231   2.319   3.546   3.835  0.1442 -0.8349  0.2952
    1SOL    MW4 9232   2.251   3.502   3.867 -0.3617 -0.1836  0.1190
    1SOL     OW 9233   2.446   3.642   3.759 -0.3415 -0.2337 -0.0648
    1SOL    HW2 9234   2.516   3.591   3.800  0.1457  0.4714 -0.0182
    1SOL    HW3 9235   2.467   3.641   3.665 -0.1301  0.2051 -0.0188
    1SOL    MW4 9236   2.458   3.635   3.752 -0.2494 -0.0827 -0.0527
    1SOL     OW 9237   2.475   3.873   3.890  0.3736 -0.5037  0.2667
    1SOL    HW2 9238   2.554   3.919   3.863 -0.0808  0.3156  0.3084
    1SOL    HW3 9239   2.470   3.797   3.831  0.8487 -0.2117 -0.1490
    1SOL    MW4 9240   2.485   3.869   3.878  0.3762 -0.3572  0.2174
    1SOL     OW 9241   2.258   4.021   3.802  0.2205 -0.2535  0.3167
    1SOL    HW2 9242   2.335   3.966   3.819 -0.5920 -1.5622 -0.1613
    1SOL    HW3 9243   2.251   4.022   3.706 -0.5336 -0.3997  0.3696
    1SOL    MW4 9244   2.267   4.014   3.791  0.0136 -0.4454  0.2604
    1SOL     OW 9245   2.232   4.272   3.922 -0.1167  0.2948 -0.0218
    1SOL    HW2 9246   2.245   4.279   4.016  0.5254  2.0226 -0.2317
    1SOL    HW3 9247   2.253   4.180   3.902  0.8811  0.2183  1.3326
    1SOL    MW4 9248   2.236   4.261   3.932  0.0997  0.5126  0.1287
    1SOL     OW 9249   2.436   4.359   3.763  0.1700  0.2573  0.3680
    1SOL    HW2 9250   2.513   4.316   3.800  1.0424  2.6180  1.3813
    1SOL    HW3 9251   2.365   4.335   3.822  0.2876 -1.2059 -0.0669
    1SOL    MW4 9252   2.437   4.350   3.775  0.3006  0.3757  0.4442
    1SOL     OW 9253   2.904   4.653   3.849  0.4206 -0.3596  0.0698
    1SOL    HW2 9254   2.899   4.665   3.944 -0.0670 -1.2063  0.1609
    1SOL    HW3 9255   2.981   4.703   3.822  0.6743 -0.2745  0.9345
    1SOL    MW4 9256   2.913   4.661   3.858  0.3896 -0.4601  0.1960
    1SOL     OW 9257   2.680   0.103   3.765 -0.3746  0.0350 -0.0427
    1SOL    HW2 9258   2.757   0.066   3.809 -0.4751  0.9444  0.9085
    1SOL    HW3 9259   2.609   0.044   3.790 -0.0632 -0.5990 -0.6274
    1SOL    MW4 9260   2.681   0.090   3.774 -0.3467  0.0713  0.0060
    1SOL     OW 9261   2.688   0.335   3.896 -0.1616 -0.4750 -0.1004
    1SOL    HW2 9262   2.695   0.248   3.856 -0.6677 -1.1978  1.3428
    1SOL    HW3 9263   2.609   0.373   3.856 -0.4783 -1.0575 -0.0358
    1SOL    MW4 9264   2.678   0.328   3.885 -0.2699 -0.6472  0.0985
    1SOL     OW 9265   2.890   0.513   3.764 -0.2896  0.3685 -0.2787
    1SOL    HW2 9266   2.971   0.467   3.785 -0.0819  0.0748 -1.6701
    1SOL    HW3 9267   2.821   0.457   3.799  0.0437 -0.0949 -0.3547
    1SOL    MW4 9268   2.892   0.499   3.772 -0.2184  0.2686 -0.4723
    1SOL     OW 9269   2.902   0.752   3.895  0.5407  0.3595  0.2265
    1SOL    HW2 9270   2.983   0.790   3.859  0.1646 -0.3371 -1.3770
    1SOL    HW3 9271   2.889   0.672   3.845 -1.3003  0.6130  0.2764
    1SOL    MW4 9272   2.911   0.747   3.883  0.2480  0.3010  0.0215
    1SOL     OW 9273   2.685   0.846   3.766 -0.5149  0.7914  0.2347
    1SOL    HW2 9274   2.756   0.812   3.820 -0.0722 -0.1027 -0.8790
    1SOL    HW3 9275   2.607   0.801   3.797 -0.1265 -0.3481 -0.4151
    1SOL    MW4 9276   2.684   0.836   3.777 -0.4051  0.5231  0.0021
    1SOL     OW 9277   2.671   1.130   3.807 -0.2337 -0.2873  0.3026
    1SOL    HW2 9278   2.666   1.036   3.791  0.4326 -0.3081  0.2110
    1SOL    HW3 9279   2.586   1.163   3.780 -0.0197 -0.6805 -0.8850
    1SOL    MW4 9280   2.659   1.122   3.801 -0.1175 -0.3419  0.1338
    1SOL     OW 9281   2.912   1.225   3.751 -0.3136 -0.0337 -0.1758
    1SOL    HW2 9282   2.906   1.314   3.785 -1.6365 -0.4122  0.6080
    1SOL    HW3 9283   2.824   1.189   3.763  0.9145 -2.4103  2.1834
    1SOL    MW4 9284   2.900   1.232   3.757 -0.3259 -0.3973  0.2389
    1SOL     OW 9285   2.930   1.489   3.876 -0.1492 -0.0042  0.3287
    1SOL    HW2 9286   2.947   1.487   3.970  0.4781 -0.8102  0.2045
    1SOL    HW3 9287   2.984   1.562   3.844  0.3017 -0.2726  0.4701
    1SOL    MW4 9288   2.940   1.498   3.884 -0.0067 -0.1460  0.3312
    1SOL     OW 9289   2.676   1.581   3.789  0.3555 -0.4878  0.4763
    1SOL    HW2 9290   2.750   1.542   3.835  0.2963 -2.0032 -0.6664
    1SOL    HW3 9291   2.703   1.581   3.697 -0.4074  0.4779  0.2413
    1SOL    MW4 9292   2.689   1.576   3.783  0.2470 -0.5603  0.2942
    1SOL     OW 9293   2.672   1.851   3.848 -0.1730 -0.1680  0.3803
    1SOL    HW2 9294   2.707   1.854   3.937  2.4845 -0.2892 -0.6153
    1SOL    HW3 9295   2.684   1.760   3.820  1.2763  0.4199 -0.9579
    1SOL    MW4 9296   2.678   1.839   3.856  0.3688 -0.1063  0.0725
    1SOL     OW 9297   2.863   2.311   3.920 -0.1994  0.1536  0.0879
    1SOL    HW2 9298   2.794   2.342   3.862 -1.1756 -0.0615  1.1174
    1SOL    HW3 9299   2.941   2.360   3.894 -0.9345  0.9969 -0.5321
    1SOL    MW4 9300   2.864   2.321   3.909 -0.4251  0.2365  0.1421
    1SOL     OW 9301   2.735   1.931   4.522 -0.4359  0.1174 -0.0638
    1SOL    HW2 9302   2.672   1.977   4.577 -0.7133  0.8708 -1.0012
    1SOL    HW3 9303   2.820   1.967   4.547 -0.6109  0.8428 -0.4843
    1SOL    MW4 9304   2.738   1.942   4.532 -0.4957  0.3124 -0.2432
    1SOL     OW 9305   2.667   2.441   3.734 -0.4481 -0.5364 -0.1295
    1SOL    HW2 9306   2.669   2.517   3.791  0.0797  0.0124 -0.8599
    1SOL    HW3 9307   2.588   2.393   3.759 -1.5573  0.9968 -0.6238
    1SOL    MW4 9308   2.657   2.445   3.745 -0.5248 -0.2615 -0.2911
    1SOL     OW 9309   2.671   2.680   3.891 -0.2251  0.1528 -0.0936
    1SOL    HW2 9310   2.589   2.727   3.878 -1.0169 -1.3427 -0.5096
    1SOL    HW3 9311   2.690   2.691   3.985 -0.0411  1.8607 -0.3162
    1SOL    MW4 9312   2.663   2.688   3.902 -0.3052  0.1807 -0.1781
    1SOL     OW 9313   2.899   2.831   3.806  0.1253  0.3566  0.2973
    1SOL    HW2 9314   2.895   2.924   3.830 -0.3884 -0.0853  2.0138
    1SOL    HW3 9315   2.817   2.795   3.840 -0.3006 -0.4744 -1.5531
    1SOL    MW4 9316   2.888   2.839   3.814  0.0014  0.1888  0.2797
    1SOL     OW 9317   2.895   3.105   3.882  0.3849  0.0523 -0.4499
    1SOL    HW2 9318   2.970   3.152   3.847  0.2735  0.2140 -0.4731
    1SOL    HW3 9319   2.820   3.142   3.835 -0.0668  2.0397  1.7174
    1SOL    MW4 9320   2.895   3.116   3.871  0.3104  0.3357 -0.1674
    1SOL     OW 9321   2.675   3.209   3.739  0.2976 -0.4671 -0.4225
    1SOL    HW2 9322   2.675   3.303   3.758 -0.6642 -0.5451  0.0148
    1SOL    HW3 9323   2.600   3.175   3.788  0.3560 -1.3837 -0.9595
    1SOL    MW4 9324   2.665   3.217   3.748  0.1783 -0.5982 -0.4356
    1SOL     OW 9325   2.642   3.491   3.875 -0.2534  0.4019  0.2238
    1SOL    HW2 9326   2.640   3.498   3.970 -0.0354 -0.7863  0.3219
    1SOL    HW3 9327   2.724   3.533   3.849  0.7059 -1.0854  0.7388
    1SOL    MW4 9328   2.652   3.497   3.884 -0.0980  0.0491  0.3047
    1SOL     OW 9329   2.869   3.632   3.797 -0.3246  0.1458  0.0150
    1SOL    HW2 9330   2.947   3.582   3.821 -0.5020  0.2245  0.7514
    1SOL    HW3 9331   2.875   3.641   3.702  0.8461  0.6316  0.1308
    1SOL    MW4 9332   2.880   3.626   3.788 -0.1938  0.2205  0.1276
    1SOL     OW 9333   2.930   3.880   3.899  0.4635  0.0550  0.2013
    1SOL    HW2 9334   2.939   3.865   3.993 -0.1747 -0.1458  0.2287
    1SOL    HW3 9335   2.919   3.793   3.861 -0.7751  0.2507  0.1001
    1SOL    MW4 9336   2.930   3.866   3.906  0.2158  0.0544  0.1915
    1SOL     OW 9337   2.699   3.990   3.793  0.2751 -0.8432 -0.3060
    1SOL    HW2 9338   2.682   4.071   3.841  3.0190  0.6278 -1.6955
    1SOL    HW3 9339   2.767   3.946   3.844  0.7161 -0.9496 -0.9751
    1SOL    MW4 9340   2.706   3.995   3.806  0.6952 -0.6630 -0.5774
    1SOL     OW 9341   2.666   4.236   3.892 -0.2705 -0.1959 -0.2351
    1SOL    HW2 9342   2.745   4.273   3.854 -0.0534 -0.4228 -0.0148
    1SOL    HW3 9343   2.681   4.241   3.987 -0.8654  0.4952 -0.1809
    1SOL    MW4 9344   2.679   4.241   3.900 -0.3204 -0.1340 -0.1988
    1SOL     OW 9345   2.885   4.371   3.803  0.0769  0.8620  0.0093
    1SOL    HW2 9346   2.966   4.331   3.835 -0.0299  0.3463 -0.3482
    1SOL    HW3 9347   2.889   4.462   3.833  0.5695  0.7180  0.3886
    1SOL    MW4 9348   2.896   4.377   3.811  0.1278  0.7753  0.0122
    1SOL     OW 9349   3.348   4.664   3.860 -0.1218 -0.0161 -0.1102
    1SOL    HW2 9350   3.349   4.667   3.955  0.1057 -1.7093 -0.0480
    1SOL    HW3 9351   3.417   4.725   3.833 -0.1547  0.4262  0.7953
    1SOL    MW4 9352   3.357   4.673   3.869 -0.0961 -0.1812  0.0174
    1SOL     OW 9353   3.134   0.123   3.764 -0.7470  0.1899  0.2689
    1SOL    HW2 9354   3.218   0.087   3.793 -1.1169 -0.4903  0.5000
    1SOL    HW3 9355   3.129   0.100   3.671 -2.4172 -3.2043  1.1094
    1SOL    MW4 9356   3.145   0.115   3.755 -1.0159 -0.3477  0.4101
    1SOL     OW 9357   3.118   0.380   3.854 -0.0318  0.4596  0.1856
    1SOL    HW2 9358   3.136   0.366   3.947  0.5176  0.8618  0.1414
    1SOL    HW3 9359   3.125   0.293   3.815 -1.5360  0.0730  0.7243
    1SOL    MW4 9360   3.121   0.367   3.861 -0.1578  0.4617  0.2508
    1SOL     OW 9361   3.350   0.491   3.780 -0.1301  0.4209 -0.2239
    1SOL    HW2 9362   3.424   0.459   3.830 -0.2058 -0.4628 -0.6670
    1SOL    HW3 9363   3.274   0.448   3.819 -0.1869 -0.2934 -1.0984
    1SOL    MW4 9364   3.349   0.481   3.792 -0.1476  0.2101 -0.3979
    1SOL     OW 9365   3.388   0.747   3.850 -0.2295  0.1040 -0.3696
    1SOL    HW2 9366   3.382   0.750   3.946  1.1160 -0.5687 -0.2622
    1SOL    HW3 9367   3.379   0.654   3.828 -2.6451  0.4541 -1.0648
    1SOL    MW4 9368   3.386   0.735   3.860 -0.3707  0.0615 -0.4473
    1SOL     OW 9369   3.122   0.840   3.772  0.2454  0.4790  0.2270
    1SOL    HW2 9370   3.209   0.804   3.789  1.6693  3.3411 -0.5893
    1SOL    HW3 9371   3.118   0.846   3.676 -0.5170  1.0694  0.2941
    1SOL    MW4 9372   3.133   0.836   3.761  0.3326  0.9345  0.1280
    1SOL     OW 9373   3.158   1.118   3.842 -0.0307 -0.7501  0.0094
    1SOL    HW2 9374   3.147   1.025   3.821  0.5138 -0.6131 -0.8990
    1SOL    HW3 9375   3.072   1.156   3.829 -0.3587 -1.2056  0.7983
    1SOL    MW4 9376   3.146   1.111   3.838 -0.0024 -0.7923 -0.0064
    1SOL     OW 9377   3.353   1.294   3.762 -0.5886 -0.3055 -0.0428
    1SOL    HW2 9378   3.285   1.230   3.784 -0.5764 -0.5489 -0.7031
    1SOL    HW3 9379   3.366   1.284   3.667  0.6084 -0.4932  0.1330
    1SOL    MW4 9380   3.346   1.284   3.752 -0.4292 -0.3624 -0.1066
    1SOL     OW 9381   3.328   1.539   3.866  0.1574 -0.4183 -0.6350
    1SOL    HW2 9382   3.240   1.572   3.845  0.1125  0.0939  0.3017
    1SOL    HW3 9383   3.329   1.449   3.832 -0.6462 -0.3440 -0.8673
    1SOL    MW4 9384   3.316   1.531   3.859  0.0455 -0.3408 -0.5424
    1SOL     OW 9385   3.104   1.697   3.767  0.0045 -0.4026  0.4252
    1SOL    HW2 9386   3.109   1.785   3.804 -2.0336 -0.6874  1.4486
    1SOL    HW3 9387   3.122   1.709   3.674  0.2924  1.0016  0.6557
    1SOL    MW4 9388   3.107   1.710   3.760 -0.2263 -0.2549  0.5906
    1SOL     OW 9389   3.124   1.963   3.857  0.1487 -0.3009  0.2130
    1SOL    HW2 9390   3.109   1.949   3.951 -1.9446 -0.3258 -0.0883
    1SOL    HW3 9391   3.044   2.007   3.827  0.3014 -1.3324 -1.7791
    1SOL    MW4 9392   3.111   1.967   3.865 -0.1070 -0.4402 -0.0896
    1SOL     OW 9393   3.361   2.081   3.805  0.2445 -0.1385  0.6447
    1SOL    HW2 9394   3.280   2.037   3.833 -0.4339 -0.0924 -1.1858
    1SOL    HW3 9395   3.430   2.017   3.823 -0.1000  0.0525  2.7846
    1SOL    MW4 9396   3.359   2.067   3.811  0.1094 -0.1073  0.6855
    1SOL     OW 9397   3.392   2.347   3.866 -0.0068  0.2784 -0.0329
    1SOL    HW2 9398   3.305   2.385   3.859 -0.7021 -1.3260 -0.3764
    1SOL    HW3 9399   3.382   2.257   3.834  1.9669  0.3402 -0.9155
    1SOL    MW4 9400   3.379   2.340   3.861  0.1616  0.0751 -0.1945
    1SOL     OW 9401   3.112   2.450   3.819 -0.1724  0.1004 -0.1451
    1SOL    HW2 9402   3.127   2.538   3.854 -1.6616  0.3991 -0.2133
    1SOL    HW3 9403   3.122   2.460   3.725  0.9778 -0.0906 -0.0468
    1SOL    MW4 9404   3.115   2.463   3.811 -0.2172  0.1144 -0.1411
    1SOL     OW 9405   3.151   2.715   3.872 -0.1950  0.0790 -0.0987
    1SOL    HW2 9406   3.175   2.743   3.960  0.4251  1.5611 -0.7316
    1SOL    HW3 9407   3.065   2.755   3.857 -0.5093 -0.5508 -0.0014
    1SOL    MW4 9408   3.143   2.724   3.882 -0.1547  0.1917 -0.1693
    1SOL     OW 9409   3.381   2.836   3.764 -0.3922 -0.1178 -0.2614
    1SOL    HW2 9410   3.300   2.795   3.794  0.0489 -0.7446  0.0898
    1SOL    HW3 9411   3.376   2.927   3.795 -0.2109 -0.5951  1.2197
    1SOL    MW4 9412   3.370   2.843   3.772 -0.3099 -0.2635 -0.0198
    1SOL     OW 9413   3.369   3.098   3.864 -0.1819 -0.1300  0.1112
    1SOL    HW2 9414   3.367   3.117   3.957  0.1030  0.9232 -0.0948
    1SOL    HW3 9415   3.456   3.123   3.835 -0.3498 -0.2196 -0.4879
    1SOL    MW4 9416   3.380   3.104   3.872 -0.1664 -0.0026  0.0050
    1SOL     OW 9417   3.121   3.216   3.754 -0.0198 -0.7262  0.5439
    1SOL    HW2 9418   3.203   3.178   3.784  0.1874 -0.9993 -0.3327
    1SOL    HW3 9419   3.132   3.223   3.659 -0.7395 -0.1161  0.5026
    1SOL    MW4 9420   3.134   3.212   3.745 -0.0877 -0.6816  0.4227
    1SOL     OW 9421   3.097   3.477   3.851 -0.0726 -0.3538 -0.3206
    1SOL    HW2 9422   3.181   3.515   3.826 -0.3438 -0.7440 -1.8439
    1SOL    HW3 9423   3.097   3.390   3.812 -1.2815 -0.2807 -0.5208
    1SOL    MW4 9424   3.108   3.470   3.843 -0.2680 -0.3953 -0.5481
    1SOL     OW 9425   3.350   3.589   3.767 -0.2013  0.0031 -0.0792
    1SOL    HW2 9426   3.364   3.678   3.798  0.2502 -0.3028  0.6103
    1SOL    HW3 9427   3.348   3.597   3.672 -1.2607  0.9021  0.0153
    1SOL    MW4 9428   3.352   3.602   3.759 -0.2813  0.0813  0.0241
    1SOL     OW 9429   3.356   3.865   3.883  0.4075 -0.1858  0.1982
    1SOL    HW2 9430   3.427   3.917   3.844 -0.6492 -0.2451 -1.8735
    1SOL    HW3 9431   3.276   3.907   3.853 -0.4772 -2.8877 -1.4019
    1SOL    MW4 9432   3.355   3.877   3.874  0.1514 -0.5505 -0.2861
    1SOL     OW 9433   3.128   4.010   3.765  0.0032 -0.2994 -0.0514
    1SOL    HW2 9434   3.116   4.096   3.805  2.5513  0.0853 -0.0278
    1SOL    HW3 9435   3.056   3.957   3.799 -1.3953  1.7208  0.1974
    1SOL    MW4 9436   3.117   4.014   3.775  0.1547  0.0181 -0.0153
    1SOL     OW 9437   3.113   4.255   3.873  0.4130 -0.2878  0.0202
    1SOL    HW2 9438   3.115   4.255   3.969  1.9362 -1.3358  0.0110
    1SOL    HW3 9439   3.190   4.306   3.847 -0.4602  0.7081 -0.6572
    1SOL    MW4 9440   3.124   4.261   3.882  0.4988 -0.2947 -0.0706
    1SOL     OW 9441   3.350   4.404   3.773  0.2350  0.3316 -0.3327
    1SOL    HW2 9442   3.428   4.367   3.814  0.5782 -0.2368 -1.4851
    1SOL    HW3 9443   3.351   4.497   3.799  1.4962  0.4073 -0.6578
    1SOL    MW4 9444   3.360   4.412   3.782  0.4466  0.2670 -0.5279
    1SOL     OW 9445   3.771   0.001   3.907 -0.0442 -0.2297  0.0481
    1SOL    HW2 9446   3.859   0.025   3.880 -0.3921  0.8938 -0.1266
    1SOL    HW3 9447   3.759  -0.089   3.874  0.3744  0.2768 -1.5515
    1SOL    MW4 9448   3.781  -0.008   3.899 -0.0348 -0.0146 -0.1864
    1SOL     OW 9449   3.556   0.143   3.768 -0.1939  0.0494 -0.0536
    1SOL    HW2 9450   3.640   0.107   3.797 -0.7796 -1.0479  0.2744
    1SOL    HW3 9451   3.559   0.138   3.673 -0.0335 -0.3064 -0.0278
    1SOL    MW4 9452   3.568   0.138   3.759 -0.2501 -0.1423 -0.0069
    1SOL     OW 9453   3.574   0.400   3.902 -0.1472  0.0296  0.0056
    1SOL    HW2 9454   3.650   0.437   3.858  0.5944  0.0754  1.3121
    1SOL    HW3 9455   3.565   0.313   3.865  0.8635 -0.1753  0.2330
    1SOL    MW4 9456   3.583   0.394   3.891  0.0839  0.0086  0.2081
    1SOL     OW 9457   3.800   0.502   3.787 -0.0125  0.0753 -1.2145
    1SOL    HW2 9458   3.880   0.454   3.810 -0.4366  0.1273  0.4216
    1SOL    HW3 9459   3.805   0.582   3.839 -2.5871 -1.2747  1.2146
    1SOL    MW4 9460   3.811   0.506   3.797 -0.4084 -0.0960 -0.6783
    1SOL     OW 9461   3.848   0.751   3.903  0.0839 -0.0146 -0.0389
    1SOL    HW2 9462   3.924   0.772   3.850  0.3735  0.7168  0.6715
    1SOL    HW3 9463   3.776   0.800   3.863  0.1961  0.1308 -0.0593
    1SOL    MW4 9464   3.848   0.760   3.891  0.1369  0.1011  0.0525
    1SOL     OW 9465   3.631   0.859   3.783  0.5707 -0.5401 -0.0457
    1SOL    HW2 9466   3.622   0.951   3.806  0.5188 -0.8902  1.3752
    1SOL    HW3 9467   3.550   0.818   3.813  1.1163 -1.2658  0.4697
    1SOL    MW4 9468   3.619   0.866   3.790  0.6359 -0.6821  0.2098
    1SOL     OW 9469   3.587   1.123   3.858  0.0208 -0.0142  0.1896
    1SOL    HW2 9470   3.665   1.169   3.828 -0.1599  0.1812  0.0143
    1SOL    HW3 9471   3.514   1.173   3.822 -0.1959  0.0637  0.7204
    1SOL    MW4 9472   3.588   1.136   3.849 -0.0315  0.0219  0.2365
    1SOL     OW 9473   3.812   1.255   3.775  0.0030  0.2472 -0.2469
    1SOL    HW2 9474   3.896   1.213   3.792 -0.0809 -0.3482 -1.2193
    1SOL    HW3 9475   3.821   1.344   3.808  0.5910 -0.1857  0.7710
    1SOL    MW4 9476   3.824   1.261   3.781  0.0694  0.1116 -0.2410
    1SOL     OW 9477   3.829   1.527   3.861 -0.1802 -0.1606  0.2564
    1SOL    HW2 9478   3.838   1.536   3.956  0.5860  1.6824  0.0110
    1SOL    HW3 9479   3.743   1.565   3.841  0.9159  2.1849 -0.1400
    1SOL    MW4 9480   3.819   1.533   3.871  0.0653  0.3921  0.1717
    1SOL     OW 9481   3.567   1.673   3.791  0.1476 -0.3431 -0.0366
    1SOL    HW2 9482   3.487   1.624   3.805  0.5924 -0.9665  0.3539
    1SOL    HW3 9483   3.580   1.673   3.696 -0.6284  0.2784 -0.1487
    1SOL    MW4 9484   3.558   1.667   3.781  0.1042 -0.3433  0.0000
    1SOL     OW 9485   3.575   1.936   3.871 -0.4921 -0.1872 -0.2164
    1SOL    HW2 9486   3.559   1.847   3.840 -0.3784 -1.0020  1.9683
    1SOL    HW3 9487   3.573   1.929   3.967  1.6751  1.7502  0.0244
    1SOL    MW4 9488   3.572   1.923   3.880 -0.1912 -0.0391  0.1037
    1SOL     OW 9489   3.783   2.081   3.812 -0.3403 -0.1678  0.3894
    1SOL    HW2 9490   3.857   2.020   3.818 -0.1366 -0.0357 -0.6115
    1SOL    HW3 9491   3.706   2.028   3.834  0.1144 -0.1584  2.0280
    1SOL    MW4 9492   3.783   2.066   3.816 -0.2534 -0.1490  0.4737
    1SOL     OW 9493   3.842   2.327   3.920 -0.8251 -0.0587  0.9788
    1SOL    HW2 9494   3.828   2.235   3.897 -1.4730  0.4967 -0.9041
    1SOL    HW3 9495   3.771   2.374   3.876  0.5014  1.5421  0.5123
    1SOL    MW4 9496   3.830   2.321   3.911 -0.7355  0.2258  0.6690
    1SOL     OW 9497   3.633   2.448   3.799  0.4318 -0.0010 -0.3789
    1SOL    HW2 9498   3.547   2.427   3.836  0.7493 -0.1447  0.2743
    1SOL    HW3 9499   3.621   2.437   3.705 -0.0736 -0.7182 -0.2380
    1SOL    MW4 9500   3.620   2.444   3.791  0.4072 -0.1147 -0.2742
    1SOL     OW 9501   3.598   2.718   3.887 -0.0429 -0.0462  0.2508
    1SOL    HW2 9502   3.603   2.627   3.857  0.6789  0.2458 -0.5153
    1SOL    HW3 9503   3.525   2.756   3.838  0.2730  0.0555 -0.1414
    1SOL    MW4 9504   3.589   2.711   3.877  0.0939  0.0057  0.0980
    1SOL     OW 9505   3.840   2.864   3.801 -0.3891 -0.3678 -0.5291
    1SOL    HW2 9506   3.924   2.822   3.817 -0.4648  0.5451  2.6086
    1SOL    HW3 9507   3.777   2.809   3.848 -1.0697  0.7804 -0.0775
    1SOL    MW4 9508   3.843   2.851   3.809 -0.4890 -0.0958 -0.0558
    1SOL     OW 9509   3.843   3.122   3.885  0.4757  0.1444 -0.1456
    1SOL    HW2 9510   3.765   3.163   3.848  0.3678  0.5245  0.5039
    1SOL    HW3 9511   3.842   3.033   3.851  0.6172  0.6253 -1.4302
    1SOL    MW4 9512   3.833   3.116   3.876  0.4802  0.2580 -0.2294
    1SOL     OW 9513   3.598   3.201   3.776  0.0905  0.0600  0.0059
    1SOL    HW2 9514   3.566   3.281   3.818 -2.2261 -0.7178 -0.2215
    1SOL    HW3 9515   3.582   3.215   3.683 -0.7485 -0.8458  0.0076
    1SOL    MW4 9516   3.592   3.214   3.770 -0.3259 -0.1624 -0.0236
    1SOL     OW 9517   3.553   3.442   3.886  0.2131 -0.3208 -0.1247
    1SOL    HW2 9518   3.544   3.468   3.978  0.5330  0.8526 -0.4181
    1SOL    HW3 9519   3.497   3.504   3.839 -2.2767 -2.7127 -0.4608
    1SOL    MW4 9520   3.544   3.454   3.892 -0.0732 -0.4816 -0.2077
    1SOL     OW 9521   3.787   3.611   3.783 -0.0998 -0.1168  0.4701
    1SOL    HW2 9522   3.790   3.704   3.805  0.3221 -0.1932  0.7533
    1SOL    HW3 9523   3.711   3.577   3.829 -0.3103  0.1092  0.2873
    1SOL    MW4 9524   3.778   3.619   3.792 -0.0718 -0.0970  0.4833
    1SOL     OW 9525   3.814   3.871   3.904 -0.1340  0.5501 -0.0952
    1SOL    HW2 9526   3.820   3.905   3.993  0.6808 -0.0277  0.0742
    1SOL    HW3 9527   3.891   3.906   3.859  0.0755 -0.0986 -0.2462
    1SOL    MW4 9528   3.825   3.880   3.910  0.0012  0.3881 -0.0930
    1SOL     OW 9529   3.588   3.999   3.780  0.6380 -0.5131 -0.4300
    1SOL    HW2 9530   3.592   4.089   3.813  0.6855 -0.1220 -1.4772
    1SOL    HW3 9531   3.658   3.954   3.826  0.5211 -0.0547  0.2126
    1SOL    MW4 9532   3.598   4.005   3.790  0.6287 -0.4010 -0.4833
    1SOL     OW 9533   3.559   4.276   3.879 -0.2546 -0.1687 -0.2481
    1SOL    HW2 9534   3.572   4.274   3.974  0.4176 -1.5940 -0.3574
    1SOL    HW3 9535   3.635   4.323   3.846  0.8209 -1.8832 -0.2685
    1SOL    MW4 9536   3.571   4.282   3.887 -0.0241 -0.5832 -0.2649
    1SOL     OW 9537   3.771   4.417   3.785  0.4988  0.0651 -0.0332
    1SOL    HW2 9538   3.839   4.360   3.822  1.5641  0.3209 -1.5487
    1SOL    HW3 9539   3.775   4.400   3.691  0.1378  1.9110 -0.3963
    1SOL    MW4 9540   3.780   4.407   3.777  0.5915  0.3419 -0.2811
    1SOL     OW 9541   4.230   4.638   3.909 -0.1001 -0.2680  0.0253
    1SOL    HW2 9542   4.235   4.652   4.003 -0.0814  0.7921 -0.1212
    1SOL    HW3 9543   4.302   4.691   3.873 -0.3917 -0.2971 -0.6120
    1SOL    MW4 9544   4.240   4.647   3.917 -0.1359 -0.1321 -0.0782
    1SOL     OW 9545   4.010   0.101   3.809 -0.2283 -0.1137  0.4385
    1SOL    HW2 9546   4.094   0.060   3.827  0.8999  1.6336 -0.6430
    1SOL    HW3 9547   4.001   0.096   3.713 -0.7549  0.8296  0.4300
    1SOL    MW4 9548   4.020   0.095   3.799 -0.1493  0.2413  0.2944
    1SOL     OW 9549   4.047   0.386   3.859  0.1878 -0.1308  0.3223
    1SOL    HW2 9550   4.053   0.380   3.955 -1.8787 -0.5589  0.4643
    1SOL    HW3 9551   4.028   0.297   3.831 -1.2554  0.3497 -0.2894
    1SOL    MW4 9552   4.045   0.374   3.868 -0.2756 -0.1239  0.2604
    1SOL     OW 9553   4.287   0.496   3.789 -0.3335  0.1236 -0.4939
    1SOL    HW2 9554   4.202   0.461   3.815 -0.2555  0.8790  0.8264
    1SOL    HW3 9555   4.286   0.492   3.693 -1.5139 -0.6598 -0.4608
    1SOL    MW4 9556   4.275   0.491   3.780 -0.4783  0.1199 -0.3154
    1SOL     OW 9557   4.309   0.755   3.881 -0.1070  0.0697  0.1338
    1SOL    HW2 9558   4.226   0.782   3.841  0.8810  0.2789 -1.8136
    1SOL    HW3 9559   4.310   0.659   3.873  0.4864  0.1796 -1.1479
    1SOL    MW4 9560   4.298   0.746   3.875  0.1020  0.1118 -0.2923
    1SOL     OW 9561   4.073   0.838   3.782 -0.0904 -0.4544  0.7074
    1SOL    HW2 9562   4.066   0.930   3.808  1.1813 -0.3430  0.6892
    1SOL    HW3 9563   4.049   0.837   3.689  0.8970  0.0159  0.4453
    1SOL    MW4 9564   4.069   0.850   3.773  0.2074 -0.3777  0.6704
    1SOL     OW 9565   4.029   1.105   3.842  0.3177  0.1522 -0.2412
    1SOL    HW2 9566   4.041   1.099   3.937 -0.2864  0.2332 -0.1546
    1SOL    HW3 9567   4.111   1.142   3.810  0.2659  0.7731  0.3316
    1SOL    MW4 9568   4.041   1.109   3.851  0.2313  0.2447 -0.1540
    1SOL     OW 9569   4.266   1.235   3.779 -0.1229  0.8487  0.0352
    1SOL    HW2 9570   4.265   1.325   3.812  0.4428  1.4017 -1.4221
    1SOL    HW3 9571   4.283   1.244   3.685 -1.1062 -0.7290 -0.3102
    1SOL    MW4 9572   4.268   1.248   3.771 -0.1779  0.7136 -0.2027
    1SOL     OW 9573   4.309   1.519   3.845 -0.2680 -0.1904 -0.1197
    1SOL    HW2 9574   4.231   1.573   3.832 -0.3582 -0.6998 -1.8781
    1SOL    HW3 9575   4.381   1.570   3.806 -0.2807 -1.1023 -1.3848
    1SOL    MW4 9576   4.308   1.533   3.838 -0.2813 -0.3778 -0.5186
    1SOL     OW 9577   4.082   1.690   3.776 -0.0634 -0.2329  0.1641
    1SOL    HW2 9578   4.077   1.782   3.803 -0.7295 -0.1985 -0.0775
    1SOL    HW3 9579   3.998   1.653   3.802  0.7574 -1.1484  1.6128
    1SOL    MW4 9580   4.070   1.697   3.783 -0.0429 -0.3490  0.3233
    1SOL     OW 9581   4.038   1.958   3.836 -0.0185  0.2219  0.7976
    1SOL    HW2 9582   4.031   1.972   3.930  0.2289  0.1387  0.8294
    1SOL    HW3 9583   4.119   2.003   3.811 -0.9458  1.6535  0.3443
    1SOL    MW4 9584   4.048   1.966   3.845 -0.1082  0.3998  0.7422
    1SOL     OW 9585   4.277   2.084   3.774 -0.0302  0.0167 -0.3592
    1SOL    HW2 9586   4.272   2.171   3.813  1.5041  0.2334 -0.6208
    1SOL    HW3 9587   4.266   2.099   3.680 -2.2272 -0.3500 -0.1902
    1SOL    MW4 9588   4.275   2.097   3.767 -0.1183 -0.0033 -0.3717
    1SOL     OW 9589   4.261   2.317   3.921  0.2195 -0.1309 -0.2726
    1SOL    HW2 9590   4.246   2.321   4.016 -0.1850 -1.1843 -0.2903
    1SOL    HW3 9591   4.197   2.379   3.885  0.2308  0.1196  0.1232
    1SOL    MW4 9592   4.250   2.326   3.929  0.1678 -0.2367 -0.2227
    1SOL     OW 9593   4.057   2.443   3.787 -0.4881  0.1249 -0.4183
    1SOL    HW2 9594   4.055   2.524   3.838 -1.2467 -0.0047 -0.2415
    1SOL    HW3 9595   3.982   2.393   3.818 -0.6655 -0.1722 -1.3122
    1SOL    MW4 9596   4.047   2.447   3.797 -0.6118  0.0687 -0.5128
    1SOL     OW 9597   4.067   2.706   3.867  0.2025  0.2385 -0.0836
    1SOL    HW2 9598   4.041   2.719   3.959 -0.4189 -1.7447  0.0523
    1SOL    HW3 9599   4.141   2.766   3.854 -1.5384  2.6568  0.8562
    1SOL    MW4 9600   4.074   2.715   3.878 -0.1097  0.2959  0.0584
    1SOL     OW 9601   4.271   2.887   3.778  0.1285  0.2036 -0.3336
    1SOL    HW2 9602   4.310   2.969   3.808  0.0063  0.2011 -0.1638
    1SOL    HW3 9603   4.334   2.820   3.806 -0.5167  0.1011  0.9132
    1SOL    MW4 9604   4.284   2.889   3.786  0.0267  0.1900 -0.1469
    1SOL     OW 9605   4.291   3.162   3.880 -0.2298  0.2560  0.3995
    1SOL    HW2 9606   4.203   3.183   3.849 -0.3743 -1.0931 -0.1654
    1SOL    HW3 9607   4.349   3.215   3.825 -0.6505  0.3416  0.0306
    1SOL    MW4 9608   4.287   3.172   3.868 -0.3042  0.0894  0.2763
    1SOL     OW 9609   4.049   3.232   3.747 -0.0914 -0.1379  0.2162
    1SOL    HW2 9610   3.976   3.182   3.782 -0.3025  0.0534  0.0505
    1SOL    HW3 9611   4.036   3.229   3.652  1.5125 -2.2553  0.0268
    1SOL    MW4 9612   4.038   3.225   3.739  0.0916 -0.3922  0.1695
    1SOL     OW 9613   4.015   3.468   3.881  0.7113 -0.4216 -0.2441
    1SOL    HW2 9614   4.022   3.380   3.843  0.6397 -0.0309 -1.1941
    1SOL    HW3 9615   3.941   3.507   3.836 -1.4095 -1.0190  2.5904
    1SOL    MW4 9616   4.006   3.461   3.870  0.4220 -0.4489  0.0045
    1SOL     OW 9617   4.248   3.627   3.800 -0.2399  0.1820 -0.0713
    1SOL    HW2 9618   4.190   3.559   3.835  0.0097 -0.2100 -0.4055
    1SOL    HW3 9619   4.336   3.600   3.826 -0.3322  1.5941  1.7555
    1SOL    MW4 9620   4.252   3.614   3.808 -0.2189  0.3166  0.1256
    1SOL     OW 9621   4.261   3.899   3.836  0.6886 -0.2458  0.3797
    1SOL    HW2 9622   4.177   3.941   3.819  0.6552 -0.0896  0.9343
    1SOL    HW3 9623   4.243   3.805   3.831  0.9514 -0.2109 -1.7893
    1SOL    MW4 9624   4.248   3.892   3.833  0.7191 -0.2203  0.1667
    1SOL     OW 9625   4.019   4.008   3.764 -0.7846  0.3868 -0.5320
    1SOL    HW2 9626   3.989   4.093   3.795 -1.1955  0.3207 -0.7588
    1SOL    HW3 9627   4.014   4.013   3.669 -1.8763 -0.2799 -0.5199
    1SOL    MW4 9628   4.015   4.020   3.756 -0.9832  0.2904 -0.5600
    1SOL     OW 9629   4.014   4.276   3.902 -0.1642 -0.0580  0.6414
    1SOL    HW2 9630   4.025   4.289   3.997 -0.9390  1.3006  0.5538
    1SOL    HW3 9631   4.092   4.317   3.864 -0.8876  1.2959  0.5786
    1SOL    MW4 9632   4.026   4.283   3.910 -0.3614  0.3004  0.6216
    1SOL     OW 9633   4.235   4.385   3.792 -0.2819 -0.5013 -0.2988
    1SOL    HW2 9634   4.234   4.463   3.847  0.5741 -0.3832 -0.4382
    1SOL    HW3 9635   4.319   4.343   3.812 -0.6613 -1.2948 -0.3497
    1SOL    MW4 9636   4.246   4.390   3.802 -0.2193 -0.5908 -0.3240
    1SOL     OW 9637   3.008   1.622   4.606 -0.0968 -0.0659 -0.3957
    1SOL    HW2 9638   3.027   1.594   4.695 -2.2119  2.0088  0.7594
    1SOL    HW3 9639   3.025   1.545   4.552  0.8343 -1.4549  1.8231
    1SOL    MW4 9640   3.013   1.608   4.610 -0.2532  0.0247  0.0501
    1SOL     OW 9641   4.079   4.319   4.187 -0.3408 -0.1993 -0.1127
    1SOL    HW2 9642   4.052   4.229   4.206  0.1045 -0.3605 -0.2374
    1SOL    HW3 9643   4.012   4.374   4.229 -0.7929 -0.5925 -0.3199
    1SOL    MW4 9644   4.066   4.315   4.195 -0.3414 -0.2723 -0.1569
    1SOL     OW 9645   2.047   0.270   4.452  0.0271  0.6713  0.2794
    1SOL    HW2 9646   1.955   0.243   4.455  0.5286 -1.0647  0.5104
    1SOL    HW3 9647   2.046   0.362   4.478 -1.5366  0.3821  1.3155
    1SOL    MW4 9648   2.035   0.279   4.456 -0.1135  0.4041  0.4463
    1SOL     OW 9649   0.660   0.737   4.127  0.0768 -0.1690 -0.0540
    1SOL    HW2 9650   0.712   0.800   4.176  1.6769 -1.2693 -0.2891
    1SOL    HW3 9651   0.689   0.748   4.036 -0.4157 -0.4920 -0.2542
    1SOL    MW4 9652   0.671   0.747   4.121  0.2230 -0.3568 -0.1116
    1SOL     OW 9653   4.280   0.808   4.148  0.2902  0.1243 -0.1754
    1SOL    HW2 9654   4.312   0.802   4.059 -0.4239 -1.3049 -0.3597
    1SOL    HW3 9655   4.357   0.826   4.201  0.5271  2.2790 -1.2072
    1SOL    MW4 9656   4.294   0.809   4.144  0.2270  0.2201 -0.3357
    1SOL     OW 9657   1.963   2.244   4.488  0.2286  0.5606 -0.5035
    1SOL    HW2 9658   1.934   2.299   4.561 -0.3023 -1.0627  0.5507
    1SOL    HW3 9659   2.058   2.258   4.483  0.3974  0.0903  1.0341
    1SOL    MW4 9660   1.972   2.253   4.497  0.1810  0.2844 -0.1612
    1SOL     OW 9661   0.031   1.098   4.130 -0.6910 -0.2339  0.8050
    1SOL    HW2 9662  -0.052   1.138   4.155 -0.2221  2.8535 -2.1963
    1SOL    HW3 9663   0.098   1.158   4.166  0.0537  0.9054 -2.3524
    1SOL    MW4 9664   0.029   1.111   4.138 -0.5309  0.3238 -0.0081
    1SOL     OW 9665   1.153   2.833   4.225  0.1203 -0.5038  0.4629
    1SOL    HW2 9666   1.147   2.925   4.198 -1.0336 -0.8087 -0.3529
    1SOL    HW3 9667   1.108   2.830   4.309 -1.5083 -0.6801 -0.4129
    1SOL    MW4 9668   1.147   2.845   4.232 -0.2470 -0.5672  0.2398
    1SOL     OW 9669   0.438   3.678   4.594 -0.5263 -0.1979  0.4140
    1SOL    HW2 9670   0.399   3.747   4.541 -0.4609 -0.1675  0.4062
    1SOL    HW3 9671   0.410   3.698   4.684  0.4873  0.5262  0.5783
    1SOL    MW4 9672   0.429   3.689   4.599 -0.3839 -0.0987  0.4349
    1SOL     OW 9673   3.331   3.510   4.492  0.2563 -0.2470 -0.7754
    1SOL    HW2 9674   3.420   3.511   4.527  0.6293 -0.5386 -1.6839
    1SOL    HW3 9675   3.286   3.582   4.537  0.3641 -1.3530  1.1517
    1SOL    MW4 9676   3.337   3.520   4.502  0.3202 -0.4315 -0.6413
    1SOL     OW 9677   0.692   3.722   4.479  0.0065  0.5946 -0.4604
    1SOL    HW2 9678   0.769   3.706   4.532 -0.0755  1.9817  0.1110
    1SOL    HW3 9679   0.618   3.705   4.538 -0.1806 -2.1914 -1.4325
    1SOL    MW4 9680   0.692   3.718   4.494 -0.0290  0.4101 -0.5131
    1SOL     OW 9681   1.317   3.967   4.212 -0.2494  0.1373 -0.3572
    1SOL    HW2 9682   1.390   3.908   4.191 -0.6313 -0.6422  0.4768
    1SOL    HW3 9683   1.239   3.922   4.180 -0.4315  0.6967 -0.7096
    1SOL    MW4 9684   1.316   3.953   4.205 -0.3238  0.1082 -0.2937
    1SOL     OW 9685   0.218   2.319   4.102  0.1274 -0.3480  0.8246
    1SOL    HW2 9686   0.231   2.227   4.125 -0.6784  0.1933  3.6283
    1SOL    HW3 9687   0.300   2.361   4.126  0.1234 -0.1478  0.4930
    1SOL    MW4 9688   0.231   2.312   4.108  0.0206 -0.2501  1.1511
    1SOL     OW 9689   1.135   4.413   4.253 -0.0036 -0.0485 -0.0600
    1SOL    HW2 9690   1.134   4.434   4.346 -1.5035  0.0528 -0.0776
    1SOL    HW3 9691   1.208   4.351   4.242  0.0294 -0.2369  1.2140
    1SOL    MW4 9692   1.144   4.407   4.264 -0.1971 -0.0601  0.1059
    1SOL     OW 9693   4.310   4.443   4.295  0.3146  0.0985  0.0372
    1SOL    HW2 9694   4.302   4.533   4.265  1.7577 -0.6109 -2.5977
    1SOL    HW3 9695   4.230   4.401   4.265  0.3151  0.1531 -0.0432
    1SOL    MW4 9696   4.299   4.449   4.287  0.5054  0.0119 -0.3209
    1SOL     OW 9697   0.013   1.664   4.497  0.2500 -0.4512  0.5787
    1SOL    HW2 9698   0.093   1.639   4.543 -0.3936  0.1138  2.0363
    1SOL    HW3 9699   0.008   1.759   4.507  0.6142 -0.1819 -1.5326
    1SOL    MW4 9700   0.023   1.674   4.505  0.2131 -0.3412  0.4921
    1SOL     OW 9701   0.229   2.816   4.234  0.3407  0.0870  0.1387
    1SOL    HW2 9702   0.215   2.910   4.222 -0.5179  0.0645  0.8818
    1SOL    HW3 9703   0.152   2.775   4.195  0.4404 -0.2780  0.3210
    1SOL    MW4 9704   0.217   2.823   4.227  0.2406  0.0360  0.2613
    1SOL     OW 9705   2.095   1.325   4.489 -0.2726 -0.0310  0.1613
    1SOL    HW2 9706   2.020   1.351   4.435 -1.0229 -1.5776  0.4272
    1SOL    HW3 9707   2.141   1.407   4.507 -2.4590  1.1007  0.8274
    1SOL    MW4 9708   2.091   1.340   4.484 -0.6599 -0.0857  0.2842
    1SOL     OW 9709   4.268   3.132   4.155 -0.0690 -0.0035 -0.0819
    1SOL    HW2 9710   4.351   3.162   4.191  0.2910  0.4030 -1.2265
    1SOL    HW3 9711   4.277   3.145   4.061 -0.6827 -1.7813 -0.4099
    1SOL    MW4 9712   4.280   3.137   4.147 -0.1025 -0.1843 -0.2761
    1SOL     OW 9713   3.538   2.684   4.656 -0.1078  0.4891 -0.1854
    1SOL    HW2 9714   3.446   2.710   4.657 -0.0512  0.7617  3.0554
    1SOL    HW3 9715   3.586   2.766   4.665  0.3682  0.0924  0.9024
    1SOL    MW4 9716   3.532   2.698   4.657 -0.0374  0.4725  0.3858
    1SOL     OW 9717   2.087   1.043   4.567 -0.2272  0.4821 -0.4131
    1SOL    HW2 9718   2.092   1.135   4.539  0.1645  0.3209 -0.8974
    1SOL    HW3 9719   2.174   1.025   4.602 -0.1282  0.1421 -0.8265
    1SOL    MW4 9720   2.099   1.053   4.568 -0.1624  0.4158 -0.5312
    1SOL     OW 9721   1.308   1.340   4.698 -0.6504 -0.3881  0.3171
    1SOL    HW2 9722   1.312   1.355   4.793 -1.7140 -0.6088  0.3953
    1SOL    HW3 9723   1.325   1.427   4.660 -1.3533 -0.0669  0.7236
    1SOL    MW4 9724   1.311   1.354   4.706 -0.8835 -0.3749  0.3815
    1SOL     OW 9725   0.220   4.468   4.235  0.2225  0.0386  0.0429
    1SOL    HW2 9726   0.224   4.454   4.330 -1.1969  0.9137  0.2511
    1SOL    HW3 9727   0.169   4.394   4.202  0.4829 -0.1168 -0.0173
    1SOL    MW4 9728   0.214   4.456   4.243  0.0696  0.1335  0.0634
    1SOL     OW 9729   3.122   1.149   4.121  0.1353  0.0748  0.3327
    1SOL    HW2 9730   3.139   1.131   4.028  0.9509  1.2184  0.2499
    1SOL    HW3 9731   3.042   1.201   4.120  0.1975  0.1708  0.2592
    1SOL    MW4 9732   3.114   1.153   4.108  0.2511  0.2383  0.3123
    1SOL     OW 9733   0.855   0.829   4.542 -0.0323  0.5965 -0.1485
    1SOL    HW2 9734   0.777   0.832   4.598  0.5725  0.9857  0.6763
    1SOL    HW3 9735   0.911   0.899   4.575  0.4429  0.6570 -1.0816
    1SOL    MW4 9736   0.852   0.838   4.554  0.1101  0.6558 -0.1631
    1SOL     OW 9737   0.488   0.090   4.135  0.3781  0.2478 -0.0604
    1SOL    HW2 9738   0.489   0.186   4.136 -0.6747  0.2801 -0.4522
    1SOL    HW3 9739   0.566   0.066   4.085  1.0095  0.8786  0.6074
    1SOL    MW4 9740   0.498   0.099   4.128  0.3224  0.3353 -0.0238
    1SOL     OW 9741   0.495   0.370   4.120  0.2104 -0.0864 -0.1360
    1SOL    HW2 9742   0.573   0.419   4.097  0.2157  0.3922  0.8519
    1SOL    HW3 9743   0.444   0.366   4.039  1.1802 -0.2812 -0.7469
    1SOL    MW4 9744   0.498   0.376   4.106  0.3390 -0.0490 -0.0858
    1SOL     OW 9745   0.791   0.932   4.295 -0.4679  0.0086 -0.1384
    1SOL    HW2 9746   0.749   1.017   4.305 -1.1978 -0.4615  0.8813
    1SOL    HW3 9747   0.800   0.898   4.385  0.5439 -0.6409 -0.4648
    1SOL    MW4 9748   0.787   0.938   4.309 -0.4306 -0.1391 -0.0467
    1SOL     OW 9749   0.049   0.580   4.677  0.3362 -0.4856 -0.3824
    1SOL    HW2 9750  -0.032   0.543   4.643 -0.2041  0.0842  0.2648
    1SOL    HW3 9751   0.022   0.661   4.721  1.2520 -0.2886 -0.1724
    1SOL    MW4 9752   0.035   0.586   4.679  0.3858 -0.3845 -0.2694
    1SOL     OW 9753   2.683   2.052   4.275  0.2612  0.3973  0.0604
    1SOL    HW2 9754   2.707   2.024   4.363  0.4426  0.7033  0.1114
    1SOL    HW3 9755   2.588   2.065   4.279  0.2042 -0.0340  0.0839
    1SOL    MW4 9756   2.674   2.050   4.287  0.2780  0.3808  0.0701
    1SOL     OW 9757   0.710   1.596   4.199 -0.4002  0.1500 -0.0735
    1SOL    HW2 9758   0.759   1.515   4.210 -1.8997 -0.7664  0.0116
    1SOL    HW3 9759   0.707   1.610   4.104 -1.1712 -0.5678 -0.1673
    1SOL    MW4 9760   0.716   1.587   4.188 -0.6999 -0.0656 -0.0744
    1SOL     OW 9761   0.195   0.705   4.150 -0.0703 -0.3751 -0.4338
    1SOL    HW2 9762   0.150   0.621   4.142 -0.6580 -0.1163  0.1345
    1SOL    HW3 9763   0.138   0.758   4.205  1.0123 -0.1058  0.4561
    1SOL    MW4 9764   0.182   0.701   4.156 -0.0050 -0.3054 -0.2413
    1SOL     OW 9765   0.551   2.273   4.552 -0.1015  0.0850 -0.0948
    1SOL    HW2 9766   0.581   2.183   4.534 -0.5818  0.2399 -1.7419
    1SOL    HW3 9767   0.456   2.270   4.539 -0.2778  0.5592  1.0405
    1SOL    MW4 9768   0.542   2.260   4.548 -0.1881  0.1681 -0.1626
    1SOL     OW 9769   4.029   1.055   4.518 -0.2480 -0.6111  0.4394
    1SOL    HW2 9770   4.035   0.995   4.443 -0.2099  0.1450 -0.1678
    1SOL    HW3 9771   3.973   1.126   4.487  2.9294  1.7117 -0.2737
    1SOL    MW4 9772   4.022   1.056   4.504  0.1764 -0.2049  0.2651
    1SOL     OW 9773   0.456   1.885   4.157 -1.0448  0.3948 -0.1271
    1SOL    HW2 9774   0.528   1.943   4.180 -2.2936  1.9449 -0.0895
    1SOL    HW3 9775   0.468   1.867   4.063 -0.4769  0.4459 -0.0627
    1SOL    MW4 9776   0.467   1.890   4.147 -1.1346  0.6063 -0.1135
    1SOL     OW 9777   1.887   3.208   4.504 -0.2073  0.1822 -0.0808
    1SOL    HW2 9778   1.976   3.174   4.494 -0.3868 -0.0532 -1.0045
    1SOL    HW3 9779   1.856   3.218   4.414 -1.0681  0.3864  0.2354
    1SOL    MW4 9780   1.895   3.205   4.490 -0.3445  0.1781 -0.1602
    1SOL     OW 9781   0.678   2.329   4.171  0.0400  0.8977  0.0835
    1SOL    HW2 9782   0.587   2.351   4.194 -0.1505  0.7920 -0.5513
    1SOL    HW3 9783   0.681   2.339   4.076  0.5643  0.4127  0.0498
    1SOL    MW4 9784   0.666   2.333   4.161  0.0840  0.8199 -0.0048
    1SOL     OW 9785   2.082   4.116   4.630  0.1514  0.0625  0.0181
    1SOL    HW2 9786   2.037   4.157   4.704 -2.6618 -0.0765 -1.5752
    1SOL    HW3 9787   2.103   4.188   4.571  2.3813  0.1705  0.8788
    1SOL    MW4 9788   2.079   4.130   4.632  0.0746  0.0591 -0.0787
    1SOL     OW 9789   0.695   2.864   4.197  0.5121  0.6222 -0.1908
    1SOL    HW2 9790   0.768   2.818   4.155  0.1032  0.5256 -0.7873
    1SOL    HW3 9791   0.619   2.809   4.181  0.4263  0.3479  1.0731
    1SOL    MW4 9792   0.695   2.851   4.189  0.4469  0.5734 -0.1025
    1SOL     OW 9793   1.614   2.816   4.186 -0.5559 -0.1706  0.7108
    1SOL    HW2 9794   1.598   2.826   4.280 -0.1504  1.8003  0.5916
    1SOL    HW3 9795   1.704   2.784   4.181 -0.7054 -0.6413  1.0053
    1SOL    MW4 9796   1.624   2.813   4.198 -0.5221  0.0277  0.7339
    1SOL     OW 9797   0.681   3.126   4.141  0.1232 -0.0149  0.0983
    1SOL    HW2 9798   0.672   3.035   4.169 -0.4938 -0.3180 -1.0822
    1SOL    HW3 9799   0.599   3.167   4.169  0.0878  0.0034 -0.0329
    1SOL    MW4 9800   0.669   3.119   4.149  0.0371 -0.0527 -0.0753
    1SOL     OW 9801   0.015   3.219   4.273 -0.0245  0.2228 -0.0291
    1SOL    HW2 9802   0.025   3.305   4.233  1.2513  0.1505  0.1187
    1SOL    HW3 9803   0.054   3.227   4.360  0.4806 -0.6069 -0.1674
    1SOL    MW4 9804   0.021   3.231   4.279  0.2105  0.1037 -0.0277
    1SOL     OW 9805   0.753   1.149   4.722  0.3115 -0.0680 -0.2799
    1SOL    HW2 9806   0.835   1.103   4.739 -0.2980 -1.5833 -1.3608
    1SOL    HW3 9807   0.686   1.081   4.723 -0.9773  1.1941  0.8419
    1SOL    MW4 9808   0.755   1.134   4.724  0.0611 -0.1014 -0.2742
    1SOL     OW 9809   4.103   3.744   4.605 -0.4002  0.1057 -0.2222
    1SOL    HW2 9810   4.158   3.681   4.558  0.4906  0.7407 -0.0305
    1SOL    HW3 9811   4.021   3.697   4.620 -0.5365 -0.2733 -2.0142
    1SOL    MW4 9812   4.099   3.729   4.601 -0.3004  0.1392 -0.4339
    1SOL     OW 9813   0.708   3.602   4.234  0.2221 -0.0462  0.2682
    1SOL    HW2 9814   0.799   3.573   4.221 -0.0294 -0.0445 -1.6146
    1SOL    HW3 9815   0.701   3.615   4.329  2.1676 -0.1011  0.4515
    1SOL    MW4 9816   0.719   3.600   4.245  0.4456 -0.0532  0.0443
    1SOL     OW 9817   2.476   0.314   4.695  0.6977 -0.1429 -0.1026
    1SOL    HW2 9818   2.500   0.240   4.639 -0.0934 -0.1843 -0.3854
    1SOL    HW3 9819   2.450   0.382   4.634  0.0975 -0.0937  0.2096
    1SOL    MW4 9820   2.476   0.313   4.679  0.5140 -0.1419 -0.0992
    1SOL     OW 9821   4.308   0.484   4.496 -0.0049  0.2710  0.0621
    1SOL    HW2 9822   4.297   0.492   4.401 -0.0083  1.5431  0.1657
    1SOL    HW3 9823   4.271   0.565   4.531 -0.6072 -0.5019  1.1978
    1SOL    MW4 9824   4.302   0.496   4.488 -0.0849  0.3369  0.2260
    1SOL     OW 9825   0.241   4.439   4.517 -0.2909 -0.2339 -0.3520
    1SOL    HW2 9826   0.239   4.521   4.567  0.4527 -0.5822  0.2488
    1SOL    HW3 9827   0.162   4.393   4.545  0.5539 -0.8028  1.1420
    1SOL    MW4 9828   0.230   4.444   4.527 -0.0813 -0.3548 -0.0753
    1SOL     OW 9829   1.248   4.619   4.139  0.0915  0.3941 -0.0450
    1SOL    HW2 9830   1.215   4.539   4.180 -1.3057  0.3927 -1.1220
    1SOL    HW3 9831   1.206   4.620   4.053  2.1969  0.8980 -1.1007
    1SOL    MW4 9832   1.238   4.608   4.133  0.1850  0.4611 -0.3266
    1SOL     OW 9833   1.039   0.138   4.219  0.0735 -0.5018 -0.1074
    1SOL    HW2 9834   1.047   0.203   4.149  0.9809 -0.0397  0.4251
    1SOL    HW3 9835   1.108   0.074   4.200  1.3433  0.4596  1.2556
    1SOL    MW4 9836   1.049   0.138   4.207  0.3610 -0.3140  0.1426
    1SOL     OW 9837   1.439   4.323   4.573  0.0194 -0.4560 -0.2352
    1SOL    HW2 9838   1.488   4.359   4.499  0.5321 -1.2669 -0.2960
    1SOL    HW3 9839   1.354   4.366   4.569  1.2407  2.1612  0.7933
    1SOL    MW4 9840   1.434   4.333   4.563  0.2482 -0.2174 -0.1073
    1SOL     OW 9841   0.452   1.643   4.276 -0.1017  0.2201  0.4709
    1SOL    HW2 9842   0.544   1.616   4.267 -0.1696 -0.1021  0.7320
    1SOL    HW3 9843   0.449   1.731   4.238  0.3328  0.2606  0.5270
    1SOL    MW4 9844   0.464   1.651   4.270 -0.0533  0.1829  0.5131
    1SOL     OW 9845   1.142   0.786   4.064  0.0309  0.0550 -0.3105
    1SOL    HW2 9846   1.231   0.816   4.080  0.4331 -0.1526 -2.0178
    1SOL    HW3 9847   1.087   0.860   4.089  0.7210  0.4380  0.0910
    1SOL    MW4 9848   1.146   0.800   4.069  0.1751  0.0781 -0.4830
    1SOL     OW 9849   1.624   0.327   4.638 -0.0605 -0.4693  0.1132
    1SOL    HW2 9850   1.662   0.405   4.599  0.3000 -0.0634  1.2551
    1SOL    HW3 9851   1.530   0.344   4.639 -0.1419 -0.8237 -1.3053
    1SOL    MW4 9852   1.617   0.339   4.633 -0.0236 -0.4625  0.0763
    1SOL     OW 9853   0.994   1.021   4.132  0.2533  0.5512  0.4062
    1SOL    HW2 9854   0.934   0.984   4.197  0.7634  0.3069  0.7470
    1SOL    HW3 9855   1.055   1.073   4.185  0.5744  0.4810  0.1031
    1SOL    MW4 9856   0.994   1.023   4.148  0.3630  0.5097  0.4115
    1SOL     OW 9857   4.304   1.434   4.496 -0.0989 -0.4655 -0.2464
    1SOL    HW2 9858   4.366   1.506   4.503  0.1900 -0.8755  1.6776
    1SOL    HW3 9859   4.223   1.467   4.533 -0.1835 -0.8695 -0.0613
    1SOL    MW4 9860   4.302   1.448   4.502 -0.0720 -0.5728  0.0319
    1SOL     OW 9861   3.996   3.322   4.511 -0.5825 -0.2118  0.1796
    1SOL    HW2 9862   4.086   3.325   4.544 -0.7515 -0.6025  0.6775
    1SOL    HW3 9863   4.005   3.291   4.421 -0.2156 -0.1794  0.2032
    1SOL    MW4 9864   4.009   3.318   4.503 -0.5560 -0.2592  0.2480
    1SOL     OW 9865   1.143   3.476   4.585 -0.4694 -0.2038  0.0380
    1SOL    HW2 9866   1.159   3.513   4.498 -1.5311 -1.3170 -0.6396
    1SOL    HW3 9867   1.229   3.448   4.616 -0.5047 -2.7355 -2.0031
    1SOL    MW4 9868   1.157   3.477   4.578 -0.6140 -0.6845 -0.3209
    1SOL     OW 9869   0.410   1.835   4.500 -0.1687  0.1561 -0.3594
    1SOL    HW2 9870   0.441   1.764   4.443  1.0726  0.6251 -0.2925
    1SOL    HW3 9871   0.483   1.897   4.502 -0.5422  0.5625  1.0521
    1SOL    MW4 9872   0.424   1.834   4.493 -0.0542  0.2717 -0.1640
    1SOL     OW 9873   0.931   1.988   4.211  0.1257  0.0274 -0.2791
    1SOL    HW2 9874   1.009   2.016   4.259 -0.2585  1.2288 -0.3413
    1SOL    HW3 9875   0.952   2.004   4.119 -0.5374  1.2061 -0.2251
    1SOL    MW4 9876   0.944   1.994   4.206 -0.0124  0.3414 -0.2799
    1SOL     OW 9877   2.541   2.324   4.587  0.1043 -0.0366  0.0508
    1SOL    HW2 9878   2.608   2.312   4.520  0.6275  0.5446  0.4663
    1SOL    HW3 9879   2.474   2.377   4.544 -0.0612 -0.5516 -0.3399
    1SOL    MW4 9880   2.541   2.329   4.573  0.1514 -0.0277  0.0539
    1SOL     OW 9881   0.382   3.954   4.522  0.2587 -0.2797  0.3398
    1SOL    HW2 9882   0.412   3.965   4.431 -1.6018 -0.6196 -0.3369
    1SOL    HW3 9883   0.390   4.042   4.560  2.1715 -0.3838  0.2214
    1SOL    MW4 9884   0.387   3.967   4.515  0.2656 -0.3386  0.2351
    1SOL     OW 9885   0.937   2.708   4.089  0.3126  0.4637  0.4295
    1SOL    HW2 9886   0.924   2.617   4.115 -2.5892  0.3519 -1.1680
    1SOL    HW3 9887   1.002   2.742   4.150  0.0509 -2.1509  2.2331
    1SOL    MW4 9888   0.944   2.701   4.100 -0.1047  0.1040  0.4568
    1SOL     OW 9889   0.959   3.699   4.601 -0.0455 -0.0834 -0.0802
    1SOL    HW2 9890   1.011   3.622   4.621  1.0845  0.4602 -0.8768
    1SOL    HW3 9891   1.023   3.765   4.572 -1.0921  0.8153 -0.4008
    1SOL    MW4 9892   0.974   3.698   4.600 -0.0344  0.1068 -0.2275
    1SOL     OW 9893   1.099   3.081   4.105  0.3775 -0.2353  0.1299
    1SOL    HW2 9894   1.102   3.108   4.013 -0.2798  0.2683  0.2516
    1SOL    HW3 9895   1.041   3.144   4.147  0.9064 -0.2880  0.9576
    1SOL    MW4 9896   1.092   3.093   4.099  0.3606 -0.1757  0.2551
    1SOL     OW 9897   3.564   0.124   4.285 -0.4011  0.0552  0.0766
    1SOL    HW2 9898   3.641   0.075   4.259  0.0102  0.3643  0.6975
    1SOL    HW3 9899   3.581   0.214   4.257 -0.5336  0.1252  0.2150
    1SOL    MW4 9900   3.576   0.129   4.278 -0.3643  0.1052  0.1769
    1SOL     OW 9901   0.217   3.587   4.325  0.0383 -0.1048  0.3001
    1SOL    HW2 9902   0.216   3.678   4.294 -1.0358  0.2741  1.4352
    1SOL    HW3 9903   0.303   3.554   4.298  0.0259  0.9200 -1.0428
    1SOL    MW4 9904   0.228   3.595   4.317 -0.1051  0.0803  0.2728
    1SOL     OW 9905   4.046   2.746   4.144  0.0560  0.0908  0.2725
    1SOL    HW2 9906   4.036   2.654   4.167  0.0569  0.0019 -0.0888
    1SOL    HW3 9907   3.962   2.785   4.170  0.7435  0.3558  2.1777
    1SOL    MW4 9908   4.033   2.739   4.150  0.1469  0.1140  0.4764
    1SOL     OW 9909   2.109   2.922   4.268  0.0230 -0.4268  0.0715
    1SOL    HW2 9910   2.035   2.872   4.233  0.6155 -2.1389  1.1617
    1SOL    HW3 9911   2.186   2.869   4.247  0.7855  0.5751  0.2943
    1SOL    MW4 9912   2.109   2.908   4.261  0.2017 -0.5205  0.2451
    1SOL     OW 9913   0.440   3.251   4.255 -0.3286 -0.0700 -0.2067
    1SOL    HW2 9914   0.436   3.337   4.214 -1.2274  0.5079  1.0717
    1SOL    HW3 9915   0.476   3.267   4.342 -0.0700 -1.0496 -0.1226
    1SOL    MW4 9916   0.444   3.265   4.261 -0.4131 -0.1230 -0.0272
    1SOL     OW 9917   0.891   4.287   4.163 -0.0474  0.3840  0.0472
    1SOL    HW2 9918   0.829   4.339   4.213 -0.1058 -1.2903  1.7567
    1SOL    HW3 9919   0.977   4.318   4.191 -0.0794  1.0270 -0.5401
    1SOL    MW4 9920   0.894   4.298   4.173 -0.0592  0.2480  0.1950
    1SOL     OW 9921   0.710   4.525   4.739 -0.3076 -0.0846 -0.1172
    1SOL    HW2 9922   0.724   4.494   4.829  1.2833 -0.4601 -0.4744
    1SOL    HW3 9923   0.697   4.445   4.688  0.6604  0.0104 -0.5207
    1SOL    MW4 9924   0.710   4.511   4.744  0.0302 -0.1216 -0.2179
    1SOL     OW 9925   2.688   3.999   4.279 -0.0485  0.0287 -0.3424
    1SOL    HW2 9926   2.660   3.980   4.368  1.3423 -0.5579 -0.0155
    1SOL    HW3 9927   2.612   3.976   4.224 -0.2309 -1.4798  0.5154
    1SOL    MW4 9928   2.674   3.993   4.283  0.1111 -0.2477 -0.1855
    1SOL     OW 9929   1.498   0.080   4.160 -0.1413 -0.1767  0.3435
    1SOL    HW2 9930   1.551   0.047   4.232  0.0287 -0.3925  0.1213
    1SOL    HW3 9931   1.419   0.025   4.160 -0.1708 -0.1346  0.4045
    1SOL    MW4 9932   1.494   0.068   4.169 -0.1228 -0.1996  0.3228
    1SOL     OW 9933   1.414   0.335   4.154 -0.4159 -0.2167  0.2430
    1SOL    HW2 9934   1.485   0.385   4.196  0.6817  0.1890 -2.0177
    1SOL    HW3 9935   1.444   0.245   4.155  0.6831  0.1047 -1.7323
    1SOL    MW4 9936   1.427   0.330   4.160 -0.1262 -0.1208 -0.3157
    1SOL     OW 9937   1.576   3.574   4.498 -0.2027  0.1250 -0.1973
    1SOL    HW2 9938   1.654   3.531   4.532  0.3602  1.7211  0.6006
    1SOL    HW3 9939   1.577   3.662   4.538 -0.5461  1.3964 -2.8567
    1SOL    MW4 9940   1.586   3.580   4.508 -0.1738  0.5033 -0.4430
    1SOL     OW 9941   2.239   2.019   4.561 -0.4237 -0.3065 -0.0074
    1SOL    HW2 9942   2.225   2.107   4.525 -2.2608 -1.1374 -1.3934
    1SOL    HW3 9943   2.241   2.032   4.656 -0.0852  1.3042 -0.2107
    1SOL    MW4 9944   2.238   2.032   4.569 -0.6216 -0.2036 -0.2170
    1SOL     OW 9945   1.913   4.331   4.765  0.3150  0.1140 -0.5685
    1SOL    HW2 9946   1.930   4.416   4.724 -0.8088  0.3724 -0.5170
    1SOL    HW3 9947   1.835   4.298   4.721  0.2273 -0.4882  0.0276
    1SOL    MW4 9948   1.905   4.338   4.754  0.1551  0.0687 -0.4830
    1SOL     OW 9949   0.915   3.230   4.265  0.3362 -0.1243  0.6112
    1SOL    HW2 9950   0.902   3.255   4.356  1.2518 -0.9185  0.9773
    1SOL    HW3 9951   0.828   3.206   4.233  0.0162  0.1297  1.2879
    1SOL    MW4 9952   0.902   3.230   4.273  0.4148 -0.1955  0.7486
    1SOL     OW 9953   1.522   1.144   4.131 -0.3456 -0.1931 -0.2767
    1SOL    HW2 9954   1.617   1.150   4.137 -0.4716  0.2011  1.5531
    1SOL    HW3 9955   1.505   1.130   4.038  1.5361 -0.9603 -0.5316
    1SOL    MW4 9956   1.532   1.143   4.120 -0.1141 -0.2424 -0.0691
    1SOL     OW 9957   3.279   2.747   4.637  0.2400 -0.2875  0.2233
    1SOL    HW2 9958   3.306   2.830   4.598  0.6575 -0.7961 -0.6038
    1SOL    HW3 9959   3.189   2.762   4.667  0.1033  0.2821 -0.4598
    1SOL    MW4 9960   3.271   2.760   4.636  0.2768 -0.2794  0.0238
    1SOL     OW 9961   3.333   4.385   4.498  0.4166  0.4547  0.3159
    1SOL    HW2 9962   3.256   4.338   4.529 -0.6537  0.6290 -2.0250
    1SOL    HW3 9963   3.314   4.478   4.515  0.7809  0.3810  1.1542
    1SOL    MW4 9964   3.321   4.391   4.505  0.3235  0.4683  0.1178
    1SOL     OW 9965   2.757   2.306   4.387 -0.0931 -0.6018  0.0339
    1SOL    HW2 9966   2.747   2.227   4.334  0.6525  0.4565 -1.7428
    1SOL    HW3 9967   2.689   2.365   4.354  0.4827  0.1278  0.1615
    1SOL    MW4 9968   2.746   2.303   4.376  0.0813 -0.3660 -0.1831
    1SOL     OW 9969   1.245   0.277   4.365  0.2344 -0.7069  0.0753
    1SOL    HW2 9970   1.303   0.311   4.297  0.7690 -0.1067  0.8195
    1SOL    HW3 9971   1.166   0.251   4.318  0.0663  0.9889 -0.6178
    1SOL    MW4 9972   1.242   0.278   4.350  0.2828 -0.4039  0.0820
    1SOL     OW 9973   2.398   0.517   4.532 -0.0686 -0.0428 -0.0463
    1SOL    HW2 9974   2.406   0.503   4.438  1.3828  0.4722 -0.0157
    1SOL    HW3 9975   2.330   0.585   4.540  1.0967  1.2536 -0.8455
    1SOL    MW4 9976   2.390   0.524   4.521  0.2766  0.1962 -0.1478
    1SOL     OW 9977   1.848   2.745   3.859 -0.3787 -0.4128 -0.4836
    1SOL    HW2 9978   1.761   2.785   3.858 -0.3959 -0.4063  0.9027
    1SOL    HW3 9979   1.832   2.651   3.849 -0.6576 -0.5776  1.3766
    1SOL    MW4 9980   1.835   2.738   3.858 -0.4177 -0.4334 -0.0551
    1SOL     OW 9981   3.155   3.724   4.583 -0.2761 -0.2178 -0.1796
    1SOL    HW2 9982   3.076   3.723   4.637  0.6551  0.3299  1.1865
    1SOL    HW3 9983   3.162   3.815   4.553  0.0281 -0.1900 -0.0209
    1SOL    MW4 9984   3.145   3.736   4.586 -0.1130 -0.1419  0.0215
    1SOL     OW 9985   1.361   2.146   4.497  0.3527 -0.1663  0.0980
    1SOL    HW2 9986   1.398   2.136   4.585  2.3764  1.1494 -0.5751
    1SOL    HW3 9987   1.321   2.232   4.497  1.1806  0.2279 -0.5422
    1SOL    MW4 9988   1.361   2.156   4.509  0.7290  0.0594 -0.0753
    1SOL     OW 9989   3.602   4.001   4.297 -0.1667 -0.0285  0.3321
    1SOL    HW2 9990   3.681   3.961   4.260 -0.3422  1.7465 -2.0642
    1SOL    HW3 9991   3.529   3.954   4.257 -0.3420  0.9712 -0.5583
    1SOL    MW4 9992   3.603   3.990   4.287 -0.2131  0.3376 -0.1016
    1SOL     OW 9993   3.127   0.880   4.522 -0.0133  0.5906 -0.1038
    1SOL    HW2 9994   3.206   0.929   4.542 -0.4036  0.8156  0.9314
    1SOL    HW3 9995   3.132   0.864   4.427  1.3897  0.3558  0.0024
    1SOL    MW4 9996   3.138   0.885   4.512  0.1204  0.5894  0.0472
    1SOL     OW 9997   3.306   4.654   4.563  0.1283  0.2067  0.5286
    1SOL    HW2 9998   3.386   4.707   4.570 -0.9045  1.7922  0.7768
    1SOL    HW3 9999   3.236   4.719   4.561 -1.0039 -1.0469 -2.4563
    1SOL    MW410000   3.308   4.670   4.564 -0.1578  0.2503  0.1678
    1SOL     OW10001   1.796   0.082   4.214 -0.1590  0.0478 -0.5235
    1SOL    HW210002   1.871   0.026   4.193  1.0755  1.5384 -0.2224
    1SOL    HW310003   1.772   0.058   4.303 -0.0087 -0.4191 -0.6118
    1SOL    MW410004   1.803   0.072   4.223  0.0240  0.1828 -0.4950
    1SOL     OW10005   0.893   4.008   4.251  0.0686  0.4075  0.0297
    1SOL    HW210006   0.892   4.100   4.224  1.6055  0.4118 -0.1061
    1SOL    HW310007   0.844   4.006   4.333  0.9051  1.5394  0.5729
    1SOL    MW410008   0.887   4.020   4.259  0.3818  0.5569  0.0830
    1SOL     OW10009   0.686   3.855   4.129  0.1290  0.2993  0.6114
    1SOL    HW210010   0.696   3.773   4.177  0.1273  0.5843  1.0932
    1SOL    HW310011   0.765   3.905   4.150 -0.2983  0.7990  1.0439
    1SOL    MW410012   0.698   3.851   4.138  0.0724  0.4029  0.7319
    1SOL     OW10013   1.611   0.501   4.269  0.0531  0.0111  0.1661
    1SOL    HW210014   1.649   0.516   4.356 -1.2106 -0.7038  0.8529
    1SOL    HW310015   1.623   0.584   4.224  0.2334  0.5724  1.2216
    1SOL    MW410016   1.617   0.514   4.275 -0.0898 -0.0092  0.3958
    1SOL     OW10017   1.793   0.094   4.536 -0.0167  0.3445 -0.3122
    1SOL    HW210018   1.760   0.171   4.582 -1.8690  0.1386 -1.2593
    1SOL    HW310019   1.715   0.049   4.505  1.0847 -1.4125 -0.6101
    1SOL    MW410020   1.778   0.098   4.538 -0.1158  0.0855 -0.4768
    1SOL     OW10021   2.006   4.608   4.115 -0.1451  0.1404  0.1886
    1SOL    HW210022   2.088   4.633   4.159 -0.3994  0.2927  0.5743
    1SOL    HW310023   2.022   4.628   4.023  0.2565  0.1645  0.2604
    1SOL    MW410024   2.019   4.614   4.108 -0.1256  0.1636  0.2494
    1SOL     OW10025   2.009   0.511   4.190 -0.0196  0.6249 -0.3643
    1SOL    HW210026   2.081   0.448   4.191 -0.0304  0.6097  1.6345
    1SOL    HW310027   1.930   0.456   4.180 -0.1035  0.1812  2.2670
    1SOL    MW410028   2.008   0.495   4.189 -0.0322  0.5643  0.2465
    1SOL     OW10029   1.670   4.196   4.682  0.0472 -0.3423  0.1707
    1SOL    HW210030   1.592   4.252   4.675 -0.4519 -0.9755  0.5614
    1SOL    HW310031   1.649   4.136   4.753  1.6369  0.6361  1.4914
    1SOL    MW410032   1.657   4.195   4.690  0.1911 -0.2966  0.3967
    1SOL     OW10033   1.231   0.604   4.599  0.0273  0.2252 -0.1249
    1SOL    HW210034   1.285   0.615   4.521  0.9232 -0.8481  0.3282
    1SOL    HW310035   1.143   0.587   4.565  0.2104  0.7656 -0.8824
    1SOL    MW410036   1.226   0.603   4.584  0.1695  0.1549 -0.1650
    1SOL     OW10037   3.819   0.761   4.188 -0.0325 -0.2635  0.1191
    1SOL    HW210038   3.730   0.794   4.200  0.6393  1.3278  0.9131
    1SOL    HW310039   3.832   0.762   4.093 -0.4356  0.6853  0.0688
    1SOL    MW410040   3.809   0.766   4.177  0.0029  0.0716  0.2174
    1SOL     OW10041   3.548   0.136   4.569  0.1267 -0.2663 -0.3124
    1SOL    HW210042   3.613   0.075   4.604 -0.8937 -1.6710 -0.8060
    1SOL    HW310043   3.557   0.129   4.474 -0.9402 -0.7197 -0.3944
    1SOL    MW410044   3.557   0.127   4.561 -0.1488 -0.5114 -0.3886
    1SOL     OW10045   1.012   1.031   4.643 -0.2783  0.1226 -0.0166
    1SOL    HW210046   1.058   1.100   4.594 -0.3386  0.8311  0.9117
    1SOL    HW310047   1.081   0.977   4.680 -0.2222  0.0455 -0.2328
    1SOL    MW410048   1.027   1.033   4.641 -0.2789  0.2059  0.0777
    1SOL     OW10049   1.479   1.819   4.629 -0.1212  0.2824 -0.4886
    1SOL    HW210050   1.562   1.774   4.618 -0.6272 -0.7700 -0.0425
    1SOL    HW310051   1.478   1.845   4.722 -0.9635 -1.0572 -0.1206
    1SOL    MW410052   1.490   1.817   4.640 -0.2991 -0.0333 -0.3819
    1SOL     OW10053   1.850   1.377   4.283  0.0420  0.1205 -0.7842
    1SOL    HW210054   1.930   1.420   4.255  0.3423 -1.1175 -1.8691
    1SOL    HW310055   1.780   1.432   4.246  0.3832  0.9937 -0.1492
    1SOL    MW410056   1.851   1.390   4.274  0.1265  0.0724 -0.8435
    1SOL     OW10057   1.578   1.765   4.265  0.3082 -0.5699 -0.0517
    1SOL    HW210058   1.609   1.724   4.346 -0.4399  0.5070  0.8175
    1SOL    HW310059   1.657   1.779   4.213  0.9658 -0.1733  1.0303
    1SOL    MW410060   1.593   1.762   4.269  0.2964 -0.3755  0.2055
    1SOL     OW10061   1.142   1.353   4.092 -0.2722  0.3423  0.5518
    1SOL    HW210062   1.050   1.344   4.117 -0.4520  1.5086  0.3242
    1SOL    HW310063   1.186   1.280   4.136 -1.1653  0.2956  1.3807
    1SOL    MW410064   1.136   1.342   4.101 -0.4139  0.4900  0.6309
    1SOL     OW10065   0.272   2.303   4.530  0.3883  0.5253 -0.2408
    1SOL    HW210066   0.245   2.234   4.470  2.5161  0.2019 -0.8853
    1SOL    HW310067   0.200   2.310   4.593 -0.8367 -0.7295 -1.4693
    1SOL    MW410068   0.259   2.295   4.531  0.5074  0.3173 -0.4883
    1SOL     OW10069   3.580   2.728   4.167 -0.0912 -0.3072 -0.0572
    1SOL    HW210070   3.559   2.718   4.075  0.8640  0.9120 -0.4238
    1SOL    HW310071   3.513   2.787   4.201  0.2115  0.1320 -0.2264
    1SOL    MW410072   3.569   2.734   4.160  0.0749 -0.0885 -0.1283
    1SOL     OW10073   3.602   1.673   4.508  0.2950 -0.6820  0.0196
    1SOL    HW210074   3.692   1.698   4.530  0.4450 -1.1608 -0.0399
    1SOL    HW310075   3.547   1.737   4.553  0.6186 -1.2433  1.2052
    1SOL    MW410076   3.607   1.685   4.517  0.3579 -0.8192  0.1683
    1SOL     OW10077   2.265   2.711   4.159  0.0800 -0.2699  0.3468
    1SOL    HW210078   2.234   2.707   4.068  0.5181  1.8301  0.0828
    1SOL    HW310079   2.245   2.625   4.195 -1.2852 -0.6923 -1.3661
    1SOL    MW410080   2.258   2.699   4.152 -0.0422 -0.0486  0.0858
    1SOL     OW10081   1.815   1.791   4.143 -0.0301  0.0719  0.2345
    1SOL    HW210082   1.867   1.863   4.178 -0.7773  1.2418 -0.9952
    1SOL    HW310083   1.792   1.819   4.054 -3.4302 -0.0049  1.0135
    1SOL    MW410084   1.819   1.804   4.136 -0.5772  0.2161  0.1750
    1SOL     OW10085   2.768   1.854   4.099 -0.1156 -0.2203  0.0718
    1SOL    HW210086   2.731   1.925   4.151 -2.8031 -0.4361 -1.4887
    1SOL    HW310087   2.747   1.775   4.147  0.3317 -0.1738  0.3437
    1SOL    MW410088   2.761   1.853   4.112 -0.4108 -0.2427 -0.0978
    1SOL     OW10089   1.375   2.683   4.136  0.4169  0.0778  0.0617
    1SOL    HW210090   1.303   2.737   4.167  0.6577  0.6009 -0.2988
    1SOL    HW310091   1.453   2.725   4.171  0.5563 -0.4096  0.3360
    1SOL    MW410092   1.376   2.695   4.145  0.4669  0.0827  0.0501
    1SOL     OW10093   2.032   3.622   4.201 -0.5014  0.1764  0.0832
    1SOL    HW210094   1.967   3.572   4.151  0.7740 -0.0259 -1.3758
    1SOL    HW310095   2.000   3.712   4.199 -0.5950  0.1234 -0.8512
    1SOL    MW410096   2.019   3.627   4.194 -0.3455  0.1426 -0.2322
    1SOL     OW10097   0.863   1.893   4.514  0.2040  0.0223 -0.3606
    1SOL    HW210098   0.915   1.895   4.434  0.3066  0.6052 -0.2858
    1SOL    HW310099   0.901   1.823   4.566  0.1281 -0.3666 -0.8285
    1SOL    MW410100   0.875   1.884   4.510  0.2075  0.0479 -0.4120
    1SOL     OW10101   1.980   3.890   4.161 -0.0671 -0.0174 -0.3526
    1SOL    HW210102   1.980   3.898   4.066 -0.4542 -0.5222 -0.3967
    1SOL    HW310103   1.898   3.931   4.189  1.0821  2.1463 -0.0556
    1SOL    MW410104   1.969   3.897   4.152  0.0335  0.2015 -0.3190
    1SOL     OW10105   1.340   4.243   4.176  0.8845  0.0404 -0.1431
    1SOL    HW210106   1.350   4.254   4.081 -0.9533  0.2323 -0.3361
    1SOL    HW310107   1.313   4.151   4.186 -0.9822  0.5721 -0.0116
    1SOL    MW410108   1.338   4.232   4.165  0.3958  0.1359 -0.1507
    1SOL     OW10109   1.554   3.832   4.131  0.0375 -0.4405  0.0832
    1SOL    HW210110   1.577   3.747   4.168  0.4437 -0.8258 -1.0250
    1SOL    HW310111   1.622   3.891   4.163  0.3105 -0.7428  0.0689
    1SOL    MW410112   1.566   3.828   4.140  0.1273 -0.5312 -0.0648
    1SOL     OW10113   2.466   2.868   4.223  0.0081  0.2643 -0.4430
    1SOL    HW210114   2.449   2.955   4.188 -0.0929  0.1778 -0.6126
    1SOL    HW310115   2.389   2.817   4.197 -0.8978  0.6545  1.4202
    1SOL    MW410116   2.453   2.873   4.215 -0.1247  0.3045 -0.2198
    1SOL     OW10117   2.453   4.660   4.149  0.0231  0.0668 -0.3404
    1SOL    HW210118   2.530   4.709   4.177 -0.8849  0.7760  0.9996
    1SOL    HW310119   2.379   4.714   4.178 -0.9786 -0.8149 -1.2028
    1SOL    MW410120   2.453   4.674   4.156 -0.2286  0.0443 -0.2770
    1SOL     OW10121   4.101   1.907   4.335  0.1770  0.3072  0.0448
    1SOL    HW210122   4.086   1.812   4.330  0.1764  0.2551  1.0333
    1SOL    HW310123   4.044   1.936   4.406  0.8119  0.9236  0.2969
    1SOL    MW410124   4.091   1.898   4.343  0.2608  0.3816  0.2084
    1SOL     OW10125   1.351   0.054   4.511 -0.2531 -0.2763 -0.1988
    1SOL    HW210126   1.371   0.097   4.594 -0.2671 -0.5129 -0.0711
    1SOL    HW310127   1.306   0.121   4.459  1.9634  0.6656 -0.9749
    1SOL    MW410128   1.348   0.068   4.515  0.0376 -0.1832 -0.2842
    1SOL     OW10129   2.408   0.769   4.177  0.0341 -0.1215  0.4320
    1SOL    HW210130   2.427   0.751   4.085  0.3631  0.1159  0.4534
    1SOL    HW310131   2.493   0.787   4.217 -0.0376 -0.8102  0.9160
    1SOL    MW410132   2.421   0.769   4.170  0.0679 -0.1811  0.4983
    1SOL     OW10133   3.684   2.949   4.586  0.2143 -0.4886  0.1975
    1SOL    HW210134   3.704   3.042   4.596  0.7832 -0.7332  1.3282
    1SOL    HW310135   3.764   2.911   4.548 -0.2455 -0.4133 -0.8743
    1SOL    MW410136   3.697   2.956   4.582  0.2284 -0.5107  0.2055
    1SOL     OW10137   1.981   0.758   4.095  0.3527 -0.2415  0.0739
    1SOL    HW210138   2.015   0.810   4.167  0.0692  0.3943 -0.2517
    1SOL    HW310139   2.006   0.668   4.117  0.1929 -0.0659  1.0009
    1SOL    MW410140   1.989   0.753   4.107  0.2942 -0.1345  0.1531
    1SOL     OW10141   0.424   2.456   4.227  0.6391  0.1579  0.2301
    1SOL    HW210142   0.417   2.468   4.322 -0.6669  1.5709 -0.0289
    1SOL    HW310143   0.444   2.544   4.194 -1.3840  0.1718 -1.0259
    1SOL    MW410144   0.426   2.469   4.235  0.1999  0.3462  0.0296
    1SOL     OW10145   0.213   1.268   4.230  0.2751 -0.4629 -0.7218
    1SOL    HW210146   0.224   1.359   4.204 -0.2854  0.2205  1.3067
    1SOL    HW310147   0.290   1.223   4.195  1.4609  1.1429 -0.2322
    1SOL    MW410148   0.224   1.274   4.222  0.3576 -0.1608 -0.3891
    1SOL     OW10149   2.818   1.088   4.281 -0.6855  0.3231  0.3134
    1SOL    HW210150   2.799   0.994   4.282  0.4593  0.0332 -1.6268
    1SOL    HW310151   2.859   1.105   4.366  1.1276 -1.4096 -0.1672
    1SOL    MW410152   2.821   1.078   4.293 -0.2952  0.0561 -0.0057
    1SOL     OW10153   3.196   2.751   4.139  0.3175  0.2084 -0.0496
    1SOL    HW210154   3.110   2.767   4.179  0.2118  1.5969 -0.8073
    1SOL    HW310155   3.211   2.657   4.152 -0.4083  0.3261  1.8757
    1SOL    MW410156   3.187   2.741   4.146  0.2077  0.4072  0.1049
    1SOL     OW10157   0.446   4.321   4.195 -0.3484  0.0926  0.0896
    1SOL    HW210158   0.452   4.315   4.100 -0.3605  0.6955  0.0528
    1SOL    HW310159   0.370   4.377   4.212  0.9831  1.8426  0.4204
    1SOL    MW410160   0.436   4.327   4.185 -0.1743  0.4029  0.1287
    1SOL     OW10161   1.517   1.918   4.892  0.2644  0.5557  0.5379
    1SOL    HW210162   1.609   1.897   4.874  0.4537  0.5839  1.4339
    1SOL    HW310163   1.506   2.008   4.861  0.5897  0.6150  0.5900
    1SOL    MW410164   1.528   1.927   4.886  0.3324  0.5673  0.6628
    1SOL     OW10165   2.740   1.645   4.529 -0.0840  0.1424 -0.2149
    1SOL    HW210166   2.719   1.738   4.542  0.1319  0.3320 -1.2292
    1SOL    HW310167   2.827   1.634   4.567  0.3837  0.6148 -1.1407
    1SOL    MW410168   2.749   1.656   4.536  0.0060  0.2298 -0.4706
    1SOL     OW10169   2.967   1.499   4.175  0.2016 -0.5284  0.3235
    1SOL    HW210170   3.032   1.559   4.211  0.3606 -0.1693 -0.5459
    1SOL    HW310171   2.883   1.528   4.212  0.3471 -0.1007  0.3154
    1SOL    MW410172   2.964   1.511   4.185  0.2418 -0.4246  0.2079
    1SOL     OW10173   2.686   2.800   4.622  0.1867  0.0967  0.0288
    1SOL    HW210174   2.710   2.708   4.636 -0.1561 -0.0270 -0.1930
    1SOL    HW310175   2.603   2.796   4.576  0.6858  0.5108 -0.9314
    1SOL    MW410176   2.679   2.788   4.618  0.2072  0.1354 -0.1273
    1SOL     OW10177   4.486   2.449   4.233 -0.3602  0.1167  0.4164
    1SOL    HW210178   4.512   2.471   4.322 -0.4315 -0.1911  0.5120
    1SOL    HW310179   4.558   2.397   4.198 -0.7430 -0.5479  0.6055
    1SOL    MW410180   4.499   2.445   4.240 -0.4206 -0.0117  0.4539
    1SOL     OW10181   4.020   3.262   4.242  0.1569 -0.7178 -0.4033
    1SOL    HW210182   4.106   3.227   4.218  0.2782 -0.4213 -0.4042
    1SOL    HW310183   4.024   3.355   4.219 -0.1073 -0.6680 -0.2567
    1SOL    MW410184   4.032   3.270   4.236  0.1388 -0.6721 -0.3843
    1SOL     OW10185   1.902   2.762   4.140 -0.3858 -0.5757 -0.2244
    1SOL    HW210186   1.949   2.680   4.155 -1.0490 -1.0495 -0.7123
    1SOL    HW310187   1.889   2.765   4.045  0.0671  0.3380 -0.2677
    1SOL    MW410188   1.907   2.752   4.129 -0.4135 -0.5178 -0.2942
    1SOL     OW10189   0.704   2.817   4.467  0.2057 -0.0026  0.4368
    1SOL    HW210190   0.699   2.840   4.374  1.2339 -1.1706  0.0849
    1SOL    HW310191   0.649   2.739   4.476 -1.5800  1.3226  1.2225
    1SOL    MW410192   0.696   2.810   4.456  0.1057  0.0184  0.4940
    1SOL     OW10193   4.296   3.576   4.491  0.2550 -0.1164 -0.5073
    1SOL    HW210194   4.282   3.482   4.480 -0.2530 -0.0368 -0.5430
    1SOL    HW310195   4.384   3.583   4.529  0.3894 -0.5924 -0.7346
    1SOL    MW410196   4.306   3.565   4.495  0.2055 -0.1686 -0.5417
    1SOL     OW10197   2.738   3.554   4.822 -0.3441  0.5512  0.0198
    1SOL    HW210198   2.689   3.513   4.893  0.1777  0.3690  0.2800
    1SOL    HW310199   2.779   3.481   4.776 -0.9818  0.6408 -0.6986
    1SOL    MW410200   2.737   3.539   4.826 -0.3591  0.5391 -0.0405
    1SOL     OW10201   2.233   4.034   4.262  0.3781  0.0147 -0.2251
    1SOL    HW210202   2.308   3.995   4.217  0.5802  0.6852 -0.4732
    1SOL    HW310203   2.158   3.981   4.234  0.5566  0.2077 -1.0864
    1SOL    MW410204   2.233   4.022   4.252  0.4284  0.1287 -0.3710
    1SOL     OW10205   2.513   4.422   4.262  0.2392  0.2386 -0.7870
    1SOL    HW210206   2.476   4.426   4.351 -0.9798 -0.5919 -1.2394
    1SOL    HW310207   2.494   4.507   4.224  0.0342  0.3138 -0.5183
    1SOL    MW410208   2.506   4.433   4.269  0.0513  0.1388 -0.8111
    1SOL     OW10209   2.634   0.661   4.557 -0.0503 -0.4987 -0.2647
    1SOL    HW210210   2.680   0.612   4.626 -1.6490 -0.0001  1.1982
    1SOL    HW310211   2.546   0.623   4.556 -0.7947  1.1848 -0.2896
    1SOL    MW410212   2.628   0.650   4.566 -0.3593 -0.2108 -0.0753
    1SOL     OW10213   2.699   0.126   4.251  0.3900 -0.1467  0.2344
    1SOL    HW210214   2.724   0.217   4.237  0.4885 -0.2223 -0.0750
    1SOL    HW310215   2.768   0.075   4.210  0.3363 -0.3613  0.4100
    1SOL    MW410216   2.711   0.132   4.244  0.3963 -0.1850  0.2165
    1SOL     OW10217   2.324   3.687   4.532 -0.7493  0.2536 -0.0215
    1SOL    HW210218   2.247   3.636   4.506 -0.5207 -0.3314  0.4404
    1SOL    HW310219   2.296   3.778   4.522 -0.7479  0.0638 -2.0822
    1SOL    MW410220   2.310   3.692   4.527 -0.7191  0.1514 -0.2322
    1SOL     OW10221   2.706   0.387   4.173  0.1838 -0.0518 -0.3013
    1SOL    HW210222   2.617   0.418   4.192  0.3577 -0.0838  0.5962
    1SOL    HW310223   2.715   0.396   4.078 -0.0121  1.9899 -0.1494
    1SOL    MW410224   2.695   0.392   4.163  0.1805  0.2134 -0.1626
    1SOL     OW10225   0.691   4.411   4.311  0.0101  0.2783 -0.3893
    1SOL    HW210226   0.606   4.380   4.279  0.0987  1.2260 -1.5843
    1SOL    HW310227   0.694   4.383   4.402 -2.1351  1.3398  0.0408
    1SOL    MW410228   0.680   4.403   4.319 -0.2612  0.5431 -0.4902
    1SOL     OW10229   2.907   0.750   4.172 -0.1566  0.2154  0.1917
    1SOL    HW210230   2.940   0.664   4.198  0.8768  0.8298  0.9342
    1SOL    HW310231   2.905   0.748   4.077  2.6940  0.4023  0.0834
    1SOL    MW410232   2.911   0.739   4.163  0.3560  0.3211  0.2756
    1SOL     OW10233   2.457   2.750   4.482  0.1364 -0.2783  0.2225
    1SOL    HW210234   2.471   2.779   4.392  1.8087 -1.0665  0.2088
    1SOL    HW310235   2.428   2.659   4.475 -1.0188  0.0572  0.4449
    1SOL    MW410236   2.455   2.742   4.469  0.2048 -0.3381  0.2499
    1SOL     OW10237   2.642   4.258   4.571 -0.2518  0.4020  0.5176
    1SOL    HW210238   2.564   4.312   4.586 -0.4382  0.1989  0.2968
    1SOL    HW310239   2.610   4.168   4.581  0.2642  0.3536  1.8717
    1SOL    MW410240   2.627   4.253   4.575 -0.2084  0.3686  0.6671
    1SOL     OW10241   2.110   3.512   4.448 -0.1541 -0.2406  0.0572
    1SOL    HW210242   2.168   3.439   4.423 -0.4139 -0.7161  0.7978
    1SOL    HW310243   2.066   3.537   4.368 -0.7618 -1.5330 -0.0213
    1SOL    MW410244   2.112   3.505   4.434 -0.2685 -0.4740  0.1440
    1SOL     OW10245   3.013   1.381   4.446 -0.2334 -0.1551 -0.0079
    1SOL    HW210246   2.987   1.292   4.472 -0.6509  0.3389  1.2812
    1SOL    HW310247   2.995   1.384   4.352 -2.1548 -0.7605  0.3163
    1SOL    MW410248   3.007   1.370   4.437 -0.5419 -0.1698  0.2050
    1SOL     OW10249   0.021   3.370   4.691  0.0829  0.1966  0.2304
    1SOL    HW210250   0.023   3.396   4.783  1.5549  3.2690 -0.5669
    1SOL    HW310251   0.041   3.451   4.644 -0.3167 -1.3915 -2.7707
    1SOL    MW410252   0.024   3.384   4.697  0.2244  0.3922 -0.2704
    1SOL     OW10253   3.618   3.468   4.563 -0.2653  0.2222 -0.5153
    1SOL    HW210254   3.607   3.426   4.477 -0.5798  0.2233 -0.4750
    1SOL    HW310255   3.696   3.523   4.552  0.0694 -0.2588 -0.6117
    1SOL    MW410256   3.627   3.470   4.550 -0.2625  0.1588 -0.5226
    1SOL     OW10257   2.882   2.067   3.773 -0.0287 -0.1576  0.0019
    1SOL    HW210258   2.801   2.020   3.795  0.4070 -0.4356  1.0372
    1SOL    HW310259   2.873   2.152   3.816  0.4275 -0.3665  0.5210
    1SOL    MW410260   2.870   2.072   3.782  0.0889 -0.2217  0.2069
    1SOL     OW10261   0.409   4.239   4.574 -0.5241 -0.4350 -0.1813
    1SOL    HW210262   0.352   4.308   4.539  0.8140  0.3414 -0.8752
    1SOL    HW310263   0.401   4.247   4.669  0.8433  1.7290 -0.2213
    1SOL    MW410264   0.400   4.249   4.582 -0.1672 -0.0463 -0.2780
    1SOL     OW10265   2.748   0.435   4.752  0.1047 -0.2382 -0.2874
    1SOL    HW210266   2.670   0.384   4.732 -0.0393  0.0433 -0.4494
    1SOL    HW310267   2.746   0.447   4.847 -0.8719  1.0781 -0.4585
    1SOL    MW410268   2.738   0.430   4.762 -0.0432 -0.0274 -0.3314
    1SOL     OW10269   4.327   2.776   4.471 -0.1101  0.2821 -0.1945
    1SOL    HW210270   4.319   2.860   4.516  1.0565  0.5531 -0.4927
    1SOL    HW310271   4.315   2.797   4.378 -0.4985  0.0117 -0.2093
    1SOL    MW410272   4.324   2.790   4.465 -0.0072  0.2823 -0.2360
    1SOL     OW10273   2.272   2.064   4.823  0.0591  0.3879 -0.4875
    1SOL    HW210274   2.247   2.156   4.812  1.9935  1.3119  2.2519
    1SOL    HW310275   2.364   2.060   4.797 -0.1277 -0.8797 -0.9976
    1SOL    MW410276   2.281   2.075   4.818  0.2894  0.3426 -0.1931
    1SOL     OW10277   0.241   2.770   4.518 -0.1181  0.2490 -0.1770
    1SOL    HW210278   0.230   2.792   4.426  1.1479  0.1600 -0.3534
    1SOL    HW310279   0.296   2.691   4.518 -0.7174 -0.1871  0.6310
    1SOL    MW410280   0.246   2.762   4.506 -0.0302  0.1795 -0.0939
    1SOL     OW10281   2.537   3.044   4.694  0.1548 -0.5403 -0.0587
    1SOL    HW210282   2.446   3.018   4.705  0.4459 -0.7115  2.1235
    1SOL    HW310283   2.586   2.961   4.698  0.4180 -0.4521 -1.2167
    1SOL    MW410284   2.532   3.029   4.696  0.2282 -0.5515  0.0763
    1SOL     OW10285   2.901   3.613   4.214 -0.2757  0.2446  0.3700
    1SOL    HW210286   2.896   3.606   4.310  1.0623 -0.1006  0.4363
    1SOL    HW310287   2.918   3.706   4.199 -1.0471  0.3986  0.4343
    1SOL    MW410288   2.903   3.624   4.225 -0.2012  0.2193  0.3872
    1SOL     OW10289   2.645   3.225   4.250  0.1786 -0.2886 -0.2770
    1SOL    HW210290   2.637   3.316   4.220 -1.6823 -0.2484  0.2350
    1SOL    HW310291   2.726   3.194   4.211  1.2777  1.8589  0.2226
    1SOL    MW410292   2.654   3.233   4.241  0.0784  0.0002 -0.1431
    1SOL     OW10293   2.925   3.883   4.161  0.0429  0.0505 -0.1360
    1SOL    HW210294   2.848   3.930   4.193  0.7432  1.1512 -0.0465
    1SOL    HW310295   3.000   3.931   4.197  0.8223  0.2932 -1.9939
    1SOL    MW410296   2.925   3.895   4.170  0.2382  0.2277 -0.3695
    1SOL     OW10297   2.697   4.262   4.157  0.0844  0.2113  0.1260
    1SOL    HW210298   2.623   4.313   4.190 -0.6742 -0.5105 -0.4320
    1SOL    HW310299   2.701   4.185   4.214 -0.8513 -0.7363 -1.0597
    1SOL    MW410300   2.688   4.259   4.169 -0.1390 -0.0086 -0.1040
    1SOL     OW10301   2.466   3.923   4.162 -0.2094  0.0913  0.3422
    1SOL    HW210302   2.471   3.899   4.069 -0.5268  1.2934  0.0049
    1SOL    HW310303   2.464   3.839   4.208 -0.0962 -0.5211 -0.7353
    1SOL    MW410304   2.467   3.909   4.156 -0.2365  0.1690  0.1554
    1SOL     OW10305   2.907   4.403   4.261 -0.5070  0.2828  0.4356
    1SOL    HW210306   2.833   4.355   4.223 -0.0779  0.9752 -1.3021
    1SOL    HW310307   2.984   4.351   4.238 -0.3022  0.3240  1.0134
    1SOL    MW410308   2.907   4.390   4.253 -0.4234  0.3791  0.2823
    1SOL     OW10309   3.357   0.012   4.160  0.3494  0.2053  0.4434
    1SOL    HW210310   3.420   0.057   4.216  0.7463  0.7143 -0.4048
    1SOL    HW310311   3.272   0.048   4.186  0.6435  1.2835 -0.0755
    1SOL    MW410312   3.354   0.023   4.171  0.4404  0.4147  0.2632
    1SOL     OW10313   1.301   1.822   4.172  0.1657 -0.1990 -0.8546
    1SOL    HW210314   1.260   1.746   4.214 -1.2443  0.8486 -0.3265
    1SOL    HW310315   1.395   1.810   4.188  0.0029 -2.0926 -1.2115
    1SOL    MW410316   1.308   1.810   4.180 -0.0420 -0.3107 -0.8316
    1SOL     OW10317   2.938   0.508   4.305  0.1566 -0.1374  0.3916
    1SOL    HW210318   2.850   0.481   4.278 -0.2797  0.4384  1.2220
    1SOL    HW310319   2.942   0.490   4.399  1.0118 -0.3815  0.3164
    1SOL    MW410320   2.927   0.502   4.314  0.2117 -0.0937  0.4911
    1SOL     OW10321   3.364   0.484   4.238  0.0913  0.4187  0.1039
    1SOL    HW210322   3.369   0.518   4.327 -0.8671 -0.3549  0.4600
    1SOL    HW310323   3.448   0.441   4.223 -0.2576 -0.6420  1.1247
    1SOL    MW410324   3.376   0.483   4.247 -0.0813  0.1767  0.2851
    1SOL     OW10325   2.229   0.182   4.676  0.0797  0.0622  0.0764
    1SOL    HW210326   2.179   0.220   4.603  0.6629  0.9903  0.1615
    1SOL    HW310327   2.296   0.247   4.696  0.4480 -0.5652  0.8959
    1SOL    MW410328   2.231   0.195   4.669  0.2053  0.1018  0.1955
    1SOL     OW10329   4.285   0.038   4.650 -0.1972 -0.1693 -0.0962
    1SOL    HW210330   4.325   0.095   4.585  0.2502 -0.2764  0.0853
    1SOL    HW310331   4.304   0.081   4.734 -0.6875 -0.0822 -0.0271
    1SOL    MW410332   4.293   0.051   4.653 -0.2031 -0.1720 -0.0629
    1SOL     OW10333   3.143   0.863   4.239  0.1239  0.0986 -0.2064
    1SOL    HW210334   3.058   0.824   4.216 -0.2505 -0.1595  1.5299
    1SOL    HW310335   3.140   0.951   4.200 -0.1985 -0.5611 -1.6922
    1SOL    MW410336   3.131   0.870   4.231  0.0319 -0.0225 -0.1731
    1SOL     OW10337   1.971   4.571   4.624 -0.0332  0.4190 -0.2780
    1SOL    HW210338   1.899   4.621   4.586 -1.1652 -0.1754  1.0527
    1SOL    HW310339   2.014   4.632   4.684 -1.3004 -0.1127  1.2052
    1SOL    MW410340   1.967   4.585   4.627 -0.3498  0.2708  0.0935
    1SOL     OW10341   2.924   2.854   4.233 -0.2582  0.6800 -0.2701
    1SOL    HW210342   2.855   2.795   4.204  0.9530 -0.5215 -0.7830
    1SOL    HW310343   2.898   2.940   4.200 -2.3932  0.5769  1.0887
    1SOL    MW410344   2.912   2.857   4.224 -0.3803  0.5081 -0.1583
    1SOL     OW10345   2.508   1.447   4.156  0.2527 -0.1639  0.0879
    1SOL    HW210346   2.570   1.377   4.136 -0.5518 -0.6854 -0.6257
    1SOL    HW310347   2.466   1.466   4.072 -0.1331  0.5961  0.4504
    1SOL    MW410348   2.511   1.440   4.142  0.0958 -0.1324  0.0415
    1SOL     OW10349   2.631   0.133   4.534 -0.6055  0.2102 -0.2626
    1SOL    HW210350   2.693   0.073   4.575 -1.5304 -1.3476 -1.0848
    1SOL    HW310351   2.650   0.126   4.440 -1.1379  0.7247 -0.4093
    1SOL    MW410352   2.642   0.124   4.527 -0.7975  0.0726 -0.3910
    1SOL     OW10353   2.374   2.332   4.087 -0.1560 -0.4480 -0.2330
    1SOL    HW210354   2.381   2.253   4.140 -1.0846 -1.4008 -1.4931
    1SOL    HW310355   2.304   2.382   4.129 -0.5753 -0.9826 -0.2892
    1SOL    MW410356   2.365   2.328   4.100 -0.3340 -0.6442 -0.4067
    1SOL     OW10357   3.588   0.859   4.545  0.1498  0.1306 -0.2063
    1SOL    HW210358   3.528   0.923   4.583 -0.5095 -0.8244  0.3914
    1SOL    HW310359   3.581   0.874   4.450 -0.5903  0.4160 -0.1125
    1SOL    MW410360   3.579   0.869   4.537 -0.0348  0.0423 -0.1144
    1SOL     OW10361   3.531   2.409   4.738 -0.1738  0.1954  0.1467
    1SOL    HW210362   3.574   2.369   4.663 -0.8041 -1.1828  0.5061
    1SOL    HW310363   3.526   2.502   4.716  3.0400  0.4296  0.1461
    1SOL    MW410364   3.536   2.416   4.725  0.1671  0.0443  0.1945
    1SOL     OW10365   3.489   2.357   4.132  0.3249  0.1982  0.1075
    1SOL    HW210366   3.428   2.414   4.180 -1.6158 -2.0466  0.4153
    1SOL    HW310367   3.444   2.339   4.050 -0.2188 -2.7758  1.0018
    1SOL    MW410368   3.475   2.362   4.128 -0.0026 -0.4904  0.2661
    1SOL     OW10369   2.259   4.304   4.211 -0.5771  0.0969  0.4000
    1SOL    HW210370   2.263   4.209   4.220 -1.6681 -0.0354 -0.4826
    1SOL    HW310371   2.350   4.332   4.220 -0.1117 -1.1291 -0.3527
    1SOL    MW410372   2.272   4.295   4.213 -0.6595 -0.0820  0.1841
    1SOL     OW10373   3.353   3.154   4.137  0.4477  0.2616  0.0564
    1SOL    HW210374   3.271   3.187   4.173  0.8362  0.8881  0.3840
    1SOL    HW310375   3.364   3.068   4.178  1.4222  1.4131  2.3045
    1SOL    MW410376   3.344   3.147   4.147  0.6273  0.4961  0.3958
    1SOL     OW10377   2.348   3.115   4.134 -0.4568  0.0993 -0.3249
    1SOL    HW210378   2.386   3.181   4.191 -2.2408 -0.4741  1.5807
    1SOL    HW310379   2.256   3.140   4.126 -0.9299 -1.5987 -0.3807
    1SOL    MW410380   2.341   3.127   4.141 -0.7546 -0.2003 -0.0811
    1SOL     OW10381   3.328   3.626   4.235  0.2024  0.3604  0.0145
    1SOL    HW210382   3.252   3.576   4.204  0.0115  2.1159 -2.5127
    1SOL    HW310383   3.340   3.597   4.325 -1.5189 -2.2677 -0.5430
    1SOL    MW410384   3.319   3.616   4.243 -0.0496  0.2456 -0.3920
    1SOL     OW10385   3.596   3.554   4.153 -0.2463 -0.4951  0.1518
    1SOL    HW210386   3.601   3.466   4.190 -0.1761 -0.1254  1.0510
    1SOL    HW310387   3.517   3.591   4.192 -0.0585 -0.0284  0.0942
    1SOL    MW410388   3.586   3.547   4.163 -0.2122 -0.3848  0.2627
    1SOL     OW10389   3.372   3.881   4.161 -0.1416 -0.0815  0.4843
    1SOL    HW210390   3.349   3.795   4.195 -0.0507 -0.0023  0.7451
    1SOL    HW310391   3.374   3.869   4.066 -1.2326 -0.0904  0.4564
    1SOL    MW410392   3.369   3.868   4.153 -0.2737 -0.0720  0.5155
    1SOL     OW10393   0.024   2.697   4.112 -0.1937  0.4366  0.1215
    1SOL    HW210394  -0.049   2.751   4.144 -0.3345  0.6999 -0.6262
    1SOL    HW310395   0.012   2.613   4.155 -1.8569 -0.0336 -1.1777
    1SOL    MW410396   0.013   2.693   4.122 -0.4317  0.4091 -0.1483
    1SOL     OW10397   0.017   0.876   4.292  0.1221 -0.2385 -0.2740
    1SOL    HW210398   0.023   0.923   4.375  0.8914  0.7102 -0.8647
    1SOL    HW310399   0.025   0.944   4.225 -1.1666 -0.9049 -1.1393
    1SOL    MW410400   0.019   0.891   4.294  0.0536 -0.2013 -0.4663
    1SOL     OW10401   3.597   4.252   4.155  0.3977  0.1623  0.3918
    1SOL    HW210402   3.528   4.307   4.192 -1.3389 -0.6948 -1.4747
    1SOL    HW310403   3.592   4.170   4.205 -0.4729 -0.1746 -0.2229
    1SOL    MW410404   3.587   4.248   4.166  0.0536  0.0052  0.0648
    1SOL     OW10405   3.791   4.648   4.201 -0.2882  0.3564 -0.1092
    1SOL    HW210406   3.793   4.560   4.238 -2.3104  0.6455  0.7707
    1SOL    HW310407   3.781   4.635   4.107  0.8009 -0.3535 -0.1357
    1SOL    MW410408   3.790   4.635   4.193 -0.4115  0.3009  0.0033
    1SOL     OW10409   2.270   1.912   4.210 -0.0663 -0.7498 -0.7296
    1SOL    HW210410   2.260   1.919   4.115  0.1346  1.5839 -0.6045
    1SOL    HW310411   2.182   1.924   4.245  0.0989  0.0034 -0.5584
    1SOL    MW410412   2.257   1.915   4.202 -0.0181 -0.3427 -0.6909
    1SOL     OW10413   3.619   0.377   4.182 -0.1412  0.2435 -0.4941
    1SOL    HW210414   3.703   0.422   4.194 -1.6263  3.2062 -0.5604
    1SOL    HW310415   3.601   0.384   4.089 -0.5652 -0.1851 -0.4482
    1SOL    MW410416   3.627   0.384   4.172 -0.3929  0.5778 -0.4964
    1SOL     OW10417   4.047   0.374   4.166  0.5905 -0.1628  0.0092
    1SOL    HW210418   4.047   0.284   4.199  0.8492  0.3033  1.3009
    1SOL    HW310419   3.974   0.416   4.211 -0.6813 -0.2037 -1.9623
    1SOL    MW410420   4.037   0.368   4.176  0.4573 -0.1067 -0.0801
    1SOL     OW10421   0.965   4.622   4.616 -0.3153 -0.3339 -0.2858
    1SOL    HW210422   0.887   4.594   4.664  0.0576  1.0447  1.1319
    1SOL    HW310423   0.933   4.691   4.557 -0.0341  0.8142  0.8854
    1SOL    MW410424   0.950   4.627   4.614 -0.2291  0.0000  0.0563
    1SOL     OW10425   2.378   4.658   4.539 -0.5360 -0.4548 -0.3525
    1SOL    HW210426   2.461   4.705   4.539  0.5360 -2.3262  0.1888
    1SOL    HW310427   2.319   4.715   4.589  1.0668 -0.2095  1.2939
    1SOL    MW410428   2.381   4.672   4.546 -0.1831 -0.6695 -0.0644
    1SOL     OW10429   2.089   2.199   4.190 -0.0707 -0.0048 -0.1547
    1SOL    HW210430   2.097   2.222   4.098  1.5367 -0.3395 -0.1128
    1SOL    HW310431   2.135   2.269   4.236  0.3607 -0.5870  0.3036
    1SOL    MW410432   2.096   2.211   4.184  0.1981 -0.1259 -0.0882
    1SOL     OW10433   4.181   2.555   4.535  0.1428 -0.0149 -0.0348
    1SOL    HW210434   4.088   2.558   4.515 -0.2138 -0.2869  1.4822
    1SOL    HW310435   4.215   2.640   4.509 -0.8871  0.7407  1.0209
    1SOL    MW410436   4.173   2.566   4.529 -0.0401  0.0489  0.3047
    1SOL     OW10437   4.243   2.308   4.235 -0.1594 -0.0019  0.2744
    1SOL    HW210438   4.328   2.352   4.224 -0.7666  0.7191 -1.8797
    1SOL    HW310439   4.266   2.218   4.255  1.1381  0.2497 -0.0062
    1SOL    MW410440   4.257   2.302   4.236 -0.0682  0.1266 -0.0467
    1SOL     OW10441   3.365   1.542   4.136  0.3248 -0.6552 -0.4225
    1SOL    HW210442   3.294   1.592   4.177  0.8756  0.1957 -0.4980
    1SOL    HW310443   3.348   1.547   4.042  0.2758 -0.7581 -0.4190
    1SOL    MW410444   3.353   1.549   4.129  0.3910 -0.5566 -0.4315
    1SOL     OW10445   3.584   1.931   4.134  0.1784  0.4578 -0.1079
    1SOL    HW210446   3.605   1.841   4.157  0.8095  0.6324  0.0015
    1SOL    HW310447   3.505   1.951   4.184  0.2693  0.1031  0.1799
    1SOL    MW410448   3.576   1.922   4.143  0.2737  0.4340 -0.0563
    1SOL     OW10449   1.846   1.999   4.535 -0.2288 -0.1000 -0.2025
    1SOL    HW210450   1.882   2.086   4.519  0.3184  0.0468  1.7410
    1SOL    HW310451   1.759   2.001   4.494 -0.3389  1.4335  0.0697
    1SOL    MW410452   1.839   2.011   4.527 -0.1711  0.1218  0.0896
    1SOL     OW10453   0.543   0.074   4.649 -0.1165 -0.1752 -0.5991
    1SOL    HW210454   0.544   0.053   4.556  1.6908  0.2976 -0.7156
    1SOL    HW310455   0.592   0.003   4.691 -0.2725 -0.0039 -0.1151
    1SOL    MW410456   0.550   0.062   4.643  0.1014 -0.0902 -0.5507
    1SOL     OW10457   3.610   2.581   4.403  0.1629  0.2347 -0.0155
    1SOL    HW210458   3.602   2.637   4.326 -0.0977  0.6465  0.3082
    1SOL    HW310459   3.574   2.633   4.475 -0.1088 -0.3579  0.2849
    1SOL    MW410460   3.605   2.595   4.403  0.0930  0.2110  0.0668
    1SOL     OW10461   3.775   2.091   4.254 -0.2937  0.0081  0.5982
    1SOL    HW210462   3.705   2.046   4.208  0.3135 -0.9011  0.5550
    1SOL    HW310463   3.758   2.184   4.239 -1.5483 -0.2044  0.6837
    1SOL    MW410464   3.763   2.098   4.246 -0.3791 -0.1397  0.6037
    1SOL     OW10465   1.830   4.022   4.532 -0.0162 -0.2364  0.4797
    1SOL    HW210466   1.765   4.088   4.556 -0.6484  0.0866 -1.9555
    1SOL    HW310467   1.914   4.063   4.552 -0.3813  1.6127 -1.6586
    1SOL    MW410468   1.833   4.036   4.538 -0.1478  0.0505 -0.1230
    1SOL     OW10469   3.776   3.148   4.167  0.1238 -0.0278  0.0154
    1SOL    HW210470   3.852   3.189   4.209  1.0656 -2.9667  1.2405
    1SOL    HW310471   3.797   3.148   4.074  0.7828  0.8024  0.1558
    1SOL    MW410472   3.789   3.154   4.160  0.3350 -0.3059  0.1950
    1SOL     OW10473   3.789   4.393   4.274  0.0910 -0.2213  0.0744
    1SOL    HW210474   3.736   4.328   4.228 -0.4010 -1.3636  2.2216
    1SOL    HW310475   3.764   4.385   4.366  1.7990  1.3182  0.7144
    1SOL    MW410476   3.779   4.383   4.280  0.2513 -0.1693  0.4425
    1SOL     OW10477   3.561   3.305   4.287 -0.1042  0.2909  0.1461
    1SOL    HW210478   3.479   3.265   4.258  0.2920 -0.3653 -0.0647
    1SOL    HW310479   3.630   3.255   4.243  0.4298  0.5269  0.7043
    1SOL    MW410480   3.559   3.293   4.277  0.0186  0.2353  0.1922
    1SOL     OW10481   1.248   2.394   4.499 -0.2106  0.3279  0.4128
    1SOL    HW210482   1.324   2.435   4.540 -0.6470  1.4429  0.1089
    1SOL    HW310483   1.248   2.428   4.409 -0.1407 -0.9143 -0.0755
    1SOL    MW410484   1.258   2.404   4.492 -0.2590  0.3109  0.3080
    1SOL     OW10485   4.199   3.033   4.489 -0.1211  0.2974 -0.0457
    1SOL    HW210486   4.129   2.973   4.512  0.0756 -0.1727 -0.6640
    1SOL    HW310487   4.190   3.045   4.394  0.1164  0.8885  0.0054
    1SOL    MW410488   4.189   3.027   4.480 -0.0634  0.3135 -0.1206
    1SOL     OW10489   1.334   3.483   4.149 -0.1376 -0.5050  0.1209
    1SOL    HW210490   1.323   3.479   4.054 -0.6203 -1.6091  0.2197
    1SOL    HW310491   1.323   3.393   4.178  0.3530 -0.2191  1.1915
    1SOL    MW410492   1.331   3.471   4.140 -0.1365 -0.6130  0.2756
    1SOL     OW10493   3.124   4.280   4.158  0.3762 -0.1578  0.3797
    1SOL    HW210494   3.151   4.194   4.190  1.5971 -0.1678 -0.6773
    1SOL    HW310495   3.196   4.338   4.181 -0.2021  0.4910  0.5959
    1SOL    MW410496   3.137   4.276   4.166  0.4611 -0.0734  0.2689
    1SOL     OW10497   4.488   0.845   4.800  0.7043 -0.5466 -0.0353
    1SOL    HW210498   4.492   0.898   4.720  0.7156 -0.0238  0.3071
    1SOL    HW310499   4.490   0.909   4.871 -2.0327 -0.8480  0.3644
    1SOL    MW410500   4.489   0.860   4.799  0.3443 -0.5174  0.0625
    1SOL     OW10501   0.012   4.325   4.597 -0.0510 -0.3035 -0.1539
    1SOL    HW210502  -0.004   4.234   4.622 -1.8134 -0.4760 -1.8078
    1SOL    HW310503  -0.070   4.371   4.618  0.2418  0.5660 -0.8932
    1SOL    MW410504  -0.001   4.319   4.603 -0.2448 -0.2117 -0.4702
    1SOL     OW10505   4.369   2.122   4.674 -0.0051  0.1643  0.0795
    1SOL    HW210506   4.294   2.169   4.638  0.5575 -0.0250 -1.3445
    1SOL    HW310507   4.432   2.190   4.696 -0.4797  0.3055  1.0658
    1SOL    MW410508   4.367   2.137   4.672  0.0067  0.1581  0.0219
    1SOL     OW10509   3.066   0.156   4.524  0.0611 -0.5870 -0.3416
    1SOL    HW210510   3.055   0.246   4.556  0.8478 -0.8324  0.6507
    1SOL    HW310511   2.991   0.109   4.560  1.5904 -1.1424  2.2453
    1SOL    MW410512   3.055   0.162   4.533  0.3669 -0.6927  0.1307
    1SOL     OW10513   0.422   0.937   4.471 -0.1674  0.1136  0.1705
    1SOL    HW210514   0.355   0.873   4.496  1.1508 -0.9966  0.8905
    1SOL    HW310515   0.440   0.918   4.379 -0.0328 -0.3270  0.2867
    1SOL    MW410516   0.415   0.926   4.462  0.0242 -0.0910  0.2809
    1SOL     OW10517   0.255   0.421   4.747  0.0249 -0.1177  0.3827
    1SOL    HW210518   0.183   0.484   4.742  0.6954  0.6071 -0.2704
    1SOL    HW310519   0.334   0.475   4.743  0.6054 -0.9559  0.4563
    1SOL    MW410520   0.256   0.437   4.746  0.1899 -0.1327  0.3066
    1SOL     OW10521   4.249   4.440   4.571 -0.0166 -0.3481 -0.0973
    1SOL    HW210522   4.267   4.527   4.607 -0.9381  0.4949 -1.6312
    1SOL    HW310523   4.280   4.444   4.480 -0.8612 -1.3316 -0.4439
    1SOL    MW410524   4.256   4.452   4.564 -0.2503 -0.3672 -0.3448
    1SOL     OW10525   4.062   1.111   4.105 -0.4641  0.1743  0.2319
    1SOL    HW210526   3.999   1.173   4.142 -0.8298 -0.7446  1.1739
    1SOL    HW310527   4.046   1.029   4.152 -0.4478 -0.8298 -1.4562
    1SOL    MW410528   4.051   1.108   4.116 -0.5102 -0.0794  0.1335
    1SOL     OW10529   2.951   1.113   4.539  0.1312 -0.3080  0.8122
    1SOL    HW210530   3.004   1.034   4.548 -1.1967 -1.3010  0.1362
    1SOL    HW310531   2.861   1.083   4.552 -0.3775  1.1002  0.5904
    1SOL    MW410532   2.946   1.099   4.542 -0.1111 -0.2531  0.6938
    1SOL     OW10533   1.130   1.233   4.502 -0.2800  0.4983 -0.2815
    1SOL    HW210534   1.186   1.267   4.572 -0.2229  3.0200 -1.4754
    1SOL    HW310535   1.065   1.302   4.489 -0.1001  0.2222 -2.9058
    1SOL    MW410536   1.129   1.247   4.510 -0.2488  0.7946 -0.7854
    1SOL     OW10537   2.033   0.536   4.467  0.3950 -0.2473  0.0204
    1SOL    HW210538   2.087   0.611   4.492  2.0884 -0.9061 -1.4938
    1SOL    HW310539   2.039   0.534   4.371 -1.5136 -0.9508 -0.0913
    1SOL    MW410540   2.041   0.546   4.458  0.3664 -0.4271 -0.1941
    1SOL     OW10541   1.194   4.477   4.535  0.3001  0.0294  0.7417
    1SOL    HW210542   1.239   4.560   4.521 -2.0232  0.8613 -2.4965
    1SOL    HW310543   1.111   4.502   4.575 -0.8811 -0.5290 -1.2550
    1SOL    MW410544   1.189   4.492   4.538 -0.1622  0.0653  0.0510
    1SOL     OW10545   3.845   0.510   4.284  0.4242 -0.4136 -0.2390
    1SOL    HW210546   3.852   0.601   4.256  1.2647  0.0783  1.4809
    1SOL    HW310547   3.843   0.515   4.380  0.8242 -2.2162 -0.1212
    1SOL    MW410548   3.846   0.522   4.293  0.5879 -0.5865  0.0038
    1SOL     OW10549   3.776   2.359   4.186  0.3680 -0.1841  0.1995
    1SOL    HW210550   3.800   2.344   4.095  0.2321  0.1459  0.1059
    1SOL    HW310551   3.682   2.380   4.183  0.0620 -1.4725  0.5639
    1SOL    MW410552   3.767   2.360   4.174  0.3097 -0.3107  0.2356
    1SOL     OW10553   4.034   3.531   4.158 -0.0166 -0.4150  0.1402
    1SOL    HW210554   4.023   3.513   4.065 -0.4828  2.3277 -0.3745
    1SOL    HW310555   4.121   3.568   4.166  0.3181 -1.3306  0.9370
    1SOL    MW410556   4.044   3.533   4.147 -0.0339 -0.1738  0.1779
    1SOL     OW10557   4.014   2.477   4.220 -0.1727 -0.1073  0.5661
    1SOL    HW210558   3.928   2.433   4.215 -0.0069 -0.6627  2.2590
    1SOL    HW310559   4.076   2.405   4.231  0.4375  0.3586  0.1738
    1SOL    MW410560   4.011   2.462   4.221 -0.0701 -0.1192  0.7377
    1SOL     OW10561   1.252   3.190   4.495  0.7260 -0.2420  0.4598
    1SOL    HW210562   1.168   3.211   4.535  0.9296  0.0976  0.7118
    1SOL    HW310563   1.317   3.237   4.548  1.0540 -0.3124  0.1266
    1SOL    MW410564   1.250   3.199   4.507  0.7962 -0.2067  0.4492
    1SOL     OW10565   3.555   0.416   4.640 -0.0412  0.1856  0.0124
    1SOL    HW210566   3.543   0.322   4.623  0.3649  0.2871 -0.8857
    1SOL    HW310567   3.648   0.431   4.625 -0.3556  0.9928 -1.2104
    1SOL    MW410568   3.566   0.406   4.635 -0.0291  0.3054 -0.2680
    1SOL     OW10569   3.823   3.664   4.289  0.9477 -0.3802  0.0869
    1SOL    HW210570   3.746   3.635   4.241  0.9963 -0.7922  0.2505
    1SOL    HW310571   3.896   3.618   4.246  1.2493  1.0056 -0.8946
    1SOL    MW410572   3.823   3.654   4.277  0.9942 -0.2515 -0.0210
    1SOL     OW10573   2.104   1.478   4.209  0.2561 -0.1122  0.2098
    1SOL    HW210574   2.071   1.499   4.121 -0.4439 -2.3920 -0.1010
    1SOL    HW310575   2.188   1.523   4.214 -0.3353  1.2063 -1.0852
    1SOL    MW410576   2.111   1.487   4.198  0.0856 -0.2391 -0.0019
    1SOL     OW10577   4.282   3.603   4.214  0.1628  0.0731  0.1993
    1SOL    HW210578   4.362   3.558   4.185 -1.1470 -0.8016 -2.2043
    1SOL    HW310579   4.290   3.606   4.310  1.3608 -3.3414  0.2966
    1SOL    MW410580   4.294   3.597   4.223  0.1483 -0.4928 -0.1049
    1SOL     OW10581   0.472   3.992   4.256  0.4135 -0.0912 -0.0662
    1SOL    HW210582   0.490   4.086   4.251  0.4207 -0.1195 -0.6149
    1SOL    HW310583   0.545   3.951   4.209 -0.1904 -0.3042 -0.8324
    1SOL    MW410584   0.484   3.999   4.249  0.3348 -0.1230 -0.2398
    1SOL     OW10585   1.340   0.351   4.617  0.4154  0.0150 -0.0406
    1SOL    HW210586   1.293   0.429   4.646 -0.6122 -0.4922 -0.3170
    1SOL    HW310587   1.297   0.326   4.535  1.2346 -0.3978 -0.3532
    1SOL    MW410588   1.328   0.358   4.610  0.3880 -0.1064 -0.1183
    1SOL     OW10589   3.845   3.929   4.185 -0.2652 -0.3065 -0.2777
    1SOL    HW210590   3.915   3.984   4.220 -1.0664  0.4925  0.1149
    1SOL    HW310591   3.859   3.843   4.224 -0.4824  0.2898  1.1479
    1SOL    MW410592   3.856   3.925   4.195 -0.3994 -0.1223 -0.0377
    1SOL     OW10593   2.859   4.651   4.636 -0.5341  0.0700  0.2928
    1SOL    HW210594   2.885   4.662   4.727 -0.9912 -0.0415  0.4404
    1SOL    HW310595   2.880   4.560   4.616 -0.1617  0.1772  0.1976
    1SOL    MW410596   2.865   4.640   4.645 -0.5450  0.0696  0.2995
    1SOL     OW10597   3.962   2.854   4.513 -0.0886 -0.1724  0.8002
    1SOL    HW210598   3.946   2.761   4.527  1.7236 -0.7088 -0.5495
    1SOL    HW310599   3.936   2.870   4.422  0.1666  0.5048  0.8393
    1SOL    MW410600   3.956   2.844   4.503  0.1843 -0.1540  0.6266
    1SOL     OW10601   2.039   1.880   4.845  0.3953 -0.1798  0.7982
    1SOL    HW210602   2.113   1.940   4.858  0.2878  0.2148 -0.3395
    1SOL    HW310603   2.057   1.838   4.761 -1.5321  1.1988 -0.3284
    1SOL    MW410604   2.051   1.883   4.836  0.1266  0.0542  0.4992
    1SOL     OW10605   4.315   2.064   4.332  0.7819 -0.2354  0.2288
    1SOL    HW210606   4.358   2.033   4.412  0.3966  1.1653  0.9932
    1SOL    HW310607   4.239   2.006   4.322  0.7910 -0.3749  0.9143
    1SOL    MW410608   4.311   2.052   4.341  0.7319 -0.0689  0.4201
    1SOL     OW10609   4.016   0.117   4.317  0.1953 -0.6270 -0.0754
    1SOL    HW210610   4.008   0.131   4.412  0.2471 -1.6617  0.0880
    1SOL    HW310611   3.929   0.090   4.289  0.2825 -0.7191 -0.2574
    1SOL    MW410612   4.004   0.115   4.326  0.2141 -0.7756 -0.0777
    1SOL     OW10613   1.002   2.790   4.469 -0.5524  0.4650  0.5177
    1SOL    HW210614   0.999   2.696   4.485 -1.9581 -0.0937 -2.5208
    1SOL    HW310615   0.911   2.819   4.479 -0.6993  0.8648 -1.5938
    1SOL    MW410616   0.989   2.782   4.472 -0.7573  0.4439 -0.1612
    1SOL     OW10617   1.736   0.544   4.517  0.2278 -0.1146  0.6257
    1SOL    HW210618   1.831   0.535   4.517  0.3199  0.7120 -0.3651
    1SOL    HW310619   1.720   0.628   4.559 -0.1747 -1.0974  2.4752
    1SOL    MW410620   1.747   0.554   4.523  0.1868 -0.1352  0.7391
    1SOL     OW10621   1.710   3.014   4.647  0.4257  0.5141  0.1726
    1SOL    HW210622   1.752   2.983   4.727  2.3483  2.7738  0.0823
    1SOL    HW310623   1.779   3.058   4.598 -1.3753  1.7263 -1.3852
    1SOL    MW410624   1.724   3.016   4.651  0.4417  0.9723 -0.0448
    1SOL     OW10625   0.211   1.546   4.133  0.2425 -0.1931  0.7111
    1SOL    HW210626   0.143   1.594   4.181  0.0312  0.9071 -0.6121
    1SOL    HW310627   0.293   1.585   4.162  0.0938  0.7259 -0.0585
    1SOL    MW410628   0.213   1.558   4.143  0.1951  0.0732  0.4344
    1SOL     OW10629   4.163   4.020   4.552  0.2157  0.0491  0.3332
    1SOL    HW210630   4.131   3.933   4.578  0.8357 -0.5999 -1.0309
    1SOL    HW310631   4.127   4.079   4.618  0.6567 -1.3747  1.8997
    1SOL    MW410632   4.154   4.016   4.565  0.3557 -0.2246  0.3600
    1SOL     OW10633   0.385   1.388   4.591 -0.0632  0.0616  0.4527
    1SOL    HW210634   0.342   1.471   4.571 -0.4098 -0.5542 -1.5001
    1SOL    HW310635   0.319   1.321   4.570  0.5772 -0.7358  0.9719
    1SOL    MW410636   0.371   1.390   4.586 -0.0245 -0.1249  0.2632
    1SOL     OW10637   0.945   1.433   4.468 -0.2814 -0.2511 -0.2305
    1SOL    HW210638   0.973   1.510   4.517  0.3081 -0.8465  0.3862
    1SOL    HW310639   0.853   1.420   4.494  0.2146 -0.9525  1.2626
    1SOL    MW410640   0.936   1.442   4.478 -0.1382 -0.4222  0.0477
    1SOL     OW10641   4.471   1.957   4.124  0.3604 -0.0686  0.5127
    1SOL    HW210642   4.477   1.867   4.157 -0.1078 -0.1037  0.5048
    1SOL    HW310643   4.416   2.002   4.187 -0.3615 -0.0810 -0.1080
    1SOL    MW410644   4.465   1.951   4.137  0.2027 -0.0747  0.4296
    1SOL     OW10645   2.304   3.958   4.524 -0.1172 -0.0151 -0.3410
    1SOL    HW210646   2.265   3.983   4.441 -1.2219 -1.4290 -0.2642
    1SOL    HW310647   2.236   3.976   4.589  0.0221 -0.7721  0.0208
    1SOL    MW410648   2.290   3.964   4.522 -0.2446 -0.3016 -0.2832
    1SOL     OW10649   3.903   0.808   4.610  0.0773  0.6319 -0.2138
    1SOL    HW210650   3.935   0.896   4.628  0.9161  0.8249 -2.4927
    1SOL    HW310651   3.810   0.818   4.592  0.1460  1.0103 -0.3384
    1SOL    MW410652   3.895   0.821   4.610  0.1972  0.7073 -0.5312
    1SOL     OW10653   0.434   3.503   4.150  0.2928 -0.1395  0.0743
    1SOL    HW210654   0.518   3.538   4.180  0.7713 -0.8896 -0.3918
    1SOL    HW310655   0.437   3.510   4.055 -0.3552  0.2320  0.0733
    1SOL    MW410656   0.445   3.509   4.141  0.2705 -0.1893  0.0124
    1SOL     OW10657   3.178   1.800   4.496  0.1125 -0.4831 -0.1411
    1SOL    HW210658   3.131   1.733   4.545  0.1456  0.4556  1.2087
    1SOL    HW310659   3.121   1.877   4.500  1.6558  0.6227  1.4011
    1SOL    MW410660   3.164   1.801   4.503  0.3207 -0.2134  0.2408
    1SOL     OW10661   0.217   0.268   4.535 -0.2844  0.1732  0.1034
    1SOL    HW210662   0.123   0.271   4.516 -0.2506 -1.2718 -0.3477
    1SOL    HW310663   0.228   0.326   4.609 -1.1888  2.1257 -1.2430
    1SOL    MW410664   0.206   0.276   4.542 -0.3993  0.2401 -0.1335
    1SOL     OW10665   3.429   0.593   4.493  0.0665 -0.0833 -0.1894
    1SOL    HW210666   3.467   0.526   4.550  0.9099  0.5458 -0.0059
    1SOL    HW310667   3.463   0.675   4.527  0.8206  0.2800 -1.8019
    1SOL    MW410668   3.438   0.595   4.505  0.2773  0.0476 -0.3777
    1SOL     OW10669   0.231   1.639   4.644 -0.3300 -0.3757 -0.0071
    1SOL    HW210670   0.300   1.684   4.597  0.1482 -0.9736  0.1168
    1SOL    HW310671   0.224   1.685   4.728 -0.3293 -0.0915 -0.1628
    1SOL    MW410672   0.239   1.651   4.649 -0.2668 -0.4171 -0.0110
    1SOL     OW10673   0.235   3.837   4.195  0.3199  0.1085 -0.2119
    1SOL    HW210674   0.314   3.887   4.217  0.1088  0.9070 -1.2384
    1SOL    HW310675   0.163   3.888   4.231  0.2668 -0.6011  0.6883
    1SOL    MW410676   0.236   3.850   4.203  0.2851  0.1202 -0.2284
    1SOL     OW10677   2.084   0.894   4.323  0.2641 -0.1475  0.1410
    1SOL    HW210678   2.147   0.936   4.263 -0.0804  0.3840  0.1487
    1SOL    HW310679   2.088   0.948   4.402  0.1837 -0.4265  0.3323
    1SOL    MW410680   2.093   0.907   4.326  0.2081 -0.1142  0.1674
    1SOL     OW10681   1.161   3.837   4.497 -0.0386  0.0206  0.1498
    1SOL    HW210682   1.193   3.771   4.436  0.3806 -0.2213  0.6278
    1SOL    HW310683   1.235   3.854   4.555 -1.1154 -1.3674  1.9786
    1SOL    MW410684   1.175   3.831   4.497 -0.1254 -0.1945  0.4539
    1SOL     OW10685   3.746   3.216   4.591 -0.3591  0.2985 -0.5495
    1SOL    HW210686   3.699   3.293   4.621 -0.5348  0.7224 -1.8807
    1SOL    HW310687   3.831   3.249   4.561  0.1984 -0.2516  0.3671
    1SOL    MW410688   3.751   3.230   4.591 -0.3090  0.2820 -0.6046
    1SOL     OW10689   0.770   0.403   4.387  0.2398  0.1889 -0.4019
    1SOL    HW210690   0.710   0.411   4.461  0.3675  0.7860 -0.3624
    1SOL    HW310691   0.812   0.317   4.399  0.4494  0.3936  0.3576
    1SOL    MW410692   0.768   0.392   4.398  0.2843  0.2947 -0.2966
    1SOL     OW10693   0.246   1.166   4.508 -0.1572  0.2017 -0.1476
    1SOL    HW210694   0.220   1.203   4.423  0.9637  1.7595  0.1512
    1SOL    HW310695   0.328   1.121   4.490  0.2863  0.8690  0.1711
    1SOL    MW410696   0.253   1.165   4.494  0.0492  0.4952 -0.0658
    1SOL     OW10697   4.294   1.520   4.129 -0.0367 -0.1077  0.3309
    1SOL    HW210698   4.302   1.426   4.149 -3.5522 -0.8719 -1.5098
    1SOL    HW310699   4.304   1.525   4.034 -0.1375  1.3632  0.3906
    1SOL    MW410700   4.297   1.508   4.119 -0.5136 -0.0144  0.0963
    1SOL     OW10701   2.716   1.257   4.103  0.0261 -0.3990  0.4494
    1SOL    HW210702   2.738   1.218   4.019  2.0579 -0.0171  0.7817
    1SOL    HW310703   2.733   1.188   4.167  1.0314  0.1533  0.7860
    1SOL    MW410704   2.721   1.243   4.100  0.4268 -0.2759  0.5374
    1SOL     OW10705   3.803   2.889   4.253 -0.1854 -0.2160  0.2581
    1SOL    HW210706   3.795   2.982   4.235  0.7440  0.0607  1.2265
    1SOL    HW310707   3.720   2.852   4.224 -0.5828  0.9220 -0.0752
    1SOL    MW410708   3.791   2.896   4.247 -0.1149 -0.0293  0.3424
    1SOL     OW10709   3.884   1.989   4.485 -0.0806  0.2311  0.3619
    1SOL    HW210710   3.909   2.071   4.526 -0.3439  0.9102 -0.8137
    1SOL    HW310711   3.840   2.014   4.404  0.3454 -1.0714 -0.3034
    1SOL    MW410712   3.882   2.003   4.480 -0.0591  0.1488  0.1187
    1SOL     OW10713   4.286   1.162   4.471  0.1047 -0.3214  0.4801
    1SOL    HW210714   4.199   1.124   4.482 -0.7176  0.9697 -1.4003
    1SOL    HW310715   4.276   1.253   4.497  0.7412 -0.0192 -0.3060
    1SOL    MW410716   4.273   1.169   4.476  0.0801 -0.1111  0.1287
    1SOL     OW10717   1.981   4.371   4.236  0.4340 -0.3442 -0.9250
    1SOL    HW210718   1.986   4.451   4.184  2.9880  0.9544  1.2548
    1SOL    HW310719   2.066   4.329   4.224  0.4173 -0.9068  0.8335
    1SOL    MW410720   1.993   4.376   4.227  0.7689 -0.2475 -0.4048
    1SOL     OW10721   2.884   4.402   4.545  0.1626 -0.3308 -0.5462
    1SOL    HW210722   2.888   4.399   4.449 -1.7382  0.4912 -0.6950
    1SOL    HW310723   2.801   4.358   4.566 -0.1103  0.7301  0.6240
    1SOL    MW410724   2.873   4.396   4.535 -0.1242 -0.0815 -0.4120
    1SOL     OW10725   2.512   2.055   4.659  0.0914  0.1906 -0.2170
    1SOL    HW210726   2.510   2.149   4.643 -0.8390  0.2590  0.2742
    1SOL    HW310727   2.441   2.020   4.605  1.9444 -0.5264 -2.2302
    1SOL    MW410728   2.502   2.063   4.650  0.2134  0.1051 -0.4172
    1SOL     OW10729   1.176   0.571   4.233  0.1891  0.6221 -0.4096
    1SOL    HW210730   1.101   0.572   4.292 -0.2795  1.6488 -1.0132
    1SOL    HW310731   1.155   0.635   4.165  1.7957  1.2613 -0.3422
    1SOL    MW410732   1.164   0.579   4.232  0.3392  0.8419 -0.4802
    1SOL     OW10733   0.607   0.881   4.681  0.1910 -0.1113 -0.1655
    1SOL    HW210734   0.554   0.915   4.609 -0.2207  0.5393  0.4381
    1SOL    HW310735   0.553   0.812   4.720 -0.0015  0.2088  0.1355
    1SOL    MW410736   0.593   0.876   4.677  0.1113  0.0168 -0.0458
    1SOL     OW10737   0.800   0.490   4.137 -0.1718 -0.1218  0.6220
    1SOL    HW210738   0.795   0.453   4.225 -1.4676 -1.7871 -0.1128
    1SOL    HW310739   0.761   0.577   4.145  0.7189  0.1626  1.9170
    1SOL    MW410740   0.794   0.497   4.149 -0.2254 -0.3040  0.6957
    1SOL     OW10741   0.958   2.515   4.494 -0.1447  0.1733 -0.5307
    1SOL    HW210742   1.011   2.450   4.541 -0.9608  1.0103  1.6018
    1SOL    HW310743   0.966   2.490   4.402  4.1596  0.4544 -0.3229
    1SOL    MW410744   0.966   2.503   4.488  0.3155  0.3207 -0.2222
    1SOL     OW10745   1.147   3.595   4.323 -0.5546  0.4062 -0.2627
    1SOL    HW210746   1.220   3.565   4.269 -1.7877 -0.2723 -1.5622
    1SOL    HW310747   1.069   3.563   4.279 -1.6273  0.4965  1.5147
    1SOL    MW410748   1.147   3.587   4.310 -0.8589  0.3288 -0.1993
    1SOL     OW10749   3.116   3.209   4.255 -0.6161  0.2542  0.0782
    1SOL    HW210750   3.116   3.300   4.225  0.6461 -0.1240 -1.1451
    1SOL    HW310751   3.153   3.213   4.343  0.9747  0.7476 -0.5931
    1SOL    MW410752   3.121   3.222   4.262 -0.2398  0.2697 -0.1717
    1SOL     OW10753   3.310   2.332   4.599  0.3247 -0.7979 -0.5103
    1SOL    HW210754   3.284   2.405   4.542  0.9157 -0.4479 -0.3428
    1SOL    HW310755   3.384   2.367   4.649 -0.5808 -0.8772  0.9349
    1SOL    MW410756   3.316   2.346   4.598  0.2830 -0.7622 -0.2971
    1SOL     OW10757   0.686   1.175   4.284  0.3405 -0.1744 -0.3157
    1SOL    HW210758   0.676   1.226   4.365  0.5044  0.7630 -0.8674
    1SOL    HW310759   0.600   1.180   4.243  0.3922 -0.2387 -0.4298
    1SOL    MW410760   0.674   1.183   4.289  0.3690 -0.0591 -0.4034
    1SOL     OW10761   1.609   2.022   4.409 -0.3275 -0.1262 -0.1222
    1SOL    HW210762   1.587   1.943   4.358 -2.7927  1.2836 -1.3284
    1SOL    HW310763   1.529   2.042   4.457  0.7454  0.8563  1.2931
    1SOL    MW410764   1.596   2.014   4.408 -0.5113  0.1895 -0.0944
    1SOL     OW10765   1.275   2.906   4.529  0.4203 -0.5719  0.6076
    1SOL    HW210766   1.257   2.999   4.515  0.4134 -0.6210  0.2907
    1SOL    HW310767   1.190   2.867   4.547  0.4277 -0.5093  0.7713
    1SOL    MW410768   1.261   2.913   4.529  0.4205 -0.5703  0.5875
    1SOL     OW10769   0.401   3.413   4.524  0.6284 -0.1720 -0.3981
    1SOL    HW210770   0.495   3.397   4.531  0.6401  0.9763  2.7247
    1SOL    HW310771   0.391   3.505   4.550 -1.2590 -0.0019 -1.6816
    1SOL    MW410772   0.412   3.423   4.528  0.3809  0.0019 -0.1559
    1SOL     OW10773   0.027   3.463   4.151  0.1002 -0.7178 -0.1802
    1SOL    HW210774   0.096   3.511   4.196  1.5128 -1.6001 -1.3666
    1SOL    HW310775   0.048   3.471   4.058 -0.6691 -2.0633 -0.4844
    1SOL    MW410776   0.039   3.470   4.145  0.1850 -1.0118 -0.3767
    1SOL     OW10777   3.430   1.857   4.620  0.3911  0.0238 -0.1794
    1SOL    HW210778   3.450   1.948   4.594  0.2506  0.4860  1.2883
    1SOL    HW310779   3.342   1.842   4.587 -0.2103  0.9781  0.9632
    1SOL    MW410780   3.421   1.867   4.612  0.2933  0.2108  0.1655
    1SOL     OW10781   0.069   3.592   4.559 -0.0870  0.3438  0.6232
    1SOL    HW210782   0.106   3.589   4.470  0.2781 -0.7314  0.8039
    1SOL    HW310783   0.100   3.676   4.594  1.4060 -0.0945  0.4196
    1SOL    MW410784   0.078   3.602   4.552  0.1582  0.1442  0.6199
    1SOL     OW10785   2.589   3.265   4.528 -0.0724  0.6843  0.1273
    1SOL    HW210786   2.596   3.232   4.438  0.6249  1.4089 -0.0955
    1SOL    HW310787   2.573   3.188   4.581  0.4419  0.1283 -0.5183
    1SOL    MW410788   2.588   3.251   4.523  0.0875  0.7069  0.0124
    1SOL     OW10789   0.257   0.697   4.509  0.0904 -0.1073 -0.3788
    1SOL    HW210790   0.168   0.679   4.541 -0.0339  1.5169  0.2727
    1SOL    HW310791   0.268   0.639   4.434 -1.6492 -0.1107 -0.6608
    1SOL    MW410792   0.247   0.687   4.504 -0.1555  0.1066 -0.3300
    1SOL     OW10793   2.480   1.160   4.506 -0.0430  0.0876  0.2644
    1SOL    HW210794   2.450   1.166   4.416  1.7546  0.0992 -0.3592
    1SOL    HW310795   2.501   1.250   4.531  2.0538 -0.2326 -0.2501
    1SOL    MW410796   2.479   1.173   4.498  0.4706  0.0470  0.1135
    1SOL     OW10797   1.592   3.587   4.215  0.0524  0.0462 -0.3080
    1SOL    HW210798   1.506   3.548   4.198  0.3899 -0.7111 -0.2795
    1SOL    HW310799   1.608   3.571   4.307 -0.6415  1.9293  0.1791
    1SOL    MW410800   1.583   3.580   4.225  0.0054  0.1948 -0.2394
    1SOL     OW10801   3.139   4.020   4.263 -0.1214 -0.4056 -0.3416
    1SOL    HW210802   3.219   4.010   4.211 -0.2696  0.4520 -0.7488
    1SOL    HW310803   3.169   4.017   4.354  0.5515  1.1045 -0.4924
    1SOL    MW410804   3.154   4.019   4.268 -0.0520 -0.0935 -0.4148
    1SOL     OW10805   0.249   2.046   4.131  0.0789 -0.0306 -0.2244
    1SOL    HW210806   0.172   1.998   4.100  0.4975  0.7769 -2.6481
    1SOL    HW310807   0.320   1.982   4.125 -0.1088 -0.3015  0.4471
    1SOL    MW410808   0.248   2.031   4.126  0.1094  0.0401 -0.4559
    1SOL     OW10809   2.707   2.518   4.700 -0.0461  0.6235 -0.2546
    1SOL    HW210810   2.662   2.440   4.668  1.2347 -0.2709  0.0548
    1SOL    HW310811   2.800   2.498   4.687  0.3434  1.6291  0.9204
    1SOL    MW410812   2.714   2.505   4.694  0.1740  0.6380 -0.0591
    1SOL     OW10813   2.585   3.694   4.635  0.7470  0.1508  0.0027
    1SOL    HW210814   2.625   3.637   4.701  0.3943 -1.2731 -0.9670
    1SOL    HW310815   2.492   3.673   4.638  0.6895  0.2890 -0.7362
    1SOL    MW410816   2.578   3.683   4.644  0.6928 -0.0188 -0.2222
    1SOL     OW10817   0.650   3.274   4.475  0.0840  0.0375 -0.1884
    1SOL    HW210818   0.629   3.188   4.513  0.8703 -0.2388 -0.3708
    1SOL    HW310819   0.734   3.298   4.512  0.6192 -0.0009 -1.3387
    1SOL    MW410820   0.658   3.266   4.485  0.2584 -0.0038 -0.3643
    1SOL     OW10821   1.830   3.243   4.243  0.1401 -0.1585 -0.0767
    1SOL    HW210822   1.750   3.199   4.215 -1.2572  1.9181  0.5717
    1SOL    HW310823   1.831   3.325   4.193  1.1762  0.4402  0.9121
    1SOL    MW410824   1.820   3.248   4.233  0.0925  0.1948  0.1392
    1SOL     OW10825   2.970   2.378   4.169  0.0481 -0.1215 -0.3419
    1SOL    HW210826   2.908   2.416   4.232  1.2504  0.9217  0.2347
    1SOL    HW310827   2.921   2.371   4.088 -1.2134 -0.4919  0.4369
    1SOL    MW410828   2.955   2.382   4.167  0.0403 -0.0327 -0.1636
    1SOL     OW10829   2.916   3.744   4.713  0.3172  0.2175 -0.1125
    1SOL    HW210830   2.898   3.696   4.632 -0.1078  0.7840 -0.3520
    1SOL    HW310831   2.861   3.701   4.778 -1.0837  1.2277 -0.6065
    1SOL    MW410832   2.907   3.732   4.711  0.0761  0.4256 -0.2093
    1SOL     OW10833   1.586   4.627   4.402  0.0323  0.5119  0.3161
    1SOL    HW210834   1.557   4.541   4.372 -1.6494  0.5917  1.6290
    1SOL    HW310835   1.508   4.666   4.442  1.3445  1.7157  1.7683
    1SOL    MW410836   1.572   4.621   4.403 -0.0166  0.6809  0.6809
    1SOL     OW10837   0.006   1.935   4.508 -0.0616 -0.2495  0.2041
    1SOL    HW210838  -0.034   1.989   4.576 -0.1718  1.4427 -1.1716
    1SOL    HW310839   0.088   1.980   4.486  0.9941 -1.9049  0.6580
    1SOL    MW410840   0.011   1.948   4.514  0.0629 -0.2449  0.0830
    1SOL     OW10841   3.399   2.987   4.541 -0.2433  0.6014  0.4683
    1SOL    HW210842   3.494   2.996   4.554 -0.4867  1.5956  1.6379
    1SOL    HW310843   3.366   3.077   4.542 -1.2344  0.2414  0.3667
    1SOL    MW410844   3.407   3.000   4.543 -0.4063  0.6850  0.6094
    1SOL     OW10845   2.132   1.785   4.602  0.0749  0.7511 -0.1165
    1SOL    HW210846   2.175   1.864   4.572  0.0051  0.2579 -1.5480
    1SOL    HW310847   2.076   1.758   4.529  0.7906 -1.1081 -0.0231
    1SOL    MW410848   2.130   1.792   4.589  0.1602  0.4407 -0.2933
    1SOL     OW10849   1.801   1.124   4.146  0.2173  0.2491 -0.2291
    1SOL    HW210850   1.807   1.048   4.204 -0.9654  0.3547  0.0461
    1SOL    HW310851   1.837   1.196   4.196 -2.1345  0.6513  0.9744
    1SOL    MW410852   1.806   1.123   4.160 -0.2490  0.3161 -0.0339
    1SOL     OW10853   2.926   4.038   4.730  0.1304  0.0405  0.3117
    1SOL    HW210854   2.847   4.029   4.677 -0.6218  0.2365  1.3827
    1SOL    HW310855   2.956   3.948   4.744 -0.4588 -0.1059  0.6993
    1SOL    MW410856   2.919   4.025   4.725 -0.0467  0.0467  0.5045
    1SOL     OW10857   0.995   0.589   4.433 -0.2221 -0.5179  0.2170
    1SOL    HW210858   0.926   0.525   4.417 -0.1382 -0.4042 -0.6027
    1SOL    HW310859   0.948   0.667   4.464 -0.3911 -0.6928  0.4081
    1SOL    MW410860   0.979   0.591   4.435 -0.2332 -0.5260  0.1340
    1SOL     OW10861   2.286   2.918   4.660 -0.0483 -0.1626 -0.6031
    1SOL    HW210862   2.241   2.864   4.725  0.1991  0.3294 -0.0227
    1SOL    HW310863   2.333   2.855   4.605  0.3598 -0.5366  0.1604
    1SOL    MW410864   2.286   2.903   4.661  0.0381 -0.1471 -0.4263
    1SOL     OW10865   3.643   2.328   4.496 -0.4714 -0.0494 -0.0849
    1SOL    HW210866   3.642   2.416   4.459  0.0313  0.1412  0.3511
    1SOL    HW310867   3.736   2.308   4.507 -0.5624 -0.8709 -0.7446
    1SOL    MW410868   3.655   2.337   4.493 -0.4172 -0.1326 -0.1140
    1SOL     OW10869   1.579   2.264   4.244 -0.0505  0.3435 -0.3658
    1SOL    HW210870   1.629   2.328   4.295  2.0620  0.2115 -2.1948
    1SOL    HW310871   1.601   2.180   4.284 -1.7937  0.5869  1.1948
    1SOL    MW410872   1.588   2.262   4.256 -0.0018  0.3583 -0.4010
    1SOL     OW10873   1.297   1.601   4.583  0.2150 -0.1447  0.1584
    1SOL    HW210874   1.284   1.604   4.488  0.3676 -1.4844  0.0912
    1SOL    HW310875   1.358   1.672   4.601 -1.9374  1.9205 -0.3840
    1SOL    MW410876   1.303   1.611   4.573 -0.0489 -0.0490  0.0782
    1SOL     OW10877   4.030   0.144   4.587 -0.4707  0.0788 -0.5627
    1SOL    HW210878   4.040   0.232   4.624  1.0648 -0.5792  0.6559
    1SOL    HW310879   4.109   0.097   4.614 -0.8433 -1.4257 -1.9438
    1SOL    MW410880   4.042   0.149   4.595 -0.3176 -0.2065 -0.5836
    1SOL     OW10881   2.136   3.099   4.495 -0.1561  0.0418 -1.1071
    1SOL    HW210882   2.123   3.036   4.424  1.4173  0.5465 -1.8841
    1SOL    HW310883   2.171   3.047   4.567  0.3406 -0.1252 -1.4636
    1SOL    MW410884   2.139   3.084   4.495  0.1171  0.0865 -1.2569
    1SOL     OW10885   4.260   3.903   4.119 -0.0227  0.0754  0.7177
    1SOL    HW210886   4.298   3.817   4.132 -0.6384 -0.2553  0.3085
    1SOL    HW310887   4.249   3.912   4.025 -1.4687 -0.0510  0.8688
    1SOL    MW410888   4.263   3.893   4.109 -0.2952  0.0150  0.6833
    1SOL     OW10889   0.680   2.534   4.566  0.3310  0.3822  0.3319
    1SOL    HW210890   0.775   2.532   4.556  0.0826 -0.7380 -2.3247
    1SOL    HW310891   0.654   2.442   4.561 -0.9438  0.7271  0.4474
    1SOL    MW410892   0.689   2.521   4.564  0.1301  0.2799 -0.0033
    1SOL     OW10893   1.249   0.864   4.728  0.3605 -0.1366 -0.0926
    1SOL    HW210894   1.248   0.770   4.706 -0.0733 -0.0119 -0.6054
    1SOL    HW310895   1.304   0.869   4.806  0.6255 -0.7842 -0.2321
    1SOL    MW410896   1.256   0.852   4.735  0.3382 -0.2056 -0.1788
    1SOL     OW10897   4.285   2.861   4.201 -0.2984 -0.0605 -0.0171
    1SOL    HW210898   4.283   2.951   4.168 -1.1846  0.5058  1.4885
    1SOL    HW310899   4.200   2.824   4.175  0.0426 -0.4439 -0.5855
    1SOL    MW410900   4.273   2.868   4.194 -0.3705 -0.0365  0.1068
    1SOL     OW10901   0.216   0.059   4.142 -0.3644  0.0758  0.0728
    1SOL    HW210902   0.308   0.086   4.135 -0.4442 -0.2105 -2.6186
    1SOL    HW310903   0.219  -0.031   4.174  0.4250 -0.7588 -2.2739
    1SOL    MW410904   0.229   0.051   4.145 -0.2708 -0.0721 -0.5918
    1SOL     OW10905   3.122   2.185   4.761 -0.4145  0.4345 -0.2020
    1SOL    HW210906   3.187   2.234   4.711  0.0319  0.1462  0.0920
    1SOL    HW310907   3.172   2.115   4.802 -0.6687  1.0396  1.1598
    1SOL    MW410908   3.137   2.182   4.760 -0.3893  0.4764  0.0167
    1SOL     OW10909   0.462   1.158   4.144 -0.2132  0.3669  0.4418
    1SOL    HW210910   0.441   1.065   4.138 -0.2548  0.3022  1.4648
    1SOL    HW310911   0.483   1.184   4.054  0.2221 -0.7298  0.2167
    1SOL    MW410912   0.462   1.149   4.131 -0.1613  0.2136  0.5474
    1SOL     OW10913   2.309   3.301   4.388  0.0211 -0.0451 -0.2086
    1SOL    HW210914   2.259   3.232   4.432  0.7613 -0.5206 -0.1009
    1SOL    HW310915   2.376   3.326   4.452 -0.7372  1.3410  0.0611
    1SOL    MW410916   2.311   3.295   4.402  0.0188  0.0753 -0.1593
    1SOL     OW10917   4.469   0.186   4.201 -0.0502  0.3725 -0.2769
    1SOL    HW210918   4.481   0.278   4.178  1.8399  1.0086  2.9293
    1SOL    HW310919   4.554   0.145   4.182 -0.1193 -0.1775  0.5676
    1SOL    MW410920   4.482   0.193   4.195  0.1903  0.3839  0.2570
    1SOL     OW10921   0.744   4.018   4.505 -0.1498  0.0779  0.1436
    1SOL    HW210922   0.807   3.975   4.562  1.4458 -0.0001 -1.6326
    1SOL    HW310923   0.670   3.958   4.501  0.4074 -0.6555  0.8336
    1SOL    MW410924   0.742   4.005   4.512  0.1342 -0.0286  0.0005
    1SOL     OW10925   0.918   3.282   4.561  0.0439 -0.0067  0.5099
    1SOL    HW210926   0.960   3.360   4.597  3.4826 -2.0334  1.1059
    1SOL    HW310927   0.887   3.233   4.637  0.2215 -0.4909  0.2711
    1SOL    MW410928   0.919   3.286   4.575  0.5210 -0.3381  0.5569
    1SOL     OW10929   2.529   1.446   4.516  0.3306  0.6172  0.1283
    1SOL    HW210930   2.448   1.490   4.542  0.0610  0.1635  0.0510
    1SOL    HW310931   2.598   1.507   4.542 -0.0312  0.9843  0.2367
    1SOL    MW410932   2.527   1.460   4.523  0.2470  0.6057  0.1326
    1SOL     OW10933   2.708   0.982   4.554 -0.3846  0.3336  0.1595
    1SOL    HW210934   2.632   1.038   4.539  0.2412  0.5924 -2.2770
    1SOL    HW310935   2.678   0.894   4.535 -0.5389  0.2157  0.9381
    1SOL    MW410936   2.694   0.978   4.550 -0.3223  0.3521 -0.0591
    1SOL     OW10937   1.389   0.904   4.130 -0.0696 -0.2068  0.0240
    1SOL    HW210938   1.463   0.849   4.156 -0.9510 -0.3165  2.4379
    1SOL    HW310939   1.423   0.993   4.134  0.1820 -0.3125  0.2560
    1SOL    MW410940   1.403   0.908   4.134 -0.1528 -0.2352  0.3729
    1SOL     OW10941   4.410   0.220   4.477 -0.5186  0.7963  0.0478
    1SOL    HW210942   4.434   0.195   4.387  0.1425  0.3881  0.3329
    1SOL    HW310943   4.388   0.313   4.471  2.3732  1.5520 -0.0279
    1SOL    MW410944   4.411   0.229   4.464 -0.0496  0.8422  0.0753
    1SOL     OW10945   2.339   0.992   4.682  0.1890  0.2113  0.3749
    1SOL    HW210946   2.390   0.997   4.763  1.4184 -1.1470 -0.2779
    1SOL    HW310947   2.393   1.036   4.617  0.2033 -0.5584 -0.1483
    1SOL    MW410948   2.353   0.998   4.685  0.3531 -0.0695  0.2198
    1SOL     OW10949   1.330   3.209   4.221  0.1798 -0.4086  0.3017
    1SOL    HW210950   1.310   3.200   4.314 -0.1837 -0.1098  0.2550
    1SOL    HW310951   1.261   3.160   4.177  0.5473 -0.8381  0.2003
    1SOL    MW410952   1.318   3.201   4.228  0.1804 -0.4258  0.2818
    1SOL     OW10953   1.115   2.266   4.164 -0.2065  0.1048 -0.0985
    1SOL    HW210954   1.194   2.317   4.182  0.0329 -0.7006  1.1741
    1SOL    HW310955   1.122   2.190   4.221 -1.5423 -0.3569 -0.5341
    1SOL    MW410956   1.127   2.263   4.174 -0.3512 -0.0622  0.0119
    1SOL     OW10957   0.022   0.995   4.547 -0.1718 -0.0168 -0.2711
    1SOL    HW210958   0.092   1.060   4.548 -0.5830  0.4274 -0.2132
    1SOL    HW310959  -0.058   1.046   4.535 -0.5674 -0.4445  0.5030
    1SOL    MW410960   0.020   1.010   4.545 -0.2783 -0.0144 -0.1616
    1SOL     OW10961   4.149   0.683   4.621  0.0736  0.2237 -0.6395
    1SOL    HW210962   4.168   0.720   4.707 -0.9214 -0.9592  0.1096
    1SOL    HW310963   4.062   0.716   4.599 -0.5348 -1.0897 -0.2640
    1SOL    MW410964   4.140   0.692   4.630 -0.1378 -0.1057 -0.4911
    1SOL     OW10965   3.346   1.031   4.637 -0.6532 -0.1610  0.0343
    1SOL    HW210966   3.370   1.041   4.729  2.1765  1.0882 -0.8046
    1SOL    HW310967   3.332   1.120   4.606  1.1394 -0.3773 -1.4409
    1SOL    MW410968   3.347   1.044   4.645 -0.0434 -0.0247 -0.2713
    1SOL     OW10969   3.483   4.086   4.545  0.7629 -0.0352 -0.4198
    1SOL    HW210970   3.538   4.070   4.469  2.0486  1.0953  0.2658
    1SOL    HW310971   3.518   4.165   4.585 -0.2713 -0.2740  1.0192
    1SOL    MW410972   3.495   4.094   4.540  0.7956  0.0830 -0.1397
    1SOL     OW10973   0.855   0.146   4.435  0.2845  1.0652 -0.1033
    1SOL    HW210974   0.911   0.149   4.358 -0.0044 -0.6626 -0.4041
    1SOL    HW310975   0.772   0.110   4.404 -0.0758  1.0244  0.8725
    1SOL    MW410976   0.851   0.142   4.421  0.1988  0.8319 -0.0143
    1SOL     OW10977   0.251   2.037   4.410 -0.0654  0.6588 -0.1063
    1SOL    HW210978   0.314   1.969   4.436 -1.9454 -1.1608 -0.1984
    1SOL    HW310979   0.239   2.024   4.316 -2.1644 -0.4165  0.2760
    1SOL    MW410980   0.258   2.026   4.401 -0.5904  0.2768 -0.0687
    1SOL     OW10981   1.965   1.696   4.393  0.0511  0.5053 -0.1904
    1SOL    HW210982   2.003   1.640   4.325  2.6727  0.5654  1.1414
    1SOL    HW310983   1.976   1.785   4.359  1.6373  0.5559  0.3839
    1SOL    MW410984   1.972   1.700   4.380  0.6063  0.5199  0.0610
    1SOL     OW10985   4.239   0.013   4.190 -0.0199  0.3272 -0.3192
    1SOL    HW210986   4.169   0.056   4.239  1.3718 -0.5179  2.5371
    1SOL    HW310987   4.309   0.079   4.186  0.2140  0.0774 -0.3834
    1SOL    MW410988   4.239   0.028   4.196  0.1945  0.1827  0.0491
    1SOL     OW10989   3.030   3.165   4.627 -0.0692  0.1332  0.2264
    1SOL    HW210990   3.079   3.124   4.698  0.9236 -0.5622 -0.8162
    1SOL    HW310991   2.979   3.093   4.589  0.4224  0.1915 -0.5747
    1SOL    MW410992   3.030   3.150   4.631  0.1268  0.0494 -0.0167
    1SOL     OW10993   2.093   4.352   4.480  0.6779  0.5717  0.0013
    1SOL    HW210994   2.040   4.368   4.402 -0.3903  2.3185  1.0513
    1SOL    HW310995   2.075   4.427   4.537  3.0848  0.4049  1.0369
    1SOL    MW410996   2.084   4.364   4.477  0.8547  0.7806  0.2766
    1SOL     OW10997   3.081   4.241   4.633  0.1812 -0.2933 -0.0471
    1SOL    HW210998   3.028   4.174   4.674  0.4663 -1.7045 -1.9127
    1SOL    HW310999   3.019   4.310   4.608 -0.1432  0.0388  1.6383
    1SOL    MW411000   3.066   4.241   4.635  0.1760 -0.4354 -0.0706
    1SOL     OW11001   3.838   4.379   4.557  0.3115  0.1866 -0.1064
    1SOL    HW211002   3.899   4.307   4.574  1.1741  0.7739 -0.7168
    1SOL    HW311003   3.760   4.357   4.609  0.0293 -1.8942 -1.3586
    1SOL    MW411004   3.836   4.366   4.566  0.3884 -0.0105 -0.3519
    1SOL     OW11005   3.024   2.043   4.549 -0.1206  0.6531 -0.1231
    1SOL    HW211006   3.067   2.086   4.623 -0.3617  0.1413  0.3123
    1SOL    HW311007   3.060   2.087   4.472  0.7949  0.5836  0.2617
    1SOL    MW411008   3.034   2.055   4.549 -0.0317  0.5763 -0.0148
    1SOL     OW11009   1.741   4.274   4.171 -0.1043  0.0199  0.2972
    1SOL    HW211010   1.748   4.266   4.076 -0.4062  1.4006  0.1466
    1SOL    HW311011   1.829   4.297   4.200 -0.1375  0.1405  0.3002
    1SOL    MW411012   1.754   4.276   4.162 -0.1484  0.2179  0.2775
    1SOL     OW11013   2.243   1.006   4.139 -0.3620  0.0268 -0.4625
    1SOL    HW211014   2.291   1.077   4.180  1.2905 -0.9557 -0.6367
    1SOL    HW311015   2.298   0.929   4.152 -1.3726 -0.9270 -1.6330
    1SOL    MW411016   2.256   1.005   4.146 -0.2773 -0.2286 -0.6394
    1SOL     OW11017   0.675   4.285   4.563  0.0506  0.5806  0.3172
    1SOL    HW211018   0.700   4.201   4.524  1.2931  0.3535  1.5711
    1SOL    HW311019   0.579   4.280   4.570  0.1002 -0.6971  0.2745
    1SOL    MW411020   0.665   4.273   4.559  0.2211  0.3824  0.4773
    1SOL     OW11021   2.957   0.410   4.576 -0.7527 -0.3071  0.4470
    1SOL    HW211022   3.014   0.482   4.602 -0.1025 -0.5639 -0.2511
    1SOL    HW311023   2.891   0.405   4.646  0.4689 -0.4487  1.6128
    1SOL    MW411024   2.956   0.418   4.589 -0.5057 -0.3597  0.5083
    1SOL     OW11025   4.041   1.633   4.298  0.0918 -0.4684 -0.0145
    1SOL    HW211026   4.098   1.578   4.243  1.2183 -0.1224  0.8084
    1SOL    HW311027   4.046   1.593   4.385  0.9859  0.9946  0.6130
    1SOL    MW411028   4.049   1.620   4.302  0.3581 -0.2297  0.1769
    1SOL     OW11029   1.772   1.898   4.782 -0.0792 -0.2409  0.1151
    1SOL    HW211030   1.795   1.913   4.690 -0.7722 -2.4199 -0.4561
    1SOL    HW311031   1.852   1.864   4.821 -0.1402 -0.5132  0.0050
    1SOL    MW411032   1.786   1.896   4.775 -0.1786 -0.5642  0.0257
    1SOL     OW11033   1.025   1.666   4.624  0.6226  0.1991  0.3449
    1SOL    HW211034   1.006   1.696   4.714  0.0918 -0.0250  0.3093
    1SOL    HW311035   1.119   1.648   4.624  0.6369  0.2638  0.8379
    1SOL    MW411036   1.035   1.668   4.636  0.5544  0.1780  0.4048
    1SOL     OW11037   3.027   2.807   4.715 -0.3579  0.3949  0.0878
    1SOL    HW211038   2.990   2.845   4.636  0.0170  1.6931  0.5313
    1SOL    HW311039   2.959   2.815   4.781  0.0773  1.2154  0.4455
    1SOL    MW411040   3.013   2.813   4.713 -0.2513  0.6742  0.1941
    1SOL     OW11041   1.630   0.738   4.130  0.2188  0.2106  0.5018
    1SOL    HW211042   1.694   0.797   4.168  0.7422 -0.2008  0.2794
    1SOL    HW311043   1.630   0.760   4.036  1.7516 -1.3498  0.1133
    1SOL    MW411044   1.638   0.749   4.122  0.4901 -0.0495  0.4215
    1SOL     OW11045   3.897   2.254   4.579  0.0466 -0.0784  0.4813
    1SOL    HW211046   3.992   2.264   4.587 -0.0141  1.1861 -0.3458
    1SOL    HW311047   3.861   2.310   4.648 -0.1520  1.2535 -0.6906
    1SOL    MW411048   3.905   2.263   4.589  0.0126  0.2639  0.2179
    1SOL     OW11049   4.074   4.048   4.283 -0.3902  0.1468 -0.3422
    1SOL    HW211050   4.142   3.994   4.243  0.1465 -0.2055  1.0374
    1SOL    HW311051   4.090   4.042   4.377 -1.2823  1.4497 -0.0904
    1SOL    MW411052   4.085   4.040   4.290 -0.4373  0.2723 -0.1273
    1SOL     OW11053   3.206   3.995   4.529  0.3848  0.2538  0.0805
    1SOL    HW211054   3.294   4.031   4.524  0.5526 -0.2088 -0.4265
    1SOL    HW311055   3.163   4.044   4.599  0.8905  0.8095 -0.0000
    1SOL    MW411056   3.212   4.006   4.538  0.4735  0.2656  0.0033
    1SOL     OW11057   0.576   0.422   4.584  0.1409  0.4312 -0.2115
    1SOL    HW211058   0.547   0.350   4.640 -0.0258  0.4210 -0.3081
    1SOL    HW311059   0.504   0.433   4.521 -0.0334  0.9695  0.0761
    1SOL    MW411060   0.562   0.414   4.583  0.0959  0.5009 -0.1864
    1SOL     OW11061   0.809   3.169   4.784  0.1347 -0.1206  0.2858
    1SOL    HW211062   0.741   3.118   4.740 -0.2749  0.0752  0.6852
    1SOL    HW311063   0.787   3.163   4.877  0.7901 -0.2375  0.4361
    1SOL    MW411064   0.797   3.162   4.791  0.1671 -0.1101  0.3586
    1SOL     OW11065   0.021   2.374   4.699 -0.5844 -0.2820  0.0151
    1SOL    HW211066  -0.017   2.410   4.779 -1.1840  0.0638 -0.4181
    1SOL    HW311067   0.016   2.446   4.636 -0.8539 -0.7945 -0.5600
    1SOL    MW411068   0.015   2.388   4.701 -0.6991 -0.3040 -0.1183
    1SOL     OW11069   1.731   1.296   4.521 -0.2592  0.3151 -0.1462
    1SOL    HW211070   1.776   1.323   4.441  1.5334 -0.0337  0.7162
    1SOL    HW311071   1.651   1.254   4.491  1.0370 -1.0060 -1.8274
    1SOL    MW411072   1.726   1.294   4.507  0.1484  0.0948 -0.2542
    1SOL     OW11073   0.419   0.875   4.178  0.4473  0.1066  0.4747
    1SOL    HW211074   0.496   0.821   4.164  1.0660  0.6445  1.7024
    1SOL    HW311075   0.345   0.814   4.178  1.0150 -0.5713  0.6492
    1SOL    MW411076   0.419   0.860   4.176  0.6038  0.0882  0.6595
    1SOL     OW11077   2.316   1.645   4.258 -0.0958 -0.3187  0.4542
    1SOL    HW211078   2.405   1.629   4.225 -0.0414 -0.3012  0.5914
    1SOL    HW311079   2.303   1.739   4.248 -0.4649 -0.4646 -0.4767
    1SOL    MW411080   2.326   1.655   4.252 -0.1373 -0.3356  0.3490
    1SOL     OW11081   3.443   2.117   4.491  0.1257  0.2466 -0.0344
    1SOL    HW211082   3.389   2.192   4.518  0.8705  1.3776 -1.6331
    1SOL    HW311083   3.532   2.152   4.484  0.8424 -1.2702  1.1486
    1SOL    MW411084   3.447   2.132   4.493  0.3183  0.1960 -0.0887
    1SOL     OW11085   2.359   2.575   4.721  0.4233  0.3051 -0.0033
    1SOL    HW211086   2.351   2.548   4.630 -0.6888 -0.4173  0.2970
    1SOL    HW311087   2.451   2.559   4.743  0.5900  0.0626 -0.8577
    1SOL    MW411088   2.370   2.569   4.712  0.2985  0.1776 -0.0763
    1SOL     OW11089   1.223   1.118   4.265 -0.1220  0.2462 -0.4837
    1SOL    HW211090   1.198   1.152   4.351 -2.1062  0.6524 -1.1860
    1SOL    HW311091   1.250   1.028   4.283  0.6804  0.7082  0.7288
    1SOL    MW411092   1.223   1.110   4.279 -0.2778  0.3607 -0.4163
    1SOL     OW11093   3.303   1.280   4.471  0.0852  0.2190 -0.0513
    1SOL    HW211094   3.327   1.255   4.382 -0.0393 -1.6023  0.4222
    1SOL    HW311095   3.215   1.318   4.461 -0.0729 -0.2878 -0.6583
    1SOL    MW411096   3.294   1.282   4.458  0.0479 -0.0882 -0.0696
    1SOL     OW11097   1.736   4.001   4.254 -0.0778 -0.1264  0.6936
    1SOL    HW211098   1.742   4.091   4.223  2.2069 -0.4384  0.1504
    1SOL    HW311099   1.733   4.008   4.350 -1.9639  0.6039  0.5880
    1SOL    MW411100   1.736   4.014   4.263 -0.0253 -0.0715  0.6080
    1SOL     OW11101   4.056   0.893   4.268 -0.0609 -0.2226  0.1760
    1SOL    HW211102   3.985   0.837   4.239 -0.1965  0.0138  0.0512
    1SOL    HW311103   4.135   0.854   4.231  0.1304 -1.7311  2.1022
    1SOL    MW411104   4.057   0.881   4.259 -0.0534 -0.3904  0.4134
    1SOL     OW11105   4.074   0.404   4.708 -0.1268  0.2701 -0.4562
    1SOL    HW211106   4.118   0.410   4.793  2.2827 -0.1811 -1.6054
    1SOL    HW311107   4.114   0.473   4.655 -2.4104  1.2894 -0.9001
    1SOL    MW411108   4.085   0.414   4.712 -0.1101  0.3450 -0.6666
    1SOL     OW11109   1.627   3.270   4.743 -0.0168 -0.4179  0.1994
    1SOL    HW211110   1.679   3.342   4.708 -0.0322  0.3297  1.7076
    1SOL    HW311111   1.668   3.191   4.706  0.8883  0.2760 -0.2972
    1SOL    MW411112   1.639   3.269   4.733  0.1006 -0.2277  0.3328
    1SOL     OW11113   1.401   3.391   4.632  0.0183  0.0436  0.3320
    1SOL    HW211114   1.473   3.353   4.683  0.2330  1.2084  0.9300
    1SOL    HW311115   1.443   3.459   4.580 -0.3777 -0.4506 -0.6428
    1SOL    MW411116   1.416   3.395   4.632 -0.0057  0.1323  0.2828
    1SOL     OW11117   4.486   4.024   4.243 -1.1643  0.3252 -0.0745
    1SOL    HW211118   4.434   3.999   4.167  0.4320 -0.1066 -1.0579
    1SOL    HW311119   4.510   4.115   4.226 -1.9050  0.6432  0.5599
    1SOL    MW411120   4.482   4.033   4.231 -1.0514  0.3099 -0.1206
    1SOL     OW11121   0.621   0.022   4.367 -0.0031  0.0584  0.0102
    1SOL    HW211122   0.655  -0.067   4.360  0.3600  0.3156 -1.6913
    1SOL    HW311123   0.546   0.024   4.307  0.6099  1.1871 -0.7339
    1SOL    MW411124   0.615   0.011   4.358  0.1257  0.2408 -0.3123
    1SOL     OW11125   0.397   2.544   4.491 -0.0613 -0.0824  0.4781
    1SOL    HW211126   0.480   2.559   4.536 -0.2327  0.7532  0.5138
    1SOL    HW311127   0.376   2.452   4.510  2.1187 -1.0980 -1.6306
    1SOL    MW411128   0.405   2.534   4.499  0.2037 -0.1063  0.2041
    1SOL     OW11129   0.035   0.483   4.122  0.0559  0.2061 -0.2691
    1SOL    HW211130   0.031   0.437   4.038 -1.3725 -0.5005  0.1687
    1SOL    HW311131  -0.056   0.500   4.145  0.5073  1.9794  0.2984
    1SOL    MW411132   0.022   0.479   4.114 -0.0731  0.3468 -0.1369
    1SOL     OW11133   1.186   2.036   4.295  0.0625  0.0294  0.3712
    1SOL    HW211134   1.231   2.066   4.374  0.7788 -1.2530  0.4650
    1SOL    HW311135   1.229   1.954   4.272 -0.3802  0.1989 -1.1518
    1SOL    MW411136   1.197   2.029   4.302  0.0986 -0.1175  0.1831
    1SOL     OW11137   1.598   3.096   4.139 -0.5104 -0.4538 -0.1898
    1SOL    HW211138   1.523   3.123   4.193  0.1788 -0.1930  0.6468
    1SOL    HW311139   1.600   3.001   4.148 -0.4802 -0.4235  0.1416
    1SOL    MW411140   1.588   3.087   4.147 -0.4156 -0.4153 -0.0358
    1SOL     OW11141   2.435   3.644   4.276  0.1571 -0.3727  0.2851
    1SOL    HW211142   2.381   3.578   4.233  0.4504  0.0281 -0.7009
    1SOL    HW311143   2.411   3.638   4.368 -0.5994 -1.1159  0.0443
    1SOL    MW411144   2.425   3.634   4.282  0.0961 -0.4179  0.1230
    1SOL     OW11145   2.563   2.477   4.275 -0.2763  0.0001  0.1916
    1SOL    HW211146   2.493   2.477   4.341 -1.3102  0.7636 -0.8906
    1SOL    HW311147   2.522   2.441   4.197  0.9810 -1.0032 -0.0186
    1SOL    MW411148   2.549   2.472   4.274 -0.2465 -0.0317  0.0210
    1SOL     OW11149   4.454   4.029   4.548  0.3066  0.0326  0.0879
    1SOL    HW211150   4.474   4.036   4.454  0.6193 -0.5615  0.1083
    1SOL    HW311151   4.359   4.018   4.551 -0.0630  2.9491 -0.0043
    1SOL    MW411152   4.444   4.028   4.536  0.2985  0.3390  0.0787
    1SOL     OW11153   0.921   2.457   4.214 -0.0737  0.0297  0.2656
    1SOL    HW211154   0.833   2.420   4.215 -0.2450  0.2767 -2.0429
    1SOL    HW311155   0.977   2.384   4.189  0.0045  0.4892 -0.9713
    1SOL    MW411156   0.917   2.442   4.211 -0.0860  0.1228 -0.2017
    1SOL     OW11157   2.001   1.954   4.311  0.0038  0.2465  0.0253
    1SOL    HW211158   2.017   2.041   4.273 -0.7983  1.0355  1.4538
    1SOL    HW311159   1.946   1.971   4.387  0.4311 -1.4555  0.7315
    1SOL    MW411160   1.996   1.968   4.316 -0.0458  0.1260  0.3066
    1SOL     OW11161   2.579   3.968   4.560  0.5246 -0.2457 -0.5512
    1SOL    HW211162   2.486   3.991   4.557  0.4377 -0.8069 -2.2392
    1SOL    HW311163   2.580   3.874   4.578  0.8043  0.0238  0.9242
    1SOL    MW411164   2.567   3.959   4.562  0.5500 -0.2842 -0.5794
    1SOL     OW11165   4.022   1.528   4.546 -0.2596 -0.0528  0.9000
    1SOL    HW211166   3.960   1.456   4.541  0.3267 -0.4693 -0.6910
    1SOL    HW311167   3.974   1.599   4.588 -2.1469 -0.0156 -1.2429
    1SOL    MW411168   4.008   1.528   4.551 -0.4315 -0.1030  0.4077
    1SOL     OW11169   3.821   1.557   4.125 -0.1469 -0.1638 -0.5879
    1SOL    HW211170   3.737   1.590   4.155  0.3153  0.0173  0.5657
    1SOL    HW311171   3.885   1.606   4.177  0.7301  0.7705 -2.5026
    1SOL    MW411172   3.819   1.568   4.136  0.0296 -0.0167 -0.6881
    1SOL     OW11173   4.294   1.243   4.195 -0.5452  0.4501 -0.5614
    1SOL    HW211174   4.214   1.199   4.166  0.2202 -1.0309 -0.4466
    1SOL    HW311175   4.297   1.228   4.289 -0.0332  0.3345 -0.5946
    1SOL    MW411176   4.284   1.235   4.203 -0.3767  0.2393 -0.5507
    1SOL     OW11177   2.206   0.070   4.306 -0.2523  0.2737 -0.5500
    1SOL    HW211178   2.238   0.012   4.374  0.0735  0.4056 -0.5893
    1SOL    HW311179   2.150   0.133   4.352  0.6357  0.8730 -0.2778
    1SOL    MW411180   2.203   0.071   4.321 -0.0923  0.3702 -0.5198
    1SOL     OW11181   0.896   1.345   4.197 -0.0316  0.0707  0.0971
    1SOL    HW211182   0.849   1.265   4.224 -1.7223  0.9093 -0.3118
    1SOL    HW311183   0.922   1.386   4.280 -0.6074 -0.0574  0.3449
    1SOL    MW411184   0.893   1.340   4.212 -0.3306  0.1644  0.0763
    1SOL     OW11185   1.374   0.927   4.479 -0.3867  0.6465  0.3716
    1SOL    HW211186   1.321   0.904   4.555  1.7361 -1.8613  1.1506
    1SOL    HW311187   1.381   0.846   4.429 -0.2857  1.8382 -1.6228
    1SOL    MW411188   1.368   0.913   4.482 -0.0931  0.4728  0.2108
    1SOL     OW11189   3.364   1.270   4.199 -0.0786 -0.7082  0.1049
    1SOL    HW211190   3.374   1.364   4.183  0.7246 -0.9260 -0.7445
    1SOL    HW311191   3.278   1.248   4.161 -0.0063 -0.4276 -0.2214
    1SOL    MW411192   3.354   1.279   4.192  0.0367 -0.6999 -0.0510
    1SOL     OW11193   1.797   0.878   4.306  0.0808 -0.1773 -0.2316
    1SOL    HW211194   1.769   0.861   4.396  1.5916  1.8608  0.6492
    1SOL    HW311195   1.892   0.863   4.307 -0.0610 -1.4644 -1.8389
    1SOL    MW411196   1.806   0.874   4.318  0.2614 -0.0783 -0.3271
    1SOL     OW11197   1.619   1.499   4.171 -0.1667 -0.2025 -0.2832
    1SOL    HW211198   1.536   1.455   4.191  0.0115 -0.9301 -1.1347
    1SOL    HW311199   1.606   1.590   4.200 -0.6949 -0.6988  1.0772
    1SOL    MW411200   1.607   1.505   4.178 -0.2130 -0.3641 -0.2165
    1SOL     OW11201   2.420   2.143   4.279 -0.0569 -0.2355 -0.1297
    1SOL    HW211202   2.371   2.063   4.260 -1.5650  0.5483  0.3677
    1SOL    HW311203   2.367   2.189   4.344  0.5057  1.4385 -0.8221
    1SOL    MW411204   2.406   2.139   4.285 -0.1817  0.0887 -0.1545
    1SOL     OW11205   3.103   2.150   4.307  0.2481 -0.2191 -0.4378
    1SOL    HW211206   3.073   2.228   4.259  0.5300 -0.2391 -0.6537
    1SOL    HW311207   3.193   2.137   4.276  0.3508 -0.3718 -0.0747
    1SOL    MW411208   3.111   2.159   4.297  0.2987 -0.2420 -0.4187
    1SOL     OW11209   1.808   3.457   4.601  0.3216 -0.3962  0.0203
    1SOL    HW211210   1.844   3.370   4.582  0.2943 -0.1112 -1.3963
    1SOL    HW311211   1.884   3.515   4.599  0.0699 -0.0988 -0.9490
    1SOL    MW411212   1.823   3.453   4.598  0.2848 -0.3195 -0.2942
    1SOL     OW11213   1.796   2.429   4.355  0.3437  0.5342 -0.2075
    1SOL    HW211214   1.856   2.360   4.385 -0.3415 -0.2485 -0.6401
    1SOL    HW311215   1.822   2.506   4.406  0.3863 -0.3221  1.1125
    1SOL    MW411216   1.807   2.430   4.366  0.2589  0.3181 -0.0906
    1SOL     OW11217   3.859   1.311   4.471 -0.9516 -0.5813  0.0073
    1SOL    HW211218   3.858   1.299   4.376 -1.3891  0.8873 -0.1812
    1SOL    HW311219   3.768   1.331   4.494 -1.0085 -1.7676  0.8550
    1SOL    MW411220   3.847   1.312   4.462 -1.0171 -0.5440  0.0939
    1SOL     OW11221   0.331   3.022   4.652 -0.1633  0.0906 -0.2536
    1SOL    HW211222   0.290   2.943   4.618 -1.6554  0.7711 -0.0613
    1SOL    HW311223   0.281   3.094   4.614  0.9368  0.9419 -0.1266
    1SOL    MW411224   0.319   3.021   4.643 -0.2150  0.2925 -0.2117
    1SOL     OW11225   2.980   2.385   4.618  0.3397  0.1182  0.2414
    1SOL    HW211226   3.008   2.326   4.687 -0.3826  1.0112  1.3182
    1SOL    HW311227   2.948   2.328   4.548  0.8557 -0.7795  0.7471
    1SOL    MW411228   2.979   2.370   4.618  0.3121  0.1175  0.4501
    1SOL     OW11229   2.877   3.124   4.167  0.4644 -0.5237  0.2672
    1SOL    HW211230   2.874   3.125   4.072 -1.7077 -0.5385  0.3165
    1SOL    HW311231   2.970   3.139   4.188  1.1481 -1.5858 -1.8412
    1SOL    MW411232   2.889   3.126   4.158  0.2680 -0.6659 -0.0052
    1SOL     OW11233   1.557   2.871   4.457  0.0376  0.6022 -0.3488
    1SOL    HW211234   1.590   2.917   4.535  0.0991 -0.0430  0.0110
    1SOL    HW311235   1.462   2.877   4.465  0.0196 -0.5743  0.4590
    1SOL    MW411236   1.549   2.878   4.469  0.0433  0.3619 -0.1950
    1SOL     OW11237   1.389   0.658   4.370  0.1168  0.6427 -0.3061
    1SOL    HW211238   1.457   0.594   4.347 -0.1690 -0.4872  1.8347
    1SOL    HW311239   1.320   0.644   4.305  1.2841  0.7256 -1.5606
    1SOL    MW411240   1.389   0.648   4.359  0.2332  0.5045 -0.1888
    1SOL     OW11241   1.456   1.228   4.485 -0.3566 -0.0436  0.0037
    1SOL    HW211242   1.414   1.254   4.567 -0.7696 -0.2015 -0.1573
    1SOL    HW311243   1.422   1.140   4.467 -0.7509  0.2449 -0.6646
    1SOL    MW411244   1.446   1.220   4.494 -0.4630 -0.0263 -0.1059
    1SOL     OW11245   0.016   2.573   4.501  0.0472 -0.0026  0.1892
    1SOL    HW211246   0.093   2.628   4.510  0.5539 -0.2028 -2.3622
    1SOL    HW311247  -0.056   2.635   4.488  0.1966  0.1293 -0.0150
    1SOL    MW411248   0.016   2.589   4.500  0.1338 -0.0114 -0.1740
    1SOL     OW11249   3.353   2.112   4.216 -0.3349 -0.1255  0.1350
    1SOL    HW211250   3.396   2.192   4.183 -1.1983  0.1102 -0.4170
    1SOL    HW311251   3.388   2.102   4.305  0.2252  0.5380 -0.0013
    1SOL    MW411252   3.364   2.121   4.224 -0.3750 -0.0067  0.0439
    1SOL     OW11253   4.069   4.254   4.686 -0.1516 -0.1403 -0.1389
    1SOL    HW211254   4.138   4.307   4.645 -0.0881 -0.1431 -0.0360
    1SOL    HW311255   4.041   4.307   4.761  1.0033 -0.9625  0.8895
    1SOL    MW411256   4.074   4.268   4.690  0.0086 -0.2489  0.0095
    1SOL     OW11257   3.266   3.227   4.480  0.1957  0.1714 -0.3628
    1SOL    HW211258   3.184   3.211   4.527 -0.0430  0.7549 -0.5690
    1SOL    HW311259   3.284   3.320   4.495  1.1421 -0.0954  0.1843
    1SOL    MW411260   3.258   3.237   4.488  0.2892  0.2134 -0.3181
    1SOL     OW11261   0.151   3.837   4.655  0.1777 -0.2072 -0.0376
    1SOL    HW211262   0.090   3.907   4.632  0.0114 -0.3508 -0.0336
    1SOL    HW311263   0.233   3.862   4.613 -0.4505 -1.1071 -1.8776
    1SOL    MW411264   0.154   3.849   4.646  0.0729 -0.3450 -0.2799
    1SOL     OW11265   3.122   0.380   4.127 -0.0252 -0.5148 -0.0090
    1SOL    HW211266   3.056   0.418   4.185  0.5700 -0.9269  0.9486
    1SOL    HW311267   3.206   0.407   4.165  0.3666 -0.2773 -1.0265
    1SOL    MW411268   3.124   0.389   4.140  0.1049 -0.5379 -0.0167
    1SOL     OW11269   0.232   3.089   4.183  0.3043 -0.2461  0.1061
    1SOL    HW211270   0.306   3.146   4.205 -0.4595  0.5099  0.7177
    1SOL    HW311271   0.154   3.139   4.206 -0.4147 -1.0502 -0.5062
    1SOL    MW411272   0.232   3.103   4.189  0.1086 -0.2525  0.1059
    1SOL     OW11273   1.650   0.836   4.552  0.2898  0.2698  0.4461
    1SOL    HW211274   1.709   0.901   4.590  0.6902  1.1361 -1.6320
    1SOL    HW311275   1.567   0.882   4.539  0.2978  0.1016 -0.1908
    1SOL    MW411276   1.647   0.850   4.556  0.3437  0.3619  0.0882
    1SOL     OW11277   2.264   3.474   4.145  0.1537 -0.0652 -0.1567
    1SOL    HW211278   2.253   3.389   4.187  0.0990 -0.9090 -1.8239
    1SOL    HW311279   2.184   3.522   4.165  0.3008 -0.2988  1.0145
    1SOL    MW411280   2.252   3.469   4.153  0.1659 -0.2074 -0.2217
    1SOL     OW11281   4.213   0.796   4.877  0.0508  0.0176 -0.3428
    1SOL    HW211282   4.306   0.816   4.860  0.3262 -0.5567  0.4656
    1SOL    HW311283   4.186   0.863   4.940 -0.0292  0.0512 -0.4128
    1SOL    MW411284   4.222   0.808   4.883  0.0768 -0.0537 -0.2451
    1SOL     OW11285   2.226   0.750   4.509  0.1693 -0.5229  0.1116
    1SOL    HW211286   2.255   0.799   4.586 -1.2250 -0.4472  0.5920
    1SOL    HW311287   2.187   0.817   4.452  0.2996 -0.7290 -0.2220
    1SOL    MW411288   2.225   0.766   4.512  0.0024 -0.5401  0.1311
    1SOL     OW11289   4.268   3.306   4.534  0.1561 -0.0718  0.7003
    1SOL    HW211290   4.321   3.326   4.611 -1.1247 -0.6991  1.7601
    1SOL    HW311291   4.257   3.211   4.536 -0.5957  0.0034  0.2205
    1SOL    MW411292   4.274   3.296   4.544 -0.1121 -0.1442  0.7768
    1SOL     OW11293   2.243   0.350   4.173 -0.2132 -0.4332  0.3644
    1SOL    HW211294   2.248   0.343   4.078 -1.3197  0.5440  0.2304
    1SOL    HW311295   2.222   0.261   4.202  0.5197 -0.8196 -0.2704
    1SOL    MW411296   2.241   0.337   4.164 -0.2623 -0.3553  0.2627
    1SOL     OW11297   3.570   0.885   4.267  0.1565 -0.5375 -0.4146
    1SOL    HW211298   3.497   0.844   4.221  1.2118 -0.8959 -1.8195
    1SOL    HW311299   3.561   0.978   4.249  0.0885 -0.5924 -0.6705
    1SOL    MW411300   3.559   0.892   4.259  0.2866 -0.5919 -0.6337
    1SOL     OW11301   0.623   3.037   4.625  0.5393 -0.1477  0.3162
    1SOL    HW211302   0.530   3.019   4.641  0.5265 -0.7678 -0.4281
    1SOL    HW311303   0.653   2.963   4.572  1.1348  0.6809 -0.5315
    1SOL    MW411304   0.614   3.025   4.620  0.6162 -0.1202  0.1068
    1SOL     OW11305   2.274   1.548   4.510 -0.3015 -0.3164 -0.0192
    1SOL    HW211306   2.305   1.576   4.423  3.2287 -1.1690  0.8985
    1SOL    HW311307   2.229   1.625   4.545 -0.3425  0.5685 -1.9488
    1SOL    MW411308   2.272   1.562   4.503  0.1590 -0.3121 -0.1531
    1SOL     OW11309   0.967   1.707   4.222 -0.2239 -0.0314  0.0290
    1SOL    HW211310   0.872   1.693   4.226 -0.3321  0.5876 -0.2650
    1SOL    HW311311   0.977   1.801   4.210  0.4289 -0.1057 -0.0515
    1SOL    MW411312   0.956   1.718   4.221 -0.1520  0.0404 -0.0200
    1SOL     OW11313   3.605   1.666   4.227 -0.3609 -0.5815 -0.4537
    1SOL    HW211314   3.602   1.666   4.323 -1.5783  1.2764 -0.4643
    1SOL    HW311315   3.528   1.615   4.201 -0.0279 -1.0892 -0.4580
    1SOL    MW411316   3.594   1.659   4.236 -0.4778 -0.4033 -0.4554
    1SOL     OW11317   3.382   2.906   4.265  0.7349  0.1566  0.1906
    1SOL    HW211318   3.304   2.854   4.249  0.7550  0.2830 -0.3339
    1SOL    HW311319   3.381   2.923   4.360 -0.1783  0.6521  0.0974
    1SOL    MW411320   3.372   2.902   4.276  0.6173  0.2389  0.1092
    1SOL     OW11321   3.911   2.586   4.456 -0.3183  0.1846 -0.0518
    1SOL    HW211322   3.948   2.566   4.370 -0.8975 -0.1313 -0.2304
    1SOL    HW311323   3.816   2.582   4.443 -0.4292  1.7357  0.2266
    1SOL    MW411324   3.903   2.583   4.443 -0.4094  0.3474 -0.0391
    1SOL     OW11325   0.455   0.636   4.707 -0.2606 -0.1784 -0.1496
    1SOL    HW211326   0.389   0.665   4.644  1.2881  0.7575 -1.3891
    1SOL    HW311327   0.500   0.564   4.663  0.3191 -0.0289  0.1957
    1SOL    MW411328   0.452   0.631   4.693  0.0202 -0.0351 -0.2680
    1SOL     OW11329   1.540   4.383   4.321 -0.1427 -0.4789 -0.1953
    1SOL    HW211330   1.617   4.360   4.268  0.0644  1.0480 -0.5770
    1SOL    HW311331   1.467   4.340   4.277  0.3085 -0.8677 -0.5709
    1SOL    MW411332   1.540   4.374   4.308 -0.0559 -0.3285 -0.2952
    1SOL     OW11333   3.051   1.915   4.138 -0.1403 -0.4067  0.6054
    1SOL    HW211334   2.960   1.892   4.121 -0.3420  0.2825  0.7410
    1SOL    HW311335   3.047   1.997   4.187  0.5423 -0.5526  0.9225
    1SOL    MW411336   3.039   1.923   4.143 -0.0768 -0.3351  0.6652
    1SOL     OW11337   3.600   1.146   4.138 -0.2841  0.1328 -0.1545
    1SOL    HW211338   3.587   1.143   4.043 -0.9537  0.0073 -0.0610
    1SOL    HW311339   3.529   1.200   4.171  0.8288  1.4643  0.1323
    1SOL    MW411340   3.589   1.153   4.130 -0.2258  0.2919 -0.1044
    1SOL     OW11341   1.803   0.341   4.129  0.1645 -0.3885  0.0304
    1SOL    HW211342   1.718   0.380   4.153 -0.6987 -1.2239 -1.5959
    1SOL    HW311343   1.797   0.251   4.160  0.5351 -0.3943  0.0822
    1SOL    MW411344   1.791   0.334   4.136  0.0994 -0.4995 -0.1769
    1SOL     OW11345   3.368   4.409   4.219  0.2223  0.3015  0.4502
    1SOL    HW211346   3.346   4.412   4.312  1.1884 -0.7298  0.7306
    1SOL    HW311347   3.368   4.500   4.191 -0.0026  0.6266  1.4762
    1SOL    MW411348   3.365   4.421   4.228  0.3204  0.2084  0.6227
    1SOL     OW11349   2.468   0.501   4.259  0.1159 -0.1143  0.5497
    1SOL    HW211350   2.467   0.587   4.216  1.8413 -0.4013 -0.1206
    1SOL    HW311351   2.395   0.453   4.219  0.8286  0.1196 -1.0676
    1SOL    MW411352   2.459   0.506   4.248  0.4375 -0.1213  0.2475
    1SOL     OW11353   2.688   2.718   4.159 -0.3029 -0.1487 -0.2719
    1SOL    HW211354   2.618   2.782   4.170 -0.4439 -0.6383  1.7134
    1SOL    HW311355   2.653   2.637   4.196  0.4010 -1.0243 -1.4953
    1SOL    MW411356   2.674   2.716   4.165 -0.2289 -0.3290 -0.1712
    1SOL     OW11357   2.347   1.235   4.267 -0.0290 -0.1707 -0.1906
    1SOL    HW211358   2.413   1.298   4.241  0.4898  0.2110  1.9638
    1SOL    HW311359   2.278   1.287   4.307 -0.3231 -0.8266  0.1678
    1SOL    MW411360   2.346   1.250   4.269  0.0007 -0.2068  0.1411
    1SOL     OW11361   3.121   3.475   4.123 -0.4664 -0.0127  0.2325
    1SOL    HW211362   3.117   3.481   4.027 -1.4528 -0.4852  0.2433
    1SOL    HW311363   3.039   3.513   4.153 -0.0044  0.4593  0.9169
    1SOL    MW411364   3.110   3.481   4.114 -0.5357 -0.0129  0.3242
    1SOL     OW11365   3.562   4.332   4.668  0.2339  0.0537 -0.3283
    1SOL    HW211366   3.487   4.355   4.613 -0.5316  0.4878  0.8552
    1SOL    HW311367   3.524   4.317   4.755  1.2157 -2.0483 -0.2297
    1SOL    MW411368   3.547   4.333   4.672  0.2625 -0.1664 -0.1593
    1SOL     OW11369   3.845   1.289   4.187 -0.2653  0.2807 -0.7579
    1SOL    HW211370   3.824   1.382   4.178  1.4982  0.7629 -0.0945
    1SOL    HW311371   3.763   1.244   4.168 -1.9740  2.0769  2.0723
    1SOL    MW411372   3.831   1.296   4.183 -0.2582  0.5813 -0.2971
    1SOL     OW11373   3.161   1.689   4.251 -0.1604 -0.0713  0.3517
    1SOL    HW211374   3.184   1.727   4.335 -0.7128  0.9762  0.0372
    1SOL    HW311375   3.134   1.763   4.197  1.1260 -0.5851 -1.0690
    1SOL    MW411376   3.160   1.704   4.255 -0.0637 -0.0008  0.1230
    1SOL     OW11377   3.785   4.649   4.617 -0.0954 -0.0783  0.5877
    1SOL    HW211378   3.810   4.560   4.594 -0.8032 -0.2743  0.5752
    1SOL    HW311379   3.865   4.700   4.604 -0.3111 -0.2749 -1.7270
    1SOL    MW411380   3.799   4.644   4.613 -0.2174 -0.1302  0.2813
    1SOL     OW11381   2.712   1.623   4.245  0.2617  0.1302 -0.4554
    1SOL    HW211382   2.701   1.606   4.338 -0.0589  1.6608 -0.1890
    1SOL    HW311383   2.651   1.563   4.202 -0.9908  0.7484  0.4306
    1SOL    MW411384   2.702   1.613   4.252  0.0544  0.4135 -0.3037
    1SOL     OW11385   4.278   0.534   4.232  0.0993  0.0429 -0.6075
    1SOL    HW211386   4.257   0.623   4.203 -0.1561 -0.1138 -0.9169
    1SOL    HW311387   4.205   0.481   4.200  1.0397 -0.5430 -1.8460
    1SOL    MW411388   4.266   0.539   4.224  0.1898 -0.0551 -0.8125
    1SOL     OW11389   4.310   0.230   4.889  0.3563  0.0222  0.3833
    1SOL    HW211390   4.405   0.219   4.895  0.2243 -1.1109  0.4631
    1SOL    HW311391   4.280   0.226   4.980  0.0321 -1.4932  0.2152
    1SOL    MW411392   4.319   0.228   4.902  0.2961 -0.3273  0.3719
    1SOL     OW11393   2.071   3.152   4.111  0.4789 -0.9797 -0.4854
    1SOL    HW211394   2.074   3.063   4.146  0.0457 -0.0376  2.0616
    1SOL    HW311395   1.986   3.187   4.140  0.5918  0.2280 -1.5461
    1SOL    MW411396   2.060   3.145   4.120  0.4365 -0.6959 -0.2894
    1SOL     OW11397   1.684   1.625   4.480 -0.0284 -0.1564 -0.1744
    1SOL    HW211398   1.678   1.534   4.507 -0.6676 -0.3638 -1.0015
    1SOL    HW311399   1.776   1.638   4.457  0.3190 -0.2462  1.1162
    1SOL    MW411400   1.695   1.615   4.481 -0.0669 -0.1955 -0.1135
    1SOL     OW11401   0.679   1.340   4.515 -0.1937  0.3246  0.3744
    1SOL    HW211402   0.713   1.282   4.583  0.0179 -1.1340 -0.9319
    1SOL    HW311403   0.592   1.367   4.547  0.7440  1.3145  2.1413
    1SOL    MW411404   0.672   1.336   4.528 -0.0421  0.2626  0.4349
    1SOL     OW11405   3.148   0.615   4.605 -0.0725  0.2326  0.2833
    1SOL    HW211406   3.242   0.606   4.594 -0.2228 -0.8198 -0.2100
    1SOL    HW311407   3.131   0.709   4.596  0.6959  0.2068 -1.4701
    1SOL    MW411408   3.158   0.626   4.602  0.0091  0.0904 -0.0134
    1SOL     OW11409   3.371   0.738   4.133  0.4229  0.0724  0.2982
    1SOL    HW211410   3.365   0.644   4.151 -0.6104  0.0923  0.1088
    1SOL    HW311411   3.288   0.774   4.163  0.4227  0.7748 -0.5036
    1SOL    MW411412   3.359   0.730   4.139  0.2866  0.1677  0.1674
    1SOL     OW11413   3.843   0.504   4.580 -0.3056  0.0939 -0.0754
    1SOL    HW211414   3.911   0.458   4.630  1.5655 -0.1195 -2.7042
    1SOL    HW311415   3.866   0.596   4.587 -0.2586  0.0916 -0.1862
    1SOL    MW411416   3.855   0.510   4.587 -0.0527  0.0654 -0.4377
    1SOL     OW11417   2.451   2.272   3.838  0.2390  0.1473 -0.0782
    1SOL    HW211418   2.417   2.285   3.926 -0.8603 -0.3270 -0.4301
    1SOL    HW311419   2.452   2.177   3.825  1.2387  0.1729 -0.2545
    1SOL    MW411420   2.447   2.261   3.848  0.2260  0.0880 -0.1481
    1SOL     OW11421   2.371   4.390   4.521 -0.0240  0.0775 -0.2926
    1SOL    HW211422   2.382   4.478   4.558  0.6008 -0.1078 -0.0348
    1SOL    HW311423   2.278   4.385   4.500 -0.5047  0.0295  1.6975
    1SOL    MW411424   2.360   4.401   4.523 -0.0048  0.0463  0.0043
    1SOL     OW11425   3.574   1.364   4.500 -0.1733 -0.5103 -0.1289
    1SOL    HW211426   3.482   1.341   4.482 -0.5871  0.3196  0.8692
    1SOL    HW311427   3.570   1.455   4.529  0.8903 -0.6961  0.6234
    1SOL    MW411428   3.561   1.373   4.501 -0.0875 -0.4255  0.1020
    1SOL     OW11429   3.119   0.119   4.234  0.2407 -0.1545 -0.5803
    1SOL    HW211430   3.107   0.204   4.192 -1.0068 -0.3758 -0.6897
    1SOL    HW311431   3.103   0.136   4.327  0.3724 -0.1829 -0.5537
    1SOL    MW411432   3.115   0.132   4.241  0.0935 -0.1874 -0.5913
    1SOL     OW11433   2.654   3.508   4.161 -0.1416  0.3845  0.0971
    1SOL    HW211434   2.736   3.555   4.173  0.3536 -0.6147  0.6903
    1SOL    HW311435   2.589   3.561   4.206  0.1453  1.2628 -0.5186
    1SOL    MW411436   2.656   3.521   4.168 -0.0384  0.3686  0.0944
    1SOL     OW11437   1.081   3.833   4.138  0.6294  0.2987  0.2152
    1SOL    HW211438   1.037   3.889   4.202  0.0704 -0.1663  0.2430
    1SOL    HW311439   1.090   3.749   4.183 -1.0667 -0.4607 -0.8227
    1SOL    MW411440   1.077   3.829   4.153  0.3318  0.1373  0.0825
    1SOL     OW11441   0.114   0.165   4.894  0.0754  0.1925  0.1904
    1SOL    HW211442   0.160   0.249   4.890  1.6674 -0.6764 -0.0030
    1SOL    HW311443   0.155   0.112   4.826 -1.1176 -0.6621  0.1160
    1SOL    MW411444   0.125   0.169   4.884  0.1280 -0.0349  0.1554
    1SOL     OW11445   0.663   2.061   4.201  0.1139 -0.0908  0.6847
    1SOL    HW211446   0.756   2.042   4.211  0.1249  0.4415  1.6882
    1SOL    HW311447   0.660   2.155   4.182 -0.1445 -0.3688 -0.6600
    1SOL    MW411448   0.675   2.071   4.200  0.0813 -0.0575  0.6399
    1SOL     OW11449   0.479   2.711   4.134  0.1021  0.1891 -0.5112
    1SOL    HW211450   0.467   2.706   4.039  0.5750  3.3369 -0.7847
    1SOL    HW311451   0.405   2.763   4.165  0.3231 -0.2480  0.7908
    1SOL    MW411452   0.468   2.717   4.125  0.1937  0.5467 -0.3757
    1SOL     OW11453   1.335   2.428   4.221  0.4423 -0.0238 -0.3823
    1SOL    HW211454   1.415   2.376   4.224  0.1114 -0.5240 -0.1845
    1SOL    HW311455   1.364   2.514   4.190  0.8929 -0.5063 -1.3366
    1SOL    MW411456   1.350   2.432   4.217  0.4582 -0.1535 -0.4816
    1SOL     OW11457   2.910   2.948   4.501  0.1286 -0.0234 -0.3029
    1SOL    HW211458   2.927   2.915   4.413  1.0782 -1.0521  0.2508
    1SOL    HW311459   2.829   2.903   4.528 -0.7851  1.1489 -1.0724
    1SOL    MW411460   2.902   2.938   4.493  0.1335 -0.0048 -0.3314
    1SOL     OW11461   2.663   0.809   4.285 -0.0508 -0.0294 -0.1636
    1SOL    HW211462   2.736   0.785   4.228  0.8132  0.0911  0.8931
    1SOL    HW311463   2.677   0.759   4.365 -1.8810 -1.0516 -0.4534
    1SOL    MW411464   2.674   0.799   4.288 -0.1783 -0.1484 -0.0629
    1SOL     OW11465   0.253   0.043   4.677 -0.1461  0.3443  0.2635
    1SOL    HW211466   0.235   0.102   4.603 -0.8682 -1.5943 -1.1514
    1SOL    HW311467   0.347   0.052   4.692 -0.2151  1.7271 -0.0419
    1SOL    MW411468   0.263   0.052   4.669 -0.2505  0.2710  0.0358
    1SOL     OW11469   0.185   3.227   4.508  0.0358  0.5698  0.2156
    1SOL    HW211470   0.261   3.284   4.519 -0.1056  0.5275  1.5025
    1SOL    HW311471   0.123   3.256   4.575 -1.0858  0.6091 -0.8389
    1SOL    MW411472   0.187   3.238   4.518 -0.1308  0.5693  0.2465
    1SOL     OW11473   2.828   3.372   4.622  0.0233 -0.6305 -0.0888
    1SOL    HW211474   2.895   3.304   4.617  0.7554  0.1388 -1.0714
    1SOL    HW311475   2.746   3.327   4.602  0.4557 -1.2844 -0.4059
    1SOL    MW411476   2.826   3.357   4.619  0.1771 -0.6151 -0.2599
    1SOL     OW11477   1.394   1.361   4.244 -0.5562  0.4196 -0.0516
    1SOL    HW211478   1.418   1.286   4.189  2.2291  0.7268  0.6506
    1SOL    HW311479   1.393   1.326   4.333 -0.9673  0.8322  0.1078
    1SOL    MW411480   1.397   1.346   4.249 -0.2428  0.5145  0.0615
    1SOL     OW11481   1.821   1.025   4.637  0.0044 -0.0173  0.4348
    1SOL    HW211482   1.917   1.020   4.632 -0.0814 -0.5230 -0.9957
    1SOL    HW311483   1.802   1.117   4.619  0.2374  0.1960  1.2359
    1SOL    MW411484   1.831   1.036   4.634  0.0238 -0.0560  0.3519
    1SOL     OW11485   3.989   2.003   4.103 -0.1660  0.2685  0.2535
    1SOL    HW211486   3.911   2.043   4.142  0.2424 -0.6560  2.0689
    1SOL    HW311487   4.039   1.970   4.177  1.0949 -0.7320 -1.0048
    1SOL    MW411488   3.986   2.004   4.118  0.0544  0.0145  0.3266
    1SOL     OW11489   2.908   4.641   4.139  0.6553  0.2361 -0.5331
    1SOL    HW211490   2.984   4.684   4.179  0.2276 -1.2489  1.9733
    1SOL    HW311491   2.903   4.556   4.182 -1.8564 -0.0864 -1.3869
    1SOL    MW411492   2.918   4.635   4.150  0.2673 -0.0024 -0.3152
    1SOL     OW11493   0.387   0.466   4.382  0.3785  0.0640  0.1330
    1SOL    HW211494   0.329   0.393   4.400  0.3239  0.1669  0.3796
    1SOL    HW311495   0.432   0.442   4.301  1.2692 -0.7974  0.8718
    1SOL    MW411496   0.386   0.453   4.374  0.4888 -0.0361  0.2632
    1SOL     OW11497   1.624   3.853   4.593 -0.0375  0.1249  0.6058
    1SOL    HW211498   1.708   3.894   4.575 -0.4812  0.4723 -0.8001
    1SOL    HW311499   1.559   3.921   4.574 -0.6568 -0.3416  1.0191
    1SOL    MW411500   1.626   3.867   4.588 -0.1779  0.1092  0.4745
    1SOL     OW11501   3.850   1.735   4.627  0.0129 -0.0167  0.0921
    1SOL    HW211502   3.876   1.813   4.577 -0.0808  0.0586  0.1606
    1SOL    HW311503   3.808   1.770   4.705  1.4466 -0.1044  0.9271
    1SOL    MW411504   3.848   1.750   4.631  0.1893 -0.0182  0.2117
    1SOL     OW11505   4.171   2.265   4.545  0.1608 -0.7290 -0.6052
    1SOL    HW211506   4.207   2.220   4.468  1.4681 -0.1393 -0.3572
    1SOL    HW311507   4.190   2.357   4.529 -1.2214 -0.4015 -0.4297
    1SOL    MW411508   4.178   2.271   4.532  0.1516 -0.6080 -0.5488
    1SOL     OW11509   2.829   3.626   4.498  0.4669 -0.0668 -0.2844
    1SOL    HW211510   2.826   3.534   4.524  0.3418  0.0398  0.0834
    1SOL    HW311511   2.744   3.662   4.526  0.7229  0.2862  0.0415
    1SOL    MW411512   2.817   3.619   4.505  0.4840 -0.0060 -0.1926
    1SOL     OW11513   1.404   4.039   4.499 -0.0911 -0.3517  0.2696
    1SOL    HW211514   1.412   4.131   4.522 -0.5516 -0.2989  0.2173
    1SOL    HW311515   1.377   4.040   4.407  0.5732 -0.5455  0.0734
    1SOL    MW411516   1.402   4.051   4.490 -0.0641 -0.3700  0.2370
    1SOL     OW11517   1.828   3.491   4.085  0.2628 -0.0443  0.0448
    1SOL    HW211518   1.823   3.507   3.991 -1.5493 -1.3003 -0.0964
    1SOL    HW311519   1.747   3.527   4.120  0.1660 -1.0530  0.8939
    1SOL    MW411520   1.817   3.498   4.077  0.0108 -0.3431  0.1383
    1SOL     OW11521   1.212   1.591   4.302 -0.3224  0.5191  0.3070
    1SOL    HW211522   1.237   1.508   4.261 -0.8878  0.2191  0.5642
    1SOL    HW311523   1.121   1.604   4.276 -0.5044  0.6146  1.0054
    1SOL    MW411524   1.203   1.582   4.293 -0.4210  0.4921  0.4330
    1SOL     OW11525   2.197   2.320   4.735  0.0914 -0.0979  0.3096
    1SOL    HW211526   2.223   2.309   4.643  0.5718  1.8497  0.1814
    1SOL    HW311527   2.247   2.396   4.765  0.2710 -0.9685  2.3360
    1SOL    MW411528   2.207   2.329   4.727  0.1783  0.0439  0.5598
    1SOL     OW11529   0.942   3.480   4.147 -0.5514 -0.2200 -0.1990
    1SOL    HW211530   0.949   3.388   4.170  1.5996  0.0921  0.4722
    1SOL    HW311531   0.942   3.482   4.052  0.9858 -0.8217 -0.2202
    1SOL    MW411532   0.943   3.468   4.138 -0.0647 -0.2580 -0.1130
    1SOL     OW11533   4.490   1.705   4.228 -0.0493 -0.5701 -0.2526
    1SOL    HW211534   4.487   1.696   4.323 -0.2142  1.2746 -0.0486
    1SOL    HW311535   4.421   1.647   4.196 -0.2705 -0.8895  0.7825
    1SOL    MW411536   4.481   1.696   4.236 -0.1002 -0.3690 -0.0887
    1SOL     OW11537   3.861   3.593   4.553 -0.5044  0.3443  0.1253
    1SOL    HW211538   3.864   3.634   4.467  0.9638 -0.1143 -0.0461
    1SOL    HW311539   3.910   3.512   4.543 -0.3602  0.2699  1.3889
    1SOL    MW411540   3.868   3.588   4.540 -0.2918  0.2739  0.2694
    1SOL     OW11541   3.240   2.485   4.202 -0.0543 -0.0843 -0.2206
    1SOL    HW211542   3.210   2.499   4.291  0.8995  0.1914  0.0641
    1SOL    HW311543   3.168   2.440   4.159  0.0877 -1.5879  1.0996
    1SOL    MW411544   3.226   2.481   4.208  0.0901 -0.2463 -0.0086
    1SOL     OW11545   0.030   4.282   4.156 -0.1335 -0.6478 -0.3297
    1SOL    HW211546  -0.047   4.320   4.198  1.0349 -0.1002  1.3973
    1SOL    HW311547   0.023   4.308   4.064 -1.5429  0.1397 -0.0138
    1SOL    MW411548   0.019   4.290   4.150 -0.1655 -0.4716 -0.0601
    1SOL     OW11549   1.982   2.491   4.157 -0.5486  0.6602 -0.0224
    1SOL    HW211550   1.907   2.466   4.211  0.7496 -1.1285  0.9645
    1SOL    HW311551   2.059   2.461   4.206  0.7163  0.4121 -2.1098
    1SOL    MW411552   1.982   2.484   4.170 -0.2105  0.3912 -0.1669
    1SOL     OW11553   1.057   0.382   4.068 -0.0637 -0.1622  0.5090
    1SOL    HW211554   1.121   0.428   4.122 -0.0962  0.9131 -0.3633
    1SOL    HW311555   0.975   0.429   4.082 -0.4103 -0.8147  0.7036
    1SOL    MW411556   1.055   0.394   4.077 -0.1137 -0.1064  0.4191
    1NA      NA11557   2.910   3.790   0.313  0.4000  0.1315 -0.6011
    1NA      NA11558   0.883   2.392   0.650 -0.0496 -0.4308  0.1716
   4.49070   4.66690  10.00000
