Gromacs Runs On Most of All Computer Systems in water
11558
    1RG35     P    1   2.289   2.389   4.368  0.0412  0.1046 -0.1735
    1RG35   O1P    2   2.405   2.447   4.431  0.6059 -0.6186  0.2568
    1RG35   O2P    3   2.269   2.244   4.391 -0.0387 -0.2398 -0.0855
    1RG35   O5'    4   2.172   2.454   4.446  0.8186  0.0088  0.8107
    1RG35   C5'    5   2.146   2.593   4.447  0.2239 -0.1779 -0.1406
    1RG35  H5'1    6   2.111   2.622   4.348  0.3221  0.4053 -0.0046
    1RG35  H5'2    7   2.233   2.652   4.475  0.0243  0.3229 -0.5675
    1RG35   C4'    8   2.033   2.637   4.540  0.4903 -0.2263  0.0033
    1RG35   H4'    9   2.041   2.745   4.546 -0.0268 -0.0345 -2.2576
    1RG35   O4'   10   1.894   2.610   4.508 -0.2905  0.1237  0.1891
    1RG35   C1'   11   1.820   2.630   4.626  0.6701 -0.2887 -0.1592
    1RG35   H1'   12   1.772   2.728   4.621  2.2090  0.4249 -1.2281
    1RG35    N9   13   1.714   2.523   4.639  0.3513  0.0760 -0.5378
    1RG35    C8   14   1.579   2.543   4.607  0.0067 -0.1475 -0.5864
    1RG35    H8   15   1.539   2.638   4.576 -1.8926 -0.5927  0.4526
    1RG35    N7   16   1.508   2.436   4.615 -0.2008  0.5658  0.2333
    1RG35    C5   17   1.602   2.337   4.648  0.0077  0.0752  0.0211
    1RG35    C6   18   1.590   2.195   4.671 -0.3940 -0.0703 -0.2617
    1RG35    O6   19   1.487   2.130   4.663  0.1507  0.3660  0.1572
    1RG35    N1   20   1.704   2.130   4.708 -0.0274  0.4636  0.1863
    1RG35    H1   21   1.703   2.031   4.727 -0.3228  0.6755  1.3061
    1RG35    C2   22   1.820   2.193   4.730  0.0345  0.1866  0.0356
    1RG35    N2   23   1.921   2.118   4.763 -0.2125  0.8451  0.2685
    1RG35   H21   24   1.913   2.018   4.770  0.8574  0.7440  0.2618
    1RG35   H22   25   2.011   2.164   4.774  0.0637 -0.1377  2.2914
    1RG35    N3   26   1.839   2.324   4.713  0.8947  0.5402  0.2315
    1RG35    C4   27   1.726   2.391   4.668 -0.4462 -0.1188 -0.4556
    1RG35   C3'   28   2.039   2.582   4.686 -0.3973 -0.3297  0.4060
    1RG35   H3'   29   2.042   2.474   4.681  0.8999 -0.4231  2.6420
    1RG35   C2'   30   1.913   2.640   4.751 -0.5211  0.4183 -0.0495
    1RG35  H2'1   31   1.879   2.585   4.839 -1.3187  2.7218  1.1259
    1RG35   O2'   32   1.924   2.783   4.774 -0.0718  0.9209 -0.4339
    1RG35  HO'2   33   2.011   2.793   4.813  0.3963  0.8907 -1.4704
    1RG35   O3'   34   2.147   2.634   4.762  0.8594  0.2558 -0.6442
    1RG35   H3T   35   2.223   2.583   4.733  0.6453 -0.0068 -0.7454
    1RG35   O3P   36   2.282   2.431   4.225  0.0223  0.0254 -0.0895
    1SOL     OW   37   2.397   1.626   0.492  0.2076  0.3986  0.0908
    1SOL    HW2   38   2.423   1.535   0.500 -0.1843 -0.0165 -2.7589
    1SOL    HW3   39   2.339   1.642   0.566 -1.2710 -2.2332 -0.4733
    1SOL    MW4   40   2.393   1.616   0.502 -0.0391 -0.0033 -0.3596
    1SOL     OW   41   4.256   3.583   0.736  0.0178  0.4543 -0.4927
    1SOL    HW2   42   4.180   3.539   0.774 -0.1011  0.3700 -0.8216
    1SOL    HW3   43   4.245   3.571   0.641  0.6399  0.1117 -0.5214
    1SOL    MW4   44   4.245   3.576   0.728  0.0839  0.3982 -0.5399
    1SOL     OW   45   2.728   0.364   0.288 -0.3550  0.0817 -0.1646
    1SOL    HW2   46   2.713   0.421   0.213  0.8066 -0.7117 -1.0162
    1SOL    HW3   47   2.790   0.412   0.343  1.2356 -0.6575 -1.2652
    1SOL    MW4   48   2.734   0.377   0.286  0.0081 -0.1205 -0.4221
    1SOL     OW   49   2.469   2.519   0.401 -0.2346  0.0845 -0.0317
    1SOL    HW2   50   2.379   2.489   0.410 -0.7982  1.6338 -0.3596
    1SOL    HW3   51   2.520   2.439   0.387 -1.1710 -1.0699  2.7955
    1SOL    MW4   52   2.464   2.504   0.400 -0.4325  0.1369  0.2981
    1SOL     OW   53   0.160   3.322   0.369  0.0646 -0.4737 -0.6989
    1SOL    HW2   54   0.130   3.335   0.279 -1.1951 -1.0352 -0.3647
    1SOL    HW3   55   0.162   3.410   0.407 -1.4257 -0.4512 -0.6478
    1SOL    MW4   56   0.157   3.335   0.362 -0.2982 -0.5450 -0.6481
    1SOL     OW   57   0.021   2.409   0.762 -0.0150  0.4900 -0.1034
    1SOL    HW2   58  -0.025   2.409   0.679 -0.3382  1.4612  0.0639
    1SOL    HW3   59   0.032   2.502   0.784 -0.1065  0.2479  1.0340
    1SOL    MW4   60   0.017   2.421   0.754 -0.0697  0.5863  0.0687
    1SOL     OW   61   1.335   0.080   0.452  0.2838  0.1874  0.1026
    1SOL    HW2   62   1.345   0.096   0.546 -0.5195  1.2869  0.0103
    1SOL    HW3   63   1.408   0.127   0.412  0.1573  0.4042  0.1234
    1SOL    MW4   64   1.346   0.088   0.459  0.1612  0.3611  0.0931
    1SOL     OW   65   4.305   0.235   0.450  0.0107 -0.0503  0.2274
    1SOL    HW2   66   4.266   0.218   0.536 -0.7502  0.4213 -0.0209
    1SOL    HW3   67   4.246   0.194   0.388  0.8657 -0.8830 -0.0425
    1SOL    MW4   68   4.292   0.227   0.453  0.0234 -0.0979  0.1590
    1SOL     OW   69   2.773   1.646   0.463  0.4713 -0.1572 -0.0599
    1SOL    HW2   70   2.719   1.700   0.406  0.9331 -0.8930 -1.2130
    1SOL    HW3   71   2.758   1.556   0.432 -0.3695 -0.7201  1.8893
    1SOL    MW4   72   2.764   1.641   0.451  0.4215 -0.3285  0.0451
    1SOL     OW   73   2.197   0.088   0.691 -0.0525  0.2648  0.0921
    1SOL    HW2   74   2.280   0.060   0.729  0.4441  0.7810 -0.6005
    1SOL    HW3   75   2.217   0.106   0.599 -1.2023 -0.8048 -0.3896
    1SOL    MW4   76   2.210   0.087   0.684 -0.1385  0.1918 -0.0628
    1SOL     OW   77   4.036   1.113   0.802 -0.0221  0.5662 -0.2445
    1SOL    HW2   78   4.048   1.124   0.897  0.4077 -0.2679 -0.1981
    1SOL    HW3   79   3.957   1.162   0.782 -0.0766  0.8064  0.5381
    1SOL    MW4   80   4.027   1.121   0.812  0.0272  0.4878 -0.1351
    1SOL     OW   81   0.453   2.424   0.758  0.0735  0.5906 -0.0896
    1SOL    HW2   82   0.461   2.389   0.669 -0.4091 -0.4801  0.2815
    1SOL    HW3   83   0.382   2.374   0.797  1.1976  0.0787  1.3582
    1SOL    MW4   84   0.445   2.413   0.751  0.1581  0.3817  0.1504
    1SOL     OW   85   4.060   0.635   0.562  0.8132  0.2895  0.0941
    1SOL    HW2   86   4.085   0.699   0.628  1.6459  0.4597 -0.3861
    1SOL    HW3   87   4.142   0.609   0.521  0.3135  0.0935 -0.7891
    1SOL    MW4   88   4.074   0.640   0.565  0.8569  0.2860 -0.0858
    1SOL     OW   89   3.982   1.921   0.802 -0.0367 -0.0511 -0.1225
    1SOL    HW2   90   3.992   1.828   0.784  0.3706 -0.1359  0.5498
    1SOL    HW3   91   3.996   1.930   0.896 -0.0020  0.7009 -0.1913
    1SOL    MW4   92   3.985   1.910   0.812  0.0212  0.0370 -0.0429
    1SOL     OW   93   4.057   3.003   0.501 -0.6071 -0.2034  0.3690
    1SOL    HW2   94   4.111   2.929   0.475  0.0380  0.1930  0.5582
    1SOL    HW3   95   3.967   2.977   0.478 -0.3193 -0.7920 -0.1092
    1SOL    MW4   96   4.052   2.990   0.495 -0.4840 -0.2284  0.3308
    1SOL     OW   97   0.720   0.772   0.657 -0.1537  0.3239 -0.4308
    1SOL    HW2   98   0.791   0.822   0.699 -0.3685 -0.3670  0.7859
    1SOL    HW3   99   0.758   0.686   0.641 -0.5621  0.1141 -0.2546
    1SOL    MW4  100   0.735   0.767   0.661 -0.2359  0.2050 -0.2471
    1SOL     OW  101   3.757   4.275   0.466  0.3610  0.0216  0.3401
    1SOL    HW2  102   3.748   4.180   0.475 -0.7927  0.0890 -0.0784
    1SOL    HW3  103   3.668   4.306   0.447  1.2028  0.8922 -2.2757
    1SOL    MW4  104   3.744   4.267   0.465  0.3200  0.1454 -0.0603
    1SOL     OW  105   2.161   0.504   0.486  0.2106 -0.1791 -0.5661
    1SOL    HW2  106   2.120   0.519   0.571 -1.1994  0.3965 -1.3415
    1SOL    HW3  107   2.252   0.531   0.500 -0.1855  0.6544  0.5534
    1SOL    MW4  108   2.168   0.510   0.499 -0.0279  0.0069 -0.5207
    1SOL     OW  109   2.652   2.405   0.743  0.2079  0.3214  0.3871
    1SOL    HW2  110   2.731   2.377   0.789 -0.0706 -0.6001  0.3271
    1SOL    HW3  111   2.645   2.498   0.761  1.1218  0.3432  0.6726
    1SOL    MW4  112   2.662   2.413   0.751  0.2918  0.2027  0.4169
    1SOL     OW  113   0.169   0.528   0.776  0.2578  0.0758  0.0776
    1SOL    HW2  114   0.181   0.618   0.806 -1.3879 -0.3727  2.1480
    1SOL    HW3  115   0.142   0.537   0.685 -0.5899  1.7089  0.4679
    1SOL    MW4  116   0.167   0.541   0.768 -0.0712  0.2320  0.4022
    1SOL     OW  117   2.954   2.219   0.462 -0.1767  0.6551 -0.2044
    1SOL    HW2  118   2.955   2.175   0.547 -2.0089 -0.3054 -0.6428
    1SOL    HW3  119   3.010   2.166   0.406  1.8389  1.8391  0.6276
    1SOL    MW4  120   2.961   2.207   0.466 -0.1526  0.6845 -0.1525
    1SOL     OW  121   0.609   0.226   0.410 -0.3350  0.0191 -0.1267
    1SOL    HW2  122   0.639   0.316   0.397  0.9504 -0.3547  0.2117
    1SOL    HW3  123   0.583   0.222   0.502 -0.9769  0.2029 -0.2943
    1SOL    MW4  124   0.609   0.237   0.420 -0.2501 -0.0060 -0.1042
    1SOL     OW  125   3.792   1.251   0.710 -0.0174 -0.3097 -0.6144
    1SOL    HW2  126   3.748   1.270   0.628 -0.5405 -1.3249 -0.5841
    1SOL    HW3  127   3.731   1.193   0.757 -0.5371  1.6741  1.2536
    1SOL    MW4  128   3.778   1.246   0.706 -0.1552 -0.1818 -0.3639
    1SOL     OW  129   0.418   3.973   0.767  0.3193  0.1383  0.0134
    1SOL    HW2  130   0.396   3.970   0.674 -2.1883  1.0812  0.5373
    1SOL    HW3  131   0.420   4.066   0.789 -0.7467 -0.1230  1.2768
    1SOL    MW4  132   0.416   3.985   0.758 -0.1522  0.2284  0.2491
    1SOL     OW  133   0.118   4.615   0.893  0.0607 -0.4923 -0.3946
    1SOL    HW2  134   0.034   4.657   0.876  0.3968  0.2282 -0.2746
    1SOL    HW3  135   0.178   4.656   0.832  0.5276 -0.3519  0.1569
    1SOL    MW4  136   0.115   4.626   0.883  0.1666 -0.3786 -0.3060
    1SOL     OW  137   0.178   1.437   0.338  0.4360  0.0085 -0.1575
    1SOL    HW2  138   0.109   1.401   0.394 -0.7192  1.2009 -0.8016
    1SOL    HW3  139   0.259   1.407   0.379 -0.4051  0.2346  1.7375
    1SOL    MW4  140   0.179   1.428   0.351  0.1726  0.1956  0.0075
    1SOL     OW  141   1.990   2.291   0.837  0.0424  0.5404  0.0898
    1SOL    HW2  142   1.984   2.308   0.931 -1.2761  1.0968 -0.0926
    1SOL    HW3  143   1.910   2.328   0.800  0.1265 -0.4631 -1.1442
    1SOL    MW4  144   1.979   2.298   0.845 -0.1204  0.4814 -0.0971
    1SOL     OW  145   4.346   4.411   0.510 -0.1110 -0.0095  0.3258
    1SOL    HW2  146   4.316   4.405   0.601 -0.0332 -0.9289  0.2900
    1SOL    HW3  147   4.441   4.421   0.517 -0.1877  0.7206  0.3676
    1SOL    MW4  148   4.355   4.412   0.523 -0.1111 -0.0343  0.3266
    1SOL     OW  149   0.848   3.983   0.445  0.4059 -0.4611  0.3918
    1SOL    HW2  150   0.764   4.028   0.449  1.0472  0.6987  0.9486
    1SOL    HW3  151   0.875   3.972   0.536  0.6039 -1.3305  0.2374
    1SOL    MW4  152   0.841   3.987   0.457  0.5167 -0.4230  0.4449
    1SOL     OW  153   1.547   2.273   0.866  0.2047 -0.6270 -0.2026
    1SOL    HW2  154   1.469   2.317   0.833  0.3256 -0.7186 -0.6102
    1SOL    HW3  155   1.541   2.184   0.832  0.4389 -0.6598 -0.1570
    1SOL    MW4  156   1.536   2.267   0.857  0.2515 -0.6435 -0.2503
    1SOL     OW  157   2.038   3.048   0.842 -0.0992 -0.1085  0.5305
    1SOL    HW2  158   2.027   2.964   0.798 -0.3977  0.3179 -0.2101
    1SOL    HW3  159   1.963   3.100   0.814  0.0666  0.3997  1.0126
    1SOL    MW4  160   2.027   3.044   0.833 -0.1168  0.0145  0.4965
    1SOL     OW  161   2.731   3.186   0.465 -0.2501  0.0187  0.5968
    1SOL    HW2  162   2.702   3.103   0.426 -0.7072 -0.1928  1.3762
    1SOL    HW3  163   2.660   3.247   0.445 -0.7643 -0.2363  1.5887
    1SOL    MW4  164   2.718   3.183   0.457 -0.3784 -0.0427  0.8304
    1SOL     OW  165   0.277   0.040   0.675  0.0571 -0.2266  0.4743
    1SOL    HW2  166   0.312  -0.019   0.609 -0.0758 -0.2222  0.3992
    1SOL    HW3  167   0.202   0.082   0.633 -0.2174 -0.4523  0.7312
    1SOL    MW4  168   0.272   0.038   0.661  0.0033 -0.2559  0.4983
    1SOL     OW  169   1.744   2.918   0.325  0.1782  0.2928  0.3255
    1SOL    HW2  170   1.800   2.975   0.378  1.5058 -0.1998 -0.5087
    1SOL    HW3  171   1.689   2.872   0.388  0.2296  1.2935  1.1123
    1SOL    MW4  172   1.744   2.919   0.340  0.3601  0.3598  0.3193
    1SOL     OW  173   2.315   4.562   0.272 -0.1147 -0.1394 -0.0727
    1SOL    HW2  174   2.344   4.583   0.183  0.8922  0.3190  0.3581
    1SOL    HW3  175   2.255   4.487   0.260  2.1771 -1.9123 -0.8685
    1SOL    MW4  176   2.311   4.555   0.258  0.3204 -0.3123 -0.1209
    1SOL     OW  177   0.547   1.448   0.444  0.0536  0.7937 -0.4412
    1SOL    HW2  178   0.504   1.529   0.416 -0.9861  0.5433  0.4197
    1SOL    HW3  179   0.476   1.393   0.475  0.8808 -0.0561 -0.0410
    1SOL    MW4  180   0.532   1.452   0.444  0.0256  0.6486 -0.2748
    1SOL     OW  181   3.354   0.737   0.869 -0.6169  0.0745 -0.3195
    1SOL    HW2  182   3.335   0.649   0.838  1.9660 -1.3955  2.0382
    1SOL    HW3  183   3.437   0.761   0.828  0.2679  0.1204  1.4248
    1SOL    MW4  184   3.363   0.729   0.860 -0.1595 -0.1134  0.2217
    1SOL     OW  185   1.819   3.201   0.758 -0.1160 -0.4468  0.0902
    1SOL    HW2  186   1.827   3.191   0.663 -0.1190 -0.9907  0.1459
    1SOL    HW3  187   1.735   3.160   0.779 -0.4462  0.2968  0.2396
    1SOL    MW4  188   1.809   3.194   0.748 -0.1600 -0.4206  0.1172
    1SOL     OW  189   2.026   2.799   0.705 -0.1157 -0.3719  0.0102
    1SOL    HW2  190   2.022   2.755   0.620  0.4580 -0.2354 -0.0924
    1SOL    HW3  191   2.107   2.766   0.745 -0.8310 -1.1133  0.8862
    1SOL    MW4  192   2.036   2.789   0.699 -0.1345 -0.4516  0.1122
    1SOL     OW  193   1.959   2.056   0.466 -0.2997  0.5842 -0.0280
    1SOL    HW2  194   2.048   2.087   0.450 -0.6481  1.8369  0.4228
    1SOL    HW3  195   1.957   2.035   0.559  0.2118 -1.7612 -0.5088
    1SOL    MW4  196   1.971   2.057   0.476 -0.2781  0.4399 -0.0319
    1SOL     OW  197   3.685   1.912   0.859  0.7339 -0.2352 -0.2101
    1SOL    HW2  198   3.780   1.913   0.867  0.6779 -2.1215  0.9927
    1SOL    HW3  199   3.666   1.834   0.807 -0.2113 -0.6963  0.7952
    1SOL    MW4  200   3.695   1.902   0.853  0.6015 -0.5449  0.0812
    1SOL     OW  201   0.272   2.822   0.721  0.2862  0.2677 -0.5160
    1SOL    HW2  202   0.339   2.779   0.774 -1.2978 -1.0445  0.5024
    1SOL    HW3  203   0.268   2.911   0.755 -0.2413 -0.3700  1.1626
    1SOL    MW4  204   0.280   2.828   0.733  0.0076  0.0105 -0.1602
    1SOL     OW  205   1.578   4.341   0.464  0.3575 -0.1199 -0.2065
    1SOL    HW2  206   1.491   4.378   0.447  0.4822  0.4630  0.4082
    1SOL    HW3  207   1.639   4.404   0.426  0.5448 -0.0627  0.1913
    1SOL    MW4  208   1.574   4.354   0.457  0.3986 -0.0358 -0.0729
    1SOL     OW  209   3.772   2.674   0.309  0.3469  0.2978 -0.1342
    1SOL    HW2  210   3.772   2.660   0.214  0.3360 -0.6268  0.0013
    1SOL    HW3  211   3.809   2.593   0.345 -0.7054  0.1899  0.7243
    1SOL    MW4  212   3.777   2.661   0.301  0.2065  0.1616 -0.0031
    1SOL     OW  213   2.453   2.060   0.723  0.1367  0.0567 -0.3831
    1SOL    HW2  214   2.450   2.077   0.629  1.7124 -0.8660 -0.6175
    1SOL    HW3  215   2.444   2.147   0.763 -0.8760  0.4164 -1.3606
    1SOL    MW4  216   2.451   2.074   0.716  0.2110 -0.0174 -0.5431
    1SOL     OW  217   2.918   3.086   0.848 -0.3567  0.1217 -0.1116
    1SOL    HW2  218   2.863   3.142   0.794  2.4091  2.7647 -0.2815
    1SOL    HW3  219   2.918   3.002   0.802 -0.3908  1.4848 -2.6915
    1SOL    MW4  220   2.911   3.082   0.835  0.0041  0.6502 -0.4745
    1SOL     OW  221   0.878   4.266   0.844 -0.1797  0.2763  0.3268
    1SOL    HW2  222   0.869   4.185   0.795 -1.3148  1.1150 -0.8608
    1SOL    HW3  223   0.950   4.312   0.802 -0.7578  0.7255 -0.1657
    1SOL    MW4  224   0.886   4.261   0.832 -0.4057  0.4463  0.1051
    1SOL     OW  225   2.880   1.198   0.453 -0.6374  0.5566  0.3096
    1SOL    HW2  226   2.970   1.181   0.424 -0.6544  1.2091 -0.1404
    1SOL    HW3  227   2.888   1.229   0.543 -0.3295  1.5743 -0.0618
    1SOL    MW4  228   2.893   1.200   0.461 -0.5989  0.7769  0.2012
    1SOL     OW  229   1.267   3.437   0.356 -0.3029  0.2568 -0.0903
    1SOL    HW2  230   1.355   3.461   0.326  0.9474 -0.8954  2.4780
    1SOL    HW3  231   1.234   3.517   0.398 -0.3494  0.5965 -0.7713
    1SOL    MW4  232   1.274   3.451   0.358 -0.1440  0.1495  0.1588
    1SOL     OW  233   1.811   0.108   0.396  0.6291  0.2178  0.1422
    1SOL    HW2  234   1.790   0.121   0.489  1.2346 -0.8988  0.4391
    1SOL    HW3  235   1.880   0.172   0.378  0.2530  0.6932  0.3536
    1SOL    MW4  236   1.817   0.118   0.406  0.6593  0.1332  0.2093
    1SOL     OW  237   0.366   3.994   0.498  0.2358  0.0106  0.6400
    1SOL    HW2  238   0.290   4.052   0.495  0.3719  0.1555 -0.0966
    1SOL    HW3  239   0.437   4.045   0.460  0.2762 -0.7580 -0.3462
    1SOL    MW4  240   0.365   4.008   0.492  0.2591 -0.0720  0.4127
    1SOL     OW  241   0.450   2.365   0.456  0.2273  0.3389 -0.1704
    1SOL    HW2  242   0.417   2.450   0.427 -0.8528 -0.2147 -0.5937
    1SOL    HW3  243   0.407   2.302   0.398  1.3994 -0.4654 -0.1836
    1SOL    MW4  244   0.440   2.368   0.444  0.2394  0.1597 -0.2280
    1SOL     OW  245   0.938   0.669   0.397 -0.0531 -0.3958  0.4301
    1SOL    HW2  246   0.856   0.620   0.388 -0.2371 -0.0310  0.0960
    1SOL    HW3  247   1.002   0.603   0.423 -0.1732 -0.9183 -0.5736
    1SOL    MW4  248   0.935   0.654   0.399 -0.0932 -0.4166  0.2536
    1SOL     OW  249   0.216   3.818   0.890  0.1285  0.2483 -0.2434
    1SOL    HW2  250   0.219   3.832   0.985 -0.0577  0.7463 -0.3062
    1SOL    HW3  251   0.296   3.859   0.858  0.3818 -0.2563 -0.2640
    1SOL    MW4  252   0.227   3.825   0.898  0.1373  0.2472 -0.2544
    1SOL     OW  253   2.227   0.950   0.430  0.0081  0.4501  0.1389
    1SOL    HW2  254   2.161   0.896   0.387  0.7025  0.0314 -0.4126
    1SOL    HW3  255   2.309   0.925   0.388  0.5458  0.8100  0.9764
    1SOL    MW4  256   2.229   0.940   0.419  0.1707  0.4423  0.1766
    1SOL     OW  257   0.375   0.934   0.754 -0.1792  0.0106  0.5783
    1SOL    HW2  258   0.443   0.875   0.786  0.2588  0.7372  1.0125
    1SOL    HW3  259   0.292   0.891   0.774  0.1463 -0.7186  0.3614
    1SOL    MW4  260   0.373   0.921   0.761 -0.0785  0.0103  0.6070
    1SOL     OW  261   3.229   4.214   0.357  0.2977  0.0900 -0.4119
    1SOL    HW2  262   3.313   4.258   0.371  0.0600 -0.1924  2.2178
    1SOL    HW3  263   3.164   4.285   0.366  0.1077 -0.1958  0.5902
    1SOL    MW4  264   3.231   4.229   0.360  0.2410  0.0148  0.0673
    1SOL     OW  265   1.276   1.364   0.474  0.0104 -0.3068  0.2103
    1SOL    HW2  266   1.197   1.313   0.487 -0.0376 -0.4188 -0.5435
    1SOL    HW3  267   1.346   1.310   0.512 -0.1004 -0.7303 -0.2002
    1SOL    MW4  268   1.275   1.350   0.481 -0.0105 -0.3774  0.0567
    1SOL     OW  269   1.390   3.239   0.752 -0.3753  0.1679 -0.0287
    1SOL    HW2  270   1.389   3.234   0.656 -0.7890  0.1730 -0.0230
    1SOL    HW3  271   1.310   3.194   0.779  0.8350 -1.8478  0.3900
    1SOL    MW4  272   1.379   3.232   0.743 -0.2702 -0.0978  0.0273
    1SOL     OW  273   0.098   0.577   0.514  0.0502  0.4111 -0.1302
    1SOL    HW2  274   0.136   0.654   0.471  0.3309  1.6696  2.3269
    1SOL    HW3  275   0.136   0.503   0.467  0.0154  1.7457 -2.3332
    1SOL    MW4  276   0.108   0.577   0.502  0.0826  0.7533 -0.0966
    1SOL     OW  277   2.540   0.183   0.427  0.6014  0.2034 -0.1384
    1SOL    HW2  278   2.539   0.212   0.518 -0.6321 -0.0714 -0.0527
    1SOL    HW3  279   2.589   0.251   0.380  1.0430  0.4536  0.6857
    1SOL    MW4  280   2.546   0.196   0.432  0.4971  0.2002 -0.0183
    1SOL     OW  281   1.161   3.070   0.794 -0.4077  0.4683 -0.0185
    1SOL    HW2  282   1.083   3.121   0.769 -1.7594 -0.7851  1.4815
    1SOL    HW3  283   1.137   2.979   0.776  0.2643 -0.0245  1.4790
    1SOL    MW4  284   1.147   3.065   0.789 -0.4975  0.2379  0.3770
    1SOL     OW  285   1.603   1.600   0.196 -0.2513 -0.1009  0.0308
    1SOL    HW2  286   1.534   1.535   0.209 -0.1517 -0.2691 -0.2798
    1SOL    HW3  287   1.590   1.664   0.267 -0.6278 -0.2146  0.0629
    1SOL    MW4  288   1.592   1.600   0.207 -0.2878 -0.1380 -0.0059
    1SOL     OW  289   2.232   1.636   0.270  0.2262  0.2443  0.0891
    1SOL    HW2  290   2.162   1.690   0.305 -1.3655 -1.3200 -0.6167
    1SOL    HW3  291   2.287   1.615   0.345 -0.2811  1.1238  0.7152
    1SOL    MW4  292   2.230   1.641   0.284 -0.0505  0.1539  0.0786
    1SOL     OW  293   0.717   3.089   0.809 -0.2789 -0.0958  0.1473
    1SOL    HW2  294   0.629   3.120   0.786 -0.1058  0.1758 -0.1472
    1SOL    HW3  295   0.719   3.091   0.905 -0.8476 -0.7985  0.1774
    1SOL    MW4  296   0.705   3.093   0.819 -0.3310 -0.1528  0.1124
    1SOL     OW  297   0.931   3.718   0.355 -0.6553 -0.1992 -0.1006
    1SOL    HW2  298   0.898   3.806   0.375  0.1534  0.1088 -0.1033
    1SOL    HW3  299   1.014   3.712   0.403 -0.4670 -0.7830 -0.4951
    1SOL    MW4  300   0.937   3.729   0.364 -0.5238 -0.2356 -0.1530
    1SOL     OW  301   1.041   3.288   0.248 -0.1773  0.2150 -0.1470
    1SOL    HW2  302   1.121   3.336   0.269  0.4474 -0.3340 -1.1580
    1SOL    HW3  303   1.059   3.250   0.161 -1.7962  0.6459 -0.6868
    1SOL    MW4  304   1.054   3.289   0.239 -0.3084  0.1996 -0.3516
    1SOL     OW  305   1.803   0.876   0.759 -0.3294 -0.1485  0.0932
    1SOL    HW2  306   1.821   0.957   0.806  0.7066  0.4454 -1.2707
    1SOL    HW3  307   1.870   0.815   0.789 -0.7362 -0.3062  0.6742
    1SOL    MW4  308   1.814   0.879   0.769 -0.2464 -0.0910 -0.0101
    1SOL     OW  309   0.024   4.008   0.773  0.2395  0.5837  0.1957
    1SOL    HW2  310  -0.049   3.950   0.794 -0.2745  1.0588 -0.2587
    1SOL    HW3  311   0.100   3.968   0.816 -0.3857  0.3712  1.1160
    1SOL    MW4  312   0.025   3.995   0.782  0.0893  0.6187  0.2571
    1SOL     OW  313   3.369   4.634   0.790  0.0668  0.0155  0.0598
    1SOL    HW2  314   3.365   4.641   0.885 -0.6643  0.8105 -0.0193
    1SOL    HW3  315   3.443   4.691   0.765 -0.5694  0.8508  0.0585
    1SOL    MW4  316   3.379   4.643   0.799 -0.1135  0.2308  0.0492
    1SOL     OW  317   4.383   2.400   0.530  0.5153  0.0864 -0.0655
    1SOL    HW2  318   4.293   2.433   0.527  0.8241  0.8256 -1.5618
    1SOL    HW3  319   4.374   2.306   0.513  0.0137  0.1371 -0.0916
    1SOL    MW4  320   4.370   2.392   0.527  0.4902  0.1907 -0.2664
    1SOL     OW  321   0.615   2.140   0.527 -0.0989 -0.0902 -0.1137
    1SOL    HW2  322   0.536   2.179   0.489 -0.8058 -0.3448  1.0640
    1SOL    HW3  323   0.616   2.050   0.494 -0.6670 -0.2856  0.3864
    1SOL    MW4  324   0.605   2.133   0.518 -0.2671 -0.1495  0.1076
    1SOL     OW  325   2.432   4.402   0.682 -0.2082  0.0713 -0.1071
    1SOL    HW2  326   2.369   4.334   0.705  0.0629  0.2011  1.0316
    1SOL    HW3  327   2.434   4.401   0.586 -1.3832 -0.4365 -0.1360
    1SOL    MW4  328   2.424   4.393   0.673 -0.3273  0.0215  0.0392
    1SOL     OW  329   3.123   3.046   0.307 -0.3389 -0.0428 -0.4181
    1SOL    HW2  330   3.175   3.030   0.228  0.6199  0.2003  0.1523
    1SOL    HW3  331   3.061   2.973   0.309  1.8262 -1.9267  0.3865
    1SOL    MW4  332   3.122   3.034   0.297  0.0732 -0.2594 -0.2367
    1SOL     OW  333   2.439   4.095   0.407 -0.3032 -0.2049  0.0388
    1SOL    HW2  334   2.530   4.067   0.412 -0.1267  0.5774  1.6465
    1SOL    HW3  335   2.443   4.191   0.412 -1.2153 -0.1688  0.1994
    1SOL    MW4  336   2.451   4.104   0.408 -0.4003 -0.0968  0.2721
    1SOL     OW  337   4.267   1.231   0.698  0.3205 -0.1833 -0.2048
    1SOL    HW2  338   4.328   1.183   0.753 -0.2706 -0.8360 -0.1164
    1SOL    HW3  339   4.181   1.202   0.727 -0.0612  1.3625  0.2423
    1SOL    MW4  340   4.264   1.221   0.709  0.1917 -0.0654 -0.1341
    1SOL     OW  341   1.988   1.209   0.497  0.3868 -0.1554  0.1114
    1SOL    HW2  342   1.920   1.257   0.450  0.3869  1.2931  1.4954
    1SOL    HW3  343   1.953   1.121   0.507 -0.6066  0.1465 -0.5759
    1SOL    MW4  344   1.974   1.204   0.492  0.2558  0.0756  0.2033
    1SOL     OW  345   1.732   2.688   0.157  0.0078 -0.9254  0.4087
    1SOL    HW2  346   1.804   2.632   0.186  1.5035  0.2862 -0.8724
    1SOL    HW3  347   1.743   2.769   0.207 -0.1857 -0.5808 -0.0962
    1SOL    MW4  348   1.743   2.692   0.167  0.1796 -0.7200  0.1731
    1SOL     OW  349   0.405   3.170   0.468 -0.0604 -0.2793  0.5435
    1SOL    HW2  350   0.317   3.199   0.444 -0.0088 -0.3244  0.2926
    1SOL    HW3  351   0.463   3.232   0.424  0.0123  0.4479  1.6603
    1SOL    MW4  352   0.401   3.182   0.459 -0.0440 -0.1895  0.6578
    1SOL     OW  353   1.056   2.959   0.115  0.2777  0.0405  0.5078
    1SOL    HW2  354   1.050   2.895   0.044  0.7040 -0.7734  1.2058
    1SOL    HW3  355   1.146   2.952   0.147 -0.2619 -0.4998  1.9602
    1SOL    MW4  356   1.067   2.950   0.110  0.2627 -0.1383  0.7915
    1SOL     OW  357   2.446   2.832   0.728  0.8078  0.0340 -0.0121
    1SOL    HW2  358   2.468   2.922   0.754  0.7795  0.6875 -2.1103
    1SOL    HW3  359   2.517   2.779   0.763 -0.4206  0.5065  3.3572
    1SOL    MW4  360   2.458   2.837   0.736  0.6418  0.1824  0.1556
    1SOL     OW  361   3.985   4.305   0.318  0.0765  0.4681  0.1470
    1SOL    HW2  362   4.017   4.388   0.353  0.0610  0.2900  0.5835
    1SOL    HW3  363   3.897   4.296   0.354  0.3769 -0.1239  0.7536
    1SOL    MW4  364   3.978   4.314   0.327  0.1140  0.3662  0.2847
    1SOL     OW  365   3.365   3.108   0.801  0.1307 -0.4363  0.2252
    1SOL    HW2  366   3.276   3.141   0.791 -0.0731 -0.6991  1.0779
    1SOL    HW3  367   3.375   3.095   0.896  1.3979  0.5163  0.2452
    1SOL    MW4  368   3.355   3.111   0.812  0.2711 -0.3452  0.3403
    1SOL     OW  369   2.585   1.379   0.121 -0.3167  0.1604  0.2917
    1SOL    HW2  370   2.515   1.315   0.117 -0.7303  0.5651  1.0312
    1SOL    HW3  371   2.540   1.464   0.126  0.2211  0.4859 -0.3379
    1SOL    MW4  372   2.570   1.382   0.121 -0.3002  0.2567  0.3062
    1SOL     OW  373   4.248   2.063   0.793  0.1137 -0.7057 -0.5996
    1SOL    HW2  374   4.321   2.015   0.832  0.8140 -0.3734 -1.4782
    1SOL    HW3  375   4.172   2.007   0.806  0.6630 -1.3864 -0.3164
    1SOL    MW4  376   4.247   2.050   0.800  0.2785 -0.7517 -0.6782
    1SOL     OW  377   0.357   0.129   0.272 -0.4788  0.4620  0.3697
    1SOL    HW2  378   0.357   0.049   0.325  0.6050 -0.9310 -1.6927
    1SOL    HW3  379   0.444   0.167   0.287 -0.0033 -0.1780 -0.7780
    1SOL    MW4  380   0.369   0.124   0.281 -0.2731  0.1937 -0.0539
    1SOL     OW  381   4.279   3.061   0.856 -0.3141  0.1507 -0.5677
    1SOL    HW2  382   4.199   3.110   0.836 -1.0067 -0.5984  0.3681
    1SOL    HW3  383   4.350   3.123   0.837 -1.1920  1.7547  1.2428
    1SOL    MW4  384   4.278   3.076   0.851 -0.5217  0.2639 -0.2054
    1SOL     OW  385   0.209   2.015   0.771 -0.0340  0.6349 -0.1805
    1SOL    HW2  386   0.289   1.980   0.812 -0.6997 -0.4273  0.2234
    1SOL    HW3  387   0.222   2.110   0.771  0.8899  0.5142  0.6039
    1SOL    MW4  388   0.222   2.023   0.777  0.0001  0.4787 -0.0237
    1SOL     OW  389   4.407   4.223   0.888  0.4168  0.0289  0.1916
    1SOL    HW2  390   4.431   4.222   0.981  0.3186 -0.7534  0.2179
    1SOL    HW3  391   4.448   4.143   0.853  0.1530  0.1366 -0.3574
    1SOL    MW4  392   4.416   4.212   0.895  0.3691 -0.0601  0.1227
    1SOL     OW  393   2.271   2.864   0.325 -0.2559  0.0768  0.0403
    1SOL    HW2  394   2.297   2.911   0.245 -1.1710  1.3522  0.4790
    1SOL    HW3  395   2.355   2.840   0.365  0.2174 -0.6005 -1.3027
    1SOL    MW4  396   2.286   2.867   0.319 -0.3142  0.1557 -0.0790
    1SOL     OW  397   2.956   2.040   0.679 -0.0599  0.0177 -0.2486
    1SOL    HW2  398   3.027   2.001   0.730  0.9251  2.9968  0.7425
    1SOL    HW3  399   2.876   2.010   0.722  0.5851 -2.0038 -0.3759
    1SOL    MW4  400   2.955   2.031   0.691  0.1552  0.1440 -0.1346
    1SOL     OW  401   1.746   0.092   0.671  0.2196 -0.0846 -0.3596
    1SOL    HW2  402   1.678   0.053   0.726  0.7281  0.9114  1.0085
    1SOL    HW3  403   1.827   0.079   0.720  0.5215  1.8504 -0.3173
    1SOL    MW4  404   1.748   0.085   0.685  0.3268  0.3021 -0.1735
    1SOL     OW  405   2.253   0.123   0.411  0.3700 -0.3416 -0.0665
    1SOL    HW2  406   2.331   0.176   0.393  0.0751 -1.1885 -4.3849
    1SOL    HW3  407   2.271   0.039   0.368 -2.4059 -0.9961 -0.0088
    1SOL    MW4  408   2.266   0.119   0.403 -0.0350 -0.5397 -0.6287
    1SOL     OW  409   1.517   2.031   0.763 -0.2974 -0.2633 -0.2651
    1SOL    HW2  410   1.504   2.038   0.668  0.7473 -1.9216 -0.5476
    1SOL    HW3  411   1.434   1.995   0.795 -0.1904 -0.9602 -0.7400
    1SOL    MW4  412   1.504   2.027   0.754 -0.1454 -0.5741 -0.3650
    1SOL     OW  413   1.407   1.395   0.221  0.1328 -0.1241  0.4839
    1SOL    HW2  414   1.368   1.398   0.308  0.0672  2.4571  0.3978
    1SOL    HW3  415   1.335   1.414   0.161  0.3506 -1.0566 -0.0814
    1SOL    MW4  416   1.393   1.398   0.224  0.1528  0.0935  0.3980
    1SOL     OW  417   1.693   3.586   0.460  0.1259  0.4920  0.1091
    1SOL    HW2  418   1.740   3.660   0.423 -0.9276  1.2806  0.3033
    1SOL    HW3  419   1.632   3.558   0.392  1.0297 -0.6782 -0.2337
    1SOL    MW4  420   1.691   3.592   0.446  0.1062  0.4418  0.0895
    1SOL     OW  421   1.603   3.766   0.159 -0.0032  0.2465 -0.1286
    1SOL    HW2  422   1.555   3.834   0.206 -0.1621 -0.9154  1.4636
    1SOL    HW3  423   1.691   3.768   0.197  0.0674 -0.2501 -0.2578
    1SOL    MW4  424   1.608   3.775   0.170 -0.0148  0.0274  0.0644
    1SOL     OW  425   1.078   1.523   0.841 -0.0318 -0.4434 -0.2183
    1SOL    HW2  426   1.108   1.443   0.797  1.0178 -0.3626  0.3353
    1SOL    HW3  427   1.152   1.583   0.834  0.0656 -0.3471  1.4575
    1SOL    MW4  428   1.092   1.520   0.834  0.1196 -0.4200  0.0758
    1SOL     OW  429   1.365   0.120   0.734  0.2998 -0.2896  0.6599
    1SOL    HW2  430   1.438   0.077   0.777 -1.1941 -1.5728  1.9423
    1SOL    HW3  431   1.354   0.202   0.781  0.2181 -0.5965  1.1796
    1SOL    MW4  432   1.373   0.125   0.746  0.0919 -0.4994  0.8976
    1SOL     OW  433   3.875   2.191   0.261 -0.0182 -0.2312 -0.2659
    1SOL    HW2  434   3.957   2.163   0.302 -0.1262  0.0683  0.1626
    1SOL    HW3  435   3.813   2.121   0.280  0.2356 -0.6522 -0.9376
    1SOL    MW4  436   3.878   2.178   0.269  0.0007 -0.2472 -0.2980
    1SOL     OW  437   1.580   1.175   0.199  0.4435  0.0952 -0.0201
    1SOL    HW2  438   1.514   1.243   0.215  2.0034  1.0203  2.9089
    1SOL    HW3  439   1.653   1.222   0.157  0.4885 -0.3145 -0.4071
    1SOL    MW4  440   1.581   1.190   0.195  0.6553  0.1632  0.3153
    1SOL     OW  441   0.883   3.990   0.722 -0.5120 -0.1519 -0.3148
    1SOL    HW2  442   0.803   3.959   0.766 -1.6647 -0.1411 -2.3574
    1SOL    HW3  443   0.954   3.960   0.779 -1.9402 -0.2751  1.4839
    1SOL    MW4  444   0.882   3.982   0.736 -0.8525 -0.1669 -0.3469
    1SOL     OW  445   4.052   2.727   0.832  0.3656 -0.0008  0.2389
    1SOL    HW2  446   4.038   2.632   0.828 -1.0955  0.1799  0.6638
    1SOL    HW3  447   4.142   2.739   0.802  0.2232 -1.4205 -0.8210
    1SOL    MW4  448   4.062   2.716   0.828  0.1540 -0.1643  0.1551
    1SOL     OW  449   3.918   3.655   0.437 -0.1624 -0.0371  0.1557
    1SOL    HW2  450   3.992   3.601   0.406  0.6890  0.6216  1.0248
    1SOL    HW3  451   3.955   3.742   0.448 -0.8076  0.0672  1.6191
    1SOL    MW4  452   3.933   3.659   0.434 -0.1349  0.0637  0.4634
    1SOL     OW  453   1.121   0.503   0.496 -0.1609  0.4230  0.1185
    1SOL    HW2  454   1.206   0.508   0.451 -0.7526  2.6753 -0.8472
    1SOL    HW3  455   1.143   0.498   0.589  1.0496 -1.5422 -0.2528
    1SOL    MW4  456   1.135   0.503   0.502 -0.0793  0.4609 -0.0579
    1SOL     OW  457   2.706   0.901   0.675  0.2545 -0.7495 -0.4254
    1SOL    HW2  458   2.705   0.976   0.735 -1.0906 -1.7288  0.7751
    1SOL    HW3  459   2.776   0.845   0.709 -0.0852 -1.0016 -0.1412
    1SOL    MW4  460   2.715   0.904   0.687  0.0324 -0.9120 -0.2294
    1SOL     OW  461   1.761   1.934   0.850  0.2165  0.4244  0.4491
    1SOL    HW2  462   1.682   1.974   0.812 -0.3687  0.7136  1.9425
    1SOL    HW3  463   1.764   1.846   0.811 -0.4025  0.6992 -0.2328
    1SOL    MW4  464   1.751   1.927   0.840  0.0577  0.4988  0.5562
    1SOL     OW  465   1.521   4.546   0.193  0.1472 -0.3352 -0.4490
    1SOL    HW2  466   1.433   4.521   0.223 -0.2361  0.3087 -1.0064
    1SOL    HW3  467   1.532   4.498   0.111 -0.1127  0.4140 -0.9193
    1SOL    MW4  468   1.511   4.536   0.186  0.0622 -0.1516 -0.5846
    1SOL     OW  469   0.933   3.471   0.812 -0.1826 -0.1746 -0.1770
    1SOL    HW2  470   0.938   3.383   0.775 -1.3774 -0.5871  0.5954
    1SOL    HW3  471   0.845   3.501   0.790  0.0068  0.5924  0.0839
    1SOL    MW4  472   0.922   3.463   0.804 -0.3151 -0.1278 -0.0407
    1SOL     OW  473   2.001   1.278   0.755 -0.1570  0.1430  0.3242
    1SOL    HW2  474   1.987   1.261   0.662 -1.8512 -0.0591  0.6189
    1SOL    HW3  475   2.075   1.222   0.778 -1.3425 -1.6998 -0.3022
    1SOL    MW4  476   2.009   1.269   0.746 -0.5367 -0.1267  0.2804
    1SOL     OW  477   4.200   3.561   0.433  0.4654  0.0130 -0.0354
    1SOL    HW2  478   4.288   3.588   0.408  0.7656 -0.2252  0.7556
    1SOL    HW3  479   4.208   3.467   0.451  0.0496 -0.0067  0.0544
    1SOL    MW4  480   4.213   3.552   0.432  0.4497 -0.0210  0.0809
    1SOL     OW  481   0.394   1.637   0.767  0.2159  0.0294  0.0077
    1SOL    HW2  482   0.459   1.576   0.803 -1.5554 -1.2736  1.1067
    1SOL    HW3  483   0.407   1.718   0.817  1.8388  0.1923 -0.6701
    1SOL    MW4  484   0.404   1.639   0.779  0.1963 -0.1210  0.0632
    1SOL     OW  485   0.846   0.091   0.481 -0.4360 -0.1130  0.2177
    1SOL    HW2  486   0.774   0.148   0.454 -1.1477  0.0548  2.4244
    1SOL    HW3  487   0.925   0.133   0.445 -1.3519 -0.0031 -1.7191
    1SOL    MW4  488   0.847   0.104   0.473 -0.6509 -0.0763  0.2533
    1SOL     OW  489   1.311   2.399   0.781 -0.0203  0.2046 -0.3082
    1SOL    HW2  490   1.307   2.390   0.686 -1.2093  0.0224 -0.2494
    1SOL    HW3  491   1.340   2.489   0.796 -2.7020  1.2035 -0.8504
    1SOL    MW4  492   1.314   2.409   0.771 -0.5311  0.3123 -0.3719
    1SOL     OW  493   1.545   2.811   0.491  0.4415  0.0921 -0.2968
    1SOL    HW2  494   1.524   2.721   0.466  0.1967  0.3229 -0.9252
    1SOL    HW3  495   1.572   2.805   0.582 -0.6259 -0.4615 -0.0187
    1SOL    MW4  496   1.546   2.799   0.500  0.2685  0.0496 -0.3431
    1SOL     OW  497   3.152   0.106   0.411  0.1814 -0.1641 -0.2381
    1SOL    HW2  498   3.066   0.091   0.372  0.1991  1.1508 -0.8101
    1SOL    HW3  499   3.138   0.095   0.505 -0.4739 -0.6101 -0.3901
    1SOL    MW4  500   3.139   0.103   0.418  0.0973 -0.0495 -0.3335
    1SOL     OW  501   2.904   4.358   0.652 -0.0382  0.4739 -0.4701
    1SOL    HW2  502   2.917   4.438   0.703 -0.2311  0.7733 -0.8885
    1SOL    HW3  503   2.822   4.321   0.686  0.8479 -0.3636  0.7911
    1SOL    MW4  504   2.895   4.364   0.663  0.0532  0.4029 -0.3589
    1SOL     OW  505   0.128   1.713   0.425  0.0448 -0.3724  0.3005
    1SOL    HW2  506   0.043   1.685   0.459  0.1566 -0.0359  0.8728
    1SOL    HW3  507   0.165   1.634   0.386 -0.9016 -0.3058 -0.7365
    1SOL    MW4  508   0.122   1.699   0.424 -0.0653 -0.3191  0.2392
    1SOL     OW  509   1.593   1.278   0.772  0.1564 -0.2186  0.8752
    1SOL    HW2  510   1.583   1.263   0.678 -2.2830 -1.1467  1.2619
    1SOL    HW3  511   1.513   1.243   0.811  0.6190  1.1947  3.1916
    1SOL    MW4  512   1.581   1.271   0.765 -0.1044 -0.1545  1.2319
    1SOL     OW  513   1.383   3.501   0.814  0.1500 -0.5635 -0.0929
    1SOL    HW2  514   1.460   3.545   0.779  0.2828 -0.4388  0.3616
    1SOL    HW3  515   1.390   3.411   0.782  0.6567 -0.6365  0.2238
    1SOL    MW4  516   1.394   3.495   0.805  0.2345 -0.5565  0.0089
    1SOL     OW  517   3.822   2.287   0.828 -0.4979 -0.0998 -0.1175
    1SOL    HW2  518   3.741   2.335   0.811 -0.3819 -0.2160 -1.0470
    1SOL    HW3  519   3.833   2.230   0.752 -0.1946 -0.9964  0.5897
    1SOL    MW4  520   3.813   2.286   0.815 -0.4427 -0.2334 -0.1468
    1SOL     OW  521   1.981   4.651   0.794 -0.1843 -0.3252 -0.0072
    1SOL    HW2  522   2.053   4.698   0.752  0.5038 -1.0600  0.3448
    1SOL    HW3  523   1.986   4.562   0.759 -0.1383 -0.7118  0.9715
    1SOL    MW4  524   1.991   4.646   0.784 -0.0875 -0.4735  0.1684
    1SOL     OW  525   2.906   0.004   0.328  0.0295  0.2666 -0.3453
    1SOL    HW2  526   2.831  -0.016   0.384  0.9076 -0.1464  0.7183
    1SOL    HW3  527   2.881   0.084   0.282 -1.9151 -1.0608 -1.6408
    1SOL    MW4  528   2.893   0.012   0.330 -0.1111  0.0362 -0.3760
    1SOL     OW  529   1.324   4.476   0.411 -0.2118 -0.0246 -0.8518
    1SOL    HW2  530   1.315   4.570   0.426 -0.5410  0.0084 -1.2668
    1SOL    HW3  531   1.236   4.441   0.423  0.0208 -0.3591 -0.1221
    1SOL    MW4  532   1.311   4.484   0.414 -0.2246 -0.0639 -0.8103
    1SOL     OW  533   0.662   2.052   0.790  0.3368 -0.0942  0.2732
    1SOL    HW2  534   0.645   2.080   0.700 -0.2875  0.8460  0.6857
    1SOL    HW3  535   0.685   2.132   0.837  1.2199 -0.6644  0.8289
    1SOL    MW4  536   0.663   2.066   0.784  0.3709 -0.0453  0.4009
    1SOL     OW  537   2.471   2.052   0.436  0.1413  0.1643 -0.4892
    1SOL    HW2  538   2.511   1.971   0.404  1.0047 -0.2963  1.7025
    1SOL    HW3  539   2.542   2.115   0.436  0.0613  0.2590  0.1508
    1SOL    MW4  540   2.486   2.050   0.432  0.2449  0.1161 -0.1156
    1SOL     OW  541   2.569   1.800   0.362  0.5157  0.2538  0.4003
    1SOL    HW2  542   2.507   1.751   0.417  0.7258  0.2828  0.6659
    1SOL    HW3  543   2.553   1.767   0.274 -0.9812  1.3960  0.2197
    1SOL    MW4  544   2.559   1.789   0.358  0.3459  0.4083  0.4116
    1SOL     OW  545   3.720   4.008   0.491 -0.4621 -0.3145 -0.4353
    1SOL    HW2  546   3.684   3.978   0.574  0.2618 -0.5310 -0.1991
    1SOL    HW3  547   3.809   3.973   0.488 -1.1504 -2.0302 -2.2258
    1SOL    MW4  548   3.727   4.000   0.501 -0.4575 -0.5693 -0.6404
    1SOL     OW  549   1.964   2.295   0.182  0.7132 -0.1991  0.4936
    1SOL    HW2  550   2.038   2.241   0.211  1.5885  0.9185  0.3920
    1SOL    HW3  551   1.886   2.248   0.212  1.4732 -1.2577  0.8341
    1SOL    MW4  552   1.964   2.281   0.190  0.9290 -0.1912  0.5251
    1SOL     OW  553   2.917   0.498   0.442 -0.2368  0.1003 -0.2553
    1SOL    HW2  554   2.917   0.492   0.538 -1.8862  0.0982 -0.2430
    1SOL    HW3  555   2.897   0.590   0.424 -0.9546 -0.1171 -0.5947
    1SOL    MW4  556   2.915   0.509   0.452 -0.5491  0.0713 -0.2985
    1SOL     OW  557   4.250   4.408   0.776  0.4443 -0.1920  0.5412
    1SOL    HW2  558   4.315   4.349   0.814  0.8584 -0.5118 -0.6350
    1SOL    HW3  559   4.275   4.495   0.807  1.7752 -0.2473 -0.3506
    1SOL    MW4  560   4.262   4.411   0.785  0.6747 -0.2418  0.2683
    1SOL     OW  561   1.577   0.730   0.801 -0.5341  0.4894 -0.2892
    1SOL    HW2  562   1.661   0.767   0.775  0.0632 -1.7234 -1.6059
    1SOL    HW3  563   1.514   0.799   0.783  0.6689  1.2079 -1.8533
    1SOL    MW4  564   1.580   0.744   0.795 -0.2965  0.2922 -0.6694
    1SOL     OW  565   0.665   3.868   0.869  0.2150  0.2936  0.3546
    1SOL    HW2  566   0.576   3.894   0.843 -0.6554 -0.2717  2.5761
    1SOL    HW3  567   0.671   3.775   0.846  0.3711  0.4426 -0.1896
    1SOL    MW4  568   0.654   3.859   0.863  0.1208  0.2384  0.5758
    1SOL     OW  569   1.171   3.672   0.486  0.5888  1.1178 -0.0442
    1SOL    HW2  570   1.167   3.663   0.581  0.4768 -0.7140 -0.1956
    1SOL    HW3  571   1.222   3.751   0.471 -2.0785  3.2569  1.5749
    1SOL    MW4  572   1.177   3.681   0.497  0.2222  1.1587  0.1495
    1SOL     OW  573   0.846   1.628   0.738 -0.8961 -0.3414 -0.5125
    1SOL    HW2  574   0.852   1.717   0.772 -0.8884 -0.4276 -0.2882
    1SOL    HW3  575   0.922   1.583   0.773  0.0484  0.0282 -2.0340
    1SOL    MW4  576   0.857   1.634   0.747 -0.7704 -0.3041 -0.6837
    1SOL     OW  577   4.456   1.363   0.526 -0.2870  0.3869 -0.1916
    1SOL    HW2  578   4.381   1.303   0.528 -0.1943  0.2720 -0.1191
    1SOL    HW3  579   4.502   1.348   0.608 -0.4767  0.8398 -0.0023
    1SOL    MW4  580   4.452   1.353   0.537 -0.2995  0.4315 -0.1571
    1SOL     OW  581   0.636   0.037   0.848 -0.1857  0.4300 -0.2615
    1SOL    HW2  582   0.639   0.052   0.943  0.9040  0.4632 -0.2919
    1SOL    HW3  583   0.618  -0.057   0.839  2.1122 -0.0685  0.0158
    1SOL    MW4  584   0.634   0.027   0.860  0.2612  0.3686 -0.2289
    1SOL     OW  585   0.224   3.587   0.734 -0.3454  0.0155  0.5754
    1SOL    HW2  586   0.204   3.674   0.769 -1.1967 -0.1456  0.4799
    1SOL    HW3  587   0.308   3.565   0.775 -1.0389  0.0721  2.0908
    1SOL    MW4  588   0.233   3.596   0.744 -0.5492  0.0019  0.7627
    1SOL     OW  589   4.445   3.203   0.510  0.0139  0.3065  0.0910
    1SOL    HW2  590   4.455   3.108   0.503 -0.3012  0.2058  0.9898
    1SOL    HW3  591   4.514   3.238   0.453 -0.5732 -0.4593 -1.1114
    1SOL    MW4  592   4.456   3.195   0.502 -0.1054  0.1922  0.0510
    1SOL     OW  593   2.463   0.910   0.273 -0.1908 -0.0193 -0.4722
    1SOL    HW2  594   2.545   0.920   0.321 -0.0690 -1.9059 -0.2647
    1SOL    HW3  595   2.462   0.983   0.212  2.5278 -1.0071 -1.7476
    1SOL    MW4  596   2.473   0.921   0.272  0.1838 -0.3986 -0.6131
    1SOL     OW  597   3.566   3.101   0.418 -0.3361 -0.0523  0.4248
    1SOL    HW2  598   3.526   3.179   0.380  0.5098  0.7495  1.1457
    1SOL    HW3  599   3.494   3.039   0.427 -1.1196  0.8281  0.3087
    1SOL    MW4  600   3.552   3.103   0.414 -0.3278  0.1700  0.5046
    1SOL     OW  601   2.694   1.959   0.796 -0.0342  0.3364 -0.1295
    1SOL    HW2  602   2.615   2.007   0.770  0.7915  1.1986 -1.0801
    1SOL    HW3  603   2.694   1.964   0.892 -0.8713  0.7461 -0.1453
    1SOL    MW4  604   2.683   1.966   0.805 -0.0360  0.5041 -0.2570
    1SOL     OW  605   1.329   4.274   0.828 -0.6089  0.0099 -0.6881
    1SOL    HW2  606   1.248   4.307   0.790 -0.7600  0.0162 -0.3675
    1SOL    HW3  607   1.398   4.316   0.777 -0.8090 -0.8479 -1.6794
    1SOL    MW4  608   1.327   4.284   0.817 -0.6553 -0.1020 -0.7766
    1SOL     OW  609   2.134   3.442   0.343 -0.3736 -0.0272 -0.1053
    1SOL    HW2  610   2.167   3.375   0.403  0.2503  0.7738  0.4600
    1SOL    HW3  611   2.040   3.442   0.357 -0.1668  0.6076  1.3653
    1SOL    MW4  612   2.126   3.433   0.353 -0.2642  0.1624  0.1633
    1SOL     OW  613   2.960   4.578   0.819 -1.0051  0.2212 -0.1568
    1SOL    HW2  614   3.026   4.630   0.772  0.4335 -1.1014  0.3427
    1SOL    HW3  615   2.877   4.620   0.797 -0.1568  0.9822 -2.0753
    1SOL    MW4  616   2.958   4.591   0.810 -0.7033  0.1473 -0.3441
    1SOL     OW  617   2.534   3.623   0.455  0.0217 -0.2281  0.2101
    1SOL    HW2  618   2.488   3.693   0.409  0.6357  0.7592  1.0872
    1SOL    HW3  619   2.626   3.633   0.427  0.5572  0.9290  2.2985
    1SOL    MW4  620   2.540   3.634   0.445  0.1736  0.0548  0.6014
    1SOL     OW  621   2.452   3.891   0.808  0.2175 -0.4600  0.2169
    1SOL    HW2  622   2.370   3.930   0.779  1.1267  0.0933 -1.7334
    1SOL    HW3  623   2.445   3.799   0.783  0.7019 -0.1362 -1.1876
    1SOL    MW4  624   2.441   3.884   0.801  0.4013 -0.3443 -0.2257
    1SOL     OW  625   2.786   3.676   0.371 -0.0180  0.0029 -0.0881
    1SOL    HW2  626   2.849   3.623   0.421  0.4123 -0.7367 -1.3922
    1SOL    HW3  627   2.811   3.663   0.280 -2.1607 -0.4260 -0.6407
    1SOL    MW4  628   2.797   3.667   0.366 -0.2439 -0.1512 -0.3331
    1SOL     OW  629   0.756   1.250   0.488  0.2994  0.3091 -0.3551
    1SOL    HW2  630   0.735   1.161   0.458  1.1664  0.0153 -0.1233
    1SOL    HW3  631   0.687   1.305   0.451 -0.6866 -0.5717  0.1503
    1SOL    MW4  632   0.744   1.245   0.479  0.2837  0.1541 -0.2578
    1SOL     OW  633   4.117   1.781   0.485 -0.3270  0.0899  0.4146
    1SOL    HW2  634   4.193   1.727   0.463  0.6267  0.5012  2.5240
    1SOL    HW3  635   4.073   1.733   0.555 -0.3573  1.2646  1.2106
    1SOL    MW4  636   4.121   1.767   0.491 -0.2050  0.2991  0.7979
    1SOL     OW  637   4.196   2.758   0.481 -0.1205  0.5782 -0.0194
    1SOL    HW2  638   4.225   2.771   0.572  0.7452 -0.4613 -0.1277
    1SOL    HW3  639   4.152   2.673   0.482 -0.7962  0.9170 -0.4262
    1SOL    MW4  640   4.194   2.749   0.493 -0.0949  0.4859 -0.0874
    1SOL     OW  641   3.870   1.755   0.361  0.0377  0.0204  0.1753
    1SOL    HW2  642   3.841   1.684   0.419 -0.4197 -0.5944 -0.7877
    1SOL    HW3  643   3.963   1.765   0.380  0.4343 -1.8530 -0.7417
    1SOL    MW4  644   3.878   1.747   0.371  0.0298 -0.3078 -0.0728
    1SOL     OW  645   2.710   0.009   0.753  0.0571  0.5643  0.5001
    1SOL    HW2  646   2.729   0.103   0.756 -2.0842  1.0739 -0.6458
    1SOL    HW3  647   2.629  -0.000   0.803  0.7673 -0.8324  1.4164
    1SOL    MW4  648   2.702   0.020   0.760 -0.1318  0.4468  0.4698
    1SOL     OW  649   3.133   1.129   0.400  0.2840 -0.1436  0.4456
    1SOL    HW2  650   3.142   1.035   0.416  0.6259 -0.0189  1.0235
    1SOL    HW3  651   3.219   1.165   0.425  0.0885  0.3421  0.4145
    1SOL    MW4  652   3.146   1.122   0.406  0.3033 -0.0631  0.5177
    1SOL     OW  653   1.284   1.893   0.877 -0.0230 -0.1844 -0.1923
    1SOL    HW2  654   1.309   1.807   0.844 -2.6689 -1.3692  0.7454
    1SOL    HW3  655   1.286   1.883   0.973 -2.2197  0.1808 -0.0790
    1SOL    MW4  656   1.287   1.880   0.886 -0.6620 -0.2924 -0.0536
    1SOL     OW  657   0.441   1.891   0.874 -0.1236  0.6108  0.1022
    1SOL    HW2  658   0.514   1.943   0.840  1.9692 -2.1229  0.2215
    1SOL    HW3  659   0.447   1.901   0.969  0.8575 -0.5528  0.1741
    1SOL    MW4  660   0.451   1.899   0.882  0.2820  0.0966  0.1274
    1SOL     OW  661   0.112   4.103   0.505  0.1670 -0.3181  0.1571
    1SOL    HW2  662   0.042   4.057   0.458 -0.0545  0.1220  0.0606
    1SOL    HW3  663   0.093   4.086   0.598  0.2751 -0.7029  0.1089
    1SOL    MW4  664   0.100   4.094   0.511  0.1521 -0.3109  0.1381
    1SOL     OW  665   0.952   3.210   0.721 -0.2065 -0.5191  0.0772
    1SOL    HW2  666   0.938   3.236   0.630 -1.3110  1.7415  0.8512
    1SOL    HW3  667   0.868   3.176   0.750  0.3401 -1.9073  0.0580
    1SOL    MW4  668   0.939   3.209   0.713 -0.2801 -0.4039  0.1767
    1SOL     OW  669   1.706   3.290   0.147  0.1870 -0.2258  0.2697
    1SOL    HW2  670   1.639   3.223   0.165 -1.4548  0.7171 -2.0987
    1SOL    HW3  671   1.739   3.268   0.060  1.0691  0.8669  0.3221
    1SOL    MW4  672   1.701   3.278   0.138  0.0868  0.0424 -0.0358
    1SOL     OW  673   2.910   3.883   0.788 -0.4106 -0.0143 -0.1347
    1SOL    HW2  674   2.829   3.925   0.759 -0.4075  0.2717  0.2660
    1SOL    HW3  675   2.906   3.886   0.884 -0.2152 -0.5543 -0.1035
    1SOL    MW4  676   2.899   3.889   0.797 -0.3843 -0.0477 -0.0777
    1SOL     OW  677   1.047   0.912   0.489 -0.1257  0.4491  0.0032
    1SOL    HW2  678   1.138   0.892   0.513 -0.6108  0.3963  1.8837
    1SOL    HW3  679   1.017   0.834   0.443  0.7894  0.4794 -0.6678
    1SOL    MW4  680   1.055   0.899   0.486 -0.0690  0.4462  0.1628
    1SOL     OW  681   1.599   3.636   0.709  0.2459 -0.1362  0.1310
    1SOL    HW2  682   1.664   3.583   0.755 -1.2669 -1.9788  0.1884
    1SOL    HW3  683   1.619   3.622   0.616 -0.1925 -0.8715  0.1444
    1SOL    MW4  684   1.610   3.627   0.703 -0.0116 -0.4764  0.1402
    1SOL     OW  685   2.486   4.386   0.408 -0.3148 -0.0227  0.4252
    1SOL    HW2  686   2.566   4.434   0.430 -0.0933 -0.2997  0.2242
    1SOL    HW3  687   2.430   4.451   0.367  0.3354 -0.1345 -0.6671
    1SOL    MW4  688   2.489   4.401   0.406 -0.1998 -0.0739  0.2545
    1SOL     OW  689   0.201   0.328   0.419 -0.1303  0.0996  0.2788
    1SOL    HW2  690   0.133   0.264   0.440 -2.2771  1.9191 -0.8827
    1SOL    HW3  691   0.248   0.290   0.345 -0.4331 -0.7558  0.5163
    1SOL    MW4  692   0.198   0.314   0.412 -0.4535  0.2269  0.1569
    1SOL     OW  693   4.114   4.539   0.402  0.6576 -0.3272  0.0599
    1SOL    HW2  694   4.126   4.617   0.348  0.7873 -0.8311 -0.6420
    1SOL    HW3  695   4.203   4.507   0.419  0.5294 -1.3029 -1.0953
    1SOL    MW4  696   4.128   4.545   0.397  0.6580 -0.5226 -0.1851
    1SOL     OW  697   2.428   2.290   0.877  0.1568  0.6526 -0.0666
    1SOL    HW2  698   2.507   2.332   0.842  1.6750  1.0340  3.5305
    1SOL    HW3  699   2.355   2.338   0.837  1.7871  2.5112 -0.9134
    1SOL    MW4  700   2.429   2.302   0.867  0.5722  0.9480  0.2963
    1SOL     OW  701   4.450   3.679   0.435 -0.0173 -0.4731  0.2239
    1SOL    HW2  702   4.545   3.667   0.442  0.2149 -0.6448 -2.4670
    1SOL    HW3  703   4.438   3.774   0.438  0.4058 -0.3755 -0.7716
    1SOL    MW4  704   4.461   3.690   0.436  0.0687 -0.4828 -0.2625
    1SOL     OW  705   3.151   1.939   0.843 -0.4928 -0.0797 -0.3173
    1SOL    HW2  706   3.135   1.947   0.937  0.0942  0.8126 -0.2887
    1SOL    HW3  707   3.240   1.971   0.831 -0.2199 -1.0722 -1.0575
    1SOL    MW4  708   3.161   1.944   0.854 -0.3793 -0.0930 -0.4112
    1SOL     OW  709   2.715   3.951   0.434 -0.1325  0.3788 -0.1053
    1SOL    HW2  710   2.694   3.973   0.525 -0.0068  0.8703 -0.1929
    1SOL    HW3  711   2.737   3.858   0.436 -0.1291  0.3887  0.3699
    1SOL    MW4  712   2.715   3.941   0.447 -0.1154  0.4451 -0.0542
    1SOL     OW  713   1.468   3.970   0.300 -0.3155 -0.1966  0.0558
    1SOL    HW2  714   1.417   4.042   0.261  0.9019  0.6045 -0.0644
    1SOL    HW3  715   1.543   4.012   0.340  0.1007 -1.3540  0.5179
    1SOL    MW4  716   1.471   3.985   0.300 -0.0999 -0.2437  0.1009
    1SOL     OW  717   3.134   2.735   0.804  0.2434 -0.2100  0.1001
    1SOL    HW2  718   3.138   2.648   0.763  1.4324 -0.8464  1.5387
    1SOL    HW3  719   3.223   2.770   0.794  0.6728 -0.5395  2.4479
    1SOL    MW4  720   3.147   2.728   0.797  0.4568 -0.3371  0.5997
    1SOL     OW  721   2.740   0.288   0.796  0.5931 -0.0066  0.0191
    1SOL    HW2  722   2.719   0.308   0.887  0.7981  1.5923 -0.2599
    1SOL    HW3  723   2.800   0.359   0.770  0.3521 -0.3194 -1.4178
    1SOL    MW4  724   2.745   0.300   0.805  0.5887  0.1632 -0.2073
    1SOL     OW  725   3.151   2.420   0.510  0.3789 -0.6566 -0.1337
    1SOL    HW2  726   3.123   2.431   0.601  3.7246 -0.5241  0.9535
    1SOL    HW3  727   3.095   2.351   0.476 -2.4409  0.8279  1.3090
    1SOL    MW4  728   3.140   2.413   0.518  0.4480 -0.4432  0.2002
    1SOL     OW  729   1.458   2.649   0.134 -0.2740  0.3069 -0.2019
    1SOL    HW2  730   1.444   2.612   0.047  2.2918 -0.4348 -0.3571
    1SOL    HW3  731   1.552   2.665   0.138 -0.3489  0.3148  2.4469
    1SOL    MW4  732   1.469   2.646   0.123  0.0547  0.2098  0.1271
    1SOL     OW  733   0.667   3.642   0.496  0.1381  0.2677  0.0539
    1SOL    HW2  734   0.599   3.674   0.437  0.0782  1.5402  0.8022
    1SOL    HW3  735   0.749   3.671   0.456  0.1579  0.1297 -0.0060
    1SOL    MW4  736   0.669   3.650   0.483  0.1328  0.4172  0.1448
    1SOL     OW  737   1.803   2.673   0.851  0.0558  0.1830  0.4526
    1SOL    HW2  738   1.727   2.716   0.811 -1.2286 -0.5737  2.0627
    1SOL    HW3  739   1.878   2.706   0.800 -1.1683  2.1643 -0.1390
    1SOL    MW4  740   1.803   2.683   0.839 -0.2751  0.3448  0.5870
    1SOL     OW  741   2.454   3.630   0.728  0.4634 -0.1162  0.0009
    1SOL    HW2  742   2.476   3.617   0.635 -0.8607  0.6788 -0.4390
    1SOL    HW3  743   2.516   3.574   0.775  1.6037 -0.0160 -1.3285
    1SOL    MW4  744   2.465   3.621   0.722  0.4389  0.0019 -0.2325
    1SOL     OW  745   2.701   3.210   0.735 -0.1904  0.7025  0.1101
    1SOL    HW2  746   2.698   3.212   0.640 -0.2366  1.0609  0.1173
    1SOL    HW3  747   2.685   3.301   0.762 -0.6155  0.5247  0.4736
    1SOL    MW4  748   2.699   3.222   0.726 -0.2527  0.7262  0.1590
    1SOL     OW  749   2.674   4.280   0.759 -0.1196  0.6168 -0.4673
    1SOL    HW2  750   2.661   4.277   0.854 -0.5886 -1.3664 -0.5827
    1SOL    HW3  751   2.596   4.324   0.725  0.1944  1.6224  0.0657
    1SOL    MW4  752   2.662   4.286   0.767 -0.1402  0.4873 -0.4123
    1SOL     OW  753   0.451   3.747   0.345 -0.4280 -0.1368  0.3456
    1SOL    HW2  754   0.422   3.834   0.373 -1.9756 -0.5321 -0.0068
    1SOL    HW3  755   0.455   3.753   0.249 -0.8149 -0.5275  0.3012
    1SOL    MW4  756   0.448   3.759   0.336 -0.6832 -0.2406  0.2932
    1SOL     OW  757   1.571   4.395   0.727  0.2426  0.3870 -0.5520
    1SOL    HW2  758   1.577   4.367   0.635  1.4456  0.4447 -0.4982
    1SOL    HW3  759   1.648   4.357   0.768  0.4442  1.5301  0.1368
    1SOL    MW4  760   1.582   4.386   0.720  0.4280  0.5455 -0.4540
    1SOL     OW  761   1.041   1.741   0.433 -0.2074  0.4073 -0.2224
    1SOL    HW2  762   1.030   1.831   0.464  0.7084  0.7902 -0.9928
    1SOL    HW3  763   0.953   1.703   0.438 -0.3342  0.8956  1.4673
    1SOL    MW4  764   1.028   1.748   0.438 -0.1034  0.5221 -0.1011
    1SOL     OW  765   2.513   3.343   0.399 -0.4424  0.1868 -0.1785
    1SOL    HW2  766   2.504   3.438   0.393  0.0464  0.1916 -0.9209
    1SOL    HW3  767   2.436   3.314   0.449 -1.4905  0.8091 -1.4156
    1SOL    MW4  768   2.502   3.351   0.405 -0.5162  0.2694 -0.4396
    1SOL     OW  769   0.840   2.979   0.320 -0.5633  0.2876  0.0957
    1SOL    HW2  770   0.898   2.967   0.244 -1.6532 -0.5113 -0.6140
    1SOL    HW3  771   0.849   3.072   0.341 -0.8573  0.7049 -1.5199
    1SOL    MW4  772   0.849   2.990   0.313 -0.7460  0.2375 -0.2111
    1SOL     OW  773   2.117   3.023   0.504 -0.4346 -0.4224  0.1712
    1SOL    HW2  774   2.121   2.958   0.574  0.2393 -1.6189 -0.9601
    1SOL    HW3  775   2.169   2.985   0.433  0.0091  1.3855 -0.4815
    1SOL    MW4  776   2.124   3.009   0.503 -0.2868 -0.3417 -0.0641
    1SOL     OW  777   3.443   3.356   0.358  0.0082  0.4056  0.0871
    1SOL    HW2  778   3.395   3.372   0.276 -1.3582 -0.2920  0.7544
    1SOL    HW3  779   3.435   3.439   0.406 -2.0391 -0.2730  0.9586
    1SOL    MW4  780   3.436   3.369   0.353 -0.4420  0.2241  0.2901
    1SOL     OW  781   1.329   4.218   0.260 -0.0061  0.3668  0.0368
    1SOL    HW2  782   1.236   4.205   0.240  0.2257  0.2948 -1.0366
    1SOL    HW3  783   1.331   4.296   0.315 -0.8821 -0.7931  1.7810
    1SOL    MW4  784   1.317   4.226   0.265 -0.0911  0.2046  0.1253
    1SOL     OW  785   0.851   3.231   0.449  0.0266 -0.0564 -0.0601
    1SOL    HW2  786   0.917   3.266   0.389  0.5127  1.0749  1.1195
    1SOL    HW3  787   0.771   3.280   0.428  0.6619  1.6750  1.4679
    1SOL    MW4  788   0.849   3.242   0.438  0.1745  0.3214  0.2971
    1SOL     OW  789   4.175   0.144   0.692  0.2189  0.0996  0.4059
    1SOL    HW2  790   4.095   0.104   0.657 -0.2200 -0.0701  1.5805
    1SOL    HW3  791   4.143   0.214   0.749  0.9493  1.0035 -0.2963
    1SOL    MW4  792   4.160   0.148   0.695  0.2575  0.1965  0.4682
    1SOL     OW  793   0.689   0.950   0.428 -0.2967  0.2106 -0.2795
    1SOL    HW2  794   0.721   0.910   0.509 -1.0272  1.1695  0.4909
    1SOL    HW3  795   0.721   0.893   0.358  1.2546 -0.0252  0.6187
    1SOL    MW4  796   0.697   0.937   0.429 -0.1884  0.3060 -0.0593
    1SOL     OW  797   2.026   0.280   0.375  0.3852  0.0659 -0.2435
    1SOL    HW2  798   2.092   0.211   0.374  0.7392  0.3965 -0.8855
    1SOL    HW3  799   2.075   0.359   0.400  0.0297  0.1265  0.2671
    1SOL    MW4  800   2.041   0.282   0.378  0.3848  0.1175 -0.2609
    1SOL     OW  801   0.680   0.511   0.450  0.3700 -0.1385 -0.2044
    1SOL    HW2  802   0.691   0.502   0.545 -1.2257 -1.3587 -0.1123
    1SOL    HW3  803   0.589   0.541   0.440  0.0555 -1.4453 -1.4059
    1SOL    MW4  804   0.669   0.514   0.462  0.1180 -0.4719 -0.3507
    1SOL     OW  805   2.259   0.332   0.811  0.1450 -0.0106  0.0794
    1SOL    HW2  806   2.223   0.254   0.768  0.8936  1.4405 -3.3743
    1SOL    HW3  807   2.191   0.398   0.802  0.2849  0.2896  1.2242
    1SOL    MW4  808   2.245   0.330   0.804  0.2623  0.2205 -0.2252
    1SOL     OW  809   3.401   4.375   0.697 -0.2455 -0.5082  0.1972
    1SOL    HW2  810   3.403   4.465   0.729 -0.1278 -0.4726  0.0912
    1SOL    HW3  811   3.320   4.338   0.733 -0.1183 -0.4651  0.5339
    1SOL    MW4  812   3.391   4.382   0.706 -0.2131 -0.4973  0.2277
    1SOL     OW  813   3.585   4.230   0.856  0.0686 -0.0764  0.0586
    1SOL    HW2  814   3.516   4.275   0.807  0.1411 -0.3659 -0.3066
    1SOL    HW3  815   3.592   4.144   0.816 -0.9884 -0.9112  1.6006
    1SOL    MW4  816   3.577   4.225   0.845 -0.0613 -0.2246  0.2139
    1SOL     OW  817   0.557   4.161   0.359  0.4296 -0.0456  0.2577
    1SOL    HW2  818   0.557   4.244   0.408 -1.2275 -0.3818  0.8495
    1SOL    HW3  819   0.544   4.187   0.268 -1.2952  0.2789  0.5854
    1SOL    MW4  820   0.555   4.175   0.353 -0.0166 -0.0472  0.3791
    1SOL     OW  821   2.217   2.441   0.470  0.0484  0.5025 -0.3005
    1SOL    HW2  822   2.152   2.510   0.457 -1.5332 -1.0289 -0.6869
    1SOL    HW3  823   2.227   2.434   0.565  0.3161  1.3419 -0.2650
    1SOL    MW4  824   2.210   2.449   0.481 -0.1249  0.4115 -0.3468
    1SOL     OW  825   3.360   0.474   0.756  0.0114 -0.1499 -0.0475
    1SOL    HW2  826   3.372   0.465   0.662  0.7220  0.0348  0.0189
    1SOL    HW3  827   3.433   0.425   0.794 -0.2813 -0.2384  0.4080
    1SOL    MW4  828   3.371   0.467   0.749  0.0665 -0.1372  0.0213
    1SOL     OW  829   0.728   2.505   0.526  0.3221  0.3262  0.5098
    1SOL    HW2  830   0.704   2.595   0.506 -0.4880 -0.1181 -0.5434
    1SOL    HW3  831   0.652   2.453   0.499  1.3749 -0.8258 -0.2658
    1SOL    MW4  832   0.714   2.510   0.520  0.3542  0.1156  0.2685
    1SOL     OW  833   0.145   4.390   0.507 -0.2438  0.0002  0.1898
    1SOL    HW2  834   0.154   4.384   0.602  1.7839  1.4519  0.1367
    1SOL    HW3  835   0.154   4.299   0.477  0.1973 -0.3424  1.3081
    1SOL    MW4  836   0.148   4.377   0.516  0.0820  0.1459  0.3303
    1SOL     OW  837   0.383   0.553   0.371 -0.1565  0.3720  0.0969
    1SOL    HW2  838   0.333   0.634   0.358 -0.4316  0.2727  0.5153
    1SOL    HW3  839   0.318   0.488   0.397  0.1409  0.1549  0.3006
    1SOL    MW4  840   0.368   0.555   0.373 -0.1536  0.3302  0.1790
    1SOL     OW  841   1.992   3.616   0.677  0.2045 -0.0812  0.5145
    1SOL    HW2  842   2.069   3.572   0.714  0.2762  0.2023  0.7049
    1SOL    HW3  843   1.918   3.562   0.703  0.3215 -0.2492  0.4969
    1SOL    MW4  844   1.993   3.603   0.685  0.2292 -0.0660  0.5373
    1SOL     OW  845   4.113   0.358   0.836  0.0588 -0.1298  0.7353
    1SOL    HW2  846   4.186   0.417   0.820 -0.0902 -0.1336  0.0129
    1SOL    HW3  847   4.036   0.407   0.808 -0.1363 -0.3975  0.8026
    1SOL    MW4  848   4.113   0.372   0.830  0.0129 -0.1656  0.6489
    1SOL     OW  849   3.022   1.776   0.499 -0.0718  0.1120 -0.1991
    1SOL    HW2  850   2.982   1.860   0.519  1.8120  0.9122  0.3515
    1SOL    HW3  851   2.949   1.720   0.473 -1.2041  2.2307 -1.7119
    1SOL    MW4  852   3.007   1.780   0.499  0.0272  0.4971 -0.3260
    1SOL     OW  853   1.302   2.943   0.460 -0.3611  0.0644  0.0182
    1SOL    HW2  854   1.306   3.038   0.472 -1.3306  0.3238 -1.6775
    1SOL    HW3  855   1.393   2.914   0.466 -0.1304  0.9998  1.2429
    1SOL    MW4  856   1.314   2.952   0.463 -0.4586  0.2220 -0.0440
    1SOL     OW  857   1.021   2.525   0.508 -0.4133  1.0290  0.6635
    1SOL    HW2  858   0.930   2.507   0.482 -0.0569 -1.6384  1.0992
    1SOL    HW3  859   1.036   2.616   0.482 -2.5880  0.9045 -1.1946
    1SOL    MW4  860   1.011   2.534   0.501 -0.6531  0.6609  0.4759
    1SOL     OW  861   2.059   4.408   0.276  0.3784 -0.5330 -0.3155
    1SOL    HW2  862   1.970   4.433   0.254  0.9216 -0.1069 -2.1441
    1SOL    HW3  863   2.050   4.339   0.342 -1.2688  0.1859  0.2130
    1SOL    MW4  864   2.046   4.402   0.282  0.2327 -0.3819 -0.4870
    1SOL     OW  865   3.387   1.235   0.454  0.6380  0.3874 -0.1767
    1SOL    HW2  866   3.391   1.259   0.547 -1.8517  0.2395  0.0060
    1SOL    HW3  867   3.375   1.318   0.408 -2.0206  0.1019 -0.0319
    1SOL    MW4  868   3.386   1.249   0.460 -0.0412  0.3302 -0.1335
    1SOL     OW  869   0.702   2.325   0.856  0.3146 -0.0679 -0.1985
    1SOL    HW2  870   0.696   2.337   0.950  0.3565 -0.3045 -0.1630
    1SOL    HW3  871   0.619   2.358   0.821  0.1990 -0.2036 -0.0536
    1SOL    MW4  872   0.690   2.331   0.864  0.3049 -0.1168 -0.1746
    1SOL     OW  873   0.221   3.601   0.442  0.3485  0.2390  0.0180
    1SOL    HW2  874   0.287   3.667   0.422 -0.1088  0.3292 -1.1997
    1SOL    HW3  875   0.220   3.597   0.538  0.0390  2.3458  0.1234
    1SOL    MW4  876   0.229   3.609   0.452  0.2473  0.5288 -0.1287
    1SOL     OW  877   3.385   2.855   0.708 -0.0604 -0.2854 -0.2323
    1SOL    HW2  878   3.377   2.948   0.729 -0.9143 -0.2247 -0.8199
    1SOL    HW3  879   3.469   2.829   0.747  0.5635  0.9106 -0.7507
    1SOL    MW4  880   3.395   2.864   0.716 -0.0908 -0.1197 -0.3781
    1SOL     OW  881   0.452   2.675   0.858  0.0934 -0.2403 -0.0256
    1SOL    HW2  882   0.526   2.717   0.813 -1.1095  0.1408 -1.6601
    1SOL    HW3  883   0.447   2.588   0.819 -2.0046  0.6733 -1.8477
    1SOL    MW4  884   0.461   2.669   0.847 -0.3421 -0.0696 -0.4817
    1SOL     OW  885   3.186   0.384   0.437 -0.0287 -0.3576  0.2846
    1SOL    HW2  886   3.174   0.291   0.418  0.2529 -0.7250  1.8861
    1SOL    HW3  887   3.098   0.420   0.439 -0.2665 -0.9761  1.5459
    1SOL    MW4  888   3.173   0.376   0.435 -0.0229 -0.4877  0.6623
    1SOL     OW  889   2.207   3.979   0.703  0.3392 -0.2388  0.2378
    1SOL    HW2  890   2.185   3.976   0.610  0.0475 -1.6711  0.3402
    1SOL    HW3  891   2.128   3.949   0.748 -0.1613  2.1915  1.0791
    1SOL    MW4  892   2.194   3.975   0.697  0.2346 -0.1073  0.3623
    1SOL     OW  893   1.298   3.986   0.758 -0.0646 -0.0490 -0.4917
    1SOL    HW2  894   1.223   3.953   0.806  0.1086  1.0376  0.5441
    1SOL    HW3  895   1.300   4.080   0.776  2.3138 -0.2605  0.5733
    1SOL    MW4  896   1.289   3.994   0.766  0.2718  0.0663 -0.2145
    1SOL     OW  897   3.635   0.655   0.535  0.1045 -0.2802 -0.0599
    1SOL    HW2  898   3.566   0.593   0.510 -1.1765  0.5262  1.4134
    1SOL    HW3  899   3.628   0.726   0.471 -1.1237  0.2781  0.6622
    1SOL    MW4  900   3.625   0.656   0.523 -0.2263 -0.1001  0.2297
    1SOL     OW  901   4.464   1.902   0.881 -0.0909 -0.0875  0.3845
    1SOL    HW2  902   4.543   1.938   0.842 -0.0423 -0.3246  0.2686
    1SOL    HW3  903   4.457   1.813   0.846 -0.7040  0.1220 -0.0375
    1SOL    MW4  904   4.473   1.895   0.871 -0.1659 -0.0911  0.3135
    1SOL     OW  905   4.440   1.096   0.870 -0.1548 -0.1109 -0.5129
    1SOL    HW2  906   4.456   1.100   0.965 -0.0790  0.3591 -0.5469
    1SOL    HW3  907   4.419   1.004   0.854 -0.1580 -0.1963 -0.0391
    1SOL    MW4  908   4.439   1.084   0.881 -0.1454 -0.0601 -0.4548
    1SOL     OW  909   2.993   3.247   0.482 -0.0262  0.1320  0.2838
    1SOL    HW2  910   3.038   3.185   0.424  1.1029  1.4326 -0.2673
    1SOL    HW3  911   2.900   3.228   0.470  0.3168 -1.9040  0.6360
    1SOL    MW4  912   2.987   3.236   0.473  0.1681  0.0350  0.2576
    1SOL     OW  913   1.914   2.539   0.313  0.3399 -1.2100 -0.7652
    1SOL    HW2  914   1.852   2.495   0.370 -0.1406  0.8908  0.3841
    1SOL    HW3  915   1.947   2.470   0.255 -1.4870 -2.7477 -0.0174
    1SOL    MW4  916   1.911   2.524   0.313  0.0354 -1.1356 -0.5149
    1SOL     OW  917   3.149   1.162   0.823  0.3704  0.1177 -0.0213
    1SOL    HW2  918   3.231   1.197   0.788  1.5541 -1.4166  1.0929
    1SOL    HW3  919   3.159   1.169   0.918  0.2798 -2.3517  0.2070
    1SOL    MW4  920   3.161   1.168   0.831  0.5145 -0.4106  0.1558
    1SOL     OW  921   2.984   3.520   0.491 -0.0422 -0.1609 -0.8293
    1SOL    HW2  922   2.978   3.542   0.584 -1.6127 -1.9228 -0.4784
    1SOL    HW3  923   2.986   3.424   0.490  2.2332 -0.1386 -2.5139
    1SOL    MW4  924   2.983   3.510   0.503  0.0508 -0.3903 -1.0052
    1SOL     OW  925   1.380   0.945   0.761  0.1481  0.0141 -0.0228
    1SOL    HW2  926   1.359   1.037   0.769 -0.1560 -0.0936  0.4624
    1SOL    HW3  927   1.303   0.899   0.796  0.0854 -0.4281 -0.7416
    1SOL    MW4  928   1.367   0.951   0.767  0.0995 -0.0585 -0.0536
    1SOL     OW  929   3.847   0.471   0.486  0.2009  0.6560 -0.2766
    1SOL    HW2  930   3.771   0.529   0.490 -0.3786  0.0114 -1.6295
    1SOL    HW3  931   3.923   0.529   0.491 -0.3747  1.4524 -0.8426
    1SOL    MW4  932   3.847   0.486   0.488  0.0486  0.6760 -0.5298
    1SOL     OW  933   4.052   2.441   0.814 -0.5648  0.2896 -0.1674
    1SOL    HW2  934   4.123   2.397   0.862 -1.0436 -1.4955 -1.0596
    1SOL    HW3  935   3.981   2.378   0.813 -1.2802  1.0931 -1.4798
    1SOL    MW4  936   4.052   2.427   0.820 -0.7219  0.1597 -0.4582
    1SOL     OW  937   1.784   1.650   0.487 -0.0094 -0.2111  0.1267
    1SOL    HW2  938   1.859   1.704   0.467 -0.5136  0.4634  0.0417
    1SOL    HW3  939   1.775   1.655   0.582 -0.1719  0.0100  0.0998
    1SOL    MW4  940   1.792   1.658   0.497 -0.0974 -0.0929  0.1119
    1SOL     OW  941   1.330   0.876   0.494  0.3020 -0.0750 -0.3335
    1SOL    HW2  942   1.357   0.911   0.578  0.3526 -1.1128  0.0867
    1SOL    HW3  943   1.392   0.913   0.431 -0.3242  1.4737 -0.0654
    1SOL    MW4  944   1.342   0.886   0.497  0.2261 -0.0076 -0.2427
    1SOL     OW  945   1.916   0.498   0.254 -0.0020  0.0391 -0.1040
    1SOL    HW2  946   1.975   0.506   0.180  1.3629 -0.3791  0.9105
    1SOL    HW3  947   1.944   0.417   0.298 -1.8648 -0.6180 -0.0735
    1SOL    MW4  948   1.928   0.488   0.250 -0.0677 -0.1028  0.0338
    1SOL     OW  949   4.076   0.835   0.773  0.0525  0.0006  0.1354
    1SOL    HW2  950   4.048   0.926   0.764  0.4447  0.0067 -1.2020
    1SOL    HW3  951   4.170   0.841   0.790  0.2710 -0.1770 -0.9819
    1SOL    MW4  952   4.085   0.848   0.774  0.1335 -0.0221 -0.1884
    1SOL     OW  953   0.778   1.649   0.470 -0.1315  0.1090 -0.3338
    1SOL    HW2  954   0.731   1.566   0.465 -1.3902  0.7576  0.6758
    1SOL    HW3  955   0.810   1.654   0.560 -0.8017  1.1210 -0.1449
    1SOL    MW4  956   0.776   1.639   0.481 -0.3860  0.3281 -0.1757
    1SOL     OW  957   0.619   3.367   0.406  0.1714  0.7075 -0.0741
    1SOL    HW2  958   0.646   3.368   0.314  0.8473  1.4605  0.1236
    1SOL    HW3  959   0.641   3.454   0.438  0.9442  0.0890  1.0909
    1SOL    MW4  960   0.625   3.378   0.398  0.3625  0.7250  0.1057
    1SOL     OW  961   2.082   2.696   0.452 -0.6255 -0.4463 -0.1225
    1SOL    HW2  962   2.144   2.741   0.394 -0.5618 -0.2149  0.1248
    1SOL    HW3  963   2.020   2.654   0.392 -1.7379  1.4489 -0.3367
    1SOL    MW4  964   2.082   2.696   0.436 -0.7641 -0.1657 -0.1181
    1SOL     OW  965   1.265   2.130   0.381  0.0269 -0.0344  0.1660
    1SOL    HW2  966   1.273   2.098   0.291  0.2637 -1.2952  0.6160
    1SOL    HW3  967   1.347   2.106   0.423  0.0667  0.8904  0.6102
    1SOL    MW4  968   1.277   2.122   0.374  0.0634 -0.0784  0.2840
    1SOL     OW  969   3.131   0.866   0.483  0.2160 -0.6313 -0.4211
    1SOL    HW2  970   3.208   0.818   0.455  0.8012  0.2952 -0.4258
    1SOL    HW3  971   3.145   0.883   0.576 -0.5222 -1.4618 -0.1552
    1SOL    MW4  972   3.143   0.862   0.491  0.1960 -0.6186 -0.3866
    1SOL     OW  973   1.841   1.731   0.113 -0.0289 -0.1027 -0.0749
    1SOL    HW2  974   1.750   1.701   0.123 -0.2916  0.9795  0.9221
    1SOL    HW3  975   1.841   1.781   0.031 -0.4994  0.4272  0.2379
    1SOL    MW4  976   1.829   1.734   0.104 -0.1255  0.1100  0.0979
    1SOL     OW  977   4.098   2.064   0.411  0.2789  0.0972 -0.3036
    1SOL    HW2  978   4.189   2.088   0.429  0.3887 -0.8726  0.4788
    1SOL    HW3  979   4.095   1.969   0.423 -1.0641  0.2450  0.7116
    1SOL    MW4  980   4.109   2.055   0.415  0.1163 -0.0114 -0.0664
    1SOL     OW  981   3.788   2.912   0.464 -0.4224 -0.0580  0.2535
    1SOL    HW2  982   3.753   2.832   0.423 -0.3144  0.9328 -1.8239
    1SOL    HW3  983   3.722   2.978   0.446  0.9210  1.0382 -0.7486
    1SOL    MW4  984   3.775   2.910   0.456 -0.2310  0.2174 -0.1528
    1SOL     OW  985   1.364   2.666   0.836 -0.2473  0.2513  0.5360
    1SOL    HW2  986   1.352   2.664   0.931 -0.0927  2.4331  0.6247
    1SOL    HW3  987   1.281   2.698   0.802 -0.4985 -1.0641 -0.1316
    1SOL    MW4  988   1.352   2.670   0.844 -0.2601  0.3657  0.4597
    1SOL     OW  989   3.571   0.178   0.441 -0.2142  0.3020  0.2591
    1SOL    HW2  990   3.511   0.117   0.397 -0.9095  1.9536 -1.1300
    1SOL    HW3  991   3.578   0.144   0.530 -2.0713 -0.7508  0.0390
    1SOL    MW4  992   3.564   0.165   0.447 -0.5507  0.3810  0.0468
    1SOL     OW  993   4.025   3.505   0.888 -0.3477 -0.8756 -0.0743
    1SOL    HW2  994   4.041   3.412   0.871 -1.0357 -1.0185  0.0291
    1SOL    HW3  995   4.026   3.513   0.983 -1.3410 -0.9790 -0.0478
    1SOL    MW4  996   4.027   3.494   0.898 -0.5693 -0.9084 -0.0572
    1SOL     OW  997   0.424   0.409   0.836  0.2592 -0.1377 -0.4313
    1SOL    HW2  998   0.329   0.417   0.829  0.1180 -0.5760  0.8880
    1SOL    HW3  999   0.445   0.333   0.782  0.1005  1.0585 -2.2540
    1SOL    MW4 1000   0.414   0.400   0.828  0.2196 -0.0377 -0.4977
    1SOL     OW 1001   1.987   4.188   0.488  0.3845  0.2378 -0.5080
    1SOL    HW2 1002   2.035   4.108   0.465  0.5223  0.0962  0.2554
    1SOL    HW3 1003   1.895   4.166   0.473  0.4741  0.1760 -0.9907
    1SOL    MW4 1004   1.982   4.175   0.483  0.4145  0.2108 -0.4710
    1SOL     OW 1005   4.489   0.326   0.811 -0.1912 -0.0407  0.3340
    1SOL    HW2 1006   4.563   0.386   0.802  0.0112 -0.3888 -0.3323
    1SOL    HW3 1007   4.474   0.322   0.905  0.3194  0.4178  0.4428
    1SOL    MW4 1008   4.497   0.333   0.822 -0.0973 -0.0261  0.2604
    1SOL     OW 1009   2.000   1.784   0.344  0.3381 -0.3299 -0.0049
    1SOL    HW2 1010   1.988   1.873   0.378  0.8021 -0.1240 -0.3786
    1SOL    HW3 1011   1.934   1.776   0.276 -0.2623 -0.5687  0.5960
    1SOL    MW4 1012   1.990   1.795   0.340  0.3202 -0.3344  0.0250
    1SOL     OW 1013   0.156   0.797   0.852  0.1501 -0.4487  0.1453
    1SOL    HW2 1014   0.163   0.775   0.945  1.2462  1.2042  0.4730
    1SOL    HW3 1015   0.071   0.840   0.844  0.4994  0.3350  0.5892
    1SOL    MW4 1016   0.145   0.800   0.863  0.3408 -0.1273  0.2471
    1SOL     OW 1017   0.255   0.787   0.325 -0.2230 -0.2054 -0.2992
    1SOL    HW2 1018   0.313   0.850   0.368  0.6269 -1.5787  0.6036
    1SOL    HW3 1019   0.247   0.818   0.235  1.6072  0.2090 -0.3307
    1SOL    MW4 1020   0.261   0.799   0.319  0.1306 -0.3319 -0.1842
    1SOL     OW 1021   0.397   1.739   0.515 -0.0412 -1.0404 -0.4576
    1SOL    HW2 1022   0.394   1.699   0.602 -0.0224 -0.9416 -0.4112
    1SOL    HW3 1023   0.306   1.741   0.486 -0.1819  0.0149  0.0586
    1SOL    MW4 1024   0.385   1.734   0.523 -0.0573 -0.8881 -0.3834
    1SOL     OW 1025   0.153   1.262   0.753 -0.1503 -0.0580  0.7968
    1SOL    HW2 1026   0.102   1.187   0.783  1.2930 -1.3598  0.0385
    1SOL    HW3 1027   0.242   1.243   0.781  0.3783  0.9574 -0.1684
    1SOL    MW4 1028   0.158   1.250   0.761  0.1099 -0.0958  0.5693
    1SOL     OW 1029   0.162   1.520   0.871 -0.5508  0.3526 -0.3923
    1SOL    HW2 1030   0.156   1.434   0.830 -1.3564  0.2070  0.0381
    1SOL    HW3 1031   0.238   1.561   0.829  0.0960 -0.7296 -0.2800
    1SOL    MW4 1032   0.171   1.514   0.860 -0.5718  0.1905 -0.3207
    1SOL     OW 1033   1.111   2.730   0.741 -0.2106  0.3748 -0.1800
    1SOL    HW2 1034   1.044   2.669   0.770 -0.2577  0.4104 -0.2156
    1SOL    HW3 1035   1.097   2.740   0.647  0.4667 -0.3973 -0.3708
    1SOL    MW4 1036   1.101   2.724   0.732 -0.1273  0.2778 -0.2099
    1SOL     OW 1037   4.095   2.500   0.529  0.2674  0.6628 -0.1131
    1SOL    HW2 1038   4.019   2.462   0.486 -0.1079  1.2601  0.0235
    1SOL    HW3 1039   4.082   2.481   0.622 -0.3372  1.8379  0.0524
    1SOL    MW4 1040   4.083   2.493   0.536  0.1383  0.8965 -0.0731
    1SOL     OW 1041   1.053   2.319   0.832  0.0181 -0.3357 -0.1171
    1SOL    HW2 1042   1.053   2.224   0.817  1.0749 -0.5742  1.3337
    1SOL    HW3 1043   1.140   2.347   0.805  0.5093 -0.1461  1.6065
    1SOL    MW4 1044   1.064   2.310   0.826  0.2223 -0.3421  0.3017
    1SOL     OW 1045   0.337   2.591   0.354  0.4707 -0.0581 -0.1719
    1SOL    HW2 1046   0.246   2.579   0.381  0.4466 -1.6543 -0.9246
    1SOL    HW3 1047   0.359   2.680   0.382 -1.4060  0.4367 -0.2374
    1SOL    MW4 1048   0.328   2.601   0.361  0.2199 -0.2034 -0.2799
    1SOL     OW 1049   4.294   2.310   0.898  0.2478 -0.4093 -0.0133
    1SOL    HW2 1050   4.263   2.233   0.850  0.3702 -0.0095 -0.7371
    1SOL    HW3 1051   4.372   2.339   0.851 -0.1397  0.5160 -0.1130
    1SOL    MW4 1052   4.300   2.304   0.886  0.2127 -0.2346 -0.1220
    1SOL     OW 1053   0.366   1.264   0.544 -0.1245  0.3124 -0.0874
    1SOL    HW2 1054   0.382   1.172   0.526  0.6822  0.0709  1.7393
    1SOL    HW3 1055   0.292   1.265   0.604  2.2056  0.5989  2.8604
    1SOL    MW4 1056   0.359   1.252   0.549  0.2894  0.3183  0.5426
    1SOL     OW 1057   4.005   1.654   0.709 -0.3703 -0.2626 -0.4720
    1SOL    HW2 1058   3.918   1.615   0.719 -0.1858 -0.1923  1.6284
    1SOL    HW3 1059   4.063   1.596   0.757  0.5993  0.2374 -1.0244
    1SOL    MW4 1060   4.001   1.641   0.716 -0.2184 -0.1874 -0.2678
    1SOL     OW 1061   0.258   3.089   0.836  0.2826  0.2942  0.6212
    1SOL    HW2 1062   0.260   3.108   0.930  2.1355  0.4593  0.5785
    1SOL    HW3 1063   0.173   3.120   0.806  0.8829  3.0587  1.6730
    1SOL    MW4 1064   0.247   3.095   0.845  0.6063  0.6807  0.7542
    1SOL     OW 1065   1.581   0.976   0.393  0.1977  0.5222 -0.5692
    1SOL    HW2 1066   1.584   1.025   0.312  0.1514  0.3975 -0.6470
    1SOL    HW3 1067   1.672   0.952   0.411  0.1502  0.1189 -0.8507
    1SOL    MW4 1068   1.594   0.979   0.385  0.1853  0.4526 -0.6166
    1SOL     OW 1069   0.071   2.655   0.497 -0.1639  0.6417  0.3095
    1SOL    HW2 1070  -0.000   2.592   0.506 -0.6700  1.2850  0.8509
    1SOL    HW3 1071   0.101   2.671   0.586  0.6355  0.3963  0.0830
    1SOL    MW4 1072   0.065   2.649   0.510 -0.1252  0.6940  0.3510
    1SOL     OW 1073   0.008   3.198   0.787  0.5466  0.1607 -0.1359
    1SOL    HW2 1074  -0.016   3.200   0.694  1.9590  0.4686 -0.4970
    1SOL    HW3 1075   0.007   3.290   0.814 -0.9705 -0.0132  0.4547
    1SOL    MW4 1076   0.005   3.210   0.778  0.5322  0.1786 -0.1057
    1SOL     OW 1077   0.455   3.471   0.834 -0.2696  0.0993 -0.4658
    1SOL    HW2 1078   0.451   3.462   0.929 -0.4529  0.5354 -0.4287
    1SOL    HW3 1079   0.467   3.382   0.802  0.1388 -0.0093 -0.0167
    1SOL    MW4 1080   0.456   3.458   0.842 -0.2399  0.1423 -0.4017
    1SOL     OW 1081   4.456   2.903   0.458 -0.2488 -0.2685 -0.4300
    1SOL    HW2 1082   4.372   2.876   0.423 -0.5564  0.6586 -0.4106
    1SOL    HW3 1083   4.503   2.821   0.475 -1.4989 -0.8188  0.4323
    1SOL    MW4 1084   4.451   2.889   0.456 -0.4544 -0.2186 -0.3136
    1SOL     OW 1085   0.396   1.170   0.865 -0.1681  0.2499 -0.2513
    1SOL    HW2 1086   0.392   1.081   0.828  1.1233 -0.8702  2.1992
    1SOL    HW3 1087   0.477   1.206   0.829 -0.5774  0.3800 -1.0680
    1SOL    MW4 1088   0.406   1.163   0.855 -0.0517  0.1194 -0.0358
    1SOL     OW 1089   0.502   0.199   0.665 -0.3927  0.1325 -0.0058
    1SOL    HW2 1090   0.419   0.162   0.637  0.3958 -0.8707 -1.1019
    1SOL    HW3 1091   0.528   0.145   0.740 -0.5654  0.2272  0.1217
    1SOL    MW4 1092   0.495   0.187   0.672 -0.3115  0.0126 -0.1336
    1SOL     OW 1093   0.421   0.440   1.129 -0.1595 -0.4217  0.2479
    1SOL    HW2 1094   0.418   0.420   1.035 -0.9544 -1.0684  0.4119
    1SOL    HW3 1095   0.334   0.476   1.148  0.7717  1.9225  0.2476
    1SOL    MW4 1096   0.409   0.442   1.119 -0.1416 -0.1978  0.2694
    1SOL     OW 1097   1.989   2.029   0.742  0.1899  0.2308  0.0701
    1SOL    HW2 1098   2.006   2.120   0.769  0.0033  0.4136 -0.4188
    1SOL    HW3 1099   1.909   2.005   0.789  0.3527  0.2533  0.3564
    1SOL    MW4 1100   1.981   2.038   0.752  0.1869  0.2577  0.0434
    1SOL     OW 1101   3.400   1.268   0.737 -0.1838  0.3741  0.3372
    1SOL    HW2 1102   3.468   1.217   0.781  0.1867  0.7992  0.2521
    1SOL    HW3 1103   3.390   1.346   0.791 -0.5022  0.3834  0.2685
    1SOL    MW4 1104   3.407   1.271   0.750 -0.1769  0.4313  0.3169
    1SOL     OW 1105   3.600   1.679   0.737 -0.0069 -0.0319  0.2317
    1SOL    HW2 1106   3.517   1.635   0.754  1.0515 -1.8882  0.7596
    1SOL    HW3 1107   3.626   1.650   0.650  0.4724 -0.1263  0.3991
    1SOL    MW4 1108   3.593   1.670   0.728  0.1962 -0.2892  0.3234
    1SOL     OW 1109   0.903   0.080   0.754  0.0682 -0.3278 -0.0442
    1SOL    HW2 1110   0.892   0.086   0.659 -0.0965 -3.4869 -0.2690
    1SOL    HW3 1111   0.815   0.066   0.788  0.2209  0.0621  0.5294
    1SOL    MW4 1112   0.890   0.079   0.746  0.0666 -0.6932  0.0018
    1SOL     OW 1113   0.671   2.818   0.744 -0.2721  0.0042 -0.3150
    1SOL    HW2 1114   0.685   2.912   0.758  0.8684 -0.2571  0.4326
    1SOL    HW3 1115   0.675   2.807   0.649 -0.4187  0.7124 -0.4072
    1SOL    MW4 1116   0.674   2.829   0.733 -0.1410  0.0629 -0.2286
    1SOL     OW 1117   1.542   0.143   0.292 -0.5500 -0.4294  0.1506
    1SOL    HW2 1118   1.525   0.066   0.238  0.7261  0.2250 -1.2289
    1SOL    HW3 1119   1.625   0.125   0.335 -0.0671  0.3048 -0.4505
    1SOL    MW4 1120   1.551   0.131   0.291 -0.3181 -0.2462 -0.1107
    1SOL     OW 1121   0.471   3.202   0.723 -0.2525 -0.8349 -0.2843
    1SOL    HW2 1122   0.458   3.210   0.628 -0.6630  1.4738 -0.0584
    1SOL    HW3 1123   0.390   3.163   0.755 -0.7243 -0.2047 -0.7010
    1SOL    MW4 1124   0.459   3.198   0.714 -0.3689 -0.4475 -0.3095
    1SOL     OW 1125   0.646   1.229   0.754  0.0523  0.1423 -0.2816
    1SOL    HW2 1126   0.654   1.226   0.658  1.6999  0.9934 -0.1726
    1SOL    HW3 1127   0.624   1.320   0.773  0.1258  0.0632  0.1827
    1SOL    MW4 1128   0.644   1.241   0.744  0.2794  0.2443 -0.2060
    1SOL     OW 1129   2.910   1.529   0.835  0.4458  0.4703 -0.2485
    1SOL    HW2 1130   2.837   1.581   0.800  0.6850  0.1759 -1.1962
    1SOL    HW3 1131   2.988   1.581   0.815  0.4748  0.9931  1.1486
    1SOL    MW4 1132   2.911   1.543   0.828  0.4811  0.5004 -0.1892
    1SOL     OW 1133   4.427   1.645   0.784 -0.0587 -1.1463  0.1486
    1SOL    HW2 1134   4.353   1.588   0.805 -0.2373 -0.9185  0.1374
    1SOL    HW3 1135   4.501   1.605   0.829 -0.1949 -1.3608  0.1819
    1SOL    MW4 1136   4.427   1.632   0.793 -0.1001 -1.1444  0.1515
    1SOL     OW 1137   1.254   3.941   0.469  0.1809  0.1888 -0.0270
    1SOL    HW2 1138   1.283   3.952   0.560 -0.4375 -2.1536  0.4763
    1SOL    HW3 1139   1.334   3.941   0.418  0.6831 -0.5837  0.7529
    1SOL    MW4 1140   1.268   3.943   0.474  0.1657 -0.2222  0.1422
    1SOL     OW 1141   0.861   2.234   0.554 -0.0769 -0.1404 -0.0251
    1SOL    HW2 1142   0.772   2.200   0.538 -0.0694 -0.2390  0.1427
    1SOL    HW3 1143   0.918   2.160   0.533 -0.0563 -0.2051  0.2639
    1SOL    MW4 1144   0.857   2.219   0.549 -0.0731 -0.1619  0.0351
    1SOL     OW 1145   2.674   4.616   0.475  0.0529  0.5486  0.2532
    1SOL    HW2 1146   2.686   4.639   0.567 -0.2973  1.2043  0.1387
    1SOL    HW3 1147   2.620   4.687   0.440 -0.4423 -0.0922 -0.2753
    1SOL    MW4 1148   2.669   4.629   0.482 -0.0587  0.5503  0.1684
    1SOL     OW 1149   0.672   2.780   0.473 -0.5212 -0.1439  0.2207
    1SOL    HW2 1150   0.699   2.847   0.410 -0.7736 -0.3495 -0.1104
    1SOL    HW3 1151   0.576   2.787   0.475 -0.6627 -1.4421 -0.8925
    1SOL    MW4 1152   0.663   2.790   0.465 -0.5732 -0.3421  0.0301
    1SOL     OW 1153   4.360   2.122   0.509 -0.4454  0.0847 -0.4653
    1SOL    HW2 1154   4.344   2.092   0.598 -1.4293  0.3468 -0.5446
    1SOL    HW3 1155   4.439   2.076   0.481 -0.6444 -0.6695  0.2193
    1SOL    MW4 1156   4.368   2.112   0.517 -0.6018  0.0196 -0.3855
    1SOL     OW 1157   3.354   3.875   0.846 -0.2209 -0.0365 -0.4110
    1SOL    HW2 1158   3.367   3.783   0.822  1.3459  0.1310 -0.2330
    1SOL    HW3 1159   3.345   3.873   0.941  0.9272  0.1104 -0.2946
    1SOL    MW4 1160   3.354   3.863   0.855  0.1373  0.0050 -0.3721
    1SOL     OW 1161   3.598   2.450   0.729 -0.4986 -0.4302 -0.0454
    1SOL    HW2 1162   3.591   2.541   0.757  0.0858 -0.5786  0.6090
    1SOL    HW3 1163   3.524   2.406   0.770 -1.0761 -0.1498 -0.7814
    1SOL    MW4 1164   3.588   2.456   0.738 -0.4978 -0.4127 -0.0561
    1SOL     OW 1165   0.000   3.469   0.853  0.0160 -0.0480  0.2296
    1SOL    HW2 1166   0.085   3.509   0.833 -0.0056  0.6430  1.4272
    1SOL    HW3 1167  -0.063   3.540   0.840 -0.3343 -0.4451 -0.2480
    1SOL    MW4 1168   0.003   3.483   0.849 -0.0331 -0.0091  0.3246
    1SOL     OW 1169   0.696   3.615   0.769 -0.3100 -0.4140 -0.5523
    1SOL    HW2 1170   0.616   3.567   0.791  0.0672 -0.7545  0.0976
    1SOL    HW3 1171   0.680   3.650   0.682 -1.4680  0.1422 -0.1348
    1SOL    MW4 1172   0.683   3.614   0.761 -0.4131 -0.3853 -0.4115
    1SOL     OW 1173   1.808   3.819   0.358  0.1754 -0.1681  0.1299
    1SOL    HW2 1174   1.764   3.899   0.385  0.7669 -0.2278  1.2629
    1SOL    HW3 1175   1.900   3.833   0.379  0.8024  0.0994 -2.5751
    1SOL    MW4 1176   1.814   3.831   0.364  0.3363 -0.1404 -0.0775
    1SOL     OW 1177   0.345   4.563   0.431 -0.1704  0.3041 -0.2969
    1SOL    HW2 1178   0.425   4.513   0.444 -0.4515 -0.0303  0.1309
    1SOL    HW3 1179   0.274   4.501   0.446 -0.5155  0.7301 -0.1388
    1SOL    MW4 1180   0.346   4.548   0.435 -0.2530  0.3157 -0.2196
    1SOL     OW 1181   0.406   4.253   0.844  0.0147  0.1362 -0.4727
    1SOL    HW2 1182   0.415   4.244   0.939 -0.5320 -0.5732 -0.4904
    1SOL    HW3 1183   0.319   4.289   0.831  0.2384  0.6043 -0.6858
    1SOL    MW4 1184   0.396   4.257   0.855 -0.0279  0.1044 -0.5031
    1SOL     OW 1185   0.642   4.416   0.784 -0.1893  0.0184  0.1056
    1SOL    HW2 1186   0.710   4.353   0.808  0.1537 -0.3467 -1.7552
    1SOL    HW3 1187   0.560   4.374   0.811  0.0548 -1.1094 -0.8704
    1SOL    MW4 1188   0.640   4.402   0.791 -0.1118 -0.1783 -0.2687
    1SOL     OW 1189   2.387   1.191   0.118  0.2918  0.1256  0.0835
    1SOL    HW2 1190   2.326   1.211   0.047  0.2726  0.0968  0.0920
    1SOL    HW3 1191   2.336   1.206   0.198  0.5881  1.0413  0.1029
    1SOL    MW4 1192   2.372   1.196   0.119  0.3285  0.2427  0.0872
    1SOL     OW 1193   1.801   1.125   0.871 -0.1228  0.0681  0.4684
    1SOL    HW2 1194   1.720   1.168   0.843  0.2320  1.5536  1.6527
    1SOL    HW3 1195   1.871   1.181   0.836  0.3611 -0.0926  1.1653
    1SOL    MW4 1196   1.800   1.138   0.863 -0.0120  0.2428  0.7165
    1SOL     OW 1197   1.613   0.471   0.308 -0.1310 -0.3642  0.0713
    1SOL    HW2 1198   1.707   0.489   0.301 -0.2372 -0.0650 -0.6368
    1SOL    HW3 1199   1.604   0.380   0.281  0.2234 -1.0737  2.2495
    1SOL    MW4 1200   1.624   0.461   0.303 -0.0982 -0.4184  0.2653
    1SOL     OW 1201   1.148   0.806   0.860 -0.0563 -0.3151 -0.1472
    1SOL    HW2 1202   1.142   0.785   0.953 -1.1721  0.4293 -0.0427
    1SOL    HW3 1203   1.134   0.723   0.815  1.0369 -0.7749  0.3562
    1SOL    MW4 1204   1.145   0.793   0.866 -0.0592 -0.2775 -0.0671
    1SOL     OW 1205   3.873   0.476   0.765 -0.5315 -0.3707  0.2696
    1SOL    HW2 1206   3.879   0.481   0.670 -0.4462 -1.2939  0.2171
    1SOL    HW3 1207   3.864   0.567   0.794 -1.2025 -0.1372 -0.6548
    1SOL    MW4 1208   3.873   0.489   0.757 -0.6089 -0.4617  0.1407
    1SOL     OW 1209   2.021   1.518   0.092 -0.1670  0.1668  0.8594
    1SOL    HW2 1210   1.962   1.593   0.086 -1.2012 -0.6835  0.1968
    1SOL    HW3 1211   2.088   1.545   0.155  0.3326  2.2149 -0.5166
    1SOL    MW4 1212   2.022   1.531   0.100 -0.2372  0.3248  0.5904
    1SOL     OW 1213   1.036   1.211   0.486 -0.1450  0.0081  0.3336
    1SOL    HW2 1214   0.942   1.231   0.483 -0.0063  0.9791  1.8888
    1SOL    HW3 1215   1.041   1.117   0.471 -1.5825 -0.5252  2.9584
    1SOL    MW4 1216   1.024   1.201   0.483 -0.3165  0.0658  0.8851
    1SOL     OW 1217   0.531   0.723   0.857 -0.0939  0.1230  0.1005
    1SOL    HW2 1218   0.589   0.740   0.783 -0.8771  0.7515 -0.3767
    1SOL    HW3 1219   0.503   0.632   0.846 -1.6414  0.7432 -1.4125
    1SOL    MW4 1220   0.535   0.713   0.846 -0.4014  0.2877 -0.1621
    1SOL     OW 1221   0.629   1.489   0.850  0.4194  0.5228  0.2717
    1SOL    HW2 1222   0.706   1.531   0.812  0.8158  0.2748  0.8017
    1SOL    HW3 1223   0.631   1.513   0.942 -0.5100  1.0689  0.1509
    1SOL    MW4 1224   0.639   1.498   0.857  0.3492  0.5622  0.3257
    1SOL     OW 1225   3.889   2.107   0.605 -0.1096  0.1330 -0.3742
    1SOL    HW2 1226   3.963   2.115   0.544 -0.1133  0.5365 -0.3245
    1SOL    HW3 1227   3.915   2.036   0.664 -0.2195 -0.4411 -1.0094
    1SOL    MW4 1228   3.902   2.098   0.605 -0.1247  0.1104 -0.4514
    1SOL     OW 1229   1.261   2.387   0.483 -0.1362  0.7113 -0.1518
    1SOL    HW2 1230   1.250   2.305   0.435 -0.2913  0.6277  0.0271
    1SOL    HW3 1231   1.175   2.427   0.483  0.3696  1.8241 -1.9566
    1SOL    MW4 1232   1.248   2.381   0.477 -0.0900  0.8469 -0.3663
    1SOL     OW 1233   2.924   0.482   0.725 -0.3590  0.1287 -0.0164
    1SOL    HW2 1234   2.924   0.564   0.775 -0.6438  0.4803 -0.5876
    1SOL    HW3 1235   2.999   0.434   0.759 -0.0990  0.6915  0.2200
    1SOL    MW4 1236   2.934   0.487   0.736 -0.3622  0.2493 -0.0606
    1SOL     OW 1237   3.152   3.750   0.453 -0.1185  0.0387  0.0285
    1SOL    HW2 1238   3.242   3.718   0.447 -0.1600 -0.3774  1.4589
    1SOL    HW3 1239   3.098   3.671   0.461 -0.5198  0.3159  0.1195
    1SOL    MW4 1240   3.157   3.735   0.454 -0.1769  0.0203  0.2293
    1SOL     OW 1241   0.147   4.351   0.790 -0.2562  0.0917 -1.0724
    1SOL    HW2 1242   0.134   4.436   0.833 -1.2487 -0.5257 -0.1405
    1SOL    HW3 1243   0.074   4.298   0.820  0.9489 -1.4414 -0.8222
    1SOL    MW4 1244   0.136   4.355   0.799 -0.2281 -0.1926 -0.9164
    1SOL     OW 1245   1.298   1.645   0.479  0.1578 -0.1141  0.3234
    1SOL    HW2 1246   1.288   1.550   0.488  1.0508 -0.2961 -0.4665
    1SOL    HW3 1247   1.209   1.679   0.473 -0.1436 -1.1949 -2.0497
    1SOL    MW4 1248   1.285   1.637   0.479  0.2359 -0.2806 -0.0939
    1SOL     OW 1249   1.075   0.217   0.409  0.2130 -0.4654  0.2202
    1SOL    HW2 1250   1.087   0.310   0.428  0.0876 -0.1533 -1.2064
    1SOL    HW3 1251   1.163   0.180   0.414  0.4088 -0.0693 -0.2504
    1SOL    MW4 1252   1.089   0.225   0.412  0.2222 -0.3719 -0.0301
    1SOL     OW 1253   0.359   2.107   0.370 -0.0002 -0.1413  0.0749
    1SOL    HW2 1254   0.404   2.025   0.348  0.2277  0.2911 -1.1003
    1SOL    HW3 1255   0.266   2.085   0.366  0.0677 -0.5738  0.6977
    1SOL    MW4 1256   0.353   2.093   0.366  0.0388 -0.1411  0.0020
    1SOL     OW 1257   1.329   2.930   0.167  0.3429 -0.3453 -0.7734
    1SOL    HW2 1258   1.370   2.844   0.157 -0.5511 -0.9321  0.5238
    1SOL    HW3 1259   1.299   2.932   0.258 -1.8773  0.3708 -1.4951
    1SOL    MW4 1260   1.331   2.919   0.178 -0.0681 -0.3281 -0.6975
    1SOL     OW 1261   2.444   1.357   0.515 -0.3420 -0.1903 -0.2965
    1SOL    HW2 1262   2.381   1.296   0.479 -1.4644  1.1597 -0.6609
    1SOL    HW3 1263   2.519   1.352   0.455 -1.2590  0.3232 -1.5124
    1SOL    MW4 1264   2.446   1.348   0.502 -0.6111  0.0556 -0.5050
    1SOL     OW 1265   3.009   4.387   0.394 -0.3304 -0.0848  0.3301
    1SOL    HW2 1266   2.989   4.473   0.356  0.7699  0.0185 -0.0358
    1SOL    HW3 1267   2.976   4.392   0.484 -1.6744  0.1677 -0.1683
    1SOL    MW4 1268   3.002   4.399   0.401 -0.3626 -0.0381  0.2161
    1SOL     OW 1269   3.396   3.629   0.734 -0.1254 -0.2608 -0.1266
    1SOL    HW2 1270   3.470   3.587   0.776 -0.5977 -1.2903 -0.2998
    1SOL    HW3 1271   3.320   3.580   0.765 -0.6834  0.4435 -0.3643
    1SOL    MW4 1272   3.395   3.617   0.744 -0.2611 -0.3037 -0.1808
    1SOL     OW 1273   4.360   1.624   0.511 -0.2920 -0.1188  0.5525
    1SOL    HW2 1274   4.384   1.534   0.485 -0.6186 -0.0385 -0.0340
    1SOL    HW3 1275   4.381   1.628   0.604  0.6971 -0.4901  0.3624
    1SOL    MW4 1276   4.366   1.613   0.520 -0.2046 -0.1571  0.4500
    1SOL     OW 1277   1.087   4.381   0.728  0.0982 -0.2746  0.0839
    1SOL    HW2 1278   1.069   4.395   0.635 -1.4370 -1.3386  0.2072
    1SOL    HW3 1279   1.109   4.468   0.762  2.6131 -0.1905 -1.6696
    1SOL    MW4 1280   1.087   4.394   0.720  0.2276 -0.4039 -0.1311
    1SOL     OW 1281   1.767   2.410   0.739  0.0456  0.0145  0.2106
    1SOL    HW2 1282   1.783   2.487   0.794 -0.1659 -0.1313  0.4776
    1SOL    HW3 1283   1.708   2.356   0.791  2.1248 -1.4943  1.0680
    1SOL    MW4 1284   1.761   2.413   0.753  0.2921 -0.2038  0.3590
    1SOL     OW 1285   1.584   4.645   0.847 -0.0493 -0.3389  0.3205
    1SOL    HW2 1286   1.584   4.642   0.942 -1.5882 -1.4707  0.3113
    1SOL    HW3 1287   1.581   4.553   0.820  0.1976 -0.0202 -0.8069
    1SOL    MW4 1288   1.584   4.632   0.856 -0.2197 -0.4463  0.1705
    1SOL     OW 1289   1.145   4.635   0.827 -0.4864 -0.8158  0.3267
    1SOL    HW2 1290   1.211   4.686   0.781  0.1616 -1.5456  0.4442
    1SOL    HW3 1291   1.062   4.678   0.805 -0.1820 -1.1014 -1.4203
    1SOL    MW4 1292   1.143   4.647   0.818 -0.3607 -0.9498  0.1116
    1SOL     OW 1293   1.339   0.376   0.846  0.1090 -0.3956  0.4570
    1SOL    HW2 1294   1.368   0.362   0.936  1.2015 -0.2954  0.1287
    1SOL    HW3 1295   1.416   0.411   0.801  0.4181 -3.0720 -1.1868
    1SOL    MW4 1296   1.353   0.379   0.852  0.2940 -0.7355  0.1967
    1SOL     OW 1297   1.523   0.500   0.681 -0.5252  0.2099  0.6462
    1SOL    HW2 1298   1.471   0.509   0.601 -0.3747  0.2708  0.5541
    1SOL    HW3 1299   1.546   0.589   0.705 -0.1548  0.1637  0.4794
    1SOL    MW4 1300   1.519   0.513   0.673 -0.4565  0.2118  0.6121
    1SOL     OW 1301   3.469   1.607   0.314  0.2474  0.3509 -0.6369
    1SOL    HW2 1302   3.494   1.642   0.229 -0.2239  1.7946 -0.1923
    1SOL    HW3 1303   3.395   1.661   0.342 -0.0391 -0.5441  0.3822
    1SOL    MW4 1304   3.462   1.618   0.307  0.1476  0.4233 -0.4438
    1SOL     OW 1305   0.928   0.922   0.744 -0.0410  0.3570  0.3425
    1SOL    HW2 1306   0.959   0.915   0.654  0.8021 -1.4249  0.7490
    1SOL    HW3 1307   1.003   0.895   0.797 -0.3805  1.8517  1.6104
    1SOL    MW4 1308   0.942   0.918   0.739  0.0254  0.3191  0.5634
    1SOL     OW 1309   1.327   1.199   0.832  0.2632  0.0242  0.1145
    1SOL    HW2 1310   1.333   1.166   0.922 -0.4646  0.1165  0.1993
    1SOL    HW3 1311   1.235   1.220   0.820  0.4843  0.7206 -0.4087
    1SOL    MW4 1312   1.316   1.198   0.842  0.1963  0.1283  0.0567
    1SOL     OW 1313   3.410   2.026   0.788 -0.2466  0.1127 -0.1270
    1SOL    HW2 1314   3.423   2.003   0.697 -1.0884 -0.1167 -0.1968
    1SOL    HW3 1315   3.496   2.018   0.828  0.5612  2.3052 -1.3524
    1SOL    MW4 1316   3.423   2.022   0.782 -0.2511  0.3719 -0.2980
    1SOL     OW 1317   0.849   3.490   0.206 -0.2146 -0.4886 -0.2413
    1SOL    HW2 1318   0.894   3.571   0.230 -0.4262 -0.8188  1.3388
    1SOL    HW3 1319   0.917   3.423   0.207 -0.1986 -0.4851 -0.7381
    1SOL    MW4 1320   0.864   3.492   0.209 -0.2404 -0.5317 -0.0984
    1SOL     OW 1321   3.682   1.299   0.443 -0.3521 -0.0211 -0.4112
    1SOL    HW2 1322   3.602   1.253   0.418 -1.1664  1.6725 -1.0252
    1SOL    HW3 1323   3.753   1.250   0.400 -1.4369  0.9085 -3.3636
    1SOL    MW4 1324   3.681   1.287   0.434 -0.6027  0.3251 -0.8818
    1SOL     OW 1325   1.771   1.364   0.416 -0.1236 -0.3372 -0.1526
    1SOL    HW2 1326   1.784   1.452   0.452 -0.3831 -0.4166  0.1341
    1SOL    HW3 1327   1.777   1.376   0.321 -1.3157  0.1779 -0.1734
    1SOL    MW4 1328   1.774   1.377   0.408 -0.3153 -0.2797 -0.1175
    1SOL     OW 1329   3.458   2.021   0.522 -0.5553 -0.0094 -0.2918
    1SOL    HW2 1330   3.542   2.023   0.477 -0.1906  1.9948  0.4253
    1SOL    HW3 1331   3.414   2.102   0.494 -1.7475 -0.4453  0.2760
    1SOL    MW4 1332   3.463   2.032   0.512 -0.6645  0.1976 -0.1223
    1SOL     OW 1333   3.624   3.767   0.373 -0.0926  0.0030  0.2468
    1SOL    HW2 1334   3.701   3.710   0.363 -0.1663 -0.2345  0.9947
    1SOL    HW3 1335   3.660   3.849   0.408  0.1091  0.6846 -1.4819
    1SOL    MW4 1336   3.639   3.770   0.376 -0.0758  0.0618  0.1174
    1SOL     OW 1337   1.150   3.660   0.779  0.2640 -0.1977  0.2260
    1SOL    HW2 1338   1.221   3.598   0.798  0.1001 -0.8046 -1.1147
    1SOL    HW3 1339   1.070   3.606   0.784 -0.0032  0.2255  0.5283
    1SOL    MW4 1340   1.149   3.645   0.782  0.2072 -0.2220  0.0889
    1SOL     OW 1341   0.859   2.615   0.812  0.1947 -0.7748 -0.0637
    1SOL    HW2 1342   0.873   2.635   0.904 -0.4812  0.0550 -0.1309
    1SOL    HW3 1343   0.791   2.677   0.784  1.3004 -0.1301 -1.4278
    1SOL    MW4 1344   0.852   2.626   0.820  0.2514 -0.5801 -0.2526
    1SOL     OW 1345   1.596   2.811   0.753  0.3508  0.1708 -0.2728
    1SOL    HW2 1346   1.588   2.904   0.775 -0.0035  0.2353 -0.6794
    1SOL    HW3 1347   1.511   2.774   0.774  0.3139  0.0464 -0.6443
    1SOL    MW4 1348   1.584   2.819   0.759  0.2992  0.1628 -0.3754
    1SOL     OW 1349   3.393   4.628   0.342  0.3355 -0.1635  0.4021
    1SOL    HW2 1350   3.311   4.672   0.366  0.8010  0.1514  1.4404
    1SOL    HW3 1351   3.381   4.603   0.250 -0.7481  0.2782  0.4178
    1SOL    MW4 1352   3.380   4.630   0.333  0.2539 -0.0639  0.5412
    1SOL     OW 1353   4.178   4.131   0.435 -0.8540  0.1780 -0.0679
    1SOL    HW2 1354   4.221   4.210   0.468  1.8336 -0.4544 -1.8213
    1SOL    HW3 1355   4.114   4.163   0.371 -1.9341  1.0736  1.4564
    1SOL    MW4 1356   4.175   4.146   0.431 -0.6418  0.2127 -0.0981
    1SOL     OW 1357   1.084   3.902   0.889 -0.2408 -0.0259 -0.3009
    1SOL    HW2 1358   1.105   3.816   0.853  1.3517 -0.0096  0.5258
    1SOL    HW3 1359   1.093   3.892   0.984 -3.8334  0.0841  0.1355
    1SOL    MW4 1360   1.088   3.890   0.897 -0.5047 -0.0093 -0.1343
    1SOL     OW 1361   4.040   4.253   0.885  0.3911 -0.4885 -0.0430
    1SOL    HW2 1362   3.959   4.292   0.851 -0.5600 -0.3601  2.2768
    1SOL    HW3 1363   4.109   4.312   0.856 -0.5760  0.5570 -0.2525
    1SOL    MW4 1364   4.038   4.266   0.876  0.1383 -0.3333  0.2354
    1SOL     OW 1365   2.265   3.242   0.803 -0.1055 -0.3976 -0.7877
    1SOL    HW2 1366   2.191   3.185   0.827 -1.5474  1.0681 -1.6599
    1SOL    HW3 1367   2.342   3.188   0.817 -1.3864 -2.2137 -0.5649
    1SOL    MW4 1368   2.265   3.227   0.808 -0.4647 -0.4439 -0.8734
    1SOL     OW 1369   2.237   1.646   0.735  0.0446  0.1166  0.0185
    1SOL    HW2 1370   2.315   1.604   0.770  1.0408  0.0438 -2.2224
    1SOL    HW3 1371   2.237   1.734   0.774  1.5728  0.3175 -0.4177
    1SOL    MW4 1372   2.247   1.652   0.745  0.3777  0.1335 -0.3347
    1SOL     OW 1373   2.032   4.374   0.705  0.0357  0.1086  0.1019
    1SOL    HW2 1374   2.018   4.341   0.616 -0.8356  0.5183  0.0847
    1SOL    HW3 1375   1.959   4.338   0.755  1.2778 -1.2499  0.9611
    1SOL    MW4 1376   2.020   4.365   0.700  0.0846 -0.0162  0.2130
    1SOL     OW 1377   2.163   3.973   0.433  0.0787 -0.0600 -0.3700
    1SOL    HW2 1378   2.247   4.002   0.397  0.0922  0.6528  0.2150
    1SOL    HW3 1379   2.168   3.878   0.431  0.6540 -0.0205 -0.9161
    1SOL    MW4 1380   2.175   3.964   0.428  0.1564  0.0396 -0.3648
    1SOL     OW 1381   2.439   4.637   0.831  0.4958 -0.1010  0.1183
    1SOL    HW2 1382   2.439   4.614   0.924  1.1252  0.5960  0.2949
    1SOL    HW3 1383   2.427   4.553   0.786 -0.7489 -0.3245  0.8454
    1SOL    MW4 1384   2.437   4.623   0.837  0.4146 -0.0381  0.2376
    1SOL     OW 1385   1.857   3.127   0.496 -0.0340 -0.2524  0.1877
    1SOL    HW2 1386   1.947   3.095   0.491 -0.8409 -2.7137  0.5889
    1SOL    HW3 1387   1.858   3.208   0.445  2.4769 -0.0461  0.4883
    1SOL    MW4 1388   1.869   3.133   0.488  0.1909 -0.5500  0.2803
    1SOL     OW 1389   1.751   0.382   0.768  0.0496 -0.5876  0.8679
    1SOL    HW2 1390   1.672   0.425   0.735 -0.1854 -0.7435  1.2258
    1SOL    HW3 1391   1.748   0.294   0.729  0.0441 -0.5973  0.8904
    1SOL    MW4 1392   1.740   0.376   0.758  0.0179 -0.6094  0.9181
    1SOL     OW 1393   3.470   4.353   0.422  0.2175  0.1226 -0.1742
    1SOL    HW2 1394   3.454   4.346   0.516 -0.3319  0.2128 -0.2621
    1SOL    HW3 1395   3.441   4.441   0.399 -0.4117 -0.1908 -0.5848
    1SOL    MW4 1396   3.464   4.364   0.432  0.0620  0.0935 -0.2399
    1SOL     OW 1397   3.418   3.950   0.459  0.5013 -0.4441 -0.0271
    1SOL    HW2 1398   3.481   4.015   0.491  0.1753  0.3532 -1.0242
    1SOL    HW3 1399   3.473   3.877   0.430  1.0150  0.5415 -1.5719
    1SOL    MW4 1400   3.434   3.949   0.460  0.5262 -0.2089 -0.3625
    1SOL     OW 1401   1.588   3.075   0.828  0.0827 -0.0523  0.2518
    1SOL    HW2 1402   1.586   3.074   0.924 -0.8112  1.3850  0.2583
    1SOL    HW3 1403   1.507   3.119   0.803 -0.3739 -1.6834 -1.2059
    1SOL    MW4 1404   1.577   3.081   0.837 -0.0955 -0.0780  0.0603
    1SOL     OW 1405   3.298   3.431   0.121 -0.4026 -0.2538 -0.2855
    1SOL    HW2 1406   3.241   3.381   0.064  0.1779  0.0450 -1.1488
    1SOL    HW3 1407   3.339   3.495   0.063  0.1344  0.1082  0.4838
    1SOL    MW4 1408   3.296   3.433   0.106 -0.2553 -0.1664 -0.2979
    1SOL     OW 1409   1.556   3.111   0.271  0.5128  0.1292 -0.0729
    1SOL    HW2 1410   1.620   3.042   0.290 -1.1586 -1.5585 -0.3865
    1SOL    HW3 1411   1.486   3.066   0.223 -0.2786  2.2063 -0.9187
    1SOL    MW4 1412   1.555   3.096   0.267  0.1879  0.1802 -0.2259
    1SOL     OW 1413   2.470   1.541   0.863  0.4882 -0.1474  0.3322
    1SOL    HW2 1414   2.488   1.457   0.820 -1.3421  0.0255 -0.8386
    1SOL    HW3 1415   2.536   1.600   0.827 -0.8488 -0.0722 -2.1176
    1SOL    MW4 1416   2.481   1.537   0.852  0.0701 -0.1148 -0.1455
    1SOL     OW 1417   4.039   3.977   0.808  0.3279  0.0914  0.2987
    1SOL    HW2 1418   4.127   3.940   0.811  0.5803  0.7458  0.9321
    1SOL    HW3 1419   4.051   4.070   0.826 -0.2343  0.6263 -1.9247
    1SOL    MW4 1420   4.052   3.985   0.811  0.2875  0.2487  0.0889
    1SOL     OW 1421   1.470   2.541   0.404 -0.1117  0.0162  0.3984
    1SOL    HW2 1422   1.396   2.485   0.429  0.8982 -1.3722  0.3485
    1SOL    HW3 1423   1.462   2.552   0.309 -0.0038 -0.5107  0.3275
    1SOL    MW4 1424   1.459   2.535   0.395  0.0358 -0.2365  0.3825
    1SOL     OW 1425   3.694   1.579   0.500 -0.0488  0.1330 -0.2257
    1SOL    HW2 1426   3.705   1.489   0.469  0.7362 -0.1597  0.8485
    1SOL    HW3 1427   3.620   1.614   0.450 -1.5748 -1.7206  0.7056
    1SOL    MW4 1428   3.686   1.572   0.489 -0.1464 -0.1502  0.0389
    1SOL     OW 1429   1.508   2.048   0.481  0.3227 -0.0050 -0.2755
    1SOL    HW2 1430   1.580   2.099   0.443  0.5853 -0.2323 -0.0832
    1SOL    HW3 1431   1.522   1.959   0.449 -1.0301  0.3362 -1.9020
    1SOL    MW4 1432   1.520   2.043   0.472  0.1789  0.0100 -0.4647
    1SOL     OW 1433   3.588   1.084   0.839  0.6109 -0.1903  0.2075
    1SOL    HW2 1434   3.580   0.991   0.817 -0.5395 -0.2837  1.0120
    1SOL    HW3 1435   3.576   1.088   0.933 -0.3590  0.8954  0.0418
    1SOL    MW4 1436   3.585   1.072   0.848  0.3312 -0.0594  0.2918
    1SOL     OW 1437   1.077   4.145   0.387 -0.4089 -0.3916  0.1871
    1SOL    HW2 1438   0.997   4.093   0.385  0.4773 -1.7465 -0.3447
    1SOL    HW3 1439   1.143   4.086   0.421 -0.1582  1.4920  3.1344
    1SOL    MW4 1440   1.075   4.131   0.391 -0.2588 -0.3219  0.5058
    1SOL     OW 1441   1.049   2.042   0.796  0.3069 -0.2452 -0.5178
    1SOL    HW2 1442   0.978   1.992   0.835  0.4356 -0.8613 -1.0619
    1SOL    HW3 1443   1.129   1.998   0.824  0.5119  0.8153  0.6085
    1SOL    MW4 1444   1.051   2.030   0.805  0.3508 -0.1867 -0.4410
    1SOL     OW 1445   3.459   0.443   0.484 -0.1906  0.0021  0.5168
    1SOL    HW2 1446   3.491   0.357   0.458 -0.1729  0.6672 -1.8110
    1SOL    HW3 1447   3.365   0.440   0.468  0.0646  0.9773 -1.3693
    1SOL    MW4 1448   3.451   0.431   0.479 -0.1547  0.2186 -0.0391
    1SOL     OW 1449   2.768   2.894   0.466  0.4548 -0.0556  0.1680
    1SOL    HW2 1450   2.686   2.844   0.468 -0.5762  1.5918  0.2712
    1SOL    HW3 1451   2.823   2.848   0.402 -0.3043 -1.5411  0.5617
    1SOL    MW4 1452   2.765   2.881   0.458  0.2186 -0.0341  0.2335
    1SOL     OW 1453   1.782   3.462   0.818  0.4540  0.3909  0.5646
    1SOL    HW2 1454   1.802   3.462   0.912 -1.4628 -0.0162  0.9906
    1SOL    HW3 1455   1.789   3.370   0.793 -2.3301 -0.0054  1.0708
    1SOL    MW4 1456   1.786   3.449   0.827 -0.1663  0.2851  0.6876
    1SOL     OW 1457   0.404   2.829   0.483  0.2416  0.6340  0.0272
    1SOL    HW2 1458   0.360   2.846   0.567  0.2463 -0.3236  0.2265
    1SOL    HW3 1459   0.419   2.916   0.446 -0.8608  1.0047  0.4537
    1SOL    MW4 1460   0.401   2.843   0.490  0.0968  0.5565  0.1098
    1SOL     OW 1461   1.773   1.378   0.143  0.2347  0.0630  0.0872
    1SOL    HW2 1462   1.720   1.456   0.126  1.4435  0.7818 -0.4595
    1SOL    HW3 1463   1.863   1.406   0.126  0.8222 -1.0672  1.2557
    1SOL    MW4 1464   1.778   1.392   0.138  0.4717  0.0086  0.1692
    1SOL     OW 1465   0.898   0.360   0.832 -0.5774 -0.0541 -0.0362
    1SOL    HW2 1466   0.907   0.269   0.804 -0.0982 -0.1965  0.5701
    1SOL    HW3 1467   0.903   0.356   0.927 -0.7745  0.5856  0.0022
    1SOL    MW4 1468   0.900   0.347   0.841 -0.5402  0.0115  0.0489
    1SOL     OW 1469   4.397   3.945   0.378  0.0991 -0.0656  0.0364
    1SOL    HW2 1470   4.320   4.002   0.388  0.6246  0.6376  0.1210
    1SOL    HW3 1471   4.403   3.929   0.284 -1.9959 -2.7144  0.2994
    1SOL    MW4 1472   4.388   3.950   0.367 -0.1087 -0.3223  0.0823
    1SOL     OW 1473   1.778   4.511   0.342  0.1967 -0.4707  0.1110
    1SOL    HW2 1474   1.812   4.593   0.379 -1.0492 -0.0496  0.3435
    1SOL    HW3 1475   1.693   4.535   0.305  0.0186 -1.5728 -0.2040
    1SOL    MW4 1476   1.771   4.525   0.342  0.0088 -0.5603  0.1001
    1SOL     OW 1477   0.118   1.992   0.473 -0.0215 -0.0443  0.0766
    1SOL    HW2 1478   0.109   1.898   0.455  1.0038 -0.1477  0.0733
    1SOL    HW3 1479   0.144   1.996   0.565 -1.6783  0.3224  0.5459
    1SOL    MW4 1480   0.120   1.980   0.483 -0.1048 -0.0095  0.1381
    1SOL     OW 1481   2.278   0.333   1.088  0.2415 -0.3330 -0.3056
    1SOL    HW2 1482   2.286   0.331   0.993 -0.8795 -1.9647 -0.3864
    1SOL    HW3 1483   2.198   0.382   1.105  0.9584  0.7959 -0.1591
    1SOL    MW4 1484   2.269   0.339   1.078  0.1881 -0.3994 -0.2970
    1SOL     OW 1485   4.316   0.530   0.753  0.0596 -0.3568 -0.1248
    1SOL    HW2 1486   4.302   0.525   0.658 -0.0040  0.6844 -0.1790
    1SOL    HW3 1487   4.381   0.463   0.771  0.5523 -0.1339 -1.0101
    1SOL    MW4 1488   4.323   0.521   0.743  0.1159 -0.1901 -0.2487
    1SOL     OW 1489   2.724   0.624   0.150 -0.0488 -0.0915 -0.2860
    1SOL    HW2 1490   2.789   0.653   0.214 -0.4733 -0.3791  0.2867
    1SOL    HW3 1491   2.682   0.705   0.120  0.4687  0.0800 -0.5424
    1SOL    MW4 1492   2.727   0.639   0.154 -0.0362 -0.1068 -0.2442
    1SOL     OW 1493   2.690   1.401   0.374  0.2476 -0.5135 -0.1659
    1SOL    HW2 1494   2.658   1.402   0.284  0.1531  0.0743 -0.1251
    1SOL    HW3 1495   2.755   1.330   0.375  0.2797 -0.4971 -0.7016
    1SOL    MW4 1496   2.695   1.391   0.362  0.2396 -0.4339 -0.2312
    1SOL     OW 1497   2.491   1.266   0.771 -0.3585  0.1969  0.1187
    1SOL    HW2 1498   2.484   1.298   0.681 -1.0658 -0.9830 -0.2536
    1SOL    HW3 1499   2.412   1.213   0.783 -1.5010  2.2676  2.2113
    1SOL    MW4 1500   2.480   1.263   0.760 -0.6025  0.3144  0.3457
    1SOL     OW 1501   2.228   1.117   0.813  0.0177 -0.6017  0.2928
    1SOL    HW2 1502   2.211   1.028   0.781  0.3933 -1.0594  1.3691
    1SOL    HW3 1503   2.242   1.107   0.907  2.7828  0.2371  0.0071
    1SOL    MW4 1504   2.227   1.104   0.821  0.4323 -0.5515  0.3971
    1SOL     OW 1505   1.569   1.543   0.851  0.2666  0.2407  0.3530
    1SOL    HW2 1506   1.553   1.549   0.946 -0.0015  0.8625  0.2724
    1SOL    HW3 1507   1.577   1.449   0.834  2.7693  0.2210  1.3951
    1SOL    MW4 1508   1.568   1.532   0.862  0.5615  0.3203  0.4799
    1SOL     OW 1509   3.131   0.894   0.773  0.2125 -0.0816  0.2493
    1SOL    HW2 1510   3.194   0.847   0.827  0.2482  1.2798  1.4316
    1SOL    HW3 1511   3.142   0.986   0.797 -2.6301  0.1474  0.9554
    1SOL    MW4 1512   3.140   0.900   0.783 -0.1578  0.1283  0.4984
    1SOL     OW 1513   1.388   0.574   0.455 -0.3599  0.4366 -0.8722
    1SOL    HW2 1514   1.460   0.561   0.393 -0.3978 -1.1304 -0.6013
    1SOL    HW3 1515   1.391   0.667   0.476  2.1436  0.2359 -0.2068
    1SOL    MW4 1516   1.398   0.585   0.450 -0.0347  0.2034 -0.7486
    1SOL     OW 1517   2.234   1.907   0.843 -0.2452 -0.4126 -0.0137
    1SOL    HW2 1518   2.158   1.952   0.805  0.5513 -0.0486 -1.2084
    1SOL    HW3 1519   2.309   1.945   0.798  0.6009 -1.3193  0.6100
    1SOL    MW4 1520   2.234   1.918   0.832 -0.0286 -0.4841 -0.0890
    1SOL     OW 1521   2.133   3.704   0.451 -0.3654 -0.1917 -0.1400
    1SOL    HW2 1522   2.072   3.683   0.522 -0.3681  1.3857  0.3410
    1SOL    HW3 1523   2.154   3.619   0.412 -1.8289 -0.8884  0.5429
    1SOL    MW4 1524   2.128   3.690   0.456 -0.5586 -0.0753  0.0135
    1SOL     OW 1525   3.338   2.929   0.446  0.4887 -0.2490 -0.2379
    1SOL    HW2 1526   3.252   2.963   0.422  0.5247 -1.2603 -1.8691
    1SOL    HW3 1527   3.325   2.890   0.533 -0.2079  1.3706  0.4126
    1SOL    MW4 1528   3.325   2.928   0.454  0.4017 -0.1688 -0.3673
    1SOL     OW 1529   2.219   2.426   0.741 -0.8375 -0.3386  0.1599
    1SOL    HW2 1530   2.138   2.386   0.773  0.1691 -0.6827  2.3250
    1SOL    HW3 1531   2.215   2.516   0.772 -0.0428 -0.5626  0.9220
    1SOL    MW4 1532   2.208   2.433   0.749 -0.5996 -0.4137  0.5461
    1SOL     OW 1533   2.242   2.695   0.850  0.1924 -0.2407 -0.9645
    1SOL    HW2 1534   2.251   2.687   0.945  1.6142  1.7311 -0.9077
    1SOL    HW3 1535   2.320   2.743   0.822 -0.9820  0.5856 -2.9377
    1SOL    MW4 1536   2.253   2.701   0.859  0.2248  0.1285 -1.2174
    1SOL     OW 1537   1.708   4.093   0.455 -0.0830 -0.0399 -0.2255
    1SOL    HW2 1538   1.659   4.176   0.457  0.0092 -0.0142  1.2408
    1SOL    HW3 1539   1.706   4.062   0.545 -0.7157 -2.0095 -0.9025
    1SOL    MW4 1540   1.702   4.100   0.467 -0.1543 -0.2961 -0.1214
    1SOL     OW 1541   1.801   4.256   0.821  0.3662  0.2432  0.2966
    1SOL    HW2 1542   1.795   4.247   0.916  0.1485 -1.6713  0.1358
    1SOL    HW3 1543   1.763   4.174   0.787 -1.1485  1.6299 -1.4709
    1SOL    MW4 1544   1.795   4.244   0.829  0.1376  0.1736  0.0421
    1SOL     OW 1545   2.264   3.269   0.529  0.0597 -0.0623 -0.2237
    1SOL    HW2 1546   2.276   3.279   0.623  1.0239 -0.3422 -0.3173
    1SOL    HW3 1547   2.214   3.188   0.520 -0.4059  0.1910  0.0676
    1SOL    MW4 1548   2.259   3.260   0.540  0.1259 -0.0658 -0.1976
    1SOL     OW 1549   2.980   2.819   0.283  0.7638 -0.3460 -0.2624
    1SOL    HW2 1550   2.949   2.779   0.202 -0.1341 -0.1914  0.0014
    1SOL    HW3 1551   3.056   2.767   0.308  1.0749 -0.3618 -1.2292
    1SOL    MW4 1552   2.986   2.807   0.276  0.6864 -0.3276 -0.3552
    1SOL     OW 1553   1.517   3.512   0.260 -0.1498  0.2855 -0.3282
    1SOL    HW2 1554   1.575   3.448   0.218  1.0839  0.7641  0.5946
    1SOL    HW3 1555   1.534   3.593   0.213  0.4789  0.5889  0.4013
    1SOL    MW4 1556   1.527   3.514   0.249  0.0958  0.3886 -0.1102
    1SOL     OW 1557   1.740   4.000   0.710  0.4432  0.2624  0.1936
    1SOL    HW2 1558   1.829   3.974   0.734  0.9149  1.0348 -0.6970
    1SOL    HW3 1559   1.683   3.946   0.765  1.4774  0.8420  1.8388
    1SOL    MW4 1560   1.744   3.989   0.720  0.6419  0.4406  0.2931
    1SOL     OW 1561   3.157   3.985   0.693 -0.1088 -0.2295 -0.7758
    1SOL    HW2 1562   3.071   3.960   0.726 -0.0523 -0.2538 -0.6497
    1SOL    HW3 1563   3.219   3.936   0.747  0.0327  0.8434  0.0477
    1SOL    MW4 1564   3.154   3.975   0.704 -0.0825 -0.0908 -0.6505
    1SOL     OW 1565   2.200   2.166   0.381 -0.6175 -0.2471 -0.1848
    1SOL    HW2 1566   2.284   2.121   0.368  0.0613  1.2235 -1.0843
    1SOL    HW3 1567   2.225   2.258   0.396 -2.0978  0.3241 -1.1421
    1SOL    MW4 1568   2.214   2.173   0.382 -0.7234  0.0222 -0.4298
    1SOL     OW 1569   2.240   1.218   0.371  0.5182  0.2617  0.1361
    1SOL    HW2 1570   2.156   1.258   0.392  1.0491  0.0946  2.7318
    1SOL    HW3 1571   2.229   1.125   0.392  1.0566  0.0623 -0.4264
    1SOL    MW4 1572   2.228   1.211   0.376  0.6592  0.2134  0.4043
    1SOL     OW 1573   2.905   0.748   0.808  0.2654 -0.5047 -0.0272
    1SOL    HW2 1574   2.884   0.758   0.901 -0.8447  0.1940 -0.3264
    1SOL    HW3 1575   2.980   0.806   0.794 -0.6079  0.6987  0.1091
    1SOL    MW4 1576   2.912   0.757   0.818  0.0041 -0.2538 -0.0486
    1SOL     OW 1577   2.975   4.072   0.430 -0.4731 -0.1130 -0.0030
    1SOL    HW2 1578   2.938   4.157   0.409 -0.2143 -0.1412 -0.5875
    1SOL    HW3 1579   2.900   4.013   0.434 -0.6291  0.0968  0.1930
    1SOL    MW4 1580   2.960   4.075   0.428 -0.4597 -0.0887 -0.0543
    1SOL     OW 1581   2.475   0.770   0.715  0.0902  0.2042  0.2706
    1SOL    HW2 1582   2.556   0.820   0.708 -1.0238  1.9018 -0.6882
    1SOL    HW3 1583   2.478   0.710   0.640  1.1432 -0.7855  1.0853
    1SOL    MW4 1584   2.486   0.768   0.704  0.0823  0.2975  0.2516
    1SOL     OW 1585   1.867   0.928   0.494  0.6337  0.2144  0.5012
    1SOL    HW2 1586   1.834   0.894   0.577 -0.6190 -0.1222 -0.1222
    1SOL    HW3 1587   1.931   0.863   0.465 -1.8610 -1.7354 -0.7623
    1SOL    MW4 1588   1.871   0.915   0.501  0.1392 -0.0873  0.2523
    1SOL     OW 1589   2.892   0.757   0.353  0.2450 -0.0829  0.2342
    1SOL    HW2 1590   2.974   0.793   0.387 -0.2238 -0.9800  2.4198
    1SOL    HW3 1591   2.828   0.826   0.369  0.7209  1.0060 -2.3599
    1SOL    MW4 1592   2.894   0.771   0.359  0.2460 -0.0575  0.1803
    1SOL     OW 1593   1.053   2.801   0.460 -0.0488  0.2728  0.1782
    1SOL    HW2 1594   0.988   2.856   0.418 -0.5662 -0.6187 -0.1937
    1SOL    HW3 1595   1.135   2.849   0.450 -0.6362  1.3966  0.6416
    1SOL    MW4 1596   1.055   2.815   0.453 -0.1947  0.3035  0.1903
    1SOL     OW 1597   3.196   2.651   0.347 -0.3090  0.1107 -0.2511
    1SOL    HW2 1598   3.180   2.577   0.406 -1.0287  2.0022  1.9925
    1SOL    HW3 1599   3.291   2.651   0.334 -0.3154 -1.2547 -0.3289
    1SOL    MW4 1600   3.207   2.641   0.353 -0.4048  0.1802  0.0347
    1SOL     OW 1601   2.701   1.685   0.728 -0.0606 -0.4674 -0.0028
    1SOL    HW2 1602   2.720   1.680   0.635  1.6126  0.5806  0.2494
    1SOL    HW3 1603   2.692   1.779   0.745  0.0417 -0.6237  0.9584
    1SOL    MW4 1604   2.702   1.697   0.718  0.1736 -0.3496  0.1572
    1SOL     OW 1605   3.136   1.686   0.745  0.3010  0.3483 -0.0441
    1SOL    HW2 1606   3.108   1.695   0.654  1.5035  1.2624 -0.3358
    1SOL    HW3 1607   3.135   1.776   0.779 -3.5783 -0.3225  1.9045
    1SOL    MW4 1608   3.132   1.699   0.738 -0.0522  0.3804  0.1745
    1SOL     OW 1609   0.049   0.162   0.595 -0.4410 -0.2751 -0.4200
    1SOL    HW2 1610  -0.027   0.134   0.543  0.2224 -0.7326 -1.1495
    1SOL    HW3 1611   0.011   0.211   0.668 -1.4664 -0.9241 -0.5082
    1SOL    MW4 1612   0.034   0.165   0.597 -0.4888 -0.4211 -0.5279
    1SOL     OW 1613   1.711   2.442   0.471  0.0779  0.0132 -0.6309
    1SOL    HW2 1614   1.707   2.434   0.566  1.1536  1.6072 -0.4417
    1SOL    HW3 1615   1.620   2.457   0.444 -0.0919  0.5744  0.2393
    1SOL    MW4 1616   1.698   2.443   0.480  0.1974  0.2973 -0.4911
    1SOL     OW 1617   2.726   1.119   0.842  0.5010 -0.2847  0.4647
    1SOL    HW2 1618   2.782   1.182   0.797  0.5716  0.3935  1.4883
    1SOL    HW3 1619   2.638   1.158   0.838  0.6880  0.3063  1.8484
    1SOL    MW4 1620   2.722   1.132   0.835  0.5350 -0.1172  0.7823
    1SOL     OW 1621   2.876   2.305   0.864  0.1358 -0.2509  0.0215
    1SOL    HW2 1622   2.890   2.304   0.959  0.0689  0.4500  0.0398
    1SOL    HW3 1623   2.900   2.217   0.836 -0.1676 -0.5698  0.7366
    1SOL    MW4 1624   2.881   2.293   0.873  0.0870 -0.2003  0.1183
    1SOL     OW 1625   3.103   2.458   0.769 -0.4855  0.0847  0.0856
    1SOL    HW2 1626   3.031   2.406   0.803 -1.2549  1.4011  0.5110
    1SOL    HW3 1627   3.182   2.408   0.792 -1.1894 -0.7385  0.7340
    1SOL    MW4 1628   3.104   2.445   0.777 -0.6797  0.1497  0.2272
    1SOL     OW 1629   2.632   2.682   0.828  0.5381  0.6458 -0.5126
    1SOL    HW2 1630   2.710   2.729   0.800  2.1420 -0.8877  1.2289
    1SOL    HW3 1631   2.635   2.686   0.924 -2.3188  1.8128 -0.4333
    1SOL    MW4 1632   2.643   2.689   0.837  0.3729  0.5972 -0.2723
    1SOL     OW 1633   1.078   1.258   0.759 -0.2536  0.0660 -0.2321
    1SOL    HW2 1634   1.001   1.216   0.798  0.2317 -0.6750 -0.0570
    1SOL    HW3 1635   1.067   1.246   0.665 -0.2416 -0.2372 -0.1963
    1SOL    MW4 1636   1.066   1.251   0.752 -0.1879 -0.0718 -0.2043
    1SOL     OW 1637   1.552   1.232   0.490  0.4539  0.4691  0.3371
    1SOL    HW2 1638   1.618   1.286   0.446 -0.2594  0.3204 -0.9309
    1SOL    HW3 1639   1.565   1.144   0.455 -0.4452  0.4478  0.0533
    1SOL    MW4 1640   1.563   1.228   0.480  0.2413  0.4467  0.1324
    1SOL     OW 1641   2.488   3.078   0.839 -0.3205 -0.1191  0.3924
    1SOL    HW2 1642   2.564   3.123   0.802 -0.5285 -0.0303  0.0698
    1SOL    HW3 1643   2.498   3.088   0.933 -0.0276  0.0521  0.3448
    1SOL    MW4 1644   2.499   3.085   0.846 -0.3095 -0.0849  0.3436
    1SOL     OW 1645   2.691   3.479   0.856 -0.1980  0.4595  0.3082
    1SOL    HW2 1646   2.772   3.520   0.824 -0.3757 -0.5069 -1.4035
    1SOL    HW3 1647   2.706   3.469   0.951  1.8124  0.0197 -0.0259
    1SOL    MW4 1648   2.704   3.483   0.865  0.0436  0.2739  0.0382
    1SOL     OW 1649   2.917   3.600   0.764  0.0800  0.1927  0.0583
    1SOL    HW2 1650   3.004   3.575   0.795 -0.1914  1.3944  1.8986
    1SOL    HW3 1651   2.915   3.695   0.775 -1.3561  0.2074 -0.2648
    1SOL    MW4 1652   2.929   3.609   0.770 -0.1452  0.3533  0.2585
    1SOL     OW 1653   2.492   2.787   0.447 -0.2148  0.2695 -0.2448
    1SOL    HW2 1654   2.463   2.796   0.538 -0.1692  0.6420 -0.2648
    1SOL    HW3 1655   2.498   2.693   0.433  2.1268  0.2066  0.8915
    1SOL    MW4 1656   2.489   2.776   0.457  0.1001  0.3104 -0.0975
    1SOL     OW 1657   0.602   4.413   0.477  0.0528 -0.4799 -0.4071
    1SOL    HW2 1658   0.641   4.407   0.565 -0.0773  1.2957 -0.2026
    1SOL    HW3 1659   0.676   4.433   0.419 -0.1001  0.0083 -0.4406
    1SOL    MW4 1660   0.617   4.415   0.481  0.0155 -0.1812 -0.3845
    1SOL     OW 1661   2.680   4.014   0.707 -0.0669 -0.1774 -0.0889
    1SOL    HW2 1662   2.673   4.107   0.729  0.4341 -0.3749  0.9499
    1SOL    HW3 1663   2.602   3.975   0.747 -0.2974 -0.1999 -0.5600
    1SOL    MW4 1664   2.668   4.021   0.715 -0.0315 -0.2069 -0.0140
    1SOL     OW 1665   2.911   1.286   0.712 -0.1988 -0.0962 -0.1613
    1SOL    HW2 1666   2.901   1.368   0.761  0.6365 -0.4714  0.6581
    1SOL    HW3 1667   2.984   1.241   0.756 -0.2151 -0.9721 -1.0218
    1SOL    MW4 1668   2.919   1.291   0.724 -0.0906 -0.2613 -0.1668
    1SOL     OW 1669   2.009   0.478   0.736 -0.4519  0.2195  0.1109
    1SOL    HW2 1670   1.923   0.438   0.745 -0.9976  1.7770  2.0755
    1SOL    HW3 1671   1.999   0.565   0.775  1.7449  0.8011 -0.5668
    1SOL    MW4 1672   1.996   0.484   0.742 -0.2341  0.5018  0.2806
    1SOL     OW 1673   2.433   0.573   0.528 -0.1943  0.4374  0.0385
    1SOL    HW2 1674   2.442   0.556   0.434 -0.4807 -0.2620  0.1328
    1SOL    HW3 1675   2.469   0.495   0.570  2.2901  1.8093  0.5669
    1SOL    MW4 1676   2.439   0.561   0.521  0.0954  0.5262  0.1207
    1SOL     OW 1677   1.044   2.009   0.510 -0.1787  0.3172  0.3520
    1SOL    HW2 1678   1.117   2.053   0.467 -0.4288  0.3108 -0.0775
    1SOL    HW3 1679   1.064   2.018   0.604 -1.2147  3.1083  0.3662
    1SOL    MW4 1680   1.056   2.016   0.517 -0.3484  0.6845  0.2972
    1SOL     OW 1681   3.140   0.332   0.833 -0.1918  0.8246  0.0129
    1SOL    HW2 1682   3.127   0.348   0.926 -0.3941 -0.2442  0.1740
    1SOL    HW3 1683   3.215   0.386   0.810 -0.3526  1.3547  0.7226
    1SOL    MW4 1684   3.148   0.341   0.842 -0.2398  0.7535  0.1277
    1SOL     OW 1685   3.150   2.083   0.327 -0.5726  0.1660 -0.0175
    1SOL    HW2 1686   3.176   2.002   0.284 -1.6040 -0.0656 -0.2208
    1SOL    HW3 1687   3.229   2.137   0.327  0.4773 -1.3331  1.2926
    1SOL    MW4 1688   3.164   2.080   0.321 -0.5701 -0.0625  0.1285
    1SOL     OW 1689   2.509   0.319   0.657  0.3268  0.3378 -0.7800
    1SOL    HW2 1690   2.437   0.335   0.718 -0.2323  1.6747 -1.7643
    1SOL    HW3 1691   2.587   0.315   0.713 -0.3773 -0.1956  0.1917
    1SOL    MW4 1692   2.510   0.320   0.672  0.1602  0.4439 -0.7817
    1SOL     OW 1693   3.806   4.345   0.760 -0.0286  0.1903  0.6840
    1SOL    HW2 1694   3.736   4.286   0.789 -1.0922  0.8352 -0.5234
    1SOL    HW3 1695   3.812   4.329   0.666 -0.0536  1.7328  0.4197
    1SOL    MW4 1696   3.797   4.335   0.752 -0.1719  0.4792  0.4899
    1SOL     OW 1697   3.356   1.523   0.821  0.4681 -0.6351  0.6856
    1SOL    HW2 1698   3.277   1.574   0.802 -0.8660 -2.4350  1.3329
    1SOL    HW3 1699   3.350   1.504   0.915  1.5366 -1.0337  0.6789
    1SOL    MW4 1700   3.345   1.527   0.831  0.4330 -0.9252  0.7702
    1SOL     OW 1701   2.205   0.856   0.703  0.0417  0.0640  0.3423
    1SOL    HW2 1702   2.182   0.888   0.616  1.3509 -0.5138 -0.2319
    1SOL    HW3 1703   2.296   0.830   0.695 -0.0609 -0.7251  1.6894
    1SOL    MW4 1704   2.214   0.857   0.690  0.2010 -0.1164  0.4443
    1SOL     OW 1705   3.603   0.807   0.774 -0.2713  0.2824 -0.1102
    1SOL    HW2 1706   3.612   0.752   0.696  0.4427 -1.0312  0.8715
    1SOL    HW3 1707   3.680   0.786   0.827 -0.6965  1.2244  0.9035
    1SOL    MW4 1708   3.615   0.797   0.771 -0.2329  0.2334  0.1531
    1SOL     OW 1709   3.369   2.268   0.441 -0.3357  0.1037  0.0623
    1SOL    HW2 1710   3.297   2.326   0.467 -0.9944 -0.5898 -0.2155
    1SOL    HW3 1711   3.443   2.327   0.428 -0.7077  0.7628  0.8765
    1SOL    MW4 1712   3.369   2.284   0.443 -0.4716  0.0989  0.1331
    1SOL     OW 1713   1.534   3.867   0.848 -0.0107  0.0100 -0.1026
    1SOL    HW2 1714   1.448   3.899   0.818 -1.1319 -1.8257  1.0583
    1SOL    HW3 1715   1.552   3.792   0.792  1.4344  1.0983 -1.1359
    1SOL    MW4 1716   1.525   3.861   0.836  0.0321 -0.0887 -0.0858
    1SOL     OW 1717   3.876   0.196   0.394  0.4081  0.4201  0.0188
    1SOL    HW2 1718   3.881   0.288   0.421  1.3249  0.2423  0.4528
    1SOL    HW3 1719   3.783   0.174   0.405 -0.1658  1.7906 -1.7353
    1SOL    MW4 1720   3.864   0.206   0.399  0.4535  0.5775 -0.1554
    1SOL     OW 1721   3.492   2.683   0.373  0.0096  0.3039 -0.1818
    1SOL    HW2 1722   3.578   2.679   0.332 -0.1948  0.0149 -0.5809
    1SOL    HW3 1723   3.491   2.767   0.419  1.0180 -0.2807  0.9437
    1SOL    MW4 1724   3.503   2.693   0.374  0.1156  0.1884 -0.0859
    1SOL     OW 1725   2.860   2.852   0.727  0.3312  0.0458  0.0906
    1SOL    HW2 1726   2.930   2.788   0.732 -0.7570 -1.1754 -0.0351
    1SOL    HW3 1727   2.859   2.880   0.636  2.0785  1.7088  0.5612
    1SOL    MW4 1728   2.869   2.847   0.716  0.4182  0.1040  0.1361
    1SOL     OW 1729   1.778   1.693   0.758  0.0754  0.0053  0.1283
    1SOL    HW2 1730   1.704   1.639   0.785 -0.2238  1.1417  1.6543
    1SOL    HW3 1731   1.855   1.640   0.777 -0.3327 -1.3310 -1.7999
    1SOL    MW4 1732   1.778   1.679   0.764 -0.0179 -0.0211  0.0753
    1SOL     OW 1733   1.360   3.210   0.467  0.0999  0.0415 -0.3918
    1SOL    HW2 1734   1.328   3.293   0.432  0.0494 -0.2914 -1.1354
    1SOL    HW3 1735   1.438   3.192   0.417  1.3378  0.7115  1.2327
    1SOL    MW4 1736   1.366   3.219   0.456  0.2567  0.0861 -0.2756
    1SOL     OW 1737   3.125   3.245   0.750  0.3107 -0.1462  0.0885
    1SOL    HW2 1738   3.053   3.202   0.796  0.3486 -0.6047 -0.2801
    1SOL    HW3 1739   3.100   3.243   0.658  0.5200  0.2190  0.0226
    1SOL    MW4 1740   3.112   3.239   0.744  0.3433 -0.1585  0.0312
    1SOL     OW 1741   3.176   3.510   0.832  0.0421  0.1478  0.1814
    1SOL    HW2 1742   3.157   3.422   0.798  0.1333  0.0243  0.4486
    1SOL    HW3 1743   3.174   3.500   0.927  0.9023  0.2541  0.2150
    1SOL    MW4 1744   3.173   3.497   0.840  0.1676  0.1454  0.2211
    1SOL     OW 1745   3.398   3.611   0.465  0.4506 -0.5467  0.2566
    1SOL    HW2 1746   3.405   3.617   0.561 -0.2463 -0.2330  0.2908
    1SOL    HW3 1747   3.475   3.657   0.433 -0.0522  0.6039  0.6539
    1SOL    MW4 1748   3.409   3.618   0.474  0.2923 -0.3538  0.3135
    1SOL     OW 1749   3.631   3.967   0.744  0.5253 -0.0138 -0.6088
    1SOL    HW2 1750   3.550   3.929   0.778  1.0371 -0.4164  0.1760
    1SOL    HW3 1751   3.700   3.925   0.795  1.2273  0.3664 -1.2368
    1SOL    MW4 1752   3.629   3.956   0.755  0.6852 -0.0165 -0.5881
    1SOL     OW 1753   4.305   0.526   0.484  0.6667  0.3392 -0.1296
    1SOL    HW2 1754   4.397   0.554   0.480  0.9825 -0.4988  1.1512
    1SOL    HW3 1755   4.307   0.435   0.455  0.3105  0.1764  0.3515
    1SOL    MW4 1756   4.318   0.517   0.480  0.6614  0.2071  0.1029
    1SOL     OW 1757   3.150   4.250   0.791  0.1359 -0.2596  0.1231
    1SOL    HW2 1758   3.070   4.282   0.749 -0.7982 -0.5449  1.6436
    1SOL    HW3 1759   3.161   4.161   0.758 -0.7111 -0.5580  0.6180
    1SOL    MW4 1760   3.141   4.243   0.781 -0.0992 -0.3371  0.3891
    1SOL     OW 1761   2.706   0.976   0.404 -0.4700  0.2093  0.1021
    1SOL    HW2 1762   2.707   0.949   0.496 -0.9937 -1.0096 -0.2471
    1SOL    HW3 1763   2.755   1.058   0.403  0.4985 -0.3464  1.2804
    1SOL    MW4 1764   2.712   0.983   0.416 -0.4113 -0.0249  0.2115
    1SOL     OW 1765   1.983   1.534   0.847 -0.5100 -0.5231  0.6901
    1SOL    HW2 1766   1.981   1.443   0.815  0.3534 -0.7435  1.2329
    1SOL    HW3 1767   2.069   1.566   0.821 -0.7988  0.1266  0.5435
    1SOL    MW4 1768   1.994   1.526   0.840 -0.4342 -0.4665  0.7424
    1SOL     OW 1769   3.139   0.075   0.700 -0.2606 -0.0260 -0.0452
    1SOL    HW2 1770   3.133   0.158   0.748  0.3232 -0.0480  0.0614
    1SOL    HW3 1771   3.216   0.031   0.735 -0.0248 -0.1992 -0.7573
    1SOL    MW4 1772   3.148   0.080   0.711 -0.1526 -0.0517 -0.1252
    1SOL     OW 1773   3.593   0.348   0.850  0.0854  0.1931  0.2175
    1SOL    HW2 1774   3.680   0.376   0.822  0.1506 -0.5353 -0.3248
    1SOL    HW3 1775   3.592   0.362   0.944 -0.0875  2.5572 -0.1000
    1SOL    MW4 1776   3.604   0.353   0.858  0.0710  0.4089  0.1040
    1SOL     OW 1777   0.659   0.494   0.730  0.1637  0.4784  0.3771
    1SOL    HW2 1778   0.577   0.448   0.752  0.9189 -0.9078  0.3642
    1SOL    HW3 1779   0.727   0.440   0.769  1.2812 -0.0308 -2.1939
    1SOL    MW4 1780   0.657   0.481   0.738  0.4108  0.2283  0.0362
    1SOL     OW 1781   3.839   0.731   0.878 -0.1519  0.5174  0.2704
    1SOL    HW2 1782   3.841   0.738   0.973  1.1352 -0.8728  0.3601
    1SOL    HW3 1783   3.915   0.780   0.848  1.0278 -1.3290  0.1404
    1SOL    MW4 1784   3.849   0.738   0.887  0.1738  0.0904  0.2651
    1SOL     OW 1785   1.534   1.771   0.407 -0.1334  0.1888  0.4369
    1SOL    HW2 1786   1.458   1.717   0.427  0.2269  0.1817  1.8051
    1SOL    HW3 1787   1.607   1.728   0.451  0.7172  0.0442 -1.0994
    1SOL    MW4 1788   1.534   1.758   0.415  0.0265  0.1687  0.4147
    1SOL     OW 1789   3.780   1.511   0.849  0.2978 -0.3682  0.2603
    1SOL    HW2 1790   3.795   1.431   0.799  0.8362 -0.6761  0.9175
    1SOL    HW3 1791   3.703   1.551   0.808 -0.2803 -1.4840  0.2518
    1SOL    MW4 1792   3.772   1.506   0.837  0.2925 -0.5560  0.3458
    1SOL     OW 1793   2.653   2.252   0.480 -0.2310  0.2865  0.1624
    1SOL    HW2 1794   2.747   2.245   0.463 -0.2742 -0.1746  0.1072
    1SOL    HW3 1795   2.647   2.284   0.570 -0.0231  0.4618  0.1160
    1SOL    MW4 1796   2.665   2.256   0.489 -0.2093  0.2487  0.1490
    1SOL     OW 1797   4.290   2.811   0.753 -0.0414 -0.6353 -0.1330
    1SOL    HW2 1798   4.381   2.784   0.764  0.5772  0.7346 -1.8150
    1SOL    HW3 1799   4.286   2.898   0.792 -0.7058 -0.7872  0.1439
    1SOL    MW4 1800   4.301   2.819   0.760 -0.0472 -0.4745 -0.3184
    1SOL     OW 1801   1.113   0.520   0.775 -0.2014  0.1307  0.0270
    1SOL    HW2 1802   1.183   0.465   0.808  1.2483  1.4060 -0.8442
    1SOL    HW3 1803   1.033   0.470   0.791  0.6988 -0.4882  2.8276
    1SOL    MW4 1804   1.112   0.506   0.781  0.1085  0.2173  0.2816
    1SOL     OW 1805   3.598   2.444   0.455 -0.3266  0.1928 -0.1631
    1SOL    HW2 1806   3.592   2.444   0.550  0.7446 -0.5828 -0.0857
    1SOL    HW3 1807   3.547   2.520   0.427 -0.9253  0.2279  1.0061
    1SOL    MW4 1808   3.590   2.454   0.464 -0.2642  0.0954  0.0014
    1SOL     OW 1809   3.395   2.306   0.831  0.3913  0.0880 -0.2445
    1SOL    HW2 1810   3.413   2.309   0.925 -0.7890 -1.0990  0.0419
    1SOL    HW3 1811   3.391   2.213   0.810  0.8789  0.3456 -1.5273
    1SOL    MW4 1812   3.397   2.294   0.840  0.2999 -0.0348 -0.3760
    1SOL     OW 1813   3.821   2.302   1.106  0.2223 -0.1966 -0.5133
    1SOL    HW2 1814   3.901   2.349   1.128  0.3743 -0.9201  0.5613
    1SOL    HW3 1815   3.823   2.294   1.011  1.3363 -0.0488 -0.5128
    1SOL    MW4 1816   3.832   2.307   1.097  0.3896 -0.2725 -0.3716
    1SOL     OW 1817   1.741   2.177   0.352  0.3697  0.2359 -0.1453
    1SOL    HW2 1818   1.746   2.263   0.394  0.3925 -0.2911  0.9378
    1SOL    HW3 1819   1.810   2.126   0.394  1.4205  0.1616 -1.9080
    1SOL    MW4 1820   1.751   2.182   0.363  0.5112  0.1564 -0.2350
    1SOL     OW 1821   3.599   2.716   0.815 -0.1432  0.5957  0.3282
    1SOL    HW2 1822   3.598   2.730   0.910  1.9945 -1.9043  0.7663
    1SOL    HW3 1823   3.679   2.758   0.786 -0.1306  0.2123 -0.1843
    1SOL    MW4 1824   3.609   2.723   0.824  0.1404  0.2155  0.3184
    1SOL     OW 1825   1.847   3.379   0.370  0.4198 -0.1075 -0.0211
    1SOL    HW2 1826   1.799   3.358   0.290  0.4412  1.2874 -0.4113
    1SOL    HW3 1827   1.800   3.453   0.407 -0.5425 -1.7326  2.1253
    1SOL    MW4 1828   1.834   3.386   0.364  0.2956 -0.1378  0.2106
    1SOL     OW 1829   3.813   3.119   0.843 -0.1590 -0.7294  0.2024
    1SOL    HW2 1830   3.750   3.174   0.798 -0.8730 -0.9263  0.9496
    1SOL    HW3 1831   3.811   3.036   0.796  0.7846 -0.1814 -0.8116
    1SOL    MW4 1832   3.804   3.115   0.831 -0.1287 -0.6831  0.1673
    1SOL     OW 1833   3.852   2.419   0.412  0.3112  0.1382 -0.0958
    1SOL    HW2 1834   3.861   2.335   0.366  1.3304  0.9579 -1.4751
    1SOL    HW3 1835   3.758   2.430   0.424  0.1065 -0.7217 -0.8265
    1SOL    MW4 1836   3.841   2.409   0.407  0.4187  0.1328 -0.3742
    1SOL     OW 1837   3.605   3.247   0.690 -0.0456 -0.1659  0.3614
    1SOL    HW2 1838   3.611   3.232   0.596  2.5292 -0.4609  0.5163
    1SOL    HW3 1839   3.524   3.205   0.717 -0.2249 -1.0749 -1.5588
    1SOL    MW4 1840   3.595   3.240   0.681  0.2706 -0.3247  0.1285
    1SOL     OW 1841   3.995   3.907   0.515  0.0953  0.1006 -0.0830
    1SOL    HW2 1842   4.045   3.968   0.460 -0.7805  2.2440  1.4480
    1SOL    HW3 1843   4.016   3.932   0.605 -1.0066 -1.2710  0.5825
    1SOL    MW4 1844   4.004   3.918   0.519 -0.1659  0.2024  0.2068
    1SOL     OW 1845   3.859   3.610   0.708  0.1362 -0.2636 -0.2299
    1SOL    HW2 1846   3.928   3.569   0.762 -0.1531 -1.1592 -0.5372
    1SOL    HW3 1847   3.897   3.615   0.620  0.1535  0.0968 -0.2040
    1SOL    MW4 1848   3.873   3.605   0.704  0.1001 -0.3343 -0.2671
    1SOL     OW 1849   0.612   1.877   0.415  0.6494 -0.2642  0.5014
    1SOL    HW2 1850   0.678   1.808   0.418 -1.4704 -2.4260 -0.4632
    1SOL    HW3 1851   0.535   1.837   0.456 -0.7729  1.3480 -0.5400
    1SOL    MW4 1852   0.610   1.862   0.421  0.1821 -0.3368  0.2367
    1SOL     OW 1853   2.215   3.520   0.820 -0.1113  0.3061 -0.3660
    1SOL    HW2 1854   2.232   3.427   0.803 -2.0697 -0.1732  0.1798
    1SOL    HW3 1855   2.289   3.566   0.779  0.1882 -1.4084 -1.7917
    1SOL    MW4 1856   2.227   3.514   0.812 -0.3300  0.0167 -0.4821
    1SOL     OW 1857   1.045   4.408   0.439  0.3970 -0.5653  0.5442
    1SOL    HW2 1858   1.037   4.316   0.416 -0.9101 -0.5082  0.6971
    1SOL    HW3 1859   0.965   4.448   0.403  1.4637  0.7028 -0.4664
    1SOL    MW4 1860   1.033   4.401   0.431  0.3653 -0.3910  0.4310
    1SOL     OW 1861   4.312   4.660   0.876  0.2823  0.2027 -0.1775
    1SOL    HW2 1862   4.287   4.679   0.966  1.4958 -0.1380  0.2392
    1SOL    HW3 1863   4.250   4.710   0.823  0.0839  1.0590  0.8490
    1SOL    MW4 1864   4.301   4.669   0.881  0.4163  0.2704  0.0130
    1SOL     OW 1865   3.597   0.118   0.721 -0.1018  0.1425 -0.0125
    1SOL    HW2 1866   3.593   0.198   0.774 -0.8152 -0.7445  1.3012
    1SOL    HW3 1867   3.651   0.058   0.772 -1.4986 -1.0169  0.1542
    1SOL    MW4 1868   3.604   0.121   0.735 -0.3803 -0.1275  0.1828
    1SOL     OW 1869   4.133   0.100   0.262 -0.0850 -0.4795  0.2253
    1SOL    HW2 1870   4.121   0.064   0.174  0.4028 -0.5865  0.2002
    1SOL    HW3 1871   4.049   0.140   0.283 -0.4260 -1.0725 -0.0072
    1SOL    MW4 1872   4.120   0.100   0.253 -0.0648 -0.5718  0.1913
    1SOL     OW 1873   0.050   2.682   0.822 -0.1899 -0.5739  0.3655
    1SOL    HW2 1874   0.048   2.690   0.918  1.6227 -0.6174  0.4383
    1SOL    HW3 1875   0.131   2.728   0.797 -0.8340 -0.2667 -1.1803
    1SOL    MW4 1876   0.061   2.689   0.832 -0.0358 -0.5391  0.1711
    1SOL     OW 1877   4.363   0.801   0.839 -0.1646 -0.3850  0.1536
    1SOL    HW2 1878   4.323   0.802   0.926 -1.8167 -0.3046 -0.5932
    1SOL    HW3 1879   4.342   0.714   0.805  1.9166 -1.0409  0.4712
    1SOL    MW4 1880   4.355   0.790   0.846 -0.1082 -0.4610  0.0970
    1SOL     OW 1881   4.160   3.261   0.507  0.0668 -0.1709  0.1318
    1SOL    HW2 1882   4.116   3.178   0.492 -0.7326  0.4276 -1.0032
    1SOL    HW3 1883   4.253   3.239   0.511  0.0436 -0.8643 -2.3236
    1SOL    MW4 1884   4.166   3.247   0.505 -0.0415 -0.1833 -0.3420
    1SOL     OW 1885   1.321   1.653   0.760  0.0415 -0.3087 -0.1081
    1SOL    HW2 1886   1.400   1.601   0.777 -0.4285 -1.2552 -0.7932
    1SOL    HW3 1887   1.307   1.645   0.665 -1.4150 -0.9434  0.1440
    1SOL    MW4 1888   1.330   1.645   0.750 -0.2127 -0.5174 -0.1652
    1SOL     OW 1889   2.246   4.233   0.794  0.3363 -0.0664 -0.1931
    1SOL    HW2 1890   2.173   4.283   0.757  0.6747  1.1465  0.7623
    1SOL    HW3 1891   2.235   4.145   0.756 -2.5537 -0.3523  1.1472
    1SOL    MW4 1892   2.235   4.228   0.784 -0.0002  0.0558  0.1098
    1SOL     OW 1893   4.201   1.488   0.838 -0.3523  0.3330 -0.0978
    1SOL    HW2 1894   4.225   1.398   0.816 -2.4379 -0.2979  0.1633
    1SOL    HW3 1895   4.209   1.492   0.933  1.8171  1.0711 -0.2667
    1SOL    MW4 1896   4.205   1.477   0.848 -0.3414  0.3471 -0.0856
    1SOL     OW 1897   0.867   1.141   0.894 -0.4869 -0.1466  0.0439
    1SOL    HW2 1898   0.784   1.176   0.863 -1.6256 -1.0113  2.0370
    1SOL    HW3 1899   0.880   1.061   0.842 -1.2840 -0.4091  0.2366
    1SOL    MW4 1900   0.858   1.135   0.883 -0.7423 -0.2953  0.3323
    1SOL     OW 1901   0.805   4.542   0.321  0.0105 -0.1851 -0.1628
    1SOL    HW2 1902   0.822   4.620   0.374 -2.7133  0.3260  0.0296
    1SOL    HW3 1903   0.828   4.568   0.232  0.1184  0.4714  0.0533
    1SOL    MW4 1904   0.811   4.556   0.316 -0.3346 -0.0310 -0.1089
    1SOL     OW 1905   4.069   3.237   0.772  0.0330  0.1011  0.2821
    1SOL    HW2 1906   3.990   3.183   0.769 -1.0333  1.6693 -0.7395
    1SOL    HW3 1907   4.096   3.245   0.681  1.7790 -0.9934  0.6945
    1SOL    MW4 1908   4.062   3.231   0.760  0.1230  0.1636  0.2018
    1SOL     OW 1909   0.171   2.354   1.141  0.0044  0.0177  0.1713
    1SOL    HW2 1910   0.103   2.395   1.193  0.5612 -0.1869  1.0833
    1SOL    HW3 1911   0.250   2.404   1.162  0.1756  0.1216 -0.7147
    1SOL    MW4 1912   0.173   2.366   1.151  0.1005  0.0043  0.1746
    1SOL     OW 1913   1.973   3.868   0.814 -0.0271 -0.4192  0.3543
    1SOL    HW2 1914   1.984   3.843   0.906 -0.2555 -0.3506  0.3985
    1SOL    HW3 1915   1.960   3.785   0.768 -0.0213 -0.4444  0.3980
    1SOL    MW4 1916   1.973   3.853   0.820 -0.0564 -0.4137  0.3659
    1SOL     OW 1917   3.829   2.868   0.731 -0.1224 -0.0388  0.4280
    1SOL    HW2 1918   3.909   2.816   0.742 -0.6404 -0.8005  0.6542
    1SOL    HW3 1919   3.819   2.879   0.637  0.6748  0.7428  0.4211
    1SOL    MW4 1920   3.838   2.863   0.720 -0.0856 -0.0362  0.4569
    1SOL     OW 1921   0.847   1.881   0.872  0.0208  0.3801 -0.2567
    1SOL    HW2 1922   0.781   1.940   0.835 -0.3555 -1.2942 -2.3795
    1SOL    HW3 1923   0.848   1.901   0.966 -2.5196  1.3926 -0.4110
    1SOL    MW4 1924   0.838   1.891   0.879 -0.3640  0.2928 -0.5572
    1SOL     OW 1925   2.047   0.744   0.367 -0.6401  0.3264 -0.2594
    1SOL    HW2 1926   1.980   0.708   0.310  0.7410  0.5346 -2.0765
    1SOL    HW3 1927   2.102   0.669   0.390 -1.0639  0.2818  0.6539
    1SOL    MW4 1928   2.046   0.729   0.363 -0.5138  0.3480 -0.3787
    1SOL     OW 1929   3.733   1.982   0.424  0.2552  0.2106 -0.4767
    1SOL    HW2 1930   3.771   1.898   0.401  0.7841  0.4353 -0.4419
    1SOL    HW3 1931   3.789   2.016   0.494  0.2848  0.7646 -0.7602
    1SOL    MW4 1932   3.746   1.976   0.430  0.3290  0.3134 -0.5095
    1SOL     OW 1933   3.621   3.491   0.815 -0.0990  0.4306 -0.0447
    1SOL    HW2 1934   3.695   3.531   0.770  0.9154 -0.0657  1.1696
    1SOL    HW3 1935   3.606   3.409   0.768  0.2552  0.4234 -0.1413
    1SOL    MW4 1936   3.629   3.485   0.803  0.0815  0.3643  0.1028
    1SOL     OW 1937   4.288   3.849   0.831  0.3840 -0.2528 -0.0173
    1SOL    HW2 1938   4.272   3.759   0.804  1.0967  0.1319 -1.8103
    1SOL    HW3 1939   4.286   3.847   0.927 -1.5644 -1.7965 -0.0660
    1SOL    MW4 1940   4.285   3.837   0.840  0.2208 -0.4055 -0.2602
    1SOL     OW 1941   0.419   0.971   0.473  0.3255  1.2224  0.2510
    1SOL    HW2 1942   0.509   0.947   0.452 -0.0008  1.0486 -0.9915
    1SOL    HW3 1943   0.409   0.949   0.566  1.1292 -0.0756  0.0417
    1SOL    MW4 1944   0.430   0.965   0.483  0.3885  1.0282  0.0594
    1SOL     OW 1945   3.837   3.829   0.888  0.7428 -0.1647  0.5000
    1SOL    HW2 1946   3.915   3.880   0.868  0.5219 -0.1787 -0.4430
    1SOL    HW3 1947   3.847   3.748   0.838  0.7874 -0.7629  1.4818
    1SOL    MW4 1948   3.848   3.825   0.879  0.7198 -0.2456  0.5052
    1SOL     OW 1949   3.949   0.020   0.585 -0.0013 -0.3166 -0.1148
    1SOL    HW2 1950   4.007  -0.040   0.538  1.1280  0.4089  0.3107
    1SOL    HW3 1951   3.924   0.085   0.520  0.6930  0.0739 -0.0073
    1SOL    MW4 1952   3.954   0.021   0.571  0.2394 -0.1693 -0.0445
    1SOL     OW 1953   3.796   4.621   0.821  0.0581 -0.5568  0.1747
    1SOL    HW2 1954   3.794   4.528   0.797 -0.6317 -0.3438 -0.6110
    1SOL    HW3 1955   3.842   4.663   0.749  1.1801 -0.3942  0.9579
    1SOL    MW4 1956   3.802   4.614   0.809  0.1152 -0.5069  0.1743
    1SOL     OW 1957   0.185   4.640   1.165 -0.4599 -0.4965  0.5745
    1SOL    HW2 1958   0.267   4.687   1.183 -0.3798 -0.5833  0.4448
    1SOL    HW3 1959   0.177   4.644   1.069  0.1900 -1.8140  0.4556
    1SOL    MW4 1960   0.195   4.647   1.154 -0.3636 -0.6819  0.5417
    1SOL     OW 1961   4.489   0.111   1.278 -0.2792 -0.0467  0.0725
    1SOL    HW2 1962   4.415   0.056   1.252 -0.3064  0.4128 -0.8245
    1SOL    HW3 1963   4.564   0.073   1.233  0.0586 -0.5548  1.0366
    1SOL    MW4 1964   4.489   0.099   1.269 -0.2381 -0.0531  0.0814
    1SOL     OW 1965   4.482   0.332   1.100 -0.2419  0.1722 -0.0146
    1SOL    HW2 1966   4.410   0.388   1.129  0.3056  0.4714  0.7912
    1SOL    HW3 1967   4.483   0.260   1.163 -0.1528 -0.0909 -0.3185
    1SOL    MW4 1968   4.472   0.330   1.112 -0.1578  0.1770  0.0516
    1SOL     OW 1969   0.188   0.504   1.270  0.0606 -0.0022 -0.2251
    1SOL    HW2 1970   0.171   0.583   1.219 -0.1661 -0.9583 -1.6594
    1SOL    HW3 1971   0.136   0.436   1.228  2.8375 -1.6684 -1.0826
    1SOL    MW4 1972   0.179   0.506   1.258  0.3971 -0.3482 -0.5276
    1SOL     OW 1973   0.169   0.737   1.124 -0.0058  0.3293 -0.3564
    1SOL    HW2 1974   0.252   0.781   1.141  0.0790 -0.3398  1.0131
    1SOL    HW3 1975   0.103   0.794   1.166 -0.1460  0.3914 -0.6608
    1SOL    MW4 1976   0.171   0.751   1.132 -0.0131  0.2491 -0.2159
    1SOL     OW 1977   4.485   0.917   1.267  0.1745 -0.1350 -0.1367
    1SOL    HW2 1978   4.494   0.913   1.362  1.2764  0.0335 -0.2313
    1SOL    HW3 1979   4.475   1.010   1.247 -0.5318 -0.2113 -0.1458
    1SOL    MW4 1980   4.485   0.928   1.277  0.2270 -0.1228 -0.1503
    1SOL     OW 1981   4.446   1.160   1.146  0.1167  0.2338  0.1560
    1SOL    HW2 1982   4.371   1.199   1.191  0.5030  0.1995  0.8256
    1SOL    HW3 1983   4.522   1.208   1.178  0.4504 -0.1581 -0.0449
    1SOL    MW4 1984   4.446   1.171   1.156  0.2117  0.1775  0.2177
    1SOL     OW 1985   0.179   1.287   1.258 -0.0357 -0.0128  0.1518
    1SOL    HW2 1986   0.183   1.287   1.354  0.5674 -0.2700  0.1292
    1SOL    HW3 1987   0.258   1.241   1.231  0.4709  1.2357 -0.5051
    1SOL    MW4 1988   0.190   1.281   1.267  0.1107  0.1180  0.0621
    1SOL     OW 1989   0.223   1.527   1.143  0.4961  0.4034  0.2089
    1SOL    HW2 1990   0.212   1.442   1.186  1.7664  0.1641  0.0857
    1SOL    HW3 1991   0.204   1.509   1.050  1.2975  0.1283  0.0940
    1SOL    MW4 1992   0.219   1.513   1.136  0.7695  0.3356  0.1774
    1SOL     OW 1993   0.003   1.650   1.274  0.3118 -0.1179 -0.1737
    1SOL    HW2 1994   0.013   1.741   1.245  0.0920  0.0916  0.4004
    1SOL    HW3 1995   0.083   1.607   1.244 -0.2301 -0.0772 -1.7345
    1SOL    MW4 1996   0.015   1.657   1.266  0.2112 -0.0849 -0.3039
    1SOL     OW 1997   0.004   1.900   1.156  0.4307  0.2500  0.0902
    1SOL    HW2 1998  -0.073   1.939   1.197 -0.2112 -2.1494  1.2399
    1SOL    HW3 1999  -0.017   1.897   1.063 -2.0094 -2.7610  0.6744
    1SOL    MW4 2000  -0.009   1.904   1.149  0.0238 -0.4637  0.3189
    1SOL     OW 2001   0.205   2.081   1.239 -0.3349  0.0658 -0.2932
    1SOL    HW2 2002   0.195   2.173   1.214  0.0965  0.0510 -0.5321
    1SOL    HW3 2003   0.128   2.038   1.202 -1.3508  0.6034  1.1725
    1SOL    MW4 2004   0.194   2.088   1.231 -0.4120  0.1349 -0.1314
    1SOL     OW 2005   0.247   2.279   0.876  0.2690  0.0050  0.4702
    1SOL    HW2 2006   0.167   2.317   0.839 -0.7714 -0.6539  2.0098
    1SOL    HW3 2007   0.242   2.299   0.969  1.0970 -1.4920  0.8440
    1SOL    MW4 2008   0.236   2.287   0.883  0.2410 -0.2792  0.7226
    1SOL     OW 2009   4.447   2.486   1.273 -0.4739 -0.3215 -0.2235
    1SOL    HW2 2010   4.431   2.480   1.367 -1.7071  0.0081 -0.4087
    1SOL    HW3 2011   4.391   2.419   1.235 -0.7366  0.2338 -0.8100
    1SOL    MW4 2012   4.438   2.477   1.281 -0.6714 -0.2048 -0.3253
    1SOL     OW 2013   4.478   2.708   1.101  0.1529 -0.2694 -0.0596
    1SOL    HW2 2014   4.406   2.760   1.137  1.3315  0.8306  0.7481
    1SOL    HW3 2015   4.489   2.636   1.163  0.5158  0.2158  0.4433
    1SOL    MW4 2016   4.470   2.705   1.114  0.3562 -0.0606  0.1132
    1SOL     OW 2017   0.233   2.845   1.189  0.0920  0.0113  0.1509
    1SOL    HW2 2018   0.227   2.853   1.284  0.9305 -2.7748  0.4812
    1SOL    HW3 2019   0.146   2.818   1.161  0.1989 -0.4795  0.2888
    1SOL    MW4 2020   0.221   2.842   1.198  0.2168 -0.4210  0.2126
    1SOL     OW 2021   0.250   3.103   1.120 -0.1061 -0.1703  0.1810
    1SOL    HW2 2022   0.330   3.137   1.159 -0.4517  0.4702  0.3383
    1SOL    HW3 2023   0.241   3.015   1.157 -1.2217  0.9555  2.7688
    1SOL    MW4 2024   0.259   3.096   1.130 -0.2989  0.0629  0.5431
    1SOL     OW 2025   0.025   3.230   1.259 -0.3066  0.8745 -0.4163
    1SOL    HW2 2026  -0.046   3.181   1.218 -0.9894  1.7145 -0.2563
    1SOL    HW3 2027   0.105   3.193   1.221 -0.8330  0.0930 -0.7819
    1SOL    MW4 2028   0.027   3.218   1.249 -0.4661  0.8819 -0.4433
    1SOL     OW 2029   0.010   3.484   1.125  0.1961 -0.5405 -0.3641
    1SOL    HW2 2030   0.011   3.400   1.170  0.5642 -0.0875  0.5001
    1SOL    HW3 2031   0.004   3.462   1.032 -0.3779 -1.5008 -0.1069
    1SOL    MW4 2032   0.009   3.470   1.119  0.1689 -0.6075 -0.2161
    1SOL     OW 2033   0.238   3.597   1.238 -0.3757 -0.2173 -0.1373
    1SOL    HW2 2034   0.220   3.609   1.331  0.4884 -1.7632  0.2468
    1SOL    HW3 2035   0.156   3.562   1.202 -1.1554  1.6623 -0.2436
    1SOL    MW4 2036   0.225   3.594   1.246 -0.3646 -0.1736 -0.1006
    1SOL     OW 2037   0.233   3.854   1.163 -0.1121 -0.0610 -0.2115
    1SOL    HW2 2038   0.155   3.900   1.194 -0.4412  0.0587 -1.1808
    1SOL    HW3 2039   0.220   3.763   1.189 -0.1893  0.1125  0.3546
    1SOL    MW4 2040   0.221   3.848   1.171 -0.1657 -0.0224 -0.2648
    1SOL     OW 2041   4.478   3.952   1.242  0.1691  0.2459  0.1388
    1SOL    HW2 2042   4.464   3.960   1.337 -0.5238  2.4504 -0.1330
    1SOL    HW3 2043   4.395   3.919   1.208  0.6105 -1.1119  0.3632
    1SOL    MW4 2044   4.465   3.949   1.250  0.1359  0.3576  0.1326
    1SOL     OW 2045   4.468   4.237   1.172 -0.2882 -0.0373  0.1064
    1SOL    HW2 2046   4.551   4.274   1.200 -0.8717  1.7543 -0.4716
    1SOL    HW3 2047   4.469   4.148   1.206  1.7634  0.0360  0.3002
    1SOL    MW4 2048   4.479   4.230   1.180 -0.0944  0.2089  0.0557
    1SOL     OW 2049   0.192   4.378   1.255 -0.1809  0.0567 -0.2637
    1SOL    HW2 2050   0.192   4.387   1.350  0.9373 -0.9223 -0.1612
    1SOL    HW3 2051   0.186   4.468   1.222  0.5557  0.4781  0.7241
    1SOL    MW4 2052   0.191   4.391   1.263  0.0638 -0.0167 -0.1198
    1SOL     OW 2053   0.651   0.041   1.123  0.6424 -0.1937  0.1972
    1SOL    HW2 2054   0.737   0.070   1.154  0.8921  0.2394 -0.8850
    1SOL    HW3 2055   0.646  -0.051   1.149  0.1915  0.5696  2.9003
    1SOL    MW4 2056   0.662   0.033   1.130  0.6158 -0.0359  0.4109
    1SOL     OW 2057   0.382   0.161   1.194 -0.6124  0.1870 -0.4489
    1SOL    HW2 2058   0.383   0.251   1.162  0.3800  0.6583  0.8254
    1SOL    HW3 2059   0.467   0.125   1.169 -0.8333 -0.2500 -0.5767
    1SOL    MW4 2060   0.394   0.168   1.187 -0.5106  0.1915 -0.2977
    1SOL     OW 2061   2.485   1.642   0.141  0.0032 -0.4109  0.0941
    1SOL    HW2 2062   2.488   1.696   0.062  0.6552  1.5468  1.4235
    1SOL    HW3 2063   2.393   1.646   0.169 -0.5601 -2.3505 -1.3683
    1SOL    MW4 2064   2.473   1.649   0.134  0.0148 -0.4085  0.0766
    1SOL     OW 2065   0.695   0.518   1.202  0.0028 -0.1978 -0.2722
    1SOL    HW2 2066   0.698   0.612   1.188  0.3137 -0.3974 -1.5977
    1SOL    HW3 2067   0.607   0.492   1.176  0.7959 -0.6679 -2.5970
    1SOL    MW4 2068   0.684   0.527   1.197  0.1484 -0.2862 -0.7538
    1SOL     OW 2069   0.658   0.784   1.113  0.0420  0.2066 -0.2520
    1SOL    HW2 2070   0.572   0.810   1.147  0.6865  1.6393  0.3439
    1SOL    HW3 2071   0.642   0.768   1.020 -0.6444  1.6562 -0.4022
    1SOL    MW4 2072   0.644   0.786   1.105  0.0364  0.5869 -0.1931
    1SOL     OW 2073   0.399   0.887   1.206 -0.0040  0.2135  0.2575
    1SOL    HW2 2074   0.401   0.890   1.302 -2.6579 -3.4917  0.5147
    1SOL    HW3 2075   0.390   0.978   1.179 -0.4620  1.2048  3.5750
    1SOL    MW4 2076   0.398   0.900   1.215 -0.4146 -0.1445  0.7291
    1SOL     OW 2077   0.394   1.141   1.136  0.1361 -0.2757  0.2343
    1SOL    HW2 2078   0.476   1.180   1.165 -0.0049 -0.4997  0.9330
    1SOL    HW3 2079   0.400   1.142   1.040  0.9556 -0.3060  0.2824
    1SOL    MW4 2080   0.406   1.147   1.127  0.2256 -0.3093  0.3327
    1SOL     OW 2081   0.631   1.286   1.205  0.0496 -0.5076 -0.7438
    1SOL    HW2 2082   0.714   1.241   1.188  0.2828 -0.7877  1.0755
    1SOL    HW3 2083   0.641   1.372   1.164  2.3938  0.5799  1.9359
    1SOL    MW4 2084   0.643   1.291   1.197  0.3897 -0.4011 -0.1501
    1SOL     OW 2085   0.664   1.537   1.117  0.0810  0.0004  0.6665
    1SOL    HW2 2086   0.735   1.583   1.163 -0.8161  1.6440  0.4484
    1SOL    HW3 2087   0.584   1.569   1.157 -0.6019 -0.7693 -0.0570
    1SOL    MW4 2088   0.663   1.547   1.128 -0.1275  0.1156  0.5422
    1SOL     OW 2089   0.447   1.674   1.238 -0.1833  0.4511  0.0951
    1SOL    HW2 2090   0.431   1.659   1.331 -0.7625  0.4349 -0.0062
    1SOL    HW3 2091   0.370   1.639   1.194  0.3016  0.0113 -0.4263
    1SOL    MW4 2092   0.435   1.667   1.244 -0.1958  0.3910  0.0129
    1SOL     OW 2093   0.425   1.942   1.143 -0.3139  0.3875  0.1230
    1SOL    HW2 2094   0.427   1.854   1.181 -0.7616  0.2887 -0.0794
    1SOL    HW3 2095   0.345   1.981   1.178 -0.0983  0.7278  0.2392
    1SOL    MW4 2096   0.415   1.936   1.153 -0.3445  0.4193  0.1116
    1SOL     OW 2097   0.623   2.089   1.219  0.3626 -0.0183  0.2354
    1SOL    HW2 2098   0.630   2.081   1.314 -0.6878 -1.9113  0.1868
    1SOL    HW3 2099   0.544   2.040   1.197  0.3122  0.8510 -1.5646
    1SOL    MW4 2100   0.614   2.081   1.229  0.2175 -0.1535 -0.0085
    1SOL     OW 2101   0.648   2.348   1.130 -0.3244 -0.2496  0.7582
    1SOL    HW2 2102   0.569   2.394   1.159  1.0673  0.8932  2.9771
    1SOL    HW3 2103   0.631   2.256   1.150 -2.2816 -0.4567 -1.6698
    1SOL    MW4 2104   0.635   2.342   1.137 -0.3990 -0.1264  0.7305
    1SOL     OW 2105   0.412   2.464   1.199  0.4196  0.9156  0.4508
    1SOL    HW2 2106   0.412   2.468   1.295  1.0940  1.5837  0.4255
    1SOL    HW3 2107   0.442   2.551   1.172 -0.8174  1.1016 -0.3865
    1SOL    MW4 2108   0.416   2.476   1.208  0.3454  1.0283  0.3371
    1SOL     OW 2109   0.478   2.726   1.126 -0.2945 -0.0008  0.7983
    1SOL    HW2 2110   0.394   2.769   1.140 -0.1225  0.3337  0.7998
    1SOL    HW3 2111   0.475   2.698   1.034 -0.2717  0.3016  0.7069
    1SOL    MW4 2112   0.467   2.728   1.116 -0.2688  0.0830  0.7865
    1SOL     OW 2113   0.704   2.863   1.198 -0.4553  0.5191 -0.6927
    1SOL    HW2 2114   0.697   2.861   1.293 -0.1951  0.2623 -0.6779
    1SOL    HW3 2115   0.636   2.803   1.168 -0.0415  0.0182 -0.6404
    1SOL    MW4 2116   0.694   2.854   1.207 -0.3664  0.4191 -0.6839
    1SOL     OW 2117   0.674   3.119   1.080  0.3302 -0.0111 -0.0860
    1SOL    HW2 2118   0.757   3.153   1.115  1.2180 -0.9437 -1.2303
    1SOL    HW3 2119   0.669   3.029   1.112 -1.8027  0.9895  2.5738
    1SOL    MW4 2120   0.684   3.111   1.088  0.1659 -0.0024  0.1140
    1SOL     OW 2121   0.461   3.234   1.223  0.3271 -0.3183  0.4231
    1SOL    HW2 2122   0.455   3.317   1.177  2.0207 -0.0275  0.6986
    1SOL    HW3 2123   0.528   3.184   1.176 -0.5447 -1.4624  0.3612
    1SOL    MW4 2124   0.469   3.238   1.211  0.4355 -0.4308  0.4511
    1SOL     OW 2125   0.436   3.470   1.104 -0.0918  0.7338  0.4327
    1SOL    HW2 2126   0.522   3.507   1.124 -0.5954  2.3374 -0.3334
    1SOL    HW3 2127   0.375   3.520   1.159 -0.6299  0.1513  0.3672
    1SOL    MW4 2128   0.439   3.481   1.114 -0.2293  0.8688  0.3228
    1SOL     OW 2129   0.667   3.595   1.175  0.4199  0.2506 -0.3648
    1SOL    HW2 2130   0.675   3.583   1.270 -0.0773 -0.8048 -0.4498
    1SOL    HW3 2131   0.678   3.689   1.162  0.3143  0.4296  0.7581
    1SOL    MW4 2132   0.670   3.606   1.186  0.3404  0.1352 -0.2278
    1SOL     OW 2133   0.659   3.873   1.149 -0.2309 -0.1049  0.3600
    1SOL    HW2 2134   0.580   3.922   1.170 -0.3530  0.8558 -2.2039
    1SOL    HW3 2135   0.666   3.878   1.054  1.7005 -2.0760  0.3643
    1SOL    MW4 2136   0.650   3.880   1.139  0.0078 -0.2384  0.0221
    1SOL     OW 2137   0.450   4.026   1.262  0.0655 -0.0703  0.0350
    1SOL    HW2 2138   0.420   4.110   1.226 -0.5358  0.2104  1.1766
    1SOL    HW3 2139   0.372   3.971   1.261  0.2002 -0.2653  0.3136
    1SOL    MW4 2140   0.436   4.030   1.257  0.0039 -0.0591  0.2223
    1SOL     OW 2141   0.421   4.285   1.143 -0.4223  0.2526 -0.2451
    1SOL    HW2 2142   0.499   4.338   1.157 -0.7310  0.5980  0.1635
    1SOL    HW3 2143   0.352   4.330   1.191 -0.3110 -1.4483  1.5767
    1SOL    MW4 2144   0.422   4.298   1.151 -0.4484  0.0739  0.0494
    1SOL     OW 2145   0.667   4.421   1.186 -0.4987 -0.0348 -0.7525
    1SOL    HW2 2146   0.669   4.416   1.281 -0.8144  0.2255 -0.7270
    1SOL    HW3 2147   0.754   4.395   1.157 -0.8273 -1.5064 -0.4606
    1SOL    MW4 2148   0.678   4.417   1.195 -0.5838 -0.1950 -0.7106
    1SOL     OW 2149   1.136   4.625   1.108 -0.1260 -0.1206 -0.3260
    1SOL    HW2 2150   1.141   4.534   1.139  0.4729 -0.4790 -1.4655
    1SOL    HW3 2151   1.138   4.619   1.013  0.5973  1.1273 -0.4090
    1SOL    MW4 2152   1.137   4.612   1.100  0.0485 -0.0024 -0.4872
    1SOL     OW 2153   0.924   0.103   1.223  0.3352  0.0212 -0.0892
    1SOL    HW2 2154   0.943   0.113   1.316  0.7773  1.7428 -0.3452
    1SOL    HW3 2155   1.004   0.063   1.187  0.3634 -0.1694  0.1813
    1SOL    MW4 2156   0.937   0.099   1.230  0.3973  0.2232 -0.0871
    1SOL     OW 2157   0.882   0.338   1.109  0.5620 -0.6506 -0.3455
    1SOL    HW2 2158   0.890   0.257   1.159  2.7118 -0.3978 -0.2344
    1SOL    HW3 2159   0.806   0.383   1.147  0.2141 -1.9566  0.5096
    1SOL    MW4 2160   0.873   0.333   1.120  0.7998 -0.7896 -0.2180
    1SOL     OW 2161   1.107   0.493   1.213 -0.5973  0.5233 -0.0004
    1SOL    HW2 2162   1.117   0.479   1.307  0.1362 -0.3992 -0.2128
    1SOL    HW3 2163   1.029   0.442   1.190 -1.0235  1.0855  0.1730
    1SOL    MW4 2164   1.098   0.484   1.223 -0.5567  0.4758 -0.0055
    1SOL     OW 2165   1.127   0.764   1.141 -0.0926  0.1044 -0.2618
    1SOL    HW2 2166   1.049   0.812   1.170  0.2280  1.1149 -1.0473
    1SOL    HW3 2167   1.110   0.673   1.167 -0.4676  0.7170  1.7086
    1SOL    MW4 2168   1.114   0.758   1.148 -0.0998  0.3185 -0.1054
    1SOL     OW 2169   0.886   0.906   1.212  0.2193  0.2410  0.3629
    1SOL    HW2 2170   0.883   0.998   1.187  1.8880  0.2840  0.2955
    1SOL    HW3 2171   0.811   0.866   1.166 -1.0403  1.7114  1.0979
    1SOL    MW4 2172   0.875   0.913   1.202  0.2733  0.4407  0.4510
    1SOL     OW 2173   0.867   1.167   1.155  0.5106 -0.0870  0.2064
    1SOL    HW2 2174   0.942   1.219   1.184 -0.1091  1.2806 -0.6032
    1SOL    HW3 2175   0.872   1.168   1.059 -0.1482 -0.5681  0.1605
    1SOL    MW4 2176   0.877   1.174   1.146  0.3420  0.0299  0.0935
    1SOL     OW 2177   1.115   1.292   1.231 -0.3368 -0.1289 -0.0010
    1SOL    HW2 2178   1.131   1.302   1.325  0.8155 -0.3802 -0.1630
    1SOL    HW3 2179   1.195   1.250   1.197 -0.2474  1.0630 -1.3013
    1SOL    MW4 2180   1.128   1.288   1.239 -0.1731 -0.0049 -0.1938
    1SOL     OW 2181   1.064   1.529   1.118 -0.0809  0.1119  0.3677
    1SOL    HW2 2182   1.086   1.444   1.156  0.2807  0.5277  1.1018
    1SOL    HW3 2183   1.049   1.511   1.025  0.2002 -0.7161  0.4801
    1SOL    MW4 2184   1.065   1.515   1.111  0.0039  0.0576  0.4795
    1SOL     OW 2185   0.855   1.699   1.235 -0.2056  0.2200  0.0551
    1SOL    HW2 2186   0.852   1.778   1.181 -0.2714 -0.7026 -1.3170
    1SOL    HW3 2187   0.933   1.652   1.206 -1.7015 -1.6125 -1.1681
    1SOL    MW4 2188   0.865   1.703   1.224 -0.4116 -0.1436 -0.2872
    1SOL     OW 2189   0.862   1.968   1.114  0.1335 -0.0253 -0.1757
    1SOL    HW2 2190   0.925   2.016   1.167 -0.1579 -0.1793  0.3168
    1SOL    HW3 2191   0.778   2.009   1.134  0.0642  0.1158 -0.7539
    1SOL    MW4 2192   0.859   1.980   1.124  0.0859 -0.0271 -0.1869
    1SOL     OW 2193   1.079   2.069   1.264  0.2924 -0.5012 -0.2636
    1SOL    HW2 2194   1.091   2.086   1.357  0.7925 -0.6992 -0.2935
    1SOL    HW3 2195   1.083   2.156   1.223  0.1479 -0.4223 -0.1131
    1SOL    MW4 2196   1.081   2.083   1.271  0.3394 -0.5169 -0.2477
    1SOL     OW 2197   1.071   2.311   1.112  0.7458 -0.0998 -0.0903
    1SOL    HW2 2198   1.159   2.346   1.127  0.7647  0.4458 -1.4365
    1SOL    HW3 2199   1.064   2.301   1.017 -1.2647  1.5198 -0.1655
    1SOL    MW4 2200   1.081   2.315   1.102  0.4830  0.1860 -0.2778
    1SOL     OW 2201   0.878   2.471   1.239 -0.2873  0.1604 -0.1649
    1SOL    HW2 2202   0.941   2.416   1.193 -0.2292 -0.3633  0.5391
    1SOL    HW3 2203   0.793   2.444   1.205 -0.1867  0.3618 -0.5805
    1SOL    MW4 2204   0.875   2.460   1.229 -0.2664  0.1178 -0.1268
    1SOL     OW 2205   0.887   2.691   1.081  0.1187  0.1094  0.1205
    1SOL    HW2 2206   0.901   2.620   1.144  1.8533  0.4546  0.1286
    1SOL    HW3 2207   0.819   2.745   1.122 -1.3610 -1.6128  0.0317
    1SOL    MW4 2208   0.880   2.689   1.095  0.1523 -0.0722  0.1098
    1SOL     OW 2209   1.103   2.829   1.199  0.4529 -0.0791  0.3356
    1SOL    HW2 2210   1.083   2.843   1.292 -0.3863 -2.1150  0.4773
    1SOL    HW3 2211   1.025   2.787   1.164  0.4254  1.4466 -1.5090
    1SOL    MW4 2212   1.090   2.825   1.206  0.3386 -0.1464  0.1110
    1SOL     OW 2213   1.151   3.094   1.092  0.1409 -0.6762 -0.4934
    1SOL    HW2 2214   1.148   3.005   1.127 -2.4405 -0.3578  0.2502
    1SOL    HW3 2215   1.147   3.083   0.997  0.1191 -1.3599 -0.4132
    1SOL    MW4 2216   1.150   3.081   1.084 -0.2025 -0.7243 -0.3848
    1SOL     OW 2217   0.912   3.226   1.203 -0.1706 -0.1923  0.3664
    1SOL    HW2 2218   0.908   3.317   1.172  0.1917  0.2066  1.4706
    1SOL    HW3 2219   0.988   3.189   1.157  0.0038  0.2190  0.3181
    1SOL    MW4 2220   0.922   3.234   1.193 -0.0997 -0.0854  0.5056
    1SOL     OW 2221   0.904   3.479   1.092  0.0220 -0.1842  0.0363
    1SOL    HW2 2222   0.836   3.542   1.116  0.0850 -0.5612  1.2554
    1SOL    HW3 2223   0.919   3.494   0.999  0.9597  2.5376  0.5697
    1SOL    MW4 2224   0.897   3.490   1.083  0.1540  0.1249  0.2675
    1SOL     OW 2225   1.123   3.610   1.216  0.0013 -0.2158 -0.2964
    1SOL    HW2 2226   1.206   3.578   1.183  0.2939  0.8416 -0.6081
    1SOL    HW3 2227   1.056   3.563   1.165  0.4075 -0.7685 -0.3188
    1SOL    MW4 2228   1.125   3.599   1.205  0.0935 -0.1493 -0.3405
    1SOL     OW 2229   1.104   3.885   1.151  0.7114 -0.1616  0.5676
    1SOL    HW2 2230   1.031   3.931   1.191 -0.2782 -0.6929 -0.5869
    1SOL    HW3 2231   1.098   3.795   1.184  0.1084 -0.5104 -0.4856
    1SOL    MW4 2232   1.094   3.879   1.160  0.5012 -0.2778  0.2763
    1SOL     OW 2233   0.887   4.036   1.221  0.1783 -0.0752  0.1847
    1SOL    HW2 2234   0.893   4.025   1.316 -0.2779  1.2874  0.3847
    1SOL    HW3 2235   0.803   3.997   1.198 -0.3157  0.7719  0.5330
    1SOL    MW4 2236   0.877   4.029   1.231  0.0529  0.2165  0.2573
    1SOL     OW 2237   0.887   4.284   1.128  0.5105 -0.2404  0.2847
    1SOL    HW2 2238   0.889   4.194   1.160 -0.4225 -0.4644 -0.2911
    1SOL    HW3 2239   0.901   4.277   1.034 -0.3328  0.1596  0.1247
    1SOL    MW4 2240   0.889   4.271   1.120  0.2761 -0.2165  0.1875
    1SOL     OW 2241   1.132   4.382   1.215 -0.1452  0.2196  0.2300
    1SOL    HW2 2242   1.125   4.374   1.310  1.0815  1.6363  0.4570
    1SOL    HW3 2243   1.048   4.349   1.182 -0.5866 -0.2793  1.7958
    1SOL    MW4 2244   1.120   4.376   1.223 -0.0415  0.3405  0.4666
    1SOL     OW 2245   1.552   0.004   1.108 -0.2120  0.0900 -0.7252
    1SOL    HW2 2246   1.633   0.055   1.123 -1.3161  1.7078 -0.0931
    1SOL    HW3 2247   1.567  -0.078   1.155  1.5025 -0.0925 -1.5300
    1SOL    MW4 2248   1.565   0.000   1.116 -0.1315  0.2794 -0.7479
    1SOL     OW 2249   1.331   0.090   1.250  0.2499 -0.2696 -0.1197
    1SOL    HW2 2250   1.417   0.069   1.214  0.0438 -0.0982 -0.7033
    1SOL    HW3 2251   1.268   0.052   1.189 -0.0976  0.1535 -0.0352
    1SOL    MW4 2252   1.334   0.083   1.237  0.1767 -0.1912 -0.1856
    1SOL     OW 2253   1.328   0.352   1.124 -0.0106  0.0907 -0.2668
    1SOL    HW2 2254   1.320   0.269   1.171  0.3524  0.1653 -0.0672
    1SOL    HW3 2255   1.245   0.397   1.140  0.3237  0.3508  0.7783
    1SOL    MW4 2256   1.316   0.347   1.133  0.0814  0.1349 -0.1026
    1SOL     OW 2257   1.567   0.492   1.189  0.4724 -0.0405 -0.4727
    1SOL    HW2 2258   1.544   0.583   1.167  0.4403 -0.6008 -2.9204
    1SOL    HW3 2259   1.488   0.442   1.171  1.0495 -0.8063 -0.9127
    1SOL    MW4 2260   1.554   0.498   1.184  0.5443 -0.2156 -0.8537
    1SOL     OW 2261   1.557   0.758   1.080  0.1576 -0.3014 -0.4690
    1SOL    HW2 2262   1.634   0.813   1.095  1.5279 -2.1559 -0.5225
    1SOL    HW3 2263   1.553   0.747   0.985 -1.5712  1.6967 -0.6646
    1SOL    MW4 2264   1.567   0.764   1.070  0.1104 -0.2825 -0.5019
    1SOL     OW 2265   1.357   0.890   1.212  0.4996  0.1076  0.0417
    1SOL    HW2 2266   1.426   0.843   1.165  1.4593  1.3982  0.1388
    1SOL    HW3 2267   1.276   0.844   1.188  1.2573 -0.7133 -0.9814
    1SOL    MW4 2268   1.355   0.877   1.202  0.7263  0.1696 -0.0805
    1SOL     OW 2269   1.350   1.129   1.102  0.2979  0.0626  0.3240
    1SOL    HW2 2270   1.361   1.040   1.135  0.4348 -0.4543 -1.0598
    1SOL    HW3 2271   1.426   1.177   1.134  0.3212 -0.3755  0.9162
    1SOL    MW4 2272   1.361   1.123   1.110  0.3190 -0.0634  0.2196
    1SOL     OW 2273   1.594   1.269   1.178  0.1050  0.0050  0.1331
    1SOL    HW2 2274   1.672   1.218   1.158 -0.3103 -0.6654  0.1948
    1SOL    HW3 2275   1.594   1.278   1.273 -0.9055 -1.6687  0.3229
    1SOL    MW4 2276   1.604   1.263   1.188 -0.0832 -0.3042  0.1662
    1SOL     OW 2277   1.554   1.529   1.128 -0.2955 -0.7190 -0.0057
    1SOL    HW2 2278   1.627   1.566   1.179 -0.2714  0.3083 -0.7716
    1SOL    HW3 2279   1.569   1.435   1.130  0.9149 -0.5366  0.0686
    1SOL    MW4 2280   1.566   1.522   1.135 -0.1327 -0.5593 -0.0969
    1SOL     OW 2281   1.297   1.668   1.218 -0.4134 -0.1569  0.0860
    1SOL    HW2 2282   1.378   1.621   1.197 -0.0469  0.8032 -0.7426
    1SOL    HW3 2283   1.227   1.616   1.179 -0.3532 -1.7921  2.1100
    1SOL    MW4 2284   1.299   1.655   1.210 -0.3573 -0.2460  0.2438
    1SOL     OW 2285   1.291   1.943   1.145 -0.3909  0.2245  0.2047
    1SOL    HW2 2286   1.299   1.856   1.185 -1.1243 -0.2504 -0.6542
    1SOL    HW3 2287   1.213   1.981   1.185 -1.9513 -0.8127 -1.7515
    1SOL    MW4 2288   1.282   1.936   1.156 -0.6936  0.0249 -0.1667
    1SOL     OW 2289   1.537   2.046   1.235  0.3713 -0.1651 -0.3857
    1SOL    HW2 2290   1.547   2.141   1.226  1.0453 -0.1918  0.0657
    1SOL    HW3 2291   1.449   2.029   1.203  0.6868  0.4539 -1.6293
    1SOL    MW4 2292   1.527   2.056   1.229  0.5019 -0.0873 -0.4903
    1SOL     OW 2293   1.563   2.309   1.142  0.0063  0.2076  0.1952
    1SOL    HW2 2294   1.479   2.351   1.158 -0.0927  0.2480 -0.4054
    1SOL    HW3 2295   1.564   2.294   1.048 -0.0527 -1.3274  0.4304
    1SOL    MW4 2296   1.552   2.313   1.132 -0.0144  0.0103  0.1471
    1SOL     OW 2297   1.321   2.413   1.170 -0.1575 -0.5902 -0.1335
    1SOL    HW2 2298   1.321   2.413   1.266  1.7322 -0.0277 -0.1177
    1SOL    HW3 2299   1.324   2.505   1.146  0.0935 -0.7535 -0.7293
    1SOL    MW4 2300   1.321   2.425   1.180  0.1249 -0.5374 -0.2100
    1SOL     OW 2301   1.325   2.681   1.133 -0.6954 -0.0095 -0.2395
    1SOL    HW2 2302   1.402   2.734   1.155 -0.4676 -1.4396  2.6766
    1SOL    HW3 2303   1.252   2.742   1.136 -0.0340  0.7908 -0.1513
    1SOL    MW4 2304   1.326   2.696   1.137 -0.5780 -0.0925  0.1570
    1SOL     OW 2305   1.558   2.813   1.187 -0.5117  0.3090  0.3463
    1SOL    HW2 2306   1.647   2.781   1.175 -1.2076 -0.7920 -2.1654
    1SOL    HW3 2307   1.560   2.902   1.151 -0.2383  0.5919  1.0506
    1SOL    MW4 2308   1.570   2.821   1.181 -0.5674  0.2010  0.1076
    1SOL     OW 2309   1.579   3.078   1.096 -0.3284  0.1842 -0.7062
    1SOL    HW2 2310   1.661   3.127   1.103  0.4960 -0.9970 -1.8967
    1SOL    HW3 2311   1.512   3.141   1.123  0.7137  1.9741 -2.1306
    1SOL    MW4 2312   1.581   3.093   1.100 -0.0820  0.2642 -1.0513
    1SOL     OW 2313   1.371   3.247   1.181  0.2368  0.3428 -0.1002
    1SOL    HW2 2314   1.353   3.249   1.275  0.4408 -1.0406 -0.0136
    1SOL    HW3 2315   1.296   3.202   1.143  0.1086  0.9863 -0.6086
    1SOL    MW4 2316   1.359   3.241   1.188  0.2468  0.2453 -0.1558
    1SOL     OW 2317   1.358   3.516   1.090  0.1394  0.3685 -0.2976
    1SOL    HW2 2318   1.348   3.423   1.106  0.8086  0.5297  1.2492
    1SOL    HW3 2319   1.379   3.523   0.997  1.7167 -1.1568 -0.0822
    1SOL    MW4 2320   1.360   3.505   1.080  0.4359  0.1886 -0.0651
    1SOL     OW 2321   1.585   3.608   1.233 -0.3707  0.1821 -0.1061
    1SOL    HW2 2322   1.567   3.694   1.194 -0.0063 -0.4890 -1.7799
    1SOL    HW3 2323   1.510   3.555   1.208 -0.0901 -0.2761  0.0253
    1SOL    MW4 2324   1.573   3.612   1.224 -0.2856  0.0331 -0.3097
    1SOL     OW 2325   1.556   3.869   1.111  0.1310  0.4819  0.6790
    1SOL    HW2 2326   1.478   3.914   1.144 -0.2886  0.5176 -0.3391
    1SOL    HW3 2327   1.548   3.873   1.015  1.8439  1.2885  0.5438
    1SOL    MW4 2328   1.545   3.876   1.103  0.3017  0.5929  0.5269
    1SOL     OW 2329   1.344   4.022   1.182  0.0002 -0.4919 -0.5111
    1SOL    HW2 2330   1.353   4.111   1.148  0.6804 -0.5534 -0.5137
    1SOL    HW3 2331   1.251   4.003   1.176 -0.0972  0.0775 -0.8781
    1SOL    MW4 2332   1.333   4.031   1.177  0.0771 -0.4249 -0.5599
    1SOL     OW 2333   1.383   4.300   1.114  0.2759  0.3698 -0.4658
    1SOL    HW2 2334   1.303   4.339   1.149  0.4512  0.3516 -0.0472
    1SOL    HW3 2335   1.377   4.314   1.019 -0.9276 -0.9518 -0.5894
    1SOL    MW4 2336   1.372   4.307   1.106  0.1402  0.1931 -0.4268
    1SOL     OW 2337   1.604   4.420   1.213 -0.2204  0.6150 -0.0510
    1SOL    HW2 2338   1.595   4.418   1.308 -0.1203  2.1160  0.0026
    1SOL    HW3 2339   1.524   4.379   1.180 -0.4805  0.5484  0.6717
    1SOL    MW4 2340   1.592   4.414   1.221 -0.2414  0.8044  0.0514
    1SOL     OW 2341   2.030   0.003   1.070 -0.4344  0.3328  0.6356
    1SOL    HW2 2342   2.014  -0.083   1.107 -1.6637  0.8585  1.3350
    1SOL    HW3 2343   2.022  -0.009   0.976 -1.6069 -0.1107  0.7903
    1SOL    MW4 2344   2.027  -0.010   1.063 -0.7515  0.3433  0.7483
    1SOL     OW 2345   1.801   0.138   1.182 -0.1406  0.3182  0.2567
    1SOL    HW2 2346   1.788   0.225   1.143  0.3395  0.4026  0.2868
    1SOL    HW3 2347   1.874   0.101   1.133 -0.8586 -0.3825 -0.2839
    1SOL    MW4 2348   1.809   0.145   1.170 -0.1719  0.2369  0.1894
    1SOL     OW 2349   1.810   0.401   1.057 -0.7195 -0.2555 -0.4027
    1SOL    HW2 2350   1.731   0.442   1.092 -0.4441 -0.1790  0.1475
    1SOL    HW3 2351   1.795   0.394   0.963 -2.1215 -1.8519 -0.0923
    1SOL    MW4 2352   1.797   0.405   1.049 -0.8682 -0.4560 -0.2893
    1SOL     OW 2353   2.004   0.761   1.135 -0.3070 -0.1057  0.3972
    1SOL    HW2 2354   2.086   0.810   1.146 -0.5010  0.4325 -0.5085
    1SOL    HW3 2355   2.025   0.672   1.163  1.0058 -0.3312 -1.2434
    1SOL    MW4 2356   2.018   0.756   1.140 -0.1593 -0.0644  0.0613
    1SOL     OW 2357   2.013   0.721   0.854 -0.2396 -0.0393  0.1111
    1SOL    HW2 2358   2.075   0.783   0.815 -1.5966  0.5426 -1.1831
    1SOL    HW3 2359   2.007   0.747   0.946  1.5396 -0.2045  0.2899
    1SOL    MW4 2360   2.020   0.733   0.861 -0.1841  0.0157 -0.0361
    1SOL     OW 2361   1.770   0.884   1.205 -0.0763  0.1638 -0.3548
    1SOL    HW2 2362   1.770   0.871   1.300  1.1746  1.2694 -0.1858
    1SOL    HW3 2363   1.843   0.831   1.173  0.5592  1.1181 -0.4941
    1SOL    MW4 2364   1.779   0.875   1.213  0.1725  0.4355 -0.3508
    1SOL     OW 2365   1.845   1.148   1.141 -0.0312  0.0975  0.1329
    1SOL    HW2 2366   1.827   1.058   1.169  1.6376 -0.7407 -1.3961
    1SOL    HW3 2367   1.844   1.144   1.045  0.0685  1.7036  0.0582
    1SOL    MW4 2368   1.842   1.136   1.132  0.2021  0.1991 -0.0787
    1SOL     OW 2369   2.049   1.322   1.216  0.4721  0.1793 -0.2239
    1SOL    HW2 2370   2.127   1.275   1.187  0.9682  1.5208 -1.1309
    1SOL    HW3 2371   1.976   1.266   1.190  1.1394 -1.4385  1.2922
    1SOL    MW4 2372   2.049   1.308   1.208  0.6254  0.1429 -0.1434
    1SOL     OW 2373   2.006   1.582   1.119 -0.5002  0.3696  0.4276
    1SOL    HW2 2374   2.001   1.495   1.159 -0.3871  0.4170  0.5476
    1SOL    HW3 2375   2.009   1.566   1.025  2.4263  0.1000  0.5213
    1SOL    MW4 2376   2.006   1.568   1.112 -0.0994  0.3402  0.4557
    1SOL     OW 2377   1.783   1.662   1.265  0.5654  0.0428 -0.0553
    1SOL    HW2 2378   1.763   1.749   1.231  0.4984  0.4901  1.0820
    1SOL    HW3 2379   1.855   1.630   1.211  1.1673  1.1709  0.0589
    1SOL    MW4 2380   1.790   1.669   1.254  0.6361  0.2507  0.1099
    1SOL     OW 2381   1.753   1.893   1.119  0.5503  0.5583  0.1407
    1SOL    HW2 2382   1.679   1.949   1.141  0.0897  0.2729 -0.6570
    1SOL    HW3 2383   1.765   1.904   1.025  0.4290 -0.7074 -0.0303
    1SOL    MW4 2384   1.745   1.901   1.110  0.4735  0.3536  0.0129
    1SOL     OW 2385   1.978   2.050   1.176  0.1372  0.4065 -0.3926
    1SOL    HW2 2386   2.000   2.037   1.268 -0.3623  1.0622 -0.1732
    1SOL    HW3 2387   1.902   1.993   1.162 -1.1242  1.9064  0.1769
    1SOL    MW4 2388   1.971   2.041   1.187 -0.0950  0.6909 -0.2885
    1SOL     OW 2389   2.017   2.323   1.113  0.0364  0.3357 -0.7154
    1SOL    HW2 2390   2.093   2.344   1.167 -0.9476  2.8657 -0.2476
    1SOL    HW3 2391   2.001   2.230   1.129  1.9750  0.1954  0.5135
    1SOL    MW4 2392   2.025   2.314   1.122  0.1624  0.6511 -0.4915
    1SOL     OW 2393   1.809   2.442   1.219  0.2346 -0.2405 -0.1115
    1SOL    HW2 2394   1.888   2.409   1.177  0.1026  1.0948 -1.4983
    1SOL    HW3 2395   1.739   2.387   1.185  0.5400 -1.3268  0.9988
    1SOL    MW4 2396   1.810   2.431   1.209  0.2575 -0.2077 -0.1479
    1SOL     OW 2397   1.815   2.716   1.132  0.5866  0.1001  0.3059
    1SOL    HW2 2398   1.819   2.624   1.157  0.9933  0.1538  0.4615
    1SOL    HW3 2399   1.794   2.716   1.039 -1.5340 -0.0887  0.7744
    1SOL    MW4 2400   1.813   2.704   1.123  0.3605  0.0820  0.3883
    1SOL     OW 2401   2.032   2.830   1.245  0.3827  0.1934  0.7361
    1SOL    HW2 2402   2.025   2.914   1.200  0.4425 -0.9405 -1.4295
    1SOL    HW3 2403   1.954   2.782   1.218  0.8402 -0.8123  1.1784
    1SOL    MW4 2404   2.021   2.835   1.236  0.4511 -0.0892  0.5087
    1SOL     OW 2405   2.036   3.083   1.138  0.1957  0.6301 -0.2261
    1SOL    HW2 2406   1.963   3.145   1.136 -2.1318 -2.0080 -0.0327
    1SOL    HW3 2407   2.044   3.054   1.048  0.0743 -0.1164  0.0026
    1SOL    MW4 2408   2.027   3.087   1.126 -0.1273  0.1836 -0.1704
    1SOL     OW 2409   1.786   3.226   1.177  0.4735 -0.5199 -0.3933
    1SOL    HW2 2410   1.778   3.211   1.271  0.2095 -0.9094 -0.4746
    1SOL    HW3 2411   1.786   3.321   1.167  0.0953 -0.4836 -0.0338
    1SOL    MW4 2412   1.785   3.236   1.188  0.3886 -0.5665 -0.3567
    1SOL     OW 2413   1.807   3.484   1.098 -0.1539 -0.2029  0.1244
    1SOL    HW2 2414   1.876   3.531   1.144  0.0443  0.0205 -0.4017
    1SOL    HW3 2415   1.726   3.529   1.123  0.0429  0.4472 -0.4222
    1SOL    MW4 2416   1.805   3.496   1.107 -0.1017 -0.0877 -0.0172
    1SOL     OW 2417   1.999   3.613   1.215  0.2204  0.1436 -0.1265
    1SOL    HW2 2418   2.004   3.637   1.308 -1.0915 -0.1478  0.0260
    1SOL    HW3 2419   2.084   3.574   1.196  0.8464  1.0853  0.7058
    1SOL    MW4 2420   2.011   3.611   1.225  0.1299  0.2296  0.0035
    1SOL     OW 2421   2.028   3.850   1.084 -0.1970  0.1437  0.0374
    1SOL    HW2 2422   1.944   3.894   1.099 -0.1013  0.4904 -0.4395
    1SOL    HW3 2423   2.018   3.765   1.127 -0.2876  0.7215  1.1854
    1SOL    MW4 2424   2.016   3.845   1.092 -0.1962  0.2656  0.1260
    1SOL     OW 2425   1.800   3.998   1.167  0.1110  0.1661  0.0623
    1SOL    HW2 2426   1.822   4.004   1.260  2.1238  0.6695 -0.4179
    1SOL    HW3 2427   1.717   3.952   1.165  0.6176 -0.8945  2.0630
    1SOL    MW4 2428   1.792   3.993   1.179  0.4435  0.0925  0.2630
    1SOL     OW 2429   1.795   4.251   1.082 -0.3424  0.0183  0.5740
    1SOL    HW2 2430   1.787   4.164   1.120 -0.5463  0.4029  1.4276
    1SOL    HW3 2431   1.730   4.304   1.129  1.0165  1.0464  1.3508
    1SOL    MW4 2432   1.785   4.246   1.094 -0.1901  0.2041  0.7892
    1SOL     OW 2433   2.012   4.379   1.173 -0.0050  0.1644  0.0647
    1SOL    HW2 2434   2.021   4.377   1.268  0.4545 -0.1875  0.0146
    1SOL    HW3 2435   1.934   4.326   1.154  0.6558 -0.8352  0.1509
    1SOL    MW4 2436   2.003   4.372   1.183  0.1426 -0.0143  0.0695
    1SOL     OW 2437   2.454   4.581   1.086 -0.1669 -0.0173 -0.0654
    1SOL    HW2 2438   2.530   4.630   1.118 -0.3541 -0.9727  1.9937
    1SOL    HW3 2439   2.379   4.631   1.116 -0.3413 -0.0887 -0.3889
    1SOL    MW4 2440   2.454   4.594   1.094 -0.2146 -0.1521  0.1636
    1SOL     OW 2441   2.239   0.093   1.204  0.1907  0.1381 -0.3731
    1SOL    HW2 2442   2.251   0.180   1.166 -0.5564  0.6206  0.4987
    1SOL    HW3 2443   2.162   0.058   1.159 -0.6822  0.7017  0.6780
    1SOL    MW4 2444   2.231   0.100   1.193 -0.0234  0.2761 -0.1194
    1SOL     OW 2445   2.046   0.486   1.177  0.4054 -0.0850  0.4537
    1SOL    HW2 2446   2.033   0.470   1.271 -0.3560  0.6654  0.4813
    1SOL    HW3 2447   1.973   0.441   1.135 -0.6669  1.6753  0.4006
    1SOL    MW4 2448   2.035   0.478   1.184  0.1633  0.2463  0.4503
    1SOL     OW 2449   2.488   0.519   1.169 -0.1044  0.2231  0.2326
    1SOL    HW2 2450   2.490   0.512   1.264  1.3824 -2.5863  0.0451
    1SOL    HW3 2451   2.420   0.457   1.142  2.8658 -2.7858 -0.7352
    1SOL    MW4 2452   2.479   0.510   1.178  0.4835 -0.5445  0.0801
    1SOL     OW 2453   2.460   0.755   1.016  0.5011 -0.2745 -0.0884
    1SOL    HW2 2454   2.466   0.662   1.034 -1.1829 -0.4723 -0.4667
    1SOL    HW3 2455   2.459   0.762   0.920  1.4916  0.2038 -0.0757
    1SOL    MW4 2456   2.460   0.744   1.005  0.4094 -0.2375 -0.1366
    1SOL     OW 2457   2.244   0.884   1.145  0.1145  0.3376  0.2433
    1SOL    HW2 2458   2.259   0.881   1.240 -1.2008 -0.6918  0.4198
    1SOL    HW3 2459   2.307   0.821   1.109 -1.8150 -1.9357  0.7532
    1SOL    MW4 2460   2.254   0.876   1.153 -0.3138 -0.0982  0.3339
    1SOL     OW 2461   2.258   1.156   1.090  0.2948 -0.4489  0.0777
    1SOL    HW2 2462   2.344   1.175   1.128  0.4201 -0.2745 -0.2975
    1SOL    HW3 2463   2.242   1.064   1.111  0.4404 -0.3987  0.4092
    1SOL    MW4 2464   2.267   1.147   1.098  0.3307 -0.4193  0.0720
    1SOL     OW 2465   2.507   1.226   1.212  0.3981  0.4549  0.1474
    1SOL    HW2 2466   2.578   1.174   1.175  0.3636 -0.6670  1.6433
    1SOL    HW3 2467   2.524   1.315   1.181  0.1931 -0.4762 -2.8142
    1SOL    MW4 2468   2.518   1.231   1.203  0.3667  0.1839 -0.0459
    1SOL     OW 2469   2.489   1.492   1.137 -0.2282  0.0136  0.0627
    1SOL    HW2 2470   2.408   1.538   1.160  0.5327  0.7267  1.3684
    1SOL    HW3 2471   2.482   1.478   1.043 -3.0927 -2.3119  0.5361
    1SOL    MW4 2472   2.478   1.496   1.128 -0.5057 -0.1991  0.2974
    1SOL     OW 2473   2.255   1.651   1.202 -0.2931 -0.5088 -0.3519
    1SOL    HW2 2474   2.248   1.743   1.176 -1.3792 -0.7376 -0.9206
    1SOL    HW3 2475   2.178   1.609   1.163 -0.4099 -1.4432  0.8335
    1SOL    MW4 2476   2.244   1.657   1.194 -0.4518 -0.6622 -0.2705
    1SOL     OW 2477   2.235   1.932   1.123  0.4093 -0.2352 -0.0025
    1SOL    HW2 2478   2.155   1.981   1.142  0.1916 -0.6961  0.2545
    1SOL    HW3 2479   2.237   1.924   1.028  0.2633 -0.0390 -0.0216
    1SOL    MW4 2480   2.225   1.938   1.113  0.3612 -0.2701  0.0290
    1SOL     OW 2481   2.484   2.063   1.236  0.5326 -0.2394  0.3839
    1SOL    HW2 2482   2.556   2.023   1.188  0.8236  0.4848  0.2058
    1SOL    HW3 2483   2.408   2.050   1.179  0.8053  0.2797 -0.1074
    1SOL    MW4 2484   2.483   2.056   1.222  0.6070 -0.0751  0.2956
    1SOL     OW 2485   2.490   2.322   1.167 -0.1599  0.4050 -0.0225
    1SOL    HW2 2486   2.482   2.237   1.211 -1.3317  1.0030  0.9444
    1SOL    HW3 2487   2.465   2.305   1.076  0.6942 -0.4991 -0.0979
    1SOL    MW4 2488   2.486   2.309   1.161 -0.2019  0.3645  0.0951
    1SOL     OW 2489   2.235   2.435   1.231 -0.2539  0.0825  0.0223
    1SOL    HW2 2490   2.225   2.438   1.327 -1.5800 -2.0069 -0.0253
    1SOL    HW3 2491   2.321   2.394   1.218  0.0721  0.6603  0.2944
    1SOL    MW4 2492   2.245   2.430   1.242 -0.3858 -0.1171  0.0517
    1SOL     OW 2493   2.247   2.690   1.125  0.5554 -0.4952  0.0224
    1SOL    HW2 2494   2.244   2.601   1.160  0.7964 -0.4659  0.1170
    1SOL    HW3 2495   2.184   2.739   1.179  0.3301 -0.6372 -0.1128
    1SOL    MW4 2496   2.238   2.685   1.137  0.5574 -0.5097  0.0170
    1SOL     OW 2497   2.483   2.841   1.218  0.2468 -0.3389 -0.1145
    1SOL    HW2 2498   2.468   2.845   1.313  0.0557 -1.6241 -0.0751
    1SOL    HW3 2499   2.409   2.790   1.185  0.0589  0.5207 -1.0176
    1SOL    MW4 2500   2.471   2.835   1.226  0.1967 -0.3953 -0.2285
    1SOL     OW 2501   2.498   3.109   1.125  0.0100 -0.2525 -0.1433
    1SOL    HW2 2502   2.422   3.162   1.149 -0.1083 -0.0226 -1.0200
    1SOL    HW3 2503   2.476   3.021   1.157  0.2697  0.2413  1.4329
    1SOL    MW4 2504   2.485   3.104   1.133  0.0286 -0.1569 -0.0510
    1SOL     OW 2505   2.253   3.246   1.198  0.2997  0.0333  0.3317
    1SOL    HW2 2506   2.231   3.331   1.158  0.2430 -0.0101  0.2703
    1SOL    HW3 2507   2.177   3.191   1.178  0.7185 -0.2861 -0.3704
    1SOL    MW4 2508   2.240   3.250   1.190  0.3474 -0.0145  0.2309
    1SOL     OW 2509   2.215   3.500   1.101  0.2779 -0.3033  0.2622
    1SOL    HW2 2510   2.306   3.525   1.114  0.1824  0.0195  0.3191
    1SOL    HW3 2511   2.203   3.502   1.006  0.7640 -1.9094  0.1587
    1SOL    MW4 2512   2.225   3.504   1.090  0.3293 -0.4725  0.2561
    1SOL     OW 2513   2.469   3.577   1.189 -0.3766 -0.1264 -0.0906
    1SOL    HW2 2514   2.465   3.591   1.283  0.4123 -0.2067 -0.0368
    1SOL    HW3 2515   2.455   3.663   1.151  0.2125  0.0674  0.1257
    1SOL    MW4 2516   2.467   3.590   1.196 -0.1948 -0.1111 -0.0551
    1SOL     OW 2517   2.453   3.835   1.069  0.1999 -0.2381 -0.2211
    1SOL    HW2 2518   2.380   3.888   1.103  0.8173  0.3328  0.2449
    1SOL    HW3 2519   2.459   3.860   0.977  0.2191  0.2036 -0.1051
    1SOL    MW4 2520   2.444   3.845   1.062  0.2842 -0.1047 -0.1444
    1SOL     OW 2521   2.229   3.992   1.195  0.1074  0.2318  0.4710
    1SOL    HW2 2522   2.232   4.077   1.151  1.0396  0.0240  0.1175
    1SOL    HW3 2523   2.157   3.945   1.153  0.0029  0.6112  0.2263
    1SOL    MW4 2524   2.220   3.997   1.184  0.2165  0.2542  0.3921
    1SOL     OW 2525   2.238   4.243   1.081 -0.1398 -0.0091 -0.5689
    1SOL    HW2 2526   2.174   4.313   1.094 -0.4981 -0.4146 -0.1411
    1SOL    HW3 2527   2.231   4.221   0.988 -1.6628 -1.0533 -0.2210
    1SOL    MW4 2528   2.229   4.250   1.070 -0.3881 -0.2012 -0.4665
    1SOL     OW 2529   2.481   4.328   1.215  0.5313 -0.3496  0.4078
    1SOL    HW2 2530   2.412   4.276   1.174  1.0139  0.5140 -1.5749
    1SOL    HW3 2531   2.462   4.418   1.188  0.0643  0.4630  3.2806
    1SOL    MW4 2532   2.469   4.333   1.206  0.5333 -0.1283  0.5252
    1SOL     OW 2533   2.951   4.617   1.124 -0.0085 -0.3778  0.0388
    1SOL    HW2 2534   2.931   4.526   1.148 -0.3289 -0.2720  0.1758
    1SOL    HW3 2535   2.965   4.614   1.030 -0.6656 -0.4519 -0.0541
    1SOL    MW4 2536   2.951   4.604   1.115 -0.1376 -0.3734  0.0445
    1SOL     OW 2537   2.669   0.064   1.175 -0.1654 -0.3688 -0.5020
    1SOL    HW2 2538   2.680   0.098   1.264  0.1811  0.4164 -0.8439
    1SOL    HW3 2539   2.754   0.028   1.152 -0.2408 -0.5264 -0.5351
    1SOL    MW4 2540   2.682   0.064   1.184 -0.1295 -0.2860 -0.5515
    1SOL     OW 2541   2.692   0.318   1.058 -0.2548  0.2610  0.1359
    1SOL    HW2 2542   2.684   0.235   1.105 -0.5978  0.8654  1.1650
    1SOL    HW3 2543   2.629   0.376   1.100 -1.0622  0.6221 -1.5312
    1SOL    MW4 2544   2.683   0.315   1.070 -0.4063  0.3884  0.0517
    1SOL     OW 2545   2.883   0.443   1.203 -0.0716  0.1960  0.2289
    1SOL    HW2 2546   2.883   0.530   1.163 -0.1016  0.0699 -0.0478
    1SOL    HW3 2547   2.806   0.399   1.167 -0.5448  0.3563  1.0422
    1SOL    MW4 2548   2.873   0.449   1.193 -0.1380  0.2005  0.2998
    1SOL     OW 2549   2.911   0.701   1.096  0.2325 -0.4663  0.0940
    1SOL    HW2 2550   2.984   0.753   1.130  0.2130 -0.8902  0.7796
    1SOL    HW3 2551   2.833   0.738   1.138  0.1084 -0.3691 -0.2205
    1SOL    MW4 2552   2.910   0.712   1.106  0.2134 -0.5094  0.1429
    1SOL     OW 2553   2.676   0.820   1.195  0.0498  0.1540 -0.0820
    1SOL    HW2 2554   2.698   0.907   1.163  1.5164  0.7775  2.4698
    1SOL    HW3 2555   2.596   0.796   1.148 -0.3253  2.8343 -0.8660
    1SOL    MW4 2556   2.668   0.828   1.185  0.1938  0.5898  0.1513
    1SOL     OW 2557   2.720   1.085   1.121  0.3336 -0.0038  0.4595
    1SOL    HW2 2558   2.739   1.093   1.028 -0.3096 -0.5128  0.2867
    1SOL    HW3 2559   2.795   1.126   1.164  0.5542  0.3757 -0.2828
    1SOL    MW4 2560   2.733   1.092   1.115  0.2780 -0.0209  0.3387
    1SOL     OW 2561   2.921   1.253   1.231  0.0654  0.2062  0.1515
    1SOL    HW2 2562   2.935   1.273   1.323 -0.4716 -1.6348  0.6615
    1SOL    HW3 2563   2.915   1.338   1.188 -0.5199  1.0900  1.9481
    1SOL    MW4 2564   2.922   1.267   1.237 -0.0827  0.0799  0.4560
    1SOL     OW 2565   2.893   1.528   1.095 -0.3023 -0.1211  0.0907
    1SOL    HW2 2566   2.973   1.573   1.122  0.5649 -0.8406 -1.2433
    1SOL    HW3 2567   2.898   1.524   1.000 -2.7353  1.3074 -0.1387
    1SOL    MW4 2568   2.904   1.533   1.086 -0.5090 -0.0275 -0.1155
    1SOL     OW 2569   2.686   1.700   1.193  0.3644  0.5632  0.1849
    1SOL    HW2 2570   2.766   1.650   1.182  0.2873  0.3651  0.5053
    1SOL    HW3 2571   2.616   1.635   1.188  0.2379  0.7004  0.1608
    1SOL    MW4 2572   2.687   1.685   1.191  0.3374  0.5553  0.2240
    1SOL     OW 2573   2.708   1.961   1.085 -0.1510 -0.0066  0.1386
    1SOL    HW2 2574   2.778   1.992   1.143  0.0285  0.2557 -0.2155
    1SOL    HW3 2575   2.689   1.872   1.115  0.8707 -0.3584 -0.2582
    1SOL    MW4 2576   2.715   1.953   1.097  0.0079 -0.0186  0.0395
    1SOL     OW 2577   2.908   2.068   1.251 -0.4966 -0.2470  0.1527
    1SOL    HW2 2578   2.914   2.071   1.347 -0.8714  0.8530  0.1496
    1SOL    HW3 2579   2.911   2.160   1.224  0.3478 -0.5846 -0.9417
    1SOL    MW4 2580   2.910   2.081   1.260 -0.4344 -0.1466  0.0080
    1SOL     OW 2581   2.935   2.316   1.132  0.5591 -0.2671  0.0885
    1SOL    HW2 2582   3.018   2.361   1.147  0.0920  0.9275 -0.8271
    1SOL    HW3 2583   2.875   2.353   1.197  0.4152 -0.2492 -0.0547
    1SOL    MW4 2584   2.938   2.327   1.143  0.4785 -0.1073 -0.0513
    1SOL     OW 2585   2.720   2.450   1.244 -0.0357  0.7321 -0.2338
    1SOL    HW2 2586   2.707   2.439   1.338 -0.7237  0.3295 -0.3720
    1SOL    HW3 2587   2.644   2.408   1.204  0.3924  0.6539 -0.9799
    1SOL    MW4 2588   2.708   2.443   1.251 -0.0699  0.6685 -0.3505
    1SOL     OW 2589   2.693   2.693   1.111 -0.2788 -0.2398  0.0862
    1SOL    HW2 2590   2.707   2.615   1.164  0.8809  0.1171  0.3332
    1SOL    HW3 2591   2.634   2.747   1.163  0.1711 -0.2716  0.6393
    1SOL    MW4 2592   2.687   2.690   1.125 -0.0665 -0.1972  0.1917
    1SOL     OW 2593   2.913   2.811   1.183 -0.0665  0.1958 -0.4384
    1SOL    HW2 2594   2.894   2.816   1.277  1.7884  0.3063 -0.0462
    1SOL    HW3 2595   2.835   2.772   1.145  0.1542 -2.2657  1.4942
    1SOL    MW4 2596   2.900   2.807   1.191  0.2072 -0.1142 -0.1317
    1SOL     OW 2597   2.928   3.072   1.132 -0.3262 -0.2864  0.0728
    1SOL    HW2 2598   2.923   2.978   1.151 -0.5581 -0.2934 -0.0294
    1SOL    HW3 2599   2.910   3.079   1.038  0.9418 -0.2604 -0.1731
    1SOL    MW4 2600   2.925   3.061   1.122 -0.1893 -0.2840  0.0268
    1SOL     OW 2601   2.722   3.213   1.250  0.4362  0.1905 -0.1253
    1SOL    HW2 2602   2.802   3.165   1.225  0.2029 -0.0735 -0.3693
    1SOL    HW3 2603   2.656   3.184   1.188  0.0864  0.2323  0.2227
    1SOL    MW4 2604   2.724   3.203   1.239  0.3591  0.1614 -0.1115
    1SOL     OW 2605   2.714   3.473   1.142  0.0153 -0.0589 -0.1611
    1SOL    HW2 2606   2.730   3.389   1.184 -0.4820 -0.4129 -0.6742
    1SOL    HW3 2607   2.622   3.491   1.158  0.4116  1.0114  1.0495
    1SOL    MW4 2608   2.704   3.465   1.150  0.0021  0.0358 -0.0690
    1SOL     OW 2609   2.932   3.641   1.250  0.0667 -0.2239  0.0395
    1SOL    HW2 2610   2.997   3.591   1.201  1.0875 -0.8795  2.0357
    1SOL    HW3 2611   2.848   3.602   1.224  0.6592 -1.1989 -0.4522
    1SOL    MW4 2612   2.929   3.629   1.240  0.2794 -0.4389  0.2381
    1SOL     OW 2613   2.929   3.856   1.076  0.0377  0.2521 -0.0466
    1SOL    HW2 2614   2.999   3.899   1.126 -0.2171  0.1252  0.4203
    1SOL    HW3 2615   2.928   3.766   1.109  0.7414 -0.1915 -1.1948
    1SOL    MW4 2616   2.938   3.849   1.087  0.0968  0.1769 -0.1365
    1SOL     OW 2617   2.688   3.981   1.191 -0.8241  0.1395 -0.5256
    1SOL    HW2 2618   2.771   3.948   1.157 -0.4472  0.5168  0.0176
    1SOL    HW3 2619   2.622   3.923   1.154 -0.3491  0.0538 -1.2455
    1SOL    MW4 2620   2.690   3.969   1.182 -0.7119  0.1779 -0.5488
    1SOL     OW 2621   2.697   4.235   1.068 -0.3072  0.0607  0.2239
    1SOL    HW2 2622   2.702   4.143   1.093  2.3259  0.6345  2.0337
    1SOL    HW3 2623   2.621   4.269   1.115 -0.4927 -0.8660  0.5947
    1SOL    MW4 2624   2.688   4.228   1.077  0.0157  0.0143  0.5116
    1SOL     OW 2625   2.925   4.348   1.220  0.3998 -0.1300 -0.3709
    1SOL    HW2 2626   3.003   4.294   1.209 -0.2420 -1.7242  2.3513
    1SOL    HW3 2627   2.859   4.306   1.164  0.4276 -1.0837  0.3027
    1SOL    MW4 2628   2.927   4.335   1.211  0.3190 -0.4663  0.0771
    1SOL     OW 2629   3.377   4.651   1.064 -0.3464  0.2776  0.2995
    1SOL    HW2 2630   3.465   4.679   1.090 -0.4643  1.1097 -0.1722
    1SOL    HW3 2631   3.320   4.687   1.132 -0.5150  1.3305 -0.3945
    1SOL    MW4 2632   3.381   4.660   1.077 -0.3839  0.5264  0.1457
    1SOL     OW 2633   3.170   0.106   1.212  0.2921  0.3323  0.1714
    1SOL    HW2 2634   3.167   0.132   1.304 -1.5732  1.2762 -0.1356
    1SOL    HW3 2635   3.102   0.040   1.203  0.0847  0.6480 -0.6464
    1SOL    MW4 2636   3.161   0.101   1.223  0.0188  0.4985  0.0229
    1SOL     OW 2637   3.127   0.356   1.103  0.1604 -0.0765  0.1064
    1SOL    HW2 2638   3.138   0.270   1.143  0.5825 -0.6957 -1.3058
    1SOL    HW3 2639   3.037   0.381   1.123  0.1190 -0.7295  0.7445
    1SOL    MW4 2640   3.117   0.348   1.111  0.2110 -0.2444  0.0043
    1SOL     OW 2641   3.364   0.479   1.196  0.7954 -0.1089 -0.2903
    1SOL    HW2 2642   3.353   0.569   1.167 -1.6238 -0.1561  0.4037
    1SOL    HW3 2643   3.287   0.433   1.162  0.8535 -1.4140  1.2910
    1SOL    MW4 2644   3.353   0.485   1.188  0.4838 -0.2873  0.0099
    1SOL     OW 2645   3.374   0.748   1.142  0.0407  0.1650 -0.1179
    1SOL    HW2 2646   3.378   0.741   1.047  0.0402  0.1825 -0.1192
    1SOL    HW3 2647   3.299   0.806   1.159  0.4629  0.7293 -0.1361
    1SOL    MW4 2648   3.365   0.755   1.132  0.0961  0.2418 -0.1205
    1SOL     OW 2649   3.138   0.883   1.194 -0.2472  0.4204  0.6631
    1SOL    HW2 2650   3.142   0.881   1.290 -0.8210 -0.2503  0.6732
    1SOL    HW3 2651   3.162   0.973   1.171 -0.7058  0.7508  1.4617
    1SOL    MW4 2652   3.142   0.894   1.204 -0.3831  0.3754  0.7697
    1SOL     OW 2653   3.171   1.157   1.099  0.0772  0.4135  0.6416
    1SOL    HW2 2654   3.248   1.194   1.143 -0.0089  2.2101 -0.6474
    1SOL    HW3 2655   3.097   1.191   1.149  0.0432  1.0620  0.1682
    1SOL    MW4 2656   3.171   1.167   1.111  0.0610  0.7362  0.4091
    1SOL     OW 2657   3.382   1.275   1.239 -0.1452 -0.1842  0.1352
    1SOL    HW2 2658   3.383   1.277   1.335  1.1923 -0.1081  0.1265
    1SOL    HW3 2659   3.367   1.366   1.213 -0.4612 -0.1973  0.2586
    1SOL    MW4 2660   3.380   1.287   1.248 -0.0103 -0.1758  0.1503
    1SOL     OW 2661   3.363   1.529   1.110 -0.2318 -0.3949  0.2845
    1SOL    HW2 2662   3.437   1.570   1.153  0.3492  0.1218 -1.1687
    1SOL    HW3 2663   3.287   1.581   1.138  0.4362  1.4088 -1.1523
    1SOL    MW4 2664   3.362   1.542   1.119 -0.0670 -0.0887 -0.0968
    1SOL     OW 2665   3.124   1.640   1.181  0.2748 -0.1441 -0.2346
    1SOL    HW2 2666   3.136   1.649   1.275  0.5352  0.2800 -0.3072
    1SOL    HW3 2667   3.123   1.730   1.148 -1.0406 -0.2423 -0.4942
    1SOL    MW4 2668   3.126   1.653   1.189  0.1357 -0.1012 -0.2784
    1SOL     OW 2669   3.113   1.906   1.128  0.9779 -0.1268 -0.0372
    1SOL    HW2 2670   3.193   1.955   1.150  0.4922 -0.0735  1.6624
    1SOL    HW3 2671   3.043   1.954   1.173  0.0604 -0.5071 -1.0458
    1SOL    MW4 2672   3.115   1.919   1.137  0.7927 -0.1700  0.0539
    1SOL     OW 2673   3.351   2.055   1.184  0.8198  0.2771  0.0669
    1SOL    HW2 2674   3.431   2.009   1.160  1.3999  0.8288  0.9141
    1SOL    HW3 2675   3.368   2.147   1.162  1.5738  0.8929  3.0086
    1SOL    MW4 2676   3.363   2.061   1.178  0.9961  0.4313  0.5667
    1SOL     OW 2677   3.388   2.318   1.108  0.1027  0.0977  0.5850
    1SOL    HW2 2678   3.470   2.354   1.142  0.5767  0.1548 -0.5923
    1SOL    HW3 2679   3.320   2.379   1.138  0.7014  1.0285  0.0932
    1SOL    MW4 2680   3.390   2.331   1.116  0.2439  0.2279  0.3648
    1SOL     OW 2681   3.164   2.436   1.209  0.4360  0.1383 -0.1788
    1SOL    HW2 2682   3.161   2.437   1.304  2.1457 -0.4645 -0.0897
    1SOL    HW3 2683   3.168   2.528   1.184 -1.5789  0.3650  0.2344
    1SOL    MW4 2684   3.164   2.448   1.218  0.3958  0.0887 -0.1127
    1SOL     OW 2685   3.148   2.690   1.085  0.6387  0.4490 -0.1591
    1SOL    HW2 2686   3.069   2.723   1.127 -0.6704 -1.0241 -1.4138
    1SOL    HW3 2687   3.130   2.693   0.991  2.7603  1.7544 -0.5772
    1SOL    MW4 2688   3.135   2.695   1.078  0.7460  0.4272 -0.3798
    1SOL     OW 2689   3.354   2.823   1.202 -0.3610 -0.2363 -0.5001
    1SOL    HW2 2690   3.371   2.912   1.171  0.2524 -0.1073  0.1733
    1SOL    HW3 2691   3.282   2.792   1.148  0.2138  0.2350 -1.5656
    1SOL    MW4 2692   3.347   2.831   1.191 -0.2043 -0.1569 -0.5518
    1SOL     OW 2693   3.397   3.103   1.106  0.1745  0.3716 -0.0955
    1SOL    HW2 2694   3.461   3.157   1.152  1.1675 -1.7220  1.0329
    1SOL    HW3 2695   3.312   3.141   1.130  0.8462  1.4316  0.6586
    1SOL    MW4 2696   3.394   3.115   1.115  0.3941  0.2356  0.1529
    1SOL     OW 2697   3.166   3.210   1.216  0.4052 -0.0875 -0.0874
    1SOL    HW2 2698   3.171   3.209   1.312  2.3948 -2.8160 -0.1478
    1SOL    HW3 2699   3.096   3.148   1.196 -0.0076  0.4825 -0.4105
    1SOL    MW4 2700   3.157   3.201   1.226  0.6132 -0.3724 -0.1380
    1SOL     OW 2701   3.145   3.489   1.118 -0.2249  0.2975 -0.0195
    1SOL    HW2 2702   3.217   3.543   1.150 -1.0878  1.0858  0.6210
    1SOL    HW3 2703   3.156   3.405   1.162 -0.6240  0.9413  1.3459
    1SOL    MW4 2704   3.156   3.485   1.128 -0.3912  0.4866  0.2450
    1SOL     OW 2705   3.402   3.642   1.182 -0.3383 -0.1677 -0.2835
    1SOL    HW2 2706   3.404   3.636   1.278  0.5444  0.8014 -0.2336
    1SOL    HW3 2707   3.477   3.590   1.153  0.6365  1.2337 -0.3410
    1SOL    MW4 2708   3.412   3.635   1.191 -0.0932  0.1452 -0.2844
    1SOL     OW 2709   3.383   3.900   1.111 -0.2914  0.0586 -0.5458
    1SOL    HW2 2710   3.397   3.808   1.132  0.0356  0.2632  0.1749
    1SOL    HW3 2711   3.302   3.923   1.156 -0.3413  0.1409 -0.6765
    1SOL    MW4 2712   3.374   3.891   1.120 -0.2546  0.0966 -0.4680
    1SOL     OW 2713   3.143   3.960   1.239 -0.0345 -0.2832 -0.6317
    1SOL    HW2 2714   3.158   3.980   1.331 -0.4329 -0.7345 -0.4697
    1SOL    HW3 2715   3.152   4.045   1.194  2.5508 -0.4368 -0.4969
    1SOL    MW4 2716   3.146   3.974   1.245  0.2539 -0.3631 -0.5925
    1SOL     OW 2717   3.162   4.207   1.087  0.4108  0.2483 -0.3686
    1SOL    HW2 2718   3.240   4.254   1.117  0.3063 -0.0592  0.3917
    1SOL    HW3 2719   3.148   4.239   0.998  1.2113  0.5556 -0.3922
    1SOL    MW4 2720   3.170   4.217   1.079  0.5023  0.2484 -0.2713
    1SOL     OW 2721   3.361   4.390   1.190  0.0970 -0.6344  0.9141
    1SOL    HW2 2722   3.449   4.356   1.171  0.4148  0.5605  0.1724
    1SOL    HW3 2723   3.360   4.476   1.148 -1.3674 -0.5634  1.0925
    1SOL    MW4 2724   3.373   4.397   1.182 -0.0541 -0.4673  0.8396
    1SOL     OW 2725   3.828   4.665   1.095  0.0906 -0.1044 -0.5644
    1SOL    HW2 2726   3.825   4.578   1.136  2.8105  0.1112  0.2204
    1SOL    HW3 2727   3.823   4.647   1.001  0.2183 -1.1059 -0.3914
    1SOL    MW4 2728   3.827   4.651   1.088  0.4663 -0.2084 -0.4381
    1SOL     OW 2729   3.600   0.088   1.185 -0.2116 -0.3459 -0.1845
    1SOL    HW2 2730   3.592   0.179   1.155 -2.6710 -0.8467 -1.1720
    1SOL    HW3 2731   3.680   0.057   1.143  1.7370  1.8901  1.6899
    1SOL    MW4 2732   3.610   0.096   1.175 -0.2789 -0.1170 -0.0674
    1SOL     OW 2733   3.606   0.361   1.126 -0.2061  0.3835 -0.4141
    1SOL    HW2 2734   3.679   0.414   1.158  0.1591 -1.1210  1.3404
    1SOL    HW3 2735   3.529   0.397   1.168 -0.3605  1.3344 -1.4849
    1SOL    MW4 2736   3.605   0.373   1.135 -0.1783  0.3105 -0.3239
    1SOL     OW 2737   3.801   0.516   1.216 -0.6152 -0.1680  0.1387
    1SOL    HW2 2738   3.881   0.469   1.193 -0.7291 -1.5200  2.3291
    1SOL    HW3 2739   3.812   0.603   1.177  2.0666 -0.2492  0.6108
    1SOL    MW4 2740   3.813   0.521   1.208 -0.2763 -0.3571  0.4900
    1SOL     OW 2741   3.822   0.785   1.150  0.3742  0.0908 -0.8018
    1SOL    HW2 2742   3.893   0.839   1.184  0.6723 -0.1767 -0.9955
    1SOL    HW3 2743   3.744   0.814   1.198  1.1325 -1.6623  1.5399
    1SOL    MW4 2744   3.821   0.796   1.161  0.5136 -0.1759 -0.5184
    1SOL     OW 2745   3.613   0.879   1.287  0.1778 -0.2215 -0.2186
    1SOL    HW2 2746   3.607   0.965   1.246 -0.5019 -0.1388  0.0521
    1SOL    HW3 2747   3.549   0.826   1.239 -1.3841  0.1500  1.4246
    1SOL    MW4 2748   3.603   0.883   1.275 -0.1178 -0.1616  0.0337
    1SOL     OW 2749   3.592   1.124   1.143 -0.0686  0.3987 -0.1474
    1SOL    HW2 2750   3.671   1.171   1.171 -0.2565 -0.0450  1.1721
    1SOL    HW3 2751   3.520   1.179   1.175 -0.2999  0.7832 -1.3142
    1SOL    MW4 2752   3.593   1.137   1.151 -0.1240  0.3908 -0.1272
    1SOL     OW 2753   3.798   1.285   1.212 -0.0278  0.6179 -0.5331
    1SOL    HW2 2754   3.815   1.289   1.306 -0.5749  1.2716 -0.4554
    1SOL    HW3 2755   3.789   1.377   1.186 -1.6929  0.3774 -0.8833
    1SOL    MW4 2756   3.799   1.298   1.221 -0.3195  0.6725 -0.5691
    1SOL     OW 2757   3.783   1.535   1.127  0.0770 -0.3624  0.0810
    1SOL    HW2 2758   3.874   1.563   1.143 -0.2119  0.3633  0.4762
    1SOL    HW3 2759   3.781   1.517   1.033  0.6897 -0.5922  0.1056
    1SOL    MW4 2760   3.795   1.536   1.117  0.1197 -0.2971  0.1365
    1SOL     OW 2761   3.568   1.663   1.213 -0.5371  0.5383 -0.4803
    1SOL    HW2 2762   3.572   1.750   1.174 -0.9950  1.3727  1.2938
    1SOL    HW3 2763   3.653   1.624   1.193  0.0150  1.7365 -0.5059
    1SOL    MW4 2764   3.579   1.669   1.205 -0.5243  0.8066 -0.2495
    1SOL     OW 2765   3.589   1.912   1.104 -0.0437 -0.5239 -0.1018
    1SOL    HW2 2766   3.664   1.949   1.151 -0.6376 -0.1633  0.5660
    1SOL    HW3 2767   3.620   1.904   1.013  0.7420 -0.2060  0.1291
    1SOL    MW4 2768   3.603   1.916   1.098 -0.0188 -0.4344  0.0167
    1SOL     OW 2769   4.022   1.922   1.084  0.1766  0.2840  0.1001
    1SOL    HW2 2770   3.956   1.973   1.131  0.0723  0.9510 -0.7582
    1SOL    HW3 2771   4.028   1.840   1.133  0.0163  0.9367  1.2233
    1SOL    MW4 2772   4.014   1.918   1.096  0.1421  0.4579  0.1351
    1SOL     OW 2773   3.816   2.041   1.224  0.2303 -0.0223  0.0408
    1SOL    HW2 2774   3.809   2.129   1.186  0.8166 -0.0959 -0.2539
    1SOL    HW3 2775   3.794   2.053   1.316  0.7779  0.5277  0.1048
    1SOL    MW4 2776   3.812   2.054   1.231  0.3798  0.0403  0.0104
    1SOL     OW 2777   3.607   2.453   1.216  0.3826  0.0861 -0.4620
    1SOL    HW2 2778   3.608   2.458   1.312  0.6838 -0.3051 -0.4402
    1SOL    HW3 2779   3.678   2.392   1.195  0.3389  0.1965 -0.9365
    1SOL    MW4 2780   3.617   2.445   1.226  0.4163  0.0491 -0.5218
    1SOL     OW 2781   3.600   2.709   1.109  0.2458  0.2383  0.3753
    1SOL    HW2 2782   3.595   2.624   1.153 -0.8104 -0.0245 -0.2428
    1SOL    HW3 2783   3.528   2.759   1.147 -1.9830 -0.6772 -2.4989
    1SOL    MW4 2784   3.590   2.705   1.120 -0.1879  0.0830 -0.0856
    1SOL     OW 2785   3.837   2.838   1.195  0.4777 -0.1575  0.7217
    1SOL    HW2 2786   3.824   2.850   1.289  0.3682 -1.7740  0.9370
    1SOL    HW3 2787   3.759   2.790   1.167  1.5699 -1.6647  0.2281
    1SOL    MW4 2788   3.825   2.833   1.204  0.6077 -0.5696  0.6850
    1SOL     OW 2789   3.814   3.129   1.121  0.2674  1.0058  0.1192
    1SOL    HW2 2790   3.806   3.040   1.155  3.1143 -0.2752 -2.3087
    1SOL    HW3 2791   3.821   3.118   1.026  1.4906  3.7444 -0.1731
    1SOL    MW4 2792   3.814   3.116   1.113  0.8042  1.1983 -0.2396
    1SOL     OW 2793   3.593   3.243   1.231  0.1828  0.2114 -0.1076
    1SOL    HW2 2794   3.581   3.334   1.205 -1.0572 -0.3115 -1.3964
    1SOL    HW3 2795   3.679   3.219   1.196 -0.7784 -0.0065 -2.3534
    1SOL    MW4 2796   3.603   3.252   1.223 -0.1075  0.1137 -0.5739
    1SOL     OW 2797   3.606   3.498   1.102 -0.3581  0.0392  0.5904
    1SOL    HW2 2798   3.691   3.520   1.139  0.5407 -2.3413  0.0045
    1SOL    HW3 2799   3.623   3.487   1.008 -2.0154  3.0179 -0.1313
    1SOL    MW4 2800   3.620   3.499   1.094 -0.4582  0.1183  0.4178
    1SOL     OW 2801   3.822   3.580   1.257 -0.4432  0.3200  0.1375
    1SOL    HW2 2802   3.826   3.574   1.353 -1.1635 -0.2947  0.1345
    1SOL    HW3 2803   3.839   3.673   1.238 -0.7186  0.5277  0.8872
    1SOL    MW4 2804   3.824   3.592   1.267 -0.5744  0.2666  0.2360
    1SOL     OW 2805   3.873   3.828   1.168 -0.0960 -0.4827  0.5909
    1SOL    HW2 2806   3.799   3.882   1.196 -0.2396 -1.7655  2.8253
    1SOL    HW3 2807   3.861   3.817   1.074 -1.3880  1.3621  0.5213
    1SOL    MW4 2808   3.861   3.834   1.160 -0.2854 -0.4089  0.8767
    1SOL     OW 2809   3.645   3.977   1.201  0.2302  0.2711 -0.1265
    1SOL    HW2 2810   3.625   3.982   1.294 -0.5369  0.1016 -0.2750
    1SOL    HW3 2811   3.568   3.934   1.162  0.3500  0.7400 -0.8957
    1SOL    MW4 2812   3.632   3.972   1.208  0.1450  0.3107 -0.2476
    1SOL     OW 2813   3.598   4.251   1.124 -0.2229  0.1023  0.1344
    1SOL    HW2 2814   3.597   4.159   1.151  1.1072  0.4309  1.3385
    1SOL    HW3 2815   3.593   4.248   1.029  1.1459 -1.2607  0.1011
    1SOL    MW4 2816   3.597   4.239   1.115  0.1333 -0.0343  0.2888
    1SOL     OW 2817   3.802   4.409   1.201 -0.1675  0.1237 -0.3821
    1SOL    HW2 2818   3.799   4.404   1.297  0.8418 -1.0180 -0.3979
    1SOL    HW3 2819   3.740   4.342   1.172  0.5030 -0.4328 -0.5316
    1SOL    MW4 2820   3.793   4.399   1.210  0.0541 -0.1006 -0.4040
    1SOL     OW 2821   4.269   4.646   1.161 -0.2051 -0.6944  0.0037
    1SOL    HW2 2822   4.249   4.557   1.189 -0.7128 -0.8008 -0.6863
    1SOL    HW3 2823   4.190   4.696   1.183 -0.2613 -0.5989 -0.4057
    1SOL    MW4 2824   4.256   4.641   1.168 -0.2794 -0.6957 -0.1411
    1SOL     OW 2825   4.035   0.123   1.213  0.4489 -0.7786 -0.5058
    1SOL    HW2 2826   4.025   0.097   1.304 -1.6415 -1.6923 -0.9597
    1SOL    HW3 2827   3.961   0.081   1.168  0.5999  0.8748 -2.3519
    1SOL    MW4 2828   4.024   0.114   1.219  0.1936 -0.6810 -0.8094
    1SOL     OW 2829   4.047   0.397   1.117 -0.2157  0.4123  0.5341
    1SOL    HW2 2830   4.062   0.312   1.158 -0.9615 -0.2101 -0.4678
    1SOL    HW3 2831   4.066   0.382   1.024 -2.1362  0.8636  0.0542
    1SOL    MW4 2832   4.052   0.384   1.110 -0.5674  0.3898  0.3387
    1SOL     OW 2833   4.292   0.522   1.220 -0.2691 -0.1748 -0.0919
    1SOL    HW2 2834   4.286   0.528   1.315  0.3327 -1.3284  0.0324
    1SOL    HW3 2835   4.208   0.485   1.192 -0.5362  0.3855 -0.0357
    1SOL    MW4 2836   4.280   0.518   1.229 -0.2251 -0.2530 -0.0681
    1SOL     OW 2837   4.284   0.799   1.111  0.2443 -0.1157 -0.4080
    1SOL    HW2 2838   4.289   0.711   1.147  0.4661  0.4417  0.9436
    1SOL    HW3 2839   4.345   0.850   1.164  0.5353  0.7336 -1.5355
    1SOL    MW4 2840   4.293   0.794   1.123  0.3119  0.0699 -0.3785
    1SOL     OW 2841   4.057   0.937   1.232  0.4399  0.2970  0.2514
    1SOL    HW2 2842   4.045   0.914   1.324 -0.7618 -3.4327 -0.7285
    1SOL    HW3 2843   4.132   0.884   1.205 -0.6817 -0.4341 -1.4722
    1SOL    MW4 2844   4.066   0.927   1.241  0.1335 -0.2915 -0.1054
    1SOL     OW 2845   4.033   1.172   1.077 -0.4221  0.4249  0.5982
    1SOL    HW2 2846   4.035   1.088   1.124 -0.8803  0.1651  0.1527
    1SOL    HW3 2847   3.951   1.212   1.103 -0.7470  0.2168 -0.0849
    1SOL    MW4 2848   4.022   1.166   1.087 -0.5255  0.3631  0.4493
    1SOL     OW 2849   4.225   1.292   1.258 -0.1810  0.2572 -0.0227
    1SOL    HW2 2850   4.203   1.305   1.350 -0.5436 -0.7962  0.0450
    1SOL    HW3 2851   4.151   1.244   1.222  0.7404 -0.8791 -0.4461
    1SOL    MW4 2852   4.213   1.288   1.265 -0.1073 -0.0317 -0.0696
    1SOL     OW 2853   4.265   1.528   1.122  0.0626  0.1212  0.1667
    1SOL    HW2 2854   4.257   1.440   1.159  1.1191 -0.6636 -1.4134
    1SOL    HW3 2855   4.334   1.570   1.175 -0.4485  0.0122  0.9228
    1SOL    MW4 2856   4.273   1.522   1.134  0.1340  0.0035  0.0579
    1SOL     OW 2857   4.021   1.673   1.207  0.5523 -0.3037 -0.6198
    1SOL    HW2 2858   4.017   1.678   1.302  2.0698 -1.9441 -0.4462
    1SOL    HW3 2859   4.107   1.634   1.188  0.9514  1.4738 -2.7169
    1SOL    MW4 2860   4.032   1.668   1.217  0.8054 -0.2856 -0.8736
    1SOL     OW 2861   3.294   1.820   0.349  0.1542 -0.0399 -0.1850
    1SOL    HW2 2862   3.209   1.821   0.391  0.8723 -2.2674  1.4225
    1SOL    HW3 2863   3.350   1.874   0.405  0.5941 -1.2828  0.5896
    1SOL    MW4 2864   3.290   1.827   0.362  0.3073 -0.4977  0.1293
    1SOL     OW 2865   4.251   2.022   1.264  0.4376 -0.6026 -0.3974
    1SOL    HW2 2866   4.277   2.112   1.247 -0.0814 -0.4429 -0.3171
    1SOL    HW3 2867   4.178   2.006   1.204 -0.8268 -0.3232  1.0415
    1SOL    MW4 2868   4.245   2.031   1.254  0.2027 -0.5448 -0.1971
    1SOL     OW 2869   4.288   2.278   1.173  0.3371 -0.2622  0.1133
    1SOL    HW2 2870   4.203   2.319   1.181 -0.1654 -1.3724  0.6523
    1SOL    HW3 2871   4.305   2.274   1.079 -0.7911 -1.1906 -0.0621
    1SOL    MW4 2872   4.279   2.283   1.162  0.1221 -0.5310  0.1613
    1SOL     OW 2873   4.064   2.444   1.191  0.3025 -0.5915  0.4373
    1SOL    HW2 2874   4.071   2.461   1.285 -0.9593 -0.0381  0.4271
    1SOL    HW3 2875   4.068   2.530   1.150  0.4654 -0.8041 -0.0038
    1SOL    MW4 2876   4.066   2.457   1.198  0.1574 -0.5465  0.3778
    1SOL     OW 2877   4.056   2.695   1.096  0.0195 -0.0545  0.5120
    1SOL    HW2 2878   3.976   2.740   1.126  0.8834  0.5021  2.0286
    1SOL    HW3 2879   4.075   2.735   1.011 -1.2710 -0.1267  0.1762
    1SOL    MW4 2880   4.048   2.707   1.089 -0.0372  0.0095  0.6678
    1SOL     OW 2881   4.269   2.810   1.254 -0.3818 -0.2436  0.4269
    1SOL    HW2 2882   4.291   2.892   1.210  3.0752 -2.2368 -1.7563
    1SOL    HW3 2883   4.188   2.781   1.211 -0.1769  0.7069 -0.6290
    1SOL    MW4 2884   4.261   2.817   1.242  0.1016 -0.3812 -0.0005
    1SOL     OW 2885   4.307   3.084   1.144 -0.0441  0.0076  0.0334
    1SOL    HW2 2886   4.220   3.116   1.167  0.4074  1.6707 -0.5154
    1SOL    HW3 2887   4.307   3.082   1.048  0.8782  1.0048  0.0167
    1SOL    MW4 2888   4.295   3.088   1.134  0.1369  0.3583 -0.0411
    1SOL     OW 2889   4.062   3.223   1.174 -0.2338  0.1913  0.2729
    1SOL    HW2 2890   4.055   3.227   1.270  0.6402 -0.9195  0.3879
    1SOL    HW3 2891   3.978   3.186   1.146  0.4610 -1.8597  0.8019
    1SOL    MW4 2892   4.050   3.219   1.183 -0.0272 -0.2255  0.3579
    1SOL     OW 2893   4.058   3.500   1.164 -0.1921 -0.0099  0.8115
    1SOL    HW2 2894   4.073   3.405   1.162  0.0076  0.0338  0.1311
    1SOL    HW3 2895   3.968   3.509   1.194 -0.2858 -0.4264  0.6647
    1SOL    MW4 2896   4.048   3.488   1.168 -0.1779 -0.0591  0.7023
    1SOL     OW 2897   4.283   3.631   1.240 -0.4059 -0.3041  0.0577
    1SOL    HW2 2898   4.197   3.593   1.222 -0.7098  0.9329 -1.1886
    1SOL    HW3 2899   4.345   3.575   1.194 -0.9075  1.0383 -2.3021
    1SOL    MW4 2900   4.280   3.618   1.232 -0.5121  0.0362 -0.4179
    1SOL     OW 2901   4.243   3.878   1.108 -0.4975 -0.1469 -0.2271
    1SOL    HW2 2902   4.174   3.918   1.161  1.0852  0.5684  1.3494
    1SOL    HW3 2903   4.247   3.788   1.140 -0.6191 -0.1524 -0.2253
    1SOL    MW4 2904   4.234   3.871   1.120 -0.3047 -0.0534 -0.0187
    1SOL     OW 2905   4.060   4.003   1.267  0.6488 -0.4699  0.0319
    1SOL    HW2 2906   4.035   4.092   1.241  0.9079 -0.0428  1.2270
    1SOL    HW3 2907   3.985   3.949   1.241  0.3033  0.1613 -0.3012
    1SOL    MW4 2908   4.047   4.008   1.260  0.6366 -0.3300  0.1456
    1SOL     OW 2909   4.044   4.253   1.163 -0.0544  0.2610 -0.4562
    1SOL    HW2 2910   3.953   4.280   1.177 -0.2384 -0.2218 -0.6898
    1SOL    HW3 2911   4.053   4.251   1.068  0.7519  2.1073 -0.4285
    1SOL    MW4 2912   4.033   4.256   1.152  0.0277  0.4411 -0.4833
    1SOL     OW 2913   4.262   4.392   1.250  0.2551 -0.2826  0.8166
    1SOL    HW2 2914   4.191   4.330   1.237  0.5844 -0.4609 -0.1671
    1SOL    HW3 2915   4.340   4.347   1.219  0.6190  0.3406  0.8074
    1SOL    MW4 2916   4.263   4.378   1.244  0.3476 -0.2241  0.6856
    1SOL     OW 2917   0.240   4.631   1.584 -0.2744  0.0183  0.0971
    1SOL    HW2 2918   0.314   4.690   1.573 -0.6062  0.0038 -2.4777
    1SOL    HW3 2919   0.163   4.684   1.563 -0.6621 -0.9737 -1.0662
    1SOL    MW4 2920   0.239   4.646   1.580 -0.3694 -0.1144 -0.3961
    1SOL     OW 2921   0.002   0.110   1.559 -0.0124  0.3119  0.3741
    1SOL    HW2 2922  -0.077   0.068   1.591  0.6033 -0.0718  1.4221
    1SOL    HW3 2923  -0.007   0.110   1.464 -1.5089  0.7592  0.5037
    1SOL    MW4 2924  -0.009   0.104   1.551 -0.1283  0.3203  0.5295
    1SOL     OW 2925   0.014   0.381   1.626  0.3548 -0.3298  0.3268
    1SOL    HW2 2926   0.018   0.368   1.721 -0.5774 -1.4305  0.2333
    1SOL    HW3 2927   0.016   0.292   1.590  0.5806  0.0783 -0.6725
    1SOL    MW4 2928   0.015   0.368   1.634  0.2616 -0.4211  0.1826
    1SOL     OW 2929   0.256   0.518   1.538 -0.1033 -0.0574  0.2263
    1SOL    HW2 2930   0.191   0.462   1.579  0.1924  0.9067  2.0619
    1SOL    HW3 2931   0.231   0.519   1.445 -1.9981 -0.6322  0.6981
    1SOL    MW4 2932   0.244   0.511   1.531 -0.3143 -0.0060  0.5310
    1SOL     OW 2933   0.259   0.783   1.640 -0.3841 -0.0469 -0.3307
    1SOL    HW2 2934   0.256   0.689   1.619 -0.5312 -0.1436  0.1040
    1SOL    HW3 2935   0.339   0.815   1.598  0.4501 -0.6770  0.7563
    1SOL    MW4 2936   0.269   0.775   1.632 -0.2935 -0.1428 -0.1301
    1SOL     OW 2937   0.013   0.887   1.554 -0.5346 -0.1903 -0.1422
    1SOL    HW2 2938   0.000   0.980   1.574 -1.9341 -0.5845  0.8911
    1SOL    HW3 2939   0.101   0.867   1.587 -0.9768  0.3240  1.4087
    1SOL    MW4 2940   0.023   0.896   1.561 -0.7776 -0.1744  0.1990
    1SOL     OW 2941   4.466   1.146   1.600  0.4898  0.0049 -0.2162
    1SOL    HW2 2942   4.460   1.139   1.695  2.0327 -0.5854 -0.1571
    1SOL    HW3 2943   4.553   1.183   1.584  0.1602  0.2902 -1.3926
    1SOL    MW4 2944   4.477   1.150   1.611  0.6499 -0.0354 -0.3636
    1SOL     OW 2945   0.219   1.270   1.535 -0.3901  0.4776  0.1584
    1SOL    HW2 2946   0.310   1.242   1.542 -0.6193 -0.3209 -0.0290
    1SOL    HW3 2947   0.216   1.354   1.580  0.2568  0.1034  0.8942
    1SOL    MW4 2948   0.230   1.277   1.542 -0.3350  0.3229  0.2308
    1SOL     OW 2949   0.217   1.530   1.613 -0.1127 -0.2570  0.1726
    1SOL    HW2 2950   0.214   1.533   1.709 -0.7606  0.3950  0.1334
    1SOL    HW3 2951   0.137   1.574   1.585  0.6847  0.6840 -0.6832
    1SOL    MW4 2952   0.206   1.536   1.622 -0.0930 -0.0467  0.0544
    1SOL     OW 2953   4.468   1.654   1.537  0.1869  0.0395 -0.5767
    1SOL    HW2 2954   4.489   1.743   1.564 -0.0042  0.2708 -1.1944
    1SOL    HW3 2955   4.469   1.657   1.441  1.2215 -0.8633 -0.6034
    1SOL    MW4 2956   4.471   1.666   1.528  0.2980 -0.0491 -0.6617
    1SOL     OW 2957   4.490   1.915   1.632  0.0829 -0.2634  0.0924
    1SOL    HW2 2958   4.488   1.911   1.728  1.7422  2.3893  0.2840
    1SOL    HW3 2959   4.409   1.961   1.608 -0.2078 -0.7052  0.2037
    1SOL    MW4 2960   4.479   1.920   1.642  0.2635  0.0283  0.1323
    1SOL     OW 2961   0.216   2.073   1.523  0.3963 -0.6761 -0.3475
    1SOL    HW2 2962   0.151   2.010   1.555 -0.5891  0.0299 -0.9321
    1SOL    HW3 2963   0.204   2.074   1.428  0.2057  0.6204 -0.3180
    1SOL    MW4 2964   0.206   2.065   1.515  0.2412 -0.4117 -0.4208
    1SOL     OW 2965   0.203   2.340   1.603 -0.0877 -0.1617 -0.1454
    1SOL    HW2 2966   0.208   2.345   1.698  1.3027 -1.1395 -0.1442
    1SOL    HW3 2967   0.206   2.246   1.584  0.3320  0.0522 -1.1852
    1SOL    MW4 2968   0.204   2.328   1.613  0.1512 -0.2623 -0.2826
    1SOL     OW 2969   4.436   2.449   1.535 -0.3250  0.0489  0.1309
    1SOL    HW2 2970   4.363   2.396   1.567 -0.0246  0.1797  1.0400
    1SOL    HW3 2971   4.514   2.403   1.564 -0.0453 -0.0967 -0.8552
    1SOL    MW4 2972   4.437   2.436   1.543 -0.2484  0.0470  0.1208
    1SOL     OW 2973   0.011   2.707   1.596 -0.2102 -0.7285 -0.1296
    1SOL    HW2 2974  -0.075   2.740   1.569 -0.6126 -1.6930 -0.0225
    1SOL    HW3 2975   0.009   2.614   1.575  1.1168 -0.5904 -0.8916
    1SOL    MW4 2976  -0.001   2.699   1.590 -0.0882 -0.8376 -0.2160
    1SOL     OW 2977   0.208   2.861   1.453 -0.2226 -0.3181 -0.3938
    1SOL    HW2 2978   0.278   2.814   1.497  0.1741  0.6196 -0.0309
    1SOL    HW3 2979   0.128   2.822   1.488  0.0840  0.5648  1.3256
    1SOL    MW4 2980   0.206   2.849   1.463 -0.1298 -0.0777 -0.1190
    1SOL     OW 2981   0.243   3.103   1.585 -0.0673  0.2647 -0.3464
    1SOL    HW2 2982   0.162   3.147   1.558 -0.1075  1.1108  1.1053
    1SOL    HW3 2983   0.244   3.022   1.534 -1.6000  0.4694 -0.7348
    1SOL    MW4 2984   0.232   3.098   1.575 -0.2749  0.4036 -0.2061
    1SOL     OW 2985   0.001   3.200   1.531  0.9451 -0.0672  0.2865
    1SOL    HW2 2986   0.001   3.284   1.577 -1.2479  0.7673 -1.1684
    1SOL    HW3 2987  -0.009   3.223   1.439  0.0441 -1.9190 -0.1005
    1SOL    MW4 2988  -0.000   3.214   1.525  0.5369 -0.2012  0.0433
    1SOL     OW 2989   0.028   3.446   1.684  0.1463 -0.0389  0.1577
    1SOL    HW2 2990   0.020   3.462   1.778  0.3421 -0.1773  0.1989
    1SOL    HW3 2991  -0.029   3.511   1.643 -0.5098 -0.4479  0.4019
    1SOL    MW4 2992   0.019   3.456   1.691  0.0855 -0.1111  0.1954
    1SOL     OW 2993   0.227   3.611   1.521  0.2017  0.2836  0.3441
    1SOL    HW2 2994   0.216   3.701   1.551 -0.6175  0.4478 -0.4170
    1SOL    HW3 2995   0.169   3.560   1.578 -0.7822  0.4950 -0.4596
    1SOL    MW4 2996   0.217   3.616   1.533 -0.0362  0.3331  0.1376
    1SOL     OW 2997   0.191   3.880   1.625  0.0127 -0.4994 -0.4558
    1SOL    HW2 2998   0.200   3.876   1.721 -0.0483 -0.4159 -0.4465
    1SOL    HW3 2999   0.272   3.920   1.594 -0.4536  0.5492 -0.3477
    1SOL    MW4 3000   0.203   3.885   1.634 -0.0569 -0.3500 -0.4404
    1SOL     OW 3001   4.456   3.979   1.510  0.2957  0.3873  0.1462
    1SOL    HW2 3002   4.466   4.073   1.519  0.4972  0.3195  0.6546
    1SOL    HW3 3003   4.532   3.942   1.554  0.4746 -0.0020 -0.4734
    1SOL    MW4 3004   4.467   3.986   1.517  0.3462  0.3273  0.1314
    1SOL     OW 3005   4.472   4.243   1.597 -0.4688  0.0642 -0.0535
    1SOL    HW2 3006   4.473   4.247   1.693 -0.4433  0.7526 -0.0752
    1SOL    HW3 3007   4.395   4.296   1.573 -1.2088 -1.1436 -0.3717
    1SOL    MW4 3008   4.462   4.251   1.607 -0.5631 -0.0043 -0.0985
    1SOL     OW 3009   0.213   4.362   1.524 -0.0461 -0.2230 -0.1231
    1SOL    HW2 3010   0.126   4.331   1.548 -0.2288  0.7260  0.4988
    1SOL    HW3 3011   0.214   4.453   1.554  0.9517 -0.0561 -0.6556
    1SOL    MW4 3012   0.202   4.370   1.531  0.0615 -0.0749 -0.1112
    1SOL     OW 3013   0.694   0.004   1.613  0.0742  0.4369  0.3537
    1SOL    HW2 3014   0.774   0.028   1.567  0.0085  1.3513  0.7119
    1SOL    HW3 3015   0.624   0.038   1.558 -0.0293  0.7408  0.6727
    1SOL    MW4 3016   0.696   0.012   1.600  0.0519  0.5975  0.4431
    1SOL     OW 3017   0.461   0.125   1.466 -0.4014  0.3013 -0.3989
    1SOL    HW2 3018   0.472   0.217   1.490  2.1843  0.5616 -2.3891
    1SOL    HW3 3019   0.424   0.127   1.378  1.1382 -0.5263 -1.0826
    1SOL    MW4 3020   0.458   0.138   1.457  0.1429  0.2265 -0.7515
    1SOL     OW 3021   0.484   0.355   1.576 -0.7316 -0.6667 -0.4987
    1SOL    HW2 3022   0.553   0.407   1.534 -0.9115 -0.0718 -0.0712
    1SOL    HW3 3023   0.404   0.404   1.559 -0.9640 -1.0408 -0.4768
    1SOL    MW4 3024   0.483   0.368   1.568 -0.7860 -0.6375 -0.4393
    1SOL     OW 3025   0.689   0.505   1.482 -0.1528  0.0532  0.1453
    1SOL    HW2 3026   0.684   0.596   1.509 -1.7441 -0.4911  1.7939
    1SOL    HW3 3027   0.668   0.506   1.389  0.1979  1.3873  0.0706
    1SOL    MW4 3028   0.686   0.517   1.473 -0.3165  0.1575  0.3529
    1SOL     OW 3029   0.691   0.768   1.580  0.1443  0.4539  0.1653
    1SOL    HW2 3030   0.700   0.769   1.675 -0.1027  0.9905  0.1847
    1SOL    HW3 3031   0.765   0.820   1.548 -0.1285  0.7992  0.0950
    1SOL    MW4 3032   0.702   0.775   1.588  0.0758  0.5704  0.1585
    1SOL     OW 3033   0.472   0.911   1.484  0.6347 -0.1055  0.0504
    1SOL    HW2 3034   0.467   1.004   1.504 -0.2414  0.2763 -1.8210
    1SOL    HW3 3035   0.550   0.880   1.530  0.7347  1.4732  0.9625
    1SOL    MW4 3036   0.482   0.919   1.493  0.5323  0.1532 -0.0762
    1SOL     OW 3037   0.462   1.166   1.583 -0.0282  0.2954 -0.3876
    1SOL    HW2 3038   0.539   1.213   1.551  0.5435  0.2190  0.8689
    1SOL    HW3 3039   0.466   1.175   1.678 -0.3845 -1.5689 -0.1765
    1SOL    MW4 3040   0.472   1.174   1.591  0.0002  0.0395 -0.1940
    1SOL     OW 3041   0.687   1.275   1.483 -0.3412  0.1229  0.0988
    1SOL    HW2 3042   0.688   1.369   1.497 -2.6915  0.0349  1.0748
    1SOL    HW3 3043   0.671   1.264   1.389  1.7767  0.6831 -0.3426
    1SOL    MW4 3044   0.685   1.286   1.473 -0.3719  0.1851  0.1692
    1SOL     OW 3045   0.671   1.542   1.539  0.2822  0.0601 -0.4684
    1SOL    HW2 3046   0.739   1.600   1.507  0.4503 -0.5697 -1.2743
    1SOL    HW3 3047   0.589   1.587   1.517  0.4253  0.5295 -0.0498
    1SOL    MW4 3048   0.669   1.556   1.532  0.3232  0.0389 -0.5195
    1SOL     OW 3049   0.423   1.688   1.503 -0.0290 -0.0972 -0.0616
    1SOL    HW2 3050   0.442   1.773   1.542 -0.0917  0.6234 -1.5526
    1SOL    HW3 3051   0.357   1.648   1.560  0.6961  0.4443  1.1672
    1SOL    MW4 3052   0.417   1.694   1.515  0.0584  0.0693 -0.0963
    1SOL     OW 3053   0.452   1.942   1.608 -0.2461  0.4647 -0.4308
    1SOL    HW2 3054   0.443   1.945   1.703  1.1355  2.8350 -0.3628
    1SOL    HW3 3055   0.378   1.993   1.575 -0.0434  0.6610 -0.5844
    1SOL    MW4 3056   0.441   1.949   1.616 -0.0371  0.8034 -0.4420
    1SOL     OW 3057   0.665   2.082   1.499  0.2232  0.2706 -0.1484
    1SOL    HW2 3058   0.741   2.046   1.544  0.0644 -0.2852 -0.3292
    1SOL    HW3 3059   0.590   2.047   1.546  0.0372 -0.9556 -1.3324
    1SOL    MW4 3060   0.665   2.073   1.511  0.1777  0.0355 -0.3283
    1SOL     OW 3061   0.655   2.338   1.608  0.7173  0.0875 -0.7237
    1SOL    HW2 3062   0.577   2.369   1.562  0.2969  0.1267  0.0037
    1SOL    HW3 3063   0.665   2.248   1.580  0.7083  0.2420 -1.2203
    1SOL    MW4 3064   0.646   2.330   1.598  0.6607  0.1130 -0.6932
    1SOL     OW 3065   0.430   2.447   1.485  0.0659  0.2071  0.4107
    1SOL    HW2 3066   0.414   2.539   1.506 -0.3442 -0.0904  1.4396
    1SOL    HW3 3067   0.357   2.400   1.525 -0.0225 -0.5140 -0.5956
    1SOL    MW4 3068   0.418   2.453   1.493  0.0001  0.0730  0.4138
    1SOL     OW 3069   0.434   2.721   1.567 -0.0799 -0.4731  0.5548
    1SOL    HW2 3070   0.419   2.724   1.662 -0.6460  1.2964  0.4209
    1SOL    HW3 3071   0.522   2.756   1.556 -0.3473  0.1434  0.3609
    1SOL    MW4 3072   0.443   2.726   1.578 -0.1898 -0.1583  0.5116
    1SOL     OW 3073   0.677   2.830   1.503  0.2572  0.3627 -0.1351
    1SOL    HW2 3074   0.682   2.917   1.545 -0.3114  0.0219  0.6376
    1SOL    HW3 3075   0.751   2.782   1.540 -0.6777 -0.1846  1.0542
    1SOL    MW4 3076   0.688   2.835   1.513  0.0588  0.2453  0.1239
    1SOL     OW 3077   0.678   3.084   1.628 -0.2153 -0.3732 -0.2555
    1SOL    HW2 3078   0.751   3.136   1.593 -0.2709  0.7362  1.1857
    1SOL    HW3 3079   0.600   3.126   1.592 -0.3093  1.2918  1.7940
    1SOL    MW4 3080   0.677   3.097   1.619 -0.2351 -0.0074  0.2050
    1SOL     OW 3081   0.476   3.232   1.486  0.2773 -0.4309 -0.1314
    1SOL    HW2 3082   0.397   3.196   1.527  0.0436  1.2065  0.9101
    1SOL    HW3 3083   0.458   3.229   1.392 -0.6690 -0.8695  0.0557
    1SOL    MW4 3084   0.463   3.227   1.479  0.1216 -0.2728  0.0308
    1SOL     OW 3085   0.475   3.479   1.608 -0.0637 -0.6713 -0.4239
    1SOL    HW2 3086   0.488   3.390   1.577 -1.0212 -1.2448  0.8067
    1SOL    HW3 3087   0.398   3.510   1.560  0.5485 -0.3178 -1.2052
    1SOL    MW4 3088   0.466   3.471   1.597 -0.1093 -0.7002 -0.3645
    1SOL     OW 3089   0.669   3.598   1.461 -0.0620  0.4657  0.0691
    1SOL    HW2 3090   0.751   3.562   1.496  0.3178  2.0453  0.8522
    1SOL    HW3 3091   0.600   3.549   1.506  0.3904 -2.4375 -2.1999
    1SOL    MW4 3092   0.671   3.587   1.472  0.0479  0.2909 -0.1270
    1SOL     OW 3093   0.686   3.878   1.614 -0.1432 -0.3927 -0.0363
    1SOL    HW2 3094   0.760   3.918   1.567  0.0679 -0.5036  0.1975
    1SOL    HW3 3095   0.683   3.788   1.581 -0.4683 -0.2528 -0.3880
    1SOL    MW4 3096   0.696   3.871   1.604 -0.1583 -0.3889 -0.0517
    1SOL     OW 3097   0.431   3.989   1.543  0.2438 -0.0032  0.0784
    1SOL    HW2 3098   0.513   3.952   1.575  0.2934  0.0879  0.0590
    1SOL    HW3 3099   0.442   3.995   1.449 -0.2994 -1.2331 -0.0766
    1SOL    MW4 3100   0.443   3.985   1.535  0.1787 -0.1535  0.0556
    1SOL     OW 3101   0.461   4.266   1.591  0.3408  0.0544  0.2312
    1SOL    HW2 3102   0.460   4.172   1.571 -0.7278  0.2426 -0.6258
    1SOL    HW3 3103   0.376   4.298   1.561  2.0080  1.9350 -2.6937
    1SOL    MW4 3104   0.450   4.258   1.584  0.4198  0.3281 -0.2676
    1SOL     OW 3105   0.671   4.402   1.467  0.1817  0.0170  0.6315
    1SOL    HW2 3106   0.589   4.365   1.500 -0.0838  0.4901  0.5138
    1SOL    HW3 3107   0.672   4.492   1.501  0.0254  0.4248 -0.4443
    1SOL    MW4 3108   0.660   4.409   1.476  0.1261  0.1330  0.4740
    1SOL     OW 3109   1.109   4.632   1.651  0.2607 -0.1442  0.2659
    1SOL    HW2 3110   1.107   4.642   1.746  0.2864 -3.0750  0.6305
    1SOL    HW3 3111   1.195   4.665   1.625  0.8955 -0.7672  1.4893
    1SOL    MW4 3112   1.120   4.637   1.660  0.3480 -0.6132  0.4755
    1SOL     OW 3113   0.935   0.107   1.503 -0.0602 -0.1960 -0.7119
    1SOL    HW2 3114   0.916   0.193   1.540 -0.3184 -0.3454 -0.4945
    1SOL    HW3 3115   1.007   0.073   1.556  0.2643  0.0218 -1.0071
    1SOL    MW4 3116   0.942   0.114   1.515 -0.0514 -0.1870 -0.7222
    1SOL     OW 3117   0.896   0.363   1.609  0.0315  0.2716  0.2536
    1SOL    HW2 3118   0.885   0.370   1.704  1.4185  1.0117  0.3627
    1SOL    HW3 3119   0.824   0.415   1.573  0.0781  0.7958  0.9074
    1SOL    MW4 3120   0.885   0.371   1.617  0.2206  0.4384  0.3544
    1SOL     OW 3121   1.119   0.478   1.502 -0.0485 -0.3557 -0.0835
    1SOL    HW2 3122   1.108   0.565   1.540 -2.1432 -0.7264  0.2047
    1SOL    HW3 3123   1.040   0.430   1.527  0.4295 -1.9064 -1.4354
    1SOL    MW4 3124   1.107   0.483   1.511 -0.2618 -0.6092 -0.2239
    1SOL     OW 3125   1.108   0.749   1.609 -0.1134  0.1524  0.0650
    1SOL    HW2 3126   1.124   0.731   1.702  0.2647  0.2358  0.0186
    1SOL    HW3 3127   1.191   0.785   1.577 -0.1862 -0.0447 -0.3486
    1SOL    MW4 3128   1.121   0.752   1.617 -0.0732  0.1374  0.0043
    1SOL     OW 3129   0.918   0.905   1.494 -0.6893 -0.3347 -0.0327
    1SOL    HW2 3130   0.994   0.849   1.513 -0.4165 -0.4607 -1.4685
    1SOL    HW3 3131   0.907   0.899   1.399  0.7090  3.7632 -0.5778
    1SOL    MW4 3132   0.927   0.897   1.484 -0.4688  0.1893 -0.2940
    1SOL     OW 3133   0.910   1.158   1.580 -0.1376  0.3009 -0.4471
    1SOL    HW2 3134   0.929   1.071   1.547 -0.5861 -0.1022  0.3601
    1SOL    HW3 3135   0.834   1.187   1.529 -0.5581 -0.1448 -0.0748
    1SOL    MW4 3136   0.903   1.151   1.569 -0.2522  0.1891 -0.2915
    1SOL     OW 3137   1.139   1.308   1.512 -0.1927 -0.8319  0.6156
    1SOL    HW2 3138   1.215   1.265   1.552 -0.5026  0.0946  2.2779
    1SOL    HW3 3139   1.065   1.254   1.538 -0.2415 -1.0335  0.0603
    1SOL    MW4 3140   1.140   1.295   1.521 -0.2400 -0.7364  0.7616
    1SOL     OW 3141   1.077   1.549   1.596  0.0736 -0.0709  0.3098
    1SOL    HW2 3142   1.149   1.601   1.561  1.1888 -0.4307  1.9919
    1SOL    HW3 3143   1.097   1.459   1.568 -1.3311  0.2358 -1.7610
    1SOL    MW4 3144   1.089   1.544   1.588  0.0354 -0.0780  0.2586
    1SOL     OW 3145   0.874   1.736   1.517 -0.2098 -0.0061  0.2486
    1SOL    HW2 3146   0.933   1.664   1.538  0.2162 -0.0013 -0.8969
    1SOL    HW3 3147   0.883   1.748   1.423  0.2408  1.9803  0.5093
    1SOL    MW4 3148   0.883   1.728   1.507 -0.0941  0.2567  0.1318
    1SOL     OW 3149   0.870   1.978   1.658 -0.1804  0.0103 -0.0891
    1SOL    HW2 3150   0.947   2.019   1.618 -1.3981  1.5238 -0.9538
    1SOL    HW3 3151   0.873   1.887   1.629  1.3156  0.0416 -0.0504
    1SOL    MW4 3152   0.880   1.971   1.649 -0.1436  0.2141 -0.1981
    1SOL     OW 3153   1.085   2.100   1.539  0.1087 -0.3911 -0.8593
    1SOL    HW2 3154   1.169   2.060   1.561 -0.0454  0.2460  1.0176
    1SOL    HW3 3155   1.094   2.191   1.568 -0.9467 -0.1196 -1.3729
    1SOL    MW4 3156   1.097   2.107   1.546 -0.0508 -0.2711 -0.6793
    1SOL     OW 3157   1.115   2.355   1.603  0.3964 -0.0459  0.0745
    1SOL    HW2 3158   1.184   2.378   1.541  0.3571  1.3713  0.5513
    1SOL    HW3 3159   1.038   2.404   1.574  0.3094  0.4369  1.0895
    1SOL    MW4 3160   1.114   2.364   1.591  0.3797  0.2046  0.2716
    1SOL     OW 3161   0.885   2.490   1.520  0.5009  0.1796  0.3072
    1SOL    HW2 3162   0.868   2.482   1.426  1.7492 -1.0625  0.1654
    1SOL    HW3 3163   0.807   2.454   1.562  0.3400 -0.1582 -0.2721
    1SOL    MW4 3164   0.873   2.484   1.513  0.6444 -0.0288  0.2120
    1SOL     OW 3165   0.897   2.729   1.638  0.6233  0.1464 -0.2661
    1SOL    HW2 3166   0.860   2.714   1.725 -1.1921  0.7971 -0.9081
    1SOL    HW3 3167   0.891   2.643   1.595  0.5192  0.0848 -0.1300
    1SOL    MW4 3168   0.892   2.715   1.644  0.3701  0.2241 -0.3330
    1SOL     OW 3169   1.088   2.858   1.475 -0.1656 -0.1847  0.7563
    1SOL    HW2 3170   1.090   2.950   1.499  0.4871 -0.0632  0.2478
    1SOL    HW3 3171   1.018   2.821   1.528 -0.2092  0.5343  1.2069
    1SOL    MW4 3172   1.079   2.865   1.485 -0.0852 -0.0737  0.7488
    1SOL     OW 3173   1.094   3.128   1.553 -0.0787 -0.3052 -0.2043
    1SOL    HW2 3174   1.088   3.118   1.648 -1.2789  0.1122 -0.2308
    1SOL    HW3 3175   1.177   3.174   1.540 -0.9275  1.5658  0.8025
    1SOL    MW4 3176   1.104   3.133   1.564 -0.3492 -0.0031 -0.0750
    1SOL     OW 3177   0.861   3.226   1.471 -0.0948 -0.4037 -0.0111
    1SOL    HW2 3178   0.941   3.194   1.512 -0.0065  1.3281  1.1906
    1SOL    HW3 3179   0.878   3.220   1.377  0.7284 -1.8031  0.2081
    1SOL    MW4 3180   0.874   3.221   1.464  0.0255 -0.3595  0.1764
    1SOL     OW 3181   0.891   3.487   1.577 -0.4026 -0.2931  0.0500
    1SOL    HW2 3182   0.977   3.521   1.554 -0.6354 -0.9661 -1.9587
    1SOL    HW3 3183   0.891   3.397   1.545 -0.7982 -1.2831  2.7616
    1SOL    MW4 3184   0.902   3.479   1.570 -0.4855 -0.5126  0.1427
    1SOL     OW 3185   1.130   3.615   1.487  0.4190  0.1554 -0.0461
    1SOL    HW2 3186   1.218   3.582   1.502  0.7711  0.2623 -1.8420
    1SOL    HW3 3187   1.107   3.586   1.399 -0.8329  1.2401 -0.1005
    1SOL    MW4 3188   1.138   3.607   1.477  0.3003  0.3123 -0.2903
    1SOL     OW 3189   1.112   3.863   1.610 -0.1470  0.0423  0.0263
    1SOL    HW2 3190   1.186   3.917   1.581 -0.3186  0.9895  1.3035
    1SOL    HW3 3191   1.124   3.780   1.565  0.3540  1.0007 -1.6658
    1SOL    MW4 3192   1.124   3.859   1.600 -0.1036  0.2937 -0.0284
    1SOL     OW 3193   0.906   4.017   1.496  0.3047  0.2621  0.0374
    1SOL    HW2 3194   0.900   4.101   1.542  1.5261 -0.6288  1.9149
    1SOL    HW3 3195   0.968   3.966   1.548 -1.9812 -2.5740  0.1241
    1SOL    MW4 3196   0.914   4.022   1.509  0.1643 -0.2294  0.2966
    1SOL     OW 3197   0.871   4.266   1.591 -0.0876 -0.3524  0.6090
    1SOL    HW2 3198   0.866   4.292   1.683  0.5357 -1.3459  0.9376
    1SOL    HW3 3199   0.790   4.298   1.553  0.0100  0.7744  1.3218
    1SOL    MW4 3200   0.860   4.274   1.598  0.0076 -0.3347  0.7464
    1SOL     OW 3201   1.100   4.393   1.502  0.4656  0.5330 -0.0325
    1SOL    HW2 3202   1.018   4.349   1.524 -0.1800  0.4776 -2.4554
    1SOL    HW3 3203   1.098   4.474   1.553  0.2869 -0.8244  2.1795
    1SOL    MW4 3204   1.089   4.398   1.512  0.3568  0.3467 -0.0606
    1SOL     OW 3205   1.582   0.013   1.592 -0.8399 -0.0626 -0.0643
    1SOL    HW2 3206   1.587   0.011   1.688  0.0018  0.0337 -0.1012
    1SOL    HW3 3207   1.493   0.040   1.573 -1.1228 -0.4344  0.6939
    1SOL    MW4 3208   1.571   0.016   1.602 -0.7660 -0.0989  0.0309
    1SOL     OW 3209   1.330   0.077   1.528  0.0515 -0.3406 -0.0987
    1SOL    HW2 3210   1.336   0.168   1.556  0.5102 -0.4010 -0.0051
    1SOL    HW3 3211   1.326   0.082   1.432 -2.7690 -0.0610 -0.0151
    1SOL    MW4 3212   1.330   0.090   1.519 -0.2601 -0.3117 -0.0753
    1SOL     OW 3213   1.345   0.352   1.603 -0.6059  0.4045 -0.2392
    1SOL    HW2 3214   1.428   0.386   1.571  0.2758 -0.7753  0.7788
    1SOL    HW3 3215   1.279   0.407   1.560  0.7570  2.9068  0.7719
    1SOL    MW4 3216   1.347   0.364   1.593 -0.3098  0.5790  0.0285
    1SOL     OW 3217   1.586   0.461   1.485  0.2646 -0.2900 -0.1396
    1SOL    HW2 3218   1.674   0.444   1.520  0.3467 -0.4364 -0.4160
    1SOL    HW3 3219   1.597   0.454   1.390  0.0487  0.1351 -0.1958
    1SOL    MW4 3220   1.599   0.458   1.477  0.2470 -0.2532 -0.1836
    1SOL     OW 3221   1.580   0.728   1.588  0.0356 -0.0794 -0.2537
    1SOL    HW2 3222   1.579   0.716   1.683  0.9643  0.6170 -0.1506
    1SOL    HW3 3223   1.565   0.641   1.552 -1.9901 -0.0795  0.5424
    1SOL    MW4 3224   1.578   0.715   1.595 -0.1092  0.0125 -0.1351
    1SOL     OW 3225   1.345   0.866   1.494  0.0108 -0.2983  0.1863
    1SOL    HW2 3226   1.423   0.812   1.510  0.1102 -0.1047  0.3585
    1SOL    HW3 3227   1.347   0.884   1.401  1.0367  1.0364  0.4573
    1SOL    MW4 3228   1.356   0.861   1.484  0.1593 -0.0967  0.2449
    1SOL     OW 3229   1.367   1.136   1.576  0.0048 -0.1004  0.6350
    1SOL    HW2 3230   1.361   1.122   1.670  0.2834  0.1371  0.6894
    1SOL    HW3 3231   1.374   1.048   1.539  0.4652 -0.1710  0.8782
    1SOL    MW4 3232   1.367   1.123   1.583  0.1023 -0.0783  0.6741
    1SOL     OW 3233   1.561   1.266   1.458 -0.4133  0.3357 -0.1660
    1SOL    HW2 3234   1.485   1.222   1.495 -0.4759 -0.9349 -1.7656
    1SOL    HW3 3235   1.636   1.227   1.504 -0.7049  1.8234  1.6448
    1SOL    MW4 3236   1.561   1.255   1.469 -0.4600  0.3643 -0.1380
    1SOL     OW 3237   1.549   1.531   1.574 -0.1930  0.0237  0.2027
    1SOL    HW2 3238   1.565   1.532   1.669 -1.0538  0.8818  0.3564
    1SOL    HW3 3239   1.570   1.442   1.547 -0.0744 -0.2727  1.2347
    1SOL    MW4 3240   1.554   1.520   1.583 -0.2910  0.0978  0.3592
    1SOL     OW 3241   1.326   1.689   1.527 -0.1396  0.0523 -0.4310
    1SOL    HW2 3242   1.399   1.641   1.565 -0.3010  0.0290 -0.1532
    1SOL    HW3 3243   1.338   1.680   1.432 -0.0339 -0.3312 -0.3805
    1SOL    MW4 3244   1.337   1.681   1.519 -0.1470 -0.0014 -0.3875
    1SOL     OW 3245   1.323   1.974   1.612  0.1147  0.0123 -0.1397
    1SOL    HW2 3246   1.323   1.959   1.707 -1.8292  0.2599 -0.0797
    1SOL    HW3 3247   1.295   1.891   1.574 -0.4007  0.3137 -0.4199
    1SOL    MW4 3248   1.319   1.961   1.620 -0.2098  0.0849 -0.1689
    1SOL     OW 3249   1.565   2.046   1.507  0.0970 -0.0025 -0.0086
    1SOL    HW2 3250   1.479   2.023   1.543  0.3947  0.0724  0.7628
    1SOL    HW3 3251   1.558   2.026   1.414 -1.4534  1.9257 -0.3680
    1SOL    MW4 3252   1.553   2.041   1.499 -0.0683  0.2618  0.0458
    1SOL     OW 3253   1.541   2.320   1.562 -0.4832  0.1893  0.3713
    1SOL    HW2 3254   1.628   2.354   1.540 -1.2969  0.8859 -1.7826
    1SOL    HW3 3255   1.548   2.226   1.545 -0.3136  0.3214 -0.2834
    1SOL    MW4 3256   1.554   2.312   1.557 -0.5680  0.2987  0.0006
    1SOL     OW 3257   1.322   2.437   1.436 -0.5752  0.1497 -0.4163
    1SOL    HW2 3258   1.325   2.528   1.466 -0.9503  0.6095 -1.7456
    1SOL    HW3 3259   1.394   2.394   1.482 -0.4016  1.1239  0.2201
    1SOL    MW4 3260   1.332   2.443   1.446 -0.6016  0.3388 -0.5077
    1SOL     OW 3261   1.313   2.697   1.531  0.0099 -0.3223 -0.0340
    1SOL    HW2 3262   1.381   2.756   1.496 -0.4310 -0.7616 -1.6788
    1SOL    HW3 3263   1.230   2.737   1.502 -0.3972 -0.2675  1.2046
    1SOL    MW4 3264   1.311   2.710   1.522 -0.1020 -0.3729 -0.0876
    1SOL     OW 3265   1.537   2.834   1.472  0.5129  0.2874 -0.0710
    1SOL    HW2 3266   1.612   2.785   1.506  0.4112  0.4395  0.3731
    1SOL    HW3 3267   1.545   2.826   1.377  0.8966  0.0084 -0.0182
    1SOL    MW4 3268   1.548   2.826   1.464  0.5499  0.2704 -0.0054
    1SOL     OW 3269   1.564   3.096   1.551  0.3111  0.1285  0.2360
    1SOL    HW2 3270   1.643   3.138   1.516  0.6182 -0.1519  0.5890
    1SOL    HW3 3271   1.570   3.006   1.519  0.2151  0.0645  0.3997
    1SOL    MW4 3272   1.575   3.090   1.542  0.3390  0.0830  0.3041
    1SOL     OW 3273   1.340   3.246   1.469 -0.2081  0.0625  0.0442
    1SOL    HW2 3274   1.371   3.334   1.490 -0.3924  0.1726 -0.1499
    1SOL    HW3 3275   1.410   3.188   1.501 -0.9831  0.1661  2.0001
    1SOL    MW4 3276   1.354   3.250   1.476 -0.3346  0.0908  0.2767
    1SOL     OW 3277   1.394   3.513   1.574 -0.2111 -0.3486 -0.0821
    1SOL    HW2 3278   1.405   3.524   1.668 -1.5575 -1.2191  0.1951
    1SOL    HW3 3279   1.471   3.555   1.535 -0.0735  0.7579  1.3594
    1SOL    MW4 3280   1.405   3.520   1.581 -0.3705 -0.3176  0.1447
    1SOL     OW 3281   1.639   3.657   1.499  0.1820  0.0683 -0.4119
    1SOL    HW2 3282   1.626   3.752   1.502 -1.5873 -0.2065  0.8592
    1SOL    HW3 3283   1.621   3.633   1.409 -0.4509  0.7934 -0.4814
    1SOL    MW4 3284   1.635   3.666   1.488 -0.1349  0.1278 -0.2534
    1SOL     OW 3285   1.591   3.933   1.545 -0.1599 -0.1050  0.2332
    1SOL    HW2 3286   1.599   3.927   1.641  0.5705 -0.7409  0.1421
    1SOL    HW3 3287   1.497   3.939   1.530 -0.2716  0.2441  1.0046
    1SOL    MW4 3288   1.579   3.933   1.556 -0.0783 -0.1426  0.3231
    1SOL     OW 3289   1.333   3.989   1.484 -0.0941 -0.4063  0.2926
    1SOL    HW2 3290   1.344   4.078   1.518 -0.6934 -0.3367  0.3013
    1SOL    HW3 3291   1.347   3.998   1.389 -2.0906  0.0482  0.0141
    1SOL    MW4 3292   1.336   4.002   1.476 -0.4365 -0.3366  0.2570
    1SOL     OW 3293   1.333   4.248   1.576 -0.1362  0.0471  0.3865
    1SOL    HW2 3294   1.399   4.299   1.528 -0.3557 -1.8584 -2.0089
    1SOL    HW3 3295   1.250   4.292   1.557 -0.0099  0.3307  0.4826
    1SOL    MW4 3296   1.331   4.261   1.567 -0.1485 -0.1669  0.0832
    1SOL     OW 3297   1.553   4.418   1.500 -0.4230 -0.0647 -0.1228
    1SOL    HW2 3298   1.626   4.367   1.535 -1.0310 -0.4766  0.5648
    1SOL    HW3 3299   1.566   4.505   1.537  0.3131  0.1468 -0.8621
    1SOL    MW4 3300   1.564   4.423   1.510 -0.4060 -0.0911 -0.1297
    1SOL     OW 3301   2.005   4.651   1.586 -0.4560 -0.3477 -0.1031
    1SOL    HW2 3302   2.007   4.672   1.680 -1.2904 -1.5918  0.2003
    1SOL    HW3 3303   1.924   4.691   1.555 -1.0019 -1.3419  0.0452
    1SOL    MW4 3304   1.995   4.659   1.595 -0.6381 -0.6433 -0.0435
    1SOL     OW 3305   1.809   0.113   1.472 -0.3221  0.1121 -0.2414
    1SOL    HW2 3306   1.729   0.066   1.498  0.5333 -1.3600 -0.2150
    1SOL    HW3 3307   1.798   0.128   1.378 -0.7060  0.0691 -0.2048
    1SOL    MW4 3308   1.797   0.108   1.463 -0.2599 -0.0878 -0.2329
    1SOL     OW 3309   1.826   0.366   1.617  0.2570  0.0311 -0.3519
    1SOL    HW2 3310   1.894   0.400   1.559 -0.0908 -0.3688 -1.0110
    1SOL    HW3 3311   1.798   0.284   1.575 -0.6749  0.2297 -0.1355
    1SOL    MW4 3312   1.831   0.360   1.604  0.0882  0.0046 -0.4103
    1SOL     OW 3313   1.998   0.484   1.454  0.1195 -0.5036 -0.2330
    1SOL    HW2 3314   2.083   0.453   1.485  0.2043  0.0266  0.0855
    1SOL    HW3 3315   1.992   0.574   1.488 -0.8859 -0.7913  0.3831
    1SOL    MW4 3316   2.008   0.492   1.462 -0.0021 -0.4716 -0.1097
    1SOL     OW 3317   2.034   0.760   1.532  0.2909  0.3023 -0.3034
    1SOL    HW2 3318   2.034   0.781   1.626  0.2969  0.5080 -0.3494
    1SOL    HW3 3319   1.955   0.802   1.498  0.2432  0.1569 -0.3766
    1SOL    MW4 3320   2.023   0.768   1.540  0.2854  0.3103 -0.3191
    1SOL     OW 3321   1.779   0.867   1.475 -0.0436 -0.0764  0.4997
    1SOL    HW2 3322   1.778   0.944   1.532 -0.3332 -0.0663  0.4828
    1SOL    HW3 3323   1.708   0.811   1.509 -1.4018  0.7393 -0.9509
    1SOL    MW4 3324   1.769   0.870   1.487 -0.2611  0.0325  0.3060
    1SOL     OW 3325   1.784   1.144   1.581 -0.5091  0.0111 -0.6671
    1SOL    HW2 3326   1.865   1.192   1.564 -0.5225  0.4435  0.4475
    1SOL    HW3 3327   1.779   1.137   1.677 -0.9822 -1.3906 -0.7690
    1SOL    MW4 3328   1.794   1.149   1.591 -0.5733 -0.1168 -0.5336
    1SOL     OW 3329   2.012   1.284   1.518  0.5814  0.0258 -0.0975
    1SOL    HW2 3330   2.017   1.373   1.553 -0.2226 -0.5451  1.5029
    1SOL    HW3 3331   2.016   1.296   1.423  2.9558  1.5795  0.1470
    1SOL    MW4 3332   2.013   1.298   1.510  0.7887  0.1553  0.1460
    1SOL     OW 3333   2.034   1.551   1.600  0.1331  0.1100  0.4127
    1SOL    HW2 3334   2.094   1.605   1.548  1.0143 -1.8791 -0.7112
    1SOL    HW3 3335   1.947   1.587   1.580  0.5983  0.3934 -1.1952
    1SOL    MW4 3336   2.030   1.563   1.590  0.3104 -0.1149  0.0525
    1SOL     OW 3337   1.797   1.653   1.528 -0.3298  0.1232 -0.2109
    1SOL    HW2 3338   1.717   1.604   1.549 -0.3892  0.4483  0.3377
    1SOL    HW3 3339   1.799   1.657   1.433 -0.4331 -0.7803 -0.2588
    1SOL    MW4 3340   1.787   1.647   1.518 -0.3512  0.0470 -0.1448
    1SOL     OW 3341   1.809   1.932   1.579  0.3415 -0.2239  0.1390
    1SOL    HW2 3342   1.813   1.836   1.579  0.9988 -0.2032 -0.9267
    1SOL    HW3 3343   1.717   1.952   1.567  0.2603 -0.7251 -0.0857
    1SOL    MW4 3344   1.798   1.922   1.578  0.4175 -0.2873 -0.0314
    1SOL     OW 3345   2.027   2.044   1.459  0.4366  0.1089  0.2050
    1SOL    HW2 3346   2.103   2.015   1.509  0.5639  0.1408  0.0317
    1SOL    HW3 3347   1.954   1.996   1.497  0.8743 -1.6157 -1.0768
    1SOL    MW4 3348   2.027   2.034   1.470  0.5112 -0.1144  0.0130
    1SOL     OW 3349   1.995   2.293   1.575 -0.4261 -0.6037  0.1235
    1SOL    HW2 3350   1.996   2.294   1.671  2.6350 -0.8606  0.1260
    1SOL    HW3 3351   2.013   2.202   1.552  0.2870 -0.2542 -0.7096
    1SOL    MW4 3352   1.997   2.281   1.585  0.0719 -0.5918  0.0138
    1SOL     OW 3353   1.792   2.451   1.503 -0.3027 -0.2712  0.0767
    1SOL    HW2 3354   1.859   2.385   1.523 -0.7941 -0.9215 -0.3791
    1SOL    HW3 3355   1.795   2.459   1.408  0.1116  0.7615  0.1660
    1SOL    MW4 3356   1.801   2.443   1.493 -0.3129 -0.2208  0.0285
    1SOL     OW 3357   1.769   2.720   1.569  0.1705  0.2551 -0.0634
    1SOL    HW2 3358   1.850   2.764   1.544 -0.1869  0.8181 -0.2413
    1SOL    HW3 3359   1.783   2.628   1.546  0.5185  0.4631 -0.6959
    1SOL    MW4 3360   1.781   2.713   1.563  0.1693  0.3564 -0.1702
    1SOL     OW 3361   2.009   2.837   1.518  0.1578  0.5107  0.5978
    1SOL    HW2 3362   2.016   2.930   1.539  0.8522  0.6488 -0.2132
    1SOL    HW3 3363   2.018   2.833   1.423  0.2200 -0.4020  0.6348
    1SOL    MW4 3364   2.011   2.849   1.508  0.2577  0.4084  0.4958
    1SOL     OW 3365   2.036   3.098   1.575 -0.2203 -0.2692  0.3132
    1SOL    HW2 3366   2.030   3.106   1.670  1.0782 -0.0425  0.3847
    1SOL    HW3 3367   2.118   3.141   1.553 -0.3776 -0.5773 -0.8846
    1SOL    MW4 3368   2.046   3.104   1.585 -0.0701 -0.2799  0.1646
    1SOL     OW 3369   1.799   3.212   1.471  0.3777 -0.7712 -0.0767
    1SOL    HW2 3370   1.802   3.300   1.508  0.2591 -1.0150  0.5168
    1SOL    HW3 3371   1.878   3.169   1.506  0.1492 -1.0702  0.0769
    1SOL    MW4 3372   1.810   3.218   1.481  0.3318 -0.8430  0.0218
    1SOL     OW 3373   1.822   3.465   1.578  0.1027 -0.3310  0.0913
    1SOL    HW2 3374   1.829   3.479   1.672  2.8077  1.9465 -0.3954
    1SOL    HW3 3375   1.758   3.531   1.549 -0.6271 -0.9420  0.2971
    1SOL    MW4 3376   1.814   3.475   1.587  0.3632 -0.1111  0.0542
    1SOL     OW 3377   2.035   3.629   1.492  0.0883 -0.1860 -0.0000
    1SOL    HW2 3378   2.106   3.594   1.547  0.1224 -0.7039 -0.3694
    1SOL    HW3 3379   1.959   3.576   1.515  0.1249 -0.4654 -0.5136
    1SOL    MW4 3380   2.035   3.617   1.503  0.0978 -0.2913 -0.1166
    1SOL     OW 3381   2.015   3.896   1.593  0.2978  0.1319 -0.2743
    1SOL    HW2 3382   2.092   3.942   1.558  1.2405 -1.2176 -0.0015
    1SOL    HW3 3383   2.026   3.806   1.564 -1.5197  0.0523 -0.7552
    1SOL    MW4 3384   2.027   3.890   1.585  0.1824 -0.0565 -0.3017
    1SOL     OW 3385   1.824   4.036   1.439  0.0066  0.1918  0.4850
    1SOL    HW2 3386   1.891   3.996   1.495 -0.6546 -1.8828 -0.1834
    1SOL    HW3 3387   1.742   4.001   1.471 -0.4820 -0.0157 -0.9936
    1SOL    MW4 3388   1.822   4.026   1.451 -0.1451 -0.1092  0.2017
    1SOL     OW 3389   1.762   4.273   1.553 -0.3365 -0.0916 -0.0836
    1SOL    HW2 3390   1.832   4.337   1.544 -0.1485 -0.2940 -0.0432
    1SOL    HW3 3391   1.798   4.192   1.518 -0.3338 -0.3473  0.5074
    1SOL    MW4 3392   1.776   4.271   1.547 -0.3113 -0.1521 -0.0004
    1SOL     OW 3393   2.015   4.403   1.452  0.1716 -0.3104  0.2309
    1SOL    HW2 3394   2.095   4.362   1.486  1.2179  1.3561 -0.2064
    1SOL    HW3 3395   2.011   4.488   1.496 -1.4769 -0.4510  0.3953
    1SOL    MW4 3396   2.025   4.409   1.462  0.0923 -0.1087  0.1948
    1SOL     OW 3397   2.501   0.002   1.558  0.3491 -0.0190  0.7358
    1SOL    HW2 3398   2.509   0.006   1.653 -0.7772  1.8777  0.7591
    1SOL    HW3 3399   2.421   0.050   1.538 -0.0386 -1.3613 -1.0950
    1SOL    MW4 3400   2.491   0.009   1.567  0.1497  0.0539  0.4972
    1SOL     OW 3401   2.252   0.116   1.486  0.3950 -0.1051  0.1634
    1SOL    HW2 3402   2.172   0.075   1.519  0.0439  0.3675 -0.0881
    1SOL    HW3 3403   2.248   0.105   1.391  1.2843 -1.2463  0.2517
    1SOL    MW4 3404   2.241   0.109   1.478  0.4661 -0.1933  0.1419
    1SOL     OW 3405   2.210   0.384   1.564 -0.5714 -0.1957 -0.0556
    1SOL    HW2 3406   2.212   0.419   1.653 -0.0069  1.2303 -0.6196
    1SOL    HW3 3407   2.224   0.289   1.575  0.6865  0.1239  1.2909
    1SOL    MW4 3408   2.212   0.376   1.577 -0.3309  0.0347  0.0477
    1SOL     OW 3409   2.450   0.497   1.439  0.5769 -0.0488 -0.3534
    1SOL    HW2 3410   2.517   0.437   1.470  0.8913  0.1643 -0.6197
    1SOL    HW3 3411   2.367   0.454   1.461  0.8013 -0.6288 -0.6359
    1SOL    MW4 3412   2.448   0.483   1.446  0.6483 -0.0972 -0.4258
    1SOL     OW 3413   2.463   0.751   1.577 -0.6044 -0.0453 -0.2160
    1SOL    HW2 3414   2.390   0.805   1.544 -1.1867 -0.9544 -0.4286
    1SOL    HW3 3415   2.455   0.668   1.530  0.8525  0.0100 -0.5643
    1SOL    MW4 3416   2.452   0.747   1.567 -0.4888 -0.1580 -0.2900
    1SOL     OW 3417   2.251   0.887   1.430 -0.0135 -0.3568 -0.0048
    1SOL    HW2 3418   2.253   0.972   1.474 -2.3158  0.3587 -1.2213
    1SOL    HW3 3419   2.176   0.842   1.469 -0.0757 -0.9930 -0.8569
    1SOL    MW4 3420   2.241   0.893   1.441 -0.3254 -0.3464 -0.2778
    1SOL     OW 3421   2.249   1.137   1.575 -0.1029  0.2487  0.0043
    1SOL    HW2 3422   2.254   1.136   1.671  0.8939 -0.1796 -0.0379
    1SOL    HW3 3423   2.174   1.192   1.555  0.9166  2.0330  0.9971
    1SOL    MW4 3424   2.240   1.144   1.585  0.1628  0.4277  0.1296
    1SOL     OW 3425   2.460   1.295   1.484  0.1525 -0.4944 -0.1211
    1SOL    HW2 3426   2.394   1.238   1.523 -1.2124  1.4181  0.4065
    1SOL    HW3 3427   2.470   1.262   1.394 -0.1128 -1.9621  0.3666
    1SOL    MW4 3428   2.453   1.283   1.477 -0.0622 -0.4358  0.0129
    1SOL     OW 3429   2.464   1.564   1.569  0.6434 -0.3477  0.1874
    1SOL    HW2 3430   2.551   1.591   1.540  0.9519 -1.7302 -0.2212
    1SOL    HW3 3431   2.457   1.472   1.541 -1.0814 -0.1345 -0.1177
    1SOL    MW4 3432   2.475   1.555   1.561  0.4563 -0.5020  0.0931
    1SOL     OW 3433   2.238   1.691   1.482 -0.4809 -0.1924  0.1337
    1SOL    HW2 3434   2.317   1.641   1.500 -0.3921  0.4577  1.6943
    1SOL    HW3 3435   2.230   1.690   1.387  0.5257 -1.5918  0.0422
    1SOL    MW4 3436   2.248   1.685   1.472 -0.3364 -0.2912  0.3275
    1SOL     OW 3437   2.236   1.938   1.598 -0.1774 -0.1376  0.2831
    1SOL    HW2 3438   2.232   1.934   1.693  1.9037 -0.7542  0.3750
    1SOL    HW3 3439   2.238   1.846   1.570 -1.1091  0.0387 -0.3707
    1SOL    MW4 3440   2.236   1.925   1.607 -0.0260 -0.1956  0.2090
    1SOL     OW 3441   2.468   2.062   1.508 -0.1370  0.0013  0.1374
    1SOL    HW2 3442   2.390   2.012   1.529 -0.6078  0.2989 -0.8895
    1SOL    HW3 3443   2.487   2.041   1.417  0.7183  0.2793  0.2427
    1SOL    MW4 3444   2.460   2.053   1.499 -0.0863  0.0775  0.0159
    1SOL     OW 3445   2.453   2.315   1.600  0.0296 -0.1247  0.1151
    1SOL    HW2 3446   2.458   2.310   1.695  0.1049  0.2553  0.1294
    1SOL    HW3 3447   2.461   2.224   1.571  2.7268  0.0064  0.3365
    1SOL    MW4 3448   2.454   2.302   1.609  0.3953 -0.0575  0.1462
    1SOL     OW 3449   2.219   2.443   1.513 -0.0382 -0.2498  0.5294
    1SOL    HW2 3450   2.304   2.404   1.533 -0.0159  0.5282  2.0262
    1SOL    HW3 3451   2.155   2.381   1.549 -0.0663 -0.1515  0.6487
    1SOL    MW4 3452   2.222   2.430   1.521 -0.0391 -0.1342  0.7428
    1SOL     OW 3453   2.245   2.708   1.619 -0.0735  0.5001 -0.3244
    1SOL    HW2 3454   2.227   2.620   1.589 -2.0926  0.0333  2.1066
    1SOL    HW3 3455   2.174   2.762   1.584 -0.1566  0.7009  0.1363
    1SOL    MW4 3456   2.233   2.704   1.611 -0.3507  0.4652  0.0571
    1SOL     OW 3457   2.444   2.879   1.498  0.9021 -0.0849  0.3812
    1SOL    HW2 3458   2.457   2.956   1.553 -0.2845 -0.3437  1.0474
    1SOL    HW3 3459   2.378   2.827   1.544  0.4287 -0.6676 -0.9091
    1SOL    MW4 3460   2.437   2.882   1.511  0.6831 -0.1962  0.2989
    1SOL     OW 3461   2.484   3.111   1.634  0.2722 -0.0756 -0.0948
    1SOL    HW2 3462   2.555   3.160   1.592  0.1152  1.7960  1.7203
    1SOL    HW3 3463   2.404   3.148   1.596  0.2310 -1.7680 -1.6977
    1SOL    MW4 3464   2.483   3.123   1.624  0.2463 -0.0520 -0.0669
    1SOL     OW 3465   2.267   3.239   1.506  0.1398 -0.7779  0.0590
    1SOL    HW2 3466   2.258   3.327   1.542 -1.0944 -0.6936 -0.4267
    1SOL    HW3 3467   2.271   3.253   1.411 -0.0690 -1.2351 -0.0183
    1SOL    MW4 3468   2.266   3.253   1.498 -0.0503 -0.8271 -0.0154
    1SOL     OW 3469   2.258   3.511   1.581 -0.3215 -0.3309  0.4509
    1SOL    HW2 3470   2.273   3.532   1.673  1.6555  0.1397  0.0503
    1SOL    HW3 3471   2.335   3.546   1.535 -0.7372 -1.5317 -1.2408
    1SOL    MW4 3472   2.270   3.518   1.587 -0.1156 -0.4270  0.1749
    1SOL     OW 3473   2.473   3.620   1.461 -0.5482  0.0047 -0.0566
    1SOL    HW2 3474   2.547   3.572   1.499  0.0558  0.2486 -0.9111
    1SOL    HW3 3475   2.492   3.712   1.479 -0.6079  0.0725 -0.3354
    1SOL    MW4 3476   2.486   3.626   1.468 -0.4764  0.0460 -0.2060
    1SOL     OW 3477   2.480   3.894   1.562  0.3284  0.6682 -0.1644
    1SOL    HW2 3478   2.485   3.895   1.658 -1.4538  0.4361 -0.0570
    1SOL    HW3 3479   2.566   3.924   1.534  1.6028 -1.2873  1.4938
    1SOL    MW4 3480   2.492   3.898   1.571  0.2613  0.3798  0.0684
    1SOL     OW 3481   2.247   4.004   1.472 -0.0300 -0.4296 -0.3092
    1SOL    HW2 3482   2.326   3.959   1.502 -0.8178 -2.2226 -0.8440
    1SOL    HW3 3483   2.254   4.002   1.376 -0.6674 -0.4652 -0.3538
    1SOL    MW4 3484   2.259   3.998   1.463 -0.2179 -0.6709 -0.3855
    1SOL     OW 3485   2.251   4.302   1.561 -0.2227  0.0919  0.0466
    1SOL    HW2 3486   2.342   4.324   1.542 -0.5414  0.7787 -0.6571
    1SOL    HW3 3487   2.246   4.207   1.544  0.6300 -0.1651  1.1572
    1SOL    MW4 3488   2.262   4.292   1.557 -0.1521  0.1483  0.1001
    1SOL     OW 3489   2.497   4.363   1.489  0.4375  0.2820  0.1952
    1SOL    HW2 3490   2.510   4.457   1.495  1.3937  0.1543  0.0623
    1SOL    HW3 3491   2.491   4.345   1.396 -0.9556  0.3656  0.2456
    1SOL    MW4 3492   2.498   4.373   1.478  0.3798  0.2761  0.1844
    1SOL     OW 3493   2.944   0.015   1.550 -0.1795  0.5218 -0.2509
    1SOL    HW2 3494   2.926   0.023   1.644  0.4561  1.0822 -0.1781
    1SOL    HW3 3495   2.872   0.062   1.508 -0.5449  0.1479 -0.0527
    1SOL    MW4 3496   2.932   0.022   1.557 -0.1435  0.5469 -0.2151
    1SOL     OW 3497   2.712   0.137   1.427  0.1580  0.2776  0.3830
    1SOL    HW2 3498   2.698   0.224   1.463  1.3626  0.1805  1.1040
    1SOL    HW3 3499   2.641   0.084   1.465 -0.4581  0.8854  0.0959
    1SOL    MW4 3500   2.700   0.141   1.437  0.2356  0.3450  0.4401
    1SOL     OW 3501   2.677   0.381   1.552 -0.0123  0.3446 -0.0649
    1SOL    HW2 3502   2.687   0.379   1.647  0.7509  0.4816 -0.1393
    1SOL    HW3 3503   2.750   0.435   1.521  0.3252 -0.5124 -0.7936
    1SOL    MW4 3504   2.688   0.388   1.560  0.1330  0.2496 -0.1708
    1SOL     OW 3505   2.913   0.511   1.478  0.0882 -0.4768  0.0018
    1SOL    HW2 3506   2.914   0.607   1.480  0.4531 -0.4956  0.9419
    1SOL    HW3 3507   2.917   0.489   1.385  1.0257  0.4167 -0.1791
    1SOL    MW4 3508   2.914   0.521   1.466  0.2599 -0.3614  0.1019
    1SOL     OW 3509   2.906   0.779   1.579 -0.0103  0.0437 -0.0573
    1SOL    HW2 3510   2.904   0.792   1.674 -1.0028 -1.5361  0.1515
    1SOL    HW3 3511   2.820   0.808   1.549  0.0377 -0.1564 -0.3832
    1SOL    MW4 3512   2.895   0.785   1.588 -0.1349 -0.1911 -0.0727
    1SOL     OW 3513   2.674   0.917   1.461  0.2461 -0.2005  0.0837
    1SOL    HW2 3514   2.603   0.864   1.497 -0.1622  0.5969  0.4734
    1SOL    HW3 3515   2.676   0.895   1.368 -0.1298 -0.6520  0.1814
    1SOL    MW4 3516   2.665   0.907   1.454  0.1426 -0.1549  0.1481
    1SOL     OW 3517   2.681   1.171   1.593  0.1466 -0.4524  0.2716
    1SOL    HW2 3518   2.680   1.090   1.543 -0.0148 -0.8855  0.9756
    1SOL    HW3 3519   2.609   1.223   1.556  0.0019 -0.7886  0.0802
    1SOL    MW4 3520   2.671   1.167   1.581  0.1059 -0.5538  0.3392
    1SOL     OW 3521   2.919   1.297   1.516 -0.1974 -0.0528  0.1425
    1SOL    HW2 3522   3.000   1.249   1.536 -0.4166 -0.9852 -1.1750
    1SOL    HW3 3523   2.849   1.242   1.551 -0.5155 -1.1983 -2.2629
    1SOL    MW4 3524   2.921   1.284   1.523 -0.2682 -0.3270 -0.3487
    1SOL     OW 3525   2.937   1.555   1.596  0.5109  0.4049 -0.4694
    1SOL    HW2 3526   2.872   1.596   1.539  0.7119 -1.1933 -1.8762
    1SOL    HW3 3527   2.944   1.465   1.565  2.5939  0.2402  0.3656
    1SOL    MW4 3528   2.929   1.549   1.585  0.8125  0.1723 -0.5449
    1SOL     OW 3529   2.713   1.672   1.474  0.0049  0.3500  0.1322
    1SOL    HW2 3530   2.715   1.754   1.523 -0.3700  0.7898 -0.5775
    1SOL    HW3 3531   2.699   1.698   1.383  1.3271 -0.4178 -0.3065
    1SOL    MW4 3532   2.711   1.686   1.468  0.1302  0.3067 -0.0193
    1SOL     OW 3533   2.726   1.910   1.621  0.1629 -0.2380  0.0474
    1SOL    HW2 3534   2.729   1.925   1.716  0.0923  0.0606  0.0039
    1SOL    HW3 3535   2.646   1.954   1.593 -0.0207 -0.6621 -0.0940
    1SOL    MW4 3536   2.716   1.918   1.630  0.1292 -0.2546  0.0230
    1SOL     OW 3537   2.938   2.057   1.521  0.0403 -0.5400 -0.1617
    1SOL    HW2 3538   2.954   2.147   1.549 -0.3737 -0.4516 -0.2118
    1SOL    HW3 3539   2.856   2.033   1.563  0.5200 -1.1376  0.4239
    1SOL    MW4 3540   2.930   2.066   1.530  0.0489 -0.6073 -0.0910
    1SOL     OW 3541   2.913   2.309   1.633  0.3182  0.2357  0.3453
    1SOL    HW2 3542   2.898   2.306   1.728 -0.8492 -2.9627  0.1234
    1SOL    HW3 3543   2.844   2.366   1.599 -0.6906 -0.4612  1.1956
    1SOL    MW4 3544   2.902   2.316   1.641  0.0312 -0.2785  0.4281
    1SOL     OW 3545   2.683   2.433   1.536 -0.2786  0.0039  0.5062
    1SOL    HW2 3546   2.666   2.527   1.547  0.4571  0.3894 -1.3730
    1SOL    HW3 3547   2.601   2.391   1.558 -1.2449  1.2477 -0.6094
    1SOL    MW4 3548   2.670   2.440   1.540 -0.3090  0.2189  0.1111
    1SOL     OW 3549   2.655   2.707   1.580  0.3233  0.4538  0.0860
    1SOL    HW2 3550   2.735   2.734   1.535  0.5523 -1.0007 -0.4275
    1SOL    HW3 3551   2.584   2.749   1.532  0.5527 -1.2978 -1.8168
    1SOL    MW4 3552   2.656   2.716   1.568  0.3839  0.0310 -0.2327
    1SOL     OW 3553   2.891   2.806   1.469 -0.3291 -0.3228 -0.1843
    1SOL    HW2 3554   2.961   2.757   1.512  1.2572  0.6667 -1.5538
    1SOL    HW3 3555   2.902   2.896   1.501  0.5090  0.3080 -2.1284
    1SOL    MW4 3556   2.902   2.812   1.479 -0.0093 -0.1090 -0.6214
    1SOL     OW 3557   2.914   3.058   1.578 -0.0430  0.4348  0.5089
    1SOL    HW2 3558   2.932   3.058   1.672 -0.2325 -1.2898  0.5684
    1SOL    HW3 3559   2.982   3.114   1.540  0.6099  0.3733  1.5693
    1SOL    MW4 3560   2.925   3.065   1.585  0.0186  0.1991  0.6567
    1SOL     OW 3561   2.700   3.234   1.518  0.4811 -0.0738 -0.3998
    1SOL    HW2 3562   2.770   3.172   1.540 -1.6794 -2.0081  1.2149
    1SOL    HW3 3563   2.694   3.230   1.422  1.5764 -1.0167 -0.4429
    1SOL    MW4 3564   2.709   3.225   1.508  0.3405 -0.4532 -0.1924
    1SOL     OW 3565   2.697   3.531   1.589 -0.5786 -0.3467 -0.0973
    1SOL    HW2 3566   2.718   3.515   1.681 -0.2751  0.5793 -0.0006
    1SOL    HW3 3567   2.705   3.445   1.548  1.4843 -0.3892  0.3272
    1SOL    MW4 3568   2.701   3.518   1.596 -0.2663 -0.2303 -0.0286
    1SOL     OW 3569   2.984   3.606   1.527  0.0323 -0.0950  0.1349
    1SOL    HW2 3570   2.904   3.570   1.566  1.0976 -0.0805  2.3806
    1SOL    HW3 3571   2.959   3.625   1.436 -2.0111 -1.7013  0.3127
    1SOL    MW4 3572   2.970   3.604   1.520 -0.0966 -0.3049  0.4545
    1SOL     OW 3573   2.925   3.868   1.605 -0.3084 -0.0985  0.0945
    1SOL    HW2 3574   2.846   3.902   1.563 -1.7952 -1.9757  1.2852
    1SOL    HW3 3575   2.947   3.790   1.555 -0.6680 -0.9660  1.2553
    1SOL    MW4 3576   2.918   3.863   1.593 -0.5519 -0.4604  0.4048
    1SOL     OW 3577   2.732   4.010   1.475  0.0888 -0.2303  0.1574
    1SOL    HW2 3578   2.721   4.099   1.507 -0.1434  0.1321 -0.9067
    1SOL    HW3 3579   2.718   4.016   1.380  0.0147 -1.4026  0.0794
    1SOL    MW4 3580   2.729   4.023   1.467  0.0484 -0.3376  0.0067
    1SOL     OW 3581   2.705   4.250   1.608  0.6884 -0.3800 -0.0542
    1SOL    HW2 3582   2.782   4.300   1.579  0.8027  0.2328  1.2838
    1SOL    HW3 3583   2.631   4.293   1.566  0.6310  1.8414  2.1881
    1SOL    MW4 3584   2.706   4.262   1.598  0.6959 -0.0052  0.4182
    1SOL     OW 3585   2.913   4.364   1.497  0.2457  0.3382 -0.0493
    1SOL    HW2 3586   2.904   4.456   1.522 -2.3990 -0.0149  0.4204
    1SOL    HW3 3587   2.886   4.361   1.406  2.0221  0.2827 -0.5954
    1SOL    MW4 3588   2.908   4.376   1.488  0.1311  0.2847 -0.0592
    1SOL     OW 3589   3.369   0.004   1.586 -0.1948 -0.2320 -0.0011
    1SOL    HW2 3590   3.458   0.032   1.565 -0.1819  0.0659  0.4345
    1SOL    HW3 3591   3.360  -0.082   1.544  0.5857 -0.6384  0.6408
    1SOL    MW4 3592   3.379  -0.004   1.578 -0.0906 -0.2463  0.1410
    1SOL     OW 3593   3.165   0.167   1.480  0.5568 -0.0693  0.5485
    1SOL    HW2 3594   3.244   0.123   1.511 -1.0199 -2.0323  1.9225
    1SOL    HW3 3595   3.093   0.110   1.509 -1.3578  1.6679 -0.6671
    1SOL    MW4 3596   3.166   0.153   1.488  0.0961 -0.0991  0.5693
    1SOL     OW 3597   3.167   0.411   1.587 -0.5860 -0.3946 -0.4123
    1SOL    HW2 3598   3.168   0.322   1.552 -0.4480 -0.7791  0.5563
    1SOL    HW3 3599   3.087   0.450   1.551 -0.1009 -0.5539 -1.6955
    1SOL    MW4 3600   3.156   0.404   1.578 -0.5038 -0.4663 -0.4539
    1SOL     OW 3601   3.401   0.500   1.477 -0.0793  0.1489 -0.4850
    1SOL    HW2 3602   3.318   0.480   1.519 -0.3571  2.2590  0.0564
    1SOL    HW3 3603   3.386   0.486   1.383 -1.2820  1.2091 -0.4623
    1SOL    MW4 3604   3.388   0.496   1.470 -0.2749  0.5672 -0.4106
    1SOL     OW 3605   3.356   0.757   1.571  0.7270 -0.2199  0.0955
    1SOL    HW2 3606   3.358   0.757   1.667 -0.4518 -0.1096  0.1246
    1SOL    HW3 3607   3.381   0.667   1.547 -1.2069 -0.9135  0.5770
    1SOL    MW4 3608   3.360   0.745   1.580  0.3166 -0.2968  0.1628
    1SOL     OW 3609   3.141   0.892   1.466  0.1199  0.7345  0.4943
    1SOL    HW2 3610   3.216   0.850   1.509 -0.1557 -0.5322 -0.2343
    1SOL    HW3 3611   3.065   0.851   1.507 -0.1515 -1.2406 -1.8607
    1SOL    MW4 3612   3.141   0.881   1.477  0.0479  0.3068  0.0874
    1SOL     OW 3613   3.159   1.145   1.587 -0.0707  0.2367 -0.1913
    1SOL    HW2 3614   3.140   1.150   1.680  0.8716  1.2896 -0.0541
    1SOL    HW3 3615   3.146   1.052   1.565  0.3401 -0.1282  1.1080
    1SOL    MW4 3616   3.154   1.133   1.596  0.1078  0.3275 -0.0018
    1SOL     OW 3617   3.404   1.271   1.512 -0.1162 -0.0349 -0.4265
    1SOL    HW2 3618   3.481   1.235   1.555  0.6433  1.5564 -0.4226
    1SOL    HW3 3619   3.330   1.230   1.556  0.7312 -2.1619 -0.9545
    1SOL    MW4 3620   3.404   1.261   1.523  0.0958 -0.1055 -0.4957
    1SOL     OW 3621   3.363   1.544   1.588 -0.3919  0.0743  0.2461
    1SOL    HW2 3622   3.346   1.547   1.682 -1.6590  0.6893  0.0191
    1SOL    HW3 3623   3.378   1.452   1.568 -0.7492 -0.1314  0.9486
    1SOL    MW4 3624   3.363   1.532   1.598 -0.6061  0.1284  0.3089
    1SOL     OW 3625   3.144   1.659   1.442 -0.3589 -0.2313  0.4380
    1SOL    HW2 3626   3.217   1.616   1.486  0.0518  0.6860  0.6505
    1SOL    HW3 3627   3.067   1.633   1.493 -0.1177 -0.7593  0.5340
    1SOL    MW4 3628   3.143   1.650   1.455 -0.2730 -0.1800  0.4787
    1SOL     OW 3629   3.162   1.899   1.592  0.6188  0.2432  0.0569
    1SOL    HW2 3630   3.169   1.823   1.534 -0.2333  0.3875 -0.2384
    1SOL    HW3 3631   3.080   1.941   1.568  1.1804  1.3909  0.0682
    1SOL    MW4 3632   3.152   1.895   1.581  0.5808  0.4135  0.0193
    1SOL     OW 3633   3.359   2.106   1.483 -0.6230  0.1360  0.0536
    1SOL    HW2 3634   3.306   2.043   1.532  0.9396 -1.0609  0.2468
    1SOL    HW3 3635   3.340   2.087   1.391 -2.2951  1.2855  0.1305
    1SOL    MW4 3636   3.349   2.095   1.477 -0.6375  0.1297  0.0892
    1SOL     OW 3637   3.371   2.347   1.599  0.3082 -0.2076 -0.1256
    1SOL    HW2 3638   3.440   2.390   1.548  0.8421  1.7091  2.1091
    1SOL    HW3 3639   3.366   2.258   1.563  2.4533  0.2794 -1.7379
    1SOL    MW4 3640   3.379   2.341   1.588  0.6616  0.1097 -0.0435
    1SOL     OW 3641   3.132   2.408   1.484  0.0728 -0.3461 -0.0644
    1SOL    HW2 3642   3.215   2.391   1.528 -0.0034 -0.2785  0.1081
    1SOL    HW3 3643   3.066   2.371   1.543 -0.2975  2.6944  1.5694
    1SOL    MW4 3644   3.134   2.401   1.498  0.0141  0.0637  0.1740
    1SOL     OW 3645   3.103   2.686   1.575 -0.0149  0.5725 -0.8197
    1SOL    HW2 3646   3.183   2.734   1.556  0.7975 -0.2353  0.4542
    1SOL    HW3 3647   3.121   2.596   1.549 -0.3452  0.2964 -0.1322
    1SOL    MW4 3648   3.116   2.680   1.569  0.0486  0.4294 -0.5610
    1SOL     OW 3649   3.348   2.817   1.476 -0.4506  0.0197 -0.3336
    1SOL    HW2 3650   3.356   2.910   1.500 -0.8508  0.1345 -0.6336
    1SOL    HW3 3651   3.340   2.818   1.381  0.4223 -0.3872 -0.4160
    1SOL    MW4 3652   3.348   2.830   1.467 -0.3881 -0.0188 -0.3840
    1SOL     OW 3653   3.385   3.071   1.563 -0.1222  0.1925 -0.2411
    1SOL    HW2 3654   3.375   3.089   1.657 -0.7371 -1.7883  0.0851
    1SOL    HW3 3655   3.466   3.116   1.539 -0.7438  1.9643  0.9028
    1SOL    MW4 3656   3.395   3.079   1.572 -0.2856  0.1652 -0.0471
    1SOL     OW 3657   3.165   3.204   1.488  0.0981  0.4350  0.9738
    1SOL    HW2 3658   3.179   3.289   1.529  1.4860  1.3864 -1.3541
    1SOL    HW3 3659   3.247   3.157   1.503 -0.0451  0.1416  0.8278
    1SOL    MW4 3660   3.178   3.209   1.495  0.2623  0.5221  0.6474
    1SOL     OW 3661   3.203   3.454   1.603 -0.6654  0.1164  0.1237
    1SOL    HW2 3662   3.194   3.455   1.698 -1.8551 -1.0270  0.0410
    1SOL    HW3 3663   3.128   3.504   1.571 -0.7505 -0.2400 -0.2428
    1SOL    MW4 3664   3.192   3.461   1.611 -0.8337 -0.0815  0.0644
    1SOL     OW 3665   3.387   3.618   1.466  0.2213 -0.5026  0.3082
    1SOL    HW2 3666   3.468   3.581   1.500  0.1332 -1.7306 -0.7838
    1SOL    HW3 3667   3.317   3.566   1.507 -0.0065  0.3223  0.9769
    1SOL    MW4 3668   3.388   3.606   1.476  0.1795 -0.5555  0.2522
    1SOL     OW 3669   3.386   3.888   1.557  0.5991  0.0998 -0.5763
    1SOL    HW2 3670   3.298   3.924   1.549 -0.2149 -1.2228  1.9963
    1SOL    HW3 3671   3.378   3.798   1.525  1.3394  0.3863 -1.5999
    1SOL    MW4 3672   3.373   3.881   1.552  0.5896 -0.0370 -0.3719
    1SOL     OW 3673   3.145   4.013   1.511 -0.3467 -0.6638 -0.2754
    1SOL    HW2 3674   3.143   4.102   1.545 -0.1222 -0.2289 -1.3751
    1SOL    HW3 3675   3.061   3.975   1.538 -0.3504 -0.1975  0.3808
    1SOL    MW4 3676   3.134   4.019   1.519 -0.3176 -0.5445 -0.3339
    1SOL     OW 3677   3.143   4.267   1.599 -0.1791  0.2942  0.1865
    1SOL    HW2 3678   3.145   4.297   1.690 -0.0115 -1.2624  0.7176
    1SOL    HW3 3679   3.059   4.298   1.566 -1.1635 -0.8877  1.5065
    1SOL    MW4 3680   3.132   4.275   1.607 -0.2871 -0.0668  0.4308
    1SOL     OW 3681   3.365   4.407   1.465 -0.4418  0.1240  0.3941
    1SOL    HW2 3682   3.288   4.370   1.510 -1.8692  1.5238 -0.8143
    1SOL    HW3 3683   3.354   4.379   1.374 -0.4909  1.8523 -0.1407
    1SOL    MW4 3684   3.353   4.398   1.459 -0.6366  0.5369  0.1640
    1SOL     OW 3685   3.802   4.653   1.621  0.0652 -0.3121 -0.5260
    1SOL    HW2 3686   3.800   4.655   1.717 -2.1789  2.2682 -0.5522
    1SOL    HW3 3687   3.880   4.704   1.598  0.1321 -0.1918 -0.0535
    1SOL    MW4 3688   3.812   4.660   1.631 -0.2222  0.0443 -0.4671
    1SOL     OW 3689   3.603   0.127   1.509 -0.1737  0.5196  0.1525
    1SOL    HW2 3690   3.680   0.078   1.538 -0.9555 -1.0533 -0.3472
    1SOL    HW3 3691   3.606   0.121   1.413 -0.9887  0.3312  0.1353
    1SOL    MW4 3692   3.613   0.120   1.500 -0.3843  0.2872  0.0843
    1SOL     OW 3693   3.631   0.387   1.623  0.5015 -0.4760 -0.3668
    1SOL    HW2 3694   3.634   0.294   1.601 -0.1522 -0.8512  1.0271
    1SOL    HW3 3695   3.557   0.422   1.574 -0.6126 -1.1810  0.7786
    1SOL    MW4 3696   3.622   0.379   1.614  0.2682 -0.6185 -0.0318
    1SOL     OW 3697   3.854   0.513   1.485  0.1732 -0.1859 -0.0614
    1SOL    HW2 3698   3.783   0.465   1.529 -0.1955 -0.2812 -0.7536
    1SOL    HW3 3699   3.832   0.507   1.392 -0.2002  1.8102 -0.1188
    1SOL    MW4 3700   3.841   0.506   1.479  0.0753  0.0648 -0.1602
    1SOL     OW 3701   3.843   0.752   1.638 -0.5064  0.4975  0.2137
    1SOL    HW2 3702   3.771   0.811   1.616 -0.1488  0.8846  0.0980
    1SOL    HW3 3703   3.824   0.672   1.589 -0.7624  0.6627  0.0458
    1SOL    MW4 3704   3.831   0.749   1.629 -0.4933  0.5704  0.1763
    1SOL     OW 3705   3.617   0.870   1.554  0.1154  0.3335  0.0905
    1SOL    HW2 3706   3.531   0.833   1.572 -0.1313  1.5096  1.4643
    1SOL    HW3 3707   3.624   0.870   1.459 -1.4069  0.2559 -0.0384
    1SOL    MW4 3708   3.607   0.865   1.544 -0.1180  0.4784  0.2548
    1SOL     OW 3709   3.619   1.138   1.603  0.1664 -0.1503 -0.1921
    1SOL    HW2 3710   3.692   1.177   1.555  0.9113  0.6216  1.4987
    1SOL    HW3 3711   3.621   1.045   1.581  1.0887  0.0311 -0.8798
    1SOL    MW4 3712   3.629   1.131   1.594  0.3865 -0.0244 -0.0597
    1SOL     OW 3713   3.831   1.267   1.504 -0.0079 -0.1114 -0.1879
    1SOL    HW2 3714   3.905   1.239   1.558  0.6526 -0.4783 -1.2751
    1SOL    HW3 3715   3.812   1.357   1.534  1.2613  0.2069 -0.3321
    1SOL    MW4 3716   3.838   1.275   1.515  0.2468 -0.1179 -0.3502
    1SOL     OW 3717   3.766   1.528   1.555 -0.5045 -0.1268 -0.7140
    1SOL    HW2 3718   3.750   1.517   1.648  0.1934  0.0886 -0.5638
    1SOL    HW3 3719   3.699   1.590   1.526  0.4075  1.2361  0.0250
    1SOL    MW4 3720   3.755   1.535   1.563 -0.2921  0.0814 -0.5966
    1SOL     OW 3721   3.565   1.712   1.479  0.0852  0.2779 -0.6318
    1SOL    HW2 3722   3.511   1.640   1.510  2.1375 -0.7946  0.5361
    1SOL    HW3 3723   3.561   1.706   1.384 -1.3758 -0.1162 -0.5577
    1SOL    MW4 3724   3.557   1.702   1.471  0.1633  0.0845 -0.4678
    1SOL     OW 3725   3.561   1.972   1.613  0.1822 -0.1746  0.4030
    1SOL    HW2 3726   3.550   1.885   1.574  0.9780 -0.3873  0.6306
    1SOL    HW3 3727   3.502   2.029   1.564  0.1436 -0.7159 -0.1834
    1SOL    MW4 3728   3.552   1.968   1.602  0.2823 -0.2741  0.3557
    1SOL     OW 3729   3.793   2.055   1.496  0.2391 -0.1600  0.3486
    1SOL    HW2 3730   3.808   2.143   1.531 -0.6958  0.1215  0.0320
    1SOL    HW3 3731   3.704   2.033   1.522  1.0534 -1.7146  1.9174
    1SOL    MW4 3732   3.784   2.064   1.504  0.2234 -0.3278  0.5138
    1SOL     OW 3733   3.827   2.309   1.589  0.3212 -0.0198 -0.1368
    1SOL    HW2 3734   3.834   2.308   1.684 -0.3055  0.5779 -0.0800
    1SOL    HW3 3735   3.907   2.353   1.560 -0.6845  2.1950  0.2623
    1SOL    MW4 3736   3.839   2.315   1.598  0.1059  0.3512 -0.0769
    1SOL     OW 3737   3.609   2.455   1.500 -0.1761 -0.2747 -0.1455
    1SOL    HW2 3738   3.614   2.545   1.533 -1.1558 -1.1811  2.6730
    1SOL    HW3 3739   3.689   2.413   1.534 -0.5835 -0.9187  0.0183
    1SOL    MW4 3740   3.620   2.462   1.509 -0.3593 -0.4795  0.2480
    1SOL     OW 3741   3.584   2.723   1.572 -0.0709 -0.0594 -0.0847
    1SOL    HW2 3742   3.571   2.723   1.667 -1.2802 -0.5635 -0.2359
    1SOL    HW3 3743   3.497   2.742   1.537  0.4478  0.4566 -1.0792
    1SOL    MW4 3744   3.571   2.725   1.580 -0.1621 -0.0579 -0.2359
    1SOL     OW 3745   3.791   2.860   1.463 -0.5834 -0.6261 -0.2966
    1SOL    HW2 3746   3.869   2.814   1.495 -0.3251  0.7577  1.1398
    1SOL    HW3 3747   3.718   2.815   1.505 -0.5239 -1.5455 -1.1682
    1SOL    MW4 3748   3.792   2.848   1.473 -0.5412 -0.5648 -0.2220
    1SOL     OW 3749   3.827   3.102   1.607  0.2454 -0.0713  0.1994
    1SOL    HW2 3750   3.883   3.144   1.542 -2.8257  1.4519 -1.5731
    1SOL    HW3 3751   3.802   3.019   1.566  0.2813 -0.2273  0.4933
    1SOL    MW4 3752   3.831   3.096   1.593 -0.1550  0.1092  0.0044
    1SOL     OW 3753   3.620   3.235   1.507 -0.3536  0.1109 -0.0726
    1SOL    HW2 3754   3.699   3.194   1.542  0.4586  0.8528 -1.0070
    1SOL    HW3 3755   3.624   3.221   1.412 -1.1231  0.5237 -0.1779
    1SOL    MW4 3756   3.631   3.228   1.499 -0.3479  0.2632 -0.2097
    1SOL     OW 3757   3.617   3.506   1.590 -0.2247 -0.1119  0.4379
    1SOL    HW2 3758   3.709   3.527   1.573 -0.4554 -0.2551 -1.1166
    1SOL    HW3 3759   3.609   3.413   1.567 -1.1860  0.4012 -1.4151
    1SOL    MW4 3760   3.628   3.497   1.584 -0.3819 -0.0632 -0.0117
    1SOL     OW 3761   3.865   3.600   1.523 -0.2056 -0.0831  0.1852
    1SOL    HW2 3762   3.956   3.582   1.547 -0.2848 -0.0238  0.5245
    1SOL    HW3 3763   3.849   3.689   1.554 -0.4653 -0.1927  0.3687
    1SOL    MW4 3764   3.875   3.609   1.530 -0.2503 -0.0896  0.2542
    1SOL     OW 3765   3.821   3.861   1.595 -0.1053  0.3301 -0.2345
    1SOL    HW2 3766   3.895   3.914   1.569  0.2361 -1.3474 -2.8139
    1SOL    HW3 3767   3.745   3.902   1.553 -0.2089  0.2335 -0.1448
    1SOL    MW4 3768   3.820   3.873   1.586 -0.0741  0.0958 -0.5629
    1SOL     OW 3769   3.614   4.007   1.477  0.0346  0.3754  0.4175
    1SOL    HW2 3770   3.612   4.099   1.504  1.1260  0.1518  1.3150
    1SOL    HW3 3771   3.533   3.970   1.512 -1.1023  1.3183 -1.1751
    1SOL    MW4 3772   3.603   4.014   1.485  0.0286  0.4706  0.3259
    1SOL     OW 3773   3.584   4.302   1.577  0.4422  0.1161  0.2664
    1SOL    HW2 3774   3.568   4.297   1.671 -1.7343 -2.6214 -0.1920
    1SOL    HW3 3775   3.502   4.337   1.541  0.6399 -0.4833 -0.7790
    1SOL    MW4 3776   3.571   4.306   1.585  0.1814 -0.3242  0.0679
    1SOL     OW 3777   3.822   4.422   1.479 -0.4281 -0.0962  0.2446
    1SOL    HW2 3778   3.736   4.386   1.499 -0.7540  0.7472  0.3883
    1SOL    HW3 3779   3.825   4.505   1.527  0.5162 -0.1891  0.3570
    1SOL    MW4 3780   3.811   4.429   1.488 -0.3464  0.0029  0.2784
    1SOL     OW 3781   4.227   4.646   1.596  0.4101  0.1555 -0.2396
    1SOL    HW2 3782   4.222   4.656   1.691  1.5610 -1.0951 -0.0168
    1SOL    HW3 3783   4.241   4.552   1.583  0.0772  0.2894 -1.6579
    1SOL    MW4 3784   4.228   4.635   1.607  0.5178  0.0081 -0.3973
    1SOL     OW 3785   4.015   0.135   1.492  0.0305 -0.5033  0.2047
    1SOL    HW2 3786   4.041   0.222   1.520 -0.4266 -0.7984  1.5733
    1SOL    HW3 3787   4.077   0.076   1.535 -1.7754 -1.0842  2.0882
    1SOL    MW4 3788   4.027   0.139   1.501 -0.2675 -0.6189  0.6337
    1SOL     OW 3789   4.081   0.380   1.580 -0.7384  0.2547  0.0043
    1SOL    HW2 3790   4.057   0.375   1.673  1.2350  0.6015  0.5492
    1SOL    HW3 3791   4.013   0.437   1.542 -0.8728  1.1301  1.4825
    1SOL    MW4 3792   4.069   0.387   1.587 -0.4959  0.4160  0.2713
    1SOL     OW 3793   4.279   0.546   1.498 -0.3196  0.0058 -0.2504
    1SOL    HW2 3794   4.203   0.493   1.521 -1.5338  1.6272 -0.4424
    1SOL    HW3 3795   4.354   0.497   1.531 -1.4941 -1.3394  0.4342
    1SOL    MW4 3796   4.279   0.533   1.505 -0.6347  0.0423 -0.1853
    1SOL     OW 3797   4.272   0.788   1.658 -0.2356  0.1756 -0.2581
    1SOL    HW2 3798   4.265   0.706   1.608 -0.6461 -0.5212  0.9191
    1SOL    HW3 3799   4.357   0.825   1.632  0.7747 -1.5304  0.5211
    1SOL    MW4 3800   4.283   0.782   1.648 -0.1564 -0.1414  0.0000
    1SOL     OW 3801   4.058   0.877   1.506  0.1296  0.2393 -0.2577
    1SOL    HW2 3802   4.137   0.860   1.557  0.2232  0.6734 -0.2542
    1SOL    HW3 3803   3.993   0.818   1.542  0.7286 -0.8479 -0.9388
    1SOL    MW4 3804   4.060   0.867   1.517  0.2208  0.1531 -0.3473
    1SOL     OW 3805   4.053   1.135   1.603  0.2747  0.4685  0.0031
    1SOL    HW2 3806   4.054   1.136   1.699 -2.0856 -0.6268  0.0788
    1SOL    HW3 3807   4.047   1.042   1.580 -1.4657  0.8427 -1.1301
    1SOL    MW4 3808   4.052   1.123   1.613 -0.2670  0.3732 -0.1365
    1SOL     OW 3809   4.247   1.314   1.550  0.1777 -0.2882  0.5646
    1SOL    HW2 3810   4.185   1.242   1.538 -0.3081  0.1165  0.6611
    1SOL    HW3 3811   4.327   1.271   1.580 -0.1885 -0.7632  0.8690
    1SOL    MW4 3812   4.249   1.299   1.552  0.0653 -0.2975  0.6175
    1SOL     OW 3813   4.207   1.587   1.631 -0.1748  0.4511  0.7349
    1SOL    HW2 3814   4.238   1.500   1.603 -0.9701  0.9331 -1.8381
    1SOL    HW3 3815   4.277   1.646   1.606 -0.9455  0.9059 -0.4276
    1SOL    MW4 3816   4.220   1.583   1.624 -0.3810  0.5746  0.2420
    1SOL     OW 3817   3.998   1.665   1.481 -0.4477  0.0911 -0.1149
    1SOL    HW2 3818   4.067   1.613   1.524  0.1587  0.5070 -0.5781
    1SOL    HW3 3819   3.917   1.624   1.509  0.0580 -1.7970 -1.3272
    1SOL    MW4 3820   3.997   1.653   1.490 -0.3011 -0.1031 -0.3359
    1SOL     OW 3821   4.004   1.917   1.610 -0.2182  0.2769 -0.0474
    1SOL    HW2 3822   4.000   1.831   1.567  1.2052  0.1366  0.0757
    1SOL    HW3 3823   3.935   1.968   1.569 -1.0763 -0.9392 -0.1213
    1SOL    MW4 3824   3.995   1.912   1.599 -0.1433  0.0980 -0.0410
    1SOL     OW 3825   4.259   2.021   1.544 -0.6864 -0.3490 -0.0881
    1SOL    HW2 3826   4.180   1.973   1.568 -0.0113 -1.6189 -0.3405
    1SOL    HW3 3827   4.259   2.021   1.448  0.1105 -1.2184 -0.1002
    1SOL    MW4 3828   4.249   2.015   1.534 -0.4921 -0.6313 -0.1231
    1SOL     OW 3829   4.222   2.282   1.630  0.2476 -0.0050 -0.3236
    1SOL    HW2 3830   4.221   2.284   1.725 -2.8981 -0.2282 -0.2948
    1SOL    HW3 3831   4.227   2.189   1.607 -1.7588 -0.1235 -0.3322
    1SOL    MW4 3832   4.223   2.270   1.639 -0.4320 -0.0501 -0.3210
    1SOL     OW 3833   4.028   2.435   1.472 -0.0416 -0.4181 -0.1279
    1SOL    HW2 3834   4.017   2.516   1.521  0.6207 -0.9795  0.9603
    1SOL    HW3 3835   4.094   2.386   1.521  0.1500 -1.2675 -1.2191
    1SOL    MW4 3836   4.035   2.439   1.485  0.0715 -0.6044 -0.1284
    1SOL     OW 3837   4.010   2.719   1.570 -0.5643  0.0096 -0.4662
    1SOL    HW2 3838   4.015   2.700   1.664  0.7918 -0.8932 -0.7064
    1SOL    HW3 3839   4.097   2.753   1.548 -0.7531 -0.1521 -1.4822
    1SOL    MW4 3840   4.022   2.721   1.580 -0.4110 -0.1309 -0.6317
    1SOL     OW 3841   4.269   2.807   1.520 -0.1898  0.0788 -0.2072
    1SOL    HW2 3842   4.257   2.901   1.527 -1.3826 -0.0379 -0.5664
    1SOL    HW3 3843   4.268   2.789   1.426  0.3724 -0.2530 -0.1551
    1SOL    MW4 3844   4.267   2.817   1.508 -0.2728  0.0196 -0.2477
    1SOL     OW 3845   4.248   3.090   1.594 -0.2957 -0.0731 -0.4074
    1SOL    HW2 3846   4.247   3.085   1.689 -1.7421 -1.9570 -0.4868
    1SOL    HW3 3847   4.340   3.100   1.571  0.2102 -1.0463  1.1384
    1SOL    MW4 3848   4.260   3.091   1.603 -0.4196 -0.4504 -0.2139
    1SOL     OW 3849   4.034   3.246   1.453 -0.2410  0.3979  0.2697
    1SOL    HW2 3850   4.064   3.329   1.490 -0.3785 -0.2849  1.9796
    1SOL    HW3 3851   4.086   3.180   1.499 -1.7811 -0.5863  0.6196
    1SOL    MW4 3852   4.045   3.248   1.464 -0.4621  0.1779  0.5414
    1SOL     OW 3853   4.104   3.495   1.572  0.5707  0.2083  0.1133
    1SOL    HW2 3854   4.093   3.479   1.665  0.4665 -0.5650 -0.0323
    1SOL    HW3 3855   4.197   3.516   1.562  0.5120  0.6326  0.4356
    1SOL    MW4 3856   4.115   3.496   1.583  0.5493  0.1624  0.1366
    1SOL     OW 3857   4.379   3.590   1.497 -0.0858  0.1219  0.5291
    1SOL    HW2 3858   4.349   3.674   1.531  0.8299  0.5882  0.1927
    1SOL    HW3 3859   4.344   3.586   1.408 -2.4547 -1.0834  1.4576
    1SOL    MW4 3860   4.371   3.600   1.489 -0.2770  0.0243  0.6073
    1SOL     OW 3861   4.271   3.828   1.649  0.0826 -0.1408  0.0805
    1SOL    HW2 3862   4.192   3.868   1.612 -0.2024  1.0453  1.9262
    1SOL    HW3 3863   4.343   3.877   1.609 -0.2651  2.2861  2.2875
    1SOL    MW4 3864   4.270   3.840   1.639 -0.0005  0.3359  0.6154
    1SOL     OW 3865   4.057   4.010   1.535  0.0573 -0.0273 -0.1638
    1SOL    HW2 3866   4.035   4.102   1.548 -0.3452 -0.1861  0.3146
    1SOL    HW3 3867   4.063   4.000   1.440 -0.2607  0.4106 -0.2340
    1SOL    MW4 3868   4.055   4.021   1.524 -0.0381  0.0100 -0.1100
    1SOL     OW 3869   4.027   4.293   1.609 -0.0597  0.2540  0.1087
    1SOL    HW2 3870   4.008   4.304   1.702 -1.4906  0.5022 -0.2100
    1SOL    HW3 3871   3.957   4.340   1.564  0.3186 -0.3241 -1.1069
    1SOL    MW4 3872   4.015   4.300   1.616 -0.1988  0.2103 -0.0938
    1SOL     OW 3873   4.267   4.384   1.521  0.8801  0.2461  0.0339
    1SOL    HW2 3874   4.185   4.351   1.558  0.5235 -0.3770 -1.2749
    1SOL    HW3 3875   4.258   4.371   1.426  2.3537  0.4651 -0.1594
    1SOL    MW4 3876   4.255   4.378   1.513  1.0276  0.1926 -0.1644
    1SOL     OW 3877   0.246   4.606   1.870 -0.1032  0.2606 -0.1321
    1SOL    HW2 3878   0.311   4.672   1.895 -1.2234  1.8111 -1.2150
    1SOL    HW3 3879   0.233   4.619   1.776 -0.7748 -1.1350 -0.2487
    1SOL    MW4 3880   0.253   4.616   1.861 -0.3396  0.2813 -0.2904
    1SOL     OW 3881   0.023   0.042   1.984 -0.2324 -0.1712  0.0962
    1SOL    HW2 3882   0.020   0.134   1.956 -0.1811  0.2398  1.3981
    1SOL    HW3 3883   0.098   0.006   1.937  0.7173  0.8808  0.7578
    1SOL    MW4 3884   0.033   0.050   1.974 -0.1004  0.0218  0.3554
    1SOL     OW 3885   0.018   0.320   1.890 -0.1012 -0.0323  0.1361
    1SOL    HW2 3886  -0.067   0.362   1.904 -0.1794 -0.7417  1.8674
    1SOL    HW3 3887   0.080   0.371   1.942 -0.0962 -1.6628  1.7643
    1SOL    MW4 3888   0.015   0.332   1.899 -0.1108 -0.3410  0.5792
    1SOL     OW 3889   0.228   0.507   1.995 -0.0583  0.4523  0.3606
    1SOL    HW2 3890   0.294   0.459   1.946 -0.3956  1.4296 -1.1108
    1SOL    HW3 3891   0.244   0.599   1.972  0.1013  0.9903  2.5203
    1SOL    MW4 3892   0.239   0.513   1.985 -0.0818  0.6521  0.4514
    1SOL     OW 3893   0.241   0.783   1.908  0.0640 -0.2717 -0.3346
    1SOL    HW2 3894   0.322   0.823   1.941  0.2125 -0.8306 -0.0136
    1SOL    HW3 3895   0.249   0.787   1.813  0.2734  0.0635 -0.3046
    1SOL    MW4 3896   0.253   0.789   1.900  0.1112 -0.3012 -0.2882
    1SOL     OW 3897   4.487   0.908   1.985 -0.6380  0.0672  0.4740
    1SOL    HW2 3898   4.419   0.846   1.959 -0.7776  0.0704  0.8199
    1SOL    HW3 3899   4.568   0.868   1.955 -0.7137 -0.3615  0.8218
    1SOL    MW4 3900   4.489   0.895   1.978 -0.6664  0.0110  0.5655
    1SOL     OW 3901   4.478   1.158   1.882  0.3693  0.0658 -0.0310
    1SOL    HW2 3902   4.399   1.201   1.913  0.5300  1.1998 -1.1541
    1SOL    HW3 3903   4.479   1.074   1.927 -1.0895  0.3397  0.5301
    1SOL    MW4 3904   4.468   1.153   1.892  0.1979  0.2515 -0.1051
    1SOL     OW 3905   0.222   1.283   1.968  0.3221 -0.2629 -0.2898
    1SOL    HW2 3906   0.210   1.372   1.936  2.3043 -0.6560 -2.2001
    1SOL    HW3 3907   0.142   1.237   1.944  0.3568  0.3510 -1.5807
    1SOL    MW4 3908   0.210   1.289   1.961  0.5882 -0.2337 -0.7122
    1SOL     OW 3909   0.210   1.547   1.894  0.2049 -0.0847 -0.0049
    1SOL    HW2 3910   0.282   1.606   1.917  0.7058 -1.3573  1.7589
    1SOL    HW3 3911   0.133   1.586   1.933  0.2684  0.2002 -0.1575
    1SOL    MW4 3912   0.210   1.560   1.902  0.2794 -0.2152  0.2077
    1SOL     OW 3913   4.470   1.660   1.991 -0.1908 -0.0954 -0.3725
    1SOL    HW2 3914   4.492   1.683   2.081  1.6166 -1.2915 -0.4878
    1SOL    HW3 3915   4.377   1.638   1.994 -0.2058  0.1020  1.1509
    1SOL    MW4 3916   4.460   1.660   2.003  0.0458 -0.2271 -0.1867
    1SOL     OW 3917   0.002   1.919   1.904 -0.7924  0.1907  0.0609
    1SOL    HW2 3918  -0.065   1.978   1.938 -1.7877 -0.0700 -1.4019
    1SOL    HW3 3919  -0.023   1.833   1.937 -1.8624 -0.0915 -1.4393
    1SOL    MW4 3920  -0.010   1.916   1.912 -1.0649  0.1190 -0.3300
    1SOL     OW 3921   0.216   2.059   2.049 -0.6630 -0.0132  0.2758
    1SOL    HW2 3922   0.191   2.147   2.022 -1.5429  0.2468  1.8694
    1SOL    HW3 3923   0.154   2.001   2.003 -0.1446  0.2009 -0.6950
    1SOL    MW4 3924   0.204   2.063   2.039 -0.7107  0.0494  0.3581
    1SOL     OW 3925   0.193   2.306   1.904  0.0732 -0.4340 -0.0068
    1SOL    HW2 3926   0.259   2.369   1.934  0.0516 -0.5925  0.3695
    1SOL    HW3 3927   0.110   2.354   1.908  0.3984  0.3849 -2.2896
    1SOL    MW4 3928   0.191   2.321   1.908  0.1132 -0.3469 -0.2584
    1SOL     OW 3929   4.443   2.462   1.984  0.1679  0.3115  0.0217
    1SOL    HW2 3930   4.460   2.468   2.078 -0.3142 -0.9895  0.2012
    1SOL    HW3 3931   4.457   2.551   1.952  1.1832  0.5992  1.1811
    1SOL    MW4 3932   4.447   2.474   1.992  0.2384  0.1779  0.1982
    1SOL     OW 3933   4.469   2.717   1.864 -0.1499  0.3764 -0.0231
    1SOL    HW2 3934   4.391   2.767   1.888  0.2867  1.1248 -0.1443
    1SOL    HW3 3935   4.474   2.723   1.769  0.4005  0.8630  0.0312
    1SOL    MW4 3936   4.459   2.724   1.855 -0.0196  0.5393 -0.0318
    1SOL     OW 3937   0.160   2.866   2.022  0.5179 -0.8329  0.0625
    1SOL    HW2 3938   0.175   2.951   1.981 -2.2506  0.2587  1.2084
    1SOL    HW3 3939   0.085   2.829   1.975  0.4436 -1.7531  0.8786
    1SOL    MW4 3940   0.152   2.872   2.010  0.1428 -0.8104  0.3211
    1SOL     OW 3941   0.209   3.099   1.868  0.0180  0.1807  0.3829
    1SOL    HW2 3942   0.272   3.160   1.908  0.2255  0.2023  0.0195
    1SOL    HW3 3943   0.220   3.112   1.774  0.5397 -0.9079  0.2897
    1SOL    MW4 3944   0.219   3.109   1.861  0.1142  0.0398  0.3226
    1SOL     OW 3945   4.481   3.205   2.002 -0.2262  0.2760 -0.4392
    1SOL    HW2 3946   4.403   3.161   1.967  0.2099 -0.3265 -0.6699
    1SOL    HW3 3947   4.553   3.171   1.949  0.5920 -1.3898  1.6683
    1SOL    MW4 3948   4.480   3.195   1.990 -0.0610 -0.0231 -0.1916
    1SOL     OW 3949   4.471   3.494   1.948  0.1689 -0.4178 -0.4429
    1SOL    HW2 3950   4.546   3.543   1.983  0.7922  0.1614 -2.5338
    1SOL    HW3 3951   4.487   3.404   1.978  1.3098 -0.1671 -0.2447
    1SOL    MW4 3952   4.483   3.489   1.957  0.4015 -0.3083 -0.6927
    1SOL     OW 3953   0.216   3.614   2.022  0.0014 -0.0847  0.1262
    1SOL    HW2 3954   0.239   3.614   2.115  1.1516 -2.0323 -0.1444
    1SOL    HW3 3955   0.294   3.582   1.978 -0.7176  0.3524 -1.4839
    1SOL    MW4 3956   0.229   3.610   2.029  0.0583 -0.2842 -0.1221
    1SOL     OW 3957   0.250   3.879   1.900 -0.0395  0.3144 -0.3615
    1SOL    HW2 3958   0.309   3.943   1.940  0.7135 -0.2997 -0.4680
    1SOL    HW3 3959   0.271   3.797   1.946 -1.4483  0.2826  0.2291
    1SOL    MW4 3960   0.261   3.876   1.912 -0.1260  0.2291 -0.2975
    1SOL     OW 3961   4.484   3.985   2.012  0.1463 -0.2590 -0.2504
    1SOL    HW2 3962   4.483   4.075   1.979  0.5018  0.1791  0.9057
    1SOL    HW3 3963   4.566   3.949   1.979  0.6213  0.2558  0.3558
    1SOL    MW4 3964   4.495   3.992   2.003  0.2561 -0.1333 -0.0176
    1SOL     OW 3965   4.476   4.223   1.883  0.5719 -0.5467  0.1672
    1SOL    HW2 3966   4.394   4.271   1.895  0.7978  0.2976 -1.5027
    1SOL    HW3 3967   4.542   4.277   1.926  0.4979 -0.4292  0.1342
    1SOL    MW4 3968   4.474   4.236   1.890  0.5922 -0.4201 -0.0576
    1SOL     OW 3969   0.201   4.356   1.984  0.4404 -0.6885 -0.5630
    1SOL    HW2 3970   0.213   4.380   2.076  0.1328 -0.4604 -0.5820
    1SOL    HW3 3971   0.211   4.438   1.936 -2.5118 -0.2278 -0.4648
    1SOL    MW4 3972   0.204   4.370   1.990  0.0103 -0.5975 -0.5527
    1SOL     OW 3973   0.680   0.009   1.889 -0.4615 -0.0541 -0.3722
    1SOL    HW2 3974   0.682  -0.080   1.923 -2.1021  0.1546  0.2935
    1SOL    HW3 3975   0.694  -0.001   1.795  0.9987 -0.8679 -0.0879
    1SOL    MW4 3976   0.682  -0.004   1.881 -0.4852 -0.1340 -0.2468
    1SOL     OW 3977   0.444   0.110   1.952  0.0762 -0.1211 -0.2201
    1SOL    HW2 3978   0.429   0.196   1.914 -1.8450  0.0481  0.8314
    1SOL    HW3 3979   0.528   0.082   1.917  1.1098  2.5201  0.0518
    1SOL    MW4 3980   0.453   0.117   1.943 -0.0409  0.2497 -0.0454
    1SOL     OW 3981   0.439   0.381   1.850  0.2546 -0.1899 -0.2376
    1SOL    HW2 3982   0.515   0.428   1.883 -0.0664  0.0885  0.1201
    1SOL    HW3 3983   0.460   0.361   1.758 -0.4017  2.3930 -0.9933
    1SOL    MW4 3984   0.452   0.385   1.842  0.1256  0.1876 -0.2900
    1SOL     OW 3985   0.642   0.526   1.969 -0.5589 -0.3015  0.5868
    1SOL    HW2 3986   0.650   0.514   2.064  0.4009  0.0141  0.5536
    1SOL    HW3 3987   0.722   0.486   1.933 -0.8315 -0.2562 -0.0750
    1SOL    MW4 3988   0.654   0.519   1.977 -0.4683 -0.2539  0.4951
    1SOL     OW 3989   0.696   0.781   1.856  0.4013 -0.4057  0.0179
    1SOL    HW2 3990   0.776   0.818   1.892  0.6692  0.4023 -1.3637
    1SOL    HW3 3991   0.686   0.696   1.900  1.2294  0.1290  1.2449
    1SOL    MW4 3992   0.705   0.774   1.867  0.5459 -0.2285 -0.0025
    1SOL     OW 3993   0.485   0.920   1.972  0.1734  0.0965 -0.0653
    1SOL    HW2 3994   0.482   0.903   2.066 -0.1010 -1.1613 -0.2889
    1SOL    HW3 3995   0.561   0.871   1.941 -0.3914 -0.4147 -0.6662
    1SOL    MW4 3996   0.494   0.912   1.980  0.0627 -0.1369 -0.1742
    1SOL     OW 3997   0.471   1.186   1.848  0.5097 -0.0053  0.2126
    1SOL    HW2 3998   0.399   1.236   1.886  0.4148 -0.4105  0.5713
    1SOL    HW3 3999   0.461   1.098   1.883  0.0605 -0.5535 -1.2731
    1SOL    MW4 4000   0.460   1.181   1.858  0.4379 -0.1311  0.0639
    1SOL     OW 4001   0.701   1.315   1.936  0.3742  0.2755 -0.2638
    1SOL    HW2 4002   0.681   1.306   2.029  0.4194  0.2752 -0.2543
    1SOL    HW3 4003   0.631   1.267   1.892  0.2269  0.4621 -0.2381
    1SOL    MW4 4004   0.689   1.308   1.942  0.3607  0.3000 -0.2592
    1SOL     OW 4005   0.650   1.564   1.819  0.4187  0.1292 -0.0911
    1SOL    HW2 4006   0.648   1.472   1.845 -0.0262 -0.0338 -0.6790
    1SOL    HW3 4007   0.654   1.562   1.723 -0.1159  0.7170 -0.1311
    1SOL    MW4 4008   0.650   1.551   1.809  0.2895  0.1853 -0.1739
    1SOL     OW 4009   0.445   1.693   1.956  0.1253  0.0529 -0.1704
    1SOL    HW2 4010   0.457   1.667   2.047  0.5987 -0.7190 -0.4554
    1SOL    HW3 4011   0.522   1.660   1.910  0.3703  1.2894 -0.6784
    1SOL    MW4 4012   0.457   1.685   1.962  0.2200  0.1143 -0.2749
    1SOL     OW 4013   0.421   1.953   1.900  0.0430  0.4664 -0.1899
    1SOL    HW2 4014   0.440   1.868   1.939 -1.4130 -1.0796 -2.7126
    1SOL    HW3 4015   0.350   1.989   1.953  0.4677  0.0064  0.7071
    1SOL    MW4 4016   0.414   1.946   1.912 -0.0930  0.2018 -0.4045
    1SOL     OW 4017   0.630   2.103   1.995  0.2686  0.1695  0.3576
    1SOL    HW2 4018   0.618   2.095   2.090 -1.1039 -0.6588  0.1197
    1SOL    HW3 4019   0.557   2.055   1.957  1.2363 -0.1610 -1.1385
    1SOL    MW4 4020   0.619   2.096   2.002  0.2152  0.0167  0.1287
    1SOL     OW 4021   0.614   2.362   1.877 -0.0581 -0.2759 -0.4396
    1SOL    HW2 4022   0.607   2.275   1.917 -0.6657  0.1075  0.3121
    1SOL    HW3 4023   0.643   2.345   1.788 -0.7624 -1.2974 -0.4927
    1SOL    MW4 4024   0.617   2.348   1.871 -0.2312 -0.3600 -0.3474
    1SOL     OW 4025   0.397   2.483   2.003 -0.0486 -0.2998 -0.1312
    1SOL    HW2 4026   0.416   2.459   2.093 -0.0571 -1.1159 -0.3440
    1SOL    HW3 4027   0.466   2.441   1.951 -0.0590  0.1368 -0.5115
    1SOL    MW4 4028   0.409   2.474   2.008 -0.0511 -0.3500 -0.2093
    1SOL     OW 4029   0.370   2.723   1.840 -0.1425 -0.1149 -0.0645
    1SOL    HW2 4030   0.364   2.637   1.881  1.3571  0.2952  1.0790
    1SOL    HW3 4031   0.298   2.773   1.880  1.0128  0.1325  1.7704
    1SOL    MW4 4032   0.360   2.718   1.851  0.2078 -0.0281  0.3285
    1SOL     OW 4033   0.603   2.835   1.938 -0.4838  0.2619 -0.0951
    1SOL    HW2 4034   0.612   2.821   2.032 -0.0535 -0.5636 -0.2566
    1SOL    HW3 4035   0.522   2.792   1.914 -0.2545 -0.1022 -0.2180
    1SOL    MW4 4036   0.594   2.828   1.947 -0.3968  0.1049 -0.1327
    1SOL     OW 4037   0.666   3.115   1.906  0.0773 -0.1293 -0.1267
    1SOL    HW2 4038   0.639   3.024   1.919 -0.2393  0.0456  0.4560
    1SOL    HW3 4039   0.666   3.127   1.811  1.1261 -1.0473 -0.2564
    1SOL    MW4 4040   0.663   3.105   1.895  0.1739 -0.2275 -0.0669
    1SOL     OW 4041   0.430   3.233   1.989 -0.0203 -0.4005 -0.0057
    1SOL    HW2 4042   0.450   3.327   1.990 -0.1919 -0.3600  2.3518
    1SOL    HW3 4043   0.507   3.193   1.947  0.7210  0.6422  0.3389
    1SOL    MW4 4044   0.443   3.240   1.983  0.0548 -0.2577  0.3508
    1SOL     OW 4045   0.437   3.499   1.903 -0.1163  0.2814  0.5002
    1SOL    HW2 4046   0.514   3.550   1.929 -1.2347  2.4948 -0.3359
    1SOL    HW3 4047   0.443   3.493   1.808 -1.2166  0.9523  0.3656
    1SOL    MW4 4048   0.448   3.505   1.894 -0.4090  0.6618  0.3722
    1SOL     OW 4049   0.681   3.621   1.984 -0.0570 -0.3932 -0.3390
    1SOL    HW2 4050   0.754   3.574   1.942  0.2813  0.4623 -0.7176
    1SOL    HW3 4051   0.677   3.705   1.938 -1.7663 -0.7280 -0.8343
    1SOL    MW4 4052   0.690   3.626   1.972 -0.2379 -0.3245 -0.4543
    1SOL     OW 4053   0.686   3.885   1.912  0.2740  0.6344 -0.3933
    1SOL    HW2 4054   0.759   3.942   1.938 -0.3381  1.5892 -0.7386
    1SOL    HW3 4055   0.687   3.887   1.816  1.8915 -2.0652 -0.5058
    1SOL    MW4 4056   0.696   3.893   1.903  0.4066  0.4041 -0.4537
    1SOL     OW 4057   0.463   4.034   1.995 -0.0401 -0.4567 -0.1099
    1SOL    HW2 4058   0.467   4.124   1.964  1.4859 -0.2528  0.5950
    1SOL    HW3 4059   0.546   3.995   1.965  1.1120 -0.4771  2.9416
    1SOL    MW4 4060   0.475   4.040   1.987  0.3132 -0.4325  0.3856
    1SOL     OW 4061   0.449   4.288   1.886  0.2531 -0.0181  0.0325
    1SOL    HW2 4062   0.362   4.299   1.924 -0.2413  0.2887 -1.1909
    1SOL    HW3 4063   0.434   4.273   1.793  1.5112  0.0300 -0.1947
    1SOL    MW4 4064   0.436   4.287   1.879  0.3539  0.0286 -0.1589
    1SOL     OW 4065   0.656   4.423   1.969 -0.7875 -0.2496 -0.2749
    1SOL    HW2 4066   0.731   4.375   1.935 -0.0479 -0.2425  1.2889
    1SOL    HW3 4067   0.580   4.379   1.932 -0.0378 -0.7798 -1.2049
    1SOL    MW4 4068   0.656   4.411   1.960 -0.5910 -0.3190 -0.1912
    1SOL     OW 4069   1.111   0.038   1.918  0.3952  0.3579  0.3113
    1SOL    HW2 4070   1.199   0.076   1.919  0.1506  0.8918  1.4313
    1SOL    HW3 4071   1.124  -0.051   1.950  0.4205  0.6806  1.2168
    1SOL    MW4 4072   1.125   0.031   1.922  0.3662  0.4709  0.5785
    1SOL     OW 4073   0.881   0.157   2.013 -0.2451  0.5188  0.4438
    1SOL    HW2 4074   0.958   0.114   1.975 -0.6927 -0.5256  0.6908
    1SOL    HW3 4075   0.807   0.108   1.977 -0.8484  2.2150 -0.6682
    1SOL    MW4 4076   0.882   0.145   2.003 -0.3838  0.6048  0.3297
    1SOL     OW 4077   0.883   0.398   1.905  0.1239  0.1769  0.0794
    1SOL    HW2 4078   0.963   0.430   1.947  0.9028 -0.9615 -0.4737
    1SOL    HW3 4079   0.872   0.309   1.940  0.6004 -0.6591 -1.8358
    1SOL    MW4 4080   0.892   0.390   1.915  0.2896 -0.0836 -0.2463
    1SOL     OW 4081   1.121   0.470   2.013 -0.2813  0.0998 -0.1193
    1SOL    HW2 4082   1.200   0.427   1.978  0.3432  0.2093  1.1107
    1SOL    HW3 4083   1.135   0.563   1.995 -0.7560 -0.0147 -1.0972
    1SOL    MW4 4084   1.133   0.477   2.006 -0.2614  0.0991 -0.0861
    1SOL     OW 4085   1.136   0.720   1.870 -0.1597 -0.3261  0.2985
    1SOL    HW2 4086   1.212   0.774   1.892 -0.0029  0.7285 -2.5459
    1SOL    HW3 4087   1.061   0.778   1.884 -0.1643 -0.1722 -0.3257
    1SOL    MW4 4088   1.136   0.735   1.875 -0.1397 -0.1667 -0.1591
    1SOL     OW 4089   0.936   0.894   1.960 -0.0747 -0.3451  0.4096
    1SOL    HW2 4090   0.926   0.889   2.055  0.0504 -1.8144  0.3612
    1SOL    HW3 4091   0.934   0.988   1.940 -0.2306 -0.0354  1.8429
    1SOL    MW4 4092   0.935   0.906   1.970 -0.0788 -0.4981  0.5924
    1SOL     OW 4093   0.915   1.154   1.875 -0.4014 -0.0754 -0.2924
    1SOL    HW2 4094   0.848   1.218   1.897  0.9605  1.0028  0.7563
    1SOL    HW3 4095   0.921   1.158   1.779 -0.1652  1.5496 -0.2276
    1SOL    MW4 4096   0.907   1.163   1.865 -0.1906  0.2812 -0.1456
    1SOL     OW 4097   1.126   1.285   1.959 -0.6790  0.5683  0.3642
    1SOL    HW2 4098   1.107   1.373   1.927  0.2288  1.0649  1.1772
    1SOL    HW3 4099   1.046   1.235   1.941 -1.1009  1.4848 -0.3369
    1SOL    MW4 4100   1.113   1.290   1.953 -0.6148  0.7547  0.3788
    1SOL     OW 4101   1.104   1.542   1.882 -0.0184  0.2273 -0.4379
    1SOL    HW2 4102   1.016   1.570   1.909  0.1916  0.1621  0.3216
    1SOL    HW3 4103   1.096   1.528   1.788 -0.7103  0.6526 -0.4494
    1SOL    MW4 4104   1.091   1.544   1.873 -0.0821  0.2747 -0.3392
    1SOL     OW 4105   0.866   1.663   1.967 -0.1523 -0.3793  0.2431
    1SOL    HW2 4106   0.854   1.758   1.960  1.4208 -0.3177 -2.0477
    1SOL    HW3 4107   0.794   1.625   1.918 -0.3311 -0.3564  0.4873
    1SOL    MW4 4108   0.855   1.670   1.960  0.0317 -0.3682 -0.0268
    1SOL     OW 4109   0.846   1.936   1.932  0.0510  0.0879  0.1066
    1SOL    HW2 4110   0.779   1.991   1.973 -1.0648 -0.3108 -1.2017
    1SOL    HW3 4111   0.859   1.974   1.845  0.9232 -0.3456  0.0399
    1SOL    MW4 4112   0.839   1.948   1.926  0.0189 -0.0218 -0.0747
    1SOL     OW 4113   1.083   2.078   1.961 -0.0818 -0.1362  0.2974
    1SOL    HW2 4114   1.081   2.170   1.935 -1.1843 -0.2740 -0.0946
    1SOL    HW3 4115   0.992   2.049   1.956  0.0563 -0.8816  1.7515
    1SOL    MW4 4116   1.071   2.087   1.957 -0.2090 -0.2527  0.4376
    1SOL     OW 4117   1.081   2.350   1.877 -0.0966  0.0705 -0.0584
    1SOL    HW2 4118   1.166   2.383   1.906 -1.7512  3.1197  1.5629
    1SOL    HW3 4119   1.086   2.353   1.781  1.4516  0.6038  0.0239
    1SOL    MW4 4120   1.093   2.355   1.868 -0.1105  0.5431  0.1664
    1SOL     OW 4121   0.856   2.465   1.995 -0.0116 -0.4986 -0.1049
    1SOL    HW2 4122   0.936   2.422   1.965  0.5111  1.0666 -0.9941
    1SOL    HW3 4123   0.786   2.426   1.943  0.4471 -0.3382 -0.8437
    1SOL    MW4 4124   0.857   2.454   1.984  0.1179 -0.2711 -0.3197
    1SOL     OW 4125   0.856   2.716   1.916  0.0550 -0.1788 -0.6894
    1SOL    HW2 4126   0.857   2.629   1.956  2.3804 -0.1387 -0.5978
    1SOL    HW3 4127   0.769   2.750   1.935 -0.7623 -2.3443 -0.4301
    1SOL    MW4 4128   0.845   2.709   1.924  0.2540 -0.4594 -0.6430
    1SOL     OW 4129   1.097   2.859   1.956  0.0760 -0.2775  0.1137
    1SOL    HW2 4130   1.102   2.855   2.051  0.5501 -2.1552  0.0344
    1SOL    HW3 4131   1.011   2.820   1.935  1.0931 -2.3649 -0.3316
    1SOL    MW4 4132   1.086   2.853   1.966  0.2728 -0.8006  0.0445
    1SOL     OW 4133   1.087   3.090   1.843  0.5323  0.2364  0.1431
    1SOL    HW2 4134   1.019   3.139   1.889 -1.8951 -1.3126 -1.6472
    1SOL    HW3 4135   1.086   3.004   1.884  2.2868  0.5590  0.8966
    1SOL    MW4 4136   1.078   3.085   1.854  0.4435  0.0746  0.0064
    1SOL     OW 4137   0.903   3.247   1.956 -0.3127 -0.7003 -0.2328
    1SOL    HW2 4138   0.921   3.240   2.049  0.2816 -0.9200 -0.3604
    1SOL    HW3 4139   0.821   3.201   1.943 -0.1429 -1.0939  0.1020
    1SOL    MW4 4140   0.895   3.240   1.966 -0.2120 -0.7811 -0.2054
    1SOL     OW 4141   0.921   3.495   1.841 -0.6510 -0.1386 -0.5398
    1SOL    HW2 4142   0.907   3.403   1.865 -1.6178 -0.3733 -1.9288
    1SOL    HW3 4143   0.915   3.496   1.745  2.1910  0.9078 -0.7639
    1SOL    MW4 4144   0.918   3.483   1.832 -0.4035 -0.0317 -0.7526
    1SOL     OW 4145   1.132   3.632   1.943 -0.4897 -0.3011  0.0569
    1SOL    HW2 4146   1.139   3.618   2.038  1.6854 -1.5204 -0.2690
    1SOL    HW3 4147   1.057   3.578   1.917 -0.5214 -0.7046  0.9424
    1SOL    MW4 4148   1.123   3.623   1.952 -0.2068 -0.5152  0.1307
    1SOL     OW 4149   1.140   3.906   1.880 -0.5732 -0.0964 -0.0954
    1SOL    HW2 4150   1.132   3.814   1.907 -1.3884 -0.3173 -1.0555
    1SOL    HW3 4151   1.133   3.903   1.784 -1.9994  1.1065 -0.0450
    1SOL    MW4 4152   1.138   3.893   1.871 -0.8689  0.0331 -0.2156
    1SOL     OW 4153   0.904   4.048   1.966 -0.3569 -0.5049  0.1330
    1SOL    HW2 4154   0.913   4.051   2.061  0.1055 -1.8400  0.1506
    1SOL    HW3 4155   0.985   4.007   1.936 -0.3721  0.1757 -0.8670
    1SOL    MW4 4156   0.916   4.043   1.975 -0.2979 -0.5918  0.0033
    1SOL     OW 4157   0.894   4.311   1.880  0.2130 -0.1572 -0.1041
    1SOL    HW2 4158   0.984   4.341   1.890  0.3244 -0.8129  0.8867
    1SOL    HW3 4159   0.894   4.221   1.912 -0.8584 -0.0602  0.1971
    1SOL    MW4 4160   0.906   4.303   1.885  0.0863 -0.2313  0.0665
    1SOL     OW 4161   1.162   4.415   1.937 -0.0239 -1.0177 -0.0456
    1SOL    HW2 4162   1.151   4.393   2.030  1.2576 -0.7098  0.1925
    1SOL    HW3 4163   1.240   4.366   1.910 -0.5065 -1.2626 -1.0181
    1SOL    MW4 4164   1.171   4.405   1.946  0.0815 -1.0090 -0.1425
    1SOL     OW 4165   1.598   4.666   1.860  0.0987  0.1586  0.5301
    1SOL    HW2 4166   1.663   4.720   1.905 -0.9087  0.4492  1.6588
    1SOL    HW3 4167   1.607   4.579   1.898  0.4645 -0.0301  0.0180
    1SOL    MW4 4168   1.608   4.662   1.871  0.0141  0.1720  0.6114
    1SOL     OW 4169   1.374   0.131   1.985  0.5501 -0.0594 -0.0177
    1SOL    HW2 4170   1.381   0.120   2.079  1.2210  0.3761 -0.0199
    1SOL    HW3 4171   1.442   0.075   1.949  0.6485  0.1926 -0.2245
    1SOL    MW4 4172   1.384   0.122   1.992  0.6516  0.0313 -0.0453
    1SOL     OW 4173   1.345   0.398   1.876 -0.3420  0.1398  0.1310
    1SOL    HW2 4174   1.343   0.307   1.906  1.5927 -0.0824 -0.3336
    1SOL    HW3 4175   1.355   0.392   1.781  0.0658  0.8259  0.1245
    1SOL    MW4 4176   1.346   0.385   1.868 -0.0328  0.2010  0.0688
    1SOL     OW 4177   1.563   0.474   2.024  0.0213  0.0470 -0.2631
    1SOL    HW2 4178   1.633   0.417   1.993  0.1168 -0.7022  1.3156
    1SOL    HW3 4179   1.485   0.443   1.979  0.2040 -0.8605  0.0487
    1SOL    MW4 4180   1.562   0.463   2.014  0.0581 -0.1716 -0.0136
    1SOL     OW 4181   1.579   0.700   1.866  0.3339 -0.1549  0.0853
    1SOL    HW2 4182   1.660   0.745   1.890  0.1208  0.4114 -0.2468
    1SOL    HW3 4183   1.574   0.625   1.926  0.7291  0.2202  0.5870
    1SOL    MW4 4184   1.589   0.696   1.877  0.3579 -0.0306  0.1076
    1SOL     OW 4185   1.361   0.857   1.949 -0.1284 -0.0704  0.3759
    1SOL    HW2 4186   1.361   0.870   2.043  0.3248 -0.1522  0.3859
    1SOL    HW3 4187   1.433   0.797   1.932  0.4437  0.7525 -0.1365
    1SOL    MW4 4188   1.370   0.851   1.959  0.0069  0.0274  0.3096
    1SOL     OW 4189   1.360   1.146   1.867 -0.4533 -0.3589  0.3885
    1SOL    HW2 4190   1.367   1.058   1.903 -0.7163 -0.7016 -0.4139
    1SOL    HW3 4191   1.274   1.177   1.896  0.2871  0.2507  2.0369
    1SOL    MW4 4192   1.350   1.139   1.876 -0.3903 -0.3237  0.5001
    1SOL     OW 4193   1.570   1.279   1.972  0.4036 -0.1308 -0.0364
    1SOL    HW2 4194   1.576   1.369   1.940 -0.0982  0.4761  1.5376
    1SOL    HW3 4195   1.498   1.241   1.921 -0.7913  1.0019  0.7511
    1SOL    MW4 4196   1.561   1.286   1.961  0.1796  0.0989  0.2750
    1SOL     OW 4197   1.589   1.537   1.859 -0.3244 -0.4515 -0.2277
    1SOL    HW2 4198   1.663   1.586   1.897  0.1269 -0.2456 -1.3527
    1SOL    HW3 4199   1.512   1.584   1.890 -0.0142 -0.9454  1.3476
    1SOL    MW4 4200   1.589   1.550   1.868 -0.2240 -0.4895 -0.1684
    1SOL     OW 4201   1.345   1.664   1.961  0.2585  0.0119 -0.0662
    1SOL    HW2 4202   1.337   1.654   2.055 -1.5900  0.1576 -0.1872
    1SOL    HW3 4203   1.270   1.617   1.925  0.3252  0.8923 -1.3966
    1SOL    MW4 4204   1.334   1.657   1.968  0.0234  0.1472 -0.2577
    1SOL     OW 4205   1.307   1.929   1.890  0.2085  0.0754 -0.0425
    1SOL    HW2 4206   1.298   1.837   1.915  1.1764 -0.2328 -0.8045
    1SOL    HW3 4207   1.231   1.972   1.929  1.4018 -0.4605  3.0499
    1SOL    MW4 4208   1.296   1.922   1.898  0.4936 -0.0359  0.2649
    1SOL     OW 4209   1.539   2.064   1.944  0.0483 -0.5662  0.6603
    1SOL    HW2 4210   1.544   2.155   1.914  1.6211 -0.2308  1.8918
    1SOL    HW3 4211   1.451   2.036   1.919 -0.5460  1.3692  0.4782
    1SOL    MW4 4212   1.528   2.072   1.937  0.1774 -0.2666  0.7988
    1SOL     OW 4213   1.558   2.322   1.843  0.1553 -0.1391  0.4498
    1SOL    HW2 4214   1.636   2.376   1.861 -1.2271  1.4961  1.7303
    1SOL    HW3 4215   1.556   2.316   1.748  1.4590  0.4059  0.3668
    1SOL    MW4 4216   1.568   2.329   1.833  0.1450  0.1488  0.6078
    1SOL     OW 4217   1.318   2.458   1.945 -0.5772 -0.1011 -0.0564
    1SOL    HW2 4218   1.331   2.538   1.893 -0.2611 -1.0746 -1.5137
    1SOL    HW3 4219   1.400   2.410   1.936 -0.8132 -0.6568  0.7183
    1SOL    MW4 4220   1.330   2.462   1.937 -0.5666 -0.3030 -0.1465
    1SOL     OW 4221   1.297   2.715   1.824  0.6711  0.2249  0.0527
    1SOL    HW2 4222   1.222   2.765   1.856 -0.9671 -2.1468 -0.0120
    1SOL    HW3 4223   1.282   2.705   1.730  1.0870 -0.2253  0.0294
    1SOL    MW4 4224   1.285   2.720   1.816  0.5099 -0.1473  0.0410
    1SOL     OW 4225   1.529   2.846   1.900 -0.1668  0.0403 -0.0723
    1SOL    HW2 4226   1.607   2.800   1.871  0.0438  1.4404 -1.7404
    1SOL    HW3 4227   1.457   2.801   1.856 -0.1417 -0.0408 -0.0305
    1SOL    MW4 4228   1.529   2.834   1.891 -0.1358  0.2141 -0.2868
    1SOL     OW 4229   1.563   3.133   1.824  0.0584 -0.3416  0.0489
    1SOL    HW2 4230   1.546   3.043   1.853 -0.8355 -0.0853  0.3445
    1SOL    HW3 4231   1.542   3.133   1.731 -1.0827 -0.1646  0.2942
    1SOL    MW4 4232   1.558   3.121   1.816 -0.2100 -0.2844  0.1202
    1SOL     OW 4233   1.334   3.218   1.946 -0.1552 -0.4640  0.1953
    1SOL    HW2 4234   1.412   3.192   1.896 -0.8035  0.7937 -1.5275
    1SOL    HW3 4235   1.267   3.155   1.919  0.0908 -1.1687  1.2127
    1SOL    MW4 4236   1.336   3.206   1.936 -0.2083 -0.3910  0.1022
    1SOL     OW 4237   1.346   3.495   1.860  0.0700 -0.3721  0.3786
    1SOL    HW2 4238   1.341   3.403   1.885 -0.1224 -0.1336  1.2183
    1SOL    HW3 4239   1.268   3.536   1.897 -0.3345 -0.0559 -0.8016
    1SOL    MW4 4240   1.335   3.489   1.868 -0.0088 -0.2990  0.3337
    1SOL     OW 4241   1.583   3.605   1.928  0.4090  0.3367  0.4023
    1SOL    HW2 4242   1.583   3.609   2.023  1.2750 -0.8651  0.4460
    1SOL    HW3 4243   1.498   3.567   1.905  0.2466  0.5275  0.6931
    1SOL    MW4 4244   1.571   3.601   1.937  0.5018  0.2029  0.4464
    1SOL     OW 4245   1.605   3.879   1.819  0.3256  0.1899 -0.4368
    1SOL    HW2 4246   1.678   3.912   1.871  0.1412  0.9878 -0.6753
    1SOL    HW3 4247   1.603   3.785   1.836  0.9885  0.2739  0.0905
    1SOL    MW4 4248   1.614   3.871   1.828  0.3887  0.3064 -0.3988
    1SOL     OW 4249   1.387   4.031   1.925  0.8387 -0.0066 -0.8235
    1SOL    HW2 4250   1.455   3.974   1.890  0.9621 -0.3754  0.0229
    1SOL    HW3 4251   1.308   3.977   1.924  1.2191 -0.6181  1.1790
    1SOL    MW4 4252   1.386   4.016   1.920  0.9052 -0.1354 -0.4476
    1SOL     OW 4253   1.399   4.290   1.839 -0.3539 -0.0402  0.0355
    1SOL    HW2 4254   1.385   4.204   1.879 -0.3767  0.0747  0.2819
    1SOL    HW3 4255   1.382   4.277   1.746 -0.5406 -0.2615  0.0983
    1SOL    MW4 4256   1.395   4.277   1.832 -0.3815 -0.0544  0.0763
    1SOL     OW 4257   1.624   4.391   1.947  0.4267 -0.4155  0.0748
    1SOL    HW2 4258   1.594   4.390   2.037 -0.3133 -0.3002 -0.1684
    1SOL    HW3 4259   1.546   4.371   1.895  0.5533  0.8290 -0.6147
    1SOL    MW4 4260   1.610   4.388   1.952  0.3457 -0.2365 -0.0483
    1SOL     OW 4261   2.011   0.031   1.865  0.1930  0.0548  0.0037
    1SOL    HW2 4262   2.092   0.080   1.879 -1.2401  1.8215  2.2513
    1SOL    HW3 4263   2.032  -0.058   1.894  1.5225  0.2972 -0.1528
    1SOL    MW4 4264   2.025   0.026   1.871  0.1795  0.3200  0.2797
    1SOL     OW 4265   1.796   0.173   2.013  0.0600 -0.1257 -0.3424
    1SOL    HW2 4266   1.797   0.158   2.108  0.9255  0.0823 -0.3180
    1SOL    HW3 4267   1.872   0.125   1.980 -0.9810 -1.2860 -1.1052
    1SOL    MW4 4268   1.806   0.165   2.021  0.0368 -0.2513 -0.4401
    1SOL     OW 4269   1.819   0.408   1.886 -0.4614 -0.1323  0.0088
    1SOL    HW2 4270   1.821   0.325   1.934  1.9783 -0.6186 -0.8634
    1SOL    HW3 4271   1.831   0.383   1.794 -0.5236  1.1108 -0.3491
    1SOL    MW4 4272   1.821   0.394   1.880 -0.1478 -0.0324 -0.1534
    1SOL     OW 4273   2.004   0.593   1.962 -0.2710  0.3123 -0.1548
    1SOL    HW2 4274   2.013   0.662   1.896 -1.4504  0.6524  0.0396
    1SOL    HW3 4275   1.932   0.539   1.931 -1.3370  0.9053  1.2278
    1SOL    MW4 4276   1.996   0.595   1.950 -0.5674  0.4355  0.0533
    1SOL     OW 4277   2.015   0.815   1.808 -0.4480 -0.0244 -0.2635
    1SOL    HW2 4278   2.097   0.844   1.848  0.3563 -2.3136 -0.1958
    1SOL    HW3 4279   1.947   0.838   1.872  0.2038  1.2232 -0.0047
    1SOL    MW4 4280   2.017   0.822   1.821 -0.2561 -0.1618 -0.2202
    1SOL     OW 4281   1.793   0.855   1.967 -0.5148  0.5129 -0.1446
    1SOL    HW2 4282   1.789   0.950   1.951  0.7825  0.8850  1.5213
    1SOL    HW3 4283   1.787   0.847   2.062 -1.0428 -1.1217 -0.3026
    1SOL    MW4 4284   1.792   0.867   1.977 -0.4132  0.3464  0.0544
    1SOL     OW 4285   1.769   1.114   1.891  0.0213 -0.2111 -0.2449
    1SOL    HW2 4286   1.700   1.174   1.920  0.4021 -0.3688  1.0181
    1SOL    HW3 4287   1.851   1.158   1.914  0.3220 -0.7036 -0.3561
    1SOL    MW4 4288   1.771   1.128   1.898  0.1112 -0.2970 -0.0929
    1SOL     OW 4289   1.974   1.291   1.949  0.2043 -0.6290 -0.1090
    1SOL    HW2 4290   2.060   1.261   1.920 -0.2593 -1.3799 -0.7356
    1SOL    HW3 4291   1.976   1.281   2.044  1.0721  0.0682 -0.0476
    1SOL    MW4 4292   1.985   1.286   1.958  0.2576 -0.6361 -0.1836
    1SOL     OW 4293   2.003   1.552   1.877  0.4641 -0.1266  0.3026
    1SOL    HW2 4294   1.966   1.466   1.899  1.6192 -0.3288  1.5138
    1SOL    HW3 4295   2.033   1.543   1.787 -0.7955 -0.5088 -0.0998
    1SOL    MW4 4296   2.002   1.539   1.868  0.4501 -0.2036  0.4094
    1SOL     OW 4297   1.800   1.720   1.979  0.5537  0.5160  0.1160
    1SOL    HW2 4298   1.804   1.811   1.949  0.8920  0.8619  1.1912
    1SOL    HW3 4299   1.872   1.676   1.934 -0.2913  0.5036 -1.2788
    1SOL    MW4 4300   1.810   1.726   1.969  0.4870  0.5600  0.0738
    1SOL     OW 4301   1.802   1.970   1.876 -0.1145  0.1323 -0.1977
    1SOL    HW2 4302   1.719   2.013   1.895 -0.1249  0.1489 -0.2826
    1SOL    HW3 4303   1.803   1.959   1.781 -0.1618 -0.1561 -0.1667
    1SOL    MW4 4304   1.791   1.974   1.866 -0.1222  0.0963 -0.2048
    1SOL     OW 4305   2.026   2.075   1.994  0.4880 -0.3994  0.2665
    1SOL    HW2 4306   2.093   2.043   1.934  0.0934  0.1902 -0.5055
    1SOL    HW3 4307   1.945   2.036   1.962  0.4926 -1.2595  1.3118
    1SOL    MW4 4308   2.024   2.066   1.982  0.4365 -0.4354  0.3026
    1SOL     OW 4309   2.021   2.304   1.846  0.1661 -0.2000  0.1830
    1SOL    HW2 4310   2.092   2.359   1.879 -0.4120  0.4441  0.3474
    1SOL    HW3 4311   2.025   2.225   1.900  1.7995 -0.8677 -0.8793
    1SOL    MW4 4312   2.031   2.301   1.857  0.3054 -0.2031  0.0645
    1SOL     OW 4313   1.805   2.454   1.921 -0.1771 -0.4349 -0.3765
    1SOL    HW2 4314   1.794   2.444   2.016  0.2720  0.3598 -0.2459
    1SOL    HW3 4315   1.880   2.398   1.899 -0.6423 -1.0782 -0.3589
    1SOL    MW4 4316   1.813   2.445   1.930 -0.1793 -0.4151 -0.3569
    1SOL     OW 4317   1.775   2.720   1.846  0.2579 -0.0948  0.3793
    1SOL    HW2 4318   1.777   2.627   1.868  1.0492 -0.0285  0.5852
    1SOL    HW3 4319   1.782   2.723   1.751 -0.6614 -0.2768  0.2967
    1SOL    MW4 4320   1.776   2.708   1.836  0.2410 -0.1101  0.3957
    1SOL     OW 4321   1.999   2.836   1.968  0.0089 -0.0617  0.4997
    1SOL    HW2 4322   2.002   2.826   2.063  1.5674 -0.8990  0.3741
    1SOL    HW3 4323   1.923   2.786   1.941  1.0481 -1.9885  1.0581
    1SOL    MW4 4324   1.990   2.828   1.977  0.3517 -0.4265  0.5568
    1SOL     OW 4325   2.040   3.085   1.865  0.0863 -0.2763  0.0849
    1SOL    HW2 4326   1.948   3.107   1.878 -0.0361 -1.0014  0.4739
    1SOL    HW3 4327   2.046   2.992   1.887  0.5835 -0.6626 -1.6609
    1SOL    MW4 4328   2.029   3.076   1.870  0.1359 -0.4230 -0.0941
    1SOL     OW 4329   1.808   3.224   1.901  0.1161 -0.1598  0.4639
    1SOL    HW2 4330   1.809   3.195   1.992  0.5650  0.2955  0.6085
    1SOL    HW3 4331   1.721   3.201   1.869  0.7032 -2.3473  0.3562
    1SOL    MW4 4332   1.797   3.217   1.909  0.2528 -0.3884  0.4686
    1SOL     OW 4333   1.833   3.493   1.860  0.0811 -0.5189 -0.7176
    1SOL    HW2 4334   1.833   3.398   1.872 -0.0513 -0.4886 -0.4726
    1SOL    HW3 4335   1.744   3.520   1.882  0.2627 -0.2764 -0.2691
    1SOL    MW4 4336   1.821   3.484   1.865  0.0875 -0.4830 -0.6261
    1SOL     OW 4337   2.058   3.639   1.992  0.4876 -0.2144 -0.1254
    1SOL    HW2 4338   2.063   3.721   1.943  0.6333 -0.4133 -0.4415
    1SOL    HW3 4339   1.973   3.602   1.967  0.3482 -0.0821  0.1436
    1SOL    MW4 4340   2.047   3.645   1.982  0.4885 -0.2232 -0.1316
    1SOL     OW 4341   2.068   3.886   1.870 -0.5880  0.1618 -0.1545
    1SOL    HW2 4342   2.138   3.947   1.891 -0.3683  0.0489 -0.5527
    1SOL    HW3 4343   2.051   3.899   1.776 -1.6156  0.7203  0.0977
    1SOL    MW4 4344   2.075   3.896   1.860 -0.6945  0.2208 -0.1738
    1SOL     OW 4345   1.825   3.999   1.959 -0.0632 -0.0369 -0.1374
    1SOL    HW2 4346   1.816   4.083   1.913 -0.4152  0.3289  0.5934
    1SOL    HW3 4347   1.908   3.963   1.927  0.1635  0.6582 -0.3455
    1SOL    MW4 4348   1.835   4.006   1.949 -0.0798  0.1030 -0.0684
    1SOL     OW 4349   1.807   4.226   1.820 -0.2802  0.8656 -0.0601
    1SOL    HW2 4350   1.739   4.282   1.857  0.5174  2.2356 -0.6004
    1SOL    HW3 4351   1.788   4.224   1.726 -1.0002 -0.7756  0.0991
    1SOL    MW4 4352   1.796   4.233   1.813 -0.2700  0.8297 -0.1105
    1SOL     OW 4353   1.995   4.424   1.934 -0.3611 -0.3948  0.1101
    1SOL    HW2 4354   2.082   4.394   1.908 -0.6270 -0.9951 -0.0937
    1SOL    HW3 4355   1.935   4.370   1.883 -0.8359  1.3470 -1.2099
    1SOL    MW4 4356   1.999   4.413   1.924 -0.4587 -0.2446 -0.0910
    1SOL     OW 4357   2.493   0.008   1.840  0.2514  0.3039 -0.0872
    1SOL    HW2 4358   2.561   0.066   1.875  0.9096  0.0842 -0.9934
    1SOL    HW3 4359   2.498  -0.071   1.894 -1.5595  1.5834  2.0481
    1SOL    MW4 4360   2.502   0.005   1.852  0.0994  0.4435  0.0749
    1SOL     OW 4361   2.245   0.157   1.922 -0.2688 -0.3796  0.4090
    1SOL    HW2 4362   2.254   0.140   2.016 -1.5724  0.3250  0.6723
    1SOL    HW3 4363   2.315   0.105   1.882 -1.2998 -2.7139  1.5485
    1SOL    MW4 4364   2.256   0.148   1.929 -0.5770 -0.5946  0.5941
    1SOL     OW 4365   2.199   0.444   1.818  0.1395  0.1487 -0.5101
    1SOL    HW2 4366   2.192   0.356   1.855 -0.4685  0.5431  0.3354
    1SOL    HW3 4367   2.125   0.491   1.855  1.5537  1.5617  0.5808
    1SOL    MW4 4368   2.188   0.438   1.828  0.2460  0.3872 -0.2546
    1SOL     OW 4369   2.437   0.509   1.955 -0.4937 -0.0425 -0.5187
    1SOL    HW2 4370   2.506   0.471   1.902 -0.3634  0.9449 -1.0724
    1SOL    HW3 4371   2.357   0.498   1.904 -0.0927  2.5737 -1.8234
    1SOL    MW4 4372   2.436   0.503   1.941 -0.4239  0.4330 -0.7639
    1SOL     OW 4373   2.507   0.760   1.864 -0.1341  0.1361  0.0988
    1SOL    HW2 4374   2.487   0.670   1.890 -1.2688  0.3150 -0.1432
    1SOL    HW3 4375   2.519   0.755   1.769 -2.6521  0.6537 -0.2866
    1SOL    MW4 4376   2.506   0.748   1.855 -0.6158  0.2280  0.0161
    1SOL     OW 4377   2.259   0.872   1.940 -0.3839 -0.5933  0.0838
    1SOL    HW2 4378   2.263   0.896   2.033  2.1971  2.0050 -0.6297
    1SOL    HW3 4379   2.339   0.822   1.924 -0.6984 -0.8277 -0.7956
    1SOL    MW4 4380   2.270   0.869   1.950 -0.0846 -0.2815 -0.1262
    1SOL     OW 4381   2.237   1.136   1.860  0.6022  0.0693  0.3375
    1SOL    HW2 4382   2.314   1.190   1.881  1.1899  0.0277 -1.6024
    1SOL    HW3 4383   2.262   1.047   1.887 -0.6178  0.7784  4.1635
    1SOL    MW4 4384   2.251   1.131   1.866  0.5190  0.1575  0.5864
    1SOL     OW 4385   2.444   1.304   1.969  0.4803 -0.1553 -0.5824
    1SOL    HW2 4386   2.445   1.307   2.065  1.5512 -0.1763 -0.5827
    1SOL    HW3 4387   2.465   1.394   1.942  0.8283 -0.2984 -0.7901
    1SOL    MW4 4388   2.447   1.316   1.978  0.6673 -0.1769 -0.6096
    1SOL     OW 4389   2.468   1.565   1.855  0.1947  0.3305 -0.4403
    1SOL    HW2 4390   2.390   1.608   1.889  0.6399  0.0229  1.0029
    1SOL    HW3 4391   2.460   1.571   1.760 -0.3239  2.5343 -0.2638
    1SOL    MW4 4392   2.457   1.571   1.847  0.1848  0.5807 -0.2266
    1SOL     OW 4393   2.246   1.677   1.958  0.3017  0.1166  0.0990
    1SOL    HW2 4394   2.229   1.689   2.052 -0.1533  1.7357 -0.1661
    1SOL    HW3 4395   2.166   1.637   1.924 -0.3991  1.5537  0.0293
    1SOL    MW4 4396   2.233   1.673   1.966  0.1490  0.5199  0.0548
    1SOL     OW 4397   2.251   1.959   1.877  0.5050 -0.4421 -0.0442
    1SOL    HW2 4398   2.324   2.008   1.914  1.2618 -1.5927  0.0207
    1SOL    HW3 4399   2.256   1.873   1.919 -0.3133 -0.8488 -0.7531
    1SOL    MW4 4400   2.261   1.954   1.888  0.4969 -0.6474 -0.1291
    1SOL     OW 4401   2.456   2.091   2.010  0.1830 -0.6329 -0.1940
    1SOL    HW2 4402   2.535   2.051   1.973 -0.9816 -1.9284 -1.3459
    1SOL    HW3 4403   2.456   2.180   1.976  2.3086  0.1078  1.6228
    1SOL    MW4 4404   2.466   2.098   2.001  0.3099 -0.7062 -0.1063
    1SOL     OW 4405   2.441   2.325   1.877  0.0007  0.0135  0.1603
    1SOL    HW2 4406   2.515   2.374   1.915 -0.1173 -0.9715  1.7260
    1SOL    HW3 4407   2.364   2.364   1.917 -0.2111 -0.1132 -0.1275
    1SOL    MW4 4408   2.441   2.337   1.887 -0.0427 -0.1333  0.3289
    1SOL     OW 4409   2.214   2.434   1.983 -0.1934 -0.0575 -0.1078
    1SOL    HW2 4410   2.198   2.423   2.076 -0.8556 -0.3106 -0.2453
    1SOL    HW3 4411   2.215   2.528   1.969 -0.9951 -0.0299  0.0071
    1SOL    MW4 4412   2.212   2.445   1.993 -0.3870 -0.0870 -0.1106
    1SOL     OW 4413   2.242   2.716   1.899  0.5045  0.2456 -0.2276
    1SOL    HW2 4414   2.158   2.757   1.918  0.4070 -0.3066  0.5416
    1SOL    HW3 4415   2.246   2.713   1.803 -0.8160 -0.6789 -0.2669
    1SOL    MW4 4416   2.231   2.721   1.889  0.3173  0.0508 -0.1314
    1SOL     OW 4417   2.466   2.818   2.012  0.4101 -0.5034 -0.5191
    1SOL    HW2 4418   2.470   2.901   1.964 -0.5824  1.1211  2.0776
    1SOL    HW3 4419   2.383   2.779   1.985  0.0192  0.2456 -0.4379
    1SOL    MW4 4420   2.456   2.824   2.002  0.2279 -0.1903 -0.1657
    1SOL     OW 4421   2.493   3.080   1.906  0.0407  0.1090  0.1762
    1SOL    HW2 4422   2.408   3.114   1.933  0.6538  1.0494  0.9454
    1SOL    HW3 4423   2.493   3.089   1.811 -0.4392  0.7622  0.2295
    1SOL    MW4 4424   2.482   3.085   1.897  0.0584  0.3190  0.2847
    1SOL     OW 4425   2.246   3.232   1.955 -0.0081  0.1810  0.3091
    1SOL    HW2 4426   2.226   3.227   2.049 -0.4792  1.1308  0.2673
    1SOL    HW3 4427   2.174   3.186   1.913  0.4640 -0.6851  0.4356
    1SOL    MW4 4428   2.234   3.225   1.962 -0.0081  0.1922  0.3203
    1SOL     OW 4429   2.269   3.503   1.871  0.1510  0.2238  0.3714
    1SOL    HW2 4430   2.256   3.411   1.895  1.0835  0.1587  0.6440
    1SOL    HW3 4431   2.198   3.550   1.916  1.6466  0.0603  2.9682
    1SOL    MW4 4432   2.258   3.497   1.880  0.4711  0.1934  0.7501
    1SOL     OW 4433   2.478   3.641   1.979 -0.2496  0.2544 -0.8245
    1SOL    HW2 4434   2.484   3.604   2.067  1.3952  0.0101 -1.0309
    1SOL    HW3 4435   2.432   3.574   1.928 -0.1582 -0.1077 -0.4329
    1SOL    MW4 4436   2.472   3.627   1.984 -0.0207  0.1748 -0.8001
    1SOL     OW 4437   2.498   3.892   1.845 -0.0799 -0.2512 -0.0402
    1SOL    HW2 4438   2.434   3.952   1.883  0.9801  0.5932  0.4210
    1SOL    HW3 4439   2.480   3.808   1.888 -0.6889  0.0416  0.2927
    1SOL    MW4 4440   2.487   3.889   1.855 -0.0207 -0.1011  0.0645
    1SOL     OW 4441   2.291   4.048   1.932  0.3404 -0.1976  0.5710
    1SOL    HW2 4442   2.284   4.032   2.026  0.8552  0.3882  0.7154
    1SOL    HW3 4443   2.256   4.136   1.920 -0.6321 -0.6410  0.0703
    1SOL    MW4 4444   2.285   4.058   1.942  0.2801 -0.1788  0.5239
    1SOL     OW 4445   2.233   4.314   1.840 -0.6520 -0.1773 -0.4783
    1SOL    HW2 4446   2.314   4.357   1.864 -1.6415  1.9192 -0.8273
    1SOL    HW3 4447   2.236   4.305   1.745 -0.6995 -0.3473 -0.4644
    1SOL    MW4 4448   2.244   4.318   1.831 -0.7887  0.0772 -0.5224
    1SOL     OW 4449   2.464   4.436   1.964  0.0201 -0.1768 -0.3692
    1SOL    HW2 4450   2.465   4.419   2.058  1.1844  1.8858  0.0097
    1SOL    HW3 4451   2.528   4.374   1.927  0.3659 -0.2339  0.3302
    1SOL    MW4 4452   2.472   4.426   1.971  0.2193  0.0873 -0.2270
    1SOL     OW 4453   2.898   0.007   1.831 -0.2398  0.3432  0.4058
    1SOL    HW2 4454   2.968   0.054   1.877 -0.2726  0.2241  0.5801
    1SOL    HW3 4455   2.897  -0.080   1.871 -0.3665  0.2853  0.2784
    1SOL    MW4 4456   2.907   0.002   1.843 -0.2608  0.3198  0.4120
    1SOL     OW 4457   2.696   0.141   1.951  0.0330  0.1208 -0.0228
    1SOL    HW2 4458   2.702   0.134   2.047 -0.7761 -0.1937  0.0104
    1SOL    HW3 4459   2.774   0.096   1.919 -0.4981 -1.1684  0.4527
    1SOL    MW4 4460   2.707   0.134   1.960 -0.1438 -0.0908  0.0443
    1SOL     OW 4461   2.660   0.398   1.834  0.0175 -0.2443 -0.2984
    1SOL    HW2 4462   2.734   0.440   1.876  0.3265 -0.6537 -0.4215
    1SOL    HW3 4463   2.663   0.307   1.865  0.3820 -0.6095 -1.3515
    1SOL    MW4 4464   2.670   0.391   1.843  0.1063 -0.3465 -0.4535
    1SOL     OW 4465   2.884   0.528   1.953 -0.2338 -0.5376  0.3008
    1SOL    HW2 4466   2.969   0.505   1.915  0.6022 -0.0737  1.8631
    1SOL    HW3 4467   2.863   0.614   1.916 -0.2132 -0.8222 -0.3800
    1SOL    MW4 4468   2.893   0.536   1.943 -0.1206 -0.5140  0.4171
    1SOL     OW 4469   2.903   0.791   1.853 -0.1987 -0.3519  0.0727
    1SOL    HW2 4470   2.981   0.820   1.900  0.1136 -0.2022 -0.5256
    1SOL    HW3 4471   2.830   0.834   1.898  0.2389  1.2282 -0.6694
    1SOL    MW4 4472   2.904   0.801   1.865 -0.0999 -0.1237 -0.1043
    1SOL     OW 4473   2.696   0.912   1.987  0.1526 -0.0618 -0.0427
    1SOL    HW2 4474   2.685   1.000   1.950  2.8305 -0.2153 -1.3518
    1SOL    HW3 4475   2.617   0.865   1.961 -0.7305  1.6055 -0.4202
    1SOL    MW4 4476   2.684   0.917   1.979  0.3896  0.1379 -0.2652
    1SOL     OW 4477   2.675   1.182   1.880  0.1236  0.0783 -0.1260
    1SOL    HW2 4478   2.586   1.214   1.897 -0.3335 -1.3916  0.3086
    1SOL    HW3 4479   2.686   1.191   1.785 -0.0578  1.3497 -0.0320
    1SOL    MW4 4480   2.664   1.187   1.870  0.0393  0.0521 -0.0563
    1SOL     OW 4481   2.913   1.273   1.977 -0.1184  0.6564 -0.0438
    1SOL    HW2 4482   2.898   1.361   1.940 -0.8736  0.4199 -0.3248
    1SOL    HW3 4483   2.833   1.225   1.955  0.4937 -0.2487 -0.3235
    1SOL    MW4 4484   2.900   1.279   1.969 -0.1376  0.5057 -0.1177
    1SOL     OW 4485   2.890   1.528   1.885 -0.3759  0.3956 -0.4692
    1SOL    HW2 4486   2.961   1.576   1.927  0.5086 -0.2744 -1.1824
    1SOL    HW3 4487   2.904   1.541   1.791 -0.1070 -1.2680 -0.6739
    1SOL    MW4 4488   2.901   1.536   1.878 -0.2236  0.0879 -0.5903
    1SOL     OW 4489   2.688   1.690   1.981 -0.3710 -0.2839 -0.0677
    1SOL    HW2 4490   2.770   1.646   1.961 -0.4729  0.1540 -1.5164
    1SOL    HW3 4491   2.620   1.632   1.947 -0.6283 -0.3359  0.5366
    1SOL    MW4 4492   2.690   1.677   1.974 -0.4187 -0.2329 -0.1791
    1SOL     OW 4493   2.674   1.953   1.906  0.0756 -0.1490 -0.0656
    1SOL    HW2 4494   2.756   1.991   1.939 -0.5787  0.9864  0.2687
    1SOL    HW3 4495   2.672   1.865   1.944  0.5300  0.2621  0.9330
    1SOL    MW4 4496   2.685   1.946   1.915  0.0494  0.0551  0.1103
    1SOL     OW 4497   2.909   2.042   1.997  0.3234 -0.1047  0.2564
    1SOL    HW2 4498   2.918   2.039   2.092 -1.6548 -1.8276  0.4265
    1SOL    HW3 4499   2.992   2.007   1.964  0.0257 -1.9851  1.4121
    1SOL    MW4 4500   2.921   2.037   2.005  0.0231 -0.5801  0.4313
    1SOL     OW 4501   2.896   2.301   1.904 -0.0340 -0.5351 -0.0938
    1SOL    HW2 4502   2.973   2.346   1.938 -1.1368  1.2056  0.1749
    1SOL    HW3 4503   2.897   2.216   1.947 -0.2789  0.8572  2.7629
    1SOL    MW4 4504   2.906   2.296   1.914 -0.2117 -0.1216  0.3186
    1SOL     OW 4505   2.674   2.418   1.984 -0.3524 -0.3756  0.1452
    1SOL    HW2 4506   2.671   2.508   1.951 -1.8793 -0.7133 -0.6840
    1SOL    HW3 4507   2.748   2.378   1.939 -0.3374  0.1519 -0.3031
    1SOL    MW4 4508   2.683   2.425   1.974 -0.5519 -0.3507 -0.0231
    1SOL     OW 4509   2.648   2.675   1.856  0.5499 -0.3691 -0.7513
    1SOL    HW2 4510   2.576   2.717   1.903  1.0054 -0.2290 -0.1629
    1SOL    HW3 4511   2.641   2.706   1.766  0.8532  0.9294 -0.3362
    1SOL    MW4 4512   2.638   2.684   1.851  0.6499 -0.1795 -0.6189
    1SOL     OW 4513   2.868   2.822   1.953  0.0365 -0.5938  0.3279
    1SOL    HW2 4514   2.865   2.915   1.930 -0.4897 -0.2497  1.7302
    1SOL    HW3 4515   2.782   2.788   1.928  0.3828 -0.8035 -0.5846
    1SOL    MW4 4516   2.856   2.830   1.947  0.0126 -0.5760  0.3926
    1SOL     OW 4517   2.901   3.085   1.859 -0.0857  0.3013 -0.0878
    1SOL    HW2 4518   2.979   3.130   1.891  0.3213 -1.0194  0.8382
    1SOL    HW3 4519   2.829   3.145   1.877  0.4494  0.6247  1.0470
    1SOL    MW4 4520   2.902   3.099   1.865  0.0386  0.1698  0.1842
    1SOL     OW 4521   2.704   3.253   1.962  0.3492 -0.2394 -0.1009
    1SOL    HW2 4522   2.692   3.343   1.932 -0.2655 -0.6125 -0.9831
    1SOL    HW3 4523   2.621   3.210   1.944  1.3301 -1.5486 -1.6710
    1SOL    MW4 4524   2.692   3.259   1.956  0.3974 -0.4616 -0.4243
    1SOL     OW 4525   2.711   3.511   1.882  0.2031  0.0645 -0.3021
    1SOL    HW2 4526   2.785   3.560   1.917 -0.2947  0.6677 -0.0923
    1SOL    HW3 4527   2.633   3.557   1.916 -0.2627 -1.0271  0.1432
    1SOL    MW4 4528   2.710   3.523   1.891  0.0758  0.0000 -0.2156
    1SOL     OW 4529   2.949   3.640   1.982  0.4779  0.5373 -0.2804
    1SOL    HW2 4530   2.944   3.620   2.076 -1.5751 -0.2720 -0.5231
    1SOL    HW3 4531   3.024   3.588   1.951 -0.1136 -0.8529  0.5355
    1SOL    MW4 4532   2.958   3.630   1.991  0.1290  0.2470 -0.2047
    1SOL     OW 4533   2.929   3.893   1.878  0.1145 -0.1055 -0.0603
    1SOL    HW2 4534   2.931   3.807   1.919 -1.2898 -0.5657 -0.8992
    1SOL    HW3 4535   2.937   3.876   1.785  0.7545  0.7499 -0.1745
    1SOL    MW4 4536   2.930   3.880   1.871  0.0138 -0.0536 -0.1861
    1SOL     OW 4537   2.704   4.032   1.991  0.0288  0.0075 -0.4291
    1SOL    HW2 4538   2.781   3.984   1.960 -1.1336 -2.5658  0.5692
    1SOL    HW3 4539   2.629   3.983   1.956 -1.1903  1.3541  0.2505
    1SOL    MW4 4540   2.704   4.019   1.982 -0.2854 -0.1545 -0.2077
    1SOL     OW 4541   2.675   4.285   1.883 -0.5264 -0.4849  0.0098
    1SOL    HW2 4542   2.689   4.200   1.923  0.2867 -0.7183 -0.7531
    1SOL    HW3 4543   2.675   4.268   1.789 -0.8872  0.2823 -0.1375
    1SOL    MW4 4544   2.677   4.272   1.876 -0.4666 -0.4148 -0.1101
    1SOL     OW 4545   2.888   4.435   1.976 -0.1973 -0.1274  0.1003
    1SOL    HW2 4546   2.882   4.433   2.071  1.8107 -2.5118  0.2327
    1SOL    HW3 4547   2.810   4.389   1.946 -0.3686 -0.1698  0.6080
    1SOL    MW4 4548   2.877   4.429   1.984  0.0448 -0.4478  0.1849
    1SOL     OW 4549   3.304   0.030   1.856  0.2378 -0.0071  0.5452
    1SOL    HW2 4550   3.316  -0.057   1.894  0.8605 -0.3679 -0.4552
    1SOL    HW3 4551   3.307   0.015   1.761 -0.3857  1.0019  0.3641
    1SOL    MW4 4552   3.306   0.017   1.848  0.2377  0.0784  0.3893
    1SOL     OW 4553   3.079   0.173   1.954 -0.1135  0.1739  0.2020
    1SOL    HW2 4554   3.095   0.171   2.048 -0.1361  0.5024  0.2133
    1SOL    HW3 4555   3.150   0.121   1.916 -0.2238 -0.1339  0.4166
    1SOL    MW4 4556   3.090   0.166   1.961 -0.1311  0.1767  0.2319
    1SOL     OW 4557   3.123   0.432   1.866 -0.2572 -0.3229 -0.3403
    1SOL    HW2 4558   3.118   0.346   1.906 -0.4100 -0.1181  0.0798
    1SOL    HW3 4559   3.143   0.414   1.774 -1.4946 -0.8572 -0.5162
    1SOL    MW4 4560   3.125   0.418   1.859 -0.4408 -0.3663 -0.3082
    1SOL     OW 4561   3.351   0.537   1.987 -0.2545  0.3621 -0.0120
    1SOL    HW2 4562   3.424   0.485   1.952  0.4849  0.8132  0.8359
    1SOL    HW3 4563   3.273   0.498   1.947  0.3224 -1.1270  0.2809
    1SOL    MW4 4564   3.351   0.525   1.977 -0.0808  0.2251  0.1384
    1SOL     OW 4565   3.354   0.773   1.857 -0.1402 -0.0133  0.3395
    1SOL    HW2 4566   3.284   0.817   1.906 -1.0998  0.8019 -1.7083
    1SOL    HW3 4567   3.350   0.682   1.886 -1.7887  0.1152  0.5524
    1SOL    MW4 4568   3.344   0.767   1.867 -0.4845  0.1112  0.0974
    1SOL     OW 4569   3.134   0.884   1.968  0.3838 -0.2139  0.3245
    1SOL    HW2 4570   3.103   0.869   2.057  0.8513 -0.4530  0.4496
    1SOL    HW3 4571   3.144   0.979   1.961  0.3029 -0.1917  0.5104
    1SOL    MW4 4572   3.132   0.894   1.979  0.4354 -0.2425  0.3656
    1SOL     OW 4573   3.132   1.154   1.859 -0.5562 -0.1806  0.3031
    1SOL    HW2 4574   3.203   1.214   1.882 -0.0708 -0.5043 -0.3443
    1SOL    HW3 4575   3.054   1.192   1.899 -0.1244  0.5068  0.4885
    1SOL    MW4 4576   3.131   1.167   1.867 -0.4351 -0.1327  0.2421
    1SOL     OW 4577   3.357   1.310   1.942 -0.1563 -0.1577 -0.0102
    1SOL    HW2 4578   3.360   1.293   2.036 -0.8656  0.1631  0.0704
    1SOL    HW3 4579   3.352   1.405   1.934  0.3849 -0.1558 -0.3894
    1SOL    MW4 4580   3.357   1.320   1.953 -0.1788 -0.1153 -0.0496
    1SOL     OW 4581   3.313   1.561   1.870  0.5029  0.2696 -0.6397
    1SOL    HW2 4582   3.392   1.600   1.908 -0.3373  0.0770  1.3563
    1SOL    HW3 4583   3.241   1.615   1.903 -0.3430 -0.5724 -1.0851
    1SOL    MW4 4584   3.314   1.573   1.879  0.2804  0.1332 -0.4350
    1SOL     OW 4585   3.093   1.696   1.963  0.1642 -0.1139 -0.4222
    1SOL    HW2 4586   3.139   1.684   2.046 -0.4333 -0.0849 -0.0933
    1SOL    HW3 4587   3.100   1.790   1.945  0.3775 -0.1354 -0.4538
    1SOL    MW4 4588   3.100   1.707   1.971  0.1135 -0.1129 -0.3829
    1SOL     OW 4589   3.126   1.951   1.852 -0.1610 -0.2000 -0.0538
    1SOL    HW2 4590   3.207   1.991   1.886  0.4687 -0.1703 -1.5514
    1SOL    HW3 4591   3.149   1.924   1.763 -1.7250 -0.4643 -0.3791
    1SOL    MW4 4592   3.140   1.953   1.845 -0.2844 -0.2309 -0.2942
    1SOL     OW 4593   3.372   2.064   1.962 -0.0249  0.0355  0.1758
    1SOL    HW2 4594   3.441   2.015   1.916 -0.8908 -0.7125 -0.3428
    1SOL    HW3 4595   3.378   2.153   1.926 -0.5226 -0.4823 -1.2070
    1SOL    MW4 4596   3.382   2.070   1.951 -0.2048 -0.1316 -0.0752
    1SOL     OW 4597   3.369   2.314   1.881 -0.1504 -0.1928 -0.2132
    1SOL    HW2 4598   3.294   2.356   1.922  1.5826  1.2791  1.5603
    1SOL    HW3 4599   3.354   2.323   1.787 -2.6605 -0.8192  0.1012
    1SOL    MW4 4600   3.357   2.321   1.874 -0.2530 -0.0813  0.0622
    1SOL     OW 4601   3.150   2.441   1.979  0.4799 -0.1292 -0.0853
    1SOL    HW2 4602   3.155   2.453   2.073  0.3835 -0.0586 -0.0884
    1SOL    HW3 4603   3.123   2.526   1.945 -1.4681 -0.6846  0.0127
    1SOL    MW4 4604   3.147   2.454   1.987  0.2100 -0.1934 -0.0727
    1SOL     OW 4605   3.106   2.711   1.866 -0.1039  0.1428  0.3011
    1SOL    HW2 4606   3.012   2.732   1.874  0.2834  1.9863  0.3189
    1SOL    HW3 4607   3.120   2.697   1.773  0.0225  2.1300 -0.0101
    1SOL    MW4 4608   3.095   2.712   1.855 -0.0362  0.6483  0.2624
    1SOL     OW 4609   3.320   2.873   1.935 -0.3283 -0.1431 -0.0981
    1SOL    HW2 4610   3.330   2.894   2.028  0.1962 -1.5663  0.1734
    1SOL    HW3 4611   3.242   2.817   1.932 -0.5138  0.1400 -0.5490
    1SOL    MW4 4612   3.311   2.868   1.947 -0.2837 -0.2937 -0.1217
    1SOL     OW 4613   3.345   3.120   1.827 -0.0856  0.4002  0.2751
    1SOL    HW2 4614   3.424   3.152   1.871 -0.7364  0.8393  1.1481
    1SOL    HW3 4615   3.340   3.028   1.852  0.8521  0.0331 -0.8414
    1SOL    MW4 4616   3.355   3.112   1.836 -0.0479  0.4094  0.2431
    1SOL     OW 4617   3.118   3.232   1.952  0.1149  0.1462 -0.3661
    1SOL    HW2 4618   3.118   3.229   2.048  0.3868  3.9669 -0.1766
    1SOL    HW3 4619   3.202   3.193   1.927 -0.1825 -1.3640  0.8988
    1SOL    MW4 4620   3.129   3.227   1.961  0.1116  0.4511 -0.1743
    1SOL     OW 4621   3.148   3.493   1.878 -0.2636  0.1887  0.0662
    1SOL    HW2 4622   3.135   3.404   1.911 -0.3773  0.0970 -0.2318
    1SOL    HW3 4623   3.236   3.516   1.909  0.0560 -0.2962 -0.4648
    1SOL    MW4 4624   3.158   3.484   1.886 -0.2363  0.1128 -0.0432
    1SOL     OW 4625   3.400   3.628   1.987  0.9301 -0.2282  0.1691
    1SOL    HW2 4626   3.487   3.613   1.949 -0.5896  0.0123 -3.6514
    1SOL    HW3 4627   3.376   3.715   1.955 -0.5096 -0.0759  1.6304
    1SOL    MW4 4628   3.409   3.638   1.978  0.5400 -0.1764 -0.1421
    1SOL     OW 4629   3.378   3.895   1.843  0.1038  0.2700 -0.1204
    1SOL    HW2 4630   3.296   3.935   1.871  0.0501 -0.0285  0.1471
    1SOL    HW3 4631   3.375   3.901   1.747 -0.1218  0.4713 -0.1017
    1SOL    MW4 4632   3.367   3.901   1.834  0.0668  0.2570 -0.0826
    1SOL     OW 4633   3.159   4.063   1.930 -0.3372  0.4073 -0.4575
    1SOL    HW2 4634   3.175   4.055   2.023  0.7341  1.0059 -0.5854
    1SOL    HW3 4635   3.067   4.036   1.919 -0.1322 -0.7650  0.5941
    1SOL    MW4 4636   3.149   4.058   1.941 -0.1686  0.3314 -0.3357
    1SOL     OW 4637   3.119   4.335   1.858  0.1562  0.2546 -0.1138
    1SOL    HW2 4638   3.124   4.246   1.892 -1.3635 -0.2464 -1.1287
    1SOL    HW3 4639   3.043   4.373   1.903  1.0124  1.1742  0.5853
    1SOL    MW4 4640   3.109   4.328   1.868  0.0687  0.3099 -0.1554
    1SOL     OW 4641   3.333   4.450   1.961 -0.0757 -0.3156  0.0673
    1SOL    HW2 4642   3.413   4.416   1.922 -0.6992 -1.4056 -0.2713
    1SOL    HW3 4643   3.264   4.429   1.898 -0.6139  0.7739  0.2731
    1SOL    MW4 4644   3.334   4.443   1.948 -0.2291 -0.3152  0.0498
    1SOL     OW 4645   3.799   0.017   1.884 -0.0412 -0.4107  0.3380
    1SOL    HW2 4646   3.790  -0.073   1.916 -0.6391 -0.3873  0.2411
    1SOL    HW3 4647   3.720   0.061   1.916 -0.3949 -0.2574 -0.7514
    1SOL    MW4 4648   3.788   0.011   1.893 -0.1669 -0.3874  0.1816
    1SOL     OW 4649   3.557   0.137   1.952  0.2376  0.1172  0.4953
    1SOL    HW2 4650   3.545   0.140   2.047 -0.5320 -0.5781  0.4156
    1SOL    HW3 4651   3.472   0.111   1.917  1.4071 -3.0588 -0.1697
    1SOL    MW4 4652   3.544   0.134   1.960  0.2904 -0.3935  0.3971
    1SOL     OW 4653   3.566   0.404   1.883 -0.3289 -0.3687  0.5187
    1SOL    HW2 4654   3.568   0.316   1.921  1.2345  0.0872  1.5383
    1SOL    HW3 4655   3.599   0.393   1.794 -0.0355 -0.8023  0.6792
    1SOL    MW4 4656   3.571   0.391   1.877 -0.0842 -0.3658  0.6746
    1SOL     OW 4657   3.825   0.484   1.955  0.5469 -0.4111 -0.1000
    1SOL    HW2 4658   3.818   0.579   1.943 -1.1647 -0.5397 -0.3567
    1SOL    HW3 4659   3.739   0.451   1.928  0.7417 -1.9222  1.0614
    1SOL    MW4 4660   3.813   0.492   1.950  0.3469 -0.6275  0.0193
    1SOL     OW 4661   3.819   0.757   1.920  0.4588 -0.4429  0.3959
    1SOL    HW2 4662   3.735   0.800   1.935 -0.6592 -2.6524  0.6381
    1SOL    HW3 4663   3.822   0.741   1.826  1.5527  1.5067  0.0883
    1SOL    MW4 4664   3.808   0.760   1.910  0.4561 -0.4772  0.3872
    1SOL     OW 4665   3.568   0.882   1.972  0.0623 -0.3418 -0.0650
    1SOL    HW2 4666   3.567   0.971   1.938 -0.0019 -0.7043 -1.0348
    1SOL    HW3 4667   3.494   0.839   1.927 -0.2959 -0.7042  0.8621
    1SOL    MW4 4668   3.558   0.888   1.961  0.0067 -0.4375 -0.0707
    1SOL     OW 4669   3.558   1.145   1.872  0.3621  0.0603 -0.1765
    1SOL    HW2 4670   3.480   1.200   1.880 -0.9512 -1.9205  1.3026
    1SOL    HW3 4671   3.580   1.148   1.779 -1.1766  1.0957 -0.5241
    1SOL    MW4 4672   3.550   1.152   1.861 -0.0141 -0.0644 -0.0272
    1SOL     OW 4673   3.809   1.236   1.973 -0.3775  0.1470  0.7900
    1SOL    HW2 4674   3.808   1.236   2.069  0.0441 -0.7575  0.7988
    1SOL    HW3 4675   3.719   1.215   1.949 -0.2983 -0.4483  0.9969
    1SOL    MW4 4676   3.797   1.233   1.983 -0.3114 -0.0508  0.8185
    1SOL     OW 4677   3.749   1.487   1.872  0.2989 -0.4686  0.5029
    1SOL    HW2 4678   3.832   1.533   1.886  0.7327 -0.8987 -0.5569
    1SOL    HW3 4679   3.757   1.405   1.921  0.4741 -0.4777  0.4580
    1SOL    MW4 4680   3.761   1.482   1.880  0.3793 -0.5265  0.3573
    1SOL     OW 4681   3.556   1.660   1.979 -0.3602 -0.0154 -0.2297
    1SOL    HW2 4682   3.582   1.748   1.954  1.2033 -0.4879 -0.3114
    1SOL    HW3 4683   3.631   1.605   1.956 -0.7363 -1.1450  1.1926
    1SOL    MW4 4684   3.569   1.664   1.972 -0.2034 -0.2267 -0.0528
    1SOL     OW 4685   3.596   1.926   1.881  0.4006 -0.2236  0.0040
    1SOL    HW2 4686   3.673   1.977   1.905 -0.0382  0.5948 -0.2782
    1SOL    HW3 4687   3.584   1.943   1.788 -1.5204  1.6561  0.5269
    1SOL    MW4 4688   3.604   1.935   1.872  0.0892  0.1324  0.0359
    1SOL     OW 4689   3.801   2.097   1.965  0.2490 -0.1998  0.0019
    1SOL    HW2 4690   3.882   2.054   1.938  0.0701  0.4223 -1.5668
    1SOL    HW3 4691   3.807   2.186   1.930 -0.7608  0.1038  0.5556
    1SOL    MW4 4692   3.812   2.103   1.957  0.0923 -0.0775 -0.1321
    1SOL     OW 4693   3.844   2.338   1.860 -0.0426 -0.4150  0.2618
    1SOL    HW2 4694   3.908   2.387   1.912  0.8534 -0.3563 -0.8676
    1SOL    HW3 4695   3.761   2.384   1.874  0.3939  0.2062  0.8164
    1SOL    MW4 4696   3.841   2.351   1.868  0.1333 -0.3254  0.1861
    1SOL     OW 4697   3.605   2.461   1.926  0.0180  0.0202 -0.1273
    1SOL    HW2 4698   3.587   2.553   1.910  0.3069  0.6432  2.8544
    1SOL    HW3 4699   3.526   2.415   1.898 -0.1966  1.1881 -1.4457
    1SOL    MW4 4700   3.592   2.467   1.920  0.0279  0.2563  0.0921
    1SOL     OW 4701   3.559   2.731   1.860 -0.0292  0.1061 -0.1087
    1SOL    HW2 4702   3.636   2.770   1.902  0.4708 -0.6805 -0.2764
    1SOL    HW3 4703   3.487   2.788   1.886  0.3728  0.0188  1.2823
    1SOL    MW4 4704   3.560   2.744   1.869  0.0896 -0.0093  0.0527
    1SOL     OW 4705   3.777   2.835   1.967 -0.4024  0.0210  0.1403
    1SOL    HW2 4706   3.765   2.829   2.062  2.7440  0.5260  0.6131
    1SOL    HW3 4707   3.805   2.925   1.952 -2.5723  0.4637 -1.5213
    1SOL    MW4 4708   3.779   2.846   1.978 -0.2737  0.1462 -0.0166
    1SOL     OW 4709   3.844   3.091   1.882 -0.0617  0.1217  0.0455
    1SOL    HW2 4710   3.760   3.137   1.879 -0.2455 -0.2756 -0.9329
    1SOL    HW3 4711   3.869   3.081   1.790  0.6489 -0.5086  0.3082
    1SOL    MW4 4712   3.836   3.096   1.870  0.0081 -0.0138 -0.0489
    1SOL     OW 4713   3.602   3.214   1.941  0.3246 -0.2072 -0.0862
    1SOL    HW2 4714   3.612   3.214   2.036  2.1000  0.4140 -0.2659
    1SOL    HW3 4715   3.616   3.305   1.915  1.5002 -0.6618 -1.1022
    1SOL    MW4 4716   3.605   3.226   1.950  0.7138 -0.1853 -0.2439
    1SOL     OW 4717   3.618   3.488   1.866 -0.5182 -0.0858 -0.2587
    1SOL    HW2 4718   3.699   3.531   1.895 -0.5965 -0.7650  0.9909
    1SOL    HW3 4719   3.618   3.498   1.771  1.5013 -0.9089 -0.3615
    1SOL    MW4 4720   3.629   3.495   1.857 -0.2620 -0.2842 -0.1073
    1SOL     OW 4721   3.838   3.613   1.974  0.0306  0.0188 -0.0941
    1SOL    HW2 4722   3.910   3.578   1.922 -0.9534 -0.7177 -0.9717
    1SOL    HW3 4723   3.828   3.703   1.944  0.6321  0.1468  0.0832
    1SOL    MW4 4724   3.846   3.620   1.963 -0.0200 -0.0615 -0.1864
    1SOL     OW 4725   3.783   3.864   1.882  0.1295  0.4228  0.0873
    1SOL    HW2 4726   3.710   3.919   1.913 -1.5253 -1.4190 -0.4470
    1SOL    HW3 4727   3.782   3.873   1.787 -0.8139 -1.3045 -0.0863
    1SOL    MW4 4728   3.773   3.873   1.874 -0.2134 -0.0482 -0.0062
    1SOL     OW 4729   3.583   4.060   1.944  0.1719  0.0041 -0.0949
    1SOL    HW2 4730   3.566   4.054   2.038 -1.3883  0.7248 -0.3136
    1SOL    HW3 4731   3.506   4.020   1.903  1.5340 -1.6926 -1.0476
    1SOL    MW4 4732   3.570   4.054   1.951  0.1459 -0.1249 -0.2494
    1SOL     OW 4733   3.540   4.329   1.856 -0.2017  0.4231 -0.0707
    1SOL    HW2 4734   3.604   4.377   1.907  0.4948 -0.5519 -0.0216
    1SOL    HW3 4735   3.549   4.238   1.884 -1.2237  0.1878 -0.4536
    1SOL    MW4 4736   3.549   4.323   1.866 -0.2449  0.2627 -0.1148
    1SOL     OW 4737   3.772   4.422   2.001 -0.2513  0.4816  0.1182
    1SOL    HW2 4738   3.791   4.433   2.094 -2.9671  0.6554  0.7094
    1SOL    HW3 4739   3.843   4.368   1.968 -0.3677 -1.4383  2.7873
    1SOL    MW4 4740   3.784   4.416   2.009 -0.6251  0.2513  0.5484
    1SOL     OW 4741   4.281   4.620   1.872  0.1778 -0.2349  0.3085
    1SOL    HW2 4742   4.206   4.667   1.910 -0.0034  1.4554 -2.0689
    1SOL    HW3 4743   4.358   4.660   1.913  0.0222  2.1397 -1.6400
    1SOL    MW4 4744   4.281   4.632   1.883  0.1335  0.3014 -0.2621
    1SOL     OW 4745   4.055   0.077   1.956  0.3580  0.2889  0.0635
    1SOL    HW2 4746   4.055   0.090   2.051 -0.1103  0.2860  0.0635
    1SOL    HW3 4747   3.966   0.049   1.935  0.2557  1.0220 -0.4824
    1SOL    MW4 4748   4.044   0.075   1.966  0.2823  0.3853 -0.0086
    1SOL     OW 4749   4.042   0.316   1.840 -0.6942  0.3652 -0.1296
    1SOL    HW2 4750   4.038   0.228   1.877 -1.3269  0.6074  0.3802
    1SOL    HW3 4751   3.969   0.363   1.879 -0.6315  0.9935 -0.7381
    1SOL    MW4 4752   4.032   0.311   1.850 -0.7696  0.4800 -0.1425
    1SOL     OW 4753   4.277   0.462   1.923 -0.0054  0.5288  0.0760
    1SOL    HW2 4754   4.270   0.465   2.019  0.7921 -1.1710  0.1975
    1SOL    HW3 4755   4.204   0.406   1.896  0.3414  0.2240 -0.2340
    1SOL    MW4 4756   4.266   0.455   1.932  0.1454  0.2643  0.0511
    1SOL     OW 4757   4.267   0.736   1.919  0.3787 -0.2185 -0.1892
    1SOL    HW2 4758   4.269   0.641   1.933 -2.6742 -0.0853  1.5615
    1SOL    HW3 4759   4.265   0.746   1.823 -0.0905 -1.9405 -0.3713
    1SOL    MW4 4760   4.267   0.725   1.908 -0.0858 -0.4281  0.0176
    1SOL     OW 4761   4.048   0.901   1.963 -0.8229  0.2607  0.4081
    1SOL    HW2 4762   4.125   0.844   1.970 -1.0623 -0.0983  0.1872
    1SOL    HW3 4763   3.975   0.840   1.948 -0.9507  0.6983 -0.7461
    1SOL    MW4 4764   4.048   0.885   1.962 -0.8712  0.2711  0.2267
    1SOL     OW 4765   4.057   1.158   1.889  0.5020 -0.2172 -0.1944
    1SOL    HW2 4766   4.068   1.064   1.909 -0.3075 -0.3312 -0.2602
    1SOL    HW3 4767   3.967   1.177   1.916 -0.2347 -0.0870 -2.6928
    1SOL    MW4 4768   4.046   1.148   1.895  0.2985 -0.2152 -0.5326
    1SOL     OW 4769   4.256   1.326   1.988 -0.0251  0.1242 -0.3704
    1SOL    HW2 4770   4.250   1.325   2.083  1.0927  1.7790 -0.2736
    1SOL    HW3 4771   4.183   1.271   1.959 -0.9190  0.3467  1.4133
    1SOL    MW4 4772   4.245   1.318   1.997  0.0043  0.3718 -0.1223
    1SOL     OW 4773   4.216   1.595   1.908  0.1072 -0.2646  0.5029
    1SOL    HW2 4774   4.216   1.502   1.934 -0.9871 -0.7464 -1.1128
    1SOL    HW3 4775   4.241   1.594   1.816 -0.1072  1.0370  0.4215
    1SOL    MW4 4776   4.219   1.582   1.899 -0.0653 -0.1563  0.2789
    1SOL     OW 4777   3.948   1.662   1.967  0.0285 -0.2769 -0.0746
    1SOL    HW2 4778   3.953   1.678   2.062 -1.4942 -1.7180  0.2678
    1SOL    HW3 4779   4.038   1.641   1.942  0.7260  1.6267  0.7626
    1SOL    MW4 4780   3.961   1.661   1.976 -0.0801 -0.2159  0.0811
    1SOL     OW 4781   4.012   1.939   1.893 -0.0559 -0.1308  0.2242
    1SOL    HW2 4782   3.980   1.853   1.921  2.3994 -1.5235 -1.0367
    1SOL    HW3 4783   4.009   1.935   1.797  1.8138  0.4811  0.1203
    1SOL    MW4 4784   4.007   1.927   1.884  0.5145 -0.2339  0.0440
    1SOL     OW 4785   4.264   2.040   2.000 -0.1003  0.1421 -0.1312
    1SOL    HW2 4786   4.232   2.059   2.088 -1.5932  0.3590 -0.6970
    1SOL    HW3 4787   4.189   1.998   1.956  0.6882 -0.1348 -1.2311
    1SOL    MW4 4788   4.250   2.037   2.006 -0.1926  0.1340 -0.3512
    1SOL     OW 4789   4.238   2.299   1.915  0.0108 -0.0232  0.3782
    1SOL    HW2 4790   4.246   2.210   1.950 -1.0831 -0.2117  0.1733
    1SOL    HW3 4791   4.310   2.347   1.955  0.8036 -1.0784  0.2486
    1SOL    MW4 4792   4.248   2.293   1.925 -0.0291 -0.1874  0.3341
    1SOL     OW 4793   4.039   2.478   1.994 -0.3713  0.5473  0.1106
    1SOL    HW2 4794   4.026   2.476   2.089 -2.1108 -0.0387 -0.1268
    1SOL    HW3 4795   4.115   2.423   1.979  0.5486  1.4840  1.2704
    1SOL    MW4 4796   4.047   2.471   2.005 -0.4787  0.5939  0.2322
    1SOL     OW 4797   4.022   2.707   1.846 -0.4824  0.1222  0.0121
    1SOL    HW2 4798   4.034   2.620   1.885 -0.6445 -0.1565 -0.5514
    1SOL    HW3 4799   3.934   2.733   1.875 -0.9091 -0.4095 -0.7757
    1SOL    MW4 4800   4.012   2.699   1.855 -0.5603  0.0150 -0.1662
    1SOL     OW 4801   4.247   2.836   1.974 -0.3276  0.5952  0.0886
    1SOL    HW2 4802   4.242   2.841   2.069 -0.6146 -2.0035  0.2251
    1SOL    HW3 4803   4.170   2.786   1.948 -0.0667  0.9934 -1.4979
    1SOL    MW4 4804   4.236   2.830   1.983 -0.3314  0.3052 -0.1026
    1SOL     OW 4805   4.247   3.110   1.884 -0.4295  0.2207  0.1305
    1SOL    HW2 4806   4.186   3.171   1.927 -0.4089 -0.3738  1.0106
    1SOL    HW3 4807   4.212   3.023   1.905 -1.2343 -0.0496 -2.2558
    1SOL    MW4 4808   4.234   3.107   1.893 -0.5331  0.1068 -0.0682
    1SOL     OW 4809   4.024   3.259   2.006 -0.0967 -0.2219  0.3374
    1SOL    HW2 4810   4.025   3.262   2.102  0.5069 -0.5322  0.3432
    1SOL    HW3 4811   3.950   3.202   1.985 -0.6911  0.4540  0.6003
    1SOL    MW4 4812   4.014   3.252   2.016 -0.0949 -0.1736  0.3731
    1SOL     OW 4813   4.071   3.476   1.855  0.1912  0.2459 -0.1429
    1SOL    HW2 4814   4.131   3.528   1.909  0.0689  0.7910 -0.5179
    1SOL    HW3 4815   4.049   3.400   1.908 -0.5354  1.1570  0.8830
    1SOL    MW4 4816   4.076   3.473   1.869  0.0792  0.4380 -0.0572
    1SOL     OW 4817   4.234   3.609   2.017  0.5592 -0.5019  0.1213
    1SOL    HW2 4818   4.241   3.698   1.984  1.0597  0.3023  2.3428
    1SOL    HW3 4819   4.319   3.570   1.997  0.2468 -0.5838 -1.0917
    1SOL    MW4 4820   4.246   3.615   2.010  0.5836 -0.4067  0.2544
    1SOL     OW 4821   4.239   3.870   1.920 -0.3079 -0.1116 -0.0590
    1SOL    HW2 4822   4.321   3.911   1.949 -0.4891  0.1755  0.0519
    1SOL    HW3 4823   4.249   3.861   1.825  0.3160 -1.1231  0.0950
    1SOL    MW4 4824   4.251   3.874   1.911 -0.2499 -0.2072 -0.0241
    1SOL     OW 4825   4.005   4.013   1.966 -0.1132 -0.4278 -0.0189
    1SOL    HW2 4826   4.091   3.971   1.956 -0.2128 -0.9817  1.3160
    1SOL    HW3 4827   3.943   3.948   1.934 -0.1655 -0.7916  0.7963
    1SOL    MW4 4828   4.008   3.999   1.960 -0.1330 -0.5493  0.2648
    1SOL     OW 4829   3.970   4.269   1.884 -0.2513 -0.0690 -0.0867
    1SOL    HW2 4830   4.053   4.302   1.917 -0.2435  0.0779 -0.2528
    1SOL    HW3 4831   3.975   4.174   1.896  0.3997 -0.1735 -1.1457
    1SOL    MW4 4832   3.982   4.261   1.890 -0.1645 -0.0629 -0.2483
    1SOL     OW 4833   4.228   4.361   1.925 -0.4381 -0.5165 -0.1250
    1SOL    HW2 4834   4.248   4.365   2.018  1.5030 -0.1931 -0.5339
    1SOL    HW3 4835   4.237   4.452   1.895 -0.6981 -0.6795 -0.6991
    1SOL    MW4 4836   4.232   4.374   1.933 -0.2165 -0.4954 -0.2546
    1SOL     OW 4837   0.246   4.645   2.393 -0.0074 -0.1818 -0.2089
    1SOL    HW2 4838   0.248   4.665   2.486 -0.3026 -0.5113 -0.1294
    1SOL    HW3 4839   0.316   4.698   2.355  0.4398 -0.4264  0.2688
    1SOL    MW4 4840   0.255   4.655   2.400  0.0127 -0.2575 -0.1354
    1SOL     OW 4841   0.040   0.104   2.265 -0.0594  0.2717 -0.2296
    1SOL    HW2 4842   0.108   0.052   2.309  1.1159  1.0711 -1.0759
    1SOL    HW3 4843   0.047   0.080   2.173 -0.1241  1.2511 -0.4958
    1SOL    MW4 4844   0.050   0.094   2.259  0.0871  0.5064 -0.3760
    1SOL     OW 4845   4.484   0.357   2.319  0.0846 -0.3703  0.3013
    1SOL    HW2 4846   4.559   0.413   2.300 -0.6465  0.0502 -1.5963
    1SOL    HW3 4847   4.513   0.269   2.297  0.8781 -0.6074  2.2112
    1SOL    MW4 4848   4.497   0.353   2.313  0.0929 -0.3461  0.3030
    1SOL     OW 4849   0.222   0.514   2.260  0.1905  0.0441  0.4098
    1SOL    HW2 4850   0.294   0.458   2.288 -0.0765 -0.7491 -0.4934
    1SOL    HW3 4851   0.230   0.519   2.165 -1.4278 -0.7225  0.2077
    1SOL    MW4 4852   0.232   0.508   2.252 -0.0582 -0.1618  0.2639
    1SOL     OW 4853   0.223   0.771   2.370 -0.0122 -0.0135  0.0113
    1SOL    HW2 4854   0.231   0.777   2.465  0.4962  0.8866 -0.0863
    1SOL    HW3 4855   0.220   0.677   2.352  1.3310 -0.2136  0.7917
    1SOL    MW4 4856   0.223   0.760   2.380  0.2321  0.0789  0.1016
    1SOL     OW 4857   0.008   0.894   2.244 -0.2803  0.4662 -0.4042
    1SOL    HW2 4858   0.095   0.864   2.270  0.1542  3.2471  1.5463
    1SOL    HW3 4859   0.014   0.906   2.150  1.3799  0.4253 -0.3240
    1SOL    MW4 4860   0.020   0.892   2.235 -0.0039  0.8277 -0.1359
    1SOL     OW 4861   4.476   1.190   2.326  0.3496  0.0285 -0.5260
    1SOL    HW2 4862   4.467   1.169   2.419 -2.5069 -2.0419 -1.1949
    1SOL    HW3 4863   4.488   1.105   2.284 -0.1294  0.7882 -2.2176
    1SOL    MW4 4864   4.476   1.176   2.333 -0.0906 -0.1444 -0.8373
    1SOL     OW 4865   0.220   1.313   2.241  0.0920  0.3501  0.3364
    1SOL    HW2 4866   0.138   1.272   2.269  0.6604 -0.6542  0.5470
    1SOL    HW3 4867   0.235   1.278   2.153  1.6239 -1.5038  1.2942
    1SOL    MW4 4868   0.211   1.303   2.233  0.3691 -0.0272  0.4909
    1SOL     OW 4869   0.227   1.594   2.337  0.0767 -0.0641 -0.2169
    1SOL    HW2 4870   0.234   1.613   2.430  1.7465 -1.3164 -0.0561
    1SOL    HW3 4871   0.210   1.500   2.333 -1.9756  0.3303 -1.1308
    1SOL    MW4 4872   0.226   1.584   2.349  0.0262 -0.1773 -0.3164
    1SOL     OW 4873   4.461   1.667   2.277  0.0429  0.0380  0.1358
    1SOL    HW2 4874   4.448   1.745   2.330 -0.3191 -0.2745  0.5124
    1SOL    HW3 4875   4.554   1.645   2.288  0.1062  0.3194  0.1554
    1SOL    MW4 4876   4.472   1.674   2.286  0.0033  0.0340  0.1884
    1SOL     OW 4877   4.424   1.921   2.402  0.0087  0.1116 -0.3478
    1SOL    HW2 4878   4.354   1.981   2.377  1.8356  1.6996 -1.7630
    1SOL    HW3 4879   4.502   1.955   2.359  1.6940 -1.5742  1.2683
    1SOL    MW4 4880   4.425   1.933   2.393  0.4711  0.0987 -0.3214
    1SOL     OW 4881   0.193   2.031   2.322 -0.7399 -0.1211 -0.6023
    1SOL    HW2 4882   0.262   1.969   2.345 -1.4792 -1.2865 -1.4412
    1SOL    HW3 4883   0.194   2.034   2.226 -1.1366  0.6802 -0.5878
    1SOL    MW4 4884   0.202   2.023   2.312 -0.8898 -0.1693 -0.7110
    1SOL     OW 4885   0.166   2.299   2.385  0.3248 -0.0198 -0.1091
    1SOL    HW2 4886   0.192   2.310   2.476 -0.2880  2.8260 -0.2319
    1SOL    HW3 4887   0.153   2.204   2.375  0.5155 -0.3884  2.6970
    1SOL    MW4 4888   0.168   2.288   2.396  0.2691  0.3068  0.2451
    1SOL     OW 4889   4.474   2.459   2.254  0.3512 -0.4736  0.0439
    1SOL    HW2 4890   4.471   2.539   2.306  0.1912 -0.6911  0.3711
    1SOL    HW3 4891   4.535   2.402   2.301  1.2072 -0.1852 -0.6991
    1SOL    MW4 4892   4.482   2.462   2.267  0.4435 -0.4640 -0.0105
    1SOL     OW 4893   4.442   2.687   2.371  0.1428  0.3591  0.2004
    1SOL    HW2 4894   4.441   2.671   2.465  1.2266 -0.6371  0.0575
    1SOL    HW3 4895   4.517   2.744   2.356 -0.5165  1.1935  0.0325
    1SOL    MW4 4896   4.452   2.692   2.382  0.1988  0.3376  0.1595
    1SOL     OW 4897   0.178   2.820   2.302 -0.2139  0.0451 -0.1011
    1SOL    HW2 4898   0.260   2.776   2.323  0.0597  0.8500  0.5279
    1SOL    HW3 4899   0.174   2.820   2.206  1.3119  1.4558 -0.1772
    1SOL    MW4 4900   0.188   2.814   2.292  0.0235  0.3376 -0.0281
    1SOL     OW 4901   0.204   3.096   2.335 -0.0768 -0.0620 -0.0733
    1SOL    HW2 4902   0.123   3.132   2.298  0.0458 -0.9236 -1.2008
    1SOL    HW3 4903   0.188   3.001   2.337  1.9028 -0.4896 -2.7405
    1SOL    MW4 4904   0.191   3.088   2.331  0.2005 -0.2320 -0.5739
    1SOL     OW 4905   4.459   3.236   2.260 -0.1848 -0.0243 -0.1601
    1SOL    HW2 4906   4.475   3.330   2.274  0.7551 -0.1914 -0.0604
    1SOL    HW3 4907   4.464   3.226   2.164 -0.4067  0.0543 -0.1788
    1SOL    MW4 4908   4.462   3.247   2.249 -0.0901 -0.0360 -0.1495
    1SOL     OW 4909   0.032   3.487   2.337 -0.3956 -0.4316 -0.3001
    1SOL    HW2 4910   0.029   3.487   2.433  1.8104 -1.4165 -0.2074
    1SOL    HW3 4911  -0.044   3.540   2.311 -0.0351  1.3328  2.0228
    1SOL    MW4 4912   0.021   3.494   2.346 -0.0570 -0.3290  0.0188
    1SOL     OW 4913   0.273   3.605   2.283 -0.1538  0.1100  0.3377
    1SOL    HW2 4914   0.341   3.553   2.325  0.2616  0.5528  0.2155
    1SOL    HW3 4915   0.192   3.558   2.302  0.0511  0.2173  1.4869
    1SOL    MW4 4916   0.271   3.592   2.291 -0.0719  0.1826  0.4730
    1SOL     OW 4917   0.225   3.880   2.347  0.4021  0.1573 -0.2975
    1SOL    HW2 4918   0.135   3.901   2.325  0.0545  0.3300  1.1900
    1SOL    HW3 4919   0.233   3.786   2.334  0.8924  0.5923 -3.3735
    1SOL    MW4 4920   0.214   3.871   2.343  0.4210  0.2372 -0.5074
    1SOL     OW 4921   4.456   3.972   2.282 -0.0128  0.1139 -0.3579
    1SOL    HW2 4922   4.460   4.067   2.297 -0.2607  0.3109 -1.4227
    1SOL    HW3 4923   4.450   3.964   2.186 -0.3366 -0.9631 -0.2535
    1SOL    MW4 4924   4.456   3.984   2.271 -0.0887 -0.0024 -0.4847
    1SOL     OW 4925   4.488   4.242   2.320 -0.1037 -0.0147  0.1675
    1SOL    HW2 4926   4.484   4.261   2.413  0.1575  0.8313  0.0181
    1SOL    HW3 4927   4.573   4.276   2.292 -0.8539  1.2437 -0.6808
    1SOL    MW4 4928   4.498   4.249   2.328 -0.1682  0.2627  0.0362
    1SOL     OW 4929   0.245   4.383   2.254  0.1087 -0.9565  0.2184
    1SOL    HW2 4930   0.330   4.350   2.282  0.4215  0.0481  0.4925
    1SOL    HW3 4931   0.246   4.476   2.280 -0.8881 -0.8291 -0.1800
    1SOL    MW4 4932   0.257   4.391   2.261  0.0185 -0.8068  0.2019
    1SOL     OW 4933   0.672   4.650   2.365  0.3168 -0.3058  0.1545
    1SOL    HW2 4934   0.679   4.660   2.460  1.8709 -2.9708  0.3617
    1SOL    HW3 4935   0.755   4.682   2.331  0.5948 -1.3118 -0.1235
    1SOL    MW4 4936   0.684   4.656   2.373  0.5586 -0.7901  0.1447
    1SOL     OW 4937   0.451   0.119   2.234 -0.0727  0.4148 -0.1555
    1SOL    HW2 4938   0.523   0.065   2.265  0.0727 -0.0103 -1.2085
    1SOL    HW3 4939   0.461   0.121   2.138 -1.0470  0.9152 -0.2614
    1SOL    MW4 4940   0.462   0.112   2.225 -0.1821  0.4248 -0.3083
    1SOL     OW 4941   0.453   0.372   2.359  0.3126  0.6629  0.2348
    1SOL    HW2 4942   0.475   0.378   2.453 -0.0480  0.5126  0.3267
    1SOL    HW3 4943   0.466   0.280   2.338 -1.6252  0.2905  0.6262
    1SOL    MW4 4944   0.458   0.361   2.369  0.0094  0.5940  0.2985
    1SOL     OW 4945   0.672   0.538   2.257 -0.0883 -0.1027  0.3592
    1SOL    HW2 4946   0.657   0.621   2.301 -0.0651  0.4834 -0.7339
    1SOL    HW3 4947   0.601   0.481   2.289  0.1613  0.1849  1.4478
    1SOL    MW4 4948   0.661   0.541   2.267 -0.0522  0.0126  0.3586
    1SOL     OW 4949   0.686   0.803   2.368 -0.3798  0.2692  0.1757
    1SOL    HW2 4950   0.703   0.801   2.462  1.0570  1.6052 -0.0377
    1SOL    HW3 4951   0.603   0.849   2.360 -1.0081 -0.7227  0.8425
    1SOL    MW4 4952   0.677   0.808   2.379 -0.2731  0.3146  0.2356
    1SOL     OW 4953   0.454   0.904   2.263  0.0721  0.2358  0.3393
    1SOL    HW2 4954   0.437   0.994   2.293  0.6413  0.3151  0.4250
    1SOL    HW3 4955   0.377   0.855   2.292 -0.2012  0.6771  0.3743
    1SOL    MW4 4956   0.442   0.910   2.271  0.1111  0.3046  0.3552
    1SOL     OW 4957   0.416   1.161   2.360 -0.0952 -0.6844  0.2252
    1SOL    HW2 4958   0.414   1.170   2.456  0.5374 -0.7968  0.2497
    1SOL    HW3 4959   0.355   1.228   2.329 -0.2784 -0.6228  0.7085
    1SOL    MW4 4960   0.408   1.171   2.369 -0.0359 -0.6913  0.2921
    1SOL     OW 4961   0.653   1.283   2.228 -0.3167  0.0740  0.1769
    1SOL    HW2 4962   0.641   1.371   2.263 -2.3893  0.8131 -2.1957
    1SOL    HW3 4963   0.570   1.239   2.244  1.5743 -2.4398  3.7648
    1SOL    MW4 4964   0.640   1.289   2.235 -0.3407 -0.1601  0.3374
    1SOL     OW 4965   0.653   1.523   2.386 -0.0440 -0.1749 -0.4669
    1SOL    HW2 4966   0.662   1.524   2.482 -0.8016 -0.4245 -0.3897
    1SOL    HW3 4967   0.728   1.573   2.355 -0.4171  0.9032  0.3136
    1SOL    MW4 4968   0.664   1.529   2.395 -0.1931 -0.0657 -0.3536
    1SOL     OW 4969   0.468   1.643   2.223  0.1593  0.4133 -0.1425
    1SOL    HW2 4970   0.530   1.606   2.285  1.2855  0.9982 -0.9047
    1SOL    HW3 4971   0.382   1.618   2.257  0.8159 -0.6559  0.7592
    1SOL    MW4 4972   0.465   1.635   2.235  0.3945  0.3495 -0.1240
    1SOL     OW 4973   0.439   1.881   2.378  0.5331 -0.1004 -0.1364
    1SOL    HW2 4974   0.507   1.937   2.341 -1.3542  0.6849 -2.5063
    1SOL    HW3 4975   0.448   1.798   2.332  0.2836 -0.2087  0.0078
    1SOL    MW4 4976   0.449   1.878   2.367  0.2512 -0.0110 -0.4301
    1SOL     OW 4977   0.632   2.070   2.271  0.3052  0.0903 -0.3297
    1SOL    HW2 4978   0.708   2.023   2.306  0.5103  0.2763 -0.5251
    1SOL    HW3 4979   0.630   2.152   2.320 -0.0747 -0.1373  0.0384
    1SOL    MW4 4980   0.642   2.074   2.282  0.2822  0.0849 -0.3071
    1SOL     OW 4981   0.626   2.317   2.405  0.1901  0.1350  0.2528
    1SOL    HW2 4982   0.629   2.311   2.501 -0.3126  0.1553  0.2692
    1SOL    HW3 4983   0.695   2.379   2.383  0.2697  0.1742  0.6055
    1SOL    MW4 4984   0.636   2.324   2.415  0.1343  0.1426  0.3014
    1SOL     OW 4985   0.413   2.420   2.281 -0.5461  0.2084 -0.5900
    1SOL    HW2 4986   0.483   2.373   2.325 -0.4414 -0.2536 -1.2493
    1SOL    HW3 4987   0.333   2.375   2.308 -0.5215  0.2233 -0.4924
    1SOL    MW4 4988   0.411   2.408   2.290 -0.5290  0.1493 -0.6640
    1SOL     OW 4989   0.446   2.696   2.344 -0.1225 -0.5641 -0.3045
    1SOL    HW2 4990   0.458   2.715   2.437 -2.0929 -0.5612 -0.0186
    1SOL    HW3 4991   0.441   2.601   2.339  1.4253 -0.6417 -0.6176
    1SOL    MW4 4992   0.447   2.686   2.355 -0.1783 -0.5739 -0.3083
    1SOL     OW 4993   0.651   2.849   2.228 -0.1809 -0.0514 -0.1561
    1SOL    HW2 4994   0.726   2.811   2.274 -0.0736  2.6873  2.0602
    1SOL    HW3 4995   0.575   2.806   2.267  0.0783 -0.4840 -0.1196
    1SOL    MW4 4996   0.651   2.838   2.239 -0.1325  0.2527  0.1409
    1SOL     OW 4997   0.678   3.101   2.346  0.0173 -0.4061 -0.2505
    1SOL    HW2 4998   0.598   3.146   2.316  0.6217  0.2168 -0.9672
    1SOL    HW3 4999   0.672   3.014   2.308 -0.0050 -0.1452 -0.8518
    1SOL    MW4 5000   0.667   3.096   2.337  0.0941 -0.2897 -0.4246
    1SOL     OW 5001   0.443   3.218   2.265  0.0203  0.4039  0.5412
    1SOL    HW2 5002   0.363   3.169   2.287  1.5526 -1.8926  1.1510
    1SOL    HW3 5003   0.446   3.215   2.169  1.0116 -2.2933  0.6138
    1SOL    MW4 5004   0.433   3.211   2.255  0.3533 -0.2549  0.6311
    1SOL     OW 5005   0.475   3.458   2.388  0.0732 -0.2905 -0.2932
    1SOL    HW2 5006   0.551   3.506   2.356  1.8603 -2.0398  1.1792
    1SOL    HW3 5007   0.467   3.384   2.327  0.5374 -0.9618  0.4439
    1SOL    MW4 5008   0.484   3.454   2.376  0.3702 -0.6096 -0.0017
    1SOL     OW 5009   0.682   3.605   2.257 -0.1328 -0.1340  0.5416
    1SOL    HW2 5010   0.705   3.690   2.294  1.2302 -0.5380  0.6411
    1SOL    HW3 5011   0.690   3.617   2.163  0.4900 -0.2697  0.5753
    1SOL    MW4 5012   0.686   3.618   2.250  0.1292 -0.2053  0.5589
    1SOL     OW 5013   0.699   3.871   2.381  0.4228 -0.2975  0.6250
    1SOL    HW2 5014   0.696   3.871   2.476 -0.5392  0.7044  0.5991
    1SOL    HW3 5015   0.611   3.900   2.354  0.5844 -0.8721 -0.5639
    1SOL    MW4 5016   0.687   3.875   2.390  0.3173 -0.2410  0.4647
    1SOL     OW 5017   0.460   3.960   2.271 -0.0666 -0.9262 -0.5954
    1SOL    HW2 5018   0.368   3.949   2.291 -0.0371 -1.8530 -0.9545
    1SOL    HW3 5019   0.465   3.955   2.175  0.1962  0.3330 -0.6590
    1SOL    MW4 5020   0.449   3.958   2.261 -0.0280 -0.8824 -0.6511
    1SOL     OW 5021   0.463   4.232   2.349  0.1181 -0.2129  0.4461
    1SOL    HW2 5022   0.542   4.263   2.306  2.1724 -2.0851  2.7702
    1SOL    HW3 5023   0.447   4.145   2.312 -0.2106 -0.3134  0.8109
    1SOL    MW4 5024   0.471   4.225   2.338  0.3458 -0.4725  0.8011
    1SOL     OW 5025   0.706   4.394   2.249 -0.0683 -0.0007  0.4723
    1SOL    HW2 5026   0.687   4.480   2.285 -0.0724  0.6812 -1.1375
    1SOL    HW3 5027   0.694   4.404   2.155  1.6336 -1.3116  0.0955
    1SOL    MW4 5028   0.702   4.407   2.241  0.1557 -0.0834  0.2103
    1SOL     OW 5029   1.157   4.625   2.352 -0.6675 -0.2886 -0.6183
    1SOL    HW2 5030   1.145   4.609   2.445  0.1753 -1.3233 -0.6764
    1SOL    HW3 5031   1.075   4.665   2.323 -0.7788  0.3984  0.6452
    1SOL    MW4 5032   1.144   4.628   2.360 -0.5710 -0.3343 -0.4592
    1SOL     OW 5033   0.913   0.094   2.295 -0.2460  0.2636  0.2289
    1SOL    HW2 5034   0.912   0.176   2.344  0.7476  0.3201  0.1712
    1SOL    HW3 5035   0.905   0.121   2.204 -1.0616  0.2214  0.2837
    1SOL    MW4 5036   0.912   0.108   2.289 -0.2225  0.2655  0.2282
    1SOL     OW 5037   0.877   0.362   2.349  0.1010  0.3538  0.4367
    1SOL    HW2 5038   0.956   0.416   2.343 -0.7185  1.4130 -1.3312
    1SOL    HW3 5039   0.805   0.422   2.331 -0.8921 -1.1948 -0.9209
    1SOL    MW4 5040   0.878   0.377   2.346 -0.1381  0.2892  0.0246
    1SOL     OW 5041   1.110   0.495   2.287  0.3672 -0.3127 -0.3415
    1SOL    HW2 5042   1.190   0.447   2.311  0.4146 -0.0432  0.0390
    1SOL    HW3 5043   1.088   0.462   2.200  1.2871  0.1089 -0.7453
    1SOL    MW4 5044   1.118   0.484   2.279  0.4948 -0.2215 -0.3445
    1SOL     OW 5045   1.131   0.790   2.317 -0.3590  0.2146  0.0891
    1SOL    HW2 5046   1.044   0.824   2.299 -0.3746 -0.9462 -2.3321
    1SOL    HW3 5047   1.121   0.694   2.316  0.9525  0.0584 -0.4936
    1SOL    MW4 5048   1.118   0.781   2.314 -0.1880  0.0408 -0.3073
    1SOL     OW 5049   0.894   0.910   2.238 -0.6460 -0.1454 -0.2898
    1SOL    HW2 5050   0.899   0.996   2.279 -1.4953 -0.2386  0.0061
    1SOL    HW3 5051   0.813   0.872   2.271 -0.0780 -1.2110 -0.1363
    1SOL    MW4 5052   0.884   0.917   2.248 -0.6831 -0.2983 -0.2306
    1SOL     OW 5053   0.890   1.169   2.337  0.0503  0.0739  0.0865
    1SOL    HW2 5054   0.973   1.200   2.300 -0.1055 -1.9060 -2.0472
    1SOL    HW3 5055   0.823   1.221   2.292  0.0313  0.0262  0.0589
    1SOL    MW4 5056   0.892   1.180   2.326  0.0272 -0.1938 -0.1988
    1SOL     OW 5057   1.117   1.302   2.229 -0.1783  0.2344 -0.2999
    1SOL    HW2 5058   1.198   1.261   2.260  0.5693  1.9183  0.0805
    1SOL    HW3 5059   1.123   1.297   2.133  0.0577 -0.2680 -0.2596
    1SOL    MW4 5060   1.129   1.296   2.220 -0.0485  0.3903 -0.2441
    1SOL     OW 5061   1.106   1.567   2.343  0.5268 -0.0914 -0.0079
    1SOL    HW2 5062   1.024   1.602   2.310  0.1228 -0.3120  0.7380
    1SOL    HW3 5063   1.111   1.479   2.306  1.1859  0.4760 -1.2949
    1SOL    MW4 5064   1.096   1.560   2.334  0.5604 -0.0457 -0.0794
    1SOL     OW 5065   0.850   1.665   2.248  0.1374  0.0148 -0.2144
    1SOL    HW2 5066   0.838   1.753   2.283 -2.5472 -0.0061 -0.9741
    1SOL    HW3 5067   0.838   1.675   2.153 -2.0237 -1.4495 -0.1202
    1SOL    MW4 5068   0.847   1.678   2.240 -0.5019 -0.1812 -0.3021
    1SOL     OW 5069   0.830   1.915   2.356 -0.1712 -0.4932  0.1749
    1SOL    HW2 5070   0.839   1.889   2.448 -1.4193  0.3810  0.5520
    1SOL    HW3 5071   0.909   1.967   2.339  0.6636 -1.6564  0.3841
    1SOL    MW4 5072   0.842   1.918   2.366 -0.2257 -0.5313  0.2520
    1SOL     OW 5073   1.077   2.070   2.279  0.3754  0.2401  0.0074
    1SOL    HW2 5074   1.164   2.034   2.300  0.3073 -0.5674 -1.0293
    1SOL    HW3 5075   1.069   2.058   2.184 -1.5409 -1.1857  0.3315
    1SOL    MW4 5076   1.088   2.064   2.269  0.1136 -0.0546 -0.0868
    1SOL     OW 5077   1.075   2.333   2.358 -0.1916 -0.2679  0.3220
    1SOL    HW2 5078   1.131   2.381   2.298  0.2777 -0.2530  0.7768
    1SOL    HW3 5079   1.092   2.241   2.338 -0.1553 -0.2622  0.3279
    1SOL    MW4 5080   1.085   2.327   2.348 -0.1248 -0.2654  0.3829
    1SOL     OW 5081   0.840   2.440   2.268 -0.6237 -0.2555 -0.1101
    1SOL    HW2 5082   0.914   2.389   2.298 -1.3863 -1.7367 -0.7043
    1SOL    HW3 5083   0.847   2.439   2.173 -0.2519  1.3572 -0.1186
    1SOL    MW4 5084   0.850   2.433   2.259 -0.6752 -0.2379 -0.1898
    1SOL     OW 5085   0.856   2.716   2.344  0.3114  0.2921  0.1417
    1SOL    HW2 5086   0.847   2.713   2.439 -0.2941  1.7928  0.1558
    1SOL    HW3 5087   0.853   2.625   2.316 -0.5088 -0.0991  1.4767
    1SOL    MW4 5088   0.854   2.704   2.353  0.1233  0.4382  0.3197
    1SOL     OW 5089   1.086   2.831   2.232  0.0315 -0.4205  0.6753
    1SOL    HW2 5090   1.165   2.799   2.274 -0.4185 -0.0397  1.8399
    1SOL    HW3 5091   1.015   2.781   2.272 -0.4163  0.0325  0.4558
    1SOL    MW4 5092   1.087   2.820   2.243 -0.0869 -0.3109  0.8001
    1SOL     OW 5093   1.114   3.089   2.326  0.0419  0.1858  0.1035
    1SOL    HW2 5094   1.040   3.131   2.284 -0.0226 -0.1694 -0.1364
    1SOL    HW3 5095   1.109   2.998   2.298  1.3459  0.4357 -0.9961
    1SOL    MW4 5096   1.104   3.083   2.317  0.2054  0.1717 -0.0732
    1SOL     OW 5097   0.901   3.214   2.232 -0.2440  0.1792 -0.4066
    1SOL    HW2 5098   0.885   3.300   2.271 -0.6487  0.3261 -0.8901
    1SOL    HW3 5099   0.828   3.160   2.263 -0.0892  0.0600 -0.2511
    1SOL    MW4 5100   0.889   3.218   2.242 -0.2769  0.1829 -0.4499
    1SOL     OW 5101   0.908   3.470   2.360  0.4600 -0.0630 -0.0560
    1SOL    HW2 5102   0.898   3.481   2.454  0.7275  0.8780 -0.1304
    1SOL    HW3 5103   0.834   3.518   2.322 -0.2824 -1.3872 -0.2886
    1SOL    MW4 5104   0.897   3.478   2.367  0.3974 -0.1135 -0.0966
    1SOL     OW 5105   1.116   3.588   2.222  0.3670  0.1622 -0.2576
    1SOL    HW2 5106   1.189   3.544   2.265 -0.2614 -2.5624 -1.9132
    1SOL    HW3 5107   1.038   3.552   2.264 -0.1263  0.6375 -0.7576
    1SOL    MW4 5108   1.115   3.578   2.233  0.2189 -0.1347 -0.5417
    1SOL     OW 5109   1.153   3.848   2.309 -0.0703  0.6306 -0.4401
    1SOL    HW2 5110   1.245   3.872   2.300  0.1916 -0.1450  0.0433
    1SOL    HW3 5111   1.149   3.756   2.283 -0.5952  0.4813  0.1357
    1SOL    MW4 5112   1.164   3.839   2.304 -0.1050  0.5085 -0.3002
    1SOL     OW 5113   0.934   4.020   2.236 -0.0438  0.2580  0.1678
    1SOL    HW2 5114   1.008   3.961   2.253  1.0944  1.1067 -1.6725
    1SOL    HW3 5115   0.857   3.968   2.258  1.0537 -0.9823  1.1800
    1SOL    MW4 5116   0.934   4.005   2.241  0.2511  0.2065  0.0587
    1SOL     OW 5117   0.934   4.263   2.359  0.1104 -0.0795  0.0301
    1SOL    HW2 5118   0.927   4.172   2.332 -1.5697  0.4574 -1.5005
    1SOL    HW3 5119   0.854   4.304   2.324  0.3683  1.7597  1.5109
    1SOL    MW4 5120   0.922   4.257   2.351 -0.0772  0.2346  0.0231
    1SOL     OW 5121   1.125   4.369   2.201  0.3575 -0.2403  0.4852
    1SOL    HW2 5122   1.046   4.331   2.241 -0.2671 -0.1602 -0.6310
    1SOL    HW3 5123   1.135   4.454   2.243 -1.4453  0.7022 -0.9290
    1SOL    MW4 5124   1.116   4.375   2.212  0.0373 -0.1059  0.1514
    1SOL     OW 5125   1.573   4.623   2.361 -0.1558  0.4056 -0.0952
    1SOL    HW2 5126   1.652   4.677   2.357  0.1618 -0.0818 -0.3790
    1SOL    HW3 5127   1.509   4.670   2.308  0.3103  0.1925 -0.8494
    1SOL    MW4 5128   1.575   4.636   2.353 -0.0525  0.3133 -0.2320
    1SOL     OW 5129   1.381   0.100   2.259 -0.0962  0.1130  0.2615
    1SOL    HW2 5130   1.372   0.189   2.293 -0.0199  0.5269 -0.7813
    1SOL    HW3 5131   1.305   0.053   2.294 -0.3114  0.6806  0.5543
    1SOL    MW4 5132   1.370   0.106   2.268 -0.1144  0.2425  0.1626
    1SOL     OW 5133   1.324   0.347   2.383 -0.0082  0.2081  0.3508
    1SOL    HW2 5134   1.307   0.368   2.475 -0.3366  1.8167 -0.0608
    1SOL    HW3 5135   1.402   0.399   2.361  0.7719 -1.0659  0.0322
    1SOL    MW4 5136   1.332   0.356   2.392  0.0514  0.2522  0.2544
    1SOL     OW 5137   1.550   0.475   2.315 -0.2288  0.4253 -0.2515
    1SOL    HW2 5138   1.642   0.457   2.336 -0.3057  0.1287 -0.1729
    1SOL    HW3 5139   1.548   0.485   2.220  0.1533  1.9374 -0.1163
    1SOL    MW4 5140   1.562   0.474   2.306 -0.1886  0.5857 -0.2232
    1SOL     OW 5141   1.542   0.744   2.368  0.2494  0.1858 -0.6256
    1SOL    HW2 5142   1.624   0.789   2.349  1.4579 -0.7309  2.1932
    1SOL    HW3 5143   1.558   0.653   2.342  1.4658 -0.7949  3.3129
    1SOL    MW4 5144   1.555   0.738   2.362  0.5692 -0.0646  0.2661
    1SOL     OW 5145   1.382   0.899   2.212 -0.0148  0.2423  0.1700
    1SOL    HW2 5146   1.447   0.844   2.254 -0.3134 -0.2858 -0.0618
    1SOL    HW3 5147   1.298   0.870   2.249 -0.1434  0.7613  0.2933
    1SOL    MW4 5148   1.380   0.888   2.223 -0.0712  0.2410  0.1557
    1SOL     OW 5149   1.335   1.147   2.312 -0.4486 -0.1201  0.4277
    1SOL    HW2 5150   1.329   1.122   2.404 -0.2865 -0.0483  0.4579
    1SOL    HW3 5151   1.374   1.071   2.269 -1.2913 -0.4787  0.2765
    1SOL    MW4 5152   1.339   1.134   2.318 -0.5385 -0.1581  0.4117
    1SOL     OW 5153   1.577   1.266   2.245  0.1129 -0.6574 -0.0151
    1SOL    HW2 5154   1.490   1.237   2.271 -0.6132  0.0234 -1.5878
    1SOL    HW3 5155   1.572   1.273   2.149  1.0754  1.9960  0.0945
    1SOL    MW4 5156   1.565   1.263   2.236  0.1442 -0.2176 -0.2081
    1SOL     OW 5157   1.535   1.539   2.329 -0.2342  0.6385 -0.1681
    1SOL    HW2 5158   1.610   1.581   2.288  0.2011  0.5026  0.4822
    1SOL    HW3 5159   1.543   1.446   2.306  0.0551  0.5491  0.2909
    1SOL    MW4 5160   1.546   1.532   2.321 -0.1386  0.6088 -0.0217
    1SOL     OW 5161   1.307   1.702   2.240  0.0205 -0.2301  0.0460
    1SOL    HW2 5162   1.385   1.678   2.290 -0.9552 -0.6647  1.3756
    1SOL    HW3 5163   1.240   1.641   2.270 -0.5184 -0.6995 -2.0150
    1SOL    MW4 5164   1.309   1.691   2.251 -0.1793 -0.3493 -0.0503
    1SOL     OW 5165   1.327   1.962   2.360 -0.0330  0.0443 -0.0494
    1SOL    HW2 5166   1.410   2.003   2.336 -0.3429  0.0491 -1.1356
    1SOL    HW3 5167   1.326   1.879   2.312 -0.2971 -0.3251  0.5878
    1SOL    MW4 5168   1.337   1.956   2.350 -0.1087 -0.0039 -0.1087
    1SOL     OW 5169   1.562   2.073   2.233 -0.9440 -0.0755  0.4374
    1SOL    HW2 5170   1.623   2.006   2.264 -1.4024 -0.1360  1.2320
    1SOL    HW3 5171   1.553   2.057   2.139  0.9511  0.4817  0.1429
    1SOL    MW4 5172   1.569   2.062   2.225 -0.7546 -0.0103  0.5035
    1SOL     OW 5173   1.526   2.337   2.322 -0.6502 -0.0034  0.0746
    1SOL    HW2 5174   1.524   2.329   2.418  1.8028  1.2054  0.2733
    1SOL    HW3 5175   1.550   2.249   2.292 -0.6280 -0.1937  0.6315
    1SOL    MW4 5176   1.529   2.324   2.331 -0.3235  0.1309  0.1743
    1SOL     OW 5177   1.272   2.463   2.223 -1.0811  0.0733 -0.3587
    1SOL    HW2 5178   1.357   2.439   2.261 -1.1811  1.9892  1.1559
    1SOL    HW3 5179   1.289   2.467   2.129  0.3921 -0.0248 -0.1169
    1SOL    MW4 5180   1.286   2.460   2.216 -0.8998  0.3130 -0.1268
    1SOL     OW 5181   1.308   2.716   2.344 -0.1685  0.2195 -0.3545
    1SOL    HW2 5182   1.391   2.737   2.301  1.1946 -0.9258  1.6360
    1SOL    HW3 5183   1.288   2.626   2.316  1.1116 -0.8182  1.8785
    1SOL    MW4 5184   1.316   2.707   2.335  0.1801 -0.0682  0.2024
    1SOL     OW 5185   1.520   2.795   2.183  0.1461 -0.1756  0.1006
    1SOL    HW2 5186   1.546   2.884   2.206 -1.1463  0.3561 -0.4355
    1SOL    HW3 5187   1.511   2.796   2.087 -3.8856  0.2736  0.4194
    1SOL    MW4 5188   1.522   2.807   2.173 -0.5563 -0.0465  0.0718
    1SOL     OW 5189   1.596   3.035   2.267  0.0972 -0.2087 -0.1338
    1SOL    HW2 5190   1.613   3.073   2.353 -1.1992 -0.6744  0.3418
    1SOL    HW3 5191   1.517   3.080   2.237  1.0994  0.6565 -1.5192
    1SOL    MW4 5192   1.588   3.046   2.275  0.0584 -0.1559 -0.2537
    1SOL     OW 5193   1.341   3.196   2.238  0.0770  0.1266 -0.2259
    1SOL    HW2 5194   1.261   3.159   2.276 -0.1127  1.9987  1.2676
    1SOL    HW3 5195   1.315   3.225   2.150 -0.8343  0.5167  0.1684
    1SOL    MW4 5196   1.327   3.195   2.231 -0.0682  0.4251  0.0231
    1SOL     OW 5197   1.353   3.466   2.332 -0.3856  0.0746  0.0758
    1SOL    HW2 5198   1.343   3.475   2.427 -1.7209  0.3591 -0.0820
    1SOL    HW3 5199   1.357   3.371   2.318 -0.2819  0.0281  0.4049
    1SOL    MW4 5200   1.352   3.455   2.343 -0.5481  0.1061  0.0985
    1SOL     OW 5201   1.579   3.567   2.207  0.6829 -0.3022  0.1571
    1SOL    HW2 5202   1.577   3.657   2.237  0.3401  0.1448 -1.1611
    1SOL    HW3 5203   1.501   3.526   2.246  0.2460  0.2581 -0.1284
    1SOL    MW4 5204   1.569   3.573   2.216  0.5800 -0.1693 -0.0544
    1SOL     OW 5205   1.587   3.822   2.330  0.6285 -0.2278 -0.2788
    1SOL    HW2 5206   1.571   3.840   2.423  2.3721 -0.6524  0.1244
    1SOL    HW3 5207   1.663   3.876   2.308 -0.5520  0.8649 -1.8237
    1SOL    MW4 5208   1.595   3.831   2.339  0.7030 -0.1395 -0.4296
    1SOL     OW 5209   1.388   3.980   2.238 -0.0819 -0.3045  0.0844
    1SOL    HW2 5210   1.454   3.922   2.274  0.7630 -0.1502 -1.1828
    1SOL    HW3 5211   1.410   3.988   2.145 -1.0200  0.8911 -0.0608
    1SOL    MW4 5212   1.400   3.974   2.230 -0.0943 -0.1266 -0.1016
    1SOL     OW 5213   1.331   4.240   2.323 -0.7670  0.6181 -0.2980
    1SOL    HW2 5214   1.352   4.151   2.295 -1.0740  0.5273 -0.2421
    1SOL    HW3 5215   1.250   4.261   2.278 -1.9612 -0.0100  1.4946
    1SOL    MW4 5216   1.323   4.231   2.314 -0.9650  0.5236 -0.0541
    1SOL     OW 5217   1.547   4.395   2.214 -0.0797 -0.8227  0.0016
    1SOL    HW2 5218   1.476   4.342   2.250 -0.8677  0.4121  0.2957
    1SOL    HW3 5219   1.555   4.468   2.275  0.0641  0.1375 -1.1649
    1SOL    MW4 5220   1.539   4.397   2.227 -0.1647 -0.5326 -0.1137
    1SOL     OW 5221   2.035   0.012   2.325 -0.3708  0.2808  0.7276
    1SOL    HW2 5222   2.096   0.072   2.282 -0.0591 -0.3156  0.3321
    1SOL    HW3 5223   2.040  -0.069   2.274 -1.9839  0.4360  0.2950
    1SOL    MW4 5224   2.044   0.009   2.313 -0.5422  0.2227  0.6185
    1SOL     OW 5225   1.789   0.120   2.286  0.1802 -0.0182  0.4354
    1SOL    HW2 5226   1.793   0.210   2.315 -0.6925 -0.1880  1.1156
    1SOL    HW3 5227   1.875   0.084   2.305  0.2484  0.4274  0.9691
    1SOL    MW4 5228   1.801   0.127   2.292  0.0741  0.0182  0.5958
    1SOL     OW 5229   1.805   0.394   2.340 -0.1852  0.2672  0.2079
    1SOL    HW2 5230   1.816   0.413   2.433 -2.5118  0.0238  0.5652
    1SOL    HW3 5231   1.877   0.441   2.297  0.0942  1.5157  2.0012
    1SOL    MW4 5232   1.816   0.403   2.346 -0.4553  0.3998  0.4919
    1SOL     OW 5233   2.033   0.514   2.228 -0.3006  0.2062 -0.7333
    1SOL    HW2 5234   2.025   0.598   2.274  0.3111  0.2396 -0.6813
    1SOL    HW3 5235   2.027   0.538   2.135  0.1496  0.3446 -0.7291
    1SOL    MW4 5236   2.031   0.528   2.222 -0.1607  0.2289 -0.7260
    1SOL     OW 5237   2.027   0.767   2.345 -0.1572 -0.0645 -0.4251
    1SOL    HW2 5238   2.093   0.821   2.301 -0.6342  0.2532 -0.7570
    1SOL    HW3 5239   2.045   0.780   2.438  0.0050  0.3363 -0.5094
    1SOL    MW4 5240   2.038   0.776   2.352 -0.1988  0.0302 -0.4802
    1SOL     OW 5241   1.782   0.849   2.248 -0.1933  0.3682 -0.3794
    1SOL    HW2 5242   1.789   0.942   2.268  0.5724  0.5728 -1.5683
    1SOL    HW3 5243   1.864   0.811   2.280 -0.9415 -0.0958  1.0619
    1SOL    MW4 5244   1.794   0.856   2.255 -0.1909  0.3340 -0.3459
    1SOL     OW 5245   1.798   1.127   2.323 -0.8487  0.2939  0.4376
    1SOL    HW2 5246   1.868   1.180   2.285  0.1373  0.1816  2.0763
    1SOL    HW3 5247   1.717   1.167   2.290 -0.0915  2.1746  0.8332
    1SOL    MW4 5248   1.796   1.139   2.313 -0.6188  0.5273  0.7057
    1SOL     OW 5249   2.003   1.273   2.213 -0.0627 -0.1451  0.0266
    1SOL    HW2 5250   2.020   1.365   2.234 -0.4033 -0.2828  0.9266
    1SOL    HW3 5251   2.085   1.228   2.234 -0.3084 -0.2375  0.8020
    1SOL    MW4 5252   2.016   1.279   2.219 -0.1402 -0.1756  0.2477
    1SOL     OW 5253   2.030   1.551   2.291 -0.2724  0.0103  0.1005
    1SOL    HW2 5254   2.044   1.542   2.385 -1.0601 -1.3190  0.1028
    1SOL    HW3 5255   1.946   1.595   2.283 -0.3169 -0.0887  0.0159
    1SOL    MW4 5256   2.021   1.556   2.302 -0.3822 -0.1782  0.0896
    1SOL     OW 5257   1.772   1.676   2.248  0.0940 -0.0788  0.1756
    1SOL    HW2 5258   1.778   1.760   2.292 -1.9666  0.4373 -0.5222
    1SOL    HW3 5259   1.780   1.696   2.155 -2.1695 -0.4505 -0.1157
    1SOL    MW4 5260   1.774   1.690   2.241 -0.4764 -0.0597  0.0451
    1SOL     OW 5261   1.749   1.927   2.366  0.4574  0.0946 -0.2715
    1SOL    HW2 5262   1.768   1.938   2.459 -1.0957  0.4781  0.0069
    1SOL    HW3 5263   1.824   1.966   2.322  1.2018 -0.0927  0.8145
    1SOL    MW4 5264   1.761   1.934   2.372  0.3507  0.1206 -0.0913
    1SOL     OW 5265   1.980   2.050   2.262  0.3535 -0.3934  0.0350
    1SOL    HW2 5266   2.059   2.012   2.300  0.0078 -0.4395  0.7123
    1SOL    HW3 5267   2.002   2.063   2.170  1.4769  0.4467  0.4068
    1SOL    MW4 5268   1.993   2.047   2.255  0.4559 -0.2885  0.1733
    1SOL     OW 5269   1.984   2.326   2.354  0.5983 -0.1287 -0.0428
    1SOL    HW2 5270   2.069   2.350   2.317  0.7481 -0.4518  0.0877
    1SOL    HW3 5271   1.969   2.236   2.323  0.9558 -0.5869  1.0897
    1SOL    MW4 5272   1.993   2.317   2.345  0.6652 -0.2317  0.1237
    1SOL     OW 5273   1.768   2.405   2.191 -0.4365  0.0986  0.9264
    1SOL    HW2 5274   1.838   2.380   2.251 -0.8047 -1.1249  0.8711
    1SOL    HW3 5275   1.688   2.391   2.241 -0.8381 -2.4550 -0.3117
    1SOL    MW4 5276   1.767   2.400   2.205 -0.5380 -0.4001  0.7558
    1SOL     OW 5277   1.767   2.678   2.298 -0.2124 -0.0897 -0.1762
    1SOL    HW2 5278   1.780   2.595   2.252 -0.9513 -0.4594  0.2708
    1SOL    HW3 5279   1.688   2.715   2.259 -0.6007 -0.2034  0.5006
    1SOL    MW4 5280   1.758   2.672   2.287 -0.3611 -0.1535 -0.0279
    1SOL     OW 5281   2.034   2.784   2.232 -0.1856  0.1253  0.3172
    1SOL    HW2 5282   2.113   2.747   2.272 -0.7931 -1.2816  0.2451
    1SOL    HW3 5283   1.962   2.748   2.284 -0.8281  0.6134 -0.2317
    1SOL    MW4 5284   2.035   2.774   2.244 -0.3505  0.0041  0.2353
    1SOL     OW 5285   2.009   3.040   2.320 -0.5111  0.5072  0.4505
    1SOL    HW2 5286   2.088   3.087   2.291 -0.6619  0.1463 -0.5768
    1SOL    HW3 5287   2.011   2.958   2.270 -1.4186  0.3955  0.5913
    1SOL    MW4 5288   2.020   3.036   2.310 -0.6506  0.4451  0.3333
    1SOL     OW 5289   1.812   3.183   2.172  0.4213 -0.1752 -0.3009
    1SOL    HW2 5290   1.881   3.133   2.215  1.0784  0.9381 -0.0374
    1SOL    HW3 5291   1.732   3.135   2.192  1.0351 -1.1110 -0.0410
    1SOL    MW4 5292   1.811   3.170   2.180  0.5890 -0.1519 -0.2320
    1SOL     OW 5293   1.816   3.471   2.302  0.1115 -0.5854 -0.2563
    1SOL    HW2 5294   1.818   3.386   2.257 -1.8078 -1.2239  0.8131
    1SOL    HW3 5295   1.733   3.510   2.274  0.9408  0.8955 -0.6495
    1SOL    MW4 5296   1.805   3.465   2.293 -0.0323 -0.4745 -0.1669
    1SOL     OW 5297   2.049   3.616   2.284 -0.3804 -0.1992 -0.1471
    1SOL    HW2 5298   1.969   3.571   2.313 -0.8917  0.8741  0.1123
    1SOL    HW3 5299   2.038   3.626   2.189 -0.1119 -0.9202 -0.2568
    1SOL    MW4 5300   2.037   3.611   2.275 -0.4122 -0.1526 -0.1273
    1SOL     OW 5301   2.018   3.878   2.355  0.2540 -0.0868 -0.4318
    1SOL    HW2 5302   2.008   3.883   2.450 -0.3063 -0.5312 -0.4670
    1SOL    HW3 5303   2.050   3.789   2.338  0.1543 -0.0775 -0.6765
    1SOL    MW4 5304   2.021   3.867   2.365  0.1671 -0.1442 -0.4685
    1SOL     OW 5305   1.787   4.001   2.252  0.3681 -0.1699 -0.0821
    1SOL    HW2 5306   1.868   3.956   2.277  0.5100  0.3110  0.3296
    1SOL    HW3 5307   1.796   4.014   2.157 -0.3152 -2.2768 -0.4660
    1SOL    MW4 5308   1.799   3.996   2.243  0.2965 -0.3843 -0.0782
    1SOL     OW 5309   1.801   4.288   2.323  0.1804  0.3818  0.0143
    1SOL    HW2 5310   1.801   4.195   2.300 -1.5799 -0.0258  1.5025
    1SOL    HW3 5311   1.720   4.322   2.287  1.0288  1.4609 -0.9055
    1SOL    MW4 5312   1.790   4.280   2.315  0.0601  0.4706  0.0894
    1SOL     OW 5313   2.041   4.438   2.200 -0.0002 -0.1833  0.7902
    1SOL    HW2 5314   1.975   4.390   2.250 -1.2409 -1.5556 -2.0228
    1SOL    HW3 5315   2.016   4.424   2.108  2.1151  2.3091 -0.2343
    1SOL    MW4 5316   2.029   4.430   2.194  0.1152 -0.0358  0.2837
    1SOL     OW 5317   2.472   0.002   2.323  0.3310 -0.3512 -0.3032
    1SOL    HW2 5318   2.551   0.032   2.278  0.1009  0.3003 -0.2812
    1SOL    HW3 5319   2.465  -0.090   2.299  0.7833 -0.2698 -0.7714
    1SOL    MW4 5320   2.482  -0.006   2.314  0.3603 -0.2546 -0.3622
    1SOL     OW 5321   2.244   0.157   2.231  0.8819 -0.1533 -0.1254
    1SOL    HW2 5322   2.255   0.246   2.266 -0.9952 -0.1230  0.4781
    1SOL    HW3 5323   2.314   0.107   2.272  0.7025  0.6104  1.1771
    1SOL    MW4 5324   2.255   0.162   2.241  0.6106 -0.0485  0.1261
    1SOL     OW 5325   2.271   0.416   2.358  0.0677 -0.1247 -0.1185
    1SOL    HW2 5326   2.188   0.444   2.318 -0.5569 -2.3110 -0.4528
    1SOL    HW3 5327   2.337   0.472   2.318 -1.2628  1.8063  0.3101
    1SOL    MW4 5328   2.268   0.427   2.347 -0.1903 -0.1583 -0.1061
    1SOL     OW 5329   2.486   0.540   2.235  0.0014 -0.1791 -0.2841
    1SOL    HW2 5330   2.548   0.474   2.265  0.7354  0.3732 -0.5940
    1SOL    HW3 5331   2.473   0.521   2.142 -0.3272 -0.3141 -0.2131
    1SOL    MW4 5332   2.492   0.528   2.227  0.0548 -0.1240 -0.3154
    1SOL     OW 5333   2.463   0.793   2.351  0.0203  0.3678 -0.2075
    1SOL    HW2 5334   2.534   0.844   2.313 -0.5350 -0.3177 -2.2564
    1SOL    HW3 5335   2.478   0.703   2.320 -0.6987 -0.1347  0.8583
    1SOL    MW4 5336   2.474   0.788   2.342 -0.1478  0.2111 -0.3374
    1SOL     OW 5337   2.255   0.909   2.212  0.7410 -0.1592  0.0136
    1SOL    HW2 5338   2.247   0.996   2.252  0.9548 -0.0998 -0.0742
    1SOL    HW3 5339   2.331   0.870   2.255 -0.2232 -0.8676  1.1097
    1SOL    MW4 5340   2.264   0.915   2.223  0.6418 -0.2449  0.1469
    1SOL     OW 5341   2.239   1.173   2.333 -0.2992  0.7794 -0.1050
    1SOL    HW2 5342   2.312   1.224   2.299  0.0425 -0.0894 -0.6975
    1SOL    HW3 5343   2.236   1.193   2.426  0.5268  1.0261 -0.1329
    1SOL    MW4 5344   2.248   1.182   2.341 -0.1452  0.6973 -0.1867
    1SOL     OW 5345   2.453   1.320   2.250  0.4923  0.5932  0.0972
    1SOL    HW2 5346   2.528   1.271   2.282  0.3301  0.5534  0.4213
    1SOL    HW3 5347   2.477   1.412   2.263  1.1318  0.6277 -1.2703
    1SOL    MW4 5348   2.466   1.326   2.256  0.5553  0.5925 -0.0403
    1SOL     OW 5349   2.493   1.595   2.320  0.0931 -0.3998 -0.2799
    1SOL    HW2 5350   2.480   1.583   2.414 -0.6110 -1.0945 -0.4661
    1SOL    HW3 5351   2.567   1.655   2.314 -0.9346  1.0132  0.7548
    1SOL    MW4 5352   2.501   1.602   2.332 -0.1357 -0.3049 -0.1678
    1SOL     OW 5353   2.245   1.710   2.228 -0.0859 -0.0202 -0.2551
    1SOL    HW2 5354   2.323   1.657   2.243  0.4897  1.1653  1.0742
    1SOL    HW3 5355   2.173   1.657   2.263  0.7380  0.9245  2.9939
    1SOL    MW4 5356   2.246   1.696   2.234  0.0987  0.2609  0.3490
    1SOL     OW 5357   2.227   1.947   2.366  0.3344 -0.5240  0.2400
    1SOL    HW2 5358   2.305   1.992   2.333 -0.5941  1.0014  0.0640
    1SOL    HW3 5359   2.227   1.863   2.320  0.8932  0.1982 -1.1185
    1SOL    MW4 5360   2.238   1.942   2.355  0.2856 -0.2275  0.0377
    1SOL     OW 5361   2.440   2.097   2.271  0.1662 -0.1618 -0.2931
    1SOL    HW2 5362   2.521   2.058   2.302  0.9221  0.1282 -1.8475
    1SOL    HW3 5363   2.450   2.100   2.175 -0.9344  1.4925 -0.3730
    1SOL    MW4 5364   2.452   2.092   2.262  0.1209  0.0944 -0.5093
    1SOL     OW 5365   2.460   2.341   2.405  0.3125 -0.8215 -0.1376
    1SOL    HW2 5366   2.533   2.392   2.368  1.7120 -1.4678  1.6708
    1SOL    HW3 5367   2.462   2.258   2.357 -0.4913 -0.1037 -1.4500
    1SOL    MW4 5368   2.470   2.337   2.394  0.3912 -0.8121 -0.0720
    1SOL     OW 5369   2.230   2.437   2.277 -0.2269 -0.0767  0.2906
    1SOL    HW2 5370   2.241   2.530   2.296  0.7989  0.5446 -3.0307
    1SOL    HW3 5371   2.304   2.394   2.320  0.5050  0.9099  0.0248
    1SOL    MW4 5372   2.241   2.443   2.285  0.0048  0.1352 -0.1829
    1SOL     OW 5373   2.265   2.685   2.366  0.5572  0.2741 -0.0773
    1SOL    HW2 5374   2.242   2.699   2.458  0.3413  1.9194 -0.3622
    1SOL    HW3 5375   2.354   2.720   2.357  0.3246  0.7392 -0.6358
    1SOL    MW4 5376   2.274   2.691   2.377  0.4981  0.5527 -0.1886
    1SOL     OW 5377   2.520   2.809   2.303 -0.1708  0.0429  0.2775
    1SOL    HW2 5378   2.600   2.762   2.329 -0.5720 -1.4881 -1.1862
    1SOL    HW3 5379   2.527   2.816   2.208 -1.6548  0.1627  0.1772
    1SOL    MW4 5380   2.532   2.803   2.294 -0.4196 -0.1435  0.0713
    1SOL     OW 5381   2.487   3.077   2.329 -0.2458 -0.2330 -0.2796
    1SOL    HW2 5382   2.566   3.115   2.291 -0.7511 -0.5490 -1.6892
    1SOL    HW3 5383   2.504   2.983   2.330 -0.3549 -0.2522  0.0331
    1SOL    MW4 5384   2.500   3.070   2.324 -0.3269 -0.2773 -0.4241
    1SOL     OW 5385   2.248   3.184   2.249 -0.3864 -0.2454 -0.5667
    1SOL    HW2 5386   2.271   3.273   2.275 -0.4837  0.0373 -1.4451
    1SOL    HW3 5387   2.325   3.132   2.271 -1.5348 -0.5748  3.0983
    1SOL    MW4 5388   2.261   3.189   2.255 -0.5507 -0.2513 -0.1991
    1SOL     OW 5389   2.272   3.442   2.334 -0.4625 -0.3839  0.4922
    1SOL    HW2 5390   2.263   3.463   2.427  1.0660 -1.4056  0.8964
    1SOL    HW3 5391   2.201   3.489   2.291 -0.8547  0.5301  2.1176
    1SOL    MW4 5392   2.262   3.451   2.341 -0.3128 -0.3982  0.7603
    1SOL     OW 5393   2.505   3.585   2.253 -0.0740  0.2498  0.0967
    1SOL    HW2 5394   2.488   3.675   2.281  0.3563  0.6637 -0.9321
    1SOL    HW3 5395   2.426   3.537   2.277  0.0047  0.7225  1.3841
    1SOL    MW4 5396   2.493   3.591   2.260 -0.0069  0.3667  0.1309
    1SOL     OW 5397   2.457   3.867   2.317  0.2668 -0.0168 -0.0518
    1SOL    HW2 5398   2.464   3.875   2.412  0.7851 -0.0714 -0.0861
    1SOL    HW3 5399   2.374   3.909   2.296  1.4438  2.5068  0.1258
    1SOL    MW4 5400   2.447   3.873   2.327  0.4907  0.3088 -0.0329
    1SOL     OW 5401   2.245   4.008   2.199 -0.4974  0.3323 -0.6632
    1SOL    HW2 5402   2.230   4.094   2.237 -0.7869  0.2672 -0.6281
    1SOL    HW3 5403   2.162   3.961   2.212  0.0232 -0.3257  0.3180
    1SOL    MW4 5404   2.232   4.013   2.206 -0.4668  0.2365 -0.5291
    1SOL     OW 5405   2.218   4.256   2.299  0.6399 -0.0347  0.1897
    1SOL    HW2 5406   2.206   4.276   2.392  1.2277 -0.1891  0.2995
    1SOL    HW3 5407   2.148   4.304   2.255 -1.1331 -1.9035  0.9291
    1SOL    MW4 5408   2.207   4.265   2.305  0.4833 -0.3009  0.3021
    1SOL     OW 5409   2.470   4.405   2.257 -0.3303  0.0723 -0.1079
    1SOL    HW2 5410   2.532   4.344   2.299  0.3070 -0.8594 -2.3457
    1SOL    HW3 5411   2.384   4.364   2.270 -0.1578 -0.1398  0.3956
    1SOL    MW4 5412   2.467   4.391   2.264 -0.2232 -0.0782 -0.3369
    1SOL     OW 5413   2.931   4.641   2.369 -0.6478 -0.0120  0.2154
    1SOL    HW2 5414   3.013   4.671   2.332 -1.4691  1.8516 -0.1314
    1SOL    HW3 5415   2.915   4.556   2.327  1.8040 -1.0911  1.3796
    1SOL    MW4 5416   2.940   4.633   2.359 -0.4330  0.0916  0.3231
    1SOL     OW 5417   2.715   0.085   2.231 -0.2494  0.2338 -0.4378
    1SOL    HW2 5418   2.708   0.171   2.271 -0.2893  0.5027 -1.0251
    1SOL    HW3 5419   2.787   0.042   2.277  0.0473  0.7374 -0.4371
    1SOL    MW4 5420   2.724   0.091   2.242 -0.2153  0.3357 -0.5152
    1SOL     OW 5421   2.683   0.357   2.332  0.9124  0.0676 -0.0720
    1SOL    HW2 5422   2.692   0.358   2.427 -0.5004  1.7425  0.0785
    1SOL    HW3 5423   2.749   0.418   2.301  1.1208 -0.1967 -0.1560
    1SOL    MW4 5424   2.692   0.365   2.340  0.7532  0.2537 -0.0632
    1SOL     OW 5425   2.883   0.497   2.236 -0.3106 -0.2272  0.3248
    1SOL    HW2 5426   2.874   0.585   2.271 -1.8767 -0.0443 -0.5071
    1SOL    HW3 5427   2.898   0.510   2.142 -0.3955 -0.8392  0.2256
    1SOL    MW4 5428   2.884   0.510   2.228 -0.5286 -0.2838  0.2022
    1SOL     OW 5429   2.888   0.744   2.367  0.3623  0.1672 -0.2905
    1SOL    HW2 5430   2.889   0.763   2.460 -1.0567 -0.3898 -0.1507
    1SOL    HW3 5431   2.824   0.805   2.330  0.2896 -0.1923 -0.7639
    1SOL    MW4 5432   2.879   0.754   2.374  0.1657  0.0463 -0.3345
    1SOL     OW 5433   2.699   0.914   2.253  0.4700  0.2361 -0.2138
    1SOL    HW2 5434   2.698   1.005   2.283  0.7767  0.0703  0.3015
    1SOL    HW3 5435   2.699   0.920   2.158  0.7942  0.7820 -0.1816
    1SOL    MW4 5436   2.699   0.927   2.245  0.5531  0.2863 -0.1414
    1SOL     OW 5437   2.680   1.180   2.344  0.4705  0.3831 -0.0726
    1SOL    HW2 5438   2.684   1.174   2.439  0.2812  1.1864 -0.0131
    1SOL    HW3 5439   2.758   1.229   2.319 -0.0417  1.1227 -0.2397
    1SOL    MW4 5440   2.690   1.185   2.353  0.3779  0.5866 -0.0865
    1SOL     OW 5441   2.896   1.326   2.246 -0.2401 -0.4971  0.3696
    1SOL    HW2 5442   2.971   1.277   2.279 -0.1418 -0.7205 -0.2013
    1SOL    HW3 5443   2.902   1.320   2.151 -0.6194  0.0268  0.3082
    1SOL    MW4 5444   2.907   1.319   2.238 -0.2773 -0.4575  0.2861
    1SOL     OW 5445   2.928   1.599   2.325  0.3904 -0.2535 -0.1688
    1SOL    HW2 5446   2.933   1.606   2.420  0.3912  1.2567 -0.2603
    1SOL    HW3 5447   2.912   1.506   2.308  0.1285 -0.4889  1.3100
    1SOL    MW4 5448   2.926   1.588   2.335  0.3557 -0.0852  0.0143
    1SOL     OW 5449   2.721   1.750   2.249  0.1482  0.1645 -0.1147
    1SOL    HW2 5450   2.792   1.689   2.268 -0.6215 -0.8564 -0.4316
    1SOL    HW3 5451   2.688   1.722   2.163 -1.2373  0.0119  0.4422
    1SOL    MW4 5452   2.726   1.738   2.240 -0.1361  0.0097 -0.0832
    1SOL     OW 5453   2.694   2.005   2.346  0.3220 -0.5464 -0.1033
    1SOL    HW2 5454   2.675   2.000   2.439 -0.8635 -1.5237 -0.3891
    1SOL    HW3 5455   2.707   1.914   2.319 -0.5623 -0.3844 -1.1260
    1SOL    MW4 5456   2.693   1.992   2.354  0.0489 -0.6541 -0.2759
    1SOL     OW 5457   2.953   2.048   2.278 -0.1648 -0.6416  0.0956
    1SOL    HW2 5458   3.022   1.989   2.309 -1.7793 -2.7874 -0.2220
    1SOL    HW3 5459   2.874   2.019   2.324 -1.3951 -0.0663 -1.5802
    1SOL    MW4 5460   2.952   2.036   2.288 -0.5400 -0.8488 -0.1674
    1SOL     OW 5461   2.927   2.326   2.355  0.2932  0.1982 -0.5844
    1SOL    HW2 5462   2.939   2.338   2.449 -1.9017  1.4515 -0.4132
    1SOL    HW3 5463   2.922   2.231   2.343  0.5719  0.0336  0.5661
    1SOL    MW4 5464   2.928   2.315   2.366  0.0403  0.3419 -0.4098
    1SOL     OW 5465   2.691   2.458   2.287 -0.0897 -0.1723  0.3480
    1SOL    HW2 5466   2.757   2.391   2.305  2.0320  1.8619  0.3106
    1SOL    HW3 5467   2.678   2.455   2.192  3.3163  2.4004 -0.2930
    1SOL    MW4 5468   2.698   2.449   2.277  0.6397  0.4356  0.2582
    1SOL     OW 5469   2.753   2.686   2.386  0.3204 -0.1879  0.3072
    1SOL    HW2 5470   2.826   2.721   2.334 -0.4874  0.9641 -0.0609
    1SOL    HW3 5471   2.731   2.603   2.343  1.2216 -0.4085  0.2510
    1SOL    MW4 5472   2.760   2.679   2.373  0.3326 -0.0651  0.2511
    1SOL     OW 5473   2.954   2.796   2.227  0.0073 -0.2440 -0.0464
    1SOL    HW2 5474   2.938   2.885   2.258 -2.0185 -0.9766  1.1308
    1SOL    HW3 5475   2.922   2.797   2.137  1.0141  0.5135 -0.3990
    1SOL    MW4 5476   2.947   2.808   2.219 -0.1271 -0.2406  0.0625
    1SOL     OW 5477   2.931   3.050   2.339  0.1281 -0.1814 -0.2002
    1SOL    HW2 5478   2.921   3.081   2.429  0.8767  0.1112 -0.2152
    1SOL    HW3 5479   2.855   3.087   2.292 -0.4863 -0.6812  0.4007
    1SOL    MW4 5480   2.920   3.059   2.344  0.1459 -0.2086 -0.1225
    1SOL     OW 5481   2.720   3.182   2.228 -0.1081 -0.7173 -0.1505
    1SOL    HW2 5482   2.729   3.264   2.275 -0.9260 -0.6672 -0.0719
    1SOL    HW3 5483   2.719   3.207   2.136  0.6970 -0.7407 -0.1682
    1SOL    MW4 5484   2.721   3.196   2.222 -0.1099 -0.7136 -0.1426
    1SOL     OW 5485   2.706   3.441   2.336  0.1019 -0.0341  0.1870
    1SOL    HW2 5486   2.782   3.488   2.301 -0.1387 -0.5140 -1.0288
    1SOL    HW3 5487   2.631   3.496   2.311 -0.0736 -0.4005 -0.1038
    1SOL    MW4 5488   2.706   3.454   2.328  0.0470 -0.1457 -0.0119
    1SOL     OW 5489   2.915   3.600   2.251  0.3171 -0.1241 -0.5097
    1SOL    HW2 5490   2.991   3.564   2.297  2.6778  1.2979 -3.1705
    1SOL    HW3 5491   2.924   3.695   2.260 -1.1608  0.0710 -0.9122
    1SOL    MW4 5492   2.926   3.608   2.258  0.4334  0.0894 -0.9136
    1SOL     OW 5493   2.952   3.876   2.304 -0.0437  0.3809 -0.2156
    1SOL    HW2 5494   2.964   3.877   2.399 -1.7340 -1.5730  0.0520
    1SOL    HW3 5495   2.878   3.935   2.288 -1.3214 -1.1197 -0.0292
    1SOL    MW4 5496   2.944   3.884   2.314 -0.4351 -0.0751 -0.1559
    1SOL     OW 5497   2.709   4.008   2.258  0.1748  0.1709 -0.6263
    1SOL    HW2 5498   2.642   3.939   2.258  0.1626  0.1457  0.9511
    1SOL    HW3 5499   2.722   4.030   2.166 -2.1964  0.3766 -0.9339
    1SOL    MW4 5500   2.702   4.002   2.246 -0.1400  0.1950 -0.4590
    1SOL     OW 5501   2.676   4.259   2.346 -0.0513  0.0510 -0.2976
    1SOL    HW2 5502   2.694   4.252   2.440  2.2374 -0.6668 -0.7664
    1SOL    HW3 5503   2.689   4.171   2.312 -0.7408  0.3366 -1.3122
    1SOL    MW4 5504   2.680   4.247   2.354  0.1597 -0.0062 -0.4933
    1SOL     OW 5505   2.885   4.406   2.251 -0.7344 -0.0718 -0.1216
    1SOL    HW2 5506   2.961   4.358   2.285  0.3995  1.6948 -0.0947
    1SOL    HW3 5507   2.810   4.351   2.274  0.4781 -1.5671  0.3788
    1SOL    MW4 5508   2.885   4.392   2.259 -0.4246 -0.0362 -0.0517
    1SOL     OW 5509   3.365   4.663   2.313  0.4923  0.3816  0.4992
    1SOL    HW2 5510   3.359   4.671   2.409 -1.3780  0.1818  0.4251
    1SOL    HW3 5511   3.453   4.692   2.292  0.7065  1.0595  2.2279
    1SOL    MW4 5512   3.376   4.668   2.323  0.2739  0.4449  0.7174
    1SOL     OW 5513   3.129   0.117   2.233  0.1148 -0.4305 -0.2919
    1SOL    HW2 5514   3.138   0.202   2.276  1.0552  0.5608 -2.3595
    1SOL    HW3 5515   3.216   0.077   2.239  0.2317 -0.3238 -1.1417
    1SOL    MW4 5516   3.141   0.123   2.240  0.2546 -0.2857 -0.6769
    1SOL     OW 5517   3.114   0.367   2.343  0.0410 -0.0377 -0.0613
    1SOL    HW2 5518   3.183   0.429   2.321  0.4012 -0.6850 -0.7463
    1SOL    HW3 5519   3.033   0.412   2.316  0.2292  0.4643  0.1906
    1SOL    MW4 5520   3.112   0.381   2.337  0.1135 -0.0568 -0.1183
    1SOL     OW 5521   3.350   0.542   2.280  0.1117 -0.2257 -0.1330
    1SOL    HW2 5522   3.419   0.483   2.312 -0.3454 -0.8305 -0.2591
    1SOL    HW3 5523   3.367   0.551   2.186  1.3126  1.3624  0.2053
    1SOL    MW4 5524   3.361   0.536   2.272  0.2096 -0.0960 -0.1049
    1SOL     OW 5525   3.352   0.803   2.348 -0.3297 -0.7725  0.5689
    1SOL    HW2 5526   3.434   0.838   2.314 -0.7670 -1.2101 -0.9527
    1SOL    HW3 5527   3.351   0.712   2.318 -1.2722 -0.8347  0.7844
    1SOL    MW4 5528   3.363   0.796   2.340 -0.5116 -0.8384  0.3965
    1SOL     OW 5529   3.106   0.879   2.235 -0.5091 -0.2156  0.1216
    1SOL    HW2 5530   3.195   0.857   2.260 -0.9606 -1.3730  0.7831
    1SOL    HW3 5531   3.051   0.827   2.294 -1.6163 -0.7545 -1.3602
    1SOL    MW4 5532   3.110   0.870   2.246 -0.7148 -0.4395  0.0134
    1SOL     OW 5533   3.117   1.156   2.283 -0.2970  0.4292 -0.0617
    1SOL    HW2 5534   3.209   1.174   2.263  0.1100 -0.1205  1.2888
    1SOL    HW3 5535   3.103   1.066   2.254 -0.1656  0.2089  0.5547
    1SOL    MW4 5536   3.127   1.146   2.277 -0.2260  0.3276  0.1979
    1SOL     OW 5537   3.363   1.251   2.218 -0.5252  0.0620 -0.0804
    1SOL    HW2 5538   3.444   1.213   2.253 -1.0829 -0.5140  0.5859
    1SOL    HW3 5539   3.357   1.337   2.261 -0.1974  0.1655 -0.2362
    1SOL    MW4 5540   3.373   1.257   2.229 -0.5558 -0.0002 -0.0129
    1SOL     OW 5541   3.384   1.492   2.349  0.0592  0.0929  0.1872
    1SOL    HW2 5542   3.372   1.495   2.444 -0.7190 -0.4217  0.1116
    1SOL    HW3 5543   3.317   1.550   2.315  1.0193  1.1049 -0.0031
    1SOL    MW4 5544   3.374   1.500   2.357  0.0832  0.1585  0.1521
    1SOL     OW 5545   3.201   1.646   2.212 -0.5908  0.2216  0.3429
    1SOL    HW2 5546   3.191   1.733   2.252  0.7230  0.2971  0.5265
    1SOL    HW3 5547   3.125   1.597   2.242  0.0860  0.4595  2.4846
    1SOL    MW4 5548   3.189   1.651   2.221 -0.3281  0.2630  0.6497
    1SOL     OW 5549   3.164   1.901   2.367 -0.2200  0.3376 -0.1549
    1SOL    HW2 5550   3.163   1.922   2.461 -0.9803 -1.5342  0.2811
    1SOL    HW3 5551   3.244   1.941   2.334 -0.3003  1.6121  1.1567
    1SOL    MW4 5552   3.174   1.909   2.375 -0.3309  0.2588  0.0758
    1SOL     OW 5553   3.371   2.038   2.262 -0.6059  0.0250 -0.4375
    1SOL    HW2 5554   3.447   1.987   2.287 -2.3717 -1.8217  1.3618
    1SOL    HW3 5555   3.369   2.033   2.166  1.2344 -0.3059 -0.4698
    1SOL    MW4 5556   3.380   2.031   2.253 -0.5960 -0.2625 -0.2043
    1SOL     OW 5557   3.401   2.303   2.342  0.4702  0.2391  0.1293
    1SOL    HW2 5558   3.315   2.319   2.304  0.5802  0.0590 -0.2036
    1SOL    HW3 5559   3.414   2.208   2.334  1.0090  0.3577 -0.5076
    1SOL    MW4 5560   3.392   2.293   2.336  0.5562  0.2308  0.0012
    1SOL     OW 5561   3.165   2.436   2.256  0.0628  0.2106 -0.4641
    1SOL    HW2 5562   3.174   2.524   2.291  0.6099 -0.3998  0.9475
    1SOL    HW3 5563   3.076   2.409   2.279  0.1407  0.1192 -0.2729
    1SOL    MW4 5564   3.154   2.444   2.263  0.1454  0.1183 -0.2525
    1SOL     OW 5565   3.196   2.719   2.341  0.1548 -0.0656 -0.4068
    1SOL    HW2 5566   3.197   2.726   2.436 -0.4486 -2.1150 -0.2185
    1SOL    HW3 5567   3.110   2.753   2.315 -0.2429 -0.8027 -0.0833
    1SOL    MW4 5568   3.185   2.724   2.350  0.0226 -0.4332 -0.3395
    1SOL     OW 5569   3.397   2.842   2.213 -0.5388  0.0205 -0.0325
    1SOL    HW2 5570   3.391   2.929   2.253 -1.4424  0.8188 -1.8430
    1SOL    HW3 5571   3.324   2.793   2.251  0.8337 -0.4145  2.0741
    1SOL    MW4 5572   3.387   2.847   2.223 -0.4768  0.0684  0.0064
    1SOL     OW 5573   3.376   3.092   2.349  0.3822 -0.0205 -0.6363
    1SOL    HW2 5574   3.459   3.128   2.317  0.5160  1.8061  1.6385
    1SOL    HW3 5575   3.310   3.151   2.312  0.3091  0.1128 -0.2995
    1SOL    MW4 5576   3.378   3.105   2.340  0.3903  0.2384 -0.2918
    1SOL     OW 5577   3.147   3.225   2.210  0.0527  0.1804 -0.1529
    1SOL    HW2 5578   3.146   3.306   2.260  0.1126 -0.0667  0.2481
    1SOL    HW3 5579   3.081   3.170   2.253 -0.0974  0.0740 -0.5167
    1SOL    MW4 5580   3.138   3.228   2.222  0.0405  0.1338 -0.1481
    1SOL     OW 5581   3.135   3.471   2.354 -0.0889 -0.2765 -0.3430
    1SOL    HW2 5582   3.144   3.479   2.449 -0.4928 -1.8242 -0.1668
    1SOL    HW3 5583   3.212   3.517   2.319  0.2296  0.0236  0.7344
    1SOL    MW4 5584   3.147   3.478   2.362 -0.0999 -0.4408 -0.1779
    1SOL     OW 5585   3.375   3.581   2.252  0.0949  0.6548 -0.0414
    1SOL    HW2 5586   3.460   3.545   2.279  0.5877  0.7516 -1.4066
    1SOL    HW3 5587   3.387   3.604   2.160 -1.6898 -0.1436 -0.4972
    1SOL    MW4 5588   3.388   3.579   2.243 -0.0756  0.5624 -0.2813
    1SOL     OW 5589   3.379   3.857   2.352  0.1874  0.4181 -0.0586
    1SOL    HW2 5590   3.450   3.900   2.303  0.0409 -0.1782 -0.8033
    1SOL    HW3 5591   3.378   3.767   2.318 -0.1255  0.0868  0.8225
    1SOL    MW4 5592   3.388   3.851   2.341  0.1268  0.2956 -0.0405
    1SOL     OW 5593   3.181   3.998   2.214 -0.2970 -0.5697 -0.1431
    1SOL    HW2 5594   3.249   3.958   2.267  0.0116 -0.0848 -0.1688
    1SOL    HW3 5595   3.101   3.950   2.236 -0.4210  0.4503  1.7196
    1SOL    MW4 5596   3.179   3.987   2.224 -0.2728 -0.3715  0.0994
    1SOL     OW 5597   3.110   4.245   2.345 -0.7185  0.4833  0.1702
    1SOL    HW2 5598   3.185   4.287   2.302  0.6652 -0.1249  1.8931
    1SOL    HW3 5599   3.113   4.155   2.315 -0.1008  0.2021  1.0366
    1SOL    MW4 5600   3.120   4.239   2.336 -0.4544  0.3657  0.5119
    1SOL     OW 5601   3.346   4.385   2.226  0.2610  0.3459 -0.1995
    1SOL    HW2 5602   3.358   4.470   2.268 -0.4028  1.0429 -1.3803
    1SOL    HW3 5603   3.330   4.406   2.134 -0.7302 -1.0061 -0.3581
    1SOL    MW4 5604   3.345   4.399   2.219  0.0427  0.2599 -0.3765
    1SOL     OW 5605   3.819   0.028   2.366  0.3654 -0.1785 -0.5259
    1SOL    HW2 5606   3.821   0.023   2.461  0.4041  0.2449 -0.5037
    1SOL    HW3 5607   3.907   0.058   2.342  0.0717  0.6109 -0.6385
    1SOL    MW4 5608   3.831   0.032   2.375  0.3319 -0.0184 -0.5379
    1SOL     OW 5609   3.601   0.125   2.226  0.1248 -0.0287 -0.1796
    1SOL    HW2 5610   3.566   0.207   2.259 -0.3042  0.1089 -0.9730
    1SOL    HW3 5611   3.671   0.102   2.288 -1.0659 -0.0958  1.1638
    1SOL    MW4 5612   3.606   0.133   2.239 -0.0887 -0.0194 -0.1070
    1SOL     OW 5613   3.558   0.382   2.349  0.0141  0.3190 -0.3085
    1SOL    HW2 5614   3.558   0.383   2.445 -0.6012  0.3577 -0.3071
    1SOL    HW3 5615   3.647   0.410   2.325 -0.5091  2.5213  0.2212
    1SOL    MW4 5616   3.570   0.386   2.358 -0.1364  0.6147 -0.2387
    1SOL     OW 5617   3.803   0.492   2.246 -0.3141  0.3460 -0.0477
    1SOL    HW2 5618   3.803   0.583   2.276  0.5464  0.8560 -1.5694
    1SOL    HW3 5619   3.781   0.496   2.153  0.0787 -0.9658 -0.2220
    1SOL    MW4 5620   3.800   0.504   2.238 -0.1490  0.2403 -0.2716
    1SOL     OW 5621   3.818   0.758   2.329  0.0242 -0.5120 -0.0397
    1SOL    HW2 5622   3.821   0.763   2.425  0.9825 -0.9018 -0.0465
    1SOL    HW3 5623   3.895   0.808   2.300 -1.1167  0.9262 -0.6592
    1SOL    MW4 5624   3.829   0.766   2.338  0.0000 -0.3737 -0.1223
    1SOL     OW 5625   3.580   0.891   2.241  0.2726  0.0080 -0.2659
    1SOL    HW2 5626   3.664   0.847   2.258 -0.5432 -1.4431  0.0935
    1SOL    HW3 5627   3.577   0.899   2.146  1.3439  1.1232 -0.2171
    1SOL    MW4 5628   3.591   0.886   2.231  0.3064 -0.0364 -0.2122
    1SOL     OW 5629   3.598   1.152   2.330  0.1465 -0.1691  0.1713
    1SOL    HW2 5630   3.611   1.158   2.424  0.2279 -0.1960  0.1615
    1SOL    HW3 5631   3.587   1.058   2.313 -0.3918 -0.1196  0.2252
    1SOL    MW4 5632   3.598   1.141   2.340  0.0861 -0.1661  0.1771
    1SOL     OW 5633   3.818   1.290   2.238 -0.0056  0.1603  0.1362
    1SOL    HW2 5634   3.799   1.382   2.259 -0.2749 -0.2062  1.5346
    1SOL    HW3 5635   3.738   1.243   2.261 -0.4346 -0.2307 -2.0587
    1SOL    MW4 5636   3.805   1.296   2.244 -0.0975  0.0603  0.0310
    1SOL     OW 5637   3.793   1.548   2.332  0.3667 -0.0860 -0.2125
    1SOL    HW2 5638   3.805   1.530   2.425 -0.3340  1.0051  0.0949
    1SOL    HW3 5639   3.703   1.580   2.325  1.0030  1.5899 -0.9893
    1SOL    MW4 5640   3.783   1.550   2.343  0.3583  0.2792 -0.2744
    1SOL     OW 5641   3.567   1.671   2.254 -0.1800  0.3609  0.2469
    1SOL    HW2 5642   3.496   1.619   2.291  0.0218 -0.5330 -0.5805
    1SOL    HW3 5643   3.554   1.665   2.159  1.1239 -0.0116  0.0736
    1SOL    MW4 5644   3.556   1.663   2.246  0.0184  0.1938  0.1149
    1SOL     OW 5645   3.591   1.916   2.358  0.1081 -0.2660 -0.2842
    1SOL    HW2 5646   3.664   1.970   2.328  0.6858 -0.3619  0.9304
    1SOL    HW3 5647   3.602   1.833   2.312  0.5040 -0.1270 -0.4449
    1SOL    MW4 5648   3.602   1.912   2.348  0.2365 -0.2602 -0.1452
    1SOL     OW 5649   3.790   2.076   2.252 -0.6114 -0.2216  0.2926
    1SOL    HW2 5650   3.873   2.037   2.278 -0.2702  0.3624  0.1034
    1SOL    HW3 5651   3.795   2.081   2.156 -0.5423  0.5268  0.3357
    1SOL    MW4 5652   3.802   2.072   2.243 -0.5569 -0.0460  0.2735
    1SOL     OW 5653   3.768   2.329   2.400 -0.0863 -0.6597  0.0002
    1SOL    HW2 5654   3.702   2.372   2.345 -0.6680 -2.4549 -0.7281
    1SOL    HW3 5655   3.786   2.246   2.356  0.2542 -1.6317  1.9132
    1SOL    MW4 5656   3.762   2.324   2.387 -0.1183 -1.0250  0.1562
    1SOL     OW 5657   3.603   2.472   2.220  0.1907  0.2894  0.3359
    1SOL    HW2 5658   3.535   2.413   2.251 -1.0502  1.7420  0.4761
    1SOL    HW3 5659   3.605   2.459   2.125  1.3286 -1.3996  0.5728
    1SOL    MW4 5660   3.594   2.463   2.212  0.1771  0.2582  0.3855
    1SOL     OW 5661   3.579   2.701   2.370 -0.2426  0.1723  0.2112
    1SOL    HW2 5662   3.584   2.623   2.315 -1.6888  0.3517 -0.1910
    1SOL    HW3 5663   3.516   2.759   2.326  1.5596  2.0133 -0.0358
    1SOL    MW4 5664   3.571   2.699   2.357 -0.1957  0.4389  0.1256
    1SOL     OW 5665   3.756   2.867   2.236  0.0924 -0.3379 -0.1609
    1SOL    HW2 5666   3.766   2.941   2.295 -0.7183  0.3713 -0.9019
    1SOL    HW3 5667   3.690   2.812   2.277  1.4513 -1.2062  0.9240
    1SOL    MW4 5668   3.749   2.870   2.249  0.1647 -0.3588 -0.1156
    1SOL     OW 5669   3.793   3.088   2.397  0.3809  0.4170 -0.3121
    1SOL    HW2 5670   3.799   3.122   2.487  0.6034  0.5459 -0.3742
    1SOL    HW3 5671   3.868   3.127   2.352  0.1744  0.4845 -0.5992
    1SOL    MW4 5672   3.804   3.098   2.403  0.3831  0.4430 -0.3583
    1SOL     OW 5673   3.606   3.223   2.255  0.0553 -0.3365 -0.0956
    1SOL    HW2 5674   3.616   3.313   2.288 -0.7426 -0.0031 -0.7401
    1SOL    HW3 5675   3.672   3.173   2.302  1.0898  0.7545 -0.3648
    1SOL    MW4 5676   3.616   3.229   2.266  0.0865 -0.1483 -0.2162
    1SOL     OW 5677   3.617   3.489   2.361 -0.5946  0.4377 -0.2761
    1SOL    HW2 5678   3.619   3.483   2.457  0.3565 -1.2831 -0.3924
    1SOL    HW3 5679   3.701   3.527   2.338 -0.4643  0.0241 -0.4833
    1SOL    MW4 5680   3.628   3.493   2.371 -0.4518  0.1562 -0.3190
    1SOL     OW 5681   3.828   3.621   2.244  0.2970  0.0778 -0.1729
    1SOL    HW2 5682   3.804   3.711   2.264 -0.0878 -0.3536  1.3540
    1SOL    HW3 5683   3.837   3.619   2.149  0.9500  1.8746 -0.1501
    1SOL    MW4 5684   3.826   3.632   2.234  0.3321  0.2582  0.0317
    1SOL     OW 5685   3.773   3.883   2.335 -0.3463 -0.2642  0.0305
    1SOL    HW2 5686   3.776   3.900   2.429 -1.2991  2.5676 -0.3965
    1SOL    HW3 5687   3.851   3.925   2.300 -1.7432  1.6869 -0.8293
    1SOL    MW4 5688   3.784   3.891   2.343 -0.6561  0.3669 -0.1395
    1SOL     OW 5689   3.567   4.028   2.213 -0.1359 -0.1184  0.2584
    1SOL    HW2 5690   3.576   4.113   2.257 -0.4822 -0.2751  0.6336
    1SOL    HW3 5691   3.641   3.977   2.243 -1.2176 -0.7628  1.8812
    1SOL    MW4 5692   3.578   4.033   2.223 -0.3245 -0.2241  0.5219
    1SOL     OW 5693   3.609   4.272   2.326 -0.0717 -0.1521  0.0022
    1SOL    HW2 5694   3.687   4.325   2.311  0.0670 -0.3620 -0.0260
    1SOL    HW3 5695   3.536   4.325   2.295  0.3340 -1.1569 -2.7668
    1SOL    MW4 5696   3.610   4.286   2.320  0.0002 -0.3128 -0.3669
    1SOL     OW 5697   3.829   4.430   2.270  0.0183  0.6087  0.2305
    1SOL    HW2 5698   3.909   4.387   2.299 -0.7831 -0.0279  1.5031
    1SOL    HW3 5699   3.839   4.521   2.297 -0.1827  0.2853  1.3933
    1SOL    MW4 5700   3.841   4.436   2.277 -0.1140  0.4816  0.5519
    1SOL     OW 5701   4.316   4.607   2.320  0.1627  0.2236  0.2708
    1SOL    HW2 5702   4.321   4.613   2.416  1.4043 -1.6409  0.3452
    1SOL    HW3 5703   4.388   4.661   2.289  0.0891  0.3934  0.3921
    1SOL    MW4 5704   4.326   4.615   2.329  0.3161  0.0005  0.2966
    1SOL     OW 5705   4.078   0.087   2.253 -0.0515 -0.0668 -0.2897
    1SOL    HW2 5706   4.081   0.181   2.271  0.9415 -0.0743 -0.3777
    1SOL    HW3 5707   4.163   0.054   2.283 -0.7244 -1.0769  0.5199
    1SOL    MW4 5708   4.090   0.095   2.259 -0.0095 -0.2010 -0.1948
    1SOL     OW 5709   4.052   0.373   2.319 -0.3067  0.1882  0.2934
    1SOL    HW2 5710   4.123   0.411   2.268  0.6896  0.4537  1.8285
    1SOL    HW3 5711   3.974   0.419   2.291  0.5608  1.8659  0.5637
    1SOL    MW4 5712   4.051   0.384   2.309 -0.0601  0.4446  0.5314
    1SOL     OW 5713   4.275   0.491   2.191 -0.1244  0.4067 -0.5462
    1SOL    HW2 5714   4.285   0.578   2.228 -1.0883 -0.0333  0.8055
    1SOL    HW3 5715   4.346   0.440   2.230 -0.4372  0.2317 -0.2015
    1SOL    MW4 5716   4.285   0.496   2.201 -0.2933  0.3256 -0.3226
    1SOL     OW 5717   4.289   0.740   2.330 -0.4276  0.1307  0.5593
    1SOL    HW2 5718   4.212   0.794   2.314  0.2778  0.6137 -1.4310
    1SOL    HW3 5719   4.362   0.791   2.294  0.7143 -0.6339  1.7668
    1SOL    MW4 5720   4.288   0.754   2.323 -0.1841  0.0936  0.4563
    1SOL     OW 5721   4.076   0.885   2.237  0.2028  0.3722 -0.6547
    1SOL    HW2 5722   4.066   0.974   2.271  1.9069  1.0522 -1.8587
    1SOL    HW3 5723   4.060   0.894   2.143 -0.9875 -0.8551 -0.5796
    1SOL    MW4 5724   4.073   0.898   2.229  0.2704  0.3000 -0.8037
    1SOL     OW 5725   4.027   1.151   2.363 -0.0192  0.2828 -0.0243
    1SOL    HW2 5726   4.013   1.152   2.458  0.2335  0.1125  0.0160
    1SOL    HW3 5727   3.958   1.207   2.328  0.5144  1.1828  0.3460
    1SOL    MW4 5728   4.016   1.158   2.371  0.0849  0.3791  0.0300
    1SOL     OW 5729   4.227   1.302   2.251 -0.3591  0.0905 -0.0805
    1SOL    HW2 5730   4.159   1.244   2.285  0.1368  0.2136  1.1125
    1SOL    HW3 5731   4.309   1.263   2.278 -0.0383  2.1882  2.1782
    1SOL    MW4 5732   4.229   1.289   2.259 -0.2513  0.3835  0.3748
    1SOL     OW 5733   4.215   1.556   2.366  0.1311  0.5065  0.0418
    1SOL    HW2 5734   4.215   1.466   2.334  0.2920  0.8890 -1.0511
    1SOL    HW3 5735   4.299   1.592   2.337  0.4320  0.7666  1.1921
    1SOL    MW4 5736   4.226   1.549   2.358  0.1917  0.5914  0.0496
    1SOL     OW 5737   4.015   1.707   2.253 -0.4591  0.3716  0.0764
    1SOL    HW2 5738   4.081   1.655   2.298 -0.4019  0.8186  0.5158
    1SOL    HW3 5739   3.932   1.666   2.277 -0.1858 -2.2827 -3.1852
    1SOL    MW4 5740   4.013   1.695   2.262 -0.4153  0.0803 -0.2961
    1SOL     OW 5741   4.005   1.962   2.372  0.0484 -0.1165  0.1920
    1SOL    HW2 5742   4.009   1.959   2.467 -1.5520  0.8575  0.3039
    1SOL    HW3 5743   4.015   1.871   2.344  3.1527 -0.1217  1.1547
    1SOL    MW4 5744   4.007   1.950   2.381  0.2465  0.0113  0.3340
    1SOL     OW 5745   4.226   2.083   2.281  0.2152  0.0256 -0.2375
    1SOL    HW2 5746   4.214   2.172   2.314  0.3343  0.1029 -0.4033
    1SOL    HW3 5747   4.150   2.035   2.314  0.0678  0.2265 -0.2813
    1SOL    MW4 5748   4.214   2.089   2.290  0.2117  0.0622 -0.2651
    1SOL     OW 5749   4.213   2.343   2.386 -0.2649 -0.6163 -0.1051
    1SOL    HW2 5750   4.142   2.389   2.341  0.3235  0.4919  0.0831
    1SOL    HW3 5751   4.292   2.373   2.342  0.2124 -0.5766  0.7736
    1SOL    MW4 5752   4.214   2.353   2.374 -0.1240 -0.4644  0.0355
    1SOL     OW 5753   4.008   2.467   2.266  0.0758 -0.2985 -0.0827
    1SOL    HW2 5754   4.004   2.560   2.290 -0.4905 -0.0581 -1.0651
    1SOL    HW3 5755   3.935   2.427   2.313 -0.1045 -0.1166 -0.2075
    1SOL    MW4 5756   3.998   2.474   2.275 -0.0224 -0.2427 -0.2284
    1SOL     OW 5757   3.989   2.722   2.344 -0.5327 -0.2030  0.4037
    1SOL    HW2 5758   3.995   2.740   2.438  1.9123 -1.1552  0.4628
    1SOL    HW3 5759   3.912   2.771   2.316 -1.0996  0.4004  2.8288
    1SOL    MW4 5760   3.980   2.731   2.353 -0.2849 -0.2491  0.7312
    1SOL     OW 5761   4.230   2.837   2.244  0.2314 -0.4054  0.3168
    1SOL    HW2 5762   4.152   2.794   2.278 -0.0251 -2.2154 -2.4464
    1SOL    HW3 5763   4.303   2.791   2.287 -0.1307  0.0996  1.5177
    1SOL    MW4 5764   4.229   2.825   2.254  0.1497 -0.5777  0.1106
    1SOL     OW 5765   4.219   3.100   2.348 -0.3896  0.3977 -0.1280
    1SOL    HW2 5766   4.239   3.013   2.313 -1.6292 -0.9256  2.3224
    1SOL    HW3 5767   4.298   3.151   2.331  0.8735 -1.5933 -0.4078
    1SOL    MW4 5768   4.232   3.096   2.341 -0.3862 -0.0398  0.1585
    1SOL     OW 5769   3.995   3.247   2.283  0.1134 -0.0727  0.4336
    1SOL    HW2 5770   4.009   3.331   2.327 -1.2462  0.3481  0.0794
    1SOL    HW3 5771   4.075   3.197   2.301  0.1267  0.5803  2.2328
    1SOL    MW4 5772   4.007   3.252   2.291 -0.0639  0.0689  0.6244
    1SOL     OW 5773   4.033   3.488   2.407 -0.4267 -0.3881 -0.1631
    1SOL    HW2 5774   4.119   3.509   2.370 -0.1156 -0.0413  0.7525
    1SOL    HW3 5775   3.973   3.549   2.365 -0.4661 -1.5649 -1.8699
    1SOL    MW4 5776   4.036   3.499   2.396 -0.3910 -0.4976 -0.2675
    1SOL     OW 5777   4.268   3.609   2.303 -0.3120 -0.4796  0.4619
    1SOL    HW2 5778   4.246   3.699   2.328 -0.4946 -0.5899  0.6940
    1SOL    HW3 5779   4.259   3.608   2.207 -0.0524 -0.1827  0.4348
    1SOL    MW4 5780   4.264   3.621   2.293 -0.3023 -0.4551  0.4890
    1SOL     OW 5781   4.204   3.874   2.334 -0.4556 -0.1690  0.0011
    1SOL    HW2 5782   4.199   3.877   2.429 -1.4043 -1.0044 -0.0199
    1SOL    HW3 5783   4.292   3.907   2.314  0.2463 -1.2650  1.2189
    1SOL    MW4 5784   4.215   3.879   2.344 -0.4883 -0.4239  0.1590
    1SOL     OW 5785   3.987   4.031   2.252 -0.6120  0.4375 -0.2963
    1SOL    HW2 5786   4.066   3.985   2.279 -0.2867  1.0590 -0.1776
    1SOL    HW3 5787   3.992   4.035   2.157 -1.0072 -0.4220 -0.3547
    1SOL    MW4 5788   3.998   4.026   2.243 -0.6213  0.4058 -0.2882
    1SOL     OW 5789   4.050   4.287   2.351  0.1092  0.2714  0.3365
    1SOL    HW2 5790   4.125   4.310   2.296 -0.4379  0.2973 -0.4017
    1SOL    HW3 5791   4.036   4.194   2.335 -1.2754  0.6979 -1.0867
    1SOL    MW4 5792   4.058   4.278   2.341 -0.1454  0.3309  0.0510
    1SOL     OW 5793   4.271   4.368   2.194  0.5674  0.0500 -0.1406
    1SOL    HW2 5794   4.283   4.451   2.239  0.7228  0.1302 -0.3304
    1SOL    HW3 5795   4.344   4.314   2.224  1.0109  0.3059 -0.7602
    1SOL    MW4 5796   4.283   4.372   2.204  0.6461  0.0944 -0.2475
    1SOL     OW 5797   0.260   0.011   2.685  0.2804 -0.8294 -0.2010
    1SOL    HW2 5798   0.240  -0.079   2.710 -0.4299 -0.2829  1.2652
    1SOL    HW3 5799   0.178   0.059   2.698  0.9662  0.2602  0.2050
    1SOL    MW4 5800   0.247   0.005   2.690  0.2772 -0.6135  0.0460
    1SOL     OW 5801   0.009   0.155   2.732 -0.5520 -0.4042 -0.2602
    1SOL    HW2 5802   0.004   0.177   2.825 -2.1989  1.5949 -0.7889
    1SOL    HW3 5803   0.003   0.239   2.687 -0.7065 -1.4284 -2.2084
    1SOL    MW4 5804   0.008   0.169   2.738 -0.7897 -0.2755 -0.5867
    1SOL     OW 5805   4.469   0.408   2.591 -0.2809 -0.0682 -0.4437
    1SOL    HW2 5806   4.545   0.463   2.608 -0.8581  0.6758 -0.2183
    1SOL    HW3 5807   4.482   0.375   2.502 -0.6127  1.5559 -1.0997
    1SOL    MW4 5808   4.481   0.411   2.582 -0.4009  0.2442 -0.5007
    1SOL     OW 5809   0.221   0.509   2.679 -0.2733 -0.0073  0.1334
    1SOL    HW2 5810   0.213   0.490   2.773  0.7869  0.5795  0.3548
    1SOL    HW3 5811   0.302   0.464   2.654 -0.9644 -0.8080 -0.6772
    1SOL    MW4 5812   0.231   0.500   2.688 -0.2246 -0.0355  0.0558
    1SOL     OW 5813   0.182   0.785   2.656 -0.1397  0.1313 -0.3259
    1SOL    HW2 5814   0.263   0.826   2.687 -0.5674  0.2182  0.6832
    1SOL    HW3 5815   0.196   0.692   2.669  0.3579  0.0275 -1.5027
    1SOL    MW4 5816   0.195   0.778   2.662 -0.1305  0.1291 -0.3481
    1SOL     OW 5817   4.427   0.934   2.768  0.1587  0.3410 -0.1604
    1SOL    HW2 5818   4.351   0.890   2.729  0.3381  1.6040 -2.0310
    1SOL    HW3 5819   4.503   0.886   2.734  0.2292 -0.4374  1.0832
    1SOL    MW4 5820   4.427   0.922   2.758  0.1917  0.4049 -0.2432
    1SOL     OW 5821   4.476   1.180   2.613  0.1104  0.0198  0.4116
    1SOL    HW2 5822   4.558   1.215   2.645 -0.0892 -0.1202  1.0847
    1SOL    HW3 5823   4.463   1.099   2.663  0.3544 -0.7941 -0.8096
    1SOL    MW4 5824   4.485   1.174   2.624  0.1163 -0.1061  0.3393
    1SOL     OW 5825   0.186   1.313   2.733  0.2460  0.2231  0.1885
    1SOL    HW2 5826   0.268   1.269   2.711 -0.7173 -0.6852 -1.6590
    1SOL    HW3 5827   0.191   1.398   2.688 -0.3428 -0.3343 -0.9489
    1SOL    MW4 5828   0.198   1.319   2.724  0.0412  0.0296 -0.2053
    1SOL     OW 5829   0.213   1.575   2.621  0.1194 -0.3668  0.2987
    1SOL    HW2 5830   0.284   1.610   2.675 -0.1067 -0.0018  0.3644
    1SOL    HW3 5831   0.133   1.602   2.666 -0.0681 -0.1224 -0.1745
    1SOL    MW4 5832   0.212   1.583   2.634  0.0648 -0.2863  0.2451
    1SOL     OW 5833   4.487   1.664   2.763 -0.0466  0.2219 -0.0086
    1SOL    HW2 5834   4.478   1.649   2.857  0.8599  2.0346  0.3834
    1SOL    HW3 5835   4.495   1.759   2.754 -0.4365  0.0903 -1.9460
    1SOL    MW4 5836   4.487   1.675   2.774  0.0215  0.4438 -0.2127
    1SOL     OW 5837   4.449   1.953   2.678 -0.0172  0.1668 -0.1504
    1SOL    HW2 5838   4.526   2.009   2.689 -0.1174  0.2421  0.1724
    1SOL    HW3 5839   4.452   1.926   2.587 -0.3205  1.2041 -0.4702
    1SOL    MW4 5840   4.460   1.957   2.668 -0.0701  0.3135 -0.1497
    1SOL     OW 5841   0.203   2.081   2.730 -0.1164 -0.0023 -0.5622
    1SOL    HW2 5842   0.284   2.037   2.703 -0.2561 -0.1989 -0.6585
    1SOL    HW3 5843   0.222   2.174   2.719  0.3817 -0.0089  0.2088
    1SOL    MW4 5844   0.217   2.087   2.725 -0.0691 -0.0288 -0.4735
    1SOL     OW 5845   0.238   2.365   2.644 -0.0122  0.4987  0.0792
    1SOL    HW2 5846   0.308   2.412   2.689 -1.2338 -0.3967  3.0487
    1SOL    HW3 5847   0.160   2.421   2.656 -0.5754 -0.2564 -0.0491
    1SOL    MW4 5848   0.237   2.379   2.652 -0.2476  0.2809  0.4542
    1SOL     OW 5849   4.471   2.475   2.719  0.4795 -0.2258  0.3079
    1SOL    HW2 5850   4.487   2.462   2.813 -1.7023  0.6505  0.8367
    1SOL    HW3 5851   4.389   2.430   2.702  0.6844 -0.0801 -1.1326
    1SOL    MW4 5852   4.462   2.468   2.729  0.2189 -0.0908  0.1876
    1SOL     OW 5853   4.488   2.733   2.642 -0.5389  0.4778 -1.0210
    1SOL    HW2 5854   4.414   2.786   2.672  0.0085  0.8429 -0.3068
    1SOL    HW3 5855   4.470   2.645   2.677  0.1566  0.9255  0.5044
    1SOL    MW4 5856   4.476   2.728   2.650 -0.3753  0.5848 -0.7255
    1SOL     OW 5857   0.215   2.892   2.748  0.2233  1.0412  0.0814
    1SOL    HW2 5858   0.227   2.974   2.701 -2.2405  1.4959  0.1894
    1SOL    HW3 5859   0.148   2.845   2.698  0.8491 -0.4670  0.6045
    1SOL    MW4 5860   0.208   2.897   2.735 -0.0192  0.9022  0.1645
    1SOL     OW 5861   0.199   3.175   2.622 -0.2422 -0.2840 -0.7130
    1SOL    HW2 5862   0.288   3.198   2.648 -0.6064  1.2521 -0.7406
    1SOL    HW3 5863   0.205   3.155   2.529  0.1142 -0.4302 -0.6597
    1SOL    MW4 5864   0.211   3.176   2.613 -0.2433 -0.1004 -0.7098
    1SOL     OW 5865   4.452   3.261   2.726  0.2641 -0.0540 -0.3879
    1SOL    HW2 5866   4.389   3.207   2.679 -0.0273 -1.4941  1.5630
    1SOL    HW3 5867   4.537   3.235   2.691 -0.0272 -0.1421 -1.0418
    1SOL    MW4 5868   4.455   3.250   2.715  0.1874 -0.2558 -0.2165
    1SOL     OW 5869   4.475   3.503   2.606 -0.1467 -0.3489  0.3958
    1SOL    HW2 5870   4.541   3.547   2.660 -1.2414  1.6017  0.2215
    1SOL    HW3 5871   4.472   3.414   2.639  2.0813 -0.2641  0.8579
    1SOL    MW4 5872   4.483   3.497   2.618  0.0028 -0.0803  0.4334
    1SOL     OW 5873   0.223   3.628   2.736 -0.0554 -0.3914  0.0662
    1SOL    HW2 5874   0.232   3.602   2.827  1.1864 -0.3649 -0.0368
    1SOL    HW3 5875   0.288   3.575   2.689 -0.7482 -0.4791 -0.8205
    1SOL    MW4 5876   0.233   3.618   2.742  0.0170 -0.3994 -0.0644
    1SOL     OW 5877   0.224   3.894   2.632 -0.1765 -0.4586 -0.0212
    1SOL    HW2 5878   0.211   3.803   2.658  0.6790 -0.7110 -0.4674
    1SOL    HW3 5879   0.237   3.890   2.537  0.5998  0.0547  0.0590
    1SOL    MW4 5880   0.224   3.881   2.623  0.0388 -0.4241 -0.0694
    1SOL     OW 5881   0.000   4.016   2.731  0.0091  0.2454  0.6895
    1SOL    HW2 5882   0.001   4.108   2.706 -1.3021  0.4330  1.3082
    1SOL    HW3 5883   0.072   3.977   2.681 -1.5368  0.9148 -2.1427
    1SOL    MW4 5884   0.010   4.023   2.721 -0.3676  0.3586  0.3974
    1SOL     OW 5885   4.486   4.265   2.601  0.2202 -0.2678  0.5367
    1SOL    HW2 5886   4.426   4.299   2.667  0.1735  1.6854 -0.4869
    1SOL    HW3 5887   4.571   4.302   2.623  0.1808  0.4980 -0.5540
    1SOL    MW4 5888   4.489   4.274   2.613  0.2089  0.0906  0.2573
    1SOL     OW 5889   0.216   4.400   2.712  0.4460 -0.0190 -0.0170
    1SOL    HW2 5890   0.228   4.386   2.806  0.1187 -1.9997 -0.2389
    1SOL    HW3 5891   0.297   4.367   2.672  0.4360  0.4805 -0.4610
    1SOL    MW4 5892   0.228   4.394   2.719  0.4015 -0.2146 -0.1051
    1SOL     OW 5893   0.671   4.639   2.644  0.0841  0.1331  0.3705
    1SOL    HW2 5894   0.758   4.668   2.672  0.2062  0.7581 -0.6083
    1SOL    HW3 5895   0.611   4.702   2.683  0.0509 -0.4069  1.2000
    1SOL    MW4 5896   0.675   4.651   2.653  0.0958  0.1440  0.3510
    1SOL     OW 5897   0.498   0.136   2.765  0.0832 -0.1023  0.3120
    1SOL    HW2 5898   0.520   0.130   2.859  0.6959 -1.3897  0.0996
    1SOL    HW3 5899   0.408   0.104   2.759  0.1667 -0.3665  0.4258
    1SOL    MW4 5900   0.489   0.131   2.777  0.1751 -0.3070  0.2987
    1SOL     OW 5901   0.488   0.384   2.642 -0.3853  0.3685  0.3120
    1SOL    HW2 5902   0.558   0.434   2.683 -1.2554  1.5923  0.3201
    1SOL    HW3 5903   0.490   0.299   2.685  1.0140  0.4438  0.3935
    1SOL    MW4 5904   0.497   0.379   2.653 -0.3155  0.5400  0.3235
    1SOL     OW 5905   0.699   0.533   2.737 -0.5014 -0.2694  0.2273
    1SOL    HW2 5906   0.690   0.521   2.831  1.5854 -1.3767  0.3064
    1SOL    HW3 5907   0.767   0.471   2.710  0.8355  1.8349 -1.5609
    1SOL    MW4 5908   0.707   0.523   2.746 -0.0498 -0.1379  0.0017
    1SOL     OW 5909   0.674   0.804   2.636  0.3499 -0.1407 -0.1134
    1SOL    HW2 5910   0.743   0.851   2.683 -0.8923  0.9478  0.6837
    1SOL    HW3 5911   0.681   0.713   2.666  0.7281  0.1887  0.7994
    1SOL    MW4 5912   0.684   0.798   2.646  0.2359  0.0464  0.1121
    1SOL     OW 5913   0.424   0.903   2.739  0.4446  0.5977 -0.1925
    1SOL    HW2 5914   0.430   0.906   2.834 -0.0349  1.4045 -0.1770
    1SOL    HW3 5915   0.510   0.874   2.710  1.4044  2.7845  0.3857
    1SOL    MW4 5916   0.436   0.900   2.747  0.5080  0.9927 -0.1142
    1SOL     OW 5917   0.403   1.153   2.638  0.0129  0.4863 -0.6131
    1SOL    HW2 5918   0.484   1.189   2.675 -0.8836  0.6137  1.3259
    1SOL    HW3 5919   0.408   1.060   2.659 -0.8640  0.6912  0.5526
    1SOL    MW4 5920   0.414   1.145   2.646 -0.2210  0.5302 -0.2036
    1SOL     OW 5921   0.634   1.301   2.743  0.1078  0.0960 -0.0295
    1SOL    HW2 5922   0.655   1.281   2.834  0.8098  0.4993 -0.0988
    1SOL    HW3 5923   0.708   1.269   2.693 -0.9294 -1.4197 -0.6121
    1SOL    MW4 5924   0.646   1.294   2.748  0.0637 -0.0508 -0.1156
    1SOL     OW 5925   0.670   1.564   2.659  0.0075  0.5657 -0.2699
    1SOL    HW2 5926   0.604   1.613   2.708  0.5475  0.4022  0.6304
    1SOL    HW3 5927   0.658   1.473   2.687 -0.4746  0.2870 -1.3492
    1SOL    MW4 5928   0.660   1.558   2.670  0.0152  0.5072 -0.2933
    1SOL     OW 5929   0.447   1.672   2.787  0.6541  0.2936  0.1181
    1SOL    HW2 5930   0.452   1.685   2.882  0.3434  0.2190  0.1469
    1SOL    HW3 5931   0.419   1.757   2.753  0.3373  0.2004  0.1379
    1SOL    MW4 5932   0.444   1.685   2.795  0.5713  0.2713  0.1245
    1SOL     OW 5933   0.434   1.916   2.665  0.0156 -0.0451  0.0940
    1SOL    HW2 5934   0.521   1.944   2.696 -0.0472 -1.2773  1.4860
    1SOL    HW3 5935   0.445   1.902   2.571  1.1929  0.2972  0.1721
    1SOL    MW4 5936   0.447   1.918   2.657  0.1626 -0.1626  0.2882
    1SOL     OW 5937   0.673   2.044   2.741  0.1860 -0.2247 -0.0869
    1SOL    HW2 5938   0.669   2.027   2.835 -1.3367  0.1391 -0.0814
    1SOL    HW3 5939   0.764   2.023   2.717  0.7290  0.1854  1.5526
    1SOL    MW4 5940   0.685   2.039   2.750  0.0567 -0.1223  0.1302
    1SOL     OW 5941   0.630   2.308   2.694  0.1412 -0.0625 -0.4531
    1SOL    HW2 5942   0.715   2.339   2.727 -0.3170  1.0594 -0.2879
    1SOL    HW3 5943   0.626   2.216   2.720  0.3667  0.4599  1.4919
    1SOL    MW4 5944   0.641   2.300   2.702  0.1104  0.1545 -0.1745
    1SOL     OW 5945   0.441   2.494   2.762 -0.1112 -0.1304  0.0944
    1SOL    HW2 5946   0.467   2.573   2.714  1.2563 -0.5723  0.1085
    1SOL    HW3 5947   0.499   2.426   2.731 -2.0608 -1.4414 -0.7687
    1SOL    MW4 5948   0.452   2.496   2.752 -0.1879 -0.3614 -0.0176
    1SOL     OW 5949   0.433   2.754   2.630  0.2392 -0.0248  0.1495
    1SOL    HW2 5950   0.511   2.788   2.674  1.0185 -1.0003 -0.4506
    1SOL    HW3 5951   0.359   2.793   2.677  1.0964  1.4348  0.3085
    1SOL    MW4 5952   0.433   2.764   2.642  0.4552  0.0389  0.0913
    1SOL     OW 5953   0.663   2.839   2.738 -0.2195  0.9323 -0.1768
    1SOL    HW2 5954   0.661   2.828   2.833 -0.5823  0.3515 -0.2525
    1SOL    HW3 5955   0.671   2.934   2.726 -2.5613  1.2633  0.4261
    1SOL    MW4 5956   0.663   2.850   2.749 -0.5764  0.8996 -0.1070
    1SOL     OW 5957   0.680   3.096   2.640  0.0899 -0.6451  0.1572
    1SOL    HW2 5958   0.766   3.128   2.666  0.2582 -1.2296  0.3402
    1SOL    HW3 5959   0.680   3.100   2.544 -0.0885  0.3910  0.2029
    1SOL    MW4 5960   0.691   3.101   2.631  0.0886 -0.5858  0.1874
    1SOL     OW 5961   0.445   3.228   2.731  0.4549  0.7269 -0.2349
    1SOL    HW2 5962   0.453   3.205   2.823  0.3046  1.6110  0.0014
    1SOL    HW3 5963   0.520   3.185   2.689 -0.3917 -1.0459  0.0222
    1SOL    MW4 5964   0.456   3.219   2.737  0.3234  0.6094 -0.1698
    1SOL     OW 5965   0.461   3.495   2.664 -0.0447 -0.0423  0.0030
    1SOL    HW2 5966   0.470   3.404   2.691 -2.1923 -0.5138 -0.7541
    1SOL    HW3 5967   0.466   3.492   2.568  1.1454  0.8169  0.0199
    1SOL    MW4 5968   0.463   3.482   2.655 -0.1710  0.0088 -0.0944
    1SOL     OW 5969   0.690   3.618   2.738  0.6610  0.5141  0.5721
    1SOL    HW2 5970   0.696   3.619   2.834 -1.3203  2.3096  0.7200
    1SOL    HW3 5971   0.607   3.573   2.720  0.3910  1.3346 -0.2464
    1SOL    MW4 5972   0.680   3.612   2.748  0.3640  0.8593  0.4838
    1SOL     OW 5973   0.630   3.872   2.654  0.4343  0.6316 -0.4366
    1SOL    HW2 5974   0.554   3.918   2.691  1.1522  2.0612 -0.6810
    1SOL    HW3 5975   0.620   3.782   2.683 -0.7097  1.0608  0.5621
    1SOL    MW4 5976   0.619   3.866   2.663  0.3781  0.8767 -0.3369
    1SOL     OW 5977   0.423   4.021   2.762  0.3131  0.2612 -0.5923
    1SOL    HW2 5978   0.431   4.100   2.708 -1.7855  0.0370 -1.2705
    1SOL    HW3 5979   0.352   3.972   2.722  0.6979 -1.3308  0.6454
    1SOL    MW4 5980   0.415   4.025   2.749  0.0870  0.0215 -0.5183
    1SOL     OW 5981   0.441   4.258   2.615  0.1534 -0.0459 -0.4643
    1SOL    HW2 5982   0.515   4.308   2.650  0.3331  0.0765 -1.0094
    1SOL    HW3 5983   0.455   4.258   2.520 -0.4877 -0.1136 -0.5626
    1SOL    MW4 5984   0.453   4.264   2.607  0.0925 -0.0391 -0.5491
    1SOL     OW 5985   0.652   4.389   2.735 -0.0092  0.3566 -0.0223
    1SOL    HW2 5986   0.728   4.344   2.696 -1.6810 -1.2657 -1.5136
    1SOL    HW3 5987   0.658   4.478   2.701  0.1351 -0.2871 -1.7547
    1SOL    MW4 5988   0.663   4.395   2.725 -0.2108  0.0582 -0.4478
    1SOL     OW 5989   1.114   4.610   2.626 -0.2361  0.2781  0.2515
    1SOL    HW2 5990   1.194   4.651   2.660  0.8640 -1.1379 -0.5829
    1SOL    HW3 5991   1.122   4.518   2.649 -0.9256 -0.1474 -1.1303
    1SOL    MW4 5992   1.126   4.603   2.633 -0.1822  0.0353 -0.0410
    1SOL     OW 5993   0.904   0.078   2.732 -0.0342 -0.0032  0.2305
    1SOL    HW2 5994   0.904   0.062   2.827  2.7573  1.3402  0.4923
    1SOL    HW3 5995   0.978   0.026   2.700  0.1768  1.0228 -0.9405
    1SOL    MW4 5996   0.914   0.069   2.741  0.3619  0.3094  0.1106
    1SOL     OW 5997   0.889   0.372   2.624 -0.0687 -0.0021  0.3082
    1SOL    HW2 5998   0.900   0.283   2.657 -0.2479 -0.6089 -1.2556
    1SOL    HW3 5999   0.873   0.362   2.530 -1.9043  1.5607  0.4063
    1SOL    MW4 6000   0.888   0.359   2.616 -0.3346  0.1240  0.1147
    1SOL     OW 6001   1.111   0.524   2.716 -0.3182 -0.3945 -0.3451
    1SOL    HW2 6002   1.098   0.614   2.683 -0.2782 -0.2697 -0.0195
    1SOL    HW3 6003   1.029   0.479   2.694 -0.0937 -0.4580 -1.0851
    1SOL    MW4 6004   1.098   0.530   2.709 -0.2832 -0.3864 -0.4001
    1SOL     OW 6005   1.108   0.804   2.598  0.1318 -0.0334 -0.2177
    1SOL    HW2 6006   1.193   0.829   2.634  0.2309  0.5559 -0.8433
    1SOL    HW3 6007   1.125   0.789   2.505 -0.4167 -0.0501 -0.3171
    1SOL    MW4 6008   1.122   0.806   2.591  0.0725  0.0421 -0.3133
    1SOL     OW 6009   0.901   0.930   2.732  0.0244 -0.2852 -0.7309
    1SOL    HW2 6010   0.927   0.911   2.823 -0.6120 -1.1084 -0.7152
    1SOL    HW3 6011   0.974   0.895   2.679  0.6209  0.6290 -0.5167
    1SOL    MW4 6012   0.914   0.923   2.737  0.0191 -0.2732 -0.7005
    1SOL     OW 6013   0.860   1.190   2.617  0.0900  0.4177  0.0197
    1SOL    HW2 6014   0.869   1.102   2.653 -0.9744  0.1945 -0.2500
    1SOL    HW3 6015   0.843   1.177   2.524  2.0062  0.9784 -0.4312
    1SOL    MW4 6016   0.859   1.177   2.610  0.2023  0.4622 -0.0753
    1SOL     OW 6017   1.112   1.248   2.712 -0.3086 -0.2103 -0.5343
    1SOL    HW2 6018   1.136   1.337   2.687  0.6051 -0.2617  0.1379
    1SOL    HW3 6019   1.029   1.232   2.667 -0.1604  0.7505 -1.1605
    1SOL    MW4 6020   1.105   1.257   2.703 -0.1686 -0.0902 -0.5281
    1SOL     OW 6021   1.146   1.511   2.615  0.7817  0.1190  0.1182
    1SOL    HW2 6022   1.083   1.563   2.665  2.0523  1.3393  0.4530
    1SOL    HW3 6023   1.134   1.538   2.524  0.3247 -0.1780  0.0887
    1SOL    MW4 6024   1.136   1.521   2.610  0.8892  0.2408  0.1588
    1SOL     OW 6025   0.939   1.649   2.733 -0.5413 -0.3246 -0.0271
    1SOL    HW2 6026   0.937   1.669   2.827 -0.3095 -0.5769  0.0291
    1SOL    HW3 6027   0.852   1.615   2.714 -0.7193  0.0955  0.0160
    1SOL    MW4 6028   0.927   1.647   2.743 -0.5342 -0.3026 -0.0143
    1SOL     OW 6029   0.901   1.902   2.623  0.1810 -0.1433 -0.1874
    1SOL    HW2 6030   0.980   1.950   2.648 -0.1076 -0.2787  1.0131
    1SOL    HW3 6031   0.915   1.813   2.654 -1.6496  0.5047  2.7398
    1SOL    MW4 6032   0.913   1.897   2.630 -0.0986 -0.0757  0.3572
    1SOL     OW 6033   1.084   2.118   2.741  0.1650  0.0790  0.5814
    1SOL    HW2 6034   1.156   2.078   2.692 -0.6765 -0.9540  0.1687
    1SOL    HW3 6035   1.071   2.203   2.700  0.7156  0.0016  0.2403
    1SOL    MW4 6036   1.092   2.124   2.729  0.1267 -0.0677  0.4818
    1SOL     OW 6037   1.079   2.361   2.645  0.2810 -0.3933  0.0536
    1SOL    HW2 6038   1.156   2.411   2.672 -0.2876 -0.0082  0.9922
    1SOL    HW3 6039   1.080   2.365   2.549  0.7863  0.5830  0.0942
    1SOL    MW4 6040   1.090   2.368   2.636  0.2725 -0.2136  0.1829
    1SOL     OW 6041   0.860   2.446   2.785 -0.0709  0.1375 -0.2173
    1SOL    HW2 6042   0.842   2.533   2.749 -1.0372 -0.3050 -0.8047
    1SOL    HW3 6043   0.941   2.419   2.742  1.0750  1.3669  1.0928
    1SOL    MW4 6044   0.868   2.454   2.775 -0.0472  0.2413 -0.1221
    1SOL     OW 6045   0.860   2.697   2.620  0.0249 -0.0095 -0.5221
    1SOL    HW2 6046   0.942   2.725   2.663  0.4608 -0.6408 -0.9351
    1SOL    HW3 6047   0.792   2.748   2.664  0.6102  0.3195  0.0221
    1SOL    MW4 6048   0.862   2.708   2.632  0.1597 -0.0496 -0.5043
    1SOL     OW 6049   1.083   2.832   2.732  0.0000  0.0000  0.0797
    1SOL    HW2 6050   1.106   2.825   2.824  0.0000  0.0000  0.0814
    1SOL    HW3 6051   1.159   2.795   2.686  0.0000  0.0000  0.0861
    1SOL    MW4 6052   1.096   2.826   2.738  0.0000  0.0000  0.0811
    1SOL     OW 6053   1.148   3.096   2.609  0.0000  0.0000  0.1504
    1SOL    HW2 6054   1.122   3.007   2.632  0.0000  0.0000  0.1528
    1SOL    HW3 6055   1.136   3.101   2.514  0.0000  0.0000  0.1504
    1SOL    MW4 6056   1.143   3.085   2.599  0.0000  0.0000  0.1507
    1SOL     OW 6057   0.919   3.208   2.726  0.0000  0.0000 -0.0875
    1SOL    HW2 6058   0.903   3.287   2.674  0.0000  0.0000 -0.0653
    1SOL    HW3 6059   1.006   3.179   2.698  0.0000  0.0000 -0.1189
    1SOL    MW4 6060   0.928   3.215   2.715  0.0000  0.0000 -0.0885
    1SOL     OW 6061   0.887   3.462   2.625  0.0000  0.0000  0.0104
    1SOL    HW2 6062   0.961   3.508   2.665  0.0000  0.0000 -0.0354
    1SOL    HW3 6063   0.810   3.511   2.655  0.0000  0.0000  0.0944
    1SOL    MW4 6064   0.887   3.475   2.634  0.0000  0.0000  0.0155
    1SOL     OW 6065   1.102   3.599   2.720  0.0000  0.0000 -0.5407
    1SOL    HW2 6066   1.101   3.626   2.812  0.0000  0.0000 -0.5420
    1SOL    HW3 6067   1.100   3.681   2.671  0.0000  0.0000 -0.5448
    1SOL    MW4 6068   1.102   3.613   2.726  0.0000  0.0000 -0.5414
    1SOL     OW 6069   1.098   3.851   2.590  0.0000  0.0000 -0.4175
    1SOL    HW2 6070   1.178   3.889   2.628  0.0000  0.0000 -0.4127
    1SOL    HW3 6071   1.110   3.859   2.496  0.0000  0.0000 -0.4166
    1SOL    MW4 6072   1.110   3.857   2.583  0.0000  0.0000 -0.4165
    1SOL     OW 6073   0.893   4.008   2.716  0.0000  0.0000  0.0029
    1SOL    HW2 6074   0.957   3.963   2.661  0.0000  0.0000  0.0080
    1SOL    HW3 6075   0.809   3.969   2.690  0.0000  0.0000 -0.0024
    1SOL    MW4 6076   0.890   3.997   2.705  0.0000  0.0000  0.0031
    1SOL     OW 6077   0.888   4.266   2.628  0.0000  0.0000 -0.4213
    1SOL    HW2 6078   0.892   4.173   2.652  0.0000  0.0000 -0.4200
    1SOL    HW3 6079   0.884   4.265   2.532  0.0000  0.0000 -0.4214
    1SOL    MW4 6080   0.888   4.254   2.618  0.0000  0.0000 -0.4213
    1SOL     OW 6081   1.144   4.351   2.709  0.0000  0.0000 -0.0978
    1SOL    HW2 6082   1.137   4.378   2.800  0.0000  0.0000 -0.0985
    1SOL    HW3 6083   1.055   4.327   2.684  0.0000  0.0000 -0.0890
    1SOL    MW4 6084   1.131   4.351   2.717  0.0000  0.0000 -0.0968
    1SOL     OW 6085   1.589   4.632   2.630 -0.2583 -0.4030  0.1118
    1SOL    HW2 6086   1.580   4.544   2.667 -0.2712  0.0804  1.2818
    1SOL    HW3 6087   1.567   4.621   2.537  0.1136 -1.6997  0.1628
    1SOL    MW4 6088   1.585   4.619   2.623 -0.2110 -0.5097  0.2728
    1SOL     OW 6089   1.352   0.078   2.714 -0.2109  0.3042  0.0564
    1SOL    HW2 6090   1.347   0.166   2.677  0.3308  1.0706  1.7552
    1SOL    HW3 6091   1.437   0.044   2.684 -0.1176  0.6276 -0.0463
    1SOL    MW4 6092   1.363   0.085   2.705 -0.1271  0.4480  0.2670
    1SOL     OW 6093   1.326   0.360   2.654  0.5799  0.0239  0.5267
    1SOL    HW2 6094   1.402   0.419   2.660 -0.1393  0.8905  1.2481
    1SOL    HW3 6095   1.253   0.412   2.689 -0.2667 -0.9382  0.1840
    1SOL    MW4 6096   1.327   0.375   2.660  0.3734  0.0113  0.5765
    1SOL     OW 6097   1.590   0.499   2.711 -0.3720 -0.2679  0.3500
    1SOL    HW2 6098   1.676   0.484   2.673 -0.4655 -1.4232  0.5948
    1SOL    HW3 6099   1.569   0.590   2.687  0.5668 -0.2346 -0.3676
    1SOL    MW4 6100   1.598   0.509   2.703 -0.2605 -0.4159  0.2875
    1SOL     OW 6101   1.570   0.759   2.632 -0.6808  0.4706 -0.0240
    1SOL    HW2 6102   1.496   0.809   2.667  0.1395  1.9351 -0.3392
    1SOL    HW3 6103   1.547   0.743   2.541  0.1265  2.4387 -0.6101
    1SOL    MW4 6104   1.557   0.764   2.625 -0.4660  0.9235 -0.1426
    1SOL     OW 6105   1.355   0.888   2.731 -0.0638 -0.3580 -0.3466
    1SOL    HW2 6106   1.348   0.888   2.826  0.1528 -1.8886 -0.3190
    1SOL    HW3 6107   1.355   0.981   2.707 -0.2261  0.0374  1.1266
    1SOL    MW4 6108   1.354   0.900   2.740 -0.0565 -0.5078 -0.1490
    1SOL     OW 6109   1.345   1.127   2.592 -0.2392 -0.2502 -0.0905
    1SOL    HW2 6110   1.408   1.195   2.619 -0.3638 -0.5856  1.0759
    1SOL    HW3 6111   1.259   1.164   2.614 -0.3610 -0.4236 -0.2751
    1SOL    MW4 6112   1.342   1.141   2.599 -0.2718 -0.3173  0.0389
    1SOL     OW 6113   1.563   1.297   2.702  0.2009 -0.1152 -0.2823
    1SOL    HW2 6114   1.572   1.308   2.797  0.1814 -0.1538 -0.2761
    1SOL    HW3 6115   1.635   1.239   2.678 -0.1267 -0.5581 -0.2069
    1SOL    MW4 6116   1.573   1.291   2.712  0.1551 -0.1788 -0.2713
    1SOL     OW 6117   1.580   1.568   2.610  0.5450 -0.2328 -0.0095
    1SOL    HW2 6118   1.558   1.479   2.636 -1.7095  0.4011  0.3744
    1SOL    HW3 6119   1.560   1.572   2.517  0.9960 -0.2274 -0.1075
    1SOL    MW4 6120   1.574   1.557   2.601  0.3072 -0.1485  0.0284
    1SOL     OW 6121   1.352   1.700   2.706 -0.2773 -0.0715 -0.5071
    1SOL    HW2 6122   1.437   1.667   2.677 -0.1659 -0.6673  0.4668
    1SOL    HW3 6123   1.290   1.632   2.678 -0.2054 -0.5044  0.3587
    1SOL    MW4 6124   1.355   1.686   2.698 -0.2531 -0.2072 -0.2642
    1SOL     OW 6125   1.267   1.954   2.632  0.1385  0.4615 -0.5395
    1SOL    HW2 6126   1.294   1.870   2.669 -0.7282  0.8696  1.0752
    1SOL    HW3 6127   1.291   1.949   2.540  0.4756 -1.3991 -0.3612
    1SOL    MW4 6128   1.274   1.942   2.625  0.0687  0.2700 -0.3030
    1SOL     OW 6129   1.499   2.086   2.745  0.5229 -0.0279  0.2985
    1SOL    HW2 6130   1.576   2.046   2.704  0.0405 -0.2017 -0.4559
    1SOL    HW3 6131   1.425   2.036   2.709  0.0472  0.3146  0.8089
    1SOL    MW4 6132   1.499   2.074   2.735  0.3965 -0.0057  0.2666
    1SOL     OW 6133   1.500   2.359   2.603  0.2854 -0.0447  0.6853
    1SOL    HW2 6134   1.590   2.390   2.614  0.5482 -0.6986  0.3753
    1SOL    HW3 6135   1.496   2.276   2.651 -0.4006  0.4123  1.4468
    1SOL    MW4 6136   1.511   2.352   2.611  0.2296 -0.0706  0.7448
    1SOL     OW 6137   1.300   2.505   2.701 -0.0282  0.5279 -0.0038
    1SOL    HW2 6138   1.302   2.596   2.670 -0.1743  0.5308 -0.0029
    1SOL    HW3 6139   1.369   2.461   2.650 -1.6408  0.0546 -1.8526
    1SOL    MW4 6140   1.310   2.511   2.690 -0.2601  0.4656 -0.2475
    1SOL     OW 6141   1.329   2.760   2.619 -0.0060  0.1485  0.2565
    1SOL    HW2 6142   1.410   2.802   2.649  0.7612 -0.6244 -0.7022
    1SOL    HW3 6143   1.339   2.753   2.524 -1.7098  1.1026 -0.0125
    1SOL    MW4 6144   1.341   2.765   2.611 -0.1297  0.1724  0.0947
    1SOL     OW 6145   1.559   2.895   2.664  0.7181 -0.4527 -0.2765
    1SOL    HW2 6146   1.564   2.895   2.759  1.7085 -2.4187 -0.3027
    1SOL    HW3 6147   1.639   2.850   2.636 -0.1866 -1.0393 -1.9933
    1SOL    MW4 6148   1.570   2.889   2.673  0.7293 -0.7894 -0.5064
    1SOL     OW 6149   1.594   3.140   2.548  0.1818 -0.1884 -0.7371
    1SOL    HW2 6150   1.671   3.182   2.588 -0.5672  1.3049 -0.8471
    1SOL    HW3 6151   1.591   3.053   2.589 -0.1477  1.0332  1.9816
    1SOL    MW4 6152   1.604   3.134   2.559  0.0395  0.1698 -0.3932
    1SOL     OW 6153   1.378   3.226   2.694 -0.2815 -0.2970  0.1357
    1SOL    HW2 6154   1.454   3.185   2.653 -0.2978 -1.5214  1.2988
    1SOL    HW3 6155   1.302   3.189   2.648 -0.2136  0.2255 -0.4017
    1SOL    MW4 6156   1.378   3.216   2.682 -0.2748 -0.3893  0.2184
    1SOL     OW 6157   1.313   3.486   2.590 -0.2597  0.1263 -0.7087
    1SOL    HW2 6158   1.326   3.398   2.625  2.7195  1.7436  2.5423
    1SOL    HW3 6159   1.225   3.511   2.619  0.2847 -0.4169  1.4692
    1SOL    MW4 6160   1.303   3.477   2.598  0.2052  0.2682  0.0074
    1SOL     OW 6161   1.531   3.617   2.706 -0.3272 -0.1080 -0.1612
    1SOL    HW2 6162   1.605   3.569   2.668 -0.3714 -0.6573  0.4292
    1SOL    HW3 6163   1.454   3.583   2.661 -0.3122 -0.2317 -0.0929
    1SOL    MW4 6164   1.531   3.606   2.695 -0.3312 -0.1967 -0.0741
    1SOL     OW 6165   1.585   3.860   2.592 -0.2705 -0.2943  0.1847
    1SOL    HW2 6166   1.500   3.898   2.613 -0.2306 -0.3790  0.5158
    1SOL    HW3 6167   1.583   3.773   2.633  0.0788 -0.1891  0.4307
    1SOL    MW4 6168   1.574   3.853   2.600 -0.2190 -0.2916  0.2611
    1SOL     OW 6169   1.336   3.948   2.687 -0.4030  0.7529 -0.5719
    1SOL    HW2 6170   1.324   3.965   2.781  0.8464  1.3453 -0.5015
    1SOL    HW3 6171   1.336   4.035   2.647 -1.2224  0.4834 -1.1624
    1SOL    MW4 6172   1.335   3.962   2.694 -0.3464  0.7954 -0.6406
    1SOL     OW 6173   1.351   4.202   2.599 -0.2815 -0.7261  0.2678
    1SOL    HW2 6174   1.274   4.254   2.620 -0.5768 -0.8119 -0.6021
    1SOL    HW3 6175   1.361   4.211   2.504  1.3195  0.0430  0.4867
    1SOL    MW4 6176   1.342   4.210   2.589 -0.1093 -0.6356  0.1819
    1SOL     OW 6177   1.555   4.378   2.735 -0.1998  0.2576  0.0853
    1SOL    HW2 6178   1.554   4.386   2.831 -0.5696 -1.3026  0.2210
    1SOL    HW3 6179   1.475   4.330   2.714  0.4223 -0.3652 -0.9162
    1SOL    MW4 6180   1.545   4.373   2.745 -0.1664 -0.0300 -0.0288
    1SOL     OW 6181   2.059   4.648   2.595  0.3742  0.1464  0.0531
    1SOL    HW2 6182   2.135   4.700   2.623 -0.2936  0.3608  1.5726
    1SOL    HW3 6183   2.051   4.666   2.502  0.8811  1.8549  0.3042
    1SOL    MW4 6184   2.068   4.657   2.587  0.3529  0.3996  0.2866
    1SOL     OW 6185   1.827   0.088   2.712  0.3064  0.2763 -0.1712
    1SOL    HW2 6186   1.909   0.054   2.676  0.0285  0.0100 -0.5598
    1SOL    HW3 6187   1.759   0.036   2.669 -0.0801  0.7238 -0.1030
    1SOL    MW4 6188   1.829   0.077   2.702  0.2187  0.3002 -0.2134
    1SOL     OW 6189   1.837   0.405   2.613 -0.0322 -0.1515 -0.0389
    1SOL    HW2 6190   1.912   0.447   2.655  0.1501 -0.5194  0.0080
    1SOL    HW3 6191   1.828   0.321   2.658 -1.8120  0.7860  1.4150
    1SOL    MW4 6192   1.846   0.399   2.624 -0.2429 -0.0763  0.1590
    1SOL     OW 6193   2.068   0.529   2.750  0.3641  0.4895 -0.2592
    1SOL    HW2 6194   2.153   0.499   2.719 -0.0222 -0.5303 -0.3882
    1SOL    HW3 6195   2.067   0.506   2.843  0.1979  0.3882 -0.2836
    1SOL    MW4 6196   2.079   0.522   2.758  0.2913  0.3415 -0.2797
    1SOL     OW 6197   2.032   0.773   2.630  0.3378  0.0281  0.0746
    1SOL    HW2 6198   2.028   0.692   2.681 -0.4899 -0.2768 -0.4576
    1SOL    HW3 6199   1.958   0.825   2.662  0.2777  0.1578 -0.2681
    1SOL    MW4 6200   2.021   0.769   2.641  0.2208  0.0049 -0.0408
    1SOL     OW 6201   1.803   0.892   2.724 -0.2146 -0.5770  0.2135
    1SOL    HW2 6202   1.784   0.975   2.680 -0.1681 -0.4873  0.3649
    1SOL    HW3 6203   1.729   0.836   2.702  0.1419 -0.7573 -0.5635
    1SOL    MW4 6204   1.791   0.895   2.715 -0.1615 -0.5890  0.1309
    1SOL     OW 6205   1.780   1.150   2.602  0.0024  0.0343 -0.2065
    1SOL    HW2 6206   1.853   1.206   2.631  0.5270  0.1509 -1.6923
    1SOL    HW3 6207   1.795   1.140   2.508 -0.9835 -1.3159 -0.2166
    1SOL    MW4 6208   1.792   1.156   2.593 -0.0584 -0.1284 -0.4039
    1SOL     OW 6209   1.994   1.291   2.697 -0.4416  0.0150  0.3372
    1SOL    HW2 6210   2.021   1.292   2.789 -0.4737  0.9065  0.3435
    1SOL    HW3 6211   2.072   1.261   2.650 -0.3106 -0.0983  0.6240
    1SOL    MW4 6212   2.008   1.287   2.703 -0.4287  0.1178  0.3757
    1SOL     OW 6213   2.004   1.541   2.576  0.0020  0.1655  0.1854
    1SOL    HW2 6214   1.940   1.603   2.611 -0.0575  0.4026 -0.3457
    1SOL    HW3 6215   1.979   1.457   2.615 -1.2065  0.0795 -0.7482
    1SOL    MW4 6216   1.993   1.538   2.586 -0.1655  0.1855 -0.0079
    1SOL     OW 6217   1.794   1.714   2.682 -0.6549  0.3582  0.4593
    1SOL    HW2 6218   1.807   1.696   2.775  1.1771 -1.1008 -0.0418
    1SOL    HW3 6219   1.729   1.650   2.654  0.5801 -0.8362  0.2428
    1SOL    MW4 6220   1.788   1.703   2.691 -0.2502  0.0082  0.3648
    1SOL     OW 6221   1.724   1.980   2.639 -0.1495  0.5033  0.0118
    1SOL    HW2 6222   1.809   2.011   2.669  0.2892  0.8445 -1.5423
    1SOL    HW3 6223   1.723   1.887   2.659  1.0696  0.2548 -1.0076
    1SOL    MW4 6224   1.735   1.972   2.646  0.0693  0.5156 -0.3278
    1SOL     OW 6225   1.992   2.075   2.706  0.2529  0.1197  0.3794
    1SOL    HW2 6226   1.966   2.079   2.798 -0.3873  1.3149  0.1622
    1SOL    HW3 6227   1.988   2.166   2.677  0.6410 -0.2319 -0.7757
    1SOL    MW4 6228   1.988   2.087   2.715  0.2196  0.2313  0.1981
    1SOL     OW 6229   1.997   2.339   2.635 -0.0085  0.1737  0.1792
    1SOL    HW2 6230   2.082   2.375   2.661 -0.4857  0.9346  0.7051
    1SOL    HW3 6231   2.003   2.329   2.540  0.6716  0.2194  0.2134
    1SOL    MW4 6232   2.009   2.342   2.626  0.0184  0.2801  0.2532
    1SOL     OW 6233   1.747   2.462   2.694  0.1291  0.3559 -0.0117
    1SOL    HW2 6234   1.747   2.465   2.790  1.1770  0.7090 -0.0168
    1SOL    HW3 6235   1.821   2.407   2.672 -0.1781  0.1904 -0.6261
    1SOL    MW4 6236   1.757   2.455   2.704  0.2269  0.3808 -0.0935
    1SOL     OW 6237   1.809   2.717   2.588  0.4476 -0.4628  0.0086
    1SOL    HW2 6238   1.792   2.633   2.630  0.1910  0.0457  0.9569
    1SOL    HW3 6239   1.791   2.703   2.496  0.7262 -1.5317  0.1124
    1SOL    MW4 6240   1.805   2.704   2.582  0.4504 -0.5367  0.1471
    1SOL     OW 6241   2.012   2.848   2.728  0.1001 -0.1079 -0.3207
    1SOL    HW2 6242   2.091   2.798   2.710  0.2006 -0.1740  0.2862
    1SOL    HW3 6243   1.941   2.797   2.689  0.1236 -1.0547  0.8515
    1SOL    MW4 6244   2.013   2.835   2.720  0.1163 -0.2413 -0.0858
    1SOL     OW 6245   2.021   3.085   2.614 -0.1076 -0.0681 -0.1375
    1SOL    HW2 6246   2.032   2.999   2.654 -0.7809 -0.5088 -0.9007
    1SOL    HW3 6247   2.021   3.068   2.520 -1.1200  0.6637 -0.2721
    1SOL    MW4 6248   2.023   3.072   2.607 -0.3302 -0.0296 -0.2561
    1SOL     OW 6249   1.798   3.258   2.690  0.1363  0.2032 -0.6594
    1SOL    HW2 6250   1.804   3.347   2.656 -0.8249 -0.1926 -1.9169
    1SOL    HW3 6251   1.870   3.211   2.647  0.5725  0.3377 -0.0840
    1SOL    MW4 6252   1.808   3.264   2.680  0.0670  0.1688 -0.7496
    1SOL     OW 6253   1.765   3.509   2.584  0.0519 -0.7285  0.0997
    1SOL    HW2 6254   1.833   3.567   2.617  0.1272 -0.0995 -1.1374
    1SOL    HW3 6255   1.792   3.488   2.495 -0.6213 -1.6521  0.1066
    1SOL    MW4 6256   1.777   3.514   2.577 -0.0269 -0.7675 -0.0627
    1SOL     OW 6257   2.020   3.618   2.719 -0.3583 -0.1041  0.1947
    1SOL    HW2 6258   2.036   3.608   2.813  0.2940  0.4683  0.1447
    1SOL    HW3 6259   2.095   3.574   2.677 -0.1327  0.4990 -0.0477
    1SOL    MW4 6260   2.032   3.610   2.726 -0.2425  0.0510  0.1559
    1SOL     OW 6261   2.045   3.878   2.625  0.0391  0.1015 -0.7155
    1SOL    HW2 6262   1.965   3.926   2.646 -0.3497 -0.5232 -0.7351
    1SOL    HW3 6263   2.035   3.795   2.673  0.2220 -0.3816 -1.5131
    1SOL    MW4 6264   2.033   3.873   2.634  0.0119 -0.0448 -0.8230
    1SOL     OW 6265   1.808   4.021   2.676 -0.2437  0.0875 -0.0353
    1SOL    HW2 6266   1.800   4.112   2.649 -0.7926  0.0763  0.0809
    1SOL    HW3 6267   1.728   3.979   2.643 -0.3312 -0.1965  0.5323
    1SOL    MW4 6268   1.796   4.027   2.668 -0.3276  0.0486  0.0551
    1SOL     OW 6269   1.784   4.286   2.616  0.3066  0.2060  0.2033
    1SOL    HW2 6270   1.698   4.317   2.643 -0.0473 -0.3678 -0.2477
    1SOL    HW3 6271   1.790   4.306   2.523 -0.0801 -1.3697 -0.1836
    1SOL    MW4 6272   1.773   4.292   2.607  0.2090 -0.0772  0.0927
    1SOL     OW 6273   2.032   4.390   2.728 -0.2028  0.7563  0.3649
    1SOL    HW2 6274   1.947   4.355   2.702 -0.5461  0.9300  1.2411
    1SOL    HW3 6275   2.037   4.475   2.683 -0.4817  0.7420  0.3018
    1SOL    MW4 6276   2.021   4.397   2.718 -0.2849  0.7772  0.4723
    1SOL     OW 6277   2.502   4.606   2.600  0.1767  0.4242  0.0042
    1SOL    HW2 6278   2.554   4.671   2.646 -1.1615  1.5776 -0.0556
    1SOL    HW3 6279   2.498   4.639   2.510 -2.5670  1.6224  0.5110
    1SOL    MW4 6280   2.508   4.619   2.594 -0.3617  0.7343  0.0632
    1SOL     OW 6281   2.288   0.114   2.685 -0.2654  0.4051  0.1787
    1SOL    HW2 6282   2.351   0.045   2.663 -0.4985  0.1051  0.4379
    1SOL    HW3 6283   2.281   0.109   2.781 -0.3844  0.7007  0.1844
    1SOL    MW4 6284   2.296   0.104   2.695 -0.3119  0.4045  0.2136
    1SOL     OW 6285   2.284   0.391   2.633 -0.1883 -0.1551 -0.3053
    1SOL    HW2 6286   2.275   0.381   2.538 -0.9217  0.3250 -0.2819
    1SOL    HW3 6287   2.304   0.302   2.664  0.8104 -0.1809 -0.9903
    1SOL    MW4 6288   2.286   0.378   2.625 -0.1533 -0.0952 -0.3927
    1SOL     OW 6289   2.527   0.551   2.722  0.2396 -0.1467  0.5362
    1SOL    HW2 6290   2.519   0.636   2.679  1.2717 -0.5138 -0.3863
    1SOL    HW3 6291   2.448   0.503   2.696  0.1779  0.1436  0.1865
    1SOL    MW4 6292   2.516   0.556   2.713  0.3676 -0.1569  0.3684
    1SOL     OW 6293   2.448   0.813   2.628  0.4780 -0.1833  0.3756
    1SOL    HW2 6294   2.372   0.859   2.664 -0.3215 -0.5310 -0.8448
    1SOL    HW3 6295   2.430   0.806   2.534  2.7198  1.0698 -0.1815
    1SOL    MW4 6296   2.435   0.818   2.621  0.6685 -0.0638  0.1411
    1SOL     OW 6297   2.229   0.955   2.738  0.1506  0.3992  0.0274
    1SOL    HW2 6298   2.227   0.952   2.834 -1.1212  0.7816  0.0261
    1SOL    HW3 6299   2.176   0.880   2.711 -0.2375  0.8072 -0.3608
    1SOL    MW4 6300   2.222   0.945   2.747 -0.0682  0.5035 -0.0238
    1SOL     OW 6301   2.238   1.190   2.613 -0.1151 -0.5010  0.1307
    1SOL    HW2 6302   2.233   1.103   2.653  1.7651 -0.4247  0.5675
    1SOL    HW3 6303   2.310   1.233   2.658  0.5217  0.4412 -1.7498
    1SOL    MW4 6304   2.247   1.184   2.624  0.2170 -0.3667 -0.0598
    1SOL     OW 6305   2.439   1.336   2.723  0.3375 -0.1215  0.1816
    1SOL    HW2 6306   2.437   1.426   2.691 -0.3281 -0.7800 -1.6887
    1SOL    HW3 6307   2.520   1.300   2.688  1.5332  0.2796  2.4680
    1SOL    MW4 6308   2.449   1.343   2.714  0.4075 -0.1556  0.2365
    1SOL     OW 6309   2.467   1.571   2.593  0.5707 -0.1579  0.2712
    1SOL    HW2 6310   2.393   1.622   2.626  0.1110  0.4750 -1.6543
    1SOL    HW3 6311   2.544   1.624   2.612  0.2302  0.5954 -0.3897
    1SOL    MW4 6312   2.467   1.585   2.600  0.4654  0.0250 -0.0696
    1SOL     OW 6313   2.221   1.657   2.715  0.0673  0.0523  0.0470
    1SOL    HW2 6314   2.213   1.751   2.696 -1.6783  0.1247  1.0587
    1SOL    HW3 6315   2.150   1.617   2.665  1.0178 -0.7828 -0.6459
    1SOL    MW4 6316   2.211   1.664   2.706 -0.0374 -0.0483  0.0892
    1SOL     OW 6317   2.222   1.928   2.650  0.2892 -0.4498  0.1607
    1SOL    HW2 6318   2.138   1.971   2.668  0.2459 -0.8375  0.9087
    1SOL    HW3 6319   2.234   1.938   2.556 -1.2441 -1.5313 -0.1827
    1SOL    MW4 6320   2.212   1.935   2.640  0.0811 -0.6436  0.2143
    1SOL     OW 6321   2.440   2.060   2.770  0.1359  0.3274 -0.5202
    1SOL    HW2 6322   2.446   2.151   2.742 -0.2578  0.6699  0.4842
    1SOL    HW3 6323   2.359   2.028   2.731  1.1344 -0.1061 -2.2871
    1SOL    MW4 6324   2.430   2.068   2.761  0.2158  0.3154 -0.6208
    1SOL     OW 6325   2.460   2.311   2.669  0.3414  0.0445  0.3548
    1SOL    HW2 6326   2.545   2.340   2.703 -0.2530  0.8234  1.1958
    1SOL    HW3 6327   2.468   2.322   2.574  0.7406  1.3657  0.5189
    1SOL    MW4 6328   2.472   2.317   2.661  0.3159  0.3216  0.4873
    1SOL     OW 6329   2.234   2.449   2.709 -0.5010  0.1459 -0.2551
    1SOL    HW2 6330   2.242   2.458   2.804  0.1991 -0.6337 -0.2328
    1SOL    HW3 6331   2.313   2.402   2.682  0.3126  2.1295 -1.4939
    1SOL    MW4 6332   2.245   2.444   2.718 -0.3014  0.3045 -0.4158
    1SOL     OW 6333   2.232   2.707   2.649  0.3550 -0.1164 -0.0117
    1SOL    HW2 6334   2.312   2.749   2.683  0.0404 -0.1447  0.7773
    1SOL    HW3 6335   2.236   2.618   2.682 -1.0219  0.4518  1.7948
    1SOL    MW4 6336   2.243   2.701   2.658  0.1318 -0.0451  0.3307
    1SOL     OW 6337   2.483   2.833   2.694  0.0280 -0.1279  0.2695
    1SOL    HW2 6338   2.574   2.806   2.687  0.4456  1.0551  0.9094
    1SOL    HW3 6339   2.484   2.926   2.670 -1.2075 -0.4000 -0.9497
    1SOL    MW4 6340   2.495   2.842   2.690 -0.0799 -0.0076  0.1929
    1SOL     OW 6341   2.515   3.110   2.618  0.0673 -0.0940 -0.3528
    1SOL    HW2 6342   2.428   3.144   2.638 -0.5530 -1.8793  0.1171
    1SOL    HW3 6343   2.512   3.091   2.524  0.2504  0.6415 -0.5134
    1SOL    MW4 6344   2.503   3.112   2.608  0.0095 -0.2325 -0.3119
    1SOL     OW 6345   2.253   3.230   2.657 -0.4385  0.1247 -0.2199
    1SOL    HW2 6346   2.265   3.244   2.751 -1.0370  1.2683 -0.2921
    1SOL    HW3 6347   2.176   3.174   2.650  1.0402 -1.9903  0.0333
    1SOL    MW4 6348   2.244   3.225   2.668 -0.3221 -0.0033 -0.1960
    1SOL     OW 6349   2.237   3.499   2.592  0.2256  0.0894  0.1316
    1SOL    HW2 6350   2.315   3.549   2.616 -0.0446 -0.2862  1.8648
    1SOL    HW3 6351   2.258   3.409   2.618 -0.3402 -0.2242 -0.4832
    1SOL    MW4 6352   2.250   3.494   2.598  0.1154 -0.0014  0.2792
    1SOL     OW 6353   2.458   3.636   2.682  0.0534 -0.1861  0.2136
    1SOL    HW2 6354   2.469   3.627   2.777  0.4250  0.3265  0.2165
    1SOL    HW3 6355   2.479   3.727   2.663  2.0714 -0.7831 -0.6437
    1SOL    MW4 6356   2.463   3.647   2.692  0.3686 -0.1969  0.1011
    1SOL     OW 6357   2.505   3.885   2.595  0.2721  0.4951 -0.2063
    1SOL    HW2 6358   2.580   3.930   2.634 -0.5847  0.5959  1.3770
    1SOL    HW3 6359   2.431   3.944   2.612 -0.2408  0.2276 -1.4310
    1SOL    MW4 6360   2.505   3.899   2.602  0.0913  0.4728 -0.1590
    1SOL     OW 6361   2.280   4.033   2.660  0.1079 -0.3259  0.2911
    1SOL    HW2 6362   2.274   4.038   2.756  0.3047 -0.1285  0.2932
    1SOL    HW3 6363   2.203   3.982   2.634 -1.0850  1.4024  0.3713
    1SOL    MW4 6364   2.269   4.027   2.669 -0.0234 -0.0715  0.3021
    1SOL     OW 6365   2.229   4.295   2.570 -0.4263 -0.0057  0.0761
    1SOL    HW2 6366   2.246   4.207   2.603 -1.5511 -0.6216 -0.9611
    1SOL    HW3 6367   2.155   4.326   2.623 -1.9006 -0.7990 -1.4855
    1SOL    MW4 6368   2.222   4.287   2.581 -0.7691 -0.1917 -0.2670
    1SOL     OW 6369   2.460   4.345   2.700  0.0591  0.1390  0.4887
    1SOL    HW2 6370   2.375   4.329   2.659 -0.5962  1.1889  1.3994
    1SOL    HW3 6371   2.484   4.434   2.671  0.9029 -0.1847  0.1547
    1SOL    MW4 6372   2.452   4.355   2.691  0.0839  0.2346  0.5648
    1SOL     OW 6373   2.922   4.653   2.648 -0.2516  0.2555 -0.0893
    1SOL    HW2 6374   2.991   4.710   2.679  0.3329  0.3566 -1.5167
    1SOL    HW3 6375   2.933   4.652   2.553 -1.0422 -1.2246 -0.1791
    1SOL    MW4 6376   2.932   4.661   2.639 -0.2789  0.0735 -0.2892
    1SOL     OW 6377   2.668   0.122   2.732 -0.0196 -0.0984 -0.3215
    1SOL    HW2 6378   2.665   0.122   2.828 -0.3780  0.3530 -0.3334
    1SOL    HW3 6379   2.757   0.092   2.711  0.2550  0.3661  0.1590
    1SOL    MW4 6380   2.679   0.118   2.742 -0.0305  0.0225 -0.2599
    1SOL     OW 6381   2.705   0.384   2.611 -0.5718 -0.0581 -0.4628
    1SOL    HW2 6382   2.698   0.296   2.649  1.3227 -0.5667 -1.2176
    1SOL    HW3 6383   2.638   0.435   2.656  0.8139 -0.9459  2.7313
    1SOL    MW4 6384   2.695   0.379   2.622 -0.1390 -0.2423 -0.1409
    1SOL     OW 6385   2.912   0.524   2.751  0.2670  0.2431  0.5199
    1SOL    HW2 6386   2.912   0.614   2.719  1.3484 -0.1430 -0.6154
    1SOL    HW3 6387   2.838   0.482   2.707  0.4019  0.3037  0.2353
    1SOL    MW4 6388   2.902   0.530   2.741  0.4272  0.2002  0.3326
    1SOL     OW 6389   2.910   0.793   2.637 -0.0827 -0.1268  0.4790
    1SOL    HW2 6390   2.990   0.837   2.667  0.3062 -1.4277  1.4320
    1SOL    HW3 6391   2.839   0.843   2.678  0.2325  0.9773 -0.2894
    1SOL    MW4 6392   2.911   0.806   2.647  0.0103 -0.1527  0.5033
    1SOL     OW 6393   2.668   0.954   2.702  0.1043 -0.1833  0.1273
    1SOL    HW2 6394   2.636   0.951   2.793  0.8412 -0.8052  0.3664
    1SOL    HW3 6395   2.594   0.925   2.650 -0.3407  0.2191  0.5261
    1SOL    MW4 6396   2.654   0.950   2.707  0.1428 -0.2122  0.2112
    1SOL     OW 6397   2.679   1.216   2.608 -0.2380 -0.4219  0.2752
    1SOL    HW2 6398   2.753   1.266   2.641 -0.2375 -0.5135  0.4149
    1SOL    HW3 6399   2.691   1.128   2.645 -0.1549 -0.5666 -0.0922
    1SOL    MW4 6400   2.690   1.211   2.617 -0.2272 -0.4531  0.2451
    1SOL     OW 6401   2.928   1.324   2.700 -0.0496  0.3931 -0.2209
    1SOL    HW2 6402   2.940   1.303   2.793 -0.1379 -0.0422 -0.3088
    1SOL    HW3 6403   2.998   1.277   2.656  0.0614  0.6930 -0.3637
    1SOL    MW4 6404   2.939   1.315   2.707 -0.0465  0.3754 -0.2513
    1SOL     OW 6405   2.933   1.573   2.597  0.4854  0.3544  0.2168
    1SOL    HW2 6406   2.849   1.618   2.608  0.8845  0.7231  1.7914
    1SOL    HW3 6407   2.919   1.486   2.635  0.8154  0.4169  0.4835
    1SOL    MW4 6408   2.920   1.567   2.603  0.5815  0.4115  0.4599
    1SOL     OW 6409   2.685   1.716   2.641  0.0097 -0.0151  0.3759
    1SOL    HW2 6410   2.699   1.696   2.733  0.1167 -0.0215  0.3584
    1SOL    HW3 6411   2.667   1.810   2.640  0.1516  0.0129  0.3884
    1SOL    MW4 6412   2.685   1.726   2.653  0.0424 -0.0122  0.3753
    1SOL     OW 6413   2.669   1.984   2.624 -0.1347 -0.0167  0.0348
    1SOL    HW2 6414   2.748   2.010   2.671 -0.3339 -2.8514  2.1047
    1SOL    HW3 6415   2.597   2.016   2.679 -0.4205  0.6545 -0.7251
    1SOL    MW4 6416   2.670   1.992   2.638 -0.1988 -0.3023  0.2077
    1SOL     OW 6417   2.940   2.072   2.736 -0.7042 -0.0098  0.1756
    1SOL    HW2 6418   3.010   2.027   2.688 -1.6213 -1.1718 -0.0915
    1SOL    HW3 6419   2.937   2.159   2.696 -0.3562 -0.4201 -0.7763
    1SOL    MW4 6420   2.949   2.078   2.724 -0.7792 -0.2172  0.0148
    1SOL     OW 6421   2.948   2.326   2.630  0.4741  0.0956 -0.0820
    1SOL    HW2 6422   3.023   2.384   2.644  0.5900 -0.3075  1.0065
    1SOL    HW3 6423   2.875   2.370   2.672  0.5472 -0.5029  0.6887
    1SOL    MW4 6424   2.948   2.339   2.638  0.4988 -0.0367  0.1636
    1SOL     OW 6425   2.709   2.428   2.733  0.0437  0.2415  0.2545
    1SOL    HW2 6426   2.721   2.425   2.828  1.9868  0.8949  0.0540
    1SOL    HW3 6427   2.701   2.522   2.713  0.0166  0.1295 -0.2729
    1SOL    MW4 6428   2.710   2.440   2.743  0.2966  0.3128  0.1585
    1SOL     OW 6429   2.742   2.701   2.670 -0.0519  0.4635 -0.1265
    1SOL    HW2 6430   2.809   2.764   2.697 -1.2481  1.3068  0.9180
    1SOL    HW3 6431   2.755   2.692   2.575  1.6335  0.4900  0.0896
    1SOL    MW4 6432   2.753   2.708   2.661  0.0124  0.5779  0.0398
    1SOL     OW 6433   2.947   2.860   2.738 -0.0043  0.4147 -0.0813
    1SOL    HW2 6434   3.024   2.816   2.702 -0.2416  0.1212 -0.2376
    1SOL    HW3 6435   2.952   2.844   2.832 -0.2115 -0.1522 -0.1617
    1SOL    MW4 6436   2.958   2.852   2.745 -0.0627  0.3011 -0.1125
    1SOL     OW 6437   2.916   3.120   2.630 -0.2851 -0.5659 -0.0800
    1SOL    HW2 6438   2.844   3.173   2.665 -0.1120 -0.0086 -0.5664
    1SOL    HW3 6439   2.919   3.043   2.687 -0.5033 -0.0252  0.6693
    1SOL    MW4 6440   2.907   3.117   2.642 -0.2911 -0.4213 -0.0453
    1SOL     OW 6441   2.702   3.274   2.722  0.0559  0.1739  0.1893
    1SOL    HW2 6442   2.706   3.354   2.669 -1.1658  0.7357  0.9152
    1SOL    HW3 6443   2.643   3.216   2.673 -0.1844  0.2661  0.3670
    1SOL    MW4 6444   2.695   3.277   2.708 -0.1369  0.2604  0.3085
    1SOL     OW 6445   2.713   3.537   2.603 -0.0346  0.0852  0.3812
    1SOL    HW2 6446   2.626   3.576   2.613  0.6760  1.5997  0.7910
    1SOL    HW3 6447   2.719   3.517   2.509 -1.8033 -2.4716  0.7373
    1SOL    MW4 6448   2.703   3.539   2.592 -0.1743 -0.0525  0.4823
    1SOL     OW 6449   2.953   3.641   2.749  0.0276 -0.6480  0.1080
    1SOL    HW2 6450   2.950   3.617   2.842 -0.2829  0.2663  0.3386
    1SOL    HW3 6451   2.866   3.616   2.716 -0.0806 -0.4060  0.2078
    1SOL    MW4 6452   2.941   3.634   2.757 -0.0277 -0.4954  0.1516
    1SOL     OW 6453   2.958   3.890   2.592  0.0979 -0.1716  0.2681
    1SOL    HW2 6454   3.023   3.942   2.638  2.8546 -0.6866 -2.8618
    1SOL    HW3 6455   2.945   3.813   2.647 -0.2192  1.3869  2.4310
    1SOL    MW4 6456   2.965   3.887   2.605  0.4199 -0.0341  0.1404
    1SOL     OW 6457   2.740   4.014   2.704  0.2257  0.3277 -0.6192
    1SOL    HW2 6458   2.727   4.108   2.687 -1.5581  0.0899 -0.6929
    1SOL    HW3 6459   2.818   3.991   2.654  1.0456  1.9143 -0.1023
    1SOL    MW4 6460   2.748   4.024   2.695  0.0985  0.5054 -0.5605
    1SOL     OW 6461   2.719   4.273   2.630  0.1132  0.3348 -0.6656
    1SOL    HW2 6462   2.787   4.307   2.688 -0.2645 -0.9977  0.5880
    1SOL    HW3 6463   2.638   4.312   2.663  0.0036  0.2712 -0.8592
    1SOL    MW4 6464   2.717   4.283   2.642  0.0489  0.1497 -0.5257
    1SOL     OW 6465   2.922   4.396   2.754  0.2896 -0.0674 -0.0016
    1SOL    HW2 6466   2.933   4.397   2.849 -0.7106 -0.5274  0.1336
    1SOL    HW3 6467   2.917   4.488   2.729 -0.8355  0.0382  0.5766
    1SOL    MW4 6468   2.923   4.408   2.763  0.0091 -0.1144  0.0925
    1SOL     OW 6469   3.328   4.665   2.599  0.4660  0.0710  0.2136
    1SOL    HW2 6470   3.340   4.581   2.643  0.1778 -0.6784 -1.1165
    1SOL    HW3 6471   3.263   4.711   2.652 -0.9174 -1.3896 -0.2096
    1SOL    MW4 6472   3.321   4.660   2.612  0.2453 -0.2203 -0.0179
    1SOL     OW 6473   3.134   0.160   2.719 -0.3160  0.4040  0.1119
    1SOL    HW2 6474   3.155   0.175   2.812 -1.8251  0.0059  0.5293
    1SOL    HW3 6475   3.132   0.248   2.681  1.6757  0.4835  0.1365
    1SOL    MW4 6476   3.137   0.173   2.726 -0.2520  0.3620  0.1705
    1SOL     OW 6477   3.136   0.418   2.612  0.4990 -0.3027 -0.3923
    1SOL    HW2 6478   3.061   0.464   2.650  1.5725  0.0159  1.3624
    1SOL    HW3 6479   3.113   0.408   2.520 -1.2289  0.7605 -0.0996
    1SOL    MW4 6480   3.123   0.423   2.605  0.4125 -0.1204 -0.1221
    1SOL     OW 6481   3.365   0.516   2.745  0.4476  0.4570 -0.6455
    1SOL    HW2 6482   3.364   0.611   2.732 -0.0778  0.5408 -0.0168
    1SOL    HW3 6483   3.286   0.485   2.700  0.1679  0.4178 -0.1316
    1SOL    MW4 6484   3.354   0.524   2.737  0.3412  0.4629 -0.4950
    1SOL     OW 6485   3.351   0.777   2.629  0.3035  0.5199  0.3458
    1SOL    HW2 6486   3.440   0.810   2.642 -0.3506  1.8497  1.4990
    1SOL    HW3 6487   3.339   0.778   2.534  1.6295 -0.0071  0.1500
    1SOL    MW4 6488   3.361   0.781   2.618  0.3922  0.6258  0.4721
    1SOL     OW 6489   3.131   0.926   2.707 -0.0772 -0.0784 -0.1308
    1SOL    HW2 6490   3.131   0.915   2.802  1.4978  1.6899  0.0873
    1SOL    HW3 6491   3.208   0.878   2.677 -0.9409 -1.2021 -0.6159
    1SOL    MW4 6492   3.141   0.918   2.716  0.0167  0.0067 -0.1659
    1SOL     OW 6493   3.163   1.165   2.585 -0.0832 -0.8138 -0.1727
    1SOL    HW2 6494   3.150   1.080   2.626  0.2933 -0.9729 -0.3782
    1SOL    HW3 6495   3.181   1.145   2.493  1.0707 -0.5787 -0.0065
    1SOL    MW4 6496   3.164   1.151   2.578  0.1190 -0.8037 -0.1781
    1SOL     OW 6497   3.386   1.262   2.718  0.5309 -0.3595 -0.1482
    1SOL    HW2 6498   3.380   1.234   2.809  0.5826  1.1518  0.3250
    1SOL    HW3 6499   3.306   1.230   2.678 -0.1507  0.1887  0.7622
    1SOL    MW4 6500   3.375   1.254   2.725  0.4480 -0.0877  0.0343
    1SOL     OW 6501   3.374   1.513   2.625 -0.2736 -0.4040  0.2270
    1SOL    HW2 6502   3.299   1.554   2.668 -0.3539  1.2402 -1.4070
    1SOL    HW3 6503   3.375   1.424   2.660 -1.9569  0.0500  1.5555
    1SOL    MW4 6504   3.364   1.507   2.635 -0.5062 -0.1272  0.1864
    1SOL     OW 6505   3.157   1.649   2.736 -0.8200  0.0801  0.5204
    1SOL    HW2 6506   3.076   1.632   2.688 -0.0991  1.1116 -1.1249
    1SOL    HW3 6507   3.133   1.640   2.828 -2.6823 -0.1164  0.0393
    1SOL    MW4 6508   3.143   1.645   2.742 -0.9704  0.1901  0.2398
    1SOL     OW 6509   3.162   1.933   2.653  0.4392 -0.2315 -0.7143
    1SOL    HW2 6510   3.244   1.966   2.691  0.3709 -0.1099 -0.6692
    1SOL    HW3 6511   3.162   1.839   2.672  0.4229 -0.1782 -0.4396
    1SOL    MW4 6512   3.173   1.925   2.661  0.4277 -0.2084 -0.6721
    1SOL     OW 6513   3.404   2.054   2.751 -0.0608  0.0802 -0.0071
    1SOL    HW2 6514   3.394   2.070   2.844 -2.2364  0.8916 -0.3452
    1SOL    HW3 6515   3.392   2.140   2.710  3.0600  0.1419 -0.9338
    1SOL    MW4 6516   3.401   2.067   2.758  0.0639  0.1953 -0.1740
    1SOL     OW 6517   3.344   2.291   2.627  0.5519 -0.1186  0.0271
    1SOL    HW2 6518   3.414   2.354   2.639 -0.8657  1.6306 -0.5522
    1SOL    HW3 6519   3.336   2.282   2.532 -1.2183  1.1214  0.0427
    1SOL    MW4 6520   3.352   2.298   2.616  0.1314  0.2756 -0.0470
    1SOL     OW 6521   3.154   2.486   2.724  0.3291 -0.6452  0.5231
    1SOL    HW2 6522   3.213   2.421   2.685 -1.0258 -1.4891 -0.1386
    1SOL    HW3 6523   3.165   2.473   2.819  1.3281 -0.6762  0.4121
    1SOL    MW4 6524   3.163   2.475   2.732  0.2820 -0.7608  0.4210
    1SOL     OW 6525   3.190   2.745   2.618 -0.2686 -0.0150  0.0626
    1SOL    HW2 6526   3.265   2.783   2.665 -1.1337  0.0083  1.4494
    1SOL    HW3 6527   3.187   2.654   2.649 -0.7225 -0.0573 -0.1108
    1SOL    MW4 6528   3.200   2.738   2.628 -0.4425 -0.0176  0.2227
    1SOL     OW 6529   3.388   2.890   2.761 -0.0952 -0.4891  0.3370
    1SOL    HW2 6530   3.378   2.855   2.850  0.3477  0.4069  0.7449
    1SOL    HW3 6531   3.459   2.839   2.723 -1.0052 -1.6093  0.1172
    1SOL    MW4 6532   3.396   2.879   2.768 -0.1569 -0.5188  0.3619
    1SOL     OW 6533   3.370   3.130   2.632 -0.3612  0.3038  0.0172
    1SOL    HW2 6534   3.371   3.041   2.667  2.1193  0.7513  1.1897
    1SOL    HW3 6535   3.381   3.118   2.537  1.5150 -0.6105  0.3222
    1SOL    MW4 6536   3.371   3.116   2.624  0.2136  0.2420  0.2122
    1SOL     OW 6537   3.150   3.248   2.736  0.4153 -0.0885 -0.1197
    1SOL    HW2 6538   3.235   3.224   2.701  0.5092  1.9958 -1.3964
    1SOL    HW3 6539   3.087   3.205   2.679  0.5812 -1.7271  0.8945
    1SOL    MW4 6540   3.153   3.239   2.724  0.4494 -0.0298 -0.1547
    1SOL     OW 6541   3.143   3.491   2.630 -0.5436  0.3152  0.0529
    1SOL    HW2 6542   3.145   3.406   2.674  1.1698  0.5018  0.3703
    1SOL    HW3 6543   3.066   3.535   2.666 -0.7540 -0.6323  0.7696
    1SOL    MW4 6544   3.133   3.486   2.640 -0.3455  0.2146  0.1895
    1SOL     OW 6545   3.366   3.635   2.723  0.7473  0.3386  0.3397
    1SOL    HW2 6546   3.369   3.614   2.816  0.6555 -0.2137  0.2170
    1SOL    HW3 6547   3.290   3.587   2.690  0.0235  1.5463  0.2309
    1SOL    MW4 6548   3.356   3.626   2.731  0.6394  0.4251  0.3092
    1SOL     OW 6549   3.359   3.900   2.664  0.0969 -0.0717 -0.3686
    1SOL    HW2 6550   3.358   3.805   2.676 -0.9935  0.0098  0.3281
    1SOL    HW3 6551   3.358   3.913   2.569 -0.5052 -0.7654 -0.4606
    1SOL    MW4 6552   3.359   3.889   2.653 -0.1264 -0.1521 -0.2887
    1SOL     OW 6553   3.147   4.031   2.765  0.2870  0.4826  0.1214
    1SOL    HW2 6554   3.155   4.115   2.721  1.0457  0.9581  1.1377
    1SOL    HW3 6555   3.222   3.981   2.735 -0.3722  0.0254 -0.7768
    1SOL    MW4 6556   3.158   4.036   2.755  0.2999  0.4849  0.1369
    1SOL     OW 6557   3.128   4.272   2.631  0.1716  0.3409  0.1748
    1SOL    HW2 6558   3.057   4.329   2.661 -0.5921 -0.5152  0.0201
    1SOL    HW3 6559   3.129   4.283   2.536 -0.8288 -0.8466  0.0031
    1SOL    MW4 6560   3.119   4.281   2.622 -0.0610  0.0710  0.1318
    1SOL     OW 6561   3.364   4.405   2.712  0.2515 -0.5146 -0.5139
    1SOL    HW2 6562   3.365   4.397   2.807  2.8190 -1.1964 -0.5653
    1SOL    HW3 6563   3.282   4.364   2.685  0.8312 -2.9366  1.2275
    1SOL    MW4 6564   3.354   4.398   2.721  0.6669 -0.9241 -0.2911
    1SOL     OW 6565   3.818   4.663   2.634  0.0661  0.4704  0.2797
    1SOL    HW2 6566   3.822   4.572   2.660 -0.1556  0.8753  1.7783
    1SOL    HW3 6567   3.735   4.695   2.671 -0.4271  0.9776 -1.2129
    1SOL    MW4 6568   3.807   4.655   2.642 -0.0281  0.5903  0.2806
    1SOL     OW 6569   3.557   0.102   2.720 -0.2582  0.2322  0.3148
    1SOL    HW2 6570   3.557   0.194   2.692 -2.1891  0.2210  0.2280
    1SOL    HW3 6571   3.481   0.064   2.675  0.1251 -1.2362  0.9072
    1SOL    MW4 6572   3.547   0.109   2.710 -0.4628  0.0370  0.3812
    1SOL     OW 6573   3.565   0.366   2.630  0.1866 -0.0023 -0.2854
    1SOL    HW2 6574   3.646   0.400   2.668 -0.1562 -0.3723  0.7854
    1SOL    HW3 6575   3.496   0.421   2.667 -0.0137  0.6038 -1.5494
    1SOL    MW4 6576   3.567   0.378   2.640  0.1149  0.0288 -0.3107
    1SOL     OW 6577   3.826   0.485   2.725  0.2153  0.8256 -0.2858
    1SOL    HW2 6578   3.834   0.478   2.820 -0.2107 -0.4982 -0.3342
    1SOL    HW3 6579   3.903   0.440   2.690  0.0055  0.6829 -0.5704
    1SOL    MW4 6580   3.837   0.478   2.733  0.1316  0.6321 -0.3300
    1SOL     OW 6581   3.807   0.752   2.599  0.4102 -0.0011  0.2343
    1SOL    HW2 6582   3.737   0.799   2.645 -0.0592  1.2967 -1.7484
    1SOL    HW3 6583   3.806   0.664   2.638 -1.3298  0.4415  1.2737
    1SOL    MW4 6584   3.797   0.746   2.610  0.1187  0.2285  0.1101
    1SOL     OW 6585   3.594   0.890   2.689  0.0356 -0.1443  0.0989
    1SOL    HW2 6586   3.578   0.897   2.783 -1.1413 -1.9748  0.0562
    1SOL    HW3 6587   3.595   0.981   2.658 -0.3535  0.4302  1.7464
    1SOL    MW4 6588   3.592   0.903   2.697 -0.1709 -0.3101  0.3104
    1SOL     OW 6589   3.612   1.148   2.621 -0.0724  0.2862  0.0110
    1SOL    HW2 6590   3.673   1.199   2.674 -0.8096  0.0530  1.1159
    1SOL    HW3 6591   3.525   1.174   2.653 -0.4774 -1.3509  0.3311
    1SOL    MW4 6592   3.608   1.158   2.632 -0.2232  0.0395  0.1991
    1SOL     OW 6593   3.817   1.277   2.753  0.1311  0.3541 -0.0367
    1SOL    HW2 6594   3.878   1.236   2.691 -1.2021 -0.8757 -0.5701
    1SOL    HW3 6595   3.795   1.361   2.713  0.9046  0.4738 -0.2086
    1SOL    MW4 6596   3.822   1.282   2.740  0.0570  0.2077 -0.1297
    1SOL     OW 6597   3.799   1.511   2.603  0.1141  0.1648  0.1860
    1SOL    HW2 6598   3.874   1.551   2.648 -0.3860  0.8644  0.3997
    1SOL    HW3 6599   3.723   1.559   2.635 -0.3347  0.1099 -0.7799
    1SOL    MW4 6600   3.799   1.522   2.613 -0.0110  0.2497  0.0865
    1SOL     OW 6601   3.594   1.627   2.757  0.0572 -0.1297  0.5074
    1SOL    HW2 6602   3.598   1.717   2.725 -0.2525 -0.3096 -0.0351
    1SOL    HW3 6603   3.520   1.588   2.711 -0.5620 -0.3065  1.6482
    1SOL    MW4 6604   3.585   1.634   2.747 -0.0653 -0.1768  0.5860
    1SOL     OW 6605   3.594   1.882   2.634 -0.4883  0.3853 -0.2029
    1SOL    HW2 6606   3.537   1.941   2.684 -0.3661  0.6757 -0.4078
    1SOL    HW3 6607   3.566   1.893   2.543 -0.5630  0.0179 -0.2282
    1SOL    MW4 6608   3.582   1.891   2.629 -0.4818  0.3753 -0.2332
    1SOL     OW 6609   3.829   2.045   2.734 -0.3523 -0.1621  0.4920
    1SOL    HW2 6610   3.898   2.002   2.685  0.5421 -0.2863  1.8381
    1SOL    HW3 6611   3.750   1.995   2.714  0.3698 -1.4169  0.7373
    1SOL    MW4 6612   3.827   2.033   2.725 -0.1390 -0.3440  0.7019
    1SOL     OW 6613   3.778   2.312   2.686 -0.1159  0.6983 -0.3814
    1SOL    HW2 6614   3.789   2.220   2.709 -0.4895  0.9599  0.8615
    1SOL    HW3 6615   3.783   2.314   2.590  0.7776 -0.4901 -0.3621
    1SOL    MW4 6616   3.780   2.300   2.676 -0.0472  0.5760 -0.2148
    1SOL     OW 6617   3.537   2.464   2.743 -0.2442 -0.1226  0.2390
    1SOL    HW2 6618   3.532   2.456   2.838 -1.3978  0.5508  0.2445
    1SOL    HW3 6619   3.604   2.400   2.717  0.3193 -0.0715  1.5242
    1SOL    MW4 6620   3.545   2.454   2.752 -0.3219 -0.0269  0.4094
    1SOL     OW 6621   3.583   2.738   2.651 -0.2313 -0.3149 -0.5381
    1SOL    HW2 6622   3.581   2.647   2.682 -0.0217 -0.3745 -0.6991
    1SOL    HW3 6623   3.578   2.730   2.556  1.8709 -0.2422 -0.6779
    1SOL    MW4 6624   3.582   2.725   2.643  0.0737 -0.3133 -0.5779
    1SOL     OW 6625   3.802   2.854   2.752  0.4366 -0.4932  0.3636
    1SOL    HW2 6626   3.874   2.812   2.705  0.5265 -0.0168  0.0666
    1SOL    HW3 6627   3.723   2.810   2.719  0.5145 -0.2883 -0.0986
    1SOL    MW4 6628   3.801   2.843   2.741  0.4585 -0.4034  0.2635
    1SOL     OW 6629   3.830   3.127   2.685  0.1579 -0.0232 -0.1237
    1SOL    HW2 6630   3.745   3.169   2.701  0.1082 -0.2337  0.1675
    1SOL    HW3 6631   3.813   3.034   2.697  0.4040 -0.0764 -0.1953
    1SOL    MW4 6632   3.816   3.121   2.688  0.1841 -0.0579 -0.0949
    1SOL     OW 6633   3.591   3.247   2.762  0.5903 -0.1835 -0.0014
    1SOL    HW2 6634   3.592   3.331   2.716 -1.3210 -0.1359 -0.0092
    1SOL    HW3 6635   3.518   3.199   2.723 -0.1381 -0.7244  1.9337
    1SOL    MW4 6636   3.582   3.252   2.751  0.2420 -0.2484  0.2527
    1SOL     OW 6637   3.588   3.491   2.641 -0.3321 -0.2244 -0.4041
    1SOL    HW2 6638   3.645   3.558   2.680 -0.5770  1.4816 -2.8375
    1SOL    HW3 6639   3.500   3.528   2.648 -0.6529 -0.9809 -0.4256
    1SOL    MW4 6640   3.584   3.505   2.647 -0.4067 -0.0992 -0.7279
    1SOL     OW 6641   3.799   3.659   2.730  0.1683  0.4837 -0.3349
    1SOL    HW2 6642   3.877   3.612   2.700 -0.7423 -0.4238 -1.3426
    1SOL    HW3 6643   3.804   3.744   2.686  1.0478  0.7689  0.3109
    1SOL    MW4 6644   3.810   3.664   2.720  0.1640  0.4017 -0.3827
    1SOL     OW 6645   3.785   3.912   2.609 -0.2181 -0.1931  0.0945
    1SOL    HW2 6646   3.862   3.957   2.642  1.1605 -1.9924 -0.5370
    1SOL    HW3 6647   3.714   3.938   2.667  0.8034  1.7169  0.5052
    1SOL    MW4 6648   3.786   3.921   2.621  0.0987 -0.1786  0.0653
    1SOL     OW 6649   3.586   4.013   2.791 -0.4330 -0.2485 -0.1990
    1SOL    HW2 6650   3.583   4.103   2.759 -0.9872 -0.3615 -0.4641
    1SOL    HW3 6651   3.509   3.971   2.752  0.0217 -0.9297 -0.3635
    1SOL    MW4 6652   3.575   4.019   2.782 -0.4466 -0.3529 -0.2558
    1SOL     OW 6653   3.585   4.246   2.619  0.2380 -0.5544  0.1116
    1SOL    HW2 6654   3.522   4.310   2.652  2.3040  1.4400  0.3166
    1SOL    HW3 6655   3.584   4.258   2.524  0.2325 -0.6317  0.1015
    1SOL    MW4 6656   3.576   4.256   2.611  0.5100 -0.3018  0.1376
    1SOL     OW 6657   3.819   4.399   2.695 -0.3415 -0.7758 -0.0803
    1SOL    HW2 6658   3.901   4.357   2.667 -0.9695 -1.6671 -0.5864
    1SOL    HW3 6659   3.750   4.337   2.671 -1.2718  0.4857 -0.7041
    1SOL    MW4 6660   3.821   4.385   2.688 -0.5472 -0.7262 -0.2294
    1SOL     OW 6661   4.320   4.660   2.598 -0.7377 -0.3159  0.5252
    1SOL    HW2 6662   4.238   4.710   2.604  0.2492  1.4441 -0.0621
    1SOL    HW3 6663   4.385   4.717   2.638  1.0303  0.2815 -2.9726
    1SOL    MW4 6664   4.317   4.674   2.604 -0.3743 -0.0043 -0.0138
    1SOL     OW 6665   4.089   0.097   2.687  0.2550  0.3966 -0.3044
    1SOL    HW2 6666   4.091   0.132   2.776  0.5472  0.3547 -0.2913
    1SOL    HW3 6667   4.012   0.041   2.684  0.7692 -0.3560  0.2102
    1SOL    MW4 6668   4.079   0.094   2.698  0.3619  0.2918 -0.2346
    1SOL     OW 6669   4.065   0.362   2.607 -0.1024  0.1999  0.0751
    1SOL    HW2 6670   4.076   0.267   2.610  1.5903  0.4121  1.1202
    1SOL    HW3 6671   4.061   0.382   2.513  0.5197 -0.7955 -0.1747
    1SOL    MW4 6672   4.066   0.352   2.595  0.2022  0.0966  0.1802
    1SOL     OW 6673   4.257   0.517   2.714 -0.0475 -0.3718  0.1281
    1SOL    HW2 6674   4.184   0.455   2.718  0.4934 -0.9660  0.9508
    1SOL    HW3 6675   4.316   0.481   2.647  0.5533 -1.0705  1.0243
    1SOL    MW4 6676   4.255   0.504   2.705  0.1030 -0.5423  0.3548
    1SOL     OW 6677   4.255   0.776   2.623  0.1135  0.1360 -0.3435
    1SOL    HW2 6678   4.238   0.686   2.651 -0.9030  0.3355 -0.3318
    1SOL    HW3 6679   4.275   0.768   2.530  0.2657 -0.1306 -0.2895
    1SOL    MW4 6680   4.256   0.763   2.614 -0.0010  0.1271 -0.3350
    1SOL     OW 6681   4.019   0.889   2.724  0.1182 -0.2719 -0.2369
    1SOL    HW2 6682   4.097   0.852   2.682 -0.9391 -2.7283 -0.0756
    1SOL    HW3 6683   3.947   0.832   2.697 -1.5692  1.6593  0.0461
    1SOL    MW4 6684   4.020   0.877   2.715 -0.2446 -0.3412 -0.1781
    1SOL     OW 6685   4.014   1.163   2.635 -1.1710  0.0964 -0.2757
    1SOL    HW2 6686   4.099   1.202   2.654 -1.9357  2.2365 -1.1544
    1SOL    HW3 6687   4.011   1.084   2.689  0.1632  1.5655  1.9978
    1SOL    MW4 6688   4.025   1.158   2.645 -1.0953  0.5726 -0.0918
    1SOL     OW 6689   4.258   1.289   2.711  0.0712  0.0520  0.1945
    1SOL    HW2 6690   4.250   1.382   2.687 -0.8265 -0.1782 -0.4333
    1SOL    HW3 6691   4.342   1.262   2.672 -0.9328 -0.0740 -1.9621
    1SOL    MW4 6692   4.268   1.298   2.702 -0.1798  0.0050 -0.1729
    1SOL     OW 6693   4.257   1.569   2.642  0.6528  0.1806 -0.1676
    1SOL    HW2 6694   4.348   1.577   2.672  0.8513 -0.5911 -0.5598
    1SOL    HW3 6695   4.262   1.585   2.548  0.0961  2.1192  0.1056
    1SOL    MW4 6696   4.270   1.572   2.634  0.6056  0.3347 -0.1833
    1SOL     OW 6697   3.999   1.648   2.729 -0.0704 -0.7324 -0.1849
    1SOL    HW2 6698   4.010   1.654   2.823 -0.1568  0.5563 -0.2494
    1SOL    HW3 6699   4.085   1.620   2.696 -0.1326 -1.4960  0.2966
    1SOL    MW4 6700   4.012   1.645   2.737 -0.0896 -0.6632 -0.1302
    1SOL     OW 6701   4.035   1.903   2.636 -0.4274  0.5629 -0.1879
    1SOL    HW2 6702   4.103   1.948   2.685  0.6387  1.1202 -2.1469
    1SOL    HW3 6703   4.024   1.819   2.682  0.2038  1.2604  1.2666
    1SOL    MW4 6704   4.042   1.898   2.648 -0.2036  0.7285 -0.2544
    1SOL     OW 6705   4.206   2.057   2.783  0.3126  0.2158 -0.3201
    1SOL    HW2 6706   4.223   2.145   2.749  0.1307  0.4517  0.2033
    1SOL    HW3 6707   4.290   2.012   2.777  0.6179  0.7072  0.2475
    1SOL    MW4 6708   4.219   2.063   2.777  0.3295  0.3119 -0.1764
    1SOL     OW 6709   4.247   2.319   2.662  0.2426 -0.2894 -0.0360
    1SOL    HW2 6710   4.167   2.352   2.703  0.2361 -1.3740  0.8417
    1SOL    HW3 6711   4.230   2.327   2.568 -0.3768  0.7024  0.1493
    1SOL    MW4 6712   4.234   2.324   2.655  0.1607 -0.3016  0.1042
    1SOL     OW 6713   4.000   2.484   2.764  0.4967 -0.0671  0.2607
    1SOL    HW2 6714   4.004   2.481   2.859  1.4220 -0.9070  0.2016
    1SOL    HW3 6715   3.931   2.421   2.741 -0.3212  0.7645  0.4080
    1SOL    MW4 6716   3.991   2.475   2.773  0.5109 -0.0679  0.2723
    1SOL     OW 6717   4.004   2.731   2.623 -0.0579 -0.1080 -0.0422
    1SOL    HW2 6718   4.085   2.776   2.647  0.7566 -0.1122 -2.6468
    1SOL    HW3 6719   4.010   2.646   2.665  0.8852  0.2226  0.5042
    1SOL    MW4 6720   4.015   2.726   2.631  0.1740 -0.0648 -0.3135
    1SOL     OW 6721   4.251   2.857   2.734  0.1557 -0.3791 -0.0587
    1SOL    HW2 6722   4.267   2.882   2.825 -1.5228  0.6033 -0.0094
    1SOL    HW3 6723   4.249   2.939   2.686  0.1637 -0.8302 -0.8432
    1SOL    MW4 6724   4.253   2.871   2.739 -0.0639 -0.3088 -0.1557
    1SOL     OW 6725   4.257   3.098   2.610  0.1857  0.3373  0.2303
    1SOL    HW2 6726   4.189   3.144   2.659 -0.1437 -0.1610  0.2406
    1SOL    HW3 6727   4.238   3.116   2.518 -0.8504 -1.0229  0.1559
    1SOL    MW4 6728   4.246   3.106   2.605  0.0057  0.0918  0.2220
    1SOL     OW 6729   4.075   3.253   2.750 -0.2126 -0.0740 -0.4903
    1SOL    HW2 6730   4.063   3.347   2.738 -1.0986  0.2818  2.6479
    1SOL    HW3 6731   3.991   3.215   2.726 -0.0534 -0.0029 -1.1619
    1SOL    MW4 6732   4.062   3.261   2.745 -0.3085 -0.0176 -0.1650
    1SOL     OW 6733   4.027   3.508   2.679 -0.3338 -0.7634 -0.1277
    1SOL    HW2 6734   4.104   3.560   2.699 -1.2196  0.4506  0.2040
    1SOL    HW3 6735   4.033   3.492   2.584  0.2281 -0.5365 -0.1327
    1SOL    MW4 6736   4.038   3.513   2.669 -0.3767 -0.5732 -0.0844
    1SOL     OW 6737   4.263   3.635   2.729  0.4352 -0.0005 -0.0346
    1SOL    HW2 6738   4.288   3.636   2.822  0.0491  1.0594  0.0722
    1SOL    HW3 6739   4.323   3.573   2.688 -0.3017 -1.5431  1.1635
    1SOL    MW4 6740   4.274   3.627   2.736  0.2866 -0.0644  0.1376
    1SOL     OW 6741   4.291   3.872   2.599  0.1063 -0.2831 -0.1078
    1SOL    HW2 6742   4.298   3.787   2.643  1.3271 -0.4005 -0.5250
    1SOL    HW3 6743   4.366   3.922   2.630 -0.9456  0.8883  0.6255
    1SOL    MW4 6744   4.302   3.868   2.609  0.1287 -0.1440 -0.0660
    1SOL     OW 6745   4.046   3.980   2.689 -0.0827 -0.4105 -0.4291
    1SOL    HW2 6746   4.042   3.961   2.783  0.9765  0.6280 -0.1606
    1SOL    HW3 6747   4.130   3.944   2.661  0.0026  0.0678 -0.7896
    1SOL    MW4 6748   4.056   3.973   2.698  0.0682 -0.2103 -0.4408
    1SOL     OW 6749   4.070   4.257   2.625  0.3502  0.1657  0.1964
    1SOL    HW2 6750   4.066   4.165   2.652 -2.6063  0.4752  1.0505
    1SOL    HW3 6751   4.058   4.254   2.530  1.8710 -0.4179  0.0212
    1SOL    MW4 6752   4.068   4.244   2.616  0.1607  0.1292  0.2859
    1SOL     OW 6753   4.279   4.382   2.746 -0.0531 -0.1251  0.2558
    1SOL    HW2 6754   4.206   4.344   2.698  1.4478 -1.4825 -1.0354
    1SOL    HW3 6755   4.294   4.467   2.704  0.2997 -0.6647 -0.7308
    1SOL    MW4 6756   4.272   4.388   2.734  0.1917 -0.3753 -0.0448
    1SOL     OW 6757   0.244   0.005   3.123 -0.0911  0.6205  0.4468
    1SOL    HW2 6758   0.247  -0.011   3.218 -0.1438 -0.9261  0.2071
    1SOL    HW3 6759   0.162   0.052   3.109 -0.6321 -0.1469  1.0359
    1SOL    MW4 6760   0.234   0.009   3.134 -0.1694  0.3157  0.4928
    1SOL     OW 6761   4.482   0.103   3.049 -0.3046  0.0619 -0.1860
    1SOL    HW2 6762   4.406   0.045   3.055 -1.2010  1.3257  1.1042
    1SOL    HW3 6763   4.451   0.188   3.082  2.0703  0.1794  1.9997
    1SOL    MW4 6764   4.468   0.107   3.054 -0.1095  0.2442  0.2723
    1SOL     OW 6765   4.452   0.374   3.069  0.6520 -0.0708 -0.2362
    1SOL    HW2 6766   4.459   0.388   3.164  0.9316  0.4186 -0.3260
    1SOL    HW3 6767   4.374   0.423   3.044 -0.0024 -1.0431 -0.0967
    1SOL    MW4 6768   4.443   0.382   3.078  0.6022 -0.1345 -0.2294
    1SOL     OW 6769   0.195   0.464   2.956  0.1264  0.2609 -0.1923
    1SOL    HW2 6770   0.264   0.427   3.012 -0.1099 -0.3821 -0.3174
    1SOL    HW3 6771   0.113   0.440   3.000  0.0046  2.0828  0.6101
    1SOL    MW4 6772   0.193   0.456   2.969  0.0792  0.4164 -0.1028
    1SOL     OW 6773   0.218   0.724   3.078  0.3540 -0.3794  0.5254
    1SOL    HW2 6774   0.239   0.720   3.171 -0.9366  0.7319  0.8688
    1SOL    HW3 6775   0.200   0.634   3.053  2.4043 -0.9272  0.9444
    1SOL    MW4 6776   0.219   0.712   3.087  0.4542 -0.3051  0.6261
    1SOL     OW 6777   4.468   0.870   3.028  0.3433  0.0934 -0.2676
    1SOL    HW2 6778   4.551   0.826   3.043  0.1386 -0.1166  0.2648
    1SOL    HW3 6779   4.470   0.896   2.936  1.6556  1.4912  0.1523
    1SOL    MW4 6780   4.479   0.867   3.018  0.4892  0.2501 -0.1419
    1SOL     OW 6781   0.006   1.132   3.112  0.0762  0.3092  0.4782
    1SOL    HW2 6782  -0.069   1.171   3.067 -1.3662  0.0300  2.5818
    1SOL    HW3 6783   0.007   1.041   3.083 -0.2645  0.3749  0.2545
    1SOL    MW4 6784  -0.004   1.125   3.102 -0.1591  0.2810  0.7260
    1SOL     OW 6785   0.200   1.291   3.013  0.3440 -0.5076 -0.3156
    1SOL    HW2 6786   0.133   1.235   3.051  0.5405 -0.1243  0.6190
    1SOL    HW3 6787   0.179   1.295   2.919 -0.9243 -0.4076 -0.0325
    1SOL    MW4 6788   0.188   1.284   3.005  0.2025 -0.4438 -0.1547
    1SOL     OW 6789   0.212   1.537   3.120  0.2994 -0.7184  0.0298
    1SOL    HW2 6790   0.135   1.585   3.090  0.6747 -1.0001 -1.4053
    1SOL    HW3 6791   0.200   1.449   3.085  1.4130 -0.6841 -0.4438
    1SOL    MW4 6792   0.200   1.532   3.112  0.4959 -0.7510 -0.2220
    1SOL     OW 6793   4.469   1.650   3.043 -0.0038 -0.1697 -0.2137
    1SOL    HW2 6794   4.407   1.597   3.094  0.8228 -1.0417 -0.0894
    1SOL    HW3 6795   4.466   1.737   3.083 -0.3207 -0.5091  0.4985
    1SOL    MW4 6796   4.460   1.654   3.055  0.0629 -0.3296 -0.1032
    1SOL     OW 6797   4.491   1.899   3.151  0.3044  0.2417  0.3338
    1SOL    HW2 6798   4.423   1.956   3.113 -0.5431 -1.0143 -0.0753
    1SOL    HW3 6799   4.571   1.924   3.105 -0.1067  0.9062 -0.0466
    1SOL    MW4 6800   4.492   1.910   3.140  0.1388  0.1636  0.2294
    1SOL     OW 6801   0.203   2.014   3.005 -0.0820 -0.1234 -0.0881
    1SOL    HW2 6802   0.199   2.103   3.040 -1.2402 -0.6128  1.0615
    1SOL    HW3 6803   0.209   2.025   2.911  0.3934  1.1882  0.0979
    1SOL    MW4 6804   0.203   2.027   2.997 -0.1721 -0.0150  0.0880
    1SOL     OW 6805   0.196   2.272   3.112  0.0899 -0.2262 -0.0012
    1SOL    HW2 6806   0.197   2.275   3.208 -0.3514  0.1415 -0.0121
    1SOL    HW3 6807   0.260   2.338   3.086 -0.8756  0.7096  0.0079
    1SOL    MW4 6808   0.205   2.281   3.121 -0.0957 -0.0541 -0.0017
    1SOL     OW 6809   0.015   2.432   3.000 -0.2960  0.3843  0.1161
    1SOL    HW2 6810   0.024   2.517   3.043  0.5424 -0.0577  0.8248
    1SOL    HW3 6811   0.080   2.376   3.043  0.5026 -0.0983 -1.6640
    1SOL    MW4 6812   0.025   2.436   3.012 -0.0800  0.2623 -0.0255
    1SOL     OW 6813   4.484   2.682   3.126 -0.4539 -0.0104 -0.3234
    1SOL    HW2 6814   4.481   2.684   3.222 -1.9198 -0.8892 -0.3378
    1SOL    HW3 6815   4.547   2.751   3.103  0.1039  0.0433  1.2692
    1SOL    MW4 6816   4.492   2.691   3.135 -0.5741 -0.1192 -0.1152
    1SOL     OW 6817   0.202   2.821   3.024  0.8345 -0.2871 -0.1782
    1SOL    HW2 6818   0.286   2.786   3.053  0.2364 -2.0007 -0.4242
    1SOL    HW3 6819   0.212   2.829   2.929 -0.0549 -2.8186 -0.5365
    1SOL    MW4 6820   0.214   2.817   3.015  0.6383 -0.8473 -0.2577
    1SOL     OW 6821   0.226   3.090   3.112 -0.1084 -0.8472 -0.0049
    1SOL    HW2 6822   0.151   3.131   3.068 -0.6555 -0.1264  1.5644
    1SOL    HW3 6823   0.218   2.997   3.090 -1.5423 -0.7973  0.2344
    1SOL    MW4 6824   0.215   3.083   3.103 -0.3698 -0.7455  0.2339
    1SOL     OW 6825   4.482   3.210   2.997 -0.2853 -0.5044  0.3320
    1SOL    HW2 6826   4.407   3.167   3.038 -0.4971  0.0259  0.4979
    1SOL    HW3 6827   4.459   3.215   2.904 -0.6060 -0.0195  0.4387
    1SOL    MW4 6828   4.469   3.205   2.990 -0.3557 -0.3707  0.3681
    1SOL     OW 6829   0.002   3.453   3.118  0.4657  0.0682 -0.6013
    1SOL    HW2 6830  -0.067   3.507   3.080 -0.9681 -1.0227  0.4423
    1SOL    HW3 6831  -0.006   3.369   3.074  1.5224  0.1035 -0.8897
    1SOL    MW4 6832  -0.008   3.449   3.107  0.4158 -0.0710 -0.5014
    1SOL     OW 6833   0.231   3.571   3.002 -0.0091  0.1489 -0.3337
    1SOL    HW2 6834   0.227   3.663   3.026 -1.0060  0.4169 -1.4768
    1SOL    HW3 6835   0.160   3.530   3.050 -1.3935  0.5135 -2.0096
    1SOL    MW4 6836   0.221   3.578   3.011 -0.3233  0.2325 -0.7060
    1SOL     OW 6837   0.223   3.842   3.095 -0.0852 -0.1429  0.7745
    1SOL    HW2 6838   0.227   3.858   3.189  3.0174  0.0187  0.6555
    1SOL    HW3 6839   0.302   3.884   3.060 -1.7211  0.7128 -2.0457
    1SOL    MW4 6840   0.234   3.850   3.102  0.1083 -0.0086  0.3865
    1SOL     OW 6841   0.000   4.005   3.012 -0.2073 -0.1159  0.1557
    1SOL    HW2 6842   0.075   3.949   3.034  0.0415  0.3637  0.5500
    1SOL    HW3 6843   0.007   4.017   2.917 -1.0057 -1.8007 -0.1391
    1SOL    MW4 6844   0.011   3.999   3.002 -0.2794 -0.2749  0.1686
    1SOL     OW 6845   0.025   4.267   3.076  0.5159 -0.0951 -0.3027
    1SOL    HW2 6846   0.023   4.257   3.171  0.4058 -0.1902 -0.3146
    1SOL    HW3 6847   0.020   4.177   3.043 -2.5459  0.0930 -0.4497
    1SOL    MW4 6848   0.024   4.254   3.084  0.0974 -0.0830 -0.3238
    1SOL     OW 6849   0.245   4.410   2.998 -0.0266  0.0676 -0.0963
    1SOL    HW2 6850   0.157   4.381   3.022 -0.6997  1.3356 -0.9806
    1SOL    HW3 6851   0.250   4.500   3.028  1.3742 -0.3325  0.9224
    1SOL    MW4 6852   0.234   4.418   3.005  0.0694  0.1817 -0.0789
    1SOL     OW 6853   0.703   4.656   3.105 -0.0142 -0.0545 -0.2662
    1SOL    HW2 6854   0.693   4.568   3.068  0.2108 -0.2834  0.2055
    1SOL    HW3 6855   0.619   4.699   3.089 -0.5192 -0.7417  0.4922
    1SOL    MW4 6856   0.691   4.650   3.098 -0.0511 -0.1755 -0.1037
    1SOL     OW 6857   0.478   0.118   3.037  0.0035 -0.0305  0.2875
    1SOL    HW2 6858   0.479   0.211   3.058  1.8528 -0.3517  1.7997
    1SOL    HW3 6859   0.392   0.088   3.066 -0.5356  1.1633 -0.0568
    1SOL    MW4 6860   0.467   0.126   3.044  0.1764  0.0846  0.4418
    1SOL     OW 6861   0.438   0.384   3.091 -0.0987  0.6087  0.7408
    1SOL    HW2 6862   0.461   0.381   3.184  0.4389  1.2017  0.6324
    1SOL    HW3 6863   0.511   0.430   3.050  0.0832 -0.4471 -0.1162
    1SOL    MW4 6864   0.450   0.390   3.098 -0.0038  0.5477  0.6135
    1SOL     OW 6865   0.675   0.487   3.007  0.2314 -0.0562 -0.2024
    1SOL    HW2 6866   0.748   0.435   3.039 -0.2106  0.8830  2.4919
    1SOL    HW3 6867   0.690   0.574   3.044 -2.0256  0.2483  0.0621
    1SOL    MW4 6868   0.686   0.492   3.016 -0.1247  0.1079  0.1876
    1SOL     OW 6869   0.684   0.764   3.080 -0.4260 -0.0561 -0.1515
    1SOL    HW2 6870   0.685   0.769   3.176 -0.8562  1.2182 -0.2019
    1SOL    HW3 6871   0.764   0.810   3.053 -0.9991  0.7673 -0.4470
    1SOL    MW4 6872   0.695   0.771   3.090 -0.5583  0.2207 -0.1967
    1SOL     OW 6873   0.445   0.894   3.017 -0.3310  0.9020 -0.2081
    1SOL    HW2 6874   0.373   0.840   3.049 -1.0622  2.8636  1.5867
    1SOL    HW3 6875   0.524   0.843   3.036 -1.2135 -1.3201 -2.2959
    1SOL    MW4 6876   0.446   0.881   3.024 -0.5439  0.8677 -0.2465
    1SOL     OW 6877   0.444   1.145   3.123 -0.6929  0.0193 -0.2695
    1SOL    HW2 6878   0.456   1.057   3.089  0.5768  1.0988 -2.6935
    1SOL    HW3 6879   0.360   1.174   3.086  0.5390  1.0756 -2.3168
    1SOL    MW4 6880   0.434   1.137   3.114 -0.3628  0.3011 -0.8595
    1SOL     OW 6881   0.676   1.282   3.022 -0.1793 -0.2195 -0.0124
    1SOL    HW2 6882   0.748   1.223   3.043  0.6476  0.0196 -2.0293
    1SOL    HW3 6883   0.601   1.247   3.070  0.5271 -2.3602 -0.4321
    1SOL    MW4 6884   0.675   1.270   3.031  0.0230 -0.4704 -0.3338
    1SOL     OW 6885   0.726   1.544   3.116  0.3255 -0.5052  0.2001
    1SOL    HW2 6886   0.714   1.544   3.211  1.0269  0.3912  0.2941
    1SOL    HW3 6887   0.716   1.452   3.091 -1.1542 -0.5685  0.9647
    1SOL    MW4 6888   0.724   1.532   3.125  0.2228 -0.3954  0.3135
    1SOL     OW 6889   0.462   1.652   3.064 -0.2252 -0.4038  0.0099
    1SOL    HW2 6890   0.534   1.614   3.113  0.0297  3.3329  2.7942
    1SOL    HW3 6891   0.384   1.605   3.095  0.3567 -0.4548  1.4279
    1SOL    MW4 6892   0.461   1.641   3.075 -0.1148  0.0826  0.5646
    1SOL     OW 6893   0.426   1.919   3.133 -0.7637 -0.1532 -0.1386
    1SOL    HW2 6894   0.421   1.829   3.101 -0.7683  0.0920 -0.8421
    1SOL    HW3 6895   0.347   1.961   3.098 -0.1978  0.4163 -0.7442
    1SOL    MW4 6896   0.415   1.913   3.124 -0.6897 -0.0457 -0.3114
    1SOL     OW 6897   0.675   2.030   3.028  0.3136 -0.3240 -0.2762
    1SOL    HW2 6898   0.752   2.006   3.078 -0.0069 -0.7232  0.0286
    1SOL    HW3 6899   0.602   1.991   3.076 -0.0945  0.2095 -0.4555
    1SOL    MW4 6900   0.675   2.022   3.041  0.2174 -0.3064 -0.2596
    1SOL     OW 6901   0.628   2.302   3.112 -0.3287 -0.3446  0.5063
    1SOL    HW2 6902   0.644   2.310   3.206  0.1398  0.1755  0.3821
    1SOL    HW3 6903   0.632   2.208   3.095 -1.5946 -0.5452  1.2104
    1SOL    MW4 6904   0.630   2.291   3.122 -0.4339 -0.3026  0.5829
    1SOL     OW 6905   0.407   2.454   3.045 -0.0817  0.0633  0.4376
    1SOL    HW2 6906   0.481   2.401   3.075 -1.4601 -1.5447  1.1386
    1SOL    HW3 6907   0.429   2.479   2.956  0.1680 -2.6260 -0.3102
    1SOL    MW4 6908   0.419   2.450   3.037 -0.2306 -0.5035  0.4315
    1SOL     OW 6909   0.430   2.719   3.157 -0.0926  0.2329  0.2719
    1SOL    HW2 6910   0.507   2.756   3.115 -0.7034  0.5226 -0.6091
    1SOL    HW3 6911   0.430   2.627   3.132  1.0578 -0.2461  1.9164
    1SOL    MW4 6912   0.440   2.712   3.148 -0.0214  0.2079  0.3726
    1SOL     OW 6913   0.643   2.811   3.011 -0.2142 -0.0372  0.2703
    1SOL    HW2 6914   0.726   2.775   3.045  0.2798 -0.7483 -1.6333
    1SOL    HW3 6915   0.652   2.906   3.023  0.5978 -0.1571  0.6985
    1SOL    MW4 6916   0.655   2.819   3.017 -0.0419 -0.1466  0.0756
    1SOL     OW 6917   0.696   3.073   3.068 -0.1670 -0.6127 -0.1637
    1SOL    HW2 6918   0.698   3.075   3.164  0.5640  2.1813 -0.1797
    1SOL    HW3 6919   0.614   3.118   3.045 -0.0436 -0.7372 -0.8402
    1SOL    MW4 6920   0.685   3.079   3.078 -0.0543 -0.2604 -0.2549
    1SOL     OW 6921   0.461   3.191   2.996 -0.1204 -0.2449  0.3991
    1SOL    HW2 6922   0.452   3.276   3.038 -0.6631  0.2207 -0.6446
    1SOL    HW3 6923   0.387   3.140   3.030 -0.5197  0.1091  0.0634
    1SOL    MW4 6924   0.450   3.195   3.006 -0.2447 -0.1366  0.2174
    1SOL     OW 6925   0.455   3.431   3.156  0.0861 -0.1260  0.2975
    1SOL    HW2 6926   0.449   3.458   3.248 -0.4968  0.2893  0.1442
    1SOL    HW3 6927   0.370   3.455   3.119 -0.2402 -1.6722  0.0102
    1SOL    MW4 6928   0.443   3.438   3.164 -0.0338 -0.2751  0.2394
    1SOL     OW 6929   0.647   3.600   3.022  0.2569 -0.1525 -0.2338
    1SOL    HW2 6930   0.735   3.572   3.047 -0.1195 -1.0779  0.0872
    1SOL    HW3 6931   0.590   3.531   3.055 -0.5539  0.2433 -0.7960
    1SOL    MW4 6932   0.651   3.587   3.030  0.1003 -0.2224 -0.2656
    1SOL     OW 6933   0.675   3.888   3.092  0.1827  0.2579  0.1428
    1SOL    HW2 6934   0.692   3.889   3.186 -0.1260 -0.4177  0.2063
    1SOL    HW3 6935   0.660   3.796   3.071  0.3448  0.3944 -0.5854
    1SOL    MW4 6936   0.675   3.876   3.102  0.1633  0.1867  0.0553
    1SOL     OW 6937   0.430   4.019   3.036 -0.3872  0.0334  0.8185
    1SOL    HW2 6938   0.515   3.977   3.052 -0.3957  0.1500  1.1715
    1SOL    HW3 6939   0.429   4.035   2.941 -0.7126 -1.4580  0.5599
    1SOL    MW4 6940   0.441   4.016   3.026 -0.4313 -0.1473  0.8309
    1SOL     OW 6941   0.443   4.275   3.131  0.5085 -0.0735 -0.0563
    1SOL    HW2 6942   0.439   4.185   3.099  0.0066  0.1500 -0.6233
    1SOL    HW3 6943   0.365   4.317   3.096 -0.1347  0.1404  1.5934
    1SOL    MW4 6944   0.432   4.269   3.122  0.3574 -0.0157  0.0865
    1SOL     OW 6945   0.662   4.386   3.015 -0.2720 -0.5796 -0.1207
    1SOL    HW2 6946   0.586   4.354   3.063  0.3165 -1.2044  0.4099
    1SOL    HW3 6947   0.634   4.387   2.923 -0.6371 -1.6692 -0.0332
    1SOL    MW4 6948   0.648   4.382   3.009 -0.2425 -0.8054 -0.0393
    1SOL     OW 6949   1.167   4.641   3.121 -0.6760  0.1549  0.2930
    1SOL    HW2 6950   1.244   4.679   3.079 -0.3288 -2.2047 -1.3551
    1SOL    HW3 6951   1.093   4.682   3.077 -0.3243  0.3514 -0.1189
    1SOL    MW4 6952   1.167   4.651   3.110 -0.5836 -0.1307  0.0212
    1SOL     OW 6953   0.944   0.063   2.999  0.0366 -0.0820 -0.4264
    1SOL    HW2 6954   0.946   0.154   3.030 -0.0457  0.0136 -0.6995
    1SOL    HW3 6955   0.860   0.030   3.032  0.5243 -0.3730  0.5464
    1SOL    MW4 6956   0.933   0.071   3.008  0.0901 -0.1078 -0.3343
    1SOL     OW 6957   0.899   0.339   3.077 -0.1819  0.3376 -0.3028
    1SOL    HW2 6958   0.889   0.344   3.172  0.9290 -0.1630 -0.1512
    1SOL    HW3 6959   0.970   0.400   3.057  0.5202 -0.5893 -0.6481
    1SOL    MW4 6960   0.907   0.348   3.087  0.0573  0.1493 -0.3283
    1SOL     OW 6961   1.104   0.515   2.991  0.2209 -0.6208 -0.2793
    1SOL    HW2 6962   1.187   0.474   3.014 -0.4992 -1.5574  0.7477
    1SOL    HW3 6963   1.105   0.522   2.896  0.3090 -3.1743 -0.4870
    1SOL    MW4 6964   1.115   0.511   2.982  0.1374 -1.0813 -0.1712
    1SOL     OW 6965   1.185   0.750   3.134  0.3080 -0.0593 -0.0705
    1SOL    HW2 6966   1.175   0.742   3.229  3.4299 -0.8158  0.2557
    1SOL    HW3 6967   1.151   0.667   3.100 -0.0925 -0.1150  0.4488
    1SOL    MW4 6968   1.179   0.738   3.142  0.6671 -0.1664  0.0408
    1SOL     OW 6969   0.935   0.867   3.010  0.0328  0.1467  0.0354
    1SOL    HW2 6970   0.921   0.953   3.049 -0.0964  0.4547 -0.6696
    1SOL    HW3 6971   1.027   0.847   3.028 -0.0530  0.2406  0.5742
    1SOL    MW4 6972   0.946   0.875   3.017  0.0045  0.1997  0.0134
    1SOL     OW 6973   0.897   1.130   3.108  0.3166 -0.1327 -0.0083
    1SOL    HW2 6974   0.927   1.141   3.199  0.4157 -0.5495  0.0131
    1SOL    HW3 6975   0.959   1.182   3.057  0.6601 -0.4229  0.1035
    1SOL    MW4 6976   0.909   1.138   3.114  0.3751 -0.2259  0.0095
    1SOL     OW 6977   1.114   1.270   2.988 -0.0272  0.4031  0.1498
    1SOL    HW2 6978   1.194   1.232   3.024  0.4307  0.8560 -0.3911
    1SOL    HW3 6979   1.118   1.253   2.894 -1.6887 -1.6306  0.3982
    1SOL    MW4 6980   1.125   1.263   2.981 -0.1861  0.1945  0.1111
    1SOL     OW 6981   1.144   1.524   3.099  0.1845  0.4897 -0.1163
    1SOL    HW2 6982   1.222   1.554   3.053 -0.6087  0.8516 -1.2286
    1SOL    HW3 6983   1.129   1.435   3.066  0.3729  0.2497  0.4274
    1SOL    MW4 6984   1.153   1.516   3.089  0.1048  0.5058 -0.1915
    1SOL     OW 6985   0.952   1.704   3.012  0.0169 -0.0964 -0.3201
    1SOL    HW2 6986   1.025   1.649   3.042  0.2789 -0.0528 -0.8762
    1SOL    HW3 6987   0.874   1.662   3.047  0.3549  0.1862  0.7872
    1SOL    MW4 6988   0.951   1.691   3.021  0.0961 -0.0534 -0.2470
    1SOL     OW 6989   0.934   1.959   3.143 -0.3355 -0.0465 -0.0970
    1SOL    HW2 6990   0.930   1.938   3.236  0.4335  0.1462 -0.0133
    1SOL    HW3 6991   0.954   1.876   3.100  0.1976  0.0311 -0.0034
    1SOL    MW4 6992   0.936   1.946   3.150 -0.1636 -0.0108 -0.0734
    1SOL     OW 6993   1.123   2.085   3.012 -0.2163 -0.3418 -0.3000
    1SOL    HW2 6994   1.050   2.041   3.055  0.6641 -1.3203  0.2110
    1SOL    HW3 6995   1.099   2.089   2.920 -1.0479 -0.3730 -0.0854
    1SOL    MW4 6996   1.110   2.080   3.006 -0.2098 -0.4749 -0.2041
    1SOL     OW 6997   1.141   2.332   3.109 -0.2586  0.0910 -0.3706
    1SOL    HW2 6998   1.055   2.372   3.099 -0.4991 -0.3485 -0.1147
    1SOL    HW3 6999   1.133   2.247   3.066  0.1272  0.1522 -0.5706
    1SOL    MW4 7000   1.129   2.326   3.102 -0.2394  0.0412 -0.3631
    1SOL     OW 7001   0.878   2.426   3.060 -0.7655  0.1700  0.1587
    1SOL    HW2 7002   0.799   2.374   3.076 -0.1381 -0.8307  0.1078
    1SOL    HW3 7003   0.881   2.438   2.965 -1.2059  0.7771  0.2218
    1SOL    MW4 7004   0.868   2.420   3.050 -0.7408  0.1180  0.1602
    1SOL     OW 7005   0.894   2.716   3.119 -0.6548  0.0750 -0.1188
    1SOL    HW2 7006   0.895   2.718   3.215 -1.3051  0.5540 -0.1172
    1SOL    HW3 7007   0.899   2.623   3.097  1.4281  0.0611  0.3434
    1SOL    MW4 7008   0.895   2.704   3.129 -0.4656  0.1361 -0.0575
    1SOL     OW 7009   1.126   2.847   3.000  0.1411 -0.5056  0.1732
    1SOL    HW2 7010   1.123   2.934   3.040  0.1682 -0.7186  0.6461
    1SOL    HW3 7011   1.065   2.795   3.052  0.6023 -0.9339  0.2912
    1SOL    MW4 7012   1.117   2.852   3.013  0.2054 -0.5903  0.2511
    1SOL     OW 7013   1.161   3.110   3.117  0.6217 -0.0412  0.6386
    1SOL    HW2 7014   1.233   3.156   3.076  0.5826  0.4039  1.0625
    1SOL    HW3 7015   1.082   3.157   3.089  0.5532 -0.0694  0.7824
    1SOL    MW4 7016   1.160   3.122   3.108  0.6076  0.0141  0.7138
    1SOL     OW 7017   0.916   3.216   3.002  0.0606  0.2178 -0.1410
    1SOL    HW2 7018   0.836   3.164   3.013 -0.6384  1.0423 -1.1232
    1SOL    HW3 7019   0.930   3.216   2.907  1.8573 -0.8326  0.1125
    1SOL    MW4 7020   0.907   3.209   2.991  0.2055  0.1879 -0.2372
    1SOL     OW 7021   0.889   3.492   3.100 -0.0033  0.2408  0.0626
    1SOL    HW2 7022   0.965   3.536   3.061 -1.3818  0.6953 -2.2409
    1SOL    HW3 7023   0.896   3.401   3.071  0.2926  0.0093  0.8483
    1SOL    MW4 7024   0.900   3.486   3.091 -0.1462  0.2699 -0.1378
    1SOL     OW 7025   1.109   3.628   2.989  0.2373  0.3397 -0.1260
    1SOL    HW2 7026   1.188   3.581   3.016 -0.3516  0.0296  1.0799
    1SOL    HW3 7027   1.125   3.719   3.014  0.1044  0.2308  0.3523
    1SOL    MW4 7028   1.122   3.634   2.996  0.1421  0.2844  0.0961
    1SOL     OW 7029   1.118   3.891   3.101  0.1047  0.0636  0.0374
    1SOL    HW2 7030   1.104   3.883   3.196  0.9355 -0.6710  0.1084
    1SOL    HW3 7031   1.042   3.939   3.070 -0.4901 -0.2296  0.9904
    1SOL    MW4 7032   1.106   3.896   3.110  0.1357 -0.0720  0.1724
    1SOL     OW 7033   0.906   4.021   2.986  0.0935  0.5143  0.1355
    1SOL    HW2 7034   0.828   3.986   3.028  0.9413 -1.1807  0.3667
    1SOL    HW3 7035   0.888   4.013   2.892 -0.5197  1.3270  0.1803
    1SOL    MW4 7036   0.894   4.015   2.979  0.1245  0.3982  0.1719
    1SOL     OW 7037   0.886   4.261   3.104 -0.2711 -0.2465  0.5964
    1SOL    HW2 7038   0.891   4.173   3.066 -0.0144  0.5669 -1.2949
    1SOL    HW3 7039   0.807   4.299   3.065 -0.0859  0.5541  0.9926
    1SOL    MW4 7040   0.876   4.254   3.094 -0.2128 -0.0339  0.3989
    1SOL     OW 7041   1.126   4.414   2.982 -0.3110 -0.4761  0.1861
    1SOL    HW2 7042   1.069   4.357   3.033 -0.1031 -0.7951  0.0651
    1SOL    HW3 7043   1.139   4.491   3.037 -0.9591 -0.3492  0.1602
    1SOL    MW4 7044   1.120   4.417   2.996 -0.3691 -0.5012  0.1667
    1SOL     OW 7045   1.607   4.619   3.108  0.6122  0.0251 -0.2515
    1SOL    HW2 7046   1.623   4.636   3.201 -2.0769 -1.3698  0.5194
    1SOL    HW3 7047   1.532   4.674   3.087  0.5908 -0.4175 -1.3483
    1SOL    MW4 7048   1.599   4.629   3.118  0.2545 -0.2174 -0.2944
    1SOL     OW 7049   1.386   0.090   2.997 -0.1567 -0.0285  0.2715
    1SOL    HW2 7050   1.372   0.184   3.009  2.6670  0.4608  0.1530
    1SOL    HW3 7051   1.389   0.078   2.902  0.6158 -0.0237  0.2883
    1SOL    MW4 7052   1.385   0.101   2.986  0.3179  0.0367  0.2577
    1SOL     OW 7053   1.339   0.350   3.049 -0.0760 -0.2430 -0.0995
    1SOL    HW2 7054   1.340   0.353   3.145 -0.6252  0.2698 -0.1067
    1SOL    HW3 7055   1.414   0.404   3.023 -0.7238  0.7234  0.0222
    1SOL    MW4 7056   1.349   0.358   3.058 -0.2339 -0.0479 -0.0844
    1SOL     OW 7057   1.561   0.511   3.003  0.1588 -0.0272  0.1347
    1SOL    HW2 7058   1.559   0.604   3.027 -0.9910 -0.1860  0.6740
    1SOL    HW3 7059   1.576   0.511   2.909 -0.6084  0.7290  0.0066
    1SOL    MW4 7060   1.563   0.524   2.994 -0.0941  0.0516  0.1888
    1SOL     OW 7061   1.572   0.776   3.075  0.6515 -0.3397  0.1825
    1SOL    HW2 7062   1.560   0.779   3.170  0.3178 -0.7902  0.1564
    1SOL    HW3 7063   1.502   0.832   3.040  1.1343  0.3063  0.2230
    1SOL    MW4 7064   1.561   0.784   3.083  0.6710 -0.3139  0.1843
    1SOL     OW 7065   1.357   0.911   2.996  0.1044 -0.1475  1.1395
    1SOL    HW2 7066   1.349   0.998   3.034 -0.1459  0.6890 -0.7602
    1SOL    HW3 7067   1.302   0.855   3.051 -1.5369  1.3391  1.0392
    1SOL    MW4 7068   1.349   0.915   3.008 -0.1452  0.1590  0.8757
    1SOL     OW 7069   1.340   1.165   3.111 -0.0570 -0.2648  0.0934
    1SOL    HW2 7070   1.353   1.166   3.206  1.2168  0.1072 -0.0832
    1SOL    HW3 7071   1.421   1.200   3.075 -0.7635  0.1578 -1.1144
    1SOL    MW4 7072   1.352   1.170   3.119  0.0179 -0.1600 -0.0887
    1SOL     OW 7073   1.576   1.274   3.000  0.3218  0.6771  0.2775
    1SOL    HW2 7074   1.647   1.227   3.043 -0.0725  1.1378  1.4595
    1SOL    HW3 7075   1.591   1.366   3.022  1.1738  1.1495 -2.1290
    1SOL    MW4 7076   1.587   1.280   3.008  0.3822  0.8001  0.1159
    1SOL     OW 7077   1.605   1.541   3.089  0.1722 -0.2398 -0.1826
    1SOL    HW2 7078   1.680   1.590   3.056  0.9133  0.0634  1.8731
    1SOL    HW3 7079   1.529   1.591   3.059  0.8730  1.1986  0.3796
    1SOL    MW4 7080   1.605   1.554   3.081  0.3626 -0.0101  0.1628
    1SOL     OW 7081   1.365   1.659   2.984 -0.6197  0.1711  0.2020
    1SOL    HW2 7082   1.341   1.747   3.015  0.4884  0.8394 -0.7715
    1SOL    HW3 7083   1.383   1.671   2.891  0.1964 -0.9569  0.2087
    1SOL    MW4 7084   1.365   1.672   2.976 -0.3660  0.1103  0.0744
    1SOL     OW 7085   1.327   1.918   3.069 -0.2619  0.2294  0.2082
    1SOL    HW2 7086   1.314   1.917   3.164 -1.3963  1.4016  0.0709
    1SOL    HW3 7087   1.259   1.975   3.036  0.7502  0.6291 -1.2381
    1SOL    MW4 7088   1.317   1.925   3.078 -0.2782  0.4369 -0.0007
    1SOL     OW 7089   1.564   2.058   3.019 -0.1538  0.2531  0.3855
    1SOL    HW2 7090   1.491   2.000   3.039  0.6380 -1.0046 -0.3117
    1SOL    HW3 7091   1.556   2.075   2.925  1.2043 -0.9721  0.0310
    1SOL    MW4 7092   1.554   2.053   3.009  0.1299 -0.0744  0.2465
    1SOL     OW 7093   1.572   2.346   3.067  0.2064  0.2696 -0.6278
    1SOL    HW2 7094   1.488   2.385   3.040  0.1366 -0.2389 -1.1458
    1SOL    HW3 7095   1.566   2.255   3.040  1.3051  0.4464 -1.5059
    1SOL    MW4 7096   1.560   2.339   3.060  0.3421  0.2260 -0.8123
    1SOL     OW 7097   1.354   2.472   2.978  0.0422  0.2704 -0.0594
    1SOL    HW2 7098   1.273   2.432   3.009  0.5394 -0.2830  0.5361
    1SOL    HW3 7099   1.340   2.485   2.884 -0.7352  0.1937  0.0420
    1SOL    MW4 7100   1.341   2.469   2.969  0.0052  0.1872  0.0324
    1SOL     OW 7101   1.374   2.731   3.083  0.0446  0.2346 -0.6184
    1SOL    HW2 7102   1.370   2.642   3.050  0.4714  0.0462 -0.1694
    1SOL    HW3 7103   1.290   2.770   3.057  0.0404 -0.1590 -1.1921
    1SOL    MW4 7104   1.362   2.725   3.075  0.1005  0.1581 -0.6349
    1SOL     OW 7105   1.573   2.868   2.942  0.4859  0.0121  0.1612
    1SOL    HW2 7106   1.649   2.839   2.993  0.1014  0.0829  0.7718
    1SOL    HW3 7107   1.498   2.834   2.990  0.0627  1.2995  0.4132
    1SOL    MW4 7108   1.573   2.860   2.955  0.3792  0.1915  0.2751
    1SOL     OW 7109   1.602   3.127   3.079 -0.3344  0.1620 -0.0631
    1SOL    HW2 7110   1.590   3.114   3.173 -0.4012  0.0689 -0.0839
    1SOL    HW3 7111   1.617   3.039   3.044 -0.6428  0.1552 -0.1841
    1SOL    MW4 7112   1.602   3.114   3.087 -0.3840  0.1485 -0.0818
    1SOL     OW 7113   1.368   3.237   2.979 -0.3894  0.0340  0.5979
    1SOL    HW2 7114   1.451   3.217   3.022 -0.5369 -0.2893  0.7395
    1SOL    HW3 7115   1.384   3.225   2.886 -0.4092 -0.5033  0.6640
    1SOL    MW4 7116   1.381   3.233   2.973 -0.4115 -0.0796  0.6254
    1SOL     OW 7117   1.332   3.495   3.053  0.1281 -0.4956  0.0376
    1SOL    HW2 7118   1.339   3.472   3.146 -0.2011 -1.9370 -0.2836
    1SOL    HW3 7119   1.358   3.416   3.007  2.0096  0.7472 -1.1175
    1SOL    MW4 7120   1.337   3.482   3.059  0.3328 -0.5219 -0.1574
    1SOL     OW 7121   1.562   3.639   2.980  0.0273  0.3363 -0.2945
    1SOL    HW2 7122   1.490   3.592   3.021  0.9804 -1.5022 -0.6991
    1SOL    HW3 7123   1.545   3.632   2.886  0.7912 -0.2207 -0.3990
    1SOL    MW4 7124   1.550   3.632   2.973  0.2539  0.0203 -0.3617
    1SOL     OW 7125   1.591   3.891   3.088 -0.1742  0.4193  0.3833
    1SOL    HW2 7126   1.667   3.931   3.045 -0.1263  0.6606  0.6840
    1SOL    HW3 7127   1.584   3.804   3.049 -1.5209  1.4547 -1.7762
    1SOL    MW4 7128   1.600   3.885   3.078 -0.3456  0.5877  0.1380
    1SOL     OW 7129   1.352   3.993   2.981  0.0205 -0.0143 -0.1365
    1SOL    HW2 7130   1.422   3.941   3.022  0.0644  0.5354  0.4864
    1SOL    HW3 7131   1.271   3.957   3.017  0.0958  1.0891  1.1742
    1SOL    MW4 7132   1.351   3.981   2.991  0.0364  0.2041  0.1187
    1SOL     OW 7133   1.317   4.244   3.077 -0.3209 -0.4492  0.1260
    1SOL    HW2 7134   1.324   4.160   3.032  0.3989 -0.4304  0.1966
    1SOL    HW3 7135   1.249   4.291   3.030 -0.0074 -0.6763 -0.5567
    1SOL    MW4 7136   1.309   4.239   3.065 -0.1845 -0.4773  0.0451
    1SOL     OW 7137   1.568   4.364   3.008 -0.1526  0.1795 -0.4457
    1SOL    HW2 7138   1.480   4.332   3.028 -0.4992  0.3903 -1.5763
    1SOL    HW3 7139   1.572   4.451   3.048 -0.7458  0.5010 -1.0786
    1SOL    MW4 7140   1.557   4.371   3.016 -0.2766  0.2494 -0.6785
    1SOL     OW 7141   2.045   4.661   3.074 -0.0933  0.2319  0.0898
    1SOL    HW2 7142   2.034   4.667   3.169  1.1244  0.4783  0.2132
    1SOL    HW3 7143   1.966   4.703   3.039 -1.1756 -1.0162  0.9810
    1SOL    MW4 7144   2.033   4.667   3.082 -0.0753  0.0997  0.2239
    1SOL     OW 7145   1.808   0.100   2.984 -0.0495 -0.0351  0.1732
    1SOL    HW2 7146   1.748   0.033   3.017 -1.0455  1.0893  0.7043
    1SOL    HW3 7147   1.815   0.082   2.891  0.9157 -1.8083  0.5765
    1SOL    MW4 7148   1.801   0.089   2.976 -0.0535 -0.1207  0.2966
    1SOL     OW 7149   1.795   0.370   3.101 -0.1362 -0.0290 -0.0350
    1SOL    HW2 7150   1.797   0.291   3.047 -0.9679  0.1462 -0.3246
    1SOL    HW3 7151   1.710   0.411   3.082  0.0235  0.6075  0.5785
    1SOL    MW4 7152   1.784   0.365   3.091 -0.2251  0.0781  0.0079
    1SOL     OW 7153   2.054   0.452   3.016  0.4023  0.0779 -0.4447
    1SOL    HW2 7154   1.974   0.410   3.049  0.9919 -0.4346  0.3557
    1SOL    HW3 7155   2.125   0.399   3.051  1.0738 -0.1303 -2.0700
    1SOL    MW4 7156   2.052   0.439   3.025  0.5686 -0.0172 -0.5536
    1SOL     OW 7157   2.013   0.706   3.118 -0.1878 -0.0493 -0.0050
    1SOL    HW2 7158   1.939   0.746   3.073 -0.6284 -0.4977  0.3125
    1SOL    HW3 7159   2.012   0.615   3.089  0.4007  0.0070 -0.2033
    1SOL    MW4 7160   2.003   0.699   3.109 -0.1686 -0.1011  0.0107
    1SOL     OW 7161   1.813   0.889   3.016 -0.0438 -0.1061  0.2887
    1SOL    HW2 7162   1.729   0.845   3.033 -0.7889  1.4670  0.7705
    1SOL    HW3 7163   1.816   0.900   2.921 -1.0900  1.1719  0.3921
    1SOL    MW4 7164   1.802   0.884   3.006 -0.2801  0.2701  0.3657
    1SOL     OW 7165   1.811   1.152   3.076  0.0352  0.3722 -0.2297
    1SOL    HW2 7166   1.813   1.148   3.172  2.1350  1.0413 -0.2313
    1SOL    HW3 7167   1.810   1.061   3.048 -3.3668  0.1139  0.4167
    1SOL    MW4 7168   1.811   1.140   3.085 -0.1365  0.4264 -0.1445
    1SOL     OW 7169   2.040   1.307   2.984  0.1531 -0.2808  0.2115
    1SOL    HW2 7170   2.113   1.251   3.011 -0.6084 -1.3712  0.0690
    1SOL    HW3 7171   1.962   1.254   3.003 -0.6287  1.1108  0.9466
    1SOL    MW4 7172   2.039   1.293   2.990 -0.0505 -0.2410  0.2899
    1SOL     OW 7173   2.002   1.556   3.113  0.3828  0.0628  0.4930
    1SOL    HW2 7174   1.988   1.539   3.206  1.1742 -0.2837  0.5561
    1SOL    HW3 7175   2.036   1.474   3.078  3.5484  1.2231  0.6569
    1SOL    MW4 7176   2.005   1.543   3.121  0.9048  0.1702  0.5229
    1SOL     OW 7177   1.805   1.690   2.970 -0.3972 -0.3582 -0.2326
    1SOL    HW2 7178   1.787   1.775   3.010 -0.6165  0.2711 -1.6662
    1SOL    HW3 7179   1.875   1.654   3.024  0.0371  0.9410  0.1061
    1SOL    MW4 7180   1.812   1.697   2.982 -0.3690 -0.1037 -0.3772
    1SOL     OW 7181   1.776   1.936   3.130 -0.2559  0.1944  0.1721
    1SOL    HW2 7182   1.858   1.981   3.110  0.1934 -0.9441 -0.5632
    1SOL    HW3 7183   1.710   1.986   3.083  0.2956 -0.1741 -1.0140
    1SOL    MW4 7184   1.778   1.949   3.121 -0.1239 -0.0043 -0.0815
    1SOL     OW 7185   1.975   2.082   2.991  0.1611  0.0112  0.0983
    1SOL    HW2 7186   2.048   2.025   3.014 -0.1899  0.2113  1.7553
    1SOL    HW3 7187   2.000   2.168   3.025 -0.7095  0.1418  0.4332
    1SOL    MW4 7188   1.987   2.086   2.998 -0.0001  0.0548  0.3610
    1SOL     OW 7189   2.027   2.347   3.068  0.0847 -0.2359  0.4285
    1SOL    HW2 7190   2.090   2.379   3.003  1.1421 -0.4838  1.3107
    1SOL    HW3 7191   1.946   2.393   3.047  0.5250  0.0133 -0.7912
    1SOL    MW4 7192   2.024   2.358   3.057  0.2823 -0.2356  0.3841
    1SOL     OW 7193   1.802   2.507   3.008 -0.3680 -0.4423 -0.6338
    1SOL    HW2 7194   1.803   2.598   3.035 -1.2915 -0.8099  0.6896
    1SOL    HW3 7195   1.720   2.472   3.042  0.0557 -1.8171 -0.9539
    1SOL    MW4 7196   1.791   2.514   3.016 -0.4339 -0.6721 -0.5014
    1SOL     OW 7197   1.793   2.776   3.086  0.3321  0.0163 -0.2256
    1SOL    HW2 7198   1.797   2.761   3.181 -0.1863 -0.9973 -0.3590
    1SOL    HW3 7199   1.871   2.828   3.067  0.5274  0.0885  0.7359
    1SOL    MW4 7200   1.804   2.781   3.096  0.2894 -0.1080 -0.1163
    1SOL     OW 7201   2.046   2.886   3.007  0.1683  0.1035 -0.7963
    1SOL    HW2 7202   2.073   2.977   3.021  0.5851  0.1037 -1.5763
    1SOL    HW3 7203   2.040   2.877   2.912  1.4918 -1.0685 -0.7915
    1SOL    MW4 7204   2.049   2.897   2.997  0.3977 -0.0510 -0.8984
    1SOL     OW 7205   2.041   3.155   3.095  0.1522 -0.4042 -0.0992
    1SOL    HW2 7206   2.027   3.135   3.187  2.0273  3.4579  1.1288
    1SOL    HW3 7207   1.956   3.189   3.065 -0.2413 -0.9520  0.3630
    1SOL    MW4 7208   2.028   3.157   3.103  0.3479  0.0331  0.1240
    1SOL     OW 7209   1.814   3.288   2.971 -0.6033 -0.1632  0.6018
    1SOL    HW2 7210   1.739   3.235   2.998 -0.9209  0.4001  0.8493
    1SOL    HW3 7211   1.814   3.285   2.876 -0.1399 -1.2595  0.6330
    1SOL    MW4 7212   1.804   3.281   2.962 -0.5840 -0.2334  0.6385
    1SOL     OW 7213   1.806   3.549   3.089 -0.1729 -0.1445 -0.1705
    1SOL    HW2 7214   1.801   3.457   3.063 -0.6206  0.1639 -1.1800
    1SOL    HW3 7215   1.724   3.588   3.059  0.4790  0.8279 -0.7475
    1SOL    MW4 7216   1.795   3.542   3.082 -0.1460  0.0243 -0.3800
    1SOL     OW 7217   2.042   3.651   2.989 -0.4490  0.0818  0.5535
    1SOL    HW2 7218   2.048   3.743   3.017 -1.7580  1.3284 -2.9966
    1SOL    HW3 7219   1.960   3.620   3.027 -1.1946  1.1354 -0.1562
    1SOL    MW4 7220   2.032   3.659   2.998 -0.7203  0.3853 -0.0086
    1SOL     OW 7221   2.034   3.918   3.072  0.3673  0.3262  0.2876
    1SOL    HW2 7222   2.020   3.922   3.167  1.3576  2.3413  0.3820
    1SOL    HW3 7223   1.950   3.942   3.034  0.1625  0.2001  0.6544
    1SOL    MW4 7224   2.021   3.921   3.080  0.4711  0.5753  0.3486
    1SOL     OW 7225   1.811   3.994   2.962 -0.3357  0.2078 -0.1043
    1SOL    HW2 7226   1.804   4.082   3.000 -0.1761 -0.2070  0.9085
    1SOL    HW3 7227   1.820   4.009   2.868 -0.5813  1.2676  0.0329
    1SOL    MW4 7228   1.811   4.008   2.955 -0.3470  0.2928  0.0477
    1SOL     OW 7229   1.807   4.229   3.098 -0.0689 -0.1636 -0.3379
    1SOL    HW2 7230   1.869   4.292   3.062 -0.6899  0.6632  0.0142
    1SOL    HW3 7231   1.721   4.267   3.080 -0.4349 -0.7018  0.2572
    1SOL    MW4 7232   1.804   4.242   3.091 -0.1991 -0.1254 -0.2129
    1SOL     OW 7233   2.012   4.394   2.990 -0.3473  0.4557  0.0613
    1SOL    HW2 7234   2.032   4.486   3.008  0.4383  0.2787  0.1194
    1SOL    HW3 7235   2.027   4.385   2.895  0.4881  0.1712  0.2137
    1SOL    MW4 7236   2.017   4.405   2.980 -0.1335  0.3943  0.0889
    1SOL     OW 7237   2.503   4.622   3.097  0.2507  0.2240 -0.2883
    1SOL    HW2 7238   2.500   4.542   3.044  0.5242  0.1168 -0.1403
    1SOL    HW3 7239   2.432   4.676   3.062 -2.1533 -1.4512  1.8341
    1SOL    MW4 7240   2.493   4.618   3.085 -0.0300 -0.0114  0.0112
    1SOL     OW 7241   2.288   0.099   2.975  0.4806  0.1075 -0.3221
    1SOL    HW2 7242   2.291   0.182   3.022  1.0321  0.1203 -0.3742
    1SOL    HW3 7243   2.205   0.059   3.001  0.9765 -0.0829  1.0090
    1SOL    MW4 7244   2.278   0.104   2.984  0.6187  0.0841 -0.1533
    1SOL     OW 7245   2.288   0.334   3.127  0.0883  0.1600  0.5858
    1SOL    HW2 7246   2.278   0.356   3.219 -0.1882  1.6262  0.2215
    1SOL    HW3 7247   2.357   0.393   3.095  0.6366 -0.7734 -0.0010
    1SOL    MW4 7248   2.296   0.345   3.135  0.1242  0.2303  0.4604
    1SOL     OW 7249   2.490   0.511   3.020  0.0002  0.9179 -0.2717
    1SOL    HW2 7250   2.561   0.452   3.044 -1.3248 -1.3200 -1.7272
    1SOL    HW3 7251   2.505   0.532   2.928 -2.0331 -0.8294 -1.0528
    1SOL    MW4 7252   2.501   0.506   3.011 -0.4427  0.3920 -0.5665
    1SOL     OW 7253   2.447   0.772   3.103 -0.3276  0.4897 -0.0177
    1SOL    HW2 7254   2.525   0.824   3.082 -0.9913  0.7102 -2.1006
    1SOL    HW3 7255   2.468   0.683   3.074 -0.9520  0.6165 -0.8925
    1SOL    MW4 7256   2.460   0.767   3.096 -0.4978  0.5355 -0.4082
    1SOL     OW 7257   2.205   0.904   3.007 -0.2618 -0.1647 -0.4289
    1SOL    HW2 7258   2.284   0.855   3.032  0.8436  0.1223 -3.1745
    1SOL    HW3 7259   2.134   0.841   3.019  0.7905 -1.5246 -1.0590
    1SOL    MW4 7260   2.206   0.889   3.012  0.0229 -0.3063 -0.8748
    1SOL     OW 7261   2.271   1.161   3.101 -0.7351  0.4067  0.0716
    1SOL    HW2 7262   2.263   1.168   3.196 -2.1555  0.6426 -0.0605
    1SOL    HW3 7263   2.247   1.071   3.081  0.3660  0.1200  0.0093
    1SOL    MW4 7264   2.267   1.150   3.111 -0.7772  0.4001  0.0458
    1SOL     OW 7265   2.491   1.298   2.985 -0.0848  0.2430  0.2465
    1SOL    HW2 7266   2.414   1.246   3.005  0.2783 -0.2869  0.2771
    1SOL    HW3 7267   2.482   1.320   2.893 -0.6303  0.7894  0.4255
    1SOL    MW4 7268   2.480   1.294   2.976 -0.1087  0.2452  0.2742
    1SOL     OW 7269   2.479   1.580   3.089 -0.0351  0.2758  0.8939
    1SOL    HW2 7270   2.394   1.613   3.059  0.5653  0.4054 -0.7095
    1SOL    HW3 7271   2.478   1.487   3.065  0.9190  0.6433 -0.6181
    1SOL    MW4 7272   2.468   1.572   3.082  0.1700  0.3414  0.4828
    1SOL     OW 7273   2.236   1.651   3.024  0.2109 -0.2089  0.1879
    1SOL    HW2 7274   2.169   1.606   3.074 -1.3346  2.0410  0.2341
    1SOL    HW3 7275   2.214   1.635   2.932  0.2320 -0.3506  0.2079
    1SOL    MW4 7276   2.225   1.643   3.019  0.0100  0.0693  0.1969
    1SOL     OW 7277   2.150   1.900   3.085  0.0395 -0.0263  0.4626
    1SOL    HW2 7278   2.230   1.945   3.061 -0.7275  0.6212 -0.9266
    1SOL    HW3 7279   2.172   1.807   3.079  0.0145  0.1033 -2.4209
    1SOL    MW4 7280   2.163   1.893   3.081 -0.0646  0.0764 -0.1009
    1SOL     OW 7281   2.407   2.023   3.041  0.8055  0.0199 -0.1342
    1SOL    HW2 7282   2.472   1.962   3.074  0.1761 -0.8027 -0.3906
    1SOL    HW3 7283   2.426   2.029   2.947 -0.9891 -2.1253 -0.6744
    1SOL    MW4 7284   2.418   2.016   3.033  0.4857 -0.3717 -0.2394
    1SOL     OW 7285   2.483   2.300   3.114  0.0189 -0.2996  0.5679
    1SOL    HW2 7286   2.487   2.294   3.209 -0.9516 -0.5622  0.5982
    1SOL    HW3 7287   2.442   2.218   3.087  1.7094 -0.9263 -0.1941
    1SOL    MW4 7288   2.478   2.288   3.123  0.1140 -0.4170  0.4714
    1SOL     OW 7289   2.274   2.465   2.994  0.1256  0.0332 -0.3105
    1SOL    HW2 7290   2.267   2.558   3.015  1.3772  0.3808 -1.4124
    1SOL    HW3 7291   2.338   2.431   3.056  0.3614  0.0985 -0.5184
    1SOL    MW4 7292   2.281   2.473   3.005  0.3216  0.0875 -0.4835
    1SOL     OW 7293   2.276   2.720   3.065  0.3709 -0.0759 -0.0582
    1SOL    HW2 7294   2.352   2.764   3.027 -0.8594  0.8087 -1.4993
    1SOL    HW3 7295   2.203   2.779   3.048 -0.9248 -1.6915 -0.1412
    1SOL    MW4 7296   2.277   2.733   3.058  0.0377 -0.1724 -0.2592
    1SOL     OW 7297   2.506   2.836   2.979 -0.0243  0.5307 -0.3434
    1SOL    HW2 7298   2.472   2.919   3.013  0.1492  0.7150 -0.6169
    1SOL    HW3 7299   2.506   2.847   2.884  0.9149  0.5765 -0.3435
    1SOL    MW4 7300   2.502   2.848   2.971  0.1225  0.5610 -0.3793
    1SOL     OW 7301   2.423   3.071   3.082 -0.1960  0.1047 -0.5191
    1SOL    HW2 7302   2.507   3.111   3.060 -0.6962  0.1248 -2.4873
    1SOL    HW3 7303   2.359   3.117   3.028 -1.7328  1.1159  2.0511
    1SOL    MW4 7304   2.426   3.082   3.072 -0.4647  0.2408 -0.4399
    1SOL     OW 7305   2.271   3.270   2.952  0.0225 -0.4341  0.0507
    1SOL    HW2 7306   2.306   3.343   3.003  0.0138  0.5199 -1.2818
    1SOL    HW3 7307   2.179   3.263   2.979  0.4594 -1.0907  1.4443
    1SOL    MW4 7308   2.264   3.279   2.963  0.0792 -0.3948  0.0589
    1SOL     OW 7309   2.274   3.519   3.098 -0.2146 -0.1684  0.6155
    1SOL    HW2 7310   2.347   3.562   3.054  0.9329 -1.2455  1.4361
    1SOL    HW3 7311   2.196   3.557   3.058  0.7948 -0.0050 -1.2470
    1SOL    MW4 7312   2.273   3.529   3.087  0.0701 -0.2892  0.4778
    1SOL     OW 7313   2.481   3.633   2.958 -0.0666 -0.8855  0.4989
    1SOL    HW2 7314   2.557   3.580   2.983  0.1752 -0.7748  0.0016
    1SOL    HW3 7315   2.492   3.714   3.008  1.2351 -0.0418 -1.0852
    1SOL    MW4 7316   2.493   3.637   2.968  0.1371 -0.7594  0.2241
    1SOL     OW 7317   2.449   3.875   3.097  0.5966  0.3562  0.1575
    1SOL    HW2 7318   2.457   3.878   3.193  0.2925 -1.1658  0.2387
    1SOL    HW3 7319   2.530   3.914   3.065  2.3806 -2.4383  1.0436
    1SOL    MW4 7320   2.461   3.880   3.106  0.7918 -0.2134  0.2854
    1SOL     OW 7321   2.266   4.028   2.952 -0.1595  0.0298  0.2716
    1SOL    HW2 7322   2.335   3.975   2.992  0.5301 -0.1833 -1.1617
    1SOL    HW3 7323   2.185   3.999   2.994  0.4157 -0.9690  0.6976
    1SOL    MW4 7324   2.265   4.017   2.963  0.0074 -0.1302  0.1388
    1SOL     OW 7325   2.255   4.270   3.098  0.6369  0.0472  0.1489
    1SOL    HW2 7326   2.264   4.183   3.059  0.2929  0.0436  0.0826
    1SOL    HW3 7327   2.179   4.309   3.055  0.4515  0.1680  0.5794
    1SOL    MW4 7328   2.246   4.264   3.087  0.5667  0.0625  0.1969
    1SOL     OW 7329   2.483   4.369   2.971 -0.1800  0.0430  0.0805
    1SOL    HW2 7330   2.402   4.336   3.010 -0.6544  1.7011  0.5479
    1SOL    HW3 7331   2.469   4.360   2.877 -0.7707  0.0102  0.1699
    1SOL    MW4 7332   2.470   4.363   2.964 -0.3207  0.2575  0.1538
    1SOL     OW 7333   2.956   0.045   3.085  0.1304  0.0322  0.2096
    1SOL    HW2 7334   3.033   0.075   3.038 -1.0068  1.2381 -0.9198
    1SOL    HW3 7335   2.959  -0.050   3.078  0.8208  0.1336 -0.9574
    1SOL    MW4 7336   2.966   0.036   3.078  0.0715  0.2046 -0.0932
    1SOL     OW 7337   2.703   0.150   3.015 -0.0993 -0.3542  0.7870
    1SOL    HW2 7338   2.788   0.118   3.044  0.0244 -0.1853  0.6098
    1SOL    HW3 7339   2.640   0.086   3.048  0.0539 -0.2319  1.3267
    1SOL    MW4 7340   2.706   0.138   3.024 -0.0627 -0.3158  0.8347
    1SOL     OW 7341   2.719   0.393   3.135 -0.2584  0.1517 -0.3584
    1SOL    HW2 7342   2.705   0.300   3.118 -0.1604  0.0653  0.0325
    1SOL    HW3 7343   2.706   0.403   3.230 -0.3794  0.5542 -0.4134
    1SOL    MW4 7344   2.716   0.382   3.145 -0.2615  0.1934 -0.3140
    1SOL     OW 7345   2.924   0.528   3.033  0.6597 -0.9049 -0.2095
    1SOL    HW2 7346   2.848   0.482   3.068 -0.3576  0.2711 -0.8463
    1SOL    HW3 7347   2.916   0.519   2.938  1.0423 -0.3657 -0.2957
    1SOL    MW4 7348   2.913   0.521   3.025  0.5760 -0.6786 -0.3047
    1SOL     OW 7349   2.854   0.778   3.132  0.1838 -0.2269  0.5207
    1SOL    HW2 7350   2.874   0.774   3.226 -0.3676  0.3024  0.6639
    1SOL    HW3 7351   2.878   0.692   3.099  0.0158 -0.5498  1.2218
    1SOL    MW4 7352   2.860   0.766   3.140  0.0889 -0.1997  0.6323
    1SOL     OW 7353   2.657   0.940   3.004  0.1393  0.6189 -0.2846
    1SOL    HW2 7354   2.670   1.034   3.018  1.0954  0.5491 -0.6403
    1SOL    HW3 7355   2.731   0.900   3.050  0.9666  0.1609 -1.9711
    1SOL    MW4 7356   2.668   0.947   3.012  0.3746  0.5493 -0.5543
    1SOL     OW 7357   2.718   1.197   3.091 -0.6592  0.2592 -0.2212
    1SOL    HW2 7358   2.792   1.238   3.048 -0.8284  1.0371  0.2165
    1SOL    HW3 7359   2.641   1.242   3.056 -0.8843 -0.0618 -0.1492
    1SOL    MW4 7360   2.717   1.208   3.081 -0.7110  0.3195 -0.1540
    1SOL     OW 7361   2.947   1.262   2.960  0.4270 -0.5782  0.2847
    1SOL    HW2 7362   3.016   1.221   3.012  0.0002 -1.3818  0.2210
    1SOL    HW3 7363   2.947   1.353   2.988  0.1604 -1.0167  1.7448
    1SOL    MW4 7364   2.956   1.269   2.971  0.3355 -0.7422  0.4690
    1SOL     OW 7365   2.904   1.532   3.064 -0.6014 -0.6578  0.3166
    1SOL    HW2 7366   2.879   1.534   3.156 -1.0476  1.9260  0.1721
    1SOL    HW3 7367   2.994   1.565   3.063 -0.8870  0.1011 -0.2596
    1SOL    MW4 7368   2.913   1.536   3.076 -0.6981 -0.2168  0.2217
    1SOL     OW 7369   2.698   1.677   2.925  0.2746 -0.3876 -0.5859
    1SOL    HW2 7370   2.770   1.630   2.968  1.0016  2.5336  1.5898
    1SOL    HW3 7371   2.619   1.638   2.963  0.8698  0.3718  1.5277
    1SOL    MW4 7372   2.697   1.666   2.936  0.4489  0.0980 -0.0198
    1SOL     OW 7373   2.689   1.886   3.104 -0.2249  0.1338 -0.1177
    1SOL    HW2 7374   2.772   1.931   3.087  0.4968 -0.1864  2.3263
    1SOL    HW3 7375   2.689   1.811   3.045  2.5024 -1.3917  1.7257
    1SOL    MW4 7376   2.700   1.882   3.094  0.2303 -0.1097  0.4478
    1SOL     OW 7377   2.910   2.027   2.999 -0.1663  0.2068 -0.1636
    1SOL    HW2 7378   2.932   2.114   3.033 -0.6412  0.1504  0.2901
    1SOL    HW3 7379   2.920   2.036   2.904 -1.3682  1.1037 -0.2167
    1SOL    MW4 7380   2.914   2.040   2.991 -0.3872  0.3178 -0.1106
    1SOL     OW 7381   2.952   2.265   3.116  0.1941  0.0381  0.1669
    1SOL    HW2 7382   3.019   2.328   3.090 -1.5895  2.0669  0.3282
    1SOL    HW3 7383   2.871   2.300   3.078 -0.7622 -2.4658 -0.2078
    1SOL    MW4 7384   2.950   2.278   3.107 -0.1671 -0.0248  0.1388
    1SOL     OW 7385   2.719   2.386   3.012  0.0959 -0.1138 -0.1342
    1SOL    HW2 7386   2.718   2.475   3.048  1.4044 -0.9683  2.1216
    1SOL    HW3 7387   2.637   2.347   3.042  0.4084 -0.2813  0.5094
    1SOL    MW4 7388   2.708   2.393   3.020  0.3097 -0.2487  0.2482
    1SOL     OW 7389   2.686   2.669   3.121  0.0230  0.1126  0.1387
    1SOL    HW2 7390   2.647   2.676   3.209 -0.4900  0.9467 -0.1507
    1SOL    HW3 7391   2.624   2.713   3.064  0.9610  0.6608 -0.4614
    1SOL    MW4 7392   2.673   2.676   3.125  0.0792  0.2949  0.0215
    1SOL     OW 7393   2.908   2.829   3.054  0.2432 -0.3664 -0.2432
    1SOL    HW2 7394   2.980   2.790   3.104  0.5074 -1.8147 -1.7193
    1SOL    HW3 7395   2.836   2.768   3.065 -0.1038 -0.0118 -0.5446
    1SOL    MW4 7396   2.908   2.816   3.062  0.2322 -0.5105 -0.4778
    1SOL     OW 7397   2.871   3.096   3.125 -0.0728 -0.3699 -0.4068
    1SOL    HW2 7398   2.804   3.135   3.069 -0.1838 -2.2305 -1.6201
    1SOL    HW3 7399   2.879   3.006   3.093  0.5983 -1.1550  1.9191
    1SOL    MW4 7400   2.864   3.089   3.113  0.0010 -0.7188 -0.2601
    1SOL     OW 7401   2.670   3.248   3.011  0.2713  0.2720 -0.1442
    1SOL    HW2 7402   2.679   3.337   3.045 -0.2019  0.6475 -1.0111
    1SOL    HW3 7403   2.679   3.257   2.916 -1.3604 -0.3924 -0.3733
    1SOL    MW4 7404   2.672   3.261   3.003 -0.0064  0.2334 -0.2890
    1SOL     OW 7405   2.687   3.506   3.099  0.2642  0.2098 -0.1286
    1SOL    HW2 7406   2.686   3.511   3.194  0.9713 -0.4847 -0.0803
    1SOL    HW3 7407   2.774   3.536   3.075 -0.2688  1.3958 -0.6224
    1SOL    MW4 7408   2.698   3.511   3.108  0.2875  0.2749 -0.1876
    1SOL     OW 7409   2.950   3.597   3.023  0.1796  0.1663  0.1264
    1SOL    HW2 7410   3.026   3.553   3.062  0.3905  0.4017 -0.0122
    1SOL    HW3 7411   2.950   3.684   3.064  0.2749  0.3383 -0.2306
    1SOL    MW4 7412   2.960   3.603   3.034  0.2196  0.2201  0.0610
    1SOL     OW 7413   2.921   3.858   3.090 -0.5226  0.2108 -0.7690
    1SOL    HW2 7414   2.912   3.873   3.184  1.6765 -0.0015 -0.4957
    1SOL    HW3 7415   2.845   3.901   3.051 -0.0147  2.6536  0.8739
    1SOL    MW4 7416   2.910   3.865   3.097 -0.1655  0.5050 -0.5164
    1SOL     OW 7417   2.692   3.983   2.992  0.9414  0.0300 -0.0164
    1SOL    HW2 7418   2.709   4.076   3.007  0.3776  0.5308 -2.2730
    1SOL    HW3 7419   2.718   3.968   2.901  1.5932 -2.1724  0.4921
    1SOL    MW4 7420   2.697   3.993   2.982  0.9530 -0.1945 -0.2472
    1SOL     OW 7421   2.712   4.256   3.100 -0.1255  0.4137 -0.3425
    1SOL    HW2 7422   2.686   4.257   3.192  1.0293  0.7901 -0.0123
    1SOL    HW3 7423   2.641   4.304   3.055 -1.2218 -0.6829  0.1814
    1SOL    MW4 7424   2.699   4.263   3.106 -0.1173  0.3185 -0.2296
    1SOL     OW 7425   2.937   4.435   3.041 -0.0164  0.1553 -0.1834
    1SOL    HW2 7426   3.017   4.384   3.055 -0.4058 -0.0332  1.4069
    1SOL    HW3 7427   2.868   4.383   3.082 -0.7072  1.0626 -0.1754
    1SOL    MW4 7428   2.938   4.422   3.048 -0.1590  0.2503  0.0274
    1SOL     OW 7429   3.363   4.639   3.122  0.3617  0.5640  0.4660
    1SOL    HW2 7430   3.443   4.672   3.081 -0.6233  0.4883 -1.5858
    1SOL    HW3 7431   3.347   4.554   3.080 -0.4109  0.2381  1.3782
    1SOL    MW4 7432   3.371   4.632   3.111  0.1299  0.5112  0.3159
    1SOL     OW 7433   3.207   0.160   3.007  0.7265  0.4886  0.0751
    1SOL    HW2 7434   3.189   0.241   3.055 -0.5695 -0.0582  0.5438
    1SOL    HW3 7435   3.276   0.117   3.058  0.3500  0.5821  0.6708
    1SOL    MW4 7436   3.214   0.165   3.020  0.5059  0.4288  0.2155
    1SOL     OW 7437   3.166   0.396   3.131  0.2904 -0.3220  0.1820
    1SOL    HW2 7438   3.240   0.445   3.095  0.1102 -0.4059 -0.3097
    1SOL    HW3 7439   3.089   0.444   3.100  0.1416 -0.0956  0.8932
    1SOL    MW4 7440   3.166   0.409   3.122  0.2470 -0.3032  0.2110
    1SOL     OW 7441   3.381   0.519   3.027 -0.0115  0.1767 -0.5926
    1SOL    HW2 7442   3.438   0.457   3.071  0.4295  0.6759 -0.4571
    1SOL    HW3 7443   3.386   0.495   2.935 -0.1802 -0.2594 -0.4903
    1SOL    MW4 7444   3.389   0.508   3.021  0.0243  0.1850 -0.5615
    1SOL     OW 7445   3.343   0.792   3.085  0.1920  0.0947  0.3261
    1SOL    HW2 7446   3.336   0.785   3.180  0.2271  0.0026  0.3220
    1SOL    HW3 7447   3.370   0.704   3.056 -1.2036 -0.2660  0.1032
    1SOL    MW4 7448   3.346   0.779   3.094  0.0124  0.0350  0.2961
    1SOL     OW 7449   3.090   0.897   2.993 -0.1602  0.2334  0.3547
    1SOL    HW2 7450   3.174   0.861   3.023  0.3745  0.4118 -0.8759
    1SOL    HW3 7451   3.024   0.846   3.039  0.6345  0.5422  1.8597
    1SOL    MW4 7452   3.093   0.886   3.003  0.0153  0.2976  0.3908
    1SOL     OW 7453   3.140   1.152   3.097 -0.4439 -0.0677 -0.1067
    1SOL    HW2 7454   3.230   1.176   3.075  0.2019 -1.3240  1.0868
    1SOL    HW3 7455   3.125   1.071   3.048 -0.5560 -0.4224  0.5067
    1SOL    MW4 7456   3.150   1.144   3.088 -0.3736 -0.2801  0.1316
    1SOL     OW 7457   3.401   1.201   2.980  0.0344 -0.3478  0.1048
    1SOL    HW2 7458   3.474   1.164   3.030 -0.6121 -0.1603  1.2123
    1SOL    HW3 7459   3.392   1.290   3.014  0.0686  0.0455 -0.8887
    1SOL    MW4 7460   3.409   1.208   2.991 -0.0465 -0.2713  0.1199
    1SOL     OW 7461   3.379   1.461   3.079 -0.2880  0.0677 -0.1613
    1SOL    HW2 7462   3.356   1.477   3.171  0.1655  0.6915 -0.1541
    1SOL    HW3 7463   3.465   1.502   3.068 -0.6200  0.5292 -1.0269
    1SOL    MW4 7464   3.387   1.468   3.090 -0.2718  0.2109 -0.2747
    1SOL     OW 7465   3.159   1.631   3.024 -0.8273 -0.3749  0.2098
    1SOL    HW2 7466   3.251   1.604   3.031 -1.1197 -1.0860  1.4336
    1SOL    HW3 7467   3.159   1.724   3.049 -0.5282 -0.5250  0.7631
    1SOL    MW4 7468   3.171   1.640   3.028 -0.8264 -0.4885  0.4444
    1SOL     OW 7469   3.156   1.899   3.071 -0.1780 -0.4361 -0.4662
    1SOL    HW2 7470   3.148   1.903   3.166 -0.4460  1.5311 -0.5465
    1SOL    HW3 7471   3.070   1.927   3.038 -0.1857 -1.3821 -1.2918
    1SOL    MW4 7472   3.144   1.903   3.079 -0.2141 -0.3014 -0.5860
    1SOL     OW 7473   3.393   2.058   3.037 -0.4765  0.0993  0.4570
    1SOL    HW2 7474   3.464   1.997   3.057 -1.1739 -1.0508 -0.4737
    1SOL    HW3 7475   3.313   2.006   3.049 -1.0110  0.1105 -2.6358
    1SOL    MW4 7476   3.392   2.043   3.041 -0.6392 -0.0508 -0.0741
    1SOL     OW 7477   3.343   2.307   3.115  0.1427 -0.3666  0.1622
    1SOL    HW2 7478   3.328   2.299   3.209 -1.6200 -2.3073 -0.2546
    1SOL    HW3 7479   3.371   2.220   3.087  0.2076  0.0725 -1.1875
    1SOL    MW4 7480   3.345   2.294   3.124 -0.0811 -0.5648 -0.0710
    1SOL     OW 7481   3.147   2.448   3.002 -0.1700  0.3535 -0.2168
    1SOL    HW2 7482   3.217   2.395   3.043 -0.1988 -0.4802 -1.2093
    1SOL    HW3 7483   3.149   2.531   3.050  0.5212 -0.1982  0.7480
    1SOL    MW4 7484   3.157   2.452   3.014 -0.0825  0.1707 -0.2203
    1SOL     OW 7485   3.136   2.688   3.141  0.4979  0.0100 -0.3554
    1SOL    HW2 7486   3.213   2.726   3.098  0.0587  0.4151 -0.7905
    1SOL    HW3 7487   3.154   2.697   3.235  0.2866  1.5573 -0.4374
    1SOL    MW4 7488   3.149   2.695   3.148  0.4122  0.2675 -0.4237
    1SOL     OW 7489   3.349   2.798   3.027 -0.0453 -0.0237  0.5404
    1SOL    HW2 7490   3.434   2.763   3.055 -0.4743 -0.6841  1.0103
    1SOL    HW3 7491   3.348   2.887   3.060  0.3168 -0.1319  0.8543
    1SOL    MW4 7492   3.360   2.805   3.035 -0.0541 -0.1252  0.6435
    1SOL     OW 7493   3.372   3.069   3.125 -0.0415 -0.1194  0.2429
    1SOL    HW2 7494   3.295   3.111   3.086 -0.3324 -0.4748  0.4294
    1SOL    HW3 7495   3.366   3.090   3.218 -1.1655 -2.0612  0.6268
    1SOL    MW4 7496   3.361   3.077   3.132 -0.2282 -0.4227  0.3185
    1SOL     OW 7497   3.132   3.189   3.045 -0.0159 -0.1093  0.5357
    1SOL    HW2 7498   3.052   3.154   3.084 -1.1651 -0.1762 -1.7711
    1SOL    HW3 7499   3.108   3.206   2.954  2.2948  0.9134  0.0915
    1SOL    MW4 7500   3.119   3.186   3.038  0.1376  0.0167  0.1726
    1SOL     OW 7501   3.180   3.457   3.111  0.0940 -0.3307 -0.1359
    1SOL    HW2 7502   3.268   3.483   3.084 -0.4466  1.5455 -0.1451
    1SOL    HW3 7503   3.170   3.368   3.076  0.7793  0.6440 -2.9371
    1SOL    MW4 7504   3.190   3.449   3.103  0.1130  0.0458 -0.5066
    1SOL     OW 7505   3.389   3.578   2.989  0.5749 -0.0162 -0.2426
    1SOL    HW2 7506   3.463   3.529   3.026 -0.0340 -0.2560  0.6763
    1SOL    HW3 7507   3.398   3.666   3.027  0.0533 -0.2104  0.3317
    1SOL    MW4 7508   3.400   3.583   2.999  0.4258 -0.0732 -0.0458
    1SOL     OW 7509   3.382   3.831   3.089  0.4626  0.2043 -0.0791
    1SOL    HW2 7510   3.375   3.831   3.184 -0.5787 -2.4918 -0.1137
    1SOL    HW3 7511   3.305   3.880   3.059  0.6968  0.8978  0.4325
    1SOL    MW4 7512   3.371   3.838   3.097  0.3562 -0.0596 -0.0160
    1SOL     OW 7513   3.159   3.993   3.043  0.1852  0.0170  0.3413
    1SOL    HW2 7514   3.084   3.934   3.050 -0.1373  0.5143  1.0944
    1SOL    HW3 7515   3.168   4.008   2.948  0.5540 -1.5781  0.1150
    1SOL    MW4 7516   3.150   3.987   3.031  0.1912 -0.1280  0.4108
    1SOL     OW 7517   3.137   4.262   3.110  0.0889 -0.1795  0.0334
    1SOL    HW2 7518   3.141   4.262   3.206 -0.0060 -1.6707  0.0391
    1SOL    HW3 7519   3.148   4.171   3.085 -1.8236 -0.0906 -1.2892
    1SOL    MW4 7520   3.139   4.250   3.120 -0.1762 -0.3648 -0.1404
    1SOL     OW 7521   3.343   4.388   2.983 -0.1732 -0.3002 -0.3957
    1SOL    HW2 7522   3.423   4.344   3.011 -0.0622 -0.6674 -1.2815
    1SOL    HW3 7523   3.274   4.350   3.038  0.5324  1.4667  1.8049
    1SOL    MW4 7524   3.345   4.377   2.994 -0.0656 -0.1159 -0.2222
    1SOL     OW 7525   3.845   4.648   3.064  0.4781 -0.5840  0.1630
    1SOL    HW2 7526   3.848   4.554   3.048  0.3883 -0.2021 -2.2544
    1SOL    HW3 7527   3.761   4.676   3.028  0.9991  0.5905 -0.1687
    1SOL    MW4 7528   3.835   4.639   3.057  0.5352 -0.3786 -0.1998
    1SOL     OW 7529   3.588   0.086   2.995  0.3219 -0.4385 -0.1491
    1SOL    HW2 7530   3.581   0.171   3.039 -2.5964 -0.8126  0.1888
    1SOL    HW3 7531   3.574   0.105   2.902 -0.4010 -0.5562 -0.0650
    1SOL    MW4 7532   3.585   0.100   2.988 -0.1583 -0.5034 -0.0932
    1SOL     OW 7533   3.591   0.345   3.120  0.4284  0.4585 -0.6923
    1SOL    HW2 7534   3.598   0.338   3.215  0.4923 -0.9761 -0.7855
    1SOL    HW3 7535   3.658   0.408   3.095 -0.4354  1.7953  0.3297
    1SOL    MW4 7536   3.601   0.352   3.129  0.3231  0.4456 -0.5698
    1SOL     OW 7537   3.803   0.493   3.006  0.1814  0.2047  0.1350
    1SOL    HW2 7538   3.884   0.461   3.047 -1.2738 -0.8807  2.2234
    1SOL    HW3 7539   3.794   0.583   3.038  0.4297  0.2606  0.0567
    1SOL    MW4 7540   3.813   0.501   3.015  0.0224  0.0688  0.4003
    1SOL     OW 7541   3.776   0.746   3.114  0.9405  0.5245  0.3344
    1SOL    HW2 7542   3.790   0.743   3.209 -0.1138 -1.0345  0.4392
    1SOL    HW3 7543   3.858   0.782   3.080  1.8438 -0.1664  1.7228
    1SOL    MW4 7544   3.789   0.751   3.122  0.9205  0.2277  0.5314
    1SOL     OW 7545   3.579   0.871   2.962  0.1690  0.4075  0.5724
    1SOL    HW2 7546   3.645   0.817   3.006 -1.0593 -0.6068  1.2546
    1SOL    HW3 7547   3.498   0.851   3.010 -0.8137  0.8454 -0.8777
    1SOL    MW4 7548   3.577   0.861   2.974 -0.1225  0.3315  0.4709
    1SOL     OW 7549   3.585   1.094   3.141  0.2273  0.1044 -0.2906
    1SOL    HW2 7550   3.668   1.137   3.119  0.1797  0.2888 -0.1102
    1SOL    HW3 7551   3.589   1.010   3.095 -0.2684  0.8686 -1.7584
    1SOL    MW4 7552   3.596   1.089   3.132  0.1554  0.2295 -0.4604
    1SOL     OW 7553   3.811   1.235   3.023 -0.5985 -0.1511  0.0856
    1SOL    HW2 7554   3.830   1.322   3.060 -0.0319 -0.2802  0.1000
    1SOL    HW3 7555   3.818   1.247   2.929 -0.0973 -0.2846  0.1082
    1SOL    MW4 7556   3.814   1.248   3.016 -0.4573 -0.1857  0.0904
    1SOL     OW 7557   3.830   1.474   3.168 -0.2022  0.6738  0.3585
    1SOL    HW2 7558   3.826   1.504   3.259  1.2945  0.3915  0.5328
    1SOL    HW3 7559   3.756   1.517   3.125 -1.0190  0.6900  1.7395
    1SOL    MW4 7560   3.820   1.483   3.174 -0.1125  0.6387  0.5639
    1SOL     OW 7561   3.618   1.623   3.034 -0.4847 -0.0261 -0.2505
    1SOL    HW2 7562   3.618   1.716   3.058  1.8008 -0.1196  0.1876
    1SOL    HW3 7563   3.630   1.623   2.939  2.6021  0.1136  0.0798
    1SOL    MW4 7564   3.619   1.635   3.025  0.2241 -0.0201 -0.1493
    1SOL     OW 7565   3.599   1.880   3.113 -0.8726 -0.1421  0.2273
    1SOL    HW2 7566   3.594   1.873   3.208 -4.2050  1.8486  0.2984
    1SOL    HW3 7567   3.663   1.949   3.097  0.1674 -0.9212  0.9912
    1SOL    MW4 7568   3.607   1.888   3.123 -1.1754  0.0176  0.3376
    1SOL     OW 7569   3.777   2.083   3.022  0.3940  0.4834 -0.0811
    1SOL    HW2 7570   3.819   2.167   3.042 -0.2063  0.5925  0.7563
    1SOL    HW3 7571   3.794   2.069   2.929  2.2451  0.5542  0.2115
    1SOL    MW4 7572   3.785   2.092   3.013  0.5591  0.5071  0.0679
    1SOL     OW 7573   3.844   2.340   3.121  0.1424 -0.0941  0.0402
    1SOL    HW2 7574   3.832   2.322   3.214  0.3224 -1.9586 -0.2858
    1SOL    HW3 7575   3.755   2.356   3.088 -0.3367 -2.9452 -0.1568
    1SOL    MW4 7576   3.831   2.340   3.129  0.1030 -0.7162 -0.0288
    1SOL     OW 7577   3.590   2.416   3.023 -0.4620 -0.1796 -0.0825
    1SOL    HW2 7578   3.592   2.508   3.052  0.0071  0.1391 -1.0907
    1SOL    HW3 7579   3.518   2.377   3.073 -0.5698  0.7047  0.4700
    1SOL    MW4 7580   3.581   2.423   3.033 -0.4141 -0.0210 -0.1426
    1SOL     OW 7581   3.588   2.673   3.129 -0.1205 -0.3169 -0.3103
    1SOL    HW2 7582   3.603   2.660   3.223 -1.5909  0.3090  0.0372
    1SOL    HW3 7583   3.658   2.731   3.101  0.2837 -0.4393  0.4305
    1SOL    MW4 7584   3.599   2.679   3.138 -0.2613 -0.2503 -0.1667
    1SOL     OW 7585   3.782   2.821   3.016 -0.3632  0.2805 -0.2498
    1SOL    HW2 7586   3.803   2.906   3.055  0.3774  0.0397 -0.1221
    1SOL    HW3 7587   3.793   2.835   2.922  0.8695  0.0265 -0.1551
    1SOL    MW4 7588   3.786   2.834   3.009 -0.1030  0.2151 -0.2203
    1SOL     OW 7589   3.855   3.051   3.120  0.0311  0.6314  0.1389
    1SOL    HW2 7590   3.929   3.081   3.068 -1.4653 -1.0597 -3.0974
    1SOL    HW3 7591   3.780   3.099   3.086 -0.7286  0.7030  1.8725
    1SOL    MW4 7592   3.855   3.061   3.109 -0.2666  0.4182 -0.0594
    1SOL     OW 7593   3.616   3.181   3.024 -0.1378  0.6124  0.1379
    1SOL    HW2 7594   3.541   3.129   3.052 -0.8705  1.2774 -0.5764
    1SOL    HW3 7595   3.596   3.206   2.934  1.7748 -0.7343 -0.6952
    1SOL    MW4 7596   3.604   3.178   3.016  0.0181  0.5224 -0.0660
    1SOL     OW 7597   3.596   3.461   3.118  0.0105 -0.2841  0.2211
    1SOL    HW2 7598   3.674   3.490   3.070 -0.3336  0.1679 -0.0655
    1SOL    HW3 7599   3.583   3.371   3.089  0.3231 -0.3012  0.1312
    1SOL    MW4 7600   3.605   3.453   3.108  0.0067 -0.2267  0.1714
    1SOL     OW 7601   3.817   3.569   2.994 -0.3687 -0.3478 -0.4601
    1SOL    HW2 7602   3.792   3.652   3.034  2.4188  0.3083  0.0022
    1SOL    HW3 7603   3.816   3.587   2.900  1.1299  0.5080 -0.3280
    1SOL    MW4 7604   3.814   3.582   2.987  0.1967 -0.1483 -0.3815
    1SOL     OW 7605   3.801   3.835   3.094 -0.1111 -0.5161  0.4725
    1SOL    HW2 7606   3.820   3.841   3.187  2.3604  1.3028 -0.0807
    1SOL    HW3 7607   3.741   3.908   3.076  0.8799  0.2897  0.3483
    1SOL    MW4 7608   3.796   3.846   3.104  0.3459 -0.1698  0.3831
    1SOL     OW 7609   3.592   4.015   3.052 -0.2863 -0.2849  0.1106
    1SOL    HW2 7610   3.530   3.954   3.092 -0.6541  0.5235  0.7878
    1SOL    HW3 7611   3.573   4.010   2.958  0.6773 -2.2850 -0.0032
    1SOL    MW4 7612   3.581   4.006   3.045 -0.2077 -0.4425  0.1848
    1SOL     OW 7613   3.576   4.294   3.090  0.0972  0.1394 -0.4950
    1SOL    HW2 7614   3.655   4.323   3.045  0.4966 -0.3564 -0.1304
    1SOL    HW3 7615   3.587   4.199   3.098 -0.1465  0.1750  0.2923
    1SOL    MW4 7616   3.588   4.285   3.085  0.1178  0.0787 -0.3431
    1SOL     OW 7617   3.820   4.359   2.993 -0.6320  0.1681  0.0234
    1SOL    HW2 7618   3.890   4.297   3.015 -0.1277  0.6655 -0.1688
    1SOL    HW3 7619   3.833   4.378   2.900 -1.0865  0.1887 -0.0397
    1SOL    MW4 7620   3.831   4.353   2.983 -0.6256  0.2360 -0.0100
    1SOL     OW 7621   4.254   4.627   3.057  0.0505  0.2306  0.3820
    1SOL    HW2 7622   4.277   4.637   3.149 -0.7937 -0.3159  0.6592
    1SOL    HW3 7623   4.256   4.532   3.042 -0.2251  0.2917 -0.0436
    1SOL    MW4 7624   4.257   4.616   3.067 -0.0973  0.1664  0.3624
    1SOL     OW 7625   4.050   0.130   2.957 -0.1943  0.0213 -0.2063
    1SOL    HW2 7626   4.116   0.071   2.993 -2.0522 -1.2280  1.2332
    1SOL    HW3 7627   3.966   0.093   2.985 -1.4622  2.4995 -0.5468
    1SOL    MW4 7628   4.048   0.117   2.966 -0.6070  0.1835 -0.0613
    1SOL     OW 7629   4.025   0.372   3.109 -0.6633  0.7239  0.3957
    1SOL    HW2 7630   4.107   0.411   3.079 -0.6964  0.2305 -0.3757
    1SOL    HW3 7631   4.026   0.284   3.071 -1.9817  1.0471 -0.4073
    1SOL    MW4 7632   4.036   0.365   3.100 -0.8416  0.7014  0.1881
    1SOL     OW 7633   4.238   0.518   2.992 -0.2446 -0.0952 -0.3737
    1SOL    HW2 7634   4.234   0.602   3.037  0.2274 -0.7828  0.9795
    1SOL    HW3 7635   4.251   0.541   2.900 -2.2811  1.3527 -0.3431
    1SOL    MW4 7636   4.239   0.532   2.986 -0.4511  0.0051 -0.1912
    1SOL     OW 7637   4.238   0.777   3.132 -0.0265 -0.6985 -0.2918
    1SOL    HW2 7638   4.161   0.819   3.095  0.1866 -2.1441 -2.4354
    1SOL    HW3 7639   4.311   0.814   3.083  0.5767 -0.1053  1.0316
    1SOL    MW4 7640   4.237   0.788   3.121  0.0811 -0.8110 -0.3998
    1SOL     OW 7641   4.009   0.857   3.002 -0.2564  0.3264 -0.2398
    1SOL    HW2 7642   4.022   0.948   3.031 -1.3365  0.5762 -0.5357
    1SOL    HW3 7643   4.010   0.862   2.906 -1.2509  0.1680 -0.2648
    1SOL    MW4 7644   4.011   0.870   2.993 -0.5307  0.3385 -0.2823
    1SOL     OW 7645   4.057   1.126   3.085  0.0670  0.1243  0.6821
    1SOL    HW2 7646   4.066   1.152   3.177 -0.2155  0.3067  0.6604
    1SOL    HW3 7647   3.981   1.176   3.054  0.0709 -0.0520  0.3916
    1SOL    MW4 7648   4.048   1.136   3.093  0.0300  0.1251  0.6409
    1SOL     OW 7649   4.276   1.258   2.979  0.1540 -0.2867 -0.0595
    1SOL    HW2 7650   4.195   1.213   3.005  0.7882 -1.5481 -0.2510
    1SOL    HW3 7651   4.273   1.262   2.884 -0.4184  1.0767 -0.0024
    1SOL    MW4 7652   4.265   1.253   2.970  0.1621 -0.2732 -0.0775
    1SOL     OW 7653   4.237   1.490   3.116  0.0559  0.8347  0.5570
    1SOL    HW2 7654   4.175   1.546   3.069 -1.0179  0.3823  1.4186
    1SOL    HW3 7655   4.246   1.413   3.059 -1.2544  0.2806  1.0834
    1SOL    MW4 7656   4.230   1.487   3.102 -0.2584  0.7018  0.7398
    1SOL     OW 7657   4.016   1.632   3.028 -0.3174  0.3484  0.0557
    1SOL    HW2 7658   4.015   1.719   3.068  1.6902  0.1876  0.4957
    1SOL    HW3 7659   3.957   1.580   3.083  1.0033  0.6003  1.7503
    1SOL    MW4 7660   4.008   1.636   3.041  0.1221  0.3605  0.3374
    1SOL     OW 7661   3.990   1.910   3.140 -0.4349  0.0356  0.3167
    1SOL    HW2 7662   4.070   1.957   3.116 -0.7643  0.9163  0.9055
    1SOL    HW3 7663   3.919   1.961   3.102 -0.8553  0.5674  1.7471
    1SOL    MW4 7664   3.991   1.923   3.132 -0.5338  0.2220  0.5829
    1SOL     OW 7665   4.234   2.040   3.066  0.4057 -0.3324  0.0123
    1SOL    HW2 7666   4.252   2.130   3.096  0.5974 -0.2418 -0.3716
    1SOL    HW3 7667   4.217   2.049   2.972 -0.3210 -0.5974  0.1138
    1SOL    MW4 7668   4.234   2.053   3.057  0.3352 -0.3555 -0.0250
    1SOL     OW 7669   4.270   2.328   3.108  0.2121 -0.0786 -0.1933
    1SOL    HW2 7670   4.203   2.391   3.082 -0.3781  0.0166  1.5417
    1SOL    HW3 7671   4.351   2.361   3.068 -0.3817  0.9117 -0.5971
    1SOL    MW4 7672   4.272   2.340   3.099  0.0563  0.0646 -0.0179
    1SOL     OW 7673   4.066   2.472   3.029 -0.5687  0.3701 -0.2181
    1SOL    HW2 7674   4.062   2.561   3.063  0.7519  0.2662  0.2165
    1SOL    HW3 7675   3.990   2.428   3.069 -0.6389  1.0149  0.3724
    1SOL    MW4 7676   4.055   2.478   3.039 -0.4039  0.4413 -0.0830
    1SOL     OW 7677   4.033   2.736   3.089  0.1196 -0.7531  0.2773
    1SOL    HW2 7678   4.035   2.744   3.184 -0.6673 -0.9767  0.3205
    1SOL    HW3 7679   3.949   2.774   3.064 -0.4819 -2.3266 -0.1620
    1SOL    MW4 7680   4.022   2.742   3.098 -0.0634 -0.9902  0.2251
    1SOL     OW 7681   4.292   2.842   3.002  0.0677 -0.3504 -0.6068
    1SOL    HW2 7682   4.204   2.809   3.016 -0.0494  0.3809  0.5088
    1SOL    HW3 7683   4.349   2.779   3.046  0.0384 -0.3819 -0.6143
    1SOL    MW4 7684   4.288   2.830   3.009  0.0486 -0.2580 -0.4606
    1SOL     OW 7685   4.263   3.064   3.151 -0.6404  0.1681  0.3042
    1SOL    HW2 7686   4.193   3.122   3.121 -1.8111 -0.7486  1.2473
    1SOL    HW3 7687   4.258   2.988   3.094 -0.4374  0.0765  0.4071
    1SOL    MW4 7688   4.253   3.062   3.140 -0.7677  0.0353  0.4423
    1SOL     OW 7689   4.059   3.208   3.022  0.2793  0.0397  0.3672
    1SOL    HW2 7690   4.066   3.300   3.048  1.0525  0.0759  0.0381
    1SOL    HW3 7691   4.073   3.208   2.927 -1.4589 -0.2184  0.1023
    1SOL    MW4 7692   4.062   3.220   3.013  0.1521  0.0105  0.2885
    1SOL     OW 7693   4.065   3.490   3.076 -0.0698 -0.3729  0.4066
    1SOL    HW2 7694   4.052   3.488   3.171 -2.5947  0.4842  0.1283
    1SOL    HW3 7695   3.981   3.520   3.041  1.4208  1.1778 -1.9935
    1SOL    MW4 7696   4.052   3.494   3.084 -0.2065 -0.0551  0.0532
    1SOL     OW 7697   4.298   3.619   3.004  0.2521 -0.2105  0.2985
    1SOL    HW2 7698   4.290   3.705   3.045 -1.9776  0.6052 -1.7546
    1SOL    HW3 7699   4.214   3.577   3.021  0.4361 -1.0361 -0.7828
    1SOL    MW4 7700   4.286   3.625   3.012 -0.0181 -0.2115 -0.1147
    1SOL     OW 7701   4.265   3.876   3.120  0.6053  0.2693 -0.1485
    1SOL    HW2 7702   4.192   3.907   3.066  1.1520  1.3940 -0.2508
    1SOL    HW3 7703   4.342   3.923   3.087  1.3988 -0.9519 -0.0899
    1SOL    MW4 7704   4.266   3.886   3.109  0.7825  0.2565 -0.1540
    1SOL     OW 7705   4.039   3.941   2.975  0.0142  0.1825  0.5030
    1SOL    HW2 7706   4.016   4.024   3.017 -1.1387 -0.4093  1.0649
    1SOL    HW3 7707   3.975   3.878   3.009  1.2051 -1.0552  0.4887
    1SOL    MW4 7708   4.027   3.944   2.985  0.0191 -0.0587  0.5751
    1SOL     OW 7709   4.026   4.208   3.089 -0.8258  0.3149 -0.0024
    1SOL    HW2 7710   4.031   4.212   3.185 -1.2042 -0.3891  0.0503
    1SOL    HW3 7711   4.108   4.247   3.060  0.0799 -1.0565  0.6502
    1SOL    MW4 7712   4.038   4.214   3.098 -0.7567  0.0420  0.0906
    1SOL     OW 7713   4.234   4.350   3.004  0.2151  0.3472  0.0766
    1SOL    HW2 7714   4.320   4.314   3.027  0.9364  1.5857 -0.6186
    1SOL    HW3 7715   4.242   4.372   2.911 -0.9813  0.1358 -0.0754
    1SOL    MW4 7716   4.247   4.348   2.995  0.1526  0.4826 -0.0353
    1SOL     OW 7717   0.245   4.613   3.392  0.1870 -0.2742  0.0649
    1SOL    HW2 7718   0.318   4.670   3.415  0.4464 -0.4410 -0.3484
    1SOL    HW3 7719   0.244   4.547   3.462  1.6581 -1.4210 -0.9667
    1SOL    MW4 7720   0.254   4.612   3.405  0.4154 -0.4478 -0.1259
    1SOL     OW 7721   0.016   0.096   3.445  0.0494  0.5011  0.0406
    1SOL    HW2 7722   0.039   0.185   3.417  1.2062  0.0456 -0.5015
    1SOL    HW3 7723   0.092   0.043   3.422 -1.3980 -1.0017 -1.4193
    1SOL    MW4 7724   0.029   0.101   3.439  0.0105  0.2428 -0.2234
    1SOL     OW 7725   0.025   0.367   3.339  0.0107 -0.2352 -0.0687
    1SOL    HW2 7726  -0.053   0.393   3.389  0.6770  0.7527  0.4739
    1SOL    HW3 7727   0.095   0.421   3.374  0.7813 -0.5348 -1.1206
    1SOL    MW4 7728   0.024   0.378   3.350  0.2004 -0.1444 -0.1359
    1SOL     OW 7729   0.251   0.486   3.460 -0.7169  0.6935  0.2960
    1SOL    HW2 7730   0.328   0.438   3.428 -0.2883  0.7650  1.2157
    1SOL    HW3 7731   0.261   0.573   3.423 -1.5863  0.0452 -1.5254
    1SOL    MW4 7732   0.263   0.491   3.451 -0.7751  0.6174  0.1769
    1SOL     OW 7733   0.264   0.742   3.364 -0.0485  0.2653  0.1716
    1SOL    HW2 7734   0.337   0.802   3.379  0.1381  0.1079 -0.0900
    1SOL    HW3 7735   0.188   0.787   3.400 -0.0814  1.0918 -0.9029
    1SOL    MW4 7736   0.263   0.756   3.371 -0.0282  0.3537 -0.0048
    1SOL     OW 7737   0.046   0.900   3.471  0.0907  0.3294  0.8803
    1SOL    HW2 7738   0.061   0.914   3.564 -0.4539  0.9784  0.8781
    1SOL    HW3 7739   0.024   0.986   3.437  1.3043  0.2730 -0.0526
    1SOL    MW4 7740   0.045   0.913   3.479  0.1790  0.4076  0.7567
    1SOL     OW 7741   4.471   1.152   3.391  0.0803 -0.4254  0.1603
    1SOL    HW2 7742   4.543   1.206   3.423 -1.3239  2.0431 -0.6299
    1SOL    HW3 7743   4.485   1.148   3.296 -0.0428 -1.1241  0.1717
    1SOL    MW4 7744   4.482   1.159   3.383 -0.1216 -0.1919  0.0575
    1SOL     OW 7745   0.196   1.288   3.477  0.0942  0.2189  0.5347
    1SOL    HW2 7746   0.223   1.287   3.569 -0.7037  0.8134  0.7731
    1SOL    HW3 7747   0.176   1.379   3.459  1.7710  0.3661 -0.6827
    1SOL    MW4 7748   0.197   1.300   3.487  0.2102  0.3167  0.4055
    1SOL     OW 7749   0.184   1.547   3.407 -0.2107 -0.0170 -0.4414
    1SOL    HW2 7750   0.270   1.580   3.435 -0.1340 -0.7164  0.1827
    1SOL    HW3 7751   0.192   1.536   3.312  0.1620  0.5915 -0.4811
    1SOL    MW4 7752   0.197   1.550   3.398 -0.1514 -0.0290 -0.3643
    1SOL     OW 7753   4.442   1.671   3.497  0.3764 -0.3537 -0.0968
    1SOL    HW2 7754   4.374   1.624   3.449  0.9296 -1.0558 -0.2020
    1SOL    HW3 7755   4.521   1.619   3.483  1.1936  1.0812 -0.9423
    1SOL    MW4 7756   4.444   1.658   3.489  0.5574 -0.2570 -0.2222
    1SOL     OW 7757   4.485   1.931   3.418  0.1240 -0.2787 -0.2988
    1SOL    HW2 7758   4.479   1.843   3.456  0.1008  0.2429  0.8968
    1SOL    HW3 7759   4.482   1.915   3.323  0.0958 -1.5659 -0.0988
    1SOL    MW4 7760   4.484   1.917   3.410  0.1168 -0.3794 -0.1149
    1SOL     OW 7761   0.246   2.046   3.488 -0.4193  0.3931 -0.0555
    1SOL    HW2 7762   0.162   2.013   3.456  0.0739 -0.8757 -0.0686
    1SOL    HW3 7763   0.239   2.042   3.583 -0.0544 -0.5220 -0.0690
    1SOL    MW4 7764   0.234   2.041   3.496 -0.3061  0.1051 -0.0589
    1SOL     OW 7765   0.184   2.291   3.400 -0.3132  0.2784 -0.0919
    1SOL    HW2 7766   0.105   2.324   3.443  0.8938  0.0353  2.3967
    1SOL    HW3 7767   0.198   2.205   3.438  0.4192 -0.2399 -1.4893
    1SOL    MW4 7768   0.176   2.284   3.411 -0.0573  0.1779  0.0522
    1SOL     OW 7769   4.446   2.413   3.495 -0.0855 -0.1640 -0.3008
    1SOL    HW2 7770   4.456   2.398   3.589  0.5950  0.5325 -0.2576
    1SOL    HW3 7771   4.356   2.387   3.477 -0.8638  1.5413  0.9172
    1SOL    MW4 7772   4.436   2.408   3.505 -0.0987  0.1526 -0.1345
    1SOL     OW 7773   4.448   2.704   3.411 -0.0684  0.1400  0.0680
    1SOL    HW2 7774   4.531   2.745   3.436  0.4911 -0.6491 -0.4738
    1SOL    HW3 7775   4.448   2.620   3.458 -0.8074  0.3663  0.4866
    1SOL    MW4 7776   4.459   2.698   3.421 -0.0920  0.0656  0.0517
    1SOL     OW 7777   0.204   2.813   3.475 -0.1935  0.0523  0.3844
    1SOL    HW2 7778   0.284   2.768   3.447  0.2717  1.4215 -0.5161
    1SOL    HW3 7779   0.218   2.904   3.452 -1.7706  0.4201  0.8041
    1SOL    MW4 7780   0.216   2.819   3.468 -0.3402  0.2813  0.3207
    1SOL     OW 7781   0.205   3.063   3.396  0.2543 -0.1088  0.4905
    1SOL    HW2 7782   0.127   3.107   3.429 -0.7859 -0.9386 -0.8360
    1SOL    HW3 7783   0.202   3.074   3.301  1.0538 -1.2592  0.3090
    1SOL    MW4 7784   0.194   3.070   3.388  0.2225 -0.3698  0.2916
    1SOL     OW 7785   4.478   3.182   3.502  0.4021  0.3048  0.5543
    1SOL    HW2 7786   4.390   3.149   3.485  0.7104  0.2317 -0.9767
    1SOL    HW3 7787   4.479   3.269   3.462  1.5828 -0.4302 -1.0685
    1SOL    MW4 7788   4.467   3.189   3.494  0.5984  0.1979  0.1380
    1SOL     OW 7789   4.486   3.445   3.404 -0.1928 -0.2810  0.1796
    1SOL    HW2 7790   4.405   3.490   3.428 -1.1564 -1.1269 -1.3674
    1SOL    HW3 7791   4.495   3.461   3.310  0.1135 -2.2499 -0.1488
    1SOL    MW4 7792   4.477   3.453   3.395 -0.2794 -0.6526 -0.0679
    1SOL     OW 7793   0.254   3.576   3.514  0.2551  0.6647 -0.0463
    1SOL    HW2 7794   0.262   3.586   3.609 -0.2539  1.4077 -0.0748
    1SOL    HW3 7795   0.172   3.529   3.501  1.1310 -0.8767 -0.0530
    1SOL    MW4 7796   0.244   3.571   3.525  0.3035  0.5593 -0.0510
    1SOL     OW 7797   0.259   3.829   3.399 -0.2890 -0.0639  0.1500
    1SOL    HW2 7798   0.191   3.865   3.456 -1.3926 -0.4314 -0.9195
    1SOL    HW3 7799   0.263   3.736   3.422 -1.7799 -0.5371 -1.3560
    1SOL    MW4 7800   0.250   3.821   3.410 -0.6314 -0.1752 -0.1898
    1SOL     OW 7801   0.055   3.994   3.495 -0.1700 -0.8291 -0.6120
    1SOL    HW2 7802   0.031   4.020   3.584 -0.9995 -1.3067 -0.6862
    1SOL    HW3 7803   0.031   4.068   3.440  0.1891 -0.5998 -0.4593
    1SOL    MW4 7804   0.049   4.007   3.500 -0.2321 -0.8621 -0.6015
    1SOL     OW 7805   0.023   4.234   3.359  0.3306  0.1438 -0.1972
    1SOL    HW2 7806  -0.054   4.273   3.400 -0.0726 -0.9982  0.1511
    1SOL    HW3 7807   0.098   4.274   3.403 -0.0729  0.6309  0.0445
    1SOL    MW4 7808   0.023   4.245   3.370  0.2242  0.0577 -0.1194
    1SOL     OW 7809   0.210   4.357   3.533 -0.2742 -0.3110 -0.2237
    1SOL    HW2 7810   0.210   4.362   3.628  0.7680  2.8084 -0.3537
    1SOL    HW3 7811   0.300   4.331   3.510 -0.1863  0.1771 -0.4259
    1SOL    MW4 7812   0.222   4.354   3.542 -0.1251  0.1645 -0.2675
    1SOL     OW 7813   0.687   4.645   3.382  0.0499  0.9082 -0.5106
    1SOL    HW2 7814   0.775   4.677   3.403  1.3443 -1.6748 -1.8299
    1SOL    HW3 7815   0.682   4.651   3.286 -0.8724  0.1526 -0.5108
    1SOL    MW4 7816   0.698   4.650   3.372  0.0989  0.4673 -0.6847
    1SOL     OW 7817   0.451   0.094   3.476  0.0339 -0.0667 -0.0832
    1SOL    HW2 7818   0.454   0.070   3.568  1.2252 -1.3795 -0.4579
    1SOL    HW3 7819   0.530   0.057   3.438 -1.1138 -0.7226 -1.9180
    1SOL    MW4 7820   0.462   0.086   3.483  0.0396 -0.3265 -0.3748
    1SOL     OW 7821   0.468   0.358   3.362 -0.4182 -0.2641  0.2043
    1SOL    HW2 7822   0.550   0.401   3.386 -0.6252 -0.0982  0.6108
    1SOL    HW3 7823   0.472   0.272   3.404 -0.6093 -0.1222  0.5102
    1SOL    MW4 7824   0.479   0.352   3.370 -0.4707 -0.2235  0.2985
    1SOL     OW 7825   0.681   0.529   3.455 -0.2395 -0.2723  0.2984
    1SOL    HW2 7826   0.701   0.523   3.548 -0.9495  0.8377  0.5337
    1SOL    HW3 7827   0.743   0.469   3.413  0.7418 -0.0282  1.3782
    1SOL    MW4 7828   0.692   0.520   3.462 -0.2037 -0.0937  0.4718
    1SOL     OW 7829   0.688   0.799   3.349  0.1752 -0.2365  0.1380
    1SOL    HW2 7830   0.617   0.846   3.393  0.5512  0.2112  0.2848
    1SOL    HW3 7831   0.678   0.708   3.376 -0.0184 -0.0812  0.5962
    1SOL    MW4 7832   0.677   0.793   3.359  0.1993 -0.1569  0.2174
    1SOL     OW 7833   0.476   0.909   3.473  0.5216  0.4676 -0.2723
    1SOL    HW2 7834   0.462   0.914   3.568 -1.7320 -1.7564 -0.4310
    1SOL    HW3 7835   0.451   0.996   3.442 -2.6849 -0.0068  0.7772
    1SOL    MW4 7836   0.471   0.921   3.482 -0.1988  0.1116 -0.1547
    1SOL     OW 7837   0.446   1.175   3.390  0.2009 -0.1603 -0.1272
    1SOL    HW2 7838   0.360   1.214   3.403 -0.2031 -0.9396 -0.4306
    1SOL    HW3 7839   0.451   1.159   3.295  0.3158 -0.9473  0.0068
    1SOL    MW4 7840   0.435   1.178   3.379  0.1628 -0.3669 -0.1495
    1SOL     OW 7841   0.693   1.275   3.472  0.2692  0.4715 -0.3381
    1SOL    HW2 7842   0.609   1.236   3.447  1.3995 -1.5990 -1.0294
    1SOL    HW3 7843   0.686   1.366   3.443 -1.0877 -0.1128 -1.9701
    1SOL    MW4 7844   0.681   1.282   3.465  0.2393  0.1214 -0.6444
    1SOL     OW 7845   0.667   1.543   3.392  0.1033  0.2392 -0.5056
    1SOL    HW2 7846   0.727   1.599   3.439  0.9320  0.4641 -1.8052
    1SOL    HW3 7847   0.580   1.576   3.414  0.5810  2.1772 -1.4191
    1SOL    MW4 7848   0.663   1.554   3.401  0.2756  0.5245 -0.7975
    1SOL     OW 7849   0.438   1.661   3.472 -0.0140  0.1380  0.2497
    1SOL    HW2 7850   0.436   1.662   3.568  2.1914  1.2259  0.3199
    1SOL    HW3 7851   0.460   1.751   3.447  1.2084 -0.5377 -1.1937
    1SOL    MW4 7852   0.441   1.673   3.481  0.4383  0.1926  0.0687
    1SOL     OW 7853   0.476   1.916   3.400 -0.2588  0.4219  0.5261
    1SOL    HW2 7854   0.409   1.964   3.448 -0.5811 -0.2198  0.7309
    1SOL    HW3 7855   0.453   1.927   3.308 -0.2410  0.7904  0.5675
    1SOL    MW4 7856   0.464   1.924   3.394 -0.2990  0.3859  0.5586
    1SOL     OW 7857   0.671   2.089   3.517  0.5078  0.3145  0.0687
    1SOL    HW2 7858   0.664   2.074   3.612  2.9292 -0.2843  0.1804
    1SOL    HW3 7859   0.614   2.023   3.479 -0.8118  0.8210  1.1131
    1SOL    MW4 7860   0.662   2.078   3.525  0.6532  0.3023  0.2215
    1SOL     OW 7861   0.644   2.318   3.384 -0.5085  0.1713  0.2376
    1SOL    HW2 7862   0.726   2.365   3.398 -0.0227 -0.5625 -0.0853
    1SOL    HW3 7863   0.652   2.240   3.439 -1.0861  0.2028  0.3704
    1SOL    MW4 7864   0.656   2.314   3.393 -0.5206  0.0784  0.2124
    1SOL     OW 7865   0.406   2.437   3.511 -0.1595 -0.2107 -0.5413
    1SOL    HW2 7866   0.486   2.400   3.473  0.4725  0.6070 -0.0081
    1SOL    HW3 7867   0.335   2.388   3.469  0.5954 -0.5467 -1.4433
    1SOL    MW4 7868   0.407   2.425   3.500  0.0235 -0.1471 -0.5901
    1SOL     OW 7869   0.451   2.702   3.430 -0.2576  0.6002 -0.1327
    1SOL    HW2 7870   0.433   2.609   3.448 -1.6114  0.7697 -0.5625
    1SOL    HW3 7871   0.451   2.708   3.335 -0.4710  1.0991 -0.1000
    1SOL    MW4 7872   0.448   2.690   3.420 -0.4644  0.6883 -0.1848
    1SOL     OW 7873   0.702   2.854   3.503  0.3430  0.1923 -0.2633
    1SOL    HW2 7874   0.773   2.799   3.469  0.1442  0.7125 -1.5597
    1SOL    HW3 7875   0.622   2.803   3.486  0.2593  0.3697 -0.4037
    1SOL    MW4 7876   0.701   2.840   3.496  0.3058  0.2844 -0.4530
    1SOL     OW 7877   0.669   3.087   3.340  0.3828  0.0098  0.0140
    1SOL    HW2 7878   0.595   3.133   3.378 -0.5969 -0.6461 -1.0824
    1SOL    HW3 7879   0.684   3.012   3.398 -0.1509 -0.1578 -0.0690
    1SOL    MW4 7880   0.661   3.084   3.353  0.1830 -0.0987 -0.1416
    1SOL     OW 7881   0.457   3.174   3.487 -0.4670  0.0312  0.1557
    1SOL    HW2 7882   0.438   3.199   3.577 -1.6261 -1.4274  0.3453
    1SOL    HW3 7883   0.373   3.141   3.453 -0.0003  0.3768 -1.3859
    1SOL    MW4 7884   0.443   3.173   3.494 -0.5584 -0.1156 -0.0226
    1SOL     OW 7885   0.480   3.452   3.426 -0.3562 -0.3387 -0.0325
    1SOL    HW2 7886   0.452   3.361   3.438  1.2860 -0.8288  0.1817
    1SOL    HW3 7887   0.403   3.504   3.448 -1.4617 -1.6967 -0.6549
    1SOL    MW4 7888   0.466   3.447   3.431 -0.2854 -0.5827 -0.0863
    1SOL     OW 7889   0.710   3.583   3.527 -0.5326  0.1803 -0.0837
    1SOL    HW2 7890   0.783   3.550   3.474 -0.6031 -1.1717  0.6478
    1SOL    HW3 7891   0.633   3.538   3.491 -0.6052 -0.6117  1.0383
    1SOL    MW4 7892   0.709   3.572   3.515 -0.5514 -0.1023  0.1609
    1SOL     OW 7893   0.670   3.832   3.379 -0.2183 -0.0072  0.0725
    1SOL    HW2 7894   0.592   3.869   3.422 -1.1409  0.0138 -1.5753
    1SOL    HW3 7895   0.693   3.756   3.433 -1.8824 -0.4962  0.1309
    1SOL    MW4 7896   0.662   3.827   3.392 -0.5596 -0.0691 -0.1371
    1SOL     OW 7897   0.469   3.976   3.539  0.3153 -0.9312 -0.1434
    1SOL    HW2 7898   0.458   4.062   3.500  0.0881 -0.1626  1.5946
    1SOL    HW3 7899   0.398   3.923   3.501 -0.7342  0.1796  0.2471
    1SOL    MW4 7900   0.458   3.980   3.529  0.1468 -0.6833  0.1373
    1SOL     OW 7901   0.453   4.231   3.415 -0.4491 -0.0826 -0.1091
    1SOL    HW2 7902   0.534   4.272   3.443  0.9844 -2.5730 -0.4533
    1SOL    HW3 7903   0.441   4.260   3.324  0.9787 -1.0315 -0.6193
    1SOL    MW4 7904   0.462   4.240   3.407 -0.0716 -0.5364 -0.2217
    1SOL     OW 7905   0.676   4.376   3.470 -0.3759  0.1062  0.3579
    1SOL    HW2 7906   0.753   4.323   3.449  0.0051  0.7020  0.2521
    1SOL    HW3 7907   0.689   4.458   3.422 -1.9311 -0.4582 -1.0735
    1SOL    MW4 7908   0.688   4.380   3.461 -0.5307  0.1101  0.1550
    1SOL     OW 7909   1.150   4.618   3.397 -0.4549  0.2656  1.0248
    1SOL    HW2 7910   1.216   4.681   3.424 -1.9331  2.0272  0.5996
    1SOL    HW3 7911   1.149   4.624   3.301 -0.9284 -0.0449  1.0056
    1SOL    MW4 7912   1.158   4.627   3.388 -0.7124  0.4568  0.9663
    1SOL     OW 7913   0.922   0.105   3.444  0.0495  0.1194 -0.2743
    1SOL    HW2 7914   0.917   0.121   3.538  0.9893 -0.2085 -0.1694
    1SOL    HW3 7915   0.991   0.040   3.434 -0.7329 -0.5954 -1.1012
    1SOL    MW4 7916   0.930   0.099   3.455  0.0703 -0.0182 -0.3698
    1SOL     OW 7917   0.870   0.360   3.342 -0.4757 -0.0100 -0.1562
    1SOL    HW2 7918   0.954   0.397   3.371 -1.1357  0.5892  1.0379
    1SOL    HW3 7919   0.875   0.268   3.368  0.4246 -0.3581 -1.4827
    1SOL    MW4 7920   0.882   0.352   3.349 -0.4440  0.0232 -0.1736
    1SOL     OW 7921   1.097   0.503   3.427  0.1783  0.0496  0.3512
    1SOL    HW2 7922   1.099   0.486   3.521 -0.0803  0.0335  0.3535
    1SOL    HW3 7923   1.081   0.597   3.420 -0.6495 -0.0935  0.3143
    1SOL    MW4 7924   1.095   0.514   3.438  0.0349  0.0286  0.3469
    1SOL     OW 7925   1.113   0.775   3.410 -0.2452 -0.0359  0.1152
    1SOL    HW2 7926   1.191   0.824   3.437  0.4094 -0.8400 -0.2878
    1SOL    HW3 7927   1.040   0.824   3.447  0.3773  1.4343 -0.5631
    1SOL    MW4 7928   1.114   0.788   3.418 -0.0767  0.0520 -0.0274
    1SOL     OW 7929   0.883   0.907   3.527  0.5366  0.4731  0.1870
    1SOL    HW2 7930   0.887   0.993   3.484 -0.5830 -0.3187 -1.5375
    1SOL    HW3 7931   0.820   0.857   3.476  2.7719 -2.1136 -0.1193
    1SOL    MW4 7932   0.875   0.912   3.515  0.6838  0.0274 -0.0806
    1SOL     OW 7933   0.923   1.139   3.392  0.1860  0.1486  0.4330
    1SOL    HW2 7934   0.989   1.188   3.442  0.9027  0.6685 -0.9975
    1SOL    HW3 7935   0.845   1.195   3.394  0.4001  0.4476  0.4404
    1SOL    MW4 7936   0.921   1.153   3.399  0.3089  0.2568  0.2453
    1SOL     OW 7937   1.151   1.283   3.498  0.3100 -0.1493 -0.1813
    1SOL    HW2 7938   1.173   1.298   3.590 -2.3517 -0.5027  0.5583
    1SOL    HW3 7939   1.147   1.370   3.459  0.4227  0.0639  0.2927
    1SOL    MW4 7940   1.154   1.296   3.505 -0.0262 -0.1677 -0.0215
    1SOL     OW 7941   1.122   1.543   3.384  0.1394 -0.5820 -0.2217
    1SOL    HW2 7942   1.199   1.594   3.413 -0.0744 -0.0231 -0.6284
    1SOL    HW3 7943   1.134   1.533   3.290 -0.3976 -0.3023 -0.3220
    1SOL    MW4 7944   1.134   1.549   3.376  0.0404 -0.4712 -0.2887
    1SOL     OW 7945   0.890   1.669   3.529 -0.1598  0.1005 -0.4082
    1SOL    HW2 7946   0.899   1.761   3.503  0.6543 -0.1514 -1.0392
    1SOL    HW3 7947   0.972   1.628   3.502  0.1476 -0.4723  1.3669
    1SOL    MW4 7948   0.902   1.676   3.522 -0.0118 -0.0083 -0.2573
    1SOL     OW 7949   0.916   1.945   3.445  0.4272  0.2086 -0.1986
    1SOL    HW2 7950   0.998   1.988   3.468  0.6609 -1.1138  1.5536
    1SOL    HW3 7951   0.848   2.002   3.480  0.6383  0.5174 -0.2875
    1SOL    MW4 7952   0.918   1.958   3.453  0.4859  0.0749  0.0207
    1SOL     OW 7953   1.159   2.071   3.507  0.0007  0.1130 -0.0570
    1SOL    HW2 7954   1.216   2.031   3.441  2.3178  1.5163  1.0194
    1SOL    HW3 7955   1.161   2.165   3.487  1.1251  0.6257  2.2353
    1SOL    MW4 7956   1.167   2.078   3.496  0.4549  0.3662  0.3874
    1SOL     OW 7957   1.133   2.307   3.385  0.0981  0.1428  0.4043
    1SOL    HW2 7958   1.200   2.370   3.410 -0.1518  0.2505  0.8097
    1SOL    HW3 7959   1.132   2.310   3.289  0.2996  0.5282  0.4144
    1SOL    MW4 7960   1.142   2.316   3.375  0.0918  0.2079  0.4590
    1SOL     OW 7961   0.885   2.451   3.468  0.1738  0.1411 -0.0979
    1SOL    HW2 7962   0.871   2.441   3.562 -0.0086 -0.8294 -0.2204
    1SOL    HW3 7963   0.965   2.403   3.450 -0.7853 -1.2579 -0.7343
    1SOL    MW4 7964   0.893   2.443   3.478  0.0232 -0.1714 -0.1981
    1SOL     OW 7965   0.914   2.717   3.389 -0.1802  0.3116  0.0743
    1SOL    HW2 7966   1.003   2.749   3.405 -0.3945  0.9232  0.0809
    1SOL    HW3 7967   0.916   2.625   3.413  0.7711  0.0144 -1.0680
    1SOL    MW4 7968   0.926   2.709   3.394 -0.0830  0.3531 -0.0756
    1SOL     OW 7969   1.148   2.836   3.467  0.1462  0.1453  0.0293
    1SOL    HW2 7970   1.142   2.832   3.563  0.5760  0.8149  0.0864
    1SOL    HW3 7971   1.232   2.794   3.448  0.0762  0.0432 -0.0513
    1SOL    MW4 7972   1.158   2.830   3.477  0.1937  0.2203  0.0260
    1SOL     OW 7973   1.148   3.097   3.392 -0.1717  0.4925  0.1773
    1SOL    HW2 7974   1.152   3.006   3.421 -0.5675  0.4669  0.1549
    1SOL    HW3 7975   1.147   3.091   3.296  0.3456  0.5453  0.1638
    1SOL    MW4 7976   1.149   3.084   3.383 -0.1556  0.4959  0.1726
    1SOL     OW 7977   0.902   3.222   3.449  0.2405  0.0840  0.0876
    1SOL    HW2 7978   0.982   3.170   3.439 -0.8664 -1.5570 -0.5894
    1SOL    HW3 7979   0.835   3.172   3.402 -1.0693  1.7043  0.1629
    1SOL    MW4 7980   0.904   3.209   3.441 -0.0784  0.0811  0.0079
    1SOL     OW 7981   0.928   3.487   3.378 -0.0311 -0.0709  0.2315
    1SOL    HW2 7982   0.908   3.402   3.417  1.7456 -1.0698 -0.9785
    1SOL    HW3 7983   0.912   3.475   3.284  0.6001  0.8151  0.0063
    1SOL    MW4 7984   0.923   3.474   3.371  0.2866 -0.0856  0.0424
    1SOL     OW 7985   1.158   3.606   3.448  0.0355 -0.4279 -0.0800
    1SOL    HW2 7986   1.154   3.601   3.543 -0.4409  0.1310 -0.0704
    1SOL    HW3 7987   1.082   3.556   3.417  0.3750 -0.8948 -0.1826
    1SOL    MW4 7988   1.148   3.598   3.456  0.0174 -0.4160 -0.0923
    1SOL     OW 7989   1.094   3.847   3.386 -0.3266  0.1491 -0.0076
    1SOL    HW2 7990   1.166   3.904   3.410 -0.0767  0.9914 -2.6620
    1SOL    HW3 7991   1.124   3.759   3.409  1.5640  0.4898 -1.1082
    1SOL    MW4 7992   1.107   3.843   3.392 -0.0440  0.3052 -0.5031
    1SOL     OW 7993   0.872   4.003   3.438  0.0295  0.2432 -0.2913
    1SOL    HW2 7994   0.949   3.950   3.419 -0.9736 -1.3311 -0.0848
    1SOL    HW3 7995   0.798   3.949   3.409 -1.1235  0.7700  1.6166
    1SOL    MW4 7996   0.872   3.989   3.431 -0.2550  0.1051 -0.0124
    1SOL     OW 7997   0.918   4.263   3.382 -0.0602  0.3366  0.0106
    1SOL    HW2 7998   0.902   4.170   3.400  1.4449  0.2102  0.7135
    1SOL    HW3 7999   0.908   4.271   3.287  2.4771 -1.0740 -0.4004
    1SOL    MW4 8000   0.914   4.252   3.372  0.4731  0.1335  0.0491
    1SOL     OW 8001   1.186   4.350   3.486  0.0550 -0.1316 -0.5315
    1SOL    HW2 8002   1.102   4.313   3.459 -0.7273  0.3661  1.1033
    1SOL    HW3 8003   1.182   4.442   3.458  0.1175 -0.1601 -0.6301
    1SOL    MW4 8004   1.174   4.358   3.479 -0.0399 -0.0696 -0.3288
    1SOL     OW 8005   1.636   0.011   3.401  0.0099  0.1683 -0.0187
    1SOL    HW2 8006   1.604  -0.070   3.442 -0.2063 -0.6898 -1.8609
    1SOL    HW3 8007   1.567   0.075   3.419  0.0057 -0.1437  1.1275
    1SOL    MW4 8008   1.622   0.008   3.409 -0.0192  0.0143 -0.1104
    1SOL     OW 8009   1.365   0.130   3.460 -0.0497  0.3233 -0.0283
    1SOL    HW2 8010   1.331   0.133   3.550  0.3732  0.1745  0.1376
    1SOL    HW3 8011   1.328   0.208   3.418 -0.0038  0.5609  0.3644
    1SOL    MW4 8012   1.355   0.141   3.467  0.0122  0.3350  0.0453
    1SOL     OW 8013   1.347   0.376   3.332 -0.0347  0.1651 -0.3182
    1SOL    HW2 8014   1.417   0.427   3.373 -1.2018  1.7838 -0.2816
    1SOL    HW3 8015   1.266   0.417   3.363 -0.9813 -0.6880 -1.6081
    1SOL    MW4 8016   1.346   0.388   3.341 -0.3135  0.2661 -0.4838
    1SOL     OW 8017   1.570   0.525   3.465  0.3015 -0.1371 -0.0908
    1SOL    HW2 8018   1.568   0.532   3.561 -1.3490 -3.2467  0.1907
    1SOL    HW3 8019   1.646   0.470   3.446 -1.1855 -2.2059 -0.2685
    1SOL    MW4 8020   1.580   0.519   3.475 -0.1124 -0.8203 -0.0770
    1SOL     OW 8021   1.542   0.794   3.338 -0.1261 -0.0241 -0.1914
    1SOL    HW2 8022   1.462   0.830   3.378  0.7205  0.6467  0.9457
    1SOL    HW3 8023   1.553   0.709   3.380  0.0195  0.0908  0.0032
    1SOL    MW4 8024   1.533   0.788   3.349  0.0049  0.0795 -0.0157
    1SOL     OW 8025   1.335   0.938   3.485  0.0378 -0.1583 -0.7198
    1SOL    HW2 8026   1.334   0.932   3.581 -1.7488 -0.9176 -0.7596
    1SOL    HW3 8027   1.358   1.029   3.467 -0.0717  0.1059  0.4370
    1SOL    MW4 8028   1.338   0.950   3.495 -0.2123 -0.2236 -0.5724
    1SOL     OW 8029   1.370   1.188   3.385 -0.1767 -0.1743 -0.1361
    1SOL    HW2 8030   1.451   1.224   3.422 -0.8615  2.2447 -0.9582
    1SOL    HW3 8031   1.301   1.222   3.442 -0.9238  0.6863 -1.5380
    1SOL    MW4 8032   1.372   1.197   3.398 -0.3656  0.2584 -0.4296
    1SOL     OW 8033   1.607   1.307   3.485  0.2389 -0.3096 -0.0276
    1SOL    HW2 8034   1.606   1.292   3.579  0.0649  0.0987  0.0383
    1SOL    HW3 8035   1.671   1.244   3.451  1.0138  0.1999  0.4798
    1SOL    MW4 8036   1.615   1.297   3.493  0.3181 -0.1885  0.0482
    1SOL     OW 8037   1.564   1.559   3.365  0.3012  0.5650  0.3793
    1SOL    HW2 8038   1.581   1.473   3.404  0.0931  0.2016 -0.3314
    1SOL    HW3 8039   1.576   1.546   3.271 -1.1499  0.9702  0.1323
    1SOL    MW4 8040   1.568   1.546   3.358  0.0824  0.5707  0.2527
    1SOL     OW 8041   1.356   1.678   3.486  0.2141  0.0583  0.0045
    1SOL    HW2 8042   1.363   1.662   3.580  1.9770  0.3121 -0.0625
    1SOL    HW3 8043   1.427   1.627   3.448 -1.1693 -0.9217 -1.3180
    1SOL    MW4 8044   1.366   1.669   3.494  0.2642 -0.0376 -0.1788
    1SOL     OW 8045   1.335   1.915   3.348 -0.6132  0.3103 -0.4232
    1SOL    HW2 8046   1.414   1.941   3.395  0.3074 -1.0238 -1.2121
    1SOL    HW3 8047   1.319   1.825   3.377 -0.0749 -0.4981 -2.5974
    1SOL    MW4 8048   1.343   1.907   3.358 -0.4208  0.0275 -0.8140
    1SOL     OW 8049   1.548   2.038   3.490 -0.3769  0.2805  0.3369
    1SOL    HW2 8050   1.628   2.001   3.452 -1.6579 -1.4774 -0.7183
    1SOL    HW3 8051   1.533   2.119   3.442 -0.3120 -0.3988 -0.8607
    1SOL    MW4 8052   1.557   2.043   3.479 -0.5373 -0.0410  0.0396
    1SOL     OW 8053   1.543   2.282   3.355  0.5644  0.4495 -0.1036
    1SOL    HW2 8054   1.489   2.354   3.388 -1.1902 -0.8382 -0.0877
    1SOL    HW3 8055   1.542   2.294   3.259  0.0876  0.3047 -0.1160
    1SOL    MW4 8056   1.536   2.293   3.346  0.2700  0.2606 -0.1032
    1SOL     OW 8057   1.355   2.470   3.450 -0.1911  0.3933 -0.0434
    1SOL    HW2 8058   1.354   2.474   3.546  1.2024  0.9926 -0.0395
    1SOL    HW3 8059   1.373   2.560   3.422  1.5327 -0.1576 -0.8001
    1SOL    MW4 8060   1.357   2.483   3.459  0.2204  0.3994 -0.1428
    1SOL     OW 8061   1.374   2.736   3.371  0.3359  0.3826 -0.1682
    1SOL    HW2 8062   1.452   2.769   3.415 -0.5799  0.4867  1.4187
    1SOL    HW3 8063   1.394   2.742   3.278  1.3604  2.5551  0.1595
    1SOL    MW4 8064   1.387   2.741   3.364  0.3502  0.6831  0.0842
    1SOL     OW 8065   1.607   2.835   3.495  0.0437  0.0218 -0.2803
    1SOL    HW2 8066   1.679   2.795   3.446  1.6993  0.8662  1.4327
    1SOL    HW3 8067   1.602   2.925   3.460 -0.6925 -0.2501 -0.9091
    1SOL    MW4 8068   1.615   2.842   3.484  0.1650  0.0973 -0.1373
    1SOL     OW 8069   1.566   3.084   3.374  0.0384 -0.2655 -0.2154
    1SOL    HW2 8070   1.642   3.130   3.409  0.0020 -0.4201  0.0610
    1SOL    HW3 8071   1.491   3.139   3.398  0.1548  0.4226 -1.3804
    1SOL    MW4 8072   1.566   3.098   3.382  0.0490 -0.1953 -0.3326
    1SOL     OW 8073   1.342   3.249   3.495 -0.2081 -0.0124  0.4100
    1SOL    HW2 8074   1.331   3.237   3.589  1.8246 -1.3924  0.5226
    1SOL    HW3 8075   1.270   3.200   3.455 -0.7544  0.1158  1.2469
    1SOL    MW4 8076   1.331   3.241   3.502 -0.0119 -0.1774  0.5355
    1SOL     OW 8077   1.386   3.487   3.371  0.0133  0.2540  0.1823
    1SOL    HW2 8078   1.368   3.406   3.419 -0.6040  0.5320  0.4201
    1SOL    HW3 8079   1.308   3.540   3.384  0.6378  1.1101  0.4790
    1SOL    MW4 8080   1.373   3.483   3.379  0.0143  0.4039  0.2530
    1SOL     OW 8081   1.599   3.621   3.463 -0.8796  0.3381 -0.0890
    1SOL    HW2 8082   1.584   3.618   3.557 -2.0049 -0.2440 -0.2706
    1SOL    HW3 8083   1.531   3.564   3.426  0.0862 -0.1308 -1.1886
    1SOL    MW4 8084   1.588   3.613   3.470 -0.9005  0.1993 -0.2582
    1SOL     OW 8085   1.570   3.871   3.375  0.1447 -0.5125 -0.1135
    1SOL    HW2 8086   1.585   3.778   3.391 -1.0626 -0.7904 -0.5382
    1SOL    HW3 8087   1.572   3.880   3.279 -0.6745 -0.2660 -0.1120
    1SOL    MW4 8088   1.573   3.860   3.364 -0.1227 -0.5167 -0.1693
    1SOL     OW 8089   1.343   3.990   3.469  0.2109  0.0901  0.2824
    1SOL    HW2 8090   1.350   4.079   3.434  0.6347 -0.7311 -1.7960
    1SOL    HW3 8091   1.423   3.946   3.439 -0.3233 -1.1924  0.6887
    1SOL    MW4 8092   1.355   3.996   3.460  0.1965 -0.1872  0.0620
    1SOL     OW 8093   1.396   4.237   3.355 -0.1356  0.0325 -0.0554
    1SOL    HW2 8094   1.326   4.291   3.394 -0.5289 -0.1324 -0.5358
    1SOL    HW3 8095   1.369   4.224   3.264  0.0658 -0.7928 -0.0027
    1SOL    MW4 8096   1.383   4.243   3.348 -0.1609 -0.0982 -0.1118
    1SOL     OW 8097   1.606   4.386   3.460 -0.1765 -0.5645 -0.0473
    1SOL    HW2 8098   1.686   4.338   3.439 -0.7629 -1.5769  0.0130
    1SOL    HW3 8099   1.536   4.335   3.420 -0.6054  1.5058 -2.0837
    1SOL    MW4 8100   1.607   4.373   3.452 -0.3104 -0.4244 -0.3080
    1SOL     OW 8101   2.027   0.015   3.343 -0.4249  0.0267 -0.4643
    1SOL    HW2 8102   2.102   0.039   3.397 -2.0124  0.4854  1.6102
    1SOL    HW3 8103   1.955   0.068   3.377 -2.0011 -1.3642 -1.5353
    1SOL    MW4 8104   2.027   0.025   3.354 -0.8423 -0.0963 -0.3316
    1SOL     OW 8105   1.843   0.141   3.505  0.5061 -0.0711 -0.3682
    1SOL    HW2 8106   1.826   0.133   3.599  0.8493  0.1475 -0.2879
    1SOL    HW3 8107   1.780   0.081   3.465  1.8271 -1.8267  0.1372
    1SOL    MW4 8108   1.832   0.132   3.512  0.7257 -0.2739 -0.2909
    1SOL     OW 8109   1.795   0.384   3.395  0.1504  0.5875 -0.0693
    1SOL    HW2 8110   1.810   0.299   3.437 -1.0069  0.0406 -0.7467
    1SOL    HW3 8111   1.804   0.367   3.301  0.9977  1.4487 -0.1610
    1SOL    MW4 8112   1.798   0.371   3.388  0.1096  0.6289 -0.1707
    1SOL     OW 8113   2.011   0.493   3.507  0.0171 -0.2984 -0.0535
    1SOL    HW2 8114   2.021   0.580   3.469  1.6312 -0.7887 -0.7960
    1SOL    HW3 8115   1.932   0.458   3.466 -0.2377  0.5489 -0.2861
    1SOL    MW4 8116   2.002   0.500   3.496  0.1965 -0.2513 -0.1822
    1SOL     OW 8117   1.974   0.748   3.382  0.2308 -0.5253 -0.5574
    1SOL    HW2 8118   2.057   0.793   3.401 -0.7695  1.5591 -0.9739
    1SOL    HW3 8119   1.974   0.741   3.286 -0.3352  0.0164 -0.5986
    1SOL    MW4 8120   1.985   0.753   3.372  0.0242 -0.1788 -0.6175
    1SOL     OW 8121   1.758   0.881   3.476 -0.0749 -0.0446 -0.1595
    1SOL    HW2 8122   1.826   0.822   3.444  0.1971 -1.9393  3.7130
    1SOL    HW3 8123   1.677   0.848   3.437  0.4663 -1.2186 -0.3098
    1SOL    MW4 8124   1.756   0.869   3.466  0.0324 -0.4495  0.3316
    1SOL     OW 8125   1.811   1.139   3.377  0.3172 -0.4779 -0.3213
    1SOL    HW2 8126   1.893   1.175   3.411 -1.3461  2.3712  0.9613
    1SOL    HW3 8127   1.809   1.049   3.410  2.7549 -0.4984 -0.1085
    1SOL    MW4 8128   1.822   1.132   3.386  0.4194 -0.1048 -0.1237
    1SOL     OW 8129   2.031   1.282   3.486  0.8909  0.2186 -0.9542
    1SOL    HW2 8130   2.034   1.273   3.581  0.9414  0.2523 -0.9527
    1SOL    HW3 8131   2.022   1.376   3.471 -0.1050  0.1277 -0.9585
    1SOL    MW4 8132   2.030   1.293   3.497  0.7663  0.2111 -0.9546
    1SOL     OW 8133   2.009   1.542   3.385  0.1139 -0.1825 -0.3581
    1SOL    HW2 8134   2.088   1.583   3.420 -0.3377 -0.6393  1.2803
    1SOL    HW3 8135   1.937   1.589   3.428 -0.4689 -0.5274 -0.9493
    1SOL    MW4 8136   2.010   1.554   3.396 -0.0226 -0.2882 -0.2198
    1SOL     OW 8137   1.779   1.674   3.488  0.2972  0.0837  0.2560
    1SOL    HW2 8138   1.775   1.766   3.461  0.8281  0.7273  2.2239
    1SOL    HW3 8139   1.702   1.633   3.448  0.0024  1.4102 -0.5550
    1SOL    MW4 8140   1.768   1.681   3.479  0.3284  0.3437  0.4089
    1SOL     OW 8141   1.800   1.940   3.407  0.7094 -0.6289 -0.4744
    1SOL    HW2 8142   1.873   1.990   3.443 -1.3965  1.0122  1.6926
    1SOL    HW3 8143   1.794   1.970   3.316  0.2917  2.2483  0.4332
    1SOL    MW4 8144   1.809   1.951   3.400  0.3765 -0.0329 -0.0687
    1SOL     OW 8145   2.033   2.078   3.503 -0.3806  0.3432 -0.1056
    1SOL    HW2 8146   2.090   2.017   3.456  0.6390  0.5429  0.8540
    1SOL    HW3 8147   2.034   2.157   3.449  1.4996  0.8755  0.6856
    1SOL    MW4 8148   2.041   2.080   3.489  0.0019  0.4396  0.1252
    1SOL     OW 8149   2.022   2.319   3.355  0.2549  0.2197 -0.4124
    1SOL    HW2 8150   1.929   2.339   3.366 -0.0914 -1.2146 -0.5979
    1SOL    HW3 8151   2.036   2.321   3.261  0.2079 -0.4004 -0.4363
    1SOL    MW4 8152   2.011   2.322   3.344  0.2029 -0.0517 -0.4399
    1SOL     OW 8153   1.767   2.426   3.411 -0.1029  0.2856  0.3780
    1SOL    HW2 8154   1.763   2.433   3.506  0.5677 -1.2808  0.5440
    1SOL    HW3 8155   1.694   2.368   3.388  0.9273 -0.9300  0.1408
    1SOL    MW4 8156   1.757   2.419   3.421  0.1216 -0.0815  0.3686
    1SOL     OW 8157   1.806   2.709   3.364 -0.2866 -0.0309 -0.5586
    1SOL    HW2 8158   1.892   2.724   3.402 -0.8882 -1.2006  1.3159
    1SOL    HW3 8159   1.791   2.615   3.373 -1.2741 -0.0266 -1.9279
    1SOL    MW4 8160   1.815   2.699   3.370 -0.4963 -0.1848 -0.4919
    1SOL     OW 8161   2.060   2.831   3.459  0.6000  0.1377 -0.1599
    1SOL    HW2 8162   2.038   2.826   3.552  1.7560 -1.3194  0.0562
    1SOL    HW3 8163   2.034   2.920   3.433 -0.0220  0.4527  1.4645
    1SOL    MW4 8164   2.054   2.842   3.468  0.6704 -0.0131  0.0830
    1SOL     OW 8165   2.013   3.075   3.356  0.2538 -0.1681  0.8330
    1SOL    HW2 8166   2.079   3.132   3.396  0.7857  0.8076 -1.3506
    1SOL    HW3 8167   1.930   3.104   3.394  0.8179  0.1886  1.8175
    1SOL    MW4 8168   2.011   3.087   3.366  0.3984  0.0076  0.6750
    1SOL     OW 8169   1.790   3.218   3.476 -0.3689 -0.1880 -0.1065
    1SOL    HW2 8170   1.804   3.236   3.568  0.2016 -0.1022 -0.2112
    1SOL    HW3 8171   1.802   3.302   3.432 -0.5795 -0.2401 -0.2676
    1SOL    MW4 8172   1.794   3.231   3.482 -0.3215 -0.1838 -0.1414
    1SOL     OW 8173   1.822   3.483   3.360  0.5288  0.0836  0.2077
    1SOL    HW2 8174   1.746   3.528   3.395 -0.1433 -0.6334 -0.3197
    1SOL    HW3 8175   1.833   3.519   3.272  1.5574  1.0887  0.7278
    1SOL    MW4 8176   1.814   3.494   3.353  0.5759  0.1216  0.2065
    1SOL     OW 8177   2.043   3.656   3.464 -0.1436  0.3028  0.2129
    1SOL    HW2 8178   2.127   3.613   3.448 -0.8275 -1.1836  0.4333
    1SOL    HW3 8179   1.978   3.589   3.441 -1.2205  0.7754  1.8129
    1SOL    MW4 8180   2.045   3.641   3.459 -0.3757  0.1688  0.4532
    1SOL     OW 8181   1.997   3.917   3.353 -0.3044  0.0888 -0.7061
    1SOL    HW2 8182   1.928   3.964   3.400  1.8866  1.3426  1.3639
    1SOL    HW3 8183   2.007   3.835   3.401  1.2976  0.9784  0.5677
    1SOL    MW4 8184   1.989   3.913   3.365  0.1960  0.3717 -0.2649
    1SOL     OW 8185   1.776   4.037   3.492 -0.3663 -0.5474  0.1225
    1SOL    HW2 8186   1.779   4.037   3.588  1.8934 -2.8271  0.0931
    1SOL    HW3 8187   1.706   3.976   3.470 -1.5814  0.7445  0.2791
    1SOL    MW4 8188   1.767   4.029   3.502 -0.2285 -0.6771  0.1392
    1SOL     OW 8189   1.860   4.284   3.370  0.1222 -0.3049 -0.4190
    1SOL    HW2 8190   1.836   4.208   3.423 -0.1877 -0.0254 -0.1590
    1SOL    HW3 8191   1.850   4.253   3.280 -0.7850 -0.3395 -0.3170
    1SOL    MW4 8192   1.855   4.270   3.365 -0.0384 -0.2723 -0.3710
    1SOL     OW 8193   2.063   4.431   3.463  0.3851  0.6032  0.3891
    1SOL    HW2 8194   1.988   4.388   3.421  0.2526  1.2254 -0.0197
    1SOL    HW3 8195   2.063   4.519   3.426  2.0790  0.2175 -0.5740
    1SOL    MW4 8196   2.053   4.437   3.453  0.5908  0.6347  0.2081
    1SOL     OW 8197   2.475   4.638   3.380 -0.3077 -0.4264 -0.0698
    1SOL    HW2 8198   2.478   4.553   3.423  1.3541  0.2089  1.1007
    1SOL    HW3 8199   2.480   4.618   3.286  0.9431 -1.5595  0.2425
    1SOL    MW4 8200   2.476   4.624   3.373  0.0768 -0.4926  0.1259
    1SOL     OW 8201   2.244   0.098   3.500  0.1906  0.1604 -0.0397
    1SOL    HW2 8202   2.240   0.186   3.461 -0.0420  0.2012  0.0798
    1SOL    HW3 8203   2.318   0.056   3.455 -1.0813 -0.3632 -1.7235
    1SOL    MW4 8204   2.253   0.104   3.489 -0.0076  0.0967 -0.2458
    1SOL     OW 8205   2.245   0.365   3.407  0.5184  0.3101 -0.1880
    1SOL    HW2 8206   2.317   0.408   3.453  0.4051 -1.0889  1.3537
    1SOL    HW3 8207   2.166   0.407   3.441  0.5590  1.6040 -1.6240
    1SOL    MW4 8208   2.244   0.376   3.418  0.5085  0.2962 -0.1743
    1SOL     OW 8209   2.460   0.495   3.518 -0.6544  0.2551  0.3575
    1SOL    HW2 8210   2.539   0.467   3.473 -0.8565  0.6872 -0.2904
    1SOL    HW3 8211   2.439   0.580   3.478 -1.0812  0.4397  0.9677
    1SOL    MW4 8212   2.468   0.503   3.507 -0.7374  0.3365  0.3524
    1SOL     OW 8213   2.440   0.740   3.398  0.6005 -0.1786 -0.0182
    1SOL    HW2 8214   2.523   0.787   3.406  0.6342 -0.3976  0.9829
    1SOL    HW3 8215   2.423   0.737   3.304  1.0500  1.0477 -0.1418
    1SOL    MW4 8216   2.449   0.746   3.387  0.6642 -0.0457  0.0978
    1SOL     OW 8217   2.216   0.883   3.459 -0.0744 -0.1078  0.2226
    1SOL    HW2 8218   2.223   0.978   3.444 -0.1332 -0.0720  0.4183
    1SOL    HW3 8219   2.303   0.849   3.441  0.0665  0.0475  0.6183
    1SOL    MW4 8220   2.228   0.891   3.455 -0.0634 -0.0826  0.3006
    1SOL     OW 8221   2.245   1.170   3.384  0.2118 -0.4338  0.4540
    1SOL    HW2 8222   2.322   1.225   3.401  0.7625 -0.6005 -1.4418
    1SOL    HW3 8223   2.174   1.212   3.433  1.3587  0.0591  1.7384
    1SOL    MW4 8224   2.246   1.183   3.393  0.4361 -0.3909  0.3734
    1SOL     OW 8225   2.473   1.307   3.440  0.3798 -0.0522 -0.4752
    1SOL    HW2 8226   2.473   1.332   3.532  0.2342  0.3777 -0.5900
    1SOL    HW3 8227   2.552   1.254   3.429  0.2778 -0.2946 -0.0538
    1SOL    MW4 8228   2.483   1.304   3.451  0.3474 -0.0273 -0.4349
    1SOL     OW 8229   2.476   1.568   3.351 -0.3080  0.0172  0.2139
    1SOL    HW2 8230   2.487   1.477   3.377  0.7318  0.3352  0.9605
    1SOL    HW3 8231   2.473   1.566   3.255  0.2376 -0.7476  0.2098
    1SOL    MW4 8232   2.477   1.556   3.342 -0.0987 -0.0418  0.3121
    1SOL     OW 8233   2.250   1.681   3.476  0.4487  0.1950 -0.2414
    1SOL    HW2 8234   2.263   1.666   3.570  0.3457  0.9460 -0.1093
    1SOL    HW3 8235   2.330   1.648   3.435  0.7897  0.5030  0.1708
    1SOL    MW4 8236   2.262   1.674   3.483  0.4804  0.3347 -0.1698
    1SOL     OW 8237   2.208   1.917   3.362 -0.0419 -0.2949 -0.1925
    1SOL    HW2 8238   2.213   1.829   3.399  1.4279 -0.1864 -0.1253
    1SOL    HW3 8239   2.178   1.903   3.272  0.9813 -0.9454 -0.4413
    1SOL    MW4 8240   2.204   1.904   3.355  0.2868 -0.3664 -0.2162
    1SOL     OW 8241   2.460   2.021   3.452 -0.0135  0.6230  0.2612
    1SOL    HW2 8242   2.376   1.989   3.419 -0.0619  0.3888  0.6042
    1SOL    HW3 8243   2.461   2.113   3.428 -0.0257  0.4459 -0.4309
    1SOL    MW4 8244   2.449   2.029   3.445 -0.0212  0.5686  0.2153
    1SOL     OW 8245   2.492   2.298   3.388 -0.1040 -0.1500 -0.1662
    1SOL    HW2 8246   2.416   2.354   3.406 -2.0219 -2.8195  0.2768
    1SOL    HW3 8247   2.567   2.349   3.419 -1.6265  2.7110 -0.9660
    1SOL    MW4 8248   2.492   2.312   3.394 -0.5581 -0.1247 -0.2131
    1SOL     OW 8249   2.264   2.446   3.451  0.0036  0.3885  0.4084
    1SOL    HW2 8250   2.182   2.406   3.421  0.1539 -1.0923  1.9175
    1SOL    HW3 8251   2.262   2.535   3.415 -1.3897 -0.2420 -1.1214
    1SOL    MW4 8252   2.253   2.453   3.442 -0.1602  0.1099  0.4055
    1SOL     OW 8253   2.275   2.710   3.344  0.0175 -0.1194  0.1593
    1SOL    HW2 8254   2.193   2.738   3.385 -0.4298 -2.8943  1.2526
    1SOL    HW3 8255   2.262   2.725   3.251 -0.5570  2.3208  0.6078
    1SOL    MW4 8256   2.263   2.716   3.337 -0.1175 -0.1636  0.3626
    1SOL     OW 8257   2.431   2.866   3.497  0.3544  0.0947 -0.1845
    1SOL    HW2 8258   2.441   2.951   3.453  2.1299 -0.3850 -0.7345
    1SOL    HW3 8259   2.371   2.817   3.440  1.7464 -0.1153 -1.4901
    1SOL    MW4 8260   2.424   2.871   3.483  0.7722  0.0036 -0.4292
    1SOL     OW 8261   2.463   3.117   3.375  0.5583 -0.3117 -0.3277
    1SOL    HW2 8262   2.526   3.185   3.399 -0.8661  1.1897 -0.7443
    1SOL    HW3 8263   2.463   3.116   3.280  1.4300 -1.7225 -0.3222
    1SOL    MW4 8264   2.471   3.126   3.366  0.4849 -0.2997 -0.3819
    1SOL     OW 8265   2.223   3.204   3.471  0.2882  0.1715  0.0154
    1SOL    HW2 8266   2.249   3.221   3.561  1.0630  1.3025 -0.4043
    1SOL    HW3 8267   2.305   3.182   3.427  0.0552  0.5102 -0.5989
    1SOL    MW4 8268   2.237   3.204   3.477  0.3595  0.3653 -0.1209
    1SOL     OW 8269   2.244   3.497   3.380 -0.2738 -0.6332 -0.5481
    1SOL    HW2 8270   2.229   3.405   3.403 -0.6697 -0.5710 -0.5640
    1SOL    HW3 8271   2.251   3.497   3.285 -0.6603 -0.5891 -0.5764
    1SOL    MW4 8272   2.243   3.485   3.371 -0.3772 -0.6192 -0.5541
    1SOL     OW 8273   2.458   3.632   3.500 -0.2599  0.3027 -0.4114
    1SOL    HW2 8274   2.470   3.718   3.461 -0.1674  0.3159 -0.3551
    1SOL    HW3 8275   2.389   3.591   3.448  0.1406  0.1652 -0.8479
    1SOL    MW4 8276   2.451   3.638   3.488 -0.1948  0.2861 -0.4618
    1SOL     OW 8277   2.492   3.876   3.366  0.0551  0.6085  0.0252
    1SOL    HW2 8278   2.560   3.940   3.388  0.9451  0.6132 -2.5058
    1SOL    HW3 8279   2.410   3.920   3.389  0.8223  1.2969  1.5035
    1SOL    MW4 8280   2.490   3.890   3.372  0.2739  0.7000 -0.1137
    1SOL     OW 8281   2.248   3.997   3.443 -0.3499  0.2660  0.1132
    1SOL    HW2 8282   2.246   4.091   3.426 -0.0816  0.6968  2.2775
    1SOL    HW3 8283   2.158   3.969   3.427 -0.7095  1.1184  0.5773
    1SOL    MW4 8284   2.236   4.006   3.439 -0.3617  0.4349  0.4597
    1SOL     OW 8285   2.278   4.269   3.374 -0.1447 -0.4221 -0.3977
    1SOL    HW2 8286   2.203   4.322   3.403 -0.0619 -0.5176 -0.0011
    1SOL    HW3 8287   2.279   4.279   3.279  0.2875  0.8640 -0.2667
    1SOL    MW4 8288   2.268   4.278   3.365 -0.0768 -0.2646 -0.3283
    1SOL     OW 8289   2.488   4.397   3.503  0.1517  0.1929  0.0039
    1SOL    HW2 8290   2.458   4.413   3.592 -0.5415  0.7555 -0.3263
    1SOL    HW3 8291   2.417   4.348   3.462  0.6526 -0.4349 -0.1141
    1SOL    MW4 8292   2.475   4.393   3.509  0.1264  0.1850 -0.0553
    1SOL     OW 8293   2.960   0.030   3.365 -0.0170 -0.3424 -0.3525
    1SOL    HW2 8294   2.880   0.071   3.398  0.4796 -0.0079  0.4709
    1SOL    HW3 8295   2.958   0.046   3.271  0.4093  2.0536 -0.0016
    1SOL    MW4 8296   2.949   0.038   3.357  0.1047  0.0179 -0.1976
    1SOL     OW 8297   2.717   0.114   3.475 -0.1775  0.4851  0.0008
    1SOL    HW2 8298   2.694   0.125   3.567 -0.8875  2.2146 -0.3681
    1SOL    HW3 8299   2.646   0.059   3.439  0.8968 -1.4701  0.7975
    1SOL    MW4 8300   2.704   0.108   3.482 -0.1297  0.4553  0.0575
    1SOL     OW 8301   2.684   0.389   3.405 -0.8943  0.0062 -0.0755
    1SOL    HW2 8302   2.766   0.427   3.436 -0.5244 -1.0408  0.2550
    1SOL    HW3 8303   2.695   0.294   3.419 -2.6148 -0.0370  1.0590
    1SOL    MW4 8304   2.697   0.381   3.411 -1.0724 -0.1377  0.1178
    1SOL     OW 8305   2.912   0.505   3.502  0.4182 -0.1597 -0.0184
    1SOL    HW2 8306   2.937   0.514   3.594  1.4333 -0.7006 -0.2342
    1SOL    HW3 8307   2.913   0.595   3.469  0.3876  0.0015  0.4031
    1SOL    MW4 8308   2.915   0.518   3.510  0.5484 -0.2098  0.0091
    1SOL     OW 8309   2.896   0.762   3.408  0.1775  0.2401  0.1568
    1SOL    HW2 8310   2.961   0.801   3.467 -1.2684  0.6742  1.4908
    1SOL    HW3 8311   2.813   0.803   3.433 -0.5172  0.1980 -1.9781
    1SOL    MW4 8312   2.893   0.773   3.419 -0.1051  0.2917  0.0515
    1SOL     OW 8313   2.658   0.894   3.472  0.5455 -0.3560 -0.1832
    1SOL    HW2 8314   2.643   0.915   3.564 -0.8970  1.3220 -0.7780
    1SOL    HW3 8315   2.647   0.977   3.426 -0.7665 -1.5445 -2.0987
    1SOL    MW4 8316   2.655   0.908   3.478  0.1819 -0.2914 -0.5145
    1SOL     OW 8317   2.682   1.160   3.354  0.2240  0.3281 -0.4227
    1SOL    HW2 8318   2.766   1.191   3.389  0.3002  1.6286 -1.7202
    1SOL    HW3 8319   2.692   1.166   3.259 -0.5420 -1.7007 -0.6467
    1SOL    MW4 8320   2.695   1.165   3.346  0.1330  0.2319 -0.6235
    1SOL     OW 8321   2.915   1.263   3.475 -0.0626  0.3999 -0.0167
    1SOL    HW2 8322   2.905   1.258   3.570 -0.7140 -0.0044 -0.0999
    1SOL    HW3 8323   2.986   1.202   3.455 -0.1803  0.1982  0.1755
    1SOL    MW4 8324   2.923   1.254   3.485 -0.1640  0.3201 -0.0021
    1SOL     OW 8325   2.905   1.531   3.360  0.2128 -0.1518  0.2006
    1SOL    HW2 8326   2.832   1.574   3.405  0.3786 -0.0836  0.4065
    1SOL    HW3 8327   2.908   1.443   3.398  0.6521  0.0596  0.6700
    1SOL    MW4 8328   2.895   1.525   3.371  0.2923 -0.1149  0.2897
    1SOL     OW 8329   2.700   1.654   3.485 -0.0088 -0.5425 -0.1030
    1SOL    HW2 8330   2.713   1.737   3.437  0.6478 -0.9932 -0.7237
    1SOL    HW3 8331   2.616   1.621   3.453 -0.4832  0.0901  0.4645
    1SOL    MW4 8332   2.691   1.661   3.474  0.0155 -0.5186 -0.1101
    1SOL     OW 8333   2.703   1.899   3.370  0.5930  0.2579  0.2425
    1SOL    HW2 8334   2.615   1.931   3.389  0.8471 -0.0749  2.0459
    1SOL    HW3 8335   2.701   1.878   3.277 -1.7186 -1.2186  0.5909
    1SOL    MW4 8336   2.691   1.900   3.360  0.3216  0.0191  0.5264
    1SOL     OW 8337   2.900   2.072   3.469 -0.3812  0.3604 -0.3067
    1SOL    HW2 8338   2.901   2.055   3.563  0.7100 -1.4455 -0.6118
    1SOL    HW3 8339   2.816   2.036   3.440 -0.1067 -0.3512 -0.2299
    1SOL    MW4 8340   2.889   2.065   3.477 -0.2010  0.0284 -0.3369
    1SOL     OW 8341   2.927   2.326   3.383 -0.2634  0.5066 -0.0758
    1SOL    HW2 8342   2.919   2.241   3.426 -2.7822  0.4764 -0.5266
    1SOL    HW3 8343   2.942   2.305   3.291  0.7593  0.5524  0.0820
    1SOL    MW4 8344   2.928   2.312   3.376 -0.4609  0.5090 -0.1142
    1SOL     OW 8345   2.700   2.460   3.447  0.0815 -0.3526  0.1170
    1SOL    HW2 8346   2.710   2.445   3.541 -0.3660 -0.0954  0.2089
    1SOL    HW3 8347   2.781   2.427   3.409  0.5494  0.1523  0.6642
    1SOL    MW4 8348   2.712   2.454   3.455  0.0839 -0.2520  0.2010
    1SOL     OW 8349   2.637   2.719   3.388 -0.0083  0.0230  0.3777
    1SOL    HW2 8350   2.641   2.628   3.416  0.7240  0.4281  1.6174
    1SOL    HW3 8351   2.559   2.754   3.432 -1.0397 -0.3315 -1.1247
    1SOL    MW4 8352   2.627   2.712   3.398 -0.0477  0.0296  0.3431
    1SOL     OW 8353   2.878   2.857   3.485  0.3110 -0.0054  0.1059
    1SOL    HW2 8354   2.881   2.832   3.577  2.5324  0.1301  0.0870
    1SOL    HW3 8355   2.798   2.816   3.452 -0.3232 -0.3341  2.0032
    1SOL    MW4 8356   2.868   2.848   3.492  0.5207 -0.0310  0.3536
    1SOL     OW 8357   2.884   3.155   3.417  0.0380 -0.2324  0.1096
    1SOL    HW2 8358   2.878   3.063   3.443 -0.5752 -0.2032  0.0573
    1SOL    HW3 8359   2.875   3.154   3.322 -1.6452  0.0356  0.2547
    1SOL    MW4 8360   2.882   3.143   3.408 -0.2649 -0.1931  0.1218
    1SOL     OW 8361   2.647   3.285   3.512  0.5931 -0.0900 -0.4189
    1SOL    HW2 8362   2.642   3.275   3.607  1.1458 -1.7592 -0.5515
    1SOL    HW3 8363   2.715   3.223   3.485 -0.1858 -0.2762 -1.9968
    1SOL    MW4 8364   2.655   3.275   3.521  0.5631 -0.3347 -0.6444
    1SOL     OW 8365   2.667   3.506   3.369  0.2559  0.5299 -0.0118
    1SOL    HW2 8366   2.651   3.421   3.408  1.4428  0.6315  0.7233
    1SOL    HW3 8367   2.596   3.562   3.402  0.3014  0.1958  0.6555
    1SOL    MW4 8368   2.655   3.502   3.378  0.4182  0.4992  0.1729
    1SOL     OW 8369   2.909   3.597   3.471  0.4087  0.1863 -0.0327
    1SOL    HW2 8370   2.884   3.689   3.460  0.1175 -0.1701 -2.6288
    1SOL    HW3 8371   2.837   3.548   3.431  1.2706 -1.1275  0.0040
    1SOL    MW4 8372   2.896   3.603   3.464  0.4842 -0.0341 -0.3703
    1SOL     OW 8373   2.900   3.868   3.381 -0.1666 -0.1039  0.4005
    1SOL    HW2 8374   2.968   3.928   3.413  0.2078  0.0287 -0.6362
    1SOL    HW3 8375   2.818   3.916   3.395  0.1466  0.7660 -0.6387
    1SOL    MW4 8376   2.898   3.883   3.387 -0.0761  0.0281  0.1266
    1SOL     OW 8377   2.695   4.041   3.459  0.4745 -0.1208 -0.1891
    1SOL    HW2 8378   2.679   4.031   3.553 -1.5348  0.1620 -0.4702
    1SOL    HW3 8379   2.694   4.136   3.445  0.2547 -0.1804 -0.5804
    1SOL    MW4 8380   2.693   4.052   3.470  0.1802 -0.0911 -0.2780
    1SOL     OW 8381   2.700   4.291   3.367  0.4178  0.3621 -0.1109
    1SOL    HW2 8382   2.773   4.342   3.402 -0.1837  0.6673  0.7177
    1SOL    HW3 8383   2.622   4.326   3.412 -0.1357 -0.5112 -0.3726
    1SOL    MW4 8384   2.699   4.302   3.378  0.2656  0.2880 -0.0360
    1SOL     OW 8385   2.921   4.452   3.453  0.4265  0.2176  0.0992
    1SOL    HW2 8386   2.911   4.455   3.548 -0.5919  0.5838 -0.0148
    1SOL    HW3 8387   2.936   4.543   3.427 -0.2172  0.2493 -0.1799
    1SOL    MW4 8388   2.921   4.464   3.462  0.2074  0.2699  0.0472
    1SOL     OW 8389   3.397   4.636   3.414 -0.3712  0.0013  0.3624
    1SOL    HW2 8390   3.319   4.671   3.457 -0.5221  1.2354 -0.8933
    1SOL    HW3 8391   3.375   4.637   3.321  0.9181 -0.2457  0.0530
    1SOL    MW4 8392   3.383   4.640   3.408 -0.2210  0.1311  0.1559
    1SOL     OW 8393   3.179   0.119   3.516 -0.1954 -0.2241  0.2907
    1SOL    HW2 8394   3.172   0.213   3.496 -2.1116 -0.2083  0.9620
    1SOL    HW3 8395   3.108   0.079   3.466  0.3085 -1.2617  0.4047
    1SOL    MW4 8396   3.169   0.126   3.507 -0.3817 -0.3589  0.3941
    1SOL     OW 8397   3.163   0.375   3.426 -0.2530 -0.4940  0.4234
    1SOL    HW2 8398   3.077   0.412   3.445  0.1752  0.8759 -0.2488
    1SOL    HW3 8399   3.169   0.376   3.330  0.8971  0.3547  0.4867
    1SOL    MW4 8400   3.153   0.380   3.416 -0.0446 -0.2013  0.3431
    1SOL     OW 8401   3.399   0.480   3.519 -0.0254 -0.0044  0.2758
    1SOL    HW2 8402   3.382   0.487   3.613 -0.4328 -0.6447  0.2499
    1SOL    HW3 8403   3.317   0.448   3.482 -0.4068  1.8065 -0.5181
    1SOL    MW4 8404   3.386   0.477   3.527 -0.1297  0.1500  0.1676
    1SOL     OW 8405   3.342   0.751   3.377 -0.1840  0.3592 -0.0167
    1SOL    HW2 8406   3.407   0.803   3.423 -0.1490  0.9215 -0.7073
    1SOL    HW3 8407   3.359   0.661   3.405  0.4081  0.5921  0.3736
    1SOL    MW4 8408   3.353   0.746   3.387 -0.1013  0.4641 -0.0563
    1SOL     OW 8409   3.139   0.847   3.515  0.1447 -0.6215  0.2237
    1SOL    HW2 8410   3.136   0.930   3.469 -1.0160 -1.3299 -1.0002
    1SOL    HW3 8411   3.205   0.795   3.469  1.5665 -0.0648  1.5709
    1SOL    MW4 8412   3.147   0.851   3.503  0.1791 -0.6415  0.2401
    1SOL     OW 8413   3.140   1.102   3.384  0.1547  0.3508  0.1230
    1SOL    HW2 8414   3.192   1.163   3.436  0.9970  0.0056 -0.3026
    1SOL    HW3 8415   3.150   1.132   3.293  0.6004 -0.4320 -0.0922
    1SOL    MW4 8416   3.148   1.114   3.378  0.3247  0.2019  0.0384
    1SOL     OW 8417   3.328   1.269   3.489  0.1428 -0.2283 -0.1777
    1SOL    HW2 8418   3.415   1.237   3.466 -0.3113 -0.9113 -1.0085
    1SOL    HW3 8419   3.319   1.352   3.443  0.5678  0.1122  0.3583
    1SOL    MW4 8420   3.338   1.276   3.480  0.1392 -0.2735 -0.2165
    1SOL     OW 8421   3.330   1.510   3.342  0.1205 -0.2517 -0.1420
    1SOL    HW2 8422   3.405   1.552   3.384  0.3740  1.7112 -2.4113
    1SOL    HW3 8423   3.254   1.545   3.387  0.4728 -0.3841  0.5642
    1SOL    MW4 8424   3.330   1.520   3.353  0.2003 -0.0103 -0.3483
    1SOL     OW 8425   3.135   1.645   3.478 -0.3909 -0.4607  0.5326
    1SOL    HW2 8426   3.129   1.740   3.467  0.8565 -0.0984  2.6145
    1SOL    HW3 8427   3.053   1.611   3.441 -1.2075  1.5002  0.4886
    1SOL    MW4 8428   3.123   1.653   3.472 -0.3340 -0.1540  0.8016
    1SOL     OW 8429   3.113   1.899   3.392 -0.2073 -0.0547  0.2564
    1SOL    HW2 8430   3.042   1.957   3.420 -0.0251 -0.7469  2.2261
    1SOL    HW3 8431   3.193   1.945   3.416 -0.0110  0.1582 -0.8043
    1SOL    MW4 8432   3.114   1.913   3.399 -0.1571 -0.1180  0.3765
    1SOL     OW 8433   3.346   2.013   3.475  0.0026 -0.3772  0.0088
    1SOL    HW2 8434   3.340   2.106   3.454 -0.9023 -0.4255  0.0483
    1SOL    HW3 8435   3.359   2.011   3.570  0.3878 -0.2805 -0.0407
    1SOL    MW4 8436   3.347   2.025   3.485 -0.0660 -0.3712  0.0074
    1SOL     OW 8437   3.345   2.297   3.376 -0.0724 -0.6367 -0.7083
    1SOL    HW2 8438   3.422   2.337   3.417 -0.7224 -0.6694  0.5569
    1SOL    HW3 8439   3.270   2.340   3.418 -0.7597 -0.9102 -1.6304
    1SOL    MW4 8440   3.345   2.308   3.387 -0.2487 -0.6771 -0.6633
    1SOL     OW 8441   3.135   2.467   3.485 -0.0138  0.1040  0.0345
    1SOL    HW2 8442   3.119   2.560   3.474 -1.0576  0.1330  1.7183
    1SOL    HW3 8443   3.053   2.425   3.459 -0.2466 -0.2054  1.2283
    1SOL    MW4 8444   3.122   2.474   3.480 -0.1822  0.0672  0.4139
    1SOL     OW 8445   3.138   2.751   3.421  0.1625 -0.1828 -0.3633
    1SOL    HW2 8446   3.214   2.780   3.471 -0.2549 -1.9670  1.3864
    1SOL    HW3 8447   3.067   2.810   3.448  0.0301 -0.9034  0.8898
    1SOL    MW4 8448   3.139   2.763   3.431  0.0899 -0.5131  0.0329
    1SOL     OW 8449   3.382   2.871   3.503  0.3507  0.0101 -0.0374
    1SOL    HW2 8450   3.362   2.885   3.595  2.2168  0.8592  0.2754
    1SOL    HW3 8451   3.359   2.953   3.460 -0.6130 -0.4191 -0.3532
    1SOL    MW4 8452   3.377   2.884   3.509  0.4699  0.0658 -0.0379
    1SOL     OW 8453   3.353   3.134   3.395  0.2250  0.0859 -0.4055
    1SOL    HW2 8454   3.433   3.159   3.441 -0.1403  1.3253 -0.4372
    1SOL    HW3 8455   3.283   3.179   3.443 -0.4542 -1.0030 -0.3705
    1SOL    MW4 8456   3.354   3.143   3.407  0.0873  0.1056 -0.4051
    1SOL     OW 8457   3.129   3.244   3.535  0.0116 -0.1243 -0.2276
    1SOL    HW2 8458   3.125   3.327   3.488  1.1869  0.1240  0.0956
    1SOL    HW3 8459   3.044   3.203   3.519 -1.1888  1.8441  0.9307
    1SOL    MW4 8460   3.118   3.249   3.527  0.0083  0.1678 -0.0322
    1SOL     OW 8461   3.151   3.485   3.415  0.1826  0.1425  0.2972
    1SOL    HW2 8462   3.071   3.533   3.434  0.1593 -0.6736  2.4252
    1SOL    HW3 8463   3.151   3.473   3.320 -1.9774  0.5549  0.2361
    1SOL    MW4 8464   3.141   3.490   3.405 -0.1054  0.0894  0.5698
    1SOL     OW 8465   3.363   3.633   3.507 -0.1851  0.1938  0.2698
    1SOL    HW2 8466   3.345   3.715   3.462 -0.7310  0.4748  0.9946
    1SOL    HW3 8467   3.291   3.575   3.482  1.0456 -0.6090 -1.5347
    1SOL    MW4 8468   3.351   3.636   3.498 -0.0949  0.1249  0.1273
    1SOL     OW 8469   3.350   3.874   3.363 -0.4120 -0.1089  0.1328
    1SOL    HW2 8470   3.422   3.919   3.408  0.2358 -0.3136 -0.6883
    1SOL    HW3 8471   3.275   3.932   3.374  0.0080  0.3698  0.5222
    1SOL    MW4 8472   3.350   3.887   3.370 -0.2711 -0.0730  0.0756
    1SOL     OW 8473   3.126   4.013   3.467  0.6771 -0.3184 -0.3278
    1SOL    HW2 8474   3.129   4.014   3.563  1.4298 -0.2093 -0.3493
    1SOL    HW3 8475   3.123   4.106   3.442  1.8312 -0.3071 -0.4433
    1SOL    MW4 8476   3.126   4.026   3.476  0.9286 -0.3023 -0.3459
    1SOL     OW 8477   3.121   4.278   3.386 -0.0941  0.0400 -0.8976
    1SOL    HW2 8478   3.202   4.321   3.412  0.3270 -1.4574  0.3025
    1SOL    HW3 8479   3.053   4.343   3.405  0.6061  0.4893  0.1545
    1SOL    MW4 8480   3.122   4.292   3.392  0.0539 -0.0982 -0.6003
    1SOL     OW 8481   3.372   4.385   3.482 -0.4723 -0.0320  0.7787
    1SOL    HW2 8482   3.369   4.381   3.577  1.6456  0.1885  0.8753
    1SOL    HW3 8483   3.385   4.477   3.461 -0.1660 -0.1797  0.3024
    1SOL    MW4 8484   3.373   4.396   3.492 -0.1526 -0.0224  0.7284
    1SOL     OW 8485   3.849   4.644   3.341 -0.1214  0.0524  0.2364
    1SOL    HW2 8486   3.775   4.686   3.385  0.0834  0.6956 -0.0220
    1SOL    HW3 8487   3.837   4.667   3.248  1.0203  1.1116  0.3383
    1SOL    MW4 8488   3.838   4.653   3.334  0.0563  0.2766  0.2160
    1SOL     OW 8489   3.640   0.096   3.471 -0.2256 -0.7084  1.0316
    1SOL    HW2 8490   3.630   0.189   3.449  0.8952 -0.6635  0.6929
    1SOL    HW3 8491   3.555   0.057   3.448  0.0210 -0.1770 -0.9353
    1SOL    MW4 8492   3.627   0.103   3.465 -0.0451 -0.6324  0.7272
    1SOL     OW 8493   3.625   0.363   3.401  0.1279 -0.3260 -0.3686
    1SOL    HW2 8494   3.704   0.412   3.426  0.1463  0.4992 -1.9454
    1SOL    HW3 8495   3.557   0.397   3.459  0.5968  0.0839 -0.0463
    1SOL    MW4 8496   3.627   0.374   3.412  0.1922 -0.1630 -0.5341
    1SOL     OW 8497   3.855   0.485   3.513 -0.4250  0.4543  0.0833
    1SOL    HW2 8498   3.857   0.460   3.606 -3.1474 -2.3789 -0.5345
    1SOL    HW3 8499   3.944   0.470   3.482  0.3538  0.7978  2.0881
    1SOL    MW4 8500   3.867   0.480   3.521 -0.6812  0.1258  0.2666
    1SOL     OW 8501   3.817   0.758   3.388 -0.0029 -0.6266 -0.0905
    1SOL    HW2 8502   3.885   0.814   3.426  0.0186 -0.6834 -0.0457
    1SOL    HW3 8503   3.824   0.676   3.436 -2.3928  0.5142  2.3749
    1SOL    MW4 8504   3.827   0.755   3.400 -0.3154 -0.4837  0.2403
    1SOL     OW 8505   3.556   0.865   3.509  0.0723  0.5997  0.0207
    1SOL    HW2 8506   3.583   0.864   3.601  0.1900 -0.8501 -0.0192
    1SOL    HW3 8507   3.633   0.833   3.461  0.2876  2.0943 -0.6722
    1SOL    MW4 8508   3.570   0.860   3.515  0.1163  0.6056 -0.0761
    1SOL     OW 8509   3.556   1.132   3.425 -0.0540  0.1273  0.0279
    1SOL    HW2 8510   3.541   1.049   3.469 -2.5825  0.7470  0.4288
    1SOL    HW3 8511   3.555   1.111   3.332 -2.2546 -0.0713  0.0842
    1SOL    MW4 8512   3.554   1.118   3.419 -0.6778  0.1829  0.0880
    1SOL     OW 8513   3.819   1.241   3.496  0.2245 -0.1413 -0.1172
    1SOL    HW2 8514   3.837   1.245   3.590 -0.8165  0.0577  0.0841
    1SOL    HW3 8515   3.735   1.195   3.490  1.5293 -2.4910 -1.1112
    1SOL    MW4 8516   3.810   1.235   3.507  0.2594 -0.4252 -0.2217
    1SOL     OW 8517   3.801   1.505   3.439 -0.1066 -0.7249 -0.0270
    1SOL    HW2 8518   3.881   1.543   3.475 -0.6912 -0.3725  0.9200
    1SOL    HW3 8519   3.812   1.411   3.448  0.3467 -0.6910 -0.2219
    1SOL    MW4 8520   3.813   1.498   3.445 -0.1242 -0.6739  0.0720
    1SOL     OW 8521   3.550   1.628   3.509 -0.6330 -0.5231  0.5269
    1SOL    HW2 8522   3.555   1.720   3.483 -1.7843 -0.9637 -1.3339
    1SOL    HW3 8523   3.625   1.586   3.466 -0.5076 -0.5899  0.8078
    1SOL    MW4 8524   3.561   1.635   3.500 -0.7684 -0.5901  0.3185
    1SOL     OW 8525   3.585   1.888   3.381  0.0458 -0.1742 -0.0633
    1SOL    HW2 8526   3.653   1.946   3.418  1.4246 -1.3074 -0.7634
    1SOL    HW3 8527   3.504   1.939   3.388  1.3564  2.2417 -1.4821
    1SOL    MW4 8528   3.584   1.902   3.387  0.4008 -0.0049 -0.3431
    1SOL     OW 8529   3.790   2.041   3.487 -0.0621  0.0769 -0.1176
    1SOL    HW2 8530   3.796   2.044   3.583  1.3370  2.0915 -0.2443
    1SOL    HW3 8531   3.875   2.006   3.459  0.1343  1.0081 -0.6884
    1SOL    MW4 8532   3.802   2.037   3.496  0.1483  0.4654 -0.2100
    1SOL     OW 8533   3.819   2.301   3.398 -0.5731 -0.5187  0.1063
    1SOL    HW2 8534   3.886   2.354   3.441 -1.1655  0.3607 -0.0424
    1SOL    HW3 8535   3.827   2.215   3.439  2.2415 -1.1304 -1.5439
    1SOL    MW4 8536   3.829   2.297   3.409 -0.2801 -0.4830 -0.1309
    1SOL     OW 8537   3.577   2.410   3.484 -0.0582  0.2596  0.7698
    1SOL    HW2 8538   3.581   2.501   3.455 -0.7801  0.2432  0.6083
    1SOL    HW3 8539   3.653   2.368   3.443  0.1638  0.7446  0.6910
    1SOL    MW4 8540   3.588   2.416   3.475 -0.1240  0.3216  0.7379
    1SOL     OW 8541   3.599   2.683   3.425  0.4847  0.3109  0.2415
    1SOL    HW2 8542   3.673   2.737   3.453 -0.5433  1.6778  0.4041
    1SOL    HW3 8543   3.523   2.742   3.429 -0.6338 -1.0839  0.1794
    1SOL    MW4 8544   3.598   2.698   3.429  0.2019  0.3071  0.2544
    1SOL     OW 8545   3.802   2.841   3.493 -0.0917 -0.0215 -0.0353
    1SOL    HW2 8546   3.802   2.846   3.588 -0.3105  0.5252 -0.0677
    1SOL    HW3 8547   3.807   2.931   3.463 -1.1609 -0.1317 -0.5497
    1SOL    MW4 8548   3.803   2.853   3.501 -0.2613  0.0362 -0.1073
    1SOL     OW 8549   3.802   3.105   3.389 -0.2453  0.2450 -0.4762
    1SOL    HW2 8550   3.878   3.158   3.416 -0.2467  0.1203 -0.2288
    1SOL    HW3 8551   3.812   3.096   3.295 -0.1989  0.6198 -0.5088
    1SOL    MW4 8552   3.814   3.111   3.380 -0.2394  0.2780 -0.4480
    1SOL     OW 8553   3.578   3.235   3.523  0.6771 -0.2944 -0.1346
    1SOL    HW2 8554   3.575   3.318   3.476 -1.1919 -0.1226  0.2438
    1SOL    HW3 8555   3.646   3.184   3.479  0.1970  0.5383 -1.8552
    1SOL    MW4 8556   3.586   3.239   3.511  0.3669 -0.1619 -0.3119
    1SOL     OW 8557   3.568   3.487   3.402  0.4593  0.5054  0.1597
    1SOL    HW2 8558   3.498   3.546   3.429  0.3375 -0.0099  0.9915
    1SOL    HW3 8559   3.566   3.489   3.306 -1.3932 -0.3433  0.1747
    1SOL    MW4 8560   3.559   3.495   3.393  0.1988  0.3257  0.2713
    1SOL     OW 8561   3.813   3.566   3.468 -0.0394  0.2439 -0.0938
    1SOL    HW2 8562   3.808   3.595   3.559  1.0813  1.0275 -0.2699
    1SOL    HW3 8563   3.726   3.530   3.449 -1.0837  2.3397  0.5258
    1SOL    MW4 8564   3.801   3.565   3.477 -0.0293  0.6239 -0.0353
    1SOL     OW 8565   3.836   3.843   3.389 -0.0103  0.3770  0.0692
    1SOL    HW2 8566   3.748   3.878   3.403 -0.8280 -0.8548 -1.7631
    1SOL    HW3 8567   3.829   3.750   3.409  1.0122  0.3708  0.4196
    1SOL    MW4 8568   3.824   3.836   3.393  0.0165  0.2136 -0.1264
    1SOL     OW 8569   3.576   3.997   3.474 -0.1280 -0.0076  0.4558
    1SOL    HW2 8570   3.552   4.001   3.566  0.1149  2.8773  0.4385
    1SOL    HW3 8571   3.574   4.088   3.444  0.8113 -0.7732 -2.1227
    1SOL    MW4 8572   3.573   4.010   3.482  0.0281  0.2723  0.1137
    1SOL     OW 8573   3.617   4.266   3.367  0.1320  0.5069 -0.1010
    1SOL    HW2 8574   3.537   4.306   3.402  0.4735  1.1713 -0.0825
    1SOL    HW3 8575   3.607   4.272   3.272 -0.4208 -0.5634 -0.1230
    1SOL    MW4 8576   3.605   4.272   3.359  0.1042  0.4539 -0.1016
    1SOL     OW 8577   3.843   4.404   3.470  0.2144 -0.0271 -0.0703
    1SOL    HW2 8578   3.778   4.361   3.415  0.9052 -0.8875 -0.2171
    1SOL    HW3 8579   3.847   4.494   3.437 -1.1422  0.1257  0.1586
    1SOL    MW4 8580   3.835   4.410   3.458  0.1266 -0.1206 -0.0594
    1SOL     OW 8581   4.299   4.638   3.318 -0.1464  0.4733 -0.2790
    1SOL    HW2 8582   4.303   4.550   3.355 -0.6452  0.6120  0.1180
    1SOL    HW3 8583   4.376   4.683   3.354 -0.6833  0.6364  0.6754
    1SOL    MW4 8584   4.310   4.633   3.328 -0.2828  0.5131 -0.1006
    1SOL     OW 8585   4.083   0.086   3.433  0.1501  0.2964 -0.2910
    1SOL    HW2 8586   4.149   0.030   3.393  0.8962  0.2450  1.0072
    1SOL    HW3 8587   4.000   0.056   3.395  0.6957 -0.6834 -0.7234
    1SOL    MW4 8588   4.080   0.075   3.422  0.3204  0.1603 -0.1767
    1SOL     OW 8589   4.098   0.359   3.396 -0.2620  0.0375  0.0504
    1SOL    HW2 8590   4.096   0.266   3.417 -0.2545 -0.2981 -1.4016
    1SOL    HW3 8591   4.077   0.363   3.302  1.4926  1.3493 -0.3176
    1SOL    MW4 8592   4.095   0.347   3.386 -0.0291  0.1663 -0.1895
    1SOL     OW 8593   4.301   0.510   3.487 -0.3969  0.0161  0.1844
    1SOL    HW2 8594   4.281   0.601   3.469 -0.5788 -0.1270 -0.3685
    1SOL    HW3 8595   4.222   0.462   3.461 -1.6853  0.0205  3.8100
    1SOL    MW4 8596   4.288   0.515   3.481 -0.5908 -0.0022  0.5896
    1SOL     OW 8597   4.264   0.788   3.426 -0.0329  0.2261 -0.0963
    1SOL    HW2 8598   4.349   0.830   3.441 -0.0179  0.9172 -1.9369
    1SOL    HW3 8599   4.265   0.766   3.333 -1.4202 -0.8007  0.1250
    1SOL    MW4 8600   4.276   0.791   3.416 -0.2141  0.1817 -0.3099
    1SOL     OW 8601   4.026   0.916   3.525 -0.4869  0.5030  0.5504
    1SOL    HW2 8602   4.037   1.000   3.481  0.6734  0.5138  0.8400
    1SOL    HW3 8603   4.100   0.863   3.495 -1.0216 -0.2963  0.6319
    1SOL    MW4 8604   4.037   0.920   3.515 -0.4044  0.3989  0.5991
    1SOL     OW 8605   4.061   1.147   3.374  0.5712 -0.1145 -0.0237
    1SOL    HW2 8606   4.123   1.196   3.428  0.6441 -0.1548 -0.0703
    1SOL    HW3 8607   3.975   1.171   3.409  0.6128 -0.0533  0.0366
    1SOL    MW4 8608   4.057   1.157   3.386  0.5865 -0.1119 -0.0217
    1SOL     OW 8609   4.273   1.272   3.551 -0.6062  0.1059 -0.3834
    1SOL    HW2 8610   4.269   1.353   3.499  0.5763 -0.6385 -1.6673
    1SOL    HW3 8611   4.339   1.219   3.507 -1.3496 -1.5508  0.4582
    1SOL    MW4 8612   4.281   1.276   3.538 -0.5484 -0.2109 -0.4418
    1SOL     OW 8613   4.243   1.514   3.397 -0.2263 -0.0610  0.3384
    1SOL    HW2 8614   4.162   1.552   3.429  0.0055  1.0460 -0.3717
    1SOL    HW3 8615   4.231   1.509   3.302  0.4425 -0.1298  0.2554
    1SOL    MW4 8616   4.231   1.518   3.388 -0.1073  0.0761  0.2337
    1SOL     OW 8617   4.031   1.643   3.525 -0.3220 -0.0018  0.7823
    1SOL    HW2 8618   4.021   1.654   3.619 -2.4881  1.4282  0.4149
    1SOL    HW3 8619   4.033   1.732   3.490  2.7615 -0.4482 -0.3501
    1SOL    MW4 8620   4.030   1.656   3.532 -0.2007  0.1280  0.5844
    1SOL     OW 8621   4.011   1.894   3.420  0.3694 -0.1384 -0.1659
    1SOL    HW2 8622   4.092   1.933   3.451 -0.1967  0.0565  1.1010
    1SOL    HW3 8623   4.011   1.909   3.326  1.3086  0.7828 -0.0213
    1SOL    MW4 8624   4.021   1.901   3.412  0.4187  0.0088  0.0205
    1SOL     OW 8625   4.232   2.029   3.504  0.1650 -0.2317 -0.7022
    1SOL    HW2 8626   4.225   2.116   3.464  0.6683  0.2642  0.2544
    1SOL    HW3 8627   4.317   1.996   3.475 -0.1394 -0.5094 -1.2724
    1SOL    MW4 8628   4.242   2.036   3.495  0.1912 -0.2029 -0.6509
    1SOL     OW 8629   4.219   2.275   3.385 -0.2271  0.6021 -0.1921
    1SOL    HW2 8630   4.139   2.325   3.405 -0.0829  1.4365 -1.6931
    1SOL    HW3 8631   4.242   2.300   3.296  1.7433  0.3745  0.2299
    1SOL    MW4 8632   4.211   2.285   3.376  0.0520  0.6819 -0.3345
    1SOL     OW 8633   4.021   2.445   3.499  0.4368  0.0909  0.0850
    1SOL    HW2 8634   4.020   2.467   3.592  1.8840  0.5221  0.0031
    1SOL    HW3 8635   4.017   2.530   3.455  0.1253 -0.0959 -0.2460
    1SOL    MW4 8636   4.020   2.459   3.505  0.5865  0.1230  0.0305
    1SOL     OW 8637   4.026   2.701   3.377  0.2436 -0.5303  0.1662
    1SOL    HW2 8638   4.093   2.733   3.438 -0.1644  1.6450 -0.4892
    1SOL    HW3 8639   3.945   2.744   3.406 -0.6271 -2.1496  0.1774
    1SOL    MW4 8640   4.024   2.711   3.389  0.0744 -0.4570  0.0811
    1SOL     OW 8641   4.213   2.815   3.540 -0.2289  0.1657 -0.4357
    1SOL    HW2 8642   4.213   2.807   3.636 -0.0355  0.2971 -0.4252
    1SOL    HW3 8643   4.301   2.789   3.514 -0.5403 -0.6896 -0.6457
    1SOL    MW4 8644   4.224   2.810   3.549 -0.2441  0.0703 -0.4621
    1SOL     OW 8645   4.239   3.077   3.440  0.0835 -0.1082 -0.2864
    1SOL    HW2 8646   4.220   2.991   3.478  1.5094 -0.4156 -0.2397
    1SOL    HW3 8647   4.238   3.063   3.345 -0.1479 -0.0691 -0.2900
    1SOL    MW4 8648   4.236   3.064   3.432  0.2408 -0.1438 -0.2806
    1SOL     OW 8649   4.017   3.236   3.493 -0.2419  0.2011 -0.4239
    1SOL    HW2 8650   4.012   3.313   3.438 -1.0489  1.3190  1.1699
    1SOL    HW3 8651   4.103   3.198   3.474  1.4126  3.1312  0.9024
    1SOL    MW4 8652   4.028   3.241   3.483 -0.1307  0.7353 -0.0386
    1SOL     OW 8653   4.040   3.467   3.335 -0.2512  0.4361 -0.4071
    1SOL    HW2 8654   4.118   3.490   3.386 -0.6566 -0.2573  0.5481
    1SOL    HW3 8655   3.970   3.517   3.375 -0.7396 -0.7920  0.3127
    1SOL    MW4 8656   4.041   3.476   3.347 -0.3691  0.1829 -0.1857
    1SOL     OW 8657   4.253   3.580   3.493 -0.2931  0.1131 -0.1565
    1SOL    HW2 8658   4.262   3.588   3.588 -0.3557 -0.1251 -0.1309
    1SOL    HW3 8659   4.242   3.670   3.462 -1.0532  0.1266  0.1443
    1SOL    MW4 8660   4.253   3.593   3.501 -0.4015  0.0832 -0.1135
    1SOL     OW 8661   4.286   3.850   3.401  0.6507 -0.3895 -0.3488
    1SOL    HW2 8662   4.364   3.885   3.445  0.6860  0.0806 -0.7786
    1SOL    HW3 8663   4.300   3.870   3.308  0.6378 -1.5013 -0.5917
    1SOL    MW4 8664   4.298   3.858   3.394  0.6542 -0.4742 -0.4377
    1SOL     OW 8665   4.060   3.995   3.486  0.2281 -0.1904 -0.0761
    1SOL    HW2 8666   4.134   3.944   3.452 -0.8665 -1.1516 -1.0742
    1SOL    HW3 8667   3.983   3.951   3.451 -0.7488  2.7107 -1.8070
    1SOL    MW4 8668   4.060   3.983   3.477 -0.0453  0.0653 -0.4358
    1SOL     OW 8669   4.041   4.237   3.368  0.1801 -0.3580 -0.4018
    1SOL    HW2 8670   4.050   4.153   3.413 -1.6212 -0.5564 -0.4065
    1SOL    HW3 8671   3.964   4.278   3.408  0.5509  0.9274 -0.9777
    1SOL    MW4 8672   4.032   4.232   3.380 -0.0086 -0.2146 -0.4783
    1SOL     OW 8673   4.280   4.388   3.423 -0.2789 -0.1666  0.2791
    1SOL    HW2 8674   4.289   4.382   3.518  0.1189 -1.8644  0.1555
    1SOL    HW3 8675   4.204   4.334   3.403 -0.3811  0.2149 -0.3535
    1SOL    MW4 8676   4.271   4.380   3.433 -0.2403 -0.3400  0.1795
    1SOL     OW 8677   0.223   0.006   3.905 -0.1850 -0.2179  0.3083
    1SOL    HW2 8678   0.209   0.034   3.996 -0.1101 -0.3411  0.3585
    1SOL    HW3 8679   0.140   0.024   3.862 -0.2880 -0.3456  0.4509
    1SOL    MW4 8680   0.210   0.012   3.912 -0.1887 -0.2508  0.3338
    1SOL     OW 8681   0.000   0.064   3.741  0.0839  0.4344  0.1192
    1SOL    HW2 8682  -0.012   0.158   3.752 -0.4314  0.3570  0.1864
    1SOL    HW3 8683  -0.011   0.049   3.647  0.3868  0.4732  0.0763
    1SOL    MW4 8684  -0.003   0.074   3.730  0.0563  0.4293  0.1225
    1SOL     OW 8685   0.010   0.347   3.832  0.0917  0.0831 -0.0470
    1SOL    HW2 8686  -0.059   0.402   3.795  0.7719  0.4233 -0.8283
    1SOL    HW3 8687   0.091   0.382   3.795  0.6101 -0.8448  0.1905
    1SOL    MW4 8688   0.011   0.359   3.822  0.2499  0.0055 -0.1185
    1SOL     OW 8689   0.248   0.464   3.748 -0.4482  0.4342 -0.3143
    1SOL    HW2 8690   0.256   0.552   3.783  0.5570  0.1445  0.1910
    1SOL    HW3 8691   0.248   0.476   3.653  0.4200  0.9284 -0.2583
    1SOL    MW4 8692   0.249   0.477   3.740 -0.2010  0.4612 -0.2406
    1SOL     OW 8693   0.217   0.723   3.824 -0.0541  0.3756 -0.3397
    1SOL    HW2 8694   0.198   0.731   3.917 -1.6728 -1.3421 -0.4954
    1SOL    HW3 8695   0.150   0.776   3.781 -0.0216  0.2423 -0.5571
    1SOL    MW4 8696   0.206   0.731   3.830 -0.2634  0.1314 -0.3889
    1SOL     OW 8697   0.039   0.935   3.742 -0.1480  0.3654 -0.0511
    1SOL    HW2 8698  -0.044   0.898   3.772  0.5176 -0.3072  0.9965
    1SOL    HW3 8699   0.057   1.006   3.803 -0.0947  0.7072 -0.4611
    1SOL    MW4 8700   0.030   0.940   3.754 -0.0532  0.3217  0.0329
    1SOL     OW 8701   0.053   1.159   3.884  0.3388 -0.2784 -0.0089
    1SOL    HW2 8702  -0.019   1.213   3.850  1.0227  0.2332 -0.6727
    1SOL    HW3 8703   0.043   1.162   3.979 -0.0471  0.4565 -0.0668
    1SOL    MW4 8704   0.042   1.167   3.892  0.3780 -0.1138 -0.1040
    1SOL     OW 8705   0.264   1.302   3.745  0.1710  0.2311 -0.2264
    1SOL    HW2 8706   0.270   1.386   3.791 -0.6135  0.3454 -0.3178
    1SOL    HW3 8707   0.193   1.256   3.790  0.5536 -0.3540 -0.2253
    1SOL    MW4 8708   0.255   1.307   3.757  0.1180  0.1689 -0.2384
    1SOL     OW 8709   0.210   1.540   3.875  0.4777 -0.1902  0.0644
    1SOL    HW2 8710   0.211   1.540   3.971  1.6869 -0.6835  0.0692
    1SOL    HW3 8711   0.136   1.596   3.851  0.7373  0.7033  1.2893
    1SOL    MW4 8712   0.201   1.548   3.885  0.6715 -0.1374  0.2265
    1SOL     OW 8713   4.489   1.692   3.779  0.3254  0.3404  0.2768
    1SOL    HW2 8714   4.461   1.774   3.818  0.5280  0.1686  0.7863
    1SOL    HW3 8715   4.474   1.704   3.685 -0.8101  0.5072  0.4644
    1SOL    MW4 8716   4.483   1.704   3.772  0.2022  0.3397  0.3686
    1SOL     OW 8717   4.432   1.934   3.876 -0.4566  0.7927 -0.4810
    1SOL    HW2 8718   4.463   1.962   3.962 -2.0455 -1.3283  0.8381
    1SOL    HW3 8719   4.354   1.988   3.860 -0.4025  0.8940 -0.4016
    1SOL    MW4 8720   4.425   1.945   3.885 -0.6590  0.5263 -0.2964
    1SOL     OW 8721   0.179   2.015   3.765  0.0654  0.0562 -0.4977
    1SOL    HW2 8722   0.170   2.108   3.787  0.1102  0.3195 -1.5482
    1SOL    HW3 8723   0.094   1.977   3.787 -0.4931  0.6668 -1.5389
    1SOL    MW4 8724   0.167   2.022   3.771 -0.0024  0.1717 -0.7734
    1SOL     OW 8725   0.215   2.274   3.860  0.2788 -0.5883 -0.1788
    1SOL    HW2 8726   0.206   2.273   3.955  0.7584 -0.3545 -0.1261
    1SOL    HW3 8727   0.144   2.331   3.830 -0.3132 -1.2356 -0.0195
    1SOL    MW4 8728   0.205   2.282   3.869  0.2640 -0.6428 -0.1509
    1SOL     OW 8729   4.484   2.457   3.779  0.0741 -0.5467  0.0882
    1SOL    HW2 8730   4.400   2.430   3.817  0.2553 -0.9824  0.1812
    1SOL    HW3 8731   4.498   2.545   3.812  0.6891 -1.2698  1.8359
    1SOL    MW4 8732   4.475   2.465   3.789  0.1788 -0.6995  0.3314
    1SOL     OW 8733   4.470   2.729   3.895 -0.2027  0.3389 -0.2730
    1SOL    HW2 8734   4.491   2.739   3.988 -1.4319 -0.0460  0.0596
    1SOL    HW3 8735   4.540   2.775   3.849  1.9958 -1.8782  0.7450
    1SOL    MW4 8736   4.482   2.736   3.901 -0.0748 -0.0045 -0.0947
    1SOL     OW 8737   0.208   2.821   3.772 -0.0666  0.1865 -0.1392
    1SOL    HW2 8738   0.278   2.766   3.806 -1.7532 -0.9823  1.5696
    1SOL    HW3 8739   0.212   2.809   3.677  0.1284 -2.2574  0.1492
    1SOL    MW4 8740   0.218   2.812   3.764 -0.2634 -0.2899  0.1240
    1SOL     OW 8741   0.191   3.099   3.861 -0.0216  0.0553  0.5318
    1SOL    HW2 8742   0.223   3.115   3.950  0.4443  0.3558  0.3146
    1SOL    HW3 8743   0.167   3.006   3.861 -0.9689  0.2902  1.2558
    1SOL    MW4 8744   0.192   3.089   3.873 -0.0851  0.1261  0.5989
    1SOL     OW 8745   4.487   3.258   3.778 -0.1657  0.0783  0.1644
    1SOL    HW2 8746   4.564   3.208   3.805  0.0526 -0.1526 -0.8691
    1SOL    HW3 8747   4.477   3.239   3.684 -1.1086  0.5979  0.1479
    1SOL    MW4 8748   4.496   3.249   3.769 -0.2613  0.1166  0.0260
    1SOL     OW 8749   0.022   3.503   3.898  0.2332 -0.1516 -0.3596
    1SOL    HW2 8750   0.100   3.543   3.859 -0.7075  1.0520 -1.0345
    1SOL    HW3 8751   0.023   3.413   3.866 -0.0334  0.5757 -2.4659
    1SOL    MW4 8752   0.033   3.496   3.889  0.0730  0.1030 -0.7267
    1SOL     OW 8753   0.247   3.608   3.783  0.0513  0.3303 -0.7289
    1SOL    HW2 8754   0.327   3.568   3.819 -1.4090 -1.3055  0.7748
    1SOL    HW3 8755   0.240   3.692   3.829  0.1006 -0.1966  0.2684
    1SOL    MW4 8756   0.257   3.614   3.794 -0.1349  0.0451 -0.3989
    1SOL     OW 8757   0.215   3.884   3.897  0.3935  0.4159  0.5299
    1SOL    HW2 8758   0.309   3.903   3.890  0.9005 -1.7038  1.1907
    1SOL    HW3 8759   0.198   3.887   3.992  0.0315 -0.2711  0.4854
    1SOL    MW4 8760   0.225   3.887   3.909  0.4126  0.0455  0.6111
    1SOL     OW 8761   0.003   4.015   3.769  0.2867  0.2911  0.0838
    1SOL    HW2 8762  -0.073   3.966   3.800  0.3000  1.7150  2.4816
    1SOL    HW3 8763   0.078   3.960   3.792  0.1184 -0.0762 -0.2413
    1SOL    MW4 8764   0.003   4.001   3.776  0.2661  0.4306  0.3574
    1SOL     OW 8765   4.465   4.276   3.900 -0.0770 -0.2309 -0.1214
    1SOL    HW2 8766   4.548   4.315   3.872 -0.5842  0.8123 -0.1861
    1SOL    HW3 8767   4.472   4.184   3.875  0.1177  0.3478 -2.2759
    1SOL    MW4 8768   4.477   4.269   3.893 -0.1178 -0.0172 -0.4141
    1SOL     OW 8769   0.199   4.404   3.820 -0.0800  0.3354 -0.0016
    1SOL    HW2 8770   0.282   4.366   3.847 -1.4499 -0.0669  3.8561
    1SOL    HW3 8771   0.207   4.497   3.841 -0.5378  0.3388  0.1530
    1SOL    MW4 8772   0.211   4.412   3.826 -0.3212  0.2828  0.5279
    1SOL     OW 8773   0.699   4.650   3.820 -0.2152 -0.0356 -0.0130
    1SOL    HW2 8774   0.693   4.558   3.794  0.3514 -0.0156 -0.2378
    1SOL    HW3 8775   0.617   4.689   3.790  0.1175 -0.1796 -1.1433
    1SOL    MW4 8776   0.687   4.643   3.812 -0.0966 -0.0515 -0.1922
    1SOL     OW 8777   0.441   0.086   3.753 -0.4197 -0.6020 -0.4085
    1SOL    HW2 8778   0.453   0.179   3.768  0.2525 -0.6506 -0.5911
    1SOL    HW3 8779   0.362   0.063   3.801  0.6480 -0.3845  1.5061
    1SOL    MW4 8780   0.432   0.095   3.762 -0.1901 -0.5797 -0.1800
    1SOL     OW 8781   0.499   0.338   3.795  0.4101  0.3965  0.4967
    1SOL    HW2 8782   0.556   0.413   3.781 -0.1020  0.8475  0.7572
    1SOL    HW3 8783   0.411   0.371   3.773  0.2569 -0.2863  0.0873
    1SOL    MW4 8784   0.495   0.352   3.791  0.3223  0.3659  0.4773
    1SOL     OW 8785   0.697   0.545   3.753  0.1345  0.0339 -0.7028
    1SOL    HW2 8786   0.764   0.489   3.792  0.1169  0.0106 -0.7062
    1SOL    HW3 8787   0.706   0.629   3.799 -0.1279 -0.1064 -0.4025
    1SOL    MW4 8788   0.707   0.549   3.764  0.0976  0.0123 -0.6635
    1SOL     OW 8789   0.662   0.775   3.908  0.0956  0.2427  0.1460
    1SOL    HW2 8790   0.739   0.826   3.881  0.2513  0.2286  0.5643
    1SOL    HW3 8791   0.589   0.815   3.862  0.2453  0.7165  0.3273
    1SOL    MW4 8792   0.663   0.787   3.898  0.1360  0.3034  0.2251
    1SOL     OW 8793   0.448   0.887   3.747 -0.3228 -0.5277 -0.1923
    1SOL    HW2 8794   0.450   0.972   3.792  0.0200 -0.6417  0.0045
    1SOL    HW3 8795   0.370   0.844   3.780  0.0523 -0.7099  0.4719
    1SOL    MW4 8796   0.438   0.893   3.757 -0.2281 -0.5668 -0.0787
    1SOL     OW 8797   0.469   1.146   3.879 -0.3451  0.2716 -0.2042
    1SOL    HW2 8798   0.551   1.187   3.851 -0.5746  1.4341  0.7731
    1SOL    HW3 8799   0.402   1.188   3.824 -0.5123  0.7764  0.3818
    1SOL    MW4 8800   0.471   1.157   3.868 -0.3974  0.4915  0.0019
    1SOL     OW 8801   0.700   1.297   3.778 -0.0998 -0.1024 -0.0016
    1SOL    HW2 8802   0.786   1.288   3.818  0.2162  0.3411 -0.5739
    1SOL    HW3 8803   0.716   1.286   3.684 -0.4742  1.2451 -0.2344
    1SOL    MW4 8804   0.713   1.294   3.771 -0.1073  0.1340 -0.1075
    1SOL     OW 8805   0.686   1.558   3.890  0.0368  0.4100 -0.1530
    1SOL    HW2 8806   0.767   1.606   3.875  0.7809 -0.5602  0.7145
    1SOL    HW3 8807   0.697   1.476   3.842 -0.6169  0.4593 -0.4019
    1SOL    MW4 8808   0.698   1.553   3.882  0.0488  0.2886 -0.0713
    1SOL     OW 8809   0.439   1.650   3.771  0.3013 -0.2834 -0.0833
    1SOL    HW2 8810   0.509   1.601   3.815  1.6264 -0.0116 -1.8596
    1SOL    HW3 8811   0.358   1.613   3.807  1.3352 -1.1213  1.4380
    1SOL    MW4 8812   0.437   1.639   3.782  0.6126 -0.3581 -0.1171
    1SOL     OW 8813   0.400   1.905   3.883 -0.4050  0.0708 -0.4646
    1SOL    HW2 8814   0.413   1.825   3.833 -1.0895 -0.4812  0.2329
    1SOL    HW3 8815   0.317   1.940   3.852 -0.8682 -0.3103  0.3073
    1SOL    MW4 8816   0.391   1.899   3.872 -0.5564 -0.0522 -0.2706
    1SOL     OW 8817   0.654   2.030   3.848  0.3564 -0.1387  0.1551
    1SOL    HW2 8818   0.643   2.124   3.862  0.3075  0.0160 -0.8865
    1SOL    HW3 8819   0.564   1.995   3.849  0.3604 -0.1455  0.3230
    1SOL    MW4 8820   0.640   2.038   3.850  0.3505 -0.1192  0.0396
    1SOL     OW 8821   0.649   2.298   3.840 -0.2050 -0.1582  0.3624
    1SOL    HW2 8822   0.726   2.349   3.817 -1.1260  0.9622 -0.3116
    1SOL    HW3 8823   0.575   2.356   3.822 -1.2578 -1.5179  0.1342
    1SOL    MW4 8824   0.649   2.312   3.834 -0.4654 -0.1898  0.2432
    1SOL     OW 8825   0.431   2.446   3.790 -0.6657  0.1892 -0.0837
    1SOL    HW2 8826   0.358   2.389   3.816  0.4034 -0.8170  0.7399
    1SOL    HW3 8827   0.428   2.446   3.694 -1.9165  0.3873 -0.0524
    1SOL    MW4 8828   0.421   2.438   3.781 -0.6897  0.0825  0.0293
    1SOL     OW 8829   0.431   2.706   3.872 -0.1229 -0.4876  0.3062
    1SOL    HW2 8830   0.507   2.748   3.834 -0.1528  0.1415  0.9322
    1SOL    HW3 8831   0.431   2.617   3.835  0.2824 -0.1351 -0.5338
    1SOL    MW4 8832   0.441   2.700   3.862 -0.0733 -0.3581  0.2780
    1SOL     OW 8833   0.647   2.853   3.788 -0.0265  0.1460  0.0446
    1SOL    HW2 8834   0.720   2.802   3.825 -1.3147 -1.2756  0.6823
    1SOL    HW3 8835   0.672   2.868   3.697  0.5968 -1.2542 -0.0326
    1SOL    MW4 8836   0.660   2.848   3.781 -0.1143 -0.2265  0.1187
    1SOL     OW 8837   0.648   3.114   3.878  0.1489 -0.2877 -0.0731
    1SOL    HW2 8838   0.666   3.111   3.972  0.0663  0.7049 -0.0187
    1SOL    HW3 8839   0.629   3.023   3.854 -1.2321 -0.3371  1.1503
    1SOL    MW4 8840   0.648   3.101   3.887 -0.0442 -0.1636  0.0954
    1SOL     OW 8841   0.423   3.218   3.757 -0.4764 -0.0891  0.2688
    1SOL    HW2 8842   0.497   3.186   3.809  0.4198  0.9074 -0.3639
    1SOL    HW3 8843   0.352   3.158   3.777  0.1047 -0.2297  1.9695
    1SOL    MW4 8844   0.424   3.206   3.766 -0.2815  0.0238  0.4096
    1SOL     OW 8845   0.458   3.476   3.890 -0.1556  0.1636  0.5844
    1SOL    HW2 8846   0.548   3.496   3.863  0.1973  0.3255  1.8494
    1SOL    HW3 8847   0.440   3.390   3.851  0.0918  0.6769 -0.7150
    1SOL    MW4 8848   0.467   3.468   3.881 -0.0764  0.2525  0.5798
    1SOL     OW 8849   0.709   3.568   3.810 -0.1789  0.3055  0.2531
    1SOL    HW2 8850   0.718   3.660   3.835  0.5836 -0.0149  1.1920
    1SOL    HW3 8851   0.703   3.570   3.714  0.3790  1.3001  0.2265
    1SOL    MW4 8852   0.710   3.581   3.801 -0.0047  0.3941  0.3734
    1SOL     OW 8853   0.710   3.832   3.858  0.1047  0.1332  0.6114
    1SOL    HW2 8854   0.745   3.849   3.946  0.9242  0.6863  0.1877
    1SOL    HW3 8855   0.758   3.892   3.801  1.1423 -1.7295 -0.5308
    1SOL    MW4 8856   0.721   3.842   3.862  0.3498 -0.0396  0.4046
    1SOL     OW 8857   0.467   3.976   3.834  0.0604 -0.1951  0.0111
    1SOL    HW2 8858   0.538   3.914   3.849 -0.1975 -0.4091  0.3238
    1SOL    HW3 8859   0.457   3.978   3.739  0.0332 -0.6695  0.0028
    1SOL    MW4 8860   0.475   3.968   3.823  0.0228 -0.2861  0.0513
    1SOL     OW 8861   0.445   4.273   3.860 -0.2109  0.1332  0.3568
    1SOL    HW2 8862   0.522   4.306   3.813  0.7633 -0.3092  1.6295
    1SOL    HW3 8863   0.444   4.179   3.840 -0.8270  0.2516 -0.2060
    1SOL    MW4 8864   0.455   4.265   3.851 -0.1637  0.0911  0.4501
    1SOL     OW 8865   0.682   4.389   3.740 -0.5479 -0.2766 -0.2161
    1SOL    HW2 8866   0.766   4.345   3.752 -1.1747 -1.2519  0.7515
    1SOL    HW3 8867   0.662   4.378   3.647  0.4886  0.1690 -0.5063
    1SOL    MW4 8868   0.691   4.382   3.729 -0.4939 -0.3467 -0.1268
    1SOL     OW 8869   1.112   0.000   3.875 -0.2076 -0.0218 -0.4531
    1SOL    HW2 8870   1.179   0.057   3.839 -0.5065  0.2728 -0.5479
    1SOL    HW3 8871   1.119  -0.081   3.824  0.8998 -0.4543  0.3685
    1SOL    MW4 8872   1.122  -0.003   3.863 -0.1010 -0.0400 -0.3569
    1SOL     OW 8873   0.911   0.122   3.728 -0.2485  0.0635 -0.3007
    1SOL    HW2 8874   0.970   0.071   3.784  0.1329 -0.9561 -1.6180
    1SOL    HW3 8875   0.825   0.081   3.741 -0.4778  0.8296  0.7333
    1SOL    MW4 8876   0.908   0.110   3.737 -0.2283  0.0300 -0.3381
    1SOL     OW 8877   0.876   0.372   3.874 -0.0884 -0.3446 -0.4104
    1SOL    HW2 8878   0.905   0.356   3.963 -1.5524 -1.0749 -0.0597
    1SOL    HW3 8879   0.882   0.287   3.831 -0.5176 -0.2348 -0.6847
    1SOL    MW4 8880   0.881   0.359   3.880 -0.3382 -0.4265 -0.4003
    1SOL     OW 8881   1.074   0.482   3.705  0.2231 -0.4598 -0.1567
    1SOL    HW2 8882   1.150   0.448   3.754  0.5044  1.5426  0.8595
    1SOL    HW3 8883   0.999   0.456   3.758  0.3617 -0.3527  0.0935
    1SOL    MW4 8884   1.074   0.474   3.719  0.2785 -0.1815  0.0105
    1SOL     OW 8885   1.118   0.759   3.823  0.1577 -0.1044 -0.0328
    1SOL    HW2 8886   1.126   0.718   3.908  1.1577  0.2217  0.0407
    1SOL    HW3 8887   1.107   0.686   3.762 -0.1832 -0.3580  0.3308
    1SOL    MW4 8888   1.118   0.744   3.826  0.2446 -0.0948  0.0250
    1SOL     OW 8889   0.875   0.920   3.803 -0.2323  0.6096  0.1958
    1SOL    HW2 8890   0.956   0.870   3.816  0.2578  1.3417 -0.0320
    1SOL    HW3 8891   0.861   0.921   3.709 -1.2268 -0.6412  0.3193
    1SOL    MW4 8892   0.884   0.914   3.793 -0.2988  0.5412  0.1819
    1SOL     OW 8893   0.931   1.184   3.873  0.1743  0.3041 -0.2703
    1SOL    HW2 8894   0.953   1.185   3.966  1.0015 -0.6063 -0.4553
    1SOL    HW3 8895   0.899   1.095   3.856 -1.4116  0.9072 -0.5284
    1SOL    MW4 8896   0.929   1.172   3.883  0.0743  0.2636 -0.3285
    1SOL     OW 8897   1.174   1.291   3.785  0.5880 -0.5247  0.1532
    1SOL    HW2 8898   1.151   1.374   3.826  0.5122 -0.1202 -0.7039
    1SOL    HW3 8899   1.096   1.237   3.795 -0.9978  1.0215 -3.2214
    1SOL    MW4 8900   1.161   1.295   3.792  0.3687 -0.2673 -0.4051
    1SOL     OW 8901   1.135   1.566   3.870 -0.0483  0.3029 -0.0754
    1SOL    HW2 8902   1.137   1.562   3.966 -1.1128  0.0987 -0.0473
    1SOL    HW3 8903   1.226   1.581   3.844  0.2873  0.0876  0.9550
    1SOL    MW4 8904   1.147   1.568   3.879 -0.1445  0.2475  0.0644
    1SOL     OW 8905   0.916   1.699   3.797  0.1893  0.5870 -0.0937
    1SOL    HW2 8906   0.999   1.657   3.822 -0.0179  0.7799  0.9508
    1SOL    HW3 8907   0.909   1.684   3.703  2.2631  2.0618 -0.5358
    1SOL    MW4 8908   0.926   1.692   3.788  0.4356  0.8069 -0.0143
    1SOL     OW 8909   0.918   1.974   3.821 -0.1105 -0.6689  0.2977
    1SOL    HW2 8910   0.915   1.880   3.801  0.5897 -0.8079  0.8398
    1SOL    HW3 8911   0.826   2.000   3.828 -0.2995 -1.4245  0.6539
    1SOL    MW4 8912   0.905   1.965   3.819 -0.0430 -0.7868  0.4163
    1SOL     OW 8913   1.172   2.067   3.767 -0.2895 -0.3344  0.1873
    1SOL    HW2 8914   1.089   2.023   3.785 -0.2244 -0.6802 -0.3683
    1SOL    HW3 8915   1.180   2.067   3.672  0.5433 -0.6630  0.2532
    1SOL    MW4 8916   1.162   2.061   3.757 -0.1711 -0.4234  0.1228
    1SOL     OW 8917   1.127   2.340   3.812  0.1703 -0.3902 -0.3048
    1SOL    HW2 8918   1.116   2.336   3.907 -0.5646 -0.4042 -0.3839
    1SOL    HW3 8919   1.143   2.249   3.786 -0.6092 -0.5282 -0.3049
    1SOL    MW4 8920   1.128   2.327   3.821 -0.0294 -0.4103 -0.3152
    1SOL     OW 8921   0.876   2.441   3.744 -0.4573  0.4422 -0.0359
    1SOL    HW2 8922   0.878   2.532   3.774 -0.5468  0.9979 -1.6762
    1SOL    HW3 8923   0.959   2.404   3.775 -0.2427  1.1905  0.2982
    1SOL    MW4 8924   0.888   2.449   3.752 -0.4408  0.6144 -0.2084
    1SOL     OW 8925   0.862   2.704   3.839 -0.1924  0.0075  0.3164
    1SOL    HW2 8926   0.859   2.710   3.935 -0.2133 -0.9586  0.3874
    1SOL    HW3 8927   0.948   2.739   3.816  0.0057 -0.1989  0.7322
    1SOL    MW4 8928   0.873   2.709   3.849 -0.1690 -0.1473  0.3803
    1SOL     OW 8929   1.104   2.845   3.780  0.2492  0.2752 -0.0246
    1SOL    HW2 8930   1.188   2.806   3.804  0.3869  1.0221  0.7400
    1SOL    HW3 8931   1.101   2.928   3.829 -0.6173  0.5914 -0.5956
    1SOL    MW4 8932   1.115   2.851   3.790  0.1529  0.4153  0.0010
    1SOL     OW 8933   1.102   3.108   3.894 -0.1770 -0.0123 -0.1897
    1SOL    HW2 8934   1.179   3.148   3.854 -0.0609  0.3795  0.4227
    1SOL    HW3 8935   1.028   3.142   3.842  0.0142  0.0773 -0.4031
    1SOL    MW4 8936   1.102   3.118   3.882 -0.1366  0.0510 -0.1373
    1SOL     OW 8937   0.891   3.208   3.754  0.3244 -0.5197 -0.2768
    1SOL    HW2 8938   0.811   3.174   3.796  0.6358 -1.6956 -0.6214
    1SOL    HW3 8939   0.871   3.206   3.660  0.4315  0.0462 -0.3122
    1SOL    MW4 8940   0.878   3.203   3.747  0.3796 -0.6001 -0.3269
    1SOL     OW 8941   0.947   3.466   3.859 -0.1967  0.4748 -0.1887
    1SOL    HW2 8942   0.934   3.382   3.814 -0.4010  1.1252 -1.3530
    1SOL    HW3 8943   0.872   3.519   3.833 -0.3125  0.8696  0.9163
    1SOL    MW4 8944   0.935   3.462   3.850 -0.2388  0.6130 -0.1965
    1SOL     OW 8945   1.162   3.599   3.740 -0.0016 -0.0794 -0.1091
    1SOL    HW2 8946   1.151   3.689   3.771  0.3744 -0.2912  0.6467
    1SOL    HW3 8947   1.089   3.551   3.781 -1.2834  0.2327 -1.9569
    1SOL    MW4 8948   1.151   3.605   3.750 -0.1211 -0.0660 -0.2532
    1SOL     OW 8949   1.122   3.861   3.811  0.0997  0.0422 -0.3771
    1SOL    HW2 8950   1.106   3.859   3.905 -2.0456 -0.2380 -0.7235
    1SOL    HW3 8951   1.204   3.909   3.801 -0.1473  0.8907  1.5773
    1SOL    MW4 8952   1.131   3.867   3.822 -0.2159  0.1173 -0.1650
    1SOL     OW 8953   0.889   3.987   3.702 -0.2469 -0.0192 -0.3884
    1SOL    HW2 8954   0.966   3.941   3.734 -0.9013 -0.4031  0.7035
    1SOL    HW3 8955   0.899   3.991   3.607  1.5293  0.7187 -0.1834
    1SOL    MW4 8956   0.900   3.982   3.694 -0.0989  0.0277 -0.2172
    1SOL     OW 8957   0.900   4.240   3.810 -0.5977  0.4833 -0.1607
    1SOL    HW2 8958   0.877   4.236   3.902  1.5501 -1.5012  0.3238
    1SOL    HW3 8959   0.892   4.150   3.779 -1.0811  1.0929 -1.8549
    1SOL    MW4 8960   0.896   4.228   3.818 -0.3781  0.3018 -0.3204
    1SOL     OW 8961   1.107   4.399   3.747 -0.0212 -0.5303  0.0621
    1SOL    HW2 8962   1.041   4.335   3.774 -1.7306  1.1698  0.0253
    1SOL    HW3 8963   1.131   4.372   3.658 -1.2953 -0.6905 -0.2498
    1SOL    MW4 8964   1.102   4.387   3.739 -0.4148 -0.3271  0.0160
    1SOL     OW 8965   1.555   0.005   3.812  0.1231  0.3864  0.0724
    1SOL    HW2 8966   1.511   0.006   3.897 -1.8246  0.0570 -0.9095
    1SOL    HW3 8967   1.567  -0.088   3.792 -0.9647  0.4126 -0.7667
    1SOL    MW4 8968   1.551  -0.007   3.821 -0.2774  0.3465 -0.1681
    1SOL     OW 8969   1.315   0.150   3.740 -0.0603  0.3501  0.8686
    1SOL    HW2 8970   1.315   0.241   3.771  1.4855  0.6405  0.0625
    1SOL    HW3 8971   1.399   0.115   3.769 -0.4876 -0.7145  0.8392
    1SOL    MW4 8972   1.326   0.157   3.748  0.0873  0.2479  0.7584
    1SOL     OW 8973   1.305   0.414   3.832 -0.1250  0.7942  0.2393
    1SOL    HW2 8974   1.333   0.396   3.922  0.5804  0.3511 -0.0568
    1SOL    HW3 8975   1.377   0.464   3.795 -0.1065  0.3759 -0.2862
    1SOL    MW4 8976   1.318   0.418   3.839 -0.0296  0.6806  0.1307
    1SOL     OW 8977   1.535   0.542   3.742 -0.1513  0.1036  0.1564
    1SOL    HW2 8978   1.607   0.495   3.785 -1.6726 -1.7669  0.7461
    1SOL    HW3 8979   1.540   0.631   3.777  1.7195 -0.0668  0.3697
    1SOL    MW4 8980   1.545   0.547   3.752 -0.1053 -0.1658  0.2623
    1SOL     OW 8981   1.556   0.796   3.857 -0.5318 -0.0226  0.5860
    1SOL    HW2 8982   1.631   0.842   3.819 -0.2252 -2.1433 -1.4417
    1SOL    HW3 8983   1.479   0.836   3.815 -0.2723 -1.2880 -1.1031
    1SOL    MW4 8984   1.556   0.807   3.846 -0.4572 -0.4694  0.0954
    1SOL     OW 8985   1.326   0.927   3.761  0.3269 -0.3457 -0.4199
    1SOL    HW2 8986   1.334   0.991   3.832 -1.3609  1.5096 -1.8234
    1SOL    HW3 8987   1.254   0.870   3.788  0.2376 -0.1569 -0.2547
    1SOL    MW4 8988   1.318   0.928   3.774  0.0925 -0.0760 -0.5836
    1SOL     OW 8989   1.372   1.153   3.915  0.1513 -0.0686  0.5267
    1SOL    HW2 8990   1.450   1.168   3.860  0.9361 -0.1206  1.6215
    1SOL    HW3 8991   1.307   1.214   3.879  1.1471  1.0232  0.5109
    1SOL    MW4 8992   1.374   1.163   3.903  0.3862  0.0685  0.6690
    1SOL     OW 8993   1.585   1.255   3.756 -0.3890  0.0984  0.1244
    1SOL    HW2 8994   1.660   1.232   3.811  0.3630 -0.5284 -1.1397
    1SOL    HW3 8995   1.552   1.337   3.793  1.6408  0.9933  0.0012
    1SOL    MW4 8996   1.590   1.263   3.768 -0.0219  0.1338 -0.0587
    1SOL     OW 8997   1.579   1.514   3.875 -0.1951 -0.3418  0.1924
    1SOL    HW2 8998   1.576   1.524   3.970 -0.9884  1.2507  0.0063
    1SOL    HW3 8999   1.666   1.546   3.850 -0.6764  1.0004  0.1958
    1SOL    MW4 9000   1.590   1.520   3.884 -0.3633  0.0454  0.1686
    1SOL     OW 9001   1.383   1.657   3.765 -0.3460  0.1600  0.2121
    1SOL    HW2 9002   1.385   1.746   3.802 -1.5163 -0.5339  2.0496
    1SOL    HW3 9003   1.452   1.610   3.812 -0.5578 -0.2196  0.1452
    1SOL    MW4 9004   1.392   1.663   3.776 -0.5286  0.0184  0.4456
    1SOL     OW 9005   1.362   1.913   3.873  0.0025  0.4875  0.0919
    1SOL    HW2 9006   1.358   1.915   3.969  0.1186  1.5928  0.0793
    1SOL    HW3 9007   1.285   1.962   3.844 -0.6788 -0.8588 -0.3994
    1SOL    MW4 9008   1.352   1.920   3.882 -0.0721  0.4556  0.0255
    1SOL     OW 9009   1.591   2.026   3.760  0.4855  0.3368  0.9973
    1SOL    HW2 9010   1.520   1.979   3.805  1.8972 -0.4937  2.4326
    1SOL    HW3 9011   1.560   2.038   3.671 -0.9947 -1.0397  1.3149
    1SOL    MW4 9012   1.578   2.021   3.754  0.4765  0.0458  1.2286
    1SOL     OW 9013   1.563   2.304   3.827 -0.1468 -0.1149  0.6523
    1SOL    HW2 9014   1.562   2.300   3.923 -0.1819 -0.0520  0.6540
    1SOL    HW3 9015   1.562   2.212   3.800 -2.1620 -0.1293  0.7046
    1SOL    MW4 9016   1.562   2.291   3.836 -0.4174 -0.1087  0.6595
    1SOL     OW 9017   1.361   2.480   3.732  0.2737 -0.7120 -0.0279
    1SOL    HW2 9018   1.429   2.418   3.756  0.4986 -0.6087 -0.3930
    1SOL    HW3 9019   1.281   2.443   3.769  0.3051 -1.5279 -0.7639
    1SOL    MW4 9020   1.359   2.467   3.740  0.3076 -0.8059 -0.1731
    1SOL     OW 9021   1.349   2.736   3.834  0.5264  0.0189 -0.1968
    1SOL    HW2 9022   1.327   2.717   3.925  0.4719  0.3232 -0.1459
    1SOL    HW3 9023   1.362   2.650   3.794  0.0873 -0.1337 -0.0168
    1SOL    MW4 9024   1.347   2.722   3.840  0.4612  0.0391 -0.1667
    1SOL     OW 9025   1.602   2.840   3.777 -0.0104 -0.3505 -0.0840
    1SOL    HW2 9026   1.513   2.813   3.797 -0.0015 -0.6991 -0.5055
    1SOL    HW3 9027   1.605   2.844   3.681  0.3340 -0.0338 -0.0627
    1SOL    MW4 9028   1.591   2.837   3.767  0.0362 -0.3545 -0.1369
    1SOL     OW 9029   1.583   3.120   3.841  0.6056  0.3770 -0.2279
    1SOL    HW2 9030   1.595   3.125   3.936 -0.9029  1.2373 -0.0649
    1SOL    HW3 9031   1.602   3.029   3.820 -0.1532 -0.1066  1.0772
    1SOL    MW4 9032   1.587   3.109   3.851  0.3066  0.4265 -0.0339
    1SOL     OW 9033   1.327   3.208   3.760  0.4375  0.3546  0.4574
    1SOL    HW2 9034   1.333   3.293   3.803  0.7496 -0.6094  2.3587
    1SOL    HW3 9035   1.410   3.165   3.779  0.3975 -0.2857 -0.7187
    1SOL    MW4 9036   1.339   3.214   3.768  0.4734  0.1431  0.5529
    1SOL     OW 9037   1.372   3.466   3.855 -0.7763  0.0731 -0.2864
    1SOL    HW2 9038   1.455   3.498   3.819  0.1367 -1.8648  0.0198
    1SOL    HW3 9039   1.310   3.538   3.840  0.8949  1.4685 -0.7036
    1SOL    MW4 9040   1.375   3.480   3.848 -0.4352  0.0017 -0.3011
    1SOL     OW 9041   1.589   3.582   3.749 -0.2618 -0.3466 -0.1824
    1SOL    HW2 9042   1.677   3.560   3.779  0.2234 -0.1250 -1.4172
    1SOL    HW3 9043   1.573   3.670   3.784 -0.0871 -0.4772  0.2278
    1SOL    MW4 9044   1.598   3.591   3.758 -0.1748 -0.3345 -0.2913
    1SOL     OW 9045   1.583   3.864   3.802 -0.1537  0.0257  0.5422
    1SOL    HW2 9046   1.575   3.872   3.897 -0.7186 -0.7524  0.5695
    1SOL    HW3 9047   1.519   3.926   3.767 -0.6764 -0.4244  0.6862
    1SOL    MW4 9048   1.574   3.873   3.810 -0.2971 -0.1361  0.5651
    1SOL     OW 9049   1.353   4.026   3.754 -0.0853  0.0240  0.0679
    1SOL    HW2 9050   1.368   4.119   3.774  1.1396 -0.0323 -0.4999
    1SOL    HW3 9051   1.339   4.024   3.659  0.7297 -0.4555 -0.0489
    1SOL    MW4 9052   1.353   4.038   3.744  0.1838 -0.0467 -0.0224
    1SOL     OW 9053   1.339   4.286   3.833 -0.2049 -0.0321 -0.1383
    1SOL    HW2 9054   1.404   4.349   3.802  0.0810 -0.4585 -0.4066
    1SOL    HW3 9055   1.255   4.325   3.810 -0.0506  0.5647  0.2872
    1SOL    MW4 9056   1.337   4.300   3.826 -0.1467 -0.0095 -0.1175
    1SOL     OW 9057   1.572   4.418   3.742 -0.3569 -0.3578 -0.0562
    1SOL    HW2 9058   1.621   4.358   3.798  0.6640 -0.6317 -1.1994
    1SOL    HW3 9059   1.612   4.407   3.655 -0.5861  1.4900 -0.4233
    1SOL    MW4 9060   1.584   4.408   3.738 -0.2525 -0.1502 -0.2556
    1SOL     OW 9061   1.996   4.638   3.830  0.1320  0.1756  0.0335
    1SOL    HW2 9062   2.079   4.676   3.802 -0.2917  0.5426 -0.7349
    1SOL    HW3 9063   2.002   4.546   3.803  1.1476 -0.3317  1.8758
    1SOL    MW4 9064   2.008   4.631   3.823  0.2100  0.1569  0.1750
    1SOL     OW 9065   1.794   0.148   3.769 -0.0235 -0.0309 -0.0518
    1SOL    HW2 9066   1.860   0.082   3.791  1.3243  1.1795 -0.4106
    1SOL    HW3 9067   1.711   0.101   3.775  0.9176 -1.8046 -0.4413
    1SOL    MW4 9068   1.792   0.133   3.773  0.2785 -0.1052 -0.1509
    1SOL     OW 9069   1.771   0.411   3.871 -0.4759  0.1925 -0.5396
    1SOL    HW2 9070   1.754   0.394   3.963 -1.8981 -0.3399 -0.8940
    1SOL    HW3 9071   1.786   0.324   3.833  1.1286  0.4814 -0.6300
    1SOL    MW4 9072   1.771   0.397   3.878 -0.4518  0.1603 -0.5984
    1SOL     OW 9073   2.009   0.537   3.777 -0.0239  0.1100  0.0520
    1SOL    HW2 9074   1.937   0.489   3.818 -0.7251  2.3761  1.6054
    1SOL    HW3 9075   2.001   0.518   3.684 -1.3126 -1.3694  0.4395
    1SOL    MW4 9076   1.999   0.528   3.770 -0.2866  0.2138  0.3080
    1SOL     OW 9077   2.028   0.784   3.860 -0.4232 -0.3188  0.4857
    1SOL    HW2 9078   1.988   0.792   3.946 -0.7335 -1.4134  0.4468
    1SOL    HW3 9079   2.017   0.692   3.837  0.2987 -0.1825 -0.4115
    1SOL    MW4 9080   2.021   0.773   3.868 -0.3688 -0.4452  0.3619
    1SOL     OW 9081   1.777   0.925   3.744 -0.1306 -0.2954  0.0648
    1SOL    HW2 9082   1.852   0.869   3.766  0.2647 -0.0200 -0.5735
    1SOL    HW3 9083   1.769   0.917   3.649 -0.5687  0.1160  0.0688
    1SOL    MW4 9084   1.786   0.916   3.734 -0.1361 -0.2049 -0.0191
    1SOL     OW 9085   1.825   1.182   3.861 -0.0301 -0.2782 -0.2520
    1SOL    HW2 9086   1.813   1.184   3.956 -0.9783  1.2795 -0.3830
    1SOL    HW3 9087   1.824   1.089   3.839 -1.9658 -0.5884  1.0160
    1SOL    MW4 9088   1.823   1.170   3.871 -0.4106 -0.1137 -0.1020
    1SOL     OW 9089   2.057   1.279   3.758 -0.2957 -0.2359  0.1755
    1SOL    HW2 9090   2.131   1.231   3.796  0.5231  1.6845  1.0594
    1SOL    HW3 9091   1.980   1.235   3.793  0.4181 -1.4522  0.2728
    1SOL    MW4 9092   2.057   1.267   3.767 -0.0937 -0.1431  0.3049
    1SOL     OW 9093   2.043   1.519   3.877  0.2262 -0.0875  0.1094
    1SOL    HW2 9094   1.974   1.575   3.842  0.4567  0.0728 -0.0912
    1SOL    HW3 9095   2.035   1.438   3.827 -0.6094 -0.5324  0.9345
    1SOL    MW4 9096   2.033   1.515   3.866  0.1466 -0.1251  0.1919
    1SOL     OW 9097   1.809   1.630   3.770 -0.3382 -0.1827 -0.1406
    1SOL    HW2 9098   1.818   1.723   3.791 -0.1044 -0.4387  0.8870
    1SOL    HW3 9099   1.791   1.629   3.676 -1.1366  0.9477 -0.0116
    1SOL    MW4 9100   1.807   1.642   3.760 -0.4127 -0.0672  0.0117
    1SOL     OW 9101   1.816   1.907   3.839  0.0380  0.1119  0.2535
    1SOL    HW2 9102   1.733   1.946   3.811  0.0607 -0.3253 -0.4210
    1SOL    HW3 9103   1.883   1.970   3.815  0.1331 -0.5787 -1.3550
    1SOL    MW4 9104   1.814   1.920   3.832  0.0535 -0.0368 -0.0477
    1SOL     OW 9105   1.996   2.374   3.848  0.2897 -0.2799  0.1517
    1SOL    HW2 9106   2.082   2.392   3.812  0.4468 -1.9551 -0.3406
    1SOL    HW3 9107   2.008   2.377   3.943  0.7471  0.0927  0.0819
    1SOL    MW4 9108   2.009   2.376   3.856  0.3705 -0.4518  0.0772
    1SOL     OW 9109   2.255   2.436   3.717 -0.3352  0.1269 -0.0392
    1SOL    HW2 9110   2.261   2.438   3.622 -0.5305 -0.1802 -0.0591
    1SOL    HW3 9111   2.324   2.376   3.745 -0.1774  0.3374  0.0214
    1SOL    MW4 9112   2.265   2.428   3.708 -0.3402  0.1144 -0.0339
    1SOL     OW 9113   1.766   2.441   3.686 -0.7548 -0.1970  0.1027
    1SOL    HW2 9114   1.848   2.411   3.724 -0.6308 -1.7405 -1.3543
    1SOL    HW3 9115   1.699   2.386   3.726 -1.0735  0.8790  1.0856
    1SOL    MW4 9116   1.768   2.430   3.696 -0.7805 -0.2584  0.0403
    1SOL     OW 9117   3.163   2.480   4.569 -0.3098  0.0044  0.1985
    1SOL    HW2 9118   3.071   2.478   4.545 -0.1829 -0.1362 -0.3050
    1SOL    HW3 9119   3.177   2.565   4.609 -0.5179  0.2907 -0.3284
    1SOL    MW4 9120   3.153   2.491   4.571 -0.3204  0.0236  0.0629
    1SOL     OW 9121   2.030   3.088   3.834  0.3415 -0.0130 -0.2968
    1SOL    HW2 9122   2.117   3.123   3.812  0.3524 -0.2358 -0.6218
    1SOL    HW3 9123   2.032   3.077   3.929  0.9946 -0.8701 -0.4020
    1SOL    MW4 9124   2.042   3.091   3.844  0.4289 -0.1552 -0.3531
    1SOL     OW 9125   2.038   2.819   3.735 -0.3347  0.4743  0.1746
    1SOL    HW2 9126   2.039   2.910   3.764  1.2989  0.3239  0.6589
    1SOL    HW3 9127   1.959   2.782   3.775 -0.4891  1.4299  0.7613
    1SOL    MW4 9128   2.028   2.826   3.744 -0.1395  0.5805  0.3159
    1SOL     OW 9129   1.812   3.241   3.748 -0.4672  0.1317 -0.3663
    1SOL    HW2 9130   1.882   3.177   3.759  0.6854  1.0026 -2.3919
    1SOL    HW3 9131   1.733   3.196   3.779  0.8462 -1.0932  1.2774
    1SOL    MW4 9132   1.811   3.227   3.754 -0.1419  0.0851 -0.4163
    1SOL     OW 9133   1.836   3.498   3.870  0.0253 -0.3697 -0.1261
    1SOL    HW2 9134   1.912   3.543   3.833 -0.8204  1.8101  0.6997
    1SOL    HW3 9135   1.850   3.406   3.849  2.3926  0.1230 -0.8562
    1SOL    MW4 9136   1.848   3.492   3.862  0.2261 -0.0172 -0.1135
    1SOL     OW 9137   2.032   3.627   3.747  0.1531  0.4442 -0.2962
    1SOL    HW2 9138   2.109   3.577   3.774 -0.1255 -0.1132 -0.5183
    1SOL    HW3 9139   2.043   3.640   3.653  1.1060  2.3601  0.0498
    1SOL    MW4 9140   2.044   3.622   3.738  0.2418  0.6232 -0.2799
    1SOL     OW 9141   2.023   3.889   3.882 -0.3765 -0.1676  0.0055
    1SOL    HW2 9142   2.097   3.938   3.845  0.1837 -0.6023  0.5410
    1SOL    HW3 9143   2.011   3.815   3.822  0.6740 -0.9936  0.8077
    1SOL    MW4 9144   2.031   3.886   3.869 -0.1640 -0.3340  0.1819
    1SOL     OW 9145   1.798   4.025   3.775  0.2452 -0.4240  0.2415
    1SOL    HW2 9146   1.882   3.992   3.807  0.0025 -0.0041  1.3412
    1SOL    HW3 9147   1.738   3.951   3.786  0.9304 -1.4503 -2.5997
    1SOL    MW4 9148   1.801   4.011   3.781  0.3035 -0.5040  0.0119
    1SOL     OW 9149   1.752   4.267   3.918  0.1077 -0.4419  0.3681
    1SOL    HW2 9150   1.818   4.318   3.870 -1.2737 -0.4880 -1.6078
    1SOL    HW3 9151   1.759   4.179   3.883 -0.2216 -0.7149  0.9831
    1SOL    MW4 9152   1.762   4.262   3.907 -0.1181 -0.4845  0.1888
    1SOL     OW 9153   1.987   4.368   3.763  0.6156 -0.0545 -0.1704
    1SOL    HW2 9154   2.067   4.320   3.785  2.0619  2.2539 -0.1620
    1SOL    HW3 9155   1.987   4.373   3.667  2.1876  2.6236 -0.0792
    1SOL    MW4 9156   1.997   4.363   3.753  1.0139  0.6032 -0.1571
    1SOL     OW 9157   2.458   0.023   3.892  0.2857 -0.0123 -0.5520
    1SOL    HW2 9158   2.450  -0.001   3.984  0.7394 -0.4335 -0.6222
    1SOL    HW3 9159   2.465  -0.060   3.845 -0.2572  0.1899 -1.0007
    1SOL    MW4 9160   2.458   0.009   3.898  0.2739 -0.0415 -0.6206
    1SOL     OW 9161   2.232   0.132   3.775 -0.2619 -0.0947  0.2865
    1SOL    HW2 9162   2.311   0.102   3.821 -1.2184 -1.5558  1.0324
    1SOL    HW3 9163   2.248   0.114   3.683 -0.0440 -1.1621  0.5288
    1SOL    MW4 9164   2.244   0.126   3.769 -0.3593 -0.4283  0.4170
    1SOL     OW 9165   2.232   0.392   3.867 -0.2432 -0.3377 -0.1231
    1SOL    HW2 9166   2.233   0.302   3.835  0.3484 -0.6516  0.7702
    1SOL    HW3 9167   2.150   0.429   3.834  0.2757 -0.7000 -1.8892
    1SOL    MW4 9168   2.221   0.385   3.858 -0.0963 -0.4269 -0.2384
    1SOL     OW 9169   2.467   0.513   3.791  0.2039  0.1306  0.4824
    1SOL    HW2 9170   2.393   0.459   3.816 -0.3077  1.4092  1.8377
    1SOL    HW3 9171   2.466   0.514   3.695  0.1739 -2.1363  0.4499
    1SOL    MW4 9172   2.457   0.506   3.781  0.1321  0.0002  0.6571
    1SOL     OW 9173   2.470   0.767   3.870  0.3870 -0.4185  0.1497
    1SOL    HW2 9174   2.390   0.791   3.824 -0.4792  1.2168  2.3975
    1SOL    HW3 9175   2.471   0.672   3.867 -0.7389 -0.4027 -1.4146
    1SOL    MW4 9176   2.459   0.758   3.864  0.1240 -0.2007  0.2398
    1SOL     OW 9177   2.251   0.904   3.745  0.3085  0.5626 -0.1080
    1SOL    HW2 9178   2.173   0.862   3.780  0.1569  0.4786 -0.5415
    1SOL    HW3 9179   2.248   0.885   3.651  2.2826 -1.8520  0.2432
    1SOL    MW4 9180   2.240   0.896   3.737  0.5488  0.2329 -0.1187
    1SOL     OW 9181   2.290   1.151   3.847 -0.7027  0.2177  0.1666
    1SOL    HW2 9182   2.289   1.137   3.942  1.8029 -0.3640  0.1483
    1SOL    HW3 9183   2.279   1.063   3.810 -1.3384  0.4028 -0.0950
    1SOL    MW4 9184   2.288   1.137   3.855 -0.4561  0.1653  0.1297
    1SOL     OW 9185   2.515   1.308   3.745  0.0587  0.2374  0.2260
    1SOL    HW2 9186   2.518   1.387   3.799  1.2072  0.0479  0.4707
    1SOL    HW3 9187   2.436   1.263   3.772 -0.4250  1.1396  0.3284
    1SOL    MW4 9188   2.505   1.313   3.756  0.1464  0.3315  0.2720
    1SOL     OW 9189   2.464   1.571   3.916  0.0549 -0.4599  0.1783
    1SOL    HW2 9190   2.541   1.605   3.870 -0.4992 -0.2849 -0.6246
    1SOL    HW3 9191   2.390   1.601   3.864 -0.6105  0.2340  1.5007
    1SOL    MW4 9192   2.465   1.580   3.903 -0.1059 -0.3452  0.2468
    1SOL     OW 9193   2.251   1.647   3.759  0.2116 -0.1869 -0.2127
    1SOL    HW2 9194   2.257   1.734   3.800 -0.1231  0.3844 -1.3521
    1SOL    HW3 9195   2.175   1.607   3.801  1.2960 -0.5554  1.4510
    1SOL    MW4 9196   2.242   1.653   3.770  0.3104 -0.1601 -0.1435
    1SOL     OW 9197   2.230   1.923   3.870 -0.2985  0.0522  0.2004
    1SOL    HW2 9198   2.162   1.980   3.833  0.2252 -0.3633 -1.4594
    1SOL    HW3 9199   2.307   1.940   3.816  0.3578 -0.9378  0.8216
    1SOL    MW4 9200   2.231   1.933   3.858 -0.1426 -0.1333  0.0634
    1SOL     OW 9201   2.469   2.004   3.733  0.0915  0.1045  0.3361
    1SOL    HW2 9202   2.471   2.004   3.637  0.4210 -0.6858  0.3397
    1SOL    HW3 9203   2.552   1.964   3.759  0.2087  0.7474  0.9619
    1SOL    MW4 9204   2.480   1.998   3.724  0.1504  0.0850  0.4194
    1SOL     OW 9205   2.249   2.680   3.856  0.1059  0.5960  0.2008
    1SOL    HW2 9206   2.174   2.730   3.824 -0.7852  0.6195  2.2400
    1SOL    HW3 9207   2.249   2.600   3.803 -0.1934  1.4515 -1.1138
    1SOL    MW4 9208   2.239   2.676   3.845 -0.0510  0.7119  0.2964
    1SOL     OW 9209   0.668   1.984   4.506 -0.1384 -0.1266  0.1013
    1SOL    HW2 9210   0.727   2.051   4.541  0.3905 -1.1022  1.1459
    1SOL    HW3 9211   0.659   2.004   4.413 -0.6500  1.8615  0.5710
    1SOL    MW4 9212   0.675   1.995   4.498 -0.1361  0.0069  0.3014
    1SOL     OW 9213   2.020   2.099   3.782 -0.2510  0.6391 -0.1247
    1SOL    HW2 9214   2.015   2.189   3.816 -0.1412  0.8898 -0.7793
    1SOL    HW3 9215   2.015   2.109   3.687 -0.3279 -0.0561 -0.1922
    1SOL    MW4 9216   2.019   2.112   3.774 -0.2468  0.5805 -0.2201
    1SOL     OW 9217   2.454   2.848   3.792 -0.4828  0.0421  0.2177
    1SOL    HW2 9218   2.381   2.793   3.822 -0.7359  1.0681  1.5162
    1SOL    HW3 9219   2.443   2.852   3.697 -1.9625 -0.0332  0.3751
    1SOL    MW4 9220   2.443   2.841   3.783 -0.7114  0.1676  0.4101
    1SOL     OW 9221   2.464   3.089   3.912 -0.3260  0.0351 -0.2430
    1SOL    HW2 9222   2.433   3.073   4.001 -1.6965 -1.3906 -0.9420
    1SOL    HW3 9223   2.460   3.003   3.869  1.0758  0.5501 -1.4594
    1SOL    MW4 9224   2.459   3.075   3.918 -0.3216 -0.0849 -0.4954
    1SOL     OW 9225   2.272   3.217   3.769  0.3257 -0.3080  0.0632
    1SOL    HW2 9226   2.276   3.310   3.792  0.9182 -0.5853  1.1612
    1SOL    HW3 9227   2.336   3.176   3.827 -1.1505 -1.6400  0.7940
    1SOL    MW4 9228   2.281   3.224   3.780  0.2093 -0.5205  0.3042
    1SOL     OW 9229   2.246   3.480   3.844  0.2280  0.3940 -0.0563
    1SOL    HW2 9230   2.233   3.490   3.939 -0.8846  0.1733 -0.1718
    1SOL    HW3 9231   2.323   3.533   3.824 -0.5747  1.8606  0.7020
    1SOL    MW4 9232   2.254   3.488   3.854 -0.0248  0.5584  0.0284
    1SOL     OW 9233   2.478   3.627   3.778 -0.5690  0.1228  0.0144
    1SOL    HW2 9234   2.534   3.564   3.821  0.3093  0.7678 -0.1675
    1SOL    HW3 9235   2.488   3.609   3.684 -2.2508 -1.0888  0.0314
    1SOL    MW4 9236   2.486   3.617   3.771 -0.6750  0.0479 -0.0074
    1SOL     OW 9237   2.457   3.903   3.836  0.2915  0.1709 -0.1116
    1SOL    HW2 9238   2.538   3.937   3.797  0.6380  0.4838  0.8739
    1SOL    HW3 9239   2.463   3.808   3.825  0.3715  0.2543 -0.8421
    1SOL    MW4 9240   2.468   3.895   3.829  0.3479  0.2232 -0.0777
    1SOL     OW 9241   2.227   4.007   3.716  1.0077  0.4126 -0.1033
    1SOL    HW2 9242   2.312   3.983   3.752  1.0571  0.0135 -0.4885
    1SOL    HW3 9243   2.240   4.010   3.621  0.4989 -0.0458 -0.1914
    1SOL    MW4 9244   2.240   4.004   3.708  0.9472  0.2995 -0.1659
    1SOL     OW 9245   2.236   4.271   3.845  0.4457  0.2908 -0.2333
    1SOL    HW2 9246   2.245   4.259   3.940 -0.5588  1.4045  0.0216
    1SOL    HW3 9247   2.245   4.184   3.808 -0.1684 -0.2940  0.9798
    1SOL    MW4 9248   2.238   4.258   3.853  0.2322  0.3605 -0.0398
    1SOL     OW 9249   2.453   4.427   3.781  0.7726 -0.2016  0.0552
    1SOL    HW2 9250   2.529   4.373   3.802  1.3355  0.6866  0.2959
    1SOL    HW3 9251   2.378   4.372   3.804  1.3311 -1.0630 -0.1444
    1SOL    MW4 9252   2.453   4.413   3.787  0.9203 -0.1974  0.0606
    1SOL     OW 9253   2.889   4.658   3.876  0.1189 -0.3716 -0.1519
    1SOL    HW2 9254   2.894   4.662   3.972 -1.0583  0.8899 -0.1353
    1SOL    HW3 9255   2.971   4.698   3.847  0.7591 -1.3118  0.3252
    1SOL    MW4 9256   2.900   4.664   3.885  0.0479 -0.3292 -0.0868
    1SOL     OW 9257   2.672   0.140   3.742  0.1265  0.0285 -0.1184
    1SOL    HW2 9258   2.746   0.100   3.788 -0.2828  0.0379  0.5556
    1SOL    HW3 9259   2.595   0.106   3.787 -0.2495  0.9443 -0.0733
    1SOL    MW4 9260   2.672   0.130   3.754  0.0229  0.1506 -0.0236
    1SOL     OW 9261   2.707   0.397   3.803  0.0951 -0.1008  0.1061
    1SOL    HW2 9262   2.689   0.304   3.789 -2.1664  0.1522  1.1881
    1SOL    HW3 9263   2.621   0.439   3.799  0.9269  1.7388  1.1529
    1SOL    MW4 9264   2.693   0.390   3.800 -0.0935  0.1753  0.3870
    1SOL     OW 9265   2.945   0.519   3.778  0.2186 -0.0775  0.0732
    1SOL    HW2 9266   3.007   0.476   3.837  0.2443  1.0013  0.8373
    1SOL    HW3 9267   2.865   0.467   3.786  0.9568 -1.3767 -0.7905
    1SOL    MW4 9268   2.942   0.506   3.787  0.3192 -0.1066  0.0598
    1SOL     OW 9269   2.911   0.766   3.891  0.1048 -0.4197 -0.4440
    1SOL    HW2 9270   2.998   0.795   3.865 -0.5432  1.4835 -0.5926
    1SOL    HW3 9271   2.914   0.671   3.883  3.0113 -0.6393  2.2033
    1SOL    MW4 9272   2.923   0.757   3.886  0.4027 -0.1976 -0.1142
    1SOL     OW 9273   2.672   0.878   3.737  0.2941  0.2637  0.0686
    1SOL    HW2 9274   2.746   0.821   3.756  0.6150  0.4619 -0.5902
    1SOL    HW3 9275   2.599   0.840   3.787  0.2100 -1.4182 -1.2782
    1SOL    MW4 9276   2.672   0.865   3.746  0.3252  0.0679 -0.1960
    1SOL     OW 9277   2.702   1.126   3.829 -0.0903  0.3484  0.1459
    1SOL    HW2 9278   2.686   1.036   3.800  0.4618 -0.3414  1.9206
    1SOL    HW3 9279   2.622   1.173   3.807 -0.0339 -0.3622 -1.6223
    1SOL    MW4 9280   2.690   1.120   3.822 -0.0100  0.1634  0.1469
    1SOL     OW 9281   2.908   1.271   3.738  0.1165  0.1512  0.2497
    1SOL    HW2 9282   2.910   1.362   3.770 -1.0312  0.7288 -1.2768
    1SOL    HW3 9283   2.833   1.232   3.782 -1.0330  0.7417 -1.1490
    1SOL    MW4 9284   2.898   1.278   3.748 -0.1864  0.3054 -0.1361
    1SOL     OW 9285   2.907   1.526   3.836 -0.0133  0.0322 -0.0059
    1SOL    HW2 9286   2.900   1.498   3.928  0.1501 -0.0328 -0.0135
    1SOL    HW3 9287   2.997   1.557   3.827  0.0140 -0.1020 -0.1854
    1SOL    MW4 9288   2.918   1.527   3.847  0.0119  0.0058 -0.0303
    1SOL     OW 9289   2.680   1.636   3.747 -0.0079 -0.2765 -0.1411
    1SOL    HW2 9290   2.762   1.592   3.770 -0.0988  0.1736  1.0864
    1SOL    HW3 9291   2.689   1.656   3.654  1.0475 -0.7097 -0.1430
    1SOL    MW4 9292   2.692   1.633   3.738  0.1194 -0.2743  0.0205
    1SOL     OW 9293   2.714   1.890   3.843 -0.3396  0.4315 -0.2406
    1SOL    HW2 9294   2.736   1.878   3.935 -0.7941  1.1152 -0.0332
    1SOL    HW3 9295   2.696   1.802   3.810 -1.8078  0.3475  0.7423
    1SOL    MW4 9296   2.715   1.877   3.851 -0.5932  0.5107 -0.0834
    1SOL     OW 9297   2.917   2.289   3.874  0.0348 -0.6450 -0.0375
    1SOL    HW2 9298   2.843   2.333   3.833  0.0890  0.0786  0.6331
    1SOL    HW3 9299   2.994   2.330   3.833  0.0747 -0.8590 -0.1776
    1SOL    MW4 9300   2.917   2.300   3.863  0.0472 -0.5774  0.0324
    1SOL     OW 9301   2.798   1.948   4.548  0.1025 -0.2154 -0.0208
    1SOL    HW2 9302   2.758   1.985   4.626 -0.1136  0.8800 -0.6395
    1SOL    HW3 9303   2.890   1.974   4.554  0.0380  0.0687 -0.2420
    1SOL    MW4 9304   2.805   1.956   4.559  0.0656 -0.0334 -0.1316
    1SOL     OW 9305   2.700   2.417   3.724  0.2991 -0.7357 -0.1427
    1SOL    HW2 9306   2.689   2.507   3.754  2.3325 -0.5108  0.0005
    1SOL    HW3 9307   2.624   2.370   3.758 -0.4217  0.7892  0.3450
    1SOL    MW4 9308   2.689   2.422   3.732  0.4725 -0.5050 -0.0594
    1SOL     OW 9309   2.663   2.672   3.819 -0.1607 -0.3254  0.5569
    1SOL    HW2 9310   2.587   2.729   3.812 -0.7143 -1.0651  0.5118
    1SOL    HW3 9311   2.677   2.660   3.913 -1.5611 -2.1126  0.5622
    1SOL    MW4 9312   2.655   2.678   3.831 -0.4184 -0.6585  0.5517
    1SOL     OW 9313   2.890   2.806   3.750  0.4569 -0.3600 -0.3857
    1SOL    HW2 9314   2.883   2.889   3.797  0.5436 -0.4285 -0.2511
    1SOL    HW3 9315   2.807   2.761   3.767  0.1764 -0.0590 -0.9279
    1SOL    MW4 9316   2.878   2.811   3.758  0.4315 -0.3293 -0.4396
    1SOL     OW 9317   2.925   3.055   3.893  0.1141  0.1230  0.3199
    1SOL    HW2 9318   2.999   3.115   3.882 -0.3771  0.8071  0.6929
    1SOL    HW3 9319   2.851   3.100   3.851  0.1308 -0.9980 -0.9109
    1SOL    MW4 9320   2.925   3.069   3.886  0.0513  0.0651  0.2067
    1SOL     OW 9321   2.705   3.193   3.814  0.0222 -0.0261 -0.4168
    1SOL    HW2 9322   2.700   3.288   3.830  0.6265 -0.0051 -0.3440
    1SOL    HW3 9323   2.636   3.156   3.869  1.0093  0.2055  1.0182
    1SOL    MW4 9324   2.695   3.201   3.824  0.2320  0.0069 -0.2179
    1SOL     OW 9325   2.673   3.457   3.845 -0.0481 -0.0291 -0.3713
    1SOL    HW2 9326   2.674   3.454   3.941  0.6648  0.4864 -0.3604
    1SOL    HW3 9327   2.746   3.514   3.822  0.3272 -0.8534 -1.2577
    1SOL    MW4 9328   2.683   3.464   3.855  0.0956 -0.0699 -0.4866
    1SOL     OW 9329   2.887   3.619   3.762  0.1979 -0.5895  0.1032
    1SOL    HW2 9330   2.967   3.569   3.781 -0.1885 -1.1798  0.1827
    1SOL    HW3 9331   2.880   3.617   3.667  0.5038 -0.1855  0.0724
    1SOL    MW4 9332   2.897   3.612   3.752  0.1872 -0.6142  0.1097
    1SOL     OW 9333   2.906   3.883   3.872  0.2859 -0.7634 -0.1070
    1SOL    HW2 9334   2.922   3.889   3.966 -0.7217  1.5249 -0.0688
    1SOL    HW3 9335   2.896   3.789   3.856  1.4756 -1.2597  1.8806
    1SOL    MW4 9336   2.907   3.871   3.882  0.3099 -0.5269  0.1602
    1SOL     OW 9337   2.696   4.018   3.740 -0.0045  0.1825 -0.2306
    1SOL    HW2 9338   2.702   4.105   3.779 -1.5394 -0.5154  1.6613
    1SOL    HW3 9339   2.767   3.968   3.780 -0.0998  0.1402 -0.1112
    1SOL    MW4 9340   2.706   4.023   3.750 -0.2198  0.0854  0.0348
    1SOL     OW 9341   2.698   4.283   3.852 -0.6300  0.1293  0.4555
    1SOL    HW2 9342   2.762   4.342   3.811 -1.9064  1.6384  0.5738
    1SOL    HW3 9343   2.704   4.304   3.946 -1.0264  0.0175  0.5058
    1SOL    MW4 9344   2.707   4.294   3.859 -0.8507  0.3138  0.4780
    1SOL     OW 9345   2.885   4.433   3.720 -0.0795 -0.5843  0.3407
    1SOL    HW2 9346   2.969   4.398   3.750  0.0591 -0.2598  0.3342
    1SOL    HW3 9347   2.870   4.510   3.775 -0.9422 -1.3086  1.1313
    1SOL    MW4 9348   2.894   4.438   3.731 -0.1752 -0.6371  0.4439
    1SOL     OW 9349   3.378   4.609   3.874  0.2404 -0.4032 -0.0213
    1SOL    HW2 9350   3.391   4.615   3.969 -0.2180  1.2398 -0.0493
    1SOL    HW3 9351   3.443   4.669   3.837 -1.2268  0.8324 -0.6144
    1SOL    MW4 9352   3.388   4.617   3.882 -0.0138 -0.0234 -0.1032
    1SOL     OW 9353   3.146   0.096   3.797  0.2650 -0.1411  0.3922
    1SOL    HW2 9354   3.223   0.049   3.829 -0.1343 -0.4141  0.9606
    1SOL    HW3 9355   3.161   0.107   3.703  0.3856 -1.3518  0.2695
    1SOL    MW4 9356   3.158   0.092   3.789  0.2282 -0.3369  0.4508
    1SOL     OW 9357   3.150   0.374   3.909  0.4020  0.4816 -0.3976
    1SOL    HW2 9358   3.139   0.369   4.004 -1.9985 -0.6533 -0.6913
    1SOL    HW3 9359   3.130   0.286   3.878  0.2302  1.0882 -2.0455
    1SOL    MW4 9360   3.146   0.362   3.918  0.0627  0.4119 -0.6540
    1SOL     OW 9361   3.379   0.478   3.796 -0.0730 -0.1952  0.6502
    1SOL    HW2 9362   3.462   0.438   3.824  0.4869 -0.0413 -0.7674
    1SOL    HW3 9363   3.313   0.440   3.855  1.3316  1.6350  3.5213
    1SOL    MW4 9364   3.381   0.467   3.808  0.1862  0.0666  0.8421
    1SOL     OW 9365   3.402   0.761   3.861 -0.0233  0.0297 -0.1192
    1SOL    HW2 9366   3.399   0.754   3.957 -0.3832 -0.7370 -0.1858
    1SOL    HW3 9367   3.412   0.671   3.831 -0.1813  0.2462 -0.8135
    1SOL    MW4 9368   3.403   0.749   3.870 -0.0916 -0.0429 -0.2193
    1SOL     OW 9369   3.153   0.887   3.794  0.1818 -0.1842  0.1333
    1SOL    HW2 9370   3.236   0.843   3.813  0.0794 -0.7298 -0.6577
    1SOL    HW3 9371   3.134   0.863   3.703 -0.6760  0.2062  0.2090
    1SOL    MW4 9372   3.162   0.878   3.784  0.0556 -0.2046  0.0389
    1SOL     OW 9373   3.129   1.151   3.873  0.0324  0.2341 -0.0817
    1SOL    HW2 9374   3.122   1.063   3.835  1.3676  0.5822 -1.1883
    1SOL    HW3 9375   3.057   1.200   3.835  0.6780  0.2540 -1.3158
    1SOL    MW4 9376   3.119   1.146   3.863  0.2935  0.2828 -0.3905
    1SOL     OW 9377   3.383   1.243   3.776 -0.4672  0.0771  0.2981
    1SOL    HW2 9378   3.303   1.196   3.800 -0.7163 -0.0496 -0.7720
    1SOL    HW3 9379   3.372   1.263   3.683  0.9954 -0.4223  0.0099
    1SOL    MW4 9380   3.371   1.240   3.767 -0.3071 -0.0055  0.1190
    1SOL     OW 9381   3.373   1.489   3.902 -0.4322 -0.0730 -0.4287
    1SOL    HW2 9382   3.294   1.533   3.871  0.2369  0.2117 -1.8024
    1SOL    HW3 9383   3.368   1.402   3.862 -0.2994 -0.2155 -0.1299
    1SOL    MW4 9384   3.362   1.483   3.892 -0.3264 -0.0542 -0.5708
    1SOL     OW 9385   3.155   1.635   3.784  0.3242  0.4607 -0.3687
    1SOL    HW2 9386   3.143   1.727   3.805 -2.6257 -0.0131  0.3519
    1SOL    HW3 9387   3.145   1.630   3.689 -0.8340  0.7242 -0.2675
    1SOL    MW4 9388   3.152   1.646   3.775 -0.2177  0.4331 -0.2601
    1SOL     OW 9389   3.118   1.908   3.826  0.1562  0.3345 -0.5540
    1SOL    HW2 9390   3.104   1.889   3.918  0.1201  1.3228 -0.3541
    1SOL    HW3 9391   3.039   1.954   3.798  0.2486  0.2111 -1.0259
    1SOL    MW4 9392   3.106   1.911   3.834  0.1636  0.4486 -0.5896
    1SOL     OW 9393   3.373   2.025   3.741  0.0684 -0.1712  0.1635
    1SOL    HW2 9394   3.296   1.983   3.780 -0.7176  1.1640  0.0741
    1SOL    HW3 9395   3.447   1.971   3.770 -0.7620 -0.6689  1.4046
    1SOL    MW4 9396   3.373   2.013   3.750 -0.1445 -0.0608  0.3154
    1SOL     OW 9397   3.374   2.271   3.857 -1.0547 -0.0676 -0.0138
    1SOL    HW2 9398   3.298   2.314   3.818 -0.5337 -1.1080 -2.2496
    1SOL    HW3 9399   3.376   2.184   3.817  0.5303 -0.5453  1.0361
    1SOL    MW4 9400   3.364   2.265   3.846 -0.7768 -0.2680 -0.1705
    1SOL     OW 9401   3.153   2.425   3.767  0.3479 -0.0807  0.3002
    1SOL    HW2 9402   3.157   2.510   3.811 -0.2583  0.5184 -0.7839
    1SOL    HW3 9403   3.142   2.447   3.675 -0.2340 -1.3484  0.0693
    1SOL    MW4 9404   3.152   2.439   3.761  0.1915 -0.1690  0.1266
    1SOL     OW 9405   3.107   2.689   3.890  0.2631 -0.2498  0.0273
    1SOL    HW2 9406   3.097   2.693   3.985 -0.7640  1.7963 -0.1379
    1SOL    HW3 9407   3.028   2.731   3.855  1.4939  0.7642 -1.6714
    1SOL    MW4 9408   3.096   2.695   3.898  0.2899  0.1538 -0.2184
    1SOL     OW 9409   3.320   2.868   3.778 -0.2935 -0.2360  0.3203
    1SOL    HW2 9410   3.237   2.828   3.804 -0.2878  0.0327  0.7602
    1SOL    HW3 9411   3.333   2.938   3.841 -0.3590  0.5328 -0.5098
    1SOL    MW4 9412   3.311   2.872   3.790 -0.3011 -0.0989  0.2689
    1SOL     OW 9413   3.366   3.107   3.914  0.1194  0.2208 -0.1670
    1SOL    HW2 9414   3.365   3.124   4.008 -2.5278  2.2001 -0.4882
    1SOL    HW3 9415   3.444   3.151   3.882  1.3320 -0.9234  1.1542
    1SOL    MW4 9416   3.376   3.115   3.922 -0.0699  0.3312 -0.0350
    1SOL     OW 9417   3.136   3.220   3.817  0.4105  0.2368  0.2849
    1SOL    HW2 9418   3.219   3.175   3.833  1.1178  2.0496  1.7386
    1SOL    HW3 9419   3.137   3.238   3.723  0.8027 -1.3780 -0.0480
    1SOL    MW4 9420   3.147   3.216   3.806  0.5555  0.2627  0.4330
    1SOL     OW 9421   3.113   3.483   3.867 -0.1666 -0.3988 -0.2938
    1SOL    HW2 9422   3.198   3.519   3.841 -0.3617  0.7844  0.6694
    1SOL    HW3 9423   3.124   3.388   3.859  0.0901 -0.1558 -3.6710
    1SOL    MW4 9424   3.126   3.475   3.862 -0.1583 -0.2105 -0.6123
    1SOL     OW 9425   3.335   3.619   3.780  0.2165 -0.1187 -0.0486
    1SOL    HW2 9426   3.339   3.712   3.801 -0.8322  0.1294 -0.8873
    1SOL    HW3 9427   3.355   3.614   3.686  0.7563 -0.7926  0.0927
    1SOL    MW4 9428   3.338   3.630   3.770  0.1493 -0.1750 -0.1407
    1SOL     OW 9429   3.341   3.888   3.886 -0.4883  0.0676 -0.5209
    1SOL    HW2 9430   3.418   3.914   3.836 -0.4663 -1.0725 -1.0994
    1SOL    HW3 9431   3.267   3.924   3.836 -0.3756  0.4066 -0.4413
    1SOL    MW4 9432   3.341   3.896   3.873 -0.4706 -0.0381 -0.5867
    1SOL     OW 9433   3.131   4.012   3.751 -0.1962  0.2384 -0.1719
    1SOL    HW2 9434   3.122   4.106   3.770  0.2507 -0.2196  2.5526
    1SOL    HW3 9435   3.058   3.971   3.798 -0.4068 -0.7962 -1.3676
    1SOL    MW4 9436   3.120   4.019   3.760 -0.1652  0.0410  0.0298
    1SOL     OW 9437   3.108   4.269   3.815  0.3138  0.1617  0.2330
    1SOL    HW2 9438   3.096   4.261   3.910  0.7700 -1.0632  0.2077
    1SOL    HW3 9439   3.199   4.298   3.805  0.0718  0.9031  0.1885
    1SOL    MW4 9440   3.119   4.271   3.826  0.3419  0.0978  0.2236
    1SOL     OW 9441   3.367   4.368   3.753  0.1072  0.3223  0.5228
    1SOL    HW2 9442   3.449   4.325   3.778  0.1633 -0.1740 -0.4853
    1SOL    HW3 9443   3.365   4.449   3.804  1.0708  0.1865  0.7803
    1SOL    MW4 9444   3.378   4.373   3.763  0.2415  0.2389  0.4237
    1SOL     OW 9445   3.826   4.649   3.805  0.2698 -0.3794 -0.0499
    1SOL    HW2 9446   3.904   4.688   3.766 -0.8067 -0.0205 -1.9161
    1SOL    HW3 9447   3.837   4.555   3.790  0.3400 -0.3278 -0.3329
    1SOL    MW4 9448   3.838   4.642   3.798  0.1371 -0.3252 -0.3335
    1SOL     OW 9449   3.583   0.106   3.756  0.2807  0.2196  0.0758
    1SOL    HW2 9450   3.664   0.069   3.793 -0.5850 -1.6633  0.1268
    1SOL    HW3 9451   3.600   0.114   3.663  1.0143  1.1797  0.2730
    1SOL    MW4 9452   3.596   0.102   3.749  0.2632  0.0979  0.1085
    1SOL     OW 9453   3.618   0.365   3.873  0.5203 -0.0286  0.6104
    1SOL    HW2 9454   3.702   0.408   3.857  0.1430  0.5776  0.2656
    1SOL    HW3 9455   3.623   0.283   3.823  0.7228  0.2220  0.2228
    1SOL    MW4 9456   3.630   0.360   3.865  0.4973  0.0844  0.5140
    1SOL     OW 9457   3.863   0.468   3.784 -0.1590  0.5144  0.1926
    1SOL    HW2 9458   3.936   0.426   3.828 -2.0375 -0.8297  2.1516
    1SOL    HW3 9459   3.860   0.556   3.822  0.8994  0.8319 -0.4528
    1SOL    MW4 9460   3.872   0.474   3.795 -0.2670  0.3790  0.3660
    1SOL     OW 9461   3.847   0.739   3.899 -0.1182 -0.5302 -0.1922
    1SOL    HW2 9462   3.919   0.794   3.868  0.8636 -0.6242  1.8067
    1SOL    HW3 9463   3.768   0.781   3.865  0.8498 -0.2352 -2.1329
    1SOL    MW4 9464   3.846   0.752   3.891  0.1390 -0.5037 -0.1848
    1SOL     OW 9465   3.635   0.876   3.765  0.1850 -0.6219  0.2818
    1SOL    HW2 9466   3.644   0.963   3.804  0.1853  0.1384 -1.3802
    1SOL    HW3 9467   3.552   0.842   3.799 -1.0550  1.0561 -1.0298
    1SOL    MW4 9468   3.626   0.883   3.775  0.0215 -0.3002 -0.1106
    1SOL     OW 9469   3.630   1.135   3.884 -0.0387 -0.5689  0.1433
    1SOL    HW2 9470   3.694   1.188   3.837  0.8232 -2.9219 -1.3902
    1SOL    HW3 9471   3.546   1.163   3.849  0.2439  1.0708  0.6905
    1SOL    MW4 9472   3.628   1.146   3.873  0.1123 -0.6630  0.0134
    1SOL     OW 9473   3.867   1.250   3.769 -0.0930  0.0767 -0.6591
    1SOL    HW2 9474   3.917   1.208   3.840 -1.6818 -1.3874 -0.3683
    1SOL    HW3 9475   3.856   1.340   3.798 -0.7865 -0.5240  1.0272
    1SOL    MW4 9476   3.872   1.256   3.782 -0.3941 -0.1957 -0.3984
    1SOL     OW 9477   3.831   1.511   3.864 -0.1106  0.0106  0.1659
    1SOL    HW2 9478   3.840   1.528   3.957 -0.3897  1.7642 -0.1233
    1SOL    HW3 9479   3.746   1.547   3.840 -0.1043 -0.5579 -0.7475
    1SOL    MW4 9480   3.821   1.518   3.873 -0.1466  0.1669  0.0069
    1SOL     OW 9481   3.606   1.630   3.795 -0.3833  0.1770  0.8769
    1SOL    HW2 9482   3.540   1.573   3.834  1.2404 -3.3687 -1.3095
    1SOL    HW3 9483   3.583   1.634   3.702  1.5074  0.2361  0.3851
    1SOL    MW4 9484   3.594   1.623   3.787  0.0803 -0.2828  0.5238
    1SOL     OW 9485   3.603   1.895   3.842 -0.1058 -0.3018  0.1310
    1SOL    HW2 9486   3.610   1.801   3.822 -0.4721 -0.1967 -0.5031
    1SOL    HW3 9487   3.615   1.900   3.936  0.6951 -0.9109  0.0695
    1SOL    MW4 9488   3.606   1.883   3.851 -0.0484 -0.3684  0.0391
    1SOL     OW 9489   3.800   2.070   3.762 -0.3844 -0.2184  0.5765
    1SOL    HW2 9490   3.878   2.034   3.805 -0.4352 -0.6422  0.3068
    1SOL    HW3 9491   3.731   2.008   3.782 -0.4534 -0.3137  0.0413
    1SOL    MW4 9492   3.801   2.057   3.771 -0.4001 -0.2868  0.4706
    1SOL     OW 9493   3.797   2.300   3.880 -0.6613  0.3210  0.4292
    1SOL    HW2 9494   3.799   2.216   3.834  0.4685  0.1108  0.8480
    1SOL    HW3 9495   3.721   2.345   3.843 -0.3277 -0.2240 -0.9904
    1SOL    MW4 9496   3.788   2.295   3.869 -0.4680  0.2215  0.2973
    1SOL     OW 9497   3.585   2.426   3.756  0.0074  0.5947  0.4393
    1SOL    HW2 9498   3.507   2.380   3.785 -0.0688  0.3140 -0.2071
    1SOL    HW3 9499   3.602   2.393   3.668  0.3292  1.3188  0.2220
    1SOL    MW4 9500   3.577   2.416   3.748  0.0401  0.6530  0.3252
    1SOL     OW 9501   3.548   2.719   3.830  0.2185 -0.5792  0.1266
    1SOL    HW2 9502   3.526   2.627   3.815 -0.1508 -0.5258  0.3168
    1SOL    HW3 9503   3.468   2.767   3.806  0.6587 -0.2454 -0.6811
    1SOL    MW4 9504   3.534   2.714   3.825  0.2279 -0.5279  0.0451
    1SOL     OW 9505   3.786   2.849   3.777  0.1739  0.6068 -0.2248
    1SOL    HW2 9506   3.860   2.808   3.823  0.2962  0.9882 -0.0790
    1SOL    HW3 9507   3.709   2.802   3.810  0.3544  0.1835 -0.4047
    1SOL    MW4 9508   3.786   2.837   3.787  0.2141  0.6013 -0.2294
    1SOL     OW 9509   3.810   3.133   3.896 -0.5230 -0.2826  0.3086
    1SOL    HW2 9510   3.734   3.179   3.860 -0.6083  0.3372  1.2634
    1SOL    HW3 9511   3.799   3.043   3.868 -1.8811 -0.2969  0.8347
    1SOL    MW4 9512   3.798   3.128   3.888 -0.7136 -0.2029  0.5043
    1SOL     OW 9513   3.570   3.261   3.811 -0.2713  0.1044  0.1494
    1SOL    HW2 9514   3.568   3.355   3.829  0.5136  0.2391 -0.4507
    1SOL    HW3 9515   3.573   3.254   3.716 -0.2048 -0.5293  0.1950
    1SOL    MW4 9516   3.570   3.272   3.801 -0.1588  0.0384  0.0763
    1SOL     OW 9517   3.587   3.542   3.870 -0.0397  0.4837  0.0635
    1SOL    HW2 9518   3.579   3.557   3.964 -1.1355  0.0091  0.0404
    1SOL    HW3 9519   3.500   3.557   3.835  0.2514  0.1628 -0.8158
    1SOL    MW4 9520   3.575   3.546   3.878 -0.1459  0.3788 -0.0558
    1SOL     OW 9521   3.802   3.637   3.742 -0.1045  0.3721  0.4528
    1SOL    HW2 9522   3.807   3.727   3.776  0.5270  1.0074 -1.2723
    1SOL    HW3 9523   3.724   3.601   3.783 -0.6877  1.8965  0.7430
    1SOL    MW4 9524   3.792   3.644   3.752 -0.0982  0.6571  0.2635
    1SOL     OW 9525   3.800   3.889   3.832  0.1387 -0.6233 -0.0137
    1SOL    HW2 9526   3.806   3.874   3.926  0.6110 -0.0544  0.0465
    1SOL    HW3 9527   3.889   3.913   3.806 -0.2208  0.2963 -0.4153
    1SOL    MW4 9528   3.813   3.890   3.841  0.1535 -0.4270 -0.0591
    1SOL     OW 9529   3.558   3.980   3.740 -0.0356  0.7362  0.4477
    1SOL    HW2 9530   3.570   4.073   3.757  0.5366  0.8427 -0.5254
    1SOL    HW3 9531   3.642   3.941   3.763  0.4078  0.7438 -1.1669
    1SOL    MW4 9532   3.571   3.987   3.746  0.0987  0.7513  0.1063
    1SOL     OW 9533   3.588   4.231   3.833 -0.1268 -0.2608  0.1680
    1SOL    HW2 9534   3.577   4.224   3.927 -1.3273  2.9169  0.3412
    1SOL    HW3 9535   3.667   4.285   3.822 -0.2908 -0.1691 -0.6197
    1SOL    MW4 9536   3.597   4.237   3.844 -0.3071  0.1707  0.0870
    1SOL     OW 9537   3.825   4.361   3.751  0.3004 -0.6448 -0.3572
    1SOL    HW2 9538   3.914   4.329   3.767  0.0418 -0.8839  0.6439
    1SOL    HW3 9539   3.816   4.361   3.656  1.8146  0.5661 -0.5389
    1SOL    MW4 9540   3.836   4.357   3.741  0.4659 -0.5164 -0.2489
    1SOL     OW 9541   4.258   4.614   3.855  0.1681 -0.1000 -0.7967
    1SOL    HW2 9542   4.262   4.614   3.950 -0.6341 -0.4947 -0.7596
    1SOL    HW3 9543   4.342   4.650   3.827  0.1979  0.5073  0.0698
    1SOL    MW4 9544   4.270   4.619   3.864  0.0658 -0.0720 -0.6773
    1SOL     OW 9545   4.060   0.093   3.733 -0.1711  0.3723  0.0312
    1SOL    HW2 9546   4.132   0.037   3.763 -0.6916 -0.6508 -0.6274
    1SOL    HW3 9547   4.058   0.081   3.638 -0.4563  1.3121 -0.0859
    1SOL    MW4 9548   4.069   0.084   3.725 -0.2775  0.3613 -0.0708
    1SOL     OW 9549   4.095   0.345   3.855  0.3578  0.1608  0.5167
    1SOL    HW2 9550   4.101   0.330   3.949  2.0399  0.4290  0.4797
    1SOL    HW3 9551   4.089   0.257   3.817 -1.1741  0.0857  0.9106
    1SOL    MW4 9552   4.095   0.331   3.863  0.3781  0.1863  0.5641
    1SOL     OW 9553   4.290   0.511   3.756  0.3976 -0.0102 -0.6422
    1SOL    HW2 9554   4.225   0.447   3.785  0.7102 -0.1625 -0.2731
    1SOL    HW3 9555   4.292   0.502   3.661  0.0777 -0.1982 -0.6302
    1SOL    MW4 9556   4.282   0.501   3.747  0.3967 -0.0551 -0.5918
    1SOL     OW 9557   4.307   0.788   3.843 -0.4490  0.1672 -0.2794
    1SOL    HW2 9558   4.220   0.829   3.841 -0.3696  0.3837  0.4795
    1SOL    HW3 9559   4.291   0.697   3.818 -1.0903 -0.1135  1.0855
    1SOL    MW4 9560   4.293   0.781   3.839 -0.5226  0.1587  0.0010
    1SOL     OW 9561   4.045   0.902   3.805  0.3337  0.0835  0.3033
    1SOL    HW2 9562   4.051   0.983   3.856 -0.5125  0.1926  0.2326
    1SOL    HW3 9563   4.033   0.931   3.715 -1.4152 -0.1165  0.4606
    1SOL    MW4 9564   4.044   0.917   3.800 -0.0086  0.0714  0.3147
    1SOL     OW 9565   4.078   1.146   3.944  0.0123 -0.1703  0.2677
    1SOL    HW2 9566   4.034   1.205   4.006 -0.5851  1.5699 -1.7771
    1SOL    HW3 9567   4.140   1.202   3.898  0.3494 -1.4333 -0.8235
    1SOL    MW4 9568   4.081   1.162   3.946 -0.0224 -0.1074 -0.1462
    1SOL     OW 9569   4.293   1.280   3.835  0.1070  0.0610 -0.4420
    1SOL    HW2 9570   4.304   1.372   3.861  2.5065 -0.1968 -0.4653
    1SOL    HW3 9571   4.272   1.284   3.742 -0.6318  0.5983 -0.2639
    1SOL    MW4 9572   4.291   1.293   3.826  0.3262  0.0978 -0.4215
    1SOL     OW 9573   4.275   1.554   3.885  0.3659 -0.0369  0.0805
    1SOL    HW2 9574   4.195   1.598   3.857  0.0039 -0.3264  0.6551
    1SOL    HW3 9575   4.345   1.602   3.841  0.0591  1.8538  1.5821
    1SOL    MW4 9576   4.274   1.566   3.876  0.2775  0.1744  0.3545
    1SOL     OW 9577   4.025   1.682   3.804  0.1370  0.2205  0.2080
    1SOL    HW2 9578   4.001   1.772   3.826 -0.2059  0.1757  0.0229
    1SOL    HW3 9579   3.950   1.630   3.833  0.6185 -0.0818  0.9271
    1SOL    MW4 9580   4.012   1.687   3.811  0.1559  0.1746  0.2787
    1SOL     OW 9581   4.014   1.955   3.891  0.2842 -0.0458  0.2845
    1SOL    HW2 9582   4.043   1.943   3.981  0.8765  1.6561  0.3424
    1SOL    HW3 9583   4.085   2.005   3.850  0.0447 -0.8558 -1.1428
    1SOL    MW4 9584   4.027   1.960   3.898  0.3309  0.0718  0.1040
    1SOL     OW 9585   4.218   2.120   3.768 -0.2602 -0.4670  0.0742
    1SOL    HW2 9586   4.209   2.212   3.790 -0.5482 -0.6830  0.8832
    1SOL    HW3 9587   4.241   2.119   3.675 -0.5942  0.4000 -0.0169
    1SOL    MW4 9588   4.220   2.132   3.759 -0.3424 -0.3810  0.1690
    1SOL     OW 9589   4.227   2.374   3.841 -0.1893 -0.4222 -0.2593
    1SOL    HW2 9590   4.234   2.351   3.934 -0.0518 -1.5628 -0.5368
    1SOL    HW3 9591   4.149   2.429   3.835 -0.1360 -0.2509  0.5455
    1SOL    MW4 9592   4.218   2.378   3.853 -0.1645 -0.5500 -0.1900
    1SOL     OW 9593   3.978   2.480   3.771  0.2581  0.4980 -0.3650
    1SOL    HW2 9594   3.961   2.557   3.825  1.2504  0.5038 -0.0508
    1SOL    HW3 9595   3.916   2.414   3.802  0.7493  0.5308  0.7103
    1SOL    MW4 9596   3.967   2.482   3.782  0.4535  0.5028 -0.1819
    1SOL     OW 9597   3.994   2.736   3.920  0.1402  0.3265 -0.0443
    1SOL    HW2 9598   4.013   2.730   4.014  0.8482 -0.4725 -0.2392
    1SOL    HW3 9599   4.079   2.747   3.879 -0.1432  0.3231 -0.6328
    1SOL    MW4 9600   4.008   2.737   3.927  0.1960  0.2208 -0.1478
    1SOL     OW 9601   4.237   2.832   3.807 -0.6592  0.0505 -0.7651
    1SOL    HW2 9602   4.245   2.928   3.812  0.3983  0.0982 -2.6977
    1SOL    HW3 9603   4.312   2.799   3.856 -0.6697  0.2245 -0.6307
    1SOL    MW4 9604   4.248   2.841   3.814 -0.5217  0.0796 -1.0023
    1SOL     OW 9605   4.270   3.096   3.840 -0.3169 -0.2787 -0.1575
    1SOL    HW2 9606   4.194   3.151   3.821 -0.7942 -0.2465  1.6881
    1SOL    HW3 9607   4.346   3.153   3.824 -0.7377  0.1867 -0.5088
    1SOL    MW4 9608   4.270   3.111   3.836 -0.4354 -0.2129  0.0396
    1SOL     OW 9609   4.030   3.255   3.779  0.1940 -0.1562 -0.0294
    1SOL    HW2 9610   3.958   3.199   3.807 -1.8420  2.5936  0.4658
    1SOL    HW3 9611   4.030   3.250   3.684 -0.5853 -0.2825 -0.0256
    1SOL    MW4 9612   4.020   3.247   3.770 -0.1764  0.1898  0.0362
    1SOL     OW 9613   4.031   3.506   3.856  0.6180 -0.2116  0.1785
    1SOL    HW2 9614   4.025   3.418   3.819 -0.3617 -0.7179  1.4875
    1SOL    HW3 9615   3.962   3.556   3.812  2.3777  0.4352 -1.9172
    1SOL    MW4 9616   4.021   3.501   3.846  0.7210 -0.1931  0.0746
    1SOL     OW 9617   4.279   3.620   3.780 -0.5130  0.1009 -0.2291
    1SOL    HW2 9618   4.203   3.578   3.821 -0.5552  1.6563  1.3479
    1SOL    HW3 9619   4.354   3.584   3.827 -0.4834  0.8919  0.3449
    1SOL    MW4 9620   4.279   3.610   3.792 -0.5145  0.4106  0.0546
    1SOL     OW 9621   4.281   3.872   3.885  0.1616  0.1300  0.1940
    1SOL    HW2 9622   4.199   3.905   3.847 -0.3250 -0.3618  0.8317
    1SOL    HW3 9623   4.283   3.779   3.861 -0.2930 -0.2531  1.6374
    1SOL    MW4 9624   4.270   3.864   3.877  0.0377  0.0145  0.4687
    1SOL     OW 9625   4.070   3.970   3.753  0.1688 -0.2353  0.3331
    1SOL    HW2 9626   4.070   4.066   3.762  1.0999 -0.2789  0.9134
    1SOL    HW3 9627   4.059   3.954   3.660 -0.3534  0.4342  0.2753
    1SOL    MW4 9628   4.069   3.981   3.742  0.2227 -0.1526  0.4022
    1SOL     OW 9629   4.073   4.253   3.797  0.1982  0.4762 -0.0199
    1SOL    HW2 9630   4.073   4.260   3.892  1.5949  1.2879 -0.0664
    1SOL    HW3 9631   4.147   4.307   3.769  0.1905 -0.2723 -1.5276
    1SOL    MW4 9632   4.083   4.261   3.806  0.3815  0.4845 -0.2251
    1SOL     OW 9633   4.307   4.388   3.711  0.6728  0.0944 -0.0710
    1SOL    HW2 9634   4.277   4.467   3.757  0.1279 -0.1644  0.0180
    1SOL    HW3 9635   4.372   4.350   3.769  0.0613 -0.1731  0.4442
    1SOL    MW4 9636   4.312   4.394   3.725  0.5202  0.0248  0.0086
    1SOL     OW 9637   2.991   1.582   4.667  0.3542  0.0614  0.2004
    1SOL    HW2 9638   3.013   1.493   4.641 -2.8207 -0.3718 -1.2733
    1SOL    HW3 9639   2.996   1.581   4.763  0.8613 -1.5590  0.1674
    1SOL    MW4 9640   2.995   1.570   4.676  0.0024 -0.2093  0.0019
    1SOL     OW 9641   4.068   4.241   4.103  0.3391  0.4381  0.3049
    1SOL    HW2 9642   4.043   4.153   4.132 -0.0111  0.3911 -0.1418
    1SOL    HW3 9643   3.999   4.298   4.136 -0.4360  0.2917 -1.0396
    1SOL    MW4 9644   4.056   4.237   4.112  0.1903  0.4125  0.0687
    1SOL     OW 9645   2.049   0.482   4.357 -0.3715  0.1437 -0.4455
    1SOL    HW2 9646   2.017   0.441   4.438  0.5884  0.5663  0.1535
    1SOL    HW3 9647   2.108   0.550   4.387 -0.4301  0.6592 -1.5045
    1SOL    MW4 9648   2.052   0.485   4.372 -0.2525  0.2674 -0.5064
    1SOL     OW 9649   0.659   0.696   4.191  0.0912 -0.5744 -0.1332
    1SOL    HW2 9650   0.711   0.766   4.230 -1.0126 -0.3336  0.9373
    1SOL    HW3 9651   0.673   0.705   4.097  0.4393  0.6880  0.0356
    1SOL    MW4 9652   0.668   0.706   4.184 -0.0086 -0.3761  0.0305
    1SOL     OW 9653   4.279   0.769   4.141  0.3038 -0.3767  0.2824
    1SOL    HW2 9654   4.304   0.679   4.161 -0.0978 -0.3840  0.7379
    1SOL    HW3 9655   4.291   0.776   4.046  0.0909 -0.9827  0.2089
    1SOL    MW4 9656   4.284   0.758   4.131  0.2222 -0.4576  0.3324
    1SOL     OW 9657   1.898   2.381   4.355  0.6001  0.1536 -0.3046
    1SOL    HW2 9658   1.960   2.429   4.409 -1.3751 -0.4939  2.6474
    1SOL    HW3 9659   1.910   2.289   4.380  1.0245 -0.3834 -2.4179
    1SOL    MW4 9660   1.908   2.375   4.365  0.3955 -0.0029 -0.1941
    1SOL     OW 9661   0.035   1.173   4.170  0.4019  0.5261  0.3209
    1SOL    HW2 9662  -0.051   1.190   4.209  1.0343  0.8576  1.6048
    1SOL    HW3 9663   0.096   1.221   4.225  1.6278 -1.2795  0.5773
    1SOL    MW4 9664   0.032   1.182   4.182  0.6471  0.3318  0.5240
    1SOL     OW 9665   1.091   2.829   4.214  0.0111 -0.0037  0.3131
    1SOL    HW2 9666   1.090   2.922   4.234 -0.4789  0.2849 -0.9737
    1SOL    HW3 9667   1.091   2.785   4.299  0.2085  1.1722  0.9159
    1SOL    MW4 9668   1.091   2.835   4.228 -0.0274  0.1898  0.2227
    1SOL     OW 9669   0.519   4.219   4.682 -0.4447  0.0983  0.0479
    1SOL    HW2 9670   0.530   4.314   4.692  1.2306 -0.0150 -0.4921
    1SOL    HW3 9671   0.511   4.207   4.587  1.3836 -0.4757 -0.0525
    1SOL    MW4 9672   0.520   4.230   4.671  0.0175  0.0076 -0.0367
    1SOL     OW 9673   3.437   3.292   4.526  0.0175  0.0477 -0.1293
    1SOL    HW2 9674   3.470   3.282   4.437 -2.3583  0.5071 -1.0900
    1SOL    HW3 9675   3.458   3.383   4.549  1.8703 -0.4665  0.3472
    1SOL    MW4 9676   3.444   3.303   4.518 -0.0517  0.0405 -0.1931
    1SOL     OW 9677   0.184   3.618   4.522 -0.2572 -0.8039  0.3111
    1SOL    HW2 9678   0.226   3.698   4.552 -0.7629 -0.1556 -0.6838
    1SOL    HW3 9679   0.216   3.605   4.433 -0.2954 -1.6352  0.4083
    1SOL    MW4 9680   0.194   3.627   4.514 -0.3290 -0.8280  0.1926
    1SOL     OW 9681   1.346   3.984   4.166  0.4462  0.1009 -0.2527
    1SOL    HW2 9682   1.429   3.945   4.137  0.5003 -0.5934  0.8355
    1SOL    HW3 9683   1.329   3.945   4.252 -0.5742  0.8893 -0.0864
    1SOL    MW4 9684   1.355   3.974   4.173  0.3188  0.1132 -0.0873
    1SOL     OW 9685   0.206   2.304   4.125 -0.1445 -0.0110 -0.2332
    1SOL    HW2 9686   0.214   2.217   4.164 -0.2863  0.3777  0.6726
    1SOL    HW3 9687   0.282   2.352   4.156  0.7985 -0.3008 -2.0507
    1SOL    MW4 9688   0.217   2.299   4.134 -0.0388  0.0021 -0.3543
    1SOL     OW 9689   1.059   4.231   4.244 -0.6477  0.1668  0.1667
    1SOL    HW2 9690   1.059   4.303   4.307 -1.0188  0.6208 -0.3490
    1SOL    HW3 9691   1.147   4.232   4.205 -0.2475 -0.4399  1.0466
    1SOL    MW4 9692   1.071   4.241   4.247 -0.6438  0.1464  0.2151
    1SOL     OW 9693   4.277   4.368   4.274  0.4251  0.1531 -0.0489
    1SOL    HW2 9694   4.267   4.453   4.231 -1.2740  0.1623  0.3515
    1SOL    HW3 9695   4.212   4.312   4.232 -0.8623 -0.0011  2.1182
    1SOL    MW4 9696   4.267   4.371   4.263  0.0310  0.1349  0.2904
    1SOL     OW 9697   4.459   2.136   4.546  0.2788 -0.3693  0.4287
    1SOL    HW2 9698   4.496   2.048   4.556  0.5305 -0.1534  1.4620
    1SOL    HW3 9699   4.370   2.129   4.580 -0.5379 -0.8134 -1.7750
    1SOL    MW4 9700   4.452   2.123   4.552  0.2046 -0.3996  0.2747
    1SOL     OW 9701   0.239   2.861   4.240  0.2971 -0.0321  0.2998
    1SOL    HW2 9702   0.236   2.938   4.183  0.0692  0.2163  0.6394
    1SOL    HW3 9703   0.152   2.821   4.230 -0.2225  0.7576  1.4731
    1SOL    MW4 9704   0.227   2.866   4.231  0.1985  0.1049  0.4997
    1SOL     OW 9705   2.060   1.272   4.501  0.1565  0.4561  0.2073
    1SOL    HW2 9706   1.991   1.302   4.560  0.4361  0.1868  0.6730
    1SOL    HW3 9707   2.141   1.290   4.547  0.4027  0.7992 -0.3515
    1SOL    MW4 9708   2.062   1.278   4.515  0.2255  0.4658  0.1955
    1SOL     OW 9709   4.252   3.067   4.120 -0.0227 -0.6378 -0.0568
    1SOL    HW2 9710   4.332   3.112   4.148  0.2258 -1.1622  0.0881
    1SOL    HW3 9711   4.246   3.083   4.026  0.2413 -0.5753 -0.0620
    1SOL    MW4 9712   4.262   3.075   4.111  0.0453 -0.6988 -0.0386
    1SOL     OW 9713   3.455   2.494   4.257 -0.1712 -0.1412 -0.1717
    1SOL    HW2 9714   3.471   2.578   4.213 -2.5814 -0.1775 -1.2526
    1SOL    HW3 9715   3.360   2.483   4.252  0.0317 -2.5893  0.6187
    1SOL    MW4 9716   3.444   2.504   4.250 -0.4623 -0.4692 -0.2108
    1SOL     OW 9717   2.063   1.000   4.512  0.1214 -0.0430 -0.0831
    1SOL    HW2 9718   2.062   1.096   4.517  0.0362  0.0173 -1.1063
    1SOL    HW3 9719   2.136   0.974   4.567 -0.5270  0.5551  1.0657
    1SOL    MW4 9720   2.072   1.009   4.520  0.0243  0.0437 -0.0663
    1SOL     OW 9721   0.870   2.190   4.599  0.2931  0.2405  0.1394
    1SOL    HW2 9722   0.863   2.280   4.568  1.0597  0.6335  1.0729
    1SOL    HW3 9723   0.934   2.149   4.542  1.2449  0.7869  0.8128
    1SOL    MW4 9724   0.877   2.196   4.588  0.5198  0.3645  0.3514
    1SOL     OW 9725   0.266   4.351   4.266  0.0569  0.1159  0.0440
    1SOL    HW2 9726   0.233   4.423   4.320 -0.7859  1.1916 -1.8577
    1SOL    HW3 9727   0.190   4.294   4.252  0.7274 -1.2155  1.5764
    1SOL    MW4 9728   0.251   4.353   4.271  0.0342  0.0820 -0.0048
    1SOL     OW 9729   3.156   1.173   4.164 -0.2019 -0.2843  0.1895
    1SOL    HW2 9730   3.146   1.155   4.070 -3.1857 -1.1044  0.6286
    1SOL    HW3 9731   3.123   1.262   4.175  1.1343  0.2122  0.3295
    1SOL    MW4 9732   3.151   1.183   4.153 -0.4191 -0.3270  0.2656
    1SOL     OW 9733   0.760   0.624   4.549  0.0131  0.2438 -0.1727
    1SOL    HW2 9734   0.782   0.689   4.482  0.6187  1.6799  1.4009
    1SOL    HW3 9735   0.677   0.653   4.585  0.4587  0.3315  0.7851
    1SOL    MW4 9736   0.752   0.636   4.545  0.1518  0.4448  0.1607
    1SOL     OW 9737   0.755   0.104   4.056 -0.2906 -0.4752 -0.2663
    1SOL    HW2 9738   0.678   0.159   4.050  0.4342  0.4389 -1.4564
    1SOL    HW3 9739   0.754   0.052   3.975  1.2907  0.8657 -1.1995
    1SOL    MW4 9740   0.745   0.105   4.044  0.0136 -0.1777 -0.5469
    1SOL     OW 9741   0.547   0.263   4.054 -0.1728 -0.0569  0.3822
    1SOL    HW2 9742   0.543   0.340   4.110 -0.3570 -0.1313  0.4722
    1SOL    HW3 9743   0.523   0.294   3.967 -0.7904 -0.1224  0.5294
    1SOL    MW4 9744   0.543   0.277   4.050 -0.2786 -0.0753  0.4134
    1SOL     OW 9745   0.850   0.841   4.371 -0.3599 -0.8002  0.0844
    1SOL    HW2 9746   0.929   0.853   4.319  0.0801 -1.7163  0.5505
    1SOL    HW3 9747   0.855   0.910   4.438 -1.2809  0.8533 -1.4811
    1SOL    MW4 9748   0.861   0.852   4.373 -0.4234 -0.7029 -0.0606
    1SOL     OW 9749   4.100   0.593   4.578 -0.0743  0.4000  0.1576
    1SOL    HW2 9750   4.097   0.688   4.569 -1.2013  0.2603 -1.1050
    1SOL    HW3 9751   4.008   0.566   4.584  0.1594 -0.7364 -1.0156
    1SOL    MW4 9752   4.087   0.602   4.577 -0.1917  0.2316 -0.1636
    1SOL     OW 9753   2.706   2.021   4.296 -0.0369  0.0980 -0.0482
    1SOL    HW2 9754   2.733   2.001   4.385  1.2600 -0.2704 -0.5137
    1SOL    HW3 9755   2.610   2.028   4.301  0.0958  0.9474  1.5249
    1SOL    MW4 9756   2.697   2.019   4.308  0.1519  0.1614  0.0973
    1SOL     OW 9757   0.662   1.495   4.166  0.1748  0.4645 -0.3419
    1SOL    HW2 9758   0.669   1.399   4.166  2.6265  0.6019  0.5763
    1SOL    HW3 9759   0.667   1.519   4.073 -0.6169 -0.2927 -0.5906
    1SOL    MW4 9760   0.663   1.486   4.153  0.3937  0.3828 -0.2537
    1SOL     OW 9761   0.221   0.763   4.116  0.4095 -0.0262  0.1772
    1SOL    HW2 9762   0.208   0.679   4.160 -0.4383  0.4984  0.9398
    1SOL    HW3 9763   0.149   0.818   4.147 -0.0102  0.4726 -1.5780
    1SOL    MW4 9764   0.210   0.759   4.126  0.2422  0.1088  0.0467
    1SOL     OW 9765   0.148   2.310   4.639  0.3172 -0.4202  0.4227
    1SOL    HW2 9766   0.087   2.241   4.614 -0.4339  0.3644  0.0678
    1SOL    HW3 9767   0.234   2.276   4.615 -0.2485 -0.2749 -1.9074
    1SOL    MW4 9768   0.151   2.296   4.633  0.1435 -0.2975  0.0691
    1SOL     OW 9769   3.906   1.002   4.658  0.7418  0.2465  0.1209
    1SOL    HW2 9770   3.831   0.963   4.613  1.4223 -1.6237  0.5387
    1SOL    HW3 9771   3.912   1.091   4.623 -1.2430  0.1945 -0.4191
    1SOL    MW4 9772   3.897   1.009   4.648  0.5696 -0.0072  0.1054
    1SOL     OW 9773   0.424   1.884   4.175 -0.0066  0.0014  0.3814
    1SOL    HW2 9774   0.498   1.939   4.202 -1.0526  1.5877  0.0748
    1SOL    HW3 9775   0.427   1.886   4.079  0.8989 -1.8117  0.3388
    1SOL    MW4 9776   0.434   1.891   4.166 -0.0251 -0.0286  0.3352
    1SOL     OW 9777   2.040   3.246   4.489  0.2703  0.3245 -0.0197
    1SOL    HW2 9778   2.048   3.153   4.510 -0.4231 -0.3373 -2.5979
    1SOL    HW3 9779   1.946   3.263   4.491  0.3051  0.6388 -1.0053
    1SOL    MW4 9780   2.028   3.236   4.492  0.1833  0.2789 -0.4902
    1SOL     OW 9781   0.629   2.321   4.118 -0.1077  0.5146 -0.2388
    1SOL    HW2 9782   0.560   2.382   4.142 -1.2029 -0.2295 -1.4742
    1SOL    HW3 9783   0.623   2.313   4.023  1.8962  0.7051 -0.4057
    1SOL    MW4 9784   0.619   2.328   4.109  0.0122  0.4418 -0.4244
    1SOL     OW 9785   2.233   4.267   4.650 -0.3905 -0.2638  0.2325
    1SOL    HW2 9786   2.231   4.311   4.736 -1.1160 -0.0414  0.1084
    1SOL    HW3 9787   2.165   4.311   4.600  0.4931  0.0677 -0.6921
    1SOL    MW4 9788   2.224   4.279   4.655 -0.3698 -0.1907  0.0944
    1SOL     OW 9789   0.687   2.841   4.273  0.2861 -0.0839  0.2238
    1SOL    HW2 9790   0.762   2.809   4.222  0.2340  2.0104 -1.2435
    1SOL    HW3 9791   0.611   2.801   4.230  0.3029  1.0283 -0.8885
    1SOL    MW4 9792   0.687   2.832   4.260  0.2815  0.3393 -0.1163
    1SOL     OW 9793   1.561   2.801   4.246 -0.3396  0.0076  0.1496
    1SOL    HW2 9794   1.582   2.826   4.336 -0.4676 -0.5861  0.3483
    1SOL    HW3 9795   1.599   2.714   4.236 -0.7077 -0.1123 -0.2328
    1SOL    MW4 9796   1.569   2.793   4.256 -0.4051 -0.0865  0.1254
    1SOL     OW 9797   0.700   3.089   4.160  0.1701  0.0380  0.5061
    1SOL    HW2 9798   0.693   2.997   4.186 -0.5354 -0.1682 -0.4152
    1SOL    HW3 9799   0.613   3.125   4.177 -0.3171 -0.1168 -1.6254
    1SOL    MW4 9800   0.688   3.081   4.166  0.0127 -0.0093  0.1035
    1SOL     OW 9801   4.482   3.163   4.229  0.2216  0.2654 -0.0556
    1SOL    HW2 9802   4.496   3.257   4.222  0.3857  0.1659 -1.1037
    1SOL    HW3 9803   4.462   3.149   4.322 -1.4040  1.5367 -0.1860
    1SOL    MW4 9804   4.482   3.173   4.240  0.0291  0.4199 -0.2112
    1SOL     OW 9805   0.701   1.241   4.472  0.0285  0.6218  0.0156
    1SOL    HW2 9806   0.625   1.200   4.513 -0.3071  0.4389 -0.7696
    1SOL    HW3 9807   0.706   1.329   4.510  0.0132  0.2897  0.7926
    1SOL    MW4 9808   0.692   1.247   4.482 -0.0178  0.5537  0.0148
    1SOL     OW 9809   3.665   3.745   4.539  0.1833  0.2162  0.3479
    1SOL    HW2 9810   3.666   3.825   4.486  1.7976 -0.0868 -0.1249
    1SOL    HW3 9811   3.758   3.721   4.546 -0.2394 -1.2050  1.1006
    1SOL    MW4 9812   3.678   3.752   4.533  0.3405 -0.0114  0.3848
    1SOL     OW 9813   0.673   3.576   4.272 -0.1312 -0.1785  0.4080
    1SOL    HW2 9814   0.749   3.556   4.218 -1.1125  0.7611 -1.3774
    1SOL    HW3 9815   0.681   3.669   4.291 -1.0568  0.0275 -0.1781
    1SOL    MW4 9816   0.684   3.586   4.267 -0.3828 -0.0274  0.0954
    1SOL     OW 9817   2.391   0.174   4.534  0.5610 -0.2088  0.2118
    1SOL    HW2 9818   2.481   0.142   4.533  0.0143 -1.8032  0.2482
    1SOL    HW3 9819   2.339   0.100   4.501 -0.7045  0.7623 -0.0008
    1SOL    MW4 9820   2.396   0.160   4.530  0.3216 -0.2911  0.1884
    1SOL     OW 9821   0.111   0.604   4.486  0.1359 -0.6939  0.3017
    1SOL    HW2 9822   0.149   0.580   4.401 -3.2022 -0.8396 -1.2370
    1SOL    HW3 9823   0.116   0.699   4.489 -1.1631 -0.5816 -0.7880
    1SOL    MW4 9824   0.117   0.613   4.475 -0.4759 -0.6983 -0.0453
    1SOL     OW 9825   0.326   4.659   4.658  0.3226 -0.0071 -0.3070
    1SOL    HW2 9826   0.383   4.692   4.589 -1.0232  1.0515 -0.9310
    1SOL    HW3 9827   0.260   4.606   4.613  0.7162 -1.1148  0.3907
    1SOL    MW4 9828   0.325   4.657   4.643  0.1970 -0.0138 -0.2971
    1SOL     OW 9829   1.142   0.191   4.389 -0.2151 -0.2756 -0.0069
    1SOL    HW2 9830   1.057   0.179   4.433 -0.1710 -1.5579 -0.2570
    1SOL    HW3 9831   1.130   0.151   4.304  0.2642  0.6659 -0.5254
    1SOL    MW4 9832   1.129   0.184   4.384 -0.1462 -0.3205 -0.1082
    1SOL     OW 9833   1.202   0.041   4.137  0.4115 -0.5807 -0.2780
    1SOL    HW2 9834   1.210  -0.035   4.194  0.7696 -0.1146  0.3083
    1SOL    HW3 9835   1.163   0.008   4.056 -0.6023 -1.1502  0.4401
    1SOL    MW4 9836   1.198   0.027   4.134  0.3250 -0.5943 -0.1054
    1SOL     OW 9837   1.113   4.028   4.435  0.2070 -0.1195  0.0377
    1SOL    HW2 9838   1.035   3.981   4.462  0.3114  0.1081  0.7371
    1SOL    HW3 9839   1.082   4.092   4.371 -0.2253  0.1689  0.5289
    1SOL    MW4 9840   1.099   4.030   4.430  0.1638 -0.0515  0.1950
    1SOL     OW 9841   0.427   1.626   4.269 -0.3765  0.4391  0.5671
    1SOL    HW2 9842   0.507   1.583   4.238 -1.2671 -0.2068 -0.8904
    1SOL    HW3 9843   0.433   1.715   4.235  0.3450  0.7899  1.5874
    1SOL    MW4 9844   0.438   1.632   4.261 -0.3988  0.4002  0.5093
    1SOL     OW 9845   1.071   0.888   4.216 -0.0639  0.1278  0.1967
    1SOL    HW2 9846   1.155   0.908   4.258 -0.2044  0.5463  0.2831
    1SOL    HW3 9847   1.046   0.969   4.173 -0.0086 -0.2482 -0.5573
    1SOL    MW4 9848   1.079   0.901   4.216 -0.0752  0.1334  0.1087
    1SOL     OW 9849   1.956   0.435   4.607 -0.4374 -0.0165 -0.1039
    1SOL    HW2 9850   1.926   0.526   4.615 -0.7284 -0.1430  0.2487
    1SOL    HW3 9851   2.041   0.435   4.652 -0.9982 -0.1919  0.9740
    1SOL    MW4 9852   1.964   0.447   4.614 -0.5499 -0.0563  0.0844
    1SOL     OW 9853   1.007   1.155   4.144 -0.3507 -0.0469 -0.3988
    1SOL    HW2 9854   0.922   1.183   4.179  0.1180  0.0311  0.7114
    1SOL    HW3 9855   1.071   1.208   4.192  0.3183 -0.0217 -1.3097
    1SOL    MW4 9856   1.004   1.166   4.155 -0.2006 -0.0333 -0.3724
    1SOL     OW 9857   0.052   1.438   4.683  0.4288  0.0067  0.1948
    1SOL    HW2 9858   0.135   1.407   4.646  0.9514  0.8205  0.6548
    1SOL    HW3 9859   0.071   1.449   4.777 -0.0739  0.6187  0.2249
    1SOL    MW4 9860   0.066   1.435   4.691  0.4315  0.1947  0.2594
    1SOL     OW 9861   3.954   3.667   4.545  0.1731  0.5530  0.2926
    1SOL    HW2 9862   3.911   3.647   4.462  0.6547 -0.0837  0.1955
    1SOL    HW3 9863   4.044   3.637   4.534  0.6089  1.7206  0.5603
    1SOL    MW4 9864   3.960   3.660   4.533  0.2940  0.6230  0.3152
    1SOL     OW 9865   1.049   3.445   4.481  0.1241  0.1082 -0.4989
    1SOL    HW2 9866   1.102   3.500   4.424 -0.1573  0.4097 -0.4717
    1SOL    HW3 9867   1.097   3.362   4.487  0.4056  0.2542 -0.7643
    1SOL    MW4 9868   1.062   3.441   4.474  0.1240  0.1674 -0.5302
    1SOL     OW 9869   0.403   1.877   4.543  0.1462  0.6327 -0.4241
    1SOL    HW2 9870   0.486   1.925   4.546  0.1117  0.9257 -2.7450
    1SOL    HW3 9871   0.424   1.789   4.573  0.9726  1.1272  0.4626
    1SOL    MW4 9872   0.416   1.872   4.547  0.2507  0.7366 -0.6132
    1SOL     OW 9873   0.905   1.922   4.090 -0.5522 -0.4283  0.7852
    1SOL    HW2 9874   0.986   1.968   4.112  0.5546 -1.8264 -0.3110
    1SOL    HW3 9875   0.892   1.939   3.997 -0.6122 -1.5815  0.5748
    1SOL    MW4 9876   0.914   1.930   4.081 -0.4141 -0.7650  0.6127
    1SOL     OW 9877   2.566   2.264   4.538 -0.0306  0.1395 -0.0879
    1SOL    HW2 9878   2.649   2.279   4.493 -0.5346 -1.3302 -1.5766
    1SOL    HW3 9879   2.505   2.325   4.496  0.0716  0.5390  0.3418
    1SOL    MW4 9880   2.569   2.274   4.526 -0.0837 -0.0017 -0.2275
    1SOL     OW 9881   0.150   4.504   4.471  0.1120  0.1885 -0.0639
    1SOL    HW2 9882   0.099   4.430   4.503  1.2043 -0.4263  0.2703
    1SOL    HW3 9883   0.087   4.559   4.424 -0.7674 -0.7644  0.0054
    1SOL    MW4 9884   0.135   4.502   4.469  0.1401 -0.0181 -0.0110
    1SOL     OW 9885   0.876   2.717   4.107 -0.3452  0.1043  0.7029
    1SOL    HW2 9886   0.877   2.628   4.144 -0.8276  0.2390  1.0486
    1SOL    HW3 9887   0.947   2.762   4.153 -0.0399 -0.1289  0.4608
    1SOL    MW4 9888   0.886   2.711   4.118 -0.3685  0.0913  0.7162
    1SOL     OW 9889   0.344   3.846   4.577 -0.2487 -0.0923 -0.1455
    1SOL    HW2 9890   0.411   3.843   4.646  0.5152  2.5868 -0.7285
    1SOL    HW3 9891   0.302   3.931   4.587 -2.4088 -1.0241 -0.9189
    1SOL    MW4 9892   0.347   3.857   4.588 -0.4328  0.1383 -0.3242
    1SOL     OW 9893   1.099   3.094   4.171  0.1462  0.4824 -0.0360
    1SOL    HW2 9894   1.087   3.096   4.076 -1.9527  1.4915  0.2191
    1SOL    HW3 9895   1.051   3.170   4.203  0.8536  0.1704  1.8381
    1SOL    MW4 9896   1.091   3.104   4.162 -0.0374  0.5744  0.2446
    1SOL     OW 9897   3.602   0.086   4.233 -0.2022  0.0353 -0.0876
    1SOL    HW2 9898   3.671   0.047   4.179  0.1765 -0.5210  0.7794
    1SOL    HW3 9899   3.615   0.180   4.225  0.1614 -0.0559 -0.5696
    1SOL    MW4 9900   3.613   0.093   4.225 -0.1044 -0.0501 -0.0367
    1SOL     OW 9901   0.217   3.618   4.243  0.0203 -0.0210  0.2223
    1SOL    HW2 9902   0.218   3.702   4.197  0.6559  0.2368  0.7133
    1SOL    HW3 9903   0.294   3.572   4.210 -0.1393 -0.2785  0.2076
    1SOL    MW4 9904   0.227   3.623   4.232  0.0831 -0.0207  0.2851
    1SOL     OW 9905   3.997   2.694   4.187 -0.2263  0.3625  0.5868
    1SOL    HW2 9906   4.001   2.603   4.218  0.9624  0.6550  1.3349
    1SOL    HW3 9907   3.915   2.728   4.222 -1.5349 -0.9371 -1.1457
    1SOL    MW4 9908   3.987   2.686   4.196 -0.2422  0.2294  0.4568
    1SOL     OW 9909   2.063   2.822   4.216 -0.2343 -0.3107  0.0922
    1SOL    HW2 9910   1.990   2.768   4.184 -0.0124  0.0032 -0.9566
    1SOL    HW3 9911   2.140   2.765   4.209 -0.3732 -0.6433  1.2030
    1SOL    MW4 9912   2.064   2.807   4.211 -0.2234 -0.3130  0.1011
    1SOL     OW 9913   0.469   3.214   4.247 -0.0345 -0.4806  0.1038
    1SOL    HW2 9914   0.456   3.304   4.218  1.7154 -0.1677  0.2624
    1SOL    HW3 9915   0.448   3.215   4.341  1.6536  0.1577  0.4939
    1SOL    MW4 9916   0.465   3.226   4.256  0.4191 -0.3552  0.1760
    1SOL     OW 9917   0.844   4.185   4.072 -0.3482 -0.2111 -0.1747
    1SOL    HW2 9918   0.764   4.215   4.114  0.1435  0.9332 -0.0370
    1SOL    HW3 9919   0.913   4.204   4.136  0.2490  0.4081 -0.9897
    1SOL    MW4 9920   0.843   4.192   4.086 -0.2045  0.0215 -0.2646
    1SOL     OW 9921   0.962   4.325   4.639  0.0650  0.3110  0.0958
    1SOL    HW2 9922   0.986   4.372   4.559  1.5389  0.3965  0.5595
    1SOL    HW3 9923   0.948   4.394   4.704  1.4917  0.1619  0.5830
    1SOL    MW4 9924   0.964   4.341   4.637  0.4477  0.3033  0.2208
    1SOL     OW 9925   2.696   4.028   4.224  0.1954  0.0731 -0.5466
    1SOL    HW2 9926   2.672   4.059   4.311  0.8009  2.4837 -1.2088
    1SOL    HW3 9927   2.617   3.984   4.192 -0.6815  0.8908  0.4500
    1SOL    MW4 9928   2.683   4.026   4.231  0.1595  0.4992 -0.5026
    1SOL     OW 9929   1.464   0.028   4.077  0.2282 -0.6142 -0.0931
    1SOL    HW2 9930   1.504   0.017   4.163 -0.4117 -1.2594  0.1285
    1SOL    HW3 9931   1.370   0.026   4.093  0.0956 -1.0904 -0.8394
    1SOL    MW4 9932   1.457   0.026   4.090  0.1262 -0.7622 -0.1626
    1SOL     OW 9933   1.391   0.312   4.091  0.3225 -0.0044  0.4412
    1SOL    HW2 9934   1.340   0.319   4.172 -0.5610  1.1016 -0.1958
    1SOL    HW3 9935   1.431   0.225   4.096  1.0864  0.4212  2.5303
    1SOL    MW4 9936   1.389   0.302   4.103  0.3068  0.1976  0.6328
    1SOL     OW 9937   1.771   3.265   4.502 -0.0921 -0.0090  0.0679
    1SOL    HW2 9938   1.770   3.249   4.407  1.7138 -0.5300  0.1176
    1SOL    HW3 9939   1.773   3.178   4.541 -2.6459  0.1523  0.6715
    1SOL    MW4 9940   1.771   3.252   4.494 -0.1909 -0.0565  0.1540
    1SOL     OW 9941   2.354   1.777   4.579  0.0780 -0.0164 -0.0789
    1SOL    HW2 9942   2.259   1.771   4.589  0.3201 -1.1829  1.9308
    1SOL    HW3 9943   2.374   1.868   4.599 -0.5035 -0.0704  0.7923
    1SOL    MW4 9944   2.344   1.788   4.583  0.0334 -0.1775  0.3009
    1SOL     OW 9945   1.585   4.499   4.557  0.3720 -0.2913  0.4377
    1SOL    HW2 9946   1.552   4.410   4.567  2.1930 -1.1940 -1.1055
    1SOL    HW3 9947   1.527   4.553   4.610 -0.6439 -2.4252  1.5540
    1SOL    MW4 9948   1.573   4.494   4.565  0.4781 -0.6919  0.3815
    1SOL     OW 9949   0.887   3.271   4.251  0.3118  0.6335  0.2108
    1SOL    HW2 9950   0.880   3.276   4.346  0.1464  0.2299  0.2211
    1SOL    HW3 9951   0.818   3.210   4.225  0.2524  0.8681 -0.1805
    1SOL    MW4 9952   0.877   3.264   4.260  0.2822  0.6113  0.1607
    1SOL     OW 9953   1.439   1.225   4.176 -0.2464  0.1753 -0.4450
    1SOL    HW2 9954   1.535   1.223   4.179 -0.3060 -0.9394  1.3801
    1SOL    HW3 9955   1.417   1.190   4.090  1.0064  1.5481 -1.3428
    1SOL    MW4 9956   1.449   1.220   4.165 -0.0889  0.2093 -0.3223
    1SOL     OW 9957   3.188   2.762   4.650 -0.2280 -0.1583  0.3978
    1SOL    HW2 9958   3.273   2.803   4.635  0.4041 -1.5175  0.1619
    1SOL    HW3 9959   3.124   2.829   4.625  0.7677  0.6426 -0.0477
    1SOL    MW4 9960   3.191   2.776   4.645 -0.0129 -0.2320  0.3080
    1SOL     OW 9961   3.306   4.401   4.500  0.3909 -0.5790  0.5478
    1SOL    HW2 9962   3.375   4.459   4.531  0.3499  0.1522 -0.7069
    1SOL    HW3 9963   3.231   4.422   4.556  0.2018  1.0121 -0.2709
    1SOL    MW4 9964   3.305   4.411   4.511  0.3603 -0.2723  0.2737
    1SOL     OW 9965   2.785   2.283   4.369 -0.5092  0.0894 -0.1436
    1SOL    HW2 9966   2.785   2.188   4.359 -1.2759  0.1057 -0.3036
    1SOL    HW3 9967   2.722   2.314   4.305  1.1650  0.8577 -1.4480
    1SOL    MW4 9968   2.777   2.274   4.360 -0.3896  0.1926 -0.3366
    1SOL     OW 9969   1.421   0.235   4.421 -0.0542 -0.0239  0.6418
    1SOL    HW2 9970   1.325   0.232   4.422 -0.0720  0.4900  0.6820
    1SOL    HW3 9971   1.442   0.326   4.400  0.4319 -0.6282 -1.6076
    1SOL    MW4 9972   1.411   0.247   4.418  0.0076 -0.0359  0.3505
    1SOL     OW 9973   2.431   0.640   4.704  0.3339 -0.5617 -0.0022
    1SOL    HW2 9974   2.365   0.706   4.681 -0.2551 -0.9990  0.3883
    1SOL    HW3 9975   2.447   0.654   4.798  0.6444 -0.5881 -0.0513
    1SOL    MW4 9976   2.424   0.651   4.714  0.2971 -0.6229  0.0424
    1SOL     OW 9977   1.819   2.666   3.825 -0.2367 -0.4506 -0.0165
    1SOL    HW2 9978   1.739   2.718   3.814 -0.2277 -0.0291  1.7309
    1SOL    HW3 9979   1.795   2.579   3.796 -1.2751 -0.2657  0.2548
    1SOL    MW4 9980   1.805   2.662   3.820 -0.3725 -0.3705  0.2496
    1SOL     OW 9981   3.273   3.938   4.641 -0.3119  0.3907 -0.0635
    1SOL    HW2 9982   3.343   3.986   4.597  0.1258 -0.6408 -0.5125
    1SOL    HW3 9983   3.193   3.986   4.620  0.2531  1.5254  0.3841
    1SOL    MW4 9984   3.271   3.950   4.633 -0.1795  0.4041 -0.0639
    1SOL     OW 9985   1.113   2.066   4.171 -0.0376 -0.1067 -0.2791
    1SOL    HW2 9986   1.203   2.034   4.164 -0.5859 -1.6768 -0.3513
    1SOL    HW3 9987   1.094   2.063   4.265 -0.9874 -2.6428 -0.4957
    1SOL    MW4 9988   1.122   2.061   4.183 -0.2354 -0.6487 -0.3171
    1SOL     OW 9989   3.622   4.016   4.254  0.0824  0.2567 -0.1008
    1SOL    HW2 9990   3.675   3.966   4.192 -0.5736  2.1238 -2.2520
    1SOL    HW3 9991   3.534   3.981   4.245  0.3805 -0.9692  1.4555
    1SOL    MW4 9992   3.618   4.005   4.245  0.0353  0.3409 -0.1793
    1SOL     OW 9993   3.190   0.920   4.572 -0.4171  0.5439  0.0478
    1SOL    HW2 9994   3.274   0.954   4.603 -0.7623 -0.0450  1.7115
    1SOL    HW3 9995   3.193   0.932   4.477  1.1592  1.3814  0.1758
    1SOL    MW4 9996   3.202   0.926   4.564 -0.2546  0.5767  0.2842
    1SOL     OW 9997   3.348   0.242   4.553 -0.3348  0.2722  0.1944
    1SOL    HW2 9998   3.272   0.184   4.554 -0.4766  0.4596  1.6737
    1SOL    HW3 9999   3.422   0.185   4.573 -0.3366  0.4087  0.6013
    1SOL    MW410000   3.347   0.227   4.556 -0.3536  0.3149  0.4430
    1SOL     OW10001   1.782   0.164   4.245 -0.1904  0.0058 -0.4795
    1SOL    HW210002   1.847   0.117   4.193  0.9158 -0.3633  1.1917
    1SOL    HW310003   1.718   0.097   4.271  0.4716 -0.2686  0.4835
    1SOL    MW410004   1.782   0.149   4.242  0.0428 -0.0791 -0.1321
    1SOL     OW10005   0.828   3.915   4.096 -0.0113 -0.1483 -0.1442
    1SOL    HW210006   0.845   4.009   4.085 -0.2857 -0.1763 -0.8418
    1SOL    HW310007   0.914   3.875   4.092  0.0823  0.0482 -0.1271
    1SOL    MW410008   0.841   3.922   4.094 -0.0352 -0.1261 -0.2341
    1SOL     OW10009   0.694   3.865   4.328 -0.3930  0.0372  0.1795
    1SOL    HW210010   0.747   3.863   4.408 -0.4287 -1.3075  0.1829
    1SOL    HW310011   0.758   3.875   4.258 -0.1780 -0.8331  0.2394
    1SOL    MW410012   0.709   3.866   4.329 -0.3693 -0.2549  0.1884
    1SOL     OW10013   1.506   0.665   4.572 -0.2526 -0.0429 -0.0650
    1SOL    HW210014   1.462   0.729   4.628 -0.5126  0.0891 -0.4212
    1SOL    HW310015   1.526   0.712   4.492 -1.6592 -0.7632 -0.8616
    1SOL    MW410016   1.503   0.680   4.569 -0.4724 -0.1205 -0.2174
    1SOL     OW10017   1.938   0.190   4.490  0.2228  0.1311 -0.6748
    1SOL    HW210018   1.920   0.277   4.527 -2.2377 -0.7131  0.2432
    1SOL    HW310019   1.874   0.180   4.420  0.5759 -0.8974 -0.8585
    1SOL    MW410020   1.927   0.200   4.486 -0.0552 -0.1160 -0.5779
    1SOL     OW10021   2.002   4.596   4.107  0.0007 -0.1921 -0.5572
    1SOL    HW210022   2.071   4.656   4.137  0.1056 -1.0595  0.9368
    1SOL    HW310023   1.998   4.611   4.012  1.4459  0.7000 -0.4948
    1SOL    MW410024   2.011   4.606   4.098  0.2053 -0.1884 -0.3519
    1SOL     OW10025   1.781   0.565   4.299 -0.0971 -0.3656 -0.3675
    1SOL    HW210026   1.867   0.524   4.310 -0.1877 -0.7929 -1.2419
    1SOL    HW310027   1.729   0.500   4.252 -0.0996  0.9271 -2.1971
    1SOL    MW410028   1.785   0.551   4.294 -0.1093 -0.2514 -0.7248
    1SOL     OW10029   1.570   0.018   4.330 -0.1598  0.5381  0.0419
    1SOL    HW210030   1.516   0.080   4.379 -0.4407 -0.9844  1.7292
    1SOL    HW310031   1.568  -0.062   4.383  3.1379  0.2147 -0.2331
    1SOL    MW410032   1.563   0.015   4.344  0.2382  0.2946  0.2284
    1SOL     OW10033   0.933   0.194   4.584 -0.1983 -0.9240 -0.0467
    1SOL    HW210034   0.929   0.285   4.556 -0.3528 -0.8374  0.2595
    1SOL    HW310035   0.849   0.157   4.557  0.9521 -1.7346 -2.7866
    1SOL    MW410036   0.922   0.201   4.576 -0.0669 -1.0195 -0.3676
    1SOL     OW10037   3.861   0.751   4.198  0.1784  0.0253 -0.1066
    1SOL    HW210038   3.781   0.797   4.224 -0.4818 -0.3312 -1.4348
    1SOL    HW310039   3.861   0.755   4.102  0.6592 -1.7974 -0.2088
    1SOL    MW410040   3.851   0.757   4.189  0.1547 -0.2623 -0.2956
    1SOL     OW10041   3.599   0.085   4.521  0.1269 -0.0855 -0.2401
    1SOL    HW210042   3.677   0.140   4.533  0.1526 -0.2285  0.2605
    1SOL    HW310043   3.591   0.076   4.426  0.5697  0.1472 -0.3036
    1SOL    MW410044   3.608   0.091   4.510  0.1886 -0.0737 -0.1826
    1SOL     OW10045   1.132   1.175   4.665  0.0580  0.5032 -0.3893
    1SOL    HW210046   1.147   1.258   4.619 -0.7237  0.7648 -0.1656
    1SOL    HW310047   1.206   1.120   4.639  0.4772  1.2059 -0.6867
    1SOL    MW410048   1.144   1.179   4.655  0.0101  0.6305 -0.3991
    1SOL     OW10049   1.234   2.190   4.612 -0.4620  0.1181  0.1261
    1SOL    HW210050   1.327   2.187   4.632 -0.1586 -0.0639 -1.2873
    1SOL    HW310051   1.217   2.281   4.587 -0.8044  0.3002  0.9861
    1SOL    MW410052   1.244   2.201   4.611 -0.4672  0.1180  0.0525
    1SOL     OW10053   1.728   1.526   4.411 -0.0059 -0.4227 -0.0373
    1SOL    HW210054   1.788   1.462   4.372 -0.5259  0.0288 -1.6017
    1SOL    HW310055   1.663   1.543   4.343 -1.5341 -0.3779  1.3799
    1SOL    MW410056   1.727   1.520   4.397 -0.2761 -0.3572 -0.0567
    1SOL     OW10057   1.597   1.597   4.150  0.2912 -0.3696 -0.0970
    1SOL    HW210058   1.517   1.645   4.171  0.4566 -0.8545  1.7078
    1SOL    HW310059   1.662   1.665   4.130  0.1741  0.1167  1.1596
    1SOL    MW410060   1.595   1.613   4.150  0.2977 -0.3694  0.3071
    1SOL     OW10061   1.135   1.539   4.139 -0.6108 -0.1195 -0.0552
    1SOL    HW210062   1.157   1.464   4.194  2.6115  1.4160  0.8299
    1SOL    HW310063   1.071   1.589   4.190 -1.1903 -1.1480  0.2422
    1SOL    MW410064   1.129   1.536   4.153 -0.2620 -0.0526  0.1011
    1SOL     OW10065   0.560   2.467   4.571 -0.6778 -0.4643 -0.0676
    1SOL    HW210066   0.473   2.494   4.600  0.2429  2.0725  0.4742
    1SOL    HW310067   0.554   2.372   4.562 -3.1304 -0.4701  1.1948
    1SOL    MW410068   0.547   2.458   4.574 -0.8799 -0.1304  0.1702
    1SOL     OW10069   3.524   2.725   4.119 -0.2532  0.6487  0.1972
    1SOL    HW210070   3.517   2.738   4.025 -1.9494 -0.4883  0.1503
    1SOL    HW310071   3.448   2.770   4.156  0.0470  0.5450  0.9654
    1SOL    MW410072   3.513   2.733   4.112 -0.4375  0.4852  0.2923
    1SOL     OW10073   3.546   1.476   4.640 -0.6061  0.0035 -0.2055
    1SOL    HW210074   3.485   1.409   4.607 -0.2741 -0.3610 -0.0888
    1SOL    HW310075   3.501   1.559   4.625 -0.4097 -0.1447 -1.6900
    1SOL    MW410076   3.532   1.478   4.633 -0.5362 -0.0641 -0.3862
    1SOL     OW10077   2.292   2.680   4.129  0.0793 -0.3385  0.0339
    1SOL    HW210078   2.287   2.674   4.034  0.2013  0.7037 -0.0445
    1SOL    HW310079   2.292   2.589   4.159  2.9718 -0.7857 -1.1314
    1SOL    MW410080   2.291   2.667   4.120  0.4768 -0.2601 -0.1302
    1SOL     OW10081   2.020   1.754   4.243  0.0844 -0.4949 -0.0724
    1SOL    HW210082   2.025   1.663   4.213  0.1232 -0.5518  0.1071
    1SOL    HW310083   2.098   1.796   4.207 -0.0866 -0.4576 -0.4062
    1SOL    MW410084   2.031   1.748   4.234  0.0670 -0.4975 -0.0925
    1SOL     OW10085   2.766   1.824   4.114  0.3805 -0.2421 -0.0380
    1SOL    HW210086   2.748   1.896   4.173  1.3931 -0.8354  1.0186
    1SOL    HW310087   2.733   1.746   4.160  0.7365 -0.6467 -0.4613
    1SOL    MW410088   2.759   1.823   4.128  0.5612 -0.3736  0.0458
    1SOL     OW10089   1.307   2.678   4.123 -0.1257 -0.0811 -0.3806
    1SOL    HW210090   1.227   2.719   4.157  0.0181  0.0220 -0.1723
    1SOL    HW310091   1.379   2.724   4.167  0.0116 -1.6018  1.0179
    1SOL    MW410092   1.306   2.690   4.133 -0.0886 -0.2682 -0.1688
    1SOL     OW10093   2.024   3.641   4.282  0.0407 -0.3083  0.0504
    1SOL    HW210094   1.944   3.610   4.240 -0.5606 -0.7868  1.5255
    1SOL    HW310095   2.034   3.730   4.249 -0.0286 -0.8928 -1.6406
    1SOL    MW410096   2.015   3.649   4.272 -0.0479 -0.4485  0.0219
    1SOL     OW10097   1.060   1.990   4.737  0.1933  0.1836 -0.0879
    1SOL    HW210098   1.130   2.047   4.704  0.6574  0.4422  1.3090
    1SOL    HW310099   0.988   2.050   4.756 -0.3184 -0.0472 -1.2382
    1SOL    MW410100   1.060   2.006   4.735  0.1872  0.1872 -0.0563
    1SOL     OW10101   2.017   3.889   4.152 -0.0730  0.0865 -0.2457
    1SOL    HW210102   2.018   3.880   4.057 -1.9454 -0.3912 -0.2354
    1SOL    HW310103   1.933   3.932   4.171  0.4252  0.4580  1.1669
    1SOL    MW410104   2.006   3.894   4.142 -0.2544  0.0722 -0.0582
    1SOL     OW10105   1.315   4.238   4.114  0.3078  0.1585  0.5465
    1SOL    HW210106   1.315   4.263   4.022 -2.1958  1.2843  0.8038
    1SOL    HW310107   1.330   4.143   4.113 -0.5112  0.0328 -1.0667
    1SOL    MW410108   1.317   4.229   4.102 -0.1305  0.2904  0.3672
    1SOL     OW10109   1.585   3.891   4.076 -0.3387  0.1170  0.3627
    1SOL    HW210110   1.600   3.806   4.117  0.6066  0.6696  1.1634
    1SOL    HW310111   1.647   3.951   4.119 -0.7831  1.1469 -0.3988
    1SOL    MW410112   1.595   3.888   4.087 -0.2726  0.3254  0.3681
    1SOL     OW10113   2.521   2.826   4.208 -0.0646  0.3771  0.4477
    1SOL    HW210114   2.498   2.919   4.203 -0.0548  0.3561 -0.0619
    1SOL    HW310115   2.443   2.781   4.177  0.4680  0.2836 -0.7923
    1SOL    MW410116   2.507   2.832   4.203  0.0069  0.3617  0.2170
    1SOL     OW10117   2.212   0.064   4.224  0.3323 -0.1314 -0.1342
    1SOL    HW210118   2.220   0.159   4.232 -0.6018 -0.0864  0.2783
    1SOL    HW310119   2.205   0.032   4.314  0.3921 -0.5731 -0.2813
    1SOL    MW410120   2.212   0.072   4.237  0.2170 -0.1837 -0.0992
    1SOL     OW10121   4.035   1.902   4.648 -0.0647  0.2415  0.0345
    1SOL    HW210122   4.053   1.820   4.604  1.0092  0.6750 -0.3515
    1SOL    HW310123   3.943   1.920   4.628 -0.3829 -0.9961  0.3570
    1SOL    MW410124   4.025   1.894   4.639  0.0353  0.1354  0.0257
    1SOL     OW10125   1.426   0.499   4.351  0.4526 -0.4181  0.0086
    1SOL    HW210126   1.464   0.551   4.280  0.4766 -0.7723 -0.2359
    1SOL    HW310127   1.447   0.548   4.430 -0.3550  0.4548 -0.3060
    1SOL    MW410128   1.433   0.512   4.352  0.3493 -0.3497 -0.0648
    1SOL     OW10129   2.506   0.872   4.131  0.1878  0.2680  0.2552
    1SOL    HW210130   2.500   0.840   4.041 -0.1431 -0.3293  0.4857
    1SOL    HW310131   2.600   0.876   4.149  0.2759  1.0694 -0.3519
    1SOL    MW410132   2.517   0.868   4.122  0.1557  0.2949  0.2060
    1SOL     OW10133   3.446   2.837   4.537  0.1047  0.4109  0.1907
    1SOL    HW210134   3.500   2.908   4.573  0.1366 -0.3765  1.7299
    1SOL    HW310135   3.506   2.763   4.532 -0.6884 -0.3249  1.4072
    1SOL    MW410136   3.461   2.837   4.541  0.0043  0.2098  0.5546
    1SOL     OW10137   1.902   0.769   4.146 -0.1876  0.3683  0.0878
    1SOL    HW210138   1.973   0.790   4.208  2.1695 -0.9298 -2.0680
    1SOL    HW310139   1.861   0.691   4.183  0.3586  0.3532  0.6894
    1SOL    MW410140   1.906   0.761   4.159  0.1953  0.1950 -0.1168
    1SOL     OW10141   0.422   2.455   4.244 -0.4484  0.2070  0.1204
    1SOL    HW210142   0.416   2.466   4.339  3.7863  1.8203  0.3082
    1SOL    HW310143   0.440   2.543   4.211  0.8688 -0.7698 -1.8679
    1SOL    MW410144   0.423   2.468   4.253  0.2841  0.2909 -0.1173
    1SOL     OW10145   0.238   1.281   4.328  0.7544  0.6756 -0.3704
    1SOL    HW210146   0.238   1.361   4.276  0.2136  0.4855 -0.6616
    1SOL    HW310147   0.296   1.221   4.279  0.7129  0.6951 -0.4432
    1SOL    MW410148   0.246   1.284   4.315  0.6776  0.6530 -0.4177
    1SOL     OW10149   2.733   1.183   4.116 -0.2416  0.4384 -0.2627
    1SOL    HW210150   2.758   1.110   4.173 -0.6137  1.8404  1.7493
    1SOL    HW310151   2.735   1.146   4.028  1.0494 -1.6017  0.5755
    1SOL    MW410152   2.737   1.168   4.112 -0.1202  0.3542  0.1130
    1SOL     OW10153   3.111   2.722   4.189  0.0538 -0.2271 -0.1156
    1SOL    HW210154   3.022   2.731   4.222  0.2651  0.0329  0.4055
    1SOL    HW310155   3.139   2.636   4.219 -0.4167 -0.7705 -1.2521
    1SOL    MW410156   3.103   2.712   4.198  0.0193 -0.2644 -0.1965
    1SOL     OW10157   0.446   4.451   4.084  0.7944  0.5536 -0.0942
    1SOL    HW210158   0.458   4.388   4.014  1.5778  0.7454 -0.1370
    1SOL    HW310159   0.373   4.417   4.135 -0.2153  0.7536 -1.3778
    1SOL    MW410160   0.438   4.438   4.082  0.7646  0.6051 -0.2689
    1SOL     OW10161   1.063   2.070   4.431 -0.1844  0.4105  0.4079
    1SOL    HW210162   1.078   1.975   4.438 -1.2657  0.3266  2.0187
    1SOL    HW310163   1.132   2.109   4.485  1.8939  0.7087 -2.3908
    1SOL    MW410164   1.074   2.062   4.439 -0.0529  0.4389  0.2508
    1SOL     OW10165   2.740   1.641   4.526  0.0751 -0.4044 -0.6108
    1SOL    HW210166   2.755   1.735   4.525 -1.1646 -0.1447  1.2218
    1SOL    HW310167   2.819   1.605   4.566  0.4367 -0.1038 -1.0600
    1SOL    MW410168   2.752   1.649   4.531 -0.0410 -0.3304 -0.4282
    1SOL     OW10169   3.052   1.409   4.276  0.0625 -0.0571  0.0198
    1SOL    HW210170   3.081   1.500   4.264  0.1653 -0.3604 -2.2399
    1SOL    HW310171   2.970   1.404   4.228  0.5727 -1.4118 -0.7453
    1SOL    MW410172   3.045   1.421   4.268  0.1433 -0.2757 -0.3791
    1SOL     OW10173   2.620   2.399   4.761  0.0071  0.6241 -0.2463
    1SOL    HW210174   2.655   2.482   4.728 -0.4726  0.7781 -0.3683
    1SOL    HW310175   2.607   2.346   4.682 -0.5012  0.7472 -0.2445
    1SOL    MW410176   2.623   2.403   4.746 -0.1235  0.6607 -0.2618
    1SOL     OW10177   4.466   2.461   4.182 -0.1647 -0.0263  0.0846
    1SOL    HW210178   4.463   2.458   4.278  1.8107 -1.0840  0.1483
    1SOL    HW310179   4.539   2.404   4.159 -0.9295 -0.1750 -2.0916
    1SOL    MW410180   4.475   2.453   4.192 -0.0048 -0.1857 -0.1936
    1SOL     OW10181   4.101   3.277   4.279 -0.0698 -0.3001 -0.3899
    1SOL    HW210182   4.145   3.213   4.223  0.8534  0.4391 -0.5410
    1SOL    HW310183   4.092   3.355   4.223  0.9184  0.4639  0.4921
    1SOL    MW410184   4.106   3.279   4.264  0.1822 -0.1018 -0.2933
    1SOL     OW10185   1.887   2.631   4.093 -0.0641  0.0254 -0.1715
    1SOL    HW210186   1.928   2.545   4.093 -0.7352 -0.3116  0.8988
    1SOL    HW310187   1.854   2.642   4.004  1.7755  0.0400 -0.8629
    1SOL    MW410188   1.888   2.621   4.081  0.0902 -0.0172 -0.1216
    1SOL     OW10189   0.519   2.781   4.558  0.0687 -0.2539  0.3411
    1SOL    HW210190   0.587   2.788   4.491 -1.1145 -1.0763 -0.9710
    1SOL    HW310191   0.543   2.703   4.608  0.5746 -0.0359  0.4358
    1SOL    MW410192   0.531   2.771   4.556 -0.0207 -0.3340  0.1802
    1SOL     OW10193   4.434   3.719   4.635 -0.6435 -0.4927 -1.0146
    1SOL    HW210194   4.445   3.718   4.730 -0.2552  1.3978 -1.0175
    1SOL    HW310195   4.516   3.684   4.601  0.3608  1.4328 -0.6929
    1SOL    MW410196   4.446   3.714   4.643 -0.4601  0.0110 -0.9723
    1SOL     OW10197   2.586   3.061   4.592 -0.6706 -0.0666  0.1264
    1SOL    HW210198   2.499   3.031   4.617 -0.8493  1.1571  1.0209
    1SOL    HW310199   2.645   3.015   4.652 -0.7607 -0.3178  0.0238
    1SOL    MW410200   2.582   3.051   4.603 -0.7060  0.0618  0.2313
    1SOL     OW10201   2.260   4.000   4.267  0.1676 -0.1825  0.2415
    1SOL    HW210202   2.324   3.940   4.228  0.0481  0.3927 -0.8374
    1SOL    HW310203   2.175   3.964   4.243  0.0949  0.3422 -0.2871
    1SOL    MW410204   2.257   3.987   4.259  0.1423 -0.0372  0.0296
    1SOL     OW10205   2.467   4.349   4.288  0.1674 -0.0117  0.7602
    1SOL    HW210206   2.490   4.366   4.380  2.9523  1.8498 -0.2351
    1SOL    HW310207   2.456   4.435   4.249 -2.0990 -0.8038 -0.4465
    1SOL    MW410208   2.469   4.363   4.295  0.2358  0.1292  0.4697
    1SOL     OW10209   2.665   0.646   4.562 -0.3838  0.0603 -0.4753
    1SOL    HW210210   2.587   0.619   4.610  0.0373 -0.0727  0.1365
    1SOL    HW310211   2.637   0.649   4.470 -0.1990 -3.4868 -0.7310
    1SOL    MW410212   2.651   0.643   4.556 -0.3037 -0.4252 -0.4287
    1SOL     OW10213   2.664   0.126   4.199  0.2474 -0.4004 -0.5271
    1SOL    HW210214   2.673   0.220   4.182  0.5893 -0.2011  0.6508
    1SOL    HW310215   2.748   0.089   4.173  0.2492 -0.3196 -0.6360
    1SOL    MW410216   2.677   0.134   4.194  0.2925 -0.3635 -0.3858
    1SOL     OW10217   2.480   3.865   4.511 -0.2057 -0.2224 -0.0440
    1SOL    HW210218   2.482   3.772   4.491  0.4711  0.1919 -2.0273
    1SOL    HW310219   2.389   3.883   4.535 -0.7539 -1.0347 -1.4736
    1SOL    MW410220   2.469   3.855   4.511 -0.1888 -0.2749 -0.4940
    1SOL     OW10221   2.680   0.413   4.092 -0.4353  0.0569  0.0122
    1SOL    HW210222   2.585   0.410   4.102 -0.3110 -1.3222  0.9077
    1SOL    HW310223   2.695   0.393   3.999 -0.9636 -1.3003  0.2069
    1SOL    MW410224   2.670   0.410   4.081 -0.4888 -0.3041  0.1564
    1SOL     OW10225   0.660   4.393   4.250 -0.0880  0.4533 -0.1065
    1SOL    HW210226   0.589   4.409   4.187 -0.6356  0.4569  0.5166
    1SOL    HW310227   0.622   4.334   4.315  0.7049 -0.1486 -0.1746
    1SOL    MW410228   0.646   4.387   4.250 -0.0556  0.3738 -0.0329
    1SOL     OW10229   2.973   0.802   4.190 -0.3983  0.1048 -0.5053
    1SOL    HW210230   2.950   0.715   4.224  1.0569  0.0199  0.3101
    1SOL    HW310231   2.971   0.792   4.095  0.0853 -0.9208 -0.4150
    1SOL    MW410232   2.970   0.789   4.182 -0.1426 -0.0417 -0.3858
    1SOL     OW10233   2.483   2.694   4.459  0.4137  0.4657 -0.0822
    1SOL    HW210234   2.515   2.729   4.376  2.0249 -0.3750  0.1700
    1SOL    HW310235   2.447   2.608   4.435  0.6734  0.3209  0.0438
    1SOL    MW410236   2.482   2.687   4.445  0.6607  0.3359 -0.0324
    1SOL     OW10237   3.044   4.079   4.580  0.0824  0.0880  0.6640
    1SOL    HW210238   2.970   4.019   4.592 -0.1865  0.7711  2.5027
    1SOL    HW310239   3.005   4.161   4.551  0.3454 -0.2183 -0.6164
    1SOL    MW410240   3.029   4.082   4.577  0.0815  0.1378  0.7377
    1SOL     OW10241   2.497   3.575   4.488 -0.4128  0.0084  0.2226
    1SOL    HW210242   2.559   3.502   4.499 -0.3560 -0.5328 -3.2015
    1SOL    HW310243   2.411   3.534   4.490 -0.6566  0.5201  3.0041
    1SOL    MW410244   2.494   3.560   4.490 -0.4375  0.0045  0.1383
    1SOL     OW10245   3.079   1.327   4.564 -0.2914  0.1878  0.1424
    1SOL    HW210246   3.035   1.244   4.586  0.6755 -0.2149  0.5589
    1SOL    HW310247   3.075   1.331   4.468 -0.9559 -0.0049  0.1580
    1SOL    MW410248   3.072   1.316   4.554 -0.2518  0.1093  0.1993
    1SOL     OW10249   0.016   4.266   4.557  0.0032 -0.3247  0.3526
    1SOL    HW210250  -0.065   4.316   4.565 -0.3563 -0.7582 -0.4474
    1SOL    HW310251  -0.013   4.174   4.554  0.4681 -0.4563 -0.4178
    1SOL    MW410252   0.001   4.260   4.557  0.0172 -0.3991  0.1454
    1SOL     OW10253   3.784   3.057   4.385  0.5199 -0.3168 -0.2449
    1SOL    HW210254   3.778   2.967   4.353  0.5684 -0.4866  0.2166
    1SOL    HW310255   3.805   3.109   4.307 -0.3919 -0.5866 -0.6823
    1SOL    MW410256   3.786   3.052   4.370  0.4058 -0.3746 -0.2422
    1SOL     OW10257   2.905   2.047   3.735  0.3398 -0.0735  0.4470
    1SOL    HW210258   2.834   1.995   3.771 -0.6269  1.5389  0.9307
    1SOL    HW310259   2.902   2.129   3.785  1.5429  0.6057 -0.5784
    1SOL    MW410260   2.895   2.051   3.746  0.3712  0.2289  0.3757
    1SOL     OW10261   0.560   4.512   4.720  0.3667 -0.4351 -0.3485
    1SOL    HW210262   0.609   4.549   4.646 -0.0258  0.7806 -0.0162
    1SOL    HW310263   0.474   4.554   4.714 -0.5200 -2.2917 -0.7180
    1SOL    MW410264   0.555   4.523   4.709  0.1979 -0.5198 -0.3538
    1SOL     OW10265   2.507   4.345   4.558 -0.2891 -0.4500  0.7328
    1SOL    HW210266   2.539   4.260   4.528  0.0267  0.2031 -0.7890
    1SOL    HW310267   2.413   4.332   4.569 -0.3582 -0.7969 -0.2123
    1SOL    MW410268   2.499   4.332   4.556 -0.2565 -0.4096  0.4077
    1SOL     OW10269   4.423   3.107   4.505  0.6374  0.1411  0.3164
    1SOL    HW210270   4.491   3.163   4.542  1.0827  0.4296 -0.9203
    1SOL    HW310271   4.343   3.159   4.513  0.8345  0.4480  0.3159
    1SOL    MW410272   4.421   3.121   4.511  0.7219  0.2198  0.1531
    1SOL     OW10273   2.473   1.508   4.606  0.1396  0.2568 -0.5174
    1SOL    HW210274   2.563   1.527   4.577  0.0668 -1.0062 -1.5920
    1SOL    HW310275   2.440   1.593   4.635  1.6155  0.7816 -0.2951
    1SOL    MW410276   2.481   1.522   4.606  0.3247  0.1594 -0.6294
    1SOL     OW10277   0.606   3.404   4.498 -0.0411  0.0203 -0.0710
    1SOL    HW210278   0.624   3.477   4.558  0.0298 -0.6376  0.7021
    1SOL    HW310279   0.625   3.441   4.411  0.2408  0.8529  0.3326
    1SOL    MW410280   0.611   3.419   4.494  0.0054  0.0434  0.0844
    1SOL     OW10281   2.752   2.925   4.753  0.5232  0.2460 -0.4007
    1SOL    HW210282   2.740   2.831   4.740 -0.2477  0.4945 -1.5686
    1SOL    HW310283   2.745   2.937   4.848  1.2387 -0.9480 -0.1836
    1SOL    MW410284   2.749   2.914   4.764  0.5159  0.1216 -0.5260
    1SOL     OW10285   2.905   3.625   4.228 -0.0511  0.2171 -0.5750
    1SOL    HW210286   2.909   3.636   4.322 -3.2382 -1.8122 -0.1175
    1SOL    HW310287   2.914   3.713   4.192  1.5248  0.9609  1.5843
    1SOL    MW410288   2.907   3.638   4.235 -0.2637  0.0474 -0.2303
    1SOL     OW10289   2.655   3.239   4.247  0.4577 -0.5537 -0.0945
    1SOL    HW210290   2.670   3.327   4.212 -0.7401 -0.2825  0.0681
    1SOL    HW310291   2.723   3.185   4.206  1.6424  0.5841  0.3564
    1SOL    MW410292   2.666   3.243   4.237  0.4561 -0.3676 -0.0134
    1SOL     OW10293   2.916   3.880   4.149  0.4166 -0.3982 -0.0239
    1SOL    HW210294   2.837   3.924   4.181  0.7274 -0.3109  0.6314
    1SOL    HW310295   2.988   3.921   4.198  0.9517  0.1204 -1.2314
    1SOL    MW410296   2.915   3.892   4.160  0.5283 -0.3183 -0.0963
    1SOL     OW10297   2.688   4.285   4.134  0.4489  0.1555 -0.8080
    1SOL    HW210298   2.603   4.317   4.164 -0.5077 -0.8409 -2.3714
    1SOL    HW310299   2.693   4.195   4.166  1.0147  0.2978 -0.5019
    1SOL    MW410300   2.677   4.278   4.142  0.3974  0.0429 -0.9737
    1SOL     OW10301   2.464   3.893   4.124 -0.4240  0.3302  0.0691
    1SOL    HW210302   2.467   3.904   4.029 -1.1981  0.6761  0.0758
    1SOL    HW310303   2.471   3.799   4.137  0.3045  0.3305 -0.3009
    1SOL    MW410304   2.465   3.882   4.113 -0.4303  0.3762  0.0215
    1SOL     OW10305   2.936   4.384   4.202  0.0748  0.2135 -0.2735
    1SOL    HW210306   2.857   4.339   4.174 -0.2624 -0.4813  1.6712
    1SOL    HW310307   3.008   4.329   4.170 -0.2954 -0.6337  0.3374
    1SOL    MW410308   2.935   4.371   4.194 -0.0188  0.0100  0.0634
    1SOL     OW10309   3.370   4.656   4.142  0.3529  0.1331  0.1994
    1SOL    HW210310   3.450   4.697   4.177  1.1698 -1.0716 -0.2255
    1SOL    HW310311   3.299   4.699   4.190  1.3173  0.2508  1.5841
    1SOL    MW410312   3.371   4.667   4.153  0.5879 -0.0105  0.3257
    1SOL     OW10313   1.335   1.682   4.249 -0.0777 -0.0424  0.0923
    1SOL    HW210314   1.282   1.623   4.196  1.0605 -1.0460  0.0231
    1SOL    HW310315   1.289   1.687   4.333 -1.8339  1.4760 -0.9273
    1SOL    MW410316   1.322   1.675   4.253 -0.1594  0.0255 -0.0515
    1SOL     OW10317   2.896   0.529   4.261  0.4187 -0.0927  0.2868
    1SOL    HW210318   2.825   0.486   4.214  0.7707 -0.8555  0.4472
    1SOL    HW310319   2.889   0.497   4.351  1.0578 -0.3033  0.2703
    1SOL    MW410320   2.886   0.519   4.267  0.5491 -0.2211  0.3057
    1SOL     OW10321   3.382   0.528   4.258 -0.1263  0.5946  0.2920
    1SOL    HW210322   3.383   0.529   4.353  0.3137  0.8901  0.2894
    1SOL    HW310323   3.448   0.463   4.234 -0.1216  0.6373  0.1896
    1SOL    MW410324   3.391   0.520   4.267 -0.0677  0.6393  0.2775
    1SOL     OW10325   2.163   0.002   4.490  0.3376 -0.0661  0.1793
    1SOL    HW210326   2.131  -0.087   4.505  1.0392 -0.3763 -0.1284
    1SOL    HW310327   2.085   0.057   4.498 -0.1931 -0.7602 -0.1261
    1SOL    MW410328   2.148  -0.003   4.493  0.3605 -0.1986  0.0982
    1SOL     OW10329   4.461   4.667   4.323  0.6220 -0.0387 -0.1702
    1SOL    HW210330   4.519   4.711   4.261 -0.9355  1.1175 -0.8173
    1SOL    HW310331   4.438   4.734   4.387  0.5252 -0.6733  0.4690
    1SOL    MW410332   4.466   4.681   4.324  0.4039  0.0301 -0.1707
    1SOL     OW10333   3.200   0.930   4.289  0.1181 -0.0943  0.5539
    1SOL    HW210334   3.123   0.874   4.277 -0.0374  0.2504 -0.0811
    1SOL    HW310335   3.178   1.011   4.244  0.8956 -0.0295  0.2849
    1SOL    MW410336   3.187   0.933   4.282  0.2000 -0.0403  0.4349
    1SOL     OW10337   1.861   4.580   4.570 -0.6550 -0.1582 -0.4242
    1SOL    HW210338   1.778   4.541   4.543 -0.6403 -0.7791  0.4000
    1SOL    HW310339   1.842   4.673   4.580 -1.0248 -0.1591 -1.1232
    1SOL    MW410340   1.848   4.587   4.568 -0.7018 -0.2403 -0.4082
    1SOL     OW10341   2.793   2.957   4.410 -0.1995  0.0153  0.2508
    1SOL    HW210342   2.732   3.014   4.457 -1.1497 -0.0272 -0.9001
    1SOL    HW310343   2.819   3.008   4.333  0.8472 -0.1591  0.4755
    1SOL    MW410344   2.789   2.972   4.406 -0.1869 -0.0136  0.1287
    1SOL     OW10345   2.357   1.457   4.156 -0.1414  0.4363  0.1258
    1SOL    HW210346   2.370   1.532   4.214  2.2246  0.3431 -0.2590
    1SOL    HW310347   2.394   1.485   4.072 -0.8971 -0.5037 -0.5212
    1SOL    MW410348   2.364   1.471   4.153  0.0710  0.2998 -0.0105
    1SOL     OW10349   2.744   4.495   4.602  0.0212 -0.2729 -0.0266
    1SOL    HW210350   2.661   4.450   4.593  0.3003 -0.6803 -0.6448
    1SOL    HW310351   2.724   4.587   4.586 -0.2169 -0.4482 -0.7765
    1SOL    MW410352   2.731   4.501   4.598  0.0265 -0.3495 -0.2074
    1SOL     OW10353   2.450   2.273   4.084 -0.6853 -0.2551  0.2874
    1SOL    HW210354   2.456   2.193   4.135  1.1690 -0.0384  0.4454
    1SOL    HW310355   2.382   2.325   4.127 -1.3287 -1.3923  0.6516
    1SOL    MW410356   2.442   2.269   4.096 -0.5255 -0.3765  0.3567
    1SOL     OW10357   3.665   0.910   4.560 -0.1960 -0.0712 -0.2412
    1SOL    HW210358   3.597   0.963   4.602 -0.5090 -2.2727  2.2055
    1SOL    HW310359   3.644   0.913   4.467 -2.6994  0.6213  0.3154
    1SOL    MW410360   3.653   0.917   4.553 -0.5677 -0.2703  0.1554
    1SOL     OW10361   4.447   1.674   4.544 -0.0508 -0.5930 -0.6341
    1SOL    HW210362   4.486   1.595   4.581 -0.5825 -0.2657  0.6803
    1SOL    HW310363   4.506   1.744   4.570 -1.2566 -0.1461  1.0289
    1SOL    MW410364   4.460   1.673   4.552 -0.2799 -0.4909 -0.2413
    1SOL     OW10365   3.499   2.262   4.126  0.4751 -0.2132  0.4179
    1SOL    HW210366   3.497   2.343   4.177  0.1435 -0.3611  0.6391
    1SOL    HW310367   3.451   2.283   4.046  0.3943 -0.1930  0.4715
    1SOL    MW410368   3.493   2.276   4.122  0.4208 -0.2301  0.4539
    1SOL     OW10369   2.270   4.247   4.114  0.1571 -0.0999 -0.5678
    1SOL    HW210370   2.270   4.157   4.147  1.2628 -0.2307 -0.8918
    1SOL    HW310371   2.349   4.286   4.151 -1.2252  1.2812  0.9783
    1SOL    MW410372   2.281   4.240   4.123  0.1204  0.0648 -0.4072
    1SOL     OW10373   3.361   3.140   4.194 -0.4679 -0.0440 -0.2949
    1SOL    HW210374   3.277   3.178   4.220 -1.1873 -1.5455 -0.3877
    1SOL    HW310375   3.359   3.051   4.227  0.3178 -0.6897 -1.9047
    1SOL    MW410376   3.350   3.133   4.201 -0.4590 -0.3271 -0.5198
    1SOL     OW10377   2.416   3.099   4.183  0.4217  0.0428  0.1630
    1SOL    HW210378   2.489   3.156   4.208  0.8797  0.0587 -1.2017
    1SOL    HW310379   2.338   3.149   4.209  0.8508  0.7713  0.0766
    1SOL    MW410380   2.416   3.113   4.190  0.5388  0.1409 -0.0286
    1SOL     OW10381   3.348   3.679   4.247  0.0027  0.6114 -0.5487
    1SOL    HW210382   3.281   3.619   4.215  1.4339 -1.1567 -0.3227
    1SOL    HW310383   3.334   3.684   4.341  1.0191 -0.8531 -0.3037
    1SOL    MW410384   3.337   3.672   4.255  0.3259  0.1848 -0.4873
    1SOL     OW10385   3.579   3.570   4.165 -0.2972  0.3071 -0.4596
    1SOL    HW210386   3.583   3.475   4.180  0.9167  0.2150 -1.3258
    1SOL    HW310387   3.493   3.596   4.200 -0.5270 -1.0635  0.0247
    1SOL    MW410388   3.568   3.561   4.172 -0.1674  0.1144 -0.5097
    1SOL     OW10389   3.363   3.948   4.151 -0.1170  0.6286 -0.1640
    1SOL    HW210390   3.362   3.859   4.186  1.4983  0.9212  0.6579
    1SOL    HW310391   3.354   3.937   4.056  1.1329 -0.4755 -0.1704
    1SOL    MW410392   3.362   3.935   4.143  0.2611  0.5214 -0.0563
    1SOL     OW10393   4.490   2.733   4.188 -0.4909  0.1876  0.0959
    1SOL    HW210394   4.402   2.766   4.208 -0.4057 -0.1625  1.0687
    1SOL    HW310395   4.479   2.637   4.186 -0.1637  0.1513  0.0397
    1SOL    MW410396   4.477   2.724   4.190 -0.4365  0.1366  0.2174
    1SOL     OW10397   0.013   0.903   4.248  0.7207 -0.3298 -0.6329
    1SOL    HW210398  -0.000   0.995   4.229 -1.0561 -0.2459  0.9111
    1SOL    HW310399  -0.068   0.860   4.219 -0.2887 -0.7722  2.6482
    1SOL    MW410400   0.001   0.909   4.242  0.3529 -0.3772  0.0038
    1SOL     OW10401   3.599   4.263   4.108 -0.3627  0.1078 -0.2109
    1SOL    HW210402   3.509   4.280   4.137 -0.8145 -0.1848 -1.4258
    1SOL    HW310403   3.625   4.184   4.156 -0.1608  1.1345  1.3874
    1SOL    MW410404   3.590   4.254   4.118 -0.3955  0.2041 -0.1607
    1SOL     OW10405   3.810   4.652   4.076  0.1504  0.6578  0.0383
    1SOL    HW210406   3.819   4.566   4.117  0.3224  0.7773  0.2565
    1SOL    HW310407   3.825   4.636   3.983 -1.2211  0.2191 -0.1169
    1SOL    MW410408   3.813   4.639   4.069 -0.0076  0.6161  0.0463
    1SOL     OW10409   2.244   1.898   4.145 -0.1038  0.1633 -0.1221
    1SOL    HW210410   2.244   1.894   4.049 -0.1556  1.4365 -0.1769
    1SOL    HW310411   2.186   1.971   4.166 -0.9749 -0.8128  0.9191
    1SOL    MW410412   2.237   1.907   4.135 -0.2255  0.2024  0.0076
    1SOL     OW10413   3.608   0.378   4.169 -0.1087  0.3344 -0.3011
    1SOL    HW210414   3.685   0.427   4.199 -0.2484  0.5167 -0.2432
    1SOL    HW310415   3.614   0.379   4.074  0.8746 -1.0835 -0.2768
    1SOL    MW410416   3.619   0.384   4.161  0.0026  0.1714 -0.2899
    1SOL     OW10417   4.099   0.363   4.155 -0.4577 -0.8914  0.1005
    1SOL    HW210418   4.086   0.274   4.185 -1.1565 -0.4396  1.1598
    1SOL    HW310419   4.023   0.411   4.188  0.0649  0.1603 -0.1927
    1SOL    MW410420   4.087   0.358   4.163 -0.4811 -0.6930  0.2022
    1SOL     OW10421   1.359   4.667   4.616 -0.1184 -0.1094  0.2003
    1SOL    HW210422   1.278   4.678   4.666  0.6895 -0.4943  1.6315
    1SOL    HW310423   1.388   4.756   4.596 -0.1436  0.0779  0.9601
    1SOL    MW410424   1.352   4.680   4.620 -0.0150 -0.1355  0.4892
    1SOL     OW10425   2.462   4.597   4.146 -0.0678  0.0235  0.2141
    1SOL    HW210426   2.543   4.648   4.155 -0.3230  0.3316  0.7784
    1SOL    HW310427   2.396   4.648   4.193 -0.1932 -1.1127  1.2839
    1SOL    MW410428   2.464   4.611   4.154 -0.1183 -0.0857  0.4296
    1SOL     OW10429   2.129   2.146   4.183  0.2865  0.3450  0.4809
    1SOL    HW210430   2.107   2.224   4.132  1.2599  0.6424  0.5140
    1SOL    HW310431   2.201   2.173   4.240  1.6318 -0.9614 -0.5479
    1SOL    MW410432   2.136   2.160   4.184  0.5927  0.2122  0.3490
    1SOL     OW10433   0.017   2.500   4.471 -0.0972  0.4776 -0.0071
    1SOL    HW210434   0.060   2.431   4.522 -0.8781  0.2752  0.3869
    1SOL    HW310435   0.064   2.580   4.495 -1.5580  0.6677  2.3794
    1SOL    MW410436   0.029   2.502   4.481 -0.3929  0.4759  0.3600
    1SOL     OW10437   4.233   2.319   4.154  0.0493  0.4029 -0.1870
    1SOL    HW210438   4.233   2.231   4.191 -0.6155  0.5092  0.0641
    1SOL    HW310439   4.317   2.355   4.180  0.6773 -0.4490 -0.9862
    1SOL    MW410440   4.244   2.312   4.162  0.0443  0.3045 -0.2599
    1SOL     OW10441   3.400   1.535   4.177 -0.4380 -0.1386  0.0723
    1SOL    HW210442   3.316   1.562   4.214 -0.5747  1.2000 -1.1712
    1SOL    HW310443   3.380   1.511   4.087  0.1430 -1.9936  0.4181
    1SOL    MW410444   3.386   1.535   4.170 -0.3793 -0.2068 -0.0463
    1SOL     OW10445   3.652   1.887   4.123 -0.5398  0.2619 -0.2515
    1SOL    HW210446   3.662   1.811   4.180 -1.4462 -0.1420 -0.6059
    1SOL    HW310447   3.577   1.934   4.160 -1.2642 -0.1131 -1.2012
    1SOL    MW410448   3.643   1.883   4.135 -0.7548  0.1590 -0.4239
    1SOL     OW10449   1.756   1.864   4.799 -0.3625  0.5179  0.4476
    1SOL    HW210450   1.771   1.797   4.733  1.0506  1.3405 -0.0988
    1SOL    HW310451   1.723   1.817   4.875  0.7316 -0.8051  0.1134
    1SOL    MW410452   1.753   1.849   4.800 -0.0316  0.4519  0.3314
    1SOL     OW10453   0.847   4.561   4.767 -0.1038  0.3643  0.6298
    1SOL    HW210454   0.756   4.550   4.794 -0.7418 -0.0859 -1.6452
    1SOL    HW310455   0.842   4.611   4.685  1.5196 -1.8793 -0.8855
    1SOL    MW410456   0.834   4.567   4.760  0.0263  0.0091  0.1292
    1SOL     OW10457   3.569   2.351   4.473  0.2893  0.2022  0.0078
    1SOL    HW210458   3.525   2.383   4.551 -0.8401  0.8962 -0.8942
    1SOL    HW310459   3.517   2.385   4.400  0.6344 -1.4216 -1.0300
    1SOL    MW410460   3.557   2.360   4.473  0.1860  0.0792 -0.2480
    1SOL     OW10461   3.805   2.042   4.298  0.6677  0.0319  0.2495
    1SOL    HW210462   3.759   1.985   4.237  2.2533  0.1290 -1.0703
    1SOL    HW310463   3.788   2.130   4.266  2.8424  0.0208 -1.0914
    1SOL    MW410464   3.797   2.046   4.286  1.1640  0.0434 -0.1016
    1SOL     OW10465   1.929   3.979   4.608 -0.1283 -0.0531 -0.2500
    1SOL    HW210466   2.005   3.932   4.573 -0.9688 -2.0388  0.4816
    1SOL    HW310467   1.945   3.982   4.703 -0.8236 -0.2731 -0.1196
    1SOL    MW410468   1.941   3.973   4.616 -0.3308 -0.3438 -0.1364
    1SOL     OW10469   3.840   3.240   4.173 -0.0510  0.1481  0.4313
    1SOL    HW210470   3.934   3.252   4.188 -0.0300 -0.3535  0.7288
    1SOL    HW310471   3.834   3.205   4.084  0.0361  0.2907  0.3694
    1SOL    MW410472   3.852   3.237   4.163 -0.0370  0.1009  0.4621
    1SOL     OW10473   3.842   4.397   4.187 -0.3245  0.2816 -0.6467
    1SOL    HW210474   3.758   4.355   4.169 -1.1156  1.6256 -0.1406
    1SOL    HW310475   3.841   4.413   4.282  0.9904 -0.7368 -0.4517
    1SOL    MW410476   3.831   4.394   4.197 -0.2553  0.3242 -0.5541
    1SOL     OW10477   3.578   3.298   4.253  0.2316  0.0686  0.3170
    1SOL    HW210478   3.512   3.237   4.220 -0.0079 -0.0331  0.9918
    1SOL    HW310479   3.662   3.261   4.223 -0.0375  0.4984 -1.0251
    1SOL    MW410480   3.581   3.285   4.245  0.1645  0.1118  0.2284
    1SOL     OW10481   1.245   2.448   4.508  0.1749  0.3234  0.5547
    1SOL    HW210482   1.332   2.461   4.545  0.3760  2.6956 -0.6642
    1SOL    HW310483   1.261   2.416   4.419 -0.1671  1.5954  0.0278
    1SOL    MW410484   1.258   2.446   4.501  0.1563  0.8042  0.3247
    1SOL     OW10485   4.311   2.856   4.534  0.2904 -0.3339 -0.3595
    1SOL    HW210486   4.291   2.853   4.441  1.0315 -1.3295 -0.4831
    1SOL    HW310487   4.354   2.941   4.546 -0.1687 -0.0283 -0.8448
    1SOL    MW410488   4.314   2.867   4.524  0.3276 -0.4251 -0.4396
    1SOL     OW10489   1.363   3.473   4.130 -0.1807  0.3917 -0.0829
    1SOL    HW210490   1.375   3.480   4.035 -0.8277  0.8786 -0.1294
    1SOL    HW310491   1.362   3.379   4.147  1.8445  0.3058 -0.3158
    1SOL    MW410492   1.365   3.461   4.119  0.0012  0.4447 -0.1197
    1SOL     OW10493   3.148   4.252   4.117  0.5163  0.2289  0.0341
    1SOL    HW210494   3.140   4.175   4.173  0.8812 -0.7405 -1.2154
    1SOL    HW310495   3.223   4.300   4.153 -0.2708  0.4744  1.3592
    1SOL    MW410496   3.157   4.248   4.129  0.4606  0.1335  0.0439
    1SOL     OW10497   0.121   0.881   4.509  0.2902 -0.3904 -0.8675
    1SOL    HW210498   0.096   0.895   4.418 -1.4593 -0.0602 -0.3448
    1SOL    HW310499   0.051   0.921   4.560  0.8767 -1.2367  0.6406
    1SOL    MW410500   0.109   0.888   4.504  0.1368 -0.4585 -0.5994
    1SOL     OW10501   4.255   4.384   4.538 -0.2221  0.5056  0.0524
    1SOL    HW210502   4.248   4.478   4.556 -1.4137  0.3147  0.6512
    1SOL    HW310503   4.261   4.378   4.443  2.7439  1.3413  0.1395
    1SOL    MW410504   4.255   4.395   4.528  0.0119  0.5908  0.1431
    1SOL     OW10505   4.173   2.131   4.541 -0.4316 -0.2567  0.4762
    1SOL    HW210506   4.124   2.063   4.588 -0.1542  0.1887  1.4113
    1SOL    HW310507   4.123   2.211   4.555 -0.9011 -0.3056 -0.8531
    1SOL    MW410508   4.160   2.132   4.549 -0.4573 -0.2046  0.4244
    1SOL     OW10509   2.882   0.221   4.677 -0.4425  0.0316  0.4172
    1SOL    HW210510   2.909   0.253   4.762  1.0386 -0.7148  0.2487
    1SOL    HW310511   2.886   0.298   4.619  0.7780  0.0478  0.5226
    1SOL    MW410512   2.886   0.235   4.680 -0.0858 -0.0647  0.4086
    1SOL     OW10513   0.754   1.105   4.791  0.4068  0.0493  0.1426
    1SOL    HW210514   0.799   1.064   4.716  0.8015 -0.0383  0.4264
    1SOL    HW310515   0.817   1.168   4.825 -0.2624  0.9981 -0.3770
    1SOL    MW410516   0.769   1.108   4.785  0.3705  0.1628  0.1116
    1SOL     OW10517   0.498   0.691   4.675  0.2157  0.0215  0.2724
    1SOL    HW210518   0.472   0.753   4.606  1.2900 -0.7862 -0.8806
    1SOL    HW310519   0.522   0.747   4.749  0.1290  0.9519 -0.3881
    1SOL    MW410520   0.498   0.707   4.675  0.3460  0.0377  0.0329
    1SOL     OW10521   4.056   0.161   4.788 -0.4290 -0.2401 -0.1690
    1SOL    HW210522   4.017   0.175   4.874  0.8276  0.2878  0.3215
    1SOL    HW310523   4.110   0.239   4.773 -0.0753 -0.6594 -1.1228
    1SOL    MW410524   4.058   0.173   4.797 -0.2170 -0.2258 -0.2298
    1SOL     OW10525   4.027   1.175   4.308 -0.8833 -0.5304  0.2149
    1SOL    HW210526   3.979   1.204   4.230  1.0007 -1.4988 -1.3340
    1SOL    HW310527   4.038   1.081   4.295  2.5639 -0.1240 -0.1168
    1SOL    MW410528   4.022   1.167   4.296 -0.1798 -0.6045 -0.0339
    1SOL     OW10529   2.958   1.065   4.591  0.3440 -0.5721 -0.8910
    1SOL    HW210530   3.033   1.006   4.595  0.2105 -0.6834  0.3215
    1SOL    HW310531   2.882   1.007   4.589  0.1693 -0.4721  1.3221
    1SOL    MW410532   2.958   1.050   4.591  0.3033 -0.5736 -0.4396
    1SOL     OW10533   0.869   1.043   4.565 -0.0855  0.3134 -0.0807
    1SOL    HW210534   0.820   1.119   4.532  0.1800  0.5557  0.0801
    1SOL    HW310535   0.957   1.078   4.583 -0.1590  0.1225  0.6442
    1SOL    MW410536   0.874   1.058   4.563 -0.0601  0.3202  0.0362
    1SOL     OW10537   1.790   0.659   4.555 -0.2013 -0.5399  0.5079
    1SOL    HW210538   1.697   0.662   4.578 -0.4352 -0.0835 -0.4849
    1SOL    HW310539   1.791   0.624   4.466  0.4952  0.6438  0.0453
    1SOL    MW410540   1.778   0.654   4.546 -0.1402 -0.3236  0.3161
    1SOL     OW10541   1.010   4.467   4.400 -0.6157 -0.4781 -0.4696
    1SOL    HW210542   1.103   4.489   4.390 -0.4853 -1.0685 -0.5761
    1SOL    HW310543   0.964   4.531   4.346 -0.3223  0.3225  0.2159
    1SOL    MW410544   1.016   4.478   4.392 -0.5597 -0.4501 -0.3929
    1SOL     OW10545   3.857   0.475   4.261  0.3063  0.2926  0.3052
    1SOL    HW210546   3.869   0.568   4.242  0.6940  0.3135  0.6559
    1SOL    HW310547   3.843   0.472   4.356 -0.5388  0.0779  0.1788
    1SOL    MW410548   3.856   0.487   4.271  0.2456  0.2670  0.3347
    1SOL     OW10549   3.785   2.292   4.149  0.4317  0.2660 -0.2597
    1SOL    HW210550   3.805   2.286   4.056 -0.3413  0.5542 -0.4472
    1SOL    HW310551   3.690   2.303   4.153  0.4787  0.4446  0.5513
    1SOL    MW410552   3.775   2.293   4.137  0.3359  0.3276 -0.1774
    1SOL     OW10553   4.015   3.501   4.139  0.1458  0.3441  0.7201
    1SOL    HW210554   4.015   3.495   4.044 -0.7599  0.3486  0.7168
    1SOL    HW310555   4.086   3.563   4.159 -1.6068  2.6877 -0.0990
    1SOL    MW410556   4.024   3.508   4.129 -0.2050  0.6537  0.6113
    1SOL     OW10557   3.993   2.413   4.268 -0.2673  0.1002  0.3283
    1SOL    HW210558   3.923   2.356   4.235  0.1458  0.6040 -1.4444
    1SOL    HW310559   4.073   2.378   4.229  0.1110  1.3013  0.0152
    1SOL    MW410560   3.994   2.401   4.258 -0.1628  0.3252  0.0539
    1SOL     OW10561   1.520   3.410   4.495 -0.4509  0.1376 -0.0294
    1SOL    HW210562   1.601   3.360   4.491 -1.5198 -1.7130  0.6228
    1SOL    HW310563   1.545   3.493   4.536  0.8535 -0.9667  1.4884
    1SOL    MW410564   1.534   3.414   4.500 -0.4199 -0.2522  0.2565
    1SOL     OW10565   3.856   0.217   4.584 -0.0690 -0.1280 -0.0108
    1SOL    HW210566   3.883   0.141   4.532  0.2745  0.5988 -0.9034
    1SOL    HW310567   3.920   0.222   4.654 -1.1654 -1.7675  1.1290
    1SOL    MW410568   3.868   0.208   4.586 -0.1681 -0.2484  0.0215
    1SOL     OW10569   3.803   3.628   4.297  0.1425 -0.1517  0.4918
    1SOL    HW210570   3.718   3.608   4.257 -0.2399 -0.4502  1.4324
    1SOL    HW310571   3.865   3.572   4.250 -0.2838 -0.4270  0.2493
    1SOL    MW410572   3.800   3.618   4.286  0.0358 -0.2275  0.5836
    1SOL     OW10573   2.070   1.499   4.141  0.3891  0.0952 -0.2727
    1SOL    HW210574   2.055   1.504   4.046 -1.7851 -0.9537 -0.0050
    1SOL    HW310575   2.163   1.474   4.148 -0.2252 -3.0835 -2.2266
    1SOL    MW410576   2.081   1.496   4.129  0.0210 -0.4625 -0.4950
    1SOL     OW10577   4.254   3.596   4.237  0.0355  0.3867  0.2350
    1SOL    HW210578   4.328   3.537   4.226 -0.5196 -0.0535 -1.1595
    1SOL    HW310579   4.230   3.587   4.329  0.5372 -0.8554  0.2454
    1SOL    MW410580   4.261   3.587   4.248  0.0286  0.1647  0.0529
    1SOL     OW10581   0.496   4.227   4.408  0.0393  0.0325 -0.4307
    1SOL    HW210582   0.421   4.283   4.390 -0.0879 -0.2192 -0.6688
    1SOL    HW310583   0.469   4.140   4.382 -0.2282 -0.3786  1.1728
    1SOL    MW410584   0.483   4.223   4.402 -0.0128 -0.0544 -0.2508
    1SOL     OW10585   1.326   1.004   4.601 -0.1732 -0.0915  0.1897
    1SOL    HW210586   1.307   0.992   4.508 -0.3668  0.7872  0.1154
    1SOL    HW310587   1.409   1.051   4.603 -0.2503  0.0375  0.4595
    1SOL    MW410588   1.334   1.009   4.589 -0.2087  0.0416  0.2155
    1SOL     OW10589   3.810   3.865   4.103 -0.4902  0.3185  0.2362
    1SOL    HW210590   3.882   3.914   4.142 -2.0262  1.1598  2.1322
    1SOL    HW310591   3.813   3.780   4.147 -1.7520  0.9976  1.6729
    1SOL    MW410592   3.820   3.860   4.114 -0.8593  0.5193  0.6762
    1SOL     OW10593   2.694   0.088   4.504 -0.0565 -0.3106 -0.5271
    1SOL    HW210594   2.705   0.110   4.412 -0.7994  0.7494 -0.3664
    1SOL    HW310595   2.742   0.157   4.551 -1.0538  0.0809 -0.0724
    1SOL    MW410596   2.702   0.100   4.498 -0.2863 -0.1191 -0.4458
    1SOL     OW10597   4.027   2.864   4.634 -0.1562  0.1452 -0.0361
    1SOL    HW210598   3.995   2.954   4.643 -0.7150 -0.0265 -0.2819
    1SOL    HW310599   4.122   2.872   4.633 -0.2272  0.8777 -1.4491
    1SOL    MW410600   4.035   2.877   4.635 -0.2394  0.2191 -0.2551
    1SOL     OW10601   2.010   2.101   4.446  0.9503 -0.2149 -0.1289
    1SOL    HW210602   2.079   2.123   4.384  0.4901 -1.0276 -0.9274
    1SOL    HW310603   2.024   2.161   4.519  1.2475  1.0217 -1.1907
    1SOL    MW410604   2.021   2.112   4.448  0.9289 -0.1588 -0.3738
    1SOL     OW10605   4.257   2.082   4.276 -0.6368  0.0657  0.1338
    1SOL    HW210606   4.236   2.099   4.368  0.0779 -0.3519  0.3739
    1SOL    HW310607   4.176   2.045   4.240 -1.2459  1.1899  0.3352
    1SOL    MW410608   4.243   2.079   4.283 -0.6227  0.1588  0.1917
    1SOL     OW10609   4.047   0.106   4.215 -0.4363 -0.2863 -0.1420
    1SOL    HW210610   4.035   0.070   4.303  0.3051 -0.1362  0.0212
    1SOL    HW310611   3.970   0.076   4.166 -2.0838  1.5314  1.1850
    1SOL    MW410612   4.035   0.098   4.220 -0.5560 -0.0267  0.0544
    1SOL     OW10613   1.096   2.910   4.583 -0.0454 -0.2450  0.1082
    1SOL    HW210614   1.098   2.814   4.580  0.6002 -0.3419  2.4224
    1SOL    HW310615   1.013   2.933   4.542  0.0810 -1.7678 -1.0433
    1SOL    MW410616   1.085   2.900   4.577  0.0564 -0.4585  0.2613
    1SOL     OW10617   1.796   0.944   4.557  0.3871 -0.3230  0.0068
    1SOL    HW210618   1.796   0.850   4.574 -1.3225 -0.2474  0.5258
    1SOL    HW310619   1.888   0.966   4.544  0.9016 -1.8946  0.8429
    1SOL    MW410620   1.808   0.935   4.558  0.2295 -0.5203  0.1860
    1SOL     OW10621   1.817   3.010   4.615 -0.1986  0.2676  0.7334
    1SOL    HW210622   1.852   2.957   4.686  1.1445  1.8468  1.2690
    1SOL    HW310623   1.889   3.016   4.552 -0.5273  1.0310  0.4311
    1SOL    MW410624   1.831   3.003   4.616 -0.0648  0.5767  0.7639
    1SOL     OW10625   0.203   1.529   4.156 -0.1106 -0.1230 -0.1121
    1SOL    HW210626   0.131   1.587   4.181  0.1987  0.3950 -0.4149
    1SOL    HW310627   0.281   1.571   4.192  0.2986  0.4523 -1.6336
    1SOL    MW410628   0.203   1.542   4.164 -0.0158  0.0212 -0.3524
    1SOL     OW10629   3.927   3.128   4.606  0.1579  0.1259  0.2816
    1SOL    HW210630   3.847   3.130   4.658 -0.5487  2.4235 -0.8081
    1SOL    HW310631   3.898   3.102   4.519  1.1580 -2.5182  0.7031
    1SOL    MW410632   3.913   3.125   4.602  0.1967  0.0801  0.1936
    1SOL     OW10633   0.126   1.905   4.509 -0.2894 -0.1062  0.3230
    1SOL    HW210634   0.123   1.911   4.413  0.8234 -0.7514  0.2467
    1SOL    HW310635   0.218   1.893   4.530 -0.4009  1.0140  1.5503
    1SOL    MW410636   0.137   1.905   4.499 -0.1573 -0.0435  0.4754
    1SOL     OW10637   0.502   1.123   4.626 -0.3250 -0.2231 -0.0367
    1SOL    HW210638   0.541   1.104   4.712  0.1022 -1.7529 -0.5505
    1SOL    HW310639   0.471   1.038   4.595 -0.7148  0.3696 -1.2875
    1SOL    MW410640   0.503   1.109   4.633 -0.3200 -0.3469 -0.2694
    1SOL     OW10641   4.482   1.963   4.168  0.4189 -0.6591  0.3962
    1SOL    HW210642   4.483   1.871   4.194 -0.1858 -0.9692 -0.6781
    1SOL    HW310643   4.394   1.993   4.192 -0.2043 -0.9901 -1.4049
    1SOL    MW410644   4.470   1.955   4.175  0.2565 -0.7437  0.0167
    1SOL     OW10645   2.224   3.977   4.545 -0.4018  0.4904  0.4299
    1SOL    HW210646   2.245   3.998   4.454  2.2408 -0.8144  0.7078
    1SOL    HW310647   2.223   4.061   4.590  0.8590  0.8979 -0.2855
    1SOL    MW410648   2.226   3.991   4.539  0.1132  0.3717  0.3724
    1SOL     OW10649   3.674   1.233   4.733 -0.4251 -0.3484 -0.4191
    1SOL    HW210650   3.746   1.216   4.673 -0.9153 -0.8105 -0.8895
    1SOL    HW310651   3.642   1.320   4.709 -0.2839 -0.3113 -0.4725
    1SOL    MW410652   3.679   1.242   4.722 -0.4711 -0.4045 -0.4878
    1SOL     OW10653   0.434   3.471   4.166  0.2056 -0.5387  0.1182
    1SOL    HW210654   0.515   3.507   4.202  1.3316 -2.3063 -0.5736
    1SOL    HW310655   0.446   3.477   4.071 -0.4123 -0.9278  0.0176
    1SOL    MW410656   0.447   3.477   4.158  0.2727 -0.8233  0.0134
    1SOL     OW10657   3.147   1.774   4.538 -0.2337  0.1603  0.1831
    1SOL    HW210658   3.089   1.725   4.597  0.3849 -0.0870  0.5962
    1SOL    HW310659   3.129   1.866   4.559  0.2515  0.0641  1.0205
    1SOL    MW410660   3.137   1.779   4.549 -0.0882  0.1149  0.3476
    1SOL     OW10661   4.390   0.219   4.527 -0.3174  0.0780 -0.4889
    1SOL    HW210662   4.367   0.311   4.510 -0.1781  0.6134  1.9813
    1SOL    HW310663   4.475   0.223   4.570 -0.6061 -1.1742  0.2139
    1SOL    MW410664   4.398   0.232   4.530 -0.3371 -0.0166 -0.0706
    1SOL     OW10665   3.369   0.526   4.537  0.2731  0.3143 -0.4317
    1SOL    HW210666   3.383   0.436   4.569 -0.9635  0.3345  0.1989
    1SOL    HW310667   3.446   0.574   4.567 -0.0221 -0.0760  1.0058
    1SOL    MW410668   3.381   0.520   4.545  0.0710  0.2655 -0.1588
    1SOL     OW10669   0.452   1.598   4.550  0.4133 -0.1920  0.9357
    1SOL    HW210670   0.406   1.515   4.564  1.0668 -0.6167  0.6043
    1SOL    HW310671   0.443   1.615   4.456  0.9249 -0.2771  0.8678
    1SOL    MW410672   0.445   1.589   4.539  0.5670 -0.2593  0.8826
    1SOL     OW10673   0.234   3.877   4.175  0.2180 -0.1386 -0.1242
    1SOL    HW210674   0.307   3.906   4.230 -0.2310  1.2653 -0.2489
    1SOL    HW310675   0.156   3.907   4.220 -0.1271  1.8316 -1.9490
    1SOL    MW410676   0.233   3.885   4.188  0.1132  0.3066 -0.3819
    1SOL     OW10677   2.119   0.926   4.253 -0.4360  0.3196 -0.1375
    1SOL    HW210678   2.184   0.986   4.216 -0.5384  0.4387 -0.1253
    1SOL    HW310679   2.112   0.952   4.345 -0.0632 -0.0795  0.0085
    1SOL    MW410680   2.127   0.937   4.260 -0.4003  0.2827 -0.1173
    1SOL     OW10681   1.227   4.185   4.620  0.2508  0.2060 -0.3022
    1SOL    HW210682   1.161   4.252   4.638  0.6308  0.5134 -0.0406
    1SOL    HW310683   1.184   4.125   4.559 -1.2072 -1.0857  1.9061
    1SOL    MW410684   1.213   4.186   4.614  0.1086  0.0763  0.0238
    1SOL     OW10685   3.731   4.157   4.463 -0.0073 -0.4972  0.1007
    1SOL    HW210686   3.799   4.099   4.498 -0.1146 -0.4687  0.3550
    1SOL    HW310687   3.690   4.107   4.394  0.8947 -0.1780 -0.6892
    1SOL    MW410688   3.735   4.143   4.459  0.0975 -0.4506  0.0305
    1SOL     OW10689   1.142   0.481   4.289 -0.4886  0.2480 -0.5159
    1SOL    HW210690   1.130   0.389   4.265 -0.8289 -0.0542  0.8081
    1SOL    HW310691   1.230   0.485   4.326 -0.1614  0.6262 -1.3012
    1SOL    MW410692   1.152   0.469   4.290 -0.4902  0.2580 -0.4444
    1SOL     OW10693   0.317   1.355   4.579 -0.0044  0.3635  0.4141
    1SOL    HW210694   0.281   1.317   4.499  1.1469  1.1605 -0.4881
    1SOL    HW310695   0.370   1.285   4.617 -0.2181  0.1238  0.2756
    1SOL    MW410696   0.319   1.340   4.574  0.1193  0.4370  0.2770
    1SOL     OW10697   4.296   1.510   4.160  0.6921  0.3921  0.0850
    1SOL    HW210698   4.310   1.421   4.191 -1.4554  0.1795  0.4834
    1SOL    HW310699   4.300   1.503   4.064 -1.3334 -0.4690  0.0529
    1SOL    MW410700   4.299   1.498   4.151  0.1416  0.2503  0.1335
    1SOL     OW10701   2.840   1.427   4.087  0.2143  0.0969  0.0800
    1SOL    HW210702   2.805   1.338   4.088  0.5038 -0.0087  0.9523
    1SOL    HW310703   2.775   1.479   4.136 -0.3257  0.5116 -1.0470
    1SOL    MW410704   2.826   1.422   4.094  0.1812  0.1377  0.0463
    1SOL     OW10705   3.751   2.791   4.298  0.3299 -0.1511 -0.3272
    1SOL    HW210706   3.675   2.776   4.243  0.4806 -1.1460 -0.2808
    1SOL    HW310707   3.729   2.751   4.382  0.6540  0.1040 -0.1185
    1SOL    MW410708   3.738   2.783   4.302  0.3927 -0.2489 -0.2937
    1SOL     OW10709   4.032   2.375   4.549  0.2564 -0.4407 -0.0035
    1SOL    HW210710   4.004   2.380   4.457  1.1731 -1.4139 -0.3531
    1SOL    HW310711   4.106   2.436   4.554  0.5807 -0.8207 -0.0715
    1SOL    MW410712   4.038   2.383   4.537  0.4196 -0.6194 -0.0587
    1SOL     OW10713   4.336   1.297   4.582 -0.5226 -0.0774  0.4378
    1SOL    HW210714   4.258   1.330   4.626 -0.6172  0.6527 -0.2741
    1SOL    HW310715   4.409   1.343   4.624 -0.4480 -0.9368  1.2686
    1SOL    MW410716   4.335   1.307   4.594 -0.5250 -0.0944  0.4535
    1SOL     OW10717   2.007   4.352   4.232  0.0542  0.0705 -0.0418
    1SOL    HW210718   2.003   4.441   4.196  0.6739 -0.3301 -1.1251
    1SOL    HW310719   2.086   4.314   4.193 -0.1982 -0.9515  0.4250
    1SOL    MW410720   2.017   4.359   4.222  0.1028 -0.1173 -0.1230
    1SOL     OW10721   3.087   4.495   4.645 -0.6330  0.2259  0.4943
    1SOL    HW210722   3.059   4.479   4.735 -1.2391  0.3048  0.3253
    1SOL    HW310723   3.027   4.442   4.592 -0.9036  0.9293  0.0875
    1SOL    MW410724   3.075   4.486   4.650 -0.7486  0.3290  0.4182
    1SOL     OW10725   2.649   2.018   4.771 -0.1027  0.2995 -0.2728
    1SOL    HW210726   2.663   2.109   4.800  0.5406  0.0247  0.3010
    1SOL    HW310727   2.569   2.021   4.719 -0.5753  1.0397  0.4875
    1SOL    MW410728   2.641   2.031   4.768 -0.0801  0.3610 -0.0973
    1SOL     OW10729   1.154   0.671   4.086 -0.7637 -0.3456 -0.3402
    1SOL    HW210730   1.145   0.599   4.149  2.1083  0.0635  0.5993
    1SOL    HW310731   1.108   0.744   4.127 -0.1957 -0.5044  0.6096
    1SOL    MW410732   1.147   0.671   4.100 -0.3099 -0.3126 -0.0911
    1SOL     OW10733   0.618   0.855   4.867 -0.5443 -0.0586  0.3713
    1SOL    HW210734   0.680   0.927   4.879  0.0865 -0.7354  1.2035
    1SOL    HW310735   0.630   0.800   4.944 -1.0250 -1.0549 -0.2569
    1SOL    MW410736   0.628   0.858   4.879 -0.5246 -0.2792  0.3986
    1SOL     OW10737   0.509   0.452   4.250 -0.3904  0.1711 -0.1512
    1SOL    HW210738   0.549   0.413   4.328  0.2323  0.1166 -0.4963
    1SOL    HW310739   0.557   0.533   4.236 -1.6688  1.0546  0.5400
    1SOL    MW410740   0.521   0.457   4.258 -0.4769  0.2805 -0.1059
    1SOL     OW10741   1.051   2.645   4.469  0.1862  0.4229 -0.1274
    1SOL    HW210742   1.121   2.580   4.477 -0.0113 -0.0769 -2.1178
    1SOL    HW310743   0.972   2.596   4.492 -0.0139 -0.1982 -2.0173
    1SOL    MW410744   1.050   2.630   4.473  0.1339  0.2749 -0.6394
    1SOL     OW10745   1.152   3.608   4.256  0.1505  0.6505  0.2483
    1SOL    HW210746   1.216   3.553   4.212  0.9825  1.0244  0.9739
    1SOL    HW310747   1.068   3.564   4.242  0.9062 -1.2934  1.6101
    1SOL    MW410748   1.149   3.595   4.249  0.3599  0.4432  0.5236
    1SOL     OW10749   3.119   3.264   4.261 -0.4004 -0.2736  0.1620
    1SOL    HW210750   3.134   3.354   4.231  1.6370 -0.0090  1.8754
    1SOL    HW310751   3.091   3.273   4.352  0.8846 -1.4072  0.6866
    1SOL    MW410752   3.117   3.277   4.269  0.0379 -0.3884  0.4573
    1SOL     OW10753   3.455   2.007   4.515  0.0059  0.2656  0.1560
    1SOL    HW210754   3.414   2.083   4.556 -0.9356 -1.0419  1.7178
    1SOL    HW310755   3.537   1.995   4.563 -0.0816  0.0061  0.2428
    1SOL    MW410756   3.460   2.015   4.527 -0.1299  0.0587  0.3734
    1SOL     OW10757   0.739   1.223   4.187 -0.2520  0.3076 -0.4438
    1SOL    HW210758   0.747   1.223   4.283  0.4202 -0.7219 -0.4839
    1SOL    HW310759   0.650   1.191   4.171 -0.6561  1.2859 -0.1483
    1SOL    MW410760   0.728   1.219   4.198 -0.2166  0.3009 -0.4101
    1SOL     OW10761   1.558   2.108   4.294  0.2895 -0.2034 -0.1417
    1SOL    HW210762   1.621   2.042   4.323  0.8162  0.3319 -0.0468
    1SOL    HW310763   1.514   2.137   4.375 -0.4191 -0.9180 -0.2675
    1SOL    MW410764   1.560   2.103   4.309  0.2655 -0.2267 -0.1464
    1SOL     OW10765   1.279   3.270   4.498  0.3566  0.2745  0.0510
    1SOL    HW210766   1.301   3.183   4.533 -0.1817 -0.4340 -1.3414
    1SOL    HW310767   1.361   3.319   4.504  1.2109 -0.9906 -1.0929
    1SOL    MW410768   1.293   3.265   4.504  0.3984  0.0143 -0.2837
    1SOL     OW10769   0.893   3.876   4.541  0.4016  0.1699 -0.1425
    1SOL    HW210770   0.867   3.946   4.600 -0.2775 -0.5664  0.4434
    1SOL    HW310771   0.902   3.799   4.597  1.7503 -0.0780 -0.6764
    1SOL    MW410772   0.891   3.875   4.556  0.4900  0.0403 -0.1354
    1SOL     OW10773   4.479   3.448   4.165 -0.1151 -0.1237  0.2257
    1SOL    HW210774   4.547   3.506   4.200 -0.6163  0.8872 -0.4539
    1SOL    HW310775   4.488   3.455   4.070 -0.4431 -0.8502  0.1395
    1SOL    MW410776   4.490   3.456   4.157 -0.2246 -0.0861  0.1249
    1SOL     OW10777   3.453   1.720   4.518 -0.2481 -0.2869  0.3715
    1SOL    HW210778   3.461   1.814   4.536  0.6238 -0.5927  1.6367
    1SOL    HW310779   3.359   1.702   4.529 -0.2916  0.2738  0.9751
    1SOL    MW410780   3.442   1.730   4.522 -0.1390 -0.2533  0.6180
    1SOL     OW10781   3.929   3.959   4.486  0.2183 -0.4182 -0.1141
    1SOL    HW210782   3.943   3.868   4.514 -2.1851 -0.2822  1.6247
    1SOL    HW310783   3.981   4.011   4.548 -0.3874 -0.4636  0.4337
    1SOL    MW410784   3.938   3.954   4.498 -0.1788 -0.4063  0.1879
    1SOL     OW10785   2.650   3.327   4.520 -0.2188 -0.0281  0.0040
    1SOL    HW210786   2.659   3.303   4.428  0.5700  0.5897 -0.0869
    1SOL    HW310787   2.617   3.248   4.562  0.0004 -0.5056 -0.7089
    1SOL    MW410788   2.647   3.313   4.513 -0.0858 -0.0098 -0.1020
    1SOL     OW10789   0.383   0.886   4.498 -0.4117 -0.2815 -0.0880
    1SOL    HW210790   0.392   0.879   4.403 -0.4169 -0.6653 -0.0587
    1SOL    HW310791   0.289   0.898   4.512 -0.5185 -1.1049 -0.0746
    1SOL    MW410792   0.372   0.887   4.487 -0.4265 -0.4408 -0.0825
    1SOL     OW10793   2.710   0.925   4.592  0.1040 -0.0865  0.8014
    1SOL    HW210794   2.679   0.835   4.600  0.4059 -0.2392  0.2392
    1SOL    HW310795   2.632   0.975   4.570  0.5140 -0.7323 -2.4391
    1SOL    MW410796   2.696   0.920   4.590  0.1979 -0.1919  0.2999
    1SOL     OW10797   1.582   3.634   4.226  0.1269 -0.0026  0.3021
    1SOL    HW210798   1.516   3.567   4.209 -1.0096  1.4488 -1.1966
    1SOL    HW310799   1.569   3.658   4.318 -0.5046 -0.6983  0.4016
    1SOL    MW410800   1.571   3.628   4.236 -0.1063  0.0970  0.1183
    1SOL     OW10801   3.122   4.030   4.292  0.2206 -0.2834  0.0494
    1SOL    HW210802   3.205   3.982   4.284  0.1839 -0.7044  1.9598
    1SOL    HW310803   3.117   4.053   4.385 -1.6220  0.0790 -0.1321
    1SOL    MW410804   3.133   4.027   4.303 -0.0277 -0.2904  0.2780
    1SOL     OW10805   0.219   2.079   4.265  0.4156  0.4424  0.0528
    1SOL    HW210806   0.137   2.047   4.227  1.7249 -0.3212 -2.1930
    1SOL    HW310807   0.284   2.013   4.243  1.7396  1.2177  1.4996
    1SOL    MW410808   0.217   2.066   4.257  0.7630  0.4439 -0.0534
    1SOL     OW10809   3.513   2.358   4.772  0.2163  0.4654  0.0329
    1SOL    HW210810   3.508   2.436   4.828  0.4980 -0.3260  1.1580
    1SOL    HW310811   3.605   2.333   4.774  0.4536  1.1101 -1.7305
    1SOL    MW410812   3.524   2.365   4.779  0.2849  0.4461 -0.0515
    1SOL     OW10813   2.907   3.464   4.496  0.1874 -0.2536 -0.3312
    1SOL    HW210814   2.826   3.419   4.520 -0.6445  0.9994 -0.7197
    1SOL    HW310815   2.976   3.400   4.512 -0.9350 -1.5390 -0.5320
    1SOL    MW410816   2.905   3.449   4.501 -0.0706 -0.2577 -0.4086
    1SOL     OW10817   0.373   3.198   4.498  0.3211  0.1414 -0.1835
    1SOL    HW210818   0.446   3.215   4.557  1.7087 -0.2064 -1.7730
    1SOL    HW310819   0.360   3.103   4.504 -0.4021  0.2808  0.5464
    1SOL    MW410820   0.381   3.188   4.507  0.4087  0.1137 -0.2971
    1SOL     OW10821   1.796   3.209   4.226  0.3288  0.0153 -0.5610
    1SOL    HW210822   1.716   3.171   4.191 -0.1882  0.5876 -0.0038
    1SOL    HW310823   1.801   3.295   4.184 -0.1186  0.5690  0.5188
    1SOL    MW410824   1.786   3.216   4.216  0.2015  0.1636 -0.3448
    1SOL     OW10825   3.004   2.279   4.164 -0.0974 -0.0148  0.0240
    1SOL    HW210826   2.930   2.287   4.223  0.1803 -1.3112  0.5556
    1SOL    HW310827   2.966   2.267   4.077 -0.5376 -2.5403  0.5359
    1SOL    MW410828   2.989   2.279   4.160 -0.1187 -0.5188  0.1612
    1SOL     OW10829   2.812   3.919   4.581  0.1516  0.1043  0.0751
    1SOL    HW210830   2.731   3.869   4.567  0.1421  0.1904 -0.1757
    1SOL    HW310831   2.881   3.860   4.550 -0.0075  1.0112 -2.1068
    1SOL    MW410832   2.810   3.904   4.575  0.1290  0.2353 -0.2460
    1SOL     OW10833   1.283   4.542   4.361  0.0138  0.1628  0.5792
    1SOL    HW210834   1.312   4.588   4.440  2.1361  1.6602 -1.0068
    1SOL    HW310835   1.353   4.477   4.345 -0.6238 -0.4291  0.1715
    1SOL    MW410836   1.296   4.539   4.369  0.2096  0.2828  0.3161
    1SOL     OW10837   0.293   2.926   4.524 -0.0801  0.2492  0.2647
    1SOL    HW210838   0.378   2.885   4.542 -0.3187  0.4354  1.8692
    1SOL    HW310839   0.281   2.915   4.430  1.5760 -0.0707  0.0736
    1SOL    MW410840   0.303   2.919   4.514  0.1069  0.2317  0.4511
    1SOL     OW10841   3.590   3.073   4.595 -0.0853 -0.1063 -0.4788
    1SOL    HW210842   3.641   3.075   4.514  0.4467  1.1081 -0.1145
    1SOL    HW310843   3.534   3.151   4.590 -0.0672 -0.0455  0.3179
    1SOL    MW410844   3.589   3.084   4.583 -0.0126  0.0620 -0.3252
    1SOL     OW10845   2.071   1.825   4.513  0.0413  0.0686  0.0229
    1SOL    HW210846   2.045   1.916   4.500  0.2650  0.0927 -0.2608
    1SOL    HW310847   2.066   1.786   4.426 -1.7916 -0.6557  0.4268
    1SOL    MW410848   2.067   1.832   4.500 -0.1712 -0.0238  0.0391
    1SOL     OW10849   1.728   1.196   4.127  0.1580  0.4803 -0.3618
    1SOL    HW210850   1.716   1.110   4.169  1.5656 -0.0775 -1.0539
    1SOL    HW310851   1.786   1.244   4.186 -0.1958  0.7572 -0.2408
    1SOL    MW410852   1.734   1.191   4.140  0.2970  0.4432 -0.4373
    1SOL     OW10853   4.202   3.270   4.530 -0.0303  0.6263  0.3678
    1SOL    HW210854   4.127   3.231   4.576  1.2449 -0.7931  1.2728
    1SOL    HW310855   4.176   3.267   4.438 -0.1054 -2.1802  0.4174
    1SOL    MW410856   4.188   3.264   4.524  0.1273  0.0689  0.4930
    1SOL     OW10857   0.879   0.417   4.394 -0.0603  0.4857  0.1210
    1SOL    HW210858   0.949   0.472   4.361 -1.6409  2.1641 -0.5397
    1SOL    HW310859   0.834   0.470   4.460 -0.4626 -0.7107  0.8429
    1SOL    MW410860   0.882   0.431   4.398 -0.3219  0.5493  0.1292
    1SOL     OW10861   2.336   2.879   4.601  0.0998 -0.1746  0.0594
    1SOL    HW210862   2.335   2.840   4.689  0.6561 -1.7983 -0.6493
    1SOL    HW310863   2.391   2.821   4.549  1.6597  2.0194 -0.8211
    1SOL    MW410864   2.343   2.866   4.606  0.3793 -0.0992 -0.1507
    1SOL     OW10865   4.155   1.687   4.518  0.0378  0.2685  0.5522
    1SOL    HW210866   4.246   1.717   4.525  0.0786 -0.1211  1.8664
    1SOL    HW310867   4.161   1.592   4.528 -0.5608  0.2936  1.1280
    1SOL    MW410868   4.168   1.679   4.520 -0.0353  0.2204  0.8016
    1SOL     OW10869   1.572   2.327   4.110 -0.3708  0.1138  0.0935
    1SOL    HW210870   1.606   2.403   4.156  1.4422 -0.3622 -0.4239
    1SOL    HW310871   1.595   2.253   4.166 -1.1167 -0.1565  0.0443
    1SOL    MW410872   1.580   2.327   4.123 -0.2301  0.0150  0.0186
    1SOL     OW10873   1.128   1.788   4.478 -0.3322  0.3652 -0.1336
    1SOL    HW210874   1.180   1.790   4.559 -0.1800  1.2961 -0.2553
    1SOL    HW310875   1.040   1.763   4.507 -0.5907  1.9734  0.4829
    1SOL    MW410876   1.123   1.785   4.492 -0.3463  0.7001 -0.0682
    1SOL     OW10877   4.227   0.009   4.610 -0.0569  0.3238  0.2573
    1SOL    HW210878   4.179   0.039   4.687  0.4583  0.7991  0.3982
    1SOL    HW310879   4.299   0.071   4.601  0.8960 -0.7332  0.4097
    1SOL    MW410880   4.231   0.021   4.619  0.1369  0.2475  0.2956
    1SOL     OW10881   2.095   2.965   4.483  0.3193 -0.5956  0.0984
    1SOL    HW210882   2.103   2.923   4.397 -1.4051 -2.0274  0.6062
    1SOL    HW310883   2.171   2.935   4.531 -0.3071 -2.3157  0.0774
    1SOL    MW410884   2.106   2.956   4.478  0.0091 -1.0114  0.1631
    1SOL     OW10885   4.274   3.859   4.177  0.1240  0.1889 -0.5290
    1SOL    HW210886   4.273   3.768   4.206 -0.8479 -0.1032 -1.4453
    1SOL    HW310887   4.278   3.854   4.081 -0.2834  1.1042 -0.6041
    1SOL    MW410888   4.274   3.847   4.168 -0.0587  0.2713 -0.6595
    1SOL     OW10889   0.822   2.434   4.478  0.1469  0.1229  0.2543
    1SOL    HW210890   0.824   2.458   4.386  0.0023  1.5099  0.5878
    1SOL    HW310891   0.746   2.482   4.513 -0.4219 -1.1962  0.8806
    1SOL    MW410892   0.812   2.444   4.471  0.0528  0.1318  0.3805
    1SOL     OW10893   0.982   1.276   4.883 -0.3433 -0.0997  0.0347
    1SOL    HW210894   1.040   1.277   4.960  0.7307  0.3627 -0.7641
    1SOL    HW310895   1.034   1.234   4.814 -1.3966 -0.7560 -0.3718
    1SOL    MW410896   0.997   1.271   4.884 -0.3405 -0.1252 -0.1240
    1SOL     OW10897   4.233   2.835   4.259 -0.5505  0.3437  0.2221
    1SOL    HW210898   4.236   2.923   4.220  0.4334  1.1325  1.9816
    1SOL    HW310899   4.151   2.797   4.228 -0.3683  1.3909 -1.5982
    1SOL    MW410900   4.223   2.842   4.250 -0.3967  0.5858  0.2141
    1SOL     OW10901   0.438   0.041   4.185 -0.1212  0.1380 -0.1780
    1SOL    HW210902   0.479   0.108   4.129 -0.8341  0.1384 -0.7051
    1SOL    HW310903   0.438  -0.038   4.131  1.3798 -0.4827  0.7084
    1SOL    MW410904   0.444   0.040   4.170 -0.0172  0.0562 -0.1307
    1SOL     OW10905   3.281   2.221   4.625  0.1229  0.3217  0.1657
    1SOL    HW210906   3.255   2.306   4.590 -1.4496 -0.0196  0.4669
    1SOL    HW310907   3.332   2.242   4.704  0.2576  0.9864 -0.0948
    1SOL    MW410908   3.284   2.235   4.631 -0.0670  0.3645  0.1707
    1SOL     OW10909   0.461   1.142   4.146 -0.0999  0.1082 -0.2435
    1SOL    HW210910   0.453   1.054   4.184  1.1847 -0.3904 -1.1080
    1SOL    HW310911   0.470   1.127   4.052  0.9559  1.1134 -0.3165
    1SOL    MW410912   0.461   1.128   4.139  0.2089  0.1750 -0.3672
    1SOL     OW10913   2.188   3.247   4.242 -0.2026 -0.2235  0.1614
    1SOL    HW210914   2.138   3.195   4.179  0.5368  0.0514 -0.6535
    1SOL    HW310915   2.129   3.256   4.317 -0.5716 -1.7076  0.0663
    1SOL    MW410916   2.173   3.241   4.244 -0.1538 -0.3831  0.0420
    1SOL     OW10917   0.159   0.102   4.154 -0.1722 -0.3603 -0.2512
    1SOL    HW210918   0.239   0.098   4.206 -2.0806  1.9527  3.0604
    1SOL    HW310919   0.143   0.196   4.142 -2.0617 -0.7985 -1.3435
    1SOL    MW410920   0.168   0.114   4.159 -0.6733 -0.1129  0.0415
    1SOL     OW10921   1.286   3.804   4.385 -0.2039 -0.4064 -0.1058
    1SOL    HW210922   1.217   3.865   4.411 -0.6038 -1.5415  1.5956
    1SOL    HW310923   1.241   3.739   4.331 -0.2964 -0.6535  0.2675
    1SOL    MW410924   1.271   3.803   4.381 -0.2688 -0.5887  0.1678
    1SOL     OW10925   0.942   3.622   4.678  0.0691  0.0033 -0.2335
    1SOL    HW210926   1.021   3.632   4.732 -0.7873 -2.4576  1.5370
    1SOL    HW310927   0.968   3.561   4.609 -0.2550 -0.6833  0.2569
    1SOL    MW410928   0.956   3.615   4.676 -0.0867 -0.4120  0.0648
    1SOL     OW10929   2.450   1.084   4.502  0.1605 -0.4135 -0.0481
    1SOL    HW210930   2.413   1.148   4.562 -0.0094 -0.8354  0.2976
    1SOL    HW310931   2.455   1.130   4.418 -2.1341 -0.6813 -0.3539
    1SOL    MW410932   2.446   1.099   4.499 -0.1647 -0.5045 -0.0420
    1SOL     OW10933   2.241   0.405   4.639  0.0657  0.4567 -0.1702
    1SOL    HW210934   2.284   0.326   4.606  0.1905  0.0213  1.0093
    1SOL    HW310935   2.307   0.474   4.629  0.5926  0.0492  0.4367
    1SOL    MW410936   2.256   0.403   4.633  0.1516  0.3455  0.0653
    1SOL     OW10937   1.317   1.003   4.326 -0.2077 -0.0858 -0.0467
    1SOL    HW210938   1.378   0.930   4.339 -0.7382 -0.7767 -1.3539
    1SOL    HW310939   1.369   1.068   4.279  0.5284  0.7619  1.9091
    1SOL    MW410940   1.332   1.002   4.322 -0.1805 -0.0651  0.0386
    1SOL     OW10941   4.133   0.880   4.575  0.0140 -0.2577 -0.1739
    1SOL    HW210942   4.047   0.909   4.606 -0.9220 -2.5232 -0.5100
    1SOL    HW310943   4.127   0.887   4.480  0.6358  0.6985 -0.1481
    1SOL    MW410944   4.121   0.884   4.567 -0.0277 -0.4305 -0.2146
    1SOL     OW10945   2.302   0.837   4.586  0.4909 -0.0466  0.3415
    1SOL    HW210946   2.286   0.781   4.510 -1.9888  0.8470  0.1596
    1SOL    HW310947   2.370   0.898   4.558  1.2570 -1.2000 -0.3573
    1SOL    MW410948   2.309   0.838   4.572  0.2649 -0.0809  0.2251
    1SOL     OW10949   1.339   3.210   4.225  0.2683 -0.5261 -0.2657
    1SOL    HW210950   1.337   3.232   4.318 -0.4836  3.1078 -1.0624
    1SOL    HW310951   1.252   3.177   4.206 -0.3507  0.9928 -0.1483
    1SOL    MW410952   1.327   3.209   4.235  0.0873  0.1538 -0.3557
    1SOL     OW10953   1.090   2.327   4.081  0.0162  0.3428  0.5322
    1SOL    HW210954   1.176   2.351   4.115  1.2054 -0.6480 -1.6348
    1SOL    HW310955   1.084   2.233   4.098 -0.5327  0.3647  0.4590
    1SOL    MW410956   1.101   2.318   4.088  0.1006  0.2146  0.2365
    1SOL     OW10957   4.371   1.016   4.587  0.4163  0.0045 -0.2789
    1SOL    HW210958   4.357   1.110   4.594 -1.1956 -0.1917 -0.5410
    1SOL    HW310959   4.283   0.978   4.592  1.0765 -1.5149  0.2579
    1SOL    MW410960   4.357   1.023   4.589  0.2909 -0.2218 -0.2432
    1SOL     OW10961   4.187   0.421   4.789  0.1195 -0.1773 -0.0301
    1SOL    HW210962   4.280   0.401   4.795  0.1266 -0.0434  0.3068
    1SOL    HW310963   4.181   0.490   4.723  0.2269 -0.3802 -0.2553
    1SOL    MW410964   4.198   0.427   4.781  0.1345 -0.1864 -0.0157
    1SOL     OW10965   3.468   1.056   4.665  0.0604 -0.2423  0.4797
    1SOL    HW210966   3.422   1.124   4.616  0.4440 -0.8166 -0.7056
    1SOL    HW310967   3.543   1.101   4.703 -1.5213  0.7319  2.5482
    1SOL    MW410968   3.472   1.071   4.664 -0.0980 -0.1893  0.5965
    1SOL     OW10969   3.097   0.099   4.553 -0.9430  0.3799 -0.3700
    1SOL    HW210970   3.101   0.014   4.597  1.5024  0.5670 -0.1612
    1SOL    HW310971   3.023   0.144   4.594  0.4037  0.0221  2.5545
    1SOL    MW410972   3.088   0.093   4.564 -0.4425  0.3575  0.0439
    1SOL     OW10973   0.825   4.621   4.279  0.5124 -0.1798 -0.3279
    1SOL    HW210974   0.756   4.556   4.266  1.4119 -0.6638 -2.9788
    1SOL    HW310975   0.805   4.690   4.215  1.9719  0.0866 -0.5244
    1SOL    MW410976   0.813   4.622   4.269  0.8237 -0.2084 -0.7038
    1SOL     OW10977   0.378   2.193   4.546  0.3899  0.2135 -0.5678
    1SOL    HW210978   0.388   2.116   4.601 -0.1493  0.4733 -0.0915
    1SOL    HW310979   0.339   2.160   4.464 -0.6983  0.1052 -0.0159
    1SOL    MW410980   0.374   2.179   4.542  0.1752  0.2334 -0.4320
    1SOL     OW10981   1.904   1.341   4.299  0.2878  0.1291  0.0895
    1SOL    HW210982   1.959   1.391   4.237  1.2351 -0.0853  0.7487
    1SOL    HW310983   1.967   1.302   4.360 -0.4731 -1.7116 -0.2966
    1SOL    MW410984   1.920   1.343   4.299  0.3123 -0.1421  0.1259
    1SOL     OW10985   4.252   4.615   4.130 -0.2292  0.1181  0.0436
    1SOL    HW210986   4.174   4.665   4.152  0.6209  0.5540  2.1681
    1SOL    HW310987   4.316   4.639   4.197  0.5483 -2.9892  0.4737
    1SOL    MW410988   4.250   4.625   4.142 -0.0148 -0.2341  0.3805
    1SOL     OW10989   2.701   2.648   4.658 -0.4430  0.0523 -0.1906
    1SOL    HW210990   2.631   2.652   4.593 -0.0997  0.2189 -0.5513
    1SOL    HW310991   2.778   2.621   4.609  0.0405  1.1114 -0.0445
    1SOL    MW410992   2.702   2.645   4.643 -0.3338  0.2141 -0.2193
    1SOL     OW10993   2.058   4.410   4.509  0.4587 -0.0838  0.2246
    1SOL    HW210994   2.039   4.396   4.416  1.2639 -0.3692  0.1010
    1SOL    HW310995   1.981   4.456   4.542 -1.0107 -2.3517  0.0417
    1SOL    MW410996   2.046   4.415   4.501  0.3710 -0.4206  0.1841
    1SOL     OW10997   3.428   4.117   4.490 -0.4240 -0.3880 -0.6773
    1SOL    HW210998   3.383   4.201   4.480 -0.0795  0.0659  1.3118
    1SOL    HW310999   3.520   4.140   4.499 -0.3578 -0.9592  0.1549
    1SOL    MW411000   3.434   4.131   4.490 -0.3695 -0.4029 -0.3052
    1SOL     OW11001   3.786   4.439   4.454 -0.3965 -0.4995  0.2948
    1SOL    HW211002   3.774   4.344   4.457 -0.6817 -0.4835 -0.3482
    1SOL    HW311003   3.702   4.474   4.483 -0.4215 -0.4425  0.1545
    1SOL    MW411004   3.774   4.431   4.458 -0.4375 -0.4897  0.1917
    1SOL     OW11005   3.073   2.032   4.553  0.1396  0.3204  0.0374
    1SOL    HW211006   3.135   2.084   4.604  2.5965 -3.2264  0.7964
    1SOL    HW311007   3.099   2.044   4.462 -0.1761  1.4934  0.0987
    1SOL    MW411008   3.084   2.040   4.548  0.4220  0.0072  0.1454
    1SOL     OW11009   1.727   4.300   4.210 -0.1549  1.0275 -0.1775
    1SOL    HW211010   1.719   4.296   4.115  0.9941 -0.8693 -0.2332
    1SOL    HW311011   1.821   4.314   4.226 -0.1607  0.2606  0.6596
    1SOL    MW411012   1.738   4.301   4.200 -0.0041  0.6757 -0.0744
    1SOL     OW11013   2.313   1.086   4.112 -0.4339  0.0862  0.1720
    1SOL    HW211014   2.361   1.151   4.164  0.4624  0.5468 -1.2172
    1SOL    HW311015   2.373   1.011   4.105 -0.5945 -0.0181 -0.1078
    1SOL    MW411016   2.327   1.085   4.118 -0.3366  0.1333 -0.0477
    1SOL     OW11017   0.788   4.100   4.704 -0.0009  0.2290  0.4673
    1SOL    HW211018   0.860   4.162   4.694 -0.7358  1.3481  1.8040
    1SOL    HW311019   0.709   4.153   4.690 -0.5554 -1.0546 -1.3358
    1SOL    MW411020   0.787   4.115   4.701 -0.1710  0.2069  0.4058
    1SOL     OW11021   2.884   0.461   4.535 -0.2684  0.1986  0.0381
    1SOL    HW211022   2.962   0.516   4.526  0.2256 -0.4253  0.3821
    1SOL    HW311023   2.811   0.522   4.540  0.2674  0.8160  0.3674
    1SOL    MW411024   2.885   0.476   4.535 -0.1326  0.1977  0.1273
    1SOL     OW11025   4.095   1.687   4.249  0.1542  0.2935  0.3525
    1SOL    HW211026   4.166   1.636   4.211 -1.8684 -2.0675 -0.4174
    1SOL    HW311027   4.115   1.691   4.342  0.5994 -1.5843  0.3597
    1SOL    MW411028   4.107   1.681   4.256 -0.0539 -0.2657  0.2518
    1SOL     OW11029   2.307   1.300   4.638 -0.2548 -0.2143  0.3581
    1SOL    HW211030   2.374   1.367   4.627 -0.5407 -0.0733 -0.5335
    1SOL    HW311031   2.293   1.296   4.732 -0.6207  1.3534  0.3877
    1SOL    MW411032   2.314   1.308   4.649 -0.3407  0.0111  0.2451
    1SOL     OW11033   0.839   1.759   4.504 -0.5470 -0.2253  0.0219
    1SOL    HW211034   0.781   1.834   4.520 -1.6258 -0.8880 -0.6931
    1SOL    HW311035   0.844   1.752   4.408  1.3453  0.2924  0.0665
    1SOL    MW411036   0.832   1.768   4.493 -0.4396 -0.2445 -0.0668
    1SOL     OW11037   2.855   2.709   4.303 -0.0356  0.2252 -0.4548
    1SOL    HW211038   2.827   2.788   4.348 -0.2845 -0.7924  1.2153
    1SOL    HW311039   2.798   2.703   4.226 -1.5751  0.4306  0.6597
    1SOL    MW411040   2.844   2.719   4.299 -0.2716  0.1180 -0.0873
    1SOL     OW11041   1.527   0.808   4.332  0.0842  0.6573  0.1330
    1SOL    HW211042   1.604   0.859   4.309 -0.5537  1.1484 -0.9460
    1SOL    HW311043   1.497   0.771   4.249  0.1683 -0.9610  0.7980
    1SOL    MW411044   1.533   0.809   4.318  0.0111  0.5086  0.0787
    1SOL     OW11045   4.246   2.548   4.580  0.0652  0.0447 -0.2168
    1SOL    HW211046   4.332   2.542   4.538  0.4974 -0.7746  0.7704
    1SOL    HW311047   4.241   2.639   4.609  1.0481 -0.1663  0.6478
    1SOL    MW411048   4.257   2.560   4.578  0.2518 -0.0913  0.0277
    1SOL     OW11049   4.029   3.979   4.204 -0.6993 -0.5272  0.2890
    1SOL    HW211050   4.110   3.927   4.207 -0.8679 -0.7034  2.1582
    1SOL    HW311051   4.003   3.989   4.295 -1.0908  2.2352 -0.0887
    1SOL    MW411052   4.036   3.973   4.216 -0.7734 -0.1860  0.4854
    1SOL     OW11053   3.286   3.716   4.498  0.1809 -0.2841 -0.1689
    1SOL    HW211054   3.356   3.662   4.536 -0.3251  0.2408  1.5567
    1SOL    HW311055   3.284   3.795   4.551 -0.6343  0.4372 -1.2371
    1SOL    MW411056   3.295   3.719   4.510  0.0067 -0.1194 -0.0825
    1SOL     OW11057   0.486   0.088   4.464  0.1012 -0.3434  0.0578
    1SOL    HW211058   0.465   0.076   4.372  1.7771 -1.7841 -0.1534
    1SOL    HW311059   0.477   0.183   4.479 -0.1159 -0.1026 -1.5941
    1SOL    MW411060   0.482   0.099   4.454  0.2936 -0.5018 -0.1874
    1SOL     OW11061   0.800   3.215   4.536 -0.0026 -0.1101  0.1837
    1SOL    HW211062   0.831   3.238   4.624 -1.5736 -0.1384  0.7594
    1SOL    HW311063   0.731   3.278   4.517 -0.1129 -0.5097 -0.7763
    1SOL    MW411064   0.795   3.226   4.545 -0.2244 -0.1667  0.1330
    1SOL     OW11065   0.080   2.733   4.605  0.0592 -0.3383 -0.4018
    1SOL    HW211066   0.000   2.785   4.611  0.7548  0.6943  0.0327
    1SOL    HW311067   0.146   2.794   4.572  0.4245 -1.4651 -1.8523
    1SOL    MW411068   0.078   2.748   4.601  0.1992 -0.3510 -0.5355
    1SOL     OW11069   1.903   1.384   4.707  0.1301 -0.4552 -0.2876
    1SOL    HW211070   1.809   1.371   4.694  0.0299 -1.3643  1.2362
    1SOL    HW311071   1.918   1.477   4.688 -1.3768  0.0965  1.1581
    1SOL    MW411072   1.893   1.395   4.703 -0.0820 -0.5025  0.1040
    1SOL     OW11073   0.453   0.879   4.228 -0.1862 -0.1779 -0.0747
    1SOL    HW211074   0.525   0.817   4.217 -0.8566 -1.2475  1.3391
    1SOL    HW311075   0.378   0.838   4.184 -0.4887 -0.1073  0.3688
    1SOL    MW411076   0.452   0.865   4.221 -0.3146 -0.3098  0.1698
    1SOL     OW11077   2.384   1.706   4.311  0.2014  0.4691 -0.1429
    1SOL    HW211078   2.357   1.714   4.402 -0.7064 -1.6283 -0.1965
    1SOL    HW311079   2.329   1.769   4.264 -1.3626 -0.4614  0.3995
    1SOL    MW411080   2.373   1.716   4.317 -0.1245  0.0695 -0.0787
    1SOL     OW11081   3.766   2.275   4.646 -0.1303 -0.2294 -1.0836
    1SOL    HW211082   3.848   2.322   4.631 -0.0305 -0.1271 -0.2269
    1SOL    HW311083   3.710   2.301   4.572  0.7387 -0.6105 -1.8918
    1SOL    MW411084   3.770   2.285   4.634 -0.0024 -0.2661 -1.0772
    1SOL     OW11085   2.350   2.435   4.723 -0.3153  0.0504  0.1277
    1SOL    HW211086   2.362   2.452   4.630 -1.3165 -1.1192 -0.2334
    1SOL    HW311087   2.438   2.413   4.755  0.0608  0.6489 -0.5022
    1SOL    MW411088   2.364   2.434   4.715 -0.3977 -0.0250 -0.0029
    1SOL     OW11089   1.198   1.326   4.277 -0.1803 -0.2238 -0.2657
    1SOL    HW211090   1.287   1.299   4.258 -0.9082 -2.2866 -0.8508
    1SOL    HW311091   1.201   1.357   4.368  1.1608 -0.0507 -0.3597
    1SOL    MW411092   1.210   1.327   4.287 -0.0995 -0.4731 -0.3548
    1SOL     OW11093   3.360   1.266   4.537 -0.0655 -0.0394 -0.4266
    1SOL    HW211094   3.369   1.254   4.442 -0.5615 -0.9242 -0.3748
    1SOL    HW311095   3.266   1.280   4.551  0.2112  1.6260 -0.2176
    1SOL    MW411096   3.349   1.266   4.526 -0.0944  0.0635 -0.3924
    1SOL     OW11097   1.790   4.024   4.221 -0.8794 -0.0654 -0.4335
    1SOL    HW211098   1.784   4.120   4.213  0.0686 -0.0051 -0.4695
    1SOL    HW311099   1.772   4.008   4.314  1.3577  0.3705  0.1134
    1SOL    MW411100   1.787   4.035   4.232 -0.4592  0.0000 -0.3657
    1SOL     OW11101   4.083   0.879   4.319  0.0058 -0.2274  0.1687
    1SOL    HW211102   3.998   0.840   4.296 -0.0498  0.0318 -0.0793
    1SOL    HW311103   4.145   0.836   4.260 -0.0967  0.2474 -0.2941
    1SOL    MW411104   4.080   0.868   4.308 -0.0143 -0.1306  0.0749
    1SOL     OW11105   0.245   0.518   4.254  0.0124  0.0493  0.3317
    1SOL    HW211106   0.213   0.456   4.189 -1.0211  0.8353  0.0748
    1SOL    HW311107   0.340   0.514   4.246 -0.0771 -0.6503 -0.4807
    1SOL    MW411108   0.254   0.510   4.244 -0.1357  0.0607  0.1903
    1SOL     OW11109   1.348   3.032   4.617 -0.2025  0.3704  0.3939
    1SOL    HW211110   1.357   3.055   4.709  1.7644  0.6604  0.1687
    1SOL    HW311111   1.263   2.990   4.610  0.4971 -1.5530  2.7528
    1SOL    MW411112   1.338   3.030   4.628  0.1491  0.1552  0.6757
    1SOL     OW11113   1.683   3.973   4.487 -0.2452  0.3355  0.1867
    1SOL    HW211114   1.629   4.047   4.515 -0.1247  0.8987 -1.0609
    1SOL    HW311115   1.767   3.989   4.529 -0.7169  0.0214  1.2693
    1SOL    MW411116   1.687   3.985   4.496 -0.2916  0.3684  0.1650
    1SOL     OW11117   4.490   3.968   4.290  0.4640 -0.2597 -0.0793
    1SOL    HW211118   4.480   4.061   4.270  0.0471 -0.4573 -0.7969
    1SOL    HW311119   4.413   3.927   4.251 -0.0084 -0.7414  1.3289
    1SOL    MW411120   4.478   3.975   4.282  0.3467 -0.3493  0.0124
    1SOL     OW11121   0.727   4.647   4.521 -0.2858 -0.4238 -0.0792
    1SOL    HW211122   0.766   4.629   4.436  0.0852  2.5393 -0.5923
    1SOL    HW311123   0.652   4.703   4.501 -0.0285  0.5231  1.5372
    1SOL    MW411124   0.722   4.652   4.507 -0.2030  0.0921  0.0663
    1SOL     OW11125   0.856   2.944   4.468 -0.3452 -0.0977  0.7404
    1SOL    HW211126   0.818   3.031   4.482  1.5336  0.8967 -0.1794
    1SOL    HW311127   0.799   2.902   4.403  1.0203  2.0084 -1.9057
    1SOL    MW411128   0.844   2.950   4.461  0.0828  0.3114  0.2699
    1SOL     OW11129   0.070   0.351   4.088  0.4300  0.3362 -0.1414
    1SOL    HW211130   0.055   0.356   3.993 -0.1109 -1.8018 -0.2082
    1SOL    HW311131  -0.010   0.385   4.127  0.4154  0.6693 -0.4607
    1SOL    MW411132   0.058   0.356   4.081  0.3567  0.0980 -0.1922
    1SOL     OW11133   1.376   1.967   4.136  0.1410  0.4819 -0.5609
    1SOL    HW211134   1.433   2.018   4.194 -1.4330  0.7559  0.7566
    1SOL    HW311135   1.368   1.882   4.180 -0.0173  0.2552 -1.0266
    1SOL    MW411136   1.383   1.962   4.149 -0.0875  0.4882 -0.4482
    1SOL     OW11137   1.580   3.059   4.116 -0.0477 -0.1161 -0.2408
    1SOL    HW211138   1.506   3.106   4.154  0.6036  1.3365 -0.7383
    1SOL    HW311139   1.570   2.969   4.148 -1.3133  0.3454  0.7101
    1SOL    MW411140   1.568   3.053   4.125 -0.1289  0.1364 -0.1807
    1SOL     OW11141   2.466   3.612   4.213  0.4062 -0.4473 -0.0629
    1SOL    HW211142   2.388   3.565   4.184  0.6864 -1.3367  0.5633
    1SOL    HW311143   2.471   3.594   4.307  0.9087  0.2740  0.0521
    1SOL    MW411144   2.456   3.603   4.222  0.5093 -0.4697  0.0348
    1SOL     OW11145   2.601   2.434   4.233 -0.5249  0.0751  0.0318
    1SOL    HW211146   2.530   2.454   4.295 -0.2043  0.0796  0.4013
    1SOL    HW311147   2.561   2.373   4.171 -0.3783 -1.3086  1.2583
    1SOL    MW411148   2.586   2.428   4.233 -0.4632 -0.1066  0.2427
    1SOL     OW11149   0.246   4.106   4.630  0.4251  0.3087  0.0133
    1SOL    HW211150   0.176   4.170   4.614 -0.1103 -0.6356 -1.5345
    1SOL    HW311151   0.320   4.159   4.661 -0.6010  1.4478  0.5976
    1SOL    MW411152   0.246   4.122   4.632  0.2191  0.3343 -0.1135
    1SOL     OW11153   0.848   2.458   4.212 -0.2627  0.2818  0.2850
    1SOL    HW211154   0.770   2.406   4.193  0.5699 -0.5295 -1.0344
    1SOL    HW311155   0.921   2.400   4.188  0.7561  0.7719  2.1513
    1SOL    MW411156   0.847   2.443   4.206 -0.0184  0.2394  0.3572
    1SOL     OW11157   1.715   1.900   4.381 -0.4452  0.5591  0.3006
    1SOL    HW211158   1.801   1.925   4.414  0.0389  0.0295 -0.5332
    1SOL    HW311159   1.734   1.841   4.308 -1.5077  1.0943 -0.4104
    1SOL    MW411160   1.729   1.895   4.376 -0.5215  0.5599  0.0973
    1SOL     OW11161   2.618   4.100   4.474  0.2176 -0.0624 -0.1798
    1SOL    HW211162   2.696   4.060   4.513  1.2391 -0.3857 -2.4705
    1SOL    HW311163   2.548   4.037   4.489  0.5242 -0.0817  1.2935
    1SOL    MW411164   2.619   4.087   4.481  0.3927 -0.1078 -0.2875
    1SOL     OW11165   4.106   1.443   4.664 -0.4528  0.0503  0.1607
    1SOL    HW211166   4.028   1.392   4.644 -0.8517  0.5272  0.4983
    1SOL    HW311167   4.076   1.511   4.725  0.1016  0.6027 -0.1769
    1SOL    MW411168   4.092   1.445   4.670 -0.4320  0.1861  0.1602
    1SOL     OW11169   3.858   1.568   4.130 -0.1959 -0.0317  0.3625
    1SOL    HW211170   3.790   1.574   4.198 -0.2344 -0.4454  0.3617
    1SOL    HW311171   3.932   1.617   4.166 -0.0186 -0.7228  0.9419
    1SOL    MW411172   3.859   1.576   4.143 -0.1774 -0.1775  0.4387
    1SOL     OW11173   4.298   1.263   4.306 -0.4458  0.0637  0.0146
    1SOL    HW211174   4.206   1.236   4.300  0.2487 -2.2611 -0.6968
    1SOL    HW311175   4.315   1.271   4.400 -1.9639  2.7883  0.1181
    1SOL    MW411176   4.288   1.261   4.317 -0.5546  0.1166 -0.0648
    1SOL     OW11177   2.270   0.332   4.302  0.0525  0.2648 -0.4687
    1SOL    HW211178   2.298   0.300   4.388  1.4096  0.3750 -0.8597
    1SOL    HW311179   2.191   0.384   4.320 -0.5814 -1.0052  0.5054
    1SOL    MW411180   2.263   0.335   4.315  0.1476  0.1118 -0.3920
    1SOL     OW11181   1.180   1.715   4.754 -0.1459 -0.2422 -0.4294
    1SOL    HW211182   1.106   1.655   4.763 -0.2600 -0.1012 -0.4074
    1SOL    HW311183   1.141   1.802   4.768  0.4077 -0.3123  1.7256
    1SOL    MW411184   1.165   1.719   4.757 -0.0880 -0.2329 -0.1416
    1SOL     OW11185   1.562   1.118   4.589 -0.1935 -0.0334 -0.4093
    1SOL    HW211186   1.593   1.208   4.603  0.3018  0.1852 -2.7998
    1SOL    HW311187   1.642   1.066   4.583 -0.4267 -0.2869 -1.3231
    1SOL    MW411188   1.577   1.123   4.590 -0.1589 -0.0380 -0.8454
    1SOL     OW11189   3.399   1.272   4.260  0.1788 -0.1135  0.1209
    1SOL    HW211190   3.394   1.362   4.226  1.2939 -1.0865 -2.7806
    1SOL    HW311191   3.322   1.228   4.225  0.3748 -0.6582  0.3651
    1SOL    MW411192   3.388   1.278   4.251  0.3517 -0.3138 -0.2294
    1SOL     OW11193   1.742   0.967   4.276 -0.2513  0.0454 -0.2307
    1SOL    HW211194   1.796   0.899   4.235 -0.4144 -0.5090  0.4504
    1SOL    HW311195   1.765   0.962   4.369 -0.0248  1.1567 -0.2258
    1SOL    MW411196   1.752   0.957   4.283 -0.2429  0.1189 -0.1402
    1SOL     OW11197   1.774   1.813   4.106  0.0655 -0.9460 -0.1928
    1SOL    HW211198   1.861   1.799   4.143 -0.1017  0.7609  0.8949
    1SOL    HW311199   1.790   1.854   4.021  0.3545 -1.8268 -0.5645
    1SOL    MW411200   1.788   1.817   4.100  0.0815 -0.8371 -0.0982
    1SOL     OW11201   2.430   2.063   4.282 -0.4861  0.3216 -0.1118
    1SOL    HW211202   2.361   2.010   4.242 -1.4851  1.0141  0.6621
    1SOL    HW311203   2.383   2.123   4.339  0.6841  1.5921 -0.4745
    1SOL    MW411204   2.414   2.064   4.284 -0.4635  0.5805 -0.0572
    1SOL     OW11205   3.150   2.059   4.288 -0.2799  0.1765 -0.4942
    1SOL    HW211206   3.125   2.145   4.254 -1.0662  0.8652  1.7810
    1SOL    HW311207   3.243   2.051   4.268 -0.4100  1.1562 -1.5335
    1SOL    MW411208   3.159   2.069   4.281 -0.4010  0.3965 -0.3314
    1SOL     OW11209   2.202   3.493   4.486 -0.3060  0.4687  0.0100
    1SOL    HW211210   2.142   3.538   4.427 -0.4071  0.0934 -0.1771
    1SOL    HW311211   2.161   3.408   4.501  0.3839  0.0475 -0.4615
    1SOL    MW411212   2.189   3.488   4.480 -0.2282  0.3633 -0.0772
    1SOL     OW11213   1.679   2.542   4.251 -0.1242  0.1727  0.2754
    1SOL    HW211214   1.727   2.497   4.320  2.2158  1.6440 -0.3055
    1SOL    HW311215   1.748   2.576   4.194 -1.9254  1.9083 -0.9016
    1SOL    MW411216   1.694   2.540   4.252 -0.0532  0.5956  0.0429
    1SOL     OW11217   3.910   1.264   4.546  0.3052  0.3021 -0.2729
    1SOL    HW211218   3.874   1.351   4.527 -1.0687 -0.4351 -1.0973
    1SOL    HW311219   3.943   1.232   4.462 -2.4286 -1.4293 -0.7294
    1SOL    MW411220   3.910   1.271   4.533 -0.2365 -0.0236 -0.4420
    1SOL     OW11221   0.428   3.958   4.345 -0.0802  0.2207  0.1685
    1SOL    HW211222   0.520   3.938   4.327  0.3238  0.9476  1.4083
    1SOL    HW311223   0.406   3.905   4.421 -0.6327  0.2131  0.0030
    1SOL    MW411224   0.437   3.949   4.352 -0.0997  0.3154  0.3099
    1SOL     OW11225   2.902   2.520   4.496  0.3907 -0.1149  0.4370
    1SOL    HW211226   2.849   2.448   4.461  1.2425 -0.5385  0.0009
    1SOL    HW311227   2.889   2.591   4.434  1.6645 -0.7695 -0.6093
    1SOL    MW411228   2.894   2.520   4.483  0.6711 -0.2570  0.2413
    1SOL     OW11229   2.910   3.093   4.187  0.7683 -0.2611 -0.1478
    1SOL    HW211230   2.910   3.066   4.095 -0.0557 -1.5400  0.2187
    1SOL    HW311231   2.980   3.158   4.192  0.7396 -0.0864 -1.7055
    1SOL    MW411232   2.919   3.098   4.175  0.6559 -0.4065 -0.3047
    1SOL     OW11233   1.592   2.870   4.524  0.1901  0.0560 -0.1414
    1SOL    HW211234   1.668   2.922   4.552  0.3548 -0.4440  0.3513
    1SOL    HW311235   1.516   2.922   4.550  0.3373  2.1489 -3.5969
    1SOL    MW411236   1.592   2.884   4.531  0.2313  0.2661 -0.5326
    1SOL     OW11237   1.423   0.672   4.077  0.1227  0.0151  0.0029
    1SOL    HW211238   1.463   0.711   3.999 -1.5935  1.0294 -0.3800
    1SOL    HW311239   1.330   0.671   4.058 -0.1082 -1.7505  1.1600
    1SOL    MW411240   1.416   0.677   4.064 -0.1342 -0.0840  0.1054
    1SOL     OW11241   1.175   1.432   4.539  0.0659 -0.0021  0.3728
    1SOL    HW211242   1.108   1.479   4.588 -0.0598  1.0437 -0.7753
    1SOL    HW311243   1.257   1.475   4.562  0.2290 -0.6576  1.0320
    1SOL    MW411244   1.177   1.444   4.548  0.0709  0.0495  0.3085
    1SOL     OW11245   0.313   2.543   4.631 -0.3749 -0.4506  0.0466
    1SOL    HW211246   0.256   2.473   4.663 -1.2230 -1.0369 -2.5838
    1SOL    HW311247   0.257   2.620   4.627 -0.2529 -0.3621  0.0419
    1SOL    MW411248   0.298   2.544   4.635 -0.4707 -0.5164 -0.3009
    1SOL     OW11249   3.436   2.026   4.239  0.2470  0.1747 -0.1311
    1SOL    HW211250   3.450   2.116   4.209  2.3588  0.0685  0.4381
    1SOL    HW311251   3.448   2.031   4.334 -1.1183 -0.4449  0.0782
    1SOL    MW411252   3.440   2.038   4.248  0.3455  0.0789 -0.0281
    1SOL     OW11253   4.155   4.141   4.599  0.2719  0.4776 -0.3734
    1SOL    HW211254   4.171   4.232   4.576  1.4351  0.2665 -0.4267
    1SOL    HW311255   4.242   4.101   4.602 -0.3441 -1.1570 -2.5588
    1SOL    MW411256   4.169   4.148   4.596  0.3443  0.2346 -0.6690
    1SOL     OW11257   3.493   3.555   4.609  0.4610 -0.4888  0.6644
    1SOL    HW211258   3.559   3.620   4.584  0.1358 -0.4939 -0.2120
    1SOL    HW311259   3.507   3.542   4.703 -1.1995  2.8363  1.4745
    1SOL    MW411260   3.503   3.562   4.618  0.1991 -0.0508  0.6557
    1SOL     OW11261   0.556   3.870   4.761 -0.3549  0.1819  0.2411
    1SOL    HW211262   0.553   3.859   4.856 -2.1431  0.0621  0.1748
    1SOL    HW311263   0.574   3.963   4.748  2.5526 -0.2693  0.6939
    1SOL    MW411264   0.558   3.881   4.771 -0.2072  0.1063  0.2918
    1SOL     OW11265   3.142   0.391   4.191 -0.0042 -0.0726  0.0485
    1SOL    HW211266   3.064   0.438   4.220  0.1302  0.4642 -0.4492
    1SOL    HW311267   3.214   0.450   4.213  0.2223 -0.3484  0.0445
    1SOL    MW411268   3.141   0.405   4.198  0.0434 -0.0382 -0.0172
    1SOL     OW11269   0.233   3.116   4.129 -0.3594 -0.7051  0.2199
    1SOL    HW211270   0.300   3.160   4.181  0.7237 -2.3514  0.2530
    1SOL    HW311271   0.151   3.133   4.176  0.1445  0.6152  0.6341
    1SOL    MW411272   0.231   3.124   4.142 -0.1500 -0.7482  0.2789
    1SOL     OW11273   0.980   1.517   4.757  0.2929 -0.1526 -0.2020
    1SOL    HW211274   0.973   1.447   4.822 -0.6230 -0.3171 -0.4662
    1SOL    HW311275   0.894   1.518   4.715  0.0450  1.6179  0.3038
    1SOL    MW411276   0.967   1.508   4.760  0.1394  0.0594 -0.1702
    1SOL     OW11277   2.227   3.495   4.126 -0.0655 -0.1503 -0.3452
    1SOL    HW211278   2.210   3.402   4.141 -1.8199  0.1728 -0.2109
    1SOL    HW311279   2.170   3.540   4.188  1.1048  1.0174 -0.0989
    1SOL    MW411280   2.217   3.488   4.136 -0.1423  0.0463 -0.2952
    1SOL     OW11281   3.834   0.497   4.559 -0.0347  0.5767  0.3066
    1SOL    HW211282   3.830   0.402   4.576  0.1665  0.9356  2.5189
    1SOL    HW311283   3.749   0.530   4.587  0.2206  1.1787  0.3677
    1SOL    MW411284   3.822   0.489   4.565  0.0255  0.7035  0.6065
    1SOL     OW11285   2.250   0.696   4.353 -0.1672 -0.2456  0.1942
    1SOL    HW211286   2.210   0.764   4.299 -0.7065 -0.1841  0.6667
    1SOL    HW311287   2.339   0.688   4.320 -0.2478  0.3642 -0.1703
    1SOL    MW411288   2.256   0.704   4.342 -0.2491 -0.1571  0.2084
    1SOL     OW11289   0.103   3.319   4.553 -0.3105 -0.2064  0.1400
    1SOL    HW211290   0.098   3.413   4.538  0.6835  0.1450  1.8993
    1SOL    HW311291   0.196   3.301   4.559 -0.5167 -1.2007  0.4177
    1SOL    MW411292   0.114   3.329   4.552 -0.2065 -0.2913  0.4091
    1SOL     OW11293   2.405   0.453   4.112 -0.2867 -0.6256  0.3634
    1SOL    HW211294   2.346   0.446   4.036 -0.2789  0.8553  0.2042
    1SOL    HW311295   2.360   0.406   4.182 -1.3188 -0.1481  0.0307
    1SOL    MW411296   2.391   0.446   4.111 -0.4215 -0.3673  0.2990
    1SOL     OW11297   3.630   0.886   4.287  0.6856 -0.0498 -0.0317
    1SOL    HW211298   3.560   0.843   4.237  0.8796  0.2026 -0.5156
    1SOL    HW311299   3.650   0.965   4.237  2.6359 -1.0772 -0.8909
    1SOL    MW411300   3.623   0.890   4.274  0.9685 -0.1521 -0.2093
    1SOL     OW11301   0.676   3.613   4.663  0.4590 -0.4595  0.1138
    1SOL    HW211302   0.769   3.626   4.683  0.7735  1.9502 -2.5482
    1SOL    HW311303   0.636   3.698   4.681 -0.9077 -0.9573 -0.5360
    1SOL    MW411304   0.683   3.626   4.668  0.3201 -0.2072 -0.3223
    1SOL     OW11305   2.421   2.036   4.604  0.0485  0.2861  0.4674
    1SOL    HW211306   2.346   2.085   4.636 -0.0221  0.2600  0.3420
    1SOL    HW311307   2.475   2.102   4.559 -1.8321 -0.3742 -2.9064
    1SOL    MW411308   2.418   2.051   4.602 -0.2086  0.1955  0.0057
    1SOL     OW11309   0.905   1.671   4.241 -0.2911 -0.1534  0.1883
    1SOL    HW211310   0.826   1.628   4.212 -0.1286 -0.8310  0.7488
    1SOL    HW311311   0.913   1.748   4.184 -1.8752  0.4711  0.7720
    1SOL    MW411312   0.896   1.676   4.230 -0.4787 -0.1605  0.3395
    1SOL     OW11313   3.623   1.657   4.280  0.1684  0.1725  0.2824
    1SOL    HW211314   3.576   1.680   4.360 -0.7983 -3.0380  0.7280
    1SOL    HW311315   3.557   1.615   4.225  1.7963 -1.6224 -0.3547
    1SOL    MW411316   3.608   1.654   4.284  0.2553 -0.4878  0.2570
    1SOL     OW11317   3.332   2.865   4.262 -0.6755 -0.0636 -0.1912
    1SOL    HW211318   3.251   2.816   4.248 -2.1877  2.3471 -0.1337
    1SOL    HW311319   3.352   2.851   4.355 -0.0392 -2.0749 -0.6049
    1SOL    MW411320   3.324   2.857   4.273 -0.7911 -0.0110 -0.2379
    1SOL     OW11321   3.637   2.643   4.503 -0.0234 -0.2400  0.5132
    1SOL    HW211322   3.717   2.638   4.555 -0.2268  0.2555  0.8793
    1SOL    HW311323   3.610   2.552   4.491  0.5913 -0.4051  0.3917
    1SOL    MW411324   3.644   2.631   4.508  0.0308 -0.1965  0.5455
    1SOL     OW11325   1.129   0.079   4.743 -0.2244  0.0149 -0.1685
    1SOL    HW211326   1.062   0.125   4.693 -0.1818  0.1502 -0.1010
    1SOL    HW311327   1.082   0.038   4.815  0.0235  1.7034  0.9938
    1SOL    MW411328   1.114   0.079   4.746 -0.1861  0.2555 -0.0062
    1SOL     OW11329   1.472   4.339   4.311  0.2479 -0.3506  0.3726
    1SOL    HW211330   1.562   4.336   4.277  0.2572  1.9553  0.0675
    1SOL    HW311331   1.419   4.305   4.239  0.7044  0.1415 -0.2074
    1SOL    MW411332   1.477   4.334   4.297  0.3096  0.0191  0.2556
    1SOL     OW11333   3.044   1.859   4.091 -0.0163  0.1474 -0.0881
    1SOL    HW211334   2.949   1.855   4.102  0.0799 -1.5708  0.1683
    1SOL    HW311335   3.072   1.931   4.148 -1.4087  2.2735 -1.9644
    1SOL    MW411336   3.036   1.868   4.100 -0.1876  0.2011 -0.3018
    1SOL     OW11337   3.659   1.151   4.170  0.2499  0.0674 -0.5028
    1SOL    HW211338   3.651   1.136   4.076 -0.1671 -0.9622 -0.3029
    1SOL    HW311339   3.574   1.187   4.196  0.4379  0.5522 -0.5591
    1SOL    MW411340   3.647   1.154   4.161  0.2198 -0.0045 -0.4845
    1SOL     OW11341   1.664   0.398   4.126 -0.2213 -0.0604 -0.3577
    1SOL    HW211342   1.574   0.374   4.105  0.2312 -1.5699 -0.5844
    1SOL    HW311343   1.696   0.327   4.180  0.1950  1.4630  1.4485
    1SOL    MW411344   1.656   0.385   4.130 -0.1067 -0.0586 -0.1493
    1SOL     OW11345   3.356   4.385   4.210  0.9420  0.2137  0.2891
    1SOL    HW211346   3.340   4.390   4.304  0.8568 -0.3111  0.3032
    1SOL    HW311347   3.362   4.477   4.181 -0.1130  0.3893  0.6142
    1SOL    MW411348   3.355   4.398   4.218  0.7915  0.1674  0.3338
    1SOL     OW11349   2.494   0.644   4.291 -0.4984  0.2005  0.0897
    1SOL    HW211350   2.507   0.722   4.237 -0.7853 -0.5463 -1.0851
    1SOL    HW311351   2.479   0.574   4.228 -0.2168 -0.8138  1.1341
    1SOL    MW411352   2.494   0.645   4.275 -0.4988 -0.0319  0.0730
    1SOL     OW11353   2.702   2.651   4.091  0.0784 -0.1358 -0.3486
    1SOL    HW211354   2.630   2.711   4.113 -0.7776 -0.3764 -2.4394
    1SOL    HW311355   2.678   2.569   4.134 -0.1851  0.1950  0.1487
    1SOL    MW411356   2.689   2.648   4.100 -0.0694 -0.1240 -0.5584
    1SOL     OW11357   2.488   1.237   4.264 -0.2478 -0.2498  0.1482
    1SOL    HW211358   2.573   1.228   4.222  1.1587  0.3717  2.7625
    1SOL    HW311359   2.463   1.328   4.249 -0.9812 -0.6987 -1.5110
    1SOL    MW411360   2.496   1.248   4.256 -0.1588 -0.2270  0.2742
    1SOL     OW11361   3.144   3.521   4.139 -0.2897 -0.1544 -0.2108
    1SOL    HW211362   3.127   3.516   4.045  0.6193  2.9283 -0.6044
    1SOL    HW311363   3.069   3.569   4.174  0.1818  0.1750  0.3651
    1SOL    MW411364   3.132   3.527   4.132 -0.1075  0.2956 -0.1864
    1SOL     OW11365   3.547   4.504   4.628  0.1783  0.1024  0.6118
    1SOL    HW211366   3.561   4.596   4.605 -0.2840  0.0126 -0.0597
    1SOL    HW311367   3.526   4.505   4.721 -2.3677  0.9549  0.0795
    1SOL    MW411368   3.546   4.516   4.637 -0.2184  0.2031  0.4530
    1SOL     OW11369   3.881   1.283   4.079 -0.0288 -0.2364 -0.1494
    1SOL    HW211370   3.872   1.370   4.117  0.9111  0.4871 -1.5726
    1SOL    HW311371   3.805   1.235   4.112  0.0026  0.7970  1.4884
    1SOL    MW411372   3.870   1.288   4.089  0.0994 -0.0045 -0.1211
    1SOL     OW11373   3.157   1.669   4.265 -0.0335  0.2391 -0.4940
    1SOL    HW211374   3.137   1.697   4.354  0.6626  1.4012 -0.7049
    1SOL    HW311375   3.131   1.742   4.209 -0.0634 -0.3084 -1.2167
    1SOL    MW411376   3.151   1.682   4.269  0.0541  0.3201 -0.6175
    1SOL     OW11377   3.981   0.001   4.469  0.1193 -0.2473  0.3961
    1SOL    HW211378   3.932  -0.081   4.474  0.3957 -0.5677 -1.7320
    1SOL    HW311379   4.058  -0.015   4.524  0.1796 -1.4391 -0.0050
    1SOL    MW411380   3.985  -0.012   4.477  0.1638 -0.4468  0.0625
    1SOL     OW11381   2.668   1.616   4.258 -0.0981 -0.6312 -0.1382
    1SOL    HW211382   2.575   1.635   4.268 -0.0943 -0.1362 -0.9689
    1SOL    HW311383   2.703   1.617   4.347 -0.7980 -0.3388  0.1344
    1SOL    MW411384   2.660   1.619   4.271 -0.1900 -0.5274 -0.2117
    1SOL     OW11385   4.340   0.499   4.195  0.3676  0.2676 -0.1491
    1SOL    HW211386   4.344   0.495   4.291 -0.0452 -0.3151 -0.1544
    1SOL    HW311387   4.260   0.452   4.173  0.7041  0.0043 -0.8083
    1SOL    MW411388   4.330   0.492   4.205  0.3572  0.1560 -0.2360
    1SOL     OW11389   4.339   0.487   4.486  0.4256 -0.0102  0.1794
    1SOL    HW211390   4.261   0.532   4.520  0.2491 -1.4212  1.6891
    1SOL    HW311391   4.412   0.537   4.521  0.2256 -0.5996  1.4525
    1SOL    MW411392   4.338   0.500   4.495  0.3767 -0.2742  0.5465
    1SOL     OW11393   2.019   3.063   4.110  0.0791 -0.1536 -0.1969
    1SOL    HW211394   2.026   2.972   4.139 -1.1255  0.0663  0.7955
    1SOL    HW311395   1.942   3.097   4.154 -0.0879  1.0567 -1.3870
    1SOL    MW411396   2.010   3.056   4.120 -0.1016  0.0350 -0.2236
    1SOL     OW11397   1.396   1.580   4.633  0.6766 -0.2607  0.5551
    1SOL    HW211398   1.428   1.652   4.578  0.2885 -0.6138 -0.1325
    1SOL    HW311399   1.337   1.623   4.695  0.3322 -0.0040  0.0543
    1SOL    MW411400   1.393   1.595   4.634  0.5800 -0.2733  0.3986
    1SOL     OW11401   0.734   1.526   4.603  0.3864  0.3078  0.2085
    1SOL    HW211402   0.643   1.540   4.576  0.2382  0.2590  0.6793
    1SOL    HW311403   0.781   1.602   4.567  0.1329  0.4132  0.0942
    1SOL    MW411404   0.728   1.538   4.595  0.3334  0.3153  0.2556
    1SOL     OW11405   3.088   0.634   4.531 -0.1788 -0.3614  0.3580
    1SOL    HW211406   3.114   0.713   4.578  0.2977 -0.8616  0.9384
    1SOL    HW311407   3.169   0.584   4.519 -0.2237 -0.0876 -1.3123
    1SOL    MW411408   3.102   0.638   4.535 -0.1218 -0.3913  0.2141
    1SOL     OW11409   3.401   0.787   4.136  0.1897  0.0257 -0.3615
    1SOL    HW211410   3.392   0.703   4.181  1.9817  0.3187  0.6136
    1SOL    HW311411   3.334   0.843   4.174 -0.5488 -0.7605 -0.5095
    1SOL    MW411412   3.391   0.783   4.147  0.3285 -0.0394 -0.2527
    1SOL     OW11413   3.607   0.634   4.610 -0.0969  0.6189 -0.0105
    1SOL    HW211414   3.624   0.634   4.704  0.6812  0.1435 -0.1398
    1SOL    HW311415   3.643   0.717   4.579  0.1995  0.5075  0.0267
    1SOL    MW411416   3.614   0.645   4.618  0.0448  0.5415 -0.0234
    1SOL     OW11417   2.471   2.289   3.807  0.2199  0.0660  0.3929
    1SOL    HW211418   2.469   2.283   3.903 -0.9539 -0.8803  0.3242
    1SOL    HW311419   2.472   2.198   3.778 -2.8007  0.2857 -0.5335
    1SOL    MW411420   2.471   2.276   3.816 -0.3338 -0.0300  0.2618
    1SOL     OW11421   2.933   4.315   4.490  0.0347 -0.4879 -0.0653
    1SOL    HW211422   2.846   4.342   4.519 -0.6126 -2.2961 -0.2593
    1SOL    HW311423   2.937   4.341   4.398  0.7106  1.9522  0.6224
    1SOL    MW411424   2.922   4.322   4.481  0.0384 -0.4048 -0.0005
    1SOL     OW11425   3.777   1.496   4.496 -0.4628  0.0410  0.5526
    1SOL    HW211426   3.754   1.555   4.425  0.9507  0.5731  0.5424
    1SOL    HW311427   3.698   1.493   4.551 -2.1940 -1.7079 -1.9128
    1SOL    MW411428   3.763   1.503   4.494 -0.5047 -0.1193  0.2260
    1SOL     OW11429   3.154   0.103   4.286 -0.2436  0.1546 -0.0903
    1SOL    HW211430   3.154   0.197   4.268 -0.4790  0.3601  0.9558
    1SOL    HW311431   3.128   0.096   4.378 -3.0378 -1.0872 -0.9200
    1SOL    MW411432   3.151   0.114   4.296 -0.6433  0.0179 -0.0620
    1SOL     OW11433   2.679   3.480   4.124 -0.4114  0.3945  0.3410
    1SOL    HW211434   2.754   3.529   4.156 -0.2918  0.6975 -0.3912
    1SOL    HW311435   2.603   3.525   4.161 -0.2539  0.4262  0.6233
    1SOL    MW411436   2.679   3.492   4.133 -0.3748  0.4387  0.2813
    1SOL     OW11437   1.094   3.841   4.090  0.2373  0.9611  0.3523
    1SOL    HW211438   1.164   3.900   4.119  0.5651  0.5640  0.3580
    1SOL    HW311439   1.113   3.758   4.133  0.4039  0.5284 -0.5638
    1SOL    MW411440   1.106   3.838   4.100  0.3024  0.8514  0.2317
    1SOL     OW11441   0.321   0.477   4.643 -0.6708 -0.4431 -0.4575
    1SOL    HW211442   0.386   0.547   4.652  0.0185 -1.3598  2.0628
    1SOL    HW311443   0.249   0.518   4.594  0.3037  1.6125 -0.2411
    1SOL    MW411444   0.320   0.492   4.638 -0.4512 -0.2928 -0.0963
    1SOL     OW11445   0.662   2.035   4.219  0.3964 -0.2620 -0.2623
    1SOL    HW211446   0.733   1.991   4.173 -0.0285 -1.4673  0.2146
    1SOL    HW311447   0.654   2.120   4.176  3.7782  0.8968  1.2534
    1SOL    MW411448   0.670   2.040   4.207  0.7865 -0.2682  0.0005
    1SOL     OW11449   0.469   2.714   4.145  0.2765  0.1386  0.2022
    1SOL    HW211450   0.444   2.719   4.052  0.4944  0.2980  0.1492
    1SOL    HW311451   0.398   2.758   4.191 -0.1017 -0.4279  0.1610
    1SOL    MW411452   0.456   2.721   4.139  0.2553  0.0849  0.1898
    1SOL     OW11453   1.312   2.395   4.234  0.3006  0.2549 -0.3550
    1SOL    HW211454   1.387   2.359   4.186  0.6602 -0.9659  1.0982
    1SOL    HW311455   1.318   2.490   4.219  2.1627  0.1807 -0.2435
    1SOL    MW411456   1.323   2.403   4.226  0.5937  0.0839 -0.1488
    1SOL     OW11457   2.993   2.970   4.607  0.1815 -0.0049 -0.2069
    1SOL    HW211458   2.943   2.946   4.685 -1.8510  1.8078 -0.9100
    1SOL    HW311459   2.930   2.970   4.536  1.4457  1.0398 -1.3692
    1SOL    MW411460   2.978   2.967   4.608  0.0801  0.3719 -0.4530
    1SOL     OW11461   2.732   0.912   4.277  0.0127 -0.3978  0.2839
    1SOL    HW211462   2.823   0.887   4.259  0.3434  1.2514 -0.4601
    1SOL    HW311463   2.726   0.912   4.373  0.5157 -1.4437  0.3274
    1SOL    MW411464   2.744   0.909   4.288  0.1228 -0.3182  0.1917
    1SOL     OW11465   0.151   0.220   4.655 -0.3376  0.0840 -0.6656
    1SOL    HW211466   0.207   0.142   4.662 -0.8738 -0.2177  0.4571
    1SOL    HW311467   0.207   0.293   4.682 -0.8568 -0.3965  1.8339
    1SOL    MW411468   0.165   0.219   4.659 -0.4769 -0.0192 -0.1874
    1SOL     OW11469   4.403   4.009   4.541  0.1807  0.2787  0.0615
    1SOL    HW211470   4.410   3.927   4.588 -2.7465 -0.5583 -0.8276
    1SOL    HW311471   4.426   3.987   4.450  0.5682  0.7066  0.0533
    1SOL    MW411472   4.407   3.995   4.535 -0.1540  0.2244 -0.0567
    1SOL     OW11473   3.121   3.245   4.527 -0.2694 -0.1291  0.2668
    1SOL    HW211474   3.099   3.155   4.551 -0.5802 -0.4608 -1.2084
    1SOL    HW311475   3.217   3.245   4.519 -0.3389 -0.5512 -0.5913
    1SOL    MW411476   3.131   3.233   4.529 -0.3192 -0.2286 -0.0415
    1SOL     OW11477   1.875   1.653   4.612 -0.5802 -0.1867  0.0686
    1SOL    HW211478   1.814   1.621   4.545  0.1667  0.1678 -0.7809
    1SOL    HW311479   1.943   1.699   4.563  0.0009  0.0300  1.0688
    1SOL    MW411480   1.876   1.654   4.597 -0.4050 -0.1115  0.0887
    1SOL     OW11481   1.620   1.387   4.628  0.4137  0.0968  0.2055
    1SOL    HW211482   1.656   1.444   4.561  1.7502  2.2902  2.7257
    1SOL    HW311483   1.530   1.419   4.641  0.3932  0.1295 -0.0176
    1SOL    MW411484   1.613   1.398   4.621  0.5873  0.3905  0.5088
    1SOL     OW11485   4.041   1.952   4.156 -0.1678 -0.1382  0.0816
    1SOL    HW211486   3.962   1.978   4.203  0.9389  0.0033  1.8838
    1SOL    HW311487   4.060   1.864   4.188  1.8685  0.8213  1.6567
    1SOL    MW411488   4.033   1.944   4.166  0.2465  0.0070  0.5269
    1SOL     OW11489   2.920   4.663   4.161 -0.0013 -0.1688 -0.0141
    1SOL    HW211490   3.002   4.705   4.186  0.3864 -0.2948 -1.0436
    1SOL    HW311491   2.935   4.570   4.176  0.4292 -0.3018 -1.2346
    1SOL    MW411492   2.932   4.656   4.166  0.1068 -0.2030 -0.3104
    1SOL     OW11493   0.543   0.368   4.508  0.1747  0.1961 -0.2326
    1SOL    HW211494   0.475   0.384   4.574 -0.8030  0.4626 -1.2895
    1SOL    HW311495   0.622   0.408   4.544 -0.3813  0.4606  0.7068
    1SOL    MW411496   0.544   0.375   4.522 -0.0277  0.2661 -0.2480
    1SOL     OW11497   1.498   4.189   4.538 -0.1624 -0.0465  0.2040
    1SOL    HW211498   1.487   4.234   4.455  0.4118 -1.3482 -0.5844
    1SOL    HW311499   1.411   4.192   4.579 -0.5741  0.1184 -0.6764
    1SOL    MW411500   1.485   4.195   4.533 -0.1410 -0.1965 -0.0157
    1SOL     OW11501   3.740   1.997   4.569  0.5829  0.4722  0.2635
    1SOL    HW211502   3.773   2.005   4.479  0.2344  0.7376  0.1590
    1SOL    HW311503   3.743   2.087   4.603  0.1297  0.4675  0.3128
    1SOL    MW411504   3.745   2.010   4.562  0.4771  0.5069  0.2561
    1SOL     OW11505   3.891   2.631   4.630 -0.0505 -0.7446  0.1796
    1SOL    HW211506   3.952   2.559   4.620  0.7609 -0.3197  1.8327
    1SOL    HW311507   3.945   2.710   4.625 -0.6063 -0.3262  0.6130
    1SOL    MW411508   3.906   2.632   4.628 -0.0169 -0.6332  0.4544
    1SOL     OW11509   3.000   3.735   4.490  0.0101  0.5061  0.3618
    1SOL    HW211510   2.984   3.650   4.531  0.2290 -0.2202 -1.0489
    1SOL    HW311511   3.096   3.742   4.487 -0.0043  0.4714 -0.1950
    1SOL    MW411512   3.011   3.725   4.495  0.0370  0.4058  0.1025
    1SOL     OW11513   1.546   3.724   4.501 -0.1188 -0.0582 -0.0574
    1SOL    HW211514   1.457   3.755   4.488  0.4434  1.2542 -0.8691
    1SOL    HW311515   1.600   3.803   4.499  1.0022 -0.7720  1.0700
    1SOL    MW411516   1.542   3.738   4.499  0.1032  0.0207 -0.0157
    1SOL     OW11517   1.819   3.465   4.134 -0.0931  0.2830  0.0096
    1SOL    HW211518   1.825   3.472   4.039 -1.3541  0.1510 -0.0851
    1SOL    HW311519   1.747   3.523   4.158  1.2797  1.5766  1.0565
    1SOL    MW411520   1.810   3.473   4.125 -0.0783  0.4361  0.1354
    1SOL     OW11521   1.506   1.844   4.555  0.0245  0.3482 -0.4687
    1SOL    HW211522   1.583   1.841   4.499 -0.0411  0.0717 -0.5457
    1SOL    HW311523   1.508   1.931   4.595 -0.3169  0.8155 -1.4488
    1SOL    MW411524   1.516   1.855   4.553 -0.0291  0.3735 -0.6084
    1SOL     OW11525   2.204   2.220   4.661  0.3236 -0.0339 -0.2124
    1SOL    HW211526   2.218   2.214   4.567  0.8375  2.9445 -0.3699
    1SOL    HW311527   2.258   2.294   4.689 -2.8562  1.6478  1.7655
    1SOL    MW411528   2.213   2.229   4.652 -0.0281  0.5808  0.0277
    1SOL     OW11529   0.923   3.519   4.132 -0.2512 -0.2019  0.0865
    1SOL    HW211530   0.902   3.432   4.166 -0.8580 -0.0643  0.0811
    1SOL    HW311531   0.937   3.506   4.039  0.9663 -0.5072  0.3099
    1SOL    MW411532   0.922   3.506   4.124 -0.1707 -0.2241  0.1149
    1SOL     OW11533   4.484   1.687   4.258  0.0134  0.1407  0.3563
    1SOL    HW211534   4.489   1.688   4.353 -0.9921  0.1998  0.4116
    1SOL    HW311535   4.412   1.626   4.238  1.4978 -1.4172 -0.4160
    1SOL    MW411536   4.475   1.679   4.268  0.0763 -0.0571  0.2618
    1SOL     OW11537   4.217   3.580   4.535  0.0627  0.0183 -0.0459
    1SOL    HW211538   4.219   3.492   4.574  3.0864 -1.0424 -2.4119
    1SOL    HW311539   4.298   3.620   4.564 -0.5733  1.5010 -0.2800
    1SOL    MW411540   4.228   3.573   4.544  0.3777  0.0739 -0.3886
    1SOL     OW11541   3.186   2.472   4.285 -0.1547  0.3010  0.5604
    1SOL    HW211542   3.167   2.479   4.379 -0.5870  0.0608  0.4925
    1SOL    HW311543   3.122   2.409   4.252  2.4924 -2.6075  0.8203
    1SOL    MW411544   3.175   2.465   4.293  0.1376 -0.1144  0.5860
    1SOL     OW11545   0.025   4.229   4.196 -0.2925  0.1606  0.0318
    1SOL    HW211546  -0.052   4.269   4.236  0.4329  2.6329 -0.9367
    1SOL    HW311547   0.010   4.239   4.102  0.1273 -1.4885 -0.2188
    1SOL    MW411548   0.013   4.236   4.189 -0.1411  0.2689 -0.1287
    1SOL     OW11549   2.036   2.395   4.126 -0.0542 -0.1645  0.0735
    1SOL    HW211550   1.993   2.379   4.210 -1.5232  1.0674 -0.4323
    1SOL    HW311551   2.127   2.414   4.150 -0.4812  0.3113  1.3999
    1SOL    MW411552   2.043   2.396   4.141 -0.3045  0.0608  0.1822
    1SOL     OW11553   0.933   0.305   4.137 -0.0149 -0.6964 -0.2426
    1SOL    HW211554   0.897   0.334   4.221  0.6884  0.4838 -0.3390
    1SOL    HW311555   0.884   0.225   4.116  0.1737 -1.3023  1.5423
    1SOL    MW411556   0.922   0.298   4.145  0.1028 -0.6207 -0.0200
    1NA      NA11557   3.192   3.974   0.464  0.4748  0.6036  0.0074
    1NA      NA11558   0.872   2.408   0.713  0.1904 -0.0390 -0.1209
   4.49070   4.66690  10.00000
