Gromacs Runs On Most of All Computer Systems in water
11585
    1C      O5'    1   1.700   1.999   4.883 -0.0173  0.2421 -0.4284
    1C      H5T    2   1.738   2.055   4.951  0.8290 -0.8411 -0.0054
    1C      C5'    3   1.620   2.078   4.807 -0.3234 -0.0151  0.0294
    1C     H5'1    4   1.549   2.134   4.868  0.3252 -1.0858  1.7977
    1C     H5'2    5   1.557   2.015   4.744 -1.1245 -0.3709  1.1868
    1C      C4'    6   1.695   2.184   4.726 -0.3581  0.0698  0.0343
    1C      H4'    7   1.625   2.265   4.701  0.0095  0.7723  1.2356
    1C      O4'    8   1.797   2.236   4.804 -0.1305  0.0210  0.0623
    1C      C1'    9   1.911   2.281   4.727  0.1359 -0.2225 -0.1498
    1C      H1'   10   1.906   2.390   4.733  0.0479 -0.2987  1.3641
    1C       N1   11   2.039   2.231   4.788 -0.4163  0.2814  0.1869
    1C       C6   12   2.049   2.104   4.840 -0.2475 -0.4933 -0.2387
    1C       H6   13   1.959   2.045   4.854 -0.5448  0.2406  1.0821
    1C       C5   14   2.169   2.060   4.883 -0.1236 -0.8094  0.3214
    1C       H5   15   2.175   1.961   4.926 -0.2931 -2.0755 -2.4552
    1C       C4   16   2.279   2.142   4.864 -0.2454 -0.0613  0.2084
    1C       N4   17   2.399   2.093   4.895  0.2251 -0.5477  0.6424
    1C      H41   18   2.405   2.001   4.937  0.3376 -1.7187 -1.8412
    1C      H42   19   2.479   2.130   4.847 -0.6311  0.0084 -0.3563
    1C       N3   20   2.275   2.255   4.797  0.0592 -0.1416  0.4611
    1C       C2   21   2.151   2.302   4.756 -0.2155  1.1918 -0.0927
    1C       O2   22   2.156   2.403   4.686  0.0055  0.1046 -0.0149
    1C      C3'   23   1.772   2.127   4.607  0.0057 -0.3301 -0.2666
    1C      H3'   24   1.806   2.027   4.634  0.1989  0.1679  1.4364
    1C      C2'   25   1.889   2.231   4.584 -0.1547 -0.3197 -0.7631
    1C     H2'1   26   1.972   2.173   4.544 -1.8168 -2.0421 -1.8232
    1C      O2'   27   1.854   2.340   4.497 -0.1392 -0.2186  0.3082
    1C     HO'2   28   1.792   2.300   4.435 -0.8165  0.2196  0.6913
    1C      O3'   29   1.684   2.125   4.492 -0.4576  0.2761 -0.3774
    2G        P   30   1.588   2.011   4.442  0.1218  0.2981 -0.1495
    2G      O1P   31   1.596   2.008   4.294  0.1199  0.3412 -0.0551
    2G      O2P   32   1.461   2.043   4.499  0.2510 -0.0470 -0.0240
    2G      O5'   33   1.643   1.871   4.507  0.8099 -0.2130 -0.2510
    2G      C5'   34   1.578   1.753   4.474 -0.3689  0.0540  0.4288
    2G     H5'1   35   1.614   1.711   4.381  2.3588 -0.1474  1.5354
    2G     H5'2   36   1.470   1.770   4.471 -0.7092 -1.3385  3.0629
    2G      C4'   37   1.602   1.646   4.581  0.4617  0.2038 -0.2036
    2G      H4'   38   1.538   1.564   4.547  0.7050  0.9754 -2.6000
    2G      O4'   39   1.732   1.590   4.574 -0.2386 -0.0526  0.1090
    2G      C1'   40   1.771   1.552   4.705 -0.0689 -0.1583 -0.2244
    2G      H1'   41   1.806   1.449   4.708 -2.6858 -1.0472  1.2670
    2G       N9   42   1.891   1.627   4.751  0.0472 -0.3433  0.1380
    2G       C8   43   1.914   1.763   4.737  0.2064 -0.1766  0.3719
    2G       H8   44   1.836   1.832   4.708  1.8206  1.5123 -0.0390
    2G       N7   45   2.036   1.801   4.771 -0.1010  0.7821  0.0856
    2G       C5   46   2.096   1.684   4.805 -0.9452  0.2975 -0.3558
    2G       C6   47   2.229   1.658   4.854  0.6974  0.9122 -0.4832
    2G       O6   48   2.321   1.740   4.874  0.2125 -0.1256  0.2630
    2G       N1   49   2.257   1.526   4.873 -0.6259  0.2680  0.5761
    2G       H1   50   2.351   1.492   4.883 -1.6058 -2.3708  1.2666
    2G       C2   51   2.168   1.428   4.857 -0.1068  0.2501 -0.2645
    2G       N2   52   2.209   1.308   4.857  0.4726 -0.0541  0.7559
    2G      H21   53   2.307   1.302   4.883  0.2302 -0.6943  1.5253
    2G      H22   54   2.155   1.226   4.832  0.4393 -0.2784  1.5459
    2G       N3   55   2.044   1.445   4.811 -0.0500  0.0485 -0.0809
    2G       C4   56   2.011   1.574   4.792  0.4493  0.0152  0.5448
    2G      C3'   57   1.573   1.682   4.722  0.0687  0.7203 -0.4660
    2G      H3'   58   1.633   1.770   4.739 -1.0256  1.3874 -0.0263
    2G      C2'   59   1.645   1.567   4.794 -0.4608  0.3741 -0.0337
    2G     H2'1   60   1.669   1.589   4.897  0.2745  1.5196 -0.4399
    2G      O2'   61   1.570   1.446   4.784  0.5955 -0.3907 -0.0804
    2G     HO'2   62   1.493   1.457   4.841  0.3707  1.5336 -0.7375
    2G      O3'   63   1.438   1.709   4.759 -0.0832  0.0596  0.3047
    2G      H3T   64   1.413   1.789   4.713  1.0919  0.0684 -0.3408
    5SOL     OW   65   0.195   3.435   0.178 -0.3206 -0.0910 -0.4193
    5SOL    HW2   66   0.174   3.464   0.089  0.0571  0.0892 -0.4489
    5SOL    HW3   67   0.121   3.465   0.231 -0.5017 -0.1184 -0.6563
    5SOL    MW4   68   0.183   3.443   0.173 -0.2946 -0.0710 -0.4545
    6SOL     OW   69   4.259   0.058   0.050  0.2331 -0.2635  0.2558
    6SOL    HW2   70   4.266  -0.020   0.105 -2.1974  0.5914  1.8626
    6SOL    HW3   71   4.190   0.036  -0.013  1.8468 -0.6162 -1.4180
    6SOL    MW4   72   4.251   0.044   0.049  0.1259 -0.1972  0.2469
    7SOL     OW   73   4.280   0.308   0.428 -0.3232 -0.1555  0.3575
    7SOL    HW2   74   4.259   0.389   0.476 -1.4251 -0.1360 -0.1492
    7SOL    HW3   75   4.368   0.285   0.459 -0.0155  1.1991  0.5600
    7SOL    MW4   76   4.289   0.316   0.439 -0.4277  0.0258  0.3173
    8SOL     OW   77   0.189   2.035   0.495  0.0699  0.4036 -1.1889
    8SOL    HW2   78   0.109   2.082   0.518  1.2936  0.6909  2.7775
    8SOL    HW3   79   0.163   1.943   0.493 -0.1319  0.3952  1.2533
    8SOL    MW4   80   0.175   2.029   0.498  0.2047  0.4404 -0.3434
    9SOL     OW   81   1.169   1.524   0.214 -0.0802  0.0041 -0.1987
    9SOL    HW2   82   1.240   1.506   0.275 -0.5661 -0.2622  0.2971
    9SOL    HW3   83   1.176   1.456   0.148  0.7086  0.5443 -0.6783
    9SOL    MW4   84   1.179   1.513   0.213 -0.0402  0.0403 -0.1965
   10SOL     OW   85   0.270   0.325   0.355 -0.4428  0.5846 -0.1510
   10SOL    HW2   86   0.231   0.334   0.268 -0.5199 -1.7678 -0.4102
   10SOL    HW3   87   0.196   0.303   0.412  0.0074 -0.8080 -0.0723
   10SOL    MW4   88   0.255   0.323   0.351 -0.3936  0.0905 -0.1748
   11SOL     OW   89   0.664   0.504   0.477  0.3481 -0.8185 -0.6274
   11SOL    HW2   90   0.569   0.509   0.485  0.3972 -1.1793  0.2452
   11SOL    HW3   91   0.690   0.590   0.445 -0.1577 -0.2856  0.3591
   11SOL    MW4   92   0.655   0.516   0.474  0.2880 -0.7957 -0.3822
   12SOL     OW   93   0.739   0.783   0.333 -0.0014 -0.1095  0.5223
   12SOL    HW2   94   0.753   0.780   0.238  0.1687 -0.7660  0.5657
   12SOL    HW3   95   0.663   0.841   0.345  0.0817  0.1079  0.0013
   12SOL    MW4   96   0.731   0.791   0.322  0.0320 -0.1675  0.4593
   13SOL     OW   97   4.445   1.258   0.366  0.2853 -0.1320  0.4311
   13SOL    HW2   98   4.428   1.169   0.395  0.5933  0.0599  1.2422
   13SOL    HW3   99   4.381   1.311   0.413 -0.0433  0.0486 -0.2167
   13SOL    MW4  100   4.434   1.253   0.376  0.2828 -0.0830  0.4527
   14SOL     OW  101   0.686   1.377   0.459  0.4068 -0.4038 -0.4418
   14SOL    HW2  102   0.755   1.409   0.401 -0.0597  0.4170 -0.5551
   14SOL    HW3  103   0.630   1.323   0.402  0.2327 -0.0094 -0.6508
   14SOL    MW4  104   0.687   1.374   0.444  0.3222 -0.2434 -0.4843
   15SOL     OW  105   0.216   1.289   0.472  0.5619 -0.1618  0.0459
   15SOL    HW2  106   0.228   1.384   0.467  0.5553 -0.1258  0.6079
   15SOL    HW3  107   0.131   1.273   0.431  0.9028 -0.0093 -0.7193
   15SOL    MW4  108   0.206   1.300   0.466  0.6060 -0.1370  0.0191
   16SOL     OW  109   0.618   2.097   0.514  0.0223 -0.0259 -0.1840
   16SOL    HW2  110   0.537   2.138   0.484  0.0870  0.8961  0.8235
   16SOL    HW3  111   0.619   2.011   0.472 -1.6492 -0.1921  0.0562
   16SOL    MW4  112   0.607   2.091   0.505 -0.1898  0.0741 -0.0193
   17SOL     OW  113   3.998   1.831   0.497  0.0633 -0.5414 -0.1313
   17SOL    HW2  114   3.945   1.911   0.497 -1.2042 -1.3597 -0.8331
   17SOL    HW3  115   4.079   1.856   0.452  0.1152  0.6206  0.5972
   17SOL    MW4  116   4.002   1.845   0.491 -0.0973 -0.4960 -0.1278
   18SOL     OW  117   4.243   2.627   0.514  0.1873 -0.0026  0.1200
   18SOL    HW2  118   4.243   2.637   0.609  1.1155 -0.4146  0.1717
   18SOL    HW3  119   4.303   2.695   0.483  1.9504 -1.5386  0.0408
   18SOL    MW4  120   4.251   2.637   0.523  0.5422 -0.2596  0.1164
   19SOL     OW  121   3.972   3.254   0.484  0.5307 -0.4471  0.9053
   19SOL    HW2  122   3.894   3.204   0.463 -0.1026  0.3648  1.3150
   19SOL    HW3  123   3.978   3.252   0.580  1.3899 -1.0675  0.8532
   19SOL    MW4  124   3.963   3.247   0.494  0.5605 -0.4218  0.9525
   20SOL     OW  125   0.225   3.185   0.392  0.2340  0.0080 -0.5725
   20SOL    HW2  126   0.236   3.263   0.337  1.2493  1.9383  2.2953
   20SOL    HW3  127   0.314   3.162   0.419 -0.0543 -2.1833 -1.3607
   20SOL    MW4  128   0.238   3.192   0.388  0.3299 -0.0265 -0.2981
   21SOL     OW  129   4.117   0.566   0.146  0.3647  0.1095  0.0558
   21SOL    HW2  130   4.060   0.575   0.069  0.7942 -0.2107 -0.2990
   21SOL    HW3  131   4.181   0.499   0.121 -0.2892 -0.9573  1.1577
   21SOL    MW4  132   4.118   0.558   0.133  0.3352 -0.0735  0.1544
   22SOL     OW  133   0.701   4.425   0.481  0.3671  0.4147  0.4558
   22SOL    HW2  134   0.712   4.406   0.574  0.1703  0.8727  0.5753
   22SOL    HW3  135   0.711   4.340   0.438 -0.5028  0.0381  0.9765
   22SOL    MW4  136   0.704   4.411   0.488  0.2264  0.4253  0.5403
   23SOL     OW  137   3.967   3.534   0.421 -0.5445  0.2561 -0.2036
   23SOL    HW2  138   3.901   3.564   0.483  1.3582  0.7746  1.6128
   23SOL    HW3  139   3.968   3.439   0.431 -0.6313  0.2920  0.1234
   23SOL    MW4  140   3.959   3.525   0.430 -0.3049  0.3293  0.0792
   24SOL     OW  141   0.055   3.950   0.490  0.2522 -0.0876  0.3693
   24SOL    HW2  142   0.054   3.966   0.585 -0.5814 -1.2440  0.5784
   24SOL    HW3  143  -0.037   3.940   0.467  0.3669  1.3861 -0.7954
   24SOL    MW4  144   0.043   3.951   0.500  0.1573 -0.0458  0.2432
   25SOL     OW  145   0.947   4.546   0.413 -0.1730  0.0575 -0.1432
   25SOL    HW2  146   1.020   4.485   0.423 -0.7268 -0.7517 -0.9958
   25SOL    HW3  147   0.871   4.498   0.445 -0.5302  0.4865 -0.3488
   25SOL    MW4  148   0.947   4.532   0.419 -0.2932  0.0067 -0.2828
   26SOL     OW  149   0.182   3.711   0.490  0.0580  0.1490 -0.4792
   26SOL    HW2  150   0.275   3.730   0.502  0.2427 -0.3255 -1.1226
   26SOL    HW3  151   0.142   3.798   0.480  0.5305  0.3311 -0.8439
   26SOL    MW4  152   0.189   3.725   0.490  0.1447  0.1104 -0.6122
   27SOL     OW  153   4.467   4.610   0.455  0.1293  0.2439 -0.4332
   27SOL    HW2  154   4.402   4.603   0.385 -0.1309 -1.7290 -0.0273
   27SOL    HW3  155   4.424   4.574   0.532  0.9951  0.8497  0.3453
   27SOL    MW4  156   4.453   4.604   0.456  0.2098  0.0634 -0.2770
   28SOL     OW  157   0.404   3.465   0.377  0.2653 -0.9571 -0.2644
   28SOL    HW2  158   0.425   3.372   0.367 -1.7211 -1.3592 -1.0573
   28SOL    HW3  159   0.341   3.482   0.306 -1.3022  0.3637  1.4204
   28SOL    MW4  160   0.398   3.455   0.366 -0.2036 -0.8359 -0.1467
   29SOL     OW  161   1.008   0.781   0.458 -0.0969  0.0819  0.0924
   29SOL    HW2  162   0.983   0.826   0.538 -0.0266  1.3848 -0.6150
   29SOL    HW3  163   0.929   0.781   0.404 -0.3178 -1.3295  0.3947
   29SOL    MW4  164   0.994   0.787   0.462 -0.1168  0.0675  0.0390
   30SOL     OW  165   0.438   0.116   0.434  0.5216 -0.1075 -0.2252
   30SOL    HW2  166   0.435   0.040   0.375  1.1004  0.4616 -1.0120
   30SOL    HW3  167   0.383   0.181   0.391 -0.7851 -0.4175  0.9509
   30SOL    MW4  168   0.431   0.115   0.420  0.4256 -0.0733 -0.1739
   31SOL     OW  169   0.064   1.478   0.188  0.1482  0.0784 -0.0474
   31SOL    HW2  170   0.099   1.442   0.107 -1.7532 -0.6782 -0.5671
   31SOL    HW3  171   0.043   1.401   0.241 -1.9059  0.4245 -0.2885
   31SOL    MW4  172   0.066   1.463   0.184 -0.3737  0.0243 -0.1478
   32SOL     OW  173   0.722   0.083   0.500 -0.5019 -0.1678 -0.6879
   32SOL    HW2  174   0.638   0.115   0.466 -0.1857 -0.4924 -1.7824
   32SOL    HW3  175   0.710  -0.012   0.507 -0.7946 -0.0485  0.7787
   32SOL    MW4  176   0.709   0.075   0.497 -0.4987 -0.1949 -0.6388
   33SOL     OW  177   1.862   1.451   0.440 -0.1305 -0.0629 -0.1346
   33SOL    HW2  178   1.946   1.443   0.393  0.3515  0.6611  0.5858
   33SOL    HW3  179   1.839   1.544   0.432 -0.0600  0.0638  1.0104
   33SOL    MW4  180   1.870   1.462   0.433 -0.0577  0.0494  0.1116
   34SOL     OW  181   1.374   0.918   0.739 -0.2039 -0.4063  0.4394
   34SOL    HW2  182   1.367   1.009   0.768 -0.4450 -0.4338  0.4692
   34SOL    HW3  183   1.290   0.879   0.762  0.0990 -0.7790  0.9272
   34SOL    MW4  184   1.362   0.925   0.746 -0.1957 -0.4591  0.5076
   35SOL     OW  185   0.079   0.665   0.241 -0.2401 -0.4203  0.0101
   35SOL    HW2  186   0.142   0.695   0.306  0.7074  0.3306 -1.2187
   35SOL    HW3  187   0.102   0.573   0.227  0.5231 -0.1884 -0.3320
   35SOL    MW4  188   0.091   0.657   0.247 -0.0144 -0.2906 -0.1972
   36SOL     OW  189   0.919   1.731   0.472  0.6724 -0.2706  0.4325
   36SOL    HW2  190   0.971   1.811   0.473  0.8435 -0.3597 -0.5310
   36SOL    HW3  191   0.929   1.694   0.559  1.3990  0.2397  0.5657
   36SOL    MW4  192   0.927   1.737   0.484  0.7908 -0.2148  0.3230
   37SOL     OW  193   4.308   0.734   0.286  0.1584 -0.8292  0.4057
   37SOL    HW2  194   4.395   0.713   0.250 -0.2227 -1.7493 -0.0133
   37SOL    HW3  195   4.247   0.698   0.221 -0.5432 -1.8035  1.5997
   37SOL    MW4  196   4.312   0.726   0.272  0.0157 -1.0791  0.5079
   38SOL     OW  197   0.332   2.438   0.551  0.8322 -0.0312  0.0264
   38SOL    HW2  198   0.371   2.516   0.512  0.4819  0.0594 -0.1486
   38SOL    HW3  199   0.238   2.448   0.535  0.7217 -0.1654  0.5884
   38SOL    MW4  200   0.325   2.449   0.544  0.7714 -0.0372  0.0775
   39SOL     OW  201   4.256   3.131   0.426 -0.0296 -0.1815  0.0000
   39SOL    HW2  202   4.180   3.189   0.431 -1.0157 -1.5132  0.7264
   39SOL    HW3  203   4.329   3.184   0.456 -1.1205  0.3344  1.7794
   39SOL    MW4  204   4.256   3.145   0.430 -0.3037 -0.2890  0.3306
   40SOL     OW  205   4.346   2.337   0.336  0.1764 -0.7212  0.2496
   40SOL    HW2  206   4.333   2.309   0.246 -0.0174 -0.1607  0.1006
   40SOL    HW3  207   4.262   2.376   0.361  0.9420  1.1951 -0.0845
   40SOL    MW4  208   4.333   2.338   0.327  0.2518 -0.3946  0.1858
   41SOL     OW  209   0.494   2.663   0.482  0.1696 -0.2541  0.2517
   41SOL    HW2  210   0.568   2.622   0.438 -0.3947 -0.4072 -0.5759
   41SOL    HW3  211   0.526   2.749   0.509  0.7307 -0.4287  0.1363
   41SOL    MW4  212   0.508   2.669   0.480  0.1692 -0.2971  0.1273
   42SOL     OW  213   0.988   3.041   0.374  0.0572 -0.1297 -0.1881
   42SOL    HW2  214   0.937   2.960   0.372  0.4459 -0.3406 -1.4984
   42SOL    HW3  215   1.069   3.020   0.327  1.6607  0.0124  2.4048
   42SOL    MW4  216   0.992   3.027   0.368  0.3200 -0.1390 -0.0189
   43SOL     OW  217   4.003   3.729   0.191 -0.3393 -0.1615  0.6772
   43SOL    HW2  218   4.082   3.724   0.138 -0.3651  0.5347  0.5605
   43SOL    HW3  219   4.005   3.650   0.245  0.0330 -0.5358  0.1241
   43SOL    MW4  220   4.014   3.718   0.191 -0.2933 -0.1190  0.5889
   44SOL     OW  221   0.184   2.913   0.455  0.4767 -0.0254 -0.2779
   44SOL    HW2  222   0.173   2.998   0.413 -0.3900  0.3985  0.7837
   44SOL    HW3  223   0.189   2.851   0.382 -0.3699  0.7690 -1.0257
   44SOL    MW4  224   0.183   2.916   0.440  0.2507  0.1354 -0.2365
   45SOL     OW  225   1.104   0.528   0.495  0.1144 -0.0470  0.1133
   45SOL    HW2  226   1.196   0.541   0.474 -0.0822  1.3883  0.0770
   45SOL    HW3  227   1.062   0.610   0.469 -0.6242  0.6748  3.2996
   45SOL    MW4  228   1.111   0.541   0.489 -0.0089  0.2376  0.5288
   46SOL     OW  229   4.470   3.299   0.516  0.5022 -0.0520 -0.3121
   46SOL    HW2  230   4.464   3.377   0.461  0.9925 -0.1873 -0.5620
   46SOL    HW3  231   4.544   3.250   0.480  1.4610  0.3407  1.0743
   46SOL    MW4  232   4.479   3.303   0.504  0.6933 -0.0181 -0.1621
   47SOL     OW  233   0.813   3.529   0.404 -0.2322  0.0735 -0.1226
   47SOL    HW2  234   0.725   3.552   0.375 -0.1254  0.8776  0.1603
   47SOL    HW3  235   0.804   3.443   0.444 -0.9798  0.3646  0.3351
   47SOL    MW4  236   0.800   3.521   0.405 -0.3168  0.2179 -0.0249
   48SOL     OW  237   1.040   3.690   0.463  0.1078  0.2190 -0.0694
   48SOL    HW2  238   1.003   3.778   0.458 -0.3239  0.0288 -0.2371
   48SOL    HW3  239   0.965   3.631   0.456  0.5425 -0.1894 -1.3679
   48SOL    MW4  240   1.025   3.694   0.462  0.1082  0.1400 -0.2629
   49SOL     OW  241   0.711   4.140   0.382 -0.0665 -0.4987  0.0817
   49SOL    HW2  242   0.623   4.104   0.395 -0.4885  0.5248  0.1578
   49SOL    HW3  243   0.720   4.149   0.287 -0.8916  1.3780  0.1464
   49SOL    MW4  244   0.700   4.137   0.371 -0.2310 -0.1163  0.1003
   50SOL     OW  245   0.916   3.949   0.465 -0.0243  0.0959 -0.2086
   50SOL    HW2  246   0.844   3.989   0.416 -0.1065 -0.5445 -0.6225
   50SOL    HW3  247   0.898   3.970   0.557 -1.7594 -1.6005 -0.1086
   50SOL    MW4  248   0.904   3.957   0.471 -0.2640 -0.2124 -0.2500
   51SOL     OW  249   3.896   3.898   0.410  0.2039 -0.0110  0.2015
   51SOL    HW2  250   3.877   3.832   0.477 -0.0899 -0.3362 -0.1967
   51SOL    HW3  251   3.919   3.847   0.332 -1.3869  0.3232 -0.5044
   51SOL    MW4  252   3.896   3.882   0.408 -0.0446 -0.0098  0.0558
   52SOL     OW  253   0.900   0.351   0.418  0.3376 -0.0444  0.4627
   52SOL    HW2  254   0.956   0.426   0.436 -0.8464  0.5308  1.8573
   52SOL    HW3  255   0.814   0.389   0.401 -0.0366 -1.0164  0.1478
   52SOL    MW4  256   0.896   0.366   0.418  0.1320 -0.0967  0.6051
   53SOL     OW  257   0.515   0.925   0.420 -0.1472  0.6087 -0.2045
   53SOL    HW2  258   0.442   0.866   0.399  0.1724 -0.2698  1.1389
   53SOL    HW3  259   0.518   0.927   0.515  1.2469  1.0846 -0.2517
   53SOL    MW4  260   0.506   0.917   0.430  0.0789  0.5556 -0.0335
   54SOL     OW  261   4.237   0.585   0.502  0.3127  0.4690  0.3832
   54SOL    HW2  262   4.278   0.632   0.429  1.3298 -1.0104 -0.0349
   54SOL    HW3  263   4.143   0.593   0.485  0.5259  0.4594 -0.8986
   54SOL    MW4  264   4.230   0.592   0.490  0.4754  0.2726  0.1589
   55SOL     OW  265   1.372   0.597   0.478  0.3675  0.3665 -0.0775
   55SOL    HW2  266   1.461   0.569   0.498  0.8364  2.3799  0.7957
   55SOL    HW3  267   1.375   0.692   0.485 -1.7879  0.4771 -0.3396
   55SOL    MW4  268   1.384   0.606   0.482  0.1452  0.6467  0.0031
   56SOL     OW  269   2.009   0.953   0.463  0.0344  0.2891 -0.0597
   56SOL    HW2  270   1.918   0.973   0.440 -0.1846  0.9682  1.3345
   56SOL    HW3  271   2.002   0.880   0.525  0.3646  0.9811  0.8103
   56SOL    MW4  272   1.996   0.946   0.468  0.0492  0.4700  0.2390
   57SOL     OW  273   1.460   1.653   0.496  0.4376  0.4654  0.5314
   57SOL    HW2  274   1.412   1.719   0.447 -0.1161  1.0732  1.8555
   57SOL    HW3  275   1.422   1.656   0.584  1.1983 -0.8004  0.9185
   57SOL    MW4  276   1.449   1.662   0.501  0.4649  0.3786  0.7572
   58SOL     OW  277   1.216   0.991   0.349 -0.2716  0.3137  0.2279
   58SOL    HW2  278   1.200   1.081   0.375 -0.8209  1.2204 -3.0290
   58SOL    HW3  279   1.141   0.942   0.382 -0.0210  1.0327  1.9093
   58SOL    MW4  280   1.204   0.996   0.357 -0.3109  0.5282  0.0201
   59SOL     OW  281   0.481   1.210   0.392  0.2437  0.2256 -0.1043
   59SOL    HW2  282   0.392   1.241   0.411 -0.2212  0.6926 -2.8542
   59SOL    HW3  283   0.472   1.115   0.386  0.1463  0.1839  0.6093
   59SOL    MW4  284   0.468   1.201   0.394  0.1695  0.2816 -0.3730
   60SOL     OW  285   2.153   1.399   0.388 -0.4723  0.5624 -0.4189
   60SOL    HW2  286   2.214   1.466   0.417  1.3858 -1.1872 -0.1873
   60SOL    HW3  287   2.140   1.342   0.464 -0.8868 -0.1722 -1.0216
   60SOL    MW4  288   2.159   1.400   0.402 -0.2820  0.2347 -0.4679
   61SOL     OW  289   1.363   1.425   0.402 -0.0410 -0.4387 -0.2750
   61SOL    HW2  290   1.386   1.509   0.442 -0.1391 -0.2469 -0.6145
   61SOL    HW3  291   1.446   1.376   0.399  0.4370  0.4352 -1.9230
   61SOL    MW4  292   1.377   1.429   0.407  0.0091 -0.2980 -0.5372
   62SOL     OW  293   0.498   1.591   0.501 -0.1948 -0.3933 -0.1740
   62SOL    HW2  294   0.422   1.556   0.455  0.8077 -0.3683 -1.9258
   62SOL    HW3  295   0.567   1.525   0.486  0.1369 -0.4237  1.3900
   62SOL    MW4  296   0.497   1.577   0.493 -0.0188 -0.3941 -0.1988
   63SOL     OW  297   0.645   1.830   0.442  0.1751  0.0887  0.0692
   63SOL    HW2  298   0.735   1.813   0.469  0.3473  1.2267  0.2323
   63SOL    HW3  299   0.602   1.745   0.447  1.0676 -0.3337  0.6431
   63SOL    MW4  300   0.651   1.817   0.446  0.3155  0.1831  0.1664
   64SOL     OW  301   0.637   2.304   0.254  0.1459 -0.1889  0.3554
   64SOL    HW2  302   0.572   2.284   0.321 -0.7219  2.1261  0.2580
   64SOL    HW3  303   0.591   2.291   0.171  0.2554 -0.0211  0.2665
   64SOL    MW4  304   0.622   2.300   0.252  0.0460  0.1388  0.3308
   65SOL     OW  305   0.955   2.440   0.504 -0.5971  0.2024 -0.1080
   65SOL    HW2  306   0.937   2.346   0.496  0.4479  0.1064 -1.4445
   65SOL    HW3  307   0.953   2.457   0.598 -0.9797 -1.1268  0.1260
   65SOL    MW4  308   0.952   2.430   0.515 -0.5097  0.0143 -0.2535
   66SOL     OW  309   4.249   1.429   0.472  0.0449 -0.4481  0.0697
   66SOL    HW2  310   4.164   1.429   0.428 -0.0846 -0.3550  0.3184
   66SOL    HW3  311   4.236   1.374   0.550 -0.3920  1.3200  1.2612
   66SOL    MW4  312   4.236   1.421   0.477 -0.0296 -0.2025  0.2597
   67SOL     OW  313   1.579   2.578   0.409 -0.4304  0.3013  0.0743
   67SOL    HW2  314   1.507   2.624   0.365  0.3203  1.0567 -0.3939
   67SOL    HW3  315   1.638   2.648   0.438 -0.4331 -0.2463  1.4442
   67SOL    MW4  316   1.578   2.593   0.407 -0.3318  0.3290  0.1932
   68SOL     OW  317   0.870   2.193   0.417  0.5475 -0.2034 -0.0118
   68SOL    HW2  318   0.792   2.164   0.465  0.0038 -1.2579 -1.4981
   68SOL    HW3  319   0.835   2.231   0.337  1.6102 -1.5920 -1.1458
   68SOL    MW4  320   0.855   2.194   0.413  0.6160 -0.5257 -0.3575
   69SOL     OW  321   0.600   2.910   0.547 -0.0870 -0.0079 -0.2244
   69SOL    HW2  322   0.622   2.920   0.640  0.9158  0.0115 -0.4670
   69SOL    HW3  323   0.555   2.991   0.525  1.3136  0.7726 -0.2294
   69SOL    MW4  324   0.597   2.922   0.557  0.2301  0.0975 -0.2571
   70SOL     OW  325   0.777   3.239   0.464 -0.3600  0.0122 -0.0786
   70SOL    HW2  326   0.806   3.249   0.554  1.1523  1.3801 -0.6940
   70SOL    HW3  327   0.848   3.192   0.421 -0.8605 -0.2091 -0.6771
   70SOL    MW4  328   0.790   3.234   0.470 -0.2265  0.1633 -0.2387
   71SOL     OW  329   1.128   4.120   0.466  0.3402 -0.5628  0.2062
   71SOL    HW2  330   1.199   4.059   0.485  0.5150 -0.3794  0.1480
   71SOL    HW3  331   1.050   4.064   0.458  0.4255 -0.7314  0.5581
   71SOL    MW4  332   1.127   4.104   0.467  0.3746 -0.5608  0.2449
   72SOL     OW  333   0.109   0.361   0.139 -0.2268  0.0503  0.1597
   72SOL    HW2  334   0.139   0.350   0.048 -0.0848  0.1045  0.1990
   72SOL    HW3  335   0.014   0.354   0.134 -0.2061 -0.1725  0.0371
   72SOL    MW4  336   0.101   0.359   0.126 -0.2054  0.0281  0.1487
   73SOL     OW  337   0.477   3.720   0.480 -0.7713 -0.0758 -0.2828
   73SOL    HW2  338   0.532   3.706   0.557  0.1221  0.0155 -0.9005
   73SOL    HW3  339   0.455   3.631   0.450 -0.2304 -0.1216 -0.5499
   73SOL    MW4  340   0.481   3.706   0.486 -0.5821 -0.0696 -0.3995
   74SOL     OW  341   1.442   4.454   0.486 -0.2725  0.0272 -0.4790
   74SOL    HW2  342   1.464   4.435   0.577 -1.6540  2.1826  0.3491
   74SOL    HW3  343   1.350   4.429   0.478 -0.2775  0.2461 -1.1700
   74SOL    MW4  344   1.432   4.448   0.497 -0.4554  0.3405 -0.4609
   75SOL     OW  345   1.646   0.165   0.432 -0.4392  0.6963  0.0270
   75SOL    HW2  346   1.670   0.158   0.340  0.0045 -0.3047  0.2081
   75SOL    HW3  347   1.724   0.135   0.479 -1.6364 -1.5796  0.6429
   75SOL    MW4  348   1.659   0.160   0.426 -0.5386  0.2639  0.1322
   76SOL     OW  349   0.457   3.989   0.404  0.4018 -0.2449 -0.1647
   76SOL    HW2  350   0.434   4.025   0.490  1.3431  0.7958 -0.3496
   76SOL    HW3  351   0.458   3.894   0.418  1.5711 -0.0457  1.2510
   76SOL    MW4  352   0.454   3.981   0.417  0.6802 -0.0811 -0.0023
   77SOL     OW  353   2.298   0.960   0.386 -0.0684 -0.3341  0.1343
   77SOL    HW2  354   2.204   0.949   0.371 -0.0382 -1.2602  0.5866
   77SOL    HW3  355   2.317   1.049   0.355 -1.1385 -0.0493  0.2729
   77SOL    MW4  356   2.288   0.970   0.380 -0.2055 -0.4187  0.2123
   78SOL     OW  357   1.137   1.244   0.448 -0.1133 -0.1145  0.0694
   78SOL    HW2  358   1.204   1.312   0.435 -0.0834 -0.1608 -0.0182
   78SOL    HW3  359   1.056   1.284   0.417 -0.4216  0.5161  1.6442
   78SOL    MW4  360   1.135   1.258   0.442 -0.1501 -0.0373  0.2656
   79SOL     OW  361   1.164   0.182   0.418 -0.5797  0.4506 -0.3789
   79SOL    HW2  362   1.185   0.272   0.394  0.4433  0.0239 -1.1202
   79SOL    HW3  363   1.248   0.142   0.439 -1.1993  0.1016  1.5132
   79SOL    MW4  364   1.178   0.189   0.418 -0.5265  0.3483 -0.2270
   80SOL     OW  365   0.292   0.728   0.416 -0.2721 -0.0820 -0.2794
   80SOL    HW2  366   0.338   0.648   0.441 -1.2861 -0.4246  0.5415
   80SOL    HW3  367   0.247   0.755   0.496 -0.8476  0.6782 -0.8533
   80SOL    MW4  368   0.292   0.721   0.430 -0.4818 -0.0269 -0.2468
   81SOL     OW  369   2.960   1.019   0.337  0.6733 -0.1060  0.0092
   81SOL    HW2  370   2.983   0.929   0.364 -0.0917 -0.6414 -1.1059
   81SOL    HW3  371   2.918   1.008   0.252  0.1489  1.2770  0.0906
   81SOL    MW4  372   2.958   1.005   0.330  0.5033  0.0057 -0.1272
   82SOL     OW  373   1.612   1.288   0.449 -0.0551  0.0246  0.0706
   82SOL    HW2  374   1.642   1.197   0.447 -1.5864 -0.5123  0.8319
   82SOL    HW3  375   1.689   1.339   0.425  0.7364 -1.4941 -0.6834
   82SOL    MW4  376   1.626   1.283   0.445 -0.1526 -0.2466  0.0716
   83SOL     OW  377   1.738   1.713   0.469 -0.3475 -0.2808 -0.3127
   83SOL    HW2  378   1.754   1.723   0.563 -0.0256  0.3788 -0.4341
   83SOL    HW3  379   1.644   1.694   0.463 -0.4902  0.2704  0.1089
   83SOL    MW4  380   1.728   1.712   0.481 -0.3238 -0.1210 -0.2731
   84SOL     OW  381   1.288   1.846   0.393 -0.3021  0.1483  0.1887
   84SOL    HW2  382   1.254   1.812   0.311  0.3723 -0.8534  0.3153
   84SOL    HW3  383   1.214   1.893   0.432 -0.8419 -0.0066 -0.6400
   84SOL    MW4  384   1.274   1.848   0.387 -0.2843 -0.0042  0.0961
   85SOL     OW  385   2.066   2.080   0.485  0.0392 -0.2322  0.1439
   85SOL    HW2  386   2.031   2.003   0.439 -1.7038  0.6692 -0.0779
   85SOL    HW3  387   2.051   2.060   0.578 -0.0918 -0.3230  0.1044
   85SOL    MW4  388   2.059   2.067   0.491 -0.2081 -0.1254  0.1094
   86SOL     OW  389   0.722   2.536   0.369 -0.1309 -0.0074  0.2484
   86SOL    HW2  390   0.806   2.506   0.405  0.4159 -0.1843 -1.1255
   86SOL    HW3  391   0.692   2.464   0.314  0.1802  1.1315 -1.4372
   86SOL    MW4  392   0.729   2.523   0.366 -0.0177  0.1194 -0.1553
   87SOL     OW  393   1.297   3.015   0.305  0.1468 -0.3069  0.0944
   87SOL    HW2  394   1.358   3.066   0.358  0.1980 -0.6771  0.3909
   87SOL    HW3  395   1.313   3.044   0.215  1.8994 -1.5634 -0.0344
   87SOL    MW4  396   1.307   3.025   0.300  0.3849 -0.5217  0.1166
   88SOL     OW  397   1.923   2.859   0.544 -0.2152 -0.4263  0.3187
   88SOL    HW2  398   1.986   2.827   0.479  0.9494  0.6612  0.9072
   88SOL    HW3  399   1.952   2.821   0.627 -0.3242  0.0849  0.5930
   88SOL    MW4  400   1.935   2.850   0.546 -0.0759 -0.2155  0.4326
   89SOL     OW  401   1.599   2.177   0.462 -0.3225 -0.0387 -0.2842
   89SOL    HW2  402   1.513   2.220   0.463 -1.4349 -2.1960  0.5958
   89SOL    HW3  403   1.595   2.118   0.387  1.1054  1.1925 -1.3463
   89SOL    MW4  404   1.587   2.175   0.452 -0.2809 -0.1609 -0.3082
   90SOL     OW  405   1.194   2.583   0.463 -0.1327  0.3836  0.1923
   90SOL    HW2  406   1.181   2.651   0.529 -1.1037  0.8674 -0.4858
   90SOL    HW3  407   1.110   2.537   0.460  0.3806 -0.5745  0.3382
   90SOL    MW4  408   1.181   2.586   0.471 -0.1931  0.3209  0.1221
   91SOL     OW  409   0.837   2.804   0.441 -0.2513  0.0862 -0.2580
   91SOL    HW2  410   0.757   2.845   0.474  0.8030  1.3659  0.7607
   91SOL    HW3  411   0.807   2.724   0.399 -2.2116  1.1720 -1.0122
   91SOL    MW4  412   0.823   2.799   0.440 -0.3709  0.3982 -0.2231
   92SOL     OW  413   2.289   2.382   0.224  0.4606 -0.3914  0.0112
   92SOL    HW2  414   2.314   2.291   0.241  2.3415  0.4197  1.7622
   92SOL    HW3  415   2.208   2.394   0.274 -0.5055 -1.4456 -1.2587
   92SOL    MW4  416   2.282   2.372   0.233  0.5815 -0.4239  0.0747
   93SOL     OW  417   2.117   4.396   0.579 -0.0561 -0.3574  0.6974
   93SOL    HW2  418   2.185   4.457   0.606 -0.7305  0.8146 -0.1878
   93SOL    HW3  419   2.165   4.322   0.541  0.7701 -0.4567  1.9218
   93SOL    MW4  420   2.132   4.394   0.578 -0.0362 -0.2160  0.7421
   94SOL     OW  421   2.222   4.191   0.394 -0.0889 -0.1851 -0.1026
   94SOL    HW2  422   2.211   4.096   0.384  0.4841 -0.2823  0.1636
   94SOL    HW3  423   2.310   4.201   0.431 -0.4445  0.4004  0.6091
   94SOL    MW4  424   2.232   4.180   0.398 -0.0603 -0.1206  0.0264
   95SOL     OW  425   2.205   2.556   0.531  0.3483  0.2657 -0.3910
   95SOL    HW2  426   2.144   2.496   0.488  0.4105  0.0207 -0.1318
   95SOL    HW3  427   2.234   2.510   0.609 -0.9520  1.3425  0.7393
   95SOL    MW4  428   2.201   2.542   0.535  0.1853  0.3755 -0.2077
   96SOL     OW  429   1.630   4.038   0.473  0.5140  0.3286  0.0204
   96SOL    HW2  430   1.655   4.125   0.440 -0.2731  0.2466 -0.8090
   96SOL    HW3  431   1.667   3.977   0.410  0.8388  0.0660  0.4607
   96SOL    MW4  432   1.638   4.042   0.460  0.4529  0.2837 -0.0309
   97SOL     OW  433   1.470   3.095   0.503  0.2378 -0.1631  0.5138
   97SOL    HW2  434   1.519   3.013   0.505 -0.3208 -0.5796 -2.1801
   97SOL    HW3  435   1.538   3.163   0.509  0.9277 -0.7852 -0.0984
   97SOL    MW4  436   1.485   3.093   0.504  0.2551 -0.2999  0.0776
   98SOL     OW  437   1.329   3.647   0.456 -0.2090  0.3024  0.3371
   98SOL    HW2  438   1.235   3.654   0.444 -0.2832 -1.5183 -0.3618
   98SOL    HW3  439   1.340   3.594   0.534  0.1991 -1.3009 -0.7801
   98SOL    MW4  440   1.318   3.641   0.465 -0.1651 -0.1493  0.0975
   99SOL     OW  441   0.207   4.440   0.494  0.3147 -0.0683  0.2360
   99SOL    HW2  442   0.295   4.453   0.457  0.6775  1.6463  1.6586
   99SOL    HW3  443   0.154   4.507   0.453  0.2374  0.4864  1.2301
   99SOL    MW4  444   0.212   4.450   0.484  0.3524  0.2313  0.5549
  100SOL     OW  445   2.259   0.199   0.579  0.3640  0.1694 -0.0209
  100SOL    HW2  446   2.184   0.200   0.520  0.4721  0.8930 -0.1500
  100SOL    HW3  447   2.257   0.112   0.619 -0.1285 -0.0670 -0.5513
  100SOL    MW4  448   2.249   0.188   0.576  0.3133  0.2337 -0.1079
  101SOL     OW  449   1.920   4.480   0.418  0.0586 -0.1453 -0.2788
  101SOL    HW2  450   1.963   4.474   0.334  1.6696  0.3951  0.4949
  101SOL    HW3  451   1.974   4.427   0.477 -1.3323 -0.9474  0.3271
  101SOL    MW4  452   1.933   4.472   0.415  0.0877 -0.1798 -0.0968
  102SOL     OW  453   2.062   0.550   0.864 -0.2502 -0.2839  0.0570
  102SOL    HW2  454   2.147   0.514   0.837 -0.3603 -0.9783  0.6203
  102SOL    HW3  455   2.000   0.478   0.851 -0.5080 -0.2400  1.0143
  102SOL    MW4  456   2.065   0.536   0.859 -0.2987 -0.3697  0.2576
  103SOL     OW  457   1.845   0.110   0.784  0.0953  0.0889 -0.0742
  103SOL    HW2  458   1.895   0.030   0.801  0.7443  0.5215  0.0387
  103SOL    HW3  459   1.755   0.088   0.811  0.8239  0.3234  2.5837
  103SOL    MW4  460   1.839   0.096   0.790  0.2770  0.1769  0.2914
  104SOL     OW  461   1.890   0.570   0.544  0.4335 -0.3934 -0.0372
  104SOL    HW2  462   1.926   0.638   0.601 -0.7519 -0.2873  0.5951
  104SOL    HW3  463   1.961   0.552   0.482  1.1483  0.6546  0.4447
  104SOL    MW4  464   1.904   0.577   0.543  0.3716 -0.2412  0.1099
  105SOL     OW  465   2.341   1.225   0.290  0.1441  0.2027 -0.1240
  105SOL    HW2  466   2.386   1.268   0.217  0.3787  1.8243  0.9588
  105SOL    HW3  467   2.280   1.291   0.322  0.5556 -0.2524  1.6144
  105SOL    MW4  468   2.339   1.239   0.284  0.2296  0.3568  0.2482
  106SOL     OW  469   2.128   1.183   0.570  0.4356  0.2271 -0.2288
  106SOL    HW2  470   2.104   1.094   0.543 -0.3580  0.4138 -0.1451
  106SOL    HW3  471   2.163   1.173   0.659  0.4912 -0.0166 -0.2777
  106SOL    MW4  472   2.130   1.170   0.578  0.3381  0.2197 -0.2242
  107SOL     OW  473   1.585   1.985   0.269 -0.4760 -0.1821 -0.6943
  107SOL    HW2  474   1.520   1.935   0.319 -0.1264 -0.4934 -0.5461
  107SOL    HW3  475   1.545   1.996   0.182 -1.6277  1.4386  0.0070
  107SOL    MW4  476   1.571   1.980   0.264 -0.5817 -0.0093 -0.5822
  108SOL     OW  477   2.500   1.515   0.881  0.3971 -0.0002 -0.1095
  108SOL    HW2  478   2.572   1.552   0.829 -0.2725  1.3273 -0.1105
  108SOL    HW3  479   2.492   1.424   0.850 -0.0176  0.7793 -2.3960
  108SOL    MW4  480   2.508   1.508   0.870  0.2537  0.2778 -0.4113
  109SOL     OW  481   2.343   1.604   0.466 -0.1960 -0.1623  0.2601
  109SOL    HW2  482   2.320   1.673   0.404  1.1359 -0.6205 -0.7650
  109SOL    HW3  483   2.439   1.601   0.465 -0.2098 -1.4516  0.9148
  109SOL    MW4  484   2.353   1.612   0.458 -0.0224 -0.3928  0.2112
  110SOL     OW  485   2.051   2.357   0.381 -0.1219 -0.1101  0.3961
  110SOL    HW2  486   1.957   2.367   0.396 -0.2497  0.2115 -0.6174
  110SOL    HW3  487   2.068   2.264   0.399 -0.7261 -0.2844  0.0773
  110SOL    MW4  488   2.041   2.346   0.386 -0.2186 -0.0906  0.2203
  111SOL     OW  489   1.920   1.897   0.323 -0.2531  0.1648  0.1873
  111SOL    HW2  490   1.868   1.949   0.263  0.3524  1.0072  0.3839
  111SOL    HW3  491   1.859   1.831   0.356 -0.1373 -1.4338 -2.6718
  111SOL    MW4  492   1.905   1.895   0.320 -0.1581  0.0650 -0.1640
  112SOL     OW  493   1.663   3.303   0.519 -0.3913 -0.1443 -0.1306
  112SOL    HW2  494   1.697   3.392   0.517  0.2512 -0.3148  1.7926
  112SOL    HW3  495   1.737   3.249   0.489 -0.7599 -0.0332 -1.2349
  112SOL    MW4  496   1.677   3.307   0.515 -0.3552 -0.1521 -0.0226
  113SOL     OW  497   1.363   2.716   0.292  0.0539  0.3613  0.1907
  113SOL    HW2  498   1.355   2.810   0.304 -1.8818  0.2066  0.1879
  113SOL    HW3  499   1.293   2.678   0.344  1.2225 -1.1314  0.7230
  113SOL    MW4  500   1.353   2.723   0.300 -0.0472  0.1438  0.2606
  114SOL     OW  501   1.616   2.852   0.519 -0.2457  0.2046 -0.0260
  114SOL    HW2  502   1.712   2.857   0.517 -0.3062  1.3739 -0.5781
  114SOL    HW3  503   1.594   2.833   0.610  0.3895  2.9056  0.7210
  114SOL    MW4  504   1.626   2.850   0.531 -0.1699  0.7155 -0.0002
  115SOL     OW  505   0.928   1.470   0.341  0.6300 -0.2953 -0.2180
  115SOL    HW2  506   1.003   1.490   0.285  0.4615 -0.8118 -0.6420
  115SOL    HW3  507   0.916   1.547   0.395 -0.0004  0.7474 -1.8052
  115SOL    MW4  508   0.936   1.482   0.341  0.5246 -0.2259 -0.4833
  116SOL     OW  509   4.091   2.393   0.468  0.2405 -0.1781  0.2057
  116SOL    HW2  510   4.081   2.364   0.559 -1.3181  0.0038  0.0925
  116SOL    HW3  511   4.124   2.482   0.474 -2.1050  0.6865  0.6313
  116SOL    MW4  512   4.094   2.401   0.481 -0.2742 -0.0401  0.2469
  117SOL     OW  513   1.061   1.968   0.480  0.4189 -0.4232  0.4303
  117SOL    HW2  514   1.006   2.035   0.440 -0.4627 -1.0929  0.5194
  117SOL    HW3  515   1.059   1.987   0.574  0.8429 -0.0807  0.3733
  117SOL    MW4  516   1.054   1.980   0.487  0.3586 -0.4663  0.4345
  118SOL     OW  517   1.396   2.372   0.475 -0.0779 -0.3608 -0.1514
  118SOL    HW2  518   1.469   2.434   0.473 -0.5141  0.1744  0.4735
  118SOL    HW3  519   1.319   2.425   0.454 -0.2886 -0.9278 -0.8339
  118SOL    MW4  520   1.396   2.387   0.472 -0.1633 -0.3648 -0.1590
  119SOL     OW  521   1.630   3.592   0.419 -0.2319 -0.0826 -0.4080
  119SOL    HW2  522   1.538   3.605   0.397  0.2118  1.8213 -1.1626
  119SOL    HW3  523   1.676   3.667   0.381  1.4870 -0.4049  0.9319
  119SOL    MW4  524   1.624   3.603   0.411  0.0534  0.1264 -0.3308
  120SOL     OW  525   2.303   2.981   0.381 -0.0639 -0.1141 -0.7853
  120SOL    HW2  526   2.385   2.935   0.365 -0.0377 -0.9368  1.6100
  120SOL    HW3  527   2.240   2.911   0.401 -0.5801  0.7179  0.5587
  120SOL    MW4  528   2.305   2.965   0.381 -0.1285 -0.1130 -0.2920
  121SOL     OW  529   2.134   4.411   0.223  0.2078  0.4532  0.2643
  121SOL    HW2  530   2.116   4.359   0.145 -2.3326  0.9769  0.4576
  121SOL    HW3  531   2.164   4.347   0.288  0.5700 -0.2456 -0.5911
  121SOL    MW4  532   2.136   4.395   0.221 -0.0794  0.4296  0.1769
  122SOL     OW  533   0.478   4.369   0.107 -0.1073 -0.0958 -0.1515
  122SOL    HW2  534   0.446   4.283   0.130 -1.5109  0.5296  0.2569
  122SOL    HW3  535   0.438   4.389   0.022 -1.4768  1.0086  0.7255
  122SOL    MW4  536   0.469   4.361   0.099 -0.4732  0.1326  0.0181
  123SOL     OW  537   1.181   4.399   0.498  0.0202  0.0106 -0.1321
  123SOL    HW2  538   1.143   4.417   0.584 -0.8082  0.1581 -0.5251
  123SOL    HW3  539   1.169   4.305   0.485  0.2054 -0.0244 -0.0658
  123SOL    MW4  540   1.175   4.389   0.508 -0.0646  0.0257 -0.1752
  124SOL     OW  541   1.390   0.060   0.485 -0.5281  0.2732 -0.2069
  124SOL    HW2  542   1.398  -0.034   0.469 -0.4533  0.2360  0.0628
  124SOL    HW3  543   1.479   0.094   0.472 -0.1616  0.0305  1.6078
  124SOL    MW4  544   1.403   0.052   0.481 -0.4698  0.2363  0.0682
  125SOL     OW  545   2.649   0.517   0.444  0.1506  0.2410  0.1035
  125SOL    HW2  546   2.609   0.430   0.443  1.3035 -0.3185 -1.5686
  125SOL    HW3  547   2.582   0.575   0.409 -0.4334 -0.0684  0.6991
  125SOL    MW4  548   2.635   0.513   0.439  0.2255  0.1263 -0.0385
  126SOL     OW  549   1.699   4.322   0.429  0.1635 -0.0346  0.5361
  126SOL    HW2  550   1.779   4.376   0.421 -0.0639  0.0246 -1.7749
  126SOL    HW3  551   1.630   4.386   0.447  0.3729  0.1013  0.8747
  126SOL    MW4  552   1.701   4.338   0.430  0.1612 -0.0091  0.2759
  127SOL     OW  553   1.698   0.989   0.476 -0.0822  0.0095  0.2414
  127SOL    HW2  554   1.611   0.957   0.451 -0.7604  1.4927  0.6803
  127SOL    HW3  555   1.717   0.945   0.559 -0.5411 -0.0778  0.2997
  127SOL    MW4  556   1.689   0.979   0.484 -0.2322  0.1937  0.3069
  128SOL     OW  557   3.526   0.556   0.470  0.4758  0.0864 -0.4828
  128SOL    HW2  558   3.494   0.548   0.560  2.1163  1.1074  0.2064
  128SOL    HW3  559   3.557   0.468   0.448 -0.4364 -0.3005 -0.2515
  128SOL    MW4  560   3.526   0.543   0.479  0.5720  0.1701 -0.3613
  129SOL     OW  561   2.694   1.000   0.478  0.2622  0.1672  0.0114
  129SOL    HW2  562   2.638   1.077   0.479  0.5766  0.4275 -1.4834
  129SOL    HW3  563   2.782   1.034   0.464  0.4593 -0.4301 -0.2352
  129SOL    MW4  564   2.698   1.015   0.476  0.3297  0.1227 -0.2183
  130SOL     OW  565   3.215   1.155   0.346  0.8508 -0.0415  0.3969
  130SOL    HW2  566   3.277   1.083   0.353  0.8393 -0.0340  0.6052
  130SOL    HW3  567   3.129   1.113   0.337  1.0406 -0.0504 -1.4718
  130SOL    MW4  568   3.212   1.140   0.346  0.8743 -0.0418  0.1778
  131SOL     OW  569   2.635   1.664   0.464 -0.0640  0.3493 -0.1650
  131SOL    HW2  570   2.666   1.648   0.553  1.8308 -0.0966 -0.8822
  131SOL    HW3  571   2.666   1.753   0.443 -0.5839  0.4906 -0.3441
  131SOL    MW4  572   2.643   1.674   0.473  0.1173  0.3091 -0.2832
  132SOL     OW  573   2.535   2.099   0.475  0.4650 -0.0864  0.1847
  132SOL    HW2  574   2.513   2.082   0.566  2.0031 -1.3352  0.3420
  132SOL    HW3  575   2.583   2.182   0.477  1.9090 -0.9183  0.7355
  132SOL    MW4  576   2.539   2.108   0.487  0.8585 -0.3610  0.2781
  133SOL     OW  577   2.935   0.515   0.439  0.3550 -0.1397  0.3759
  133SOL    HW2  578   2.841   0.531   0.427 -0.1319 -2.5171  0.7913
  133SOL    HW3  579   2.971   0.601   0.464 -1.6602  0.8366  0.0562
  133SOL    MW4  580   2.927   0.529   0.440  0.0248 -0.3245  0.3886
  134SOL     OW  581   2.768   1.942   0.483  0.1339 -0.0711 -0.0468
  134SOL    HW2  582   2.686   1.990   0.472  0.5254  0.6307  0.0005
  134SOL    HW3  583   2.796   1.963   0.572 -0.1787 -1.1734  0.3067
  134SOL    MW4  584   2.761   1.951   0.493  0.1442 -0.1240  0.0061
  135SOL     OW  585   2.287   2.089   0.324  0.0761  0.3384  0.3607
  135SOL    HW2  586   2.366   2.077   0.375  2.0010 -0.0081 -2.5971
  135SOL    HW3  587   2.216   2.079   0.388  2.3755  2.0648  3.3424
  135SOL    MW4  588   2.288   2.086   0.339  0.6335  0.5205  0.3639
  136SOL     OW  589   2.917   2.415   0.433 -0.3042 -0.3631  0.0018
  136SOL    HW2  590   2.946   2.497   0.473  0.1777 -0.1578 -0.7545
  136SOL    HW3  591   2.977   2.349   0.468  0.4920 -0.0890 -0.8328
  136SOL    MW4  592   2.929   2.417   0.443 -0.1359 -0.2999 -0.2081
  137SOL     OW  593   3.067   1.908   0.469  0.6078  0.1770  0.0342
  137SOL    HW2  594   2.971   1.914   0.468  0.6406  0.7833 -0.2738
  137SOL    HW3  595   3.086   1.815   0.473  0.0037  0.0017 -1.0641
  137SOL    MW4  596   3.057   1.897   0.470  0.5324  0.2339 -0.1513
  138SOL     OW  597   2.456   3.438   0.471 -0.5013 -0.4428 -0.4581
  138SOL    HW2  598   2.450   3.470   0.561 -0.7446  0.2500 -0.7200
  138SOL    HW3  599   2.483   3.347   0.480  0.3973 -0.1131  0.2900
  138SOL    MW4  600   2.459   3.430   0.484 -0.4146 -0.3078 -0.3939
  139SOL     OW  601   1.786   2.390   0.439  0.1024  0.0218 -0.1090
  139SOL    HW2  602   1.746   2.303   0.440  0.6754 -0.2308  0.7788
  139SOL    HW3  603   1.714   2.449   0.413 -0.9993 -0.3661  2.0159
  139SOL    MW4  604   1.771   2.387   0.435  0.0325 -0.0629  0.2884
  140SOL     OW  605   2.170   3.196   0.502  0.1262 -0.3233 -0.2311
  140SOL    HW2  606   2.203   3.194   0.592 -0.4949 -0.7056 -0.0066
  140SOL    HW3  607   2.225   3.134   0.454  0.3591 -0.2337 -0.0779
  140SOL    MW4  608   2.181   3.188   0.508  0.0751 -0.3617 -0.1813
  141SOL     OW  609   2.659   3.612   0.368 -0.0444  0.4810  0.7989
  141SOL    HW2  610   2.742   3.564   0.373  0.1793  0.5185 -1.8178
  141SOL    HW3  611   2.592   3.547   0.390  0.4157 -0.4879 -0.6272
  141SOL    MW4  612   2.661   3.597   0.372  0.0458  0.3583  0.2655
  142SOL     OW  613   1.794   3.833   0.349  0.5479 -0.2664 -0.3412
  142SOL    HW2  614   1.871   3.792   0.388 -0.1415 -1.3560 -0.1239
  142SOL    HW3  615   1.812   3.835   0.255  0.7525 -0.6908 -0.3094
  142SOL    MW4  616   1.806   3.828   0.342  0.4839 -0.4659 -0.3083
  143SOL     OW  617   1.343   3.933   0.534  0.1163 -0.1535  0.3722
  143SOL    HW2  618   1.338   3.840   0.514  1.1533  0.1078 -1.2223
  143SOL    HW3  619   1.421   3.964   0.487 -0.0675  1.4620  1.0783
  143SOL    MW4  620   1.353   3.925   0.525  0.2289  0.0942  0.2549
  144SOL     OW  621   2.202   3.905   0.456  0.1041  0.0555 -0.2061
  144SOL    HW2  622   2.135   3.837   0.468 -0.4427  0.6366  0.0533
  144SOL    HW3  623   2.285   3.857   0.453 -0.3043 -0.6472 -0.2957
  144SOL    MW4  624   2.204   3.889   0.457 -0.0219  0.0393 -0.1837
  145SOL     OW  625   2.272   4.651   0.281  0.5421 -0.1033  0.2181
  145SOL    HW2  626   2.223   4.579   0.243  0.1173  0.1579  0.2572
  145SOL    HW3  627   2.329   4.610   0.346  0.1483 -0.3779  0.3913
  145SOL    MW4  628   2.273   4.636   0.285  0.4342 -0.1049  0.2461
  146SOL     OW  629   2.628   0.076   0.485  0.1370 -0.0556  0.4057
  146SOL    HW2  630   2.569   0.149   0.467 -1.9191 -1.6609  0.4482
  146SOL    HW3  631   2.715   0.109   0.461 -1.0166  1.6940 -1.5538
  146SOL    MW4  632   2.632   0.090   0.480 -0.2863 -0.0365  0.1528
  147SOL     OW  633   3.167   0.427   0.295 -0.5854 -0.4079 -0.4318
  147SOL    HW2  634   3.079   0.444   0.330 -0.2151  0.3224  0.1618
  147SOL    HW3  635   3.155   0.356   0.233 -1.5724 -0.4383 -0.2104
  147SOL    MW4  636   3.154   0.420   0.292 -0.6669 -0.3156 -0.3242
  148SOL     OW  637   2.475   4.232   0.506 -0.0806 -0.3720  0.4494
  148SOL    HW2  638   2.479   4.256   0.599  0.3060  0.6962  0.1622
  148SOL    HW3  639   2.533   4.156   0.499  0.7077  0.1780  0.8947
  148SOL    MW4  640   2.483   4.225   0.517  0.0744 -0.1578  0.4703
  149SOL     OW  641   2.898   4.005   0.493  0.0043  0.1664  0.1968
  149SOL    HW2  642   2.804   4.021   0.502 -0.0905  1.0421 -2.0439
  149SOL    HW3  643   2.905   3.911   0.481 -0.6176  0.1278  0.1130
  149SOL    MW4  644   2.887   3.995   0.493 -0.0901  0.2766 -0.1099
  150SOL     OW  645   2.983   1.406   0.472  0.2860 -0.2482 -0.6773
  150SOL    HW2  646   2.938   1.355   0.540 -0.8892  0.0956 -1.1851
  150SOL    HW3  647   3.035   1.342   0.424 -0.7504 -0.8891 -0.9642
  150SOL    MW4  648   2.984   1.391   0.475 -0.0062 -0.2874 -0.7821
  151SOL     OW  649   1.633   0.450   0.530  0.2937  0.3434 -0.0525
  151SOL    HW2  650   1.716   0.496   0.534 -0.1795  1.1921  0.1145
  151SOL    HW3  651   1.657   0.359   0.515  1.2953  0.4017  1.1076
  151SOL    MW4  652   1.647   0.444   0.529  0.3635  0.4631  0.1225
  152SOL     OW  653   3.596   0.275   0.449 -0.2941 -0.4463  0.1442
  152SOL    HW2  654   3.685   0.300   0.470 -0.2856 -0.6064  0.3053
  152SOL    HW3  655   3.594   0.180   0.462 -0.0929 -0.6586 -1.3030
  152SOL    MW4  656   3.607   0.266   0.453 -0.2666 -0.4954 -0.0255
  153SOL     OW  657   2.523   0.789   0.425  0.2535 -0.1919 -0.0494
  153SOL    HW2  658   2.597   0.849   0.438  1.2583 -0.9052 -2.3164
  153SOL    HW3  659   2.449   0.846   0.404  0.5821  0.4146  0.4335
  153SOL    MW4  660   2.523   0.804   0.424  0.4294 -0.2060 -0.2848
  154SOL     OW  661   3.306   0.349   0.507 -0.4405  0.0790  0.2052
  154SOL    HW2  662   3.258   0.386   0.433  0.1823 -0.5528 -0.5310
  154SOL    HW3  663   3.391   0.324   0.470 -0.2770 -0.6368  1.0427
  154SOL    MW4  664   3.311   0.351   0.493 -0.3366 -0.0988  0.2186
  155SOL     OW  665   3.401   0.948   0.385 -0.2840 -0.2036 -0.1611
  155SOL    HW2  666   3.372   0.859   0.367  0.1973 -0.5264  0.6238
  155SOL    HW3  667   3.407   0.952   0.481  2.4350 -0.2260 -0.2956
  155SOL    MW4  668   3.398   0.937   0.396  0.1385 -0.2491 -0.0753
  156SOL     OW  669   3.422   1.299   0.425  0.0884  0.4946 -0.2916
  156SOL    HW2  670   3.339   1.254   0.408  0.6680 -1.0787  0.9156
  156SOL    HW3  671   3.438   1.286   0.518  1.8839  0.4544 -0.5823
  156SOL    MW4  672   3.413   1.291   0.435  0.4017  0.2819 -0.1707
  157SOL     OW  673   2.707   1.420   0.361 -0.1018 -0.0536 -0.2124
  157SOL    HW2  674   2.795   1.396   0.391 -0.5991  1.0882  2.2672
  157SOL    HW3  675   2.699   1.513   0.380 -1.6555 -0.0240 -0.9168
  157SOL    MW4  676   2.718   1.429   0.367 -0.3722  0.1010  0.0218
  158SOL     OW  677   2.674   0.059   0.762 -0.0087  0.5308 -0.2079
  158SOL    HW2  678   2.692   0.152   0.777  1.4250  0.4233 -1.0800
  158SOL    HW3  679   2.662   0.052   0.667 -0.6269 -0.0935 -0.0862
  158SOL    MW4  680   2.675   0.071   0.751  0.0987  0.4342 -0.3068
  159SOL     OW  681   2.644   2.346   0.493 -0.4232  0.5080  0.4830
  159SOL    HW2  682   2.583   2.411   0.458  0.1507  0.6803 -0.2046
  159SOL    HW3  683   2.726   2.363   0.448 -0.5325 -1.3484 -0.4862
  159SOL    MW4  684   2.647   2.356   0.483 -0.3619  0.2856  0.2644
  160SOL     OW  685   2.205   1.813   0.288  0.0470  0.0286  0.0015
  160SOL    HW2  686   2.110   1.819   0.290  0.1221  0.9238  1.6468
  160SOL    HW3  687   2.235   1.900   0.263  0.4305 -0.2596 -0.5528
  160SOL    MW4  688   2.196   1.825   0.285  0.1075  0.1087  0.1454
  161SOL     OW  689   2.725   1.598   0.743 -0.2648  0.0546 -0.1661
  161SOL    HW2  690   2.805   1.562   0.781  0.5514  0.7712 -1.1819
  161SOL    HW3  691   2.723   1.690   0.772 -1.0422 -0.1125  0.3500
  161SOL    MW4  692   2.735   1.605   0.752 -0.2596  0.1272 -0.2321
  162SOL     OW  693   2.516   2.793   0.448  0.6430  0.5123 -0.0658
  162SOL    HW2  694   2.483   2.704   0.432  0.3737  0.7740 -0.9718
  162SOL    HW3  695   2.527   2.797   0.543 -0.7015 -0.0168  0.1219
  162SOL    MW4  696   2.513   2.782   0.458  0.4301  0.4768 -0.1606
  163SOL     OW  697   3.040   3.216   0.524 -0.6162  0.6360  0.3352
  163SOL    HW2  698   2.954   3.180   0.503  0.7697 -2.1789 -0.7577
  163SOL    HW3  699   3.045   3.213   0.620  0.1002 -3.7937  0.2421
  163SOL    MW4  700   3.029   3.211   0.534 -0.3386 -0.3197  0.1787
  164SOL     OW  701   2.514   3.152   0.542 -0.1420 -0.3149  0.1521
  164SOL    HW2  702   2.496   3.111   0.627  1.4862 -0.2424  0.5475
  164SOL    HW3  703   2.449   3.114   0.483 -1.2835 -0.3768  1.4247
  164SOL    MW4  704   2.503   3.142   0.545 -0.0780 -0.3133  0.3721
  165SOL     OW  705   2.785   3.093   0.539  0.2835 -0.3727  0.1584
  165SOL    HW2  706   2.692   3.112   0.544  0.3530 -0.4507  2.2727
  165SOL    HW3  707   2.791   3.018   0.479 -0.7638  0.9747 -1.6832
  165SOL    MW4  708   2.774   3.085   0.531  0.1545 -0.2055  0.1944
  166SOL     OW  709   1.896   3.142   0.490  0.2949 -0.3721  0.0233
  166SOL    HW2  710   1.988   3.168   0.492  0.5567 -1.1088 -1.4311
  166SOL    HW3  711   1.899   3.046   0.493 -0.3955 -0.4128 -0.5096
  166SOL    MW4  712   1.908   3.133   0.490  0.2384 -0.4749 -0.2389
  167SOL     OW  713   2.025   3.694   0.492  0.5251 -0.2185  0.1713
  167SOL    HW2  714   2.006   3.695   0.586 -0.2822 -0.0843  0.0117
  167SOL    HW3  715   2.052   3.604   0.474 -2.3750 -1.1198 -0.0328
  167SOL    MW4  716   2.026   3.682   0.502  0.0360 -0.3195  0.1233
  168SOL     OW  717   3.559   3.495   0.530 -0.1931  0.4038  0.0194
  168SOL    HW2  718   3.490   3.537   0.582 -1.2345  1.0690 -1.8475
  168SOL    HW3  719   3.527   3.406   0.515 -0.2665  0.4560 -0.1391
  168SOL    MW4  720   3.545   3.489   0.535 -0.3400  0.4985 -0.2478
  169SOL     OW  721   3.096   4.197   0.522 -0.1511  0.0604  0.3680
  169SOL    HW2  722   3.045   4.117   0.510 -1.0422  0.7531 -0.4847
  169SOL    HW3  723   3.049   4.245   0.590 -0.3060  0.4252  0.0036
  169SOL    MW4  724   3.083   4.193   0.530 -0.2892  0.2003  0.2075
  170SOL     OW  725   2.459   3.794   0.465  0.2718  0.0430 -0.1682
  170SOL    HW2  726   2.472   3.741   0.544 -0.8921 -0.3380 -0.2233
  170SOL    HW3  727   2.533   3.773   0.409  1.6442  1.0541  1.2171
  170SOL    MW4  728   2.470   3.785   0.468  0.2995  0.1261  0.0073
  171SOL     OW  729   3.598   4.307   0.387 -0.0981  0.3045  0.5694
  171SOL    HW2  730   3.503   4.312   0.384 -0.1035  0.7509  1.2368
  171SOL    HW3  731   3.616   4.218   0.417 -0.3219  0.3878  0.9588
  171SOL    MW4  732   3.588   4.296   0.391 -0.1283  0.3748  0.7088
  172SOL     OW  733   3.303   4.314   0.350  0.1009  0.2974  0.4494
  172SOL    HW2  734   3.291   4.284   0.259  1.8706  1.8832 -0.3456
  172SOL    HW3  735   3.223   4.287   0.395 -0.7202 -0.6975 -1.5387
  172SOL    MW4  736   3.291   4.306   0.344  0.2263  0.3753  0.0822
  173SOL     OW  737   3.305   0.685   0.344  0.2650  0.0915 -0.1186
  173SOL    HW2  738   3.246   0.614   0.318 -0.5686  0.2053  1.3857
  173SOL    HW3  739   3.387   0.641   0.366  0.6154 -0.1160 -1.7959
  173SOL    MW4  740   3.308   0.670   0.343  0.2010  0.0792 -0.1414
  174SOL     OW  741   3.138   0.112   0.500 -0.2384  0.3689  0.6155
  174SOL    HW2  742   3.195   0.189   0.501  1.5130 -0.8851 -0.1893
  174SOL    HW3  743   3.122   0.093   0.593  1.5451  0.1331  0.9083
  174SOL    MW4  744   3.144   0.119   0.513  0.2279  0.1724  0.5479
  175SOL     OW  745   3.217   3.869   0.441  0.6921 -0.2163  0.5408
  175SOL    HW2  746   3.137   3.908   0.405  0.4174 -0.5316  0.8116
  175SOL    HW3  747   3.227   3.908   0.527  0.1767 -1.0611  0.9933
  175SOL    MW4  748   3.208   3.879   0.448  0.5879 -0.3693  0.6362
  176SOL     OW  749   3.363   1.575   0.380 -0.1122 -0.1568 -0.2981
  176SOL    HW2  750   3.440   1.625   0.408 -0.4960  0.4625 -0.3462
  176SOL    HW3  751   3.388   1.484   0.395  0.3055  0.0801  0.5211
  176SOL    MW4  752   3.377   1.569   0.386 -0.1078 -0.0436 -0.1964
  177SOL     OW  753   3.670   0.763   0.587 -0.2312 -0.0072 -0.3648
  177SOL    HW2  754   3.704   0.730   0.670  0.9476 -1.0959 -1.2605
  177SOL    HW3  755   3.644   0.685   0.539 -1.0002  0.6262 -0.9884
  177SOL    MW4  756   3.671   0.749   0.592 -0.1774 -0.0672 -0.5652
  178SOL     OW  757   2.866   0.204   0.420 -0.4208 -0.4864  0.0505
  178SOL    HW2  758   2.873   0.298   0.408  1.1605 -0.7136 -0.9193
  178SOL    HW3  759   2.953   0.176   0.448 -1.2209 -1.4792  1.6201
  178SOL    MW4  760   2.878   0.212   0.422 -0.3178 -0.6474  0.1296
  179SOL     OW  761   3.904   0.871   0.442  0.1504 -0.2778  0.0383
  179SOL    HW2  762   3.845   0.930   0.394  0.0620 -0.5106 -0.1414
  179SOL    HW3  763   3.852   0.842   0.518  0.3285  0.1770  0.3316
  179SOL    MW4  764   3.889   0.875   0.446  0.1621 -0.2485  0.0533
  180SOL     OW  765   3.057   0.782   0.446 -0.5945 -0.1566  0.0558
  180SOL    HW2  766   3.066   0.828   0.529  0.1507 -2.3417  1.2388
  180SOL    HW3  767   3.146   0.754   0.424 -0.8796 -0.1399 -1.1426
  180SOL    MW4  768   3.070   0.784   0.454 -0.5338 -0.4427  0.0538
  181SOL     OW  769   3.516   2.671   0.402 -0.0103 -0.3654  0.3635
  181SOL    HW2  770   3.523   2.586   0.359 -1.3765 -0.9942  1.3290
  181SOL    HW3  771   3.433   2.667   0.449 -0.7598  1.9917 -0.6397
  181SOL    MW4  772   3.506   2.659   0.402 -0.2894 -0.1373  0.3586
  182SOL     OW  773   3.123   1.651   0.507  0.1030 -0.3945  0.1449
  182SOL    HW2  774   3.191   1.634   0.442 -0.5878 -1.9557 -0.1989
  182SOL    HW3  775   3.064   1.576   0.500 -1.5946  0.8738  0.5209
  182SOL    MW4  776   3.124   1.639   0.498 -0.2120 -0.4331  0.1491
  183SOL     OW  777   3.916   1.254   0.467 -0.6135  0.0621  0.5158
  183SOL    HW2  778   3.935   1.347   0.452  2.2775 -1.0101 -3.2840
  183SOL    HW3  779   3.835   1.238   0.419  0.7182 -0.0444 -1.7988
  183SOL    MW4  780   3.908   1.265   0.458 -0.0565 -0.0933 -0.2909
  184SOL     OW  781   3.556   1.971   0.512  0.0980 -0.0157 -0.5872
  184SOL    HW2  782   3.504   1.964   0.592  0.5696  1.2971 -0.1645
  184SOL    HW3  783   3.508   2.034   0.458  0.6636  0.3748 -0.6411
  184SOL    MW4  784   3.542   1.978   0.515  0.2348  0.2091 -0.5385
  185SOL     OW  785   3.133   2.204   0.487  0.0256 -0.0489  0.1338
  185SOL    HW2  786   3.160   2.172   0.401  0.2146  1.2524 -0.3025
  185SOL    HW3  787   3.102   2.126   0.533  1.4811 -1.0317 -0.5144
  185SOL    MW4  788   3.133   2.189   0.482  0.2427 -0.0069 -0.0093
  186SOL     OW  789   3.302   2.665   0.575 -0.0045 -0.2219  0.0731
  186SOL    HW2  790   3.332   2.613   0.650 -0.8059 -0.5020  0.2133
  186SOL    HW3  791   3.212   2.635   0.561  0.1005 -0.0757 -0.9241
  186SOL    MW4  792   3.294   2.654   0.583 -0.0966 -0.2396 -0.0401
  187SOL     OW  793   2.901   2.892   0.728 -0.1214 -0.4905  0.3692
  187SOL    HW2  794   2.995   2.890   0.711 -0.0321  1.2090  0.5583
  187SOL    HW3  795   2.870   2.969   0.680 -1.2195 -0.3682  1.2498
  187SOL    MW4  796   2.909   2.902   0.719 -0.2542 -0.2503  0.5103
  188SOL     OW  797   3.020   2.632   0.586  0.0793  0.3658 -0.1537
  188SOL    HW2  798   2.958   2.705   0.584 -0.5575 -0.1845 -1.7443
  188SOL    HW3  799   3.027   2.609   0.679 -1.3424  1.0715  0.1482
  188SOL    MW4  800   3.013   2.639   0.598 -0.1919  0.3867 -0.3238
  189SOL     OW  801   3.192   2.906   0.682 -0.7481  0.1565  0.2524
  189SOL    HW2  802   3.238   2.929   0.763 -0.2049  1.0103 -0.2915
  189SOL    HW3  803   3.235   2.825   0.652 -0.2310  0.4292  0.2516
  189SOL    MW4  804   3.204   2.898   0.689 -0.6082  0.3052  0.1805
  190SOL     OW  805   3.586   4.662   0.540  0.0988  0.4381 -0.4858
  190SOL    HW2  806   3.502   4.639   0.500  0.1537 -1.5939  0.5126
  190SOL    HW3  807   3.649   4.602   0.500  0.9359  1.3668 -0.5797
  190SOL    MW4  808   3.583   4.651   0.530  0.2165  0.2926 -0.3664
  191SOL     OW  809   2.990   3.716   0.493 -0.1046 -0.4452 -0.2604
  191SOL    HW2  810   2.973   3.628   0.457 -0.2699 -0.5887  0.1666
  191SOL    HW3  811   3.084   3.727   0.484 -0.1960 -0.3189 -1.1037
  191SOL    MW4  812   3.000   3.706   0.487 -0.1385 -0.4473 -0.3153
  192SOL     OW  813   4.383   4.246   0.253  0.0362 -0.0721  0.1356
  192SOL    HW2  814   4.472   4.239   0.286  0.3200 -1.8004 -0.9164
  192SOL    HW3  815   4.328   4.214   0.325  0.5459 -2.4582 -0.4976
  192SOL    MW4  816   4.387   4.240   0.267  0.1411 -0.6146 -0.0867
  193SOL     OW  817   3.534   2.962   0.358 -0.3601 -0.1344  0.3104
  193SOL    HW2  818   3.527   2.866   0.364 -0.2005 -0.1155  0.8656
  193SOL    HW3  819   3.445   2.993   0.377 -0.2124 -0.1408  1.0425
  193SOL    MW4  820   3.521   2.953   0.362 -0.3195 -0.1328  0.4803
  194SOL     OW  821   3.494   3.223   0.570 -0.1493  0.3315  0.0935
  194SOL    HW2  822   3.574   3.177   0.544  0.5410 -0.3333  3.2415
  194SOL    HW3  823   3.423   3.164   0.544  0.5190 -0.4647  0.0640
  194SOL    MW4  824   3.495   3.209   0.563  0.0300  0.1390  0.5050
  195SOL     OW  825   3.668   4.043   0.445 -0.0347  0.1133 -0.1797
  195SOL    HW2  826   3.758   4.026   0.417  0.1040  1.5591 -0.6753
  195SOL    HW3  827   3.621   3.961   0.430  0.8236 -0.1444 -1.4523
  195SOL    MW4  828   3.674   4.030   0.440  0.0968  0.2699 -0.4130
  196SOL     OW  829   2.171   3.452   0.476 -0.1028 -0.2493  0.3650
  196SOL    HW2  830   2.262   3.466   0.451  0.5485 -2.3727  1.4090
  196SOL    HW3  831   2.160   3.357   0.475 -2.4582  0.0012 -0.2498
  196SOL    MW4  832   2.181   3.442   0.473 -0.3276 -0.4964  0.4216
  197SOL     OW  833   0.139   4.181   0.383  0.1450  0.4409  0.3793
  197SOL    HW2  834   0.124   4.102   0.434 -0.4357  1.2307  1.4348
  197SOL    HW3  835   0.155   4.250   0.447 -0.3075  1.3856 -0.4972
  197SOL    MW4  836   0.139   4.180   0.398  0.0087  0.6695  0.4029
  198SOL     OW  837   4.170   4.319   0.488 -0.4229 -0.5022 -0.2420
  198SOL    HW2  838   4.213   4.360   0.563  1.0850 -0.8480 -0.8943
  198SOL    HW3  839   4.120   4.390   0.447  0.0633  0.0759  0.1476
  198SOL    MW4  840   4.169   4.334   0.492 -0.1597 -0.4711 -0.2767
  199SOL     OW  841   4.297   0.341   0.149 -0.3900  0.3322  0.5071
  199SOL    HW2  842   4.298   0.332   0.244 -0.2040 -1.1006  0.3781
  199SOL    HW3  843   4.287   0.252   0.116 -1.9887  0.9685 -0.8041
  199SOL    MW4  844   4.296   0.328   0.157 -0.5770  0.2271  0.3171
  200SOL     OW  845   3.983   0.607   0.390  0.2054  0.1457  0.0014
  200SOL    HW2  846   3.941   0.693   0.393  1.1058  0.6112 -0.7293
  200SOL    HW3  847   4.011   0.597   0.299  0.9916 -0.4961  0.3074
  200SOL    MW4  848   3.981   0.617   0.379  0.4282  0.1225 -0.0547
  201SOL     OW  849   4.037   0.168   0.471 -0.7124  0.1922  0.2194
  201SOL    HW2  850   3.971   0.235   0.456 -0.5116  0.1642 -0.8270
  201SOL    HW3  851   4.119   0.208   0.441 -0.4368 -0.1593  0.5020
  201SOL    MW4  852   4.039   0.182   0.465 -0.6495  0.1422  0.1186
  202SOL     OW  853   3.853   0.383   0.490 -0.0845  0.2532  0.4316
  202SOL    HW2  854   3.839   0.425   0.575  1.7601  0.6442  0.5516
  202SOL    HW3  855   3.881   0.453   0.432 -0.5534 -0.1585 -0.2988
  202SOL    MW4  856   3.855   0.398   0.494  0.0970  0.2505  0.3510
  203SOL     OW  857   3.671   1.010   0.339 -0.2969 -0.4792 -0.4491
  203SOL    HW2  858   3.668   1.103   0.314 -0.1675 -0.4269 -0.2739
  203SOL    HW3  859   3.581   0.988   0.362 -0.2568 -0.2913 -0.1110
  203SOL    MW4  860   3.659   1.019   0.338 -0.2744 -0.4475 -0.3814
  204SOL     OW  861   4.348   0.989   0.411 -0.1539  0.1078  0.2238
  204SOL    HW2  862   4.261   1.008   0.448 -0.3284  0.1626 -0.2165
  204SOL    HW3  863   4.337   0.906   0.365  0.5337 -0.9252  1.8771
  204SOL    MW4  864   4.335   0.981   0.410 -0.0863 -0.0213  0.3839
  205SOL     OW  865   3.597   1.707   0.451 -0.3214 -0.3979  0.1316
  205SOL    HW2  866   3.590   1.802   0.458  0.9699 -0.1996 -0.9883
  205SOL    HW3  867   3.622   1.678   0.538 -1.2254  0.2254  0.6151
  205SOL    MW4  868   3.599   1.716   0.463 -0.2701 -0.2894  0.0476
  206SOL     OW  869   4.238   1.909   0.377  0.2833  0.7789 -0.3844
  206SOL    HW2  870   4.221   1.939   0.288  0.5981  0.2417 -0.6295
  206SOL    HW3  871   4.293   1.831   0.366  2.9992  2.5343  0.3898
  206SOL    MW4  872   4.243   1.902   0.364  0.6833  0.9396 -0.3146
  207SOL     OW  873   3.680   1.291   0.310  0.0327 -0.0142 -0.3556
  207SOL    HW2  874   3.592   1.306   0.344 -0.0857  0.1121 -0.7122
  207SOL    HW3  875   3.706   1.376   0.275 -0.3817 -0.4834 -1.8074
  207SOL    MW4  876   3.672   1.305   0.310 -0.0374 -0.0594 -0.5942
  208SOL     OW  877   3.666   2.400   0.651  0.4998 -0.0120 -1.0527
  208SOL    HW2  878   3.680   2.363   0.738  0.9289  0.6878 -0.8217
  208SOL    HW3  879   3.573   2.384   0.633  0.4600 -0.3519 -0.5576
  208SOL    MW4  880   3.655   2.393   0.660  0.5510  0.0358 -0.9569
  209SOL     OW  881   3.824   2.319   0.417  0.1464 -0.2745  0.0180
  209SOL    HW2  882   3.906   2.365   0.436  0.3598 -0.6908  0.1014
  209SOL    HW3  883   3.761   2.358   0.478  0.6892 -1.1899  1.1978
  209SOL    MW4  884   3.827   2.331   0.428  0.2460 -0.4501  0.1847
  210SOL     OW  885   3.213   2.032   0.293 -0.5577 -0.1373  0.1569
  210SOL    HW2  886   3.172   1.974   0.358  0.1863 -0.2052  0.5777
  210SOL    HW3  887   3.177   2.003   0.209 -0.9090 -0.5892  0.4596
  210SOL    MW4  888   3.203   2.020   0.290 -0.5057 -0.2058  0.2523
  211SOL     OW  889   2.901   3.450   0.425  0.2133  0.1319  0.1395
  211SOL    HW2  890   2.858   3.455   0.510 -1.0556  0.7212 -0.5203
  211SOL    HW3  891   2.973   3.388   0.438  0.4468  0.7273  1.8072
  211SOL    MW4  892   2.905   3.442   0.438  0.0768  0.2885  0.2725
  212SOL     OW  893   2.124   2.774   0.394  0.4137  0.2015 -0.2986
  212SOL    HW2  894   2.156   2.700   0.446  1.5224  0.5693 -0.4243
  212SOL    HW3  895   2.153   2.755   0.305  0.2352  0.5283 -0.4257
  212SOL    MW4  896   2.132   2.762   0.389  0.5364  0.2935 -0.3320
  213SOL     OW  897   4.380   2.872   0.488  0.4882  0.0397  0.0746
  213SOL    HW2  898   4.475   2.883   0.485  0.5787 -0.7777 -0.1669
  213SOL    HW3  899   4.345   2.955   0.454  1.0864  0.7012  1.0238
  213SOL    MW4  900   4.388   2.885   0.483  0.5789  0.0193  0.1679
  214SOL     OW  901   3.393   2.273   0.594  0.5364  0.1001 -0.0687
  214SOL    HW2  902   3.306   2.268   0.554  0.5036  0.5353 -0.0565
  214SOL    HW3  903   3.400   2.192   0.645  0.4775 -0.3309 -0.7438
  214SOL    MW4  904   3.382   2.261   0.595  0.5243  0.1004 -0.1561
  215SOL     OW  905   0.356   4.150   0.193 -0.2330  0.3800 -0.1392
  215SOL    HW2  906   0.408   4.094   0.250  0.9461  1.9658  0.3731
  215SOL    HW3  907   0.278   4.171   0.245  0.0511  0.4841  0.2419
  215SOL    MW4  908   0.353   4.145   0.207 -0.0400  0.6037 -0.0213
  216SOL     OW  909   3.462   2.150   0.346 -0.5136  0.2505  0.1821
  216SOL    HW2  910   3.456   2.208   0.421  0.1032 -0.8809  1.1320
  216SOL    HW3  911   3.375   2.111   0.338 -0.4807  0.0907  0.5614
  216SOL    MW4  912   3.450   2.152   0.355 -0.4277  0.0801  0.3574
  217SOL     OW  913   3.493   3.824   0.420 -0.2371  0.0109  0.6735
  217SOL    HW2  914   3.409   3.869   0.416  0.3337  0.9210 -2.7630
  217SOL    HW3  915   3.473   3.733   0.396 -0.4963 -0.2100  1.7019
  217SOL    MW4  916   3.479   3.818   0.416 -0.1960  0.1018  0.3558
  218SOL     OW  917   4.246   3.625   0.445 -0.3198 -0.1200  0.1585
  218SOL    HW2  918   4.261   3.715   0.417  0.6444  0.3003  1.8990
  218SOL    HW3  919   4.151   3.616   0.450 -0.4285  0.5691 -0.7338
  218SOL    MW4  920   4.236   3.636   0.442 -0.2069  0.0267  0.2704
  219SOL     OW  921   3.801   4.492   0.488  0.1351 -0.1667  0.5545
  219SOL    HW2  922   3.820   4.454   0.573  1.6096 -1.2545 -0.2463
  219SOL    HW3  923   3.748   4.426   0.443  0.6724 -0.2604  0.0531
  219SOL    MW4  924   3.796   4.478   0.493  0.4008 -0.3223  0.3827
  220SOL     OW  925   4.292   4.527   0.246  0.0290  0.2188 -0.1172
  220SOL    HW2  926   4.203   4.521   0.280 -0.1508  1.0793 -0.4246
  220SOL    HW3  927   4.330   4.440   0.261 -0.5068  0.1788  0.9875
  220SOL    MW4  928   4.285   4.514   0.252 -0.0653  0.3271 -0.0120
  221SOL     OW  929   0.450   4.508   0.349 -0.1712  0.2227  0.0887
  221SOL    HW2  930   0.527   4.472   0.392  0.0402  0.7734  0.1795
  221SOL    HW3  931   0.449   4.468   0.262  0.9115  1.1615 -0.3655
  221SOL    MW4  932   0.460   4.498   0.343 -0.0004  0.4196  0.0407
  222SOL     OW  933   4.092   1.046   0.522  0.1424 -0.2347 -0.0842
  222SOL    HW2  934   4.043   1.126   0.503 -1.0888 -0.9113  0.1743
  222SOL    HW3  935   4.040   0.976   0.482  0.2665 -1.0948  1.2359
  222SOL    MW4  936   4.079   1.047   0.514 -0.0038 -0.4375  0.1241
  223SOL     OW  937   0.078   1.770   0.486 -0.1012 -0.3801 -0.0595
  223SOL    HW2  938   0.003   1.737   0.437 -0.5858 -1.1912  1.2000
  223SOL    HW3  939   0.055   1.755   0.577  0.4204  1.8971  0.4563
  223SOL    MW4  940   0.065   1.763   0.491 -0.0963 -0.1866  0.1748
  224SOL     OW  941   0.379   0.501   0.541  0.2673  0.4573 -0.0772
  224SOL    HW2  942   0.394   0.469   0.630  0.9063 -1.3118 -0.8068
  224SOL    HW3  943   0.338   0.428   0.495  0.7955  1.0332 -1.4943
  224SOL    MW4  944   0.376   0.487   0.546  0.4213  0.2998 -0.3604
  225SOL     OW  945   0.401   2.212   0.390 -0.4262 -0.4135  0.3344
  225SOL    HW2  946   0.342   2.139   0.413  0.4311 -0.6109  1.9986
  225SOL    HW3  947   0.376   2.282   0.450 -0.6032  0.3510 -0.6213
  225SOL    MW4  948   0.390   2.211   0.401 -0.3365 -0.3386  0.4279
  226SOL     OW  949   4.338   3.977   0.124 -0.1543  0.1243 -0.1759
  226SOL    HW2  950   4.356   4.064   0.160 -1.5227  0.0918  0.6426
  226SOL    HW3  951   4.422   3.947   0.088  0.5444  1.3796  0.3926
  226SOL    MW4  952   4.351   3.984   0.124 -0.2427  0.2859  0.0071
  227SOL     OW  953   3.735   1.551   0.245 -0.1581 -0.1404  0.1532
  227SOL    HW2  954   3.680   1.611   0.295 -2.7827 -2.4326  0.1311
  227SOL    HW3  955   3.714   1.570   0.153  1.2554  0.9305  0.0338
  227SOL    MW4  956   3.725   1.561   0.239 -0.3178 -0.3015  0.1345
  228SOL     OW  957   4.365   1.637   0.337  0.0781  0.3123  0.3721
  228SOL    HW2  958   4.319   1.566   0.381 -0.2221  0.8930  1.0142
  228SOL    HW3  959   4.416   1.595   0.269 -1.3317 -0.3699 -0.2947
  228SOL    MW4  960   4.365   1.622   0.334 -0.1478  0.2987  0.3689
  229SOL     OW  961   3.816   2.051   0.532 -0.1257  0.3749  0.2725
  229SOL    HW2  962   3.725   2.030   0.514  0.2415 -0.9885 -0.0068
  229SOL    HW3  963   3.827   2.141   0.501 -1.1531  0.2588 -0.4226
  229SOL    MW4  964   3.806   2.060   0.526 -0.2127  0.1798  0.1439
  230SOL     OW  965   3.940   1.530   0.434  0.1972 -0.2693  0.4844
  230SOL    HW2  966   3.950   1.621   0.462  0.8919 -0.8414  2.1245
  230SOL    HW3  967   3.874   1.534   0.365 -1.1619  1.2425  1.8248
  230SOL    MW4  968   3.933   1.543   0.429  0.1094 -0.1453  0.8776
  231SOL     OW  969   4.401   2.101   0.518 -0.2608  0.3667  0.6324
  231SOL    HW2  970   4.358   2.026   0.477  0.4738 -0.1690  0.8325
  231SOL    HW3  971   4.355   2.177   0.483  0.5669 -0.0689 -1.4253
  231SOL    MW4  972   4.389   2.101   0.508 -0.0544  0.2387  0.3873
  232SOL     OW  973   0.231   1.559   0.408  0.7206  0.1905 -0.0219
  232SOL    HW2  974   0.201   1.563   0.317  0.5797 -0.8961 -0.0367
  232SOL    HW3  975   0.195   1.637   0.449  0.5161  0.5221 -0.8278
  232SOL    MW4  976   0.222   1.570   0.401  0.6751  0.0907 -0.1302
  233SOL     OW  977   0.221   2.682   0.321 -0.1828 -0.4244  0.4573
  233SOL    HW2  978   0.304   2.684   0.368  0.6946 -0.5850 -1.0368
  233SOL    HW3  979   0.173   2.609   0.358  0.6415 -0.7715  0.8445
  233SOL    MW4  980   0.225   2.673   0.332  0.0417 -0.4914  0.3112
  234SOL     OW  981   3.630   2.681   0.648  0.2719  0.0624  0.0706
  234SOL    HW2  982   3.651   2.588   0.638 -0.2519 -0.1198  0.7366
  234SOL    HW3  983   3.593   2.706   0.563  0.6111 -0.2757 -0.1825
  234SOL    MW4  984   3.628   2.672   0.635  0.2475 -0.0064  0.1252
  235SOL     OW  985   0.054   2.499   0.498 -1.0821 -0.1391 -0.1336
  235SOL    HW2  986   0.028   2.498   0.591 -1.4420  1.5574 -0.2034
  235SOL    HW3  987  -0.027   2.479   0.451 -0.3553 -3.7661 -0.0229
  235SOL    MW4  988   0.040   2.496   0.504 -1.0337 -0.3939 -0.1283
  236SOL     OW  989   0.007   3.536   0.353 -0.1865 -0.2582 -0.5581
  236SOL    HW2  990  -0.084   3.559   0.376  0.3507  0.7992  0.6308
  236SOL    HW3  991   0.060   3.599   0.402  1.2178 -1.2253 -0.8042
  236SOL    MW4  992   0.002   3.548   0.363  0.0697 -0.2463 -0.4337
  237SOL     OW  993   3.331   4.573   0.434  0.1320  0.7342  0.0113
  237SOL    HW2  994   3.250   4.622   0.449 -0.0906  0.2170  0.5550
  237SOL    HW3  995   3.304   4.498   0.381  0.2858  0.6550  0.0456
  237SOL    MW4  996   3.317   4.569   0.429  0.1230  0.6557  0.0876
  238SOL     OW  997   0.501   3.174   0.470 -0.5633  0.2276 -0.0884
  238SOL    HW2  998   0.476   3.187   0.562 -0.5979 -0.8147  0.0523
  238SOL    HW3  999   0.596   3.190   0.469 -0.3386 -1.0706  0.3783
  238SOL    MW4 1000   0.510   3.178   0.482 -0.5382 -0.0813 -0.0083
  239SOL     OW 1001   3.780   3.680   0.570  0.5647 -0.1089  0.4373
  239SOL    HW2 1002   3.698   3.638   0.542  0.3030  0.3146  0.5543
  239SOL    HW3 1003   3.768   3.696   0.663  1.0879 -0.7271  0.6138
  239SOL    MW4 1004   3.767   3.677   0.579  0.5989 -0.1345  0.4761
  240SOL     OW 1005   3.762   3.081   0.519 -0.0100 -0.1902  0.0789
  240SOL    HW2 1006   3.822   3.022   0.564 -0.2044  0.4712  1.2410
  240SOL    HW3 1007   3.695   3.024   0.482  0.1178 -0.7399  0.6853
  240SOL    MW4 1008   3.761   3.066   0.520 -0.0188 -0.1752  0.3122
  241SOL     OW 1009   4.302   3.900   0.378  0.3214  0.1149 -0.3316
  241SOL    HW2 1010   4.229   3.953   0.410  0.3169 -0.1831  0.1556
  241SOL    HW3 1011   4.302   3.914   0.283 -0.1856  0.3436 -0.3009
  241SOL    MW4 1012   4.292   3.909   0.370  0.2542  0.1059 -0.2633
  242SOL     OW 1013   4.105   4.043   0.493  0.3679  0.6554 -0.5950
  242SOL    HW2 1014   4.023   4.013   0.452 -1.6599  0.1297  3.6150
  242SOL    HW3 1015   4.096   4.139   0.494  0.8332  0.7368 -2.0394
  242SOL    MW4 1016   4.093   4.052   0.487  0.1621  0.5965 -0.2301
  243SOL     OW 1017   4.048   4.541   0.377  0.3670  0.1125  0.0128
  243SOL    HW2 1018   3.956   4.516   0.382  0.4275 -0.0106  0.5967
  243SOL    HW3 1019   4.051   4.630   0.413  0.4158  0.2823 -0.4050
  243SOL    MW4 1020   4.036   4.549   0.383  0.3815  0.1187  0.0347
  244SOL     OW 1021   0.045   0.211   0.486  0.1958 -0.3957  0.2559
  244SOL    HW2 1022   0.032   0.203   0.581 -3.2598  0.1747 -0.1107
  244SOL    HW3 1023   0.024   0.125   0.452 -0.8946  0.0484 -0.2044
  244SOL    MW4 1024   0.040   0.199   0.494 -0.4039 -0.2618  0.1468
  245SOL     OW 1025   0.196   0.080   0.878  0.0206  0.3382  0.0365
  245SOL    HW2 1026   0.191  -0.005   0.834  0.4851  1.0237 -1.3629
  245SOL    HW3 1027   0.113   0.123   0.858 -0.0669  0.3571  0.4405
  245SOL    MW4 1028   0.185   0.074   0.869  0.0703  0.4312 -0.0948
  246SOL     OW 1029   4.469   0.191   0.762  0.2897 -0.2199  0.0396
  246SOL    HW2 1030   4.401   0.128   0.787 -0.8833  0.4211 -1.4469
  246SOL    HW3 1031   4.444   0.272   0.806  0.1846 -0.0290 -0.3693
  246SOL    MW4 1032   4.457   0.193   0.771  0.1216 -0.1101 -0.2105
  247SOL     OW 1033   4.456   0.456   0.883 -0.6151 -0.1017 -0.2381
  247SOL    HW2 1034   4.471   0.440   0.976 -0.3536 -1.2342 -0.4705
  247SOL    HW3 1035   4.535   0.501   0.854  0.0916 -1.3685 -0.3030
  247SOL    MW4 1036   4.468   0.460   0.892 -0.4878 -0.4182 -0.2772
  248SOL     OW 1037   0.223   0.611   0.857  0.1679 -0.2500 -0.2026
  248SOL    HW2 1038   0.292   0.545   0.855  0.1438 -0.2732 -0.2613
  248SOL    HW3 1039   0.236   0.657   0.940  1.5626  1.1255 -1.1550
  248SOL    MW4 1040   0.234   0.609   0.868  0.3487 -0.0715 -0.3361
  249SOL     OW 1041   0.223   0.812   0.668 -0.1390  0.5585  0.3572
  249SOL    HW2 1042   0.214   0.738   0.728 -1.7778 -0.8990 -1.6115
  249SOL    HW3 1043   0.135   0.850   0.663 -0.3619 -0.1416 -2.0374
  249SOL    MW4 1044   0.210   0.807   0.675 -0.3846  0.2738 -0.2185
  250SOL     OW 1045   4.454   0.933   0.697 -0.0259  0.1285  0.1111
  250SOL    HW2 1046   4.382   0.894   0.747 -0.5738  0.3035 -0.5338
  250SOL    HW3 1047   4.424   0.930   0.606  0.3672  1.1115 -0.0496
  250SOL    MW4 1048   4.440   0.927   0.691 -0.0458  0.2813  0.0048
  251SOL     OW 1049   4.463   1.175   0.822  1.0164  0.3486  0.0088
  251SOL    HW2 1050   4.474   1.149   0.914 -1.0573  0.9134  0.4391
  251SOL    HW3 1051   4.454   1.092   0.775  2.7782  0.0282  0.1994
  251SOL    MW4 1052   4.463   1.160   0.828  0.9751  0.3810  0.0907
  252SOL     OW 1053   0.217   1.253   0.744 -0.1131 -0.0629 -0.0247
  252SOL    HW2 1054   0.127   1.227   0.763 -0.1911  0.9238  1.0105
  252SOL    HW3 1055   0.217   1.275   0.651 -0.8892 -0.2968 -0.0779
  252SOL    MW4 1056   0.205   1.253   0.734 -0.2258  0.0365  0.1048
  253SOL     OW 1057   0.230   1.494   0.896 -0.1323 -0.4274 -0.1884
  253SOL    HW2 1058   0.301   1.532   0.845 -0.5031  0.3787 -0.1140
  253SOL    HW3 1059   0.209   1.412   0.851 -0.4168  0.2505 -1.3045
  253SOL    MW4 1060   0.236   1.488   0.884 -0.2188 -0.2317 -0.3258
  254SOL     OW 1061   0.026   1.654   0.763 -0.0312 -0.1558 -0.7592
  254SOL    HW2 1062  -0.057   1.607   0.774  0.4840 -0.7332  0.7636
  254SOL    HW3 1063   0.089   1.605   0.816  0.9380  1.1893 -0.6385
  254SOL    MW4 1064   0.023   1.641   0.771  0.1646 -0.0546 -0.5424
  255SOL     OW 1065   0.020   1.927   0.887  0.5938  0.0069  0.1440
  255SOL    HW2 1066   0.098   1.970   0.850  2.2841 -2.0365  1.2457
  255SOL    HW3 1067   0.013   1.845   0.839 -1.1838  0.3793 -0.2580
  255SOL    MW4 1068   0.030   1.922   0.876  0.5823 -0.2136  0.2363
  256SOL     OW 1069   0.250   2.084   0.778 -0.0605 -0.0463  0.0896
  256SOL    HW2 1070   0.251   2.172   0.815 -0.9407 -0.5932  1.4787
  256SOL    HW3 1071   0.233   2.097   0.685 -0.0442  1.2603  0.2585
  256SOL    MW4 1072   0.248   2.097   0.771 -0.1745  0.0539  0.2952
  257SOL     OW 1073   0.190   2.356   0.862  0.0448 -0.3415  0.5450
  257SOL    HW2 1074   0.169   2.334   0.953 -2.2121  1.0632  0.4056
  257SOL    HW3 1075   0.277   2.393   0.866  0.0523 -0.4947  2.1139
  257SOL    MW4 1076   0.198   2.358   0.875 -0.2520 -0.1762  0.7335
  258SOL     OW 1077   4.471   2.509   0.756  0.4887 -0.1239 -0.2580
  258SOL    HW2 1078   4.394   2.454   0.774 -0.3393  1.2323  0.4519
  258SOL    HW3 1079   4.545   2.457   0.788 -0.1243 -1.4015 -0.8359
  258SOL    MW4 1080   4.470   2.495   0.763  0.2985 -0.1132 -0.2406
  259SOL     OW 1081   4.464   2.773   0.845 -0.2071  0.4093 -0.5196
  259SOL    HW2 1082   4.478   2.779   0.940  1.5521 -0.5583 -0.6878
  259SOL    HW3 1083   4.458   2.679   0.828  0.1066  0.5557 -1.4491
  259SOL    MW4 1084   4.465   2.761   0.855  0.0664  0.3011 -0.6644
  260SOL     OW 1085   0.225   2.841   0.748 -0.4289  0.1146  0.3470
  260SOL    HW2 1086   0.144   2.819   0.796 -0.7241 -1.6851 -0.9384
  260SOL    HW3 1087   0.205   2.821   0.657  1.0338  0.9498 -0.1704
  260SOL    MW4 1088   0.211   2.836   0.743 -0.2748 -0.0124  0.1091
  261SOL     OW 1089   0.220   3.100   0.834 -1.0527  0.8205  0.5895
  261SOL    HW2 1090   0.233   3.089   0.928  2.6677  0.2251  0.0924
  261SOL    HW3 1091   0.228   3.012   0.798  0.4542  1.4056 -0.5556
  261SOL    MW4 1092   0.223   3.087   0.842 -0.3630  0.8192  0.3729
  262SOL     OW 1093   4.465   3.216   0.794 -0.4350 -0.6147  0.1931
  262SOL    HW2 1094   4.550   3.181   0.820 -0.3965 -1.1006 -0.5783
  262SOL    HW3 1095   4.470   3.224   0.699 -1.4985 -1.2923  0.0744
  262SOL    MW4 1096   4.477   3.213   0.785 -0.5703 -0.7684  0.0757
  263SOL     OW 1097   0.002   3.466   0.887  0.0404  0.2772 -0.1835
  263SOL    HW2 1098  -0.077   3.507   0.851 -0.5487 -0.0382  0.7318
  263SOL    HW3 1099   0.001   3.377   0.852 -0.8667 -0.2297  1.0648
  263SOL    MW4 1100  -0.009   3.460   0.878 -0.1574  0.1686  0.1020
  264SOL     OW 1101   0.183   3.645   0.760  0.3684  0.1375 -0.1199
  264SOL    HW2 1102   0.121   3.578   0.790 -1.1456  1.8666  0.7308
  264SOL    HW3 1103   0.164   3.654   0.666 -0.8531  0.8557  0.1969
  264SOL    MW4 1104   0.172   3.637   0.751  0.0075  0.4606  0.0342
  265SOL     OW 1105   0.303   3.877   0.824  0.2176  0.2649 -0.2940
  265SOL    HW2 1106   0.294   3.875   0.920 -0.4188  0.0214 -0.3559
  265SOL    HW3 1107   0.269   3.793   0.795  1.2821 -0.0400 -0.6693
  265SOL    MW4 1108   0.297   3.866   0.833  0.2741  0.1926 -0.3516
  266SOL     OW 1109   0.071   4.030   0.756  0.0730  0.5518 -0.3159
  266SOL    HW2 1110  -0.007   3.999   0.803  0.2886  1.3621  0.5964
  266SOL    HW3 1111   0.144   3.985   0.799  0.1269 -0.0865 -1.0682
  266SOL    MW4 1112   0.070   4.020   0.768  0.1086  0.5741 -0.2949
  267SOL     OW 1113   0.005   4.280   0.817 -0.5027  0.1318  0.1580
  267SOL    HW2 1114  -0.007   4.279   0.912 -1.3659  0.1756  0.0554
  267SOL    HW3 1115   0.025   4.189   0.794 -0.3023  0.1212  0.3854
  267SOL    MW4 1116   0.006   4.268   0.826 -0.5901  0.1369  0.1745
  268SOL     OW 1117   0.186   4.472   0.768  0.1701  0.3489 -0.0580
  268SOL    HW2 1118   0.124   4.402   0.785  0.4643  0.1839  0.3262
  268SOL    HW3 1119   0.196   4.473   0.672 -1.8991  1.6417 -0.2978
  268SOL    MW4 1120   0.179   4.463   0.757 -0.0641  0.4978 -0.0389
  269SOL     OW 1121   0.673   0.030   0.834  0.0295  0.1045 -0.3873
  269SOL    HW2 1122   0.668   0.029   0.930 -2.5591  1.9229 -0.4481
  269SOL    HW3 1123   0.587   0.062   0.806  0.1336 -2.0624 -3.3850
  269SOL    MW4 1124   0.661   0.034   0.843 -0.2983  0.0587 -0.7908
  270SOL     OW 1125   0.437   0.139   0.733  0.2318 -0.4381 -0.4003
  270SOL    HW2 1126   0.361   0.116   0.787  0.4760  0.4929  0.3270
  270SOL    HW3 1127   0.407   0.123   0.643 -0.5499 -0.8754 -0.0661
  270SOL    MW4 1128   0.423   0.134   0.728  0.1609 -0.3729 -0.2602
  271SOL     OW 1129   0.404   0.394   0.800 -0.0864 -0.1663  0.6940
  271SOL    HW2 1130   0.489   0.432   0.824 -0.3866  1.9466 -1.3990
  271SOL    HW3 1131   0.426   0.308   0.764  1.3476  0.9179 -1.1099
  271SOL    MW4 1132   0.418   0.388   0.798  0.0632  0.2555  0.1798
  272SOL     OW 1133   0.665   0.504   0.760  0.2720 -0.1303  0.0818
  272SOL    HW2 1134   0.736   0.452   0.797 -0.1283 -0.2493  0.6796
  272SOL    HW3 1135   0.677   0.497   0.665  1.7936  0.8592  0.1849
  272SOL    MW4 1136   0.676   0.496   0.752  0.4200 -0.0154  0.1743
  273SOL     OW 1137   0.702   0.781   0.767 -0.0692 -0.4310 -0.4186
  273SOL    HW2 1138   0.625   0.829   0.736  0.3528  0.0634 -0.7243
  273SOL    HW3 1139   0.679   0.689   0.757 -0.2184 -0.2836 -1.5343
  273SOL    MW4 1140   0.689   0.775   0.762 -0.0331 -0.3464 -0.6061
  274SOL     OW 1141   0.481   0.906   0.687 -0.1834  0.3145 -0.0045
  274SOL    HW2 1142   0.475   0.993   0.726 -0.3374  0.1326  0.3733
  274SOL    HW3 1143   0.390   0.880   0.673 -0.1277  0.4242 -0.5835
  274SOL    MW4 1144   0.468   0.914   0.690 -0.1963  0.3050 -0.0311
  275SOL     OW 1145   0.469   1.145   0.833 -0.5088 -0.2072 -0.2925
  275SOL    HW2 1146   0.539   1.192   0.788 -1.3658  2.0348  0.6634
  275SOL    HW3 1147   0.389   1.189   0.805 -1.3159 -0.9489  0.8153
  275SOL    MW4 1148   0.467   1.157   0.823 -0.7284 -0.0092 -0.0203
  276SOL     OW 1149   0.685   1.278   0.734 -0.4595  0.3540 -0.4140
  276SOL    HW2 1150   0.674   1.358   0.785 -1.4046  0.3067 -0.5335
  276SOL    HW3 1151   0.690   1.308   0.643 -0.0851  0.3336 -0.4011
  276SOL    MW4 1152   0.684   1.292   0.728 -0.5348  0.3450 -0.4281
  277SOL     OW 1153   0.687   1.521   0.858 -0.0172  0.0719  0.1935
  277SOL    HW2 1154   0.680   1.515   0.954  1.6825 -0.0569  0.3224
  277SOL    HW3 1155   0.600   1.549   0.830 -0.3176  0.8786  1.8404
  277SOL    MW4 1156   0.675   1.524   0.867  0.1674  0.1613  0.4278
  278SOL     OW 1157   0.443   1.613   0.771 -0.3162  0.2157  0.0435
  278SOL    HW2 1158   0.454   1.705   0.794 -0.8917  0.1574  0.5696
  278SOL    HW3 1159   0.453   1.610   0.676  5.0071  0.0768  0.4135
  278SOL    MW4 1160   0.446   1.625   0.762  0.3102  0.1895  0.1618
  279SOL     OW 1161   0.437   1.885   0.864 -0.4109  0.0436 -0.0366
  279SOL    HW2 1162   0.430   1.891   0.959  0.5480  0.7808 -0.0053
  279SOL    HW3 1163   0.378   1.952   0.831 -0.9950 -0.4368  0.0320
  279SOL    MW4 1164   0.428   1.895   0.872 -0.3614  0.0774 -0.0235
  280SOL     OW 1165   0.668   2.040   0.790 -0.2264 -0.2105  0.2562
  280SOL    HW2 1166   0.604   1.979   0.828 -0.3793 -0.3101 -0.1623
  280SOL    HW3 1167   0.656   2.032   0.696  0.8497 -0.6995  0.1531
  280SOL    MW4 1168   0.658   2.031   0.783 -0.1047 -0.2882  0.1873
  281SOL     OW 1169   0.685   2.296   0.859 -0.3950  0.0307  0.1757
  281SOL    HW2 1170   0.696   2.293   0.954 -1.0409 -0.2465  0.2465
  281SOL    HW3 1171   0.675   2.205   0.833  1.7146 -0.0685 -0.4126
  281SOL    MW4 1172   0.685   2.284   0.868 -0.2019 -0.0191  0.1074
  282SOL     OW 1173   0.450   2.432   0.803  0.3023  0.4430  0.3535
  282SOL    HW2 1174   0.534   2.385   0.805 -0.3382 -0.7302  0.4828
  282SOL    HW3 1175   0.423   2.428   0.712 -1.1732 -2.0662  0.8560
  282SOL    MW4 1176   0.458   2.425   0.791  0.0232 -0.0432  0.4368
  283SOL     OW 1177   0.424   2.709   0.882  0.1974 -0.1591  0.5035
  283SOL    HW2 1178   0.444   2.626   0.837  0.8710  0.3265 -0.1063
  283SOL    HW3 1179   0.357   2.750   0.828  0.6664  0.2047  0.1901
  283SOL    MW4 1180   0.418   2.703   0.869  0.3482 -0.0470  0.3817
  284SOL     OW 1181   0.620   2.887   0.817  0.0134  0.2776  0.1628
  284SOL    HW2 1182   0.692   2.832   0.849 -0.7970 -0.7572  0.2594
  284SOL    HW3 1183   0.541   2.836   0.836 -0.9007  2.2232  1.7902
  284SOL    MW4 1184   0.619   2.873   0.824 -0.2142  0.3979  0.3902
  285SOL     OW 1185   0.676   3.140   0.885  0.1161  0.1701 -0.2883
  285SOL    HW2 1186   0.599   3.175   0.841 -1.4200  0.4593  2.5017
  285SOL    HW3 1187   0.664   3.045   0.883 -0.2937  0.2108  0.0736
  285SOL    MW4 1188   0.664   3.132   0.879 -0.1407  0.2139  0.1276
  286SOL     OW 1189   0.456   3.229   0.748  0.2254  0.2894 -0.3535
  286SOL    HW2 1190   0.460   3.324   0.760 -1.2135  0.2540  0.5035
  286SOL    HW3 1191   0.368   3.205   0.775  1.2971 -1.5928  1.6604
  286SOL    MW4 1192   0.445   3.238   0.753  0.1769  0.0362  0.0253
  287SOL     OW 1193   0.433   3.497   0.817  0.2790  0.3373  0.4908
  287SOL    HW2 1194   0.436   3.507   0.912 -1.0387  0.2685  0.5474
  287SOL    HW3 1195   0.357   3.548   0.790 -0.5584 -1.2885 -0.2982
  287SOL    MW4 1196   0.423   3.505   0.826 -0.0053  0.1137  0.3942
  288SOL     OW 1197   0.626   3.662   0.712 -0.2629 -0.1173  0.0974
  288SOL    HW2 1198   0.558   3.610   0.755 -1.0831  0.7393 -0.1389
  288SOL    HW3 1199   0.611   3.751   0.743 -0.5880  0.4439 -1.5921
  288SOL    MW4 1200   0.615   3.667   0.722 -0.4140  0.0699 -0.1567
  289SOL     OW 1201   0.637   3.921   0.833 -0.5979  0.5280 -0.5711
  289SOL    HW2 1202   0.717   3.931   0.782 -0.5028 -0.1603 -0.5691
  289SOL    HW3 1203   0.570   3.968   0.782 -0.3654  0.4091 -0.9913
  289SOL    MW4 1204   0.639   3.928   0.819 -0.5546  0.4213 -0.6263
  290SOL     OW 1205   0.452   4.060   0.673  0.1883  0.7413 -0.0028
  290SOL    HW2 1206   0.440   4.147   0.710  1.2476  0.9730 -0.1752
  290SOL    HW3 1207   0.387   4.006   0.717 -0.1263  1.5121  0.4863
  290SOL    MW4 1208   0.442   4.064   0.684  0.2865  0.8736  0.0390
  291SOL     OW 1209   0.401   4.293   0.808 -0.1535 -0.2340 -0.1666
  291SOL    HW2 1210   0.395   4.280   0.902  0.1123 -1.1079 -0.2601
  291SOL    HW3 1211   0.324   4.346   0.786 -0.4684 -0.4153  0.4796
  291SOL    MW4 1212   0.390   4.298   0.817 -0.1600 -0.3734 -0.0937
  292SOL     OW 1213   0.660   4.423   0.768  0.3041  0.3418  0.2599
  292SOL    HW2 1214   0.578   4.383   0.795  0.1462  1.0780  0.8769
  292SOL    HW3 1215   0.653   4.514   0.797  0.4508  0.9529 -1.5573
  292SOL    MW4 1216   0.648   4.430   0.775  0.3026  0.5198  0.1015
  293SOL     OW 1217   1.095   4.660   0.879 -0.0718  0.0413 -0.1325
  293SOL    HW2 1218   1.178   4.696   0.847 -0.0747 -0.7201 -1.0250
  293SOL    HW3 1219   1.028   4.709   0.831 -0.1389  0.6022  0.5306
  293SOL    MW4 1220   1.097   4.671   0.868 -0.0811  0.0157 -0.1627
  294SOL     OW 1221   0.923   0.121   0.701 -0.1251  0.0214 -0.3378
  294SOL    HW2 1222   0.913   0.213   0.727  0.0210 -0.2050  0.5366
  294SOL    HW3 1223   0.837   0.082   0.720 -0.2845  0.0365 -0.9937
  294SOL    MW4 1224   0.910   0.128   0.707 -0.1269 -0.0065 -0.3090
  295SOL     OW 1225   0.881   0.366   0.832  0.0714  0.1284  0.3022
  295SOL    HW2 1226   0.876   0.349   0.927 -1.1228  0.2207  0.2617
  295SOL    HW3 1227   0.957   0.423   0.822  0.8824 -0.7931  1.0772
  295SOL    MW4 1228   0.891   0.371   0.843  0.0208  0.0190  0.3991
  296SOL     OW 1229   1.121   0.502   0.782 -0.1697 -0.0831  0.0897
  296SOL    HW2 1230   1.181   0.434   0.812 -0.3736 -0.4874 -0.3896
  296SOL    HW3 1231   1.111   0.484   0.688 -0.6403  0.2834  0.0677
  296SOL    MW4 1232   1.127   0.490   0.773 -0.2586 -0.0882  0.0235
  297SOL     OW 1233   1.146   0.783   0.825  0.7751  0.1240 -0.2019
  297SOL    HW2 1234   1.144   0.787   0.921 -0.6465 -1.1460 -0.1712
  297SOL    HW3 1235   1.141   0.690   0.805 -1.4606  0.5011 -1.5648
  297SOL    MW4 1236   1.145   0.772   0.835  0.2927  0.0063 -0.3777
  298SOL     OW 1237   0.938   0.905   0.684 -0.4437  0.5820 -0.4873
  298SOL    HW2 1238   1.006   0.862   0.735 -1.2675 -0.9107 -0.6265
  298SOL    HW3 1239   0.857   0.858   0.707 -1.0318  0.7445 -2.1603
  298SOL    MW4 1240   0.936   0.893   0.694 -0.6300  0.4064 -0.7263
  299SOL     OW 1241   0.918   1.134   0.835  0.5010 -0.0326 -0.7225
  299SOL    HW2 1242   0.934   1.051   0.790  0.0700  0.2958 -1.4866
  299SOL    HW3 1243   0.838   1.168   0.795  0.7469  0.8140 -0.5014
  299SOL    MW4 1244   0.909   1.128   0.824  0.4767  0.1224 -0.7941
  300SOL     OW 1245   1.117   1.286   0.725  0.0705  0.2857 -0.4790
  300SOL    HW2 1246   1.053   1.229   0.768  1.0346 -0.4218  0.0160
  300SOL    HW3 1247   1.127   1.248   0.637 -0.7685  0.8593 -0.8348
  300SOL    MW4 1248   1.110   1.273   0.719  0.0869  0.2680 -0.4606
  301SOL     OW 1249   1.119   1.548   0.851 -0.1953  0.1727 -0.6154
  301SOL    HW2 1250   1.042   1.588   0.810  0.6117  1.1386 -1.1697
  301SOL    HW3 1251   1.123   1.460   0.812 -1.5583 -0.2214  0.1041
  301SOL    MW4 1252   1.109   1.541   0.841 -0.2686  0.2482 -0.5936
  302SOL     OW 1253   0.902   1.668   0.736 -0.2331 -0.0507 -0.2491
  302SOL    HW2 1254   0.838   1.616   0.783  0.6243 -0.3200  0.6435
  302SOL    HW3 1255   0.900   1.753   0.779 -1.1383  0.4544 -1.2630
  302SOL    MW4 1256   0.893   1.672   0.748 -0.2394 -0.0197 -0.2652
  303SOL     OW 1257   0.902   1.917   0.862 -0.1522  0.6576 -0.0660
  303SOL    HW2 1258   0.901   1.932   0.957 -2.2947 -1.7723  0.3398
  303SOL    HW3 1259   0.821   1.957   0.831 -1.5748 -2.1767 -0.2029
  303SOL    MW4 1260   0.892   1.924   0.870 -0.6226 -0.0370 -0.0305
  304SOL     OW 1261   1.116   2.047   0.746 -0.4178 -0.0157 -0.6705
  304SOL    HW2 1262   1.133   2.136   0.777  0.6332  0.0022 -1.2622
  304SOL    HW3 1263   1.043   2.016   0.800  1.3541  0.0203  1.8313
  304SOL    MW4 1264   1.109   2.055   0.757 -0.0453 -0.0086 -0.4185
  305SOL     OW 1265   1.129   2.307   0.847  0.1780 -0.3199  0.1536
  305SOL    HW2 1266   1.120   2.325   0.941 -0.4240  0.7984 -0.1097
  305SOL    HW3 1267   1.199   2.366   0.819  1.4036 -1.7400  0.1944
  305SOL    MW4 1268   1.137   2.317   0.856  0.2604 -0.3595  0.1242
  306SOL     OW 1269   0.895   2.459   0.769 -0.1480  0.1017 -0.3912
  306SOL    HW2 1270   0.965   2.419   0.821  0.3541 -0.2309 -1.3037
  306SOL    HW3 1271   0.819   2.403   0.783 -0.6991  1.3529  1.8681
  306SOL    MW4 1272   0.894   2.447   0.778 -0.1545  0.2229 -0.2134
  307SOL     OW 1273   0.862   2.736   0.849 -0.0514  0.1544 -0.1650
  307SOL    HW2 1274   0.850   2.731   0.943 -0.0632  0.4990 -0.1483
  307SOL    HW3 1275   0.871   2.645   0.821 -1.4446 -0.0382 -0.0131
  307SOL    MW4 1276   0.861   2.724   0.857 -0.2367  0.1743 -0.1426
  308SOL     OW 1277   1.038   2.841   0.677 -0.2736  0.1358 -0.2561
  308SOL    HW2 1278   0.965   2.804   0.726 -0.3525 -0.9685 -1.1869
  308SOL    HW3 1279   1.008   2.842   0.586  1.2365 -1.2887 -0.7935
  308SOL    MW4 1280   1.025   2.836   0.671 -0.0848 -0.1979 -0.4498
  309SOL     OW 1281   1.084   3.101   0.782  0.3697 -0.0484 -0.2904
  309SOL    HW2 1282   1.016   3.163   0.758 -0.7560 -1.2967 -0.3723
  309SOL    HW3 1283   1.066   3.023   0.729  1.7271 -0.4785 -0.1501
  309SOL    MW4 1284   1.073   3.099   0.772  0.4003 -0.2699 -0.2826
  310SOL     OW 1285   0.868   3.271   0.734 -0.0807 -0.2389  0.4684
  310SOL    HW2 1286   0.862   3.362   0.762  0.1917 -0.5977  1.7629
  310SOL    HW3 1287   0.808   3.225   0.793  0.2628 -0.9840  0.2403
  310SOL    MW4 1288   0.859   3.277   0.746  0.0005 -0.3843  0.6090
  311SOL     OW 1289   0.859   3.526   0.839 -0.1079 -0.1406 -0.6161
  311SOL    HW2 1290   0.937   3.564   0.800 -0.6816 -1.1748 -2.8140
  311SOL    HW3 1291   0.786   3.576   0.802 -0.6003 -0.4176 -0.0338
  311SOL    MW4 1292   0.860   3.537   0.829 -0.2486 -0.3138 -0.8293
  312SOL     OW 1293   1.107   3.628   0.727 -0.1156 -0.0179  0.1155
  312SOL    HW2 1294   1.184   3.573   0.729 -0.0713  0.0071 -0.7243
  312SOL    HW3 1295   1.102   3.661   0.637 -1.1245 -0.0536  0.1436
  312SOL    MW4 1296   1.116   3.625   0.716 -0.2428 -0.0196  0.0084
  313SOL     OW 1297   1.124   3.899   0.828  0.3126 -0.2756 -0.2152
  313SOL    HW2 1298   1.127   3.896   0.923  0.1953 -1.1408 -0.2390
  313SOL    HW3 1299   1.148   3.811   0.799  0.9213  0.1351 -1.0039
  313SOL    MW4 1300   1.127   3.887   0.836  0.3773 -0.3355 -0.3223
  314SOL     OW 1301   0.888   3.987   0.738  0.5973 -0.0121  0.0452
  314SOL    HW2 1302   0.865   4.076   0.763 -0.8273 -0.7609  1.4997
  314SOL    HW3 1303   0.977   3.975   0.771 -0.6923 -0.4752  3.5310
  314SOL    MW4 1304   0.897   3.997   0.746  0.2391 -0.1721  0.6970
  315SOL     OW 1305   0.880   4.255   0.821  0.1616  0.2036 -0.2141
  315SOL    HW2 1306   0.961   4.305   0.808  0.3546 -0.5226 -1.9900
  315SOL    HW3 1307   0.810   4.316   0.801  0.2607  0.7901  1.1709
  315SOL    MW4 1308   0.882   4.269   0.817  0.2001  0.1850 -0.2656
  316SOL     OW 1309   1.103   4.399   0.762  0.1170  0.0752 -0.3255
  316SOL    HW2 1310   1.181   4.364   0.804 -0.0180 -1.1333 -1.0640
  316SOL    HW3 1311   1.093   4.486   0.800  1.1495 -0.2090  0.6404
  316SOL    MW4 1312   1.112   4.406   0.773  0.2356 -0.1221 -0.2955
  317SOL     OW 1313   1.587   0.029   0.842 -0.3111 -0.1055 -0.0778
  317SOL    HW2 1314   1.575   0.027   0.937  0.9821  0.3843  0.1137
  317SOL    HW3 1315   1.500   0.049   0.807 -1.1196 -1.7363  0.9097
  317SOL    MW4 1316   1.574   0.031   0.850 -0.2470 -0.2561  0.0778
  318SOL     OW 1317   1.329   0.059   0.756 -0.1258 -0.0388 -0.2784
  318SOL    HW2 1318   1.326   0.151   0.784  2.6343 -0.3533  1.3063
  318SOL    HW3 1319   1.349   0.063   0.663 -0.6696  0.9623 -0.3657
  318SOL    MW4 1320   1.331   0.072   0.748  0.1667  0.0517 -0.0809
  319SOL     OW 1321   1.337   0.343   0.876 -0.1434  0.0209  0.1884
  319SOL    HW2 1322   1.362   0.344   0.968 -0.8344  0.9159  0.3768
  319SOL    HW3 1323   1.404   0.395   0.831 -0.3169  0.3633  0.3257
  319SOL    MW4 1324   1.349   0.350   0.882 -0.2576  0.1841  0.2314
  320SOL     OW 1325   1.578   0.460   0.791 -0.2172  0.2323  0.0661
  320SOL    HW2 1326   1.576   0.554   0.809  0.6557  0.1220  0.7896
  320SOL    HW3 1327   1.586   0.454   0.696  0.0281  0.8940  0.0415
  320SOL    MW4 1328   1.579   0.471   0.781 -0.0697  0.3051  0.1584
  321SOL     OW 1329   1.581   0.728   0.847  0.1634 -0.2650  0.4419
  321SOL    HW2 1330   1.658   0.780   0.827  0.7900 -0.8233  1.3452
  321SOL    HW3 1331   1.508   0.776   0.808  0.8049  0.9743  0.7518
  321SOL    MW4 1332   1.582   0.741   0.840  0.3306 -0.1752  0.6019
  322SOL     OW 1333   1.434   0.882   0.482  0.2410 -0.6397  0.2943
  322SOL    HW2 1334   1.365   0.923   0.429 -0.2429 -1.1813  0.4919
  322SOL    HW3 1335   1.409   0.901   0.573  0.7478 -0.2158  0.3427
  322SOL    MW4 1336   1.422   0.890   0.487  0.2440 -0.6553  0.3268
  323SOL     OW 1337   1.353   1.164   0.864  0.2101 -0.0765 -0.0527
  323SOL    HW2 1338   1.434   1.197   0.827  0.1509  0.0922 -0.0337
  323SOL    HW3 1339   1.284   1.206   0.814  0.1290  0.2843  0.3568
  323SOL    MW4 1340   1.355   1.173   0.853  0.1916 -0.0067  0.0039
  324SOL     OW 1341   1.592   1.246   0.751  0.0299 -0.1638  0.2238
  324SOL    HW2 1342   1.593   1.338   0.778 -1.1256 -0.6793  2.1149
  324SOL    HW3 1343   1.593   1.249   0.656  0.2677  1.8019  0.2639
  324SOL    MW4 1344   1.593   1.258   0.742 -0.0912  0.0277  0.4786
  325SOL     OW 1345   1.589   1.510   0.841 -0.3550  0.0597 -0.4655
  325SOL    HW2 1346   1.560   1.517   0.932  0.6623  0.8908 -0.1885
  325SOL    HW3 1347   1.533   1.570   0.792  1.1165  1.9998  0.1373
  325SOL    MW4 1348   1.578   1.519   0.846 -0.0267  0.4253 -0.3493
  326SOL     OW 1349   1.360   1.674   0.753  0.0729 -0.1968  0.1502
  326SOL    HW2 1350   1.342   1.762   0.786  0.4933 -0.5850  1.4607
  326SOL    HW3 1351   1.279   1.626   0.767 -0.0647 -0.0891 -0.2946
  326SOL    MW4 1352   1.347   1.680   0.759  0.1101 -0.2338  0.2645
  327SOL     OW 1353   1.361   1.951   0.802  0.2313  0.2691 -0.2538
  327SOL    HW2 1354   1.367   1.965   0.897  0.1658  0.7086 -0.3122
  327SOL    HW3 1355   1.275   1.984   0.778  0.1398 -0.0887 -0.4284
  327SOL    MW4 1356   1.351   1.957   0.812  0.2105  0.2798 -0.2846
  328SOL     OW 1357   1.595   2.090   0.740  0.5276 -0.2900 -0.1522
  328SOL    HW2 1358   1.517   2.034   0.744 -0.7156  1.4704  1.1534
  328SOL    HW3 1359   1.605   2.110   0.647 -1.0799  0.1072 -0.2648
  328SOL    MW4 1360   1.586   2.085   0.728  0.1515 -0.0052  0.0052
  329SOL     OW 1361   1.568   2.351   0.808  0.1373 -0.6140  1.0068
  329SOL    HW2 1362   1.490   2.396   0.774  0.2445 -0.1248  1.4027
  329SOL    HW3 1363   1.554   2.259   0.785 -0.2798 -0.4436  0.5557
  329SOL    MW4 1364   1.556   2.345   0.800  0.0964 -0.5267  0.9996
  330SOL     OW 1365   1.344   2.476   0.721  0.3053  0.3392 -0.0887
  330SOL    HW2 1366   1.320   2.568   0.709 -2.3307 -0.3858 -0.8092
  330SOL    HW3 1367   1.357   2.444   0.632 -0.6437 -0.4263  0.0383
  330SOL    MW4 1368   1.342   2.484   0.707 -0.1676  0.1423 -0.1670
  331SOL     OW 1369   1.288   2.767   0.809 -0.0056 -0.3284 -0.0740
  331SOL    HW2 1370   1.284   2.782   0.903  0.5056  1.9322 -0.3855
  331SOL    HW3 1371   1.215   2.818   0.774  1.4314  1.0857 -1.1200
  331SOL    MW4 1372   1.278   2.776   0.817  0.2514  0.1564 -0.2531
  332SOL     OW 1373   1.569   2.816   0.786  0.2483 -0.2165 -0.2343
  332SOL    HW2 1374   1.564   2.907   0.815  2.4763 -0.2548  0.3660
  332SOL    HW3 1375   1.482   2.781   0.804 -0.0277  1.2354  1.4723
  332SOL    MW4 1376   1.557   2.823   0.792  0.5059 -0.0298  0.0700
  333SOL     OW 1377   1.576   3.078   0.848 -0.2582 -0.6711  0.0017
  333SOL    HW2 1378   1.570   3.090   0.942 -0.8519 -0.3794 -0.0716
  333SOL    HW3 1379   1.490   3.104   0.815  0.1749 -0.0846 -0.6882
  333SOL    MW4 1380   1.564   3.083   0.856 -0.2794 -0.5550 -0.0989
  334SOL     OW 1381   1.339   3.209   0.730  0.2829 -0.0914 -0.3989
  334SOL    HW2 1382   1.247   3.184   0.737  0.3134 -0.1250 -0.1054
  334SOL    HW3 1383   1.369   3.168   0.648  0.1977 -0.5964 -0.1782
  334SOL    MW4 1384   1.331   3.200   0.720  0.2757 -0.1626 -0.3310
  335SOL     OW 1385   1.353   3.500   0.730  0.4279 -0.4946  0.3252
  335SOL    HW2 1386   1.445   3.523   0.741  0.9162 -1.7121 -1.0328
  335SOL    HW3 1387   1.350   3.405   0.739 -0.8025 -0.4057  1.0073
  335SOL    MW4 1388   1.364   3.491   0.733  0.3301 -0.6435  0.2360
  336SOL     OW 1389   1.605   3.603   0.732  0.0376  0.0406 -0.3537
  336SOL    HW2 1390   1.684   3.555   0.755  0.0849  0.3655  0.1910
  336SOL    HW3 1391   1.615   3.625   0.640  0.4119 -0.2473 -0.3806
  336SOL    MW4 1392   1.617   3.600   0.723  0.0932  0.0455 -0.2853
  337SOL     OW 1393   1.571   3.874   0.866 -0.1205  0.5377  0.1941
  337SOL    HW2 1394   1.488   3.913   0.838 -0.0247 -0.3001 -1.3091
  337SOL    HW3 1395   1.567   3.784   0.832  1.7936  0.7632 -0.6742
  337SOL    MW4 1396   1.559   3.867   0.858  0.1447  0.4568 -0.1189
  338SOL     OW 1397   1.369   4.038   0.774 -0.1435 -0.0545  0.2147
  338SOL    HW2 1398   1.287   4.004   0.811 -0.5112  0.8095  0.1933
  338SOL    HW3 1399   1.371   4.002   0.685  0.0807 -1.0354  0.6098
  338SOL    MW4 1400   1.358   4.028   0.767 -0.1624 -0.0701  0.2640
  339SOL     OW 1401   1.321   4.283   0.856 -0.1796 -0.3606  0.2728
  339SOL    HW2 1402   1.393   4.344   0.838 -0.0791 -0.6564 -0.3486
  339SOL    HW3 1403   1.346   4.203   0.811 -1.4352 -0.1111 -0.9078
  339SOL    MW4 1404   1.334   4.281   0.848 -0.3319 -0.3667  0.0350
  340SOL     OW 1405   1.518   4.433   0.761 -0.4852  0.2939  0.0203
  340SOL    HW2 1406   1.595   4.383   0.789 -0.9183 -1.1604 -1.2868
  340SOL    HW3 1407   1.542   4.524   0.777  1.1146 -0.1907  0.5718
  340SOL    MW4 1408   1.531   4.438   0.767 -0.3313  0.0377 -0.0793
  341SOL     OW 1409   1.929   4.515   0.821  0.1008  0.7287 -0.1162
  341SOL    HW2 1410   2.012   4.475   0.795  0.1873  1.4272 -0.9630
  341SOL    HW3 1411   1.869   4.441   0.832  1.0042  0.1691  1.1699
  341SOL    MW4 1412   1.932   4.500   0.819  0.2314  0.7467 -0.0582
  342SOL     OW 1413   2.085   0.189   0.372  0.2751  0.4716  0.1879
  342SOL    HW2 1414   2.143   0.119   0.342 -0.8406 -0.0215 -0.8670
  342SOL    HW3 1415   2.009   0.143   0.408 -0.3280  1.1327 -0.2305
  342SOL    MW4 1416   2.082   0.174   0.373  0.0484  0.4937 -0.0065
  343SOL     OW 1417   1.840   0.381   0.861  0.3019  0.3722  0.4464
  343SOL    HW2 1418   1.756   0.424   0.841  0.4267  0.4575  0.1047
  343SOL    HW3 1419   1.834   0.296   0.817  1.0519  1.0322 -0.9430
  343SOL    MW4 1420   1.828   0.376   0.853  0.4172  0.4705  0.2180
  344SOL     OW 1421   2.463   0.284   0.412  0.0333 -0.3741  0.0028
  344SOL    HW2 1422   2.383   0.264   0.461 -0.1211  0.2899  0.0262
  344SOL    HW3 1423   2.452   0.236   0.330 -1.0218  0.7818 -0.5560
  344SOL    MW4 1424   2.451   0.275   0.408 -0.1264 -0.1340 -0.0679
  345SOL     OW 1425   2.012   0.779   0.692 -0.5736 -0.2436 -0.5001
  345SOL    HW2 1426   2.101   0.815   0.688 -0.7862  0.3738  0.1958
  345SOL    HW3 1427   2.018   0.706   0.754 -0.7506  0.3758  0.2433
  345SOL    MW4 1428   2.025   0.774   0.700 -0.6251 -0.0804 -0.3102
  346SOL     OW 1429   1.773   0.931   0.760  0.0537 -0.6307 -0.4029
  346SOL    HW2 1430   1.788   1.007   0.817 -0.1184 -0.2300 -0.8836
  346SOL    HW3 1431   1.860   0.896   0.743  0.2163 -0.0107 -0.8895
  346SOL    MW4 1432   1.786   0.937   0.766  0.0525 -0.4961 -0.5305
  347SOL     OW 1433   1.842   1.202   0.860 -0.3813  0.0689 -0.4357
  347SOL    HW2 1434   1.899   1.264   0.814  0.7868  0.1877  1.0914
  347SOL    HW3 1435   1.756   1.213   0.820 -0.1475  2.5745 -0.3299
  347SOL    MW4 1436   1.838   1.212   0.849 -0.1965  0.4152 -0.2202
  348SOL     OW 1437   1.964   1.378   0.679  0.2586 -0.0084  0.3756
  348SOL    HW2 1438   2.019   1.302   0.662 -0.0354 -0.2049  0.3071
  348SOL    HW3 1439   1.915   1.392   0.598 -0.4040 -0.3410  0.7119
  348SOL    MW4 1440   1.965   1.370   0.666  0.1324 -0.0782  0.4108
  349SOL     OW 1441   2.021   1.574   0.856 -0.6429 -0.1907 -0.2641
  349SOL    HW2 1442   2.111   1.587   0.826 -0.4970 -0.1390  0.1924
  349SOL    HW3 1443   1.991   1.497   0.807 -0.9317  0.8151 -1.6707
  349SOL    MW4 1444   2.029   1.565   0.846 -0.6616 -0.0510 -0.3895
  350SOL     OW 1445   1.786   1.698   0.754  0.1701 -1.0117 -0.2637
  350SOL    HW2 1446   1.873   1.667   0.778  0.5716 -0.0565 -0.4733
  350SOL    HW3 1447   1.726   1.633   0.792  0.9303 -1.1482  0.7180
  350SOL    MW4 1448   1.789   1.685   0.762  0.3235 -0.9037 -0.1619
  351SOL     OW 1449   1.799   1.954   0.871 -0.1150  0.3500  0.2501
  351SOL    HW2 1450   1.796   1.873   0.819 -0.6142  0.2036  0.4971
  351SOL    HW3 1451   1.731   2.009   0.832 -0.2028  0.4039  0.4775
  351SOL    MW4 1452   1.789   1.951   0.859 -0.1924  0.3378  0.3127
  352SOL     OW 1453   2.042   2.041   0.768 -0.1723 -0.3794  0.5304
  352SOL    HW2 1454   2.054   2.133   0.792 -0.1560 -0.4462  0.7771
  352SOL    HW3 1455   1.962   2.015   0.813 -1.3993  0.1318 -1.2998
  352SOL    MW4 1456   2.033   2.050   0.777 -0.3321 -0.3207  0.3214
  353SOL     OW 1457   2.061   2.334   0.853 -0.8818 -0.0963 -0.3394
  353SOL    HW2 1458   2.035   2.326   0.945 -0.4188  0.1769 -0.1797
  353SOL    HW3 1459   1.994   2.390   0.814  0.1751  1.7430  0.3853
  353SOL    MW4 1460   2.049   2.340   0.860 -0.6814  0.1822 -0.2227
  354SOL     OW 1461   1.839   2.457   0.742 -0.0914 -0.2398 -0.0841
  354SOL    HW2 1462   1.766   2.401   0.769 -0.1959 -0.1252 -0.1321
  354SOL    HW3 1463   1.836   2.457   0.646 -1.5530  1.7848 -0.0642
  354SOL    MW4 1464   1.829   2.449   0.733 -0.2980  0.0424 -0.0878
  355SOL     OW 1465   1.821   2.714   0.913 -0.1321  0.2637 -0.3561
  355SOL    HW2 1466   1.808   2.636   0.859 -1.6932 -0.0485  0.4407
  355SOL    HW3 1467   1.753   2.775   0.885  0.0211  0.6901  0.1795
  355SOL    MW4 1468   1.810   2.712   0.902 -0.3178  0.2787 -0.1804
  356SOL     OW 1469   2.042   2.785   0.783 -0.6611  0.0230 -0.0707
  356SOL    HW2 1470   2.110   2.736   0.830 -0.0719  0.7812 -0.1183
  356SOL    HW3 1471   1.960   2.761   0.827 -0.3460 -0.7683  0.0976
  356SOL    MW4 1472   2.040   2.775   0.795 -0.5417  0.0188 -0.0548
  357SOL     OW 1473   2.032   3.064   0.867  0.7618  0.4410  0.4264
  357SOL    HW2 1474   1.951   3.092   0.825  0.2536 -0.5550  0.7230
  357SOL    HW3 1475   2.051   2.978   0.829  0.9438  0.0630  1.3523
  357SOL    MW4 1476   2.024   3.057   0.856  0.7186  0.2599  0.5878
  358SOL     OW 1477   1.811   3.188   0.762 -0.2119  0.0399 -0.1875
  358SOL    HW2 1478   1.726   3.153   0.789 -0.1687 -0.6347 -0.9079
  358SOL    HW3 1479   1.810   3.181   0.667  1.1556 -1.1465 -0.1216
  358SOL    MW4 1480   1.800   3.182   0.753 -0.0257 -0.2055 -0.2738
  359SOL     OW 1481   1.807   3.463   0.840  0.2205  0.1686 -0.1683
  359SOL    HW2 1482   1.830   3.459   0.933 -1.0644  0.1260  0.1506
  359SOL    HW3 1483   1.815   3.373   0.809 -0.5179 -0.0198  0.1868
  359SOL    MW4 1484   1.811   3.451   0.848 -0.0465  0.1383 -0.0795
  360SOL     OW 1485   2.045   3.605   0.770 -0.0171  0.1717 -0.4474
  360SOL    HW2 1486   2.029   3.697   0.791 -0.4195 -0.3093  1.4267
  360SOL    HW3 1487   1.961   3.562   0.789 -0.1554 -0.4320 -2.3088
  360SOL    MW4 1488   2.032   3.612   0.775 -0.0885  0.0286 -0.4457
  361SOL     OW 1489   1.995   3.877   0.815 -0.2011 -0.1138 -0.1681
  361SOL    HW2 1490   1.980   3.860   0.908  0.4524 -0.8163 -0.1885
  361SOL    HW3 1491   1.918   3.926   0.787 -0.6547 -0.3683  0.6179
  361SOL    MW4 1492   1.983   3.881   0.823 -0.1748 -0.2401 -0.0671
  362SOL     OW 1493   1.772   4.017   0.730  0.5499  0.5239 -0.0484
  362SOL    HW2 1494   1.696   3.974   0.769  0.4612  0.1259 -0.6491
  362SOL    HW3 1495   1.748   4.030   0.638  0.8101  1.3238 -0.0098
  362SOL    MW4 1496   1.759   4.013   0.723  0.5726  0.5765 -0.1225
  363SOL     OW 1497   1.764   4.287   0.858 -0.5102  0.3689 -0.5736
  363SOL    HW2 1498   1.783   4.271   0.950 -0.9510  1.0474 -0.3657
  363SOL    HW3 1499   1.762   4.199   0.819  0.8253  0.1493 -0.1783
  363SOL    MW4 1500   1.766   4.273   0.865 -0.3922  0.4296 -0.4940
  364SOL     OW 1501   1.883   0.067   0.512  0.2260  0.3520 -0.1153
  364SOL    HW2 1502   1.881   0.058   0.607  0.1418  0.6510 -0.0867
  364SOL    HW3 1503   1.900  -0.021   0.479 -0.0695  0.1878  0.1661
  364SOL    MW4 1504   1.885   0.054   0.520  0.1760  0.3698 -0.0743
  365SOL     OW 1505   2.308   4.588   0.655  0.5493 -0.0011  0.1073
  365SOL    HW2 1506   2.366   4.565   0.727  0.5871  1.2947  0.5126
  365SOL    HW3 1507   2.363   4.583   0.576  0.8493 -0.1385  0.3266
  365SOL    MW4 1508   2.323   4.585   0.654  0.5939  0.1516  0.1897
  366SOL     OW 1509   2.492   4.553   0.864 -0.2355  0.3860  0.2032
  366SOL    HW2 1510   2.456   4.574   0.951  0.4484 -1.9971  1.0966
  366SOL    HW3 1511   2.562   4.617   0.852 -1.0149  1.4019  0.9492
  366SOL    MW4 1512   2.497   4.564   0.874 -0.2480  0.2055  0.4195
  367SOL     OW 1513   2.293   0.401   0.810  0.3576 -0.0776  0.3407
  367SOL    HW2 1514   2.376   0.424   0.769 -0.2577 -0.1078 -0.9413
  367SOL    HW3 1515   2.251   0.340   0.749 -1.0200  0.6561  0.5260
  367SOL    MW4 1516   2.298   0.396   0.797  0.0949  0.0152  0.1960
  368SOL     OW 1517   2.555   0.505   0.725  0.4119  0.2892  0.0193
  368SOL    HW2 1518   2.617   0.436   0.749  0.4603  0.4423  0.3397
  368SOL    HW3 1519   2.592   0.543   0.645 -1.1212 -1.9387 -1.8035
  368SOL    MW4 1520   2.568   0.501   0.717  0.2158  0.0155 -0.1789
  369SOL     OW 1521   2.456   0.751   0.846 -0.0848  0.4793 -0.3311
  369SOL    HW2 1522   2.535   0.802   0.829  1.4317 -0.7273  2.7039
  369SOL    HW3 1523   2.474   0.665   0.808  0.5607 -0.1385  1.3217
  369SOL    MW4 1524   2.469   0.746   0.839  0.2007  0.2387  0.2874
  370SOL     OW 1525   2.273   0.851   0.667 -0.2343 -0.2698  0.4546
  370SOL    HW2 1526   2.351   0.803   0.695 -0.3157 -1.3834 -1.1354
  370SOL    HW3 1527   2.298   0.889   0.582 -0.1075  2.6884  1.7379
  370SOL    MW4 1528   2.287   0.850   0.659 -0.2286 -0.0265  0.4141
  371SOL     OW 1529   2.247   1.148   0.815 -0.4561 -0.3706  0.2204
  371SOL    HW2 1530   2.267   1.166   0.906  0.6994 -0.8590  0.0736
  371SOL    HW3 1531   2.241   1.052   0.810  0.5924 -0.4155 -0.4199
  371SOL    MW4 1532   2.249   1.137   0.826 -0.1655 -0.4410  0.1166
  372SOL     OW 1533   2.540   1.231   0.483 -0.1259  0.1392  0.1463
  372SOL    HW2 1534   2.460   1.228   0.430 -0.5263 -1.0605  0.7925
  372SOL    HW3 1535   2.594   1.297   0.440 -0.8589 -0.0767 -1.1637
  372SOL    MW4 1536   2.536   1.239   0.470 -0.2756 -0.0477  0.0587
  373SOL     OW 1537   2.504   1.270   0.757  0.2079 -0.0997  0.0108
  373SOL    HW2 1538   2.525   1.276   0.664 -1.9459  0.8467 -0.4475
  373SOL    HW3 1539   2.421   1.223   0.760  0.3862 -0.3501  1.4828
  373SOL    MW4 1540   2.496   1.264   0.745 -0.0527 -0.0081  0.1445
  374SOL     OW 1541   2.284   1.613   0.745  0.1944 -0.3825  0.1013
  374SOL    HW2 1542   2.357   1.575   0.794  0.0164  0.0595  0.7103
  374SOL    HW3 1543   2.316   1.620   0.655  0.6143 -0.9506  0.2064
  374SOL    MW4 1544   2.298   1.609   0.740  0.2260 -0.3992  0.1955
  375SOL     OW 1545   2.249   1.885   0.846  0.0127  0.3203 -0.4993
  375SOL    HW2 1546   2.244   1.793   0.821 -0.7811  0.5351 -1.1589
  375SOL    HW3 1547   2.169   1.924   0.809  0.7318  1.4247 -0.9081
  375SOL    MW4 1548   2.238   1.878   0.837  0.0029  0.4945 -0.6403
  376SOL     OW 1549   2.453   2.527   0.404 -0.5174 -0.2845  0.4182
  376SOL    HW2 1550   2.424   2.496   0.318  0.6579  0.1493 -0.1361
  376SOL    HW3 1551   2.376   2.516   0.460 -0.6342 -2.6562 -0.1531
  376SOL    MW4 1552   2.439   2.521   0.400 -0.3779 -0.5403  0.2697
  377SOL     OW 1553   2.474   2.266   0.879 -0.6102 -0.2639  0.1469
  377SOL    HW2 1554   2.542   2.313   0.831 -0.5391  0.5509  1.0317
  377SOL    HW3 1555   2.463   2.184   0.831  0.5014 -0.0970 -0.4040
  377SOL    MW4 1556   2.481   2.261   0.866 -0.4537 -0.1342  0.1909
  378SOL     OW 1557   2.295   2.448   0.770  0.1640 -0.1447  0.3033
  378SOL    HW2 1558   2.358   2.391   0.814  0.3309 -0.7863 -0.7761
  378SOL    HW3 1559   2.209   2.416   0.800  0.3324  1.2002  2.3590
  378SOL    MW4 1560   2.292   2.436   0.780  0.2081 -0.0520  0.4321
  379SOL     OW 1561   2.291   2.694   0.876 -0.0769 -0.1842 -0.0640
  379SOL    HW2 1562   2.285   2.672   0.969 -1.6213  0.7769  0.0966
  379SOL    HW3 1563   2.294   2.610   0.831 -0.8720 -0.6751  0.7761
  379SOL    MW4 1564   2.291   2.680   0.882 -0.3858 -0.1223  0.0680
  380SOL     OW 1565   2.498   2.817   0.754  0.4831 -0.4741  0.0389
  380SOL    HW2 1566   2.579   2.770   0.775  0.1692 -0.6309  0.8941
  380SOL    HW3 1567   2.431   2.776   0.807 -0.0655  0.0134 -0.2664
  380SOL    MW4 1568   2.500   2.806   0.763  0.3693 -0.4306  0.1114
  381SOL     OW 1569   2.475   3.083   0.823 -0.0373  0.5004 -0.4808
  381SOL    HW2 1570   2.484   3.091   0.918  3.0201  0.2483 -0.7164
  381SOL    HW3 1571   2.495   2.992   0.804  2.2264  1.1844 -1.6262
  381SOL    MW4 1572   2.479   3.072   0.833  0.6647  0.5572 -0.6629
  382SOL     OW 1573   2.238   3.199   0.765 -0.1076 -0.2818  0.8554
  382SOL    HW2 1574   2.166   3.151   0.805  1.3638 -0.3931  3.4353
  382SOL    HW3 1575   2.316   3.146   0.783  0.7822  0.2875 -1.1156
  382SOL    MW4 1576   2.239   3.186   0.773  0.2041 -0.2215  0.9357
  383SOL     OW 1577   2.313   3.482   0.785 -0.1842  0.1647  0.0069
  383SOL    HW2 1578   2.286   3.390   0.779 -0.5122  0.1159  1.8344
  383SOL    HW3 1579   2.232   3.531   0.772 -0.0414  0.1910 -0.7865
  383SOL    MW4 1580   2.298   3.476   0.783 -0.2089  0.1616  0.1433
  384SOL     OW 1581   2.507   3.661   0.703  0.3624  0.2826  0.7998
  384SOL    HW2 1582   2.585   3.609   0.721  0.1240 -0.6499 -0.7574
  384SOL    HW3 1583   2.434   3.605   0.730  0.0615 -0.6098 -1.7746
  384SOL    MW4 1584   2.508   3.647   0.709  0.2913  0.0420  0.2547
  385SOL     OW 1585   2.496   3.919   0.811 -0.4338  0.8852  0.2573
  385SOL    HW2 1586   2.408   3.947   0.787 -0.5882 -0.5340 -0.8921
  385SOL    HW3 1587   2.502   3.828   0.782  0.8627  0.4397  1.7783
  385SOL    MW4 1588   2.485   3.911   0.804 -0.2830  0.6394  0.3062
  386SOL     OW 1589   2.230   4.007   0.713 -0.3002 -0.1708 -0.1419
  386SOL    HW2 1590   2.162   3.967   0.768  0.9506 -2.5623 -0.2500
  386SOL    HW3 1591   2.217   3.967   0.627  0.3572  0.4203 -0.5180
  386SOL    MW4 1592   2.219   3.996   0.709 -0.0484 -0.4089 -0.2058
  387SOL     OW 1593   2.217   4.267   0.801 -0.0218 -0.1036  0.6398
  387SOL    HW2 1594   2.222   4.176   0.774  0.4451 -0.1331  0.8096
  387SOL    HW3 1595   2.176   4.312   0.728  0.6676 -0.2850  0.1345
  387SOL    MW4 1596   2.212   4.261   0.788  0.1304 -0.1316  0.5956
  388SOL     OW 1597   2.488   4.296   0.781  0.1809  0.0272  0.5199
  388SOL    HW2 1598   2.497   4.386   0.813 -1.2271  0.5710 -0.5359
  388SOL    HW3 1599   2.396   4.274   0.797  0.0889 -0.6052 -0.7656
  388SOL    MW4 1600   2.477   4.305   0.787 -0.0169  0.0148  0.2110
  389SOL     OW 1601   2.908   4.618   0.838  0.4194 -0.3891  0.2954
  389SOL    HW2 1602   2.906   4.531   0.797 -0.2843 -0.5273  0.6284
  389SOL    HW3 1603   2.823   4.657   0.817  1.1710  0.6952 -0.8638
  389SOL    MW4 1604   2.897   4.612   0.830  0.4258 -0.2646  0.1864
  390SOL     OW 1605   2.458   4.538   0.435 -0.5498  0.7131  0.0244
  390SOL    HW2 1606   2.536   4.593   0.440  0.0263 -0.2373  2.5615
  390SOL    HW3 1607   2.491   4.450   0.417 -1.1748  0.6163 -0.6591
  390SOL    MW4 1608   2.473   4.533   0.433 -0.5560  0.5751  0.2690
  391SOL     OW 1609   2.733   0.322   0.835 -0.0288 -0.1843  0.4378
  391SOL    HW2 1610   2.723   0.341   0.928 -0.8813 -0.5338  0.4246
  391SOL    HW3 1611   2.816   0.363   0.811  0.3292 -0.3279  1.4091
  391SOL    MW4 1612   2.743   0.330   0.844 -0.0942 -0.2493  0.5642
  392SOL     OW 1613   3.143   0.388   0.832 -0.0407  0.1550  0.0538
  392SOL    HW2 1614   3.149   0.395   0.927  0.5478 -0.5857  0.0752
  392SOL    HW3 1615   3.217   0.439   0.799  1.2457 -1.6490  0.0733
  392SOL    MW4 1616   3.153   0.395   0.840  0.2065 -0.1807  0.0591
  393SOL     OW 1617   2.883   0.750   0.808  0.0068  0.0760 -0.4408
  393SOL    HW2 1618   2.896   0.728   0.900 -0.6810  0.4227 -0.2553
  393SOL    HW3 1619   2.898   0.668   0.761 -0.5775 -0.3222  0.0628
  393SOL    MW4 1620   2.887   0.737   0.814 -0.1612  0.0692 -0.3498
  394SOL     OW 1621   2.653   0.899   0.739  0.2541 -0.4285  0.0913
  394SOL    HW2 1622   2.727   0.845   0.766  1.1078  0.7769  0.1541
  394SOL    HW3 1623   2.667   0.914   0.646 -0.1551 -0.5500  0.0049
  394SOL    MW4 1624   2.664   0.894   0.730  0.3128 -0.2855  0.0882
  395SOL     OW 1625   2.722   1.133   0.856  0.1504  0.1521 -0.2139
  395SOL    HW2 1626   2.700   1.047   0.820 -0.2889  0.2855 -0.2672
  395SOL    HW3 1627   2.645   1.187   0.839  0.5941  0.6818 -0.5769
  395SOL    MW4 1628   2.709   1.129   0.849  0.1507  0.2396 -0.2689
  396SOL     OW 1629   2.927   1.251   0.710  0.0720 -0.1026  0.0240
  396SOL    HW2 1630   3.007   1.213   0.746  0.3916 -0.3802 -0.9581
  396SOL    HW3 1631   2.856   1.210   0.759  0.4548 -1.1982 -0.3393
  396SOL    MW4 1632   2.928   1.241   0.721  0.1647 -0.2838 -0.1535
  397SOL     OW 1633   2.950   1.494   0.873  0.3187  0.3144  0.4690
  397SOL    HW2 1634   3.009   1.558   0.833  0.3412  0.1063  0.1690
  397SOL    HW3 1635   2.955   1.418   0.816 -1.4835  0.8591 -0.4756
  397SOL    MW4 1636   2.958   1.493   0.860  0.0839  0.3589  0.3048
  398SOL     OW 1637   2.492   2.025   0.737 -0.1009 -0.1514 -0.0230
  398SOL    HW2 1638   2.564   1.967   0.761 -0.0368  0.4015  1.1404
  398SOL    HW3 1639   2.414   1.980   0.769 -0.0755  0.2547  0.6250
  398SOL    MW4 1640   2.491   2.011   0.744 -0.0892 -0.0250  0.2160
  399SOL     OW 1641   2.707   1.873   0.835 -0.0828 -0.2805  0.1749
  399SOL    HW2 1642   2.699   1.856   0.929  0.7709 -2.2812 -0.0821
  399SOL    HW3 1643   2.779   1.936   0.828 -0.4285  0.1930  0.8957
  399SOL    MW4 1644   2.716   1.879   0.847 -0.0160 -0.4820  0.2361
  400SOL     OW 1645   2.899   2.042   0.749 -0.2954  0.1681 -0.4404
  400SOL    HW2 1646   2.895   2.135   0.769 -0.7967  0.0554 -0.0134
  400SOL    HW3 1647   2.979   2.012   0.793 -0.8779  0.1166  0.6025
  400SOL    MW4 1648   2.909   2.050   0.757 -0.4385  0.1464 -0.2465
  401SOL     OW 1649   2.888   2.305   0.869 -0.8527 -0.1246 -0.5608
  401SOL    HW2 1650   2.870   2.297   0.962  2.2328  0.1237  0.1324
  401SOL    HW3 1651   2.809   2.344   0.832 -2.0999 -0.1775  1.9611
  401SOL    MW4 1652   2.876   2.309   0.876 -0.6099 -0.0985 -0.1366
  402SOL     OW 1653   2.667   2.423   0.752  0.3699  0.2310 -0.0243
  402SOL    HW2 1654   2.664   2.402   0.659  1.0059 -0.0565  0.0180
  402SOL    HW3 1655   2.688   2.517   0.754 -1.6004  0.6829 -0.1959
  402SOL    MW4 1656   2.670   2.433   0.740  0.1936  0.2525 -0.0414
  403SOL     OW 1657   2.729   2.694   0.830  0.5167 -0.2313  0.1536
  403SOL    HW2 1658   2.740   2.697   0.925  1.9103 -3.5875  0.1892
  403SOL    HW3 1659   2.801   2.747   0.795  0.7933 -0.0724  0.9581
  403SOL    MW4 1660   2.740   2.701   0.837  0.7370 -0.6530  0.2644
  404SOL     OW 1661   2.809   2.849   0.415 -0.3046 -0.3518  0.3151
  404SOL    HW2 1662   2.720   2.819   0.430 -0.3600 -0.5097 -0.3265
  404SOL    HW3 1663   2.837   2.805   0.335  0.1224  0.1887  0.1581
  404SOL    MW4 1664   2.801   2.839   0.407 -0.2551 -0.3016  0.2097
  405SOL     OW 1665   2.871   3.115   0.920 -0.0877 -0.3706 -0.4700
  405SOL    HW2 1666   2.796   3.171   0.902 -0.1222 -0.0587  0.5842
  405SOL    HW3 1667   2.852   3.033   0.876 -0.4907  0.1164 -1.2148
  405SOL    MW4 1668   2.859   3.112   0.912 -0.1454 -0.2656 -0.4292
  406SOL     OW 1669   2.669   3.290   0.888 -0.1809  0.0041 -0.2237
  406SOL    HW2 1670   2.645   3.367   0.941  0.0210 -0.6956  0.8896
  406SOL    HW3 1671   2.586   3.261   0.850 -0.5445 -0.2606  0.7514
  406SOL    MW4 1672   2.654   3.297   0.890 -0.2022 -0.1233  0.0519
  407SOL     OW 1673   2.760   3.492   0.687  0.0670  0.0668 -0.1011
  407SOL    HW2 1674   2.758   3.414   0.743  0.3278  0.1876  0.0778
  407SOL    HW3 1675   2.835   3.542   0.718 -1.8412  1.8659  1.7517
  407SOL    MW4 1676   2.770   3.488   0.698 -0.1504  0.3200  0.1670
  408SOL     OW 1677   2.985   3.655   0.763 -0.2794  0.0524  0.2529
  408SOL    HW2 1678   2.975   3.741   0.803  1.0764  0.2907  0.0809
  408SOL    HW3 1679   2.989   3.672   0.669 -2.8088 -0.4512  0.0106
  408SOL    MW4 1680   2.984   3.668   0.756 -0.4342  0.0176  0.1983
  409SOL     OW 1681   2.936   3.913   0.869  0.6089  0.5654  0.5782
  409SOL    HW2 1682   2.927   3.886   0.960  1.4233  0.7511  0.7154
  409SOL    HW3 1683   2.892   3.998   0.865 -0.3802  0.0559  0.5470
  409SOL    MW4 1684   2.929   3.921   0.881  0.5863  0.5226  0.5922
  410SOL     OW 1685   2.615   4.005   0.539 -0.3238  0.1940 -0.0144
  410SOL    HW2 1686   2.597   4.007   0.633  0.0941 -0.0486  0.0735
  410SOL    HW3 1687   2.552   3.942   0.504  0.1404 -0.4179  0.2444
  410SOL    MW4 1688   2.604   3.997   0.547 -0.2074  0.0815  0.0313
  411SOL     OW 1689   2.753   4.213   0.851  0.2707  0.0845 -0.4536
  411SOL    HW2 1690   2.724   4.226   0.941  0.7810  0.8916 -0.4046
  411SOL    HW3 1691   2.671   4.207   0.801 -0.0213  2.3651 -0.3183
  411SOL    MW4 1692   2.738   4.214   0.856  0.2995  0.4921 -0.4292
  412SOL     OW 1693   2.972   4.356   0.729 -0.7372  0.3151  0.5651
  412SOL    HW2 1694   3.042   4.312   0.778 -1.7229 -1.0386  0.8223
  412SOL    HW3 1695   2.891   4.324   0.770 -1.5633 -0.0092 -1.2558
  412SOL    MW4 1696   2.970   4.346   0.741 -0.9761  0.0935  0.3588
  413SOL     OW 1697   3.375   4.640   0.870  0.0172 -0.0336 -0.3875
  413SOL    HW2 1698   3.387   4.649   0.965  2.3398  0.7882 -0.7108
  413SOL    HW3 1699   3.303   4.699   0.848 -0.8930 -0.6422  0.9370
  413SOL    MW4 1700   3.367   4.649   0.880  0.2036 -0.0052 -0.2553
  414SOL     OW 1701   3.147   0.085   0.777  0.4125  0.0352 -0.1931
  414SOL    HW2 1702   3.132   0.178   0.792 -0.8347 -0.0746 -0.7003
  414SOL    HW3 1703   3.064   0.044   0.798  1.0730 -1.0154  0.3920
  414SOL    MW4 1704   3.134   0.092   0.781  0.3347 -0.1179 -0.1828
  415SOL     OW 1705   2.921   0.492   0.717 -0.0011 -0.2877  0.0565
  415SOL    HW2 1706   3.008   0.477   0.754 -0.5408  0.7990  1.8273
  415SOL    HW3 1707   2.930   0.470   0.624  2.2855  0.2624  0.1164
  415SOL    MW4 1708   2.934   0.487   0.709  0.2291 -0.0718  0.2980
  416SOL     OW 1709   3.362   0.515   0.726 -0.2640  0.1383 -0.4744
  416SOL    HW2 1710   3.435   0.459   0.752 -2.0504 -2.0230 -0.0595
  416SOL    HW3 1711   3.335   0.481   0.640  0.4969  2.2269 -1.5872
  416SOL    MW4 1712   3.368   0.503   0.718 -0.3994  0.1287 -0.5664
  417SOL     OW 1713   3.334   0.770   0.835  0.0960 -0.0388 -0.0118
  417SOL    HW2 1714   3.250   0.794   0.796  0.7257  1.7650 -0.2935
  417SOL    HW3 1715   3.351   0.682   0.801 -0.7222  0.3705 -1.5596
  417SOL    MW4 1716   3.325   0.762   0.825  0.0710  0.2532 -0.2532
  418SOL     OW 1717   3.099   0.871   0.710 -0.2689 -0.3369 -0.2746
  418SOL    HW2 1718   3.118   0.955   0.751 -0.7061 -1.2314  1.8160
  418SOL    HW3 1719   3.017   0.842   0.750 -0.1403 -1.7541 -0.9791
  418SOL    MW4 1720   3.090   0.878   0.720 -0.3097 -0.6419 -0.0917
  419SOL     OW 1721   3.140   1.123   0.801  0.1770 -0.0876 -0.6216
  419SOL    HW2 1722   3.135   1.142   0.894 -0.8323  0.6121 -0.8177
  419SOL    HW3 1723   3.208   1.181   0.768  0.0346  0.1708 -0.4568
  419SOL    MW4 1724   3.148   1.133   0.809  0.0250  0.0387 -0.6258
  420SOL     OW 1725   3.347   1.304   0.732 -0.3912  0.0097 -0.1198
  420SOL    HW2 1726   3.427   1.257   0.752 -0.8978 -0.6438  0.4052
  420SOL    HW3 1727   3.357   1.389   0.774 -0.5063 -0.5381  1.0399
  420SOL    MW4 1728   3.359   1.309   0.740 -0.4730 -0.1488  0.1025
  421SOL     OW 1729   3.378   1.547   0.870  0.8717  0.3646  0.0592
  421SOL    HW2 1730   3.388   1.538   0.965 -0.0559  1.5145  0.2698
  421SOL    HW3 1731   3.465   1.575   0.840  0.8505  1.1204  0.7041
  421SOL    MW4 1732   3.391   1.549   0.879  0.7460  0.6162  0.1721
  422SOL     OW 1733   3.142   1.680   0.787  0.1759  0.0505 -0.2984
  422SOL    HW2 1734   3.216   1.623   0.811  0.5801  0.8830  0.4735
  422SOL    HW3 1735   3.135   1.672   0.692  0.6628 -0.7589 -0.2749
  422SOL    MW4 1736   3.151   1.671   0.778  0.2937  0.0535 -0.1935
  423SOL     OW 1737   3.165   1.943   0.857  0.2373  0.0164 -0.1336
  423SOL    HW2 1738   3.175   1.937   0.952  0.4999  0.3248 -0.1397
  423SOL    HW3 1739   3.160   1.852   0.828 -1.7232 -0.0557  0.3542
  423SOL    MW4 1740   3.166   1.930   0.866  0.0136  0.0476 -0.0701
  424SOL     OW 1741   3.419   2.047   0.775 -0.2041  0.3065  0.2884
  424SOL    HW2 1742   3.436   2.131   0.818 -1.5140  1.8500 -2.0919
  424SOL    HW3 1743   3.330   2.024   0.801  0.1726 -0.4154  0.9854
  424SOL    MW4 1744   3.410   2.055   0.784 -0.3273  0.4151  0.0663
  425SOL     OW 1745   3.497   2.277   0.891  0.2462 -0.1017  0.3395
  425SOL    HW2 1746   3.450   2.289   0.973 -0.4769 -1.9651  0.2164
  425SOL    HW3 1747   3.589   2.270   0.916  0.0652 -0.2727  0.9552
  425SOL    MW4 1748   3.503   2.278   0.905  0.1268 -0.3700  0.4045
  426SOL     OW 1749   3.568   2.407   0.283 -0.2237  0.0035  0.1773
  426SOL    HW2 1750   3.532   2.321   0.263 -0.5903 -0.3514  2.1798
  426SOL    HW3 1751   3.662   2.392   0.294 -0.2046 -0.0371 -0.0482
  426SOL    MW4 1752   3.575   2.393   0.282 -0.2694 -0.0489  0.4118
  427SOL     OW 1753   3.035   2.527   0.852  0.1254  0.2414  0.4249
  427SOL    HW2 1754   2.999   2.440   0.870  1.3004 -0.5013 -0.6962
  427SOL    HW3 1755   3.129   2.516   0.863  0.3577  1.1542 -0.6152
  427SOL    MW4 1756   3.043   2.514   0.856  0.3111  0.2637  0.1398
  428SOL     OW 1757   3.276   3.084   0.461 -0.2391 -0.0245 -0.5825
  428SOL    HW2 1758   3.194   3.133   0.467 -0.3397 -0.2566 -0.0001
  428SOL    HW3 1759   3.274   3.025   0.537 -0.3850 -1.3319 -1.5916
  428SOL    MW4 1760   3.265   3.083   0.472 -0.2718 -0.2275 -0.6388
  429SOL     OW 1761   3.350   2.982   0.890 -0.0050 -0.2660  0.0343
  429SOL    HW2 1762   3.363   3.016   0.979  1.0362 -0.6148  0.0244
  429SOL    HW3 1763   3.383   2.892   0.895  0.3403 -0.1838 -0.7856
  429SOL    MW4 1764   3.356   2.974   0.902  0.1779 -0.3011 -0.0752
  430SOL     OW 1765   3.101   3.212   0.791  0.3529  0.1055 -0.0388
  430SOL    HW2 1766   3.165   3.142   0.808  0.2385 -0.0712 -0.3454
  430SOL    HW3 1767   3.029   3.193   0.850  0.2948 -0.0702 -0.1666
  430SOL    MW4 1768   3.100   3.200   0.801  0.3302  0.0591 -0.0961
  431SOL     OW 1769   3.164   3.486   0.884  0.5621 -0.2203 -0.2824
  431SOL    HW2 1770   3.145   3.398   0.849  0.5437 -1.0303  1.7354
  431SOL    HW3 1771   3.092   3.540   0.852 -0.9461 -1.5568  0.7487
  431SOL    MW4 1772   3.152   3.482   0.875  0.3605 -0.5033  0.1199
  432SOL     OW 1773   3.358   3.563   0.712 -0.1751 -0.0383 -0.0737
  432SOL    HW2 1774   3.369   3.656   0.729  0.5935 -0.1573  0.0693
  432SOL    HW3 1775   3.289   3.536   0.774 -2.7511  1.0935 -2.3329
  432SOL    MW4 1776   3.350   3.572   0.722 -0.4134  0.0956 -0.3529
  433SOL     OW 1777   3.425   3.815   0.813  0.0505 -0.1732 -0.2155
  433SOL    HW2 1778   3.436   3.806   0.907 -0.5534 -1.0150 -0.2235
  433SOL    HW3 1779   3.474   3.894   0.791 -1.4589  1.1831  1.1250
  433SOL    MW4 1780   3.433   3.825   0.822 -0.2279 -0.1056 -0.0397
  434SOL     OW 1781   3.183   3.968   0.732 -0.3575  0.1845 -0.2203
  434SOL    HW2 1782   3.251   3.911   0.769  0.2113  1.9112  1.4683
  434SOL    HW3 1783   3.101   3.935   0.769  0.0024  0.6372  1.0064
  434SOL    MW4 1784   3.181   3.956   0.742 -0.2351  0.4721  0.1644
  435SOL     OW 1785   3.194   4.219   0.826  0.3875  0.0838  0.3943
  435SOL    HW2 1786   3.229   4.279   0.760  0.2617  0.1066  0.3480
  435SOL    HW3 1787   3.191   4.134   0.783  0.0263  0.1561  0.2760
  435SOL    MW4 1788   3.198   4.216   0.812  0.3233  0.0963  0.3725
  436SOL     OW 1789   3.337   4.429   0.680  0.0017 -0.1121  0.0305
  436SOL    HW2 1790   3.341   4.503   0.740  0.1820 -0.3481  0.3089
  436SOL    HW3 1791   3.334   4.469   0.593 -0.0490  0.2227  0.1859
  436SOL    MW4 1792   3.337   4.444   0.676  0.0188 -0.0992  0.0877
  437SOL     OW 1793   3.847   4.651   0.891  0.3188 -0.4012 -0.1138
  437SOL    HW2 1794   3.912   4.700   0.840  0.4521 -0.2399  0.2123
  437SOL    HW3 1795   3.763   4.680   0.857  0.4133 -0.8044 -0.7242
  437SOL    MW4 1796   3.845   4.661   0.880  0.3488 -0.4331 -0.1512
  438SOL     OW 1797   3.617   0.098   0.787 -0.4488 -0.0036  0.3716
  438SOL    HW2 1798   3.537   0.061   0.826 -0.4080 -1.0077 -0.4657
  438SOL    HW3 1799   3.614   0.069   0.696 -0.2965  1.9230 -0.2672
  438SOL    MW4 1800   3.606   0.089   0.780 -0.4234  0.1182  0.1769
  439SOL     OW 1801   3.565   0.366   0.821 -0.1556  0.0252  0.1740
  439SOL    HW2 1802   3.554   0.376   0.915 -0.5211 -0.8270  0.2237
  439SOL    HW3 1803   3.587   0.274   0.808  0.8535  0.3427 -0.4925
  439SOL    MW4 1804   3.566   0.355   0.832 -0.0706 -0.0453  0.0926
  440SOL     OW 1805   3.818   0.478   0.738  0.0958  0.0235 -0.0101
  440SOL    HW2 1806   3.815   0.565   0.778 -0.1335  0.6895 -1.4409
  440SOL    HW3 1807   3.735   0.437   0.765  0.2263  0.2215  0.7120
  440SOL    MW4 1808   3.806   0.484   0.747  0.0827  0.1375 -0.1036
  441SOL     OW 1809   3.811   0.747   0.837  0.0014  0.5237 -0.2193
  441SOL    HW2 1810   3.807   0.749   0.932 -0.7824  0.6179 -0.2468
  441SOL    HW3 1811   3.862   0.824   0.813  0.0700  0.5840  0.1181
  441SOL    MW4 1812   3.817   0.758   0.846 -0.0930  0.5441 -0.1784
  442SOL     OW 1813   3.472   0.935   0.660 -0.1536  0.0126  0.0580
  442SOL    HW2 1814   3.547   0.879   0.640 -0.5402 -0.0787 -1.1722
  442SOL    HW3 1815   3.421   0.884   0.723 -0.8011 -1.2979 -1.4852
  442SOL    MW4 1816   3.475   0.921   0.665 -0.2902 -0.1724 -0.3079
  443SOL     OW 1817   3.572   1.155   0.785 -0.2296  0.0752 -0.4441
  443SOL    HW2 1818   3.562   1.138   0.878  0.1732  0.3833 -0.3439
  443SOL    HW3 1819   3.533   1.078   0.742  0.1907 -0.3815 -0.0134
  443SOL    MW4 1820   3.565   1.143   0.792 -0.1211  0.0556 -0.3741
  444SOL     OW 1821   3.816   1.282   0.731 -0.0203  0.4356  0.0543
  444SOL    HW2 1822   3.736   1.231   0.743  0.8309 -1.2384 -1.1538
  444SOL    HW3 1823   3.849   1.254   0.645  1.2895  1.8939  0.0642
  444SOL    MW4 1824   3.810   1.272   0.721  0.2646  0.4072 -0.1038
  445SOL     OW 1825   3.833   1.556   0.865  0.9763 -0.0373 -0.4151
  445SOL    HW2 1826   3.894   1.617   0.824 -0.2326  0.2969 -1.7671
  445SOL    HW3 1827   3.862   1.470   0.836  0.8621  0.1193 -1.0099
  445SOL    MW4 1828   3.845   1.553   0.855  0.8018  0.0274 -0.6719
  446SOL     OW 1829   3.623   1.657   0.723 -0.0183 -0.1355 -0.2566
  446SOL    HW2 1830   3.623   1.732   0.783  0.5819  0.7626 -1.3431
  446SOL    HW3 1831   3.690   1.598   0.759  1.0176  0.8351 -0.5623
  446SOL    MW4 1832   3.632   1.659   0.736  0.1976  0.1110 -0.4404
  447SOL     OW 1833   3.606   1.893   0.883 -0.2697  0.0098  0.3588
  447SOL    HW2 1834   3.691   1.936   0.867 -0.5970  1.1839  1.7092
  447SOL    HW3 1835   3.541   1.954   0.848 -0.6901  0.2290  1.4980
  447SOL    MW4 1836   3.609   1.907   0.876 -0.3686  0.1937  0.6872
  448SOL     OW 1837   3.817   2.054   0.803 -0.1691  0.3197 -0.4037
  448SOL    HW2 1838   3.902   2.015   0.824 -0.2812 -0.4652 -1.3710
  448SOL    HW3 1839   3.809   2.045   0.708 -0.7430  1.6082 -0.4840
  448SOL    MW4 1840   3.827   2.047   0.793 -0.2596  0.3860 -0.5419
  449SOL     OW 1841   3.784   2.325   0.888 -0.1819 -0.2098  0.4762
  449SOL    HW2 1842   3.804   2.324   0.981  1.6864 -1.0982  0.0850
  449SOL    HW3 1843   3.807   2.237   0.857 -0.1150  0.2914 -0.9611
  449SOL    MW4 1844   3.790   2.313   0.896  0.0734 -0.2611  0.2349
  450SOL     OW 1845   3.305   2.521   0.828 -0.4503 -0.2012 -0.2588
  450SOL    HW2 1846   3.378   2.576   0.856  0.2901 -0.3972 -1.7879
  450SOL    HW3 1847   3.339   2.432   0.833 -1.6443 -0.5792  2.2015
  450SOL    MW4 1848   3.319   2.517   0.833 -0.5102 -0.2768 -0.1359
  451SOL     OW 1849   3.495   2.724   0.889 -0.0311  0.0011 -0.2377
  451SOL    HW2 1850   3.550   2.725   0.967 -0.3811  0.0703  0.0081
  451SOL    HW3 1851   3.556   2.702   0.817 -0.0687 -2.0548  0.3259
  451SOL    MW4 1852   3.511   2.721   0.890 -0.0823 -0.2613 -0.1309
  452SOL     OW 1853   3.838   2.861   0.683  0.3730  0.5702 -0.0846
  452SOL    HW2 1854   3.769   2.795   0.680  0.6321  0.3178 -0.4841
  452SOL    HW3 1855   3.808   2.923   0.749  0.1347  0.0504  0.3005
  452SOL    MW4 1856   3.825   2.861   0.691  0.3760  0.4683 -0.0865
  453SOL     OW 1857   3.803   3.075   0.889 -0.2856 -0.0203  0.0753
  453SOL    HW2 1858   3.860   3.132   0.837  0.2632 -1.3958 -0.8513
  453SOL    HW3 1859   3.714   3.107   0.871 -0.0386  0.0548 -1.0441
  453SOL    MW4 1860   3.799   3.087   0.879 -0.1807 -0.1919 -0.1947
  454SOL     OW 1861   3.550   3.183   0.834  0.0336  0.2208 -0.4922
  454SOL    HW2 1862   3.485   3.123   0.872  0.2952  0.0911 -0.2441
  454SOL    HW3 1863   3.523   3.194   0.743 -1.7008  2.0423  0.2071
  454SOL    MW4 1864   3.538   3.176   0.827 -0.1612  0.4442 -0.3672
  455SOL     OW 1865   3.577   3.468   0.860 -0.4308  0.0533 -0.0798
  455SOL    HW2 1866   3.584   3.373   0.850 -1.2316  0.0525 -0.6783
  455SOL    HW3 1867   3.498   3.492   0.810 -1.8882  0.6623  2.4323
  455SOL    MW4 1868   3.567   3.459   0.852 -0.7286  0.1333  0.1726
  456SOL     OW 1869   3.786   3.660   0.857 -0.3519  0.0610  0.4775
  456SOL    HW2 1870   3.856   3.595   0.854  0.2039  0.5955  1.4569
  456SOL    HW3 1871   3.706   3.608   0.863  0.0769 -0.5507  1.1141
  456SOL    MW4 1872   3.785   3.644   0.858 -0.2222  0.0510  0.6907
  457SOL     OW 1873   3.829   3.951   0.854  0.5461  0.1490  0.0299
  457SOL    HW2 1874   3.755   3.990   0.807  0.4292  1.5566  1.3612
  457SOL    HW3 1875   3.812   3.857   0.852 -0.7130  0.3817 -0.6256
  457SOL    MW4 1876   3.817   3.944   0.847  0.3648  0.3650  0.1190
  458SOL     OW 1877   3.614   4.045   0.710  0.9359  0.2009  0.0772
  458SOL    HW2 1878   3.598   4.130   0.751 -0.4120  0.4201 -0.9002
  458SOL    HW3 1879   3.628   4.064   0.617  0.4127 -0.6656 -0.1882
  458SOL    MW4 1880   3.614   4.059   0.703  0.6890  0.1163 -0.0867
  459SOL     OW 1881   3.571   4.295   0.832 -0.0922  0.0621 -0.1109
  459SOL    HW2 1882   3.643   4.347   0.796 -0.3515  1.0771  0.8079
  459SOL    HW3 1883   3.491   4.340   0.802 -0.3188  0.0788  0.5063
  459SOL    MW4 1884   3.570   4.308   0.823 -0.1564  0.1984  0.0917
  460SOL     OW 1885   3.830   4.405   0.759 -0.1313  0.3101 -0.7273
  460SOL    HW2 1886   3.918   4.367   0.767 -0.3057 -0.0587 -0.5298
  460SOL    HW3 1887   3.834   4.488   0.805 -0.9156 -1.4026  2.5604
  460SOL    MW4 1888   3.842   4.411   0.766 -0.2577  0.0358 -0.2675
  461SOL     OW 1889   4.284   4.658   0.830  0.0133  0.8495 -0.0416
  461SOL    HW2 1890   4.277   4.674   0.924 -1.1752 -0.1226  0.0419
  461SOL    HW3 1891   4.198   4.680   0.795  0.1737  0.3290 -0.7732
  461SOL    MW4 1892   4.272   4.663   0.838 -0.1221  0.6523 -0.1271
  462SOL     OW 1893   4.051   0.128   0.745 -0.0526 -0.4926 -0.3404
  462SOL    HW2 1894   4.045   0.216   0.782 -3.2273 -0.7037 -0.2243
  462SOL    HW3 1895   4.060   0.142   0.651  1.4362 -0.0576 -0.1533
  462SOL    MW4 1896   4.052   0.141   0.738 -0.2747 -0.4631 -0.3005
  463SOL     OW 1897   4.038   0.377   0.871 -0.0659  0.2895  0.2143
  463SOL    HW2 1898   4.108   0.434   0.840 -0.4367  0.9832  0.6373
  463SOL    HW3 1899   3.959   0.411   0.829 -0.2853  0.0864  0.4608
  463SOL    MW4 1900   4.037   0.389   0.861 -0.1445  0.3542  0.3026
  464SOL     OW 1901   4.221   0.561   0.776 -0.4790  0.1262  0.1113
  464SOL    HW2 1902   4.299   0.516   0.809 -1.3006 -1.9455 -0.7016
  464SOL    HW3 1903   4.240   0.579   0.684  0.5355  3.0728  0.8302
  464SOL    MW4 1904   4.234   0.557   0.768 -0.4535  0.2416  0.0989
  465SOL     OW 1905   4.257   0.809   0.869  0.6823 -0.4101 -0.1591
  465SOL    HW2 1906   4.178   0.855   0.841  1.5128  2.4780  1.9693
  465SOL    HW3 1907   4.245   0.719   0.839 -3.5367 -0.1076  0.3980
  465SOL    MW4 1908   4.245   0.803   0.861  0.2356  0.0108  0.1951
  466SOL     OW 1909   4.024   0.948   0.778 -0.1286  0.3466 -0.6849
  466SOL    HW2 1910   4.014   1.032   0.821 -0.2007  0.2572 -0.5245
  466SOL    HW3 1911   4.059   0.968   0.692 -0.3230  0.5550 -0.7147
  466SOL    MW4 1912   4.027   0.961   0.772 -0.1640  0.3623 -0.6676
  467SOL     OW 1913   4.028   1.202   0.879 -0.6638 -0.1797 -0.2716
  467SOL    HW2 1914   4.011   1.192   0.973 -0.9420  0.6124 -0.2319
  467SOL    HW3 1915   3.946   1.235   0.843 -0.2327  0.5425 -0.6172
  467SOL    MW4 1916   4.015   1.205   0.887 -0.6442  0.0203 -0.3120
  468SOL     OW 1917   4.232   1.294   0.725 -0.3454 -0.0168 -0.0103
  468SOL    HW2 1918   4.164   1.256   0.780 -0.7155  0.2954 -0.2509
  468SOL    HW3 1919   4.313   1.252   0.755 -0.7993 -1.2892 -0.5267
  468SOL    MW4 1920   4.234   1.283   0.736 -0.4539 -0.1434 -0.1102
  469SOL     OW 1921   4.236   1.562   0.797 -0.0410 -0.0652  0.0398
  469SOL    HW2 1922   4.242   1.561   0.892 -0.9106 -0.3244  0.0890
  469SOL    HW3 1923   4.235   1.470   0.772  1.4614 -0.0028 -0.3062
  469SOL    MW4 1924   4.237   1.550   0.806  0.0429 -0.0912  0.0007
  470SOL     OW 1925   4.024   1.727   0.746 -0.1383 -0.2235  0.2122
  470SOL    HW2 1926   4.105   1.679   0.765 -0.0487 -0.3681 -0.5242
  470SOL    HW3 1927   4.033   1.754   0.655 -0.7436  0.1186  0.2516
  470SOL    MW4 1928   4.036   1.724   0.737 -0.2065 -0.1974  0.1203
  471SOL     OW 1929   4.058   1.956   0.886 -0.4451 -0.1166 -0.1995
  471SOL    HW2 1930   4.138   1.998   0.857  0.3604 -0.8083  0.9890
  471SOL    HW3 1931   4.061   1.869   0.847 -0.8561  0.0243 -0.5501
  471SOL    MW4 1932   4.069   1.950   0.877 -0.3929 -0.1892 -0.0889
  472SOL     OW 1933   4.283   2.067   0.764 -0.4001  0.1548 -0.3425
  472SOL    HW2 1934   4.362   2.018   0.788  0.2558  0.7355 -1.3110
  472SOL    HW3 1935   4.294   2.085   0.670 -0.5215  2.3623  0.0496
  472SOL    MW4 1936   4.295   2.063   0.755 -0.3295  0.5226 -0.4185
  473SOL     OW 1937   4.268   2.338   0.835  0.1420  0.2710  0.1858
  473SOL    HW2 1938   4.182   2.374   0.814  0.6892  0.9411 -0.9222
  473SOL    HW3 1939   4.264   2.248   0.800  0.6326  0.9960 -1.7966
  473SOL    MW4 1940   4.256   2.331   0.828  0.2785  0.4551 -0.2219
  474SOL     OW 1941   4.015   2.420   0.767  0.2851  0.6897  0.1292
  474SOL    HW2 1942   4.010   2.514   0.785 -0.4037  0.4356  1.3137
  474SOL    HW3 1943   3.944   2.382   0.818  0.1390 -0.4064 -0.8827
  474SOL    MW4 1944   4.005   2.428   0.776  0.1750  0.5119  0.1520
  475SOL     OW 1945   4.018   2.694   0.812  0.2677 -0.7284  0.2116
  475SOL    HW2 1946   4.090   2.742   0.771 -0.7480  0.3156 -0.3841
  475SOL    HW3 1947   3.939   2.740   0.784 -0.6609 -2.0411  0.6007
  475SOL    MW4 1948   4.017   2.706   0.803  0.0114 -0.7637  0.1844
  476SOL     OW 1949   4.239   2.862   0.725 -0.2556  0.1997 -0.0165
  476SOL    HW2 1950   4.306   2.830   0.785 -0.4639  0.2946  0.2644
  476SOL    HW3 1951   4.284   2.868   0.640  0.3833  1.3283  0.3906
  476SOL    MW4 1952   4.254   2.858   0.722 -0.1988  0.3612  0.0743
  477SOL     OW 1953   4.206   3.097   0.840  0.2017 -0.1625  0.1787
  477SOL    HW2 1954   4.207   3.010   0.800 -0.2502 -0.0927  0.0082
  477SOL    HW3 1955   4.289   3.137   0.813  0.4525 -0.5713  0.3332
  477SOL    MW4 1956   4.217   3.091   0.831  0.1755 -0.2072  0.1765
  478SOL     OW 1957   3.999   3.242   0.751 -0.0289  0.0486  0.1359
  478SOL    HW2 1958   3.996   3.328   0.792 -0.9124  0.0958 -0.0126
  478SOL    HW3 1959   4.079   3.202   0.784 -0.1940  0.4892  1.0966
  478SOL    MW4 1960   4.009   3.248   0.761 -0.1678  0.1130  0.2431
  479SOL     OW 1961   4.018   3.507   0.869  0.0558 -0.0207  0.1257
  479SOL    HW2 1962   4.053   3.481   0.954 -0.2983  0.2252  0.3457
  479SOL    HW3 1963   4.095   3.540   0.822  0.4181 -0.9657  0.0255
  479SOL    MW4 1964   4.033   3.508   0.874  0.0567 -0.1130  0.1415
  480SOL     OW 1965   4.268   3.617   0.753  0.3504 -0.4846  0.1219
  480SOL    HW2 1966   4.262   3.711   0.769 -2.4611 -0.6829  0.4938
  480SOL    HW3 1967   4.250   3.608   0.659 -1.3992 -0.7760  0.4629
  480SOL    MW4 1968   4.264   3.628   0.742 -0.2513 -0.5496  0.2159
  481SOL     OW 1969   4.303   3.900   0.811 -0.2109  0.0189  0.0566
  481SOL    HW2 1970   4.297   3.876   0.904 -0.7318 -0.5133 -0.1109
  481SOL    HW3 1971   4.229   3.959   0.797  0.4856  0.9474  0.2274
  481SOL    MW4 1972   4.292   3.905   0.822 -0.1879  0.0710  0.0570
  482SOL     OW 1973   4.086   4.044   0.779 -0.0509 -0.2189 -0.1080
  482SOL    HW2 1974   4.001   4.009   0.808 -0.2137  0.5600  0.3659
  482SOL    HW3 1975   4.080   4.044   0.684 -0.4256 -0.5671 -0.0869
  482SOL    MW4 1976   4.074   4.039   0.770 -0.1216 -0.1621 -0.0426
  483SOL     OW 1977   4.087   4.310   0.833  0.2800 -0.2881  0.4987
  483SOL    HW2 1978   4.171   4.345   0.802  0.2299 -0.2166  0.4433
  483SOL    HW3 1979   4.095   4.216   0.821  0.1560 -0.2343  0.0133
  483SOL    MW4 1980   4.099   4.302   0.827  0.2570 -0.2713  0.4273
  484SOL     OW 1981   4.306   4.430   0.688  0.0692  0.3905 -0.0204
  484SOL    HW2 1982   4.312   4.503   0.749  0.0847 -0.7573  1.3887
  484SOL    HW3 1983   4.384   4.377   0.708 -0.4007 -0.4505 -0.4263
  484SOL    MW4 1984   4.317   4.433   0.699  0.0095  0.1278  0.1120
  485SOL     OW 1985   0.216   0.042   1.157 -0.4139  0.0001  0.0376
  485SOL    HW2 1986   0.292   0.087   1.194 -0.0368 -0.7535  0.1711
  485SOL    HW3 1987   0.222   0.059   1.063 -0.1629  0.0668  0.0645
  485SOL    MW4 1988   0.227   0.050   1.150 -0.3310 -0.0905  0.0589
  486SOL     OW 1989   4.469   0.122   1.255  0.7892 -0.0938  0.1535
  486SOL    HW2 1990   4.401   0.075   1.207  1.1462  1.0361 -1.5063
  486SOL    HW3 1991   4.551   0.092   1.217  1.1299  0.0193  0.7908
  486SOL    MW4 1992   4.471   0.112   1.244  0.8817  0.0702  0.0186
  487SOL     OW 1993   4.473   0.367   1.133 -0.0917 -0.3533 -0.1760
  487SOL    HW2 1994   4.395   0.411   1.167  2.0617  0.5874  3.8778
  487SOL    HW3 1995   4.479   0.287   1.185 -0.1514 -2.1374 -2.7956
  487SOL    MW4 1996   4.464   0.362   1.144  0.1845 -0.4646  0.0132
  488SOL     OW 1997   0.204   0.506   1.198  0.1950  0.1167 -0.1722
  488SOL    HW2 1998   0.197   0.597   1.169 -0.4131  0.0696 -0.1701
  488SOL    HW3 1999   0.122   0.465   1.170  0.4912 -0.4457 -0.2225
  488SOL    MW4 2000   0.192   0.513   1.191  0.1538  0.0363 -0.1787
  489SOL     OW 2001   0.232   0.757   1.085 -0.4291 -0.0802 -0.0395
  489SOL    HW2 2002   0.298   0.813   1.126  0.9841 -1.1723 -0.7997
  489SOL    HW3 2003   0.149   0.804   1.100  0.7442  2.3807 -0.9622
  489SOL    MW4 2004   0.230   0.771   1.093 -0.0878  0.1004 -0.2614
  490SOL     OW 2005   4.486   0.869   1.221 -0.0054 -0.2720  0.2412
  490SOL    HW2 2006   4.497   0.872   1.316 -0.6091  0.4402  0.2914
  490SOL    HW3 2007   4.394   0.845   1.207 -0.3084  1.0387 -0.1463
  490SOL    MW4 2008   4.475   0.866   1.231 -0.1249 -0.0050  0.1967
  491SOL     OW 2009   4.487   1.131   1.084 -0.6031  0.0629 -0.2768
  491SOL    HW2 2010   4.408   1.172   1.119 -1.3169 -0.5341 -1.1558
  491SOL    HW3 2011   4.488   1.044   1.123  0.0677  0.3698  0.3814
  491SOL    MW4 2012   4.476   1.125   1.093 -0.6089  0.0247 -0.3060
  492SOL     OW 2013   0.188   1.244   1.267  0.6547  0.4997  0.1990
  492SOL    HW2 2014   0.270   1.210   1.230  0.4709 -0.4193  0.6093
  492SOL    HW3 2015   0.119   1.205   1.213  0.3854 -0.8633  1.4936
  492SOL    MW4 2016   0.190   1.234   1.255  0.5949  0.1985  0.4238
  493SOL     OW 2017   0.223   1.508   1.175 -0.4239 -0.3326 -0.1823
  493SOL    HW2 2018   0.212   1.418   1.204  0.6668 -0.4524 -0.1229
  493SOL    HW3 2019   0.231   1.502   1.080  1.2730 -0.4591 -0.0324
  493SOL    MW4 2020   0.222   1.495   1.166 -0.0561 -0.3650 -0.1545
  494SOL     OW 2021   4.475   1.643   1.236  0.5897 -0.2158  0.2219
  494SOL    HW2 2022   4.464   1.734   1.207  0.1959 -0.4984 -0.5306
  494SOL    HW3 2023   4.561   1.617   1.202  1.3715  0.3548  1.7321
  494SOL    MW4 2024   4.485   1.652   1.227  0.6413 -0.1777  0.3219
  495SOL     OW 2025   4.468   1.904   1.170 -0.3512  0.0449  0.5497
  495SOL    HW2 2026   4.390   1.950   1.203 -0.1883  1.4867 -1.0372
  495SOL    HW3 2027   4.476   1.932   1.079  0.5537 -2.1003 -0.0565
  495SOL    MW4 2028   4.459   1.913   1.162 -0.2103 -0.0479  0.2604
  496SOL     OW 2029   0.234   2.047   1.239 -0.3983 -0.2894  0.2715
  496SOL    HW2 2030   0.224   2.139   1.215 -1.1274 -0.3387  0.3812
  496SOL    HW3 2031   0.146   2.010   1.232 -0.7178 -0.2427  3.3670
  496SOL    MW4 2032   0.221   2.054   1.235 -0.5366 -0.2902  0.6944
  497SOL     OW 2033   0.205   2.299   1.136 -0.2422 -0.6737  0.2412
  497SOL    HW2 2034   0.295   2.327   1.152  0.1851 -1.1896 -1.1631
  497SOL    HW3 2035   0.151   2.364   1.180  0.7595  1.6111 -1.7880
  497SOL    MW4 2036   0.209   2.311   1.144 -0.0536 -0.4404 -0.2118
  498SOL     OW 2037   4.473   2.437   1.253 -0.3069  0.2853  0.2975
  498SOL    HW2 2038   4.455   2.432   1.347  1.4066  2.1291  0.7588
  498SOL    HW3 2039   4.406   2.381   1.213 -1.7447  0.3340  2.5171
  498SOL    MW4 2040   4.462   2.429   1.260 -0.2708  0.5350  0.6512
  499SOL     OW 2041   4.489   2.696   1.127 -0.2570 -0.2142  0.0996
  499SOL    HW2 2042   4.408   2.732   1.164 -0.2657  0.5688 -0.6413
  499SOL    HW3 2043   4.501   2.612   1.171 -1.2890 -0.1754  0.4710
  499SOL    MW4 2044   4.480   2.690   1.137 -0.3943 -0.1059  0.0509
  500SOL     OW 2045   0.211   2.830   1.216 -0.7481 -0.0011 -0.3663
  500SOL    HW2 2046   0.221   2.821   1.311  2.2466  0.2356 -0.5964
  500SOL    HW3 2047   0.132   2.779   1.196 -0.1463 -2.0046  1.9614
  500SOL    MW4 2048   0.202   2.822   1.226 -0.2736 -0.2344 -0.0895
  501SOL     OW 2049   0.229   3.085   1.098 -0.3479  0.1564  0.3556
  501SOL    HW2 2050   0.303   3.137   1.130 -0.4454  0.0645  0.7271
  501SOL    HW3 2051   0.231   3.005   1.151  0.2119 -0.5229 -0.6663
  501SOL    MW4 2052   0.239   3.081   1.109 -0.2869  0.0546  0.2699
  502SOL     OW 2053   0.011   3.198   1.204 -0.4263 -0.6243  0.1261
  502SOL    HW2 2054  -0.072   3.164   1.169  0.4007 -1.4719 -1.0688
  502SOL    HW3 2055   0.078   3.149   1.157  0.7701  0.5833  0.5472
  502SOL    MW4 2056   0.009   3.187   1.193 -0.1594 -0.5770  0.0241
  503SOL     OW 2057   0.048   3.459   1.151 -0.0195  0.3097  0.3219
  503SOL    HW2 2058   0.058   3.365   1.164 -0.1560  0.4989  1.8331
  503SOL    HW3 2059   0.032   3.468   1.057 -2.5627 -1.4057  0.5302
  503SOL    MW4 2060   0.047   3.448   1.140 -0.3730  0.1082  0.5487
  504SOL     OW 2061   0.251   3.657   1.221  0.2331 -0.6451  0.6748
  504SOL    HW2 2062   0.280   3.654   1.313 -0.9373 -0.9307  1.0389
  504SOL    HW3 2063   0.180   3.593   1.216 -0.6890  0.4204 -0.0840
  504SOL    MW4 2064   0.246   3.648   1.233 -0.0429 -0.5424  0.6227
  505SOL     OW 2065   0.270   3.902   1.089  0.3939  0.0133  0.1037
  505SOL    HW2 2066   0.190   3.938   1.126  0.3881 -0.6416  0.7559
  505SOL    HW3 2067   0.278   3.815   1.129  0.7240 -0.4583 -0.9643
  505SOL    MW4 2068   0.261   3.895   1.099  0.4367 -0.1352  0.0489
  506SOL     OW 2069   0.007   4.022   1.174  0.0312 -0.4620 -0.1334
  506SOL    HW2 2070   0.004   4.019   1.269  0.4109  0.7161 -0.0727
  506SOL    HW3 2071  -0.051   3.952   1.145  0.5928 -1.3790  0.9616
  506SOL    MW4 2072  -0.001   4.013   1.183  0.1550 -0.4277  0.0190
  507SOL     OW 2073   4.456   4.294   1.093  0.1880  0.2506  0.1193
  507SOL    HW2 2074   4.532   4.341   1.126  0.6467 -0.2639 -0.1819
  507SOL    HW3 2075   4.466   4.205   1.127 -0.8589  0.4520  0.9800
  507SOL    MW4 2076   4.467   4.288   1.101  0.1106  0.2089  0.1929
  508SOL     OW 2077   0.175   4.423   1.211 -0.4682  0.1541  0.0346
  508SOL    HW2 2078   0.197   4.422   1.304  1.4170 -0.8657 -0.3961
  508SOL    HW3 2079   0.170   4.516   1.189 -1.4379  0.4016  1.2622
  508SOL    MW4 2080   0.177   4.435   1.220 -0.3474  0.0529  0.1397
  509SOL     OW 2081   0.658   4.642   1.110 -0.4370 -0.0470  0.0982
  509SOL    HW2 2082   0.717   4.703   1.153  0.3932 -0.5353 -0.3424
  509SOL    HW3 2083   0.672   4.559   1.156  0.7337 -0.6673 -1.3349
  509SOL    MW4 2084   0.667   4.639   1.122 -0.1730 -0.1936 -0.1489
  510SOL     OW 2085   0.453   0.125   1.265 -0.0262 -0.5508 -0.6493
  510SOL    HW2 2086   0.461   0.207   1.216  1.1015 -0.5943 -0.5529
  510SOL    HW3 2087   0.507   0.062   1.217 -0.0188 -0.9564 -0.1207
  510SOL    MW4 2088   0.461   0.127   1.252  0.1235 -0.6100 -0.5667
  511SOL     OW 2089   0.414   0.357   1.105 -0.3696  0.0618  0.4085
  511SOL    HW2 2090   0.340   0.407   1.141 -0.0330  0.6324  0.3105
  511SOL    HW3 2091   0.388   0.339   1.015 -0.7639 -0.4818  0.6274
  511SOL    MW4 2092   0.401   0.362   1.098 -0.3772  0.0653  0.4244
  512SOL     OW 2093   0.663   0.544   1.205 -0.0311  0.2151  0.0773
  512SOL    HW2 2094   0.668   0.625   1.155 -0.2978 -0.8225 -1.6903
  512SOL    HW3 2095   0.598   0.491   1.158 -0.5581 -0.6477  1.7485
  512SOL    MW4 2096   0.655   0.548   1.192 -0.1359 -0.0356  0.0647
  513SOL     OW 2097   0.662   0.780   1.051  0.2404 -0.6813 -0.3501
  513SOL    HW2 2098   0.577   0.819   1.071  0.3528 -0.4247 -0.3629
  513SOL    HW3 2099   0.673   0.793   0.957  0.4014 -0.4905 -0.3073
  513SOL    MW4 2100   0.653   0.787   1.041  0.2764 -0.6223 -0.3462
  514SOL     OW 2101   0.441   0.914   1.188  0.0897 -0.2175  0.2666
  514SOL    HW2 2102   0.440   0.917   1.283 -2.1554 -0.5142  0.2723
  514SOL    HW3 2103   0.426   1.004   1.160 -0.5038 -0.3399  0.1932
  514SOL    MW4 2104   0.439   0.926   1.197 -0.2848 -0.2728  0.2576
  515SOL     OW 2105   0.422   1.181   1.094 -0.3338  0.0984 -0.2256
  515SOL    HW2 2106   0.500   1.219   1.134 -0.2397 -1.3772  1.0081
  515SOL    HW3 2107   0.448   1.165   1.003  0.3399  0.8967 -0.1850
  515SOL    MW4 2108   0.436   1.184   1.087 -0.2325  0.0092 -0.0576
  516SOL     OW 2109   0.659   1.258   1.215  0.2797 -0.3656 -0.1682
  516SOL    HW2 2110   0.730   1.207   1.177  0.3416 -0.1289 -0.3743
  516SOL    HW3 2111   0.671   1.346   1.178 -0.0443 -0.2962 -0.1064
  516SOL    MW4 2112   0.670   1.263   1.205  0.2452 -0.3252 -0.1872
  517SOL     OW 2113   0.693   1.518   1.148 -0.1017 -0.0355 -0.1336
  517SOL    HW2 2114   0.769   1.565   1.181 -0.2586  0.4544 -0.4474
  517SOL    HW3 2115   0.618   1.565   1.186 -0.2333 -0.8462  0.6061
  517SOL    MW4 2116   0.693   1.531   1.157 -0.1397 -0.0778 -0.0776
  518SOL     OW 2117   0.446   1.635   1.235 -0.1717 -0.1084  0.3443
  518SOL    HW2 2118   0.464   1.642   1.328  0.0338 -0.2216  0.3152
  518SOL    HW3 2119   0.362   1.589   1.230  0.5097 -1.3786  0.4497
  518SOL    MW4 2120   0.437   1.630   1.246 -0.0547 -0.2909  0.3544
  519SOL     OW 2121   0.479   1.897   1.168 -0.2098 -0.5340 -0.1265
  519SOL    HW2 2122   0.464   1.805   1.188  1.3893 -0.9318 -0.6908
  519SOL    HW3 2123   0.411   1.943   1.217 -0.4837 -1.9466  0.8572
  519SOL    MW4 2124   0.468   1.891   1.177 -0.0350 -0.7728 -0.0712
  520SOL     OW 2125   0.716   2.045   1.271 -0.0941  0.1278  0.2978
  520SOL    HW2 2126   0.693   2.059   1.363  1.9160 -1.1856  1.0235
  520SOL    HW3 2127   0.655   1.977   1.241  0.1714 -0.4487  1.0584
  520SOL    MW4 2128   0.705   2.038   1.279  0.2062 -0.1216  0.4939
  521SOL     OW 2129   0.672   2.293   1.134  0.1193 -0.5769  0.4266
  521SOL    HW2 2130   0.592   2.329   1.172  0.7712  0.0930  1.1807
  521SOL    HW3 2131   0.682   2.207   1.175 -0.6214 -0.9875 -0.2431
  521SOL    MW4 2132   0.663   2.286   1.144  0.1075 -0.5426  0.4377
  522SOL     OW 2133   0.440   2.411   1.212  0.5278 -0.4288 -0.2477
  522SOL    HW2 2134   0.429   2.403   1.306  0.1678 -0.4166 -0.2872
  522SOL    HW3 2135   0.438   2.505   1.196 -1.3946 -0.4873 -0.4919
  522SOL    MW4 2136   0.439   2.422   1.222  0.2267 -0.4351 -0.2851
  523SOL     OW 2137   0.453   2.693   1.150 -0.6464 -0.0901 -0.1284
  523SOL    HW2 2138   0.369   2.732   1.174 -0.2442  0.0433  1.0683
  523SOL    HW3 2139   0.451   2.691   1.054 -1.5190  1.0039 -0.1480
  523SOL    MW4 2140   0.441   2.698   1.141 -0.7085  0.0718  0.0269
  524SOL     OW 2141   0.637   2.879   1.276  0.0185 -0.3289  0.6653
  524SOL    HW2 2142   0.646   2.968   1.244  1.9645 -0.5747  0.4635
  524SOL    HW3 2143   0.561   2.844   1.229  0.3555  0.6326 -0.6042
  524SOL    MW4 2144   0.628   2.886   1.266  0.3197 -0.2346  0.4712
  525SOL     OW 2145   0.667   3.128   1.153  0.8800 -0.5210  0.1235
  525SOL    HW2 2146   0.740   3.182   1.183  1.8732 -0.7178 -1.8618
  525SOL    HW3 2147   0.673   3.130   1.057 -1.5280 -0.8024 -0.0798
  525SOL    MW4 2148   0.677   3.136   1.144  0.6934 -0.5841 -0.1652
  526SOL     OW 2149   0.430   3.242   1.201  0.1542 -0.4806 -0.1574
  526SOL    HW2 2150   0.445   3.328   1.161 -0.2435  0.0644  0.8477
  526SOL    HW3 2151   0.514   3.197   1.191  0.0670 -0.3566 -1.5912
  526SOL    MW4 2152   0.443   3.248   1.195  0.0902 -0.3922 -0.2141
  527SOL     OW 2153   0.432   3.495   1.093  0.0979  0.4640 -0.2113
  527SOL    HW2 2154   0.520   3.524   1.118  0.2263  0.7572 -0.9772
  527SOL    HW3 2155   0.373   3.547   1.146  0.3934 -0.0758  0.6613
  527SOL    MW4 2156   0.436   3.506   1.103  0.1538  0.4318 -0.1973
  528SOL     OW 2157   0.685   3.610   1.193  0.0098 -0.1510 -0.9270
  528SOL    HW2 2158   0.663   3.602   1.286 -0.0235 -1.6770 -1.0526
  528SOL    HW3 2159   0.683   3.704   1.176  0.4052  0.1641  0.7084
  528SOL    MW4 2160   0.682   3.621   1.203  0.0575 -0.3109 -0.7279
  529SOL     OW 2161   0.674   3.886   1.107  0.0824 -0.4498  0.6471
  529SOL    HW2 2162   0.594   3.924   1.142  0.5312  0.7892  0.3621
  529SOL    HW3 2163   0.672   3.907   1.013  0.7675 -0.3530  0.6511
  529SOL    MW4 2164   0.663   3.893   1.099  0.2319 -0.2735  0.6100
  530SOL     OW 2165   0.470   4.063   1.217 -0.2247 -0.1656  0.9548
  530SOL    HW2 2166   0.475   4.158   1.207 -1.6743 -0.0306  1.4809
  530SOL    HW3 2167   0.401   4.035   1.157 -0.4051 -0.7878  1.4426
  530SOL    MW4 2168   0.462   4.072   1.207 -0.4398 -0.2298  1.0886
  531SOL     OW 2169   0.401   4.323   1.103  0.1257  0.0555 -0.3908
  531SOL    HW2 2170   0.476   4.367   1.143 -1.4650  1.7711  0.8108
  531SOL    HW3 2171   0.326   4.351   1.156 -1.0579 -3.5949 -0.0267
  531SOL    MW4 2172   0.401   4.333   1.115 -0.2403 -0.1998 -0.1843
  532SOL     OW 2173   0.633   4.375   1.211 -0.1052  0.2661  0.1185
  532SOL    HW2 2174   0.643   4.370   1.306 -0.0074  0.6605  0.1287
  532SOL    HW3 2175   0.705   4.320   1.177 -0.0355  0.2647  0.2663
  532SOL    MW4 2176   0.644   4.367   1.219 -0.0830  0.3181  0.1392
  533SOL     OW 2177   1.106   0.004   1.160 -0.2122  0.2513  0.5648
  533SOL    HW2 2178   1.110  -0.091   1.171 -0.5905  0.3801  1.8297
  533SOL    HW3 2179   1.102   0.016   1.065 -0.9009 -1.0221  0.4147
  533SOL    MW4 2180   1.106  -0.007   1.149 -0.3530  0.1006  0.7119
  534SOL     OW 2181   0.876   0.130   1.245 -0.8443  0.0909  0.2321
  534SOL    HW2 2182   0.873   0.117   1.340 -0.0481  1.4034  0.4442
  534SOL    HW3 2183   0.949   0.075   1.217 -2.5846 -2.1935  0.0368
  534SOL    MW4 2184   0.885   0.121   1.254 -0.9689 -0.0374  0.2344
  535SOL     OW 2185   0.889   0.363   1.104 -0.3315  0.3530  0.0141
  535SOL    HW2 2186   0.884   0.282   1.154  1.0068  1.4490  1.9600
  535SOL    HW3 2187   0.822   0.419   1.141 -0.6260  0.4884 -0.7083
  535SOL    MW4 2188   0.880   0.360   1.115 -0.1938  0.5155  0.1755
  536SOL     OW 2189   1.118   0.508   1.160  0.0461 -0.3573 -0.6336
  536SOL    HW2 2190   1.109   0.500   1.255 -0.4631 -0.5334 -0.6992
  536SOL    HW3 2191   1.041   0.466   1.124  0.4470 -0.6682 -1.1427
  536SOL    MW4 2192   1.107   0.502   1.168  0.0316 -0.4216 -0.7094
  537SOL     OW 2193   1.134   0.792   1.092  0.3785  0.3262 -0.4287
  537SOL    HW2 2194   1.055   0.838   1.120  1.1258  1.7025 -0.5442
  537SOL    HW3 2195   1.117   0.700   1.112  0.2087  1.0465  2.9603
  537SOL    MW4 2196   1.121   0.786   1.098  0.4547  0.6028  0.0031
  538SOL     OW 2197   0.884   0.875   1.181 -0.1015  0.2005  0.1603
  538SOL    HW2 2198   0.892   0.969   1.167 -0.7079  0.2785  0.3554
  538SOL    HW3 2199   0.810   0.848   1.128  0.0971 -0.1788  0.0705
  538SOL    MW4 2200   0.876   0.884   1.172 -0.1553  0.1608  0.1742
  539SOL     OW 2201   0.879   1.132   1.104  0.3282 -0.0085 -0.2900
  539SOL    HW2 2202   0.944   1.188   1.146  1.9892 -2.1451  0.0682
  539SOL    HW3 2203   0.895   1.142   1.011  0.5264  0.2066 -0.2342
  539SOL    MW4 2204   0.889   1.141   1.098  0.5735 -0.2621 -0.2353
  540SOL     OW 2205   1.098   1.266   1.223  0.1295  0.5187  0.4371
  540SOL    HW2 2206   1.117   1.252   1.316  0.3709 -0.3016  0.2729
  540SOL    HW3 2207   1.172   1.225   1.177  0.6260  1.9871 -0.0939
  540SOL    MW4 2208   1.110   1.259   1.229  0.2269  0.6043  0.3453
  541SOL     OW 2209   1.116   1.534   1.136 -0.1278 -0.1147  0.0134
  541SOL    HW2 2210   1.116   1.445   1.171  0.1968 -0.2209 -0.2523
  541SOL    HW3 2211   1.108   1.524   1.042  1.6886  0.0476 -0.1933
  541SOL    MW4 2212   1.115   1.521   1.128  0.1547 -0.1073 -0.0489
  542SOL     OW 2213   0.898   1.671   1.261  0.2949 -0.3571  0.0639
  542SOL    HW2 2214   0.895   1.762   1.232  2.2181 -0.4509 -0.4716
  542SOL    HW3 2215   0.980   1.637   1.225 -0.1531 -2.1510  0.7045
  542SOL    MW4 2216   0.908   1.679   1.252  0.4896 -0.6063  0.0778
  543SOL     OW 2217   0.920   1.925   1.132 -0.0351  0.2601  0.1216
  543SOL    HW2 2218   1.003   1.973   1.140 -0.4330  0.7771  1.2650
  543SOL    HW3 2219   0.859   1.974   1.186 -0.6723 -1.0616  0.6117
  543SOL    MW4 2220   0.923   1.938   1.140 -0.1717  0.1539  0.3370
  544SOL     OW 2221   1.146   2.073   1.179  0.1451 -0.1277  0.1307
  544SOL    HW2 2222   1.156   2.070   1.274 -2.3737  1.9644  0.5142
  544SOL    HW3 2223   1.140   2.167   1.158 -0.8836 -0.6014 -1.8908
  544SOL    MW4 2224   1.147   2.085   1.189 -0.3231  0.0858 -0.0855
  545SOL     OW 2225   1.123   2.355   1.135 -0.1515  0.0409  0.1339
  545SOL    HW2 2226   1.197   2.410   1.163 -0.2782  0.4232 -0.2706
  545SOL    HW3 2227   1.047   2.411   1.148 -0.2009  0.2684 -1.0853
  545SOL    MW4 2228   1.123   2.370   1.141 -0.1748  0.1214 -0.0802
  546SOL     OW 2229   0.884   2.466   1.199  0.1559  0.3460 -0.6189
  546SOL    HW2 2230   0.887   2.458   1.295  1.3609  0.8523 -0.6097
  546SOL    HW3 2231   0.808   2.414   1.173 -0.0944  0.0866  0.6002
  546SOL    MW4 2232   0.874   2.458   1.208  0.2819  0.3786 -0.4568
  547SOL     OW 2233   0.838   2.752   1.138  0.0017  0.0495 -0.1122
  547SOL    HW2 2234   0.824   2.660   1.158  1.8864 -0.1141  0.6345
  547SOL    HW3 2235   0.765   2.797   1.178 -0.4778 -1.0466  0.2578
  547SOL    MW4 2236   0.827   2.746   1.146  0.1870 -0.1166  0.0352
  548SOL     OW 2237   1.082   2.856   1.203 -0.1994  0.2821  0.2435
  548SOL    HW2 2238   1.081   2.851   1.299 -0.7430  1.4613  0.3063
  548SOL    HW3 2239   1.000   2.815   1.176  0.0945 -0.3229  0.2673
  548SOL    MW4 2240   1.071   2.850   1.212 -0.2322  0.3576  0.2549
  549SOL     OW 2241   1.109   3.125   1.071  0.0482 -0.5001 -0.2562
  549SOL    HW2 2242   1.087   3.040   1.108 -0.1226 -0.8785 -1.2264
  549SOL    HW3 2243   1.112   3.111   0.977 -0.3952  0.6656 -0.4576
  549SOL    MW4 2244   1.107   3.112   1.064 -0.0329 -0.3963 -0.4108
  550SOL     OW 2245   0.898   3.247   1.232  0.2025  0.0347  0.0263
  550SOL    HW2 2246   0.896   3.334   1.193 -0.2901 -0.1280 -0.3137
  550SOL    HW3 2247   0.970   3.203   1.187  0.1639  0.1208 -0.1236
  550SOL    MW4 2248   0.907   3.253   1.221  0.1324  0.0246 -0.0383
  551SOL     OW 2249   0.915   3.507   1.124  0.0791 -0.2457  0.3868
  551SOL    HW2 2250   0.833   3.537   1.162 -0.0273  1.0205 -0.8239
  551SOL    HW3 2251   0.900   3.509   1.030  1.6338  0.4084  0.1393
  551SOL    MW4 2252   0.902   3.511   1.117  0.2702  0.0076  0.1943
  552SOL     OW 2253   1.147   3.626   1.207  0.4306  0.0454 -0.1666
  552SOL    HW2 2254   1.216   3.583   1.155  0.2438  0.1825 -0.5342
  552SOL    HW3 2255   1.067   3.580   1.182  0.2231  0.6291 -0.5927
  552SOL    MW4 2256   1.146   3.615   1.197  0.3787  0.1407 -0.2712
  553SOL     OW 2257   1.109   3.890   1.106  0.0939 -0.1794 -0.3108
  553SOL    HW2 2258   1.037   3.935   1.150 -0.0997 -0.4456 -0.3512
  553SOL    HW3 2259   1.105   3.800   1.140 -1.1534 -0.8653 -2.1815
  553SOL    MW4 2260   1.099   3.884   1.116 -0.0962 -0.3049 -0.5629
  554SOL     OW 2261   0.895   4.004   1.220 -0.2133  0.0443 -0.3865
  554SOL    HW2 2262   0.889   4.013   1.315 -1.5610  0.8279 -0.5325
  554SOL    HW3 2263   0.815   3.957   1.196  0.8784 -1.5647 -0.9774
  554SOL    MW4 2264   0.883   3.999   1.230 -0.2471 -0.0644 -0.4839
  555SOL     OW 2265   0.851   4.242   1.099 -0.3164 -0.4998  0.0069
  555SOL    HW2 2266   0.868   4.153   1.130  1.9261 -0.3040 -0.5814
  555SOL    HW3 2267   0.857   4.236   1.004  0.5442  0.3799 -0.0088
  555SOL    MW4 2268   0.854   4.230   1.091  0.0930 -0.3586 -0.0728
  556SOL     OW 2269   1.099   4.396   1.189  0.8205  0.0839  0.1347
  556SOL    HW2 2270   1.103   4.397   1.285  0.2006  0.1596  0.1579
  556SOL    HW3 2271   1.013   4.358   1.169  1.1883 -0.4812 -0.3941
  556SOL    MW4 2272   1.088   4.391   1.199  0.7871  0.0196  0.0679
  557SOL     OW 2273   1.557   4.665   1.120  0.5257 -0.6369 -0.2182
  557SOL    HW2 2274   1.624   4.709   1.173  0.3624  0.4051 -0.8677
  557SOL    HW3 2275   1.570   4.572   1.137  2.8005 -0.5121 -1.0921
  557SOL    MW4 2276   1.568   4.658   1.129  0.8043 -0.4830 -0.4191
  558SOL     OW 2277   1.346   0.119   1.241 -0.1662  0.2592 -0.4967
  558SOL    HW2 2278   1.411   0.072   1.187 -0.4932 -0.3078 -0.3936
  558SOL    HW3 2279   1.262   0.084   1.213 -0.3180 -0.2902  0.6411
  558SOL    MW4 2280   1.344   0.108   1.230 -0.2295  0.1119 -0.3330
  559SOL     OW 2281   1.368   0.388   1.156  0.5297 -0.0264  0.0280
  559SOL    HW2 2282   1.335   0.307   1.194 -0.9545  1.2270  1.4808
  559SOL    HW3 2283   1.290   0.442   1.144  1.5275  1.2682 -0.7303
  559SOL    MW4 2284   1.353   0.384   1.159  0.4655  0.3097  0.1197
  560SOL     OW 2285   1.589   0.514   1.245 -0.1188 -0.2181 -0.1410
  560SOL    HW2 2286   1.589   0.597   1.198 -0.2532  0.0159  0.2647
  560SOL    HW3 2287   1.510   0.469   1.216  0.5201 -0.6840 -1.1875
  560SOL    MW4 2288   1.579   0.519   1.235 -0.0522 -0.2487 -0.2255
  561SOL     OW 2289   1.590   0.777   1.146  0.2456  0.2603  0.2690
  561SOL    HW2 2290   1.671   0.824   1.166  0.4178 -0.1450  0.5337
  561SOL    HW3 2291   1.581   0.783   1.051 -0.6284  2.3062  0.4536
  561SOL    MW4 2292   1.600   0.784   1.136  0.1529  0.4767  0.3283
  562SOL     OW 2293   1.367   0.894   1.235  0.5988  0.6373  0.5690
  562SOL    HW2 2294   1.443   0.847   1.201  1.1532  1.1003  1.1566
  562SOL    HW3 2295   1.292   0.855   1.190  1.3259  1.3550 -1.3217
  562SOL    MW4 2296   1.367   0.883   1.225  0.7679  0.7931  0.3971
  563SOL     OW 2297   1.305   1.139   1.121  0.5988  0.4440  0.1133
  563SOL    HW2 2298   1.305   1.045   1.141  2.0274  0.4982  0.4555
  563SOL    HW3 2299   1.331   1.143   1.029 -1.0666  0.4359 -0.3700
  563SOL    MW4 2300   1.309   1.127   1.111  0.5677  0.4501  0.0947
  564SOL     OW 2301   1.518   1.277   1.224  0.3575 -0.0588 -0.1643
  564SOL    HW2 2302   1.600   1.230   1.212 -0.1724 -1.1276  0.3591
  564SOL    HW3 2303   1.456   1.233   1.166  0.1972  0.8895 -0.7364
  564SOL    MW4 2304   1.521   1.265   1.215  0.2664 -0.0746 -0.1708
  565SOL     OW 2305   1.557   1.521   1.112  0.2626 -0.0542 -0.3839
  565SOL    HW2 2306   1.638   1.556   1.149  0.6289 -0.3009 -0.9330
  565SOL    HW3 2307   1.538   1.444   1.165 -0.8341  1.2636  1.1628
  565SOL    MW4 2308   1.566   1.515   1.124  0.1664  0.0870 -0.2522
  566SOL     OW 2309   1.338   1.686   1.194 -0.3916  0.5801 -0.0436
  566SOL    HW2 2310   1.409   1.623   1.179  0.2310  1.1515  0.4243
  566SOL    HW3 2311   1.258   1.636   1.182  0.0579 -0.8445  2.3779
  566SOL    MW4 2312   1.337   1.671   1.191 -0.2502  0.4674  0.3377
  567SOL     OW 2313   1.370   1.968   1.088  0.2163 -0.2832  0.2285
  567SOL    HW2 2314   1.367   1.881   1.127  0.3375  0.2188  1.3634
  567SOL    HW3 2315   1.290   2.010   1.117 -0.2377 -0.2907 -0.9868
  567SOL    MW4 2316   1.359   1.962   1.097  0.1724 -0.2179  0.2179
  568SOL     OW 2317   1.591   2.087   1.217  0.1287  0.0358  0.3978
  568SOL    HW2 2318   1.592   2.167   1.163  1.9484  0.3609  0.8878
  568SOL    HW3 2319   1.519   2.035   1.181 -0.5506  1.5349 -0.4598
  568SOL    MW4 2320   1.582   2.091   1.205  0.2792  0.2766  0.3493
  569SOL     OW 2321   1.565   2.342   1.087 -0.2493  0.2220 -0.1613
  569SOL    HW2 2322   1.489   2.381   1.130 -0.9400 -2.2949  1.0202
  569SOL    HW3 2323   1.546   2.348   0.993 -0.8453  1.6611  0.0428
  569SOL    MW4 2324   1.552   2.348   1.080 -0.4191  0.0801  0.0215
  570SOL     OW 2325   1.348   2.504   1.193 -0.3448 -0.5746 -0.4840
  570SOL    HW2 2326   1.362   2.513   1.287 -0.6414 -0.8488 -0.4124
  570SOL    HW3 2327   1.337   2.593   1.161 -0.5686 -0.5038 -0.2087
  570SOL    MW4 2328   1.349   2.517   1.201 -0.4135 -0.6015 -0.4381
  571SOL     OW 2329   1.314   2.762   1.081 -0.0987  0.0609 -0.2855
  571SOL    HW2 2330   1.385   2.796   1.135  1.9307 -2.1662 -1.4435
  571SOL    HW3 2331   1.234   2.788   1.126  1.5032 -1.8939  3.9378
  571SOL    MW4 2332   1.312   2.770   1.094  0.3804 -0.4907  0.1189
  572SOL     OW 2333   1.532   2.832   1.247 -0.2040 -0.1033 -0.2093
  572SOL    HW2 2334   1.616   2.787   1.233 -0.9308 -0.8223 -2.3308
  572SOL    HW3 2335   1.546   2.920   1.213  0.2509  0.3499  1.1232
  572SOL    MW4 2336   1.545   2.838   1.241 -0.2400 -0.1385 -0.3133
  573SOL     OW 2337   1.561   3.100   1.139 -0.2517 -0.2004  0.1583
  573SOL    HW2 2338   1.642   3.144   1.163  0.5701 -0.6621 -1.6607
  573SOL    HW3 2339   1.492   3.164   1.158  0.8411  1.5974 -1.6819
  573SOL    MW4 2340   1.563   3.114   1.145  0.0010 -0.0243 -0.3247
  574SOL     OW 2341   1.336   3.246   1.194  0.5894  0.3432  0.3126
  574SOL    HW2 2342   1.332   3.228   1.288 -0.3509 -0.7743  0.0559
  574SOL    HW3 2343   1.260   3.202   1.157  1.2142  0.3852 -1.0468
  574SOL    MW4 2344   1.326   3.238   1.202  0.5478  0.2015  0.0995
  575SOL     OW 2345   1.345   3.493   1.067 -0.1526 -0.1903  0.9344
  575SOL    HW2 2346   1.340   3.402   1.095  0.0537 -0.1180  1.2046
  575SOL    HW3 2347   1.321   3.491   0.974  1.2194 -0.7091  0.5787
  575SOL    MW4 2348   1.341   3.481   1.058  0.0556 -0.2494  0.9232
  576SOL     OW 2349   1.593   3.606   1.227  0.0180 -0.1898 -0.0901
  576SOL    HW2 2350   1.583   3.697   1.202 -0.4836 -0.5518 -1.2369
  576SOL    HW3 2351   1.526   3.559   1.176  0.6767 -1.2755  0.0131
  576SOL    MW4 2352   1.583   3.612   1.217  0.0389 -0.3808 -0.2277
  577SOL     OW 2353   1.561   3.884   1.160  0.0896  0.1470 -0.0756
  577SOL    HW2 2354   1.476   3.923   1.178 -0.1298 -0.4627  0.2246
  577SOL    HW3 2355   1.565   3.877   1.065  0.7495  2.2617 -0.2382
  577SOL    MW4 2356   1.550   3.888   1.150  0.1476  0.3455 -0.0575
  578SOL     OW 2357   1.324   4.009   1.261 -0.0907  0.1140 -0.0713
  578SOL    HW2 2358   1.331   4.096   1.223  0.2094  0.5424  0.9543
  578SOL    HW3 2359   1.249   3.969   1.217  0.1699  0.6501 -1.0040
  578SOL    MW4 2360   1.315   4.015   1.250 -0.0169  0.2413 -0.0591
  579SOL     OW 2361   1.335   4.244   1.131  0.1606 -0.2214  0.0444
  579SOL    HW2 2362   1.262   4.304   1.148 -0.1751 -0.6751  0.2258
  579SOL    HW3 2363   1.339   4.239   1.035 -0.2800 -0.4682  0.0342
  579SOL    MW4 2364   1.326   4.251   1.121  0.0583 -0.3142  0.0670
  580SOL     OW 2365   1.569   4.393   1.187 -0.0414  0.1846 -0.1237
  580SOL    HW2 2366   1.546   4.394   1.280  2.4522  0.0612  0.5257
  580SOL    HW3 2367   1.501   4.339   1.146 -2.2330  1.7799  1.3020
  580SOL    MW4 2368   1.557   4.386   1.194 -0.0017  0.3791  0.1501
  581SOL     OW 2369   1.930   4.605   1.120 -0.8391  0.2136  0.5804
  581SOL    HW2 2370   1.965   4.533   1.172 -1.6457  0.3142  1.2822
  581SOL    HW3 2371   1.949   4.582   1.029 -0.5217 -0.5671  0.8475
  581SOL    MW4 2372   1.937   4.592   1.115 -0.9037  0.1245  0.7082
  582SOL     OW 2373   1.776   0.127   1.247  0.0817 -0.1678  0.1854
  582SOL    HW2 2374   1.801   0.217   1.226  1.6851 -0.3657  1.1697
  582SOL    HW3 2375   1.830   0.073   1.188 -0.2455 -0.5082  0.1997
  582SOL    MW4 2376   1.787   0.132   1.236  0.2500 -0.2388  0.3171
  583SOL     OW 2377   1.819   0.379   1.153  0.3443 -0.5082  0.2145
  583SOL    HW2 2378   1.740   0.432   1.164  1.8763  2.4429 -1.8782
  583SOL    HW3 2379   1.821   0.360   1.059  1.3055 -1.8541  0.5071
  583SOL    MW4 2380   1.809   0.384   1.142  0.6732 -0.2963 -0.0230
  584SOL     OW 2381   2.053   0.487   1.229  0.1323  0.1391  0.0055
  584SOL    HW2 2382   2.059   0.474   1.324  0.6041  1.0901  0.1093
  584SOL    HW3 2383   1.960   0.473   1.209 -0.0462  0.3561  0.6728
  584SOL    MW4 2384   2.041   0.483   1.239  0.1709  0.2932  0.1073
  585SOL     OW 2385   2.024   0.715   1.084  0.2634  0.4287 -0.3727
  585SOL    HW2 2386   2.052   0.649   1.148 -1.7588 -0.4230 -0.3459
  585SOL    HW3 2387   2.027   0.670   1.000  0.6764  0.8726 -0.6020
  585SOL    MW4 2388   2.028   0.701   1.082  0.0513  0.3749 -0.3994
  586SOL     OW 2389   1.820   0.911   1.193 -0.5583  0.1180  0.3799
  586SOL    HW2 2390   1.818   0.898   1.287  2.0724  1.5444  0.6934
  586SOL    HW3 2391   1.859   0.830   1.158  1.6646  0.9214  0.8894
  586SOL    MW4 2392   1.825   0.899   1.201  0.0821  0.4122  0.4884
  587SOL     OW 2393   1.795   1.193   1.134  0.3993  0.3629 -0.6626
  587SOL    HW2 2394   1.823   1.105   1.158  1.3016  0.6177 -0.7574
  587SOL    HW3 2395   1.814   1.201   1.041 -1.5349 -0.0279 -1.1186
  587SOL    MW4 2396   1.801   1.183   1.125  0.2633  0.3449 -0.7353
  588SOL     OW 2397   2.016   1.323   1.222  0.0846 -0.5188  0.3044
  588SOL    HW2 2398   2.091   1.279   1.183  0.8492  1.1654 -0.1340
  588SOL    HW3 2399   1.940   1.281   1.181  0.8395 -0.2449 -1.3770
  588SOL    MW4 2400   2.016   1.311   1.212  0.2851 -0.2606  0.0248
  589SOL     OW 2401   2.049   1.567   1.142 -0.4527 -0.0722  0.4252
  589SOL    HW2 2402   2.033   1.474   1.158 -2.1919  0.4048  1.5367
  589SOL    HW3 2403   2.037   1.578   1.048 -1.4634 -0.7398  0.4756
  589SOL    MW4 2404   2.046   1.557   1.132 -0.8156 -0.0973  0.5785
  590SOL     OW 2405   1.786   1.631   1.212  0.1768  0.3016 -0.0433
  590SOL    HW2 2406   1.785   1.725   1.195  0.4602 -0.0037 -1.7839
  590SOL    HW3 2407   1.874   1.603   1.186  0.2000 -0.3900  0.7709
  590SOL    MW4 2408   1.798   1.640   1.206  0.2172  0.1700 -0.1656
  591SOL     OW 2409   1.780   1.915   1.145 -0.4135  0.0567  0.3169
  591SOL    HW2 2410   1.715   1.977   1.177  0.0796  0.1637  1.1145
  591SOL    HW3 2411   1.794   1.940   1.053 -1.1842  0.2879  0.2583
  591SOL    MW4 2412   1.773   1.926   1.137 -0.4501  0.1012  0.4145
  592SOL     OW 2413   2.022   2.058   1.212  0.2426  0.0173 -0.1143
  592SOL    HW2 2414   2.020   2.066   1.308  0.5714 -1.2329  0.0171
  592SOL    HW3 2415   1.945   2.005   1.192 -0.3019  0.9961 -0.6300
  592SOL    MW4 2416   2.012   2.052   1.222  0.2139 -0.0186 -0.1651
  593SOL     OW 2417   2.015   2.319   1.125  0.1267 -0.3772 -0.0483
  593SOL    HW2 2418   2.088   2.360   1.173 -0.0394 -0.6732  0.4672
  593SOL    HW3 2419   2.021   2.226   1.148  1.0531 -0.8029 -1.9273
  593SOL    MW4 2420   2.026   2.312   1.135  0.2270 -0.4723 -0.2282
  594SOL     OW 2421   1.814   2.446   1.266  0.6865  0.1990  0.4222
  594SOL    HW2 2422   1.881   2.395   1.223  0.6989 -0.7853  1.5866
  594SOL    HW3 2423   1.733   2.425   1.218  0.8476 -0.2226  0.3327
  594SOL    MW4 2424   1.812   2.437   1.254  0.7094  0.0134  0.5641
  595SOL     OW 2425   1.789   2.723   1.199 -0.0082 -0.1559 -0.3020
  595SOL    HW2 2426   1.794   2.638   1.244  1.4361 -0.7095 -1.4396
  595SOL    HW3 2427   1.803   2.701   1.107  1.9715  1.4888 -0.4238
  595SOL    MW4 2428   1.791   2.709   1.193  0.4437 -0.0122 -0.4683
  596SOL     OW 2429   2.056   2.819   1.250  0.3829 -0.0639 -0.9160
  596SOL    HW2 2430   2.056   2.908   1.216 -0.6120 -0.7104 -2.6814
  596SOL    HW3 2431   1.964   2.792   1.247  0.7014 -1.2275 -0.6216
  596SOL    MW4 2432   2.044   2.827   1.245  0.2937 -0.3026 -1.1101
  597SOL     OW 2433   2.014   3.077   1.149 -0.3662  0.4791  0.1910
  597SOL    HW2 2434   1.936   3.122   1.182 -0.2323  1.2658 -0.5508
  597SOL    HW3 2435   2.001   3.074   1.054  0.7098  0.9970  0.0219
  597SOL    MW4 2436   2.002   3.082   1.141 -0.2067  0.6514  0.0708
  598SOL     OW 2437   1.802   3.215   1.227  0.2481 -0.0863  0.1329
  598SOL    HW2 2438   1.786   3.217   1.322 -2.0185  0.0637 -0.2252
  598SOL    HW3 2439   1.821   3.306   1.204 -0.3781  0.0729  0.2507
  598SOL    MW4 2440   1.802   3.227   1.237 -0.1335 -0.0455  0.1013
  599SOL     OW 2441   1.831   3.487   1.132 -0.0546  0.2007 -0.0518
  599SOL    HW2 2442   1.910   3.525   1.169  0.1530 -0.4623  0.1870
  599SOL    HW3 2443   1.760   3.522   1.186  0.0392  1.0716 -0.4847
  599SOL    MW4 2444   1.832   3.496   1.144 -0.0148  0.2284 -0.0775
  600SOL     OW 2445   2.079   3.608   1.203 -0.1544 -0.5573  0.2379
  600SOL    HW2 2446   2.089   3.614   1.298 -0.6621 -0.0317  0.2632
  600SOL    HW3 2447   2.131   3.532   1.178  0.6289 -0.2197  0.8349
  600SOL    MW4 2448   2.087   3.599   1.212 -0.1178 -0.4432  0.3201
  601SOL     OW 2449   2.006   3.868   1.090  0.2680 -0.3208  0.1886
  601SOL    HW2 2450   1.932   3.908   1.135  0.4926  0.6150 -0.2488
  601SOL    HW3 2451   2.011   3.779   1.125 -0.4826 -0.0883  0.8981
  601SOL    MW4 2452   1.997   3.861   1.101  0.1986 -0.1667  0.2246
  602SOL     OW 2453   1.806   3.997   1.221 -0.0224  0.1164 -0.0518
  602SOL    HW2 2454   1.802   4.001   1.316 -0.2356  1.0095 -0.0889
  602SOL    HW3 2455   1.719   3.966   1.195 -0.1312  0.3550  0.0245
  602SOL    MW4 2456   1.794   3.994   1.230 -0.0648  0.2656 -0.0466
  603SOL     OW 2457   1.812   4.265   1.134 -0.2593  0.6932  0.4078
  603SOL    HW2 2458   1.810   4.179   1.176 -1.2504  0.5378  0.0573
  603SOL    HW3 2459   1.729   4.306   1.159 -0.7144  0.7312 -1.1225
  603SOL    MW4 2460   1.801   4.259   1.143 -0.4501  0.6776  0.1596
  604SOL     OW 2461   2.035   4.386   1.216 -0.2939  0.0724  0.2216
  604SOL    HW2 2462   2.035   4.385   1.312 -0.0949  2.4848  0.2800
  604SOL    HW3 2463   1.953   4.343   1.191 -0.8890  0.4504  1.5013
  604SOL    MW4 2464   2.024   4.381   1.225 -0.3462  0.4406  0.3979
  605SOL     OW 2465   2.403   4.648   1.109 -0.0121 -0.3708  0.0691
  605SOL    HW2 2466   2.482   4.692   1.139 -1.0745  1.8535 -0.2663
  605SOL    HW3 2467   2.333   4.685   1.163 -1.4688  1.2048 -2.7450
  605SOL    MW4 2468   2.404   4.658   1.120 -0.3445  0.1302 -0.3462
  606SOL     OW 2469   2.187   0.106   1.229 -0.0414  0.1457 -0.1747
  606SOL    HW2 2470   2.192   0.186   1.177  0.8236 -0.5566 -1.1789
  606SOL    HW3 2471   2.102   0.068   1.208 -0.7434  1.1296  0.8124
  606SOL    MW4 2472   2.177   0.112   1.220 -0.0198  0.1829 -0.1769
  607SOL     OW 2473   2.244   0.347   1.100 -0.1617  0.0598 -0.0057
  607SOL    HW2 2474   2.170   0.394   1.137  0.0427  0.7107 -0.4197
  607SOL    HW3 2475   2.243   0.370   1.007  0.4173 -0.1209 -0.0590
  607SOL    MW4 2476   2.234   0.356   1.092 -0.0582  0.1219 -0.0674
  608SOL     OW 2477   2.472   0.497   1.216 -0.0034  0.5345 -0.3805
  608SOL    HW2 2478   2.468   0.499   1.312  0.1178  0.4561 -0.3750
  608SOL    HW3 2479   2.405   0.433   1.191 -1.0302  1.5903 -0.4027
  608SOL    MW4 2480   2.462   0.489   1.226 -0.1230  0.6634 -0.3828
  609SOL     OW 2481   2.416   0.771   1.122 -0.4717  0.0286  0.4640
  609SOL    HW2 2482   2.444   0.687   1.160  0.5287  0.1394 -0.0049
  609SOL    HW3 2483   2.438   0.763   1.029 -0.9882  0.5592  0.2980
  609SOL    MW4 2484   2.423   0.759   1.114 -0.4079  0.1132  0.3803
  610SOL     OW 2485   2.182   0.916   1.178  0.0666  0.1787  0.0535
  610SOL    HW2 2486   2.266   0.871   1.174 -0.5982 -1.1163  0.5464
  610SOL    HW3 2487   2.121   0.856   1.136 -0.7105  0.9253  0.1000
  610SOL    MW4 2488   2.185   0.902   1.172 -0.1237  0.1063  0.1247
  611SOL     OW 2489   2.244   1.168   1.103  0.0866  0.0146  0.4556
  611SOL    HW2 2490   2.322   1.197   1.150 -1.8496  0.4986  3.5454
  611SOL    HW3 2491   2.221   1.084   1.143  0.5667 -1.4601 -2.3139
  611SOL    MW4 2492   2.251   1.161   1.115 -0.1056 -0.1161  0.4979
  612SOL     OW 2493   2.476   1.249   1.236  0.3363  0.1817 -0.4235
  612SOL    HW2 2494   2.548   1.207   1.190 -0.4475  0.7292 -2.2163
  612SOL    HW3 2495   2.492   1.343   1.225  0.6500  0.3457  1.2726
  612SOL    MW4 2496   2.487   1.256   1.229  0.2747  0.2755 -0.4362
  613SOL     OW 2497   2.499   1.526   1.156  0.3751  0.2599 -0.4918
  613SOL    HW2 2498   2.422   1.578   1.177  0.1996 -0.0367 -0.4016
  613SOL    HW3 2499   2.505   1.528   1.060 -1.4932 -2.2048 -0.7256
  613SOL    MW4 2500   2.490   1.533   1.146  0.1054 -0.1043 -0.5107
  614SOL     OW 2501   2.274   1.655   1.258 -0.3244 -0.0499 -0.1132
  614SOL    HW2 2502   2.283   1.742   1.219  0.4077 -0.3324 -0.5907
  614SOL    HW3 2503   2.193   1.620   1.222 -0.5987  0.4173  0.0467
  614SOL    MW4 2504   2.265   1.662   1.249 -0.2637 -0.0254 -0.1552
  615SOL     OW 2505   2.258   1.909   1.134  0.1542 -0.0666 -0.3524
  615SOL    HW2 2506   2.171   1.939   1.159  0.9447  0.6700  1.6544
  615SOL    HW3 2507   2.256   1.905   1.038 -2.6805 -1.9206 -0.2936
  615SOL    MW4 2508   2.246   1.912   1.125 -0.1154 -0.2140 -0.0800
  616SOL     OW 2509   2.512   2.016   1.247 -0.5186  0.1615 -0.1424
  616SOL    HW2 2510   2.572   1.949   1.216  0.7750  1.3542 -0.2297
  616SOL    HW3 2511   2.427   1.990   1.210  0.1822 -0.7592 -1.1518
  616SOL    MW4 2512   2.509   2.003   1.238 -0.2556  0.1974 -0.2872
  617SOL     OW 2513   2.505   2.290   1.157 -0.0228  0.0629  0.3565
  617SOL    HW2 2514   2.533   2.200   1.174 -0.2714 -0.0267  0.2957
  617SOL    HW3 2515   2.489   2.293   1.062  1.1166  0.4887  0.1751
  617SOL    MW4 2516   2.506   2.279   1.147  0.0944  0.1073  0.3247
  618SOL     OW 2517   2.259   2.424   1.244 -0.3704 -0.3289 -0.7125
  618SOL    HW2 2518   2.243   2.424   1.338 -1.4607  1.0861 -0.8788
  618SOL    HW3 2519   2.333   2.364   1.232 -0.7137 -1.1163  0.9456
  618SOL    MW4 2520   2.267   2.416   1.254 -0.5596 -0.2460 -0.5157
  619SOL     OW 2521   2.290   2.687   1.156 -0.4277  0.0758 -0.3311
  619SOL    HW2 2522   2.282   2.597   1.184 -0.1389  0.7748  2.0672
  619SOL    HW3 2523   2.211   2.730   1.189  0.3211  1.1007  0.1343
  619SOL    MW4 2524   2.279   2.681   1.164 -0.2911  0.3033  0.0466
  620SOL     OW 2525   2.498   2.858   1.243  0.0759  0.4063 -0.8780
  620SOL    HW2 2526   2.486   2.860   1.338 -1.0055 -0.5667 -0.9775
  620SOL    HW3 2527   2.432   2.796   1.212  0.0482  1.1395 -2.3286
  620SOL    MW4 2528   2.487   2.850   1.251 -0.0706  0.3743 -1.0824
  621SOL     OW 2529   2.464   3.089   1.103 -0.0585 -0.0432 -0.8821
  621SOL    HW2 2530   2.388   3.139   1.132 -0.9466 -0.3014 -2.6641
  621SOL    HW3 2531   2.473   3.019   1.167  0.0409  1.2669  0.5649
  621SOL    MW4 2532   2.455   3.086   1.115 -0.1626  0.0954 -0.9265
  622SOL     OW 2533   2.261   3.238   1.227 -0.2643  0.1257 -0.4370
  622SOL    HW2 2534   2.258   3.314   1.170 -0.0081 -0.3923 -1.1492
  622SOL    HW3 2535   2.187   3.184   1.200 -1.1558  0.6619  0.8538
  622SOL    MW4 2536   2.251   3.241   1.216 -0.3479  0.1280 -0.3606
  623SOL     OW 2537   2.318   3.443   1.056 -0.3316  0.1927  0.0181
  623SOL    HW2 2538   2.361   3.519   1.096  1.2892 -0.4476 -0.4550
  623SOL    HW3 2539   2.312   3.466   0.963 -0.3369 -0.0223 -0.0353
  623SOL    MW4 2540   2.323   3.456   1.049 -0.1187  0.0796 -0.0514
  624SOL     OW 2541   2.457   3.639   1.189  0.1789  0.5104  0.4145
  624SOL    HW2 2542   2.459   3.634   1.285  0.1343  0.8789  0.4365
  624SOL    HW3 2543   2.456   3.733   1.170  0.1583  0.4383  0.0524
  624SOL    MW4 2544   2.457   3.651   1.199  0.1705  0.5493  0.3697
  625SOL     OW 2545   2.516   3.886   1.091  0.2132 -0.2312  0.4336
  625SOL    HW2 2546   2.433   3.928   1.113  0.2459  0.0544  0.0156
  625SOL    HW3 2547   2.520   3.890   0.996  0.2258 -1.1684  0.3863
  625SOL    MW4 2548   2.505   3.892   1.082  0.2191 -0.3173  0.3722
  626SOL     OW 2549   2.268   3.963   1.187 -0.4338  0.1743  0.0079
  626SOL    HW2 2550   2.247   4.050   1.154 -0.8572 -0.2454 -0.8550
  626SOL    HW3 2551   2.190   3.911   1.167  0.2185 -0.6507 -0.4035
  626SOL    MW4 2552   2.255   3.968   1.180 -0.4034  0.0103 -0.1602
  627SOL     OW 2553   2.236   4.239   1.085  0.3562  0.0788  0.0826
  627SOL    HW2 2554   2.162   4.288   1.123 -0.6853 -0.4680 -1.2089
  627SOL    HW3 2555   2.221   4.243   0.991  3.0836  1.6847 -0.3383
  627SOL    MW4 2556   2.224   4.246   1.078  0.5786  0.2184 -0.1433
  628SOL     OW 2557   2.459   4.394   1.193 -0.0274  0.4220  0.2328
  628SOL    HW2 2558   2.404   4.325   1.155 -0.4786  0.5435  0.6701
  628SOL    HW3 2559   2.432   4.474   1.149  0.3614  0.3566 -0.1330
  628SOL    MW4 2560   2.448   4.395   1.182 -0.0355  0.4287  0.2421
  629SOL     OW 2561   2.930   4.655   1.120 -0.1935  0.2500  0.5929
  629SOL    HW2 2562   2.937   4.569   1.162  0.6323 -0.1339 -0.3066
  629SOL    HW3 2563   2.937   4.636   1.026 -2.6390  1.0179  0.2233
  629SOL    MW4 2564   2.932   4.641   1.113 -0.4072  0.3009  0.4253
  630SOL     OW 2565   2.668   0.085   1.179 -1.0518 -0.1522  0.4255
  630SOL    HW2 2566   2.676   0.096   1.274 -1.9863 -0.7548  0.5747
  630SOL    HW3 2567   2.755   0.057   1.151 -0.4648  1.0989  0.9442
  630SOL    MW4 2568   2.681   0.083   1.188 -1.0977 -0.0666  0.5136
  631SOL     OW 2569   2.686   0.365   1.117  0.0147 -0.4798 -0.2135
  631SOL    HW2 2570   2.676   0.279   1.158  0.1710  0.2383  1.3359
  631SOL    HW3 2571   2.607   0.413   1.141  0.3367  0.1181 -0.3265
  631SOL    MW4 2572   2.674   0.360   1.125  0.0777 -0.3062 -0.0240
  632SOL     OW 2573   2.897   0.483   1.245  0.2188  0.6549 -0.0083
  632SOL    HW2 2574   2.901   0.538   1.167 -0.5008  0.8817  0.1099
  632SOL    HW3 2575   2.821   0.426   1.231  0.6594  0.0270  0.0944
  632SOL    MW4 2576   2.888   0.483   1.233  0.1819  0.6020  0.0209
  633SOL     OW 2577   2.910   0.717   1.077 -0.4948  0.3507 -0.2822
  633SOL    HW2 2578   2.981   0.764   1.122 -0.5763 -0.2483  0.4657
  633SOL    HW3 2579   2.833   0.732   1.131 -0.7187  0.1149 -0.5353
  633SOL    MW4 2580   2.909   0.725   1.090 -0.5350  0.2405 -0.2167
  634SOL     OW 2581   2.685   0.830   1.220 -0.0170  0.0645  0.0497
  634SOL    HW2 2582   2.694   0.920   1.187 -0.3362  0.6411  1.5109
  634SOL    HW3 2583   2.603   0.799   1.181  0.3528  0.2295 -0.8677
  634SOL    MW4 2584   2.675   0.838   1.210 -0.0103  0.1623  0.1215
  635SOL     OW 2585   2.682   1.102   1.143  0.0480  0.5847 -0.1326
  635SOL    HW2 2586   2.748   1.145   1.198  0.5181  1.0190 -1.0233
  635SOL    HW3 2587   2.711   1.118   1.053 -1.2888  0.8190 -0.5401
  635SOL    MW4 2588   2.694   1.110   1.138 -0.0663  0.6728 -0.3039
  636SOL     OW 2589   2.910   1.229   1.255 -0.0700  0.0711 -0.2366
  636SOL    HW2 2590   2.936   1.244   1.346  0.1268  1.0892 -0.4560
  636SOL    HW3 2591   2.920   1.314   1.213  2.1509 -0.9281 -1.8029
  636SOL    MW4 2592   2.915   1.242   1.261  0.2491  0.0736 -0.4721
  637SOL     OW 2593   2.941   1.468   1.159  1.2213 -0.6274  0.1122
  637SOL    HW2 2594   3.009   1.530   1.185  0.1359  1.0333 -0.8780
  637SOL    HW3 2595   2.951   1.461   1.064 -0.2132 -0.0579 -0.0922
  637SOL    MW4 2596   2.951   1.475   1.150  0.8888 -0.3332 -0.0453
  638SOL     OW 2597   2.734   1.638   1.252 -0.2879 -0.2089 -0.5771
  638SOL    HW2 2598   2.804   1.585   1.214 -0.6761 -0.8634 -0.3876
  638SOL    HW3 2599   2.653   1.591   1.229 -0.5480 -0.4677  0.8182
  638SOL    MW4 2600   2.732   1.625   1.244 -0.3734 -0.3294 -0.3680
  639SOL     OW 2601   2.717   1.880   1.120 -0.0523  0.2258 -0.1944
  639SOL    HW2 2602   2.782   1.940   1.156  0.2186 -0.6209  0.7379
  639SOL    HW3 2603   2.727   1.800   1.171 -1.3086 -0.1687 -0.5524
  639SOL    MW4 2604   2.727   1.877   1.132 -0.1822  0.0620 -0.1187
  640SOL     OW 2605   2.914   2.041   1.226 -0.2973 -0.3576  0.2357
  640SOL    HW2 2606   2.921   2.039   1.321  0.0885  2.5884  0.3194
  640SOL    HW3 2607   2.908   2.134   1.204  1.4198 -0.8802 -2.7595
  640SOL    MW4 2608   2.914   2.053   1.236 -0.0200 -0.0379 -0.1484
  641SOL     OW 2609   2.905   2.319   1.147  0.1257  0.0584  0.1376
  641SOL    HW2 2610   2.986   2.363   1.172  0.1064  1.0256 -1.4551
  641SOL    HW3 2611   2.836   2.381   1.169  0.0226  0.3944 -1.0954
  641SOL    MW4 2612   2.907   2.333   1.153  0.1097  0.2306 -0.2350
  642SOL     OW 2613   2.692   2.478   1.201  0.1308 -0.3862  0.2814
  642SOL    HW2 2614   2.692   2.475   1.296  1.8811 -1.1748  0.2905
  642SOL    HW3 2615   2.626   2.415   1.174  0.2646 -0.8165  0.9592
  642SOL    MW4 2616   2.684   2.470   1.210  0.3791 -0.5469  0.3719
  643SOL     OW 2617   2.712   2.734   1.099  0.1652  0.0241  0.4079
  643SOL    HW2 2618   2.710   2.648   1.140 -1.7153 -0.5783 -0.9420
  643SOL    HW3 2619   2.641   2.783   1.142  0.5222  0.5577  0.4021
  643SOL    MW4 2620   2.702   2.729   1.110 -0.0358  0.0148  0.2290
  644SOL     OW 2621   2.930   2.831   1.243 -0.2399 -0.0266  0.1828
  644SOL    HW2 2622   2.919   2.818   1.337 -1.1688  1.2206  0.2529
  644SOL    HW3 2623   2.850   2.797   1.204  1.3953 -3.3900 -0.4526
  644SOL    MW4 2624   2.918   2.824   1.250 -0.1466 -0.3057  0.1081
  645SOL     OW 2625   2.914   3.094   1.183  0.2216 -0.1005 -0.1711
  645SOL    HW2 2626   2.919   3.000   1.196  1.9502  0.0445  0.2204
  645SOL    HW3 2627   2.928   3.106   1.089  2.0315 -0.0925  0.0905
  645SOL    MW4 2628   2.916   3.084   1.173  0.6883 -0.0806 -0.0849
  646SOL     OW 2629   2.666   3.255   1.224  0.1862  0.1496 -0.2327
  646SOL    HW2 2630   2.742   3.201   1.204  0.6139  1.2751 -1.7352
  646SOL    HW3 2631   2.594   3.216   1.174 -0.2491 -0.8813  1.1445
  646SOL    MW4 2632   2.666   3.243   1.215  0.1853  0.1624 -0.2493
  647SOL     OW 2633   2.656   3.494   1.086 -0.3861 -0.1281  0.0080
  647SOL    HW2 2634   2.650   3.427   1.153  0.3189  0.9319  1.1555
  647SOL    HW3 2635   2.593   3.561   1.112  1.7405  1.5322  1.0987
  647SOL    MW4 2636   2.647   3.494   1.098 -0.0129  0.2306  0.3033
  648SOL     OW 2637   2.901   3.571   1.216  0.2116  0.1864  0.0765
  648SOL    HW2 2638   2.979   3.527   1.184  0.5893  1.3564 -0.5986
  648SOL    HW3 2639   2.830   3.537   1.162  0.2947 -0.5860  0.4387
  648SOL    MW4 2640   2.902   3.561   1.205  0.2725  0.2389  0.0353
  649SOL     OW 2641   2.941   3.839   1.127  0.4716  0.5216  0.0393
  649SOL    HW2 2642   3.028   3.867   1.153  0.6441  1.3151 -1.3063
  649SOL    HW3 2643   2.938   3.746   1.146  1.7767  0.3960 -0.3197
  649SOL    MW4 2644   2.952   3.830   1.133  0.6669  0.6099 -0.1856
  650SOL     OW 2645   2.734   4.007   1.208 -0.1270 -0.2035 -0.3644
  650SOL    HW2 2646   2.806   3.953   1.176 -0.0716 -0.9271  0.9120
  650SOL    HW3 2647   2.656   3.969   1.167  0.1030 -0.1112 -0.8889
  650SOL    MW4 2648   2.733   3.995   1.199 -0.0894 -0.2866 -0.2652
  651SOL     OW 2649   2.713   4.279   1.126  0.1143 -0.1471 -0.0384
  651SOL    HW2 2650   2.707   4.189   1.156 -0.7418 -0.8856 -2.3475
  651SOL    HW3 2651   2.627   4.316   1.145 -0.8656 -0.9896 -2.6550
  651SOL    MW4 2652   2.701   4.272   1.132 -0.1278 -0.3557 -0.6883
  652SOL     OW 2653   2.940   4.391   1.217 -0.2163 -0.2107 -0.2975
  652SOL    HW2 2654   3.009   4.335   1.180 -0.3421 -0.9115  0.5346
  652SOL    HW3 2655   2.859   4.353   1.184 -0.3750 -1.3276  1.3468
  652SOL    MW4 2656   2.939   4.379   1.208 -0.2539 -0.4506  0.0293
  653SOL     OW 2657   3.405   4.664   1.131 -0.3718  0.0801  0.3100
  653SOL    HW2 2658   3.472   4.721   1.169 -0.6986  0.0236  0.9822
  653SOL    HW3 2659   3.322   4.704   1.158 -0.6330  0.7765 -1.4281
  653SOL    MW4 2660   3.403   4.677   1.139 -0.4494  0.1645  0.1694
  654SOL     OW 2661   3.165   0.115   1.218 -0.0061 -0.1664 -0.3666
  654SOL    HW2 2662   3.142   0.130   1.310  0.0206 -0.9433 -0.2295
  654SOL    HW3 2663   3.105   0.045   1.190  1.6656 -1.6798 -0.2242
  654SOL    MW4 2664   3.154   0.108   1.227  0.2182 -0.4686 -0.3297
  655SOL     OW 2665   3.126   0.369   1.119  0.5219 -0.3824  0.2905
  655SOL    HW2 2666   3.149   0.285   1.160  2.4699  0.5246  1.1347
  655SOL    HW3 2667   3.047   0.397   1.166  0.5940 -1.1350  0.8843
  655SOL    MW4 2668   3.119   0.361   1.131  0.7885 -0.3620  0.4803
  656SOL     OW 2669   3.335   0.496   1.243 -0.2855  0.1692  0.1817
  656SOL    HW2 2670   3.330   0.584   1.204  0.2303 -0.5224 -1.5025
  656SOL    HW3 2671   3.262   0.449   1.202 -0.3789 -0.2807  0.8649
  656SOL    MW4 2672   3.324   0.502   1.232 -0.2298  0.0186  0.0496
  657SOL     OW 2673   3.356   0.756   1.121  0.2472  0.5634  0.0841
  657SOL    HW2 2674   3.277   0.798   1.154 -0.5266  0.2292 -1.3114
  657SOL    HW3 2675   3.359   0.781   1.029  1.5145  0.1800  0.0116
  657SOL    MW4 2676   3.346   0.765   1.113  0.3123  0.4687 -0.1096
  658SOL     OW 2677   3.131   0.882   1.200  0.2249  0.0733 -0.2581
  658SOL    HW2 2678   3.119   0.885   1.295  0.2767 -0.0328 -0.2479
  658SOL    HW3 2679   3.124   0.973   1.172 -0.9010 -0.0111 -0.2851
  658SOL    MW4 2680   3.128   0.894   1.209  0.0832  0.0482 -0.2602
  659SOL     OW 2681   3.153   1.131   1.100  0.2991 -0.2660 -0.0133
  659SOL    HW2 2682   3.222   1.169   1.153 -0.3992 -2.1454  2.3529
  659SOL    HW3 2683   3.072   1.156   1.144 -0.5848  1.8919 -2.7432
  659SOL    MW4 2684   3.152   1.139   1.113  0.0904 -0.2292 -0.0614
  660SOL     OW 2685   3.373   1.245   1.237 -0.1583  0.2774 -0.2145
  660SOL    HW2 2686   3.352   1.246   1.331  0.3726 -1.7017 -0.0635
  660SOL    HW3 2687   3.382   1.338   1.214  1.0811  0.7401  1.9998
  660SOL    MW4 2688   3.371   1.257   1.246  0.0753  0.0772  0.0976
  661SOL     OW 2689   3.380   1.515   1.150  0.2055 -0.1734 -0.7372
  661SOL    HW2 2690   3.445   1.551   1.211  1.7646 -0.3181 -2.2734
  661SOL    HW3 2691   3.300   1.563   1.170  1.2270  1.2669  0.0170
  661SOL    MW4 2692   3.378   1.526   1.160  0.5462 -0.0023 -0.8403
  662SOL     OW 2693   3.143   1.659   1.219 -0.2604 -0.4969 -0.1460
  662SOL    HW2 2694   3.140   1.663   1.315  1.5947 -0.3383 -0.0880
  662SOL    HW3 2695   3.153   1.750   1.191  0.2137 -0.6399 -0.4490
  662SOL    MW4 2696   3.144   1.672   1.228  0.0465 -0.4950 -0.1783
  663SOL     OW 2697   3.157   1.930   1.137  0.0329 -0.0127 -0.0554
  663SOL    HW2 2698   3.225   1.972   1.190  0.6016  0.0207 -0.8063
  663SOL    HW3 2699   3.075   1.965   1.171  0.3443 -0.7218  1.4481
  663SOL    MW4 2700   3.156   1.940   1.148  0.1488 -0.1019  0.0439
  664SOL     OW 2701   3.348   2.051   1.271  0.1887  0.1853 -0.0700
  664SOL    HW2 2702   3.434   2.014   1.251 -0.2658 -0.5984 -0.5920
  664SOL    HW3 2703   3.352   2.140   1.237  1.0444  0.3931  0.5572
  664SOL    MW4 2704   3.360   2.058   1.264  0.2415  0.1092 -0.0561
  665SOL     OW 2705   3.368   2.326   1.137  0.1979  0.1178 -0.2210
  665SOL    HW2 2706   3.437   2.389   1.154 -0.2919  0.9134 -1.1325
  665SOL    HW3 2707   3.287   2.375   1.151 -0.1922 -0.1092 -1.6256
  665SOL    MW4 2708   3.366   2.340   1.141  0.0820  0.1931 -0.5267
  666SOL     OW 2709   3.145   2.448   1.217 -0.5226  0.3854 -0.7021
  666SOL    HW2 2710   3.140   2.459   1.312  1.1864 -0.4226 -0.5000
  666SOL    HW3 2711   3.129   2.536   1.182 -1.3339  0.6560  0.3080
  666SOL    MW4 2712   3.142   2.461   1.225 -0.4041  0.3142 -0.5420
  667SOL     OW 2713   3.134   2.698   1.100  0.1692  0.2979 -0.0603
  667SOL    HW2 2714   3.068   2.753   1.142 -0.6227 -0.2219 -0.6081
  667SOL    HW3 2715   3.094   2.671   1.018  1.4681  0.8062 -0.8756
  667SOL    MW4 2716   3.120   2.702   1.095  0.2360  0.2964 -0.2402
  668SOL     OW 2717   3.368   2.855   1.221 -0.3044  0.1823  0.1649
  668SOL    HW2 2718   3.377   2.949   1.211  1.7894 -0.1993 -1.9659
  668SOL    HW3 2719   3.288   2.833   1.174 -0.9442  0.9093  0.8983
  668SOL    MW4 2720   3.359   2.864   1.214 -0.1128  0.2282 -0.0196
  669SOL     OW 2721   3.385   3.114   1.132  0.1878 -0.2395  0.4044
  669SOL    HW2 2722   3.461   3.158   1.170 -0.3156  0.1879  0.9205
  669SOL    HW3 2723   3.310   3.150   1.179 -0.4811  0.5812 -1.2276
  669SOL    MW4 2724   3.385   3.124   1.143  0.0331 -0.0749  0.2574
  670SOL     OW 2725   3.154   3.200   1.279  0.0816  0.3910 -0.1143
  670SOL    HW2 2726   3.155   3.294   1.258  0.8460  0.7257  1.3519
  670SOL    HW3 2727   3.066   3.171   1.255  0.6096  0.9374 -2.8804
  670SOL    MW4 2728   3.143   3.209   1.273  0.2522  0.5074 -0.2859
  671SOL     OW 2729   3.154   3.461   1.153 -0.0467 -0.2657 -0.4157
  671SOL    HW2 2730   3.234   3.507   1.179 -0.4517  0.9294 -1.2588
  671SOL    HW3 2731   3.147   3.476   1.058 -0.8419 -1.0207 -0.4804
  671SOL    MW4 2732   3.164   3.469   1.144 -0.2050 -0.2077 -0.5354
  672SOL     OW 2733   3.385   3.591   1.217 -0.1402 -0.2286 -0.2293
  672SOL    HW2 2734   3.391   3.605   1.311 -1.3263  0.5668 -0.2656
  672SOL    HW3 2735   3.469   3.551   1.193  0.5599  0.5028  0.9865
  672SOL    MW4 2736   3.397   3.588   1.226 -0.2043 -0.0272 -0.0737
  673SOL     OW 2737   3.424   3.858   1.107  0.3890 -0.3249 -0.1775
  673SOL    HW2 2738   3.343   3.902   1.130 -0.5790 -1.2081 -1.7260
  673SOL    HW3 2739   3.422   3.776   1.157  0.7941  0.1071  0.5349
  673SOL    MW4 2740   3.413   3.853   1.116  0.3147 -0.3846 -0.2878
  674SOL     OW 2741   3.185   3.967   1.189  0.4149 -0.0628  0.3705
  674SOL    HW2 2742   3.196   3.970   1.284 -0.1438 -0.7434  0.4597
  674SOL    HW3 2743   3.159   4.055   1.164 -0.3489 -0.1219  0.9641
  674SOL    MW4 2744   3.183   3.979   1.198  0.2403 -0.1605  0.4607
  675SOL     OW 2745   3.141   4.240   1.113 -0.0010  0.0905 -0.0767
  675SOL    HW2 2746   3.209   4.296   1.150  0.0611  0.5159 -0.8220
  675SOL    HW3 2747   3.160   4.238   1.019 -0.1066 -1.0447 -0.0772
  675SOL    MW4 2748   3.152   4.247   1.105 -0.0069 -0.0029 -0.1750
  676SOL     OW 2749   3.369   4.397   1.230 -0.3030 -0.0616  0.3677
  676SOL    HW2 2750   3.446   4.347   1.202 -0.3523 -0.7217  1.3723
  676SOL    HW3 2751   3.385   4.486   1.198 -1.0479 -1.0734 -2.9725
  676SOL    MW4 2752   3.381   4.402   1.222 -0.4077 -0.2828  0.0595
  677SOL     OW 2753   3.842   0.023   1.158  0.4292  0.2221  0.5028
  677SOL    HW2 2754   3.818  -0.068   1.176  0.0110  0.2279 -0.0048
  677SOL    HW3 2755   3.847   0.028   1.063  2.6261  0.1894  0.5978
  677SOL    MW4 2756   3.840   0.012   1.148  0.6638  0.2184  0.4483
  678SOL     OW 2757   3.591   0.135   1.262 -1.0000 -0.2323  0.1806
  678SOL    HW2 2758   3.574   0.226   1.237 -0.9968  0.2526  1.8926
  678SOL    HW3 2759   3.682   0.120   1.237 -0.8585  0.3825  0.3019
  678SOL    MW4 2760   3.601   0.145   1.255 -0.9811 -0.0872  0.4226
  679SOL     OW 2761   3.553   0.388   1.113 -0.5701  0.6217 -0.1076
  679SOL    HW2 2762   3.626   0.440   1.148 -0.5553  1.9657 -2.0362
  679SOL    HW3 2763   3.478   0.415   1.166  0.3534 -0.9929  2.0928
  679SOL    MW4 2764   3.553   0.399   1.124 -0.4463  0.5860 -0.0719
  680SOL     OW 2765   3.788   0.482   1.234 -0.6078  0.3122 -0.0337
  680SOL    HW2 2766   3.867   0.431   1.217 -0.8163 -0.0210 -0.0115
  680SOL    HW3 2767   3.803   0.566   1.191  0.4613  0.8692  1.4034
  680SOL    MW4 2768   3.800   0.486   1.226 -0.4945  0.3417  0.1588
  681SOL     OW 2769   3.792   0.719   1.110  0.2530  0.0223  0.0129
  681SOL    HW2 2770   3.867   0.767   1.145  1.1177 -1.5425  0.3314
  681SOL    HW3 2771   3.716   0.765   1.146  1.0838  0.3164  1.4267
  681SOL    MW4 2772   3.792   0.731   1.119  0.4768 -0.1454  0.2415
  682SOL     OW 2773   3.586   0.867   1.220  0.1841  0.4388 -0.1368
  682SOL    HW2 2774   3.585   0.949   1.171  0.4297 -0.3359 -1.4780
  682SOL    HW3 2775   3.501   0.827   1.201 -0.5510  1.0806  1.7450
  682SOL    MW4 2776   3.574   0.872   1.211  0.1197  0.4212 -0.0656
  683SOL     OW 2777   3.583   1.115   1.076 -0.2555  0.0225  0.0862
  683SOL    HW2 2778   3.669   1.151   1.097 -0.0855  0.3043 -1.0756
  683SOL    HW3 2779   3.521   1.171   1.122  0.0268  1.5427 -1.3845
  683SOL    MW4 2780   3.586   1.127   1.085 -0.1960  0.2602 -0.2613
  684SOL     OW 2781   3.780   1.251   1.206 -0.6500 -0.7339 -0.3481
  684SOL    HW2 2782   3.770   1.266   1.300 -0.7633 -0.3823 -0.4167
  684SOL    HW3 2783   3.795   1.338   1.169  1.5075 -1.0993 -0.3938
  684SOL    MW4 2784   3.781   1.265   1.213 -0.3803 -0.7358 -0.3633
  685SOL     OW 2785   3.792   1.547   1.148 -0.4689  0.1650 -0.1359
  685SOL    HW2 2786   3.880   1.570   1.178 -0.6649  0.4201  0.2412
  685SOL    HW3 2787   3.796   1.554   1.053 -0.0859  0.1940 -0.1163
  685SOL    MW4 2788   3.804   1.551   1.139 -0.4442  0.2025 -0.0833
  686SOL     OW 2789   3.566   1.660   1.272 -0.7692  0.3798 -0.6650
  686SOL    HW2 2790   3.554   1.742   1.223 -0.1376  0.6157 -0.4256
  686SOL    HW3 2791   3.641   1.618   1.229 -1.5216 -0.4110 -1.2368
  686SOL    MW4 2792   3.574   1.665   1.260 -0.7851  0.3065 -0.7088
  687SOL     OW 2793   3.569   1.914   1.162  0.1258 -0.0683  0.3435
  687SOL    HW2 2794   3.649   1.955   1.195  1.0283 -0.8073 -0.8962
  687SOL    HW3 2795   3.586   1.902   1.068 -1.9097  0.8840 -0.1737
  687SOL    MW4 2796   3.582   1.918   1.154 -0.0234 -0.0402  0.1117
  688SOL     OW 2797   3.818   1.998   1.271 -0.1692 -0.8189 -0.4194
  688SOL    HW2 2798   3.821   2.008   1.366  1.1401  1.2375 -0.6485
  688SOL    HW3 2799   3.905   1.965   1.247 -0.2281 -0.5837 -0.9790
  688SOL    MW4 2800   3.830   1.995   1.280 -0.0041 -0.5165 -0.5234
  689SOL     OW 2801   3.789   2.277   1.160  0.3302 -0.1441 -0.0717
  689SOL    HW2 2802   3.868   2.330   1.175  0.7241 -0.8930  0.5285
  689SOL    HW3 2803   3.797   2.204   1.220  0.0400 -1.1713 -1.2551
  689SOL    MW4 2804   3.801   2.275   1.170  0.3438 -0.3784 -0.1487
  690SOL     OW 2805   3.589   2.461   1.233  0.0697 -0.0102  0.2246
  690SOL    HW2 2806   3.602   2.442   1.326  0.1352 -1.4454 -0.0576
  690SOL    HW3 2807   3.655   2.407   1.188  0.5109  1.2073 -0.6199
  690SOL    MW4 2808   3.599   2.451   1.239  0.1366 -0.0389  0.0761
  691SOL     OW 2809   3.605   2.726   1.153  0.0471  0.7454  0.0405
  691SOL    HW2 2810   3.602   2.637   1.189  0.6311  0.8897  0.4587
  691SOL    HW3 2811   3.523   2.766   1.181 -0.4885  0.1390 -0.6670
  691SOL    MW4 2812   3.594   2.720   1.161  0.0536  0.6845  0.0024
  692SOL     OW 2813   3.862   2.797   1.226 -0.1026 -0.4370 -0.3738
  692SOL    HW2 2814   3.853   2.805   1.321 -0.5640 -3.0453 -0.1426
  692SOL    HW3 2815   3.777   2.763   1.197  0.0875  0.1913 -1.7081
  692SOL    MW4 2816   3.850   2.793   1.235 -0.1385 -0.6983 -0.5194
  693SOL     OW 2817   3.808   3.063   1.158 -0.7060 -0.3479 -0.1428
  693SOL    HW2 2818   3.828   2.972   1.180 -0.7908 -0.6019 -1.0973
  693SOL    HW3 2819   3.816   3.067   1.063 -2.4798  0.2272 -0.2771
  693SOL    MW4 2820   3.812   3.052   1.149 -0.9513 -0.3057 -0.2865
  694SOL     OW 2821   3.611   3.212   1.266 -0.4196  0.1266 -0.4850
  694SOL    HW2 2822   3.620   3.301   1.232  0.9708  0.3472  0.4175
  694SOL    HW3 2823   3.690   3.167   1.236 -0.6115 -0.5083 -0.0454
  694SOL    MW4 2824   3.623   3.218   1.258 -0.2613  0.0720 -0.3079
  695SOL     OW 2825   3.620   3.465   1.140  0.0180  0.3858 -0.3717
  695SOL    HW2 2826   3.699   3.517   1.151  0.1272  0.1656 -0.1113
  695SOL    HW3 2827   3.602   3.467   1.046  0.1875  0.6465 -0.3976
  695SOL    MW4 2828   3.628   3.472   1.129  0.0548  0.3912 -0.3408
  696SOL     OW 2829   3.859   3.612   1.180  0.2719  0.1464  0.7102
  696SOL    HW2 2830   3.852   3.617   1.275 -0.1623  1.3912  0.6150
  696SOL    HW3 2831   3.873   3.702   1.151 -0.1592 -0.1392 -0.4492
  696SOL    MW4 2832   3.860   3.624   1.188  0.1576  0.2730  0.5447
  697SOL     OW 2833   3.867   3.897   1.136  0.3633 -0.0556 -0.1625
  697SOL    HW2 2834   3.784   3.935   1.165  0.2046 -1.1917  0.8977
  697SOL    HW3 2835   3.864   3.904   1.040 -0.8293  0.1645 -0.1180
  697SOL    MW4 2836   3.856   3.903   1.127  0.1850 -0.1762 -0.0166
  698SOL     OW 2837   3.633   4.007   1.209  0.3799  0.3593  0.2884
  698SOL    HW2 2838   3.610   4.005   1.302  1.3348  0.0250  0.5199
  698SOL    HW3 2839   3.560   3.961   1.166  0.6758 -0.8359  1.0359
  698SOL    MW4 2840   3.620   4.001   1.215  0.5448  0.1569  0.4176
  699SOL     OW 2841   3.589   4.264   1.120 -0.3551 -0.0594  0.1436
  699SOL    HW2 2842   3.608   4.176   1.152  0.0639  0.0380  0.1647
  699SOL    HW3 2843   3.619   4.263   1.029  0.4731  0.3338  0.4086
  699SOL    MW4 2844   3.595   4.252   1.112 -0.1905  0.0052  0.1814
  700SOL     OW 2845   3.799   4.416   1.196  0.5154 -0.0811 -0.0307
  700SOL    HW2 2846   3.816   4.385   1.285  0.0139  1.4541  0.6235
  700SOL    HW3 2847   3.722   4.368   1.168 -0.5411  0.8741  1.1461
  700SOL    MW4 2848   3.791   4.406   1.204  0.3099  0.2470  0.2109
  701SOL     OW 2849   4.268   4.644   1.114 -0.5373  0.3213 -0.9180
  701SOL    HW2 2850   4.273   4.552   1.141 -1.4895  0.8236  1.0559
  701SOL    HW3 2851   4.195   4.680   1.164  0.0868  2.2601 -1.3551
  701SOL    MW4 2852   4.259   4.636   1.124 -0.5803  0.6433 -0.7153
  702SOL     OW 2853   4.077   0.120   1.274  0.5315 -0.0622 -0.0944
  702SOL    HW2 2854   4.068   0.110   1.368  0.2846 -0.5565 -0.1722
  702SOL    HW3 2855   3.998   0.081   1.237 -0.2154  1.7049 -0.4184
  702SOL    MW4 2856   4.065   0.114   1.281  0.4010  0.1057 -0.1475
  703SOL     OW 2857   4.025   0.377   1.143 -0.2480  0.0660  0.3822
  703SOL    HW2 2858   4.064   0.297   1.178  0.1401 -0.0688 -0.3615
  703SOL    HW3 2859   4.028   0.366   1.048  0.1170  1.1126  0.2646
  703SOL    MW4 2860   4.030   0.365   1.135 -0.1483  0.1863  0.2686
  704SOL     OW 2861   4.252   0.506   1.234  0.3709  0.1823 -0.1479
  704SOL    HW2 2862   4.244   0.515   1.329  0.0188  0.1473 -0.1750
  704SOL    HW3 2863   4.168   0.471   1.206  0.5477 -0.0011 -0.4495
  704SOL    MW4 2864   4.240   0.503   1.243  0.3471  0.1535 -0.1913
  705SOL     OW 2865   4.224   0.783   1.141 -0.1720  0.0843  0.2391
  705SOL    HW2 2866   4.223   0.688   1.155 -1.0215  0.1924  0.9600
  705SOL    HW3 2867   4.237   0.793   1.047  0.9147 -0.7305  0.2856
  705SOL    MW4 2868   4.226   0.772   1.131 -0.1411 -0.0089  0.3405
  706SOL     OW 2869   3.986   0.857   1.233 -0.0515 -0.3014 -0.3435
  706SOL    HW2 2870   4.006   0.880   1.324  0.7072  0.1729 -0.6202
  706SOL    HW3 2871   4.070   0.827   1.198  0.2873  2.0722 -1.6474
  706SOL    MW4 2872   4.000   0.856   1.240  0.0932  0.0744 -0.5519
  707SOL     OW 2873   4.021   1.133   1.151  0.0186 -0.0964  0.5931
  707SOL    HW2 2874   4.010   1.038   1.163 -0.1826 -0.4266 -2.0094
  707SOL    HW3 2875   3.938   1.170   1.181 -0.7969 -0.9477 -0.5869
  707SOL    MW4 2876   4.009   1.125   1.157 -0.1154 -0.2521  0.0941
  708SOL     OW 2877   4.262   1.253   1.180  0.0773 -0.5871  0.6031
  708SOL    HW2 2878   4.267   1.263   1.275  0.1655 -0.8450  0.6265
  708SOL    HW3 2879   4.175   1.217   1.163  0.0633 -0.5451  0.5882
  708SOL    MW4 2880   4.251   1.249   1.190  0.0873 -0.6156  0.6043
  709SOL     OW 2881   4.279   1.538   1.079 -0.0711 -0.2190  0.8812
  709SOL    HW2 2882   4.255   1.452   1.114  0.5901 -0.2393  1.2946
  709SOL    HW3 2883   4.345   1.571   1.141  1.8873 -0.6900 -0.9128
  709SOL    MW4 2884   4.285   1.531   1.092  0.2747 -0.2838  0.6992
  710SOL     OW 2885   4.045   1.610   1.213 -0.0366 -0.2345 -0.1904
  710SOL    HW2 2886   4.070   1.604   1.306  0.5700  0.4527 -0.2960
  710SOL    HW3 2887   4.129   1.610   1.166 -0.3251 -0.1669 -0.7082
  710SOL    MW4 2888   4.059   1.609   1.219  0.0052 -0.1351 -0.2726
  711SOL     OW 2889   4.039   1.901   1.154  0.7559 -0.2035 -0.1668
  711SOL    HW2 2890   4.027   1.806   1.165  0.4704 -0.1321  0.1271
  711SOL    HW3 2891   4.036   1.915   1.059  0.9839 -0.5134 -0.2218
  711SOL    MW4 2892   4.037   1.890   1.143  0.7482 -0.2350 -0.1353
  712SOL     OW 2893   4.267   2.072   1.235  0.5860 -0.0174  0.3647
  712SOL    HW2 2894   4.266   2.153   1.184  1.8253 -1.4703 -2.0620
  712SOL    HW3 2895   4.185   2.029   1.214  0.8241 -0.3310  0.0755
  712SOL    MW4 2896   4.256   2.077   1.226  0.7811 -0.2503  0.0064
  713SOL     OW 2897   4.266   2.318   1.108  0.3766 -0.0161  0.0595
  713SOL    HW2 2898   4.181   2.359   1.120 -0.2807 -1.4433  0.4060
  713SOL    HW3 2899   4.279   2.315   1.013  0.2443  0.5904  0.0224
  713SOL    MW4 2900   4.257   2.323   1.097  0.2728 -0.1245  0.1003
  714SOL     OW 2901   4.024   2.438   1.185  0.0868  0.3932 -0.5774
  714SOL    HW2 2902   4.042   2.448   1.279 -0.8191 -0.5589 -0.3024
  714SOL    HW3 2903   4.039   2.525   1.149 -1.8217  1.3381  0.8249
  714SOL    MW4 2904   4.029   2.451   1.193 -0.2847  0.3924 -0.3562
  715SOL     OW 2905   4.076   2.703   1.087 -0.1444 -0.0642 -0.1950
  715SOL    HW2 2906   4.003   2.744   1.134 -0.0644 -0.1079 -0.0331
  715SOL    HW3 2907   4.060   2.724   0.995  0.0311  0.5361 -0.0883
  715SOL    MW4 2908   4.064   2.711   1.081 -0.1111  0.0091 -0.1596
  716SOL     OW 2909   4.257   2.809   1.259  0.0973 -0.3447 -0.7194
  716SOL    HW2 2910   4.273   2.885   1.203 -0.1008  0.5215  0.3992
  716SOL    HW3 2911   4.187   2.761   1.214 -0.9580  1.0288 -0.5615
  716SOL    MW4 2912   4.249   2.812   1.245 -0.0677 -0.0494 -0.5509
  717SOL     OW 2913   4.275   3.057   1.120  0.1249 -0.1969  0.1491
  717SOL    HW2 2914   4.200   3.100   1.161  0.6343  0.3501  0.5107
  717SOL    HW3 2915   4.255   3.061   1.026 -0.9472 -1.2804  0.3127
  717SOL    MW4 2916   4.262   3.063   1.113  0.0505 -0.2677  0.2183
  718SOL     OW 2917   4.045   3.193   1.214  0.1229  0.6449  0.0562
  718SOL    HW2 2918   4.042   3.210   1.308  0.2864 -1.0413  0.3902
  718SOL    HW3 2919   3.955   3.167   1.191  0.2500  0.3289 -0.0971
  718SOL    MW4 2920   4.033   3.192   1.223  0.1621  0.3808  0.0800
  719SOL     OW 2921   4.085   3.444   1.130  0.2375 -0.1209 -0.0201
  719SOL    HW2 2922   4.056   3.355   1.151  1.2050 -0.1102  1.3989
  719SOL    HW3 2923   4.015   3.501   1.163  0.1510 -0.2854  0.0799
  719SOL    MW4 2924   4.072   3.440   1.137  0.3533 -0.1414  0.1804
  720SOL     OW 2925   4.297   3.600   1.231  0.0682  0.2268 -0.6296
  720SOL    HW2 2926   4.231   3.549   1.183  0.5901 -0.7530 -0.3329
  720SOL    HW3 2927   4.381   3.564   1.200  0.3998 -1.1448  1.7652
  720SOL    MW4 2928   4.299   3.588   1.220  0.1812 -0.0834 -0.2745
  721SOL     OW 2929   4.295   3.847   1.099 -0.5035  0.1735  0.0676
  721SOL    HW2 2930   4.224   3.903   1.131 -0.4510 -0.0957  0.6761
  721SOL    HW3 2931   4.286   3.766   1.149  0.1913  0.1153  0.1164
  721SOL    MW4 2932   4.285   3.844   1.110 -0.4048  0.1304  0.1543
  722SOL     OW 2933   4.101   4.022   1.204  0.2266  0.3288 -0.1897
  722SOL    HW2 2934   4.084   4.115   1.189  0.5921  0.4678  0.2443
  722SOL    HW3 2935   4.018   3.978   1.183  0.0335  0.7593 -0.3254
  722SOL    MW4 2936   4.088   4.028   1.199  0.2494  0.4039 -0.1503
  723SOL     OW 2937   4.031   4.288   1.121 -0.0185  0.5015 -0.0916
  723SOL    HW2 2938   3.951   4.337   1.138  0.0807  1.0642 -1.1675
  723SOL    HW3 2939   4.054   4.311   1.031  2.3247  1.7629  0.7900
  723SOL    MW4 2940   4.024   4.297   1.111  0.3037  0.7429 -0.1172
  724SOL     OW 2941   4.251   4.385   1.256 -0.0598 -0.2118  0.2144
  724SOL    HW2 2942   4.170   4.337   1.236  0.6179 -0.3592 -2.3504
  724SOL    HW3 2943   4.319   4.339   1.207  1.1369  1.4787  0.2349
  724SOL    MW4 2944   4.249   4.372   1.247  0.1874 -0.0086 -0.1214
  725SOL     OW 2945   0.213   4.631   1.643 -0.6280 -0.0631 -0.3016
  725SOL    HW2 2946   0.293   4.670   1.608 -1.2002  2.4309  1.0324
  725SOL    HW3 2947   0.142   4.680   1.603 -1.4173 -0.4427  0.5869
  725SOL    MW4 2948   0.214   4.642   1.633 -0.8077  0.2160 -0.0085
  726SOL     OW 2949   0.004   0.081   1.533  0.2804  0.0436  0.2373
  726SOL    HW2 2950  -0.070   0.030   1.564  0.5988 -0.1839  0.6244
  726SOL    HW3 2951  -0.015   0.097   1.440 -0.8692  1.0734  0.6302
  726SOL    MW4 2952  -0.008   0.076   1.525  0.1708  0.1495  0.3402
  727SOL     OW 2953   0.010   0.356   1.574  0.5172 -0.0090 -0.3431
  727SOL    HW2 2954   0.020   0.362   1.669 -2.3190  1.3397 -0.0637
  727SOL    HW3 2955  -0.013   0.265   1.558  1.2561 -0.3037  0.2085
  727SOL    MW4 2956   0.008   0.345   1.585  0.2408  0.1301 -0.2335
  728SOL     OW 2957   0.223   0.525   1.491  0.2226 -0.3481  0.0570
  728SOL    HW2 2958   0.138   0.480   1.497  1.6443 -2.8934  2.4624
  728SOL    HW3 2959   0.251   0.512   1.400 -1.6548 -0.0222 -0.5912
  728SOL    MW4 2960   0.215   0.518   1.480  0.1625 -0.6410  0.2890
  729SOL     OW 2961   0.216   0.783   1.615  0.8177 -0.0158  0.5594
  729SOL    HW2 2962   0.283   0.830   1.566 -0.0456 -1.3115 -1.9293
  729SOL    HW3 2963   0.211   0.697   1.574 -0.4203 -0.9001  2.4840
  729SOL    MW4 2964   0.224   0.778   1.603  0.5405 -0.3034  0.4849
  730SOL     OW 2965   0.007   0.900   1.495 -0.1978  0.3186  0.2315
  730SOL    HW2 2966  -0.008   0.982   1.541  1.3404  1.8704 -1.9782
  730SOL    HW3 2967   0.086   0.864   1.534 -0.0707  0.5990  0.2314
  730SOL    MW4 2968   0.015   0.906   1.506  0.0210  0.5603 -0.0601
  731SOL     OW 2969   0.004   1.155   1.623 -0.4596 -0.1813  0.2135
  731SOL    HW2 2970   0.018   1.123   1.713 -0.9718  1.0840  0.7498
  731SOL    HW3 2971   0.085   1.200   1.601 -0.2634 -0.6500 -0.0371
  731SOL    MW4 2972   0.017   1.157   1.632 -0.5013 -0.0763  0.2511
  732SOL     OW 2973   0.239   1.258   1.547 -0.5445  0.0815 -0.2976
  732SOL    HW2 2974   0.259   1.347   1.573  0.8003 -0.2157 -0.2863
  732SOL    HW3 2975   0.238   1.260   1.451  0.8493 -0.1773 -0.3222
  732SOL    MW4 2976   0.241   1.270   1.537 -0.1832  0.0081 -0.2992
  733SOL     OW 2977   0.265   1.518   1.637 -0.0844 -0.2160 -0.4362
  733SOL    HW2 2978   0.240   1.501   1.728  0.8516  0.9636  0.0509
  733SOL    HW3 2979   0.185   1.548   1.595 -0.3192  0.0693  0.2158
  733SOL    MW4 2980   0.251   1.520   1.643  0.0081 -0.0226 -0.2860
  734SOL     OW 2981   0.055   1.623   1.503  0.2564 -0.2337 -0.3531
  734SOL    HW2 2982   0.062   1.716   1.522  0.2889  0.0489 -1.7285
  734SOL    HW3 2983   0.031   1.618   1.411 -0.1813 -1.5802 -0.1855
  734SOL    MW4 2984   0.053   1.635   1.493  0.2031 -0.3740 -0.5124
  735SOL     OW 2985   0.013   1.910   1.617 -0.4214 -0.3562  0.1381
  735SOL    HW2 2986  -0.006   1.916   1.711 -0.5971  0.7065  0.0383
  735SOL    HW3 2987  -0.053   1.966   1.576  1.2188  1.2067 -0.4283
  735SOL    MW4 2988   0.001   1.918   1.624 -0.2282 -0.0098  0.0503
  736SOL     OW 2989   0.246   2.043   1.524 -0.2160  0.0248  0.0248
  736SOL    HW2 2990   0.171   1.989   1.550  1.4084 -2.4131 -0.1949
  736SOL    HW3 2991   0.240   2.048   1.429  0.1080 -0.4821 -0.0222
  736SOL    MW4 2992   0.235   2.037   1.515  0.0411 -0.3638 -0.0104
  737SOL     OW 2993   0.190   2.313   1.633  0.3635 -0.1996 -0.4447
  737SOL    HW2 2994   0.193   2.321   1.728 -2.1848 -0.1218 -0.3399
  737SOL    HW3 2995   0.205   2.219   1.617  1.8175 -0.0468 -0.0500
  737SOL    MW4 2996   0.193   2.301   1.643  0.2191 -0.1690 -0.3787
  738SOL     OW 2997   4.457   2.445   1.553  0.1107 -0.0886  0.2287
  738SOL    HW2 2998   4.384   2.391   1.583  0.4847  0.2369  1.7912
  738SOL    HW3 2999   4.535   2.392   1.573  0.4856  1.0402  1.8611
  738SOL    MW4 3000   4.458   2.431   1.560  0.2089  0.1032  0.6503
  739SOL     OW 3001   0.004   2.709   1.626  0.1779 -0.6503 -0.0941
  739SOL    HW2 3002  -0.081   2.748   1.606 -0.1109 -0.3095  1.6660
  739SOL    HW3 3003  -0.008   2.616   1.609 -0.2320 -0.4632 -0.8608
  739SOL    MW4 3004  -0.009   2.702   1.621  0.0849 -0.5805  0.0370
  740SOL     OW 3005   0.226   2.787   1.489  0.2702  0.1784  0.2673
  740SOL    HW2 3006   0.307   2.739   1.505  1.6078  1.4259 -2.4307
  740SOL    HW3 3007   0.159   2.737   1.536  2.2321 -2.1236  0.7258
  740SOL    MW4 3008   0.228   2.774   1.498  0.7055  0.0391 -0.0283
  741SOL     OW 3009   0.244   3.060   1.570  0.2124  0.1741 -0.2102
  741SOL    HW2 3010   0.157   3.093   1.547  0.4235  1.0977  0.3048
  741SOL    HW3 3011   0.241   2.967   1.546 -1.1942 -0.0016  0.5975
  741SOL    MW4 3012   0.232   3.052   1.564  0.0547  0.2728 -0.0356
  742SOL     OW 3013   0.016   3.198   1.486 -0.1411 -0.1896  0.3428
  742SOL    HW2 3014   0.034   3.286   1.519  0.9315 -0.1949 -0.1869
  742SOL    HW3 3015   0.012   3.208   1.391  0.1929 -0.7420  0.2653
  742SOL    MW4 3016   0.018   3.211   1.477  0.0445 -0.2632  0.2627
  743SOL     OW 3017   0.037   3.458   1.589 -0.3006  0.1756 -0.5907
  743SOL    HW2 3018   0.011   3.439   1.679 -0.2818  0.2203 -0.5761
  743SOL    HW3 3019  -0.034   3.511   1.553  1.1010  2.7510  0.3440
  743SOL    MW4 3020   0.024   3.463   1.596 -0.1132  0.5214 -0.4655
  744SOL     OW 3021   0.248   3.602   1.503  0.0375 -0.4013  0.2338
  744SOL    HW2 3022   0.249   3.694   1.529 -1.3226 -0.3060  0.0255
  744SOL    HW3 3023   0.170   3.566   1.546  0.1034 -1.2412 -0.3367
  744SOL    MW4 3024   0.238   3.609   1.512 -0.1333 -0.4995  0.1309
  745SOL     OW 3025   0.193   3.871   1.582 -0.1145  0.0596 -0.3059
  745SOL    HW2 3026   0.195   3.880   1.677  0.9293  0.5946 -0.3752
  745SOL    HW3 3027   0.271   3.917   1.551 -0.4185 -0.1464 -1.4197
  745SOL    MW4 3028   0.204   3.878   1.590 -0.0169  0.1032 -0.4621
  746SOL     OW 3029   0.001   4.031   1.462  0.5904  0.4744 -0.0615
  746SOL    HW2 3030  -0.007   4.107   1.520  1.1300  1.1247 -0.8224
  746SOL    HW3 3031   0.057   3.970   1.510 -0.6210  0.1561  0.9536
  746SOL    MW4 3032   0.007   4.033   1.476  0.5016  0.5178 -0.0280
  747SOL     OW 3033   0.012   4.250   1.612  0.1501 -0.0923 -0.2587
  747SOL    HW2 3034   0.026   4.241   1.706 -0.1592  0.6527 -0.1396
  747SOL    HW3 3035  -0.081   4.268   1.603  0.2211  0.0614 -0.6930
  747SOL    MW4 3036   0.002   4.251   1.623  0.1187  0.0262 -0.3003
  748SOL     OW 3037   0.229   4.404   1.485 -0.1214 -0.3382 -0.3242
  748SOL    HW2 3038   0.154   4.352   1.515  0.6487 -1.2422  0.0780
  748SOL    HW3 3039   0.214   4.491   1.522 -1.2690 -0.3446 -0.7417
  748SOL    MW4 3040   0.217   4.408   1.494 -0.1711 -0.4587 -0.3263
  749SOL     OW 3041   0.680   4.632   1.630 -0.1672  0.2690 -0.1585
  749SOL    HW2 3042   0.750   4.662   1.572  1.0178  0.4478  1.3345
  749SOL    HW3 3043   0.600   4.651   1.583  0.7284  1.9192 -1.0448
  749SOL    MW4 3044   0.679   4.638   1.616  0.1073  0.5107 -0.0784
  750SOL     OW 3045   0.445   0.078   1.544  0.2298  0.3812  0.3371
  750SOL    HW2 3046   0.441   0.170   1.571  0.8726  0.4812  0.0920
  750SOL    HW3 3047   0.441   0.081   1.448 -2.6809 -0.0039  0.3960
  750SOL    MW4 3048   0.444   0.091   1.535 -0.0694  0.3436  0.3124
  751SOL     OW 3049   0.415   0.351   1.588  0.5847  0.1846  0.1845
  751SOL    HW2 3050   0.487   0.385   1.536  0.1100 -0.2824 -0.8054
  751SOL    HW3 3051   0.339   0.401   1.559  0.0114 -1.2119 -0.7862
  751SOL    MW4 3052   0.414   0.362   1.577  0.4464 -0.0613 -0.0740
  752SOL     OW 3053   0.628   0.488   1.479  0.5267 -0.2091  0.0941
  752SOL    HW2 3054   0.620   0.574   1.522  0.8451 -0.0018 -0.2505
  752SOL    HW3 3055   0.636   0.509   1.386 -1.5503 -0.7243 -0.2169
  752SOL    MW4 3056   0.628   0.502   1.473  0.2947 -0.2498  0.0076
  753SOL     OW 3057   0.617   0.753   1.575  0.1719  0.1035 -0.0154
  753SOL    HW2 3058   0.624   0.785   1.665  1.3205  0.2891 -0.1586
  753SOL    HW3 3059   0.698   0.782   1.533 -0.4652  0.2186 -1.1797
  753SOL    MW4 3060   0.629   0.761   1.581  0.2394  0.1432 -0.1880
  754SOL     OW 3061   0.417   0.904   1.464 -0.2030  0.6923 -0.5295
  754SOL    HW2 3062   0.449   0.988   1.498 -0.2650 -0.1379  1.6635
  754SOL    HW3 3063   0.482   0.840   1.491  0.0082  0.0502 -2.4861
  754SOL    MW4 3064   0.429   0.907   1.472 -0.1833  0.4980 -0.4983
  755SOL     OW 3065   0.474   1.131   1.623 -0.5497  0.2623  0.6207
  755SOL    HW2 3066   0.538   1.171   1.564 -0.7517 -1.5727 -0.8955
  755SOL    HW3 3067   0.390   1.168   1.595 -0.5990 -0.3127 -0.0203
  755SOL    MW4 3068   0.471   1.142   1.611 -0.5828 -0.0558  0.3361
  756SOL     OW 3069   0.679   1.264   1.501 -0.1802 -0.1123 -0.3504
  756SOL    HW2 3070   0.682   1.353   1.536 -1.3662 -0.3417  0.3599
  756SOL    HW3 3071   0.678   1.276   1.406 -0.5868  0.6326 -0.2556
  756SOL    MW4 3072   0.679   1.278   1.493 -0.3904 -0.0443 -0.2440
  757SOL     OW 3073   0.684   1.536   1.654  0.0493 -0.0846 -0.1568
  757SOL    HW2 3074   0.768   1.559   1.615  0.7400 -2.0381  0.1229
  757SOL    HW3 3075   0.619   1.579   1.599  1.1137 -0.7262 -1.9497
  757SOL    MW4 3076   0.687   1.545   1.642  0.2808 -0.4270 -0.3564
  758SOL     OW 3077   0.482   1.651   1.509  0.1095  0.3060 -0.0843
  758SOL    HW2 3078   0.487   1.739   1.546 -0.3893  0.1896  0.2696
  758SOL    HW3 3079   0.413   1.607   1.560  0.4128 -0.3147 -0.2007
  758SOL    MW4 3080   0.473   1.657   1.521  0.0837  0.2087 -0.0530
  759SOL     OW 3081   0.482   1.912   1.607  0.2080  0.3049  0.3213
  759SOL    HW2 3082   0.477   1.914   1.702 -0.6037 -1.8714  0.3668
  759SOL    HW3 3083   0.402   1.956   1.578 -0.2837 -0.3310  0.6818
  759SOL    MW4 3084   0.471   1.918   1.616  0.0361 -0.0660  0.3748
  760SOL     OW 3085   0.694   2.089   1.555  0.3621 -0.0619  0.3025
  760SOL    HW2 3086   0.770   2.048   1.596  0.6239  0.1693  0.0539
  760SOL    HW3 3087   0.624   2.025   1.565  0.9114 -0.8131 -0.5764
  760SOL    MW4 3088   0.695   2.075   1.562  0.4690 -0.1304  0.1538
  761SOL     OW 3089   0.650   2.338   1.651 -0.2935 -0.6343 -0.1227
  761SOL    HW2 3090   0.563   2.355   1.613 -0.5682 -0.3194  0.6252
  761SOL    HW3 3091   0.673   2.251   1.621 -0.7427 -0.5987 -0.5776
  761SOL    MW4 3092   0.641   2.329   1.642 -0.3890 -0.5879 -0.0839
  762SOL     OW 3093   0.404   2.387   1.480  0.5058 -0.0388  0.0405
  762SOL    HW2 3094   0.418   2.479   1.502 -1.3150 -0.0973  1.6709
  762SOL    HW3 3095   0.316   2.368   1.513  0.9327 -2.4165 -0.0840
  762SOL    MW4 3096   0.394   2.397   1.487  0.3219 -0.3603  0.2393
  763SOL     OW 3097   0.461   2.682   1.580 -0.2544 -0.2180  0.0080
  763SOL    HW2 3098   0.456   2.667   1.674  0.2563 -0.1627  0.0492
  763SOL    HW3 3099   0.532   2.745   1.570  0.0896 -0.6729 -0.4596
  763SOL    MW4 3100   0.470   2.688   1.591 -0.1416 -0.2706 -0.0483
  764SOL     OW 3101   0.675   2.872   1.551 -0.3015 -0.6225 -0.3782
  764SOL    HW2 3102   0.649   2.959   1.583  2.0350 -0.3085  0.8210
  764SOL    HW3 3103   0.676   2.881   1.456 -0.3501  0.5929 -0.2722
  764SOL    MW4 3104   0.672   2.885   1.543  0.0003 -0.4206 -0.2059
  765SOL     OW 3105   0.689   3.158   1.637  0.2049 -0.0131  0.1674
  765SOL    HW2 3106   0.763   3.189   1.585  0.2932  0.3738  0.5317
  765SOL    HW3 3107   0.615   3.162   1.576  0.7957 -2.0630 -0.7472
  765SOL    MW4 3108   0.689   3.162   1.622  0.2944 -0.2325  0.0949
  766SOL     OW 3109   0.448   3.233   1.483 -0.4636  0.0835  0.4450
  766SOL    HW2 3110   0.377   3.176   1.512  0.8282 -2.4918 -1.3087
  766SOL    HW3 3111   0.436   3.239   1.388  1.4014 -0.0372  0.1857
  766SOL    MW4 3112   0.437   3.226   1.474 -0.0471 -0.2723  0.1794
  767SOL     OW 3113   0.469   3.484   1.610  0.3480 -0.1176 -0.3227
  767SOL    HW2 3114   0.482   3.397   1.572 -0.9130 -0.7111  0.5845
  767SOL    HW3 3115   0.389   3.517   1.568  1.5623  1.2038 -1.6981
  767SOL    MW4 3116   0.461   3.477   1.599  0.3419 -0.0215 -0.3846
  768SOL     OW 3117   0.672   3.607   1.478  0.2746  0.0335 -0.0454
  768SOL    HW2 3118   0.753   3.579   1.521  0.0711 -0.8938 -0.2582
  768SOL    HW3 3119   0.602   3.568   1.530 -0.0164  0.2827 -0.2494
  768SOL    MW4 3120   0.673   3.598   1.491  0.2093 -0.0558 -0.1004
  769SOL     OW 3121   0.653   3.853   1.589  0.0523  0.2786 -0.2360
  769SOL    HW2 3122   0.739   3.894   1.581  0.5234 -0.7703 -0.6157
  769SOL    HW3 3123   0.663   3.768   1.547 -0.7064 -0.5377  1.1903
  769SOL    MW4 3124   0.665   3.847   1.582  0.0144  0.0324 -0.0979
  770SOL     OW 3125   0.428   3.996   1.482  0.5377  0.2211 -0.4365
  770SOL    HW2 3126   0.509   3.955   1.512  0.1231 -1.1836 -1.1960
  770SOL    HW3 3127   0.438   4.004   1.388 -0.4249 -0.5086 -0.6219
  770SOL    MW4 3128   0.440   3.991   1.474  0.3560 -0.0603 -0.5612
  771SOL     OW 3129   0.432   4.245   1.586 -0.3763  0.1509 -0.0527
  771SOL    HW2 3130   0.427   4.160   1.543  1.5220 -0.3364  0.6427
  771SOL    HW3 3131   0.361   4.296   1.547 -0.6175 -1.2748 -1.5238
  771SOL    MW4 3132   0.422   4.241   1.575 -0.1576 -0.1016 -0.1551
  772SOL     OW 3133   0.668   4.362   1.507 -0.5680 -0.3886  0.1366
  772SOL    HW2 3134   0.586   4.330   1.544 -0.5206  0.7007  1.2174
  772SOL    HW3 3135   0.684   4.445   1.553  1.1576 -0.6189 -0.0261
  772SOL    MW4 3136   0.659   4.369   1.518 -0.3341 -0.2751  0.2577
  773SOL     OW 3137   1.146   4.658   1.569 -0.1283  0.0101  0.2362
  773SOL    HW2 3138   1.148   4.662   1.665 -0.3771 -1.9710  0.3302
  773SOL    HW3 3139   1.219   4.714   1.542 -0.1048  0.6455  1.5769
  773SOL    MW4 3140   1.156   4.666   1.578 -0.1581 -0.1674  0.4256
  774SOL     OW 3141   0.883   0.096   1.515 -0.4849  0.0878 -0.1746
  774SOL    HW2 3142   0.891   0.190   1.535  0.1630  0.1684 -0.7808
  774SOL    HW3 3143   0.970   0.061   1.531 -0.3775 -0.1547 -1.2318
  774SOL    MW4 3144   0.896   0.104   1.520 -0.3853  0.0664 -0.3940
  775SOL     OW 3145   0.874   0.373   1.590 -0.1264 -0.0863 -0.0573
  775SOL    HW2 3146   0.878   0.363   1.685 -0.9841 -0.6873 -0.0766
  775SOL    HW3 3147   0.791   0.417   1.574  0.1729  0.3192 -0.5106
  775SOL    MW4 3148   0.864   0.377   1.600 -0.2001 -0.1121 -0.1197
  776SOL     OW 3149   1.088   0.518   1.468 -0.1822  0.1840 -0.4689
  776SOL    HW2 3150   1.079   0.608   1.500  1.0182  0.0453  0.3020
  776SOL    HW3 3151   1.011   0.472   1.501  1.0901  0.0027  2.3834
  776SOL    MW4 3152   1.077   0.524   1.477  0.1441  0.1417  0.0092
  777SOL     OW 3153   1.063   0.788   1.588 -0.3013 -0.1799  0.5227
  777SOL    HW2 3154   1.076   0.773   1.682  0.2425 -1.1271  0.3105
  777SOL    HW3 3155   1.141   0.836   1.560 -0.7028  0.5531  0.6491
  777SOL    MW4 3156   1.075   0.792   1.597 -0.2824 -0.2081  0.5115
  778SOL     OW 3157   0.842   0.849   1.452  0.4239  0.1760 -0.2383
  778SOL    HW2 3158   0.930   0.832   1.487  0.5261  0.2977 -0.4375
  778SOL    HW3 3159   0.854   0.851   1.357  0.0179 -0.8662 -0.3196
  778SOL    MW4 3160   0.855   0.847   1.444  0.3839  0.0546 -0.2754
  779SOL     OW 3161   0.889   1.098   1.567 -0.1814 -0.1538 -0.2335
  779SOL    HW2 3162   0.871   1.015   1.525 -1.3064  0.0720 -0.2222
  779SOL    HW3 3163   0.812   1.152   1.548 -0.0517  0.4387  0.8585
  779SOL    MW4 3164   0.877   1.094   1.559 -0.3127 -0.0459 -0.0879
  780SOL     OW 3165   1.119   1.237   1.501  0.0798 -0.1903  0.3835
  780SOL    HW2 3166   1.187   1.199   1.557  0.1744  0.0200  0.4116
  780SOL    HW3 3167   1.042   1.182   1.516  1.0105 -2.2352 -1.7988
  780SOL    MW4 3168   1.118   1.224   1.510  0.2151 -0.4324  0.0993
  781SOL     OW 3169   1.116   1.507   1.606  0.0719  0.2182 -0.0376
  781SOL    HW2 3170   1.185   1.557   1.562  1.9331 -0.9122  1.4906
  781SOL    HW3 3171   1.134   1.416   1.583 -1.0234 -0.0760  0.2397
  781SOL    MW4 3172   1.128   1.502   1.597  0.1727  0.0304  0.2006
  782SOL     OW 3173   0.891   1.685   1.552 -0.2867 -0.1034  0.1152
  782SOL    HW2 3174   0.970   1.634   1.569  0.0828  0.4927  0.1950
  782SOL    HW3 3175   0.890   1.697   1.457 -0.4096 -0.3149  0.0893
  782SOL    MW4 3176   0.901   1.680   1.542 -0.2542 -0.0527  0.1224
  783SOL     OW 3177   0.938   1.956   1.650  0.5831 -0.1147 -0.1708
  783SOL    HW2 3178   1.011   1.993   1.599 -0.1114  0.8110 -0.5169
  783SOL    HW3 3179   0.922   1.870   1.611  2.5329 -1.0082  0.9447
  783SOL    MW4 3180   0.946   1.950   1.638  0.7488 -0.1104 -0.0694
  784SOL     OW 3181   1.133   2.076   1.485  0.2777  0.1778  0.2235
  784SOL    HW2 3182   1.211   2.032   1.519 -1.4433 -1.0216  2.6726
  784SOL    HW3 3183   1.126   2.156   1.537  0.9165  1.2751 -1.3071
  784SOL    MW4 3184   1.142   2.081   1.496  0.1348  0.1643  0.3446
  785SOL     OW 3185   1.116   2.340   1.587  0.6126  0.4536 -0.0005
  785SOL    HW2 3186   1.178   2.390   1.534  0.2748  2.6161  1.5682
  785SOL    HW3 3187   1.030   2.373   1.559  0.3078 -0.4052 -0.0711
  785SOL    MW4 3188   1.113   2.351   1.576  0.5277  0.6258  0.1971
  786SOL     OW 3189   0.876   2.439   1.492  0.5012 -0.7501 -0.1508
  786SOL    HW2 3190   0.872   2.531   1.517 -0.5037 -0.4197 -1.4739
  786SOL    HW3 3191   0.809   2.396   1.545  0.9237 -0.7200  0.4167
  786SOL    MW4 3192   0.867   2.445   1.502  0.4244 -0.7026 -0.2505
  787SOL     OW 3193   0.890   2.681   1.608 -0.0254 -0.0537  0.1418
  787SOL    HW2 3194   0.901   2.676   1.703 -1.5279 -0.9281  0.2871
  787SOL    HW3 3195   0.811   2.733   1.595 -0.0105 -0.2086 -0.6109
  787SOL    MW4 3196   0.881   2.687   1.619 -0.2217 -0.1895  0.0616
  788SOL     OW 3197   1.073   2.856   1.467  0.0862  0.9405 -0.3165
  788SOL    HW2 3198   1.094   2.934   1.519 -1.9289  1.2119  0.1577
  788SOL    HW3 3199   1.015   2.805   1.524  1.6725 -1.1151 -0.4675
  788SOL    MW4 3200   1.068   2.860   1.482  0.0296  0.7050 -0.2739
  789SOL     OW 3201   1.131   3.113   1.624 -0.1610  0.4187  0.5266
  789SOL    HW2 3202   1.151   3.125   1.717  1.1204  0.9955  0.1990
  789SOL    HW3 3203   1.212   3.139   1.580 -0.9789  0.7635 -0.7777
  789SOL    MW4 3204   1.145   3.118   1.631 -0.0998  0.5400  0.3114
  790SOL     OW 3205   0.906   3.244   1.505 -0.4915 -0.1210 -0.0290
  790SOL    HW2 3206   0.977   3.191   1.541 -1.1415 -0.9468  0.0486
  790SOL    HW3 3207   0.913   3.232   1.410 -1.4336 -1.4010  0.0464
  790SOL    MW4 3208   0.917   3.235   1.497 -0.7016 -0.3986 -0.0088
  791SOL     OW 3209   0.892   3.504   1.591  0.3007  0.2771 -0.5794
  791SOL    HW2 3210   0.970   3.538   1.549  1.1885 -0.3875  0.5087
  791SOL    HW3 3211   0.881   3.416   1.555  0.3628  0.1666 -0.3295
  791SOL    MW4 3212   0.901   3.497   1.581  0.4260  0.1750 -0.4029
  792SOL     OW 3213   1.121   3.618   1.479  0.0553 -0.0194  0.9182
  792SOL    HW2 3214   1.196   3.570   1.514  1.9974  2.9221  0.9486
  792SOL    HW3 3215   1.137   3.621   1.384 -0.6201 -0.2909  0.7877
  792SOL    MW4 3216   1.133   3.612   1.471  0.2224  0.3328  0.9049
  793SOL     OW 3217   1.113   3.875   1.618  0.4922 -0.1570 -0.3804
  793SOL    HW2 3218   1.190   3.922   1.586  0.7875 -0.0443  0.4969
  793SOL    HW3 3219   1.122   3.786   1.583  0.4128  0.1805 -1.2599
  793SOL    MW4 3220   1.124   3.869   1.609  0.5207 -0.0978 -0.3808
  794SOL     OW 3221   0.883   3.984   1.518 -0.4361 -0.0137  0.4189
  794SOL    HW2 3222   0.902   4.074   1.545  0.1642  0.5832 -1.8643
  794SOL    HW3 3223   0.957   3.933   1.552 -0.3686  0.4718  1.0234
  794SOL    MW4 3224   0.896   3.989   1.526 -0.3479  0.1290  0.1974
  795SOL     OW 3225   0.907   4.254   1.595 -0.3165 -0.5528  0.2390
  795SOL    HW2 3226   0.905   4.272   1.689  0.2443  1.4502 -0.1036
  795SOL    HW3 3227   0.829   4.297   1.561 -0.3136 -0.9416 -0.2625
  795SOL    MW4 3228   0.897   4.262   1.603 -0.2422 -0.3400  0.1277
  796SOL     OW 3229   1.122   4.361   1.476 -0.1648  0.0761 -0.0783
  796SOL    HW2 3230   1.044   4.332   1.524  0.3135 -1.1273 -0.0134
  796SOL    HW3 3231   1.127   4.455   1.493 -1.0754 -0.0057  0.6796
  796SOL    MW4 3232   1.113   4.370   1.485 -0.2217 -0.0935  0.0302
  797SOL     OW 3233   1.557   4.616   1.579  0.3387  0.1159  0.0387
  797SOL    HW2 3234   1.574   4.626   1.673 -1.2560 -2.3151  0.6396
  797SOL    HW3 3235   1.480   4.670   1.562  0.7916  0.7769  0.0524
  797SOL    MW4 3236   1.549   4.624   1.589  0.1881 -0.1173  0.1198
  798SOL     OW 3237   1.361   0.138   1.509  0.2374 -0.4295  0.2775
  798SOL    HW2 3238   1.343   0.230   1.526  0.2305 -0.5219  0.7829
  798SOL    HW3 3239   1.370   0.132   1.414 -0.9208 -0.1136  0.1394
  798SOL    MW4 3240   1.360   0.149   1.499  0.0839 -0.4000  0.3259
  799SOL     OW 3241   1.307   0.392   1.583  0.0546 -0.2369 -0.0245
  799SOL    HW2 3242   1.383   0.447   1.564 -0.4716  0.8211  0.8625
  799SOL    HW3 3243   1.233   0.442   1.548 -0.2792 -1.1171 -0.6002
  799SOL    MW4 3244   1.307   0.406   1.576 -0.0589 -0.2134  0.0166
  800SOL     OW 3245   1.549   0.514   1.537  0.1686 -0.4872 -0.5148
  800SOL    HW2 3246   1.622   0.462   1.570  2.4917  2.0000 -1.5024
  800SOL    HW3 3247   1.563   0.519   1.443 -1.2173  0.0873 -0.6970
  800SOL    MW4 3248   1.561   0.508   1.529  0.2923 -0.0833 -0.6691
  801SOL     OW 3249   1.553   0.782   1.620  0.2601  0.2283 -0.0033
  801SOL    HW2 3250   1.584   0.779   1.710  2.0977  1.5755 -0.5647
  801SOL    HW3 3251   1.547   0.690   1.594  1.2493 -0.1345  0.9875
  801SOL    MW4 3252   1.556   0.769   1.628  0.6329  0.3582  0.0533
  802SOL     OW 3253   1.318   0.871   1.519  0.0663  0.3014  0.0750
  802SOL    HW2 3254   1.404   0.847   1.553 -0.8154  0.0222  2.1655
  802SOL    HW3 3255   1.329   0.873   1.424  1.7084 -2.4272  0.1767
  802SOL    MW4 3256   1.331   0.868   1.511  0.1667 -0.0954  0.3643
  803SOL     OW 3257   1.343   1.124   1.615 -0.1947 -0.3531 -0.3066
  803SOL    HW2 3258   1.363   1.104   1.706  0.3789  0.1863 -0.3032
  803SOL    HW3 3259   1.339   1.039   1.571  1.1086 -0.5401 -0.0903
  803SOL    MW4 3260   1.345   1.110   1.621  0.0530 -0.3066 -0.2776
  804SOL     OW 3261   1.542   1.302   1.502  0.2407  0.0733 -0.0398
  804SOL    HW2 3262   1.470   1.256   1.545  0.5001 -0.7430 -0.4561
  804SOL    HW3 3263   1.533   1.280   1.409  0.1376  1.1961 -0.3078
  804SOL    MW4 3264   1.531   1.293   1.495  0.2613  0.1137 -0.1301
  805SOL     OW 3265   1.562   1.560   1.587  0.1053 -0.1062 -0.5137
  805SOL    HW2 3266   1.553   1.561   1.682  1.7440  0.3118 -0.3448
  805SOL    HW3 3267   1.554   1.467   1.563  0.1464 -0.2656  0.0764
  805SOL    MW4 3268   1.559   1.548   1.596  0.3270 -0.0722 -0.4137
  806SOL     OW 3269   1.314   1.665   1.477 -0.6925  0.2325  0.3194
  806SOL    HW2 3270   1.402   1.643   1.509 -0.3214  1.9092  0.5205
  806SOL    HW3 3271   1.324   1.674   1.383 -1.0421 -1.3246  0.1253
  806SOL    MW4 3272   1.327   1.663   1.469 -0.6897  0.2482  0.3202
  807SOL     OW 3273   1.346   1.927   1.565  0.2153 -0.0158  0.5924
  807SOL    HW2 3274   1.356   1.939   1.659  1.1877 -1.2658  0.6598
  807SOL    HW3 3275   1.325   1.834   1.555  2.3180 -0.3938 -0.5630
  807SOL    MW4 3276   1.345   1.916   1.576  0.6212 -0.2306  0.4488
  808SOL     OW 3277   1.584   2.065   1.515  0.2575 -0.1523 -0.4326
  808SOL    HW2 3278   1.502   2.018   1.531  0.5590 -0.6070 -0.1979
  808SOL    HW3 3279   1.588   2.076   1.420 -0.1611  0.0251 -0.4294
  808SOL    MW4 3280   1.574   2.060   1.505  0.2420 -0.1891 -0.4013
  809SOL     OW 3281   1.548   2.329   1.586  0.0327 -0.3940 -0.0598
  809SOL    HW2 3282   1.633   2.372   1.574  0.1936 -0.9320 -0.9041
  809SOL    HW3 3283   1.565   2.237   1.566 -0.7648 -0.4889 -0.3123
  809SOL    MW4 3284   1.561   2.322   1.582 -0.0514 -0.4773 -0.2046
  810SOL     OW 3285   1.334   2.474   1.480 -0.0824 -0.4135  0.4647
  810SOL    HW2 3286   1.354   2.547   1.538  0.9596 -1.0901  0.9714
  810SOL    HW3 3287   1.397   2.406   1.505  1.1107 -0.3386 -2.1666
  810SOL    MW4 3288   1.345   2.474   1.491  0.2126 -0.4928  0.1845
  811SOL     OW 3289   1.336   2.708   1.637  0.2712  0.2778 -0.2048
  811SOL    HW2 3290   1.408   2.765   1.608  1.4519 -1.6478 -1.1555
  811SOL    HW3 3291   1.259   2.743   1.593  0.7203  1.9900  0.3339
  811SOL    MW4 3292   1.335   2.720   1.627  0.4864  0.2496 -0.2592
  812SOL     OW 3293   1.544   2.854   1.520 -0.3506 -0.3165 -0.5094
  812SOL    HW2 3294   1.623   2.804   1.542 -1.5422 -1.5954  1.0074
  812SOL    HW3 3295   1.538   2.849   1.425  1.2202 -0.4765 -0.6175
  812SOL    MW4 3296   1.553   2.847   1.511 -0.3004 -0.5062 -0.3234
  813SOL     OW 3297   1.551   3.111   1.617  0.4825  0.1274 -0.0446
  813SOL    HW2 3298   1.623   3.152   1.569  1.7264 -0.2714  1.4509
  813SOL    HW3 3299   1.550   3.020   1.586  1.1863 -0.0905  0.5639
  813SOL    MW4 3300   1.560   3.104   1.607  0.7395  0.0460  0.2331
  814SOL     OW 3301   1.341   3.232   1.478  0.3025  0.1454  0.7504
  814SOL    HW2 3302   1.338   3.326   1.496 -0.1190  0.0992  0.9274
  814SOL    HW3 3303   1.412   3.199   1.534  1.4942  0.6036 -0.4641
  814SOL    MW4 3304   1.350   3.240   1.488  0.4040  0.1998  0.6135
  815SOL     OW 3305   1.341   3.489   1.575  0.1613 -0.3554 -0.1020
  815SOL    HW2 3306   1.338   3.475   1.670 -1.7455 -0.0149 -0.1084
  815SOL    HW3 3307   1.428   3.527   1.560  0.8887 -1.3741  1.3591
  815SOL    MW4 3308   1.352   3.492   1.586  0.0057 -0.4451  0.0900
  816SOL     OW 3309   1.576   3.604   1.504 -0.4162 -0.2356  0.2649
  816SOL    HW2 3310   1.580   3.698   1.523  0.3463 -0.3732  0.8334
  816SOL    HW3 3311   1.564   3.598   1.410  1.4978  0.4221 -0.0419
  816SOL    MW4 3312   1.575   3.615   1.494 -0.0632 -0.1669  0.2995
  817SOL     OW 3313   1.589   3.883   1.559  0.0555 -0.3122  0.2013
  817SOL    HW2 3314   1.591   3.869   1.653 -1.1324 -2.0511 -0.0045
  817SOL    HW3 3315   1.500   3.912   1.541  0.4793  0.6959 -0.3067
  817SOL    MW4 3316   1.578   3.885   1.569 -0.0453 -0.4084  0.1070
  818SOL     OW 3317   1.341   3.987   1.536 -0.0994 -0.4459 -0.4394
  818SOL    HW2 3318   1.354   4.076   1.568  0.5816 -0.7742  0.2100
  818SOL    HW3 3319   1.332   3.997   1.441  0.2039  0.2876 -0.3964
  818SOL    MW4 3320   1.342   4.000   1.527  0.0304 -0.3924 -0.3481
  819SOL     OW 3321   1.364   4.255   1.632 -0.0718 -0.2376 -0.0160
  819SOL    HW2 3322   1.437   4.289   1.581  0.0578  0.2575  0.4890
  819SOL    HW3 3323   1.286   4.289   1.588  0.0350  0.0796  0.0366
  819SOL    MW4 3324   1.363   4.264   1.620 -0.0405 -0.1307  0.0576
  820SOL     OW 3325   1.567   4.371   1.463  0.3825  0.4003 -0.4429
  820SOL    HW2 3326   1.643   4.324   1.498  0.0722  0.0136 -0.2772
  820SOL    HW3 3327   1.561   4.451   1.516 -1.2505 -1.1010  1.7470
  820SOL    MW4 3328   1.576   4.375   1.474  0.1262  0.1516 -0.1320
  821SOL     OW 3329   2.017   4.638   1.604  0.0558  0.5034  0.0177
  821SOL    HW2 3330   2.006   4.641   1.699 -1.4066  0.1004 -0.1156
  821SOL    HW3 3331   1.948   4.697   1.571  0.1914  0.2039 -0.8072
  821SOL    MW4 3332   2.006   4.646   1.612 -0.1190  0.4107 -0.1086
  822SOL     OW 3333   1.785   0.116   1.526  0.1973  0.2756  0.0218
  822SOL    HW2 3334   1.706   0.065   1.543 -0.0813  0.6365 -0.1539
  822SOL    HW3 3335   1.788   0.123   1.430  0.3253  0.4407  0.0381
  822SOL    MW4 3336   1.775   0.110   1.515  0.1775  0.3450  0.0010
  823SOL     OW 3337   1.819   0.369   1.625 -0.2342 -0.0021  0.0555
  823SOL    HW2 3338   1.898   0.410   1.589  0.9533 -1.9874  0.3077
  823SOL    HW3 3339   1.822   0.280   1.591 -1.6928 -0.4716  1.1419
  823SOL    MW4 3340   1.830   0.363   1.616 -0.2700 -0.3259  0.2321
  824SOL     OW 3341   2.057   0.466   1.526  0.3846  0.1436 -0.5754
  824SOL    HW2 3342   2.141   0.437   1.561  0.7639  0.5219 -1.1670
  824SOL    HW3 3343   2.046   0.554   1.561  0.1584  0.0320 -0.3675
  824SOL    MW4 3344   2.067   0.474   1.535  0.4048  0.1788 -0.6261
  825SOL     OW 3345   2.003   0.729   1.609  0.1124 -0.2464  0.0237
  825SOL    HW2 3346   2.067   0.788   1.569  0.5066 -0.9788 -0.4177
  825SOL    HW3 3347   1.920   0.754   1.568  0.3268 -0.2107 -0.3956
  825SOL    MW4 3348   2.000   0.740   1.598  0.1926 -0.3383 -0.0899
  826SOL     OW 3349   1.777   0.895   1.474 -0.1344  0.4457 -0.2426
  826SOL    HW2 3350   1.785   0.979   1.518  0.9171  0.2766 -0.1135
  826SOL    HW3 3351   1.691   0.862   1.500 -0.7673  1.7071 -0.7032
  826SOL    MW4 3352   1.767   0.902   1.483 -0.0793  0.5897 -0.2863
  827SOL     OW 3353   1.763   1.151   1.608  0.3596 -0.2254 -0.1464
  827SOL    HW2 3354   1.828   1.198   1.556  1.6728 -0.4583  1.2495
  827SOL    HW3 3355   1.679   1.190   1.583  1.3417  2.2934  0.3950
  827SOL    MW4 3356   1.761   1.162   1.597  0.6623  0.0761  0.1092
  828SOL     OW 3357   1.991   1.295   1.501  0.0691  0.0528 -0.0203
  828SOL    HW2 3358   2.002   1.372   1.557  1.8286  0.9523 -1.5520
  828SOL    HW3 3359   1.980   1.331   1.413 -1.5076 -1.3795 -0.4209
  828SOL    MW4 3360   1.991   1.310   1.497  0.0932 -0.0175 -0.2753
  829SOL     OW 3361   1.985   1.522   1.637 -0.3295  0.5827  0.0699
  829SOL    HW2 3362   2.059   1.575   1.607  0.3316 -0.6009 -0.4097
  829SOL    HW3 3363   1.908   1.565   1.599  0.4873 -0.9762 -3.5553
  829SOL    MW4 3364   1.984   1.535   1.628 -0.1345  0.2208 -0.4717
  830SOL     OW 3365   1.796   1.659   1.477  0.0918  0.1652  0.2995
  830SOL    HW2 3366   1.716   1.621   1.513 -0.2375  2.3572  2.0347
  830SOL    HW3 3367   1.789   1.648   1.383 -1.6298 -0.8334  0.5377
  830SOL    MW4 3368   1.785   1.652   1.470 -0.1788  0.3227  0.5600
  831SOL     OW 3369   1.810   1.913   1.598 -0.3880 -0.0187  0.8943
  831SOL    HW2 3370   1.824   1.826   1.563 -0.5600 -0.4395  1.8499
  831SOL    HW3 3371   1.729   1.943   1.557 -0.2178 -0.2261  0.4086
  831SOL    MW4 3372   1.801   1.906   1.588 -0.3883 -0.1014  0.9563
  832SOL     OW 3373   2.016   2.073   1.505 -0.0400 -0.2296 -0.3470
  832SOL    HW2 3374   2.097   2.029   1.532 -0.6075 -0.4394  1.0413
  832SOL    HW3 3375   1.946   2.024   1.549 -0.8719  0.4875 -0.8497
  832SOL    MW4 3376   2.017   2.061   1.514 -0.2248 -0.1626 -0.2302
  833SOL     OW 3377   2.043   2.304   1.634  0.0413 -0.6052  0.7542
  833SOL    HW2 3378   2.055   2.283   1.727 -1.0043 -1.1907  0.7609
  833SOL    HW3 3379   2.023   2.220   1.593 -1.1287 -0.0925  0.2630
  833SOL    MW4 3380   2.042   2.290   1.641 -0.2511 -0.6146  0.6902
  834SOL     OW 3381   1.812   2.442   1.547  0.1094 -0.3874  0.1829
  834SOL    HW2 3382   1.895   2.406   1.579  0.5951 -0.2255 -0.8583
  834SOL    HW3 3383   1.821   2.440   1.451 -1.2812 -0.8154  0.0490
  834SOL    MW4 3384   1.824   2.437   1.538 -0.0099 -0.4225  0.0278
  835SOL     OW 3385   1.759   2.710   1.603 -0.0503  0.1837 -0.0492
  835SOL    HW2 3386   1.841   2.754   1.583 -0.3515  0.4327 -0.7609
  835SOL    HW3 3387   1.774   2.618   1.581  0.4441 -0.0075  1.0425
  835SOL    MW4 3388   1.772   2.704   1.597 -0.0249  0.1915  0.0010
  836SOL     OW 3389   2.001   2.846   1.527  0.2678  0.0793 -0.1463
  836SOL    HW2 3390   1.984   2.938   1.548 -0.1014 -0.0933  0.3305
  836SOL    HW3 3391   2.032   2.847   1.437 -0.1321  0.6313 -0.2788
  836SOL    MW4 3392   2.003   2.859   1.518  0.1662  0.1290 -0.1009
  837SOL     OW 3393   1.970   3.108   1.620  0.2914  0.0051 -0.2353
  837SOL    HW2 3394   1.976   3.115   1.715  0.5114  0.6119 -0.2877
  837SOL    HW3 3395   2.046   3.158   1.588 -0.5923  1.0474 -0.7561
  837SOL    MW4 3396   1.981   3.116   1.628  0.2038  0.2224 -0.3109
  838SOL     OW 3397   1.772   3.249   1.505  0.1331 -0.3329 -0.2322
  838SOL    HW2 3398   1.803   3.338   1.524  1.6343 -0.5262 -1.6961
  838SOL    HW3 3399   1.834   3.191   1.550 -0.0090 -0.6603 -0.4551
  838SOL    MW4 3400   1.784   3.253   1.514  0.3124 -0.4015 -0.4548
  839SOL     OW 3401   1.828   3.502   1.588 -0.2571  0.2788  0.1796
  839SOL    HW2 3402   1.835   3.510   1.683  0.3224  0.7084  0.1007
  839SOL    HW3 3403   1.745   3.544   1.567 -0.0844  0.7412  0.4222
  839SOL    MW4 3404   1.818   3.508   1.598 -0.1578  0.3965  0.2012
  840SOL     OW 3405   2.045   3.630   1.485 -0.3874  0.4455 -0.0645
  840SOL    HW2 3406   2.119   3.576   1.513 -1.2288 -0.2978  0.7402
  840SOL    HW3 3407   1.967   3.581   1.513 -1.2271  0.5432 -2.0826
  840SOL    MW4 3408   2.044   3.616   1.492 -0.6092  0.3603 -0.2246
  841SOL     OW 3409   2.054   3.873   1.620  0.1639 -0.3642  0.5274
  841SOL    HW2 3410   2.128   3.912   1.573  0.5711 -0.4190  1.1235
  841SOL    HW3 3411   2.051   3.783   1.589  1.1815 -0.7422  1.4964
  841SOL    MW4 3412   2.063   3.867   1.610  0.3519 -0.4213  0.7341
  842SOL     OW 3413   1.829   4.011   1.505 -0.1062 -0.7343 -0.0816
  842SOL    HW2 3414   1.902   3.965   1.545  0.5123  1.1728  1.0137
  842SOL    HW3 3415   1.753   3.956   1.524  0.7595 -1.7853  0.3636
  842SOL    MW4 3416   1.828   3.998   1.513  0.0896 -0.6208  0.1217
  843SOL     OW 3417   1.799   4.279   1.570 -0.2657 -0.0501 -0.6670
  843SOL    HW2 3418   1.878   4.322   1.537 -0.6823 -0.1336 -1.7871
  843SOL    HW3 3419   1.811   4.187   1.548 -0.6790 -0.0629 -0.8405
  843SOL    MW4 3420   1.811   4.273   1.563 -0.3752 -0.0634 -0.8376
  844SOL     OW 3421   2.048   4.388   1.485 -0.0970 -0.3442  0.5107
  844SOL    HW2 3422   2.127   4.355   1.527 -0.5068 -1.9628  0.0445
  844SOL    HW3 3423   2.027   4.469   1.533  1.6315 -0.0733  0.8497
  844SOL    MW4 3424   2.055   4.395   1.497  0.0772 -0.5217  0.4940
  845SOL     OW 3425   2.484   4.654   1.572  0.0247  0.0400 -0.2749
  845SOL    HW2 3426   2.485   4.652   1.667  2.3196  0.2437 -0.2627
  845SOL    HW3 3427   2.404   4.701   1.549 -0.7008 -0.2774  1.5246
  845SOL    MW4 3428   2.474   4.660   1.581  0.2317  0.0248 -0.0359
  846SOL     OW 3429   2.239   0.121   1.507 -0.8347 -0.6839  0.0920
  846SOL    HW2 3430   2.166   0.074   1.547 -1.5037  1.4204  1.4426
  846SOL    HW3 3431   2.228   0.108   1.413 -2.3881 -1.1734  0.3368
  846SOL    MW4 3432   2.228   0.113   1.500 -1.1280 -0.4709  0.3024
  847SOL     OW 3433   2.299   0.363   1.632  0.0430 -0.3768  0.6142
  847SOL    HW2 3434   2.297   0.344   1.726  0.9733 -0.8352  0.5463
  847SOL    HW3 3435   2.274   0.280   1.591 -0.0995 -0.2489  0.4426
  847SOL    MW4 3436   2.295   0.350   1.639  0.1469 -0.4204  0.5827
  848SOL     OW 3437   2.474   0.514   1.486  0.1619 -0.1990  0.3753
  848SOL    HW2 3438   2.564   0.491   1.506  0.3477  0.6242  0.4992
  848SOL    HW3 3439   2.422   0.468   1.552  0.5326 -0.2116  0.6553
  848SOL    MW4 3440   2.479   0.505   1.497  0.2353 -0.0920  0.4286
  849SOL     OW 3441   2.433   0.784   1.574 -0.1068 -0.2999 -0.0951
  849SOL    HW2 3442   2.356   0.827   1.537  0.1424  0.7687  0.6206
  849SOL    HW3 3443   2.434   0.697   1.533 -1.4762 -0.1852 -0.3816
  849SOL    MW4 3444   2.423   0.778   1.563 -0.2546 -0.1438 -0.0385
  850SOL     OW 3445   2.194   0.884   1.474 -0.2593 -0.0297 -0.1812
  850SOL    HW2 3446   2.211   0.971   1.509 -0.6018 -0.8760  2.2060
  850SOL    HW3 3447   2.183   0.897   1.380  0.3379  2.3941  0.0602
  850SOL    MW4 3448   2.195   0.897   1.466 -0.2260  0.1785  0.1657
  851SOL     OW 3449   2.233   1.145   1.561 -0.0358 -0.2625 -0.2568
  851SOL    HW2 3450   2.239   1.143   1.656  0.2317 -2.3516 -0.2939
  851SOL    HW3 3451   2.154   1.196   1.542 -0.5797 -0.5905  1.1020
  851SOL    MW4 3452   2.224   1.152   1.571 -0.0722 -0.5814 -0.0824
  852SOL     OW 3453   2.476   1.245   1.506 -0.6298  0.2071  0.3942
  852SOL    HW2 3454   2.395   1.201   1.530 -0.7463  0.1416 -0.1179
  852SOL    HW3 3455   2.475   1.248   1.411 -0.4065  0.9174  0.4083
  852SOL    MW4 3456   2.465   1.239   1.497 -0.6161  0.2921  0.3284
  853SOL     OW 3457   2.482   1.510   1.595 -0.1785  0.5576 -0.3122
  853SOL    HW2 3458   2.566   1.550   1.572 -0.5236  0.8117 -1.1599
  853SOL    HW3 3459   2.491   1.418   1.568  0.5502  0.0927  1.4703
  853SOL    MW4 3460   2.494   1.503   1.589 -0.1278  0.5296 -0.1888
  854SOL     OW 3461   2.219   1.648   1.542  0.2586 -0.1872 -0.0552
  854SOL    HW2 3462   2.298   1.603   1.572  0.3325  0.2272  0.3726
  854SOL    HW3 3463   2.230   1.656   1.447  2.2406  2.7704  0.3811
  854SOL    MW4 3464   2.231   1.643   1.533  0.5295  0.2575  0.0589
  855SOL     OW 3465   2.224   1.917   1.577 -0.0361  0.1487 -0.3794
  855SOL    HW2 3466   2.231   1.935   1.671  0.2106  0.7862 -0.5234
  855SOL    HW3 3467   2.223   1.821   1.572  1.3658  0.0996  0.1684
  855SOL    MW4 3468   2.225   1.906   1.589  0.1814  0.2263 -0.3262
  856SOL     OW 3469   2.447   2.069   1.517  0.3652  0.4946 -0.3421
  856SOL    HW2 3470   2.365   2.024   1.537 -0.5589  2.2733  0.0287
  856SOL    HW3 3471   2.467   2.044   1.427 -0.5643  0.0176 -0.4245
  856SOL    MW4 3472   2.438   2.060   1.508  0.1206  0.6661 -0.3042
  857SOL     OW 3473   2.497   2.341   1.567  0.1008 -0.0357  0.3245
  857SOL    HW2 3474   2.499   2.322   1.661 -1.3203  1.0808  0.6001
  857SOL    HW3 3475   2.486   2.256   1.526 -0.8243 -0.3843  1.2620
  857SOL    MW4 3476   2.496   2.327   1.574 -0.2089  0.0656  0.4846
  858SOL     OW 3477   2.250   2.461   1.508  0.1693 -0.3016  0.5012
  858SOL    HW2 3478   2.329   2.411   1.529 -0.1357  0.2926  3.2352
  858SOL    HW3 3479   2.185   2.432   1.572 -1.6115 -0.2109 -1.2315
  858SOL    MW4 3480   2.252   2.451   1.519 -0.1059 -0.2115  0.6334
  859SOL     OW 3481   2.251   2.713   1.640 -0.3146  0.2126  0.1257
  859SOL    HW2 3482   2.251   2.625   1.604  0.7916 -0.1865  1.0885
  859SOL    HW3 3483   2.212   2.767   1.571 -0.1538 -0.8766 -0.8251
  859SOL    MW4 3484   2.246   2.709   1.626 -0.1471  0.0162  0.1272
  860SOL     OW 3485   2.471   2.836   1.536  0.4100  0.0398 -0.0773
  860SOL    HW2 3486   2.459   2.925   1.570  0.4964  0.0512 -0.0764
  860SOL    HW3 3487   2.399   2.786   1.573  0.1081  0.2125 -0.4256
  860SOL    MW4 3488   2.460   2.841   1.545  0.3817  0.0646 -0.1233
  861SOL     OW 3489   2.442   3.094   1.617  0.0279 -0.3959  0.8998
  861SOL    HW2 3490   2.507   3.157   1.585  0.2236  0.0054  2.0524
  861SOL    HW3 3491   2.359   3.140   1.610 -0.0788 -0.7195 -0.0794
  861SOL    MW4 3492   2.440   3.108   1.612  0.0396 -0.3858  0.9227
  862SOL     OW 3493   2.202   3.229   1.511 -0.3519 -0.1472  0.1915
  862SOL    HW2 3494   2.222   3.317   1.542  0.4280 -0.2720  0.0579
  862SOL    HW3 3495   2.240   3.226   1.423  0.0726 -0.7820  0.3933
  862SOL    MW4 3496   2.210   3.240   1.503 -0.1931 -0.2472  0.2004
  863SOL     OW 3497   2.267   3.486   1.608  0.5618  0.6626 -0.3879
  863SOL    HW2 3498   2.281   3.487   1.702 -1.0610  0.7709 -0.1338
  863SOL    HW3 3499   2.341   3.535   1.572  0.5042  1.7360  0.9343
  863SOL    MW4 3500   2.279   3.493   1.616  0.3402  0.8185 -0.1800
  864SOL     OW 3501   2.463   3.621   1.463 -0.2488 -0.4642 -0.4572
  864SOL    HW2 3502   2.543   3.594   1.508  1.0139  0.5590 -1.9840
  864SOL    HW3 3503   2.437   3.702   1.507 -0.3133 -0.6864 -0.0891
  864SOL    MW4 3504   2.470   3.628   1.474 -0.0906 -0.3586 -0.6100
  865SOL     OW 3505   2.483   3.894   1.593 -0.2714  0.1121 -0.0559
  865SOL    HW2 3506   2.497   3.892   1.688 -2.7774  0.4392  0.3546
  865SOL    HW3 3507   2.557   3.944   1.559 -0.4857  1.8590  1.9574
  865SOL    MW4 3508   2.495   3.900   1.601 -0.6304  0.3855  0.2637
  866SOL     OW 3509   2.258   3.996   1.478  0.0456 -0.4996  0.0045
  866SOL    HW2 3510   2.345   3.975   1.512 -0.0242 -0.5723  0.1422
  866SOL    HW3 3511   2.264   3.979   1.384  0.8643  1.7407 -0.3846
  866SOL    MW4 3512   2.270   3.991   1.470  0.1445 -0.2139 -0.0287
  867SOL     OW 3513   2.266   4.254   1.591  0.1844 -0.2018  0.1702
  867SOL    HW2 3514   2.336   4.295   1.539  0.4313 -0.3925  0.3490
  867SOL    HW3 3515   2.256   4.167   1.551 -0.9321  0.3381 -0.7572
  867SOL    MW4 3516   2.274   4.248   1.579  0.0694 -0.1559  0.0715
  868SOL     OW 3517   2.476   4.381   1.468 -0.2144  0.6293  0.2766
  868SOL    HW2 3518   2.452   4.469   1.498 -1.3493  0.4676 -0.1139
  868SOL    HW3 3519   2.489   4.391   1.374  1.0268  0.6560  0.4471
  868SOL    MW4 3520   2.474   4.394   1.460 -0.2005  0.6118  0.2475
  869SOL     OW 3521   2.914   4.666   1.577  0.0801  0.3989  0.1016
  869SOL    HW2 3522   2.907   4.671   1.673  0.5873 -0.5896  0.1948
  869SOL    HW3 3523   2.839   4.716   1.545 -0.8714 -0.4171  1.0124
  869SOL    MW4 3524   2.903   4.673   1.586  0.0217  0.1612  0.2341
  870SOL     OW 3525   2.696   0.125   1.457  0.0714 -0.1545 -0.4436
  870SOL    HW2 3526   2.696   0.213   1.493  3.7793 -0.8207  1.4398
  870SOL    HW3 3527   2.621   0.082   1.497 -0.0053  1.2618  0.9646
  870SOL    MW4 3528   2.686   0.131   1.467  0.5507 -0.0555 -0.0092
  871SOL     OW 3529   2.690   0.408   1.566 -0.1659  0.2527  0.2033
  871SOL    HW2 3530   2.686   0.383   1.658 -0.1285 -0.3452  0.0491
  871SOL    HW3 3531   2.777   0.447   1.556 -0.4240  0.9153  0.5658
  871SOL    MW4 3532   2.701   0.410   1.577 -0.1950  0.2612  0.2307
  872SOL     OW 3533   2.941   0.531   1.522 -0.2707 -0.0782 -0.1849
  872SOL    HW2 3534   2.928   0.623   1.549  0.0121 -0.0421 -0.1778
  872SOL    HW3 3535   2.935   0.533   1.427  2.8048  0.4338 -0.4143
  872SOL    MW4 3536   2.938   0.544   1.513  0.1726 -0.0059 -0.2142
  873SOL     OW 3537   2.924   0.792   1.581 -0.0306 -0.3695 -0.0794
  873SOL    HW2 3538   2.927   0.787   1.676 -1.8030 -1.4667 -0.0558
  873SOL    HW3 3539   2.840   0.834   1.561  0.8611  0.9431 -1.1327
  873SOL    MW4 3540   2.913   0.797   1.591 -0.1466 -0.3411 -0.2152
  874SOL     OW 3541   2.682   0.893   1.497 -0.4232 -0.3217  0.5321
  874SOL    HW2 3542   2.603   0.861   1.541 -1.5496  1.4443 -0.1641
  874SOL    HW3 3543   2.668   0.872   1.404 -0.3159  0.4792  0.3345
  874SOL    MW4 3544   2.670   0.886   1.490 -0.5577  0.0170  0.4143
  875SOL     OW 3545   2.722   1.168   1.601 -0.4771 -0.3894  0.0989
  875SOL    HW2 3546   2.713   1.085   1.554 -1.1461 -0.2751  0.0126
  875SOL    HW3 3547   2.643   1.218   1.577 -0.3688  0.0376  0.6075
  875SOL    MW4 3548   2.710   1.164   1.592 -0.5507 -0.3179  0.1546
  876SOL     OW 3549   2.961   1.298   1.510 -0.2352  0.3107 -0.4018
  876SOL    HW2 3550   3.030   1.256   1.562 -0.1856  0.0102 -0.7098
  876SOL    HW3 3551   2.880   1.259   1.541 -0.2815  0.7777  0.0702
  876SOL    MW4 3552   2.960   1.287   1.521 -0.2351  0.3327 -0.3800
  877SOL     OW 3553   2.955   1.534   1.626 -0.0982 -0.0061  0.2273
  877SOL    HW2 3554   2.879   1.579   1.589  0.3767 -0.0601 -0.8305
  877SOL    HW3 3555   2.961   1.452   1.576  2.8167  1.6024 -2.2715
  877SOL    MW4 3556   2.946   1.529   1.615  0.3488  0.1990 -0.2420
  878SOL     OW 3557   2.718   1.642   1.522  0.0257 -0.2617 -0.0581
  878SOL    HW2 3558   2.685   1.728   1.549 -0.2489 -0.8959  1.6556
  878SOL    HW3 3559   2.744   1.655   1.431  2.2207  2.2861  0.8527
  878SOL    MW4 3560   2.717   1.655   1.513  0.2792 -0.0092  0.2882
  879SOL     OW 3561   2.663   1.896   1.593 -0.0505  0.0340  0.3031
  879SOL    HW2 3562   2.675   1.903   1.688  1.0672  1.9362  0.0417
  879SOL    HW3 3563   2.586   1.950   1.575  0.2236  0.3376  0.0310
  879SOL    MW4 3564   2.654   1.904   1.603  0.1333  0.3250  0.2327
  880SOL     OW 3565   2.901   2.026   1.530  0.7283  0.5129  0.1994
  880SOL    HW2 3566   2.898   2.117   1.560  0.5192  1.0097 -1.2787
  880SOL    HW3 3567   2.812   1.994   1.542  0.4998  0.8980 -0.4530
  880SOL    MW4 3568   2.889   2.033   1.536  0.6707  0.6294 -0.0818
  881SOL     OW 3569   2.922   2.304   1.604 -0.1962 -0.0803 -0.8516
  881SOL    HW2 3570   2.919   2.322   1.698  0.5443  1.1543 -1.0514
  881SOL    HW3 3571   2.849   2.354   1.568  0.1924  0.3259 -1.0717
  881SOL    MW4 3572   2.912   2.313   1.612 -0.0474  0.1359 -0.9071
  882SOL     OW 3573   2.723   2.457   1.474 -0.1372  0.1378 -0.0473
  882SOL    HW2 3574   2.718   2.547   1.507  1.8708 -0.0773  0.9294
  882SOL    HW3 3575   2.645   2.414   1.508  0.0535  0.9228  1.4054
  882SOL    MW4 3576   2.712   2.463   1.483  0.1528  0.2129  0.2732
  883SOL     OW 3577   2.701   2.710   1.597 -0.6311 -0.3157  0.4184
  883SOL    HW2 3578   2.778   2.759   1.570 -0.3611 -0.6218  0.6149
  883SOL    HW3 3579   2.627   2.764   1.573 -0.3056  0.6844  1.6067
  883SOL    MW4 3580   2.702   2.723   1.590 -0.5527 -0.2239  0.6012
  884SOL     OW 3581   2.911   2.860   1.513 -0.2717  0.5010  0.2676
  884SOL    HW2 3582   2.983   2.813   1.556  0.7272  0.4688 -1.4314
  884SOL    HW3 3583   2.923   2.951   1.540 -0.0308  0.3791  0.5777
  884SOL    MW4 3584   2.922   2.866   1.523 -0.1082  0.4807  0.0843
  885SOL     OW 3585   2.924   3.127   1.613  0.0170  0.4652  0.8595
  885SOL    HW2 3586   2.923   3.092   1.702  0.2854 -1.6789  0.0669
  885SOL    HW3 3587   3.014   3.158   1.600  0.3844 -0.5957  0.8361
  885SOL    MW4 3588   2.936   3.126   1.623  0.1004  0.0422  0.7517
  886SOL     OW 3589   2.685   3.236   1.515 -0.1567 -0.0332  0.6582
  886SOL    HW2 3590   2.767   3.194   1.540  0.5641  1.1597  0.3895
  886SOL    HW3 3591   2.693   3.248   1.420 -0.0488  1.2634  0.8132
  886SOL    MW4 3592   2.697   3.232   1.506 -0.0472  0.2952  0.6433
  887SOL     OW 3593   2.666   3.482   1.606 -0.1294 -0.3583  0.0788
  887SOL    HW2 3594   2.684   3.481   1.700 -0.9805  1.7820  0.2938
  887SOL    HW3 3595   2.682   3.392   1.578  1.5933 -0.6810  1.9872
  887SOL    MW4 3596   2.670   3.470   1.615 -0.0145 -0.1185  0.3591
  888SOL     OW 3597   2.896   3.600   1.491  0.1033 -0.8391 -0.3201
  888SOL    HW2 3598   2.821   3.546   1.519 -0.5856 -0.4146 -1.3172
  888SOL    HW3 3599   2.897   3.591   1.396  0.9720 -0.3691 -0.3547
  888SOL    MW4 3600   2.886   3.591   1.482  0.1273 -0.7210 -0.4562
  889SOL     OW 3601   2.934   3.876   1.604  0.1678  0.4326 -0.1687
  889SOL    HW2 3602   2.867   3.932   1.563  0.2014  0.0155 -0.8140
  889SOL    HW3 3603   2.916   3.789   1.568  1.0821  0.3281 -0.3781
  889SOL    MW4 3604   2.923   3.872   1.594  0.2925  0.3638 -0.2815
  890SOL     OW 3605   2.712   4.015   1.491 -0.0035  0.3954 -0.1081
  890SOL    HW2 3606   2.709   4.106   1.520 -1.5563  0.4388 -0.3977
  890SOL    HW3 3607   2.721   4.020   1.395 -1.5860  0.2512 -0.2712
  890SOL    MW4 3608   2.713   4.028   1.482 -0.4172  0.3824 -0.1677
  891SOL     OW 3609   2.699   4.265   1.615  0.4092 -0.1187 -0.0739
  891SOL    HW2 3610   2.766   4.318   1.572 -0.8622  1.0829 -0.6130
  891SOL    HW3 3611   2.616   4.303   1.586 -0.5163 -1.7486  0.3731
  891SOL    MW4 3612   2.697   4.277   1.606  0.1194 -0.1755 -0.0859
  892SOL     OW 3613   2.915   4.411   1.505  0.3765  0.2141 -0.0536
  892SOL    HW2 3614   2.923   4.498   1.543 -1.6913  0.7417 -0.7382
  892SOL    HW3 3615   2.921   4.424   1.411  1.5132 -0.5884 -0.1081
  892SOL    MW4 3616   2.917   4.424   1.498  0.2537  0.1779 -0.1512
  893SOL     OW 3617   3.332   0.024   1.622  0.1801  0.1800  0.3495
  893SOL    HW2 3618   3.420   0.053   1.596 -0.3179  0.0771 -1.4972
  893SOL    HW3 3619   3.322  -0.062   1.580 -1.5129  1.0255 -1.0586
  893SOL    MW4 3620   3.343   0.016   1.613 -0.1092  0.2780 -0.0800
  894SOL     OW 3621   3.137   0.157   1.502 -0.0002 -0.2126 -0.6445
  894SOL    HW2 3622   3.206   0.110   1.548 -0.7871 -0.0887  0.6734
  894SOL    HW3 3623   3.057   0.107   1.520 -0.3562 -0.0608 -1.7269
  894SOL    MW4 3624   3.135   0.144   1.510 -0.1512 -0.1763 -0.6135
  895SOL     OW 3625   3.153   0.411   1.647 -0.1334 -0.2243 -0.1452
  895SOL    HW2 3626   3.142   0.340   1.583 -0.7885 -0.3475  0.1014
  895SOL    HW3 3627   3.086   0.474   1.624  0.2527  0.1767 -0.1717
  895SOL    MW4 3628   3.143   0.410   1.635 -0.1693 -0.1877 -0.1161
  896SOL     OW 3629   3.378   0.497   1.505  0.0562  0.6985 -0.0554
  896SOL    HW2 3630   3.293   0.467   1.539  1.5799 -2.1817  1.4399
  896SOL    HW3 3631   3.369   0.494   1.410 -1.7343  1.1133  0.0894
  896SOL    MW4 3632   3.366   0.493   1.497  0.0210  0.3732  0.1609
  897SOL     OW 3633   3.354   0.756   1.582 -0.4939  0.2575  0.2696
  897SOL    HW2 3634   3.363   0.762   1.677  0.2142  1.1885  0.1485
  897SOL    HW3 3635   3.343   0.662   1.566  0.3156 -0.0062  1.1897
  897SOL    MW4 3636   3.354   0.744   1.593 -0.2935  0.3455  0.3750
  898SOL     OW 3637   3.130   0.911   1.464 -0.2451 -0.4298 -0.1426
  898SOL    HW2 3638   3.208   0.873   1.504 -1.4108 -0.5660  2.1097
  898SOL    HW3 3639   3.057   0.865   1.506 -1.5435 -0.2738 -2.1699
  898SOL    MW4 3640   3.130   0.900   1.475 -0.5701 -0.4271 -0.1129
  899SOL     OW 3641   3.168   1.169   1.626  0.0014  0.2463 -0.0088
  899SOL    HW2 3642   3.163   1.149   1.719 -0.9174 -1.0097 -0.3136
  899SOL    HW3 3643   3.172   1.084   1.583  1.4139  0.8254 -1.0806
  899SOL    MW4 3644   3.168   1.155   1.632  0.0665  0.1570 -0.1903
  900SOL     OW 3645   3.376   1.321   1.498  0.1702 -0.3987  0.1869
  900SOL    HW2 3646   3.449   1.273   1.535  0.0059  0.1905  1.2976
  900SOL    HW3 3647   3.299   1.287   1.543  0.0225  0.6850  0.7703
  900SOL    MW4 3648   3.375   1.310   1.509  0.1290 -0.1781  0.4104
  901SOL     OW 3649   3.391   1.580   1.623 -0.3147  0.1126 -0.0087
  901SOL    HW2 3650   3.389   1.557   1.716 -0.1337 -0.6213 -0.1806
  901SOL    HW3 3651   3.391   1.496   1.577 -1.9398  0.4832 -0.7063
  901SOL    MW4 3652   3.391   1.566   1.629 -0.5054  0.0646 -0.1234
  902SOL     OW 3653   3.164   1.658   1.505 -0.1696  0.1186  0.3118
  902SOL    HW2 3654   3.243   1.620   1.544  0.4621  0.5020 -0.5947
  902SOL    HW3 3655   3.092   1.615   1.552  0.5666 -0.1639  1.2079
  902SOL    MW4 3656   3.164   1.647   1.516  0.0110  0.1320  0.3104
  903SOL     OW 3657   3.130   1.913   1.629 -0.3502 -0.7419 -0.0090
  903SOL    HW2 3658   3.146   1.840   1.569 -0.2410 -0.2559 -0.5884
  903SOL    HW3 3659   3.044   1.947   1.603 -0.6571 -1.0307  0.6405
  903SOL    MW4 3660   3.121   1.908   1.618 -0.3762 -0.7159  0.0002
  904SOL     OW 3661   3.354   2.055   1.546  0.0819  0.0006 -0.0737
  904SOL    HW2 3662   3.272   2.015   1.575 -0.3342  1.5344  0.8938
  904SOL    HW3 3663   3.349   2.054   1.450 -0.8214 -0.3838 -0.0236
  904SOL    MW4 3664   3.343   2.049   1.537 -0.0923  0.1523  0.0606
  905SOL     OW 3665   3.351   2.315   1.625  0.2289  0.0299  0.0766
  905SOL    HW2 3666   3.431   2.353   1.589  1.2419 -1.3107  0.8620
  905SOL    HW3 3667   3.345   2.229   1.584 -1.0814  0.3006 -0.3305
  905SOL    MW4 3668   3.361   2.309   1.615  0.1895 -0.1109  0.1266
  906SOL     OW 3669   3.129   2.460   1.502 -0.2029  0.1610 -0.1228
  906SOL    HW2 3670   3.203   2.416   1.544  0.9781  0.5063 -1.8141
  906SOL    HW3 3671   3.052   2.422   1.544  0.8689 -1.6724  0.2396
  906SOL    MW4 3672   3.128   2.449   1.513  0.0942 -0.0353 -0.2983
  907SOL     OW 3673   3.136   2.722   1.597 -0.1793 -0.6948 -0.0494
  907SOL    HW2 3674   3.218   2.759   1.565 -0.8776  0.4676 -0.5733
  907SOL    HW3 3675   3.139   2.630   1.571  1.0764 -0.7320  0.2017
  907SOL    MW4 3676   3.147   2.715   1.589 -0.1059 -0.5462 -0.0855
  908SOL     OW 3677   3.392   2.822   1.505 -0.0210 -0.7659  0.9081
  908SOL    HW2 3678   3.386   2.907   1.549  0.5277 -1.1294  1.7007
  908SOL    HW3 3679   3.385   2.842   1.412 -0.6128  0.0768  1.1322
  908SOL    MW4 3680   3.390   2.835   1.499 -0.0267 -0.7026  1.0421
  909SOL     OW 3681   3.385   3.069   1.638 -0.2432 -0.4383  0.3716
  909SOL    HW2 3682   3.376   3.067   1.733  0.1280 -1.4101  0.3839
  909SOL    HW3 3683   3.442   3.144   1.621 -0.1086 -0.4130  0.9310
  909SOL    MW4 3684   3.391   3.079   1.648 -0.1764 -0.5631  0.4470
  910SOL     OW 3685   3.163   3.237   1.552  0.0694 -0.1075 -0.4628
  910SOL    HW2 3686   3.240   3.189   1.585 -0.5178 -1.2767 -0.7799
  910SOL    HW3 3687   3.150   3.203   1.464 -1.2922 -0.4870 -0.1168
  910SOL    MW4 3688   3.172   3.226   1.545 -0.1876 -0.3119 -0.4591
  911SOL     OW 3689   3.156   3.512   1.573 -0.1741 -0.2802  0.4081
  911SOL    HW2 3690   3.139   3.418   1.572 -3.1898  0.1930  1.7462
  911SOL    HW3 3691   3.084   3.550   1.523  0.7140  1.3894  0.3570
  911SOL    MW4 3692   3.144   3.505   1.566 -0.4551  0.0026  0.5779
  912SOL     OW 3693   3.405   3.616   1.498  0.1684 -0.1880  0.1130
  912SOL    HW2 3694   3.480   3.565   1.531 -0.0630 -0.4252  0.2810
  912SOL    HW3 3695   3.329   3.574   1.538 -0.0679 -0.0547 -0.1946
  912SOL    MW4 3696   3.405   3.603   1.508  0.1068 -0.2017  0.0947
  913SOL     OW 3697   3.373   3.861   1.600  0.0312  0.2656  0.3474
  913SOL    HW2 3698   3.292   3.894   1.559  0.3693 -0.7344 -1.1891
  913SOL    HW3 3699   3.381   3.771   1.567  0.7388 -0.3075  2.0455
  913SOL    MW4 3700   3.363   3.853   1.590  0.1693  0.0582  0.3688
  914SOL     OW 3701   3.150   3.986   1.469 -0.3539 -0.0601  0.1683
  914SOL    HW2 3702   3.137   4.077   1.497 -0.5807  0.1125 -0.4827
  914SOL    HW3 3703   3.077   3.939   1.509 -0.5842  0.1549  0.0025
  914SOL    MW4 3704   3.138   3.992   1.478 -0.4141 -0.0088  0.0604
  915SOL     OW 3705   3.127   4.242   1.579 -0.5041  0.0159  0.0702
  915SOL    HW2 3706   3.128   4.271   1.670 -1.4069 -0.6904  0.3110
  915SOL    HW3 3707   3.046   4.279   1.543  0.4436  1.3125 -0.7892
  915SOL    MW4 3708   3.116   4.251   1.586 -0.4983  0.0935 -0.0113
  916SOL     OW 3709   3.317   4.443   1.502  0.1707 -0.0967  0.6616
  916SOL    HW2 3710   3.265   4.368   1.532 -0.1809 -0.1451 -0.0573
  916SOL    HW3 3711   3.336   4.423   1.410  1.2532  0.0416  0.8546
  916SOL    MW4 3712   3.312   4.430   1.494  0.2670 -0.0844  0.5921
  917SOL     OW 3713   3.811   4.600   1.604 -0.2727  0.2629  0.8334
  917SOL    HW2 3714   3.801   4.612   1.699 -0.0923 -0.2052  0.9150
  917SOL    HW3 3715   3.898   4.634   1.584 -0.4934  0.7789  0.7640
  917SOL    MW4 3716   3.821   4.606   1.614 -0.2780  0.2694  0.8349
  918SOL     OW 3717   3.583   0.128   1.549 -0.2147  0.3082 -0.0911
  918SOL    HW2 3718   3.657   0.068   1.561  0.2953  0.9009 -0.2113
  918SOL    HW3 3719   3.575   0.138   1.454  0.3754  1.2328 -0.0573
  918SOL    MW4 3720   3.592   0.122   1.538 -0.0694  0.5084 -0.1026
  919SOL     OW 3721   3.605   0.383   1.648 -0.0948  0.7017  0.3266
  919SOL    HW2 3722   3.611   0.293   1.617  1.3580  1.4453 -1.7179
  919SOL    HW3 3723   3.525   0.416   1.608  0.7825  1.0854 -1.1775
  919SOL    MW4 3724   3.595   0.376   1.638  0.2127  0.8504 -0.1416
  920SOL     OW 3725   3.818   0.507   1.509  0.1481 -0.0324 -0.2752
  920SOL    HW2 3726   3.745   0.464   1.554  0.4608 -0.1694  0.1060
  920SOL    HW3 3727   3.803   0.491   1.416  1.3395 -2.7005 -0.0540
  920SOL    MW4 3728   3.807   0.499   1.503  0.3464 -0.4025 -0.1956
  921SOL     OW 3729   3.831   0.765   1.611  0.4427  0.4126  0.0094
  921SOL    HW2 3730   3.755   0.804   1.569  0.7579  0.4769 -0.5105
  921SOL    HW3 3731   3.830   0.674   1.581  0.5861  0.4220 -0.0246
  921SOL    MW4 3732   3.821   0.758   1.601  0.5031  0.4224 -0.0637
  922SOL     OW 3733   3.599   0.861   1.500 -0.3473  0.1898 -0.0112
  922SOL    HW2 3734   3.515   0.817   1.510  0.3847 -1.4255 -0.5992
  922SOL    HW3 3735   3.599   0.892   1.410 -1.0198  1.7762  0.5181
  922SOL    MW4 3736   3.588   0.859   1.490 -0.3395  0.1860 -0.0190
  923SOL     OW 3737   3.595   1.152   1.592 -0.2361 -0.3565 -0.0869
  923SOL    HW2 3738   3.673   1.200   1.564 -0.2773 -0.1409  0.1715
  923SOL    HW3 3739   3.605   1.066   1.551 -0.8963  0.3464 -1.7318
  923SOL    MW4 3740   3.607   1.147   1.583 -0.3290 -0.2352 -0.2699
  924SOL     OW 3741   3.820   1.286   1.486  0.3556  0.0500  0.0901
  924SOL    HW2 3742   3.893   1.245   1.532  0.2122  0.4034  0.6430
  924SOL    HW3 3743   3.829   1.379   1.506 -2.4688 -0.2771  3.3970
  924SOL    MW4 3744   3.831   1.293   1.495 -0.0360  0.0534  0.5994
  925SOL     OW 3745   3.853   1.556   1.593  0.7784  0.1581 -0.0092
  925SOL    HW2 3746   3.854   1.557   1.689  0.1607  2.9882  0.0023
  925SOL    HW3 3747   3.780   1.612   1.568  0.6844 -0.8593 -2.1507
  925SOL    MW4 3748   3.844   1.563   1.602  0.6845  0.3972 -0.2904
  926SOL     OW 3749   3.631   1.705   1.538  0.2101  0.1219 -0.1465
  926SOL    HW2 3750   3.554   1.665   1.579  0.0968  0.2053 -0.2782
  926SOL    HW3 3751   3.609   1.709   1.445  0.4159  0.0528 -0.1970
  926SOL    MW4 3752   3.618   1.700   1.531  0.2222  0.1236 -0.1705
  927SOL     OW 3753   3.598   1.957   1.633 -0.1279 -0.1122  0.0103
  927SOL    HW2 3754   3.601   1.868   1.599 -1.0861 -0.3580  0.5343
  927SOL    HW3 3755   3.513   1.991   1.604  0.6658  1.0037 -1.0832
  927SOL    MW4 3756   3.587   1.950   1.625 -0.1497  0.0026 -0.0648
  928SOL     OW 3757   3.847   2.027   1.533 -0.4483  0.2358  0.0930
  928SOL    HW2 3758   3.855   2.122   1.546 -1.8700  0.5998 -1.5588
  928SOL    HW3 3759   3.766   2.003   1.577  0.2420 -0.3511  1.0784
  928SOL    MW4 3760   3.837   2.036   1.541 -0.5448  0.2065  0.0049
  929SOL     OW 3761   3.837   2.316   1.560  0.5378  0.2517 -0.3985
  929SOL    HW2 3762   3.836   2.312   1.656  0.0506  1.4576 -0.3413
  929SOL    HW3 3763   3.909   2.375   1.539 -0.1950  1.0500 -0.7157
  929SOL    MW4 3764   3.846   2.323   1.570  0.3769  0.5164 -0.4327
  930SOL     OW 3765   3.587   2.444   1.510  0.2234  0.3192  0.1511
  930SOL    HW2 3766   3.599   2.534   1.539  0.9275  0.5363 -0.7897
  930SOL    HW3 3767   3.664   2.397   1.543  1.2510  0.6619 -1.7006
  930SOL    MW4 3768   3.599   2.449   1.518  0.4518  0.3932 -0.2172
  931SOL     OW 3769   3.617   2.693   1.609 -0.2819  0.6595  0.0116
  931SOL    HW2 3770   3.606   2.679   1.703  0.1029 -0.1467 -0.0521
  931SOL    HW3 3771   3.541   2.745   1.583  0.5542  2.4641  1.0979
  931SOL    MW4 3772   3.605   2.698   1.618 -0.1206  0.7913  0.1465
  932SOL     OW 3773   3.849   2.822   1.512 -0.5101  0.5780 -0.0275
  932SOL    HW2 3774   3.911   2.772   1.567  0.4503  0.9770 -0.7358
  932SOL    HW3 3775   3.763   2.788   1.536 -0.0934  0.6273  1.6184
  932SOL    MW4 3776   3.846   2.811   1.523 -0.3285  0.6371  0.0961
  933SOL     OW 3777   3.861   3.073   1.612 -0.4782  0.3478  0.3133
  933SOL    HW2 3778   3.926   3.127   1.568 -1.0195  1.7499  1.2029
  933SOL    HW3 3779   3.871   2.986   1.573  1.1252  0.8292 -0.3772
  933SOL    MW4 3780   3.871   3.068   1.601 -0.3383  0.5960  0.3395
  934SOL     OW 3781   3.617   3.216   1.559  0.1766  0.3626 -0.0195
  934SOL    HW2 3782   3.695   3.168   1.588  0.4083 -0.1665 -1.4556
  934SOL    HW3 3783   3.616   3.203   1.464 -1.0622  1.2774 -0.1332
  934SOL    MW4 3784   3.627   3.208   1.550  0.0441  0.4134 -0.2241
  935SOL     OW 3785   3.625   3.477   1.619  0.0527  0.1624 -0.1123
  935SOL    HW2 3786   3.702   3.501   1.568 -0.1059  0.8664 -0.0265
  935SOL    HW3 3787   3.620   3.382   1.612  1.8061 -0.0535  1.0993
  935SOL    MW4 3788   3.634   3.468   1.612  0.2632  0.2267  0.0589
  936SOL     OW 3789   3.870   3.590   1.460 -0.1578  0.1267  0.2311
  936SOL    HW2 3790   3.929   3.557   1.529 -2.0800 -1.5829  1.1042
  936SOL    HW3 3791   3.859   3.683   1.482  0.7897  0.0552  1.0964
  936SOL    MW4 3792   3.876   3.598   1.472 -0.2863 -0.1085  0.4604
  937SOL     OW 3793   3.809   3.848   1.579  0.0196  0.1568 -0.0979
  937SOL    HW2 3794   3.887   3.885   1.538  1.1263 -1.7338  0.2345
  937SOL    HW3 3795   3.736   3.899   1.543  1.3220  1.2721 -1.1936
  937SOL    MW4 3796   3.810   3.859   1.569  0.3374  0.0546 -0.1987
  938SOL     OW 3797   3.586   4.021   1.502  0.4843 -0.1623  0.3189
  938SOL    HW2 3798   3.567   4.111   1.528 -0.4872  0.0037 -0.9342
  938SOL    HW3 3799   3.513   3.970   1.538  0.4446 -0.2853  0.0662
  938SOL    MW4 3800   3.574   4.026   1.510  0.3510 -0.1564  0.1203
  939SOL     OW 3801   3.560   4.285   1.577 -0.1387 -0.4949  0.0817
  939SOL    HW2 3802   3.573   4.292   1.672  1.5413 -2.0365 -0.0279
  939SOL    HW3 3803   3.487   4.344   1.560 -1.4761 -1.3272  2.5607
  939SOL    MW4 3804   3.552   4.294   1.588 -0.0935 -0.8087  0.3942
  940SOL     OW 3805   3.806   4.356   1.457  0.0932 -0.2411  0.3334
  940SOL    HW2 3806   3.728   4.311   1.488  0.2533 -0.1238  0.9119
  940SOL    HW3 3807   3.806   4.440   1.503 -1.6414  1.5218 -2.7031
  940SOL    MW4 3808   3.796   4.361   1.467 -0.1147  0.0067  0.0091
  941SOL     OW 3809   4.278   4.619   1.636 -0.7071  0.3099  0.2357
  941SOL    HW2 3810   4.288   4.613   1.730  2.1941 -1.1571 -0.1171
  941SOL    HW3 3811   4.262   4.529   1.607 -0.5229  0.5862 -0.7623
  941SOL    MW4 3812   4.277   4.607   1.644 -0.2999  0.1531  0.0576
  942SOL     OW 3813   4.047   0.061   1.546 -0.1634 -0.5370 -0.2870
  942SOL    HW2 3814   4.036   0.152   1.572  1.3931 -0.3353 -0.2641
  942SOL    HW3 3815   4.135   0.038   1.576 -0.1222 -1.7144 -1.2607
  942SOL    MW4 3816   4.057   0.070   1.553  0.0472 -0.6657 -0.4123
  943SOL     OW 3817   4.035   0.372   1.583  0.1235 -0.2495  0.1051
  943SOL    HW2 3818   4.033   0.379   1.679  0.6379  1.9002 -0.0127
  943SOL    HW3 3819   3.955   0.415   1.554  0.1209 -0.6265 -0.4440
  943SOL    MW4 3820   4.024   0.379   1.592  0.1907 -0.0156  0.0172
  944SOL     OW 3821   4.272   0.514   1.512 -0.1161  0.1932 -0.0783
  944SOL    HW2 3822   4.191   0.469   1.536  0.2764 -0.1420  0.6365
  944SOL    HW3 3823   4.341   0.452   1.535  0.3987  0.9583  0.4506
  944SOL    MW4 3824   4.270   0.500   1.518  0.0033  0.2499  0.0858
  945SOL     OW 3825   4.267   0.788   1.602  0.4662  0.6203 -0.4152
  945SOL    HW2 3826   4.272   0.697   1.574 -0.8434  0.2840  0.3999
  945SOL    HW3 3827   4.348   0.828   1.569  0.9463 -0.7764 -0.9581
  945SOL    MW4 3828   4.278   0.781   1.594  0.3567  0.3916 -0.3793
  946SOL     OW 3829   4.041   0.918   1.515 -0.1487 -0.1625 -0.0907
  946SOL    HW2 3830   4.121   0.878   1.548 -0.1611 -0.6404 -0.6357
  946SOL    HW3 3831   3.970   0.864   1.550 -0.1955 -0.2417 -0.3085
  946SOL    MW4 3832   4.042   0.906   1.524 -0.1564 -0.2360 -0.1913
  947SOL     OW 3833   4.040   1.179   1.607 -0.1068  0.3365  0.5059
  947SOL    HW2 3834   4.033   1.166   1.701  0.9354 -0.2660  0.5011
  947SOL    HW3 3835   4.034   1.091   1.570  2.8661  0.1948  0.2287
  947SOL    MW4 3836   4.038   1.165   1.614  0.4230  0.2383  0.4689
  948SOL     OW 3837   4.290   1.256   1.470 -0.1410 -0.2698  0.1294
  948SOL    HW2 3838   4.203   1.236   1.504 -0.5471 -0.5346 -1.0406
  948SOL    HW3 3839   4.350   1.225   1.538 -0.8977 -1.9089  0.0783
  948SOL    MW4 3840   4.287   1.249   1.483 -0.2947 -0.5209 -0.0317
  949SOL     OW 3841   4.297   1.505   1.602  0.3424  0.3498 -0.3823
  949SOL    HW2 3842   4.312   1.419   1.561 -0.2827  0.3891 -0.7172
  949SOL    HW3 3843   4.377   1.554   1.585  0.6230 -0.0986 -0.3730
  949SOL    MW4 3844   4.309   1.500   1.594  0.2975  0.2959 -0.4252
  950SOL     OW 3845   4.089   1.656   1.490 -0.0308 -0.0377  0.3997
  950SOL    HW2 3846   4.165   1.609   1.526  0.5720  1.3021  0.9053
  950SOL    HW3 3847   4.015   1.623   1.542  0.0387 -2.0783 -0.7595
  950SOL    MW4 3848   4.089   1.645   1.502  0.0582 -0.1302  0.3135
  951SOL     OW 3849   4.079   1.908   1.607 -0.3226  0.1607  0.0907
  951SOL    HW2 3850   4.084   1.826   1.557  0.0655  0.6725 -0.7030
  951SOL    HW3 3851   3.992   1.943   1.587 -0.6417 -0.2483  0.7362
  951SOL    MW4 3852   4.068   1.902   1.598 -0.3138  0.1744  0.0713
  952SOL     OW 3853   4.301   2.042   1.510 -0.0707  0.1934 -0.5202
  952SOL    HW2 3854   4.223   2.001   1.545 -0.1964  1.1491  0.3539
  952SOL    HW3 3855   4.281   2.057   1.417 -0.2113 -1.2161 -0.7200
  952SOL    MW4 3856   4.288   2.039   1.502 -0.1054  0.1335 -0.4313
  953SOL     OW 3857   4.240   2.297   1.608  0.2551  0.2253 -0.3945
  953SOL    HW2 3858   4.250   2.271   1.699 -1.6068  0.1890 -0.1767
  953SOL    HW3 3859   4.259   2.218   1.557  3.6451  0.8540 -0.1720
  953SOL    MW4 3860   4.244   2.283   1.613  0.4568  0.3033 -0.3365
  954SOL     OW 3861   4.065   2.442   1.454 -0.0018  0.1868 -0.1993
  954SOL    HW2 3862   4.054   2.522   1.505  0.1328  0.0176  0.0924
  954SOL    HW3 3863   4.130   2.391   1.502  1.1908  0.6520 -1.2764
  954SOL    MW4 3864   4.072   2.446   1.467  0.1731  0.2258 -0.3030
  955SOL     OW 3865   4.035   2.663   1.631  0.3655 -0.0663 -0.2783
  955SOL    HW2 3866   4.037   2.655   1.727  0.5059  1.0611 -0.1842
  955SOL    HW3 3867   4.102   2.728   1.611 -1.2483  1.4488 -0.9477
  955SOL    MW4 3868   4.044   2.670   1.641  0.1717  0.2823 -0.3541
  956SOL     OW 3869   4.250   2.824   1.542  0.1327  0.5490  0.2373
  956SOL    HW2 3870   4.272   2.910   1.577  0.5990  0.4690  0.1462
  956SOL    HW3 3871   4.248   2.837   1.447  1.3980  0.1973  0.1465
  956SOL    MW4 3872   4.253   2.837   1.534  0.3610  0.4921  0.2134
  957SOL     OW 3873   4.272   3.104   1.595  0.1385 -0.6036 -0.2116
  957SOL    HW2 3874   4.288   3.103   1.689 -1.3586  0.4566  0.0766
  957SOL    HW3 3875   4.352   3.139   1.557  0.6450 -0.7638  0.7040
  957SOL    MW4 3876   4.284   3.109   1.602  0.0076 -0.4852 -0.0528
  958SOL     OW 3877   4.040   3.241   1.505 -0.4415  0.3249 -0.3359
  958SOL    HW2 3878   4.051   3.320   1.559  0.8855  0.3545 -0.6294
  958SOL    HW3 3879   4.122   3.194   1.516 -1.0574 -0.7976 -0.5369
  958SOL    MW4 3880   4.052   3.246   1.514 -0.3471  0.1807 -0.4011
  959SOL     OW 3881   4.073   3.480   1.631 -0.2898 -0.0557  0.2054
  959SOL    HW2 3882   4.068   3.508   1.722  0.0564  0.4105  0.0802
  959SOL    HW3 3883   4.157   3.514   1.599  0.1948 -1.3214  0.0840
  959SOL    MW4 3884   4.084   3.488   1.639 -0.1802 -0.1614  0.1729
  960SOL     OW 3885   4.302   3.596   1.511 -0.6758  0.6597 -0.3752
  960SOL    HW2 3886   4.301   3.692   1.516 -0.3535  0.6459 -0.0325
  960SOL    HW3 3887   4.296   3.577   1.417 -4.3338  0.9567 -0.2754
  960SOL    MW4 3888   4.301   3.607   1.499 -1.1158  0.6974 -0.3166
  961SOL     OW 3889   4.279   3.890   1.573 -0.0189  0.0526 -0.0776
  961SOL    HW2 3890   4.194   3.925   1.548 -0.2300 -0.8009 -0.5741
  961SOL    HW3 3891   4.342   3.944   1.526 -0.2951  0.4317 -0.0195
  961SOL    MW4 3892   4.276   3.902   1.564 -0.0830 -0.0100 -0.1354
  962SOL     OW 3893   4.032   3.966   1.471 -0.2801 -0.1161 -0.2724
  962SOL    HW2 3894   4.026   4.047   1.522  0.4034  0.0098 -0.3808
  962SOL    HW3 3895   4.053   3.995   1.382 -1.8278 -0.3174 -0.7181
  962SOL    MW4 3896   4.034   3.981   1.466 -0.3939 -0.1256 -0.3455
  963SOL     OW 3897   4.013   4.212   1.587 -0.1348  0.0261 -0.4021
  963SOL    HW2 3898   4.014   4.235   1.679 -0.5027  1.1426 -0.6745
  963SOL    HW3 3899   3.937   4.257   1.551  0.6370  0.5108 -1.4831
  963SOL    MW4 3900   4.003   4.221   1.594 -0.0815  0.2375 -0.5805
  964SOL     OW 3901   4.246   4.364   1.531  0.2187 -0.2331 -0.4438
  964SOL    HW2 3902   4.161   4.324   1.548  0.0881 -1.3238 -3.4708
  964SOL    HW3 3903   4.243   4.389   1.439  2.8638  0.5424 -0.3563
  964SOL    MW4 3904   4.234   4.362   1.521  0.5507 -0.2751 -0.8317
  965SOL     OW 3905   0.207   4.661   1.917 -0.2863 -0.2469 -0.5564
  965SOL    HW2 3906   0.287   4.713   1.928  0.8248 -1.8998 -0.6690
  965SOL    HW3 3907   0.199   4.648   1.823 -1.1374  0.5817 -0.6066
  965SOL    MW4 3908   0.216   4.667   1.906 -0.2520 -0.3562 -0.5779
  966SOL     OW 3909   0.005   0.149   2.026 -0.1059 -0.2413 -0.0804
  966SOL    HW2 3910   0.011   0.236   1.986  1.3526 -0.4245 -0.2840
  966SOL    HW3 3911   0.074   0.098   1.983 -1.0187 -1.5386 -0.0433
  966SOL    MW4 3912   0.015   0.153   2.015 -0.0339 -0.4366 -0.1023
  967SOL     OW 3913   0.034   0.390   1.857 -0.0698  0.1979 -0.1276
  967SOL    HW2 3914  -0.038   0.438   1.897  0.2487  0.4568  0.1378
  967SOL    HW3 3915   0.111   0.416   1.907  0.0284 -0.9799  0.3567
  967SOL    MW4 3916   0.035   0.400   1.869 -0.0149  0.0767 -0.0286
  968SOL     OW 3917   0.260   0.501   1.986 -0.0223 -0.2848 -0.2339
  968SOL    HW2 3918   0.334   0.464   1.938  0.7803  0.4251  0.4485
  968SOL    HW3 3919   0.237   0.580   1.938 -0.1613 -0.3582 -0.2886
  968SOL    MW4 3920   0.267   0.507   1.973  0.0653 -0.2009 -0.1513
  969SOL     OW 3921   0.220   0.757   1.885 -0.0713  0.1340  0.2703
  969SOL    HW2 3922   0.299   0.801   1.917 -0.3421  0.3981  0.5868
  969SOL    HW3 3923   0.209   0.788   1.796  1.0334 -1.0707 -0.2940
  969SOL    MW4 3924   0.229   0.767   1.878  0.0387  0.0098  0.2375
  970SOL     OW 3925   0.015   0.844   2.043 -0.1190 -0.1186 -0.0446
  970SOL    HW2 3926  -0.064   0.816   1.997 -1.1217  0.5579  1.2434
  970SOL    HW3 3927   0.087   0.809   1.990 -1.2529 -0.0773 -1.6681
  970SOL    MW4 3928   0.014   0.836   2.030 -0.4009 -0.0238 -0.0887
  971SOL     OW 3929   0.016   1.069   1.884  0.1569  0.0894  0.0384
  971SOL    HW2 3930  -0.064   1.114   1.911 -0.1958  0.0266 -0.8753
  971SOL    HW3 3931   0.013   0.985   1.931  0.1310  0.4464  0.6818
  971SOL    MW4 3932   0.005   1.064   1.894  0.1068  0.1283  0.0027
  972SOL     OW 3933   0.191   1.243   1.999  0.1784 -0.3180  0.2676
  972SOL    HW2 3934   0.165   1.327   1.960 -0.6346 -0.4318  0.5695
  972SOL    HW3 3935   0.121   1.183   1.976  1.5805 -1.3712 -1.4338
  972SOL    MW4 3936   0.179   1.246   1.991  0.2561 -0.4719  0.0830
  973SOL     OW 3937   0.196   1.514   1.918  0.1283 -0.1804 -0.0947
  973SOL    HW2 3938   0.276   1.560   1.941 -0.3127 -0.2019  1.5454
  973SOL    HW3 3939   0.127   1.561   1.964 -0.9472  0.4289 -2.2601
  973SOL    MW4 3940   0.197   1.526   1.927 -0.0718 -0.1028 -0.1639
  974SOL     OW 3941   4.484   1.659   2.033  0.0819 -0.3127 -0.1373
  974SOL    HW2 3942   4.462   1.658   2.126  0.9064 -0.0815  0.0674
  974SOL    HW3 3943   4.413   1.611   1.990  0.4608 -1.6994  0.7816
  974SOL    MW4 3944   4.472   1.652   2.039  0.2403 -0.4653  0.0112
  975SOL     OW 3945   4.471   1.906   1.901  0.0108 -0.0743 -0.0986
  975SOL    HW2 3946   4.404   1.954   1.949 -0.1436 -0.7742  0.3920
  975SOL    HW3 3947   4.470   1.818   1.939  1.0685 -0.1457 -0.2181
  975SOL    MW4 3948   4.462   1.901   1.912  0.1297 -0.1761 -0.0497
  976SOL     OW 3949   0.209   2.052   1.974  0.1986 -0.4368  0.2659
  976SOL    HW2 3950   0.184   2.142   1.954  0.1482 -0.4831  0.1239
  976SOL    HW3 3951   0.137   1.999   1.940  0.2260 -0.5309  0.3546
  976SOL    MW4 3952   0.196   2.057   1.967  0.1956 -0.4554  0.2588
  977SOL     OW 3953   0.195   2.310   1.910  0.0273 -0.3320  0.0083
  977SOL    HW2 3954   0.266   2.356   1.955  0.3539 -0.0741 -0.7604
  977SOL    HW3 3955   0.117   2.360   1.932  0.4052  0.7125 -0.9649
  977SOL    MW4 3956   0.194   2.323   1.919  0.1203 -0.1602 -0.2215
  978SOL     OW 3957   4.447   2.413   2.004  0.3024  0.1356 -0.0610
  978SOL    HW2 3958   4.434   2.418   2.099  1.8510 -0.9007  0.2303
  978SOL    HW3 3959   4.459   2.504   1.977 -0.3145  0.4568  0.7000
  978SOL    MW4 3960   4.447   2.426   2.013  0.4253  0.0410  0.0777
  979SOL     OW 3961   0.001   2.668   1.904 -0.2685 -0.2735 -0.2246
  979SOL    HW2 3962  -0.069   2.727   1.932 -1.2363 -1.5077  0.0154
  979SOL    HW3 3963   0.006   2.679   1.809 -0.5821  0.0546 -0.2021
  979SOL    MW4 3964  -0.007   2.677   1.895 -0.4376 -0.3929 -0.1900
  980SOL     OW 3965   0.241   2.808   1.981 -0.7458  0.3014 -0.3070
  980SOL    HW2 3966   0.242   2.898   1.947 -0.0907  1.0391  1.5631
  980SOL    HW3 3967   0.163   2.768   1.944 -1.4621  1.9052 -0.5546
  980SOL    MW4 3968   0.231   2.815   1.972 -0.7539  0.6101 -0.0929
  981SOL     OW 3969   0.229   3.086   1.868 -0.6483 -0.5717 -0.0677
  981SOL    HW2 3970   0.311   3.129   1.895  0.0593 -2.3362  0.6293
  981SOL    HW3 3971   0.242   3.068   1.775  0.2591 -1.9310  0.3096
  981SOL    MW4 3972   0.242   3.090   1.859 -0.4352 -0.9837  0.0741
  982SOL     OW 3973   0.012   3.207   1.968 -0.2171  0.1621  0.0402
  982SOL    HW2 3974  -0.062   3.173   1.918 -0.1368 -1.2847  0.8659
  982SOL    HW3 3975   0.089   3.171   1.925 -0.0259  1.0363 -0.3540
  982SOL    MW4 3976   0.012   3.198   1.956 -0.1813  0.0865  0.0970
  983SOL     OW 3977   4.484   3.458   1.857 -0.2023 -0.0290  0.2905
  983SOL    HW2 3978   4.547   3.520   1.894 -0.3903  0.5891 -0.3951
  983SOL    HW3 3979   4.498   3.377   1.906  2.6939 -0.6045 -1.3331
  983SOL    MW4 3980   4.494   3.456   1.868  0.1550 -0.0234 -0.0141
  984SOL     OW 3981   0.183   3.621   1.980  0.2010 -0.0301 -0.0916
  984SOL    HW2 3982   0.185   3.614   2.076 -2.0137  0.5697  0.0375
  984SOL    HW3 3983   0.261   3.573   1.951  1.5168  0.7169  2.0432
  984SOL    MW4 3984   0.194   3.613   1.989  0.0824  0.1476  0.2072
  985SOL     OW 3985   0.211   3.858   1.868 -0.0110 -0.2716 -0.3910
  985SOL    HW2 3986   0.298   3.883   1.898 -0.5252  0.3108  0.6229
  985SOL    HW3 3987   0.192   3.777   1.915 -0.6525  0.4295  0.5648
  985SOL    MW4 3988   0.220   3.850   1.878 -0.1635 -0.1023 -0.1311
  986SOL     OW 3989   0.002   3.987   1.986  0.0908  0.2573  0.6721
  986SOL    HW2 3990   0.012   4.078   1.961 -0.5264  0.3453  0.7227
  986SOL    HW3 3991   0.084   3.945   1.959  0.7330  0.9989  1.4614
  986SOL    MW4 3992   0.014   3.993   1.979  0.0939  0.3667  0.7830
  987SOL     OW 3993   0.024   4.258   1.892  0.2571 -0.2703  0.0499
  987SOL    HW2 3994  -0.055   4.305   1.917 -0.4069 -0.7267 -1.1456
  987SOL    HW3 3995   0.095   4.306   1.934 -0.5571  0.7767  0.2436
  987SOL    MW4 3996   0.023   4.270   1.901  0.0621 -0.1922 -0.0824
  988SOL     OW 3997   0.241   4.397   1.993 -0.3195 -0.1893 -0.3328
  988SOL    HW2 3998   0.212   4.404   2.084 -2.6976  0.2515 -1.1032
  988SOL    HW3 3999   0.250   4.488   1.964  0.8529 -0.3295 -0.4282
  988SOL    MW4 4000   0.239   4.410   2.002 -0.4786 -0.1502 -0.4468
  989SOL     OW 4001   0.667   4.620   1.909 -0.5286  0.2076 -0.4347
  989SOL    HW2 4002   0.666   4.528   1.935 -1.1211  0.4094  0.2839
  989SOL    HW3 4003   0.663   4.619   1.814  0.1512 -0.5247 -0.4588
  989SOL    MW4 4004   0.666   4.608   1.900 -0.5171  0.1383 -0.3430
  990SOL     OW 4005   0.448   0.123   1.998  0.2975 -0.1060 -0.7542
  990SOL    HW2 4006   0.450   0.212   1.963  1.9469  0.1197 -0.1461
  990SOL    HW3 4007   0.522   0.079   1.955 -0.1485 -1.0067 -0.6090
  990SOL    MW4 4008   0.458   0.129   1.988  0.4563 -0.1951 -0.6548
  991SOL     OW 4009   0.472   0.361   1.862  0.5836 -0.1228  0.4501
  991SOL    HW2 4010   0.562   0.390   1.873  0.4997  0.1601  0.4157
  991SOL    HW3 4011   0.458   0.361   1.768  1.0068 -1.6179  0.3837
  991SOL    MW4 4012   0.482   0.365   1.851  0.6284 -0.2828  0.4368
  992SOL     OW 4013   0.705   0.508   1.967  0.1602  0.3546 -0.0407
  992SOL    HW2 4014   0.696   0.501   2.062  0.2064  1.3468  0.0338
  992SOL    HW3 4015   0.791   0.470   1.949  0.7556  1.4533  0.4665
  992SOL    MW4 4016   0.715   0.502   1.977  0.2449  0.6304  0.0360
  993SOL     OW 4017   0.676   0.757   1.862  0.3355  0.2780 -0.4775
  993SOL    HW2 4018   0.753   0.801   1.898  0.0048 -0.7616  1.5839
  993SOL    HW3 4019   0.677   0.670   1.902 -2.9476  0.8891  1.1020
  993SOL    MW4 4020   0.686   0.751   1.872 -0.1413  0.2215  0.0027
  994SOL     OW 4021   0.440   0.864   1.988 -0.1341 -0.3708 -0.6687
  994SOL    HW2 4022   0.428   0.958   1.973  0.3120 -0.2744 -0.4248
  994SOL    HW3 4023   0.515   0.841   1.934  1.1483 -0.1300  1.0026
  994SOL    MW4 4024   0.448   0.873   1.979  0.0940 -0.3263 -0.4160
  995SOL     OW 4025   0.439   1.136   1.918  0.5359  0.1667  0.4244
  995SOL    HW2 4026   0.352   1.173   1.930  1.1148  1.5378  0.5332
  995SOL    HW3 4027   0.455   1.143   1.823  0.5753  0.0473  0.4226
  995SOL    MW4 4028   0.430   1.142   1.907  0.6175  0.3319  0.4386
  996SOL     OW 4029   0.667   1.252   1.999 -0.7537 -0.3462  0.2976
  996SOL    HW2 4030   0.670   1.254   2.094  0.0146 -2.4911  0.3443
  996SOL    HW3 4031   0.586   1.206   1.978 -0.3404 -0.9019 -0.0780
  996SOL    MW4 4032   0.657   1.246   2.008 -0.5978 -0.7026  0.2542
  997SOL     OW 4033   0.654   1.528   1.929  0.0475 -0.3439 -0.1171
  997SOL    HW2 4034   0.635   1.439   1.958 -1.9336 -0.3132 -1.2189
  997SOL    HW3 4035   0.665   1.520   1.834 -0.7742  0.6607 -0.3125
  997SOL    MW4 4036   0.653   1.515   1.920 -0.3223 -0.2073 -0.2881
  998SOL     OW 4037   0.425   1.667   1.977  0.0108  0.8362  0.0350
  998SOL    HW2 4038   0.434   1.663   2.072  0.1744  0.6913  0.0133
  998SOL    HW3 4039   0.510   1.637   1.944  0.6375  2.6879 -0.1361
  998SOL    MW4 4040   0.438   1.663   1.985  0.1151  1.0614  0.0095
  999SOL     OW 4041   0.456   1.937   1.881  0.2255  0.3897 -0.1902
  999SOL    HW2 4042   0.441   1.850   1.918  0.5906  1.0969  1.6825
  999SOL    HW3 4043   0.384   1.990   1.916 -0.1093  0.8094 -1.4846
  999SOL    MW4 4044   0.444   1.933   1.890  0.2295  0.5385 -0.1138
 1000SOL     OW 4045   0.685   2.065   1.983  0.2356 -0.0792  0.3222
 1000SOL    HW2 4046   0.674   2.051   2.077  0.7386 -2.3917  0.0506
 1000SOL    HW3 4047   0.611   2.019   1.943  1.5129 -1.4232 -0.5542
 1000SOL    MW4 4048   0.674   2.057   1.990  0.4705 -0.5615  0.1708
 1001SOL     OW 4049   0.628   2.331   1.925 -0.1943  0.0011  0.2846
 1001SOL    HW2 4050   0.637   2.239   1.948  0.6229  0.0141  0.0081
 1001SOL    HW3 4051   0.659   2.337   1.835 -0.8877  0.4276  0.0687
 1001SOL    MW4 4052   0.633   2.320   1.916 -0.1780  0.0591  0.2197
 1002SOL     OW 4053   0.401   2.449   2.041 -0.0522  0.5310  0.1733
 1002SOL    HW2 4054   0.425   2.442   2.134  0.4769 -0.5449 -0.0378
 1002SOL    HW3 4055   0.472   2.405   1.995 -0.1145  1.4121 -0.7778
 1002SOL    MW4 4056   0.414   2.442   2.048  0.0094  0.5057  0.0200
 1003SOL     OW 4057   0.456   2.672   1.876 -0.0617 -0.4136  0.2756
 1003SOL    HW2 4058   0.434   2.587   1.915  0.1028 -0.3626  0.4810
 1003SOL    HW3 4059   0.393   2.733   1.913 -0.9575 -0.6756 -0.8165
 1003SOL    MW4 4060   0.445   2.669   1.886 -0.1582 -0.4416  0.1587
 1004SOL     OW 4061   0.688   2.798   1.949  0.0809 -0.1228 -0.1896
 1004SOL    HW2 4062   0.672   2.798   2.044 -0.3158  1.9899 -0.2405
 1004SOL    HW3 4063   0.614   2.750   1.912 -0.0794 -0.4331  0.5118
 1004SOL    MW4 4064   0.676   2.792   1.957  0.0073  0.1149 -0.1038
 1005SOL     OW 4065   0.672   3.080   1.905 -0.1538  0.0773 -0.1340
 1005SOL    HW2 4066   0.663   2.985   1.894  0.2771  0.1036 -0.7385
 1005SOL    HW3 4067   0.689   3.113   1.817 -1.8495  0.9020 -0.1578
 1005SOL    MW4 4068   0.673   3.072   1.892 -0.3207  0.1898 -0.2168
 1006SOL     OW 4069   0.436   3.220   1.983  0.0680  0.0257 -0.6401
 1006SOL    HW2 4070   0.436   3.313   1.962 -2.2014 -0.1745 -1.5827
 1006SOL    HW3 4071   0.522   3.190   1.955 -0.0663  1.3403 -2.5510
 1006SOL    MW4 4072   0.448   3.228   1.977 -0.2491  0.1726 -1.0166
 1007SOL     OW 4073   0.422   3.474   1.895  0.3496  0.1140 -0.0100
 1007SOL    HW2 4074   0.502   3.505   1.939 -0.1180  0.6932  0.4294
 1007SOL    HW3 4075   0.444   3.474   1.802  1.3721 -1.1670  0.2046
 1007SOL    MW4 4076   0.436   3.478   1.889  0.4228  0.0217  0.0763
 1008SOL     OW 4077   0.645   3.594   1.994 -0.3317 -0.7523 -0.0194
 1008SOL    HW2 4078   0.734   3.563   1.973  0.4701  0.2658  1.8103
 1008SOL    HW3 4079   0.641   3.682   1.956 -0.4368 -0.6509  0.2310
 1008SOL    MW4 4080   0.656   3.601   1.986 -0.2397 -0.6044  0.2550
 1009SOL     OW 4081   0.679   3.855   1.879 -0.2128  0.3390 -0.2544
 1009SOL    HW2 4082   0.769   3.883   1.897 -0.3787  1.3163 -0.8786
 1009SOL    HW3 4083   0.666   3.877   1.786 -1.6357  1.6892  0.2477
 1009SOL    MW4 4084   0.689   3.862   1.869 -0.4224  0.6461 -0.2705
 1010SOL     OW 4085   0.441   3.960   1.982 -0.0983  0.5159  0.3589
 1010SOL    HW2 4086   0.430   4.050   1.952 -1.4817 -0.0130 -0.7868
 1010SOL    HW3 4087   0.523   3.931   1.942  0.7480  1.4983  1.3560
 1010SOL    MW4 4088   0.451   3.968   1.973 -0.1692  0.5760  0.3394
 1011SOL     OW 4089   0.421   4.223   1.876 -0.1806  0.5446 -0.3358
 1011SOL    HW2 4090   0.355   4.281   1.914 -0.1818  0.7921 -0.7097
 1011SOL    HW3 4091   0.404   4.226   1.781  1.0990  1.5414 -0.5511
 1011SOL    MW4 4092   0.410   4.231   1.868 -0.0119  0.7091 -0.4135
 1012SOL     OW 4093   0.647   4.349   1.966 -0.0936  0.4802  0.3485
 1012SOL    HW2 4094   0.718   4.310   1.915  0.6547 -0.1011  1.8212
 1012SOL    HW3 4095   0.568   4.304   1.935  0.3212  0.2596 -0.4167
 1012SOL    MW4 4096   0.646   4.338   1.955  0.0598  0.3743  0.4417
 1013SOL     OW 4097   1.097   4.657   1.858 -0.3132  0.1722 -0.0619
 1013SOL    HW2 4098   1.176   4.683   1.906 -0.3358 -0.4336  0.3083
 1013SOL    HW3 4099   1.089   4.563   1.873 -0.4831  0.0267 -1.0229
 1013SOL    MW4 4100   1.106   4.648   1.866 -0.3386  0.0730 -0.1396
 1014SOL     OW 4101   0.899   0.102   2.001  0.4404  0.2258 -0.0521
 1014SOL    HW2 4102   0.973   0.063   1.955  1.6807  0.4764  1.6634
 1014SOL    HW3 4103   0.824   0.048   1.975  1.8804 -2.5162  1.2061
 1014SOL    MW4 4104   0.899   0.090   1.992  0.7941 -0.1029  0.3403
 1015SOL     OW 4105   0.914   0.344   1.864  0.2521 -0.1247 -0.0307
 1015SOL    HW2 4106   0.995   0.381   1.900 -1.2275  1.6995  1.5277
 1015SOL    HW3 4107   0.908   0.258   1.904  0.5195  0.4329  1.2315
 1015SOL    MW4 4108   0.924   0.338   1.874  0.0921  0.1895  0.3414
 1016SOL     OW 4109   1.127   0.464   1.989 -0.2862 -0.2341 -0.3861
 1016SOL    HW2 4110   1.208   0.432   1.948 -0.2656  0.2792 -0.7436
 1016SOL    HW3 4111   1.120   0.555   1.961 -0.3040  0.1013  0.7205
 1016SOL    MW4 4112   1.137   0.472   1.980 -0.2859 -0.1222 -0.2873
 1017SOL     OW 4113   1.096   0.702   1.887  0.3307 -0.4606  0.1240
 1017SOL    HW2 4114   1.171   0.752   1.920  0.2753  0.5943 -1.2848
 1017SOL    HW3 4115   1.020   0.753   1.916  0.2928  0.7070 -1.9395
 1017SOL    MW4 4116   1.095   0.715   1.895  0.3183 -0.1673 -0.3341
 1018SOL     OW 4117   0.906   0.872   1.987 -0.0936 -0.2567 -0.0371
 1018SOL    HW2 4118   0.892   0.871   2.082  0.3045 -1.7999  0.0206
 1018SOL    HW3 4119   0.903   0.965   1.964  2.5387  0.3753  1.8965
 1018SOL    MW4 4120   0.903   0.884   1.997  0.3062 -0.3769  0.2257
 1019SOL     OW 4121   0.893   1.122   1.872  0.0096 -0.0944  0.1388
 1019SOL    HW2 4122   0.812   1.164   1.902 -0.9604 -1.0001 -1.1207
 1019SOL    HW3 4123   0.888   1.128   1.776  1.4472 -0.1399  0.0567
 1019SOL    MW4 4124   0.881   1.128   1.863  0.0713 -0.2199 -0.0383
 1020SOL     OW 4125   1.128   1.227   2.013  0.0784  0.2373 -0.1565
 1020SOL    HW2 4126   1.131   1.311   1.967  0.5769  0.8618  1.0178
 1020SOL    HW3 4127   1.040   1.193   1.993 -0.1260  1.0329 -0.6442
 1020SOL    MW4 4128   1.117   1.233   2.004  0.1171  0.4245 -0.0656
 1021SOL     OW 4129   1.133   1.493   1.896  0.6780  0.0127 -0.0245
 1021SOL    HW2 4130   1.042   1.513   1.916  0.7557 -0.1428  0.4972
 1021SOL    HW3 4131   1.137   1.490   1.800  0.4286  1.3602 -0.0848
 1021SOL    MW4 4132   1.122   1.495   1.886  0.6554  0.1699  0.0364
 1022SOL     OW 4133   0.918   1.646   2.000 -0.2910  0.3710  0.0866
 1022SOL    HW2 4134   0.921   1.737   1.970  0.7990  0.3974  0.2606
 1022SOL    HW3 4135   0.828   1.618   1.982 -0.6398  1.4869  0.0439
 1022SOL    MW4 4136   0.907   1.654   1.994 -0.1932  0.5218  0.1040
 1023SOL     OW 4137   0.934   1.915   1.936 -0.1843 -0.0161 -0.1229
 1023SOL    HW2 4138   0.851   1.958   1.957 -0.1267 -0.9207  2.0976
 1023SOL    HW3 4139   0.937   1.914   1.841 -3.1568 -0.7475 -0.2596
 1023SOL    MW4 4140   0.924   1.921   1.927 -0.5689 -0.2320  0.1521
 1024SOL     OW 4141   1.152   2.097   1.975  0.4179  0.0110  0.1903
 1024SOL    HW2 4142   1.129   2.179   1.931  0.7312 -0.4633 -0.8940
 1024SOL    HW3 4143   1.071   2.046   1.974  1.1310 -1.1895 -2.5708
 1024SOL    MW4 4144   1.138   2.101   1.969  0.5535 -0.2100 -0.3170
 1025SOL     OW 4145   1.091   2.334   1.858 -0.0610  0.2373  0.1127
 1025SOL    HW2 4146   1.156   2.395   1.895  0.9628 -0.2524 -0.8375
 1025SOL    HW3 4147   1.103   2.341   1.764  0.7072 -2.0823  0.0088
 1025SOL    MW4 4148   1.101   2.343   1.851  0.1754 -0.1335 -0.0265
 1026SOL     OW 4149   0.882   2.436   2.006 -0.2979 -0.2471 -0.1114
 1026SOL    HW2 4150   0.955   2.383   1.975  0.3133  0.7280 -0.3510
 1026SOL    HW3 4151   0.804   2.387   1.980  0.1629  0.6494 -3.4671
 1026SOL    MW4 4152   0.881   2.423   1.999 -0.1563  0.0002 -0.5860
 1027SOL     OW 4153   0.934   2.675   1.879 -0.3073 -0.7452 -0.0851
 1027SOL    HW2 4154   0.922   2.602   1.940 -2.5899 -0.6330 -0.3420
 1027SOL    HW3 4155   0.852   2.724   1.886  0.8870  1.3363 -0.5204
 1027SOL    MW4 4156   0.921   2.672   1.888 -0.4508 -0.4561 -0.1764
 1028SOL     OW 4157   1.105   2.849   1.969 -0.5823  1.0312  0.6097
 1028SOL    HW2 4158   1.102   2.847   2.064 -0.1282  1.3207  0.6316
 1028SOL    HW3 4159   1.053   2.773   1.942  1.5642 -0.6787  1.1419
 1028SOL    MW4 4160   1.098   2.839   1.978 -0.2390  0.8435  0.6828
 1029SOL     OW 4161   1.147   3.101   1.903 -0.2983  0.0070  0.2355
 1029SOL    HW2 4162   1.065   3.139   1.936 -1.4502 -0.5503 -1.9149
 1029SOL    HW3 4163   1.132   3.007   1.902  0.2292 -0.0778 -0.4968
 1029SOL    MW4 4164   1.134   3.094   1.907 -0.3806 -0.0775 -0.1448
 1030SOL     OW 4165   0.911   3.203   1.982 -0.3767 -0.2911  0.0603
 1030SOL    HW2 4166   0.900   3.223   2.075 -1.4802 -0.9203  0.0664
 1030SOL    HW3 4167   0.844   3.138   1.963  0.8084 -1.2829 -0.8337
 1030SOL    MW4 4168   0.901   3.197   1.992 -0.3660 -0.5050 -0.0570
 1031SOL     OW 4169   0.877   3.498   1.888 -0.2265  0.3691 -0.2604
 1031SOL    HW2 4170   0.888   3.404   1.903 -1.2832  0.3579  0.4695
 1031SOL    HW3 4171   0.877   3.507   1.793 -2.3607 -0.6429 -0.3824
 1031SOL    MW4 4172   0.879   3.487   1.878 -0.6475  0.2344 -0.1802
 1032SOL     OW 4173   1.128   3.601   1.959  0.1258 -0.4274 -0.3445
 1032SOL    HW2 4174   1.125   3.604   2.055  0.9378 -0.2293 -0.3287
 1032SOL    HW3 4175   1.039   3.577   1.934 -0.1257 -0.3555  0.4560
 1032SOL    MW4 4176   1.116   3.598   1.968  0.1998 -0.3920 -0.2367
 1033SOL     OW 4177   1.154   3.881   1.896  0.7546  0.2446 -0.2120
 1033SOL    HW2 4178   1.145   3.790   1.925 -0.4268  0.3994 -0.0585
 1033SOL    HW3 4179   1.137   3.878   1.802  2.1838  0.0974 -0.4739
 1033SOL    MW4 4180   1.150   3.869   1.888  0.7874  0.2453 -0.2263
 1034SOL     OW 4181   0.913   3.998   1.950 -0.4739  0.0156 -0.4126
 1034SOL    HW2 4182   0.908   3.992   2.046 -0.6750  0.3410 -0.4000
 1034SOL    HW3 4183   1.000   3.966   1.928 -0.5956 -0.4941 -0.1561
 1034SOL    MW4 4184   0.924   3.993   1.960 -0.5165 -0.0088 -0.3772
 1035SOL     OW 4185   0.895   4.266   1.875 -0.1073  0.1628  0.0291
 1035SOL    HW2 4186   0.958   4.303   1.937  0.6916  0.8170 -1.1495
 1035SOL    HW3 4187   0.894   4.172   1.895  2.4478 -0.1198 -0.9512
 1035SOL    MW4 4188   0.903   4.258   1.886  0.3352  0.2117 -0.2558
 1036SOL     OW 4189   1.095   4.387   2.006 -0.5548  1.0356 -0.1203
 1036SOL    HW2 4190   1.105   4.393   2.101 -1.1408  0.0041  0.0206
 1036SOL    HW3 4191   1.176   4.345   1.975 -0.1912  1.7401 -0.1232
 1036SOL    MW4 4192   1.107   4.382   2.014 -0.5840  0.9923 -0.1023
 1037SOL     OW 4193   1.591   4.648   1.862  0.0750 -0.0295  0.4054
 1037SOL    HW2 4194   1.654   4.702   1.910  0.9562  0.2386 -1.0066
 1037SOL    HW3 4195   1.595   4.563   1.905  2.2723 -0.3437 -0.3406
 1037SOL    MW4 4196   1.600   4.644   1.874  0.4812 -0.0358  0.1208
 1038SOL     OW 4197   1.351   0.072   1.974  0.3116  0.7691  0.0277
 1038SOL    HW2 4198   1.353   0.075   2.069 -0.2922 -1.2996  0.1424
 1038SOL    HW3 4199   1.442   0.057   1.948  0.2218 -0.4714  0.3872
 1038SOL    MW4 4200   1.363   0.071   1.983  0.2201  0.3325  0.0904
 1039SOL     OW 4201   1.360   0.351   1.872 -0.3884 -0.2595  0.6323
 1039SOL    HW2 4202   1.347   0.261   1.903 -0.1140 -0.6498 -0.3665
 1039SOL    HW3 4203   1.351   0.345   1.777 -2.0514  1.0657  0.6807
 1039SOL    MW4 4204   1.357   0.338   1.863 -0.5715 -0.1361  0.5069
 1040SOL     OW 4205   1.605   0.468   2.001  0.0297  0.1037  0.2996
 1040SOL    HW2 4206   1.686   0.428   1.969  0.2255 -0.2674  1.2441
 1040SOL    HW3 4207   1.535   0.424   1.951  0.4153  0.6974 -0.7931
 1040SOL    MW4 4208   1.606   0.457   1.990  0.1065  0.1331  0.2800
 1041SOL     OW 4209   1.573   0.751   1.902 -0.0118  0.4763  0.2844
 1041SOL    HW2 4210   1.647   0.795   1.944  1.9415 -1.1112 -1.3823
 1041SOL    HW3 4211   1.578   0.661   1.933  0.0932 -0.1774 -1.5698
 1041SOL    MW4 4212   1.583   0.745   1.912  0.2598  0.1807 -0.1801
 1042SOL     OW 4213   1.323   0.841   1.984  0.0808  0.1355  0.1004
 1042SOL    HW2 4214   1.328   0.866   2.076  0.4451  1.5383 -0.2831
 1042SOL    HW3 4215   1.406   0.797   1.966 -0.5222 -1.2980  0.7573
 1042SOL    MW4 4216   1.335   0.839   1.994  0.0494  0.1315  0.1365
 1043SOL     OW 4217   1.343   1.110   1.888 -0.5466  0.0413  0.1252
 1043SOL    HW2 4218   1.338   1.018   1.915  2.0627  0.3694  1.9141
 1043SOL    HW3 4219   1.268   1.152   1.930 -1.4241 -1.1559 -0.2307
 1043SOL    MW4 4220   1.333   1.103   1.897 -0.3182 -0.0734  0.3142
 1044SOL     OW 4221   1.577   1.276   1.976  0.1551  0.2962  0.0729
 1044SOL    HW2 4222   1.549   1.359   1.935 -0.1170 -0.3365 -1.0474
 1044SOL    HW3 4223   1.512   1.212   1.947  1.2345 -0.6308 -0.3312
 1044SOL    MW4 4224   1.565   1.279   1.967  0.2617  0.0906 -0.1283
 1045SOL     OW 4225   1.511   1.531   1.871 -0.3485 -0.4226 -0.1502
 1045SOL    HW2 4226   1.592   1.577   1.894  0.2969 -2.0689  0.9941
 1045SOL    HW3 4227   1.441   1.591   1.897  0.4944  1.0886 -1.3132
 1045SOL    MW4 4228   1.513   1.545   1.878 -0.1521 -0.4406 -0.1526
 1046SOL     OW 4229   1.308   1.696   1.968  0.3850  0.4193 -0.1388
 1046SOL    HW2 4230   1.340   1.678   2.056  0.5673 -0.4284 -0.3771
 1046SOL    HW3 4231   1.238   1.633   1.954 -0.3156  1.2071 -0.2331
 1046SOL    MW4 4232   1.303   1.685   1.978  0.3165  0.4114 -0.1827
 1047SOL     OW 4233   1.343   1.923   1.839 -0.3783  0.3321 -0.2630
 1047SOL    HW2 4234   1.339   1.834   1.875 -0.3268  0.4306 -0.0160
 1047SOL    HW3 4235   1.291   1.976   1.899  1.1348  0.8208  0.6426
 1047SOL    MW4 4236   1.336   1.918   1.852 -0.1718  0.4096 -0.1111
 1048SOL     OW 4237   1.572   2.035   1.956 -0.3799  0.3762 -0.1857
 1048SOL    HW2 4238   1.562   2.127   1.931  0.3563  0.5875  0.3081
 1048SOL    HW3 4239   1.489   1.994   1.928 -0.3518  0.9958 -1.2109
 1048SOL    MW4 4240   1.560   2.042   1.949 -0.2791  0.4859 -0.2558
 1049SOL     OW 4241   1.549   2.300   1.865  0.1775 -0.1209 -0.1947
 1049SOL    HW2 4242   1.619   2.360   1.894  0.6392 -0.7037 -0.0883
 1049SOL    HW3 4243   1.541   2.317   1.771  1.4837 -1.0736 -0.4996
 1049SOL    MW4 4244   1.557   2.310   1.857  0.4107 -0.3233 -0.2209
 1050SOL     OW 4245   1.336   2.468   1.987  0.4895 -0.1507  0.4125
 1050SOL    HW2 4246   1.348   2.557   1.955  1.6754 -0.2588  0.5527
 1050SOL    HW3 4247   1.407   2.418   1.948 -0.7571 -1.2638 -0.4890
 1050SOL    MW4 4248   1.347   2.473   1.978  0.4816 -0.3119  0.3121
 1051SOL     OW 4249   1.336   2.726   1.899  0.3837 -0.0754  0.4220
 1051SOL    HW2 4250   1.252   2.760   1.932  0.2233 -0.5554  0.5075
 1051SOL    HW3 4251   1.326   2.725   1.804 -0.4003 -1.9171  0.5111
 1051SOL    MW4 4252   1.324   2.731   1.891  0.2592 -0.3817  0.4451
 1052SOL     OW 4253   1.558   2.895   1.992 -0.3019 -0.2005 -0.0425
 1052SOL    HW2 4254   1.623   2.831   1.962  0.0361 -0.1718  0.6059
 1052SOL    HW3 4255   1.474   2.854   1.972 -0.0919  0.2760 -1.9463
 1052SOL    MW4 4256   1.556   2.881   1.986 -0.2297 -0.1338 -0.2081
 1053SOL     OW 4257   1.625   3.147   1.887  0.4851  0.1737 -0.1565
 1053SOL    HW2 4258   1.613   3.057   1.918 -1.1655  0.7581  0.9153
 1053SOL    HW3 4259   1.607   3.143   1.793  1.3058 -0.7754 -0.2841
 1053SOL    MW4 4260   1.621   3.135   1.878  0.3757  0.1256 -0.0319
 1054SOL     OW 4261   1.380   3.241   1.975  0.1375  0.2721  0.0928
 1054SOL    HW2 4262   1.459   3.192   1.950 -0.0813 -0.3510  0.6332
 1054SOL    HW3 4263   1.308   3.182   1.956 -0.1508  0.5123  0.4389
 1054SOL    MW4 4264   1.381   3.227   1.969  0.0705  0.2217  0.2098
 1055SOL     OW 4265   1.352   3.482   1.852 -0.9049  0.6704  0.9427
 1055SOL    HW2 4266   1.347   3.392   1.883 -0.1260  0.3180  0.0521
 1055SOL    HW3 4267   1.269   3.522   1.879 -1.2563 -0.3117  1.3132
 1055SOL    MW4 4268   1.340   3.476   1.860 -0.8484  0.4942  0.8740
 1056SOL     OW 4269   1.572   3.596   1.963  0.2027  0.5321 -0.0158
 1056SOL    HW2 4270   1.562   3.595   2.058  1.3128 -0.0731  0.1102
 1056SOL    HW3 4271   1.490   3.561   1.929  0.7076 -1.5173  0.8230
 1056SOL    MW4 4272   1.560   3.592   1.971  0.4157  0.1819  0.1116
 1057SOL     OW 4273   1.595   3.845   1.843 -0.1231 -0.1404  0.0997
 1057SOL    HW2 4274   1.664   3.886   1.896 -0.5242  1.1491 -0.3575
 1057SOL    HW3 4275   1.581   3.760   1.883 -0.0157  0.5925  1.7197
 1057SOL    MW4 4276   1.602   3.840   1.855 -0.1619  0.1264  0.2531
 1058SOL     OW 4277   1.362   4.022   1.962  0.2190 -0.4024  0.2989
 1058SOL    HW2 4278   1.435   3.980   1.917 -0.4953 -2.0801  0.6518
 1058SOL    HW3 4279   1.284   3.981   1.925 -0.5530  1.2530  0.0409
 1058SOL    MW4 4280   1.362   4.011   1.951  0.0228 -0.4053  0.3114
 1059SOL     OW 4281   1.335   4.293   1.895  0.2550 -0.0320  0.3487
 1059SOL    HW2 4282   1.368   4.209   1.928 -0.3679  0.2571  1.7723
 1059SOL    HW3 4283   1.346   4.288   1.800  0.1581 -1.7583  0.4147
 1059SOL    MW4 4284   1.341   4.281   1.887  0.1601 -0.2217  0.5453
 1060SOL     OW 4285   1.578   4.393   1.983 -0.2212  0.0008  0.4020
 1060SOL    HW2 4286   1.572   4.386   2.078 -0.3455  0.6465  0.4451
 1060SOL    HW3 4287   1.488   4.378   1.952 -0.5549  1.7142  0.5177
 1060SOL    MW4 4288   1.565   4.390   1.991 -0.2817  0.3119  0.4230
 1061SOL     OW 4289   2.029   4.649   1.875 -0.0976 -0.4954 -0.1300
 1061SOL    HW2 4290   2.095   4.697   1.925  0.1437 -1.1406  0.1780
 1061SOL    HW3 4291   2.043   4.557   1.899 -2.3188 -0.4951  1.3928
 1061SOL    MW4 4292   2.040   4.643   1.885 -0.3591 -0.5798  0.1116
 1062SOL     OW 4293   1.801   0.116   1.974 -0.1662  0.0502 -0.7187
 1062SOL    HW2 4294   1.816   0.119   2.068 -0.8654 -1.0998 -0.5586
 1062SOL    HW3 4295   1.877   0.069   1.939 -0.7516 -1.0723 -0.5154
 1062SOL    MW4 4296   1.813   0.110   1.982 -0.3357 -0.2496 -0.6709
 1063SOL     OW 4297   1.856   0.376   1.903 -0.4179 -0.0514 -0.2349
 1063SOL    HW2 4298   1.832   0.290   1.938 -0.6265 -0.3968 -1.2021
 1063SOL    HW3 4299   1.844   0.367   1.809  0.8425  0.6478 -0.4648
 1063SOL    MW4 4300   1.851   0.363   1.895 -0.2789 -0.0048 -0.3929
 1064SOL     OW 4301   2.057   0.514   2.020 -0.5166  0.0347  0.3861
 1064SOL    HW2 4302   2.044   0.603   1.987  0.7794  0.0805 -0.0325
 1064SOL    HW3 4303   1.978   0.467   1.996 -0.2909  0.5012 -1.3349
 1064SOL    MW4 4304   2.045   0.520   2.013 -0.3159  0.1022  0.1040
 1065SOL     OW 4305   2.032   0.753   1.889 -0.4513 -0.4127 -0.0439
 1065SOL    HW2 4306   2.111   0.802   1.908 -0.5527 -0.2572 -0.0221
 1065SOL    HW3 4307   2.032   0.742   1.794 -1.7505  1.8887 -0.3567
 1065SOL    MW4 4308   2.042   0.758   1.879 -0.6361 -0.0886 -0.0824
 1066SOL     OW 4309   1.790   0.908   2.001  0.2513 -0.4101 -0.3843
 1066SOL    HW2 4310   1.763   0.993   1.965  3.2991  0.5067 -0.6555
 1066SOL    HW3 4311   1.877   0.893   1.964  0.4625 -2.8705  1.0133
 1066SOL    MW4 4312   1.798   0.917   1.991  0.6814 -0.6137 -0.2358
 1067SOL     OW 4313   1.797   1.151   1.887  0.1146  0.3823  0.1478
 1067SOL    HW2 4314   1.715   1.195   1.909 -0.0908  0.3134 -0.4685
 1067SOL    HW3 4315   1.802   1.157   1.792  0.7526  0.2535  0.1741
 1067SOL    MW4 4316   1.787   1.158   1.877  0.1715  0.3562  0.0699
 1068SOL     OW 4317   2.001   1.282   2.012  0.3136  0.2252 -0.0927
 1068SOL    HW2 4318   2.079   1.250   1.965  0.1980 -0.7355  0.3751
 1068SOL    HW3 4319   1.929   1.231   1.976  0.4609 -1.8148  2.3925
 1068SOL    MW4 4320   2.002   1.271   2.001  0.3178 -0.1707  0.2971
 1069SOL     OW 4321   2.025   1.526   1.920  0.3590  0.0537 -0.0011
 1069SOL    HW2 4322   1.993   1.441   1.950 -0.2100  0.1144 -0.4447
 1069SOL    HW3 4323   2.023   1.520   1.825  1.1436  0.2530 -0.0339
 1069SOL    MW4 4324   2.021   1.514   1.911  0.3877  0.0880 -0.0639
 1070SOL     OW 4325   1.762   1.641   1.943  0.2374 -0.3380 -0.2200
 1070SOL    HW2 4326   1.770   1.731   1.911  0.0324  0.1439  1.0781
 1070SOL    HW3 4327   1.851   1.606   1.938  0.7403  0.6649  1.4006
 1070SOL    MW4 4328   1.775   1.648   1.938  0.2767 -0.1421  0.1651
 1071SOL     OW 4329   1.810   1.904   1.874 -0.1299 -0.0884  0.2676
 1071SOL    HW2 4330   1.745   1.963   1.912 -0.8309  0.2577 -1.4401
 1071SOL    HW3 4331   1.815   1.929   1.782  0.2338 -2.0898 -0.2787
 1071SOL    MW4 4332   1.802   1.915   1.867 -0.1744 -0.3067 -0.0298
 1072SOL     OW 4333   2.034   2.015   1.976  0.1680  0.3458  0.1091
 1072SOL    HW2 4334   2.107   1.973   1.929  0.0606 -0.6319  0.8036
 1072SOL    HW3 4335   1.955   1.977   1.936  0.0480  0.9983 -0.2728
 1072SOL    MW4 4336   2.033   2.004   1.964  0.1378  0.3028  0.1504
 1073SOL     OW 4337   2.046   2.282   1.925 -0.2778  0.1126 -0.5524
 1073SOL    HW2 4338   2.117   2.332   1.963 -0.8335  1.4392 -1.2494
 1073SOL    HW3 4339   2.052   2.196   1.967  0.8625  0.6579  0.4101
 1073SOL    MW4 4340   2.056   2.277   1.935 -0.2007  0.3598 -0.5174
 1074SOL     OW 4341   1.807   2.427   1.927  0.0690  0.4436  0.0184
 1074SOL    HW2 4342   1.803   2.448   2.021 -1.1263 -1.4423  0.4311
 1074SOL    HW3 4343   1.888   2.377   1.917  0.3337  0.8732 -0.0183
 1074SOL    MW4 4344   1.817   2.423   1.938 -0.0538  0.2515  0.0679
 1075SOL     OW 4345   1.778   2.729   1.892  0.3175 -0.2552  0.2101
 1075SOL    HW2 4346   1.777   2.635   1.912  0.9425 -0.1585  0.6804
 1075SOL    HW3 4347   1.788   2.732   1.796 -0.9928 -0.6810  0.0493
 1075SOL    MW4 4348   1.779   2.717   1.882  0.2271 -0.2987  0.2509
 1076SOL     OW 4349   2.010   2.834   2.009 -0.2345 -0.2588  0.2475
 1076SOL    HW2 4350   2.000   2.832   2.104  0.4521  1.0295  0.3575
 1076SOL    HW3 4351   1.927   2.801   1.975 -0.6833 -0.2050  1.2792
 1076SOL    MW4 4352   1.998   2.829   2.017 -0.2031 -0.0818  0.3979
 1077SOL     OW 4353   2.035   3.086   1.883  0.2961  0.0022  0.0291
 1077SOL    HW2 4354   1.968   3.138   1.929  0.7767 -0.2698  1.0507
 1077SOL    HW3 4355   2.022   2.997   1.915  1.6487  0.0787  0.8282
 1077SOL    MW4 4356   2.024   3.081   1.893  0.5381 -0.0236  0.2693
 1078SOL     OW 4357   1.848   3.252   1.997 -0.4769  0.1751  0.1227
 1078SOL    HW2 4358   1.834   3.246   2.092 -1.0298 -1.7699 -0.0503
 1078SOL    HW3 4359   1.770   3.211   1.959  0.6529 -0.8944 -1.1222
 1078SOL    MW4 4360   1.836   3.246   2.005 -0.4008 -0.2227 -0.0644
 1079SOL     OW 4361   1.809   3.477   1.867  0.3403  0.1940 -0.4261
 1079SOL    HW2 4362   1.819   3.391   1.908  0.5188  1.1958  1.7228
 1079SOL    HW3 4363   1.729   3.512   1.906  1.2988  1.7640  0.1529
 1079SOL    MW4 4364   1.800   3.470   1.878  0.4904  0.5333 -0.0662
 1080SOL     OW 4365   2.038   3.588   1.976 -0.5295  0.1039 -0.0200
 1080SOL    HW2 4366   2.033   3.678   1.943 -0.3111 -0.5324 -1.7980
 1080SOL    HW3 4367   1.961   3.545   1.940  0.3006 -0.8961 -0.6115
 1080SOL    MW4 4368   2.027   3.594   1.967 -0.3910 -0.1123 -0.3326
 1081SOL     OW 4369   2.055   3.862   1.890 -0.1064  0.0235  0.0324
 1081SOL    HW2 4370   2.133   3.913   1.914 -0.0502 -0.4020  0.7508
 1081SOL    HW3 4371   2.052   3.868   1.794  0.2948  0.7974  0.0619
 1081SOL    MW4 4372   2.065   3.870   1.880 -0.0463  0.0696  0.1311
 1082SOL     OW 4373   1.807   3.987   1.942  0.5168 -0.1652  0.1891
 1082SOL    HW2 4374   1.803   4.076   1.908  1.9145  0.5258  1.7593
 1082SOL    HW3 4375   1.894   3.955   1.918  1.2313  0.0551  2.3729
 1082SOL    MW4 4376   1.818   3.994   1.934  0.7954 -0.0451  0.6845
 1083SOL     OW 4377   1.795   4.262   1.852 -0.2222 -0.9158 -0.3126
 1083SOL    HW2 4378   1.711   4.302   1.873  0.5710  0.4095  0.4083
 1083SOL    HW3 4379   1.797   4.259   1.756 -1.5879 -2.0657 -0.3200
 1083SOL    MW4 4380   1.784   4.267   1.842 -0.2975 -0.8931 -0.2184
 1084SOL     OW 4381   2.013   4.389   1.981 -0.4927 -0.2526 -0.3167
 1084SOL    HW2 4382   2.081   4.339   1.936 -0.6400 -1.5384  0.8754
 1084SOL    HW3 4383   1.930   4.349   1.952 -0.6465 -0.1442 -0.0284
 1084SOL    MW4 4384   2.011   4.377   1.971 -0.5326 -0.4077 -0.1215
 1085SOL     OW 4385   2.490   0.002   1.859 -0.2517 -0.3963  0.4619
 1085SOL    HW2 4386   2.554   0.034   1.923  0.0717 -0.6334  0.2574
 1085SOL    HW3 4387   2.472  -0.088   1.886 -0.2429 -0.4414  0.3153
 1085SOL    MW4 4388   2.496  -0.005   1.871 -0.2077 -0.4339  0.4154
 1086SOL     OW 4389   2.242   0.110   1.997 -0.0256  0.2024  0.8077
 1086SOL    HW2 4390   2.251   0.108   2.093  1.2912  0.8315  0.7085
 1086SOL    HW3 4391   2.321   0.067   1.965 -0.0364  0.7917 -0.0171
 1086SOL    MW4 4392   2.253   0.104   2.006  0.1466  0.3631  0.6859
 1087SOL     OW 4393   2.259   0.367   1.913  0.0215 -0.3710 -0.1308
 1087SOL    HW2 4394   2.238   0.285   1.957 -0.3994  0.0904  0.5379
 1087SOL    HW3 4395   2.193   0.429   1.945  1.6646  0.8024  1.0643
 1087SOL    MW4 4396   2.247   0.364   1.923  0.1826 -0.1553  0.1150
 1088SOL     OW 4397   2.471   0.534   1.947 -0.2992 -0.1870 -0.0876
 1088SOL    HW2 4398   2.538   0.474   1.917 -1.3271 -1.3361 -0.1532
 1088SOL    HW3 4399   2.390   0.482   1.945 -1.1692  1.1343  0.0607
 1088SOL    MW4 4400   2.469   0.519   1.943 -0.5496 -0.1643 -0.0768
 1089SOL     OW 4401   2.459   0.798   1.865 -0.0238  0.1273 -0.3079
 1089SOL    HW2 4402   2.454   0.707   1.895  1.2012  0.1317 -0.0525
 1089SOL    HW3 4403   2.455   0.792   1.769  0.4444 -0.2258 -0.3055
 1089SOL    MW4 4404   2.458   0.785   1.856  0.1998  0.0814 -0.2738
 1090SOL     OW 4405   2.243   0.934   1.983  0.4608  0.1862 -0.0624
 1090SOL    HW2 4406   2.236   0.894   2.070  0.2015  0.0749 -0.1369
 1090SOL    HW3 4407   2.330   0.907   1.952  0.1088 -0.6892 -0.3008
 1090SOL    MW4 4408   2.254   0.925   1.991  0.3800  0.0560 -0.1036
 1091SOL     OW 4409   2.212   1.165   1.845  0.1804 -0.0150  0.2647
 1091SOL    HW2 4410   2.293   1.206   1.875  0.6070 -1.5198  1.2254
 1091SOL    HW3 4411   2.208   1.083   1.893 -1.5478 -0.2940 -0.3374
 1091SOL    MW4 4412   2.222   1.160   1.855  0.0086 -0.2501  0.3120
 1092SOL     OW 4413   2.453   1.248   1.955 -0.2529 -0.5101 -0.1436
 1092SOL    HW2 4414   2.449   1.249   2.051  1.4649 -0.1786 -0.0709
 1092SOL    HW3 4415   2.457   1.340   1.930  0.1828 -0.6264 -0.5009
 1092SOL    MW4 4416   2.453   1.260   1.964  0.0310 -0.4817 -0.1811
 1093SOL     OW 4417   2.482   1.518   1.885  0.1816 -0.3030  0.2290
 1093SOL    HW2 4418   2.402   1.555   1.922  0.2281  0.2083 -0.1841
 1093SOL    HW3 4419   2.468   1.520   1.790  0.2163 -1.2663  0.1936
 1093SOL    MW4 4420   2.470   1.523   1.877  0.1924 -0.3628  0.1699
 1094SOL     OW 4421   2.258   1.656   1.993  0.2145  0.1961 -0.0832
 1094SOL    HW2 4422   2.244   1.697   2.078 -1.0691  1.2914 -0.8013
 1094SOL    HW3 4423   2.182   1.600   1.980 -0.4260  1.2820 -1.2016
 1094SOL    MW4 4424   2.246   1.654   2.003 -0.0393  0.4838 -0.3254
 1095SOL     OW 4425   2.262   1.919   1.864 -0.5667  0.1587  0.1506
 1095SOL    HW2 4426   2.336   1.975   1.888  0.2131 -0.7236 -0.2014
 1095SOL    HW3 4427   2.280   1.835   1.905 -1.0215 -0.2748 -0.5200
 1095SOL    MW4 4428   2.274   1.916   1.872 -0.5238 -0.0150  0.0159
 1096SOL     OW 4429   2.461   2.109   1.949 -0.4837  0.8968 -0.3284
 1096SOL    HW2 4430   2.539   2.058   1.926 -1.2735 -0.5175  0.0301
 1096SOL    HW3 4431   2.481   2.198   1.922  0.9566  0.4004 -0.9389
 1096SOL    MW4 4432   2.474   2.114   1.943 -0.3979  0.6447 -0.3614
 1097SOL     OW 4433   2.474   2.370   1.860  0.0524 -0.1098 -0.3578
 1097SOL    HW2 4434   2.550   2.389   1.914  0.3353  1.3699 -1.2447
 1097SOL    HW3 4435   2.400   2.407   1.908  0.3167  1.2982 -0.9926
 1097SOL    MW4 4436   2.474   2.378   1.873  0.1249  0.2713 -0.5585
 1098SOL     OW 4437   2.260   2.455   2.007 -0.1865 -0.0225  0.1825
 1098SOL    HW2 4438   2.254   2.456   2.103  2.2368  0.2830  0.3456
 1098SOL    HW3 4439   2.268   2.547   1.983 -0.6617 -0.1122 -0.3219
 1098SOL    MW4 4440   2.260   2.467   2.017  0.0706  0.0060  0.1376
 1099SOL     OW 4441   2.257   2.729   1.941 -0.1139 -0.0492  0.2437
 1099SOL    HW2 4442   2.175   2.768   1.970  0.3524 -0.0698  1.6442
 1099SOL    HW3 4443   2.253   2.731   1.846 -1.5868  0.2602  0.3055
 1099SOL    MW4 4444   2.246   2.734   1.933 -0.2465 -0.0110  0.4367
 1100SOL     OW 4445   2.507   2.842   1.999  0.2119 -0.1818  0.0815
 1100SOL    HW2 4446   2.512   2.930   1.963  1.3059  0.3756  1.5609
 1100SOL    HW3 4447   2.419   2.812   1.977  0.4171  0.6298 -1.8913
 1100SOL    MW4 4448   2.496   2.850   1.991  0.3834 -0.0012  0.0165
 1101SOL     OW 4449   2.482   3.104   1.894 -0.3286  0.1043 -0.2682
 1101SOL    HW2 4450   2.406   3.147   1.932 -0.9556  0.4755 -1.9048
 1101SOL    HW3 4451   2.459   3.092   1.802  1.2426 -0.5729 -0.5825
 1101SOL    MW4 4452   2.469   3.108   1.887 -0.2041  0.0644 -0.5255
 1102SOL     OW 4453   2.255   3.217   1.981  0.0335  0.1676  0.5809
 1102SOL    HW2 4454   2.256   3.210   2.077  1.8987 -1.6092  0.4711
 1102SOL    HW3 4455   2.177   3.168   1.955 -1.2169  1.7715  1.2379
 1102SOL    MW4 4456   2.245   3.209   1.991  0.1147  0.1447  0.6531
 1103SOL     OW 4457   2.273   3.483   1.879  0.1722  0.3283 -0.2132
 1103SOL    HW2 4458   2.267   3.391   1.907  1.1324  0.8152  1.6509
 1103SOL    HW3 4459   2.196   3.525   1.916 -0.3977  0.2301 -1.2752
 1103SOL    MW4 4460   2.262   3.476   1.888  0.2239  0.3796 -0.1074
 1104SOL     OW 4461   2.490   3.623   1.988  0.1214  0.0600 -0.1239
 1104SOL    HW2 4462   2.483   3.610   2.083  1.2313 -1.0061 -0.1781
 1104SOL    HW3 4463   2.409   3.588   1.953  0.1590 -0.4902  0.3377
 1104SOL    MW4 4464   2.478   3.617   1.996  0.2728 -0.1533 -0.0701
 1105SOL     OW 4465   2.514   3.876   1.862 -0.3478 -0.1318 -0.1962
 1105SOL    HW2 4466   2.436   3.922   1.895  0.9747  1.2856  1.0096
 1105SOL    HW3 4467   2.513   3.792   1.907 -0.3332  0.5067  1.0160
 1105SOL    MW4 4468   2.503   3.871   1.872 -0.1714  0.1395  0.1229
 1106SOL     OW 4469   2.285   4.004   1.950 -0.8132  0.4980  0.1001
 1106SOL    HW2 4470   2.288   4.011   2.045  0.1683  0.7247  0.0557
 1106SOL    HW3 4471   2.271   4.093   1.919  0.8747  0.7384 -0.0355
 1106SOL    MW4 4472   2.284   4.017   1.958 -0.4609  0.5593  0.0764
 1107SOL     OW 4473   2.238   4.266   1.856 -0.0335  0.5623  0.4255
 1107SOL    HW2 4474   2.319   4.301   1.894  0.9181  0.3801 -1.3916
 1107SOL    HW3 4475   2.261   4.245   1.766 -1.8171 -0.5454  0.2067
 1107SOL    MW4 4476   2.252   4.268   1.849 -0.1435  0.3929  0.1569
 1108SOL     OW 4477   2.449   4.413   1.960  0.3771 -0.1851  0.3615
 1108SOL    HW2 4478   2.455   4.422   2.055  0.8474  0.2110  0.2987
 1108SOL    HW3 4479   2.526   4.362   1.936  0.0681 -0.5921  0.2288
 1108SOL    MW4 4480   2.460   4.408   1.969  0.3984 -0.1864  0.3357
 1109SOL     OW 4481   2.911   4.643   1.860  0.2903  0.1434 -0.4140
 1109SOL    HW2 4482   2.988   4.677   1.903  0.8156 -0.1910 -1.0760
 1109SOL    HW3 4483   2.894   4.559   1.903 -0.0812  0.5172  0.1638
 1109SOL    MW4 4484   2.919   4.636   1.871  0.3107  0.1486 -0.4251
 1110SOL     OW 4485   2.704   0.112   1.987  0.2198 -0.4721  0.4823
 1110SOL    HW2 4486   2.704   0.084   2.079  1.0008 -0.1698  0.5722
 1110SOL    HW3 4487   2.769   0.056   1.945  1.0262  0.4873  0.4458
 1110SOL    MW4 4488   2.712   0.101   1.994  0.4292 -0.3056  0.4892
 1111SOL     OW 4489   2.706   0.372   1.857 -0.1415 -0.0100 -0.4473
 1111SOL    HW2 4490   2.767   0.430   1.902  2.1975 -0.5082 -2.8471
 1111SOL    HW3 4491   2.715   0.288   1.902 -0.1623  0.2976  0.1356
 1111SOL    MW4 4492   2.715   0.368   1.869  0.1643 -0.0351 -0.6870
 1112SOL     OW 4493   2.893   0.528   1.989  0.4652  0.1032  0.2545
 1112SOL    HW2 4494   2.974   0.479   1.972 -0.0340 -0.4378 -0.5937
 1112SOL    HW3 4495   2.906   0.612   1.947  0.0915 -0.4470 -0.9833
 1112SOL    MW4 4496   2.905   0.532   1.981  0.3502 -0.0408 -0.0206
 1113SOL     OW 4497   2.922   0.786   1.862 -0.2737 -0.2423  0.0204
 1113SOL    HW2 4498   3.000   0.828   1.899  0.3008  0.3352 -1.8055
 1113SOL    HW3 4499   2.850   0.816   1.918  0.8111 -0.8346  1.7632
 1113SOL    MW4 4500   2.923   0.795   1.874 -0.0548 -0.2443  0.0094
 1114SOL     OW 4501   2.693   0.894   1.985 -0.1994 -0.1563 -0.5547
 1114SOL    HW2 4502   2.716   0.983   1.956 -0.2254 -0.0819 -0.3493
 1114SOL    HW3 4503   2.611   0.875   1.941 -0.7409  0.3383  0.2339
 1114SOL    MW4 4504   2.685   0.903   1.975 -0.2747 -0.0812 -0.4237
 1115SOL     OW 4505   2.707   1.152   1.881 -0.1102  0.5931  0.1521
 1115SOL    HW2 4506   2.616   1.172   1.901 -1.1126 -1.8578 -1.7274
 1115SOL    HW3 4507   2.712   1.150   1.786  1.0142 -2.8171  0.1835
 1115SOL    MW4 4508   2.696   1.154   1.871 -0.0942 -0.1802 -0.0917
 1116SOL     OW 4509   2.925   1.290   1.987 -0.3802  0.0342 -0.0746
 1116SOL    HW2 4510   2.922   1.382   1.960  1.4767 -0.4280 -1.9716
 1116SOL    HW3 4511   2.851   1.250   1.941 -0.5183  0.3414 -0.1292
 1116SOL    MW4 4512   2.915   1.297   1.977 -0.1533  0.0137 -0.3321
 1117SOL     OW 4513   2.925   1.552   1.929  0.4837  0.3044 -0.1021
 1117SOL    HW2 4514   3.004   1.596   1.960  0.6057 -0.0035  0.0237
 1117SOL    HW3 4515   2.932   1.557   1.833  0.2517  0.9914 -0.0862
 1117SOL    MW4 4516   2.936   1.559   1.920  0.4694  0.3545 -0.0832
 1118SOL     OW 4517   2.678   1.680   1.987 -0.1035 -0.7002 -0.0554
 1118SOL    HW2 4518   2.768   1.647   1.982 -0.2603 -1.5820  2.1654
 1118SOL    HW3 4519   2.623   1.605   1.963 -0.2981 -0.7829  0.6177
 1118SOL    MW4 4520   2.682   1.665   1.983 -0.1497 -0.8276  0.3264
 1119SOL     OW 4521   2.670   1.938   1.872  0.5908  0.2513  0.2084
 1119SOL    HW2 4522   2.744   1.977   1.919  0.5465  0.2596  0.2720
 1119SOL    HW3 4523   2.659   1.852   1.912 -0.0098  0.6040  0.8191
 1119SOL    MW4 4524   2.679   1.932   1.884  0.5057  0.2989  0.2972
 1120SOL     OW 4525   2.892   2.047   2.001 -0.2303  0.2548  0.3733
 1120SOL    HW2 4526   2.893   2.035   2.096 -0.4778 -0.2087  0.3221
 1120SOL    HW3 4527   2.970   2.002   1.971  0.5761  1.5650  0.4810
 1120SOL    MW4 4528   2.902   2.039   2.010 -0.1566  0.3664  0.3808
 1121SOL     OW 4529   2.900   2.300   1.885 -0.4217 -0.3448  0.0832
 1121SOL    HW2 4530   2.976   2.341   1.925  0.2154 -0.9261 -0.5290
 1121SOL    HW3 4531   2.899   2.211   1.919 -0.6960 -0.4067 -0.0820
 1121SOL    MW4 4532   2.910   2.294   1.894 -0.3736 -0.4296 -0.0194
 1122SOL     OW 4533   2.688   2.411   2.024  0.4365  0.0375 -0.2087
 1122SOL    HW2 4534   2.709   2.500   1.995 -0.0860  0.4689  0.7089
 1122SOL    HW3 4535   2.762   2.358   1.995  0.5208  0.6859 -1.2007
 1122SOL    MW4 4536   2.701   2.416   2.016  0.3788  0.1800 -0.2186
 1123SOL     OW 4537   2.681   2.668   1.883 -0.3529 -0.0075  0.5809
 1123SOL    HW2 4538   2.613   2.726   1.917  0.4935  0.9987  0.5765
 1123SOL    HW3 4539   2.682   2.684   1.789  0.0955  0.2013  0.6196
 1123SOL    MW4 4540   2.672   2.678   1.875 -0.1822  0.1526  0.5854
 1124SOL     OW 4541   2.885   2.819   2.004  0.3746 -0.2561  0.3834
 1124SOL    HW2 4542   2.892   2.907   1.969  0.4927 -0.2267  0.4807
 1124SOL    HW3 4543   2.808   2.782   1.960 -0.3833  0.2985  1.2243
 1124SOL    MW4 4544   2.876   2.826   1.993  0.2902 -0.1791  0.5071
 1125SOL     OW 4545   2.926   3.074   1.907  0.0316  0.1835  0.2417
 1125SOL    HW2 4546   3.006   3.121   1.931  0.1191 -0.1187  0.5377
 1125SOL    HW3 4547   2.855   3.133   1.933  0.1736  1.5344 -2.2043
 1125SOL    MW4 4548   2.927   3.088   1.913  0.0618  0.3219 -0.0418
 1126SOL     OW 4549   2.711   3.208   1.982 -0.1284  0.1844  0.2204
 1126SOL    HW2 4550   2.705   3.294   1.940  0.2234 -0.0643 -0.3530
 1126SOL    HW3 4551   2.635   3.160   1.949 -0.3497  0.2928  0.5763
 1126SOL    MW4 4552   2.700   3.213   1.972 -0.1111  0.1659  0.1918
 1127SOL     OW 4553   2.692   3.464   1.887  0.3016 -0.4949  0.0984
 1127SOL    HW2 4554   2.773   3.513   1.897  0.9710 -2.1836  3.5735
 1127SOL    HW3 4555   2.624   3.521   1.922  0.8247 -1.2544  2.4349
 1127SOL    MW4 4556   2.694   3.478   1.893  0.4592 -0.8180  0.8653
 1128SOL     OW 4557   2.917   3.600   1.968  0.1573  0.0833  0.1584
 1128SOL    HW2 4558   2.923   3.594   2.063  0.7987  0.9063  0.1756
 1128SOL    HW3 4559   3.003   3.574   1.936 -0.4865 -1.5782 -0.2724
 1128SOL    MW4 4560   2.929   3.596   1.976  0.1571 -0.0269  0.1038
 1129SOL     OW 4561   2.927   3.871   1.873 -0.2645 -0.0412  0.6460
 1129SOL    HW2 4562   2.912   3.783   1.909 -1.7059  0.0438  0.2732
 1129SOL    HW3 4563   2.920   3.860   1.778 -0.2996  0.4479  0.5894
 1129SOL    MW4 4564   2.924   3.858   1.865 -0.4594  0.0346  0.5894
 1130SOL     OW 4565   2.721   4.009   1.986 -0.0621  0.2676  0.4689
 1130SOL    HW2 4566   2.799   3.967   1.950  0.7040  1.4753  0.7212
 1130SOL    HW3 4567   2.648   3.961   1.946  0.7908 -0.9271  0.3012
 1130SOL    MW4 4568   2.722   3.997   1.976  0.1516  0.2697  0.4801
 1131SOL     OW 4569   2.702   4.262   1.898 -0.5594  0.0341  0.3552
 1131SOL    HW2 4570   2.722   4.172   1.926 -1.1566  0.2551  1.5284
 1131SOL    HW3 4571   2.729   4.265   1.806  0.4823 -1.0240  0.6159
 1131SOL    MW4 4572   2.708   4.250   1.890 -0.5007 -0.0753  0.5445
 1132SOL     OW 4573   2.899   4.408   1.987 -0.2387 -0.1948 -0.0710
 1132SOL    HW2 4574   2.895   4.406   2.083  0.9254  1.8305  0.0638
 1132SOL    HW3 4575   2.818   4.366   1.959 -0.9199 -0.2188  1.8129
 1132SOL    MW4 4576   2.888   4.402   1.996 -0.1748  0.0687  0.1954
 1133SOL     OW 4577   3.365   4.637   1.903 -0.2498 -0.2564 -0.0018
 1133SOL    HW2 4578   3.377   4.543   1.914 -0.1509 -0.1850  0.5274
 1133SOL    HW3 4579   3.333   4.647   1.813  2.6169 -0.5307 -1.0854
 1133SOL    MW4 4580   3.362   4.626   1.893  0.1414 -0.2832 -0.0749
 1134SOL     OW 4581   3.126   0.100   1.978 -0.1978 -0.1209 -0.2981
 1134SOL    HW2 4582   3.111   0.107   2.072 -1.9882 -2.7621 -0.3457
 1134SOL    HW3 4583   3.212   0.059   1.970 -0.6830 -1.2689  0.2358
 1134SOL    MW4 4584   3.135   0.095   1.989 -0.4978 -0.6208 -0.2339
 1135SOL     OW 4585   3.137   0.387   1.924  0.0524  0.5023 -0.3263
 1135SOL    HW2 4586   3.125   0.294   1.944  0.6432  0.4262 -0.3033
 1135SOL    HW3 4587   3.135   0.391   1.828 -2.3196  0.8031 -0.2869
 1135SOL    MW4 4588   3.135   0.375   1.914 -0.1826  0.5320 -0.3179
 1136SOL     OW 4589   3.377   0.513   1.987  0.0659  0.0360 -0.0657
 1136SOL    HW2 4590   3.456   0.471   1.953 -0.6411 -1.0720 -0.3390
 1136SOL    HW3 4591   3.305   0.468   1.944 -0.7624  0.1008  1.2335
 1136SOL    MW4 4592   3.378   0.502   1.977 -0.1369 -0.1017  0.0697
 1137SOL     OW 4593   3.315   0.762   1.874  0.3581  0.1532  0.4450
 1137SOL    HW2 4594   3.249   0.800   1.933  0.3068  0.6071  0.0966
 1137SOL    HW3 4595   3.342   0.681   1.917 -0.2806  0.0711  0.6915
 1137SOL    MW4 4596   3.310   0.756   1.888  0.2673  0.2023  0.4317
 1138SOL     OW 4597   3.120   0.908   2.015 -0.4537 -0.1161 -0.5071
 1138SOL    HW2 4598   3.093   0.921   2.106  1.7572 -0.1295  0.1977
 1138SOL    HW3 4599   3.142   0.996   1.984 -1.5765 -0.0641 -1.1520
 1138SOL    MW4 4600   3.119   0.922   2.023 -0.3099 -0.1110 -0.4992
 1139SOL     OW 4601   3.152   1.157   1.906  0.2781 -0.2085  0.0339
 1139SOL    HW2 4602   3.234   1.202   1.929 -0.0320 -0.5964  1.9870
 1139SOL    HW3 4603   3.084   1.212   1.945 -0.3714 -0.1393 -1.1886
 1139SOL    MW4 4604   3.154   1.170   1.914  0.1514 -0.2506  0.1303
 1140SOL     OW 4605   3.378   1.292   1.976  0.2796  0.0928 -0.0045
 1140SOL    HW2 4606   3.374   1.290   2.072 -0.2918  0.1400 -0.0303
 1140SOL    HW3 4607   3.371   1.385   1.954 -0.4079  0.0121 -0.1298
 1140SOL    MW4 4608   3.377   1.304   1.986  0.1135  0.0883 -0.0244
 1141SOL     OW 4609   3.374   1.564   1.902 -0.3208 -0.0531 -0.1541
 1141SOL    HW2 4610   3.454   1.610   1.928 -1.0186  0.1987  1.6026
 1141SOL    HW3 4611   3.305   1.603   1.956 -1.2752 -1.6777 -0.1686
 1141SOL    MW4 4612   3.375   1.575   1.913 -0.5388 -0.2342  0.0757
 1142SOL     OW 4613   3.161   1.671   2.031 -0.0594  0.5377 -0.6809
 1142SOL    HW2 4614   3.147   1.681   2.125 -0.6459 -0.5101 -0.6436
 1142SOL    HW3 4615   3.168   1.760   1.997  1.8159  0.8970  0.6065
 1142SOL    MW4 4616   3.160   1.684   2.039  0.1106  0.4469 -0.5064
 1143SOL     OW 4617   3.130   1.928   1.918  0.4155  0.4557 -0.3116
 1143SOL    HW2 4618   3.211   1.976   1.936  1.0896 -0.4054 -0.9687
 1143SOL    HW3 4619   3.137   1.905   1.825 -0.2508 -0.2516 -0.1872
 1143SOL    MW4 4620   3.142   1.932   1.908  0.4165  0.2488 -0.3818
 1144SOL     OW 4621   3.363   2.072   2.010 -0.4501 -0.2611 -0.1242
 1144SOL    HW2 4622   3.450   2.031   2.004 -0.7750 -1.1929  1.2259
 1144SOL    HW3 4623   3.375   2.158   1.971  1.0415 -0.4641 -0.1664
 1144SOL    MW4 4624   3.376   2.078   2.004 -0.2961 -0.4108  0.0482
 1145SOL     OW 4625   3.367   2.341   1.893  0.1018  0.0281  0.0065
 1145SOL    HW2 4626   3.288   2.374   1.936 -0.3195 -0.6982 -0.2013
 1145SOL    HW3 4627   3.345   2.338   1.800  0.4925  0.1413 -0.0933
 1145SOL    MW4 4628   3.354   2.345   1.887  0.0978 -0.0527 -0.0340
 1146SOL     OW 4629   3.119   2.433   1.988 -0.0483 -0.0828 -0.4807
 1146SOL    HW2 4630   3.122   2.434   2.083 -2.3932  0.9116 -0.3927
 1146SOL    HW3 4631   3.135   2.524   1.963  3.1644 -0.7799 -1.1715
 1146SOL    MW4 4632   3.122   2.445   1.997  0.0665 -0.0436 -0.5602
 1147SOL     OW 4633   3.128   2.704   1.874  0.2175  0.0128 -0.6324
 1147SOL    HW2 4634   3.045   2.733   1.912  0.6602 -0.0659  0.4305
 1147SOL    HW3 4635   3.111   2.695   1.781 -0.9571  0.0527 -0.4238
 1147SOL    MW4 4636   3.115   2.707   1.867  0.1209  0.0076 -0.4647
 1148SOL     OW 4637   3.370   2.820   1.980  0.2411 -0.2948 -0.0879
 1148SOL    HW2 4638   3.346   2.826   2.073  0.0511 -1.4902 -0.0513
 1148SOL    HW3 4639   3.305   2.761   1.943  0.1718  0.3661 -1.0460
 1148SOL    MW4 4640   3.358   2.813   1.987  0.2067 -0.3655 -0.2097
 1149SOL     OW 4641   3.359   3.085   1.918 -0.6732 -0.0978 -0.0992
 1149SOL    HW2 4642   3.445   3.120   1.941 -1.2682  0.9645  0.5787
 1149SOL    HW3 4643   3.367   2.991   1.928  0.9458 -0.1888 -1.8158
 1149SOL    MW4 4644   3.371   3.077   1.922 -0.5383  0.0303 -0.2363
 1150SOL     OW 4645   3.132   3.226   1.970 -0.6232  0.4659 -0.6191
 1150SOL    HW2 4646   3.165   3.308   1.932  0.0987  0.5230  0.1143
 1150SOL    HW3 4647   3.206   3.166   1.965 -1.0637 -0.0546 -0.8893
 1150SOL    MW4 4648   3.146   3.229   1.964 -0.5858  0.4046 -0.5579
 1151SOL     OW 4649   3.169   3.503   1.853 -0.1003  0.1165  0.1073
 1151SOL    HW2 4650   3.233   3.557   1.899  0.4089 -0.0212 -0.4233
 1151SOL    HW3 4651   3.177   3.530   1.761  0.3485 -1.0372 -0.2066
 1151SOL    MW4 4652   3.179   3.514   1.847  0.0265 -0.0539 -0.0042
 1152SOL     OW 4653   3.374   3.614   1.969 -0.3599  0.5110 -0.1022
 1152SOL    HW2 4654   3.456   3.569   1.949  0.1813  1.6154 -0.4129
 1152SOL    HW3 4655   3.387   3.703   1.935 -1.8343  0.5756 -0.5050
 1152SOL    MW4 4656   3.387   3.620   1.962 -0.4830  0.6652 -0.1963
 1153SOL     OW 4657   3.362   3.876   1.873 -0.1013 -0.0713  0.1822
 1153SOL    HW2 4658   3.292   3.940   1.888 -0.9103 -0.5642 -1.3630
 1153SOL    HW3 4659   3.364   3.864   1.778 -0.6038 -3.0183  0.4927
 1153SOL    MW4 4660   3.353   3.883   1.863 -0.2742 -0.5250  0.0192
 1154SOL     OW 4661   3.144   4.020   1.940  0.0850 -0.0414  0.2533
 1154SOL    HW2 4662   3.139   4.026   2.035  1.2145 -1.8739  0.4663
 1154SOL    HW3 4663   3.072   3.962   1.916  0.3906 -0.3543  0.0900
 1154SOL    MW4 4664   3.134   4.013   1.949  0.2742 -0.3247  0.2599
 1155SOL     OW 4665   3.132   4.287   1.859  0.2985 -0.2377 -0.3250
 1155SOL    HW2 4666   3.138   4.195   1.886  1.5484 -0.1461 -0.2815
 1155SOL    HW3 4667   3.046   4.314   1.890  0.7466 -0.8083  1.5318
 1155SOL    MW4 4668   3.121   4.278   1.867  0.5224 -0.3014 -0.0743
 1156SOL     OW 4669   3.369   4.369   1.978  0.3176 -0.2357  0.4063
 1156SOL    HW2 4670   3.446   4.333   1.934  0.3898  0.4443 -0.0368
 1156SOL    HW3 4671   3.295   4.340   1.926  0.4922  1.7636 -1.0397
 1156SOL    MW4 4672   3.370   4.361   1.966  0.3500  0.1178  0.1569
 1157SOL     OW 4673   3.805   4.634   1.885  0.1651  0.0198 -0.0250
 1157SOL    HW2 4674   3.802   4.543   1.915 -0.1418  0.4368  1.2366
 1157SOL    HW3 4675   3.725   4.673   1.920  0.5569  0.9067 -0.1136
 1157SOL    MW4 4676   3.794   4.627   1.894  0.1762  0.1922  0.1298
 1158SOL     OW 4677   3.590   0.116   1.983 -0.0309  0.7104  0.3311
 1158SOL    HW2 4678   3.594   0.114   2.078  1.1052 -1.8504  0.2854
 1158SOL    HW3 4679   3.514   0.063   1.961  0.7424 -0.2194 -0.1898
 1158SOL    MW4 4680   3.581   0.108   1.993  0.2213  0.2498  0.2563
 1159SOL     OW 4681   3.607   0.384   1.914  0.0316 -0.1340 -0.0842
 1159SOL    HW2 4682   3.600   0.293   1.942  0.9025 -0.1319  0.1403
 1159SOL    HW3 4683   3.615   0.379   1.818 -0.3367 -0.2739 -0.1065
 1159SOL    MW4 4684   3.607   0.371   1.905  0.0980 -0.1522 -0.0573
 1160SOL     OW 4685   3.838   0.512   1.973  0.0068  0.1289  0.0528
 1160SOL    HW2 4686   3.813   0.599   1.942  0.3279 -0.2696 -1.3795
 1160SOL    HW3 4687   3.757   0.461   1.967  0.6137 -0.6173 -2.6255
 1160SOL    MW4 4688   3.824   0.517   1.968  0.1292 -0.0221 -0.4896
 1161SOL     OW 4689   3.814   0.774   1.888 -0.2319 -0.5615  0.3055
 1161SOL    HW2 4690   3.732   0.803   1.929  0.1135 -0.1416  0.6960
 1161SOL    HW3 4691   3.799   0.784   1.794 -1.1325 -1.7924  0.3017
 1161SOL    MW4 4692   3.801   0.779   1.881 -0.3054 -0.6686  0.3564
 1162SOL     OW 4693   3.575   0.890   1.961  0.2738 -0.0533 -0.1855
 1162SOL    HW2 4694   3.575   0.984   1.940 -0.6097  0.4625  2.0425
 1162SOL    HW3 4695   3.492   0.858   1.924  0.6948 -0.0234 -1.1760
 1162SOL    MW4 4696   3.564   0.898   1.953  0.2127  0.0188 -0.0223
 1163SOL     OW 4697   3.592   1.151   1.866  0.0751 -0.3785  0.2559
 1163SOL    HW2 4698   3.512   1.195   1.895  0.8451  1.6420 -0.6564
 1163SOL    HW3 4699   3.588   1.155   1.770  1.6046  0.3117  0.2221
 1163SOL    MW4 4700   3.581   1.157   1.857  0.3786 -0.0210  0.1310
 1164SOL     OW 4701   3.783   1.322   1.970 -0.1116  0.3025  0.0194
 1164SOL    HW2 4702   3.775   1.312   2.065 -0.4129 -1.6746 -0.1810
 1164SOL    HW3 4703   3.713   1.267   1.934  0.9648 -0.2192 -1.3641
 1164SOL    MW4 4704   3.773   1.313   1.978 -0.0093 -0.0273 -0.1895
 1165SOL     OW 4705   3.827   1.573   1.879  0.1857  0.2092 -0.0908
 1165SOL    HW2 4706   3.914   1.601   1.908  0.4608 -0.6550 -0.0758
 1165SOL    HW3 4707   3.813   1.488   1.921 -1.1154  0.8348  0.7708
 1165SOL    MW4 4708   3.836   1.565   1.888  0.0505  0.1776  0.0248
 1166SOL     OW 4709   3.602   1.683   1.999  0.4814  0.2942  0.6614
 1166SOL    HW2 4710   3.599   1.775   1.973  0.0479 -0.1867 -1.0718
 1166SOL    HW3 4711   3.683   1.650   1.959  0.0280 -0.3596  0.2866
 1166SOL    MW4 4712   3.613   1.691   1.990  0.3641  0.1445  0.3833
 1167SOL     OW 4713   3.595   1.952   1.917 -0.3976  0.0411  0.0214
 1167SOL    HW2 4714   3.680   1.988   1.943 -0.4846 -0.0425  0.4218
 1167SOL    HW3 4715   3.600   1.945   1.822  0.2320 -0.4345  0.0856
 1167SOL    MW4 4716   3.607   1.956   1.908 -0.3262 -0.0328  0.0827
 1168SOL     OW 4717   3.860   2.026   1.980 -0.1950  0.5228 -0.0257
 1168SOL    HW2 4718   3.933   1.969   1.958  0.0784  0.7256  0.3430
 1168SOL    HW3 4719   3.875   2.105   1.927 -0.6314  0.2085 -0.6153
 1168SOL    MW4 4720   3.872   2.029   1.971 -0.2167  0.5078 -0.0550
 1169SOL     OW 4721   3.840   2.282   1.826  0.1111 -0.1429  0.4755
 1169SOL    HW2 4722   3.911   2.324   1.875 -0.3983  0.8709  0.3436
 1169SOL    HW3 4723   3.763   2.294   1.880 -0.3794  0.6385 -0.3754
 1169SOL    MW4 4724   3.839   2.289   1.839 -0.0210  0.0942  0.3459
 1170SOL     OW 4725   3.625   2.375   1.972  0.0597  0.0480 -0.0666
 1170SOL    HW2 4726   3.611   2.470   1.965 -0.6821  0.0044  0.7460
 1170SOL    HW3 4727   3.539   2.337   1.952  0.2592 -0.4414  0.0082
 1170SOL    MW4 4728   3.612   2.383   1.968 -0.0117 -0.0224  0.0504
 1171SOL     OW 4729   3.593   2.658   1.882 -0.1967 -0.1131 -0.0671
 1171SOL    HW2 4730   3.678   2.697   1.905 -0.0609 -0.8015  0.6302
 1171SOL    HW3 4731   3.528   2.719   1.916  0.0203  0.3666 -0.5134
 1171SOL    MW4 4732   3.596   2.671   1.890 -0.1500 -0.1407 -0.0340
 1172SOL     OW 4733   3.808   2.804   1.978  0.8693 -0.1431 -0.1025
 1172SOL    HW2 4734   3.793   2.810   2.073  0.2649  0.7867 -0.2511
 1172SOL    HW3 4735   3.823   2.895   1.951  0.3040 -0.3228 -1.0130
 1172SOL    MW4 4736   3.808   2.817   1.987  0.7150 -0.0443 -0.2424
 1173SOL     OW 4737   3.836   3.062   1.889 -0.1921  0.0483 -0.3301
 1173SOL    HW2 4738   3.759   3.117   1.901 -0.5471 -0.3749 -0.6409
 1173SOL    HW3 4739   3.844   3.053   1.794 -0.5360 -0.9958 -0.2623
 1173SOL    MW4 4740   3.827   3.068   1.878 -0.2844 -0.1452 -0.3620
 1174SOL     OW 4741   3.592   3.210   1.970 -0.4341 -0.4161  0.0963
 1174SOL    HW2 4742   3.621   3.214   2.061  0.7846  0.1990 -0.2993
 1174SOL    HW3 4743   3.591   3.302   1.942  0.3367 -0.6886 -0.8417
 1174SOL    MW4 4744   3.596   3.223   1.978 -0.1714 -0.3705 -0.0798
 1175SOL     OW 4745   3.610   3.471   1.894 -0.4482  0.2108 -0.3532
 1175SOL    HW2 4746   3.680   3.516   1.941  2.0589 -3.3832 -0.4923
 1175SOL    HW3 4747   3.632   3.484   1.801  0.9037 -2.1339 -0.3885
 1175SOL    MW4 4748   3.622   3.479   1.888  0.0608 -0.5727 -0.3762
 1176SOL     OW 4749   3.816   3.601   1.994  0.2414  0.5626 -0.2394
 1176SOL    HW2 4750   3.895   3.559   1.960 -0.4275  0.6348 -1.9168
 1176SOL    HW3 4751   3.823   3.691   1.963 -0.8551  0.3809 -1.0346
 1176SOL    MW4 4752   3.828   3.607   1.985  0.0086  0.5479 -0.5656
 1177SOL     OW 4753   3.821   3.859   1.870  0.0924  0.0112 -0.0513
 1177SOL    HW2 4754   3.748   3.914   1.897  0.4211  0.6011 -0.3596
 1177SOL    HW3 4755   3.815   3.856   1.775  0.9929  0.7898 -0.1384
 1177SOL    MW4 4756   3.811   3.866   1.861  0.2544  0.1917 -0.1035
 1178SOL     OW 4757   3.590   4.001   1.939  0.1304  0.5662 -0.0379
 1178SOL    HW2 4758   3.577   4.010   2.033  0.2922 -0.7430  0.1067
 1178SOL    HW3 4759   3.512   3.955   1.908 -0.8712  2.7026 -0.8512
 1178SOL    MW4 4760   3.578   3.996   1.947  0.0196  0.6750 -0.1260
 1179SOL     OW 4761   3.590   4.273   1.853  0.2006 -0.2526  0.3510
 1179SOL    HW2 4762   3.669   4.314   1.886  0.8744 -0.0135 -1.5115
 1179SOL    HW3 4763   3.594   4.183   1.884  1.1174 -0.1868  0.4085
 1179SOL    MW4 4764   3.601   4.267   1.861  0.4103 -0.2127  0.1128
 1180SOL     OW 4765   3.826   4.382   1.962 -0.1610 -0.4538  0.3660
 1180SOL    HW2 4766   3.830   4.356   2.054  1.2844 -2.0781 -0.1219
 1180SOL    HW3 4767   3.902   4.339   1.922 -0.2412  0.9911 -1.4009
 1180SOL    MW4 4768   3.837   4.373   1.969  0.0193 -0.4778  0.0687
 1181SOL     OW 4769   4.297   0.003   1.909  0.3245  0.5700 -0.1252
 1181SOL    HW2 4770   4.227   0.046   1.957 -0.2501 -0.9237  0.4155
 1181SOL    HW3 4771   4.377   0.049   1.936 -0.4096  2.1936 -0.6505
 1181SOL    MW4 4772   4.299   0.015   1.919  0.1521  0.5870 -0.1233
 1182SOL     OW 4773   4.033   0.124   1.952 -0.2970  0.5113 -0.2521
 1182SOL    HW2 4774   4.023   0.138   2.046  0.4965  0.6962 -0.1879
 1182SOL    HW3 4775   3.952   0.080   1.925  0.5191 -1.8263  0.9611
 1182SOL    MW4 4776   4.021   0.120   1.961 -0.0849  0.2273 -0.0836
 1183SOL     OW 4777   4.041   0.375   1.851 -0.7991 -0.1547 -0.2375
 1183SOL    HW2 4778   4.042   0.289   1.892  0.2840 -0.1633 -0.2508
 1183SOL    HW3 4779   3.971   0.422   1.896 -0.5872 -0.6414  0.6316
 1183SOL    MW4 4780   4.032   0.370   1.863 -0.6280 -0.2201 -0.1246
 1184SOL     OW 4781   4.276   0.510   1.951 -0.2303  0.0662  0.1935
 1184SOL    HW2 4782   4.270   0.509   2.047 -0.2248 -0.2721  0.1942
 1184SOL    HW3 4783   4.196   0.465   1.922 -0.9543  1.4688 -0.0047
 1184SOL    MW4 4784   4.265   0.504   1.960 -0.3247  0.2066  0.1675
 1185SOL     OW 4785   4.286   0.783   1.879  0.4839 -0.0145  0.3466
 1185SOL    HW2 4786   4.278   0.692   1.907  1.8344 -0.2462  0.0107
 1185SOL    HW3 4787   4.276   0.781   1.784 -2.6608  0.5990  0.6131
 1185SOL    MW4 4788   4.283   0.771   1.870  0.2475  0.0358  0.3374
 1186SOL     OW 4789   4.044   0.898   1.993  0.1870  0.1053 -0.3500
 1186SOL    HW2 4790   4.119   0.867   1.941 -0.0206 -0.9260 -0.0447
 1186SOL    HW3 4791   3.969   0.848   1.960 -0.3627  1.0848 -0.6079
 1186SOL    MW4 4792   4.044   0.887   1.982  0.0868  0.0984 -0.3438
 1187SOL     OW 4793   4.000   1.150   1.890 -0.3949 -0.0527 -0.3788
 1187SOL    HW2 4794   4.002   1.061   1.926  1.6704 -0.0991 -0.5012
 1187SOL    HW3 4795   3.930   1.194   1.938  0.5183 -0.8922  1.8300
 1187SOL    MW4 4796   3.991   1.144   1.901 -0.0021 -0.1696 -0.1035
 1188SOL     OW 4797   4.275   1.209   1.945  0.3800  0.2073 -0.3534
 1188SOL    HW2 4798   4.263   1.196   2.039 -1.3623 -1.0997 -0.7334
 1188SOL    HW3 4799   4.188   1.198   1.907  1.2117 -0.1979 -2.2378
 1188SOL    MW4 4800   4.262   1.206   1.952  0.2599 -0.0186 -0.6521
 1189SOL     OW 4801   4.288   1.474   1.902 -0.1553  0.1667  0.2648
 1189SOL    HW2 4802   4.303   1.381   1.921  1.8971  0.4741  0.2517
 1189SOL    HW3 4803   4.261   1.476   1.810  1.7013 -0.2667 -0.3106
 1189SOL    MW4 4804   4.287   1.462   1.892  0.3605  0.1500  0.1870
 1190SOL     OW 4805   4.073   1.628   2.002 -0.4520 -0.1427  0.4649
 1190SOL    HW2 4806   4.060   1.613   2.095 -1.8705 -0.4572  0.2161
 1190SOL    HW3 4807   4.151   1.576   1.980 -0.9410 -1.1693  1.1735
 1190SOL    MW4 4808   4.082   1.619   2.011 -0.7038 -0.3196  0.5257
 1191SOL     OW 4809   4.065   1.869   1.888 -0.1477  0.0873 -0.4439
 1191SOL    HW2 4810   4.083   1.778   1.912  1.2421  0.5019  0.1637
 1191SOL    HW3 4811   4.083   1.874   1.794  0.6355 -0.0787 -0.3100
 1191SOL    MW4 4812   4.070   1.858   1.879  0.1383  0.1200 -0.3459
 1192SOL     OW 4813   4.265   2.024   2.008  0.0107  0.3717 -0.0505
 1192SOL    HW2 4814   4.263   2.013   2.103  2.2685 -1.4215 -0.1361
 1192SOL    HW3 4815   4.198   1.964   1.975 -0.2913  0.4699  0.3960
 1192SOL    MW4 4816   4.256   2.014   2.016  0.2685  0.1481 -0.0029
 1193SOL     OW 4817   4.261   2.262   1.882  0.1253 -0.0622 -0.1586
 1193SOL    HW2 4818   4.266   2.179   1.931 -1.5530 -0.6152 -0.8654
 1193SOL    HW3 4819   4.330   2.317   1.920 -0.3579 -0.8992  2.0061
 1193SOL    MW4 4820   4.271   2.258   1.894 -0.1597 -0.2456  0.0337
 1194SOL     OW 4821   4.017   2.393   1.995  0.1814  0.1934  0.4038
 1194SOL    HW2 4822   4.023   2.397   2.090 -0.7034  2.0493  0.3953
 1194SOL    HW3 4823   4.105   2.368   1.966  1.2077  2.3968  1.5537
 1194SOL    MW4 4824   4.029   2.390   2.004  0.1998  0.7291  0.5543
 1195SOL     OW 4825   4.051   2.676   1.912 -0.0647 -0.4676 -0.1319
 1195SOL    HW2 4826   4.059   2.595   1.963  0.9032 -0.4744 -0.2846
 1195SOL    HW3 4827   3.977   2.722   1.951  0.8055 -0.3686  1.4317
 1195SOL    MW4 4828   4.043   2.671   1.924  0.1783 -0.4556  0.0544
 1196SOL     OW 4829   4.257   2.845   1.971 -0.1168 -0.5560 -0.0161
 1196SOL    HW2 4830   4.265   2.818   2.063 -0.5425  0.2873  0.2712
 1196SOL    HW3 4831   4.179   2.799   1.939 -0.2990 -0.3951  0.2021
 1196SOL    MW4 4832   4.248   2.835   1.979 -0.1979 -0.4239  0.0507
 1197SOL     OW 4833   4.285   3.098   1.858  0.1027 -0.2539  0.1540
 1197SOL    HW2 4834   4.205   3.145   1.881 -0.0980 -0.8465  0.6583
 1197SOL    HW3 4835   4.269   3.007   1.883  0.5265 -0.5847 -0.7371
 1197SOL    MW4 4836   4.272   3.092   1.864  0.1316 -0.3760  0.1031
 1198SOL     OW 4837   4.056   3.212   1.939  0.5834  0.0455  0.6027
 1198SOL    HW2 4838   4.072   3.199   2.033  0.9184  0.5233  0.6155
 1198SOL    HW3 4839   3.972   3.170   1.923 -0.1230  1.1010  1.3998
 1198SOL    MW4 4840   4.047   3.205   1.950  0.5345  0.2480  0.7095
 1199SOL     OW 4841   4.042   3.482   1.904  0.2885  0.0350 -0.2779
 1199SOL    HW2 4842   4.124   3.520   1.937  0.3753  0.6329 -1.1774
 1199SOL    HW3 4843   4.057   3.387   1.907  0.9113  0.1340 -0.1668
 1199SOL    MW4 4844   4.055   3.474   1.909  0.3824  0.1271 -0.3818
 1200SOL     OW 4845   4.281   3.593   1.981  0.1705  0.0877 -0.1719
 1200SOL    HW2 4846   4.276   3.679   1.941 -0.2034  0.2272  0.1751
 1200SOL    HW3 4847   4.354   3.549   1.936  1.1446  1.0077  0.4824
 1200SOL    MW4 4848   4.290   3.598   1.970  0.2499  0.2272 -0.0398
 1201SOL     OW 4849   4.272   3.842   1.846 -0.4245 -0.1542 -0.5742
 1201SOL    HW2 4850   4.345   3.898   1.873  1.4347 -2.5194 -0.5330
 1201SOL    HW3 4851   4.272   3.847   1.750  0.2580 -0.7067 -0.6054
 1201SOL    MW4 4852   4.282   3.850   1.837 -0.0887 -0.5393 -0.5728
 1202SOL     OW 4853   4.048   3.982   1.964  0.4724 -0.1783 -0.7000
 1202SOL    HW2 4854   4.119   3.929   1.927 -0.1086 -1.6535  0.2668
 1202SOL    HW3 4855   3.968   3.945   1.928  0.0501 -0.1261  0.1662
 1202SOL    MW4 4856   4.047   3.970   1.955  0.3395 -0.3662 -0.4580
 1203SOL     OW 4857   4.043   4.246   1.859  0.0674 -0.0158 -0.5113
 1203SOL    HW2 4858   4.125   4.288   1.886 -0.6437  0.9284  0.2529
 1203SOL    HW3 4859   4.034   4.171   1.918  1.2678 -1.1720 -1.7794
 1203SOL    MW4 4860   4.052   4.242   1.871  0.1316 -0.0443 -0.5779
 1204SOL     OW 4861   4.264   4.374   1.982  0.2181  0.5518  0.3186
 1204SOL    HW2 4862   4.261   4.365   2.077 -2.1394  0.6831  0.2683
 1204SOL    HW3 4863   4.254   4.468   1.966 -0.2950  0.4241 -0.1011
 1204SOL    MW4 4864   4.262   4.385   1.993 -0.1607  0.5522  0.2567
 1205SOL     OW 4865   0.168   4.636   2.378 -0.7025  0.2125  0.0511
 1205SOL    HW2 4866   0.174   4.647   2.472  0.1010  3.5061 -0.3269
 1205SOL    HW3 4867   0.239   4.689   2.342 -0.5822 -1.4838 -2.4066
 1205SOL    MW4 4868   0.178   4.644   2.385 -0.5806  0.4230 -0.3231
 1206SOL     OW 4869   4.434   0.113   2.281  0.1080  0.5250  0.2007
 1206SOL    HW2 4870   4.511   0.060   2.302 -0.3919 -0.3617 -0.2043
 1206SOL    HW3 4871   4.440   0.130   2.187 -0.7287 -0.4198 -0.0331
 1206SOL    MW4 4872   4.445   0.108   2.272 -0.0677  0.2834  0.1163
 1207SOL     OW 4873   4.476   0.366   2.365 -0.2639  0.0562  0.5106
 1207SOL    HW2 4874   4.550   0.393   2.311 -0.3883 -0.8483 -0.1162
 1207SOL    HW3 4875   4.461   0.274   2.342 -1.5580  0.2259  0.6437
 1207SOL    MW4 4876   4.484   0.358   2.355 -0.4511 -0.0407  0.4456
 1208SOL     OW 4877   0.227   0.462   2.259  0.1668  0.0994 -0.0423
 1208SOL    HW2 4878   0.312   0.425   2.286  0.4793  1.3602  0.7219
 1208SOL    HW3 4879   0.240   0.488   2.168 -0.0799 -1.7127 -0.6277
 1208SOL    MW4 4880   0.240   0.460   2.251  0.1754  0.0267 -0.0188
 1209SOL     OW 4881   0.265   0.710   2.359 -0.4425 -0.0269 -1.0241
 1209SOL    HW2 4882   0.254   0.696   2.453 -0.2120  1.2037 -0.8098
 1209SOL    HW3 4883   0.260   0.622   2.322 -0.2104 -0.5639  0.1721
 1209SOL    MW4 4884   0.263   0.696   2.367 -0.3814  0.0647 -0.8380
 1210SOL     OW 4885   0.055   0.884   2.306  0.0473  0.3093 -0.1349
 1210SOL    HW2 4886   0.138   0.841   2.328 -0.6828 -0.1875  1.7369
 1210SOL    HW3 4887   0.038   0.857   2.216  1.3718 -0.4785 -0.1698
 1210SOL    MW4 4888   0.064   0.874   2.297  0.1257  0.1398  0.1073
 1211SOL     OW 4889   0.001   1.153   2.358 -0.5216  0.0636  0.2243
 1211SOL    HW2 4890  -0.018   1.158   2.452  0.7228 -0.1570  0.4883
 1211SOL    HW3 4891   0.027   1.062   2.343  0.5997  0.4277 -0.0836
 1211SOL    MW4 4892   0.002   1.142   2.368 -0.2093  0.0826  0.2184
 1212SOL     OW 4893   0.232   1.267   2.274 -0.0678 -0.0923 -0.2173
 1212SOL    HW2 4894   0.152   1.234   2.315  0.4266 -1.2220 -0.1556
 1212SOL    HW3 4895   0.217   1.256   2.180 -0.0260 -0.2166 -0.2095
 1212SOL    MW4 4896   0.219   1.261   2.267  0.0029 -0.2577 -0.2081
 1213SOL     OW 4897   0.248   1.532   2.325  0.5666 -0.1322 -0.0062
 1213SOL    HW2 4898   0.226   1.519   2.417 -0.4051  0.0498 -0.2094
 1213SOL    HW3 4899   0.252   1.444   2.289 -2.8389 -0.0866 -0.6485
 1213SOL    MW4 4900   0.246   1.519   2.332 -0.0110 -0.1023 -0.1175
 1214SOL     OW 4901   4.465   1.614   2.322  0.1434  0.0994  0.1805
 1214SOL    HW2 4902   4.466   1.702   2.360  0.7964 -0.0104  0.4168
 1214SOL    HW3 4903   4.557   1.595   2.303  0.2401 -1.3230  1.9721
 1214SOL    MW4 4904   4.477   1.623   2.325  0.2422 -0.1028  0.4478
 1215SOL     OW 4905   4.480   1.884   2.412 -0.1795  0.6359  0.1055
 1215SOL    HW2 4906   4.409   1.914   2.355  1.5572  1.8525 -1.4841
 1215SOL    HW3 4907   4.559   1.919   2.371  1.2430  0.2641  2.4729
 1215SOL    MW4 4908   4.481   1.893   2.399  0.2375  0.7472  0.2084
 1216SOL     OW 4909   0.224   1.996   2.255  0.4414  0.3715  0.0173
 1216SOL    HW2 4910   0.314   1.982   2.286  0.8434  1.0202 -0.8572
 1216SOL    HW3 4911   0.233   2.013   2.162 -0.4547  1.9807  0.2087
 1216SOL    MW4 4912   0.237   1.996   2.247  0.3762  0.6692 -0.0730
 1217SOL     OW 4913   0.197   2.268   2.370  0.2596  0.0003 -0.0849
 1217SOL    HW2 4914   0.198   2.251   2.465  0.3307  0.4956  0.0067
 1217SOL    HW3 4915   0.185   2.182   2.330 -0.8760 -0.0840  0.4137
 1217SOL    MW4 4916   0.195   2.255   2.378  0.1192  0.0546 -0.0069
 1218SOL     OW 4917   4.455   2.414   2.283  0.1691  0.1038 -0.2567
 1218SOL    HW2 4918   4.468   2.504   2.316 -1.2167 -0.3274  1.5473
 1218SOL    HW3 4919   4.539   2.371   2.300  0.6884  0.9109 -0.6923
 1218SOL    MW4 4920   4.468   2.420   2.290  0.0548  0.1533 -0.0761
 1219SOL     OW 4921   4.483   2.701   2.338  0.7031 -0.2462 -0.7174
 1219SOL    HW2 4922   4.505   2.710   2.431  0.2130  0.7501 -0.6928
 1219SOL    HW3 4923   4.559   2.737   2.292  0.4240  0.3990 -0.6792
 1219SOL    MW4 4924   4.496   2.707   2.345  0.6022 -0.0298 -0.7091
 1220SOL     OW 4925   0.250   2.816   2.257 -0.2264 -0.6640  0.1505
 1220SOL    HW2 4926   0.321   2.764   2.296 -0.3777  0.0279  1.3820
 1220SOL    HW3 4927   0.261   2.805   2.163 -0.0005 -2.6000  0.3821
 1220SOL    MW4 4928   0.261   2.807   2.250 -0.2165 -0.8283  0.3436
 1221SOL     OW 4929   0.269   3.082   2.331 -0.3650  0.3939  0.0461
 1221SOL    HW2 4930   0.179   3.105   2.305 -0.2623 -0.6196 -1.2633
 1221SOL    HW3 4931   0.270   2.987   2.331  0.2722  0.3881  1.6746
 1221SOL    MW4 4932   0.257   3.073   2.327 -0.2673  0.2596  0.0880
 1222SOL     OW 4933   0.001   3.151   2.250 -0.5234  0.0789 -0.0756
 1222SOL    HW2 4934  -0.003   3.235   2.296  0.9693 -0.2061  0.5809
 1222SOL    HW3 4935   0.026   3.173   2.160 -0.1709  0.3387  0.0881
 1222SOL    MW4 4936   0.004   3.165   2.244 -0.2800  0.0756  0.0327
 1223SOL     OW 4937   4.487   3.411   2.368 -0.0826 -0.2515 -0.7309
 1223SOL    HW2 4938   4.479   3.418   2.463  1.4524  1.1207 -0.6779
 1223SOL    HW3 4939   4.413   3.460   2.334 -0.2969 -0.2343 -0.2527
 1223SOL    MW4 4940   4.476   3.418   2.376  0.0916 -0.0682 -0.6607
 1224SOL     OW 4941   0.203   3.556   2.254 -0.7251 -0.2882  0.4535
 1224SOL    HW2 4942   0.279   3.513   2.293 -0.9184 -0.6007  0.4823
 1224SOL    HW3 4943   0.128   3.504   2.282 -0.9296 -0.1183  0.2286
 1224SOL    MW4 4944   0.203   3.544   2.262 -0.7776 -0.3068  0.4277
 1225SOL     OW 4945   0.219   3.814   2.361 -0.0262  0.9335  0.2717
 1225SOL    HW2 4946   0.147   3.854   2.311 -0.0304  0.8596  0.2189
 1225SOL    HW3 4947   0.225   3.725   2.328 -2.1113 -0.1340  2.6104
 1225SOL    MW4 4948   0.211   3.808   2.350 -0.3019  0.7830  0.5734
 1226SOL     OW 4949   4.489   3.947   2.245  0.2454 -0.0991  0.0761
 1226SOL    HW2 4950   4.492   4.038   2.276 -0.3948 -0.0320 -0.0567
 1226SOL    HW3 4951   4.492   3.955   2.149  0.5661 -0.2336  0.0761
 1226SOL    MW4 4952   4.490   3.960   2.236  0.2033 -0.1078  0.0587
 1227SOL     OW 4953   4.460   4.235   2.338  0.3825 -0.2766  0.1362
 1227SOL    HW2 4954   4.458   4.247   2.433  2.1184 -0.5938  0.2240
 1227SOL    HW3 4955   4.533   4.289   2.308 -0.8758  0.7578 -1.1776
 1227SOL    MW4 4956   4.469   4.244   2.347  0.4458 -0.1822 -0.0257
 1228SOL     OW 4957   0.202   4.382   2.292 -0.1997 -0.1571 -0.2098
 1228SOL    HW2 4958   0.282   4.338   2.320  0.3870 -0.1421 -1.8132
 1228SOL    HW3 4959   0.209   4.471   2.326  0.3768 -0.2191 -0.1649
 1228SOL    MW4 4960   0.213   4.388   2.300 -0.0462 -0.1636 -0.4153
 1229SOL     OW 4961   0.646   4.619   2.321  0.0435  0.3507  0.2377
 1229SOL    HW2 4962   0.642   4.613   2.417  0.5767  1.4033  0.3315
 1229SOL    HW3 4963   0.732   4.658   2.303  0.4598 -0.9774 -0.7286
 1229SOL    MW4 4964   0.657   4.624   2.331  0.1689  0.3138  0.1225
 1230SOL     OW 4965   0.411   0.086   2.274  0.2105 -0.5614 -0.3232
 1230SOL    HW2 4966   0.487   0.033   2.298  0.1702 -1.2670 -1.6884
 1230SOL    HW3 4967   0.420   0.099   2.179 -0.1841  1.2361 -0.1288
 1230SOL    MW4 4968   0.422   0.081   2.264  0.1532 -0.4173 -0.4776
 1231SOL     OW 4969   0.464   0.348   2.357 -0.1090 -0.0518  0.5841
 1231SOL    HW2 4970   0.450   0.337   2.451 -0.6347 -0.1436  0.4974
 1231SOL    HW3 4971   0.451   0.260   2.321 -1.4573  0.2913  0.2332
 1231SOL    MW4 4972   0.461   0.335   2.364 -0.3563 -0.0187  0.5264
 1232SOL     OW 4973   0.703   0.475   2.247  0.1646  0.6121  0.4203
 1232SOL    HW2 4974   0.702   0.561   2.290 -0.8264 -0.1697  1.9937
 1232SOL    HW3 4975   0.621   0.433   2.275 -0.0343 -0.3124 -1.4545
 1232SOL    MW4 4976   0.692   0.481   2.256  0.0076  0.3870  0.3805
 1233SOL     OW 4977   0.670   0.767   2.353  0.1479  0.1682  0.3055
 1233SOL    HW2 4978   0.653   0.763   2.448 -1.1424 -2.0895  0.0467
 1233SOL    HW3 4979   0.599   0.822   2.319  0.0153  0.1476  0.5422
 1233SOL    MW4 4980   0.658   0.773   2.361 -0.0398 -0.1323  0.3028
 1234SOL     OW 4981   0.448   0.886   2.266  0.2964 -0.3154 -0.0167
 1234SOL    HW2 4982   0.397   0.812   2.298  0.8994 -1.3033 -1.2669
 1234SOL    HW3 4983   0.451   0.873   2.171  0.9509  0.9589 -0.1745
 1234SOL    MW4 4984   0.442   0.874   2.257  0.4623 -0.2776 -0.2027
 1235SOL     OW 4985   0.456   1.143   2.357 -0.1905  0.3935 -0.5227
 1235SOL    HW2 4986   0.446   1.053   2.326  1.8885  0.3907 -1.2620
 1235SOL    HW3 4987   0.377   1.187   2.326 -1.4650 -1.2800  0.2743
 1235SOL    MW4 4988   0.444   1.137   2.349 -0.0844  0.1725 -0.5152
 1236SOL     OW 4989   0.689   1.251   2.265  0.2170  0.8106 -0.2972
 1236SOL    HW2 4990   0.701   1.335   2.309 -1.7774  2.0577 -2.0848
 1236SOL    HW3 4991   0.605   1.219   2.298  0.8261 -0.3572  0.1502
 1236SOL    MW4 4992   0.680   1.258   2.276  0.0343  0.8209 -0.4742
 1237SOL     OW 4993   0.701   1.519   2.354  0.0515 -0.1474 -0.0516
 1237SOL    HW2 4994   0.689   1.529   2.449 -0.7657  2.2355 -0.3784
 1237SOL    HW3 4995   0.790   1.550   2.338  0.3125 -0.8738 -0.0334
 1237SOL    MW4 4996   0.711   1.525   2.365 -0.0219  0.0712 -0.0923
 1238SOL     OW 4997   0.478   1.659   2.240  0.3740  0.2092  0.0709
 1238SOL    HW2 4998   0.551   1.608   2.274  0.5415 -0.5732 -1.3998
 1238SOL    HW3 4999   0.400   1.614   2.274  0.5413 -0.2115 -0.1007
 1238SOL    MW4 5000   0.477   1.647   2.249  0.4182  0.0504 -0.1459
 1239SOL     OW 5001   0.482   1.903   2.366 -0.4300 -0.1572  0.4458
 1239SOL    HW2 5002   0.559   1.947   2.331 -0.7222 -0.4812 -0.6386
 1239SOL    HW3 5003   0.471   1.826   2.310 -1.1973 -0.4361  0.9650
 1239SOL    MW4 5004   0.491   1.898   2.354 -0.5698 -0.2367  0.3712
 1240SOL     OW 5005   0.696   2.043   2.267  0.2383  0.2429 -0.4326
 1240SOL    HW2 5006   0.778   2.001   2.296 -0.9191 -1.2581  0.7289
 1240SOL    HW3 5007   0.694   2.126   2.314  1.0690  0.2842 -0.4488
 1240SOL    MW4 5008   0.707   2.048   2.277  0.1951  0.0505 -0.2813
 1241SOL     OW 5009   0.660   2.287   2.392 -0.5180 -0.2889  0.4154
 1241SOL    HW2 5010   0.672   2.289   2.487 -0.0493 -0.9669  0.3819
 1241SOL    HW3 5011   0.733   2.338   2.357 -0.2007 -0.7494  0.3921
 1241SOL    MW4 5012   0.671   2.294   2.400 -0.4143 -0.4389  0.4079
 1242SOL     OW 5013   0.432   2.406   2.318 -0.2478 -0.0994  0.6196
 1242SOL    HW2 5014   0.495   2.342   2.354 -1.0989 -0.9023  0.7019
 1242SOL    HW3 5015   0.346   2.368   2.336 -0.7721  1.1479  0.7802
 1242SOL    MW4 5016   0.429   2.392   2.325 -0.4293 -0.0408  0.6514
 1243SOL     OW 5017   0.474   2.678   2.371 -0.1132  0.4371 -0.5596
 1243SOL    HW2 5018   0.451   2.685   2.463 -0.6810  0.3726 -0.6977
 1243SOL    HW3 5019   0.482   2.584   2.355 -0.2625  0.4394 -0.6419
 1243SOL    MW4 5020   0.472   2.666   2.381 -0.2078  0.4287 -0.5889
 1244SOL     OW 5021   0.654   2.839   2.247  0.3300  0.4042 -0.3249
 1244SOL    HW2 5022   0.727   2.791   2.286  0.9032  2.1883  0.8817
 1244SOL    HW3 5023   0.576   2.800   2.286  0.8244  0.9255  1.2442
 1244SOL    MW4 5024   0.653   2.828   2.258  0.4708  0.7081  0.0412
 1245SOL     OW 5025   0.680   3.085   2.390 -0.1339  0.1043  0.4330
 1245SOL    HW2 5026   0.613   3.133   2.342  0.0057  0.1524  0.2860
 1245SOL    HW3 5027   0.682   2.999   2.349 -0.9840 -0.3179  1.2459
 1245SOL    MW4 5028   0.672   3.080   2.378 -0.2276  0.0548  0.5207
 1246SOL     OW 5029   0.493   3.214   2.236 -0.5222  0.5782 -0.5064
 1246SOL    HW2 5030   0.420   3.169   2.278 -0.2707 -0.6837 -1.3930
 1246SOL    HW3 5031   0.468   3.219   2.144  0.7147 -0.3068 -0.9011
 1246SOL    MW4 5032   0.480   3.208   2.229 -0.3258  0.2949 -0.6754
 1247SOL     OW 5033   0.434   3.460   2.348 -0.1666 -0.0649 -0.0544
 1247SOL    HW2 5034   0.509   3.514   2.326  0.1817  0.1529  1.6639
 1247SOL    HW3 5035   0.459   3.372   2.319  1.0288 -0.1243  1.1366
 1247SOL    MW4 5036   0.447   3.455   2.341  0.0370 -0.0443  0.3295
 1248SOL     OW 5037   0.641   3.636   2.273  0.0445 -0.0318  0.4625
 1248SOL    HW2 5038   0.672   3.722   2.302  2.1943 -0.9618  1.1032
 1248SOL    HW3 5039   0.628   3.645   2.179 -1.3924  1.4453  0.7839
 1248SOL    MW4 5040   0.644   3.648   2.264  0.1385  0.0403  0.5891
 1249SOL     OW 5041   0.706   3.886   2.368  0.1784  0.5760 -0.4835
 1249SOL    HW2 5042   0.702   3.898   2.463  0.6551  0.2394 -0.4152
 1249SOL    HW3 5043   0.624   3.923   2.335 -0.5321 -0.3805  0.1736
 1249SOL    MW4 5044   0.695   3.892   2.376  0.1475  0.4055 -0.3877
 1250SOL     OW 5045   0.448   3.971   2.295  0.4804  0.2381  0.2872
 1250SOL    HW2 5046   0.382   3.914   2.335  1.2010 -0.6469  0.2305
 1250SOL    HW3 5047   0.435   3.962   2.201  1.5629 -1.0098  0.2424
 1250SOL    MW4 5048   0.438   3.963   2.288  0.7182 -0.0432  0.2739
 1251SOL     OW 5049   0.424   4.237   2.372 -0.1502  0.2154 -0.4107
 1251SOL    HW2 5050   0.495   4.279   2.323  0.9864  0.8775  1.7350
 1251SOL    HW3 5051   0.434   4.144   2.354 -0.1960  0.4911 -1.9732
 1251SOL    MW4 5052   0.435   4.230   2.363 -0.0063  0.3395 -0.3335
 1252SOL     OW 5053   0.637   4.345   2.236 -0.1823 -0.2224  0.1209
 1252SOL    HW2 5054   0.645   4.438   2.258 -0.4081  0.2478 -1.6873
 1252SOL    HW3 5055   0.640   4.343   2.140  0.1905 -2.1192  0.1541
 1252SOL    MW4 5056   0.638   4.357   2.226 -0.1628 -0.4110 -0.1135
 1253SOL     OW 5057   1.117   4.599   2.397  0.1999 -0.4373  0.0369
 1253SOL    HW2 5058   1.119   4.623   2.490 -1.5062 -2.5556  0.6457
 1253SOL    HW3 5059   1.042   4.646   2.362  1.5424  1.3114 -0.5844
 1253SOL    MW4 5060   1.108   4.609   2.405  0.1520 -0.4859  0.0353
 1254SOL     OW 5061   0.902   0.077   2.272 -0.2355  0.0083 -0.5902
 1254SOL    HW2 5062   0.900   0.153   2.330 -0.0332  0.0251 -0.6048
 1254SOL    HW3 5063   0.913   0.114   2.184  0.2344 -0.0592 -0.5576
 1254SOL    MW4 5064   0.903   0.092   2.268 -0.1468  0.0017 -0.5879
 1255SOL     OW 5065   0.909   0.361   2.382 -0.1794 -0.0576 -0.1535
 1255SOL    HW2 5066   0.978   0.401   2.330  0.1959  1.3707  1.3885
 1255SOL    HW3 5067   0.827   0.390   2.342  0.1131 -0.1838 -0.8316
 1255SOL    MW4 5068   0.907   0.370   2.370 -0.0914  0.1142 -0.0391
 1256SOL     OW 5069   1.121   0.488   2.268  0.3662  0.2425 -0.2551
 1256SOL    HW2 5070   1.193   0.432   2.296 -0.3447 -0.9233 -0.7175
 1256SOL    HW3 5071   1.123   0.484   2.172 -0.3776  0.1161 -0.2710
 1256SOL    MW4 5072   1.131   0.480   2.259  0.1744  0.0720 -0.3183
 1257SOL     OW 5073   1.124   0.763   2.394  0.0766 -0.2015  0.0219
 1257SOL    HW2 5074   1.048   0.806   2.357 -0.7176 -0.3866  1.4144
 1257SOL    HW3 5075   1.124   0.676   2.354 -1.0850 -0.5936  0.8534
 1257SOL    MW4 5076   1.114   0.757   2.384 -0.1814 -0.2777  0.3152
 1258SOL     OW 5077   0.903   0.875   2.272  0.2397 -0.4740  0.9099
 1258SOL    HW2 5078   0.909   0.964   2.307  0.8698 -0.4461  0.7396
 1258SOL    HW3 5079   0.826   0.837   2.315  0.8206 -0.3438  2.0942
 1258SOL    MW4 5080   0.894   0.882   2.282  0.3995 -0.4532  1.0438
 1259SOL     OW 5081   0.925   1.113   2.396  0.3971 -0.4826  0.2621
 1259SOL    HW2 5082   1.003   1.158   2.362  0.1640 -1.0712 -1.0405
 1259SOL    HW3 5083   0.851   1.163   2.360  0.1381  1.2898  3.0823
 1259SOL    MW4 5084   0.926   1.126   2.387  0.3322 -0.3264  0.4623
 1260SOL     OW 5085   1.145   1.252   2.303 -0.5434 -0.0954 -0.1161
 1260SOL    HW2 5086   1.220   1.215   2.349  0.6654  2.7491  0.2917
 1260SOL    HW3 5087   1.169   1.246   2.210  0.8663  2.1300  0.0755
 1260SOL    MW4 5088   1.158   1.246   2.296 -0.1979  0.5735 -0.0372
 1261SOL     OW 5089   1.186   1.506   2.399  0.4170  0.0738  0.1463
 1261SOL    HW2 5090   1.119   1.569   2.373  1.3027  0.5243 -1.0663
 1261SOL    HW3 5091   1.165   1.427   2.349 -0.0017 -0.2382  0.7966
 1261SOL    MW4 5092   1.174   1.504   2.389  0.4787  0.0921  0.0722
 1262SOL     OW 5093   0.978   1.655   2.278  0.2329  0.1236 -0.2252
 1262SOL    HW2 5094   0.983   1.748   2.300  0.6523  0.0629 -0.0614
 1262SOL    HW3 5095   0.973   1.653   2.182  1.3651  0.2715 -0.2907
 1262SOL    MW4 5096   0.978   1.667   2.268  0.4376  0.1352 -0.2122
 1263SOL     OW 5097   0.947   1.942   2.365  0.0663  0.5114  0.2376
 1263SOL    HW2 5098   0.945   1.943   2.461  0.6342 -0.7682  0.2763
 1263SOL    HW3 5099   1.012   2.007   2.341  0.8159 -0.0433  0.7614
 1263SOL    MW4 5100   0.955   1.951   2.375  0.2402  0.2694  0.3119
 1264SOL     OW 5101   1.164   2.104   2.260  0.0494 -0.2678 -0.1116
 1264SOL    HW2 5102   1.222   2.041   2.302 -0.0907  0.2194  0.8067
 1264SOL    HW3 5103   1.181   2.093   2.166  0.4919 -1.2142  0.0795
 1264SOL    MW4 5104   1.174   2.095   2.253  0.0892 -0.3288  0.0348
 1265SOL     OW 5105   1.142   2.388   2.345  0.0893 -0.2500  0.5378
 1265SOL    HW2 5106   1.230   2.421   2.324  0.7555 -0.6300  2.5880
 1265SOL    HW3 5107   1.140   2.300   2.307  0.5092 -0.1499  0.2768
 1265SOL    MW4 5108   1.154   2.380   2.337  0.2326 -0.2868  0.7737
 1266SOL     OW 5109   0.877   2.426   2.275  0.2162  0.4258  0.4160
 1266SOL    HW2 5110   0.965   2.403   2.305  0.2235 -1.1146 -0.7256
 1266SOL    HW3 5111   0.886   2.436   2.180 -0.3433  2.6469  0.5924
 1266SOL    MW4 5112   0.890   2.424   2.266  0.1434  0.5157  0.2885
 1267SOL     OW 5113   0.872   2.697   2.343  0.3299  0.0588  0.6421
 1267SOL    HW2 5114   0.865   2.707   2.438 -0.9495  0.2230  0.5385
 1267SOL    HW3 5115   0.862   2.604   2.327  2.3928 -0.2114  0.8055
 1267SOL    MW4 5116   0.869   2.686   2.353  0.4333  0.0451  0.6499
 1268SOL     OW 5117   1.107   2.838   2.251 -0.4474 -0.6409 -0.3011
 1268SOL    HW2 5118   1.177   2.787   2.291 -0.2456  0.7268  1.1716
 1268SOL    HW3 5119   1.027   2.795   2.279 -0.3116  0.3291  1.7098
 1268SOL    MW4 5120   1.106   2.826   2.260 -0.4029 -0.3326  0.1585
 1269SOL     OW 5121   1.119   3.099   2.345  0.2504 -0.3069 -0.4747
 1269SOL    HW2 5122   1.037   3.146   2.330 -0.1333 -1.3895 -1.8690
 1269SOL    HW3 5123   1.101   3.010   2.315  1.7364 -0.7048 -0.2021
 1269SOL    MW4 5124   1.106   3.093   2.339  0.3958 -0.5023 -0.6227
 1270SOL     OW 5125   0.886   3.239   2.260  0.0914 -0.2983  0.6261
 1270SOL    HW2 5126   0.883   3.332   2.280 -0.1909  0.0024 -0.7886
 1270SOL    HW3 5127   0.813   3.201   2.309 -1.0651  0.5330 -0.4552
 1270SOL    MW4 5128   0.876   3.246   2.269 -0.0985 -0.1490  0.2966
 1271SOL     OW 5129   0.874   3.499   2.344  0.4707  0.5347  0.1688
 1271SOL    HW2 5130   0.868   3.494   2.439  0.8443  1.0839  0.2274
 1271SOL    HW3 5131   0.799   3.552   2.317  0.0719 -0.0660  0.1152
 1271SOL    MW4 5132   0.864   3.506   2.353  0.4674  0.5279  0.1695
 1272SOL     OW 5133   1.107   3.604   2.229  0.4420  0.3122  0.5312
 1272SOL    HW2 5134   1.174   3.553   2.274  1.0912  0.5323 -0.1792
 1272SOL    HW3 5135   1.024   3.569   2.262  0.8940 -0.4654  0.8456
 1272SOL    MW4 5136   1.105   3.593   2.240  0.5872  0.2389  0.4787
 1273SOL     OW 5137   1.131   3.870   2.346 -0.4818 -0.0606 -0.1718
 1273SOL    HW2 5138   1.207   3.914   2.308  0.6696 -1.6617  0.1916
 1273SOL    HW3 5139   1.125   3.787   2.299 -1.1901 -0.5191  0.7059
 1273SOL    MW4 5140   1.140   3.865   2.335 -0.4233 -0.3324 -0.0081
 1274SOL     OW 5141   0.920   4.021   2.230 -0.2814 -0.2658 -0.2330
 1274SOL    HW2 5142   0.996   3.975   2.266 -0.1699 -0.8116 -1.1447
 1274SOL    HW3 5143   0.844   3.980   2.272 -0.1572 -0.9543 -0.6764
 1274SOL    MW4 5144   0.920   4.009   2.240 -0.2504 -0.4287 -0.4117
 1275SOL     OW 5145   0.861   4.260   2.394  0.5838 -0.1158 -0.0725
 1275SOL    HW2 5146   0.897   4.182   2.353 -0.1777  0.2595 -1.4658
 1275SOL    HW3 5147   0.774   4.271   2.355 -0.2278  0.1575  1.7564
 1275SOL    MW4 5148   0.854   4.251   2.384  0.3763 -0.0300 -0.0153
 1276SOL     OW 5149   1.101   4.358   2.286  0.2864  0.1190 -0.4226
 1276SOL    HW2 5150   1.015   4.323   2.312 -0.2322  1.5379 -0.1922
 1276SOL    HW3 5151   1.111   4.438   2.337  2.3497 -0.7014  0.5252
 1276SOL    MW4 5152   1.091   4.364   2.296  0.4901  0.1984 -0.2673
 1277SOL     OW 5153   1.575   4.646   2.333  0.1316  0.1239  0.4386
 1277SOL    HW2 5154   1.645   4.701   2.297  1.5751 -0.2656  2.5525
 1277SOL    HW3 5155   1.495   4.690   2.306  1.1798  0.9477 -1.4756
 1277SOL    MW4 5156   1.574   4.659   2.324  0.4601  0.1812  0.4649
 1278SOL     OW 5157   1.318   0.081   2.258 -0.1422  0.3911  0.3088
 1278SOL    HW2 5158   1.304   0.173   2.279 -0.4728  0.5266 -0.4856
 1278SOL    HW3 5159   1.245   0.035   2.300  0.0219  0.4843  0.7037
 1278SOL    MW4 5160   1.307   0.087   2.267 -0.1642  0.4213  0.2561
 1279SOL     OW 5161   1.334   0.345   2.351 -0.0669 -0.0794  0.3417
 1279SOL    HW2 5162   1.345   0.349   2.446  1.4943 -1.0221  0.2237
 1279SOL    HW3 5163   1.417   0.378   2.316 -0.5483  0.0550 -0.6858
 1279SOL    MW4 5164   1.346   0.350   2.359  0.0756 -0.1861  0.1905
 1280SOL     OW 5165   1.578   0.459   2.277  0.1296  0.0566 -0.0469
 1280SOL    HW2 5166   1.662   0.435   2.317  0.2676  1.4695  0.5500
 1280SOL    HW3 5167   1.591   0.446   2.183  1.2182  0.8446 -0.0102
 1280SOL    MW4 5168   1.591   0.454   2.270  0.2915  0.3470  0.0365
 1281SOL     OW 5169   1.593   0.706   2.382 -0.1477 -0.3232 -0.9276
 1281SOL    HW2 5170   1.664   0.758   2.344 -0.0819 -0.7478 -1.3855
 1281SOL    HW3 5171   1.601   0.620   2.341  1.8196 -1.7569  2.2792
 1281SOL    MW4 5172   1.603   0.702   2.371  0.1204 -0.5683 -0.5651
 1282SOL     OW 5173   1.386   0.863   2.291 -0.2510  0.1697 -0.0461
 1282SOL    HW2 5174   1.451   0.793   2.300 -1.4459 -0.8056  1.1802
 1282SOL    HW3 5175   1.306   0.827   2.331 -0.7395  2.4040  1.0799
 1282SOL    MW4 5176   1.384   0.849   2.298 -0.4731  0.3358  0.2642
 1283SOL     OW 5177   1.377   1.118   2.401  0.2515  0.1800 -0.7591
 1283SOL    HW2 5178   1.361   1.114   2.495  0.8215  0.6280 -0.6361
 1283SOL    HW3 5179   1.383   1.027   2.374 -1.5709  0.0143 -0.6683
 1283SOL    MW4 5180   1.376   1.106   2.410  0.0863  0.2172 -0.7310
 1284SOL     OW 5181   1.549   1.283   2.275  0.7475 -0.0549 -0.2782
 1284SOL    HW2 5182   1.481   1.224   2.308  0.9456 -0.4989 -0.6602
 1284SOL    HW3 5183   1.540   1.279   2.179  0.3991  0.9608 -0.3014
 1284SOL    MW4 5184   1.539   1.275   2.266  0.7278  0.0206 -0.3316
 1285SOL     OW 5185   1.578   1.529   2.375 -0.1255  0.1260  0.1419
 1285SOL    HW2 5186   1.653   1.549   2.319 -0.7256 -1.0711 -1.1118
 1285SOL    HW3 5187   1.547   1.444   2.344 -1.2943  0.0838  1.4080
 1285SOL    MW4 5188   1.583   1.521   2.363 -0.3589 -0.0374  0.1433
 1286SOL     OW 5189   1.366   1.658   2.241  0.6186 -0.4200 -0.5556
 1286SOL    HW2 5190   1.446   1.616   2.273  0.7650 -0.6457 -1.2126
 1286SOL    HW3 5191   1.295   1.611   2.285  0.8150 -0.8338 -0.6753
 1286SOL    MW4 5192   1.367   1.646   2.251  0.6638 -0.5043 -0.6583
 1287SOL     OW 5193   1.338   1.896   2.354 -0.3627  0.3909  0.1014
 1287SOL    HW2 5194   1.421   1.933   2.325  0.2142 -0.7196  0.3239
 1287SOL    HW3 5195   1.335   1.809   2.314 -1.6449  0.6144 -0.3078
 1287SOL    MW4 5196   1.348   1.889   2.345 -0.4557  0.2739  0.0765
 1288SOL     OW 5197   1.559   2.028   2.248 -0.1557  0.0080 -0.0530
 1288SOL    HW2 5198   1.643   1.985   2.264  0.5672  1.3037 -0.2721
 1288SOL    HW3 5199   1.555   2.038   2.153 -1.1483 -1.1965 -0.1452
 1288SOL    MW4 5200   1.569   2.024   2.238 -0.1912  0.0200 -0.0939
 1289SOL     OW 5201   1.610   2.311   2.339 -0.2194  0.3699  0.6105
 1289SOL    HW2 5202   1.590   2.330   2.431  1.1841 -1.1695  1.2709
 1289SOL    HW3 5203   1.589   2.218   2.328  1.0091  0.1646 -0.1973
 1289SOL    MW4 5204   1.605   2.301   2.350  0.1279  0.1395  0.5913
 1290SOL     OW 5205   1.397   2.477   2.254 -0.3388  0.1210 -0.3763
 1290SOL    HW2 5206   1.466   2.418   2.285 -0.5061  0.4348  0.6134
 1290SOL    HW3 5207   1.378   2.447   2.165  0.0771 -0.8646 -0.1424
 1290SOL    MW4 5208   1.404   2.465   2.246 -0.3060  0.0322 -0.2146
 1291SOL     OW 5209   1.316   2.713   2.355 -0.2910 -0.3971 -0.2398
 1291SOL    HW2 5210   1.388   2.771   2.328 -1.5717  1.2719 -0.1934
 1291SOL    HW3 5211   1.334   2.630   2.311  0.9433  0.4127 -1.3134
 1291SOL    MW4 5212   1.328   2.710   2.346 -0.2971 -0.0699 -0.3755
 1292SOL     OW 5213   1.544   2.842   2.267 -0.3112 -0.1962  0.3904
 1292SOL    HW2 5214   1.561   2.929   2.303  1.3057 -0.3919  0.1502
 1292SOL    HW3 5215   1.543   2.855   2.172 -1.4394 -0.2163  0.3913
 1292SOL    MW4 5216   1.546   2.855   2.259 -0.2468 -0.2248  0.3591
 1293SOL     OW 5217   1.572   3.098   2.379 -0.2538 -0.4773  0.2627
 1293SOL    HW2 5218   1.565   3.108   2.474 -0.4797  0.7928  0.1323
 1293SOL    HW3 5219   1.504   3.156   2.344  0.1662 -0.5456 -0.6787
 1293SOL    MW4 5220   1.562   3.107   2.387 -0.2283 -0.3188  0.1214
 1294SOL     OW 5221   1.362   3.236   2.256  0.0377 -0.3455 -0.2856
 1294SOL    HW2 5222   1.283   3.192   2.288 -0.2547  0.0443 -0.4691
 1294SOL    HW3 5223   1.360   3.224   2.161  1.0907 -1.8111 -0.1478
 1294SOL    MW4 5224   1.351   3.228   2.248  0.1380 -0.4878 -0.2916
 1295SOL     OW 5225   1.327   3.495   2.351 -0.0901  0.0262 -0.1060
 1295SOL    HW2 5226   1.323   3.494   2.446 -0.5802 -0.8711 -0.1373
 1295SOL    HW3 5227   1.346   3.405   2.326  1.7502  0.5706 -0.7895
 1295SOL    MW4 5228   1.329   3.483   2.360  0.0880 -0.0205 -0.2005
 1296SOL     OW 5229   1.564   3.600   2.242  0.2612 -0.2389 -0.4374
 1296SOL    HW2 5230   1.580   3.679   2.294 -1.3367  1.2731 -2.1685
 1296SOL    HW3 5231   1.495   3.554   2.289  0.3870 -0.0231 -0.0379
 1296SOL    MW4 5232   1.557   3.605   2.255  0.0670 -0.0110 -0.6132
 1297SOL     OW 5233   1.568   3.862   2.365 -0.3348 -0.4260 -0.6930
 1297SOL    HW2 5234   1.574   3.867   2.461  0.9627 -2.1604 -0.6693
 1297SOL    HW3 5235   1.628   3.929   2.334 -1.1566  0.5087 -0.3080
 1297SOL    MW4 5236   1.577   3.872   2.374 -0.2720 -0.5312 -0.6390
 1298SOL     OW 5237   1.343   4.017   2.253  0.1099 -0.1958  0.1943
 1298SOL    HW2 5238   1.416   3.959   2.278  0.2109 -0.4376 -0.6572
 1298SOL    HW3 5239   1.347   4.021   2.158 -1.4593 -0.8047  0.0963
 1298SOL    MW4 5240   1.353   4.010   2.244 -0.0837 -0.3080  0.0691
 1299SOL     OW 5241   1.330   4.252   2.398  0.2819 -0.0139  0.1884
 1299SOL    HW2 5242   1.345   4.172   2.347 -0.4496  0.3192 -0.5529
 1299SOL    HW3 5243   1.254   4.293   2.357  0.2251  0.7072  1.0075
 1299SOL    MW4 5244   1.322   4.247   2.386  0.1779  0.1254  0.1986
 1300SOL     OW 5245   1.567   4.384   2.264 -0.2869  0.5315  0.2932
 1300SOL    HW2 5246   1.488   4.351   2.307  0.3644 -0.2253  0.9314
 1300SOL    HW3 5247   1.574   4.475   2.293 -1.5924  0.9765 -0.7475
 1300SOL    MW4 5248   1.557   4.392   2.274 -0.3732  0.4902  0.2401
 1301SOL     OW 5249   2.035   4.625   2.335  0.3056 -0.1652 -0.0460
 1301SOL    HW2 5250   2.122   4.648   2.302  0.7938 -0.0806  1.2492
 1301SOL    HW3 5251   2.028   4.531   2.323  0.1052  0.0019 -1.2365
 1301SOL    MW4 5252   2.046   4.616   2.329  0.3433 -0.1321 -0.0319
 1302SOL     OW 5253   1.811   0.100   2.259 -0.1409 -0.0150  0.1698
 1302SOL    HW2 5254   1.813   0.180   2.312  1.0203 -0.2721  0.5282
 1302SOL    HW3 5255   1.887   0.050   2.289 -0.6414 -1.0800 -0.3261
 1302SOL    MW4 5256   1.822   0.104   2.270 -0.0536 -0.1895  0.1516
 1303SOL     OW 5257   1.805   0.348   2.384  0.4665 -0.5077 -0.2027
 1303SOL    HW2 5258   1.799   0.341   2.479  1.1131 -0.9356 -0.1856
 1303SOL    HW3 5259   1.891   0.387   2.368  0.1554  0.0294 -0.5962
 1303SOL    MW4 5260   1.816   0.353   2.394  0.5108 -0.4933 -0.2527
 1304SOL     OW 5261   2.053   0.471   2.297  0.1956  0.0582 -0.2546
 1304SOL    HW2 5262   2.051   0.557   2.339  1.5328  0.8216 -1.7030
 1304SOL    HW3 5263   2.063   0.490   2.204 -1.8100 -1.6269 -0.8326
 1304SOL    MW4 5264   2.054   0.485   2.291  0.1073 -0.0635 -0.5219
 1305SOL     OW 5265   2.010   0.754   2.375 -0.0332 -0.2581  0.6126
 1305SOL    HW2 5266   2.091   0.789   2.339  0.7517 -0.8309  1.7681
 1305SOL    HW3 5267   1.941   0.801   2.329  0.9320 -0.5151 -1.1549
 1305SOL    MW4 5268   2.012   0.765   2.365  0.1976 -0.3675  0.5317
 1306SOL     OW 5269   1.772   0.870   2.271  0.3152  0.0918  0.0565
 1306SOL    HW2 5270   1.750   0.956   2.308  0.8222  0.3972 -0.3517
 1306SOL    HW3 5271   1.790   0.887   2.179 -0.2976 -0.5705 -0.1946
 1306SOL    MW4 5272   1.771   0.883   2.264  0.3011  0.0447 -0.0303
 1307SOL     OW 5273   1.762   1.158   2.374  0.0369  0.3833  0.0900
 1307SOL    HW2 5274   1.843   1.206   2.359 -0.4688  0.8541 -1.2174
 1307SOL    HW3 5275   1.694   1.213   2.335 -0.8220 -0.3411  0.5445
 1307SOL    MW4 5276   1.764   1.171   2.367 -0.1433  0.3500 -0.0226
 1308SOL     OW 5277   2.006   1.275   2.287  0.2787  0.7886  0.5846
 1308SOL    HW2 5278   2.013   1.362   2.325 -1.3388  1.4472 -0.5922
 1308SOL    HW3 5279   2.011   1.289   2.192 -1.8672 -0.1938  0.3035
 1308SOL    MW4 5280   2.008   1.288   2.280 -0.2182  0.7459  0.3922
 1309SOL     OW 5281   2.034   1.545   2.362 -0.2771 -0.2598 -0.2864
 1309SOL    HW2 5282   2.036   1.553   2.457 -0.6725  1.0827 -0.3874
 1309SOL    HW3 5283   1.943   1.564   2.338  0.1333  0.8022 -1.0485
 1309SOL    MW4 5284   2.022   1.548   2.371 -0.2754  0.0575 -0.4003
 1310SOL     OW 5285   1.794   1.618   2.215 -0.0493 -0.5534  0.0759
 1310SOL    HW2 5286   1.790   1.711   2.238 -0.6436 -0.7210  0.6697
 1310SOL    HW3 5287   1.782   1.617   2.120 -3.2021 -0.2208  0.4212
 1310SOL    MW4 5288   1.792   1.630   2.206 -0.5437 -0.5317  0.1998
 1311SOL     OW 5289   1.793   1.893   2.293  0.1900  0.2234 -0.1508
 1311SOL    HW2 5290   1.799   1.893   2.389 -1.5770  1.9004 -0.0010
 1311SOL    HW3 5291   1.862   1.952   2.265 -2.1313  3.3707  0.4054
 1311SOL    MW4 5292   1.803   1.900   2.302 -0.3494  0.8599 -0.0577
 1312SOL     OW 5293   1.998   2.075   2.240 -0.0261  0.1493  0.2546
 1312SOL    HW2 5294   2.060   2.023   2.291 -1.4209 -0.1646  1.6960
 1312SOL    HW3 5295   2.018   2.055   2.149  1.9055 -0.0206  0.6998
 1312SOL    MW4 5296   2.009   2.066   2.235  0.0446  0.0856  0.5038
 1313SOL     OW 5297   2.020   2.307   2.370 -0.2874 -0.6908 -0.0479
 1313SOL    HW2 5298   2.099   2.354   2.341 -0.9634  0.3022 -0.2862
 1313SOL    HW3 5299   2.018   2.229   2.315  0.2005 -0.4125 -0.4671
 1313SOL    MW4 5300   2.031   2.303   2.359 -0.3123 -0.5231 -0.1345
 1314SOL     OW 5301   1.814   2.461   2.205  0.0761 -0.0381 -0.0290
 1314SOL    HW2 5302   1.899   2.440   2.245  0.6837  0.3239 -1.1054
 1314SOL    HW3 5303   1.754   2.395   2.240  0.8230 -0.3669  0.6598
 1314SOL    MW4 5304   1.818   2.450   2.215  0.2549 -0.0339 -0.0803
 1315SOL     OW 5305   1.747   2.677   2.351 -0.3864  0.3297 -0.4612
 1315SOL    HW2 5306   1.746   2.612   2.280 -0.2481  1.5310 -1.5787
 1315SOL    HW3 5307   1.678   2.739   2.328 -0.9696  0.2289  0.9536
 1315SOL    MW4 5308   1.738   2.677   2.338 -0.4451  0.4749 -0.4220
 1316SOL     OW 5309   2.009   2.858   2.299 -0.5783  0.5594  0.0781
 1316SOL    HW2 5310   2.082   2.807   2.334 -1.1665 -1.0879 -1.0078
 1316SOL    HW3 5311   1.931   2.815   2.334 -1.1173 -0.0729 -1.8304
 1316SOL    MW4 5312   2.008   2.845   2.308 -0.7272  0.2587 -0.3169
 1317SOL     OW 5313   2.014   3.107   2.417 -0.8641 -0.0592 -0.0166
 1317SOL    HW2 5314   2.088   3.153   2.376 -1.6733  0.5220 -0.8351
 1317SOL    HW3 5315   2.007   3.024   2.370 -1.2852  0.2624 -0.5217
 1317SOL    MW4 5316   2.023   3.102   2.406 -1.0264  0.0601 -0.1912
 1318SOL     OW 5317   1.798   3.217   2.285 -0.4529  0.0417 -0.0012
 1318SOL    HW2 5318   1.866   3.178   2.340  0.3597  0.9107 -0.3744
 1318SOL    HW3 5319   1.720   3.165   2.303  0.1740 -0.6220  0.8492
 1318SOL    MW4 5320   1.797   3.205   2.295 -0.2630  0.0689  0.0615
 1319SOL     OW 5321   1.801   3.488   2.346  0.3298  0.1285 -0.5949
 1319SOL    HW2 5322   1.804   3.394   2.325 -1.2371 -0.0757 -0.0041
 1319SOL    HW3 5323   1.721   3.519   2.303  0.0056  0.8547  0.5112
 1319SOL    MW4 5324   1.791   3.479   2.338  0.0802  0.1974 -0.3712
 1320SOL     OW 5325   2.040   3.611   2.251 -0.5988  0.2067  0.0118
 1320SOL    HW2 5326   1.966   3.569   2.294 -1.9834  1.2485 -1.3160
 1320SOL    HW3 5327   2.027   3.593   2.158  1.3934 -0.5070 -0.1529
 1320SOL    MW4 5328   2.029   3.603   2.245 -0.5186  0.2501 -0.1848
 1321SOL     OW 5329   2.014   3.875   2.317  0.1053 -0.3290  0.0642
 1321SOL    HW2 5330   2.012   3.873   2.412  1.6132  0.9434  0.1277
 1321SOL    HW3 5331   2.011   3.783   2.291  0.9640 -0.7236  1.3583
 1321SOL    MW4 5332   2.013   3.863   2.326  0.4175 -0.2134  0.2432
 1322SOL     OW 5333   1.776   3.997   2.227 -0.1427 -0.0933 -0.0006
 1322SOL    HW2 5334   1.850   3.951   2.266  0.1349  0.1443 -0.2482
 1322SOL    HW3 5335   1.780   3.976   2.134 -1.1638 -1.1562  0.1699
 1322SOL    MW4 5336   1.786   3.988   2.220 -0.2408 -0.2022 -0.0107
 1323SOL     OW 5337   1.784   4.233   2.363  0.0755 -0.2414 -0.0996
 1323SOL    HW2 5338   1.783   4.148   2.319  0.1255 -0.3630  0.1316
 1323SOL    HW3 5339   1.708   4.279   2.328  1.3493  0.5027 -1.9211
 1323SOL    MW4 5340   1.774   4.228   2.353  0.2501 -0.1597 -0.3095
 1324SOL     OW 5341   1.990   4.374   2.256 -0.3815  0.2158 -0.3396
 1324SOL    HW2 5342   1.919   4.319   2.288  0.1674 -0.6323 -0.5555
 1324SOL    HW3 5343   1.984   4.369   2.160  0.0415  0.0463 -0.3586
 1324SOL    MW4 5344   1.980   4.366   2.247 -0.2533  0.0815 -0.3705
 1325SOL     OW 5345   2.480   4.614   2.370  0.3797  0.5658  0.2788
 1325SOL    HW2 5346   2.565   4.647   2.340  0.4040  0.0600 -0.1977
 1325SOL    HW3 5347   2.475   4.525   2.336 -0.7213  0.8900 -0.4249
 1325SOL    MW4 5348   2.490   4.607   2.362  0.2375  0.5422  0.1230
 1326SOL     OW 5349   2.274   0.089   2.264 -0.1509  0.0480  0.4128
 1326SOL    HW2 5350   2.282   0.178   2.300 -0.1015  0.6392 -1.0417
 1326SOL    HW3 5351   2.351   0.043   2.299  0.0910  0.7086  0.7726
 1326SOL    MW4 5352   2.285   0.095   2.274 -0.1123  0.2131  0.2682
 1327SOL     OW 5353   2.297   0.342   2.354  0.3071 -0.5016 -0.7413
 1327SOL    HW2 5354   2.360   0.381   2.292  0.0536 -0.6645 -1.1017
 1327SOL    HW3 5355   2.213   0.380   2.329  0.2001 -0.5828 -0.5052
 1327SOL    MW4 5356   2.294   0.352   2.342  0.2594 -0.5338 -0.7577
 1328SOL     OW 5357   2.487   0.469   2.211  0.0617  0.2694  0.0058
 1328SOL    HW2 5358   2.566   0.418   2.224  0.4217  0.5973 -0.8694
 1328SOL    HW3 5359   2.491   0.498   2.120 -1.4977 -0.4703 -0.3264
 1328SOL    MW4 5360   2.498   0.466   2.200 -0.0966  0.2151 -0.1538
 1329SOL     OW 5361   2.433   0.713   2.349  0.1263  0.0533 -0.2155
 1329SOL    HW2 5362   2.494   0.773   2.304 -0.2584  0.0298 -0.7760
 1329SOL    HW3 5363   2.441   0.631   2.300  0.2818 -0.2059  0.2455
 1329SOL    MW4 5364   2.442   0.710   2.336  0.0963  0.0160 -0.2286
 1330SOL     OW 5365   2.219   0.865   2.249  0.1511  0.2048 -0.3109
 1330SOL    HW2 5366   2.235   0.953   2.284 -0.3810  0.8479 -1.6641
 1330SOL    HW3 5367   2.287   0.811   2.289  1.2498  1.4778 -0.4216
 1330SOL    MW4 5368   2.230   0.870   2.259  0.2258  0.4576 -0.5043
 1331SOL     OW 5369   2.235   1.128   2.364 -0.0406  0.5722 -0.0344
 1331SOL    HW2 5370   2.302   1.175   2.314  0.6941  0.3437  0.7327
 1331SOL    HW3 5371   2.155   1.178   2.349  0.3022  0.8835 -0.9086
 1331SOL    MW4 5372   2.234   1.141   2.355  0.1013  0.5831 -0.0484
 1332SOL     OW 5373   2.434   1.250   2.221 -0.4530  0.3112  0.4573
 1332SOL    HW2 5374   2.518   1.216   2.253  1.0953  0.3882 -3.3796
 1332SOL    HW3 5375   2.430   1.339   2.256  1.2123  0.4304  0.3952
 1332SOL    MW4 5376   2.445   1.257   2.230 -0.0291  0.3372 -0.0572
 1333SOL     OW 5377   2.442   1.520   2.307 -0.4929  0.1326 -0.2343
 1333SOL    HW2 5378   2.428   1.508   2.400  0.0871 -3.5940 -0.5621
 1333SOL    HW3 5379   2.530   1.558   2.300  0.0025 -0.8186  0.6933
 1333SOL    MW4 5380   2.452   1.523   2.318 -0.3512 -0.4845 -0.1552
 1334SOL     OW 5381   2.245   1.705   2.277  0.0062  0.6202  0.3625
 1334SOL    HW2 5382   2.319   1.648   2.298  0.6293  1.6197  0.8875
 1334SOL    HW3 5383   2.168   1.649   2.288  0.6987 -0.5989 -0.7910
 1334SOL    MW4 5384   2.245   1.690   2.281  0.1800  0.5912  0.2792
 1335SOL     OW 5385   2.214   1.956   2.379 -0.1334 -0.1251 -0.1656
 1335SOL    HW2 5386   2.295   2.000   2.353  0.7707  0.0155  2.7113
 1335SOL    HW3 5387   2.218   1.871   2.336  0.9909  0.3118 -0.9534
 1335SOL    MW4 5388   2.225   1.950   2.370  0.1345 -0.0488  0.1099
 1336SOL     OW 5389   2.445   2.047   2.242 -0.6737  0.1875 -0.4154
 1336SOL    HW2 5390   2.519   1.996   2.275 -0.7347  0.8022  0.6881
 1336SOL    HW3 5391   2.455   2.043   2.147 -0.7104 -1.9099 -0.3518
 1336SOL    MW4 5392   2.456   2.040   2.234 -0.6866 -0.0081 -0.2613
 1337SOL     OW 5393   2.480   2.296   2.415 -0.3176 -0.2524  0.3874
 1337SOL    HW2 5394   2.557   2.339   2.380  0.1998 -0.6179  1.0655
 1337SOL    HW3 5395   2.473   2.214   2.366 -0.0181 -0.4243  0.6328
 1337SOL    MW4 5396   2.489   2.291   2.404 -0.2098 -0.3231  0.5095
 1338SOL     OW 5397   2.248   2.456   2.294  0.6296 -0.0185  0.2142
 1338SOL    HW2 5398   2.245   2.538   2.343  2.2530  0.0265  0.2624
 1338SOL    HW3 5399   2.318   2.406   2.335 -0.7917 -1.7185  0.6089
 1338SOL    MW4 5400   2.256   2.460   2.306  0.6564 -0.2370  0.2723
 1339SOL     OW 5401   2.221   2.689   2.427  0.5620 -0.1464  0.1558
 1339SOL    HW2 5402   2.231   2.675   2.522  0.0544  1.0565  0.3999
 1339SOL    HW3 5403   2.307   2.716   2.398 -0.0840  2.8704  0.9112
 1339SOL    MW4 5404   2.233   2.690   2.436  0.4096  0.4106  0.2878
 1340SOL     OW 5405   2.439   2.799   2.284 -0.1893 -0.2295  0.2537
 1340SOL    HW2 5406   2.520   2.764   2.322 -0.2834 -0.5407  0.1635
 1340SOL    HW3 5407   2.454   2.797   2.190 -0.0148  0.4022  0.2656
 1340SOL    MW4 5408   2.452   2.794   2.277 -0.1788 -0.1872  0.2437
 1341SOL     OW 5409   2.453   3.063   2.396  0.2351 -0.2687  0.2245
 1341SOL    HW2 5410   2.526   3.108   2.355  1.7401  0.6817  3.7660
 1341SOL    HW3 5411   2.455   2.975   2.359  1.4096  0.5734 -1.7976
 1341SOL    MW4 5412   2.463   3.057   2.386  0.5884 -0.0322  0.4251
 1342SOL     OW 5413   2.242   3.185   2.268  0.3112  0.2791 -1.3272
 1342SOL    HW2 5414   2.257   3.276   2.292 -1.7152  0.5024 -0.8344
 1342SOL    HW3 5415   2.309   3.136   2.315  0.0227  1.2958  0.1665
 1342SOL    MW4 5416   2.253   3.190   2.277  0.0057  0.4425 -1.0650
 1343SOL     OW 5417   2.244   3.458   2.350  0.9518  0.4616 -0.3796
 1343SOL    HW2 5418   2.252   3.464   2.446  0.3045 -0.5929 -0.2512
 1343SOL    HW3 5419   2.177   3.522   2.328 -0.1202 -0.4726  0.0779
 1343SOL    MW4 5420   2.236   3.467   2.360  0.7248  0.1993 -0.3023
 1344SOL     OW 5421   2.479   3.582   2.282  0.5834 -0.3933  0.2857
 1344SOL    HW2 5422   2.464   3.673   2.308 -0.2139  0.2975 -2.3911
 1344SOL    HW3 5423   2.401   3.535   2.312  0.1158  0.1905 -0.0125
 1344SOL    MW4 5424   2.467   3.588   2.290  0.4168 -0.2251 -0.1068
 1345SOL     OW 5425   2.486   3.860   2.344  0.2254  0.2852 -0.0538
 1345SOL    HW2 5426   2.469   3.876   2.437 -0.7514  0.6553 -0.2942
 1345SOL    HW3 5427   2.407   3.890   2.299 -0.2922 -2.0348 -0.8140
 1345SOL    MW4 5428   2.473   3.866   2.350  0.0281  0.0281 -0.1860
 1346SOL     OW 5429   2.256   3.987   2.226 -0.2714  0.2163  0.4286
 1346SOL    HW2 5430   2.263   4.060   2.287 -0.5764  0.0541  0.6620
 1346SOL    HW3 5431   2.170   3.950   2.243 -1.4834  1.8046 -1.9615
 1346SOL    MW4 5432   2.246   3.992   2.236 -0.4714  0.4044  0.1440
 1347SOL     OW 5433   2.233   4.230   2.337  0.2149 -0.0743  0.4134
 1347SOL    HW2 5434   2.237   4.232   2.433 -0.3464  0.0167  0.4389
 1347SOL    HW3 5435   2.149   4.270   2.316  0.2526 -0.2700 -0.1125
 1347SOL    MW4 5436   2.222   4.236   2.347  0.1459 -0.0882  0.3474
 1348SOL     OW 5437   2.444   4.383   2.236 -0.1204  0.0031  0.3487
 1348SOL    HW2 5438   2.518   4.340   2.279  0.9576  0.5757 -0.9069
 1348SOL    HW3 5439   2.367   4.337   2.269  0.6702  0.3863  2.8491
 1348SOL    MW4 5440   2.443   4.371   2.246  0.1261  0.1292  0.5131
 1349SOL     OW 5441   2.922   4.627   2.375  0.1146 -0.1678  0.0072
 1349SOL    HW2 5442   3.000   4.669   2.339 -0.1711  0.4649  0.1213
 1349SOL    HW3 5443   2.933   4.535   2.353 -0.3201  0.2706 -2.2234
 1349SOL    MW4 5444   2.934   4.621   2.367  0.0198 -0.0267 -0.2723
 1350SOL     OW 5445   2.701   0.055   2.255  0.1725  0.2550 -0.2146
 1350SOL    HW2 5446   2.714   0.146   2.279 -0.7585  0.2692  0.2740
 1350SOL    HW3 5447   2.777   0.009   2.289 -0.8697  0.3566  2.3312
 1350SOL    MW4 5448   2.713   0.061   2.262 -0.0880  0.2703  0.1857
 1351SOL     OW 5449   2.696   0.319   2.333 -0.1051 -0.1031 -0.1772
 1351SOL    HW2 5450   2.700   0.341   2.426 -0.6848 -0.0770 -0.1540
 1351SOL    HW3 5451   2.775   0.357   2.295 -0.5411  1.0648  0.0601
 1351SOL    MW4 5452   2.707   0.327   2.340 -0.2389  0.0544 -0.1428
 1352SOL     OW 5453   2.906   0.486   2.259 -0.0369  0.1793  0.1020
 1352SOL    HW2 5454   2.875   0.572   2.286  0.1924  0.2756  0.0610
 1352SOL    HW3 5455   2.901   0.487   2.163 -0.0443  0.1422  0.1018
 1352SOL    MW4 5456   2.901   0.497   2.250 -0.0076  0.1871  0.0968
 1353SOL     OW 5457   2.876   0.748   2.342  0.5042 -0.4872 -0.1095
 1353SOL    HW2 5458   2.856   0.739   2.435 -0.3456  0.0849 -0.2368
 1353SOL    HW3 5459   2.797   0.783   2.303  1.5979  1.4004 -0.6838
 1353SOL    MW4 5460   2.863   0.751   2.349  0.5362 -0.1627 -0.2019
 1354SOL     OW 5461   2.652   0.877   2.261 -0.1937  0.3345 -0.1978
 1354SOL    HW2 5462   2.664   0.966   2.294 -2.1396  0.4830  0.1990
 1354SOL    HW3 5463   2.665   0.885   2.166  0.5763  0.8472 -0.0584
 1354SOL    MW4 5464   2.655   0.890   2.253 -0.3488  0.4218 -0.1273
 1355SOL     OW 5465   2.685   1.141   2.353  0.0113  0.2340  0.3721
 1355SOL    HW2 5466   2.687   1.132   2.448 -1.4061  1.0285  0.5033
 1355SOL    HW3 5467   2.767   1.184   2.330  1.2521 -1.7705  1.0168
 1355SOL    MW4 5468   2.696   1.146   2.362 -0.0117  0.0744  0.4745
 1356SOL     OW 5469   2.910   1.295   2.280 -0.1051 -0.7036 -0.2175
 1356SOL    HW2 5470   2.994   1.261   2.313  0.4497 -0.0793 -0.9476
 1356SOL    HW3 5471   2.923   1.300   2.185 -0.4830  0.7206 -0.1953
 1356SOL    MW4 5472   2.923   1.291   2.271 -0.0818 -0.4336 -0.3109
 1357SOL     OW 5473   2.917   1.543   2.381  0.2521  0.0030  0.1542
 1357SOL    HW2 5474   2.916   1.517   2.473  1.5574 -1.5467 -0.2463
 1357SOL    HW3 5475   2.908   1.461   2.333 -1.1788  0.8670 -1.1191
 1357SOL    MW4 5476   2.916   1.529   2.387  0.2353 -0.0874 -0.0663
 1358SOL     OW 5477   2.677   1.651   2.272 -0.1744 -0.0554  0.6293
 1358SOL    HW2 5478   2.768   1.629   2.292 -0.3417 -1.1690  0.1500
 1358SOL    HW3 5479   2.678   1.676   2.180 -0.4045 -0.2857  0.5658
 1358SOL    MW4 5480   2.689   1.652   2.263 -0.2270 -0.2327  0.5577
 1359SOL     OW 5481   2.647   1.917   2.388 -0.0603  0.1536  0.0259
 1359SOL    HW2 5482   2.651   1.926   2.483 -0.0454  1.3817 -0.0737
 1359SOL    HW3 5483   2.669   1.826   2.371  1.0353  0.2026  1.1287
 1359SOL    MW4 5484   2.650   1.906   2.398  0.0863  0.3220  0.1583
 1360SOL     OW 5485   2.857   2.034   2.273 -0.2368 -0.3058 -0.1427
 1360SOL    HW2 5486   2.931   1.996   2.320  0.6755 -0.0004 -1.3006
 1360SOL    HW3 5487   2.780   1.990   2.309  0.5149 -0.6715  1.0242
 1360SOL    MW4 5488   2.857   2.023   2.284 -0.0172 -0.3140 -0.1414
 1361SOL     OW 5489   2.916   2.286   2.379 -0.3346 -0.0013 -0.2251
 1361SOL    HW2 5490   2.921   2.285   2.474 -0.4937 -0.3915 -0.2202
 1361SOL    HW3 5491   2.894   2.196   2.355 -0.2329  0.0806 -0.6327
 1361SOL    MW4 5492   2.914   2.274   2.388 -0.3426 -0.0420 -0.2780
 1362SOL     OW 5493   2.674   2.450   2.303  0.1836 -0.3982 -0.0029
 1362SOL    HW2 5494   2.742   2.386   2.324 -0.3365 -1.2333 -0.8012
 1362SOL    HW3 5495   2.667   2.449   2.208 -0.5530  0.0843  0.0361
 1362SOL    MW4 5496   2.682   2.441   2.293  0.0176 -0.4447 -0.1028
 1363SOL     OW 5497   2.682   2.713   2.399 -0.2831 -0.0434 -0.3210
 1363SOL    HW2 5498   2.764   2.742   2.360 -0.8079 -0.3364 -1.6474
 1363SOL    HW3 5499   2.672   2.622   2.372 -0.2714 -0.5020  1.1379
 1363SOL    MW4 5500   2.691   2.705   2.390 -0.3505 -0.1426 -0.3035
 1364SOL     OW 5501   2.902   2.841   2.298 -0.1060  0.1232 -0.0682
 1364SOL    HW2 5502   2.913   2.933   2.320 -2.2557  0.7284 -1.3081
 1364SOL    HW3 5503   2.893   2.840   2.202  0.1562 -1.3853 -0.0905
 1364SOL    MW4 5504   2.902   2.853   2.288 -0.3550  0.0038 -0.2346
 1365SOL     OW 5505   2.928   3.103   2.357 -0.0576 -0.2134 -0.1657
 1365SOL    HW2 5506   2.991   3.162   2.316  0.5223  0.3606  1.4957
 1365SOL    HW3 5507   2.842   3.139   2.332  0.2852  1.4750  0.9563
 1365SOL    MW4 5508   2.925   3.116   2.349  0.0641  0.0851  0.2015
 1366SOL     OW 5509   2.667   3.193   2.272  0.2182 -0.1489  0.0118
 1366SOL    HW2 5510   2.660   3.286   2.293 -0.8321 -0.1378 -0.3509
 1366SOL    HW3 5511   2.665   3.190   2.177  0.7595 -0.5112  0.0091
 1366SOL    MW4 5512   2.666   3.205   2.262  0.1509 -0.1953 -0.0362
 1367SOL     OW 5513   2.697   3.463   2.373  0.0269 -0.1123 -0.5375
 1367SOL    HW2 5514   2.766   3.508   2.324 -0.2146  2.4827  1.3503
 1367SOL    HW3 5515   2.615   3.504   2.343 -0.3198 -0.2726  0.1665
 1367SOL    MW4 5516   2.695   3.474   2.363 -0.0508  0.2091 -0.1957
 1368SOL     OW 5517   2.891   3.606   2.237  0.0564 -0.3127 -0.0919
 1368SOL    HW2 5518   2.968   3.559   2.268 -0.1014  0.2105  1.1364
 1368SOL    HW3 5519   2.892   3.688   2.287 -1.1100 -0.1672 -0.3006
 1368SOL    MW4 5520   2.901   3.610   2.248 -0.1183 -0.2244  0.0429
 1369SOL     OW 5521   2.919   3.859   2.333 -0.0342  0.3509 -0.0004
 1369SOL    HW2 5522   2.916   3.879   2.426  0.8632 -0.4509  0.2073
 1369SOL    HW3 5523   2.850   3.913   2.295 -1.5963 -0.6246  1.3818
 1369SOL    MW4 5524   2.909   3.868   2.340 -0.1221  0.1161  0.2096
 1370SOL     OW 5525   2.711   4.004   2.257 -0.7476  0.0295 -0.0787
 1370SOL    HW2 5526   2.648   3.939   2.288 -0.8839 -0.0126 -0.4479
 1370SOL    HW3 5527   2.709   3.997   2.162 -0.8728  0.6793 -0.1276
 1370SOL    MW4 5528   2.702   3.994   2.249 -0.7823  0.1099 -0.1340
 1371SOL     OW 5529   2.667   4.263   2.368 -0.3834  0.4536  0.2865
 1371SOL    HW2 5530   2.666   4.257   2.464 -0.8156 -1.7230  0.1787
 1371SOL    HW3 5531   2.675   4.172   2.339  0.5991  1.1672 -1.7437
 1371SOL    MW4 5532   2.668   4.250   2.377 -0.3107  0.2604  0.0043
 1372SOL     OW 5533   2.900   4.375   2.276  0.5497 -0.0317  0.1381
 1372SOL    HW2 5534   2.977   4.330   2.309  0.1737 -0.3138  0.6406
 1372SOL    HW3 5535   2.826   4.321   2.306  0.1784  0.0750 -0.5906
 1372SOL    MW4 5536   2.900   4.362   2.285  0.4508 -0.0548  0.1082
 1373SOL     OW 5537   3.350   4.617   2.328 -0.3950 -0.4037  0.3409
 1373SOL    HW2 5538   3.352   4.641   2.420  0.0824  0.5727  0.0843
 1373SOL    HW3 5539   3.433   4.649   2.293 -1.7534  1.7113 -1.0373
 1373SOL    MW4 5540   3.361   4.624   2.335 -0.5112  0.0043  0.1254
 1374SOL     OW 5541   3.111   0.134   2.250 -0.1052 -0.1116 -0.4408
 1374SOL    HW2 5542   3.108   0.221   2.290  0.0026  0.0303 -0.7380
 1374SOL    HW3 5543   3.197   0.100   2.274  0.9286  0.9282 -2.5191
 1374SOL    MW4 5544   3.122   0.141   2.258  0.0458  0.0443 -0.7544
 1375SOL     OW 5545   3.128   0.370   2.382  0.3944  0.2746  0.0835
 1375SOL    HW2 5546   3.204   0.424   2.360  0.9651 -0.5959 -0.1201
 1375SOL    HW3 5547   3.054   0.415   2.341  0.7763  1.1878  0.3661
 1375SOL    MW4 5548   3.129   0.383   2.374  0.5202  0.2802  0.0942
 1376SOL     OW 5549   3.359   0.470   2.270 -0.5928  0.4463  0.7137
 1376SOL    HW2 5550   3.441   0.423   2.280 -0.2026  1.2951  1.4817
 1376SOL    HW3 5551   3.353   0.487   2.176 -0.0585  0.0781  0.6118
 1376SOL    MW4 5552   3.369   0.466   2.259 -0.4709  0.5097  0.8018
 1377SOL     OW 5553   3.365   0.733   2.348  0.1831 -0.4921  0.0529
 1377SOL    HW2 5554   3.442   0.772   2.306 -0.8096 -0.6345 -1.9150
 1377SOL    HW3 5555   3.364   0.642   2.317 -1.0770 -0.3441 -0.3467
 1377SOL    MW4 5556   3.375   0.726   2.338 -0.1140 -0.4913 -0.2596
 1378SOL     OW 5557   3.128   0.886   2.285 -0.6616 -0.0836  0.2362
 1378SOL    HW2 5558   3.212   0.841   2.297 -0.7029 -0.3573 -0.4780
 1378SOL    HW3 5559   3.063   0.821   2.312 -0.6511  0.1165  0.7561
 1378SOL    MW4 5560   3.131   0.871   2.290 -0.6659 -0.0933  0.2108
 1379SOL     OW 5561   3.126   1.154   2.375 -0.4195 -0.2615  0.2119
 1379SOL    HW2 5562   3.206   1.182   2.330  0.4416 -1.6483  0.8532
 1379SOL    HW3 5563   3.110   1.065   2.343 -2.3968  0.4257 -0.8247
 1379SOL    MW4 5564   3.134   1.146   2.365 -0.5670 -0.3538  0.1597
 1380SOL     OW 5565   3.335   1.253   2.234 -0.4473 -0.0390 -0.2315
 1380SOL    HW2 5566   3.402   1.201   2.279  1.0491 -0.0938 -2.4407
 1380SOL    HW3 5567   3.335   1.337   2.280  1.4664  0.1155 -0.4769
 1380SOL    MW4 5568   3.344   1.257   2.246  0.0026 -0.0259 -0.5555
 1381SOL     OW 5569   3.335   1.506   2.365  0.2255 -0.7021 -0.1746
 1381SOL    HW2 5570   3.357   1.494   2.457 -0.7347 -0.7051  0.0656
 1381SOL    HW3 5571   3.277   1.582   2.364  0.8311 -0.2453 -0.8687
 1381SOL    MW4 5572   3.330   1.515   2.377  0.1783 -0.6422 -0.2344
 1382SOL     OW 5573   3.139   1.680   2.331  0.2069  0.5555  0.1313
 1382SOL    HW2 5574   3.100   1.766   2.349 -0.8280  0.1935 -0.3391
 1382SOL    HW3 5575   3.066   1.619   2.340  0.7739 -0.1913 -0.3161
 1382SOL    MW4 5576   3.124   1.683   2.335  0.1452  0.4094  0.0105
 1383SOL     OW 5577   3.074   1.936   2.402 -0.3176  0.3393 -0.1026
 1383SOL    HW2 5578   3.084   1.943   2.497  0.7366 -1.4654 -0.0607
 1383SOL    HW3 5579   3.152   1.979   2.367 -0.1236 -0.0225 -0.1185
 1383SOL    MW4 5580   3.086   1.943   2.410 -0.1528  0.0535 -0.0992
 1384SOL     OW 5581   3.309   2.031   2.272 -0.0959  0.0091  0.2088
 1384SOL    HW2 5582   3.389   1.985   2.298 -0.0851  0.0208  0.1973
 1384SOL    HW3 5583   3.317   2.040   2.177 -1.3567 -2.3492 -0.1572
 1384SOL    MW4 5584   3.321   2.026   2.263 -0.2606 -0.3006  0.1590
 1385SOL     OW 5585   3.347   2.297   2.339  0.2020 -0.6201  0.1684
 1385SOL    HW2 5586   3.261   2.335   2.322  0.1024 -0.3064  1.2816
 1385SOL    HW3 5587   3.337   2.203   2.322 -1.2225 -1.0908  3.1551
 1385SOL    MW4 5588   3.335   2.289   2.335  0.0012 -0.6411  0.7093
 1386SOL     OW 5589   3.109   2.450   2.278 -0.3475 -0.0154 -0.3018
 1386SOL    HW2 5590   3.100   2.533   2.324 -1.7712 -1.3853  1.9693
 1386SOL    HW3 5591   3.037   2.396   2.311 -0.2398 -1.7049 -2.7195
 1386SOL    MW4 5592   3.098   2.453   2.289 -0.5209 -0.4189 -0.3214
 1387SOL     OW 5593   3.142   2.695   2.384  0.0133 -0.4080  0.4759
 1387SOL    HW2 5594   3.121   2.697   2.477 -2.5176  0.2666 -0.0733
 1387SOL    HW3 5595   3.064   2.731   2.341  1.5538  0.2889 -1.8327
 1387SOL    MW4 5596   3.129   2.700   2.391 -0.1175 -0.2270  0.0987
 1388SOL     OW 5597   3.362   2.802   2.273  0.0572  0.2039 -0.0538
 1388SOL    HW2 5598   3.372   2.890   2.310  0.2019  0.1182  0.1120
 1388SOL    HW3 5599   3.280   2.770   2.311 -0.0821  0.3311 -0.2445
 1388SOL    MW4 5600   3.353   2.810   2.283  0.0577  0.2093 -0.0570
 1389SOL     OW 5601   3.381   3.085   2.318 -0.1865 -0.0776  0.4207
 1389SOL    HW2 5602   3.458   3.135   2.293 -0.0743 -0.4577 -0.0170
 1389SOL    HW3 5603   3.307   3.138   2.289 -0.0515 -0.9137 -1.5889
 1389SOL    MW4 5604   3.381   3.098   2.311 -0.1540 -0.2379  0.0975
 1390SOL     OW 5605   3.167   3.245   2.238 -0.0055 -0.3566  0.2250
 1390SOL    HW2 5606   3.162   3.334   2.272  1.2686 -0.2085  0.0530
 1390SOL    HW3 5607   3.151   3.254   2.144  1.0063 -0.1853  0.0611
 1390SOL    MW4 5608   3.165   3.258   2.230  0.2961 -0.3145  0.1807
 1391SOL     OW 5609   3.123   3.515   2.342  0.2109  0.5850  0.3980
 1391SOL    HW2 5610   3.119   3.513   2.438 -0.2802  0.1478  0.3697
 1391SOL    HW3 5611   3.206   3.559   2.323  0.0956  1.0853  1.0235
 1391SOL    MW4 5612   3.134   3.520   2.352  0.1307  0.5932  0.4768
 1392SOL     OW 5613   3.361   3.609   2.257  0.3315  0.7848 -0.0898
 1392SOL    HW2 5614   3.437   3.559   2.285  0.2462  0.3943 -0.5447
 1392SOL    HW3 5615   3.365   3.607   2.161 -0.8974 -0.2402 -0.1347
 1392SOL    MW4 5616   3.371   3.602   2.248  0.1581  0.5980 -0.1559
 1393SOL     OW 5617   3.339   3.891   2.353 -0.5932  0.1471 -0.7229
 1393SOL    HW2 5618   3.413   3.926   2.302  0.6007 -1.5114 -0.1434
 1393SOL    HW3 5619   3.329   3.801   2.322 -1.0270 -0.2937  0.6703
 1393SOL    MW4 5620   3.348   3.884   2.342 -0.4928 -0.1297 -0.4625
 1394SOL     OW 5621   3.129   3.985   2.231  0.0303  0.1113  0.0819
 1394SOL    HW2 5622   3.205   3.953   2.278  0.5737  2.1286  0.6290
 1394SOL    HW3 5623   3.054   3.946   2.277  0.6319  0.2798  1.2207
 1394SOL    MW4 5624   3.129   3.976   2.243  0.1812  0.3998  0.3045
 1395SOL     OW 5625   3.113   4.230   2.361 -0.5139  0.2887 -0.0607
 1395SOL    HW2 5626   3.195   4.265   2.326 -0.5132  1.8178  1.4120
 1395SOL    HW3 5627   3.110   4.140   2.329  2.4401 -0.2499  1.0382
 1395SOL    MW4 5628   3.124   4.223   2.352 -0.1240  0.4196  0.2787
 1396SOL     OW 5629   3.362   4.340   2.256  0.4766  0.2442 -0.0544
 1396SOL    HW2 5630   3.368   4.433   2.281  0.1546  0.1856  0.2457
 1396SOL    HW3 5631   3.353   4.342   2.161  0.9472  0.5023 -0.0971
 1396SOL    MW4 5632   3.361   4.353   2.247  0.4961  0.2704 -0.0203
 1397SOL     OW 5633   3.815   4.609   2.323  0.0748 -0.0227 -0.4836
 1397SOL    HW2 5634   3.819   4.626   2.417 -1.0182 -1.5555 -0.1387
 1397SOL    HW3 5635   3.896   4.647   2.289 -0.3533  2.1340  0.8003
 1397SOL    MW4 5636   3.826   4.617   2.331 -0.1256  0.0601 -0.2687
 1398SOL     OW 5637   3.584   0.086   2.260  0.9068 -0.2869  0.2675
 1398SOL    HW2 5638   3.588   0.170   2.305  2.6983  0.2554 -0.8457
 1398SOL    HW3 5639   3.665   0.041   2.286 -0.8595 -2.4501  2.2756
 1398SOL    MW4 5640   3.595   0.091   2.269  0.9103 -0.5008  0.3855
 1399SOL     OW 5641   3.596   0.353   2.346 -0.6283  0.2928  0.2539
 1399SOL    HW2 5642   3.597   0.348   2.441 -0.5984 -0.6527  0.2103
 1399SOL    HW3 5643   3.676   0.400   2.323 -0.0810 -0.4368  0.6472
 1399SOL    MW4 5644   3.607   0.359   2.355 -0.5522  0.0718  0.3002
 1400SOL     OW 5645   3.823   0.494   2.250  0.0316 -0.4509 -0.3636
 1400SOL    HW2 5646   3.825   0.583   2.283  0.9475 -0.0507 -1.4692
 1400SOL    HW3 5647   3.829   0.503   2.155  1.1857 -1.7233 -0.4339
 1400SOL    MW4 5648   3.824   0.507   2.242  0.3047 -0.5659 -0.5188
 1401SOL     OW 5649   3.821   0.776   2.339  0.5431  0.1530  0.1647
 1401SOL    HW2 5650   3.820   0.768   2.434  0.5654  1.8754  0.3237
 1401SOL    HW3 5651   3.909   0.809   2.319 -0.0998  1.6681 -0.2687
 1401SOL    MW4 5652   3.833   0.779   2.349  0.4613  0.5801  0.1285
 1402SOL     OW 5653   3.586   0.869   2.247 -0.3791  0.5849  0.0235
 1402SOL    HW2 5654   3.677   0.848   2.270 -0.1166  0.8188 -0.7750
 1402SOL    HW3 5655   3.587   0.880   2.151 -1.6531 -1.3689 -0.2359
 1402SOL    MW4 5656   3.598   0.868   2.237 -0.5126  0.3579 -0.1161
 1403SOL     OW 5657   3.543   1.132   2.338  0.1387  0.0659 -0.1042
 1403SOL    HW2 5658   3.566   1.139   2.430  0.1265  1.2256 -0.1819
 1403SOL    HW3 5659   3.546   1.038   2.319  1.2963 -0.0819  0.7733
 1403SOL    MW4 5660   3.546   1.120   2.347  0.2897  0.1994  0.0010
 1404SOL     OW 5661   3.774   1.298   2.240 -0.0735 -0.2688 -0.4956
 1404SOL    HW2 5662   3.779   1.380   2.289  0.9155 -0.3637 -0.4347
 1404SOL    HW3 5663   3.690   1.260   2.266 -0.8060  0.9987 -0.9554
 1404SOL    MW4 5664   3.763   1.304   2.250 -0.0396 -0.1141 -0.5481
 1405SOL     OW 5665   3.778   1.544   2.360 -0.1980 -0.7930  0.1960
 1405SOL    HW2 5666   3.774   1.545   2.456  0.8407 -0.1030  0.2363
 1405SOL    HW3 5667   3.706   1.600   2.332  0.7081  0.6243  0.6285
 1405SOL    MW4 5668   3.768   1.552   2.369  0.0584 -0.5150  0.2584
 1406SOL     OW 5669   3.542   1.664   2.277 -0.4155  0.4612  0.0061
 1406SOL    HW2 5670   3.461   1.615   2.294 -0.2262  0.4136  0.8081
 1406SOL    HW3 5671   3.542   1.678   2.183 -0.8711 -0.3978 -0.1321
 1406SOL    MW4 5672   3.531   1.659   2.267 -0.4506  0.3415  0.0937
 1407SOL     OW 5673   3.545   1.921   2.349 -0.1534 -0.1291  0.1437
 1407SOL    HW2 5674   3.615   1.957   2.294  0.4957  0.1378  1.1187
 1407SOL    HW3 5675   3.539   1.829   2.324 -0.3619  0.1617 -0.8826
 1407SOL    MW4 5676   3.554   1.914   2.338 -0.0951 -0.0556  0.1371
 1408SOL     OW 5677   3.800   1.998   2.252 -0.0855  0.1521  0.6175
 1408SOL    HW2 5678   3.860   1.936   2.295  0.1114 -0.2107 -0.1607
 1408SOL    HW3 5679   3.837   2.010   2.165 -0.8634  0.3311  0.3070
 1408SOL    MW4 5680   3.813   1.991   2.246 -0.1621  0.1280  0.4735
 1409SOL     OW 5681   3.819   2.261   2.365  0.1392 -0.1907 -0.0239
 1409SOL    HW2 5682   3.747   2.301   2.317 -0.5865  0.2517  1.3991
 1409SOL    HW3 5683   3.812   2.167   2.346 -0.4828 -0.0795 -0.3311
 1409SOL    MW4 5684   3.809   2.254   2.356 -0.0386 -0.1175  0.1235
 1410SOL     OW 5685   3.609   2.390   2.257  0.2915  0.5081  0.1449
 1410SOL    HW2 5686   3.520   2.367   2.282 -0.1589  1.4546 -0.5828
 1410SOL    HW3 5687   3.610   2.386   2.162  1.4387 -0.9735  0.1916
 1410SOL    MW4 5688   3.598   2.386   2.248  0.3836  0.4375  0.0551
 1411SOL     OW 5689   3.577   2.649   2.357  0.3356  0.0317  0.7232
 1411SOL    HW2 5690   3.577   2.560   2.323  0.7235 -0.0540  0.9494
 1411SOL    HW3 5691   3.494   2.686   2.326  0.7925  0.0322 -0.5028
 1411SOL    MW4 5692   3.566   2.642   2.349  0.4473  0.0205  0.5915
 1412SOL     OW 5693   3.790   2.814   2.270  0.4906  0.3977  0.2754
 1412SOL    HW2 5694   3.775   2.905   2.298  0.6685  0.5240 -0.0316
 1412SOL    HW3 5695   3.707   2.770   2.285  0.8711  0.2240  1.9246
 1412SOL    MW4 5696   3.777   2.820   2.276  0.5641  0.3915  0.4525
 1413SOL     OW 5697   3.824   3.074   2.361 -0.0788  0.6210 -0.0633
 1413SOL    HW2 5698   3.834   3.076   2.457  1.0988  0.8736 -0.1804
 1413SOL    HW3 5699   3.907   3.109   2.328 -1.9975  4.4307 -1.1094
 1413SOL    MW4 5700   3.836   3.079   2.370 -0.1769  1.1570 -0.2167
 1414SOL     OW 5701   3.614   3.212   2.244  0.4638 -0.3682 -0.1328
 1414SOL    HW2 5702   3.624   3.305   2.264 -1.0596 -0.0025 -0.9846
 1414SOL    HW3 5703   3.687   3.170   2.288  1.2609  1.2573  0.1291
 1414SOL    MW4 5704   3.625   3.219   2.252  0.3681 -0.1054 -0.2105
 1415SOL     OW 5705   3.599   3.473   2.323  0.3028  0.0675  0.4206
 1415SOL    HW2 5706   3.606   3.466   2.418 -1.4736  0.4620  0.5943
 1415SOL    HW3 5707   3.671   3.532   2.299 -0.2518  1.3090  1.7076
 1415SOL    MW4 5708   3.610   3.480   2.332 -0.0048  0.2835  0.6135
 1416SOL     OW 5709   3.866   3.584   2.254 -0.5598  0.4302 -0.3669
 1416SOL    HW2 5710   3.854   3.672   2.291 -1.0397  0.9011 -1.6292
 1416SOL    HW3 5711   3.842   3.593   2.162  2.3702 -0.3214 -1.2400
 1416SOL    MW4 5712   3.861   3.597   2.247 -0.2365  0.3929 -0.6485
 1417SOL     OW 5713   3.771   3.831   2.332 -0.1514 -0.0001  0.0946
 1417SOL    HW2 5714   3.774   3.850   2.426  0.8648  1.8655 -0.2899
 1417SOL    HW3 5715   3.844   3.881   2.295  0.3231 -1.8146 -1.5146
 1417SOL    MW4 5716   3.781   3.840   2.339  0.0448  0.0069 -0.1686
 1418SOL     OW 5717   3.568   3.993   2.230 -0.5204 -0.2059 -0.0272
 1418SOL    HW2 5718   3.581   4.071   2.283  0.0076  1.3895 -2.3923
 1418SOL    HW3 5719   3.628   3.928   2.266  0.6558  1.2033  0.5802
 1418SOL    MW4 5720   3.578   3.995   2.241 -0.2956  0.1903 -0.2592
 1419SOL     OW 5721   3.580   4.238   2.375  0.3908 -0.3282  0.1654
 1419SOL    HW2 5722   3.645   4.281   2.320 -1.1668  0.3309 -1.1993
 1419SOL    HW3 5723   3.496   4.272   2.345 -0.7286 -2.4922  0.7123
 1419SOL    MW4 5724   3.577   4.248   2.364  0.0377 -0.5264  0.0575
 1420SOL     OW 5725   3.800   4.349   2.236  0.5166  0.4525  0.6920
 1420SOL    HW2 5726   3.871   4.301   2.277  0.2234  1.0394  1.8962
 1420SOL    HW3 5727   3.809   4.438   2.269 -0.3592  0.6905  0.3009
 1420SOL    MW4 5728   3.810   4.355   2.246  0.3626  0.5612  0.7994
 1421SOL     OW 5729   4.232   4.588   2.357 -0.2212  0.3162  0.3890
 1421SOL    HW2 5730   4.245   4.581   2.452  0.8223  0.4870  0.2688
 1421SOL    HW3 5731   4.307   4.638   2.326  0.1179 -0.8209 -0.6902
 1421SOL    MW4 5732   4.244   4.593   2.365 -0.0386  0.1884  0.2306
 1422SOL     OW 5733   4.040   0.087   2.243 -0.0768 -0.4826 -0.0398
 1422SOL    HW2 5734   4.040   0.179   2.270  0.7512 -0.1864 -1.0224
 1422SOL    HW3 5735   4.106   0.046   2.298 -0.5389 -0.5276  0.4919
 1422SOL    MW4 5736   4.048   0.094   2.254 -0.0281 -0.4495 -0.0997
 1423SOL     OW 5737   4.044   0.361   2.342 -0.1181 -0.0536 -0.2088
 1423SOL    HW2 5738   4.124   0.406   2.314  0.4219 -1.6471 -1.2470
 1423SOL    HW3 5739   3.973   0.411   2.301  0.4386  0.2902 -0.7622
 1423SOL    MW4 5740   4.045   0.374   2.333  0.0262 -0.2185 -0.4189
 1424SOL     OW 5741   4.259   0.499   2.239 -0.3642 -0.1541 -0.4104
 1424SOL    HW2 5742   4.261   0.588   2.275 -3.4227 -0.8534  1.6731
 1424SOL    HW3 5743   4.339   0.458   2.273 -0.0662  1.1019  0.4669
 1424SOL    MW4 5744   4.270   0.505   2.248 -0.7281 -0.0806 -0.0196
 1425SOL     OW 5745   4.296   0.749   2.366 -0.2551 -0.5067  0.0779
 1425SOL    HW2 5746   4.241   0.817   2.327  0.4974  0.3693  0.5093
 1425SOL    HW3 5747   4.386   0.782   2.355  0.1712 -1.7692 -0.3497
 1425SOL    MW4 5748   4.301   0.762   2.359 -0.0997 -0.5577  0.0784
 1426SOL     OW 5749   4.065   0.911   2.267 -0.0267  0.3411  0.4049
 1426SOL    HW2 5750   4.038   0.995   2.305  0.2988  1.4212 -1.6754
 1426SOL    HW3 5751   4.055   0.923   2.172  1.4980 -1.4626 -0.0155
 1426SOL    MW4 5752   4.060   0.923   2.259  0.2179  0.2457  0.0749
 1427SOL     OW 5753   3.991   1.158   2.368 -0.6655  0.2198 -0.1900
 1427SOL    HW2 5754   3.986   1.174   2.462 -2.7812  0.6101 -0.3479
 1427SOL    HW3 5755   3.923   1.214   2.330 -1.6412 -1.8977 -1.6702
 1427SOL    MW4 5756   3.981   1.167   2.375 -1.0734 -0.0080 -0.4063
 1428SOL     OW 5757   4.244   1.213   2.235  0.6744 -0.0092  0.4102
 1428SOL    HW2 5758   4.184   1.171   2.297 -0.5153  1.7404  0.4849
 1428SOL    HW3 5759   4.331   1.194   2.268  0.0667  0.4693  2.3558
 1428SOL    MW4 5760   4.247   1.205   2.248  0.4368  0.2849  0.6769
 1429SOL     OW 5761   4.252   1.448   2.381 -0.2042 -0.6516 -0.1191
 1429SOL    HW2 5762   4.245   1.376   2.319 -1.2456 -0.2793 -0.4410
 1429SOL    HW3 5763   4.341   1.480   2.370  0.2653 -1.8734  0.0147
 1429SOL    MW4 5764   4.263   1.443   2.371 -0.2789 -0.7637 -0.1438
 1430SOL     OW 5765   4.025   1.601   2.266 -0.1858 -0.0622  0.2417
 1430SOL    HW2 5766   4.072   1.523   2.295 -0.2868  0.0813  0.7991
 1430SOL    HW3 5767   3.935   1.586   2.295  0.2913  1.3777  2.6055
 1430SOL    MW4 5768   4.019   1.589   2.274 -0.1354  0.1466  0.6273
 1431SOL     OW 5769   4.012   1.868   2.349 -0.0949 -0.3013 -0.0735
 1431SOL    HW2 5770   4.030   1.869   2.443  0.3478  0.3882 -0.1593
 1431SOL    HW3 5771   4.048   1.785   2.318 -0.6796 -0.7546  0.4469
 1431SOL    MW4 5772   4.019   1.857   2.358 -0.1130 -0.2700 -0.0162
 1432SOL     OW 5773   4.244   1.997   2.285 -0.2384  0.0506  0.5779
 1432SOL    HW2 5774   4.249   2.078   2.337 -0.2959 -1.1465  2.4740
 1432SOL    HW3 5775   4.157   1.962   2.304  0.7044 -1.7195  1.6936
 1432SOL    MW4 5776   4.233   2.003   2.294 -0.1216 -0.3407  0.9751
 1433SOL     OW 5777   4.251   2.251   2.411 -0.5437 -0.1375  0.0268
 1433SOL    HW2 5778   4.183   2.299   2.363 -2.3460  0.4847  3.0274
 1433SOL    HW3 5779   4.333   2.289   2.381 -1.6903  1.2068 -1.4868
 1433SOL    MW4 5780   4.253   2.262   2.401 -0.9332  0.1218  0.2229
 1434SOL     OW 5781   4.040   2.392   2.275 -0.0792  0.4467  0.0143
 1434SOL    HW2 5782   4.022   2.477   2.316 -0.5648  0.8595 -1.0223
 1434SOL    HW3 5783   3.965   2.338   2.298 -0.7227  0.9140 -0.9438
 1434SOL    MW4 5784   4.028   2.396   2.283 -0.2279  0.5629 -0.2489
 1435SOL     OW 5785   3.995   2.656   2.355 -0.2813 -0.0094 -0.1639
 1435SOL    HW2 5786   4.005   2.672   2.448 -0.7570 -0.6862  0.0038
 1435SOL    HW3 5787   3.923   2.714   2.328 -0.8305 -0.5650  0.0960
 1435SOL    MW4 5788   3.987   2.666   2.363 -0.4165 -0.1721 -0.1073
 1436SOL     OW 5789   4.224   2.770   2.241  0.0144 -0.0858 -0.2151
 1436SOL    HW2 5790   4.148   2.737   2.290  0.7478  1.2380  1.8882
 1436SOL    HW3 5791   4.299   2.724   2.280  0.5826  0.8246 -0.2239
 1436SOL    MW4 5792   4.224   2.760   2.253  0.1864  0.2089  0.0613
 1437SOL     OW 5793   4.266   3.019   2.352  0.1192  0.1696  0.2553
 1437SOL    HW2 5794   4.259   2.929   2.320  0.3756 -0.2501  1.3651
 1437SOL    HW3 5795   4.347   3.052   2.312 -0.1523  0.0329 -0.4251
 1437SOL    MW4 5796   4.276   3.012   2.342  0.1178  0.0961  0.3121
 1438SOL     OW 5797   4.061   3.181   2.245 -0.1679  0.0437  0.2525
 1438SOL    HW2 5798   4.079   3.268   2.281 -1.2186  0.9887 -1.3959
 1438SOL    HW3 5799   4.124   3.124   2.287  1.8018  1.9515 -0.0146
 1438SOL    MW4 5800   4.072   3.185   2.255 -0.0472  0.4201  0.0000
 1439SOL     OW 5801   4.073   3.435   2.363 -0.0806  0.1546 -0.5420
 1439SOL    HW2 5802   4.144   3.479   2.315  0.9007 -0.5597  0.2295
 1439SOL    HW3 5803   3.993   3.473   2.328  0.6469  0.1798 -2.2417
 1439SOL    MW4 5804   4.072   3.446   2.352  0.1450  0.0637 -0.6645
 1440SOL     OW 5805   4.292   3.570   2.255  0.4582 -0.0062 -0.6990
 1440SOL    HW2 5806   4.280   3.663   2.274 -2.2614 -0.2860 -0.9051
 1440SOL    HW3 5807   4.297   3.565   2.159  0.3903 -0.0901 -0.6986
 1440SOL    MW4 5808   4.291   3.581   2.245  0.0901 -0.0544 -0.7262
 1441SOL     OW 5809   4.231   3.907   2.328  0.1235 -0.0013  0.1344
 1441SOL    HW2 5810   4.243   3.921   2.422  0.9126 -0.6862  0.1379
 1441SOL    HW3 5811   4.317   3.923   2.290  0.1637 -1.1997 -0.2928
 1441SOL    MW4 5812   4.244   3.911   2.335  0.2332 -0.2496  0.0784
 1442SOL     OW 5813   3.985   3.969   2.240 -0.3505  0.4945 -0.1301
 1442SOL    HW2 5814   4.076   3.957   2.269 -0.4864 -0.8618 -0.2652
 1442SOL    HW3 5815   3.991   3.974   2.145 -0.5231 -0.4809 -0.1896
 1442SOL    MW4 5816   3.998   3.968   2.231 -0.3915  0.1872 -0.1557
 1443SOL     OW 5817   3.995   4.213   2.354 -0.2788 -0.2569  0.0962
 1443SOL    HW2 5818   4.075   4.257   2.324 -0.0626  0.0484  1.0901
 1443SOL    HW3 5819   4.003   4.124   2.320 -0.4657  0.3162 -1.4743
 1443SOL    MW4 5820   4.007   4.207   2.346 -0.2751 -0.1411  0.0203
 1444SOL     OW 5821   4.229   4.344   2.252 -0.1497 -0.6401  0.1237
 1444SOL    HW2 5822   4.224   4.428   2.297  2.8186  0.3679 -1.2928
 1444SOL    HW3 5823   4.314   4.309   2.277 -0.4598 -2.2392 -0.9874
 1444SOL    MW4 5824   4.240   4.350   2.262  0.2007 -0.7181 -0.2098
 1445SOL     OW 5825   0.193   4.631   2.640 -0.4501  0.5573 -0.2028
 1445SOL    HW2 5826   0.198   4.545   2.681  0.0522  0.8151  0.2827
 1445SOL    HW3 5827   0.119   4.674   2.682 -0.4821  0.4931 -0.1942
 1445SOL    MW4 5828   0.184   4.626   2.651 -0.3880  0.5827 -0.1373
 1446SOL     OW 5829   4.458   0.100   2.742 -0.6655  0.1896  0.1122
 1446SOL    HW2 5830   4.452   0.091   2.837 -2.3305 -0.3846 -0.0443
 1446SOL    HW3 5831   4.465   0.195   2.728  0.3446  0.2356  0.8296
 1446SOL    MW4 5832   4.458   0.112   2.753 -0.7520  0.1199  0.1862
 1447SOL     OW 5833   4.480   0.357   2.641 -0.2297  0.0440  0.3847
 1447SOL    HW2 5834   4.542   0.425   2.669 -0.3939  0.5807 -0.5372
 1447SOL    HW3 5835   4.474   0.368   2.546 -2.7103  0.8403  0.6154
 1447SOL    MW4 5836   4.488   0.368   2.632 -0.5789  0.2199  0.2935
 1448SOL     OW 5837   0.208   0.499   2.744 -0.0902  0.5841  0.0238
 1448SOL    HW2 5838   0.203   0.484   2.839 -0.5568 -0.2466 -0.1303
 1448SOL    HW3 5839   0.284   0.448   2.716  0.1219  0.9290 -0.0351
 1448SOL    MW4 5840   0.218   0.490   2.753 -0.1238  0.5199 -0.0041
 1449SOL     OW 5841   0.214   0.754   2.659  0.3623 -0.4672  0.0008
 1449SOL    HW2 5842   0.298   0.788   2.690  0.5882 -0.9464 -0.0819
 1449SOL    HW3 5843   0.200   0.675   2.711  1.9340 -2.6581 -2.7963
 1449SOL    MW4 5844   0.223   0.748   2.670  0.5994 -0.8195 -0.3793
 1450SOL     OW 5845   4.487   0.889   2.741  0.5123 -0.1644  0.4758
 1450SOL    HW2 5846   4.421   0.833   2.701  0.7430  0.1956 -0.4342
 1450SOL    HW3 5847   4.571   0.849   2.717  0.7306  1.3392 -1.4201
 1450SOL    MW4 5848   4.489   0.877   2.732  0.5722  0.0814  0.1056
 1451SOL     OW 5849   4.474   1.162   2.672  0.3718 -0.1139  0.4642
 1451SOL    HW2 5850   4.561   1.193   2.701  1.3670 -0.4050 -2.1071
 1451SOL    HW3 5851   4.475   1.068   2.689  0.3114 -0.0227  0.9974
 1451SOL    MW4 5852   4.486   1.154   2.678  0.4959 -0.1403  0.1953
 1452SOL     OW 5853   0.224   1.281   2.754 -0.1472 -0.2194 -0.1306
 1452SOL    HW2 5854   0.290   1.224   2.715 -1.2871 -2.3356  0.9527
 1452SOL    HW3 5855   0.234   1.364   2.709  1.5825 -1.2648 -1.7209
 1452SOL    MW4 5856   0.234   1.284   2.743 -0.0693 -0.6366 -0.1974
 1453SOL     OW 5857   0.204   1.542   2.617 -0.2203  0.3852 -0.2124
 1453SOL    HW2 5858   0.278   1.573   2.670 -0.6259 -0.0049  0.5965
 1453SOL    HW3 5859   0.128   1.586   2.655 -0.8378 -1.7737  1.1351
 1453SOL    MW4 5860   0.204   1.552   2.629 -0.3553  0.0489  0.0718
 1454SOL     OW 5861   0.001   1.660   2.748 -0.3944 -0.4777 -0.8579
 1454SOL    HW2 5862   0.015   1.649   2.842 -1.1966  0.1953 -0.6516
 1454SOL    HW3 5863  -0.008   1.755   2.737 -0.8964 -0.6067 -1.5283
 1454SOL    MW4 5864   0.002   1.671   2.759 -0.5665 -0.4059 -0.9191
 1455SOL     OW 5865   4.484   1.934   2.682 -0.3939 -0.6411  0.4378
 1455SOL    HW2 5866   4.564   1.982   2.704  0.1671 -1.8760  1.1310
 1455SOL    HW3 5867   4.489   1.920   2.588  0.6617 -1.5234  0.6210
 1455SOL    MW4 5868   4.495   1.938   2.673 -0.1807 -0.9205  0.5531
 1456SOL     OW 5869   0.232   2.057   2.782  0.1017 -0.3998  0.0046
 1456SOL    HW2 5870   0.294   2.000   2.736 -0.9237 -0.1645 -1.6980
 1456SOL    HW3 5871   0.229   2.137   2.730 -2.0898 -0.6480 -0.2786
 1456SOL    MW4 5872   0.240   2.060   2.769 -0.3227 -0.4015 -0.2575
 1457SOL     OW 5873   0.195   2.290   2.638  0.2379 -0.0853  0.1041
 1457SOL    HW2 5874   0.263   2.339   2.683 -0.1600  0.1408  0.4685
 1457SOL    HW3 5875   0.114   2.336   2.660 -0.1649 -1.0004  0.5783
 1457SOL    MW4 5876   0.193   2.303   2.647  0.1323 -0.1764  0.2148
 1458SOL     OW 5877   4.472   2.435   2.740  0.6454  0.1996 -0.0655
 1458SOL    HW2 5878   4.486   2.448   2.834  1.2333 -0.1763 -0.1040
 1458SOL    HW3 5879   4.388   2.390   2.735  0.1093  1.1385  0.2244
 1458SOL    MW4 5880   4.462   2.431   2.752  0.6528  0.2739 -0.0322
 1459SOL     OW 5881   4.490   2.696   2.632  0.2151  0.1334 -0.3658
 1459SOL    HW2 5882   4.399   2.722   2.646 -0.0603 -0.6759 -0.6849
 1459SOL    HW3 5883   4.497   2.609   2.672  0.3359 -0.6618 -2.1112
 1459SOL    MW4 5884   4.479   2.688   2.639  0.1945 -0.0782 -0.6382
 1460SOL     OW 5885   0.186   2.863   2.782  0.3042 -0.4466 -0.0408
 1460SOL    HW2 5886   0.216   2.937   2.730 -0.4396 -0.7186 -0.8748
 1460SOL    HW3 5887   0.122   2.819   2.726  0.0040 -1.1434  0.8382
 1460SOL    MW4 5888   0.182   2.867   2.767  0.1664 -0.5746 -0.0350
 1461SOL     OW 5889   0.235   3.109   2.638  0.4128  0.1991 -0.2386
 1461SOL    HW2 5890   0.311   3.150   2.678  0.0391 -1.1116  1.9133
 1461SOL    HW3 5891   0.252   3.113   2.544  2.6974  0.7341  0.1680
 1461SOL    MW4 5892   0.247   3.115   2.631  0.6649  0.0968  0.0989
 1462SOL     OW 5893   4.478   3.195   2.753 -1.0448 -0.3398 -0.6462
 1462SOL    HW2 5894   4.429   3.135   2.697 -1.2345  0.3651 -1.2382
 1462SOL    HW3 5895   4.569   3.184   2.727 -1.0471 -0.5699 -0.5612
 1462SOL    MW4 5896   4.484   3.186   2.742 -1.0701 -0.2773 -0.7131
 1463SOL     OW 5897   4.451   3.458   2.636 -0.0390  0.0296 -0.6446
 1463SOL    HW2 5898   4.530   3.502   2.668 -0.0175 -0.2340 -0.3310
 1463SOL    HW3 5899   4.451   3.373   2.680 -0.2274 -0.1758 -1.0361
 1463SOL    MW4 5900   4.462   3.453   2.646 -0.0610 -0.0322 -0.6547
 1464SOL     OW 5901   0.167   3.602   2.714 -0.4626 -0.1021  0.0576
 1464SOL    HW2 5902   0.165   3.596   2.810  0.9015  1.4306  0.2141
 1464SOL    HW3 5903   0.256   3.577   2.691 -0.2959  1.1106 -0.6596
 1464SOL    MW4 5904   0.179   3.598   2.724 -0.2606  0.2601 -0.0162
 1465SOL     OW 5905   0.193   3.868   2.625 -0.3480  0.0155  0.2349
 1465SOL    HW2 5906   0.175   3.776   2.646  0.6938 -0.3779 -0.5378
 1465SOL    HW3 5907   0.193   3.870   2.529  1.3024  0.4875  0.2442
 1465SOL    MW4 5908   0.190   3.856   2.615  0.0072  0.0260  0.1340
 1466SOL     OW 5909   4.480   4.007   2.761  0.0372  0.5069  0.1082
 1466SOL    HW2 5910   4.478   4.097   2.728  0.0763  0.2838 -0.5207
 1466SOL    HW3 5911   4.555   3.968   2.717 -0.6040 -0.1369 -0.4274
 1466SOL    MW4 5912   4.490   4.014   2.750 -0.0424  0.3929 -0.0458
 1467SOL     OW 5913   4.474   4.260   2.633 -0.1706  0.0527  0.0557
 1467SOL    HW2 5914   4.394   4.302   2.665  0.7439  1.0684  1.0552
 1467SOL    HW3 5915   4.545   4.310   2.674  0.9552 -1.5258  0.0600
 1467SOL    MW4 5916   4.472   4.272   2.642  0.0982 -0.0215  0.1881
 1468SOL     OW 5917   0.200   4.376   2.745 -0.0681 -0.5766  0.4223
 1468SOL    HW2 5918   0.210   4.375   2.840  0.3143  0.2112  0.3937
 1468SOL    HW3 5919   0.275   4.325   2.712  0.3636  0.0008  0.5007
 1468SOL    MW4 5920   0.211   4.369   2.753  0.0393 -0.3967  0.4287
 1469SOL     OW 5921   0.655   4.629   2.604 -0.1721  0.2606 -0.1004
 1469SOL    HW2 5922   0.728   4.681   2.637  0.8594 -1.1477 -0.1468
 1469SOL    HW3 5923   0.578   4.666   2.648  0.7885  0.5500  1.3669
 1469SOL    MW4 5924   0.654   4.641   2.614  0.0908  0.1130  0.0870
 1470SOL     OW 5925   0.437   0.098   2.709  0.0868  0.2647  0.2471
 1470SOL    HW2 5926   0.438   0.098   2.805  1.2701  0.5583  0.2406
 1470SOL    HW3 5927   0.349   0.066   2.686 -0.2077  0.2039  1.4224
 1470SOL    MW4 5928   0.425   0.094   2.719  0.2040  0.2954  0.4013
 1471SOL     OW 5929   0.422   0.361   2.631  0.2777  0.0123  0.0097
 1471SOL    HW2 5930   0.493   0.406   2.674 -0.4101  1.6783 -0.5607
 1471SOL    HW3 5931   0.431   0.270   2.658  0.9823  0.6895  2.1148
 1471SOL    MW4 5932   0.432   0.355   2.640  0.2799  0.3214  0.2122
 1472SOL     OW 5933   0.644   0.483   2.762 -0.2102  0.3222  0.0044
 1472SOL    HW2 5934   0.633   0.508   2.854  0.4062 -0.5204  0.3055
 1472SOL    HW3 5935   0.728   0.438   2.759 -0.9558 -1.0564 -0.6705
 1472SOL    MW4 5936   0.653   0.481   2.774 -0.2272  0.0292 -0.0448
 1473SOL     OW 5937   0.658   0.736   2.633  0.5592  0.0417  0.0399
 1473SOL    HW2 5938   0.734   0.778   2.673  0.5046  0.4647 -0.2881
 1473SOL    HW3 5939   0.659   0.647   2.666 -0.4511  0.8422  2.2958
 1473SOL    MW4 5940   0.668   0.730   2.642  0.4187  0.2031  0.2940
 1474SOL     OW 5941   0.453   0.884   2.738 -0.0221 -0.2349 -0.0123
 1474SOL    HW2 5942   0.440   0.965   2.689  1.9675  1.0371  1.4857
 1474SOL    HW3 5943   0.526   0.840   2.695  0.9757  0.3234  1.0973
 1474SOL    MW4 5944   0.461   0.889   2.726  0.3720  0.0066  0.3319
 1475SOL     OW 5945   0.419   1.131   2.630  0.0584  0.2944  0.0171
 1475SOL    HW2 5946   0.503   1.165   2.660  0.1683  0.1823 -0.1633
 1475SOL    HW3 5947   0.416   1.152   2.536 -0.1940  0.4626  0.0619
 1475SOL    MW4 5948   0.430   1.138   2.621  0.0396  0.3018 -0.0007
 1476SOL     OW 5949   0.632   1.259   2.740  0.2895 -0.0175 -0.2848
 1476SOL    HW2 5950   0.638   1.256   2.836  0.8364  0.5204 -0.3013
 1476SOL    HW3 5951   0.717   1.226   2.710  0.3405  0.3820 -0.5819
 1476SOL    MW4 5952   0.644   1.254   2.749  0.3684  0.1062 -0.3264
 1477SOL     OW 5953   0.643   1.529   2.633 -0.4860  0.0808 -0.2626
 1477SOL    HW2 5954   0.569   1.582   2.664 -0.1866  0.0085  0.5867
 1477SOL    HW3 5955   0.627   1.442   2.668 -1.2448 -0.5542 -2.0847
 1477SOL    MW4 5956   0.631   1.525   2.641 -0.5467 -0.0125 -0.3910
 1478SOL     OW 5957   0.432   1.652   2.738  0.0320 -0.5883 -0.2469
 1478SOL    HW2 5958   0.445   1.665   2.832 -0.7735 -0.9527 -0.0790
 1478SOL    HW3 5959   0.417   1.740   2.704  0.9125 -0.3888 -0.1323
 1478SOL    MW4 5960   0.432   1.666   2.746  0.0419 -0.6101 -0.2098
 1479SOL     OW 5961   0.426   1.916   2.635 -0.2797  0.0016  0.0915
 1479SOL    HW2 5962   0.513   1.950   2.655 -0.4746  0.5641 -0.0063
 1479SOL    HW3 5963   0.425   1.909   2.539  0.0615 -1.0968  0.1613
 1479SOL    MW4 5964   0.437   1.919   2.625 -0.2604 -0.0691  0.0877
 1480SOL     OW 5965   0.663   2.024   2.746  0.2760  0.4320  0.0406
 1480SOL    HW2 5966   0.675   2.029   2.841 -2.2473 -2.0817  0.5646
 1480SOL    HW3 5967   0.738   1.973   2.715  0.3663  0.0168  0.9101
 1480SOL    MW4 5968   0.674   2.018   2.754 -0.0451  0.0455  0.2246
 1481SOL     OW 5969   0.654   2.297   2.669 -0.4988 -0.3361 -0.4666
 1481SOL    HW2 5970   0.733   2.336   2.704 -0.4143 -0.7445 -0.1953
 1481SOL    HW3 5971   0.656   2.206   2.700 -1.3233 -0.2165 -0.0333
 1481SOL    MW4 5972   0.665   2.290   2.678 -0.5964 -0.3743 -0.3736
 1482SOL     OW 5973   0.424   2.440   2.742 -0.5275  0.2646 -0.2906
 1482SOL    HW2 5974   0.431   2.526   2.699  1.2091  0.4747  0.3699
 1482SOL    HW3 5975   0.500   2.391   2.710 -0.4881 -0.3884  0.7733
 1482SOL    MW4 5976   0.435   2.445   2.732 -0.2932  0.2062 -0.0632
 1483SOL     OW 5977   0.391   2.707   2.640  0.1016  0.1127 -0.5575
 1483SOL    HW2 5978   0.470   2.754   2.668  0.1821 -0.6500  0.5411
 1483SOL    HW3 5979   0.324   2.732   2.704 -0.4741  0.5273 -1.3153
 1483SOL    MW4 5980   0.393   2.717   2.652  0.0363  0.0668 -0.5126
 1484SOL     OW 5981   0.647   2.818   2.741 -0.5580 -0.0232 -0.1654
 1484SOL    HW2 5982   0.658   2.807   2.835 -3.2554  0.0417  0.1971
 1484SOL    HW3 5983   0.658   2.912   2.726 -2.5772  0.3416  0.4780
 1484SOL    MW4 5984   0.650   2.829   2.751 -1.1804  0.0336 -0.0329
 1485SOL     OW 5985   0.679   3.077   2.667 -0.1461 -0.3095 -0.3602
 1485SOL    HW2 5986   0.763   3.113   2.695 -1.7079  2.5229  0.8667
 1485SOL    HW3 5987   0.684   3.077   2.571  0.4194  1.9634 -0.3469
 1485SOL    MW4 5988   0.691   3.082   2.658 -0.2775  0.3641 -0.1962
 1486SOL     OW 5989   0.454   3.214   2.752  0.4623  0.0594  0.2811
 1486SOL    HW2 5990   0.455   3.200   2.846  0.3204  0.0934  0.2885
 1486SOL    HW3 5991   0.536   3.177   2.721  0.0637 -0.8340  0.2924
 1486SOL    MW4 5992   0.465   3.207   2.760  0.3909 -0.0541  0.2835
 1487SOL     OW 5993   0.418   3.486   2.639 -0.3030  0.6423  0.1593
 1487SOL    HW2 5994   0.432   3.399   2.677 -3.0718  0.8610  1.7863
 1487SOL    HW3 5995   0.419   3.472   2.545 -0.7659 -1.1563  0.4159
 1487SOL    MW4 5996   0.420   3.473   2.632 -0.7294  0.4337  0.4077
 1488SOL     OW 5997   0.675   3.608   2.734 -0.2934  0.2107  0.0251
 1488SOL    HW2 5998   0.671   3.618   2.829 -0.7236 -1.1088  0.1563
 1488SOL    HW3 5999   0.592   3.567   2.711 -0.4793  1.1339 -1.0108
 1488SOL    MW4 6000   0.663   3.604   2.744 -0.3746  0.1585 -0.0942
 1489SOL     OW 6001   0.667   3.872   2.679  0.2090  0.2555 -0.3701
 1489SOL    HW2 6002   0.576   3.897   2.695  1.0357  2.4823  1.2927
 1489SOL    HW3 6003   0.671   3.779   2.701 -1.6716  0.1278 -0.5103
 1489SOL    MW4 6004   0.656   3.863   2.684  0.0700  0.5326 -0.1688
 1490SOL     OW 6005   0.409   3.973   2.764  0.0992  0.3909  0.6635
 1490SOL    HW2 6006   0.403   4.065   2.739 -0.2334  0.2417  0.1931
 1490SOL    HW3 6007   0.337   3.930   2.717  1.1576 -0.3584 -0.2950
 1490SOL    MW4 6008   0.399   3.979   2.754  0.1949  0.2720  0.4752
 1491SOL     OW 6009   0.412   4.233   2.639  0.7075  0.3331  0.8916
 1491SOL    HW2 6010   0.485   4.277   2.683  0.4345  1.5309  0.1603
 1491SOL    HW3 6011   0.421   4.258   2.547 -0.3895  0.1422  0.7286
 1491SOL    MW4 6012   0.423   4.242   2.633  0.5268  0.4663  0.7734
 1492SOL     OW 6013   0.628   4.376   2.740  0.2192 -0.7115 -0.3435
 1492SOL    HW2 6014   0.715   4.338   2.728  0.3871 -1.0418  1.7173
 1492SOL    HW3 6015   0.630   4.458   2.691  0.7320 -2.0741 -2.6630
 1492SOL    MW4 6016   0.640   4.382   2.732  0.3090 -0.9351 -0.3777
 1493SOL     OW 6017   1.162   4.618   2.712 -0.6106 -0.0158 -0.5578
 1493SOL    HW2 6018   1.248   4.654   2.733 -0.7489  0.0956 -0.1565
 1493SOL    HW3 6019   1.165   4.528   2.744 -1.2558  0.5397  1.1676
 1493SOL    MW4 6020   1.174   4.611   2.719 -0.7138  0.0720 -0.2775
 1494SOL     OW 6021   0.902   0.066   2.746  0.0916 -0.1496 -0.0428
 1494SOL    HW2 6022   0.898   0.089   2.839 -1.2174 -0.9929  0.1151
 1494SOL    HW3 6023   0.991   0.034   2.733  1.5861  3.6898  0.0199
 1494SOL    MW4 6024   0.913   0.065   2.756  0.1161  0.2457 -0.0136
 1495SOL     OW 6025   0.880   0.353   2.694 -0.0848 -0.2381 -0.3946
 1495SOL    HW2 6026   0.904   0.260   2.702 -0.0481 -0.2455 -0.5938
 1495SOL    HW3 6027   0.889   0.372   2.601  0.3968  0.0984 -0.2792
 1495SOL    MW4 6028   0.884   0.343   2.683 -0.0164 -0.1947 -0.4058
 1496SOL     OW 6029   1.141   0.476   2.764  0.3050  0.1399 -0.2849
 1496SOL    HW2 6030   1.122   0.563   2.729 -0.5891  0.1973  0.3241
 1496SOL    HW3 6031   1.061   0.426   2.747  1.2710 -0.9329 -1.7797
 1496SOL    MW4 6032   1.128   0.481   2.757  0.3145  0.0059 -0.4020
 1497SOL     OW 6033   1.099   0.752   2.680 -0.6848  0.2621  0.0653
 1497SOL    HW2 6034   1.179   0.789   2.718 -0.8066  0.1775  0.4078
 1497SOL    HW3 6035   1.112   0.759   2.585 -0.7629  1.3060  0.1257
 1497SOL    MW4 6036   1.111   0.758   2.673 -0.7111  0.3887  0.1187
 1498SOL     OW 6037   0.862   0.884   2.749 -0.1606 -0.0209 -0.7786
 1498SOL    HW2 6038   0.861   0.904   2.843 -0.3423 -0.5995 -0.6512
 1498SOL    HW3 6039   0.941   0.830   2.737  0.6310  1.2036 -1.2137
 1498SOL    MW4 6040   0.873   0.879   2.760 -0.0801  0.0643 -0.8192
 1499SOL     OW 6041   0.877   1.154   2.680  0.3699  0.0501 -0.2526
 1499SOL    HW2 6042   0.882   1.064   2.712  1.1005  0.5059  0.9659
 1499SOL    HW3 6043   0.877   1.147   2.585  1.8842 -1.1614 -0.1717
 1499SOL    MW4 6044   0.877   1.142   2.672  0.6661 -0.0496 -0.0811
 1500SOL     OW 6045   1.109   1.236   2.786  0.1025  0.2298  0.1054
 1500SOL    HW2 6046   1.130   1.322   2.750  0.3737  0.6382  1.2163
 1500SOL    HW3 6047   1.024   1.214   2.747 -0.0674  1.0944 -0.0276
 1500SOL    MW4 6048   1.100   1.245   2.776  0.1159  0.3977  0.2341
 1501SOL     OW 6049   1.128   1.501   2.692  0.3649 -0.1784 -0.0424
 1501SOL    HW2 6050   1.047   1.548   2.714  0.3357 -0.4377  0.4030
 1501SOL    HW3 6051   1.130   1.502   2.596  0.2643  0.5637 -0.0392
 1501SOL    MW4 6052   1.117   1.507   2.682  0.3479 -0.1147  0.0169
 1502SOL     OW 6053   0.883   1.638   2.736 -0.0651 -0.4568  0.0934
 1502SOL    HW2 6054   0.864   1.663   2.826 -0.0426  0.8355 -0.2476
 1502SOL    HW3 6055   0.799   1.608   2.701 -0.2119 -0.3425  0.3442
 1502SOL    MW4 6056   0.869   1.638   2.743 -0.0815 -0.2712  0.0815
 1503SOL     OW 6057   0.889   1.915   2.625 -0.3321  0.2006  0.0856
 1503SOL    HW2 6058   0.956   1.965   2.672  1.0382 -0.0012 -1.5635
 1503SOL    HW3 6059   0.898   1.826   2.659  0.7609  0.0209 -0.6386
 1503SOL    MW4 6060   0.899   1.910   2.636 -0.0071  0.1502 -0.2277
 1504SOL     OW 6061   1.093   2.085   2.724 -0.8602 -0.1977  0.2647
 1504SOL    HW2 6062   1.174   2.041   2.700 -1.2302 -0.5761 -0.3197
 1504SOL    HW3 6063   1.099   2.172   2.684 -1.0065 -0.4455 -0.3081
 1504SOL    MW4 6064   1.104   2.091   2.715 -0.9284 -0.2804  0.1121
 1505SOL     OW 6065   1.109   2.346   2.640  0.0827 -0.0563  0.0312
 1505SOL    HW2 6066   1.179   2.395   2.683 -0.7970  0.8941  0.4078
 1505SOL    HW3 6067   1.122   2.363   2.547 -0.2926  1.0380  0.1633
 1505SOL    MW4 6068   1.120   2.355   2.633 -0.0831  0.2136  0.0985
 1506SOL     OW 6069   0.887   2.462   2.753 -0.1375  0.1072  0.3399
 1506SOL    HW2 6070   0.883   2.537   2.693  0.9459 -1.0612 -1.2240
 1506SOL    HW3 6071   0.973   2.424   2.738  0.0434 -0.3771  2.4771
 1506SOL    MW4 6072   0.898   2.467   2.743  0.0293 -0.1109  0.4156
 1507SOL     OW 6073   0.856   2.709   2.611  0.2393 -0.2267  0.3864
 1507SOL    HW2 6074   0.929   2.755   2.652  0.3002  0.0752 -0.0563
 1507SOL    HW3 6075   0.781   2.727   2.668 -0.6415  3.7769 -1.8843
 1507SOL    MW4 6076   0.855   2.717   2.624  0.1311  0.3412  0.0286
 1508SOL     OW 6077   1.083   2.838   2.717 -0.4809  0.2340 -0.0415
 1508SOL    HW2 6078   1.079   2.831   2.812  0.4115 -1.6663 -0.1086
 1508SOL    HW3 6079   1.163   2.790   2.693 -1.3176 -0.3186 -1.8277
 1508SOL    MW4 6080   1.093   2.830   2.726 -0.4736 -0.0892 -0.2859
 1509SOL     OW 6081   1.148   3.096   2.632  0.0000  0.0000 -0.2877
 1509SOL    HW2 6082   1.122   3.007   2.655  0.0000  0.0000 -0.2798
 1509SOL    HW3 6083   1.136   3.101   2.537  0.0000  0.0000 -0.2876
 1509SOL    MW4 6084   1.143   3.085   2.622  0.0000  0.0000 -0.2866
 1510SOL     OW 6085   0.919   3.208   2.748  0.0000  0.0000  0.0421
 1510SOL    HW2 6086   0.903   3.287   2.695  0.0000  0.0000  0.0422
 1510SOL    HW3 6087   1.006   3.179   2.720  0.0000  0.0000  0.0359
 1510SOL    MW4 6088   0.928   3.215   2.737  0.0000  0.0000  0.0415
 1511SOL     OW 6089   0.887   3.462   2.628  0.0000  0.0000  0.3613
 1511SOL    HW2 6090   0.961   3.509   2.667  0.0000  0.0000  0.3836
 1511SOL    HW3 6091   0.810   3.511   2.658  0.0000  0.0000  0.3552
 1511SOL    MW4 6092   0.887   3.475   2.637  0.0000  0.0000  0.3633
 1512SOL     OW 6093   1.102   3.599   2.775  0.0000  0.0000  0.1954
 1512SOL    HW2 6094   1.101   3.626   2.867  0.0000  0.0000  0.1969
 1512SOL    HW3 6095   1.100   3.681   2.726  0.0000  0.0000  0.1995
 1512SOL    MW4 6096   1.102   3.613   2.781  0.0000  0.0000  0.1960
 1513SOL     OW 6097   1.098   3.851   2.629  0.0000  0.0000  0.2388
 1513SOL    HW2 6098   1.178   3.889   2.667  0.0000  0.0000  0.2403
 1513SOL    HW3 6099   1.110   3.859   2.534  0.0000  0.0000  0.2390
 1513SOL    MW4 6100   1.110   3.857   2.622  0.0000  0.0000  0.2389
 1514SOL     OW 6101   0.893   4.008   2.759  0.0000  0.0000  0.2664
 1514SOL    HW2 6102   0.957   3.963   2.704  0.0000  0.0000  0.2711
 1514SOL    HW3 6103   0.809   3.969   2.734  0.0000  0.0000  0.2470
 1514SOL    MW4 6104   0.890   3.997   2.749  0.0000  0.0000  0.2646
 1515SOL     OW 6105   0.888   4.266   2.676  0.0000  0.0000  0.4134
 1515SOL    HW2 6106   0.892   4.173   2.700  0.0000  0.0000  0.4096
 1515SOL    HW3 6107   0.884   4.265   2.580  0.0000  0.0000  0.4133
 1515SOL    MW4 6108   0.888   4.254   2.666  0.0000  0.0000  0.4127
 1516SOL     OW 6109   1.144   4.351   2.774  0.0000  0.0000  0.1269
 1516SOL    HW2 6110   1.136   4.378   2.866  0.0000  0.0000  0.1276
 1516SOL    HW3 6111   1.055   4.327   2.748  0.0000  0.0000  0.1213
 1516SOL    MW4 6112   1.131   4.351   2.783  0.0000  0.0000  0.1264
 1517SOL     OW 6113   1.593   4.643   2.616  0.0000  0.0000  0.3972
 1517SOL    HW2 6114   1.588   4.549   2.632  0.0000  0.0000  0.3962
 1517SOL    HW3 6115   1.581   4.652   2.521  0.0000  0.0000  0.3972
 1517SOL    MW4 6116   1.591   4.632   2.606  0.0000  0.0000  0.3972
 1518SOL     OW 6117   1.377   0.112   2.776 -0.7318 -0.4004  0.2445
 1518SOL    HW2 6118   1.359   0.187   2.720 -0.6180 -0.3103  0.3281
 1518SOL    HW3 6119   1.458   0.075   2.741 -0.6729 -0.3578  0.3336
 1518SOL    MW4 6120   1.385   0.117   2.764 -0.7089 -0.3829  0.2673
 1519SOL     OW 6121   1.360   0.343   2.635  0.5739 -0.4796 -0.0204
 1519SOL    HW2 6122   1.435   0.390   2.670  0.0799 -0.6131  1.2344
 1519SOL    HW3 6123   1.284   0.387   2.674  0.0498 -1.2743 -0.1282
 1519SOL    MW4 6124   1.360   0.355   2.645  0.4395 -0.6021  0.1309
 1520SOL     OW 6125   1.569   0.485   2.759  0.2403  0.1706 -0.3406
 1520SOL    HW2 6126   1.651   0.450   2.726  0.9894 -0.5272  2.1845
 1520SOL    HW3 6127   1.560   0.570   2.715  2.5950  0.5242 -0.1725
 1520SOL    MW4 6128   1.579   0.492   2.748  0.6498  0.1252  0.0148
 1521SOL     OW 6129   1.575   0.759   2.662  0.0615  0.0450 -0.2253
 1521SOL    HW2 6130   1.486   0.777   2.692 -0.7820 -1.6785 -1.5763
 1521SOL    HW3 6131   1.567   0.752   2.567  2.0041  1.7587 -0.5387
 1521SOL    MW4 6132   1.562   0.760   2.653  0.2066  0.0437 -0.4451
 1522SOL     OW 6133   1.334   0.864   2.762 -0.1040 -0.3165 -0.5685
 1522SOL    HW2 6134   1.331   0.873   2.858 -1.4652 -0.2562 -0.5998
 1522SOL    HW3 6135   1.334   0.954   2.730 -1.4467 -0.3347 -0.6494
 1522SOL    MW4 6136   1.333   0.877   2.771 -0.4609 -0.3109 -0.5834
 1523SOL     OW 6137   1.326   1.125   2.689 -0.0874 -0.2948 -0.2685
 1523SOL    HW2 6138   1.401   1.178   2.717 -0.5483  0.4820 -0.4692
 1523SOL    HW3 6139   1.251   1.168   2.729 -0.2415 -2.4182  1.8619
 1523SOL    MW4 6140   1.326   1.138   2.698 -0.1684 -0.4724 -0.0141
 1524SOL     OW 6141   1.528   1.284   2.779 -0.0292 -0.1774  0.3081
 1524SOL    HW2 6142   1.551   1.271   2.871 -0.0127 -1.6145  0.1086
 1524SOL    HW3 6143   1.608   1.260   2.731 -0.1461  0.2434 -0.0999
 1524SOL    MW4 6144   1.542   1.279   2.785 -0.0424 -0.3115  0.2279
 1525SOL     OW 6145   1.566   1.544   2.663 -0.2802 -0.1487  0.0969
 1525SOL    HW2 6146   1.556   1.452   2.688  1.4265 -0.3470  0.1183
 1525SOL    HW3 6147   1.573   1.541   2.567  1.1202 -0.2005  0.1839
 1525SOL    MW4 6148   1.566   1.531   2.653  0.1298 -0.1816  0.1111
 1526SOL     OW 6149   1.330   1.671   2.730 -0.3039 -0.2567  0.2816
 1526SOL    HW2 6150   1.408   1.625   2.699  0.2753  1.8752 -1.5544
 1526SOL    HW3 6151   1.262   1.604   2.731  0.4829 -1.1860 -2.4689
 1526SOL    MW4 6152   1.332   1.656   2.726 -0.1236 -0.0980 -0.3235
 1527SOL     OW 6153   1.308   1.930   2.626  0.0224 -0.2827 -0.1233
 1527SOL    HW2 6154   1.304   1.836   2.645 -1.2281 -0.2956 -0.4049
 1527SOL    HW3 6155   1.307   1.936   2.531 -0.9525  0.0403 -0.1024
 1527SOL    MW4 6156   1.307   1.918   2.616 -0.2712 -0.2419 -0.1576
 1528SOL     OW 6157   1.560   2.050   2.698 -0.2194 -0.0653 -0.2385
 1528SOL    HW2 6158   1.636   1.997   2.674 -0.2227 -0.0415 -0.3001
 1528SOL    HW3 6159   1.486   1.989   2.694 -0.0977 -0.2667  0.5411
 1528SOL    MW4 6160   1.560   2.035   2.694 -0.2038 -0.0887 -0.1438
 1529SOL     OW 6161   1.542   2.319   2.641  0.3305  0.2856  0.1933
 1529SOL    HW2 6162   1.624   2.358   2.671  0.7815 -1.6509  1.5677
 1529SOL    HW3 6163   1.553   2.225   2.655 -2.0736 -0.0263  0.2843
 1529SOL    MW4 6164   1.554   2.312   2.647  0.0728 -0.0112  0.3865
 1530SOL     OW 6165   1.346   2.450   2.752  0.6534  0.0564  0.1387
 1530SOL    HW2 6166   1.336   2.541   2.722 -1.0173 -0.6691 -1.6286
 1530SOL    HW3 6167   1.414   2.414   2.695  0.9647  0.0622  0.5086
 1530SOL    MW4 6168   1.354   2.457   2.740  0.4742 -0.0381 -0.0458
 1531SOL     OW 6169   1.311   2.697   2.649  0.0211 -0.6720  0.2935
 1531SOL    HW2 6170   1.390   2.744   2.675 -0.1430 -1.0703  1.5248
 1531SOL    HW3 6171   1.314   2.697   2.553  1.4540 -0.5975  0.3256
 1531SOL    MW4 6172   1.322   2.703   2.640  0.1885 -0.7148  0.4599
 1532SOL     OW 6173   1.546   2.833   2.746 -0.1747 -0.0448  0.0782
 1532SOL    HW2 6174   1.566   2.822   2.839  1.0175  0.6530 -0.0824
 1532SOL    HW3 6175   1.617   2.788   2.700 -0.6374 -0.1955 -0.5024
 1532SOL    MW4 6176   1.558   2.826   2.752 -0.0783  0.0274 -0.0193
 1533SOL     OW 6177   1.578   3.097   2.659 -0.1430  0.4511 -0.1437
 1533SOL    HW2 6178   1.651   3.143   2.701 -1.2613  1.3499  0.8567
 1533SOL    HW3 6179   1.574   3.012   2.703  0.5009  0.2797 -0.4200
 1533SOL    MW4 6180   1.587   3.092   2.671 -0.2056  0.5472 -0.0484
 1534SOL     OW 6181   1.357   3.232   2.745  0.2807  0.2409  0.0274
 1534SOL    HW2 6182   1.439   3.189   2.721  0.5432 -0.7860  2.5760
 1534SOL    HW3 6183   1.289   3.181   2.701  0.7865 -1.0322  0.7065
 1534SOL    MW4 6184   1.359   3.220   2.736  0.3819 -0.0629  0.4532
 1535SOL     OW 6185   1.313   3.473   2.628 -0.2347  0.1092  0.5232
 1535SOL    HW2 6186   1.322   3.380   2.648  1.1595  0.3563  1.0779
 1535SOL    HW3 6187   1.233   3.500   2.673 -1.8062 -1.2755 -1.3491
 1535SOL    MW4 6188   1.303   3.464   2.637 -0.2581 -0.0410  0.3495
 1536SOL     OW 6189   1.557   3.593   2.760  0.8133  0.1348  0.0586
 1536SOL    HW2 6190   1.631   3.548   2.720  0.0549  0.2230 -1.4896
 1536SOL    HW3 6191   1.480   3.557   2.715  0.0119  0.9036  0.8048
 1536SOL    MW4 6192   1.556   3.583   2.748  0.6074  0.2477 -0.0472
 1537SOL     OW 6193   1.584   3.841   2.664 -0.1602  0.4697 -0.1643
 1537SOL    HW2 6194   1.509   3.885   2.705 -1.0227  0.3470 -1.6051
 1537SOL    HW3 6195   1.582   3.753   2.701 -1.0817  0.2836 -0.6351
 1537SOL    MW4 6196   1.574   3.835   2.674 -0.3957  0.4289 -0.4165
 1538SOL     OW 6197   1.376   3.977   2.788  0.1003  0.2896  0.2479
 1538SOL    HW2 6198   1.373   3.967   2.883  0.0175  2.7336  0.5418
 1538SOL    HW3 6199   1.373   4.072   2.774  0.0705 -0.0412 -2.1967
 1538SOL    MW4 6200   1.376   3.989   2.798  0.0855  0.5686 -0.0360
 1539SOL     OW 6201   1.378   4.220   2.666  0.1225 -0.0381  0.2108
 1539SOL    HW2 6202   1.297   4.261   2.696  1.8063  3.4595  0.2522
 1539SOL    HW3 6203   1.367   4.212   2.571 -0.2849  0.3913  0.2208
 1539SOL    MW4 6204   1.366   4.224   2.657  0.2910  0.4802  0.2174
 1540SOL     OW 6205   1.595   4.381   2.739 -0.4894  0.3937 -0.2186
 1540SOL    HW2 6206   1.579   4.414   2.828  1.0975  0.0428  0.1986
 1540SOL    HW3 6207   1.514   4.335   2.716 -0.4877 -0.5066  1.4968
 1540SOL    MW4 6208   1.582   4.379   2.748 -0.2799  0.2289  0.0627
 1541SOL     OW 6209   2.025   4.634   2.616  0.4431 -0.2916  0.4934
 1541SOL    HW2 6210   2.104   4.673   2.654  1.2044 -0.5588 -0.7587
 1541SOL    HW3 6211   2.035   4.648   2.521 -0.7424 -0.8168  0.2850
 1541SOL    MW4 6212   2.037   4.641   2.608  0.3872 -0.3963  0.3009
 1542SOL     OW 6213   1.831   0.089   2.733  0.0186  0.2822 -0.0589
 1542SOL    HW2 6214   1.906   0.042   2.696  0.8377  1.5911 -0.1302
 1542SOL    HW3 6215   1.754   0.048   2.695  0.7081 -0.9715 -0.1272
 1542SOL    MW4 6216   1.831   0.077   2.723  0.2177  0.2895 -0.0772
 1543SOL     OW 6217   1.794   0.358   2.663  0.0262 -0.4182 -0.4063
 1543SOL    HW2 6218   1.871   0.406   2.692 -0.0296 -0.4825 -0.1496
 1543SOL    HW3 6219   1.809   0.268   2.692 -0.3747 -0.3294  0.0865
 1543SOL    MW4 6220   1.806   0.352   2.671 -0.0341 -0.4149 -0.3076
 1544SOL     OW 6221   2.035   0.465   2.725  0.3017 -0.3431 -0.2349
 1544SOL    HW2 6222   2.102   0.413   2.680  0.6964  1.1656 -1.4312
 1544SOL    HW3 6223   2.056   0.556   2.703 -1.1506  0.2611  0.7635
 1544SOL    MW4 6224   2.047   0.471   2.716  0.1621 -0.0643 -0.2611
 1545SOL     OW 6225   2.003   0.766   2.664 -0.4628  0.2169 -0.1214
 1545SOL    HW2 6226   1.934   0.830   2.681 -0.0766  1.3555 -2.5388
 1545SOL    HW3 6227   1.997   0.748   2.570  2.0053 -0.2487 -0.2400
 1545SOL    MW4 6228   1.993   0.772   2.654 -0.0863  0.3057 -0.4563
 1546SOL     OW 6229   1.794   0.937   2.751  0.2669 -0.2683  0.0744
 1546SOL    HW2 6230   1.775   1.029   2.732  1.0250 -0.0692  0.2634
 1546SOL    HW3 6231   1.716   0.890   2.722 -0.4720  0.5188  0.7593
 1546SOL    MW4 6232   1.781   0.943   2.745  0.2695 -0.1382  0.1895
 1547SOL     OW 6233   1.741   1.220   2.630  0.0167  0.3753 -0.1115
 1547SOL    HW2 6234   1.833   1.245   2.644  0.1287  0.4704 -1.0219
 1547SOL    HW3 6235   1.740   1.178   2.544 -0.6126 -0.5699  0.3457
 1547SOL    MW4 6236   1.753   1.218   2.621 -0.0515  0.2631 -0.1712
 1548SOL     OW 6237   2.014   1.299   2.736 -0.1548  0.4023  0.0836
 1548SOL    HW2 6238   2.018   1.287   2.831  3.1764  0.3299 -0.0082
 1548SOL    HW3 6239   2.084   1.243   2.702 -1.0707  0.7228 -2.3950
 1548SOL    MW4 6240   2.024   1.290   2.744  0.1643  0.4351 -0.2556
 1549SOL     OW 6241   2.032   1.570   2.648  0.0471 -0.5048  0.0470
 1549SOL    HW2 6242   1.949   1.585   2.693 -0.0929  0.0034 -0.3853
 1549SOL    HW3 6243   2.057   1.481   2.673 -1.4099 -1.2516 -1.0951
 1549SOL    MW4 6244   2.025   1.560   2.657 -0.1636 -0.5362 -0.1607
 1550SOL     OW 6245   1.797   1.664   2.760 -0.5109 -0.3205 -0.2364
 1550SOL    HW2 6246   1.786   1.681   2.853 -1.5720 -1.9613 -0.0403
 1550SOL    HW3 6247   1.716   1.621   2.733 -0.5364  0.7948 -2.0910
 1550SOL    MW4 6248   1.785   1.661   2.768 -0.6542 -0.3897 -0.4551
 1551SOL     OW 6249   1.817   1.898   2.591 -0.0420  0.2103  0.4218
 1551SOL    HW2 6250   1.884   1.949   2.638  0.4541 -0.5915  0.5888
 1551SOL    HW3 6251   1.809   1.817   2.641  0.0688 -0.4052 -0.5608
 1551SOL    MW4 6252   1.825   1.894   2.604  0.0381  0.0232  0.3140
 1552SOL     OW 6253   1.998   2.042   2.727 -0.2096  0.0873 -0.7810
 1552SOL    HW2 6254   2.005   2.055   2.821 -0.7910 -0.0188 -0.7211
 1552SOL    HW3 6255   1.984   2.129   2.691 -1.1277  0.0026 -0.6568
 1552SOL    MW4 6256   1.997   2.055   2.735 -0.4075  0.0620 -0.7565
 1553SOL     OW 6257   1.982   2.284   2.624  0.5216  0.7216  0.0467
 1553SOL    HW2 6258   2.060   2.332   2.654  1.2039  0.0272 -0.6227
 1553SOL    HW3 6259   1.990   2.282   2.529 -0.3418  0.6895 -0.0247
 1553SOL    MW4 6260   1.993   2.290   2.616  0.4976  0.6256 -0.0508
 1554SOL     OW 6261   1.770   2.450   2.728 -0.0687 -0.0491  0.4190
 1554SOL    HW2 6262   1.778   2.449   2.823  0.6356  3.0050  0.4371
 1554SOL    HW3 6263   1.850   2.409   2.696  1.3807  2.0987  1.1418
 1554SOL    MW4 6264   1.781   2.445   2.736  0.2154  0.6375  0.5167
 1555SOL     OW 6265   1.782   2.712   2.623 -0.2990  0.1083 -0.1223
 1555SOL    HW2 6266   1.780   2.624   2.660 -0.5522  0.2608  0.2265
 1555SOL    HW3 6267   1.763   2.699   2.530 -0.1817 -0.2192 -0.1020
 1555SOL    MW4 6268   1.780   2.698   2.615 -0.3170  0.0854 -0.0734
 1556SOL     OW 6269   1.999   2.833   2.764  0.2718  0.1382 -0.2451
 1556SOL    HW2 6270   2.076   2.778   2.747 -0.1268 -0.3778 -0.3805
 1556SOL    HW3 6271   1.925   2.783   2.730 -0.2125  0.3051  0.5447
 1556SOL    MW4 6272   2.000   2.819   2.757  0.1554  0.0925 -0.1588
 1557SOL     OW 6273   2.029   3.102   2.695  0.2271 -0.2392  0.0623
 1557SOL    HW2 6274   2.024   3.009   2.718 -2.1202 -0.0672  0.3517
 1557SOL    HW3 6275   2.014   3.104   2.600 -1.2563 -0.0458  0.2917
 1557SOL    MW4 6276   2.026   3.090   2.685 -0.2785 -0.1910  0.1307
 1558SOL     OW 6277   1.783   3.236   2.797  0.4928 -0.7903 -0.2340
 1558SOL    HW2 6278   1.777   3.318   2.747 -1.4997 -0.7913 -0.0453
 1558SOL    HW3 6279   1.869   3.201   2.775  0.4377  0.1804 -2.1561
 1558SOL    MW4 6280   1.793   3.242   2.787  0.2226 -0.6621 -0.4625
 1559SOL     OW 6281   1.765   3.453   2.623 -0.7313  0.0221  0.3083
 1559SOL    HW2 6282   1.841   3.501   2.655 -1.5645  2.2446 -0.9338
 1559SOL    HW3 6283   1.766   3.466   2.529 -1.7041 -1.3738  0.0853
 1559SOL    MW4 6284   1.775   3.461   2.615 -0.9696  0.1311  0.1152
 1560SOL     OW 6285   2.013   3.564   2.715  0.0085  0.1761 -0.0971
 1560SOL    HW2 6286   2.016   3.571   2.811 -1.9327  0.2607 -0.0380
 1560SOL    HW3 6287   2.097   3.523   2.692  0.4554  0.0710  1.6389
 1560SOL    MW4 6288   2.025   3.560   2.725 -0.1886  0.1731  0.1397
 1561SOL     OW 6289   2.024   3.839   2.616  0.3105  0.1712 -0.2144
 1561SOL    HW2 6290   1.950   3.883   2.658  0.5186  0.4857 -0.1757
 1561SOL    HW3 6291   2.021   3.750   2.649 -1.2213 -0.3464 -1.7088
 1561SOL    MW4 6292   2.014   3.833   2.626  0.1357  0.1442 -0.4065
 1562SOL     OW 6293   1.813   3.981   2.747  0.4262  0.0046  0.3172
 1562SOL    HW2 6294   1.803   4.074   2.724  0.4186 -0.1895 -0.4772
 1562SOL    HW3 6295   1.729   3.942   2.725  0.7570 -0.3806 -0.2832
 1562SOL    MW4 6296   1.801   3.988   2.741  0.4687 -0.0720  0.1330
 1563SOL     OW 6297   1.783   4.222   2.653 -0.0088  0.1655 -0.4103
 1563SOL    HW2 6298   1.708   4.272   2.685 -0.3708 -1.5878  1.6112
 1563SOL    HW3 6299   1.775   4.225   2.558 -1.7110  1.4028 -0.2475
 1563SOL    MW4 6300   1.772   4.229   2.645 -0.2811  0.0973 -0.1221
 1564SOL     OW 6301   1.996   4.380   2.724 -0.2609  0.0718  0.5331
 1564SOL    HW2 6302   1.915   4.340   2.692  0.9693 -0.1978 -2.3513
 1564SOL    HW3 6303   2.007   4.459   2.670  0.6359  0.9368  1.9356
 1564SOL    MW4 6304   1.987   4.385   2.713  0.0198  0.1497  0.3376
 1565SOL     OW 6305   2.479   4.621   2.647  0.6686  0.0891  0.0821
 1565SOL    HW2 6306   2.535   4.693   2.673 -0.9083  1.3317  0.0981
 1565SOL    HW3 6307   2.485   4.620   2.551  0.3594  0.5192  0.0567
 1565SOL    MW4 6308   2.487   4.630   2.638  0.4196  0.3099  0.0808
 1566SOL     OW 6309   2.248   0.087   2.717 -0.0655 -0.3655 -0.8745
 1566SOL    HW2 6310   2.257   0.114   2.809 -0.6112  0.4717 -1.0570
 1566SOL    HW3 6311   2.333   0.052   2.694  0.1483 -0.3696 -0.1080
 1566SOL    MW4 6312   2.260   0.086   2.726 -0.1094 -0.2555 -0.7973
 1567SOL     OW 6313   2.239   0.346   2.618  0.3325 -0.2190  0.2084
 1567SOL    HW2 6314   2.238   0.257   2.654 -0.5025 -0.5611 -0.6569
 1567SOL    HW3 6315   2.269   0.335   2.528 -1.6013  0.1423 -0.4994
 1567SOL    MW4 6316   2.243   0.333   2.611 -0.0327 -0.2165  0.0007
 1568SOL     OW 6317   2.461   0.472   2.698  0.2873  0.0128  0.4139
 1568SOL    HW2 6318   2.459   0.567   2.688 -0.0996 -0.0207  0.2016
 1568SOL    HW3 6319   2.374   0.443   2.672  0.9376 -0.5693 -1.1672
 1568SOL    MW4 6320   2.449   0.481   2.694  0.3221 -0.0684  0.1771
 1569SOL     OW 6321   2.458   0.739   2.628  0.2429 -0.2123 -0.3172
 1569SOL    HW2 6322   2.396   0.808   2.653  0.1067 -0.3304 -0.3328
 1569SOL    HW3 6323   2.455   0.737   2.533  0.1016 -0.3747 -0.3092
 1569SOL    MW4 6324   2.450   0.748   2.619  0.2062 -0.2493 -0.3183
 1570SOL     OW 6325   2.251   0.893   2.742 -0.3771  0.0203  0.2332
 1570SOL    HW2 6326   2.254   0.898   2.837 -1.4511  1.8867  0.1802
 1570SOL    HW3 6327   2.169   0.849   2.723 -0.9283  1.0708  0.1421
 1570SOL    MW4 6328   2.241   0.888   2.752 -0.5918  0.4051  0.2143
 1571SOL     OW 6329   2.227   1.146   2.633 -0.9490  0.3633 -0.1040
 1571SOL    HW2 6330   2.234   1.056   2.668  2.9563 -0.0212 -1.6305
 1571SOL    HW3 6331   2.241   1.136   2.539 -0.9124  2.5486 -0.3418
 1571SOL    MW4 6332   2.230   1.133   2.625 -0.4287  0.6008 -0.3364
 1572SOL     OW 6333   2.473   1.300   2.695 -0.3364 -0.0919 -0.0180
 1572SOL    HW2 6334   2.549   1.245   2.676 -0.1134  0.5692 -1.1157
 1572SOL    HW3 6335   2.398   1.249   2.664 -0.2468 -0.3070  0.1184
 1572SOL    MW4 6336   2.473   1.286   2.689 -0.2949 -0.0330 -0.1447
 1573SOL     OW 6337   2.447   1.559   2.580  0.0902 -0.4831  0.0856
 1573SOL    HW2 6338   2.370   1.590   2.627  0.0890 -0.3929  0.0230
 1573SOL    HW3 6339   2.459   1.469   2.611  0.1598 -0.3851  0.3431
 1573SOL    MW4 6340   2.438   1.551   2.590  0.0994 -0.4584  0.1111
 1574SOL     OW 6341   2.261   1.665   2.765  0.2719  0.1935 -0.1897
 1574SOL    HW2 6342   2.269   1.755   2.731  1.0762  0.7113  1.3170
 1574SOL    HW3 6343   2.180   1.632   2.726 -1.0193  2.2126  0.6886
 1574SOL    MW4 6344   2.252   1.673   2.755  0.2074  0.5282  0.1249
 1575SOL     OW 6345   2.251   1.928   2.649  0.1580  0.3296 -0.3784
 1575SOL    HW2 6346   2.170   1.972   2.675  0.2146  0.2011  0.0248
 1575SOL    HW3 6347   2.252   1.935   2.553 -0.9229 -0.6889 -0.4835
 1575SOL    MW4 6348   2.240   1.934   2.640  0.0229  0.1783 -0.3390
 1576SOL     OW 6349   2.476   2.025   2.770  0.1902 -0.0138  0.1074
 1576SOL    HW2 6350   2.465   2.120   2.761 -0.0507  0.0912  1.4554
 1576SOL    HW3 6351   2.394   1.988   2.736 -0.2288  0.3215  0.7355
 1576SOL    MW4 6352   2.464   2.033   2.765  0.1030  0.0446  0.3681
 1577SOL     OW 6353   2.470   2.293   2.693 -0.4245  0.1482  0.1298
 1577SOL    HW2 6354   2.553   2.334   2.718  0.1726 -0.7215 -0.4296
 1577SOL    HW3 6355   2.470   2.295   2.597 -0.7948 -0.3715  0.1175
 1577SOL    MW4 6356   2.481   2.299   2.683 -0.3948 -0.0353  0.0544
 1578SOL     OW 6357   2.213   2.409   2.742  0.2042 -0.7016  0.2422
 1578SOL    HW2 6358   2.209   2.410   2.838 -2.4982 -0.9072  0.1751
 1578SOL    HW3 6359   2.301   2.377   2.722  1.1269  0.1982  2.6465
 1578SOL    MW4 6360   2.224   2.405   2.752 -0.0305 -0.6099  0.5503
 1579SOL     OW 6361   2.229   2.677   2.714  0.0912 -0.3810 -0.3312
 1579SOL    HW2 6362   2.309   2.712   2.753  0.1459  0.1479 -0.9010
 1579SOL    HW3 6363   2.230   2.584   2.734  1.0684 -0.4562 -0.6999
 1579SOL    MW4 6364   2.240   2.669   2.721  0.2275 -0.3211 -0.4549
 1580SOL     OW 6365   2.482   2.797   2.763  0.1647 -0.1595  0.1467
 1580SOL    HW2 6366   2.559   2.765   2.717  0.1642 -1.0215  0.7155
 1580SOL    HW3 6367   2.471   2.887   2.733 -0.1108 -0.8471 -1.8750
 1580SOL    MW4 6368   2.491   2.804   2.753  0.1285 -0.3638 -0.0448
 1581SOL     OW 6369   2.503   3.084   2.681  0.1278 -0.4755 -0.1427
 1581SOL    HW2 6370   2.430   3.132   2.721 -0.3223 -2.2697  1.2633
 1581SOL    HW3 6371   2.482   3.080   2.588  0.1102  1.8985 -0.2876
 1581SOL    MW4 6372   2.491   3.090   2.674  0.0663 -0.3989  0.0236
 1582SOL     OW 6373   2.268   3.210   2.779  0.1317  0.1633  0.5639
 1582SOL    HW2 6374   2.259   3.223   2.873 -0.2553  0.2850  0.5083
 1582SOL    HW3 6375   2.188   3.166   2.752  0.0748  0.4677  0.2260
 1582SOL    MW4 6376   2.256   3.206   2.788  0.0732  0.2193  0.5119
 1583SOL     OW 6377   2.269   3.443   2.629  0.0792  0.0464  0.1563
 1583SOL    HW2 6378   2.339   3.493   2.671 -0.1091 -0.7173  1.3973
 1583SOL    HW3 6379   2.275   3.355   2.667 -1.7051  0.0371  0.4962
 1583SOL    MW4 6380   2.279   3.438   2.640 -0.1810 -0.0558  0.3648
 1584SOL     OW 6381   2.474   3.592   2.720 -0.4457 -0.2116  0.1041
 1584SOL    HW2 6382   2.473   3.618   2.812  0.1328  0.9247 -0.1996
 1584SOL    HW3 6383   2.466   3.675   2.671  1.4572 -0.5729 -0.8832
 1584SOL    MW4 6384   2.473   3.607   2.725 -0.1183 -0.1094 -0.0663
 1585SOL     OW 6385   2.476   3.859   2.632 -0.2173 -0.4209  0.0330
 1585SOL    HW2 6386   2.557   3.894   2.669 -0.3988  0.5685 -0.5185
 1585SOL    HW3 6387   2.407   3.905   2.679 -0.4520  1.1507 -1.8342
 1585SOL    MW4 6388   2.478   3.870   2.643 -0.2725 -0.0830 -0.2863
 1586SOL     OW 6389   2.247   4.006   2.730  0.6055  0.3696  0.5923
 1586SOL    HW2 6390   2.232   3.998   2.824  0.9985  0.3474  0.6543
 1586SOL    HW3 6391   2.186   3.944   2.690  0.4951  0.3207  0.8358
 1586SOL    MW4 6392   2.237   3.997   2.737  0.6430  0.3603  0.6325
 1587SOL     OW 6393   2.230   4.257   2.630  0.2734 -0.0065  0.1812
 1587SOL    HW2 6394   2.224   4.171   2.671 -0.1553 -0.8424 -1.5919
 1587SOL    HW3 6395   2.149   4.301   2.655 -0.4318 -0.8675 -0.5660
 1587SOL    MW4 6396   2.218   4.252   2.639  0.1240 -0.2313 -0.1512
 1588SOL     OW 6397   2.466   4.341   2.744  0.0366 -0.1750  0.0485
 1588SOL    HW2 6398   2.389   4.294   2.711  0.5695 -1.0171  0.0015
 1588SOL    HW3 6399   2.463   4.426   2.699 -1.5247  0.2703  0.9452
 1588SOL    MW4 6400   2.455   4.346   2.733 -0.0992 -0.2270  0.1605
 1589SOL     OW 6401   2.862   4.627   2.647 -0.7771 -0.0281 -0.0781
 1589SOL    HW2 6402   2.939   4.674   2.681 -2.4269  1.0790  2.2826
 1589SOL    HW3 6403   2.862   4.645   2.553  0.9812  1.2256  0.1288
 1589SOL    MW4 6404   2.872   4.636   2.639 -0.7627  0.2832  0.2606
 1590SOL     OW 6405   2.662   0.122   2.730 -0.6153  0.2398  0.1977
 1590SOL    HW2 6406   2.650   0.133   2.825  0.4574  0.1496  0.3444
 1590SOL    HW3 6407   2.731   0.056   2.722 -1.6447 -0.7716 -0.6599
 1590SOL    MW4 6408   2.669   0.114   2.742 -0.6096  0.0944  0.1042
 1591SOL     OW 6409   2.686   0.358   2.602 -0.1230  0.3663  0.1622
 1591SOL    HW2 6410   2.704   0.274   2.644 -1.6535 -1.0049 -1.8148
 1591SOL    HW3 6411   2.616   0.397   2.654 -1.3928 -0.9138 -0.5329
 1591SOL    MW4 6412   2.679   0.352   2.614 -0.4928  0.0165 -0.1903
 1592SOL     OW 6413   2.879   0.493   2.750 -0.0008  0.7623  0.2816
 1592SOL    HW2 6414   2.867   0.573   2.699  0.7873  1.3997  1.0718
 1592SOL    HW3 6415   2.813   0.432   2.716  0.3281  1.2608 -1.2971
 1592SOL    MW4 6416   2.869   0.495   2.739  0.1466  0.9122  0.1776
 1593SOL     OW 6417   2.887   0.737   2.613  0.3256 -0.2154 -0.1340
 1593SOL    HW2 6418   2.963   0.788   2.639 -0.0110  0.6117 -0.7418
 1593SOL    HW3 6419   2.812   0.784   2.651  0.1232 -1.1276  0.6273
 1593SOL    MW4 6420   2.887   0.750   2.622  0.2544 -0.2267 -0.1137
 1594SOL     OW 6421   2.691   0.881   2.735  0.1935 -0.1228  0.0199
 1594SOL    HW2 6422   2.686   0.875   2.830 -0.8419  1.0247  0.0491
 1594SOL    HW3 6423   2.612   0.837   2.704  0.6003 -0.6201 -0.3197
 1594SOL    MW4 6424   2.680   0.874   2.744  0.1106 -0.0370 -0.0212
 1595SOL     OW 6425   2.702   1.153   2.645 -0.2724 -0.3376  0.0293
 1595SOL    HW2 6426   2.787   1.172   2.685 -1.4513  0.6631  2.1009
 1595SOL    HW3 6427   2.683   1.062   2.671 -0.3270 -0.2025  0.4660
 1595SOL    MW4 6428   2.711   1.143   2.654 -0.4349 -0.1879  0.3605
 1596SOL     OW 6429   2.904   1.264   2.796  0.7847  0.2004  0.4710
 1596SOL    HW2 6430   2.905   1.276   2.891  0.6163  0.3172  0.4572
 1596SOL    HW3 6431   2.983   1.214   2.778  0.4442 -0.4639  0.7625
 1596SOL    MW4 6432   2.914   1.259   2.806  0.7179  0.1280  0.5078
 1597SOL     OW 6433   2.920   1.495   2.654 -0.1790 -0.7700  0.3241
 1597SOL    HW2 6434   2.838   1.544   2.665 -0.6827 -1.4854 -0.1528
 1597SOL    HW3 6435   2.909   1.418   2.710 -0.0360 -1.1115 -0.1138
 1597SOL    MW4 6436   2.907   1.491   2.663 -0.2267 -0.9096  0.2034
 1598SOL     OW 6437   2.687   1.648   2.667 -0.0449 -0.2808 -0.1214
 1598SOL    HW2 6438   2.675   1.651   2.762 -0.3217 -1.6136 -0.1070
 1598SOL    HW3 6439   2.601   1.627   2.632  0.1412 -0.1885 -0.6426
 1598SOL    MW4 6440   2.674   1.646   2.675 -0.0567 -0.4444 -0.1884
 1599SOL     OW 6441   2.700   1.943   2.656 -0.7041 -0.3514 -0.1059
 1599SOL    HW2 6442   2.704   1.847   2.657 -1.8839 -0.4057  0.3672
 1599SOL    HW3 6443   2.619   1.964   2.703  0.5695  0.9330  1.5682
 1599SOL    MW4 6444   2.690   1.933   2.663 -0.6919 -0.1891  0.1776
 1600SOL     OW 6445   2.885   2.066   2.794  0.2978 -0.1098  0.5490
 1600SOL    HW2 6446   2.881   2.149   2.747 -1.0587  0.2860  1.3363
 1600SOL    HW3 6447   2.816   2.012   2.753  0.7938 -0.6559  0.4181
 1600SOL    MW4 6448   2.875   2.070   2.782  0.1843 -0.1297  0.6356
 1601SOL     OW 6449   2.917   2.300   2.660 -0.2727  0.1558  0.1284
 1601SOL    HW2 6450   2.999   2.342   2.684  0.3873 -0.1162 -1.6103
 1601SOL    HW3 6451   2.849   2.365   2.679  0.5413  1.1998 -0.5336
 1601SOL    MW4 6452   2.919   2.314   2.666 -0.0784  0.2577 -0.1881
 1602SOL     OW 6453   2.703   2.439   2.776 -0.1139  0.3756 -0.3546
 1602SOL    HW2 6454   2.687   2.443   2.870  0.6566  1.1989 -0.2535
 1602SOL    HW3 6455   2.710   2.530   2.749 -1.2613  0.1643 -1.3735
 1602SOL    MW4 6456   2.702   2.452   2.785 -0.1636  0.4563 -0.4759
 1603SOL     OW 6457   2.733   2.698   2.666 -0.1634  0.1888  0.3002
 1603SOL    HW2 6458   2.790   2.769   2.697  0.2640 -0.5382  1.2080
 1603SOL    HW3 6459   2.722   2.715   2.573 -0.8813  2.0234  0.6796
 1603SOL    MW4 6460   2.739   2.710   2.658 -0.2015  0.3350  0.4699
 1604SOL     OW 6461   2.902   2.896   2.751 -0.3022 -0.8533 -0.2072
 1604SOL    HW2 6462   2.905   2.892   2.846 -0.2748 -1.3361 -0.2304
 1604SOL    HW3 6463   2.918   2.989   2.731 -1.3974 -0.5528  0.2982
 1604SOL    MW4 6464   2.905   2.908   2.761 -0.4430 -0.8774 -0.1435
 1605SOL     OW 6465   2.971   3.138   2.640 -0.2020  0.5605 -0.2099
 1605SOL    HW2 6466   2.887   3.170   2.672  0.0592  1.2962 -0.2508
 1605SOL    HW3 6467   2.953   3.105   2.552 -0.3671  1.1303 -0.3944
 1605SOL    MW4 6468   2.958   3.138   2.632 -0.1893  0.7329 -0.2396
 1606SOL     OW 6469   2.742   3.215   2.761  0.4938 -0.0973 -0.8466
 1606SOL    HW2 6470   2.721   3.302   2.727 -0.3857  0.4360  1.0240
 1606SOL    HW3 6471   2.664   3.162   2.743  0.1772  0.0854 -0.0481
 1606SOL    MW4 6472   2.729   3.219   2.754  0.3359 -0.0029 -0.4945
 1607SOL     OW 6473   2.693   3.460   2.642  0.8184  0.2568  0.3683
 1607SOL    HW2 6474   2.611   3.498   2.673 -0.6383 -3.2052  0.9077
 1607SOL    HW3 6475   2.681   3.452   2.548 -0.4845 -2.4626  0.7214
 1607SOL    MW4 6476   2.681   3.464   2.634  0.4542 -0.5591  0.4859
 1608SOL     OW 6477   2.931   3.614   2.730 -0.3099 -0.2738 -0.5817
 1608SOL    HW2 6478   2.918   3.600   2.824  0.2445  1.3140 -0.2534
 1608SOL    HW3 6479   2.860   3.564   2.689 -0.7088 -0.7908  0.6827
 1608SOL    MW4 6480   2.920   3.606   2.737 -0.2897 -0.1323 -0.3717
 1609SOL     OW 6481   2.938   3.872   2.597 -0.0467 -0.2007 -0.1188
 1609SOL    HW2 6482   3.003   3.925   2.643 -0.5990  0.6009 -0.2491
 1609SOL    HW3 6483   2.940   3.787   2.642  0.4036  0.1322  0.4979
 1609SOL    MW4 6484   2.947   3.868   2.609 -0.0603 -0.0510 -0.0546
 1610SOL     OW 6485   2.695   3.995   2.716  0.0182  0.1373  0.0056
 1610SOL    HW2 6486   2.695   4.084   2.681  0.5154  0.0176 -0.3010
 1610SOL    HW3 6487   2.768   3.952   2.672 -0.2604 -0.4410  0.1097
 1610SOL    MW4 6488   2.704   4.001   2.706  0.0470  0.0453 -0.0212
 1611SOL     OW 6489   2.686   4.250   2.633 -0.3007  0.2590 -0.5460
 1611SOL    HW2 6490   2.750   4.319   2.648 -0.2643  0.0540  0.2341
 1611SOL    HW3 6491   2.611   4.274   2.687 -0.4603 -0.0821 -0.6116
 1611SOL    MW4 6492   2.684   4.262   2.642 -0.3169  0.1869 -0.4516
 1612SOL     OW 6493   2.949   4.386   2.721  0.1654 -0.2189  0.1468
 1612SOL    HW2 6494   2.946   4.394   2.816  0.6580 -1.2446  0.2518
 1612SOL    HW3 6495   2.944   4.476   2.690  0.6850  0.1728  1.1639
 1612SOL    MW4 6496   2.948   4.399   2.729  0.2992 -0.3028  0.2947
 1613SOL     OW 6497   3.314   4.651   2.610 -0.8502  0.1732 -0.2702
 1613SOL    HW2 6498   3.321   4.561   2.641 -0.1354 -0.0275 -0.9864
 1613SOL    HW3 6499   3.256   4.694   2.673  0.4027 -0.2731  1.2267
 1613SOL    MW4 6500   3.308   4.645   2.622 -0.5906  0.0877 -0.1671
 1614SOL     OW 6501   3.069   0.113   2.738  0.2290 -0.2956  0.1435
 1614SOL    HW2 6502   3.088   0.109   2.832 -2.3408 -1.1383  0.6844
 1614SOL    HW3 6503   3.077   0.205   2.716  1.7590 -0.2167  0.9928
 1614SOL    MW4 6504   3.072   0.124   2.748  0.0918 -0.3964  0.3269
 1615SOL     OW 6505   3.104   0.380   2.650 -0.1050 -0.3064  0.3444
 1615SOL    HW2 6506   3.014   0.411   2.664 -0.7116 -2.1331  0.6538
 1615SOL    HW3 6507   3.111   0.372   2.555 -0.1314  0.2304  0.2949
 1615SOL    MW4 6508   3.093   0.383   2.639 -0.1881 -0.4766  0.3786
 1616SOL     OW 6509   3.364   0.468   2.728  0.2110 -0.3954 -0.5255
 1616SOL    HW2 6510   3.377   0.550   2.680 -0.8934  0.2572  0.2661
 1616SOL    HW3 6511   3.279   0.436   2.699  0.0853 -0.6237  0.0809
 1616SOL    MW4 6512   3.354   0.474   2.718  0.0486 -0.3394 -0.3412
 1617SOL     OW 6513   3.341   0.726   2.621 -0.4830  0.3338  0.1686
 1617SOL    HW2 6514   3.409   0.782   2.660  1.0549 -1.3067 -0.1004
 1617SOL    HW3 6515   3.354   0.735   2.527  0.4304 -1.2346  0.1301
 1617SOL    MW4 6516   3.352   0.735   2.614 -0.1597 -0.0896  0.1278
 1618SOL     OW 6517   3.113   0.887   2.708 -0.2764  0.1274 -0.3283
 1618SOL    HW2 6518   3.129   0.886   2.802 -0.3032  0.1962 -0.3233
 1618SOL    HW3 6519   3.180   0.829   2.672 -1.7818 -1.8290 -0.0388
 1618SOL    MW4 6520   3.124   0.879   2.716 -0.4785 -0.1217 -0.2892
 1619SOL     OW 6521   3.129   1.147   2.665  0.0149  0.1518  0.8711
 1619SOL    HW2 6522   3.136   1.054   2.687 -0.1057  0.4697  2.2910
 1619SOL    HW3 6523   3.118   1.149   2.570 -1.0415 -1.3323  0.9601
 1619SOL    MW4 6524   3.128   1.135   2.655 -0.1407 -0.0020  1.0703
 1620SOL     OW 6525   3.347   1.298   2.726 -0.4002 -0.4713 -0.1442
 1620SOL    HW2 6526   3.354   1.300   2.821  1.1580 -1.8029 -0.2136
 1620SOL    HW3 6527   3.275   1.237   2.709 -1.1582  0.3160  0.1804
 1620SOL    MW4 6528   3.339   1.290   2.736 -0.2944 -0.5431 -0.1104
 1621SOL     OW 6529   3.351   1.558   2.635 -0.5144 -0.3773 -0.5605
 1621SOL    HW2 6530   3.282   1.616   2.666 -1.8623 -1.6134 -1.1746
 1621SOL    HW3 6531   3.335   1.475   2.680  1.5899 -0.2066  0.5820
 1621SOL    MW4 6532   3.340   1.554   2.645 -0.4148 -0.5177 -0.4909
 1622SOL     OW 6533   3.122   1.698   2.751 -0.6520  0.0997  0.0281
 1622SOL    HW2 6534   3.112   1.784   2.710 -0.9837  0.5036  0.9444
 1622SOL    HW3 6535   3.041   1.651   2.728 -1.0147  0.4649  0.5500
 1622SOL    MW4 6536   3.110   1.703   2.743 -0.7436  0.2012  0.2179
 1623SOL     OW 6537   3.117   1.959   2.669  0.3984  0.5754  0.3990
 1623SOL    HW2 6538   3.194   2.003   2.705 -0.3850  1.0681  1.5057
 1623SOL    HW3 6539   3.043   2.000   2.714 -0.5118  0.0833 -0.6247
 1623SOL    MW4 6540   3.117   1.970   2.680  0.1750  0.5755  0.4098
 1624SOL     OW 6541   3.378   2.076   2.720  0.2127  0.1643 -0.7871
 1624SOL    HW2 6542   3.395   2.088   2.813  1.2105 -1.0557 -0.7985
 1624SOL    HW3 6543   3.364   2.165   2.686  0.4009  0.6585  0.4117
 1624SOL    MW4 6544   3.378   2.089   2.728  0.3691  0.0684 -0.6304
 1625SOL     OW 6545   3.346   2.335   2.614 -0.0771 -0.2927  0.3018
 1625SOL    HW2 6546   3.426   2.375   2.648 -0.1247 -1.0041  1.2432
 1625SOL    HW3 6547   3.360   2.332   2.519  0.8643 -0.0922  0.4278
 1625SOL    MW4 6548   3.359   2.340   2.606  0.0408 -0.3598  0.4427
 1626SOL     OW 6549   3.129   2.450   2.719 -0.2612  0.4331 -0.1110
 1626SOL    HW2 6550   3.128   2.542   2.691 -0.6273  0.6089  0.4725
 1626SOL    HW3 6551   3.205   2.413   2.676 -0.3993  0.8863 -0.7620
 1626SOL    MW4 6552   3.139   2.457   2.709 -0.3278  0.5159 -0.1199
 1627SOL     OW 6553   3.117   2.733   2.661 -0.0862 -0.0583 -0.1890
 1627SOL    HW2 6554   3.196   2.779   2.691  0.4803 -1.2437  0.1768
 1627SOL    HW3 6555   3.045   2.792   2.683  0.4642 -0.1694  1.9890
 1627SOL    MW4 6556   3.118   2.747   2.668  0.0613 -0.2291  0.1466
 1628SOL     OW 6557   3.367   2.859   2.727 -0.2161  0.1546 -0.0830
 1628SOL    HW2 6558   3.394   2.870   2.818 -0.9674  0.3645  0.1157
 1628SOL    HW3 6559   3.426   2.792   2.692  1.3528  1.4828 -0.0052
 1628SOL    MW4 6560   3.378   2.851   2.734 -0.1082  0.3576 -0.0465
 1629SOL     OW 6561   3.400   3.110   2.615  0.4820  0.2171  0.1744
 1629SOL    HW2 6562   3.399   3.023   2.654 -0.1976  0.7463  1.3662
 1629SOL    HW3 6563   3.389   3.095   2.521  0.3451 -0.9663  0.3797
 1629SOL    MW4 6564   3.399   3.097   2.607  0.3741  0.1307  0.3586
 1630SOL     OW 6565   3.202   3.231   2.762 -0.3077  0.3118 -0.2502
 1630SOL    HW2 6566   3.278   3.192   2.718  0.0265  1.1549 -0.4340
 1630SOL    HW3 6567   3.127   3.197   2.713  0.0446  0.9609 -1.2694
 1630SOL    MW4 6568   3.202   3.221   2.750 -0.2174  0.5085 -0.4091
 1631SOL     OW 6569   3.138   3.462   2.622 -0.0535 -0.3357  0.0841
 1631SOL    HW2 6570   3.171   3.387   2.673 -1.3259 -0.5663  0.5935
 1631SOL    HW3 6571   3.075   3.504   2.680 -0.3474  0.3422 -0.7222
 1631SOL    MW4 6572   3.134   3.457   2.637 -0.2599 -0.2768  0.0451
 1632SOL     OW 6573   3.344   3.617   2.716 -0.1673  0.1029  0.1232
 1632SOL    HW2 6574   3.348   3.590   2.807  1.1183 -2.2899 -0.5917
 1632SOL    HW3 6575   3.266   3.573   2.681  0.4608 -0.6161 -0.4002
 1632SOL    MW4 6576   3.334   3.607   2.723  0.0851 -0.3076 -0.0401
 1633SOL     OW 6577   3.380   3.879   2.628 -0.1462  0.0044  0.9726
 1633SOL    HW2 6578   3.367   3.786   2.646  1.2671 -0.6976 -1.3754
 1633SOL    HW3 6579   3.377   3.885   2.532  1.9428  2.0420  0.9928
 1633SOL    MW4 6580   3.378   3.867   2.618  0.3159  0.1805  0.6657
 1634SOL     OW 6581   3.143   3.995   2.731  0.0608  0.5840  0.0991
 1634SOL    HW2 6582   3.147   4.088   2.710 -1.1300  0.8331  0.9206
 1634SOL    HW3 6583   3.219   3.957   2.687  0.1510  1.8216 -0.8482
 1634SOL    MW4 6584   3.154   4.002   2.722 -0.0844  0.7796  0.0825
 1635SOL     OW 6585   3.163   4.252   2.637  0.3303 -0.1087 -0.2032
 1635SOL    HW2 6586   3.082   4.296   2.662  1.3152  1.6078  0.0754
 1635SOL    HW3 6587   3.151   4.231   2.544 -0.7466 -0.6163  0.0421
 1635SOL    MW4 6588   3.151   4.255   2.628  0.3181  0.0510 -0.1342
 1636SOL     OW 6589   3.381   4.370   2.737 -0.1546  0.3470  0.0913
 1636SOL    HW2 6590   3.363   4.361   2.831  1.6303 -2.8997  0.1686
 1636SOL    HW3 6591   3.308   4.326   2.694  0.3105 -0.3336  0.0082
 1636SOL    MW4 6592   3.369   4.363   2.744  0.1423 -0.1717  0.0906
 1637SOL     OW 6593   3.802   4.606   2.609  0.1921 -0.0424  0.5929
 1637SOL    HW2 6594   3.815   4.525   2.659  1.0852  0.3503  1.0125
 1637SOL    HW3 6595   3.728   4.648   2.651 -1.1351 -1.2771 -0.4618
 1637SOL    MW4 6596   3.794   4.601   2.621  0.1347 -0.1535  0.5090
 1638SOL     OW 6597   3.588   0.074   2.712  0.8917  0.1772  0.0072
 1638SOL    HW2 6598   3.592   0.168   2.693  0.2563  0.3004  0.4641
 1638SOL    HW3 6599   3.504   0.045   2.676 -0.2174  0.3694  2.3233
 1638SOL    MW4 6600   3.577   0.083   2.705  0.6614  0.2188  0.3731
 1639SOL     OW 6601   3.594   0.349   2.633 -0.3131  0.3349 -0.1519
 1639SOL    HW2 6602   3.664   0.406   2.668  0.3191 -1.2655  1.2424
 1639SOL    HW3 6603   3.513   0.396   2.654  0.2570  1.3828 -0.2322
 1639SOL    MW4 6604   3.593   0.363   2.640 -0.1543  0.2620  0.0212
 1640SOL     OW 6605   3.818   0.490   2.740 -0.7802 -0.0545  0.0075
 1640SOL    HW2 6606   3.827   0.497   2.835  0.1893 -0.3696 -0.0565
 1640SOL    HW3 6607   3.892   0.436   2.713 -0.2820  1.1503 -1.0817
 1640SOL    MW4 6608   3.829   0.484   2.749 -0.5865  0.0629 -0.1445
 1641SOL     OW 6609   3.817   0.750   2.614  0.4967  0.1276  0.0763
 1641SOL    HW2 6610   3.731   0.780   2.643  0.5102  0.6550 -0.4033
 1641SOL    HW3 6611   3.824   0.660   2.645 -0.5337 -0.1578 -0.5131
 1641SOL    MW4 6612   3.807   0.742   2.622  0.3626  0.1596 -0.0646
 1642SOL     OW 6613   3.562   0.884   2.711  0.1286  0.3327  0.4290
 1642SOL    HW2 6614   3.561   0.888   2.807 -0.9823 -1.2795  0.5017
 1642SOL    HW3 6615   3.561   0.975   2.683  3.1658  0.9005  1.9513
 1642SOL    MW4 6616   3.562   0.896   2.720  0.3827  0.1950  0.6397
 1643SOL     OW 6617   3.590   1.154   2.613 -0.4178 -0.1022 -0.0354
 1643SOL    HW2 6618   3.671   1.179   2.657 -0.6056  2.0672 -0.8352
 1643SOL    HW3 6619   3.521   1.196   2.665 -0.9255 -0.8801 -0.0829
 1643SOL    MW4 6620   3.592   1.163   2.626 -0.5095  0.0814 -0.1473
 1644SOL     OW 6621   3.803   1.288   2.745 -0.3880 -0.4466  0.1080
 1644SOL    HW2 6622   3.890   1.255   2.725 -0.1488  0.4332 -0.3003
 1644SOL    HW3 6623   3.798   1.373   2.702 -0.5704  0.6014  2.1547
 1644SOL    MW4 6624   3.814   1.295   2.737 -0.3805 -0.1922  0.3245
 1645SOL     OW 6625   3.790   1.556   2.646 -0.5179  0.3371  0.1236
 1645SOL    HW2 6626   3.864   1.577   2.702  0.8021  0.3114 -1.5512
 1645SOL    HW3 6627   3.721   1.617   2.672  0.0837  0.3529  1.7076
 1645SOL    MW4 6628   3.790   1.566   2.657 -0.2639  0.3358  0.1118
 1646SOL     OW 6629   3.557   1.688   2.755  0.3102 -0.1293 -0.3067
 1646SOL    HW2 6630   3.564   1.771   2.710  0.8839  0.6600  1.1947
 1646SOL    HW3 6631   3.488   1.641   2.708  0.5995  0.8228 -1.7090
 1646SOL    MW4 6632   3.549   1.693   2.743  0.4237  0.1005 -0.2935
 1647SOL     OW 6633   3.592   1.914   2.616 -0.0579 -0.3133  0.2806
 1647SOL    HW2 6634   3.516   1.964   2.647 -0.3529 -0.0014 -0.9141
 1647SOL    HW3 6635   3.589   1.923   2.521  1.3842 -0.4430  0.2138
 1647SOL    MW4 6636   3.582   1.922   2.607  0.0935 -0.2892  0.1144
 1648SOL     OW 6637   3.808   2.023   2.748  0.2627  0.2068  0.3250
 1648SOL    HW2 6638   3.878   1.964   2.719 -0.1576 -0.6356  0.9869
 1648SOL    HW3 6639   3.729   1.988   2.706  0.1202  0.7056  0.1795
 1648SOL    MW4 6640   3.807   2.010   2.738  0.1884  0.1614  0.3932
 1649SOL     OW 6641   3.818   2.316   2.647  0.6323  0.4961  0.1462
 1649SOL    HW2 6642   3.837   2.225   2.669 -0.9471  0.1454  0.0849
 1649SOL    HW3 6643   3.812   2.316   2.552  3.0268  1.1501 -0.0332
 1649SOL    MW4 6644   3.820   2.304   2.638  0.7398  0.5362  0.1144
 1650SOL     OW 6645   3.577   2.437   2.755 -0.4149  0.1895  0.3381
 1650SOL    HW2 6646   3.589   2.453   2.848 -1.8014 -2.3447  1.0004
 1650SOL    HW3 6647   3.642   2.371   2.733 -1.1067 -0.3584 -0.1172
 1650SOL    MW4 6648   3.587   2.431   2.764 -0.6890 -0.2172  0.3655
 1651SOL     OW 6649   3.573   2.686   2.620  0.9485 -0.0227 -0.0080
 1651SOL    HW2 6650   3.584   2.598   2.657 -0.3839  0.3589  1.3540
 1651SOL    HW3 6651   3.567   2.672   2.526 -1.6007 -1.6441  0.3529
 1651SOL    MW4 6652   3.574   2.673   2.613  0.4365 -0.1862  0.2191
 1652SOL     OW 6653   3.790   2.841   2.726 -0.1648  0.0838 -0.3263
 1652SOL    HW2 6654   3.854   2.797   2.672  0.3822  0.9768 -0.4155
 1652SOL    HW3 6655   3.707   2.798   2.705  0.0479  0.3741 -1.8281
 1652SOL    MW4 6656   3.787   2.830   2.716 -0.0644  0.2401 -0.5360
 1653SOL     OW 6657   3.849   3.106   2.641 -0.3707  0.4840  0.2508
 1653SOL    HW2 6658   3.783   3.167   2.674 -1.1583 -0.7326  0.9980
 1653SOL    HW3 6659   3.823   3.022   2.679  1.9173  0.0853  1.0003
 1653SOL    MW4 6660   3.836   3.103   2.651 -0.1726  0.2708  0.4482
 1654SOL     OW 6661   3.612   3.263   2.703 -0.6224 -0.4643  0.4967
 1654SOL    HW2 6662   3.603   3.355   2.680  1.0607 -0.1652  0.9636
 1654SOL    HW3 6663   3.537   3.220   2.661 -0.7786  0.9298 -0.6813
 1654SOL    MW4 6664   3.601   3.270   2.695 -0.4210 -0.2406  0.4032
 1655SOL     OW 6665   3.573   3.500   2.597 -0.1233  0.4335 -0.4113
 1655SOL    HW2 6666   3.647   3.548   2.633  0.1551  0.3245 -0.8386
 1655SOL    HW3 6667   3.496   3.545   2.632  0.1330  1.1324 -0.7486
 1655SOL    MW4 6668   3.572   3.512   2.607 -0.0527  0.5112 -0.5124
 1656SOL     OW 6669   3.782   3.608   2.715 -0.0785 -0.4702 -0.0790
 1656SOL    HW2 6670   3.863   3.564   2.689  0.2569 -0.1478  0.4000
 1656SOL    HW3 6671   3.788   3.694   2.673 -0.2108 -0.4777 -0.1121
 1656SOL    MW4 6672   3.794   3.614   2.706 -0.0517 -0.4284 -0.0203
 1657SOL     OW 6673   3.804   3.876   2.611 -0.1864 -0.6163  0.6919
 1657SOL    HW2 6674   3.885   3.903   2.653 -0.0045  1.4652 -0.8654
 1657SOL    HW3 6675   3.735   3.920   2.661 -0.1129  0.2021  0.0867
 1657SOL    MW4 6676   3.805   3.886   2.623 -0.1528 -0.2337  0.4063
 1658SOL     OW 6677   3.584   3.989   2.758 -0.4187  0.4016 -0.2876
 1658SOL    HW2 6678   3.588   4.075   2.716  1.2515  0.3656 -0.2439
 1658SOL    HW3 6679   3.512   3.944   2.714 -0.8936  1.5949 -0.7425
 1658SOL    MW4 6680   3.575   3.995   2.747 -0.2611  0.5546 -0.3419
 1659SOL     OW 6681   3.614   4.229   2.636 -0.1280 -0.1008  0.1910
 1659SOL    HW2 6682   3.534   4.272   2.667  0.2542 -0.3282  1.5188
 1659SOL    HW3 6683   3.607   4.232   2.541 -0.9688  1.2814  0.2809
 1659SOL    MW4 6684   3.602   4.235   2.628 -0.1886  0.0515  0.3781
 1660SOL     OW 6685   3.848   4.360   2.729 -0.2881  0.3605 -0.5877
 1660SOL    HW2 6686   3.915   4.299   2.698 -0.1247  0.0249  0.4158
 1660SOL    HW3 6687   3.765   4.319   2.704 -0.1637  0.0170 -0.4343
 1660SOL    MW4 6688   3.845   4.346   2.721 -0.2503  0.2708 -0.4351
 1661SOL     OW 6689   4.246   4.627   2.629  0.1974  0.3879  0.3809
 1661SOL    HW2 6690   4.162   4.668   2.652  0.3053  0.4335  0.6912
 1661SOL    HW3 6691   4.312   4.691   2.656  0.2362  1.6814 -2.5725
 1661SOL    MW4 6692   4.244   4.641   2.636  0.2174  0.5641  0.0324
 1662SOL     OW 6693   3.999   0.084   2.705  0.1726 -0.3857 -0.2542
 1662SOL    HW2 6694   3.991   0.080   2.800 -1.4569 -0.1835 -0.3581
 1662SOL    HW3 6695   3.927   0.030   2.673 -1.1326  1.9097 -1.3749
 1662SOL    MW4 6696   3.988   0.077   2.713 -0.2151 -0.0562 -0.4156
 1663SOL     OW 6697   4.022   0.340   2.628 -0.1271 -0.2486  0.4478
 1663SOL    HW2 6698   4.003   0.249   2.648 -2.4246  0.0648 -0.2604
 1663SOL    HW3 6699   4.040   0.341   2.534  0.6548 -0.0650  0.5893
 1663SOL    MW4 6700   4.022   0.328   2.618 -0.3276 -0.1831  0.3729
 1664SOL     OW 6701   4.231   0.487   2.732  0.4733 -0.2377 -0.3761
 1664SOL    HW2 6702   4.153   0.448   2.692  0.8990 -1.4166 -0.0793
 1664SOL    HW3 6703   4.303   0.433   2.699  0.9677 -0.3534  0.8937
 1664SOL    MW4 6704   4.230   0.474   2.722  0.5946 -0.4085 -0.1693
 1665SOL     OW 6705   4.256   0.740   2.657  0.2522 -0.2420 -0.0636
 1665SOL    HW2 6706   4.251   0.651   2.690 -1.5372 -0.8702 -1.9250
 1665SOL    HW3 6707   4.262   0.730   2.562  2.8831  1.5541 -0.1435
 1665SOL    MW4 6708   4.256   0.727   2.649  0.3633 -0.0879 -0.3197
 1666SOL     OW 6709   4.038   0.890   2.733  0.1086 -0.2096  0.4343
 1666SOL    HW2 6710   4.113   0.833   2.721  0.6584  0.5991 -0.0759
 1666SOL    HW3 6711   3.964   0.843   2.693  0.5170 -0.6265  0.1753
 1666SOL    MW4 6712   4.038   0.877   2.726  0.2346 -0.1580  0.3328
 1667SOL     OW 6713   4.039   1.163   2.643 -0.2041  0.1635  0.2309
 1667SOL    HW2 6714   4.121   1.204   2.671  0.1161  0.0226 -0.4720
 1667SOL    HW3 6715   4.041   1.076   2.682  0.3878 -0.1453 -0.4705
 1667SOL    MW4 6716   4.050   1.157   2.652 -0.0844  0.1042  0.0455
 1668SOL     OW 6717   4.241   1.283   2.770 -0.0505  0.1189 -0.5616
 1668SOL    HW2 6718   4.241   1.376   2.747  0.3990  0.0555 -0.8126
 1668SOL    HW3 6719   4.325   1.251   2.740  0.0315 -0.2454  0.0533
 1668SOL    MW4 6720   4.252   1.291   2.763  0.0200  0.0625 -0.5136
 1669SOL     OW 6721   4.270   1.536   2.670  0.3314  0.0192 -0.0778
 1669SOL    HW2 6722   4.350   1.586   2.689  0.0800  0.0491  0.9307
 1669SOL    HW3 6723   4.258   1.546   2.576  1.5727 -0.0650 -0.2562
 1669SOL    MW4 6724   4.279   1.544   2.660  0.4625  0.0120  0.0317
 1670SOL     OW 6725   4.016   1.623   2.773 -0.2444  0.3896  0.6189
 1670SOL    HW2 6726   4.033   1.649   2.863  0.2588 -2.0621  1.2648
 1670SOL    HW3 6727   4.101   1.593   2.740 -0.7720 -0.3069 -0.1240
 1670SOL    MW4 6728   4.029   1.623   2.780 -0.2475 -0.0257  0.6061
 1671SOL     OW 6729   4.040   1.866   2.636  0.0457  0.6563  0.0961
 1671SOL    HW2 6730   4.101   1.924   2.681 -0.3917  0.1200  1.3956
 1671SOL    HW3 6731   4.022   1.796   2.699 -2.6384  1.2984  0.1065
 1671SOL    MW4 6732   4.046   1.865   2.650 -0.3657  0.6703  0.2687
 1672SOL     OW 6733   4.233   2.024   2.776 -0.1825  0.2736 -0.3588
 1672SOL    HW2 6734   4.241   2.116   2.751  0.8438  0.2648 -0.0991
 1672SOL    HW3 6735   4.314   1.984   2.744 -0.6200 -0.5367 -0.4590
 1672SOL    MW4 6736   4.245   2.031   2.768 -0.1049  0.1655 -0.3378
 1673SOL     OW 6737   4.263   2.288   2.689  0.2191 -0.4146 -0.2080
 1673SOL    HW2 6738   4.189   2.348   2.698  0.2532 -0.7287  2.4996
 1673SOL    HW3 6739   4.265   2.266   2.596 -2.6893  0.1332 -0.4381
 1673SOL    MW4 6740   4.253   2.293   2.678 -0.1602 -0.3836  0.1190
 1674SOL     OW 6741   4.042   2.449   2.732  0.1939  0.3103  0.0180
 1674SOL    HW2 6742   4.040   2.451   2.827  0.9461 -1.9041  0.1013
 1674SOL    HW3 6743   3.959   2.407   2.707  0.9279 -1.0311 -0.2076
 1674SOL    MW4 6744   4.031   2.444   2.741  0.3901 -0.1593 -0.0007
 1675SOL     OW 6745   4.008   2.695   2.626  0.1955 -0.4631 -0.4162
 1675SOL    HW2 6746   4.082   2.733   2.673 -0.5582 -0.2955  0.6511
 1675SOL    HW3 6747   4.006   2.603   2.654  0.6967 -0.7743 -1.3458
 1675SOL    MW4 6748   4.017   2.688   2.636  0.1626 -0.4821 -0.3979
 1676SOL     OW 6749   4.236   2.800   2.745 -0.0666  0.6653  0.2751
 1676SOL    HW2 6750   4.263   2.818   2.835  0.3801  0.6229  0.1490
 1676SOL    HW3 6751   4.249   2.883   2.699  0.9764  0.3280 -0.0581
 1676SOL    MW4 6752   4.241   2.813   2.751  0.1302  0.6154  0.2146
 1677SOL     OW 6753   4.280   3.046   2.635 -0.1670 -0.1623 -0.0156
 1677SOL    HW2 6754   4.205   3.099   2.664  0.1815  0.7156 -0.6978
 1677SOL    HW3 6755   4.274   3.047   2.539 -0.6812 -2.1299 -0.0230
 1677SOL    MW4 6756   4.269   3.053   2.626 -0.1893 -0.3059 -0.1066
 1678SOL     OW 6757   4.073   3.235   2.699 -0.0327  0.2480  0.5185
 1678SOL    HW2 6758   4.061   3.321   2.658  1.3304  0.3430  0.2758
 1678SOL    HW3 6759   3.994   3.186   2.676 -0.0226  0.8462 -0.8518
 1678SOL    MW4 6760   4.061   3.240   2.690  0.1483  0.3395  0.3054
 1679SOL     OW 6761   4.029   3.513   2.618  0.0526  0.7627  0.1303
 1679SOL    HW2 6762   4.102   3.573   2.637  1.1820 -0.2839 -0.8066
 1679SOL    HW3 6763   4.047   3.481   2.530 -1.4602  0.3438 -0.0317
 1679SOL    MW4 6764   4.041   3.517   2.609  0.0024  0.5691 -0.0145
 1680SOL     OW 6765   4.247   3.636   2.726 -0.2328  0.3755  0.2624
 1680SOL    HW2 6766   4.269   3.642   2.819  1.1908 -1.1896  0.0395
 1680SOL    HW3 6767   4.312   3.576   2.690 -2.5800 -1.3627 -1.1760
 1680SOL    MW4 6768   4.258   3.629   2.734 -0.3552 -0.0603  0.0434
 1681SOL     OW 6769   4.276   3.882   2.603  0.3284  0.4506  0.1909
 1681SOL    HW2 6770   4.282   3.790   2.627 -2.0641  0.8059  2.3957
 1681SOL    HW3 6771   4.348   3.924   2.650  0.2724 -0.0019  0.6806
 1681SOL    MW4 6772   4.286   3.876   2.612  0.0052  0.4377  0.5465
 1682SOL     OW 6773   4.042   3.942   2.744 -0.1028  0.0954  0.0856
 1682SOL    HW2 6774   4.051   3.958   2.838  0.6156 -0.6620  0.1473
 1682SOL    HW3 6775   4.129   3.915   2.716 -0.1506  0.9686 -0.9296
 1682SOL    MW4 6776   4.055   3.941   2.753 -0.0138  0.1109 -0.0403
 1683SOL     OW 6777   4.056   4.207   2.633  0.2654  0.0291  0.1334
 1683SOL    HW2 6778   4.069   4.113   2.649  0.9071 -0.1235 -1.1875
 1683SOL    HW3 6779   4.028   4.212   2.542 -2.4405  0.9255  0.9780
 1683SOL    MW4 6780   4.054   4.195   2.623 -0.0076  0.1273  0.0706
 1684SOL     OW 6781   4.252   4.365   2.744  0.5287 -0.2044  0.2796
 1684SOL    HW2 6782   4.195   4.301   2.702  1.0813  0.4174 -1.4944
 1684SOL    HW3 6783   4.224   4.449   2.708  3.2530  0.0142 -1.5428
 1684SOL    MW4 6784   4.241   4.368   2.733  0.9613 -0.0935 -0.1948
 1685SOL     OW 6785   0.224   4.660   3.094  0.4827 -0.0062 -0.3770
 1685SOL    HW2 6786   0.230   4.667   3.189 -0.2239 -2.1363 -0.1629
 1685SOL    HW3 6787   0.138   4.697   3.073 -0.5591 -2.0608  0.1198
 1685SOL    MW4 6788   0.213   4.666   3.104  0.2520 -0.5589 -0.2830
 1686SOL     OW 6789   4.456   0.083   3.007  0.3500  0.2348  0.2988
 1686SOL    HW2 6790   4.373   0.046   3.036  0.1310  0.6032  0.1415
 1686SOL    HW3 6791   4.455   0.173   3.041  0.1733  0.6131 -0.6995
 1686SOL    MW4 6792   4.445   0.090   3.015  0.2975  0.3333  0.1462
 1687SOL     OW 6793   4.458   0.338   3.119 -0.3800 -0.3721 -0.4827
 1687SOL    HW2 6794   4.478   0.363   3.209  0.2543 -0.2848 -0.6446
 1687SOL    HW3 6795   4.376   0.382   3.099  0.5231  1.2963 -0.6465
 1687SOL    MW4 6796   4.450   0.347   3.128 -0.1769 -0.1405 -0.5255
 1688SOL     OW 6797   0.174   0.488   3.015  0.1424 -0.5678 -0.0611
 1688SOL    HW2 6798   0.257   0.452   3.046 -0.4154 -0.8443  1.1372
 1688SOL    HW3 6799   0.107   0.439   3.063 -0.6498  1.2796  0.7431
 1688SOL    MW4 6800   0.176   0.477   3.025 -0.0357 -0.3605  0.2031
 1689SOL     OW 6801   0.205   0.778   3.114 -0.0448 -0.2600 -0.0372
 1689SOL    HW2 6802   0.206   0.767   3.209 -0.6857  0.0851  0.0152
 1689SOL    HW3 6803   0.185   0.691   3.080 -1.9532  0.0509  0.2372
 1689SOL    MW4 6804   0.203   0.765   3.122 -0.3812 -0.1734  0.0062
 1690SOL     OW 6805   4.476   0.921   3.017 -0.2254 -0.2564  0.0850
 1690SOL    HW2 6806   4.557   0.870   3.024  0.6784  0.8987 -1.5567
 1690SOL    HW3 6807   4.466   0.939   2.924 -0.9599  1.8344  0.5210
 1690SOL    MW4 6808   4.486   0.917   3.006 -0.2030  0.1719 -0.0741
 1691SOL     OW 6809   4.478   1.170   3.167  0.0460 -0.7506  0.2147
 1691SOL    HW2 6810   4.394   1.205   3.139  0.1707 -1.0696 -0.5737
 1691SOL    HW3 6811   4.480   1.080   3.132  0.6543 -0.7908  0.3355
 1691SOL    MW4 6812   4.467   1.163   3.159  0.1431 -0.7980  0.1266
 1692SOL     OW 6813   0.217   1.280   3.039 -0.5169  0.2481  0.2345
 1692SOL    HW2 6814   0.140   1.232   3.068 -1.1683  0.9536 -0.3175
 1692SOL    HW3 6815   0.221   1.267   2.945 -0.0748  0.3767  0.2306
 1692SOL    MW4 6816   0.207   1.272   3.030 -0.5445  0.3582  0.1612
 1693SOL     OW 6817   0.240   1.553   3.134  0.0940  0.0591 -0.2697
 1693SOL    HW2 6818   0.154   1.592   3.116 -0.6098 -0.2719  2.2054
 1693SOL    HW3 6819   0.234   1.465   3.096 -0.2230  0.4406 -1.1291
 1693SOL    MW4 6820   0.228   1.546   3.126 -0.0407  0.0659 -0.0565
 1694SOL     OW 6821   0.013   1.683   3.040  0.2776 -0.1421  0.4680
 1694SOL    HW2 6822  -0.065   1.636   3.068  0.6773 -0.3768  1.1851
 1694SOL    HW3 6823   0.003   1.772   3.075  0.6513 -0.3606  1.1262
 1694SOL    MW4 6824   0.001   1.689   3.048  0.3797 -0.2018  0.6495
 1695SOL     OW 6825   4.479   1.931   3.153 -0.0240  0.0716  0.3498
 1695SOL    HW2 6826   4.405   1.986   3.128 -0.4597 -0.8338 -0.3900
 1695SOL    HW3 6827   4.555   1.975   3.117 -0.5728 -0.8804 -2.0854
 1695SOL    MW4 6828   4.479   1.944   3.145 -0.1538 -0.1734 -0.0689
 1696SOL     OW 6829   0.240   2.062   3.050 -0.3565  0.5726  0.1094
 1696SOL    HW2 6830   0.225   2.155   3.069 -1.4170  0.3331  0.4955
 1696SOL    HW3 6831   0.243   2.057   2.955  0.4393  1.1067  0.0959
 1696SOL    MW4 6832   0.238   2.074   3.040 -0.3914  0.6113  0.1588
 1697SOL     OW 6833   0.216   2.342   3.139 -0.0621  0.3500 -0.3727
 1697SOL    HW2 6834   0.227   2.333   3.234  1.4778 -0.0553 -0.5684
 1697SOL    HW3 6835   0.295   2.389   3.111 -0.2399 -0.0228 -1.5281
 1697SOL    MW4 6836   0.228   2.347   3.148  0.1176  0.2472 -0.5507
 1698SOL     OW 6837   0.009   2.467   3.007 -0.2193 -0.2103  0.2245
 1698SOL    HW2 6838   0.014   2.558   3.038  2.6678 -0.2123 -0.0474
 1698SOL    HW3 6839   0.083   2.423   3.050 -0.3054 -1.9131 -1.2878
 1698SOL    MW4 6840   0.019   2.473   3.017  0.1503 -0.4351 -0.0112
 1699SOL     OW 6841   0.015   2.721   3.104  0.1696 -0.1816  0.2826
 1699SOL    HW2 6842   0.009   2.735   3.198  0.0514  0.8406  0.1337
 1699SOL    HW3 6843   0.101   2.756   3.081 -0.8194  1.9114 -0.3686
 1699SOL    MW4 6844   0.026   2.727   3.113  0.0235  0.2294  0.1771
 1700SOL     OW 6845   0.235   2.883   3.054 -0.1527 -0.4502 -0.0814
 1700SOL    HW2 6846   0.316   2.835   3.074  0.6164  0.8309 -0.0518
 1700SOL    HW3 6847   0.230   2.882   2.959 -0.9087 -1.8221 -0.0398
 1700SOL    MW4 6848   0.245   2.876   3.044 -0.1509 -0.4621 -0.0720
 1701SOL     OW 6849   0.214   3.145   3.148  0.1467 -0.0417 -0.3527
 1701SOL    HW2 6850   0.136   3.185   3.108  0.1260  0.4740  0.2092
 1701SOL    HW3 6851   0.218   3.058   3.108 -0.3919  0.1388 -0.8138
 1701SOL    MW4 6852   0.204   3.138   3.138  0.0730  0.0501 -0.3395
 1702SOL     OW 6853   4.488   3.242   3.030  0.6657  0.5257 -0.0588
 1702SOL    HW2 6854   4.411   3.202   3.071  2.0917 -0.7225  1.4479
 1702SOL    HW3 6855   4.484   3.213   2.939 -0.5559  0.3369  0.0386
 1702SOL    MW4 6856   4.477   3.233   3.023  0.6924  0.3362  0.1531
 1703SOL     OW 6857   4.477   3.489   3.153  0.7673  0.1413 -0.3735
 1703SOL    HW2 6858   4.413   3.541   3.105  0.3659  1.2882  1.3509
 1703SOL    HW3 6859   4.483   3.407   3.104 -1.3478  0.3765 -1.0622
 1703SOL    MW4 6860   4.469   3.485   3.140  0.4349  0.3238 -0.2370
 1704SOL     OW 6861   0.208   3.590   2.996  0.2654 -0.0759  0.1686
 1704SOL    HW2 6862   0.205   3.678   3.033  0.2249 -0.4424  1.0457
 1704SOL    HW3 6863   0.152   3.538   3.053 -0.9837 -0.3331 -1.2707
 1704SOL    MW4 6864   0.201   3.595   3.009  0.0952 -0.1583  0.0942
 1705SOL     OW 6865   0.197   3.844   3.105 -0.2689 -0.6667 -0.0476
 1705SOL    HW2 6866   0.195   3.823   3.199 -0.5856  0.3708  0.1837
 1705SOL    HW3 6867   0.281   3.888   3.092  0.1782 -1.6340 -0.4329
 1705SOL    MW4 6868   0.208   3.847   3.116 -0.2517 -0.6573 -0.0679
 1706SOL     OW 6869   4.485   4.011   3.028  0.0458  0.3605  0.0163
 1706SOL    HW2 6870   4.555   3.950   3.050  0.0980  0.3248 -0.2431
 1706SOL    HW3 6871   4.485   4.014   2.932  0.8783  1.7283  0.0533
 1706SOL    MW4 6872   4.494   4.004   3.018  0.1626  0.5360 -0.0131
 1707SOL     OW 6873   0.002   4.285   3.129 -0.2986  0.0835 -0.0393
 1707SOL    HW2 6874  -0.006   4.281   3.224 -2.1626  0.6860 -0.1479
 1707SOL    HW3 6875  -0.009   4.194   3.100 -0.2866 -0.0167  0.2726
 1707SOL    MW4 6876  -0.000   4.272   3.138 -0.5431  0.1497 -0.0124
 1708SOL     OW 6877   0.217   4.404   3.015  0.3459  0.2984 -0.0662
 1708SOL    HW2 6878   0.132   4.374   3.048 -0.0126  1.8062  0.4404
 1708SOL    HW3 6879   0.223   4.495   3.044  1.7761  0.4605 -0.8146
 1708SOL    MW4 6880   0.206   4.412   3.024  0.4873  0.5188 -0.0980
 1709SOL     OW 6881   0.663   0.012   3.088  0.0010  0.0745 -0.1058
 1709SOL    HW2 6882   0.665  -0.081   3.065  0.2485 -0.1975  0.9799
 1709SOL    HW3 6883   0.588   0.047   3.040  0.3839 -0.5070 -1.1607
 1709SOL    MW4 6884   0.653   0.004   3.078  0.0842 -0.0381 -0.1016
 1710SOL     OW 6885   0.433   0.125   2.986 -0.1124 -0.5357 -0.3554
 1710SOL    HW2 6886   0.437   0.213   3.023  0.6830 -1.6793  2.4169
 1710SOL    HW3 6887   0.352   0.088   3.021  0.0397 -1.2437 -0.7367
 1710SOL    MW4 6888   0.423   0.132   2.995  0.0126 -0.7800 -0.0398
 1711SOL     OW 6889   0.408   0.378   3.118  0.1310  0.6464 -0.1263
 1711SOL    HW2 6890   0.415   0.383   3.214  2.2057  1.9912 -0.3026
 1711SOL    HW3 6891   0.481   0.432   3.087 -2.1267  2.4187 -2.4778
 1711SOL    MW4 6892   0.419   0.386   3.127  0.1069  1.0577 -0.4599
 1712SOL     OW 6893   0.622   0.527   3.034  0.4097  0.0587  0.2021
 1712SOL    HW2 6894   0.696   0.480   3.073  1.4912  0.7273 -0.9918
 1712SOL    HW3 6895   0.633   0.617   3.065 -0.7029 -0.1219  1.1397
 1712SOL    MW4 6896   0.633   0.533   3.043  0.4056  0.1231  0.1681
 1713SOL     OW 6897   0.673   0.773   3.129  0.1118 -0.4281 -0.0128
 1713SOL    HW2 6898   0.656   0.786   3.223 -0.0427  1.2566 -0.2583
 1713SOL    HW3 6899   0.605   0.823   3.085 -0.1962 -1.7168 -1.0542
 1713SOL    MW4 6900   0.662   0.781   3.136  0.0508 -0.3758 -0.1824
 1714SOL     OW 6901   0.455   0.922   3.017 -0.3466  0.0148 -0.0949
 1714SOL    HW2 6902   0.373   0.887   3.053 -0.8582 -0.8493 -2.0736
 1714SOL    HW3 6903   0.443   0.923   2.923  2.2632 -0.9665 -0.4930
 1714SOL    MW4 6904   0.443   0.918   3.010 -0.0698 -0.2286 -0.4084
 1715SOL     OW 6905   0.470   1.186   3.124  0.6565 -0.6280 -0.2475
 1715SOL    HW2 6906   0.469   1.093   3.099 -1.1560 -0.6959  0.0447
 1715SOL    HW3 6907   0.390   1.222   3.086  0.5893  0.4769  0.9214
 1715SOL    MW4 6908   0.460   1.178   3.116  0.4084 -0.4913 -0.0548
 1716SOL     OW 6909   0.671   1.317   3.005  0.0531  0.4668  0.3370
 1716SOL    HW2 6910   0.745   1.269   3.043 -0.4407 -0.6394 -0.0737
 1716SOL    HW3 6911   0.594   1.280   3.049 -0.4937 -0.5974 -1.4839
 1716SOL    MW4 6912   0.671   1.306   3.016 -0.0842  0.1806  0.0424
 1717SOL     OW 6913   0.691   1.584   3.103  0.3000 -0.5468 -0.5848
 1717SOL    HW2 6914   0.692   1.573   3.198 -0.2484 -1.1869 -0.6413
 1717SOL    HW3 6915   0.699   1.494   3.069 -0.5023 -0.4226 -1.1258
 1717SOL    MW4 6916   0.692   1.570   3.111  0.1219 -0.6149 -0.6635
 1718SOL     OW 6917   0.452   1.701   3.005 -0.1691  0.2527  0.2660
 1718SOL    HW2 6918   0.532   1.655   3.032 -0.5125  0.2056  1.2308
 1718SOL    HW3 6919   0.383   1.661   3.058 -1.1321 -0.9581 -1.8575
 1718SOL    MW4 6920   0.453   1.690   3.016 -0.3414  0.0867  0.1130
 1719SOL     OW 6921   0.480   1.969   3.134  0.0410  0.4201  0.1099
 1719SOL    HW2 6922   0.468   1.888   3.083 -0.4702 -0.0370  0.9504
 1719SOL    HW3 6923   0.396   2.014   3.127 -0.6210 -0.4762  1.9862
 1719SOL    MW4 6924   0.467   1.964   3.126 -0.1138  0.2414  0.4683
 1720SOL     OW 6925   0.691   2.102   3.012 -0.3039 -0.1721  0.6344
 1720SOL    HW2 6926   0.770   2.059   3.043  0.7224 -0.0105 -1.6772
 1720SOL    HW3 6927   0.619   2.054   3.054  0.9539 -1.3584  1.4515
 1720SOL    MW4 6928   0.692   2.090   3.022 -0.0026 -0.3073  0.4373
 1721SOL     OW 6929   0.674   2.339   3.119 -0.1875  0.2346  0.2903
 1721SOL    HW2 6930   0.694   2.331   3.212  1.4495  0.2934 -0.0398
 1721SOL    HW3 6931   0.684   2.250   3.085  0.9214  0.5080 -0.1338
 1721SOL    MW4 6932   0.678   2.326   3.127  0.1748  0.2782  0.1910
 1722SOL     OW 6933   0.427   2.458   3.019 -0.4857  0.1395  0.3152
 1722SOL    HW2 6934   0.505   2.406   3.038 -0.7062 -0.1774  0.3560
 1722SOL    HW3 6935   0.420   2.457   2.924 -1.3619 -1.2025  0.3781
 1722SOL    MW4 6936   0.436   2.451   3.009 -0.6303 -0.0794  0.3288
 1723SOL     OW 6937   0.440   2.708   3.115  0.2583  0.0284  0.1614
 1723SOL    HW2 6938   0.526   2.741   3.089  1.3070 -2.0313  0.9737
 1723SOL    HW3 6939   0.442   2.615   3.095 -1.2804 -0.3222  1.5005
 1723SOL    MW4 6940   0.451   2.700   3.109  0.1937 -0.2897  0.4454
 1724SOL     OW 6941   0.676   2.850   3.018 -0.2468 -0.5583 -0.4423
 1724SOL    HW2 6942   0.755   2.807   3.051  0.1011 -0.5561 -1.2479
 1724SOL    HW3 6943   0.679   2.938   3.056 -0.4553 -0.9207  0.4351
 1724SOL    MW4 6944   0.687   2.856   3.027 -0.2283 -0.6058 -0.4327
 1725SOL     OW 6945   0.692   3.098   3.121 -0.2583  0.5108 -0.4389
 1725SOL    HW2 6946   0.668   3.108   3.213 -0.0788  0.2484 -0.3640
 1725SOL    HW3 6947   0.617   3.133   3.073 -1.0370 -0.7791 -0.2111
 1725SOL    MW4 6948   0.679   3.104   3.127 -0.3374  0.3059 -0.3986
 1726SOL     OW 6949   0.458   3.211   3.031 -0.4066  0.2631  0.2667
 1726SOL    HW2 6950   0.474   3.301   3.059 -1.3883  0.7840 -0.8121
 1726SOL    HW3 6951   0.374   3.189   3.072 -1.2169  0.5856 -1.2003
 1726SOL    MW4 6952   0.449   3.220   3.040 -0.6430  0.3743 -0.0694
 1727SOL     OW 6953   0.459   3.494   3.097  0.1158 -0.4477  0.0623
 1727SOL    HW2 6954   0.460   3.502   3.193  1.1952  0.7609 -0.0271
 1727SOL    HW3 6955   0.383   3.545   3.069 -0.8119 -1.6642  0.3286
 1727SOL    MW4 6956   0.449   3.502   3.106  0.1358 -0.4489  0.0856
 1728SOL     OW 6957   0.687   3.632   3.012 -0.2404 -0.1555  0.5077
 1728SOL    HW2 6958   0.762   3.604   3.064 -0.7025  0.5110  1.5568
 1728SOL    HW3 6959   0.614   3.579   3.045 -0.7237  0.9263  1.1871
 1728SOL    MW4 6960   0.687   3.621   3.023 -0.3651  0.0751  0.7358
 1729SOL     OW 6961   0.662   3.875   3.123  0.9020  0.3909  0.1839
 1729SOL    HW2 6962   0.670   3.869   3.218 -1.0978 -0.6772  0.3082
 1729SOL    HW3 6963   0.659   3.784   3.093  0.4950  0.7309 -0.8162
 1729SOL    MW4 6964   0.663   3.862   3.132  0.5844  0.2947  0.0687
 1730SOL     OW 6965   0.438   3.988   3.050 -0.0747  0.5228 -0.0638
 1730SOL    HW2 6966   0.528   3.963   3.070  0.2122  1.2400 -0.4469
 1730SOL    HW3 6967   0.431   3.979   2.955 -1.1090 -1.8070  0.2172
 1730SOL    MW4 6968   0.449   3.984   3.040 -0.1733  0.3102 -0.0772
 1731SOL     OW 6969   0.419   4.243   3.161  0.3797  0.3808  0.3139
 1731SOL    HW2 6970   0.406   4.154   3.129 -0.1124  0.9935 -1.2920
 1731SOL    HW3 6971   0.346   4.293   3.123  0.8486  1.5271  0.8870
 1731SOL    MW4 6972   0.408   4.238   3.152  0.3766  0.6132  0.1779
 1732SOL     OW 6973   0.615   4.395   3.031  0.2739  0.3304 -0.3031
 1732SOL    HW2 6974   0.546   4.338   3.064  0.1801  0.3855 -0.4068
 1732SOL    HW3 6975   0.623   4.372   2.938  1.2883 -0.6042 -0.0014
 1732SOL    MW4 6976   0.607   4.384   3.023  0.3954  0.2151 -0.2768
 1733SOL     OW 6977   1.139   4.660   3.148 -0.2644  0.1361 -0.1152
 1733SOL    HW2 6978   1.224   4.689   3.117 -0.0344 -0.7343 -0.3372
 1733SOL    HW3 6979   1.076   4.710   3.096  0.1082  1.1058  0.3724
 1733SOL    MW4 6980   1.142   4.670   3.137 -0.1847  0.1493 -0.0801
 1734SOL     OW 6981   0.911   0.124   3.043 -0.0940  0.1584 -0.0748
 1734SOL    HW2 6982   0.901   0.211   3.082  0.1918 -0.3218  1.1042
 1734SOL    HW3 6983   0.829   0.079   3.065  0.8454 -0.7564  1.6980
 1734SOL    MW4 6984   0.899   0.129   3.051  0.0677 -0.0256  0.3145
 1735SOL     OW 6985   0.840   0.378   3.134 -0.2055  0.4103  0.2950
 1735SOL    HW2 6986   0.859   0.383   3.228 -1.7297  1.5053  0.5524
 1735SOL    HW3 6987   0.917   0.417   3.092  0.9452 -1.0264  1.0235
 1735SOL    MW4 6988   0.853   0.383   3.141 -0.2548  0.3653  0.4253
 1736SOL     OW 6989   1.099   0.437   3.036 -0.2256  0.2651 -0.3379
 1736SOL    HW2 6990   1.170   0.392   3.081 -0.4781  1.2616  1.0759
 1736SOL    HW3 6991   1.131   0.448   2.946  0.8625 -0.4508 -0.0500
 1736SOL    MW4 6992   1.113   0.432   3.030 -0.1153  0.3021 -0.1135
 1737SOL     OW 6993   1.108   0.751   3.106 -0.0735  0.1042 -0.3305
 1737SOL    HW2 6994   1.129   0.725   3.196  2.8486  0.2447 -0.9225
 1737SOL    HW3 6995   1.109   0.669   3.057 -0.6336  0.1537 -0.4223
 1737SOL    MW4 6996   1.111   0.737   3.112  0.2381  0.1293 -0.4206
 1738SOL     OW 6997   0.901   0.919   3.033  0.1698 -0.3102 -0.2806
 1738SOL    HW2 6998   0.976   0.867   3.064  0.9246 -0.8067 -2.8232
 1738SOL    HW3 6999   0.825   0.878   3.075  1.0215 -1.8110 -0.1447
 1738SOL    MW4 7000   0.901   0.906   3.043  0.3818 -0.5738 -0.5982
 1739SOL     OW 7001   0.899   1.187   3.132  0.8118  0.3760  0.6516
 1739SOL    HW2 7002   0.980   1.237   3.123  0.7287  0.3332 -0.4290
 1739SOL    HW3 7003   0.922   1.099   3.102 -0.1509  0.8946 -1.7206
 1739SOL    MW4 7004   0.913   1.182   3.127  0.6738  0.4387  0.1962
 1740SOL     OW 7005   1.131   1.328   3.044  0.0768  0.3758  0.1360
 1740SOL    HW2 7006   1.202   1.280   3.088  0.4331  1.6456  0.9838
 1740SOL    HW3 7007   1.133   1.297   2.954  1.7645  0.4372  0.1383
 1740SOL    MW4 7008   1.141   1.318   3.038  0.3465  0.5513  0.2482
 1741SOL     OW 7009   1.114   1.584   3.107  0.1088 -0.4316 -0.0050
 1741SOL    HW2 7010   1.191   1.620   3.063  0.2870 -2.3885 -1.3574
 1741SOL    HW3 7011   1.119   1.490   3.092 -2.6441 -0.5917 -0.2675
 1741SOL    MW4 7012   1.125   1.577   3.099 -0.2309 -0.7108 -0.2182
 1742SOL     OW 7013   0.904   1.734   2.997 -0.0623  0.2443 -0.2439
 1742SOL    HW2 7014   0.980   1.689   3.034  0.1454  1.0182  0.2642
 1742SOL    HW3 7015   0.829   1.681   3.025  0.1805  0.1990  0.3193
 1742SOL    MW4 7016   0.904   1.721   3.005 -0.0029  0.3405 -0.1023
 1743SOL     OW 7017   0.902   1.980   3.113 -0.0432 -0.2366 -0.1355
 1743SOL    HW2 7018   0.913   1.970   3.207  0.4322  0.9302 -0.0613
 1743SOL    HW3 7019   0.911   1.892   3.078 -1.7711 -0.9132  1.0585
 1743SOL    MW4 7020   0.905   1.967   3.121 -0.2084 -0.1719  0.0319
 1744SOL     OW 7021   1.135   2.117   3.021  0.4216 -0.3438  0.1128
 1744SOL    HW2 7022   1.053   2.084   3.059 -0.4888  0.0527 -1.4270
 1744SOL    HW3 7023   1.122   2.108   2.927  1.1624  2.0073 -0.2611
 1744SOL    MW4 7024   1.122   2.112   3.014  0.3992  0.0186 -0.1397
 1745SOL     OW 7025   1.123   2.365   3.160  0.4036  0.5690  0.2882
 1745SOL    HW2 7026   1.051   2.396   3.105  1.3246 -0.0175 -1.2816
 1745SOL    HW3 7027   1.149   2.281   3.122  0.2384 -0.4871  2.3920
 1745SOL    MW4 7028   1.117   2.358   3.148  0.5033  0.3524  0.3586
 1746SOL     OW 7029   0.899   2.469   3.035  0.3379  0.2993 -0.0761
 1746SOL    HW2 7030   0.824   2.414   3.055  1.3102 -1.0518 -0.1129
 1746SOL    HW3 7031   0.905   2.469   2.939  0.7011 -0.0285 -0.0551
 1746SOL    MW4 7032   0.890   2.462   3.025  0.5141  0.0777 -0.0780
 1747SOL     OW 7033   0.901   2.724   3.130  0.0183 -0.3974  0.1542
 1747SOL    HW2 7034   0.924   2.711   3.222  0.7472 -1.2335 -0.1426
 1747SOL    HW3 7035   0.887   2.636   3.095  0.4947 -0.1334 -0.7220
 1747SOL    MW4 7036   0.902   2.711   3.137  0.1772 -0.4728 -0.0007
 1748SOL     OW 7037   1.113   2.835   2.992  0.0122  0.0548  0.5403
 1748SOL    HW2 7038   1.123   2.920   3.034 -0.0785  0.7298 -0.7613
 1748SOL    HW3 7039   1.041   2.793   3.038  0.5466  0.3762  1.6772
 1748SOL    MW4 7040   1.105   2.841   3.003  0.0706  0.1864  0.5188
 1749SOL     OW 7041   1.129   3.099   3.119 -0.0028  0.2336  0.2152
 1749SOL    HW2 7042   1.208   3.143   3.090  1.1531 -1.4480  0.7269
 1749SOL    HW3 7043   1.058   3.143   3.072  1.2638  1.4682 -0.5789
 1749SOL    MW4 7044   1.130   3.111   3.109  0.3169  0.1745  0.1781
 1750SOL     OW 7045   0.912   3.260   3.021  0.0639 -0.0089  0.1788
 1750SOL    HW2 7046   0.845   3.200   3.055 -0.1893  0.0337 -0.2352
 1750SOL    HW3 7047   0.904   3.252   2.926  0.2727  0.4135  0.1255
 1750SOL    MW4 7048   0.902   3.251   3.013  0.0580  0.0525  0.1171
 1751SOL     OW 7049   0.909   3.515   3.131 -0.4100  0.5275 -0.3025
 1751SOL    HW2 7050   0.975   3.574   3.093  0.7888  0.3599  1.4691
 1751SOL    HW3 7051   0.933   3.428   3.097 -0.9888  0.7661 -1.3341
 1751SOL    MW4 7052   0.921   3.511   3.121 -0.3282  0.5369 -0.2048
 1752SOL     OW 7053   1.126   3.675   3.037  0.0936 -0.5509  0.3708
 1752SOL    HW2 7054   1.206   3.626   3.053 -0.1609 -0.6417  1.4325
 1752SOL    HW3 7055   1.137   3.756   3.088  0.0144 -0.0380 -0.4203
 1752SOL    MW4 7056   1.138   3.679   3.046  0.0496 -0.4952  0.4063
 1753SOL     OW 7057   1.135   3.896   3.197 -0.1514 -0.0393  0.2353
 1753SOL    HW2 7058   1.122   3.891   3.291  0.0412 -3.3103  0.1502
 1753SOL    HW3 7059   1.050   3.923   3.162 -0.2155  1.2166  1.3159
 1753SOL    MW4 7060   1.122   3.899   3.204 -0.1345 -0.3049  0.3667
 1754SOL     OW 7061   0.897   4.015   3.068 -0.4281  0.1258 -0.1502
 1754SOL    HW2 7062   0.818   3.971   3.098 -1.6302  2.4791  0.1950
 1754SOL    HW3 7063   0.891   4.011   2.972  0.1263 -1.5577 -0.1383
 1754SOL    MW4 7064   0.886   4.008   3.059 -0.5136  0.2141 -0.1035
 1755SOL     OW 7065   0.868   4.278   3.124  0.1220  0.1022 -0.0557
 1755SOL    HW2 7066   0.871   4.184   3.105  0.6308 -0.2966  1.8204
 1755SOL    HW3 7067   0.779   4.304   3.103 -0.1616 -0.9267 -0.1412
 1755SOL    MW4 7068   0.857   4.269   3.119  0.1518 -0.0863  0.1807
 1756SOL     OW 7069   1.111   4.388   3.045 -0.1588  0.0581 -0.1541
 1756SOL    HW2 7070   1.028   4.346   3.069 -0.9619  0.1224 -2.6149
 1756SOL    HW3 7071   1.109   4.472   3.089 -2.2922  0.8272 -1.6355
 1756SOL    MW4 7072   1.100   4.393   3.054 -0.5462  0.1678 -0.6742
 1757SOL     OW 7073   1.637   4.646   3.174 -0.3547  0.0327  0.1377
 1757SOL    HW2 7074   1.617   4.633   3.267 -0.4588  0.8001  0.2215
 1757SOL    HW3 7075   1.556   4.679   3.136  0.1255  1.1200  0.0632
 1757SOL    MW4 7076   1.624   4.648   3.181 -0.3049  0.2780  0.1390
 1758SOL     OW 7077   1.397   0.087   3.061  0.0851  0.2152  0.4117
 1758SOL    HW2 7078   1.382   0.176   3.093 -2.6162  0.1125 -0.4932
 1758SOL    HW3 7079   1.410   0.098   2.967  1.7121 -0.1815  0.5661
 1758SOL    MW4 7080   1.397   0.101   3.053 -0.0567  0.1493  0.3126
 1759SOL     OW 7081   1.311   0.337   3.163 -0.0309 -0.6317  0.2699
 1759SOL    HW2 7082   1.326   0.357   3.255  0.8634 -2.2479  0.4995
 1759SOL    HW3 7083   1.383   0.380   3.117 -0.6889  0.4920  0.2727
 1759SOL    MW4 7084   1.322   0.345   3.169  0.0002 -0.6967  0.3002
 1760SOL     OW 7085   1.524   0.473   3.046  0.1079 -0.0285 -0.2398
 1760SOL    HW2 7086   1.538   0.563   3.078  0.0307 -0.2996  0.5818
 1760SOL    HW3 7087   1.523   0.481   2.951  0.1604  0.8365 -0.1733
 1760SOL    MW4 7088   1.526   0.486   3.038  0.1047  0.0498 -0.1225
 1761SOL     OW 7089   1.575   0.735   3.118  0.2325  0.2079  0.2168
 1761SOL    HW2 7090   1.567   0.749   3.213  0.9893  0.7097  0.2077
 1761SOL    HW3 7091   1.500   0.782   3.081  1.3741  2.1962  0.3798
 1761SOL    MW4 7092   1.564   0.743   3.126  0.4829  0.5364  0.2370
 1762SOL     OW 7093   1.359   0.891   3.042 -0.1896 -0.2378 -0.1503
 1762SOL    HW2 7094   1.357   0.985   3.057 -0.5130 -0.0082 -1.5670
 1762SOL    HW3 7095   1.269   0.862   3.058 -0.0475 -0.3504  0.4787
 1762SOL    MW4 7096   1.347   0.899   3.046 -0.2135 -0.2224 -0.2542
 1763SOL     OW 7097   1.355   1.151   3.107  0.3519  0.7311 -0.6164
 1763SOL    HW2 7098   1.366   1.138   3.201 -0.1331 -1.9787 -0.8752
 1763SOL    HW3 7099   1.431   1.201   3.080  2.4273 -1.6085  0.6667
 1763SOL    MW4 7100   1.366   1.156   3.116  0.5618  0.0648 -0.4811
 1764SOL     OW 7101   1.591   1.273   3.046  0.2855  0.0448  0.0820
 1764SOL    HW2 7102   1.667   1.230   3.083 -0.8126 -0.7437  1.4731
 1764SOL    HW3 7103   1.592   1.361   3.084 -0.2506 -0.4131  1.1503
 1764SOL    MW4 7104   1.601   1.279   3.056  0.0699 -0.1197  0.4067
 1765SOL     OW 7105   1.554   1.540   3.150 -0.2441  0.4278  0.1851
 1765SOL    HW2 7106   1.613   1.599   3.104 -0.5213  0.3733 -0.2469
 1765SOL    HW3 7107   1.466   1.570   3.126 -0.4009 -1.0318 -1.1877
 1765SOL    MW4 7108   1.550   1.551   3.141 -0.3014  0.2280 -0.0532
 1766SOL     OW 7109   1.340   1.691   3.023 -0.4843  0.5025  0.1731
 1766SOL    HW2 7110   1.346   1.784   3.044 -0.3581  0.6645 -0.5556
 1766SOL    HW3 7111   1.335   1.689   2.927  1.0409 -0.3263  0.1039
 1766SOL    MW4 7112   1.340   1.703   3.013 -0.2664  0.4146  0.0679
 1767SOL     OW 7113   1.360   1.962   3.082 -0.3222 -0.0553 -0.0108
 1767SOL    HW2 7114   1.376   1.977   3.175  0.2153 -0.2247 -0.0684
 1767SOL    HW3 7115   1.282   2.013   3.061 -0.7700 -0.4605  0.6578
 1767SOL    MW4 7116   1.352   1.971   3.091 -0.3103 -0.1312  0.0696
 1768SOL     OW 7117   1.560   2.114   2.980 -0.0631  0.0407  0.0716
 1768SOL    HW2 7118   1.489   2.059   3.013 -0.4424 -0.3924 -1.4311
 1768SOL    HW3 7119   1.556   2.104   2.885  0.7451  1.5822 -0.1420
 1768SOL    MW4 7120   1.550   2.105   2.972 -0.0067  0.1869 -0.1550
 1769SOL     OW 7121   1.559   2.347   3.110  0.1941  0.2197 -0.2799
 1769SOL    HW2 7122   1.481   2.397   3.084 -1.0733 -0.4285  2.1396
 1769SOL    HW3 7123   1.551   2.265   3.061 -1.0429 -0.1223  0.4609
 1769SOL    MW4 7124   1.547   2.343   3.100 -0.1361  0.0892  0.1369
 1770SOL     OW 7125   1.346   2.487   3.024  0.0436 -0.2831  0.3291
 1770SOL    HW2 7126   1.261   2.466   3.062  0.2794 -2.7766 -0.4796
 1770SOL    HW3 7127   1.336   2.469   2.930  0.8971  1.2625 -0.0779
 1770SOL    MW4 7128   1.334   2.482   3.016  0.1873 -0.4084  0.1686
 1771SOL     OW 7129   1.331   2.743   3.141  0.1962 -0.4617 -0.1955
 1771SOL    HW2 7130   1.345   2.653   3.112 -0.4029 -0.6030 -0.0509
 1771SOL    HW3 7131   1.251   2.770   3.096  1.5488  0.7296 -1.9616
 1771SOL    MW4 7132   1.322   2.735   3.131  0.2956 -0.3233 -0.4096
 1772SOL     OW 7133   1.566   2.822   3.035 -0.3398  0.1180  0.2892
 1772SOL    HW2 7134   1.631   2.781   3.092 -0.9956 -0.5102  0.6000
 1772SOL    HW3 7135   1.482   2.803   3.077 -0.7576  0.5078 -0.3562
 1772SOL    MW4 7136   1.564   2.814   3.048 -0.4815  0.0870  0.2451
 1773SOL     OW 7137   1.571   3.094   3.145 -0.0192  0.0940  0.0836
 1773SOL    HW2 7138   1.589   3.077   3.237  1.1746  0.6944 -0.0242
 1773SOL    HW3 7139   1.585   3.009   3.101  1.3717  0.2566  0.1857
 1773SOL    MW4 7140   1.575   3.080   3.151  0.3219  0.1945  0.0825
 1774SOL     OW 7141   1.361   3.236   3.037  0.0639  0.2745  0.3051
 1774SOL    HW2 7142   1.442   3.191   3.059 -0.0139  0.0886  0.2150
 1774SOL    HW3 7143   1.357   3.233   2.942  0.9451  2.0400  0.1967
 1774SOL    MW4 7144   1.371   3.229   3.027  0.1699  0.4833  0.2787
 1775SOL     OW 7145   1.343   3.507   3.105  0.2062  0.2979 -0.5116
 1775SOL    HW2 7146   1.345   3.508   3.201 -1.1189  0.1405 -0.4793
 1775SOL    HW3 7147   1.349   3.414   3.082 -0.0184  0.2995 -0.5734
 1775SOL    MW4 7148   1.344   3.495   3.115  0.0018  0.2773 -0.5155
 1776SOL     OW 7149   1.576   3.602   3.045  0.2678 -0.2248 -0.2316
 1776SOL    HW2 7150   1.490   3.570   3.070  0.6881 -0.8602  0.4267
 1776SOL    HW3 7151   1.574   3.602   2.949 -1.1933  1.8253 -0.2167
 1776SOL    MW4 7152   1.564   3.597   3.035  0.1304 -0.0381 -0.1426
 1777SOL     OW 7153   1.559   3.868   3.135  0.5124 -0.1380 -0.3684
 1777SOL    HW2 7154   1.625   3.915   3.083  1.0493 -0.2948  0.1645
 1777SOL    HW3 7155   1.577   3.776   3.118 -0.5880 -0.1604 -1.4694
 1777SOL    MW4 7156   1.570   3.862   3.126  0.4382 -0.1619 -0.4435
 1778SOL     OW 7157   1.350   4.024   3.058  0.0294  0.0892  0.2954
 1778SOL    HW2 7158   1.425   3.977   3.097 -0.7083 -2.8069 -1.6079
 1778SOL    HW3 7159   1.274   3.987   3.101 -0.5350 -0.0177 -0.7776
 1778SOL    MW4 7160   1.350   4.013   3.069 -0.1425 -0.3071 -0.0975
 1779SOL     OW 7161   1.371   4.288   3.151 -0.1251 -0.1743 -0.3455
 1779SOL    HW2 7162   1.361   4.201   3.112 -1.2777 -0.7678  1.2641
 1779SOL    HW3 7163   1.288   4.332   3.132 -0.4486 -0.2494  0.8718
 1779SOL    MW4 7164   1.359   4.282   3.143 -0.3198 -0.2623  0.0277
 1780SOL     OW 7165   1.568   4.443   3.008  0.0017  0.0502  0.2194
 1780SOL    HW2 7166   1.498   4.394   3.051  0.1392 -0.6992 -0.4006
 1780SOL    HW3 7167   1.589   4.514   3.069 -0.9331 -0.0293  0.6472
 1780SOL    MW4 7168   1.561   4.446   3.022 -0.1036 -0.0587  0.1943
 1781SOL     OW 7169   2.032   4.656   3.109  0.1229 -0.4953 -0.4680
 1781SOL    HW2 7170   2.020   4.662   3.204 -1.7305 -1.8241 -0.6047
 1781SOL    HW3 7171   1.964   4.712   3.073  0.1667 -0.8246 -1.0545
 1781SOL    MW4 7172   2.022   4.664   3.117 -0.1159 -0.7138 -0.5634
 1782SOL     OW 7173   1.810   0.123   3.014  0.4672  0.2156  0.0225
 1782SOL    HW2 7174   1.750   0.057   3.050 -0.1303  0.4485 -0.5294
 1782SOL    HW3 7175   1.808   0.108   2.919  0.9547  0.4971 -0.0306
 1782SOL    MW4 7176   1.802   0.113   3.006  0.4528  0.2835 -0.0572
 1783SOL     OW 7177   1.781   0.396   3.122  0.3386  0.4345 -0.5220
 1783SOL    HW2 7178   1.796   0.315   3.072  0.9780  0.7568 -0.8573
 1783SOL    HW3 7179   1.692   0.423   3.098 -0.3750 -0.8639  0.5793
 1783SOL    MW4 7180   1.771   0.389   3.112  0.3288  0.3057 -0.4210
 1784SOL     OW 7181   2.023   0.516   3.032  0.5130  0.3908 -0.0857
 1784SOL    HW2 7182   1.949   0.482   3.081  0.7170 -0.1119 -0.1245
 1784SOL    HW3 7183   2.009   0.486   2.943  1.1594 -0.3618  0.0593
 1784SOL    MW4 7184   2.012   0.508   3.027  0.6251  0.2252 -0.0718
 1785SOL     OW 7185   2.012   0.781   3.109 -0.6542 -0.2797 -0.0539
 1785SOL    HW2 7186   1.929   0.819   3.078  0.7129  1.2368 -1.9519
 1785SOL    HW3 7187   2.018   0.697   3.063 -1.4896 -0.7534  0.6809
 1785SOL    MW4 7188   2.001   0.775   3.099 -0.5841 -0.1422 -0.2074
 1786SOL     OW 7189   1.780   0.905   3.035  0.1187 -0.0814  0.3331
 1786SOL    HW2 7190   1.703   0.851   3.053  0.2614 -0.5492 -0.4081
 1786SOL    HW3 7191   1.782   0.912   2.940 -0.3196  1.8837  0.4615
 1786SOL    MW4 7192   1.770   0.899   3.025  0.0798  0.1161  0.2522
 1787SOL     OW 7193   1.816   1.152   3.151 -0.0730 -0.0999  0.5349
 1787SOL    HW2 7194   1.803   1.164   3.245  3.5367 -1.3866  1.2893
 1787SOL    HW3 7195   1.800   1.058   3.137 -1.2302  0.2061 -0.2924
 1787SOL    MW4 7196   1.812   1.141   3.162  0.2506 -0.2294  0.5252
 1788SOL     OW 7197   2.028   1.276   3.023 -0.6721  0.2153 -0.0593
 1788SOL    HW2 7198   2.108   1.238   3.059 -0.4529  2.4590  1.9840
 1788SOL    HW3 7199   1.957   1.228   3.065 -0.4162 -0.3999 -0.3208
 1788SOL    MW4 7200   2.029   1.265   3.033 -0.6096  0.4301  0.1757
 1789SOL     OW 7201   1.970   1.542   3.099  0.0710 -0.2338  0.8706
 1789SOL    HW2 7202   1.982   1.543   3.194  0.0698 -1.5300  0.8943
 1789SOL    HW3 7203   1.990   1.452   3.073 -1.1071 -0.2015 -0.2113
 1789SOL    MW4 7204   1.974   1.530   3.108 -0.0846 -0.4004  0.7315
 1790SOL     OW 7205   1.756   1.709   3.039  0.0734  0.0111 -0.0355
 1790SOL    HW2 7206   1.783   1.795   3.072  0.6564 -0.6116  1.1545
 1790SOL    HW3 7207   1.830   1.651   3.059 -1.1693 -1.2252  1.1022
 1790SOL    MW4 7208   1.769   1.713   3.046 -0.0136 -0.2341  0.2716
 1791SOL     OW 7209   1.780   1.967   3.120  0.5675 -0.6208  0.1268
 1791SOL    HW2 7210   1.860   1.998   3.079 -1.0829 -0.3230 -3.0246
 1791SOL    HW3 7211   1.710   2.017   3.078 -1.3784 -1.5777  2.0686
 1791SOL    MW4 7212   1.781   1.978   3.109  0.0930 -0.7076 -0.0329
 1792SOL     OW 7213   2.019   2.068   3.007  0.1924 -0.2204 -0.2464
 1792SOL    HW2 7214   2.081   2.014   3.056 -0.1855  0.1604  0.6624
 1792SOL    HW3 7215   2.020   2.153   3.053  0.2110  0.3019 -1.1946
 1792SOL    MW4 7216   2.028   2.072   3.020  0.1452 -0.1013 -0.2518
 1793SOL     OW 7217   1.996   2.309   3.110  0.2951  0.1365 -0.3800
 1793SOL    HW2 7218   2.071   2.345   3.064  0.3692  1.6586  0.9004
 1793SOL    HW3 7219   1.923   2.367   3.088 -0.0902 -0.2334 -0.0963
 1793SOL    MW4 7220   1.996   2.321   3.101  0.2542  0.2885 -0.1738
 1794SOL     OW 7221   1.784   2.465   2.996  0.0163  0.0685 -0.0314
 1794SOL    HW2 7222   1.798   2.541   3.054 -1.2136 -0.5715  1.1280
 1794SOL    HW3 7223   1.700   2.429   3.024  0.5618 -1.6803 -0.6305
 1794SOL    MW4 7224   1.775   2.470   3.008 -0.0740 -0.2468  0.0424
 1795SOL     OW 7225   1.779   2.700   3.147 -0.0621 -0.7748 -0.0943
 1795SOL    HW2 7226   1.800   2.690   3.240 -0.7675 -0.7058  0.0771
 1795SOL    HW3 7227   1.847   2.759   3.114 -0.4698  0.1314  0.6449
 1795SOL    MW4 7228   1.791   2.707   3.155 -0.2090 -0.6461  0.0260
 1796SOL     OW 7229   2.008   2.856   3.043 -0.0967  0.0803  0.1353
 1796SOL    HW2 7230   2.020   2.947   3.070 -0.5361  0.1090  0.2381
 1796SOL    HW3 7231   2.014   2.859   2.948  0.6258  0.1051  0.1778
 1796SOL    MW4 7232   2.011   2.869   3.034 -0.0591  0.0873  0.1545
 1797SOL     OW 7233   2.045   3.118   3.166 -0.3265 -0.0950 -0.0858
 1797SOL    HW2 7234   2.054   3.109   3.261  1.7337  0.0153 -0.2494
 1797SOL    HW3 7235   1.962   3.164   3.154 -0.9362 -0.7030  1.6209
 1797SOL    MW4 7236   2.035   3.123   3.177 -0.1352 -0.1607  0.1180
 1798SOL     OW 7237   1.808   3.241   3.085  0.3317  0.1102  0.2011
 1798SOL    HW2 7238   1.737   3.183   3.113  1.3040 -0.9333  0.5569
 1798SOL    HW3 7239   1.801   3.242   2.990 -0.2850  0.1619  0.2462
 1798SOL    MW4 7240   1.797   3.233   3.076  0.3787 -0.0207  0.2539
 1799SOL     OW 7241   1.810   3.503   3.163 -0.0636 -0.4136 -0.2649
 1799SOL    HW2 7242   1.796   3.411   3.140 -2.1825 -0.2982  0.4159
 1799SOL    HW3 7243   1.733   3.548   3.127  1.0862  1.1374 -0.8247
 1799SOL    MW4 7244   1.798   3.497   3.155 -0.1915 -0.1938 -0.2491
 1800SOL     OW 7245   2.003   3.624   2.991  0.0174  0.6230 -0.2011
 1800SOL    HW2 7246   1.988   3.712   3.024 -0.6543  1.6147 -2.9647
 1800SOL    HW3 7247   1.947   3.568   3.045 -2.1303  2.3424 -0.5845
 1800SOL    MW4 7248   1.994   3.628   3.002 -0.3546  0.9806 -0.6163
 1801SOL     OW 7249   1.999   3.886   3.127  0.2767 -0.0603  0.0027
 1801SOL    HW2 7250   2.022   3.883   3.220  1.4493  0.7682 -0.2465
 1801SOL    HW3 7251   1.918   3.937   3.124 -0.1610 -0.7190  0.6378
 1801SOL    MW4 7252   1.991   3.893   3.139  0.3736 -0.0379  0.0536
 1802SOL     OW 7253   1.773   4.006   3.024  0.1176 -0.5128 -0.2834
 1802SOL    HW2 7254   1.771   4.099   3.050  1.2398 -0.8386  1.0063
 1802SOL    HW3 7255   1.803   4.008   2.934 -0.3753  0.4094 -0.4452
 1802SOL    MW4 7256   1.776   4.019   3.016  0.2006 -0.4344 -0.1347
 1803SOL     OW 7257   1.768   4.269   3.119 -0.0121 -0.5866  0.1190
 1803SOL    HW2 7258   1.835   4.315   3.068  0.2694  0.6827  1.5918
 1803SOL    HW3 7259   1.685   4.302   3.083  0.1315 -2.3629 -1.8820
 1803SOL    MW4 7260   1.766   4.280   3.107  0.0439 -0.6533  0.0491
 1804SOL     OW 7261   1.977   4.402   3.009  0.3857  0.5334 -0.0976
 1804SOL    HW2 7262   1.976   4.495   3.032 -1.0303  0.3053  0.7999
 1804SOL    HW3 7263   1.983   4.401   2.913  0.1000  1.5573 -0.1317
 1804SOL    MW4 7264   1.978   4.414   2.999  0.1612  0.6380  0.0162
 1805SOL     OW 7265   2.461   4.666   3.145  0.1200 -0.0871  0.5928
 1805SOL    HW2 7266   2.455   4.577   3.110  0.9309 -0.1768  0.6485
 1805SOL    HW3 7267   2.401   4.718   3.092  1.8269 -0.0752 -1.4215
 1805SOL    MW4 7268   2.453   4.661   3.134  0.4520 -0.0978  0.3343
 1806SOL     OW 7269   2.263   0.113   2.981 -0.2794  0.0803 -0.2681
 1806SOL    HW2 7270   2.254   0.203   3.013  0.4850 -0.4128  1.4064
 1806SOL    HW3 7271   2.183   0.069   3.011 -1.3073  0.5062 -2.2677
 1806SOL    MW4 7272   2.251   0.119   2.989 -0.3142  0.0714 -0.3109
 1807SOL     OW 7273   2.248   0.373   3.104 -0.0562  0.1549 -0.0472
 1807SOL    HW2 7274   2.257   0.380   3.199 -0.0994 -0.9246  0.0424
 1807SOL    HW3 7275   2.169   0.422   3.083  0.0367  0.5214  0.4562
 1807SOL    MW4 7276   2.239   0.381   3.113 -0.0494  0.0608  0.0308
 1808SOL     OW 7277   2.466   0.481   2.979  0.2177 -0.4122 -0.7323
 1808SOL    HW2 7278   2.380   0.450   3.007 -0.2233  0.5358 -0.9864
 1808SOL    HW3 7279   2.458   0.493   2.884  0.7346 -0.6573 -0.8087
 1808SOL    MW4 7280   2.454   0.479   2.970  0.2277 -0.3195 -0.7761
 1809SOL     OW 7281   2.446   0.720   3.133 -0.1844  0.2022  0.1658
 1809SOL    HW2 7282   2.525   0.756   3.094 -0.4481 -0.7759 -1.2931
 1809SOL    HW3 7283   2.431   0.638   3.087 -2.7423  0.9829 -0.4612
 1809SOL    MW4 7284   2.454   0.714   3.122 -0.5567  0.1761 -0.1094
 1810SOL     OW 7285   2.251   0.914   3.023 -0.7228  0.0772  0.1520
 1810SOL    HW2 7286   2.328   0.877   3.067 -1.0263 -0.4419  0.2588
 1810SOL    HW3 7287   2.178   0.861   3.056 -0.9776 -0.2056 -0.8499
 1810SOL    MW4 7288   2.252   0.902   3.033 -0.7966 -0.0285  0.0339
 1811SOL     OW 7289   2.269   1.170   3.113 -0.1156 -0.1635  0.2844
 1811SOL    HW2 7290   2.252   1.162   3.207 -0.0884  0.6716  0.3656
 1811SOL    HW3 7291   2.247   1.084   3.077  0.5131 -0.6893  1.1485
 1811SOL    MW4 7292   2.263   1.158   3.121 -0.0291 -0.1227  0.4091
 1812SOL     OW 7293   2.497   1.272   2.975  0.4328 -0.1313  0.2830
 1812SOL    HW2 7294   2.413   1.256   3.017  0.7730  0.4269  1.1876
 1812SOL    HW3 7295   2.475   1.289   2.883 -0.2828 -1.6220  0.1627
 1812SOL    MW4 7296   2.483   1.272   2.968  0.3834 -0.2543  0.3865
 1813SOL     OW 7297   2.501   1.507   3.092 -0.4063 -0.3858  0.0571
 1813SOL    HW2 7298   2.411   1.532   3.072 -0.8235 -0.5149  1.6868
 1813SOL    HW3 7299   2.513   1.424   3.047 -1.4448 -0.8687  0.6442
 1813SOL    MW4 7300   2.491   1.499   3.084 -0.5984 -0.4667  0.3495
 1814SOL     OW 7301   2.237   1.614   3.033 -0.2517  0.1012  0.2007
 1814SOL    HW2 7302   2.148   1.592   3.059 -0.3314 -0.4110 -0.4980
 1814SOL    HW3 7303   2.237   1.607   2.938  1.0708 -1.9502  0.3239
 1814SOL    MW4 7304   2.226   1.610   3.024 -0.0875 -0.2371  0.1252
 1815SOL     OW 7305   2.217   1.905   3.129 -0.4298 -0.1938 -0.0323
 1815SOL    HW2 7306   2.303   1.942   3.109 -0.8950  0.0560 -1.5844
 1815SOL    HW3 7307   2.221   1.816   3.096 -0.9444 -0.0167 -0.5745
 1815SOL    MW4 7308   2.229   1.898   3.122 -0.5589 -0.1376 -0.3085
 1816SOL     OW 7309   2.449   2.036   3.048 -0.0035 -0.5056 -0.1471
 1816SOL    HW2 7310   2.516   1.978   3.082  0.6936  0.3355 -0.0642
 1816SOL    HW3 7311   2.463   2.037   2.953 -0.5997 -1.1763 -0.2546
 1816SOL    MW4 7312   2.459   2.029   3.040  0.0100 -0.4833 -0.1504
 1817SOL     OW 7313   2.453   2.323   3.101 -0.5394 -0.2612 -0.0314
 1817SOL    HW2 7314   2.445   2.332   3.196 -1.8428  0.0873 -0.1588
 1817SOL    HW3 7315   2.452   2.229   3.086 -1.8608 -0.2976  0.1973
 1817SOL    MW4 7316   2.451   2.312   3.112 -0.8857 -0.2201 -0.0179
 1818SOL     OW 7317   2.221   2.440   3.017  0.2180 -0.0987  0.2239
 1818SOL    HW2 7318   2.229   2.534   3.034  0.7461 -0.0427 -0.2886
 1818SOL    HW3 7319   2.306   2.404   3.044 -1.0944 -0.9161  3.4249
 1818SOL    MW4 7320   2.234   2.448   3.023  0.1147 -0.1993  0.5786
 1819SOL     OW 7321   2.234   2.708   3.062  0.3698  0.1478  0.1465
 1819SOL    HW2 7322   2.304   2.772   3.056 -0.0923  0.6573  0.1610
 1819SOL    HW3 7323   2.155   2.760   3.076  0.2279 -0.5269  1.9285
 1819SOL    MW4 7324   2.233   2.723   3.063  0.2899  0.1264  0.3836
 1820SOL     OW 7325   2.463   2.846   3.047  0.4378 -0.2437 -0.1843
 1820SOL    HW2 7326   2.459   2.942   3.049  0.6497 -0.2344 -0.1655
 1820SOL    HW3 7327   2.481   2.826   2.955 -0.2550 -0.2933 -0.3119
 1820SOL    MW4 7328   2.465   2.856   3.035  0.3746 -0.2491 -0.1986
 1821SOL     OW 7329   2.498   3.120   3.083 -0.1338  0.4618  0.2944
 1821SOL    HW2 7330   2.582   3.158   3.056 -0.0235 -0.9411 -1.5100
 1821SOL    HW3 7331   2.435   3.191   3.072  0.3063  0.6001 -1.5595
 1821SOL    MW4 7332   2.501   3.134   3.078 -0.0608  0.2949 -0.1881
 1822SOL     OW 7333   2.251   3.261   3.046 -0.0514 -0.5738  0.0166
 1822SOL    HW2 7334   2.264   3.350   3.081  0.4641 -0.9031  0.6628
 1822SOL    HW3 7335   2.179   3.225   3.099  0.6812 -1.0459  0.7071
 1822SOL    MW4 7336   2.243   3.268   3.058  0.1130 -0.6797  0.1931
 1823SOL     OW 7337   2.248   3.526   3.095  0.0980 -0.0222 -0.3547
 1823SOL    HW2 7338   2.318   3.589   3.075 -0.7911  1.2807  0.5382
 1823SOL    HW3 7339   2.172   3.561   3.048 -0.7384  0.3101  1.2404
 1823SOL    MW4 7340   2.248   3.539   3.086 -0.1295  0.1934 -0.0265
 1824SOL     OW 7341   2.472   3.682   3.031  0.2554  0.4168  0.4391
 1824SOL    HW2 7342   2.556   3.652   3.066  0.6060  0.9232  0.0289
 1824SOL    HW3 7343   2.467   3.774   3.056  0.8522  0.9853 -1.4872
 1824SOL    MW4 7344   2.482   3.690   3.039  0.3803  0.5584  0.1311
 1825SOL     OW 7345   2.452   3.931   3.111 -0.5943 -0.0839 -0.4216
 1825SOL    HW2 7346   2.482   3.926   3.202  0.2833  0.1320 -0.6917
 1825SOL    HW3 7347   2.522   3.979   3.066 -0.3346 -1.4552 -1.5066
 1825SOL    MW4 7348   2.466   3.937   3.117 -0.4442 -0.2365 -0.6006
 1826SOL     OW 7349   2.213   4.013   3.005  0.3862 -0.0854  0.1780
 1826SOL    HW2 7350   2.291   3.981   3.052 -0.0520 -0.4116  0.6815
 1826SOL    HW3 7351   2.141   3.962   3.041  0.2141 -1.2604 -1.8072
 1826SOL    MW4 7352   2.214   4.002   3.016  0.3057 -0.2842 -0.0176
 1827SOL     OW 7353   2.221   4.286   3.110  0.2303 -0.2803 -0.2507
 1827SOL    HW2 7354   2.202   4.193   3.097 -1.6811 -0.4416  3.0231
 1827SOL    HW3 7355   2.141   4.330   3.080  0.4041  0.1656 -0.0548
 1827SOL    MW4 7356   2.208   4.279   3.104  0.0010 -0.2427  0.2069
 1828SOL     OW 7357   2.449   4.408   3.031  0.1541  0.2151  0.4205
 1828SOL    HW2 7358   2.375   4.363   3.071  0.6039 -0.5513  0.3814
 1828SOL    HW3 7359   2.442   4.387   2.938  0.8305 -0.4376  0.5165
 1828SOL    MW4 7360   2.438   4.400   3.024  0.3026  0.0281  0.4282
 1829SOL     OW 7361   2.900   4.659   3.149  0.1377 -0.4160  0.3549
 1829SOL    HW2 7362   2.978   4.702   3.113 -0.5714  0.2518 -0.4086
 1829SOL    HW3 7363   2.904   4.569   3.116 -0.1574  0.0089 -0.8651
 1829SOL    MW4 7364   2.911   4.653   3.140  0.0050 -0.2718  0.0932
 1830SOL     OW 7365   2.689   0.112   3.013 -0.4760  0.4386  0.0860
 1830SOL    HW2 7366   2.763   0.070   3.059  0.3044  1.2705 -0.3971
 1830SOL    HW3 7367   2.612   0.080   3.059  0.1478 -0.9022  0.2432
 1830SOL    MW4 7368   2.689   0.102   3.025 -0.2909  0.3715  0.0427
 1831SOL     OW 7369   2.702   0.371   3.118  0.2368  0.1339 -0.3909
 1831SOL    HW2 7370   2.725   0.279   3.107 -0.2637 -0.4988  2.9823
 1831SOL    HW3 7371   2.621   0.382   3.067  1.3573 -0.7602 -2.3925
 1831SOL    MW4 7372   2.694   0.361   3.110  0.3185 -0.0676 -0.2098
 1832SOL     OW 7373   2.916   0.502   3.018 -0.1016  0.1220  0.0683
 1832SOL    HW2 7374   2.852   0.440   3.053  1.5219 -1.6161  0.0534
 1832SOL    HW3 7375   2.913   0.489   2.923 -0.4903  0.8166 -0.0178
 1832SOL    MW4 7376   2.907   0.492   3.010  0.0613 -0.0157  0.0548
 1833SOL     OW 7377   2.938   0.766   3.083  0.5342  0.1233  0.0113
 1833SOL    HW2 7378   2.913   0.772   3.175 -2.2430 -0.2785 -0.6568
 1833SOL    HW3 7379   2.927   0.674   3.061  2.8599 -0.0981 -0.2935
 1833SOL    MW4 7380   2.933   0.755   3.092  0.4745  0.0411 -0.1171
 1834SOL     OW 7381   2.677   0.857   3.014 -0.2664 -0.1956 -0.0194
 1834SOL    HW2 7382   2.684   0.948   3.046 -0.7026  0.9948 -3.1556
 1834SOL    HW3 7383   2.764   0.820   3.028  0.4039  1.2479 -0.2789
 1834SOL    MW4 7384   2.690   0.864   3.020 -0.2353  0.1519 -0.4675
 1835SOL     OW 7385   2.689   1.151   3.111 -0.0176  0.6292  0.0039
 1835SOL    HW2 7386   2.770   1.191   3.078  0.2393 -1.3578 -1.9059
 1835SOL    HW3 7387   2.619   1.198   3.065  0.1961  0.2630 -0.7042
 1835SOL    MW4 7388   2.691   1.163   3.100  0.0448  0.3186 -0.3414
 1836SOL     OW 7389   2.914   1.290   3.073 -0.0282 -0.5590 -0.5013
 1836SOL    HW2 7390   2.995   1.253   3.109  1.4737  0.5962 -2.6375
 1836SOL    HW3 7391   2.913   1.380   3.105 -0.5029 -0.5934 -0.4237
 1836SOL    MW4 7392   2.925   1.297   3.082  0.1073 -0.4113 -0.7730
 1837SOL     OW 7393   2.915   1.564   3.148  0.0655 -0.0969  0.0457
 1837SOL    HW2 7394   2.916   1.568   3.244 -1.3792 -0.4647  0.0874
 1837SOL    HW3 7395   2.988   1.620   3.121  0.8267 -0.4260  1.3707
 1837SOL    MW4 7396   2.925   1.572   3.157 -0.0246 -0.1889  0.2258
 1838SOL     OW 7397   2.707   1.628   2.951  0.0283  0.9787 -0.4151
 1838SOL    HW2 7398   2.780   1.579   2.991 -0.3355  0.1674 -0.7395
 1838SOL    HW3 7399   2.629   1.593   2.992 -0.4257 -0.4827 -2.4418
 1838SOL    MW4 7400   2.707   1.617   2.962 -0.0796  0.6788 -0.7250
 1839SOL     OW 7401   2.670   1.886   3.133 -0.4885  0.2434 -0.0557
 1839SOL    HW2 7402   2.737   1.953   3.124  0.1466 -0.2504  0.9090
 1839SOL    HW3 7403   2.708   1.809   3.090  0.9757 -1.0073  3.3027
 1839SOL    MW4 7404   2.684   1.885   3.126 -0.2120  0.0132  0.5150
 1840SOL     OW 7405   2.882   2.058   3.068 -0.1989 -0.2490 -0.2155
 1840SOL    HW2 7406   2.894   2.149   3.093  2.3046 -0.6592  0.2321
 1840SOL    HW3 7407   2.873   2.060   2.972  0.6699  0.4098 -0.2910
 1840SOL    MW4 7408   2.882   2.070   3.058  0.2463 -0.2165 -0.1664
 1841SOL     OW 7409   2.937   2.345   3.124 -0.2175  0.7739 -0.0802
 1841SOL    HW2 7410   3.008   2.396   3.086 -0.2298 -0.2847 -1.5639
 1841SOL    HW3 7411   2.858   2.398   3.108 -0.0883  0.8072 -0.5995
 1841SOL    MW4 7412   2.936   2.359   3.117 -0.2024  0.6387 -0.3443
 1842SOL     OW 7413   2.692   2.455   3.059 -0.2034  0.0552 -0.2968
 1842SOL    HW2 7414   2.688   2.543   3.097  1.1769 -0.2627  0.6519
 1842SOL    HW3 7415   2.605   2.419   3.074 -0.5784  1.0192 -0.0908
 1842SOL    MW4 7416   2.680   2.462   3.066 -0.0708  0.1404 -0.1445
 1843SOL     OW 7417   2.680   2.703   3.135 -0.2541 -0.0895  0.2189
 1843SOL    HW2 7418   2.699   2.705   3.228  0.3826 -1.4338  0.1407
 1843SOL    HW3 7419   2.600   2.754   3.125 -1.0009 -0.9322  1.6810
 1843SOL    MW4 7420   2.672   2.710   3.146 -0.2687 -0.3779  0.4015
 1844SOL     OW 7421   2.891   2.877   3.029 -0.1309 -0.2057  0.0548
 1844SOL    HW2 7422   2.970   2.829   3.054  0.0525  0.0998  0.0749
 1844SOL    HW3 7423   2.819   2.818   3.049  0.1189 -0.6767 -0.4203
 1844SOL    MW4 7424   2.892   2.863   3.035 -0.0739 -0.2275 -0.0052
 1845SOL     OW 7425   2.952   3.115   3.150 -0.2882  0.1854 -0.3271
 1845SOL    HW2 7426   2.880   3.169   3.119 -1.1529 -0.5724  0.3634
 1845SOL    HW3 7427   2.940   3.030   3.107  0.0034 -0.0454  0.0439
 1845SOL    MW4 7428   2.941   3.111   3.140 -0.3638  0.0548 -0.1872
 1846SOL     OW 7429   2.750   3.245   3.037 -0.1278 -0.3329 -0.0894
 1846SOL    HW2 7430   2.723   3.336   3.046  0.9239 -0.1419  1.2611
 1846SOL    HW3 7431   2.756   3.230   2.943  1.6217  1.5645 -0.2885
 1846SOL    MW4 7432   2.747   3.255   3.026  0.2418 -0.0572  0.0625
 1847SOL     OW 7433   2.694   3.511   3.104 -0.3558 -0.1689 -0.0243
 1847SOL    HW2 7434   2.686   3.512   3.199  0.3126 -1.3806  0.0434
 1847SOL    HW3 7435   2.779   3.551   3.086 -0.1253 -0.6861 -0.0799
 1847SOL    MW4 7436   2.704   3.517   3.114 -0.2375 -0.3967 -0.0226
 1848SOL     OW 7437   2.916   3.614   3.013  0.5424  0.3929 -0.0712
 1848SOL    HW2 7438   3.001   3.588   3.048  0.3957  0.9832  0.7427
 1848SOL    HW3 7439   2.906   3.706   3.039 -0.7147  0.0880  0.5813
 1848SOL    MW4 7440   2.926   3.623   3.021  0.3572  0.4303  0.1223
 1849SOL     OW 7441   2.897   3.879   3.070 -0.1410 -0.1873  0.0424
 1849SOL    HW2 7442   2.886   3.884   3.165  0.2600  0.7769  0.0540
 1849SOL    HW3 7443   2.817   3.917   3.034 -0.2051 -0.3607  0.0059
 1849SOL    MW4 7444   2.885   3.885   3.078 -0.0966 -0.0832  0.0393
 1850SOL     OW 7445   2.676   4.037   2.998  0.1264 -0.2404 -0.0996
 1850SOL    HW2 7446   2.681   4.132   3.009 -2.5941 -0.0286 -0.3216
 1850SOL    HW3 7447   2.685   4.024   2.904  0.1453 -0.1801 -0.1065
 1850SOL    MW4 7448   2.678   4.048   2.987 -0.2298 -0.2046 -0.1297
 1851SOL     OW 7449   2.695   4.301   3.098 -0.3436 -0.3186  0.5708
 1851SOL    HW2 7450   2.692   4.294   3.193 -1.3971  0.5475  0.6026
 1851SOL    HW3 7451   2.614   4.344   3.074 -0.7290 -1.7897 -0.8512
 1851SOL    MW4 7452   2.684   4.305   3.107 -0.5333 -0.3986  0.3877
 1852SOL     OW 7453   2.926   4.414   2.999  0.0263 -0.1091 -0.7626
 1852SOL    HW2 7454   3.004   4.373   3.036 -0.0953 -0.0803 -0.4798
 1852SOL    HW3 7455   2.853   4.363   3.034  0.0437 -1.9800 -3.3014
 1852SOL    MW4 7456   2.927   4.402   3.008  0.0126 -0.3524 -1.0602
 1853SOL     OW 7457   3.341   0.030   3.103 -0.2704  0.3140  0.3050
 1853SOL    HW2 7458   3.419   0.065   3.060  0.3894  0.1401  1.3352
 1853SOL    HW3 7459   3.327  -0.055   3.062 -0.1727  0.5377 -0.1908
 1853SOL    MW4 7460   3.349   0.024   3.092 -0.1705  0.3205  0.3755
 1854SOL     OW 7461   3.098   0.131   3.026 -0.0146 -0.0894 -0.2047
 1854SOL    HW2 7462   3.110   0.220   3.059  0.0077 -0.1527 -0.0409
 1854SOL    HW3 7463   3.181   0.087   3.042  0.1999  0.0538 -0.9052
 1854SOL    MW4 7464   3.110   0.136   3.032  0.0169 -0.0789 -0.2754
 1855SOL     OW 7465   3.145   0.388   3.112  0.2087 -0.4538 -0.4715
 1855SOL    HW2 7466   3.222   0.431   3.075 -0.1543  0.8148  0.2183
 1855SOL    HW3 7467   3.071   0.440   3.080 -0.1035  0.8557  2.2204
 1855SOL    MW4 7468   3.145   0.401   3.103  0.1194 -0.1137 -0.0253
 1856SOL     OW 7469   3.384   0.511   3.021 -0.3590  0.2778 -0.1647
 1856SOL    HW2 7470   3.456   0.448   3.022  0.9424  1.7258  0.6199
 1856SOL    HW3 7471   3.350   0.506   2.932 -0.2162 -1.4592 -0.1300
 1856SOL    MW4 7472   3.389   0.502   3.009 -0.1686  0.2396 -0.0567
 1857SOL     OW 7473   3.361   0.771   3.104  0.2189 -0.2028 -0.2361
 1857SOL    HW2 7474   3.366   0.760   3.199  0.6748 -0.6046 -0.3025
 1857SOL    HW3 7475   3.380   0.683   3.070 -0.2505 -0.1280 -0.6872
 1857SOL    MW4 7476   3.364   0.758   3.112  0.2170 -0.2459 -0.3047
 1858SOL     OW 7477   3.160   0.907   2.983 -0.1604 -0.2654 -0.1238
 1858SOL    HW2 7478   3.229   0.850   3.016  0.3233  0.2933 -0.1450
 1858SOL    HW3 7479   3.079   0.870   3.017  0.2857 -0.0185  1.2328
 1858SOL    MW4 7480   3.158   0.895   2.991 -0.0377 -0.1591  0.0527
 1859SOL     OW 7481   3.151   1.162   3.104 -0.2066 -0.4718 -0.5291
 1859SOL    HW2 7482   3.234   1.206   3.086 -0.6741  0.1714 -1.1663
 1859SOL    HW3 7483   3.161   1.075   3.067  0.3827 -0.5769 -0.1203
 1859SOL    MW4 7484   3.163   1.157   3.097 -0.1905 -0.4008 -0.5593
 1860SOL     OW 7485   3.378   1.269   3.001 -0.1817 -0.0575  0.2434
 1860SOL    HW2 7486   3.453   1.220   3.036  1.4461  1.0529 -1.5764
 1860SOL    HW3 7487   3.385   1.355   3.041 -0.6352 -0.0220  0.2489
 1860SOL    MW4 7488   3.389   1.274   3.011 -0.0269  0.0937  0.0043
 1861SOL     OW 7489   3.349   1.524   3.101 -0.0121 -0.1014  0.1552
 1861SOL    HW2 7490   3.353   1.503   3.194  0.2136  0.2694  0.2299
 1861SOL    HW3 7491   3.426   1.578   3.085  0.6189 -1.1827 -0.5068
 1861SOL    MW4 7492   3.359   1.528   3.111  0.1009 -0.1950  0.0777
 1862SOL     OW 7493   3.129   1.700   3.028  0.2391 -0.3494 -0.8453
 1862SOL    HW2 7494   3.208   1.650   3.048 -0.3061 -1.6008 -1.7320
 1862SOL    HW3 7495   3.125   1.701   2.932 -0.2939  0.5607 -0.8231
 1862SOL    MW4 7496   3.139   1.694   3.018  0.0968 -0.3943 -0.9592
 1863SOL     OW 7497   3.144   1.962   3.084 -0.0483  0.1378 -0.0839
 1863SOL    HW2 7498   3.131   1.871   3.059 -0.0587 -0.1364  0.8962
 1863SOL    HW3 7499   3.057   2.001   3.078  0.2789  0.5976 -2.4337
 1863SOL    MW4 7500   3.131   1.955   3.080 -0.0064  0.1622 -0.2649
 1864SOL     OW 7501   3.388   2.093   3.003 -0.4729  0.1592 -0.1237
 1864SOL    HW2 7502   3.450   2.039   3.051  0.5286  0.7496 -0.7296
 1864SOL    HW3 7503   3.304   2.049   3.015  0.4425 -2.0353 -1.3089
 1864SOL    MW4 7504   3.385   2.080   3.011 -0.2198 -0.0527 -0.3600
 1865SOL     OW 7505   3.353   2.342   3.102 -0.0408 -0.1540 -0.4442
 1865SOL    HW2 7506   3.354   2.332   3.197  0.0305  0.7098 -0.3472
 1865SOL    HW3 7507   3.363   2.253   3.068 -1.2718 -0.6041  0.3439
 1865SOL    MW4 7508   3.355   2.329   3.110 -0.1938 -0.0994 -0.3273
 1866SOL     OW 7509   3.148   2.487   3.004 -0.4081  0.1695  0.1301
 1866SOL    HW2 7510   3.220   2.445   3.051 -1.0883  0.5390  1.5615
 1866SOL    HW3 7511   3.160   2.462   2.913 -0.3929 -2.5093  0.8445
 1866SOL    MW4 7512   3.159   2.478   2.998 -0.4959 -0.1354  0.4134
 1867SOL     OW 7513   3.124   2.747   3.074 -0.0343 -0.0313  0.3694
 1867SOL    HW2 7514   3.138   2.755   3.168  0.8562  1.7411  0.1223
 1867SOL    HW3 7515   3.137   2.655   3.055  0.0286 -0.3649  1.9399
 1867SOL    MW4 7516   3.127   2.736   3.084  0.0913  0.1583  0.5443
 1868SOL     OW 7517   3.423   2.817   3.010 -0.2166 -0.1216 -0.1043
 1868SOL    HW2 7518   3.415   2.909   3.034  1.0839 -0.1619  0.5503
 1868SOL    HW3 7519   3.335   2.781   3.021 -0.7566  1.0641 -0.4985
 1868SOL    MW4 7520   3.410   2.824   3.015 -0.1161  0.0296 -0.0699
 1869SOL     OW 7521   3.407   3.092   3.077 -0.1016  0.1404 -0.2427
 1869SOL    HW2 7522   3.423   3.087   3.171 -0.6241 -1.2977 -0.2199
 1869SOL    HW3 7523   3.323   3.137   3.070  0.7660  1.8448 -0.1146
 1869SOL    MW4 7524   3.398   3.097   3.088 -0.0563  0.1757 -0.2227
 1870SOL     OW 7525   3.190   3.262   3.046 -0.1447  0.1418 -0.5367
 1870SOL    HW2 7526   3.106   3.231   3.080  0.5200 -1.2820 -0.1688
 1870SOL    HW3 7527   3.180   3.258   2.951 -1.3936  2.4784 -0.5391
 1870SOL    MW4 7528   3.178   3.258   3.038 -0.2217  0.2623 -0.4885
 1871SOL     OW 7529   3.176   3.516   3.117  0.3000  0.0987 -0.1276
 1871SOL    HW2 7530   3.260   3.561   3.108 -0.5372  1.8162  0.4438
 1871SOL    HW3 7531   3.194   3.426   3.088  2.4688  0.2719  0.5707
 1871SOL    MW4 7532   3.190   3.510   3.112  0.4759  0.3481  0.0401
 1872SOL     OW 7533   3.420   3.618   3.000 -0.1699  0.0967  0.2994
 1872SOL    HW2 7534   3.507   3.604   3.039  0.0936 -0.0744 -0.3472
 1872SOL    HW3 7535   3.394   3.705   3.031 -0.0107 -0.0801  0.9438
 1872SOL    MW4 7536   3.428   3.628   3.009 -0.1142  0.0505  0.2992
 1873SOL     OW 7537   3.354   3.873   3.102  0.0780 -0.1696  0.2579
 1873SOL    HW2 7538   3.349   3.880   3.197  2.5466  3.7357  0.2120
 1873SOL    HW3 7539   3.270   3.908   3.071 -0.4080 -0.7092  0.9449
 1873SOL    MW4 7540   3.342   3.878   3.111  0.3397  0.2744  0.3426
 1874SOL     OW 7541   3.127   4.036   2.999 -0.2085 -0.2040  0.1515
 1874SOL    HW2 7542   3.038   4.004   3.016 -0.6763  1.0235  0.0209
 1874SOL    HW3 7543   3.142   4.016   2.906  0.1187 -1.5052  0.4706
 1874SOL    MW4 7544   3.117   4.029   2.989 -0.2270 -0.2141  0.1764
 1875SOL     OW 7545   3.148   4.281   3.120  0.0228 -0.3987  0.2952
 1875SOL    HW2 7546   3.145   4.263   3.214 -0.9129 -0.7095  0.2050
 1875SOL    HW3 7547   3.151   4.195   3.079 -0.6098 -0.2830  0.0017
 1875SOL    MW4 7548   3.148   4.267   3.127 -0.1841 -0.4244  0.2441
 1876SOL     OW 7549   3.341   4.430   3.006  0.1129 -0.0260 -0.1483
 1876SOL    HW2 7550   3.412   4.387   3.054 -1.2316 -1.6038  0.4964
 1876SOL    HW3 7551   3.261   4.388   3.039 -1.2466  2.6835  0.1761
 1876SOL    MW4 7552   3.340   4.419   3.017 -0.2439  0.1230 -0.0205
 1877SOL     OW 7553   3.800   4.599   3.138 -0.7490 -0.3130 -0.6247
 1877SOL    HW2 7554   3.797   4.514   3.096  2.1742  0.2564 -2.1606
 1877SOL    HW3 7555   3.724   4.646   3.104 -0.7208 -1.2851 -2.0804
 1877SOL    MW4 7556   3.790   4.594   3.128 -0.3598 -0.3657 -1.0192
 1878SOL     OW 7557   3.601   0.074   2.983 -0.2241 -0.4138  0.7932
 1878SOL    HW2 7558   3.625   0.162   3.012 -0.6881 -0.7308  2.1627
 1878SOL    HW3 7559   3.606   0.078   2.888  1.1547  0.7008  0.8908
 1878SOL    MW4 7560   3.605   0.086   2.975 -0.1035 -0.3086  0.9868
 1879SOL     OW 7561   3.592   0.335   3.081 -0.5205  0.1011  0.8637
 1879SOL    HW2 7562   3.592   0.327   3.176  0.0703  0.6013  0.9049
 1879SOL    HW3 7563   3.676   0.375   3.060 -0.7727  0.2606  0.1550
 1879SOL    MW4 7564   3.603   0.339   3.091 -0.4759  0.1881  0.7756
 1880SOL     OW 7565   3.816   0.493   3.024  0.6322 -0.1051  0.0075
 1880SOL    HW2 7566   3.881   0.449   3.079  1.7183  0.7680 -0.5501
 1880SOL    HW3 7567   3.810   0.581   3.060 -0.3658 -0.2220  0.1437
 1880SOL    MW4 7568   3.824   0.499   3.036  0.6440 -0.0053 -0.0479
 1881SOL     OW 7569   3.801   0.778   3.104  0.1742  0.1334 -0.2869
 1881SOL    HW2 7570   3.819   0.770   3.197  0.6095  0.7777 -0.3082
 1881SOL    HW3 7571   3.883   0.811   3.067 -0.1134  0.2283 -0.8393
 1881SOL    MW4 7572   3.815   0.781   3.111  0.1936  0.2310 -0.3624
 1882SOL     OW 7573   3.577   0.871   2.981  0.0556 -0.3915 -0.1168
 1882SOL    HW2 7574   3.656   0.837   3.024 -0.2080 -0.6875  0.1262
 1882SOL    HW3 7575   3.504   0.831   3.027 -0.2222 -1.6237 -1.5938
 1882SOL    MW4 7576   3.578   0.861   2.992 -0.0155 -0.5931 -0.2797
 1883SOL     OW 7577   3.580   1.137   3.127 -0.0217 -0.2357  0.5230
 1883SOL    HW2 7578   3.653   1.188   3.091 -0.2753 -0.1430  0.1431
 1883SOL    HW3 7579   3.596   1.048   3.094 -0.8380  0.0627 -0.6996
 1883SOL    MW4 7580   3.592   1.132   3.118 -0.1626 -0.1839  0.3114
 1884SOL     OW 7581   3.770   1.292   3.016  0.2015  0.1162 -0.0357
 1884SOL    HW2 7582   3.775   1.382   3.047  3.0491 -0.0692  0.1812
 1884SOL    HW3 7583   3.762   1.300   2.921  0.3608  0.5809 -0.0077
 1884SOL    MW4 7584   3.769   1.305   3.007  0.5984  0.1531 -0.0033
 1885SOL     OW 7585   3.828   1.550   3.125  0.1418 -0.3935 -0.6142
 1885SOL    HW2 7586   3.817   1.551   3.220  0.6052 -1.2158 -0.5454
 1885SOL    HW3 7587   3.750   1.593   3.091  0.0414  0.0257  0.1494
 1885SOL    MW4 7588   3.817   1.555   3.133  0.1895 -0.4467 -0.5043
 1886SOL     OW 7589   3.578   1.658   3.036 -0.4390 -0.3858 -0.1029
 1886SOL    HW2 7590   3.569   1.747   3.070  0.8858 -0.2890  0.0281
 1886SOL    HW3 7591   3.572   1.667   2.941  0.8849  0.0061 -0.1548
 1886SOL    MW4 7592   3.576   1.671   3.028 -0.0896 -0.3214 -0.0923
 1887SOL     OW 7593   3.571   1.930   3.137  0.4382 -0.4391 -0.3461
 1887SOL    HW2 7594   3.582   1.928   3.232  0.0076 -2.3212 -0.3208
 1887SOL    HW3 7595   3.651   1.971   3.104  0.7789 -0.1885  0.7892
 1887SOL    MW4 7596   3.583   1.935   3.145  0.4263 -0.6545 -0.1931
 1888SOL     OW 7597   3.797   2.041   3.018 -0.3679  0.2482  0.2513
 1888SOL    HW2 7598   3.799   2.134   3.039 -0.3668  0.4617 -0.6875
 1888SOL    HW3 7599   3.794   2.037   2.922 -1.7245 -0.6872  0.3096
 1888SOL    MW4 7600   3.797   2.052   3.008 -0.5465  0.1531  0.1349
 1889SOL     OW 7601   3.784   2.305   3.110 -0.1698  0.0720  0.2175
 1889SOL    HW2 7602   3.784   2.319   3.205 -2.4512 -0.5210  0.3243
 1889SOL    HW3 7603   3.720   2.368   3.076  0.1321 -0.1874 -0.8537
 1889SOL    MW4 7604   3.776   2.315   3.118 -0.4308 -0.0405  0.0906
 1890SOL     OW 7605   3.603   2.481   3.031 -0.1049 -0.2887 -0.4583
 1890SOL    HW2 7606   3.604   2.567   3.074 -0.5089  0.4276 -1.8555
 1890SOL    HW3 7607   3.512   2.452   3.037  0.0083 -0.5643 -0.0878
 1890SOL    MW4 7608   3.591   2.489   3.038 -0.1433 -0.2303 -0.5937
 1891SOL     OW 7609   3.654   2.738   3.116  0.4325  0.0021 -0.3545
 1891SOL    HW2 7610   3.727   2.783   3.075  0.5821  1.5691  1.5533
 1891SOL    HW3 7611   3.576   2.774   3.073  0.6197  0.9912  0.1371
 1891SOL    MW4 7612   3.653   2.749   3.105  0.4768  0.3395 -0.0379
 1892SOL     OW 7613   3.895   2.852   2.988  0.1796  0.0806 -0.3997
 1892SOL    HW2 7614   3.866   2.939   3.016 -0.4677 -0.0745 -0.5705
 1892SOL    HW3 7615   3.854   2.839   2.903  0.5234 -0.2689 -0.5152
 1892SOL    MW4 7616   3.886   2.861   2.981  0.1397  0.0141 -0.4373
 1893SOL     OW 7617   3.806   3.098   3.063  0.4427  0.2300 -0.6323
 1893SOL    HW2 7618   3.892   3.136   3.045  0.7722  1.0310  2.3075
 1893SOL    HW3 7619   3.744   3.158   3.021  1.0858  2.8122  1.9025
 1893SOL    MW4 7620   3.809   3.111   3.055  0.5710  0.6764  0.0899
 1894SOL     OW 7621   3.625   3.283   2.992 -0.2988 -0.5978 -0.1124
 1894SOL    HW2 7622   3.552   3.235   3.032 -0.9798  1.5137  1.2612
 1894SOL    HW3 7623   3.604   3.286   2.899 -2.5236  0.8492  0.3850
 1894SOL    MW4 7624   3.612   3.277   2.985 -0.6824 -0.1283  0.1345
 1895SOL     OW 7625   3.644   3.527   3.141 -0.0624 -0.0349  0.2440
 1895SOL    HW2 7626   3.719   3.570   3.102  0.3516 -0.3917  0.6345
 1895SOL    HW3 7627   3.657   3.434   3.123 -0.1511 -0.1481  0.7449
 1895SOL    MW4 7628   3.656   3.520   3.134 -0.0193 -0.0970  0.3617
 1896SOL     OW 7629   3.859   3.633   2.973  0.6904  0.2646  0.5343
 1896SOL    HW2 7630   3.863   3.728   2.987  0.7739  0.1102  1.6235
 1896SOL    HW3 7631   3.818   3.623   2.887 -2.6517  1.2331  1.9081
 1896SOL    MW4 7632   3.854   3.644   2.963  0.2604  0.3722  0.8593
 1897SOL     OW 7633   3.809   3.884   3.097 -0.1405  0.3143 -0.2304
 1897SOL    HW2 7634   3.824   3.886   3.192  0.9976 -0.5309 -0.3852
 1897SOL    HW3 7635   3.740   3.948   3.083 -0.3049  0.4689  1.1740
 1897SOL    MW4 7636   3.802   3.893   3.108 -0.0119  0.2229 -0.0653
 1898SOL     OW 7637   3.579   4.036   3.045  0.0948 -0.2286 -0.6156
 1898SOL    HW2 7638   3.512   3.980   3.085 -0.7090  1.2681  0.1547
 1898SOL    HW3 7639   3.581   4.008   2.953  0.5620 -2.3297  0.0011
 1898SOL    MW4 7640   3.570   4.025   3.038  0.0505 -0.3080 -0.4325
 1899SOL     OW 7641   3.577   4.309   3.094 -0.0239  0.1725  0.0152
 1899SOL    HW2 7642   3.663   4.346   3.078 -1.2290  2.4695 -1.3829
 1899SOL    HW3 7643   3.582   4.221   3.056  2.8399 -1.1778  3.3152
 1899SOL    MW4 7644   3.589   4.302   3.087  0.1950  0.2975  0.2661
 1900SOL     OW 7645   3.831   4.356   3.009  0.5670 -0.2600  0.1551
 1900SOL    HW2 7646   3.894   4.301   3.055  0.3334 -0.3333  0.3868
 1900SOL    HW3 7647   3.858   4.353   2.917  0.0568 -1.4366  0.0418
 1900SOL    MW4 7648   3.843   4.349   3.003  0.4687 -0.4253  0.1707
 1901SOL     OW 7649   4.223   4.655   3.117  0.5066 -0.3381 -0.0505
 1901SOL    HW2 7650   4.248   4.669   3.209 -1.0921  1.3418  0.1680
 1901SOL    HW3 7651   4.232   4.560   3.104  1.5725 -0.4860  1.5845
 1901SOL    MW4 7652   4.227   4.644   3.128  0.4363 -0.1359  0.1938
 1902SOL     OW 7653   3.986   0.084   3.004 -0.2835  0.3589  0.1629
 1902SOL    HW2 7654   4.064   0.042   3.040  0.4611  0.2675 -1.5395
 1902SOL    HW3 7655   3.914   0.030   3.036  0.3952  0.0093  1.1331
 1902SOL    MW4 7656   3.987   0.071   3.013 -0.0956  0.3007  0.0665
 1903SOL     OW 7657   4.010   0.338   3.131  0.6517  0.2928  0.2793
 1903SOL    HW2 7658   4.079   0.385   3.085 -0.0409  0.4718 -0.6000
 1903SOL    HW3 7659   3.992   0.262   3.076 -1.5424  1.5256 -0.8148
 1903SOL    MW4 7660   4.016   0.334   3.118  0.2708  0.4791  0.0188
 1904SOL     OW 7661   4.238   0.470   3.022  0.0904 -0.3239 -0.4394
 1904SOL    HW2 7662   4.236   0.561   3.051  1.2286 -0.6266  0.6250
 1904SOL    HW3 7663   4.240   0.476   2.926 -1.3762  0.7207 -0.4258
 1904SOL    MW4 7664   4.238   0.483   3.013  0.0467 -0.2260 -0.2971
 1905SOL     OW 7665   4.271   0.754   3.070 -0.1479 -0.0073  0.1935
 1905SOL    HW2 7666   4.188   0.801   3.060  0.0133  0.0626 -0.8658
 1905SOL    HW3 7667   4.338   0.819   3.050  0.1259 -0.3673 -0.0527
 1905SOL    MW4 7668   4.269   0.769   3.066 -0.0911 -0.0456  0.0215
 1906SOL     OW 7669   4.048   0.903   3.008  0.4975  0.4129 -0.6211
 1906SOL    HW2 7670   4.029   0.993   3.034  2.1499  0.8549 -0.8529
 1906SOL    HW3 7671   4.054   0.906   2.913  1.6577  0.2904 -0.5590
 1906SOL    MW4 7672   4.046   0.915   2.999  0.8693  0.4551 -0.6437
 1907SOL     OW 7673   3.999   1.152   3.103 -0.6470  0.1059  0.2534
 1907SOL    HW2 7674   3.984   1.144   3.198 -0.0010 -1.7875  0.2183
 1907SOL    HW3 7675   3.936   1.218   3.075  0.3600  2.0172  2.2877
 1907SOL    MW4 7676   3.989   1.160   3.112 -0.4289  0.1081  0.5171
 1908SOL     OW 7677   4.251   1.277   3.050 -0.1047 -0.3724  0.0402
 1908SOL    HW2 7678   4.166   1.246   3.083 -0.9031  0.0559 -1.5702
 1908SOL    HW3 7679   4.244   1.268   2.955  1.9547 -1.0808 -0.0705
 1908SOL    MW4 7680   4.239   1.272   3.041  0.0615 -0.4094 -0.1869
 1909SOL     OW 7681   4.286   1.541   3.121  0.0203 -0.3998 -0.0211
 1909SOL    HW2 7682   4.200   1.572   3.092 -0.3594 -0.6324  0.8328
 1909SOL    HW3 7683   4.286   1.448   3.101 -0.2767 -0.5784  0.7896
 1909SOL    MW4 7684   4.275   1.533   3.114 -0.0691 -0.4541  0.1986
 1910SOL     OW 7685   4.054   1.663   3.045 -0.5722  0.0214  0.1652
 1910SOL    HW2 7686   4.028   1.747   3.082 -1.7624 -0.0450 -0.4923
 1910SOL    HW3 7687   3.980   1.605   3.064  0.7799 -1.2234  1.7481
 1910SOL    MW4 7688   4.041   1.666   3.052 -0.5503 -0.1516  0.2875
 1911SOL     OW 7689   4.011   1.916   3.115  0.2419 -0.5052  0.2735
 1911SOL    HW2 7690   4.091   1.968   3.105 -0.0097  0.1065  1.4104
 1911SOL    HW3 7691   3.941   1.975   3.089  0.0478 -0.6151  0.5445
 1911SOL    MW4 7692   4.012   1.931   3.110  0.1831 -0.4388  0.4592
 1912SOL     OW 7693   4.250   2.050   3.061 -0.4530  0.2086 -0.4645
 1912SOL    HW2 7694   4.253   2.143   3.082 -0.9028  0.4277 -1.3153
 1912SOL    HW3 7695   4.251   2.048   2.965 -0.9900 -0.6349 -0.4595
 1912SOL    MW4 7696   4.250   2.062   3.051 -0.5832  0.1264 -0.5760
 1913SOL     OW 7697   4.284   2.327   3.138  0.4988  0.1652 -0.3891
 1913SOL    HW2 7698   4.199   2.356   3.104 -0.0641 -2.0292 -0.9179
 1913SOL    HW3 7699   4.348   2.384   3.096 -0.7050  2.0862  0.2778
 1913SOL    MW4 7700   4.281   2.338   3.128  0.2656  0.1290 -0.3712
 1914SOL     OW 7701   4.055   2.443   3.012 -0.0252  0.2433  0.5687
 1914SOL    HW2 7702   4.067   2.533   3.041  0.1334  0.5009 -0.2599
 1914SOL    HW3 7703   3.970   2.416   3.047 -0.6039  1.1154 -0.1412
 1914SOL    MW4 7704   4.046   2.451   3.020 -0.0806  0.3924  0.3660
 1915SOL     OW 7705   4.084   2.706   3.117 -0.1328  0.4228 -0.7680
 1915SOL    HW2 7706   4.073   2.707   3.212  0.2416 -3.0039 -0.6227
 1915SOL    HW3 7707   4.009   2.756   3.084 -1.7052 -0.5042  1.2400
 1915SOL    MW4 7708   4.072   2.713   3.125 -0.2909 -0.1516 -0.4840
 1916SOL     OW 7709   4.280   2.869   3.003 -0.0640  0.2748  0.4529
 1916SOL    HW2 7710   4.213   2.823   3.054 -1.4872  0.7087 -0.9716
 1916SOL    HW3 7711   4.363   2.835   3.037 -1.0385 -2.9964 -0.2304
 1916SOL    MW4 7712   4.282   2.858   3.014 -0.3810 -0.0994  0.1748
 1917SOL     OW 7713   4.259   3.124   3.107  0.6201 -0.1807  0.1520
 1917SOL    HW2 7714   4.179   3.150   3.061  1.0711  2.0569  0.5881
 1917SOL    HW3 7715   4.268   3.030   3.089 -1.7109 -0.3057 -0.4856
 1917SOL    MW4 7716   4.249   3.115   3.099  0.3724  0.0978  0.1254
 1918SOL     OW 7717   4.030   3.220   2.973  0.1791  0.2358 -0.0277
 1918SOL    HW2 7718   4.050   3.309   3.002  1.3887 -0.3364  0.9799
 1918SOL    HW3 7719   4.060   3.217   2.882 -0.6375  1.0932 -0.3311
 1918SOL    MW4 7720   4.037   3.232   2.965  0.2308  0.2732  0.0651
 1919SOL     OW 7721   4.066   3.466   3.083 -0.1054  0.0024 -0.1403
 1919SOL    HW2 7722   4.056   3.475   3.178  0.0709  0.4485 -0.1631
 1919SOL    HW3 7723   4.000   3.525   3.047  0.3191  0.3863 -0.2926
 1919SOL    MW4 7724   4.056   3.475   3.091 -0.0267  0.1118 -0.1633
 1920SOL     OW 7725   4.273   3.637   2.999  0.0355 -0.5464 -0.2213
 1920SOL    HW2 7726   4.277   3.718   3.049 -0.6512  0.9061 -2.4368
 1920SOL    HW3 7727   4.199   3.589   3.036 -0.1209  0.2485  0.5051
 1920SOL    MW4 7728   4.264   3.641   3.010 -0.0758 -0.2499 -0.4177
 1921SOL     OW 7729   4.284   3.879   3.149  0.4119  0.1108  0.0738
 1921SOL    HW2 7730   4.206   3.901   3.098  0.1401  0.8805  0.8132
 1921SOL    HW3 7731   4.354   3.931   3.111  0.0239  1.3577  1.0383
 1921SOL    MW4 7732   4.283   3.889   3.137  0.3242  0.3769  0.2983
 1922SOL     OW 7733   4.058   3.985   3.021  0.3783 -0.2908  0.3736
 1922SOL    HW2 7734   4.058   4.074   3.058 -0.0098 -0.6998  1.3756
 1922SOL    HW3 7735   3.975   3.947   3.051 -0.0969 -0.5304 -1.1857
 1922SOL    MW4 7736   4.047   3.992   3.030  0.2637 -0.3762  0.2999
 1923SOL     OW 7737   4.041   4.241   3.127 -0.2463 -0.2549  0.2451
 1923SOL    HW2 7738   4.064   4.246   3.220  1.1096 -0.6838 -0.0517
 1923SOL    HW3 7739   4.105   4.298   3.084 -2.0861  1.5175 -0.2481
 1923SOL    MW4 7740   4.052   4.249   3.133 -0.3099 -0.0782  0.1411
 1924SOL     OW 7741   4.256   4.389   3.018 -0.2538 -0.0798  0.0279
 1924SOL    HW2 7742   4.344   4.362   3.045  0.1185  0.2530 -0.8435
 1924SOL    HW3 7743   4.258   4.387   2.923 -1.2508 -0.2369  0.0043
 1924SOL    MW4 7744   4.268   4.386   3.009 -0.3366 -0.0563 -0.0901
 1925SOL     OW 7745   0.219   4.665   3.382  0.0688  0.3450  0.5183
 1925SOL    HW2 7746   0.291   4.701   3.434  0.1908 -0.4061  0.8712
 1925SOL    HW3 7747   0.218   4.572   3.403 -1.2716  0.4175  0.8357
 1925SOL    MW4 7748   0.229   4.658   3.392 -0.0920  0.2551  0.6068
 1926SOL     OW 7749   0.019   0.143   3.526 -0.3513  0.2444  0.1915
 1926SOL    HW2 7750   0.024   0.226   3.479 -1.6591  0.3067  0.1249
 1926SOL    HW3 7751   0.084   0.087   3.483  0.1713  1.0695 -0.1030
 1926SOL    MW4 7752   0.028   0.146   3.514 -0.4549  0.3615  0.1440
 1927SOL     OW 7753   0.003   0.393   3.401 -0.4036  0.0222  0.2166
 1927SOL    HW2 7754  -0.083   0.414   3.437 -0.1886  1.0122  0.1750
 1927SOL    HW3 7755   0.064   0.450   3.449  0.2179 -0.5990  0.1829
 1927SOL    MW4 7756  -0.000   0.404   3.412 -0.2933  0.0709  0.2067
 1928SOL     OW 7757   0.198   0.534   3.530 -0.2012  0.0381 -0.1769
 1928SOL    HW2 7758   0.271   0.496   3.480 -0.7162 -0.1530 -0.7850
 1928SOL    HW3 7759   0.207   0.628   3.518  2.6539  0.3368  3.4879
 1928SOL    MW4 7760   0.209   0.541   3.522  0.1076  0.0523  0.2265
 1929SOL     OW 7761   0.221   0.787   3.413  0.9727 -0.5193 -0.4035
 1929SOL    HW2 7762   0.292   0.837   3.454 -0.4507  0.6372  0.7176
 1929SOL    HW3 7763   0.141   0.830   3.444 -0.2028 -0.5321 -3.2316
 1929SOL    MW4 7764   0.220   0.800   3.422  0.6299 -0.3684 -0.6289
 1930SOL     OW 7765   4.464   0.890   3.504  0.1709 -0.0776 -0.2498
 1930SOL    HW2 7766   4.487   0.900   3.596 -2.8233  0.7428  0.4437
 1930SOL    HW3 7767   4.458   0.979   3.470 -0.9962 -0.3076 -0.6656
 1930SOL    MW4 7768   4.467   0.903   3.511 -0.3786  0.0003 -0.2131
 1931SOL     OW 7769   4.468   1.159   3.435  0.0930  0.1575 -0.0488
 1931SOL    HW2 7770   4.554   1.188   3.467  0.9319  0.2052 -2.2550
 1931SOL    HW3 7771   4.475   1.165   3.340 -2.0952 -0.6393 -0.2784
 1931SOL    MW4 7772   4.481   1.164   3.427 -0.0850  0.0584 -0.3703
 1932SOL     OW 7773   0.205   1.298   3.529 -0.6887 -0.0985 -0.3685
 1932SOL    HW2 7774   0.282   1.253   3.493  0.8301  0.3845  2.1495
 1932SOL    HW3 7775   0.196   1.376   3.475  0.6830 -0.0997 -0.6269
 1932SOL    MW4 7776   0.214   1.302   3.517 -0.3073 -0.0350 -0.0706
 1933SOL     OW 7777   0.224   1.553   3.399 -0.3477  0.3769 -0.5674
 1933SOL    HW2 7778   0.305   1.592   3.431 -0.9226  2.0419 -1.1024
 1933SOL    HW3 7779   0.235   1.550   3.304 -0.4942 -0.3421 -0.5613
 1933SOL    MW4 7780   0.236   1.558   3.391 -0.4429  0.5016 -0.6373
 1934SOL     OW 7781   0.001   1.696   3.502  0.1608  0.3863  0.4912
 1934SOL    HW2 7782  -0.073   1.642   3.474 -0.0654 -0.8318  3.3315
 1934SOL    HW3 7783   0.077   1.655   3.461 -0.4541  0.2540 -0.5378
 1934SOL    MW4 7784   0.001   1.684   3.493  0.0499  0.2081  0.7303
 1935SOL     OW 7785   0.030   1.963   3.439  0.4639  0.0575  0.0780
 1935SOL    HW2 7786   0.021   1.879   3.483  0.5509  0.1151  0.2058
 1935SOL    HW3 7787   0.013   1.944   3.347  1.4744 -0.2775 -0.0399
 1935SOL    MW4 7788   0.026   1.950   3.432  0.6087  0.0209  0.0794
 1936SOL     OW 7789   0.277   2.071   3.500 -0.0266 -0.1569 -0.1714
 1936SOL    HW2 7790   0.266   2.089   3.594 -0.0628 -0.9414 -0.0269
 1936SOL    HW3 7791   0.195   2.030   3.473  0.1811 -0.4040 -0.4358
 1936SOL    MW4 7792   0.265   2.068   3.509 -0.0040 -0.2928 -0.1872
 1937SOL     OW 7793   0.258   2.325   3.417  0.1699 -0.7293 -0.0403
 1937SOL    HW2 7794   0.176   2.366   3.446 -0.3680 -1.2661 -0.7982
 1937SOL    HW3 7795   0.253   2.236   3.453 -0.1969 -1.1879 -1.2114
 1937SOL    MW4 7796   0.246   2.319   3.426  0.0506 -0.8607 -0.2947
 1938SOL     OW 7797   0.019   2.439   3.501 -0.1675 -0.1504 -0.0481
 1938SOL    HW2 7798   0.020   2.425   3.596  0.9175  0.3688  0.0226
 1938SOL    HW3 7799  -0.063   2.400   3.472 -0.8315  0.2874  1.2011
 1938SOL    MW4 7800   0.008   2.432   3.510 -0.1125 -0.0243  0.1261
 1939SOL     OW 7801   4.471   2.711   3.396  0.1293  0.6599 -0.5329
 1939SOL    HW2 7802   4.542   2.750   3.446  0.6913 -0.4384 -0.4599
 1939SOL    HW3 7803   4.476   2.618   3.416 -0.0403  0.2955 -2.1287
 1939SOL    MW4 7804   4.481   2.704   3.405  0.1810  0.4668 -0.7336
 1940SOL     OW 7805   0.200   2.843   3.504 -0.3139 -0.1465  0.0583
 1940SOL    HW2 7806   0.284   2.803   3.480 -1.0091 -0.5984 -1.7076
 1940SOL    HW3 7807   0.214   2.937   3.490  0.0871 -0.1559  0.3816
 1940SOL    MW4 7808   0.213   2.850   3.499 -0.3527 -0.2074 -0.1318
 1941SOL     OW 7809   0.228   3.117   3.424  0.0922  0.3272  0.2414
 1941SOL    HW2 7810   0.147   3.153   3.459  0.8329  2.1631  0.1115
 1941SOL    HW3 7811   0.221   3.130   3.329  1.3623  2.2583  0.3951
 1941SOL    MW4 7812   0.217   3.123   3.416  0.3575  0.8242  0.2446
 1942SOL     OW 7813   4.482   3.215   3.539  0.6078 -0.2098 -0.1591
 1942SOL    HW2 7814   4.405   3.172   3.502  2.5400 -1.1742 -3.2371
 1942SOL    HW3 7815   4.485   3.299   3.494  0.9957  0.1090  0.4609
 1942SOL    MW4 7816   4.472   3.221   3.528  0.9141 -0.2952 -0.4833
 1943SOL     OW 7817   4.457   3.473   3.440  0.2848  0.0599  0.3219
 1943SOL    HW2 7818   4.372   3.501   3.474  1.2822  2.3194  1.0357
 1943SOL    HW3 7819   4.450   3.484   3.345 -0.1636  0.3787  0.3912
 1943SOL    MW4 7820   4.444   3.478   3.432  0.3572  0.4003  0.4251
 1944SOL     OW 7821   0.221   3.601   3.520  0.4784  0.5758  0.4706
 1944SOL    HW2 7822   0.213   3.617   3.614 -1.0427  3.7538 -0.0937
 1944SOL    HW3 7823   0.137   3.563   3.495  0.6986  0.1777  0.3423
 1944SOL    MW4 7824   0.209   3.598   3.529  0.3068  0.9425  0.3791
 1945SOL     OW 7825   0.223   3.836   3.372  0.4716  0.5503 -0.0744
 1945SOL    HW2 7826   0.141   3.866   3.412  0.1503  0.6174 -0.7703
 1945SOL    HW3 7827   0.247   3.758   3.421  0.2299  0.7936  0.4316
 1945SOL    MW4 7828   0.215   3.830   3.383  0.3973  0.5913 -0.0994
 1946SOL     OW 7829   0.025   4.007   3.496  0.3097 -0.3849 -0.4818
 1946SOL    HW2 7830   0.040   4.023   3.589 -1.9350 -0.0631 -0.1511
 1946SOL    HW3 7831   0.018   4.094   3.457 -0.8706 -0.5058 -0.5677
 1946SOL    MW4 7832   0.026   4.020   3.503 -0.1422 -0.3586 -0.4494
 1947SOL     OW 7833   4.476   4.259   3.399  0.3455  0.7738  0.7444
 1947SOL    HW2 7834   4.397   4.310   3.418  0.9489  1.8828  0.3371
 1947SOL    HW3 7835   4.547   4.310   3.438  1.2240  1.4074 -1.6032
 1947SOL    MW4 7836   4.475   4.273   3.407  0.5410  1.0033  0.3812
 1948SOL     OW 7837   0.215   4.412   3.487  0.1575 -0.4115  0.2348
 1948SOL    HW2 7838   0.199   4.413   3.581 -0.8674 -2.4231  0.0965
 1948SOL    HW3 7839   0.292   4.355   3.477  0.3932 -0.0317 -0.1348
 1948SOL    MW4 7840   0.223   4.405   3.498  0.0534 -0.6270  0.1678
 1949SOL     OW 7841   0.636   0.004   3.370  0.6416 -0.0055 -0.1809
 1949SOL    HW2 7842   0.716   0.046   3.404  0.5454 -0.1859  0.2668
 1949SOL    HW3 7843   0.638   0.023   3.276 -0.3323  2.5780  0.2852
 1949SOL    MW4 7844   0.647   0.012   3.362  0.5004  0.3119 -0.0603
 1950SOL     OW 7845   0.439   0.133   3.502  0.1909  0.2115 -0.4305
 1950SOL    HW2 7846   0.456   0.142   3.595 -0.3877 -0.4282 -0.2626
 1950SOL    HW3 7847   0.499   0.065   3.472 -0.2009 -0.1766 -0.3527
 1950SOL    MW4 7848   0.449   0.125   3.510  0.0629  0.0759 -0.3979
 1951SOL     OW 7849   0.418   0.409   3.403 -0.4498 -0.1334 -0.4656
 1951SOL    HW2 7850   0.494   0.443   3.450  0.3824 -1.4219 -0.8804
 1951SOL    HW3 7851   0.414   0.317   3.427 -1.7574 -0.1267 -0.6237
 1951SOL    MW4 7852   0.427   0.402   3.412 -0.5125 -0.3025 -0.5412
 1952SOL     OW 7853   0.653   0.508   3.537  0.2766 -0.0143  0.3750
 1952SOL    HW2 7854   0.659   0.500   3.632 -0.2751 -0.0044  0.4106
 1952SOL    HW3 7855   0.732   0.465   3.504  0.5260  0.0887  0.8425
 1952SOL    MW4 7856   0.665   0.501   3.545  0.2368  0.0005  0.4413
 1953SOL     OW 7857   0.655   0.773   3.423  0.0386  0.2891 -0.1369
 1953SOL    HW2 7858   0.580   0.812   3.467 -0.4006  0.0099 -0.6276
 1953SOL    HW3 7859   0.666   0.688   3.466 -0.3749  0.0268 -0.5454
 1953SOL    MW4 7860   0.647   0.767   3.434 -0.0740  0.2176 -0.2553
 1954SOL     OW 7861   0.435   0.935   3.531  0.1558 -0.0568  0.1836
 1954SOL    HW2 7862   0.464   0.936   3.622 -0.4044  0.4577  0.3574
 1954SOL    HW3 7863   0.456   1.022   3.498 -1.2734  0.3632  0.3472
 1954SOL    MW4 7864   0.442   0.946   3.539 -0.1066  0.0665  0.2279
 1955SOL     OW 7865   0.435   1.181   3.390  0.2218 -0.2849 -0.1273
 1955SOL    HW2 7866   0.519   1.224   3.409 -0.3810  0.2012  1.4815
 1955SOL    HW3 7867   0.429   1.183   3.295  1.3251  1.0615 -0.1928
 1955SOL    MW4 7868   0.445   1.187   3.380  0.2879 -0.0430  0.0763
 1956SOL     OW 7869   0.675   1.313   3.498 -0.0407  0.3400  0.4830
 1956SOL    HW2 7870   0.761   1.272   3.490 -0.5115 -0.4627 -0.6713
 1956SOL    HW3 7871   0.681   1.392   3.444  0.1070  0.5000  0.7359
 1956SOL    MW4 7872   0.687   1.318   3.490 -0.0833  0.2553  0.3641
 1957SOL     OW 7873   0.706   1.554   3.379 -0.1755 -0.4505  0.1635
 1957SOL    HW2 7874   0.771   1.598   3.434 -1.5270  0.2165  1.2767
 1957SOL    HW3 7875   0.623   1.596   3.404 -0.9912 -1.1553 -1.3645
 1957SOL    MW4 7876   0.703   1.566   3.390 -0.4615 -0.4555  0.1090
 1958SOL     OW 7877   0.466   1.663   3.463 -0.0855  0.0050  0.2845
 1958SOL    HW2 7878   0.472   1.649   3.558 -0.1628 -0.0213  0.2858
 1958SOL    HW3 7879   0.482   1.757   3.451  0.0024 -0.0060  0.3162
 1958SOL    MW4 7880   0.469   1.674   3.474 -0.0841  0.0001  0.2890
 1959SOL     OW 7881   0.493   1.930   3.418  0.1237  0.5415  0.4599
 1959SOL    HW2 7882   0.409   1.966   3.446  0.1698  0.8718  0.1750
 1959SOL    HW3 7883   0.501   1.957   3.326  0.1101 -0.2858  0.2134
 1959SOL    MW4 7884   0.483   1.938   3.409  0.1280  0.4759  0.3898
 1960SOL     OW 7885   0.704   2.081   3.514  0.1650  0.3692  0.5532
 1960SOL    HW2 7886   0.711   2.091   3.609 -0.6930 -0.1207  0.6758
 1960SOL    HW3 7887   0.624   2.030   3.501  0.0103  0.8528 -0.4623
 1960SOL    MW4 7888   0.694   2.075   3.525  0.0314  0.3684  0.4356
 1961SOL     OW 7889   0.690   2.333   3.395  0.1435  0.6903  0.3582
 1961SOL    HW2 7890   0.772   2.374   3.425  0.6146  0.0467 -0.0528
 1961SOL    HW3 7891   0.697   2.242   3.424  0.6445  0.0283 -1.7930
 1961SOL    MW4 7892   0.702   2.326   3.403  0.2718  0.5181  0.0200
 1962SOL     OW 7893   0.478   2.481   3.503  0.1624  0.2414  0.2955
 1962SOL    HW2 7894   0.559   2.437   3.478 -0.3755 -1.2172  1.0941
 1962SOL    HW3 7895   0.409   2.431   3.460 -0.5315 -0.3943  2.1168
 1962SOL    MW4 7896   0.480   2.469   3.494 -0.0001 -0.0346  0.6411
 1963SOL     OW 7897   0.448   2.739   3.394 -0.3962  0.1105  0.4736
 1963SOL    HW2 7898   0.460   2.649   3.425  2.0582  0.3506  0.2749
 1963SOL    HW3 7899   0.442   2.731   3.298 -1.0999  0.0801  0.5154
 1963SOL    MW4 7900   0.449   2.726   3.385 -0.1653  0.1383  0.4528
 1964SOL     OW 7901   0.656   2.882   3.511 -0.4907  0.5449  0.6814
 1964SOL    HW2 7902   0.732   2.843   3.468  0.6266  1.0390  2.1586
 1964SOL    HW3 7903   0.580   2.842   3.468  0.6112 -1.3418  0.4538
 1964SOL    MW4 7904   0.656   2.871   3.499 -0.1979  0.3610  0.8466
 1965SOL     OW 7905   0.647   3.118   3.393 -0.0777 -0.4994  0.2000
 1965SOL    HW2 7906   0.568   3.157   3.431  1.4416  0.5512  2.3870
 1965SOL    HW3 7907   0.654   3.032   3.436 -0.0235 -0.5893  0.0120
 1965SOL    MW4 7908   0.638   3.112   3.404  0.1299 -0.3722  0.4637
 1966SOL     OW 7909   0.438   3.268   3.507 -0.3730  0.1231  0.6253
 1966SOL    HW2 7910   0.443   3.264   3.602 -0.2190 -0.1573  0.6069
 1966SOL    HW3 7911   0.362   3.214   3.485 -1.1302  1.1696  0.6621
 1966SOL    MW4 7912   0.429   3.260   3.517 -0.4526  0.2241  0.6278
 1967SOL     OW 7913   0.459   3.494   3.374  0.3557  0.2907  0.2943
 1967SOL    HW2 7914   0.458   3.407   3.415  0.6742  1.3390  2.5673
 1967SOL    HW3 7915   0.374   3.532   3.397 -0.2378  0.1799 -1.6334
 1967SOL    MW4 7916   0.447   3.487   3.383  0.3195  0.4146  0.3400
 1968SOL     OW 7917   0.672   3.631   3.495 -0.1833  0.1230  0.1775
 1968SOL    HW2 7918   0.745   3.573   3.472  0.2251  1.0964 -1.0386
 1968SOL    HW3 7919   0.594   3.585   3.466 -0.0316 -0.7278  1.0835
 1968SOL    MW4 7920   0.671   3.617   3.488 -0.1094  0.1390  0.1366
 1969SOL     OW 7921   0.696   3.888   3.399  0.2818 -0.3435  0.4053
 1969SOL    HW2 7922   0.612   3.927   3.424  0.6743  0.8561 -0.1496
 1969SOL    HW3 7923   0.690   3.798   3.431 -1.3956 -0.3988  0.0203
 1969SOL    MW4 7924   0.684   3.881   3.406  0.1124 -0.1926  0.2813
 1970SOL     OW 7925   0.440   3.965   3.485  0.2238 -0.2910 -1.0009
 1970SOL    HW2 7926   0.437   4.055   3.452 -0.1605  0.7065  1.6199
 1970SOL    HW3 7927   0.364   3.923   3.445 -0.1457  0.8263 -1.5080
 1970SOL    MW4 7928   0.429   3.971   3.475  0.1243 -0.0117 -0.7224
 1971SOL     OW 7929   0.446   4.243   3.440  0.1960  0.4029 -0.5782
 1971SOL    HW2 7930   0.530   4.277   3.469  0.7202 -0.7951 -0.6590
 1971SOL    HW3 7931   0.450   4.245   3.345  0.2436  0.0915 -0.5837
 1971SOL    MW4 7932   0.457   4.248   3.431  0.2715  0.2036 -0.5891
 1972SOL     OW 7933   0.671   4.420   3.497  0.2218  0.0455 -0.4818
 1972SOL    HW2 7934   0.757   4.396   3.460  0.1651  0.6801 -1.0236
 1972SOL    HW3 7935   0.642   4.494   3.445  0.0552  0.8494  0.7338
 1972SOL    MW4 7936   0.679   4.426   3.485  0.1923  0.2351 -0.3927
 1973SOL     OW 7937   1.109   4.663   3.425 -0.3310 -0.2341  0.2697
 1973SOL    HW2 7938   1.190   4.699   3.462 -0.6345  0.4788  0.2484
 1973SOL    HW3 7939   1.120   4.672   3.331 -0.6412  0.3106  0.2865
 1973SOL    MW4 7940   1.121   4.669   3.418 -0.4119 -0.0682  0.2692
 1974SOL     OW 7941   0.850   0.104   3.500 -0.0730 -0.4364 -0.1536
 1974SOL    HW2 7942   0.857   0.105   3.595  0.4237 -0.9939 -0.1804
 1974SOL    HW3 7943   0.933   0.066   3.470  0.2306  0.7475 -0.8511
 1974SOL    MW4 7944   0.862   0.099   3.509  0.0327 -0.3538 -0.2494
 1975SOL     OW 7945   0.869   0.369   3.409  0.0045  0.0748 -0.2219
 1975SOL    HW2 7946   0.941   0.414   3.453  0.6038 -0.1863 -0.9272
 1975SOL    HW3 7947   0.879   0.278   3.435  0.9400 -0.2476 -1.6456
 1975SOL    MW4 7948   0.880   0.363   3.419  0.2070 -0.0022 -0.5026
 1976SOL     OW 7949   1.109   0.504   3.523 -0.0992  0.2793 -0.0293
 1976SOL    HW2 7950   1.129   0.529   3.613  1.1270  0.3279 -0.3078
 1976SOL    HW3 7951   1.130   0.581   3.471 -1.4410  0.4792 -0.2980
 1976SOL    MW4 7952   1.115   0.517   3.528 -0.1144  0.3120 -0.1016
 1977SOL     OW 7953   1.148   0.758   3.386  0.3315 -0.0548  0.0978
 1977SOL    HW2 7954   1.219   0.813   3.419  1.2737 -0.0474 -1.8789
 1977SOL    HW3 7955   1.068   0.806   3.411  1.0347  0.3628  1.5837
 1977SOL    MW4 7956   1.147   0.772   3.393  0.5487  0.0013  0.0329
 1978SOL     OW 7957   0.917   0.879   3.499  0.3201 -0.2636  0.3716
 1978SOL    HW2 7958   0.908   0.970   3.469 -0.3454  0.4676  2.6373
 1978SOL    HW3 7959   0.833   0.839   3.478  0.3990 -0.1860 -0.0994
 1978SOL    MW4 7960   0.905   0.886   3.493  0.2427 -0.1569  0.6084
 1979SOL     OW 7961   0.887   1.148   3.414  0.0791  0.0332  0.4293
 1979SOL    HW2 7962   0.970   1.187   3.440  0.1595 -0.1224  0.4091
 1979SOL    HW3 7963   0.879   1.167   3.321 -0.0308  0.2713  0.4888
 1979SOL    MW4 7964   0.897   1.156   3.405  0.0752  0.0440  0.4344
 1980SOL     OW 7965   1.132   1.263   3.468  0.0293 -0.1644  0.0881
 1980SOL    HW2 7966   1.146   1.263   3.563 -0.6583 -0.6283  0.1946
 1980SOL    HW3 7967   1.133   1.355   3.443 -1.6125  0.0736  0.8224
 1980SOL    MW4 7968   1.134   1.275   3.477 -0.2780 -0.1944  0.1988
 1981SOL     OW 7969   1.139   1.558   3.389 -0.1883 -0.5052  0.0669
 1981SOL    HW2 7970   1.198   1.622   3.427 -2.5746  1.4081  0.7111
 1981SOL    HW3 7971   1.131   1.582   3.297 -3.5416  2.1957  0.9668
 1981SOL    MW4 7972   1.145   1.569   3.382 -0.9457  0.1037  0.2704
 1982SOL     OW 7973   0.929   1.711   3.494 -0.0275  0.3791  0.0679
 1982SOL    HW2 7974   0.930   1.801   3.463  2.2203  0.5539  0.5368
 1982SOL    HW3 7975   1.002   1.669   3.448 -0.2500 -0.8587  0.8118
 1982SOL    MW4 7976   0.939   1.717   3.483  0.2398  0.2389  0.2279
 1983SOL     OW 7977   0.939   1.970   3.399  0.1283  0.1343  0.6104
 1983SOL    HW2 7978   1.014   2.014   3.439  0.0317  0.1321  0.7911
 1983SOL    HW3 7979   0.863   2.015   3.435  0.0623  0.9827 -0.5270
 1983SOL    MW4 7980   0.939   1.982   3.409  0.1068  0.2460  0.4842
 1984SOL     OW 7981   1.146   2.094   3.536 -0.1556  0.0270 -0.3879
 1984SOL    HW2 7982   1.219   2.069   3.480  0.6848 -0.6727  1.0056
 1984SOL    HW3 7983   1.121   2.181   3.504  1.2716  0.2729 -0.8737
 1984SOL    MW4 7984   1.152   2.102   3.524  0.1436 -0.0327 -0.2677
 1985SOL     OW 7985   1.099   2.354   3.440 -0.3205  0.1246  0.5875
 1985SOL    HW2 7986   1.193   2.358   3.460 -0.0235  0.2529 -0.8304
 1985SOL    HW3 7987   1.094   2.355   3.345 -1.7712  0.1195  0.6506
 1985SOL    MW4 7988   1.111   2.355   3.430 -0.4727  0.1407  0.4086
 1986SOL     OW 7989   0.865   2.480   3.515 -0.1491 -0.5784 -0.2751
 1986SOL    HW2 7990   0.870   2.460   3.608  0.6748 -2.4964 -0.7059
 1986SOL    HW3 7991   0.948   2.447   3.479 -0.7058 -0.3887 -1.7693
 1986SOL    MW4 7992   0.876   2.473   3.522 -0.1138 -0.8066 -0.5291
 1987SOL     OW 7993   0.887   2.749   3.438  0.1724  0.0181  0.0147
 1987SOL    HW2 7994   0.972   2.787   3.460  0.3429  0.0684 -0.7133
 1987SOL    HW3 7995   0.878   2.674   3.498  0.9391 -0.2691 -0.2199
 1987SOL    MW4 7996   0.897   2.744   3.449  0.2960 -0.0131 -0.1123
 1988SOL     OW 7997   1.138   2.870   3.482 -0.1362  0.3841 -0.0137
 1988SOL    HW2 7998   1.144   2.861   3.577 -0.7699  0.2891  0.0199
 1988SOL    HW3 7999   1.200   2.805   3.448  0.3621  0.6743  0.3383
 1988SOL    MW4 8000   1.147   2.860   3.490 -0.1543  0.4101  0.0372
 1989SOL     OW 8001   1.111   3.140   3.382 -0.2041  0.3197 -0.7460
 1989SOL    HW2 8002   1.125   3.056   3.426 -1.1408  0.0148 -1.0185
 1989SOL    HW3 8003   1.126   3.122   3.289  1.1012  0.8075 -0.6328
 1989SOL    MW4 8004   1.115   3.127   3.376 -0.1556  0.3438 -0.7670
 1990SOL     OW 8005   0.885   3.254   3.483 -0.1789 -0.0713 -0.0201
 1990SOL    HW2 8006   0.956   3.210   3.436 -0.5203  1.0808 -1.6481
 1990SOL    HW3 8007   0.805   3.216   3.448 -0.4052 -0.3257  0.7647
 1990SOL    MW4 8008   0.884   3.243   3.472 -0.2538  0.0470 -0.1314
 1991SOL     OW 8009   0.904   3.503   3.407 -0.3709  0.3516 -0.1378
 1991SOL    HW2 8010   0.892   3.410   3.424 -0.1178  0.3528  0.0428
 1991SOL    HW3 8011   0.906   3.509   3.311  0.3400  0.0785 -0.1416
 1991SOL    MW4 8012   0.903   3.491   3.396 -0.2437  0.3159 -0.1144
 1992SOL     OW 8013   1.128   3.617   3.502 -0.0982  0.1684  0.4806
 1992SOL    HW2 8014   1.123   3.617   3.598 -1.2216  0.7449  0.4234
 1992SOL    HW3 8015   1.043   3.583   3.473 -0.6207  2.1048 -0.3398
 1992SOL    MW4 8016   1.116   3.612   3.511 -0.3153  0.5000  0.3648
 1993SOL     OW 8017   1.116   3.887   3.477 -0.1378 -0.0972  0.4137
 1993SOL    HW2 8018   1.205   3.921   3.483 -0.3532  0.9384 -1.6829
 1993SOL    HW3 8019   1.124   3.794   3.498  1.0657  0.4354  2.4341
 1993SOL    MW4 8020   1.129   3.879   3.481 -0.0075  0.1094  0.4039
 1994SOL     OW 8021   0.896   4.045   3.497  0.0147  0.3492  0.0320
 1994SOL    HW2 8022   0.972   3.989   3.481 -0.6835 -0.4380 -0.5429
 1994SOL    HW3 8023   0.821   3.994   3.467 -0.8199  0.8435  1.2573
 1994SOL    MW4 8024   0.896   4.031   3.491 -0.1876  0.3104  0.1180
 1995SOL     OW 8025   0.904   4.296   3.390 -0.7614 -0.4807 -0.2314
 1995SOL    HW2 8026   0.909   4.209   3.429 -0.3284 -0.8752 -1.1518
 1995SOL    HW3 8027   0.895   4.279   3.296 -0.3400  0.4694 -0.4453
 1995SOL    MW4 8028   0.903   4.282   3.382 -0.6487 -0.4077 -0.3810
 1996SOL     OW 8029   1.116   4.411   3.526  0.3601  0.2638 -0.3813
 1996SOL    HW2 8030   1.048   4.371   3.472 -0.2263  0.3777  0.2649
 1996SOL    HW3 8031   1.118   4.503   3.499  0.7809  0.0953 -0.9281
 1996SOL    MW4 8032   1.108   4.418   3.515  0.3383  0.2561 -0.3684
 1997SOL     OW 8033   1.554   4.661   3.460  0.3156  0.0209  0.3836
 1997SOL    HW2 8034   1.540   4.570   3.486 -0.7604  0.1384  0.2151
 1997SOL    HW3 8035   1.478   4.708   3.493  0.0696  0.5720 -0.9160
 1997SOL    MW4 8036   1.542   4.655   3.467  0.1410  0.1092  0.1900
 1998SOL     OW 8037   1.331   0.115   3.553  0.1076  0.1788  0.0681
 1998SOL    HW2 8038   1.333   0.139   3.646  1.2382 -0.7858  0.3051
 1998SOL    HW3 8039   1.339   0.199   3.507 -0.4969  0.6659  0.8411
 1998SOL    MW4 8040   1.332   0.129   3.559  0.1769  0.1158  0.2015
 1999SOL     OW 8041   1.335   0.357   3.435 -0.0568 -0.2436 -0.1050
 1999SOL    HW2 8042   1.397   0.426   3.459 -1.6570  1.5161 -0.9289
 1999SOL    HW3 8043   1.250   0.389   3.466 -1.0912 -1.0620 -2.0221
 1999SOL    MW4 8044   1.332   0.370   3.442 -0.4044 -0.1194 -0.4666
 2000SOL     OW 8045   1.565   0.510   3.476 -0.1653  0.2251 -0.4893
 2000SOL    HW2 8046   1.569   0.539   3.567  0.0563  2.2586 -1.1021
 2000SOL    HW3 8047   1.647   0.463   3.461 -0.9651 -1.6203  0.8259
 2000SOL    MW4 8048   1.576   0.508   3.486 -0.2415  0.2500 -0.3967
 2001SOL     OW 8049   1.575   0.762   3.389  0.0506  0.1440  0.0458
 2001SOL    HW2 8050   1.502   0.790   3.444  0.3853 -1.7263  1.4845
 2001SOL    HW3 8051   1.589   0.670   3.411  1.4254 -0.1331 -1.8161
 2001SOL    MW4 8052   1.567   0.754   3.399  0.2761 -0.1394 -0.0098
 2002SOL     OW 8053   1.361   0.889   3.503 -0.3666 -0.0302 -0.2106
 2002SOL    HW2 8054   1.376   0.903   3.596 -0.1833 -1.1872 -0.0656
 2002SOL    HW3 8055   1.367   0.977   3.465 -0.5715  0.4668  0.8759
 2002SOL    MW4 8056   1.364   0.902   3.510 -0.3694 -0.1172 -0.0482
 2003SOL     OW 8057   1.375   1.136   3.389 -0.0158  0.0380  0.5273
 2003SOL    HW2 8058   1.439   1.204   3.408 -0.8444  0.6149  1.3283
 2003SOL    HW3 8059   1.290   1.179   3.401 -0.5513 -0.9891  0.5179
 2003SOL    MW4 8060   1.372   1.150   3.393 -0.1957 -0.0215  0.6318
 2004SOL     OW 8061   1.585   1.295   3.509  0.3865 -0.7737  0.3488
 2004SOL    HW2 8062   1.577   1.300   3.604  1.2409 -0.5420  0.4121
 2004SOL    HW3 8063   1.663   1.241   3.493 -0.1307 -1.3629 -0.2267
 2004SOL    MW4 8064   1.594   1.289   3.519  0.4309 -0.8209  0.2813
 2005SOL     OW 8065   1.593   1.572   3.425  0.2459 -0.1678  0.3346
 2005SOL    HW2 8066   1.582   1.483   3.460 -0.1478 -0.6611 -1.0049
 2005SOL    HW3 8067   1.581   1.562   3.331 -0.9720  1.5129  0.2957
 2005SOL    MW4 8068   1.590   1.559   3.417  0.0331 -0.0111  0.1528
 2006SOL     OW 8069   1.348   1.724   3.478 -0.2818 -0.1939 -0.2324
 2006SOL    HW2 8070   1.339   1.729   3.573 -0.8709 -2.2644 -0.1423
 2006SOL    HW3 8071   1.428   1.673   3.464 -0.1524  0.1778 -0.8382
 2006SOL    MW4 8072   1.357   1.718   3.489 -0.3424 -0.4179 -0.3004
 2007SOL     OW 8073   1.341   1.996   3.359 -0.0597  0.1320 -0.3763
 2007SOL    HW2 8074   1.418   2.043   3.392 -1.3567  0.9932  1.4897
 2007SOL    HW3 8075   1.347   1.909   3.400 -0.0356  0.1524 -0.3371
 2007SOL    MW4 8076   1.352   1.990   3.369 -0.2276  0.2486 -0.1252
 2008SOL     OW 8077   1.557   2.096   3.509 -0.1746 -0.2725  0.3975
 2008SOL    HW2 8078   1.631   2.048   3.473 -0.5422 -0.1921 -0.4879
 2008SOL    HW3 8079   1.577   2.188   3.489 -1.2482 -0.3735 -1.2633
 2008SOL    MW4 8080   1.569   2.102   3.501 -0.3648 -0.2754  0.0618
 2009SOL     OW 8081   1.590   2.336   3.379  0.0221 -0.0322  0.1295
 2009SOL    HW2 8082   1.508   2.365   3.418 -0.3512 -0.6042 -0.2312
 2009SOL    HW3 8083   1.574   2.336   3.285  0.6260  0.4312  0.0244
 2009SOL    MW4 8084   1.577   2.340   3.372  0.0526 -0.0463  0.0679
 2010SOL     OW 8085   1.364   2.424   3.499 -0.2070 -0.0960 -0.0046
 2010SOL    HW2 8086   1.391   2.438   3.590  1.4846 -0.2735 -0.4542
 2010SOL    HW3 8087   1.359   2.513   3.462 -0.3372 -0.0575  0.1040
 2010SOL    MW4 8088   1.367   2.438   3.506 -0.0010 -0.1144 -0.0496
 2011SOL     OW 8089   1.360   2.702   3.426  0.0025 -0.2319 -0.0830
 2011SOL    HW2 8090   1.441   2.731   3.468 -0.0347 -0.3706  0.0845
 2011SOL    HW3 8091   1.371   2.725   3.334  1.0462 -2.0083 -0.4233
 2011SOL    MW4 8092   1.372   2.709   3.419  0.1353 -0.4845 -0.1056
 2012SOL     OW 8093   1.607   2.812   3.525 -0.0309 -0.5321 -0.1015
 2012SOL    HW2 8094   1.687   2.771   3.490 -0.8424 -2.7703  0.5648
 2012SOL    HW3 8095   1.598   2.893   3.476  2.7608 -0.1387 -0.0649
 2012SOL    MW4 8096   1.616   2.817   3.514  0.2303 -0.7753 -0.0086
 2013SOL     OW 8097   1.566   3.079   3.419  0.2539  0.3444 -0.3633
 2013SOL    HW2 8098   1.637   3.128   3.461  0.5213  0.2939 -0.7499
 2013SOL    HW3 8099   1.493   3.141   3.416 -0.2455 -0.1435  1.5332
 2013SOL    MW4 8100   1.566   3.094   3.424  0.2232  0.2732 -0.1640
 2014SOL     OW 8101   1.358   3.243   3.455  0.0730  0.4933 -0.2528
 2014SOL    HW2 8102   1.349   3.254   3.549 -1.9222 -0.1041 -0.3443
 2014SOL    HW3 8103   1.269   3.225   3.424  0.9592 -1.1439 -1.9989
 2014SOL    MW4 8104   1.345   3.242   3.463 -0.0734  0.1984 -0.4952
 2015SOL     OW 8105   1.354   3.501   3.390 -0.0091  0.2604 -0.4526
 2015SOL    HW2 8106   1.350   3.413   3.426  0.1418  0.5305  0.2302
 2015SOL    HW3 8107   1.283   3.549   3.434  0.2615  0.6261 -0.4066
 2015SOL    MW4 8108   1.344   3.496   3.401  0.0466  0.3440 -0.3567
 2016SOL     OW 8109   1.575   3.654   3.514  0.2154 -0.2699  0.3968
 2016SOL    HW2 8110   1.548   3.648   3.605 -2.3948 -0.5946 -0.3649
 2016SOL    HW3 8111   1.509   3.605   3.465  1.3316  0.2475 -1.7144
 2016SOL    MW4 8112   1.563   3.647   3.519  0.0182 -0.2444  0.0176
 2017SOL     OW 8113   1.627   3.900   3.408  0.1751 -0.0863 -0.2903
 2017SOL    HW2 8114   1.629   3.809   3.440  0.2299  0.1120  0.2867
 2017SOL    HW3 8115   1.583   3.895   3.324  0.2743 -0.6685 -0.3135
 2017SOL    MW4 8116   1.622   3.887   3.401  0.1956 -0.1371 -0.2170
 2018SOL     OW 8117   1.377   3.984   3.540  0.5771 -0.0166 -0.5324
 2018SOL    HW2 8118   1.379   4.078   3.518  0.5901  0.0017 -0.4545
 2018SOL    HW3 8119   1.460   3.950   3.508  1.6194  0.4779  1.5512
 2018SOL    MW4 8120   1.388   3.992   3.533  0.7162  0.0510 -0.2472
 2019SOL     OW 8121   1.320   4.237   3.423 -0.0876  0.3134  0.3686
 2019SOL    HW2 8122   1.248   4.287   3.461 -0.1406 -0.5681  1.4606
 2019SOL    HW3 8123   1.318   4.258   3.330 -1.6129  0.4648  0.4296
 2019SOL    MW4 8124   1.310   4.246   3.416 -0.2958  0.2170  0.5207
 2020SOL     OW 8125   1.547   4.376   3.504  0.0242  0.0993 -0.2504
 2020SOL    HW2 8126   1.626   4.339   3.463 -0.3345  0.3117 -1.1614
 2020SOL    HW3 8127   1.475   4.323   3.469 -0.4296  1.1967 -1.0354
 2020SOL    MW4 8128   1.548   4.364   3.494 -0.0829  0.2723 -0.4740
 2021SOL     OW 8129   1.996   0.004   3.379 -0.2128  0.2304 -0.5406
 2021SOL    HW2 8130   2.080   0.026   3.419  0.3813  0.6520 -2.0264
 2021SOL    HW3 8131   1.931   0.047   3.436  0.5951  0.3646  0.2907
 2021SOL    MW4 8132   1.999   0.013   3.392 -0.0279  0.3037 -0.6268
 2022SOL     OW 8133   1.780   0.122   3.531 -0.2546  0.1039 -0.2640
 2022SOL    HW2 8134   1.780   0.119   3.626 -1.0763  0.1325 -0.2587
 2022SOL    HW3 8135   1.700   0.076   3.505  0.2615 -0.4367 -0.9603
 2022SOL    MW4 8136   1.769   0.115   3.540 -0.2948  0.0364 -0.3550
 2023SOL     OW 8137   1.801   0.383   3.415  0.2499  0.3870  0.3871
 2023SOL    HW2 8138   1.800   0.295   3.452  2.1670  0.5361  0.8265
 2023SOL    HW3 8139   1.791   0.370   3.321  1.4927 -0.3492  0.3596
 2023SOL    MW4 8140   1.799   0.370   3.407  0.6670  0.3096  0.4416
 2024SOL     OW 8141   2.032   0.512   3.521 -0.1988  0.2934 -0.0953
 2024SOL    HW2 8142   2.013   0.601   3.493 -3.1293  0.1588  1.2692
 2024SOL    HW3 8143   1.958   0.460   3.489  0.8926 -1.4516  0.1230
 2024SOL    MW4 8144   2.020   0.517   3.513 -0.4416  0.0454  0.1137
 2025SOL     OW 8145   2.002   0.755   3.409  0.0606 -0.3674  0.0664
 2025SOL    HW2 8146   2.088   0.796   3.424 -0.8552  1.4503  0.4284
 2025SOL    HW3 8147   1.997   0.747   3.313  1.1801 -1.7157  0.0977
 2025SOL    MW4 8148   2.013   0.759   3.398  0.0875 -0.3054  0.1180
 2026SOL     OW 8149   1.799   0.885   3.531 -0.6498  0.1546 -0.0200
 2026SOL    HW2 8150   1.878   0.835   3.511  0.2597  1.2867  0.6789
 2026SOL    HW3 8151   1.731   0.846   3.475  0.2740 -1.1518 -0.2598
 2026SOL    MW4 8152   1.800   0.873   3.521 -0.4081  0.1316  0.0403
 2027SOL     OW 8153   1.790   1.151   3.434 -0.1932 -0.4993 -0.2443
 2027SOL    HW2 8154   1.877   1.191   3.443 -0.3455 -0.5440  1.4947
 2027SOL    HW3 8155   1.801   1.063   3.469 -1.0298 -0.3769  0.3307
 2027SOL    MW4 8156   1.803   1.145   3.440 -0.3235 -0.4890  0.0610
 2028SOL     OW 8157   2.013   1.281   3.491  0.8824 -0.6771 -0.1086
 2028SOL    HW2 8158   2.022   1.290   3.586  0.8157 -0.4660 -0.1228
 2028SOL    HW3 8159   2.001   1.370   3.459 -1.7801 -0.9641 -0.0454
 2028SOL    MW4 8160   2.013   1.294   3.499  0.5221 -0.6871 -0.1023
 2029SOL     OW 8161   2.015   1.526   3.383  0.5506 -0.1926  0.1405
 2029SOL    HW2 8162   2.099   1.563   3.411  0.2626 -1.2253  2.4336
 2029SOL    HW3 8163   1.949   1.579   3.428 -0.0032 -0.3840 -0.4280
 2029SOL    MW4 8164   2.017   1.538   3.393  0.4396 -0.3541  0.3679
 2030SOL     OW 8165   1.819   1.696   3.485  0.5185  0.4254  0.0064
 2030SOL    HW2 8166   1.797   1.781   3.446 -0.6532 -0.0096 -0.2769
 2030SOL    HW3 8167   1.744   1.640   3.466  0.8710 -0.4124  1.0304
 2030SOL    MW4 8168   1.807   1.700   3.477  0.4104  0.2574  0.1040
 2031SOL     OW 8169   1.778   1.951   3.395  0.0846 -0.3551 -0.0749
 2031SOL    HW2 8170   1.868   1.974   3.421 -0.5117  1.5402  0.4080
 2031SOL    HW3 8171   1.779   1.956   3.300  0.4409 -0.1386 -0.0609
 2031SOL    MW4 8172   1.790   1.955   3.386  0.0528 -0.0767 -0.0093
 2032SOL     OW 8173   2.031   2.035   3.491  0.3280 -0.5150 -0.3915
 2032SOL    HW2 8174   2.109   1.992   3.456 -0.4709 -1.3337 -1.1763
 2032SOL    HW3 8175   2.041   2.127   3.465  1.6912 -0.3424  0.6874
 2032SOL    MW4 8176   2.043   2.041   3.483  0.4027 -0.5999 -0.3526
 2033SOL     OW 8177   2.013   2.311   3.409  0.1016 -0.4497 -0.3563
 2033SOL    HW2 8178   2.086   2.369   3.429 -0.4671  0.7215 -1.5620
 2033SOL    HW3 8179   1.995   2.326   3.316 -2.5930  0.3683  0.2455
 2033SOL    MW4 8180   2.020   2.320   3.399 -0.3290 -0.1872 -0.4358
 2034SOL     OW 8181   1.805   2.456   3.541  0.4772  0.2846  0.1369
 2034SOL    HW2 8182   1.874   2.401   3.504  0.1749  0.3768 -0.5749
 2034SOL    HW3 8183   1.726   2.432   3.493  0.4625  1.7710 -0.6400
 2034SOL    MW4 8184   1.804   2.446   3.530  0.4355  0.4930 -0.0596
 2035SOL     OW 8185   1.838   2.702   3.415  0.1395  0.2288  0.4629
 2035SOL    HW2 8186   1.930   2.727   3.422  1.0237 -2.0831 -2.0385
 2035SOL    HW3 8187   1.832   2.620   3.465  0.2319 -1.3336 -1.9890
 2035SOL    MW4 8188   1.849   2.694   3.422  0.2685 -0.2823 -0.1905
 2036SOL     OW 8189   2.064   2.826   3.459 -0.4173  0.1241 -0.1149
 2036SOL    HW2 8190   2.049   2.821   3.553 -1.4742  0.6544 -0.2466
 2036SOL    HW3 8191   2.056   2.920   3.438  1.1187  0.1752 -0.5195
 2036SOL    MW4 8192   2.061   2.838   3.468 -0.3541  0.2010 -0.1857
 2037SOL     OW 8193   2.049   3.104   3.445  0.1150  0.0486  0.0798
 2037SOL    HW2 8194   2.123   3.164   3.454  1.4023 -1.4625 -0.2063
 2037SOL    HW3 8195   1.973   3.156   3.471  1.0871  2.0220 -0.9009
 2037SOL    MW4 8196   2.049   3.119   3.450  0.4134  0.1094 -0.0873
 2038SOL     OW 8197   1.807   3.232   3.516  0.3565 -0.6770  0.1236
 2038SOL    HW2 8198   1.805   3.236   3.612 -1.9270 -0.8456  0.1119
 2038SOL    HW3 8199   1.823   3.322   3.488  1.1917 -0.6559  0.6659
 2038SOL    MW4 8200   1.809   3.245   3.525  0.1652 -0.6964  0.1936
 2039SOL     OW 8201   1.823   3.494   3.450 -0.2811 -0.0898  0.2015
 2039SOL    HW2 8202   1.741   3.538   3.470  0.8281  2.0799  0.0553
 2039SOL    HW3 8203   1.833   3.504   3.355  0.1535 -0.3422  0.2193
 2039SOL    MW4 8204   1.814   3.501   3.440 -0.0774  0.1631  0.1845
 2040SOL     OW 8205   2.039   3.658   3.550  0.2218 -0.7090  0.3461
 2040SOL    HW2 8206   2.118   3.635   3.500  0.7630  2.1373 -0.1811
 2040SOL    HW3 8207   1.969   3.607   3.509  1.5378 -2.2148 -0.0631
 2040SOL    MW4 8208   2.040   3.648   3.538  0.4666 -0.5322  0.2227
 2041SOL     OW 8209   2.051   3.894   3.397  0.2097  0.0383  0.0823
 2041SOL    HW2 8210   1.983   3.955   3.427  0.5667  0.8305 -0.6883
 2041SOL    HW3 8211   2.034   3.814   3.446 -1.6708  0.0110 -0.5353
 2041SOL    MW4 8212   2.040   3.892   3.407  0.0088  0.1390 -0.1009
 2042SOL     OW 8213   1.845   4.045   3.515 -0.7445  0.4084 -0.1645
 2042SOL    HW2 8214   1.816   4.040   3.606 -1.7567 -1.2669 -0.5465
 2042SOL    HW3 8215   1.772   4.009   3.464  0.1434  0.5318 -1.5690
 2042SOL    MW4 8216   1.832   4.039   3.520 -0.7610  0.2036 -0.4001
 2043SOL     OW 8217   1.795   4.293   3.410  0.0331 -0.4230  0.3301
 2043SOL    HW2 8218   1.798   4.205   3.448 -0.7008 -0.2911  0.7237
 2043SOL    HW3 8219   1.783   4.278   3.316 -2.4718 -0.7465  0.6697
 2043SOL    MW4 8220   1.794   4.279   3.403 -0.3941 -0.4487  0.4268
 2044SOL     OW 8221   2.017   4.424   3.512 -0.0485  0.0640  0.3392
 2044SOL    HW2 8222   1.954   4.365   3.471 -0.2272 -0.3824  1.2281
 2044SOL    HW3 8223   1.991   4.511   3.484 -0.3764 -0.2052 -0.2034
 2044SOL    MW4 8224   2.006   4.428   3.503 -0.1156 -0.0305  0.3850
 2045SOL     OW 8225   2.477   4.663   3.422  0.0815 -0.0751  0.5150
 2045SOL    HW2 8226   2.475   4.572   3.452  1.3895 -0.4273 -0.4013
 2045SOL    HW3 8227   2.490   4.657   3.327 -1.5763  1.0462  0.2076
 2045SOL    MW4 8228   2.479   4.650   3.414  0.0355  0.0262  0.3533
 2046SOL     OW 8229   2.223   0.106   3.499  0.5847 -0.1584 -0.1038
 2046SOL    HW2 8230   2.218   0.190   3.454  0.5514  0.6828  1.4102
 2046SOL    HW3 8231   2.311   0.073   3.479  0.7124  0.3829 -0.4565
 2046SOL    MW4 8232   2.234   0.113   3.491  0.5975  0.0240  0.0494
 2047SOL     OW 8233   2.243   0.375   3.387 -0.2051 -0.2677 -0.3272
 2047SOL    HW2 8234   2.324   0.392   3.435 -1.5533 -0.0715  1.9039
 2047SOL    HW3 8235   2.179   0.436   3.423 -2.0221 -2.1140 -0.3113
 2047SOL    MW4 8236   2.245   0.386   3.398 -0.6225 -0.4853 -0.0305
 2048SOL     OW 8237   2.487   0.463   3.504  0.3904  0.0841  0.3445
 2048SOL    HW2 8238   2.570   0.436   3.465  1.3038  1.6212  1.1982
 2048SOL    HW3 8239   2.490   0.558   3.504 -1.3000  0.1510  0.5611
 2048SOL    MW4 8240   2.498   0.472   3.499  0.2882  0.2957  0.4859
 2049SOL     OW 8241   2.461   0.732   3.395  0.0162  0.0862 -0.1984
 2049SOL    HW2 8242   2.537   0.789   3.411  0.6751 -0.8404  0.0350
 2049SOL    HW3 8243   2.457   0.724   3.300  0.1764  0.1822 -0.2141
 2049SOL    MW4 8244   2.471   0.738   3.385  0.1245 -0.0234 -0.1695
 2050SOL     OW 8245   2.240   0.889   3.483  0.0124 -0.3302  0.6025
 2050SOL    HW2 8246   2.255   0.971   3.436 -0.2751  0.2372  1.4848
 2050SOL    HW3 8247   2.305   0.829   3.448 -1.2803 -0.4218 -1.7123
 2050SOL    MW4 8248   2.251   0.892   3.472 -0.1960 -0.2673  0.4137
 2051SOL     OW 8249   2.235   1.144   3.384 -0.0602  0.2339  0.5496
 2051SOL    HW2 8250   2.307   1.195   3.421 -1.4122  1.7081  1.1921
 2051SOL    HW3 8251   2.156   1.184   3.421 -1.3079  0.0034 -1.8247
 2051SOL    MW4 8252   2.234   1.156   3.394 -0.4034  0.3979  0.3211
 2052SOL     OW 8253   2.458   1.250   3.498  0.0829 -0.5884  0.4590
 2052SOL    HW2 8254   2.448   1.250   3.593  0.3352  1.1724  0.5123
 2052SOL    HW3 8255   2.541   1.206   3.482  0.3024 -0.4041  1.0871
 2052SOL    MW4 8256   2.468   1.244   3.509  0.1452 -0.3319  0.5486
 2053SOL     OW 8257   2.516   1.526   3.391 -1.2482 -0.1728 -0.6935
 2053SOL    HW2 8258   2.493   1.441   3.428  0.5041  0.1038  1.1462
 2053SOL    HW3 8259   2.518   1.511   3.296  0.0129 -2.4480 -0.3430
 2053SOL    MW4 8260   2.514   1.513   3.383 -0.8504 -0.4365 -0.4044
 2054SOL     OW 8261   2.279   1.648   3.463  0.0127  0.4466 -0.1342
 2054SOL    HW2 8262   2.274   1.657   3.558 -0.4760  2.9127 -0.3788
 2054SOL    HW3 8263   2.366   1.610   3.447  0.0336 -0.1378  1.2817
 2054SOL    MW4 8264   2.290   1.644   3.473 -0.0494  0.6948  0.0205
 2055SOL     OW 8265   2.246   1.920   3.390 -0.0289  0.1816  0.0720
 2055SOL    HW2 8266   2.248   1.829   3.419  0.7269  0.3001  0.3937
 2055SOL    HW3 8267   2.230   1.914   3.295  0.5146 -0.3080  0.0055
 2055SOL    MW4 8268   2.244   1.907   3.381  0.1426  0.1327  0.1056
 2056SOL     OW 8269   2.458   2.059   3.471  0.2442  0.0035 -0.2129
 2056SOL    HW2 8270   2.453   2.052   3.566  1.3498  0.8526 -0.0868
 2056SOL    HW3 8271   2.379   2.016   3.440  0.0404 -0.5792  1.0789
 2056SOL    MW4 8272   2.447   2.052   3.479  0.3633  0.0386 -0.0255
 2057SOL     OW 8273   2.461   2.299   3.386  0.4366 -0.3502 -0.1512
 2057SOL    HW2 8274   2.531   2.339   3.438  0.8567 -0.0152 -0.9700
 2057SOL    HW3 8275   2.460   2.207   3.415 -0.5181  0.2178  1.7097
 2057SOL    MW4 8276   2.470   2.292   3.397  0.3660 -0.2313 -0.0136
 2058SOL     OW 8277   2.261   2.450   3.457 -0.0197  0.6067 -0.0052
 2058SOL    HW2 8278   2.272   2.534   3.412  0.1557  0.2495 -0.6388
 2058SOL    HW3 8279   2.336   2.398   3.428 -0.0706  0.2720  0.4722
 2058SOL    MW4 8280   2.272   2.455   3.447 -0.0033  0.5157 -0.0260
 2059SOL     OW 8281   2.281   2.718   3.341 -0.1297  0.2657  0.0724
 2059SOL    HW2 8282   2.208   2.761   3.385 -0.6857  0.6134 -1.1529
 2059SOL    HW3 8283   2.251   2.705   3.251  0.2393 -2.2063  0.2728
 2059SOL    MW4 8284   2.268   2.722   3.335 -0.1543 -0.0145 -0.0627
 2060SOL     OW 8285   2.540   2.860   3.444  0.0214 -0.0498  0.1503
 2060SOL    HW2 8286   2.528   2.946   3.403 -0.1293 -1.2952 -2.4684
 2060SOL    HW3 8287   2.460   2.812   3.425 -0.1747 -0.5890  2.1709
 2060SOL    MW4 8288   2.528   2.865   3.436 -0.0243 -0.2851  0.0715
 2061SOL     OW 8289   2.492   3.119   3.353 -0.0571 -0.2581  0.3759
 2061SOL    HW2 8290   2.576   3.153   3.385  0.3665 -0.6693 -0.3090
 2061SOL    HW3 8291   2.507   3.101   3.261 -1.5054  1.6253 -0.2596
 2061SOL    MW4 8292   2.505   3.121   3.345 -0.1924 -0.0639  0.2019
 2062SOL     OW 8293   2.262   3.289   3.450 -0.0868 -0.0228  0.2918
 2062SOL    HW2 8294   2.253   3.270   3.543  0.1186  0.4209  0.4022
 2062SOL    HW3 8295   2.330   3.228   3.420 -0.3451 -0.3500  0.3744
 2062SOL    MW4 8296   2.270   3.278   3.458 -0.0937 -0.0072  0.3171
 2063SOL     OW 8297   2.252   3.554   3.408  0.4332 -0.0094 -0.1337
 2063SOL    HW2 8298   2.251   3.460   3.423 -0.6909  0.0240  0.0710
 2063SOL    HW3 8299   2.247   3.564   3.313  0.2773 -0.1576 -0.1418
 2063SOL    MW4 8300   2.251   3.543   3.398  0.2646 -0.0246 -0.1078
 2064SOL     OW 8301   2.488   3.661   3.486  0.2676  0.0655 -0.3216
 2064SOL    HW2 8302   2.498   3.752   3.458 -0.8296  1.2297  2.8235
 2064SOL    HW3 8303   2.404   3.633   3.449 -0.1228  0.8304 -0.0142
 2064SOL    MW4 8304   2.479   3.669   3.477  0.0713  0.3197  0.1340
 2065SOL     OW 8305   2.504   3.918   3.392  0.0687 -0.2979 -0.1137
 2065SOL    HW2 8306   2.583   3.958   3.430 -1.0712  1.3963  0.5302
 2065SOL    HW3 8307   2.431   3.964   3.433 -1.2696 -1.5047 -1.0695
 2065SOL    MW4 8308   2.505   3.929   3.402 -0.2584 -0.2339 -0.1550
 2066SOL     OW 8309   2.257   4.025   3.519  0.4508 -0.2108  0.4627
 2066SOL    HW2 8310   2.247   4.113   3.483  1.3095  0.4195  1.7304
 2066SOL    HW3 8311   2.185   3.975   3.482  0.2172  0.9088 -0.6234
 2066SOL    MW4 8312   2.246   4.030   3.509  0.5331  0.0196  0.4866
 2067SOL     OW 8313   2.225   4.263   3.395 -0.3445  0.1217 -0.3021
 2067SOL    HW2 8314   2.180   4.339   3.432  1.9708  1.3024  0.1237
 2067SOL    HW3 8315   2.222   4.277   3.300  0.3275  0.8744 -0.2106
 2067SOL    MW4 8316   2.218   4.275   3.387  0.0496  0.3767 -0.2339
 2068SOL     OW 8317   2.451   4.378   3.468 -0.1224  0.2638  0.1241
 2068SOL    HW2 8318   2.451   4.379   3.564 -0.8263  0.8446  0.1247
 2068SOL    HW3 8319   2.366   4.339   3.444  0.0353  0.1533 -0.2632
 2068SOL    MW4 8320   2.439   4.373   3.477 -0.1943  0.3257  0.0734
 2069SOL     OW 8321   2.931   4.661   3.420  0.1379 -0.0143 -0.3400
 2069SOL    HW2 8322   2.852   4.698   3.459  0.5367  0.8577 -0.3471
 2069SOL    HW3 8323   2.913   4.658   3.326 -0.8633 -2.2062 -0.1174
 2069SOL    MW4 8324   2.918   4.666   3.413  0.0584 -0.1879 -0.3114
 2070SOL     OW 8325   2.706   0.126   3.510  0.2696 -0.0483  0.0762
 2070SOL    HW2 8326   2.723   0.215   3.480  0.4363 -0.5482 -1.3177
 2070SOL    HW3 8327   2.620   0.105   3.475 -0.1167 -0.1662  1.0635
 2070SOL    MW4 8328   2.697   0.135   3.502  0.2406 -0.1298  0.0224
 2071SOL     OW 8329   2.743   0.363   3.397  0.2190  0.0994  0.1861
 2071SOL    HW2 8330   2.824   0.414   3.403  0.4707 -0.3227  0.3759
 2071SOL    HW3 8331   2.710   0.380   3.309  0.6207  0.1026  0.0377
 2071SOL    MW4 8332   2.749   0.372   3.386  0.3049  0.0441  0.1917
 2072SOL     OW 8333   2.974   0.518   3.491 -0.3512  0.2791 -0.5859
 2072SOL    HW2 8334   2.969   0.519   3.587 -1.2460  0.6762 -0.6289
 2072SOL    HW3 8335   2.970   0.610   3.466  0.6348  0.2189 -0.9781
 2072SOL    MW4 8336   2.972   0.530   3.500 -0.3390  0.3235 -0.6433
 2073SOL     OW 8337   2.937   0.774   3.375  0.0138 -0.4237  0.2596
 2073SOL    HW2 8338   3.009   0.803   3.430  0.1643 -0.3127  0.0030
 2073SOL    HW3 8339   2.859   0.809   3.417  0.1817  0.2196  0.0344
 2073SOL    MW4 8340   2.936   0.782   3.387  0.0560 -0.3242  0.1960
 2074SOL     OW 8341   2.689   0.881   3.454 -0.0269  0.1274 -0.4766
 2074SOL    HW2 8342   2.687   0.855   3.546  0.2816 -1.5346 -0.9342
 2074SOL    HW3 8343   2.702   0.976   3.457  1.0211 -0.0460  1.1841
 2074SOL    MW4 8344   2.690   0.890   3.467  0.1519 -0.1147 -0.3178
 2075SOL     OW 8345   2.701   1.155   3.387 -0.0551  0.1737 -0.3018
 2075SOL    HW2 8346   2.784   1.197   3.407 -0.1265 -0.1388  0.6789
 2075SOL    HW3 8347   2.692   1.163   3.292 -0.0520  2.3463 -0.1571
 2075SOL    MW4 8348   2.711   1.162   3.377 -0.0641  0.4191 -0.1535
 2076SOL     OW 8349   2.929   1.297   3.478  0.1951  0.1989  0.0305
 2076SOL    HW2 8350   2.920   1.270   3.569  2.2927 -0.2526  0.1303
 2076SOL    HW3 8351   3.012   1.257   3.449 -0.3760  0.4392 -2.0216
 2076SOL    MW4 8352   2.939   1.288   3.486  0.3967  0.1712 -0.2272
 2077SOL     OW 8353   2.953   1.573   3.449  0.1064  0.0921 -0.2434
 2077SOL    HW2 8354   2.873   1.617   3.478 -0.4118 -0.5740 -0.6489
 2077SOL    HW3 8355   2.935   1.480   3.462  0.6431 -0.0845 -0.7660
 2077SOL    MW4 8356   2.940   1.567   3.454  0.1090 -0.0192 -0.3660
 2078SOL     OW 8357   2.716   1.694   3.540 -0.0277  0.3401 -0.0716
 2078SOL    HW2 8358   2.721   1.770   3.482  2.0739  0.9775  0.8883
 2078SOL    HW3 8359   2.648   1.639   3.502  0.6486  1.1951 -2.6003
 2078SOL    MW4 8360   2.708   1.696   3.527  0.3386  0.5370 -0.2789
 2079SOL     OW 8361   2.727   1.924   3.398  0.0834 -0.1050 -0.5965
 2079SOL    HW2 8362   2.643   1.966   3.418 -2.0175 -4.5594  0.5600
 2079SOL    HW3 8363   2.720   1.900   3.306  1.0759  1.5858 -1.1236
 2079SOL    MW4 8364   2.715   1.926   3.389 -0.0629 -0.4697 -0.5136
 2080SOL     OW 8365   2.979   2.006   3.477 -0.6708  0.5307  0.2096
 2080SOL    HW2 8366   2.978   2.006   3.573  0.3430 -2.4392  0.2860
 2080SOL    HW3 8367   2.893   1.973   3.452  0.1048 -1.6214  0.2276
 2080SOL    MW4 8368   2.968   2.002   3.486 -0.4349 -0.1450  0.2217
 2081SOL     OW 8369   2.931   2.297   3.391 -0.1182 -0.2874 -0.1434
 2081SOL    HW2 8370   2.957   2.205   3.396  2.3516  0.3334 -0.7834
 2081SOL    HW3 8371   2.928   2.317   3.298  2.3250  1.0294  0.0083
 2081SOL    MW4 8372   2.934   2.288   3.379  0.5302 -0.0322 -0.2079
 2082SOL     OW 8373   2.697   2.400   3.497  0.3041 -0.3439  0.3501
 2082SOL    HW2 8374   2.730   2.407   3.586  2.2919  1.5949 -0.5045
 2082SOL    HW3 8375   2.766   2.351   3.450  0.5518  1.0277 -0.7384
 2082SOL    MW4 8376   2.711   2.394   3.502  0.5989  0.0927  0.0937
 2083SOL     OW 8377   2.750   2.670   3.412 -0.4352  0.4068 -0.1615
 2083SOL    HW2 8378   2.725   2.590   3.457  0.5840 -0.1985 -0.6521
 2083SOL    HW3 8379   2.680   2.732   3.432 -1.0986 -0.5244  0.4296
 2083SOL    MW4 8380   2.737   2.668   3.421 -0.3881  0.2041 -0.1485
 2084SOL     OW 8381   2.947   2.836   3.499  0.7681  0.3483  0.1062
 2084SOL    HW2 8382   2.949   2.819   3.593 -0.4679  1.0280  0.2723
 2084SOL    HW3 8383   2.884   2.772   3.465 -1.0597  2.0435  0.1930
 2084SOL    MW4 8384   2.939   2.825   3.507  0.3641  0.6616  0.1397
 2085SOL     OW 8385   2.934   3.113   3.437 -0.4825  0.0393 -0.1552
 2085SOL    HW2 8386   2.940   3.022   3.466  0.0280  0.2188  0.3072
 2085SOL    HW3 8387   2.948   3.108   3.342  1.0300 -0.2083  0.0765
 2085SOL    MW4 8388   2.936   3.100   3.428 -0.2155  0.0305 -0.0637
 2086SOL     OW 8389   2.695   3.226   3.513  0.3194  0.0836  0.4602
 2086SOL    HW2 8390   2.705   3.225   3.608  1.3006 -0.7071  0.3590
 2086SOL    HW3 8391   2.777   3.189   3.480 -0.1688 -0.0095 -0.6766
 2086SOL    MW4 8392   2.707   3.221   3.521  0.3843 -0.0327  0.2968
 2087SOL     OW 8393   2.695   3.480   3.393 -0.3772 -0.4722  0.0611
 2087SOL    HW2 8394   2.691   3.389   3.425 -0.1802 -0.8810 -1.0522
 2087SOL    HW3 8395   2.619   3.523   3.434 -0.1928 -1.0071  0.9832
 2087SOL    MW4 8396   2.684   3.473   3.403 -0.3269 -0.5965  0.0358
 2088SOL     OW 8397   2.928   3.601   3.459  0.0738  0.5549  0.0946
 2088SOL    HW2 8398   2.923   3.689   3.421 -0.8287  0.8541  0.8965
 2088SOL    HW3 8399   2.845   3.560   3.434  0.3082  0.0694  0.0979
 2088SOL    MW4 8400   2.916   3.607   3.450 -0.0143  0.5307  0.2007
 2089SOL     OW 8401   2.924   3.864   3.365  0.1721  0.5577  0.1923
 2089SOL    HW2 8402   3.005   3.912   3.382  1.0350 -1.0120  0.6570
 2089SOL    HW3 8403   2.862   3.898   3.430  1.3370 -0.2744  1.7861
 2089SOL    MW4 8404   2.927   3.875   3.376  0.4399  0.2406  0.4640
 2090SOL     OW 8405   2.755   4.024   3.513 -0.0480  0.4637 -0.8528
 2090SOL    HW2 8406   2.750   4.030   3.608 -0.7973  0.4591 -0.8842
 2090SOL    HW3 8407   2.734   4.112   3.482 -1.1706  0.1368 -1.0442
 2090SOL    MW4 8408   2.751   4.036   3.521 -0.2947  0.4201 -0.8821
 2091SOL     OW 8409   2.710   4.268   3.381 -0.1582  0.4705 -0.5131
 2091SOL    HW2 8410   2.783   4.315   3.420 -0.6960  0.3370  0.6596
 2091SOL    HW3 8411   2.633   4.300   3.427 -0.6927 -0.4525 -0.7492
 2091SOL    MW4 8412   2.709   4.279   3.392 -0.2997  0.3314 -0.3896
 2092SOL     OW 8413   2.941   4.391   3.491  0.0504  0.0739  0.0715
 2092SOL    HW2 8414   2.941   4.389   3.587  0.2303  0.0090  0.0712
 2092SOL    HW3 8415   2.946   4.484   3.469  0.5262  0.0666  0.1311
 2092SOL    MW4 8416   2.942   4.403   3.501  0.1371  0.0644  0.0792
 2093SOL     OW 8417   3.356   4.666   3.398 -0.0498  0.0552 -0.7687
 2093SOL    HW2 8418   3.275   4.707   3.430  0.9107  0.3972  1.2465
 2093SOL    HW3 8419   3.360   4.693   3.306 -1.5457  1.1269 -0.5490
 2093SOL    MW4 8420   3.346   4.675   3.390 -0.1202  0.2413 -0.4742
 2094SOL     OW 8421   3.148   0.139   3.520  0.0074  0.3842  0.2671
 2094SOL    HW2 8422   3.154   0.220   3.470  2.5612 -0.7590 -1.4028
 2094SOL    HW3 8423   3.079   0.089   3.475  1.4109 -0.1080 -1.4032
 2094SOL    MW4 8424   3.140   0.143   3.507  0.5293  0.1684 -0.1736
 2095SOL     OW 8425   3.193   0.384   3.386 -0.1660 -0.5916  0.2314
 2095SOL    HW2 8426   3.117   0.431   3.421 -0.5899 -0.0346 -1.3740
 2095SOL    HW3 8427   3.182   0.390   3.291  0.7766 -2.3275 -0.0012
 2095SOL    MW4 8428   3.181   0.391   3.378 -0.0975 -0.7471 -0.0112
 2096SOL     OW 8429   3.421   0.489   3.481  0.3616 -0.4225  0.1108
 2096SOL    HW2 8430   3.401   0.496   3.574 -0.2883  0.4565 -0.0917
 2096SOL    HW3 8431   3.340   0.457   3.441  0.8560 -1.4883 -0.0638
 2096SOL    MW4 8432   3.408   0.485   3.488  0.3409 -0.4472  0.0613
 2097SOL     OW 8433   3.390   0.748   3.381 -0.3995  0.1857  0.3158
 2097SOL    HW2 8434   3.455   0.800   3.427  0.4676 -1.4858  1.0341
 2097SOL    HW3 8435   3.395   0.661   3.422 -0.8515 -0.8500 -1.7115
 2097SOL    MW4 8436   3.399   0.743   3.392 -0.3445 -0.1715  0.1433
 2098SOL     OW 8437   3.170   0.852   3.518  0.2439  0.0173 -0.6024
 2098SOL    HW2 8438   3.179   0.941   3.483 -0.4759 -0.3234 -1.6865
 2098SOL    HW3 8439   3.236   0.801   3.471 -1.1574 -0.5802 -2.0168
 2098SOL    MW4 8440   3.180   0.857   3.507 -0.0360 -0.1066 -0.9322
 2099SOL     OW 8441   3.154   1.139   3.391 -0.0916  0.1409 -0.2528
 2099SOL    HW2 8442   3.225   1.190   3.431  0.6594  0.1395 -1.5489
 2099SOL    HW3 8443   3.174   1.141   3.298 -0.2982 -2.1753 -0.3653
 2099SOL    MW4 8444   3.166   1.146   3.384 -0.0198 -0.1650 -0.4385
 2100SOL     OW 8445   3.369   1.268   3.499  0.4007  0.1340 -0.3901
 2100SOL    HW2 8446   3.439   1.217   3.458  0.6246  0.6369 -0.6388
 2100SOL    HW3 8447   3.393   1.359   3.483  1.0735  0.3799  1.7748
 2100SOL    MW4 8448   3.382   1.273   3.492  0.5190  0.2327 -0.1373
 2101SOL     OW 8449   3.396   1.516   3.393 -0.4903  0.5874 -0.3927
 2101SOL    HW2 8450   3.475   1.568   3.406  0.4057 -0.5406 -1.1970
 2101SOL    HW3 8451   3.324   1.575   3.414  0.5529  1.7742 -0.1321
 2101SOL    MW4 8452   3.397   1.531   3.397 -0.2344  0.5951 -0.4647
 2102SOL     OW 8453   3.206   1.685   3.473  0.7187  0.1449 -0.4267
 2102SOL    HW2 8454   3.202   1.766   3.421  1.0682 -0.9219 -2.1659
 2102SOL    HW3 8455   3.115   1.665   3.492  0.6855  1.5395  0.9803
 2102SOL    MW4 8456   3.194   1.693   3.468  0.7606  0.1881 -0.4706
 2103SOL     OW 8457   3.206   1.923   3.355 -0.2000  0.3929  0.5751
 2103SOL    HW2 8458   3.125   1.956   3.395 -0.1114  2.2270 -0.6944
 2103SOL    HW3 8459   3.197   1.943   3.262  1.9046  1.0337  0.4812
 2103SOL    MW4 8460   3.194   1.930   3.348  0.0892  0.7193  0.3951
 2104SOL     OW 8461   3.356   2.097   3.498  0.4097  0.1098 -0.3014
 2104SOL    HW2 8462   3.365   2.178   3.448  3.4908 -0.5970 -0.9771
 2104SOL    HW3 8463   3.302   2.041   3.443 -1.4576  1.5596  0.0175
 2104SOL    MW4 8464   3.350   2.100   3.484  0.5698  0.2079 -0.3486
 2105SOL     OW 8465   3.360   2.341   3.366  0.2364 -0.0323  0.2578
 2105SOL    HW2 8466   3.429   2.392   3.410  0.4324  0.1542 -0.2540
 2105SOL    HW3 8467   3.279   2.385   3.390  0.4156  0.6199 -0.2954
 2105SOL    MW4 8468   3.359   2.354   3.375  0.2861  0.0784  0.1173
 2106SOL     OW 8469   3.134   2.460   3.484  0.0922  0.6229  0.6530
 2106SOL    HW2 8470   3.146   2.539   3.430  1.1689  0.5040  0.6967
 2106SOL    HW3 8471   3.059   2.416   3.445  1.6829 -0.1713 -1.6877
 2106SOL    MW4 8472   3.126   2.465   3.471  0.4442  0.5026  0.3502
 2107SOL     OW 8473   3.166   2.736   3.355  0.5308 -0.0681 -0.0648
 2107SOL    HW2 8474   3.234   2.789   3.396 -0.5536  2.0364 -0.9392
 2107SOL    HW3 8475   3.088   2.752   3.408  0.3897 -1.4821  0.1765
 2107SOL    MW4 8476   3.165   2.745   3.367  0.3691  0.0234 -0.1481
 2108SOL     OW 8477   3.382   2.848   3.486 -0.3988  0.3512 -0.6541
 2108SOL    HW2 8478   3.460   2.796   3.464  0.3584  1.3425 -0.3860
 2108SOL    HW3 8479   3.407   2.938   3.464 -0.7475  0.9478  1.2386
 2108SOL    MW4 8480   3.396   2.853   3.480 -0.3450  0.5608 -0.3691
 2109SOL     OW 8481   3.389   3.104   3.374  0.4239  0.3055 -0.5004
 2109SOL    HW2 8482   3.456   3.160   3.414 -0.4069  0.7602  0.2739
 2109SOL    HW3 8483   3.308   3.129   3.417  0.2887 -2.7372  1.1858
 2109SOL    MW4 8484   3.387   3.115   3.385  0.2964 -0.0358 -0.1757
 2110SOL     OW 8485   3.167   3.231   3.517 -0.2821 -0.2975 -0.1173
 2110SOL    HW2 8486   3.156   3.314   3.471  0.8969 -0.1785 -0.2023
 2110SOL    HW3 8487   3.086   3.184   3.501 -0.4854  0.3596 -1.0746
 2110SOL    MW4 8488   3.155   3.236   3.509 -0.1535 -0.1950 -0.2549
 2111SOL     OW 8489   3.161   3.481   3.385  0.0506  0.1027  0.0622
 2111SOL    HW2 8490   3.081   3.525   3.414 -0.3470  0.0861 -0.9969
 2111SOL    HW3 8491   3.160   3.490   3.289  1.0967 -0.2713  0.0106
 2111SOL    MW4 8492   3.150   3.488   3.376  0.1364  0.0513 -0.0844
 2112SOL     OW 8493   3.388   3.573   3.522 -0.2078  0.1229  0.2851
 2112SOL    HW2 8494   3.379   3.659   3.480 -1.9916 -0.5568 -0.8180
 2112SOL    HW3 8495   3.314   3.523   3.488 -0.7427 -1.0057  2.9953
 2112SOL    MW4 8496   3.377   3.578   3.512 -0.5138 -0.1156  0.4973
 2113SOL     OW 8497   3.364   3.813   3.369  0.0022 -0.7655 -0.0118
 2113SOL    HW2 8498   3.438   3.858   3.411  0.0811 -2.4502  1.7025
 2113SOL    HW3 8499   3.286   3.855   3.406  0.0778 -0.5102 -0.1384
 2113SOL    MW4 8500   3.364   3.824   3.379  0.0226 -0.9544  0.1976
 2114SOL     OW 8501   3.170   3.965   3.486 -0.1059 -0.2366  0.3295
 2114SOL    HW2 8502   3.186   3.975   3.580 -0.4263 -0.5511  0.4223
 2114SOL    HW3 8503   3.153   4.053   3.454  1.8177  0.1096  0.2210
 2114SOL    MW4 8504   3.170   3.978   3.494  0.1056 -0.2325  0.3271
 2115SOL     OW 8505   3.150   4.241   3.399  0.1575 -0.0315 -0.4535
 2115SOL    HW2 8506   3.228   4.286   3.429  0.1414 -0.4646  0.2433
 2115SOL    HW3 8507   3.078   4.301   3.419  0.2817  0.2571 -0.8633
 2115SOL    MW4 8508   3.151   4.255   3.405  0.1719 -0.0505 -0.4153
 2116SOL     OW 8509   3.376   4.391   3.495 -0.1715  0.0017 -0.5508
 2116SOL    HW2 8510   3.381   4.405   3.589  0.4662  0.3510 -0.6383
 2116SOL    HW3 8511   3.369   4.479   3.458  0.4349 -0.0893 -0.8841
 2116SOL    MW4 8512   3.375   4.405   3.502 -0.0076  0.0353 -0.6058
 2117SOL     OW 8513   3.824   4.611   3.412 -0.2879 -0.1497  0.2199
 2117SOL    HW2 8514   3.757   4.663   3.456  1.3423  0.4895  2.0122
 2117SOL    HW3 8515   3.813   4.631   3.319 -2.3845  0.1541  0.5147
 2117SOL    MW4 8516   3.814   4.620   3.405 -0.3493 -0.0248  0.4952
 2118SOL     OW 8517   3.607   0.105   3.495 -0.3669  0.3945 -0.0487
 2118SOL    HW2 8518   3.619   0.187   3.446  0.3765  0.0751 -0.4157
 2118SOL    HW3 8519   3.519   0.075   3.472 -0.5148  0.9187 -0.1702
 2118SOL    MW4 8520   3.597   0.112   3.485 -0.2882  0.4215 -0.1130
 2119SOL     OW 8521   3.635   0.352   3.378 -0.5057 -0.1572 -0.3589
 2119SOL    HW2 8522   3.706   0.409   3.407 -0.4329 -0.4616  0.0755
 2119SOL    HW3 8523   3.556   0.390   3.417 -0.5465  0.0333 -0.6279
 2119SOL    MW4 8524   3.634   0.364   3.387 -0.5014 -0.1722 -0.3374
 2120SOL     OW 8525   3.840   0.498   3.474 -0.1570  0.4323  0.2193
 2120SOL    HW2 8526   3.839   0.510   3.569 -0.6830  1.2221  0.1132
 2120SOL    HW3 8527   3.916   0.441   3.458 -0.1046  0.2444  1.1134
 2120SOL    MW4 8528   3.850   0.492   3.484 -0.2193  0.5117  0.3231
 2121SOL     OW 8529   3.815   0.752   3.387  0.0069 -0.0300  0.6027
 2121SOL    HW2 8530   3.894   0.789   3.426  0.9499 -2.0993  0.7414
 2121SOL    HW3 8531   3.813   0.662   3.419 -1.2808 -0.6251 -1.0953
 2121SOL    MW4 8532   3.825   0.745   3.397 -0.0384 -0.3816  0.3970
 2122SOL     OW 8533   3.598   0.881   3.505 -0.1600 -0.0763 -0.2586
 2122SOL    HW2 8534   3.618   0.866   3.597 -0.1379 -1.9270 -0.5597
 2122SOL    HW3 8535   3.664   0.831   3.457 -0.7634  0.0981 -1.2862
 2122SOL    MW4 8536   3.610   0.873   3.511 -0.2367 -0.2974 -0.4339
 2123SOL     OW 8537   3.597   1.136   3.414  0.6450  0.7498  0.2838
 2123SOL    HW2 8538   3.598   1.048   3.452  1.1684  1.1285  1.1567
 2123SOL    HW3 8539   3.601   1.121   3.319 -0.8529 -0.2173  0.3501
 2123SOL    MW4 8540   3.597   1.122   3.406  0.5162  0.6722  0.4079
 2124SOL     OW 8541   3.835   1.267   3.500 -0.0130 -0.0140 -0.3191
 2124SOL    HW2 8542   3.838   1.266   3.595  2.2579 -1.9864 -0.3666
 2124SOL    HW3 8543   3.752   1.224   3.478  0.0259 -0.6385  0.7420
 2124SOL    MW4 8544   3.824   1.262   3.509  0.2918 -0.3567 -0.1853
 2125SOL     OW 8545   3.851   1.522   3.407 -0.0657  0.1515 -0.3347
 2125SOL    HW2 8546   3.926   1.547   3.461 -0.6924  0.6758  0.3006
 2125SOL    HW3 8547   3.828   1.435   3.438 -1.1866  0.9505  1.0857
 2125SOL    MW4 8548   3.858   1.514   3.418 -0.2964  0.3260 -0.0634
 2126SOL     OW 8549   3.621   1.650   3.472 -0.2294 -0.0662  0.5462
 2126SOL    HW2 8550   3.619   1.740   3.438  1.3006 -0.3589 -0.3309
 2126SOL    HW3 8551   3.702   1.613   3.439  0.3480 -1.0137  2.8878
 2126SOL    MW4 8552   3.632   1.657   3.463  0.0489 -0.2297  0.7396
 2127SOL     OW 8553   3.581   1.918   3.428 -0.2976 -0.2417  0.3030
 2127SOL    HW2 8554   3.654   1.969   3.464 -0.2559  0.2557 -0.4700
 2127SOL    HW3 8555   3.503   1.952   3.472 -0.3544  0.9912 -0.7208
 2127SOL    MW4 8556   3.581   1.929   3.439 -0.2995 -0.0135  0.0660
 2128SOL     OW 8557   3.796   2.072   3.490  0.2320 -0.1082  0.3209
 2128SOL    HW2 8558   3.813   2.097   3.580  1.5108  0.0276  0.0426
 2128SOL    HW3 8559   3.872   2.021   3.464 -1.2918 -2.3896  0.1519
 2128SOL    MW4 8560   3.808   2.068   3.498  0.1998 -0.3912  0.2618
 2129SOL     OW 8561   3.785   2.334   3.386  0.1423  0.2272 -0.3020
 2129SOL    HW2 8562   3.863   2.387   3.401 -0.0227  0.4793 -0.3444
 2129SOL    HW3 8563   3.807   2.249   3.426  1.1873 -0.3300 -1.9845
 2129SOL    MW4 8564   3.798   2.330   3.393  0.2584  0.1872 -0.5295
 2130SOL     OW 8565   3.567   2.459   3.505 -0.5518  0.2610 -0.5681
 2130SOL    HW2 8566   3.557   2.543   3.460 -1.9230  0.0268 -0.7113
 2130SOL    HW3 8567   3.633   2.413   3.454 -0.8410  0.6844 -1.3372
 2130SOL    MW4 8568   3.575   2.464   3.492 -0.7708  0.2859 -0.6886
 2131SOL     OW 8569   3.612   2.718   3.393  0.5413  0.3427 -0.1074
 2131SOL    HW2 8570   3.685   2.759   3.439  1.3680 -0.8191 -0.3437
 2131SOL    HW3 8571   3.632   2.732   3.300  0.6555 -0.2761 -0.1790
 2131SOL    MW4 8572   3.625   2.725   3.387  0.6654  0.1075 -0.1481
 2132SOL     OW 8573   3.813   2.859   3.507 -0.3232 -0.5446  0.0505
 2132SOL    HW2 8574   3.829   2.875   3.600 -1.7087 -1.8633  0.5318
 2132SOL    HW3 8575   3.812   2.947   3.468  1.3909 -0.0449  1.0714
 2132SOL    MW4 8576   3.815   2.873   3.514 -0.2799 -0.6528  0.2487
 2133SOL     OW 8577   3.804   3.102   3.356  0.1099  0.1530  0.0881
 2133SOL    HW2 8578   3.890   3.139   3.377  0.3894 -0.3390 -0.1731
 2133SOL    HW3 8579   3.801   3.100   3.260 -0.2902  0.3890  0.0946
 2133SOL    MW4 8580   3.815   3.107   3.346  0.0939  0.1192  0.0548
 2134SOL     OW 8581   3.609   3.243   3.522 -0.4335  0.3666 -0.4327
 2134SOL    HW2 8582   3.615   3.333   3.491  0.0953  0.1404 -0.9829
 2134SOL    HW3 8583   3.672   3.194   3.470  0.2581 -0.0710  0.7866
 2134SOL    MW4 8584   3.618   3.248   3.511 -0.2723  0.2789 -0.3445
 2135SOL     OW 8585   3.643   3.505   3.418 -0.2165  0.3386  0.2316
 2135SOL    HW2 8586   3.553   3.527   3.444 -0.2225 -1.2150  1.5642
 2135SOL    HW3 8587   3.642   3.513   3.322 -2.4853 -2.1347 -0.0279
 2135SOL    MW4 8588   3.631   3.509   3.409 -0.5169 -0.1926  0.3731
 2136SOL     OW 8589   3.871   3.642   3.502  0.0134  0.1572  0.1881
 2136SOL    HW2 8590   3.874   3.638   3.598  0.7203  0.2437  0.1725
 2136SOL    HW3 8591   3.792   3.594   3.479 -1.2106  1.7371  0.9095
 2136SOL    MW4 8592   3.861   3.635   3.512 -0.0548  0.3772  0.2811
 2137SOL     OW 8593   3.805   3.873   3.379 -0.1473 -0.4592 -0.1998
 2137SOL    HW2 8594   3.731   3.908   3.429 -2.1230 -1.7532 -2.1383
 2137SOL    HW3 8595   3.823   3.788   3.420 -0.3282 -0.5409 -0.2895
 2137SOL    MW4 8596   3.798   3.866   3.391 -0.4318 -0.6404 -0.4675
 2138SOL     OW 8597   3.551   3.980   3.499  0.0147  0.2919  0.0248
 2138SOL    HW2 8598   3.576   3.997   3.589  1.0627  0.2869 -0.2607
 2138SOL    HW3 8599   3.554   4.066   3.456  0.1074  0.2055 -0.1464
 2138SOL    MW4 8600   3.554   3.994   3.505  0.1652  0.2797 -0.0353
 2139SOL     OW 8601   3.549   4.215   3.351 -0.2054 -0.0910 -0.1860
 2139SOL    HW2 8602   3.492   4.281   3.391  0.0975 -0.0850  0.2369
 2139SOL    HW3 8603   3.541   4.231   3.257 -0.3278  0.3875 -0.0962
 2139SOL    MW4 8604   3.540   4.226   3.344 -0.1817 -0.0272 -0.1185
 2140SOL     OW 8605   3.808   4.343   3.473  0.3043  0.1637 -0.1219
 2140SOL    HW2 8606   3.724   4.309   3.442  0.2319  0.1941  0.0358
 2140SOL    HW3 8607   3.802   4.437   3.459  0.6459  0.0678 -0.8832
 2140SOL    MW4 8608   3.796   4.351   3.467  0.3400  0.1550 -0.2017
 2141SOL     OW 8609   4.284   0.002   3.384  0.2895 -0.3241 -0.0651
 2141SOL    HW2 8610   4.266  -0.078   3.433  0.1622 -1.0363 -1.2803
 2141SOL    HW3 8611   4.356   0.043   3.432 -0.9005 -0.1854  1.6752
 2141SOL    MW4 8612   4.291  -0.003   3.397  0.1154 -0.3996  0.0043
 2142SOL     OW 8613   4.048   0.069   3.529 -0.2425 -0.1421  0.2244
 2142SOL    HW2 8614   4.127   0.055   3.476 -1.5800  0.8403 -2.1116
 2142SOL    HW3 8615   3.984   0.007   3.492 -1.9215  2.2264 -0.9416
 2142SOL    MW4 8616   4.050   0.059   3.517 -0.6409  0.3000 -0.2377
 2143SOL     OW 8617   4.038   0.319   3.411 -0.3416 -0.0384  0.0328
 2143SOL    HW2 8618   4.044   0.232   3.452 -1.3450 -0.6546 -1.0873
 2143SOL    HW3 8619   4.039   0.301   3.317 -0.7391  1.1650 -0.2088
 2143SOL    MW4 8620   4.039   0.305   3.404 -0.5264  0.0391 -0.1471
 2144SOL     OW 8621   4.246   0.474   3.497 -0.0229  0.1054 -0.1515
 2144SOL    HW2 8622   4.240   0.547   3.436  0.0669 -0.2738 -0.6241
 2144SOL    HW3 8623   4.166   0.423   3.482  0.1584 -0.1698 -0.1947
 2144SOL    MW4 8624   4.235   0.477   3.487  0.0129  0.0190 -0.2193
 2145SOL     OW 8625   4.280   0.717   3.363  0.1924 -0.1179  0.2136
 2145SOL    HW2 8626   4.358   0.760   3.400  0.4389  0.0688 -0.5262
 2145SOL    HW3 8627   4.280   0.743   3.271 -0.3630 -0.6861  0.0569
 2145SOL    MW4 8628   4.290   0.726   3.356  0.1512 -0.1682  0.0954
 2146SOL     OW 8629   4.030   0.894   3.501  0.1825 -0.1015 -0.1004
 2146SOL    HW2 8630   4.044   0.973   3.448 -0.4040 -1.0268 -1.6689
 2146SOL    HW3 8631   4.096   0.833   3.469  1.2488  0.0304  1.7507
 2146SOL    MW4 8632   4.041   0.897   3.490  0.2460 -0.2062 -0.0632
 2147SOL     OW 8633   4.035   1.143   3.379 -0.3134  0.2666 -0.3226
 2147SOL    HW2 8634   4.108   1.199   3.403 -0.6369  0.7925 -0.5561
 2147SOL    HW3 8635   3.958   1.186   3.415 -0.3882 -0.8902  0.9456
 2147SOL    MW4 8636   4.034   1.156   3.387 -0.3662  0.1835 -0.1862
 2148SOL     OW 8637   4.240   1.301   3.517  0.0971 -0.3957  0.1711
 2148SOL    HW2 8638   4.244   1.391   3.484 -1.8301 -1.2679 -2.5559
 2148SOL    HW3 8639   4.327   1.265   3.499  0.7718  0.7820  0.9605
 2148SOL    MW4 8640   4.252   1.308   3.511 -0.0682 -0.3554 -0.0844
 2149SOL     OW 8641   4.270   1.549   3.400 -0.1304  0.3389  0.7949
 2149SOL    HW2 8642   4.187   1.581   3.433 -0.7406 -1.1284  0.7159
 2149SOL    HW3 8643   4.254   1.530   3.307  0.2846  0.0351  0.7800
 2149SOL    MW4 8644   4.257   1.551   3.392 -0.1564  0.1051  0.7825
 2150SOL     OW 8645   4.055   1.664   3.509  0.1218  0.6633  0.0594
 2150SOL    HW2 8646   4.071   1.662   3.603 -1.9021 -0.8346  0.3925
 2150SOL    HW3 8647   4.025   1.754   3.492 -0.8657  0.5443  1.0927
 2150SOL    MW4 8648   4.053   1.676   3.519 -0.2751  0.4500  0.2398
 2151SOL     OW 8649   4.020   1.937   3.405 -0.2904  0.1242 -0.3147
 2151SOL    HW2 8650   4.102   1.972   3.441 -0.1643  0.5340 -0.9992
 2151SOL    HW3 8651   4.036   1.928   3.311 -1.2185  0.7587 -0.5461
 2151SOL    MW4 8652   4.033   1.940   3.398 -0.3963  0.2620 -0.4356
 2152SOL     OW 8653   4.279   2.045   3.493 -0.0563 -0.6064 -0.2586
 2152SOL    HW2 8654   4.276   2.136   3.466 -0.1284 -0.4527  0.2593
 2152SOL    HW3 8655   4.365   2.014   3.465 -0.5490 -0.7538 -1.6184
 2152SOL    MW4 8656   4.290   2.053   3.486 -0.1307 -0.6056 -0.3700
 2153SOL     OW 8657   4.279   2.303   3.408  0.7009 -0.4755  0.2431
 2153SOL    HW2 8658   4.197   2.339   3.441  0.4868 -0.3260 -0.4353
 2153SOL    HW3 8659   4.270   2.306   3.313  2.0502  0.8207  0.1403
 2153SOL    MW4 8660   4.267   2.308   3.400  0.8502 -0.2847  0.1400
 2154SOL     OW 8661   4.045   2.434   3.465  0.2612 -0.0490  0.0025
 2154SOL    HW2 8662   4.046   2.442   3.560 -0.5859  0.2672 -0.0162
 2154SOL    HW3 8663   4.074   2.520   3.433  2.8463 -0.8652 -0.0045
 2154SOL    MW4 8664   4.049   2.446   3.473  0.4907 -0.1149 -0.0010
 2155SOL     OW 8665   4.033   2.717   3.395 -0.1877 -0.1190 -0.5424
 2155SOL    HW2 8666   4.111   2.761   3.428 -0.5567  0.4341 -0.4092
 2155SOL    HW3 8667   3.960   2.766   3.433 -0.6077 -1.6858  0.7424
 2155SOL    MW4 8668   4.034   2.729   3.405 -0.2918 -0.2527 -0.3552
 2156SOL     OW 8669   4.257   2.851   3.479 -0.4052 -0.2415  0.1924
 2156SOL    HW2 8670   4.267   2.850   3.575  0.2952  1.4005  0.1667
 2156SOL    HW3 8671   4.338   2.813   3.446 -0.2205  0.1087  0.2387
 2156SOL    MW4 8672   4.269   2.846   3.488 -0.2880  0.0215  0.1945
 2157SOL     OW 8673   4.278   3.125   3.389  0.3184  0.4041  0.2361
 2157SOL    HW2 8674   4.259   3.032   3.402 -1.5930  0.8316  0.5993
 2157SOL    HW3 8675   4.291   3.133   3.294  0.5991 -0.2507  0.2140
 2157SOL    MW4 8676   4.277   3.113   3.378  0.1030  0.3738  0.2811
 2158SOL     OW 8677   4.035   3.218   3.465  0.5234 -0.0487  0.0025
 2158SOL    HW2 8678   4.032   3.312   3.450 -0.0142 -0.0717 -0.0130
 2158SOL    HW3 8679   4.119   3.191   3.428  1.3345  0.6562  1.2943
 2158SOL    MW4 8680   4.046   3.227   3.458  0.5593  0.0412  0.1709
 2159SOL     OW 8681   4.055   3.498   3.365  0.7592 -0.1798  0.0833
 2159SOL    HW2 8682   4.132   3.538   3.405  0.1155 -0.1845  1.3807
 2159SOL    HW3 8683   3.981   3.542   3.407  0.0565 -0.1433 -1.1780
 2159SOL    MW4 8684   4.055   3.509   3.376  0.5817 -0.1755  0.0882
 2160SOL     OW 8685   4.241   3.626   3.532  0.0837  0.1771 -0.1390
 2160SOL    HW2 8686   4.249   3.642   3.626 -0.0182  0.9467 -0.2522
 2160SOL    HW3 8687   4.259   3.711   3.492 -0.4816 -0.0023 -0.7833
 2160SOL    MW4 8688   4.244   3.639   3.539 -0.0048  0.2551 -0.2391
 2161SOL     OW 8689   4.267   3.878   3.422  0.1007 -0.3159 -0.1247
 2161SOL    HW2 8690   4.349   3.913   3.456  0.3689 -0.4419 -0.6301
 2161SOL    HW3 8691   4.272   3.892   3.327  0.6515 -2.5547 -0.4725
 2161SOL    MW4 8692   4.279   3.884   3.414  0.2084 -0.6278 -0.2370
 2162SOL     OW 8693   4.016   4.003   3.508  0.3475  0.1897 -0.0932
 2162SOL    HW2 8694   4.090   3.944   3.494 -0.3251 -1.2753  2.3010
 2162SOL    HW3 8695   3.943   3.961   3.462  0.6061  0.8095 -1.0850
 2162SOL    MW4 8696   4.016   3.990   3.500  0.2923  0.0780  0.0920
 2163SOL     OW 8697   4.066   4.276   3.408 -0.0699 -0.0177  0.0578
 2163SOL    HW2 8698   4.054   4.182   3.422 -0.7088  0.2368  1.2931
 2163SOL    HW3 8699   3.977   4.312   3.411  0.0216  0.4448 -1.9244
 2163SOL    MW4 8700   4.053   4.268   3.410 -0.1426  0.0768 -0.0408
 2164SOL     OW 8701   4.260   4.429   3.497 -0.0063 -0.0382  0.0006
 2164SOL    HW2 8702   4.272   4.432   3.592 -0.7523  1.3693  0.0724
 2164SOL    HW3 8703   4.174   4.388   3.485  0.2222 -0.4948 -0.0829
 2164SOL    MW4 8704   4.250   4.424   3.508 -0.0744  0.0877 -0.0007
 2165SOL     OW 8705   0.227   0.003   3.887  0.0727  0.1959  0.5329
 2165SOL    HW2 8706   0.250  -0.013   3.978  0.0092 -0.3419  0.4603
 2165SOL    HW3 8707   0.153   0.063   3.890  0.4463  0.6449  0.8149
 2165SOL    MW4 8708   0.220   0.008   3.899  0.1137  0.1845  0.5605
 2166SOL     OW 8709   0.011   0.159   3.810  0.2573 -0.3458  0.0401
 2166SOL    HW2 8710   0.019   0.252   3.831  1.4592 -0.3726 -0.2495
 2166SOL    HW3 8711   0.018   0.155   3.715  1.9009 -0.8795  0.1688
 2166SOL    MW4 8712   0.013   0.171   3.800  0.6327 -0.4198  0.0186
 2167SOL     OW 8713   0.044   0.428   3.907 -0.5110 -0.1568  0.1094
 2167SOL    HW2 8714  -0.031   0.473   3.868 -0.4616  0.6054  0.8700
 2167SOL    HW3 8715   0.120   0.478   3.877 -0.5302  0.9816  1.8737
 2167SOL    MW4 8716   0.044   0.441   3.898 -0.5070  0.0940  0.4425
 2168SOL     OW 8717   0.276   0.516   3.796  0.0321  0.2082  0.3569
 2168SOL    HW2 8718   0.276   0.612   3.801 -0.8189  0.1928  0.7007
 2168SOL    HW3 8719   0.266   0.497   3.703 -1.8355  0.4595  0.4880
 2168SOL    MW4 8720   0.275   0.526   3.785 -0.3266  0.2393  0.4194
 2169SOL     OW 8721   0.271   0.784   3.828  0.5688  0.0859 -0.3715
 2169SOL    HW2 8722   0.271   0.778   3.924  0.6430 -0.6411 -0.4139
 2169SOL    HW3 8723   0.188   0.828   3.807  0.9882  1.0856  0.0760
 2169SOL    MW4 8724   0.260   0.789   3.838  0.6339  0.1219 -0.3181
 2170SOL     OW 8725   0.019   0.904   3.776 -0.0579 -0.1852 -0.7171
 2170SOL    HW2 8726  -0.043   0.853   3.828  2.1100 -0.9847  1.1751
 2170SOL    HW3 8727   0.013   0.992   3.812  0.6052 -0.4888  0.1764
 2170SOL    MW4 8728   0.010   0.909   3.788  0.3161 -0.3307 -0.3495
 2171SOL     OW 8729   0.051   1.119   3.945  0.3130 -0.1238  0.1987
 2171SOL    HW2 8730  -0.024   1.174   3.923  0.7997  1.0691  1.4009
 2171SOL    HW3 8731   0.125   1.163   3.904  0.4453 -0.9073 -0.3921
 2171SOL    MW4 8732   0.051   1.132   3.937  0.3947 -0.0700  0.2797
 2172SOL     OW 8733   0.226   1.288   3.809  0.0468  0.0840  0.0007
 2172SOL    HW2 8734   0.244   1.378   3.836 -2.2245  0.6315 -0.2129
 2172SOL    HW3 8735   0.204   1.295   3.716 -0.8559 -0.5935  0.1628
 2172SOL    MW4 8736   0.226   1.301   3.800 -0.3720  0.0669 -0.0062
 2173SOL     OW 8737   0.282   1.557   3.882 -0.0108 -0.1766 -0.0826
 2173SOL    HW2 8738   0.269   1.583   3.973  0.2429 -1.2845  0.2716
 2173SOL    HW3 8739   0.206   1.592   3.836 -0.8078 -0.7520  0.7861
 2173SOL    MW4 8740   0.270   1.565   3.888 -0.0825 -0.3986  0.0787
 2174SOL     OW 8741   0.015   1.649   3.778  0.2341 -0.1791  0.2026
 2174SOL    HW2 8742   0.017   1.738   3.815  0.7583 -0.3548  0.5923
 2174SOL    HW3 8743   0.016   1.663   3.683  0.5780  0.2248  0.2653
 2174SOL    MW4 8744   0.016   1.663   3.770  0.3486 -0.1491  0.2620
 2175SOL     OW 8745   0.026   1.913   3.909  0.1275 -0.1473  0.0869
 2175SOL    HW2 8746  -0.044   1.955   3.858 -0.1087 -0.2558  0.3220
 2175SOL    HW3 8747   0.107   1.951   3.874 -0.1817  2.5059  2.1091
 2175SOL    MW4 8748   0.027   1.923   3.897  0.0555  0.1885  0.3846
 2176SOL     OW 8749   0.244   2.077   3.792 -0.0401  0.0792  0.3596
 2176SOL    HW2 8750   0.265   2.157   3.840  2.3937 -0.6594  0.5592
 2176SOL    HW3 8751   0.317   2.018   3.809 -0.6911 -1.3680 -1.6345
 2176SOL    MW4 8752   0.256   2.080   3.800  0.1951 -0.2091  0.1228
 2177SOL     OW 8753   0.260   2.328   3.914  0.6092 -0.0317  0.1748
 2177SOL    HW2 8754   0.246   2.352   4.006 -1.0537 -0.1711 -0.0143
 2177SOL    HW3 8755   0.189   2.373   3.867  0.7998 -0.8413 -0.8955
 2177SOL    MW4 8756   0.249   2.337   3.920  0.4150 -0.1569  0.0083
 2178SOL     OW 8757   0.065   2.453   3.788 -0.3814  0.2429  0.0027
 2178SOL    HW2 8758  -0.009   2.398   3.813 -0.6801  1.1529  1.1663
 2178SOL    HW3 8759   0.033   2.543   3.799  1.0955  0.6470  1.1816
 2178SOL    MW4 8760   0.051   2.458   3.793 -0.2259  0.4163  0.3116
 2179SOL     OW 8761   4.484   2.736   3.874  0.3662 -0.7693  0.2990
 2179SOL    HW2 8762   4.480   2.733   3.970 -2.6005  2.0827  0.3171
 2179SOL    HW3 8763   4.564   2.784   3.855 -0.9579  1.9829  1.4647
 2179SOL    MW4 8764   4.494   2.742   3.884 -0.1998 -0.0298  0.4551
 2180SOL     OW 8765   0.207   2.864   3.779  0.5899 -0.4176 -0.4483
 2180SOL    HW2 8766   0.287   2.815   3.800  0.7615 -0.3777 -0.9939
 2180SOL    HW3 8767   0.200   2.857   3.684 -0.0213 -0.3618 -0.4036
 2180SOL    MW4 8768   0.217   2.856   3.770  0.5319 -0.4051 -0.5145
 2181SOL     OW 8769   0.243   3.133   3.883 -0.0759 -0.3331 -0.0406
 2181SOL    HW2 8770   0.251   3.130   3.979 -1.3016  0.9309  0.1092
 2181SOL    HW3 8771   0.235   3.041   3.857 -0.8939 -0.6166  1.1807
 2181SOL    MW4 8772   0.243   3.120   3.892 -0.3455 -0.2038  0.1402
 2182SOL     OW 8773   0.009   3.275   3.820  0.4501  0.3243  0.2796
 2182SOL    HW2 8774   0.091   3.232   3.844  0.1139 -1.1479 -1.1917
 2182SOL    HW3 8775  -0.002   3.257   3.727 -0.6354  2.0562  0.0484
 2182SOL    MW4 8776   0.018   3.267   3.811  0.2618  0.3586  0.0548
 2183SOL     OW 8777   0.002   3.536   3.938 -0.0311  0.1217  0.1645
 2183SOL    HW2 8778   0.075   3.586   3.901  0.1775 -0.5763 -0.3845
 2183SOL    HW3 8779   0.005   3.452   3.892  0.4095 -0.8850  1.9876
 2183SOL    MW4 8780   0.012   3.532   3.927  0.0546 -0.1032  0.3328
 2184SOL     OW 8781   0.209   3.657   3.787 -0.1807 -0.2553  0.2698
 2184SOL    HW2 8782   0.289   3.627   3.832  1.2487  1.2576 -1.1792
 2184SOL    HW3 8783   0.202   3.750   3.810  0.2619  0.4017 -2.1317
 2184SOL    MW4 8784   0.219   3.666   3.796  0.0663  0.0312 -0.2382
 2185SOL     OW 8785   0.222   3.913   3.882 -0.1168 -0.3007 -0.5534
 2185SOL    HW2 8786   0.222   3.939   3.974 -2.8145  0.4428 -0.7408
 2185SOL    HW3 8787   0.305   3.949   3.848  0.3020  0.5351  1.2610
 2185SOL    MW4 8788   0.233   3.921   3.890 -0.4175 -0.0923 -0.3388
 2186SOL     OW 8789   0.012   4.049   3.769 -0.2864  0.7409 -0.4821
 2186SOL    HW2 8790  -0.069   3.999   3.780  0.5878 -0.9997 -1.4888
 2186SOL    HW3 8791   0.080   3.992   3.805  0.5919  1.7722 -0.4898
 2186SOL    MW4 8792   0.010   4.035   3.775 -0.0553  0.6475 -0.6158
 2187SOL     OW 8793   4.472   4.274   3.904 -0.0540  0.1094  0.3741
 2187SOL    HW2 8794   4.547   4.322   3.868 -0.3953  1.5613  1.5727
 2187SOL    HW3 8795   4.485   4.184   3.874  1.8606  0.4676  0.0763
 2187SOL    MW4 8796   4.484   4.268   3.896  0.1535  0.3481  0.4933
 2188SOL     OW 8797   0.192   4.395   3.783 -0.0620  0.0727 -0.3823
 2188SOL    HW2 8798   0.282   4.370   3.804 -0.1101  0.7096  0.6354
 2188SOL    HW3 8799   0.190   4.490   3.796 -0.8292  0.0935 -0.6178
 2188SOL    MW4 8800   0.203   4.404   3.787 -0.1695  0.1593 -0.2792
 2189SOL     OW 8801   0.687   0.027   3.896  0.3012 -0.1742 -0.1220
 2189SOL    HW2 8802   0.690  -0.057   3.849  1.5394 -0.3180  0.2083
 2189SOL    HW3 8803   0.615   0.074   3.854  0.2158 -1.0198 -0.9591
 2189SOL    MW4 8804   0.678   0.022   3.884  0.4533 -0.3047 -0.1888
 2190SOL     OW 8805   0.468   0.139   3.775  0.2094 -0.1151 -0.2447
 2190SOL    HW2 8806   0.459   0.219   3.826  1.1539  0.2499 -0.6313
 2190SOL    HW3 8807   0.400   0.080   3.809  1.2895 -0.1561  1.9230
 2190SOL    MW4 8808   0.458   0.141   3.786  0.4766 -0.0724 -0.0098
 2191SOL     OW 8809   0.448   0.345   3.951  0.1394  0.2011  0.1078
 2191SOL    HW2 8810   0.527   0.389   3.919 -0.9472  2.0775 -0.1075
 2191SOL    HW3 8811   0.377   0.387   3.903 -1.1572  0.0259  1.8364
 2191SOL    MW4 8812   0.449   0.357   3.941 -0.1751  0.4256  0.3076
 2192SOL     OW 8813   0.677   0.461   3.802 -0.4370 -0.0957 -0.0398
 2192SOL    HW2 8814   0.760   0.414   3.806  0.2905  0.9490 -2.1518
 2192SOL    HW3 8815   0.698   0.549   3.834 -0.4287  0.5587 -1.8304
 2192SOL    MW4 8816   0.690   0.466   3.807 -0.3400  0.1284 -0.5546
 2193SOL     OW 8817   0.691   0.733   3.853 -0.1282 -0.0807  0.2900
 2193SOL    HW2 8818   0.760   0.770   3.798  1.6459 -0.3446  2.2683
 2193SOL    HW3 8819   0.618   0.795   3.846  0.8483  0.9833 -0.6609
 2193SOL    MW4 8820   0.691   0.746   3.845  0.2347  0.0248  0.4256
 2194SOL     OW 8821   0.495   0.920   3.804  0.0247  0.4437  0.1016
 2194SOL    HW2 8822   0.495   1.005   3.847 -0.6556  0.8586 -0.7228
 2194SOL    HW3 8823   0.418   0.875   3.840  0.8100 -0.1238  1.1106
 2194SOL    MW4 8824   0.485   0.925   3.814  0.0385  0.4236  0.1259
 2195SOL     OW 8825   0.478   1.205   3.917  0.5544 -0.0511 -0.1533
 2195SOL    HW2 8826   0.555   1.258   3.897  0.4744 -0.2610 -1.0501
 2195SOL    HW3 8827   0.415   1.228   3.848  0.4862 -1.2327 -0.4951
 2195SOL    MW4 8828   0.480   1.215   3.905  0.5348 -0.2347 -0.3169
 2196SOL     OW 8829   0.719   1.359   3.775 -0.3952  0.0909 -0.2331
 2196SOL    HW2 8830   0.789   1.298   3.795 -0.2662  0.5839  0.8391
 2196SOL    HW3 8831   0.707   1.352   3.680  2.2708  1.2656 -0.6970
 2196SOL    MW4 8832   0.726   1.350   3.765 -0.0265  0.3109 -0.1528
 2197SOL     OW 8833   0.751   1.602   3.902 -0.4094 -0.3148  0.0786
 2197SOL    HW2 8834   0.824   1.656   3.872 -0.8165  0.4770  0.4749
 2197SOL    HW3 8835   0.749   1.528   3.841  0.4371 -0.1140 -0.2052
 2197SOL    MW4 8836   0.760   1.599   3.890 -0.3514 -0.1839  0.0935
 2198SOL     OW 8837   0.507   1.659   3.746  0.3593  0.1306  0.1556
 2198SOL    HW2 8838   0.581   1.627   3.798  0.5400  1.8472  0.9924
 2198SOL    HW3 8839   0.430   1.627   3.792  0.5439 -0.2879  0.1824
 2198SOL    MW4 8840   0.507   1.650   3.759  0.4076  0.3020  0.2694
 2199SOL     OW 8841   0.466   1.921   3.848 -0.5622  0.1294 -0.2911
 2199SOL    HW2 8842   0.543   1.977   3.835 -0.7805  0.2203 -1.2301
 2199SOL    HW3 8843   0.479   1.847   3.790 -0.9102 -0.1474 -0.0222
 2199SOL    MW4 8844   0.478   1.919   3.839 -0.6369  0.1049 -0.3796
 2200SOL     OW 8845   0.671   2.064   3.787  0.0184  0.1849 -0.2296
 2200SOL    HW2 8846   0.662   2.150   3.827 -0.4532 -0.6259  1.4309
 2200SOL    HW3 8847   0.754   2.030   3.820 -0.2261 -0.3718 -0.1750
 2200SOL    MW4 8848   0.681   2.071   3.796 -0.0761  0.0045 -0.0033
 2201SOL     OW 8849   0.678   2.329   3.900 -0.1359 -0.0684  0.1393
 2201SOL    HW2 8850   0.760   2.368   3.869  0.1679 -1.1076 -0.4080
 2201SOL    HW3 8851   0.610   2.389   3.868  0.3248  0.0826 -0.5778
 2201SOL    MW4 8852   0.680   2.342   3.891 -0.0350 -0.1855 -0.0274
 2202SOL     OW 8853   0.472   2.473   3.784  0.0270 -0.2809  0.3237
 2202SOL    HW2 8854   0.388   2.442   3.818  0.0378 -0.5146  0.1371
 2202SOL    HW3 8855   0.463   2.467   3.689 -0.3830  1.3497  0.2461
 2202SOL    MW4 8856   0.460   2.468   3.776 -0.0257 -0.0966  0.2890
 2203SOL     OW 8857   0.442   2.740   3.854  0.4348 -0.4889  0.1651
 2203SOL    HW2 8858   0.523   2.788   3.837 -0.0918  0.4048  0.1405
 2203SOL    HW3 8859   0.461   2.650   3.825  1.0964 -0.0700 -0.7405
 2203SOL    MW4 8860   0.455   2.734   3.848  0.4526 -0.3154  0.0424
 2204SOL     OW 8861   0.659   2.894   3.808 -0.0824  0.2579  0.3734
 2204SOL    HW2 8862   0.734   2.842   3.835  0.7583  1.2021 -0.1502
 2204SOL    HW3 8863   0.665   2.899   3.712 -0.2767  1.1425  0.4026
 2204SOL    MW4 8864   0.669   2.888   3.799  0.0029  0.4990  0.3083
 2205SOL     OW 8865   0.682   3.160   3.856 -0.5795  0.4650 -0.6593
 2205SOL    HW2 8866   0.679   3.178   3.950  0.3508  1.2244 -0.7698
 2205SOL    HW3 8867   0.670   3.065   3.850 -2.8945  0.6885  0.0758
 2205SOL    MW4 8868   0.680   3.150   3.867 -0.7622  0.5944 -0.5772
 2206SOL     OW 8869   0.446   3.296   3.778  0.2409  0.3290  0.3576
 2206SOL    HW2 8870   0.523   3.240   3.788 -0.6967 -1.0418  0.0779
 2206SOL    HW3 8871   0.372   3.239   3.800 -0.7858  1.2433 -0.6591
 2206SOL    MW4 8872   0.447   3.281   3.782 -0.0183  0.2687  0.1867
 2207SOL     OW 8873   0.440   3.555   3.902  0.0168  0.1377  0.0960
 2207SOL    HW2 8874   0.515   3.598   3.859 -0.3715 -0.2034 -0.9426
 2207SOL    HW3 8875   0.443   3.465   3.871 -0.5451  0.0050  0.4258
 2207SOL    MW4 8876   0.450   3.549   3.892 -0.1086  0.0751  0.0024
 2208SOL     OW 8877   0.658   3.669   3.770 -0.2304 -0.0186  0.2124
 2208SOL    HW2 8878   0.647   3.763   3.786  1.3201  0.2345 -0.1251
 2208SOL    HW3 8879   0.657   3.660   3.675  0.1231 -0.2821  0.2331
 2208SOL    MW4 8880   0.656   3.680   3.760  0.0209 -0.0198  0.1707
 2209SOL     OW 8881   0.630   3.932   3.863 -0.0212  0.4756 -0.4759
 2209SOL    HW2 8882   0.637   3.936   3.959  1.0386 -0.3001 -0.5182
 2209SOL    HW3 8883   0.707   3.980   3.832 -1.1805  2.0648 -0.9477
 2209SOL    MW4 8884   0.641   3.939   3.872 -0.0344  0.5827 -0.5436
 2210SOL     OW 8885   0.418   4.037   3.752 -0.0361  0.0045 -0.1834
 2210SOL    HW2 8886   0.495   3.995   3.789 -0.3819 -0.8496 -0.4389
 2210SOL    HW3 8887   0.428   4.029   3.657 -0.8626 -0.8740 -0.2028
 2210SOL    MW4 8888   0.429   4.031   3.744 -0.1908 -0.2241 -0.2196
 2211SOL     OW 8889   0.430   4.297   3.860  0.2739  0.1884  0.1593
 2211SOL    HW2 8890   0.505   4.335   3.815 -0.4461  0.6509 -0.6648
 2211SOL    HW3 8891   0.419   4.211   3.819  0.2272  0.2062  0.1358
 2211SOL    MW4 8892   0.438   4.290   3.848  0.1727  0.2518  0.0474
 2212SOL     OW 8893   0.684   4.429   3.783 -0.1675 -0.7437 -0.3736
 2212SOL    HW2 8894   0.760   4.384   3.821  0.4585  0.2138 -0.4962
 2212SOL    HW3 8895   0.693   4.414   3.689  0.3074  0.0376 -0.4587
 2212SOL    MW4 8896   0.695   4.421   3.775 -0.0222 -0.5145 -0.4010
 2213SOL     OW 8897   1.117   0.023   3.893  0.0492 -0.1982 -0.1275
 2213SOL    HW2 8898   1.201   0.066   3.877 -0.4389  0.1263 -1.9179
 2213SOL    HW3 8899   1.127  -0.064   3.856 -0.8583  0.3239 -1.6839
 2213SOL    MW4 8900   1.129   0.017   3.886 -0.1348 -0.0866 -0.5689
 2214SOL     OW 8901   0.894   0.151   3.781 -0.3420 -0.5231  0.2622
 2214SOL    HW2 8902   0.966   0.098   3.817  0.1278  0.6354  1.0965
 2214SOL    HW3 8903   0.816   0.122   3.829 -0.0877 -0.4879  0.7071
 2214SOL    MW4 8904   0.893   0.140   3.792 -0.2465 -0.3656  0.4313
 2215SOL     OW 8905   0.946   0.395   3.894 -0.4151  0.0586  0.2536
 2215SOL    HW2 8906   0.960   0.394   3.989  0.4421 -1.0572  0.1250
 2215SOL    HW3 8907   0.942   0.302   3.870  2.2527  0.2945 -1.2213
 2215SOL    MW4 8908   0.947   0.382   3.903  0.0499 -0.0575  0.0422
 2216SOL     OW 8909   1.163   0.533   3.782  0.3447  0.4228  0.0494
 2216SOL    HW2 8910   1.246   0.506   3.821 -0.5509 -0.9354  1.0761
 2216SOL    HW3 8911   1.101   0.465   3.808 -0.4380 -0.2366 -3.3245
 2216SOL    MW4 8912   1.166   0.521   3.791  0.1231  0.1566 -0.2601
 2217SOL     OW 8913   1.126   0.779   3.895  0.4442 -0.2772 -0.6921
 2217SOL    HW2 8914   1.146   0.775   3.988 -0.7183  1.9326 -0.3153
 2217SOL    HW3 8915   1.122   0.687   3.868 -0.9944 -1.0134  1.8419
 2217SOL    MW4 8916   1.128   0.766   3.904  0.1010 -0.0829 -0.3083
 2218SOL     OW 8917   0.909   0.903   3.769  0.0113  0.2453  0.0399
 2218SOL    HW2 8918   0.985   0.871   3.819 -0.4694  0.7198  1.1044
 2218SOL    HW3 8919   0.930   0.882   3.678  1.0891 -0.2979  0.3931
 2218SOL    MW4 8920   0.922   0.896   3.764  0.0901  0.2363  0.2270
 2219SOL     OW 8921   0.937   1.185   3.842 -0.1914 -0.1566 -0.0131
 2219SOL    HW2 8922   0.935   1.176   3.937 -0.6134 -0.5370 -0.0562
 2219SOL    HW3 8923   0.919   1.097   3.809  0.6730 -0.1724 -0.4474
 2219SOL    MW4 8924   0.934   1.172   3.850 -0.1330 -0.2089 -0.0763
 2220SOL     OW 8925   1.166   1.268   3.739 -0.0328  0.1929 -0.1245
 2220SOL    HW2 8926   1.164   1.362   3.759 -0.4038  0.1215  0.1868
 2220SOL    HW3 8927   1.085   1.234   3.777  0.6915 -0.4774  0.8481
 2220SOL    MW4 8928   1.155   1.276   3.747  0.0138  0.0950  0.0448
 2221SOL     OW 8929   1.146   1.526   3.814 -0.1805  0.1222  0.3142
 2221SOL    HW2 8930   1.128   1.532   3.908  0.2194  0.4610  0.3704
 2221SOL    HW3 8931   1.220   1.585   3.800 -0.8958  0.8655 -0.3927
 2221SOL    MW4 8932   1.153   1.534   3.824 -0.2221  0.2651  0.2282
 2222SOL     OW 8933   0.976   1.726   3.779  0.4616 -0.0852 -0.5491
 2222SOL    HW2 8934   1.036   1.654   3.796  1.3554  0.7072 -0.2633
 2222SOL    HW3 8935   0.955   1.719   3.686  0.8377 -0.4845 -0.6030
 2222SOL    MW4 8936   0.981   1.716   3.769  0.6292 -0.0333 -0.5188
 2223SOL     OW 8937   0.919   1.986   3.903 -0.1995 -0.2028 -0.1060
 2223SOL    HW2 8938   0.959   1.904   3.875  0.0412  0.1065 -0.6716
 2223SOL    HW3 8939   0.914   1.979   3.998  2.1499  0.1839  0.0791
 2223SOL    MW4 8940   0.923   1.974   3.912  0.1423 -0.1109 -0.1562
 2224SOL     OW 8941   1.150   2.131   3.819 -0.5114 -0.1077  0.1428
 2224SOL    HW2 8942   1.067   2.088   3.842 -1.4261  1.4325 -0.2177
 2224SOL    HW3 8943   1.159   2.115   3.725 -0.5643 -0.0017  0.1195
 2224SOL    MW4 8944   1.140   2.123   3.810 -0.6391  0.1094  0.0920
 2225SOL     OW 8945   1.152   2.409   3.885 -0.2727  0.5045  0.2528
 2225SOL    HW2 8946   1.146   2.417   3.981 -1.5699 -0.2600  0.2545
 2225SOL    HW3 8947   1.141   2.315   3.869 -1.0759  0.7575 -0.7071
 2225SOL    MW4 8948   1.149   2.398   3.896 -0.5498  0.4370  0.1264
 2226SOL     OW 8949   0.900   2.469   3.801 -0.2212  0.2101 -0.0365
 2226SOL    HW2 8950   0.898   2.565   3.803  0.3505  0.2143  1.2348
 2226SOL    HW3 8951   0.991   2.447   3.823 -0.0290 -0.6120 -1.5818
 2226SOL    MW4 8952   0.912   2.479   3.804 -0.1205  0.1020 -0.0727
 2227SOL     OW 8953   0.896   2.755   3.806 -0.1982 -0.1528  0.0876
 2227SOL    HW2 8954   0.895   2.746   3.901 -2.0530  1.6224  0.2728
 2227SOL    HW3 8955   0.976   2.803   3.787 -0.1073 -0.0136  0.8200
 2227SOL    MW4 8956   0.906   2.760   3.816 -0.4310  0.0997  0.2089
 2228SOL     OW 8957   1.134   2.854   3.753 -0.1215 -0.3028  0.1018
 2228SOL    HW2 8958   1.211   2.804   3.779  0.4847  1.1333  1.1467
 2228SOL    HW3 8959   1.151   2.943   3.785 -1.0568  0.6362 -1.9245
 2228SOL    MW4 8960   1.147   2.859   3.761 -0.1650  0.0105 -0.0279
 2229SOL     OW 8961   1.141   3.120   3.868  0.1455 -0.1984  0.2205
 2229SOL    HW2 8962   1.214   3.166   3.826 -0.2099  2.8719  2.7164
 2229SOL    HW3 8963   1.063   3.165   3.836 -0.3711 -0.6069  0.8932
 2229SOL    MW4 8964   1.140   3.132   3.858  0.0304  0.1528  0.6387
 2230SOL     OW 8965   0.926   3.251   3.757 -0.2579 -0.3118 -0.0996
 2230SOL    HW2 8966   0.842   3.216   3.785  0.4999 -1.7553  0.4461
 2230SOL    HW3 8967   0.918   3.261   3.662 -0.4114 -2.2583 -0.3138
 2230SOL    MW4 8968   0.914   3.248   3.748 -0.1782 -0.7591 -0.0560
 2231SOL     OW 8969   0.901   3.503   3.856  0.1410  0.3377 -0.0517
 2231SOL    HW2 8970   0.892   3.412   3.829 -0.2686  0.6755 -1.0731
 2231SOL    HW3 8971   0.835   3.550   3.805  0.2583  1.1877  0.5683
 2231SOL    MW4 8972   0.891   3.497   3.846  0.1025  0.4942 -0.1049
 2232SOL     OW 8973   1.109   3.681   3.770  0.2034 -0.0232  0.2350
 2232SOL    HW2 8974   1.108   3.747   3.839  2.5961 -1.2210  1.5040
 2232SOL    HW3 8975   1.037   3.622   3.791  0.3045  0.1827  1.1617
 2232SOL    MW4 8976   1.099   3.682   3.782  0.5325 -0.1540  0.5248
 2233SOL     OW 8977   1.063   3.920   3.937  0.0185 -0.1331  0.6185
 2233SOL    HW2 8978   1.073   3.913   4.031  0.0468  1.2058  0.7264
 2233SOL    HW3 8979   1.146   3.955   3.906 -0.0003 -0.5343  0.0987
 2233SOL    MW4 8980   1.075   3.924   3.945  0.0198 -0.0093  0.5641
 2234SOL     OW 8981   0.872   4.060   3.775  0.3239  0.5394  0.3186
 2234SOL    HW2 8982   0.936   3.999   3.812 -0.8094 -0.7779  0.1467
 2234SOL    HW3 8983   0.892   4.061   3.681 -0.4984 -0.6212  0.1153
 2234SOL    MW4 8984   0.883   4.052   3.768  0.0658  0.2127  0.2692
 2235SOL     OW 8985   0.906   4.311   3.874  0.2769 -0.0574  0.0541
 2235SOL    HW2 8986   0.910   4.317   3.970  1.9631 -2.2042  0.1666
 2235SOL    HW3 8987   0.884   4.219   3.857  0.1022  0.2856 -1.6264
 2235SOL    MW4 8988   0.904   4.300   3.885  0.4763 -0.2952 -0.1528
 2236SOL     OW 8989   1.150   4.443   3.801  0.0457 -0.1207  0.6141
 2236SOL    HW2 8990   1.084   4.382   3.834 -0.2786  0.0525  0.2886
 2236SOL    HW3 8991   1.136   4.445   3.707  0.1851  0.3107  0.6014
 2236SOL    MW4 8992   1.140   4.435   3.793  0.0212 -0.0401  0.5693
 2237SOL     OW 8993   1.556   0.033   3.912  0.5986 -0.7991  0.0468
 2237SOL    HW2 8994   1.566   0.021   4.006 -2.2958  0.3938  0.5537
 2237SOL    HW3 8995   1.556  -0.056   3.876  0.3262 -1.3256  1.3376
 2237SOL    MW4 8996   1.558   0.020   3.920  0.1810 -0.7112  0.2837
 2238SOL     OW 8997   1.341   0.174   3.826 -0.1654 -0.1453 -0.4404
 2238SOL    HW2 8998   1.354   0.266   3.847  0.0097 -0.2732  0.0186
 2238SOL    HW3 8999   1.422   0.131   3.856 -0.5910 -0.5704  0.1020
 2238SOL    MW4 9000   1.354   0.180   3.833 -0.1986 -0.2183 -0.3083
 2239SOL     OW 9001   1.405   0.430   3.872 -0.3378  0.6476 -0.1903
 2239SOL    HW2 9002   1.431   0.408   3.961  1.4280 -2.0555 -1.2762
 2239SOL    HW3 9003   1.484   0.468   3.833 -0.2236 -0.7396 -1.3663
 2239SOL    MW4 9004   1.419   0.432   3.878 -0.0898  0.1080 -0.4888
 2240SOL     OW 9005   1.622   0.564   3.757  0.4102  0.5043 -0.2890
 2240SOL    HW2 9006   1.688   0.521   3.812 -0.9201 -0.0455  0.9232
 2240SOL    HW3 9007   1.607   0.648   3.800  0.6986  0.8519 -0.8656
 2240SOL    MW4 9008   1.629   0.569   3.770  0.2728  0.4775 -0.2050
 2241SOL     OW 9009   1.585   0.787   3.900  0.1723 -0.8039  0.5900
 2241SOL    HW2 9010   1.646   0.853   3.867  2.3879 -2.6015  1.0105
 2241SOL    HW3 9011   1.501   0.810   3.860  0.7321  2.6732  1.2865
 2241SOL    MW4 9012   1.582   0.799   3.890  0.5386 -0.5823  0.7372
 2242SOL     OW 9013   1.345   0.880   3.788  0.1819  0.0711 -0.5997
 2242SOL    HW2 9014   1.357   0.966   3.829  0.0504 -0.0730 -0.2583
 2242SOL    HW3 9015   1.269   0.842   3.833 -1.0569  0.6243 -2.1534
 2242SOL    MW4 9016   1.336   0.887   3.800  0.0012  0.1251 -0.7596
 2243SOL     OW 9017   1.377   1.145   3.869 -0.2186 -0.2208  0.3968
 2243SOL    HW2 9018   1.449   1.201   3.841  0.1783 -0.5528  0.7435
 2243SOL    HW3 9019   1.300   1.181   3.826  0.2882 -0.3765 -0.6538
 2243SOL    MW4 9020   1.377   1.157   3.860 -0.0993 -0.2853  0.3040
 2244SOL     OW 9021   1.576   1.311   3.789  0.5356  0.2136 -0.2404
 2244SOL    HW2 9022   1.664   1.283   3.812  0.3386  0.6145  1.0473
 2244SOL    HW3 9023   1.571   1.402   3.817 -0.1853  0.2887 -0.5923
 2244SOL    MW4 9024   1.587   1.319   3.796  0.4146  0.2764 -0.1166
 2245SOL     OW 9025   1.563   1.570   3.873  0.1739 -0.2583  0.5355
 2245SOL    HW2 9026   1.585   1.589   3.965  0.3205  1.1038  0.2395
 2245SOL    HW3 9027   1.628   1.619   3.822 -0.9792  0.4276 -0.3018
 2245SOL    MW4 9028   1.574   1.579   3.879  0.0411  0.0119  0.3860
 2246SOL     OW 9029   1.335   1.723   3.767  0.0332 -0.2825 -0.3539
 2246SOL    HW2 9030   1.330   1.806   3.814  1.1140 -0.3330 -0.1541
 2246SOL    HW3 9031   1.415   1.682   3.798 -1.6500 -2.4588  1.2698
 2246SOL    MW4 9032   1.345   1.729   3.777 -0.0463 -0.5764 -0.1135
 2247SOL     OW 9033   1.353   1.981   3.890  0.4117  0.0821  0.3955
 2247SOL    HW2 9034   1.349   1.980   3.986 -1.2724 -0.4220  0.3358
 2247SOL    HW3 9035   1.281   2.037   3.863  0.2772 -0.5639 -0.6080
 2247SOL    MW4 9036   1.343   1.988   3.899  0.1718 -0.0697  0.2553
 2248SOL     OW 9037   1.566   2.096   3.791 -0.2733 -0.0472 -0.1520
 2248SOL    HW2 9038   1.485   2.061   3.828 -0.4270 -0.1574 -0.5792
 2248SOL    HW3 9039   1.550   2.097   3.696 -0.3433  1.3542 -0.1431
 2248SOL    MW4 9040   1.553   2.092   3.783 -0.3029  0.1230 -0.2072
 2249SOL     OW 9041   1.604   2.331   3.953  0.0273  0.0783 -0.6058
 2249SOL    HW2 9042   1.684   2.353   3.905  0.8336 -0.2543  0.5695
 2249SOL    HW3 9043   1.579   2.245   3.919  0.3947  0.0041 -0.6906
 2249SOL    MW4 9044   1.612   2.322   3.942  0.1822  0.0243 -0.4621
 2250SOL     OW 9045   1.402   2.463   3.761 -0.1736  0.0745  0.2282
 2250SOL    HW2 9046   1.454   2.419   3.829 -0.7064 -0.6666  0.1610
 2250SOL    HW3 9047   1.311   2.446   3.785 -0.3817  0.7806 -0.0421
 2250SOL    MW4 9048   1.397   2.455   3.773 -0.2713  0.0699  0.1836
 2251SOL     OW 9049   1.368   2.716   3.849 -0.5639  0.2608 -0.2499
 2251SOL    HW2 9050   1.353   2.724   3.943 -1.0563  0.7108 -0.3665
 2251SOL    HW3 9051   1.380   2.622   3.835 -0.3741  0.2016  0.2765
 2251SOL    MW4 9052   1.368   2.705   3.860 -0.6038  0.3126 -0.1957
 2252SOL     OW 9053   1.609   2.838   3.793 -0.1258 -1.0449 -0.0915
 2252SOL    HW2 9054   1.521   2.802   3.805 -1.2018  1.7198  0.5893
 2252SOL    HW3 9055   1.624   2.832   3.699 -0.5033 -2.7009 -0.0681
 2252SOL    MW4 9056   1.599   2.832   3.782 -0.3178 -0.8984  0.0014
 2253SOL     OW 9057   1.532   3.090   3.854  0.0282 -0.2073  0.0194
 2253SOL    HW2 9058   1.515   3.088   3.948  1.8300  0.3423  0.3838
 2253SOL    HW3 9059   1.559   3.000   3.832  3.3775  0.5221  0.8237
 2253SOL    MW4 9060   1.533   3.078   3.863  0.7079 -0.0389  0.1738
 2254SOL     OW 9061   1.360   3.269   3.718  0.4563 -0.0821 -0.1151
 2254SOL    HW2 9062   1.356   3.349   3.770  0.6352 -0.5918  0.7074
 2254SOL    HW3 9063   1.431   3.218   3.759 -0.5490 -1.2389  0.2260
 2254SOL    MW4 9064   1.369   3.273   3.731  0.3474 -0.3021  0.0384
 2255SOL     OW 9065   1.327   3.503   3.880 -0.0240  0.0205 -0.1018
 2255SOL    HW2 9066   1.403   3.555   3.854  0.7055  0.0173  1.9600
 2255SOL    HW3 9067   1.252   3.559   3.860  0.5275  0.1993 -1.7376
 2255SOL    MW4 9068   1.327   3.517   3.874  0.1450  0.0439 -0.0455
 2256SOL     OW 9069   1.536   3.644   3.796 -0.2759  0.0283 -0.1168
 2256SOL    HW2 9070   1.603   3.590   3.838 -0.7098  0.8306  1.6619
 2256SOL    HW3 9071   1.548   3.731   3.834 -1.1109  0.6218 -1.1966
 2256SOL    MW4 9072   1.546   3.648   3.807 -0.4433  0.2124 -0.0248
 2257SOL     OW 9073   1.545   3.911   3.898 -0.5069  0.4130  0.2417
 2257SOL    HW2 9074   1.552   3.914   3.993  0.6964  1.0416  0.1416
 2257SOL    HW3 9075   1.453   3.930   3.880 -1.3010 -2.1971  1.3643
 2257SOL    MW4 9076   1.534   3.914   3.908 -0.4529  0.1516  0.3765
 2258SOL     OW 9077   1.289   3.990   3.801  0.0758  0.1357 -0.0458
 2258SOL    HW2 9078   1.335   4.073   3.818 -0.2008  0.3305 -0.2452
 2258SOL    HW3 9079   1.291   3.981   3.706  1.3268 -0.7847  0.0535
 2258SOL    MW4 9080   1.295   4.000   3.791  0.2043  0.0396 -0.0589
 2259SOL     OW 9081   1.375   4.268   3.852  0.2079 -0.3875  0.0882
 2259SOL    HW2 9082   1.449   4.324   3.827  0.3067 -0.3298  0.5062
 2259SOL    HW3 9083   1.299   4.326   3.846  0.2554 -0.3222  0.1186
 2259SOL    MW4 9084   1.375   4.283   3.848  0.2273 -0.3715  0.1473
 2260SOL     OW 9085   1.599   4.437   3.771  0.1220  0.2222 -0.4359
 2260SOL    HW2 9086   1.674   4.384   3.798 -0.2305 -0.5483 -0.9486
 2260SOL    HW3 9087   1.575   4.402   3.686 -2.7538 -1.6317  1.0573
 2260SOL    MW4 9088   1.606   4.426   3.764 -0.3040 -0.1245 -0.3064
 2261SOL     OW 9089   1.996   4.666   3.893  0.4287  0.3175  0.1249
 2261SOL    HW2 9090   2.064   4.721   3.855 -0.8884  0.6907 -1.7954
 2261SOL    HW3 9091   2.027   4.576   3.881  0.0948  0.4400 -1.7690
 2261SOL    MW4 9092   2.009   4.661   3.886  0.2110  0.3829 -0.3784
 2262SOL     OW 9093   1.781   0.162   3.800  0.3579 -0.0332  0.0124
 2262SOL    HW2 9094   1.857   0.108   3.823  0.5674 -0.1780 -1.0288
 2262SOL    HW3 9095   1.706   0.107   3.824  0.5704 -0.7760 -1.0035
 2262SOL    MW4 9096   1.781   0.147   3.806  0.4137 -0.1503 -0.2587
 2263SOL     OW 9097   1.805   0.414   3.912 -0.0485 -0.4951  0.2020
 2263SOL    HW2 9098   1.827   0.399   4.004  1.1790  0.1174  0.0117
 2263SOL    HW3 9099   1.790   0.326   3.877  1.1328 -0.8560  0.5777
 2263SOL    MW4 9100   1.806   0.400   3.920  0.2693 -0.4619  0.2265
 2264SOL     OW 9101   2.004   0.561   3.790 -0.1611 -0.0328  0.1319
 2264SOL    HW2 9102   1.935   0.506   3.827 -0.4535  0.7407  0.7412
 2264SOL    HW3 9103   2.020   0.524   3.703 -1.3827 -0.1825 -0.0387
 2264SOL    MW4 9104   1.997   0.549   3.783 -0.3610  0.0495  0.1898
 2265SOL     OW 9105   2.046   0.804   3.877 -0.0475 -0.5173  0.2738
 2265SOL    HW2 9106   2.055   0.792   3.972  0.1318  0.3600  0.3778
 2265SOL    HW3 9107   2.036   0.716   3.842  0.7320 -0.9133  1.0228
 2265SOL    MW4 9108   2.046   0.791   3.885  0.0789 -0.4538  0.3860
 2266SOL     OW 9109   1.786   0.941   3.808  0.1805  0.2495  0.6089
 2266SOL    HW2 9110   1.866   0.899   3.840 -0.9766 -0.4625  2.6799
 2266SOL    HW3 9111   1.780   0.916   3.716  1.6125 -0.8064  0.7886
 2266SOL    MW4 9112   1.796   0.932   3.800  0.2167  0.0162  0.9060
 2267SOL     OW 9113   1.822   1.216   3.905 -0.0896 -0.0760  0.2941
 2267SOL    HW2 9114   1.821   1.213   4.001 -4.0573  1.8455  0.3974
 2267SOL    HW3 9115   1.819   1.125   3.878  2.1617 -0.6934  1.9225
 2267SOL    MW4 9116   1.822   1.204   3.914 -0.3161  0.0961  0.5226
 2268SOL     OW 9117   2.047   1.302   3.772 -0.3009  0.5110  0.1627
 2268SOL    HW2 9118   2.114   1.247   3.812  0.6075  1.6038  0.1745
 2268SOL    HW3 9119   1.970   1.288   3.827  0.0591 -0.3493  0.4679
 2268SOL    MW4 9120   2.046   1.293   3.785 -0.1335  0.5417  0.2048
 2269SOL     OW 9121   2.047   1.559   3.829  0.0562 -0.0291  0.3394
 2269SOL    HW2 9122   1.958   1.588   3.808  0.1118  0.6249  0.9873
 2269SOL    HW3 9123   2.054   1.473   3.788  0.1511  1.1799 -2.2896
 2269SOL    MW4 9124   2.036   1.552   3.820  0.0761  0.2166  0.0782
 2270SOL     OW 9125   1.779   1.676   3.758 -0.0362  0.2195  0.0549
 2270SOL    HW2 9126   1.787   1.759   3.805 -1.3658 -0.5985  1.7677
 2270SOL    HW3 9127   1.792   1.700   3.666 -2.0116  2.6165  0.3423
 2270SOL    MW4 9128   1.782   1.690   3.752 -0.4722  0.4278  0.3190
 2271SOL     OW 9129   1.785   1.936   3.852 -0.3289 -0.3892  0.3115
 2271SOL    HW2 9130   1.787   1.939   3.947  0.8048  2.4488  0.2709
 2271SOL    HW3 9131   1.711   1.992   3.828 -0.2267 -0.5866 -0.4899
 2271SOL    MW4 9132   1.775   1.944   3.861 -0.1658 -0.0408  0.2005
 2272SOL     OW 9133   2.044   2.034   3.769 -0.4062  0.5939  0.5989
 2272SOL    HW2 9134   1.963   1.993   3.800 -0.0957 -1.0150 -0.5981
 2272SOL    HW3 9135   2.039   2.025   3.673  0.4711  1.8654  0.4343
 2272SOL    MW4 9136   2.032   2.027   3.760 -0.2496  0.5496  0.4191
 2273SOL     OW 9137   2.090   2.309   3.799 -0.2511  0.7060 -0.0062
 2273SOL    HW2 9138   2.003   2.349   3.799  0.0749  1.4081  0.1796
 2273SOL    HW3 9139   2.074   2.219   3.769 -1.1531  0.5932  0.7659
 2273SOL    MW4 9140   2.076   2.302   3.795 -0.3271  0.7837  0.1206
 2274SOL     OW 9141   1.834   2.430   3.820  0.1201  0.6805  0.2177
 2274SOL    HW2 9142   1.847   2.516   3.859  0.3397  0.4136  0.7402
 2274SOL    HW3 9143   1.824   2.447   3.726 -0.3907  1.3239  0.3875
 2274SOL    MW4 9144   1.834   2.444   3.813  0.0817  0.7303  0.3090
 2275SOL     OW 9145   1.846   2.714   3.902  0.3229  0.1223 -0.2904
 2275SOL    HW2 9146   1.827   2.724   3.995  0.4158  1.3201 -0.3924
 2275SOL    HW3 9147   1.768   2.747   3.857  0.1297 -0.7932 -0.6353
 2275SOL    MW4 9148   1.833   2.719   3.908  0.3097  0.1593 -0.3495
 2276SOL     OW 9149   2.034   2.835   3.739 -0.5872 -0.2567  0.0681
 2276SOL    HW2 9150   2.120   2.801   3.762 -0.2790  0.7963  0.5109
 2276SOL    HW3 9151   1.974   2.791   3.800 -0.3928 -1.1030 -0.3425
 2276SOL    MW4 9152   2.037   2.825   3.750 -0.5209 -0.2294  0.0725
 2277SOL     OW 9153   2.026   3.088   3.841 -0.3633  0.1062  0.0223
 2277SOL    HW2 9154   2.096   3.136   3.797  2.5582 -0.6463  3.6477
 2277SOL    HW3 9155   2.030   3.000   3.803  1.5243 -0.2815  1.0623
 2277SOL    MW4 9156   2.036   3.083   3.830  0.2711 -0.0441  0.6378
 2278SOL     OW 9157   1.768   3.229   3.792  0.8365  0.4603  0.2224
 2278SOL    HW2 9158   1.834   3.167   3.823 -0.1765 -1.7045 -1.7909
 2278SOL    HW3 9159   1.685   3.181   3.798 -0.0432  1.8124 -0.8618
 2278SOL    MW4 9160   1.766   3.214   3.797  0.5870  0.3531 -0.1862
 2279SOL     OW 9161   1.786   3.495   3.884 -0.2716  0.2567 -0.5223
 2279SOL    HW2 9162   1.863   3.540   3.849 -0.0429  0.3136  0.0512
 2279SOL    HW3 9163   1.788   3.409   3.844  0.6477 -0.0920  0.2583
 2279SOL    MW4 9164   1.796   3.490   3.874 -0.1200  0.2182 -0.3438
 2280SOL     OW 9165   2.010   3.607   3.816 -0.3097 -0.5567 -0.3335
 2280SOL    HW2 9166   2.075   3.543   3.845 -0.9314 -1.0012  0.0923
 2280SOL    HW3 9167   2.024   3.614   3.722  0.5505 -0.4291 -0.2037
 2280SOL    MW4 9168   2.020   3.600   3.808 -0.2782 -0.5987 -0.2604
 2281SOL     OW 9169   2.003   3.880   3.911  0.0239 -0.5365 -0.2885
 2281SOL    HW2 9170   2.073   3.937   3.878 -1.3766  0.9860 -0.6794
 2281SOL    HW3 9171   2.018   3.797   3.866  1.9224 -0.4158  0.0665
 2281SOL    MW4 9172   2.014   3.877   3.900  0.0896 -0.3197 -0.2930
 2282SOL     OW 9173   1.797   4.032   3.829  0.0510 -0.1222  0.3262
 2282SOL    HW2 9174   1.865   3.976   3.865  0.0720 -1.2388 -1.3778
 2282SOL    HW3 9175   1.715   3.990   3.856  0.0626 -0.0683  0.4422
 2282SOL    MW4 9176   1.795   4.019   3.837  0.0553 -0.2623  0.1168
 2283SOL     OW 9177   1.821   4.304   3.894  0.0020  0.0402 -0.2910
 2283SOL    HW2 9178   1.901   4.329   3.848 -1.2323  0.5646 -2.1974
 2283SOL    HW3 9179   1.805   4.213   3.867 -1.2392  0.6519 -1.7103
 2283SOL    MW4 9180   1.829   4.295   3.884 -0.3247  0.1903 -0.7298
 2284SOL     OW 9181   2.054   4.402   3.781 -0.5942 -0.0254 -0.2783
 2284SOL    HW2 9182   2.133   4.348   3.790 -0.0555  0.8807  0.5736
 2284SOL    HW3 9183   2.045   4.414   3.686 -1.0547 -2.0655 -0.5133
 2284SOL    MW4 9184   2.063   4.397   3.770 -0.5839 -0.1750 -0.1967
 2285SOL     OW 9185   2.460   0.016   3.874 -0.2353 -0.1080 -0.2395
 2285SOL    HW2 9186   2.468   0.008   3.969 -0.0602  1.3910 -0.1179
 2285SOL    HW3 9187   2.539   0.063   3.847 -0.7441  0.3202 -1.0092
 2285SOL    MW4 9188   2.471   0.021   3.883 -0.2792  0.1463 -0.3252
 2286SOL     OW 9189   2.218   0.162   3.791 -0.1268 -0.7229 -0.1191
 2286SOL    HW2 9190   2.287   0.105   3.826  1.2478  0.0811 -1.4518
 2286SOL    HW3 9191   2.216   0.143   3.697  1.2230  2.2308 -0.8227
 2286SOL    MW4 9192   2.227   0.152   3.783  0.2325 -0.2271 -0.3877
 2287SOL     OW 9193   2.239   0.415   3.895  0.1932  0.2067 -0.1263
 2287SOL    HW2 9194   2.227   0.331   3.849  0.1207 -0.1966  0.6153
 2287SOL    HW3 9195   2.169   0.470   3.861 -0.3169 -0.3292  0.0440
 2287SOL    MW4 9196   2.228   0.411   3.884  0.1161  0.0828 -0.0062
 2288SOL     OW 9197   2.473   0.515   3.785  0.0723  0.6277 -0.2456
 2288SOL    HW2 9198   2.399   0.458   3.807  0.9364 -0.6983 -0.7122
 2288SOL    HW3 9199   2.494   0.494   3.694  0.8924  1.1485 -0.1850
 2288SOL    MW4 9200   2.466   0.505   3.776  0.2944  0.5215 -0.2992
 2289SOL     OW 9201   2.502   0.757   3.925 -0.2973 -0.1576 -0.6316
 2289SOL    HW2 9202   2.436   0.820   3.899 -0.3386  0.6760  1.3708
 2289SOL    HW3 9203   2.489   0.682   3.867 -2.2920  0.4284 -0.9581
 2289SOL    MW4 9204   2.492   0.755   3.914 -0.5660  0.0297 -0.4106
 2290SOL     OW 9205   2.297   0.872   3.757  0.0094  0.4255  0.5121
 2290SOL    HW2 9206   2.215   0.848   3.800 -0.4298  0.1374 -0.4958
 2290SOL    HW3 9207   2.279   0.865   3.664  0.8552  1.4292  0.2628
 2290SOL    MW4 9208   2.284   0.868   3.750  0.0632  0.5199  0.3462
 2291SOL     OW 9209   2.260   1.121   3.875  0.0509 -0.3573 -0.0755
 2291SOL    HW2 9210   2.272   1.110   3.969 -0.3057 -0.2548 -0.0194
 2291SOL    HW3 9211   2.266   1.032   3.840 -0.5567 -0.4781  0.1252
 2291SOL    MW4 9212   2.263   1.107   3.883 -0.0763 -0.3597 -0.0420
 2292SOL     OW 9213   2.497   1.272   3.777  0.9858 -0.8830 -0.1485
 2292SOL    HW2 9214   2.496   1.362   3.809 -1.9884 -0.8410 -0.1829
 2292SOL    HW3 9215   2.420   1.231   3.817  2.0749 -3.3060 -0.4346
 2292SOL    MW4 9216   2.486   1.278   3.786  0.7370 -1.1971 -0.1907
 2293SOL     OW 9217   2.469   1.531   3.860  0.3186  0.3781 -0.0923
 2293SOL    HW2 9218   2.555   1.569   3.842 -0.2885  1.1295 -1.5291
 2293SOL    HW3 9219   2.407   1.593   3.821 -0.8098 -0.8109 -0.2288
 2293SOL    MW4 9220   2.472   1.544   3.853  0.0899  0.3204 -0.2999
 2294SOL     OW 9221   2.288   1.701   3.747 -0.6638 -0.4476  0.0474
 2294SOL    HW2 9222   2.282   1.786   3.791  1.2251  0.1793 -0.8657
 2294SOL    HW3 9223   2.209   1.654   3.775 -2.1511  1.8903 -0.0560
 2294SOL    MW4 9224   2.277   1.706   3.756 -0.6108 -0.0565 -0.0865
 2295SOL     OW 9225   2.285   1.940   3.881 -0.3942 -0.1086 -0.2161
 2295SOL    HW2 9226   2.289   1.945   3.976  0.3814  0.0880 -0.2574
 2295SOL    HW3 9227   2.207   1.991   3.858 -0.1190  0.5388  0.2560
 2295SOL    MW4 9228   2.275   1.947   3.891 -0.2558  0.0027 -0.1590
 2296SOL     OW 9229   2.501   2.041   3.744  0.2135  0.4868 -0.2822
 2296SOL    HW2 9230   2.515   2.123   3.791 -0.0560  1.2820 -1.5705
 2296SOL    HW3 9231   2.425   2.002   3.787 -0.1676  1.3078 -0.1988
 2296SOL    MW4 9232   2.493   2.047   3.756  0.1278  0.6998 -0.4413
 2297SOL     OW 9233   2.542   2.308   3.830  0.4475 -0.3817 -0.4509
 2297SOL    HW2 9234   2.625   2.345   3.801  0.7370 -2.1031 -1.9258
 2297SOL    HW3 9235   2.476   2.367   3.793  1.0035  1.7282  1.8159
 2297SOL    MW4 9236   2.544   2.321   3.821  0.5593 -0.3302 -0.3462
 2298SOL     OW 9237   2.317   2.453   3.734 -0.3998  0.9682 -0.0448
 2298SOL    HW2 9238   2.249   2.391   3.760  0.3256  0.2858  0.2281
 2298SOL    HW3 9239   2.302   2.469   3.641 -0.2172 -0.0744 -0.2493
 2298SOL    MW4 9240   2.306   2.447   3.725 -0.2801  0.7405 -0.0358
 2299SOL     OW 9241   2.278   2.716   3.816  0.7875 -0.1795  0.2958
 2299SOL    HW2 9242   2.268   2.698   3.909  0.5644 -0.4690  0.2167
 2299SOL    HW3 9243   2.292   2.630   3.776  0.2299 -0.1329 -0.0164
 2299SOL    MW4 9244   2.278   2.702   3.823  0.6850 -0.2117  0.2439
 2300SOL     OW 9245   2.501   2.849   3.738 -0.2424  0.3306 -0.4061
 2300SOL    HW2 9246   2.427   2.799   3.772  1.0724 -2.6973 -1.8303
 2300SOL    HW3 9247   2.500   2.834   3.644 -0.8193  4.4813 -1.1579
 2300SOL    MW4 9248   2.491   2.840   3.730 -0.1450  0.4787 -0.6933
 2301SOL     OW 9249   2.464   3.088   3.861 -0.4274  0.7302 -0.4264
 2301SOL    HW2 9250   2.447   3.065   3.953 -0.3757 -0.3820 -0.6892
 2301SOL    HW3 9251   2.472   3.004   3.816 -0.9081  1.2685 -1.5421
 2301SOL    MW4 9252   2.463   3.074   3.867 -0.4842  0.6542 -0.6084
 2302SOL     OW 9253   2.240   3.225   3.731 -0.1025 -0.5470 -0.0205
 2302SOL    HW2 9254   2.244   3.310   3.775 -0.0385 -0.8993  0.6646
 2302SOL    HW3 9255   2.311   3.174   3.769  0.3628 -0.6475 -1.0052
 2302SOL    MW4 9256   2.250   3.229   3.742 -0.0327 -0.6068 -0.0603
 2303SOL     OW 9257   2.273   3.483   3.865 -0.6683  0.1280 -0.2485
 2303SOL    HW2 9258   2.278   3.496   3.959  0.4847 -1.0299 -0.1317
 2303SOL    HW3 9259   2.334   3.547   3.828  1.1328 -1.3974  0.0013
 2303SOL    MW4 9260   2.282   3.493   3.872 -0.2787 -0.2258 -0.2000
 2304SOL     OW 9261   2.501   3.661   3.755  0.8229  0.6208  0.4396
 2304SOL    HW2 9262   2.556   3.584   3.770  1.5044  0.6845 -1.4679
 2304SOL    HW3 9263   2.495   3.667   3.659 -1.2146  1.5410  0.6037
 2304SOL    MW4 9264   2.508   3.652   3.744  0.6442  0.7508  0.2096
 2305SOL     OW 9265   2.487   3.898   3.892 -0.0945 -0.4393 -0.5244
 2305SOL    HW2 9266   2.557   3.953   3.856 -0.6393  0.7394  0.1730
 2305SOL    HW3 9267   2.497   3.814   3.847  1.4056 -0.1052 -0.8488
 2305SOL    MW4 9268   2.498   3.894   3.881  0.0315 -0.2394 -0.4754
 2306SOL     OW 9269   2.235   3.996   3.804 -0.6541 -0.2416  0.1993
 2306SOL    HW2 9270   2.313   3.953   3.837  0.2016  0.2812 -1.0890
 2306SOL    HW3 9271   2.240   3.985   3.709 -2.5572 -0.8823  0.1569
 2306SOL    MW4 9272   2.246   3.989   3.795 -0.7923 -0.2573  0.0236
 2307SOL     OW 9273   2.282   4.269   3.837 -0.2048 -0.7310  0.0885
 2307SOL    HW2 9274   2.292   4.269   3.932 -0.3696 -1.5891  0.1059
 2307SOL    HW3 9275   2.270   4.177   3.814  1.5508 -0.7153 -0.9528
 2307SOL    MW4 9276   2.282   4.257   3.847  0.0052 -0.8421 -0.0467
 2308SOL     OW 9277   2.490   4.427   3.744 -0.1429  0.0364  0.6826
 2308SOL    HW2 9278   2.424   4.369   3.783 -2.6642  0.7796 -2.3001
 2308SOL    HW3 9279   2.470   4.513   3.780  0.2152 -0.0013  0.9775
 2308SOL    MW4 9280   2.479   4.430   3.754 -0.4282  0.1292  0.3283
 2309SOL     OW 9281   2.905   4.666   3.880 -0.1800  0.1667 -0.4568
 2309SOL    HW2 9282   2.922   4.657   3.973 -0.2253  3.8156  0.0061
 2309SOL    HW3 9283   2.982   4.713   3.846 -1.2812  1.1066 -1.7170
 2309SOL    MW4 9284   2.917   4.671   3.888 -0.3312  0.7720 -0.5620
 2310SOL     OW 9285   2.704   0.154   3.784 -0.2208 -0.0943 -0.1164
 2310SOL    HW2 9286   2.779   0.104   3.817 -1.6515 -3.3801 -1.6529
 2310SOL    HW3 9287   2.705   0.138   3.689 -3.2211 -0.7091 -0.0834
 2310SOL    MW4 9288   2.714   0.146   3.776 -0.8054 -0.6090 -0.3147
 2311SOL     OW 9289   2.717   0.420   3.874  0.2468 -0.0777 -0.1118
 2311SOL    HW2 9290   2.717   0.329   3.843 -0.4198  0.1963 -0.9476
 2311SOL    HW3 9291   2.632   0.454   3.847  0.8353  1.0433 -0.5782
 2311SOL    MW4 9292   2.706   0.412   3.866  0.2365  0.1063 -0.2837
 2312SOL     OW 9293   2.966   0.520   3.763  0.2744 -0.3887  0.1874
 2312SOL    HW2 9294   3.039   0.480   3.810 -0.2108 -1.1177  0.3246
 2312SOL    HW3 9295   2.889   0.470   3.790 -0.0366 -0.7492 -1.2669
 2312SOL    MW4 9296   2.966   0.508   3.773  0.1693 -0.5324  0.0136
 2313SOL     OW 9297   2.933   0.762   3.894 -0.1016 -0.1049  0.0060
 2313SOL    HW2 9298   3.016   0.810   3.886 -0.0230 -0.2237  0.1129
 2313SOL    HW3 9299   2.950   0.677   3.854  0.1030 -0.4705  0.8699
 2313SOL    MW4 9300   2.946   0.757   3.888 -0.0644 -0.1688  0.1342
 2314SOL     OW 9301   2.697   0.865   3.760  0.0045 -0.3992 -0.4170
 2314SOL    HW2 9302   2.776   0.829   3.802 -0.4755  0.0031  0.8552
 2314SOL    HW3 9303   2.625   0.830   3.812 -0.5927  0.2898 -0.7771
 2314SOL    MW4 9304   2.698   0.855   3.773 -0.1376 -0.2552 -0.2966
 2315SOL     OW 9305   2.702   1.115   3.868 -0.0343 -0.2377  0.4900
 2315SOL    HW2 9306   2.698   1.028   3.829  1.9645 -0.1639  0.1032
 2315SOL    HW3 9307   2.624   1.160   3.833 -0.8173 -1.6934  0.3245
 2315SOL    MW4 9308   2.691   1.110   3.858  0.1261 -0.4202  0.4172
 2316SOL     OW 9309   2.924   1.233   3.738 -0.2320 -0.0296 -0.6549
 2316SOL    HW2 9310   2.933   1.324   3.764  0.0518 -0.3012  0.2174
 2316SOL    HW3 9311   2.849   1.200   3.787 -0.2610 -0.3006 -0.8726
 2316SOL    MW4 9312   2.916   1.240   3.748 -0.1981 -0.1012 -0.5684
 2317SOL     OW 9313   2.947   1.485   3.841 -0.3133  0.0164  0.1963
 2317SOL    HW2 9314   2.942   1.498   3.935 -0.3514 -0.1334  0.2144
 2317SOL    HW3 9315   3.030   1.525   3.815  1.6845 -3.5666  0.8720
 2317SOL    MW4 9316   2.957   1.492   3.850 -0.0548 -0.4760  0.2878
 2318SOL     OW 9317   2.731   1.636   3.800  0.1756 -0.3486  0.4029
 2318SOL    HW2 9318   2.808   1.580   3.807  0.8330  0.6683  1.3576
 2318SOL    HW3 9319   2.725   1.658   3.707 -0.8764 -3.0819 -0.2233
 2318SOL    MW4 9320   2.740   1.632   3.789  0.1235 -0.5751  0.4463
 2319SOL     OW 9321   2.755   1.904   3.863 -0.1197  0.4303 -0.0329
 2319SOL    HW2 9322   2.761   1.811   3.843  0.4876  0.9587 -2.4598
 2319SOL    HW3 9323   2.677   1.934   3.817 -0.5829  1.0281  1.1324
 2319SOL    MW4 9324   2.746   1.896   3.854 -0.1011  0.5789 -0.1993
 2320SOL     OW 9325   2.984   2.009   3.748 -0.0363  0.1144 -0.1270
 2320SOL    HW2 9326   2.981   2.102   3.773  0.1511 -0.2828  1.4098
 2320SOL    HW3 9327   2.908   1.970   3.790  1.8269 -1.1275  2.2212
 2320SOL    MW4 9328   2.974   2.016   3.757  0.2344 -0.1018  0.3855
 2321SOL     OW 9329   2.959   2.274   3.848  0.2710 -0.0339  0.2303
 2321SOL    HW2 9330   2.953   2.282   3.943  0.8055 -0.3795  0.2932
 2321SOL    HW3 9331   3.039   2.322   3.826 -0.5833  1.2170 -0.1899
 2321SOL    MW4 9332   2.969   2.282   3.858  0.2286  0.0854  0.1833
 2322SOL     OW 9333   2.761   2.451   3.751 -0.5951 -0.2279  0.4395
 2322SOL    HW2 9334   2.764   2.536   3.795  0.3566 -0.0010 -0.0540
 2322SOL    HW3 9335   2.825   2.397   3.798  0.7645  0.1564 -0.9214
 2322SOL    MW4 9336   2.770   2.455   3.763 -0.2899 -0.1473  0.1950
 2323SOL     OW 9337   2.708   2.718   3.887 -0.5014 -0.2614 -0.1053
 2323SOL    HW2 9338   2.700   2.736   3.981 -0.5325  0.6634 -0.2750
 2323SOL    HW3 9339   2.630   2.759   3.849 -0.5065 -0.6654 -0.5345
 2323SOL    MW4 9340   2.697   2.726   3.894 -0.5064 -0.1926 -0.1843
 2324SOL     OW 9341   2.947   2.799   3.771  0.2029  0.7797  0.1092
 2324SOL    HW2 9342   2.963   2.890   3.797 -0.7917  0.7667  0.7743
 2324SOL    HW3 9343   2.866   2.775   3.815  0.0010 -0.1625 -0.7565
 2324SOL    MW4 9344   2.939   2.808   3.780  0.0453  0.6537  0.0830
 2325SOL     OW 9345   2.934   3.069   3.854 -0.2838  0.1750 -0.3452
 2325SOL    HW2 9346   3.003   3.133   3.836 -0.1084  0.1229  0.1281
 2325SOL    HW3 9347   2.854   3.109   3.821  0.3048 -0.7138 -3.0047
 2325SOL    MW4 9348   2.933   3.083   3.847 -0.1831  0.0508 -0.6337
 2326SOL     OW 9349   2.713   3.195   3.791 -0.5075 -0.2643  0.1422
 2326SOL    HW2 9350   2.706   3.288   3.816 -0.7523 -0.5756  1.2453
 2326SOL    HW3 9351   2.628   3.158   3.816 -0.0080 -1.0213  0.7292
 2326SOL    MW4 9352   2.701   3.203   3.798 -0.4740 -0.4053  0.3655
 2327SOL     OW 9353   2.669   3.460   3.835 -0.4020  0.2023 -0.0318
 2327SOL    HW2 9354   2.666   3.486   3.928 -0.4076  0.8371 -0.2055
 2327SOL    HW3 9355   2.751   3.498   3.803 -0.2490 -0.2748 -0.2163
 2327SOL    MW4 9356   2.680   3.468   3.843 -0.3827  0.2229 -0.0792
 2328SOL     OW 9357   2.895   3.582   3.740 -0.1545  0.4905 -0.2656
 2328SOL    HW2 9358   2.978   3.568   3.786 -0.0643 -0.3574 -0.6765
 2328SOL    HW3 9359   2.919   3.593   3.649 -0.3976  1.4505 -0.2198
 2328SOL    MW4 9360   2.909   3.581   3.734 -0.1748  0.5054 -0.3135
 2329SOL     OW 9361   2.935   3.848   3.823  0.2451  0.3156 -0.0394
 2329SOL    HW2 9362   2.922   3.823   3.914 -1.0522 -1.2114 -0.6281
 2329SOL    HW3 9363   2.922   3.768   3.773  0.1164  1.3050 -1.6456
 2329SOL    MW4 9364   2.932   3.834   3.828  0.0570  0.2446 -0.3293
 2330SOL     OW 9365   2.711   4.023   3.788  0.2295  0.3905  0.7949
 2330SOL    HW2 9366   2.719   4.104   3.839  1.9450 -0.9226  2.6981
 2330SOL    HW3 9367   2.791   3.974   3.809  0.6422 -0.5110 -2.6452
 2330SOL    MW4 9368   2.723   4.027   3.797  0.5105  0.0978  0.5920
 2331SOL     OW 9369   2.698   4.284   3.859  0.5450  0.2992  0.5086
 2331SOL    HW2 9370   2.779   4.316   3.818  0.0846 -0.1631 -0.7993
 2331SOL    HW3 9371   2.628   4.331   3.813 -0.0821 -1.6778 -0.6173
 2331SOL    MW4 9372   2.699   4.295   3.847  0.4015 -0.0224  0.1872
 2332SOL     OW 9373   2.928   4.400   3.766  0.0265 -0.0003 -0.0744
 2332SOL    HW2 9374   3.007   4.358   3.799  1.2786  1.8250 -0.6794
 2332SOL    HW3 9375   2.926   4.486   3.809 -1.5370  0.0413 -0.1853
 2332SOL    MW4 9376   2.938   4.406   3.776 -0.0145  0.2460 -0.1688
 2333SOL     OW 9377   3.354   0.018   3.882 -0.1153  0.2557 -1.0136
 2333SOL    HW2 9378   3.358   0.029   3.977  0.9677 -0.8384 -0.9276
 2333SOL    HW3 9379   3.432   0.063   3.849 -0.1387  0.0592 -1.3375
 2333SOL    MW4 9380   3.365   0.025   3.890  0.0246  0.0855 -1.0450
 2334SOL     OW 9381   3.116   0.150   3.791  0.1451  0.1308  0.1722
 2334SOL    HW2 9382   3.190   0.093   3.813  0.3197  0.5480  0.6669
 2334SOL    HW3 9383   3.113   0.149   3.696  1.2091  0.6447  0.1292
 2334SOL    MW4 9384   3.125   0.142   3.782  0.3085  0.2536  0.2317
 2335SOL     OW 9385   3.176   0.418   3.909  0.1332 -0.4962  0.2256
 2335SOL    HW2 9386   3.176   0.432   4.004  0.0469 -0.8372  0.2765
 2335SOL    HW3 9387   3.167   0.323   3.899 -1.5959 -0.2989 -0.1554
 2335SOL    MW4 9388   3.175   0.407   3.920 -0.1066 -0.5151  0.1819
 2336SOL     OW 9389   3.374   0.521   3.749 -0.1056  0.4501  0.1198
 2336SOL    HW2 9390   3.451   0.474   3.780  0.9699  1.6222 -0.7098
 2336SOL    HW3 9391   3.300   0.481   3.796  0.8963 -1.2984  0.2474
 2336SOL    MW4 9392   3.374   0.510   3.759  0.1686  0.3741  0.0272
 2337SOL     OW 9393   3.401   0.748   3.893 -0.1435 -1.0148  0.2698
 2337SOL    HW2 9394   3.405   0.718   3.984 -0.5312 -3.4220 -0.4808
 2337SOL    HW3 9395   3.382   0.670   3.842  0.6547  0.2005 -1.9790
 2337SOL    MW4 9396   3.399   0.734   3.898 -0.0894 -1.1721 -0.1259
 2338SOL     OW 9397   3.171   0.877   3.810 -0.1661  0.1792 -0.1577
 2338SOL    HW2 9398   3.262   0.855   3.830 -0.4718  0.3739  1.5479
 2338SOL    HW3 9399   3.167   0.876   3.715  1.2421 -1.3461 -0.2349
 2338SOL    MW4 9400   3.183   0.874   3.800 -0.0207  0.0036  0.0575
 2339SOL     OW 9401   3.158   1.143   3.880  0.5735  0.5554  0.4291
 2339SOL    HW2 9402   3.168   1.051   3.858  1.0105  0.6509  0.2311
 2339SOL    HW3 9403   3.079   1.170   3.833  0.9949  0.5300 -0.3010
 2339SOL    MW4 9404   3.149   1.135   3.871  0.6866  0.5646  0.3066
 2340SOL     OW 9405   3.368   1.272   3.769  0.0959  0.1074 -0.2497
 2340SOL    HW2 9406   3.286   1.240   3.808  0.7311 -1.2457  0.0027
 2340SOL    HW3 9407   3.359   1.253   3.676  0.2276 -0.2629 -0.1860
 2340SOL    MW4 9408   3.356   1.265   3.762  0.1972 -0.1200 -0.2079
 2341SOL     OW 9409   3.395   1.534   3.855  0.3186  0.3040  0.0024
 2341SOL    HW2 9410   3.312   1.573   3.828  0.0641  0.6365  1.2055
 2341SOL    HW3 9411   3.391   1.444   3.825 -1.0331 -0.0382  1.1435
 2341SOL    MW4 9412   3.384   1.528   3.848  0.1066  0.3027  0.3119
 2342SOL     OW 9413   3.166   1.655   3.749 -0.0067  0.9178  0.6469
 2342SOL    HW2 9414   3.168   1.743   3.787  2.5871  0.9881  0.4373
 2342SOL    HW3 9415   3.201   1.666   3.661 -0.1975 -0.2385  0.4192
 2342SOL    MW4 9416   3.171   1.668   3.743  0.3104  0.7745  0.5891
 2343SOL     OW 9417   3.196   1.909   3.900  0.0308 -0.1756  0.3689
 2343SOL    HW2 9418   3.181   1.921   3.994  1.9758  0.4394  0.6341
 2343SOL    HW3 9419   3.121   1.949   3.858 -1.0317 -0.7427  1.6663
 2343SOL    MW4 9420   3.184   1.916   3.907  0.1471 -0.1692  0.5753
 2344SOL     OW 9421   3.415   2.057   3.781 -0.3800 -0.3559 -0.0291
 2344SOL    HW2 9422   3.339   2.001   3.799 -0.6886  0.1314  0.1903
 2344SOL    HW3 9423   3.401   2.087   3.691 -0.4295 -0.2828  0.0040
 2344SOL    MW4 9424   3.403   2.053   3.772 -0.4272 -0.2820  0.0043
 2345SOL     OW 9425   3.414   2.298   3.877  0.0067 -0.5139 -0.2620
 2345SOL    HW2 9426   3.345   2.336   3.823  0.9503  1.3884 -0.1959
 2345SOL    HW3 9427   3.407   2.204   3.863 -1.6433 -0.2411 -1.3978
 2345SOL    MW4 9428   3.404   2.291   3.868 -0.0865 -0.2265 -0.4032
 2346SOL     OW 9429   3.179   2.425   3.767 -0.6107 -0.3471 -0.5642
 2346SOL    HW2 9430   3.165   2.503   3.819  0.4427 -0.6786  0.2361
 2346SOL    HW3 9431   3.161   2.452   3.677  0.1598  0.9212 -0.3391
 2346SOL    MW4 9432   3.175   2.439   3.762 -0.3700 -0.2236 -0.4289
 2347SOL     OW 9433   3.179   2.676   3.872  0.0003  0.0055 -0.1045
 2347SOL    HW2 9434   3.181   2.676   3.968 -0.3110 -0.6968 -0.0987
 2347SOL    HW3 9435   3.095   2.717   3.850  0.0644  0.1513 -0.0794
 2347SOL    MW4 9436   3.168   2.681   3.882 -0.0322 -0.0677 -0.1001
 2348SOL     OW 9437   3.401   2.827   3.771 -0.1376 -0.2899 -0.0991
 2348SOL    HW2 9438   3.321   2.781   3.799  0.0561 -0.1952  0.6288
 2348SOL    HW3 9439   3.394   2.832   3.676 -0.4089 -1.3750 -0.1402
 2348SOL    MW4 9440   3.389   2.821   3.762 -0.1481 -0.4203 -0.0083
 2349SOL     OW 9441   3.336   3.076   3.854 -0.1607 -0.1050  0.3055
 2349SOL    HW2 9442   3.422   3.118   3.842 -0.6178  0.8524  0.3337
 2349SOL    HW3 9443   3.348   2.987   3.820  0.7648  0.1083  0.0479
 2349SOL    MW4 9444   3.349   3.070   3.848 -0.0987  0.0494  0.2754
 2350SOL     OW 9445   3.129   3.270   3.792  0.3735 -0.4244  0.1762
 2350SOL    HW2 9446   3.195   3.208   3.824  0.3794 -1.0291 -0.9832
 2350SOL    HW3 9447   3.136   3.265   3.697 -0.1438  0.8152  0.0703
 2350SOL    MW4 9448   3.138   3.261   3.784  0.3057 -0.3407  0.0095
 2351SOL     OW 9449   3.125   3.517   3.886  0.3811 -0.3919 -0.0762
 2351SOL    HW2 9450   3.208   3.545   3.849 -0.2625  0.7451 -0.6744
 2351SOL    HW3 9451   3.123   3.422   3.872  2.0123 -0.5743  0.8601
 2351SOL    MW4 9452   3.135   3.508   3.879  0.5112 -0.2658 -0.0315
 2352SOL     OW 9453   3.370   3.612   3.792 -0.1796  0.0626 -0.5569
 2352SOL    HW2 9454   3.376   3.706   3.809  2.9001 -0.3631  1.2030
 2352SOL    HW3 9455   3.392   3.603   3.699  1.9169  0.9337 -0.1740
 2352SOL    MW4 9456   3.374   3.623   3.782  0.5033  0.1214 -0.2742
 2353SOL     OW 9457   3.396   3.891   3.852  0.0663 -0.3214  0.2663
 2353SOL    HW2 9458   3.471   3.920   3.800 -0.6328 -1.4942 -1.4084
 2353SOL    HW3 9459   3.320   3.933   3.811 -0.5552 -1.7105 -0.0040
 2353SOL    MW4 9460   3.396   3.901   3.840 -0.1080 -0.6595  0.0095
 2354SOL     OW 9461   3.175   4.003   3.768 -0.2505  0.2855 -0.3206
 2354SOL    HW2 9462   3.158   4.088   3.808  0.2321 -0.9834  2.6505
 2354SOL    HW3 9463   3.098   3.950   3.790  0.4955 -0.7467 -0.1820
 2354SOL    MW4 9464   3.162   4.007   3.776 -0.0885 -0.0176  0.0899
 2355SOL     OW 9465   3.150   4.273   3.864 -0.1858  0.1947 -0.0297
 2355SOL    HW2 9466   3.148   4.264   3.959  2.2256 -1.7638 -0.1175
 2355SOL    HW3 9467   3.228   4.325   3.846 -0.9426  1.0351 -0.9154
 2355SOL    MW4 9468   3.160   4.278   3.874  0.0327  0.0472 -0.1583
 2356SOL     OW 9469   3.369   4.420   3.779  0.0881 -0.0583  0.1865
 2356SOL    HW2 9470   3.446   4.383   3.822 -0.0192  0.1163  0.5271
 2356SOL    HW3 9471   3.359   4.507   3.817 -0.1927 -0.0239  0.0380
 2356SOL    MW4 9472   3.377   4.427   3.789  0.0370 -0.0305  0.2120
 2357SOL     OW 9473   3.798   4.648   3.907 -0.0827 -0.1832 -0.3173
 2357SOL    HW2 9474   3.871   4.694   3.866 -1.5144  0.7004 -1.9383
 2357SOL    HW3 9475   3.802   4.559   3.871  1.8185 -0.9935  1.7259
 2357SOL    MW4 9476   3.808   4.642   3.897 -0.0210 -0.1731 -0.2615
 2358SOL     OW 9477   3.585   0.117   3.776 -0.1103  0.2791 -0.1114
 2358SOL    HW2 9478   3.656   0.068   3.817 -0.5811 -0.7863 -0.5329
 2358SOL    HW3 9479   3.593   0.096   3.683 -1.5604 -0.6329 -0.0437
 2358SOL    MW4 9480   3.596   0.107   3.769 -0.3636  0.0182 -0.1581
 2359SOL     OW 9481   3.607   0.387   3.819  0.3316 -0.0973 -0.2342
 2359SOL    HW2 9482   3.689   0.419   3.781  0.0896  1.9727  0.8712
 2359SOL    HW3 9483   3.607   0.293   3.801  3.0964 -0.2004  0.0453
 2359SOL    MW4 9484   3.618   0.379   3.812  0.6645  0.1622 -0.0513
 2360SOL     OW 9485   3.848   0.497   3.746  0.5210 -0.1660 -0.0620
 2360SOL    HW2 9486   3.926   0.455   3.783  0.4523 -0.6221 -0.4277
 2360SOL    HW3 9487   3.846   0.584   3.787  1.1639 -0.1865  0.0230
 2360SOL    MW4 9488   3.858   0.503   3.756  0.5965 -0.2288 -0.0992
 2361SOL     OW 9489   3.853   0.759   3.859  0.2505  0.1776 -0.1038
 2361SOL    HW2 9490   3.933   0.810   3.840  0.3973  0.5783  1.5027
 2361SOL    HW3 9491   3.781   0.819   3.837  0.4072  0.3749 -0.0803
 2361SOL    MW4 9492   3.854   0.774   3.854  0.2904  0.2565  0.1111
 2362SOL     OW 9493   3.619   0.880   3.796 -0.2802 -0.3404 -0.0922
 2362SOL    HW2 9494   3.621   0.972   3.821 -1.4421 -0.7935  1.7911
 2362SOL    HW3 9495   3.549   0.842   3.849  1.5137 -2.7491  0.6507
 2362SOL    MW4 9496   3.610   0.887   3.806 -0.1967 -0.7179  0.2542
 2363SOL     OW 9497   3.591   1.158   3.873 -0.2259 -0.3789  0.3775
 2363SOL    HW2 9498   3.670   1.197   3.836 -0.1756 -2.3070 -1.6086
 2363SOL    HW3 9499   3.519   1.202   3.829 -0.1823 -1.7346 -1.0788
 2363SOL    MW4 9500   3.592   1.169   3.863 -0.2134 -0.8123 -0.0768
 2364SOL     OW 9501   3.834   1.260   3.789  0.2500  0.0536  0.2770
 2364SOL    HW2 9502   3.917   1.219   3.814  0.4684 -0.4040 -1.1576
 2364SOL    HW3 9503   3.846   1.353   3.812  0.5737 -0.2737  1.4810
 2364SOL    MW4 9504   3.847   1.267   3.795  0.3219 -0.0499  0.2465
 2365SOL     OW 9505   3.873   1.545   3.860  0.1648  0.5500 -0.0335
 2365SOL    HW2 9506   3.864   1.539   3.955 -1.3567 -1.3866 -0.2830
 2365SOL    HW3 9507   3.805   1.607   3.833 -2.0226 -1.8493 -0.2253
 2365SOL    MW4 9508   3.863   1.552   3.869 -0.3245 -0.0222 -0.0918
 2366SOL     OW 9509   3.632   1.664   3.756  0.2956 -0.2164 -0.0337
 2366SOL    HW2 9510   3.552   1.620   3.783  0.1928  0.6601  1.1363
 2366SOL    HW3 9511   3.631   1.659   3.660 -1.1081 -0.2948 -0.0302
 2366SOL    MW4 9512   3.621   1.658   3.747  0.0970 -0.1111  0.1211
 2367SOL     OW 9513   3.650   1.919   3.880 -0.4342 -0.2955  0.3044
 2367SOL    HW2 9514   3.644   1.832   3.840 -0.7099 -0.2780  0.3066
 2367SOL    HW3 9515   3.575   1.967   3.845 -0.4693 -0.1647  0.5542
 2367SOL    MW4 9516   3.639   1.914   3.870 -0.4752 -0.2759  0.3376
 2368SOL     OW 9517   3.866   2.055   3.765 -0.6910  0.0747 -0.3122
 2368SOL    HW2 9518   3.944   2.022   3.810 -0.3444  0.2930 -0.7484
 2368SOL    HW3 9519   3.794   2.003   3.801 -0.2792 -0.4593 -0.2546
 2368SOL    MW4 9520   3.867   2.044   3.776 -0.5908  0.0334 -0.3622
 2369SOL     OW 9521   3.878   2.304   3.880  0.1845 -0.1266  0.0609
 2369SOL    HW2 9522   3.795   2.345   3.853  1.1752  2.3266  0.6290
 2369SOL    HW3 9523   3.876   2.218   3.839 -1.9466  0.4912 -1.2273
 2369SOL    MW4 9524   3.866   2.298   3.871  0.0339  0.2787 -0.0341
 2370SOL     OW 9525   3.646   2.429   3.781 -0.0565  0.2628  0.3552
 2370SOL    HW2 9526   3.560   2.395   3.806  0.0659  0.3091  0.8361
 2370SOL    HW3 9527   3.636   2.452   3.689 -0.4735 -0.0125  0.3282
 2370SOL    MW4 9528   3.633   2.427   3.772 -0.0951  0.2329  0.4151
 2371SOL     OW 9529   3.632   2.717   3.860  0.2929 -0.2624  0.4094
 2371SOL    HW2 9530   3.626   2.623   3.844  0.0727 -0.0158 -1.0192
 2371SOL    HW3 9531   3.544   2.751   3.844  0.2416  0.1180  1.4382
 2371SOL    MW4 9532   3.620   2.709   3.856  0.2570 -0.1795  0.3567
 2372SOL     OW 9533   3.871   2.873   3.801 -0.4484  0.1065  0.2871
 2372SOL    HW2 9534   3.948   2.816   3.810  0.1942  0.9932  0.4809
 2372SOL    HW3 9535   3.798   2.819   3.833  0.1908 -0.5122  0.7328
 2372SOL    MW4 9536   3.871   2.858   3.807 -0.2794  0.1419  0.3717
 2373SOL     OW 9537   3.831   3.135   3.875  0.2929  0.0525 -0.3567
 2373SOL    HW2 9538   3.749   3.162   3.833  0.6474  0.6003 -0.7161
 2373SOL    HW3 9539   3.845   3.045   3.845  0.0109  0.0855 -0.5895
 2373SOL    MW4 9540   3.822   3.127   3.865  0.3026  0.1292 -0.4349
 2374SOL     OW 9541   3.569   3.225   3.820  0.3853  0.5847  0.4406
 2374SOL    HW2 9542   3.592   3.313   3.848  1.7621  0.3696  0.0615
 2374SOL    HW3 9543   3.572   3.229   3.724  1.9428 -0.2278  0.4358
 2374SOL    MW4 9544   3.573   3.237   3.811  0.7725  0.4492  0.3898
 2375SOL     OW 9545   3.612   3.488   3.849  0.4826  0.1551  0.1583
 2375SOL    HW2 9546   3.626   3.508   3.942  1.3664  0.0979  0.0367
 2375SOL    HW3 9547   3.531   3.534   3.827 -0.0235 -0.2610  1.0946
 2375SOL    MW4 9548   3.603   3.497   3.858  0.5324  0.0925  0.2654
 2376SOL     OW 9549   3.830   3.644   3.780 -0.2807 -0.0073  0.0872
 2376SOL    HW2 9550   3.804   3.722   3.829 -1.1736 -0.2422 -0.0030
 2376SOL    HW3 9551   3.753   3.587   3.783 -0.1457 -0.2641 -1.1026
 2376SOL    MW4 9552   3.816   3.647   3.787 -0.3805 -0.0722 -0.0818
 2377SOL     OW 9553   3.795   3.906   3.914  0.0324  0.2970  0.1373
 2377SOL    HW2 9554   3.817   3.893   4.006  0.5574  2.2618  0.2959
 2377SOL    HW3 9555   3.870   3.953   3.877 -0.2689 -0.2706 -1.2489
 2377SOL    MW4 9556   3.808   3.910   3.921  0.0618  0.4814 -0.0250
 2378SOL     OW 9557   3.613   4.046   3.750 -0.3417 -0.0588 -0.5015
 2378SOL    HW2 9558   3.603   4.130   3.796  1.9969  0.7030 -1.3199
 2378SOL    HW3 9559   3.674   3.996   3.805  1.7115  0.4901 -2.2427
 2378SOL    MW4 9560   3.620   4.051   3.764  0.2379  0.1140 -0.8392
 2379SOL     OW 9561   3.598   4.295   3.857 -0.0916  0.0301  0.4644
 2379SOL    HW2 9562   3.599   4.305   3.952 -0.1525  1.0763  0.3560
 2379SOL    HW3 9563   3.686   4.323   3.829 -0.7524  1.7278  0.0204
 2379SOL    MW4 9564   3.610   4.300   3.866 -0.1872  0.3915  0.3915
 2380SOL     OW 9565   3.842   4.397   3.766  0.2166  0.0662  0.2618
 2380SOL    HW2 9566   3.915   4.348   3.803 -1.4212 -1.8617  1.0497
 2380SOL    HW3 9567   3.841   4.372   3.673 -0.2798 -1.0018  0.5456
 2380SOL    MW4 9568   3.851   4.387   3.759 -0.0648 -0.3290  0.4032
 2381SOL     OW 9569   4.314   4.653   3.886  0.2079 -0.3089 -0.1902
 2381SOL    HW2 9570   4.325   4.655   3.981 -0.8358  0.1737 -0.0678
 2381SOL    HW3 9571   4.378   4.716   3.854  1.5057 -1.4776  0.0875
 2381SOL    MW4 9572   4.324   4.662   3.894  0.2413 -0.3994 -0.1378
 2382SOL     OW 9573   4.054   0.111   3.804  0.0386  0.1741  0.6900
 2382SOL    HW2 9574   4.130   0.058   3.828  0.3403 -0.1380 -0.8881
 2382SOL    HW3 9575   4.054   0.111   3.708 -2.8817 -1.1719  0.6393
 2382SOL    MW4 9576   4.064   0.104   3.795 -0.3066 -0.0447  0.4749
 2383SOL     OW 9577   4.066   0.381   3.865  0.4345 -0.8150  0.1827
 2383SOL    HW2 9578   4.070   0.384   3.960  0.8279 -0.6599  0.1622
 2383SOL    HW3 9579   4.067   0.288   3.843  0.6531 -0.8444  0.3176
 2383SOL    MW4 9580   4.067   0.370   3.875  0.5150 -0.7984  0.1976
 2384SOL     OW 9581   4.282   0.520   3.760 -0.3423  0.0610 -0.1148
 2384SOL    HW2 9582   4.210   0.460   3.780 -1.3093  1.5233  0.9090
 2384SOL    HW3 9583   4.274   0.537   3.666 -1.3343  0.2081 -0.0076
 2384SOL    MW4 9584   4.271   0.514   3.750 -0.6013  0.2733  0.0346
 2385SOL     OW 9585   4.309   0.754   3.892  0.1968  0.1310 -0.6237
 2385SOL    HW2 9586   4.236   0.804   3.855 -0.6696  0.0596  0.9700
 2385SOL    HW3 9587   4.303   0.669   3.848  0.2604  0.6276 -1.6192
 2385SOL    MW4 9588   4.299   0.749   3.881  0.0906  0.1871 -0.5448
 2386SOL     OW 9589   4.077   0.901   3.781  0.1619  0.4582 -0.0233
 2386SOL    HW2 9590   4.086   0.992   3.809 -0.4601  0.0014  1.7700
 2386SOL    HW3 9591   4.061   0.906   3.687 -0.4985  2.2432  0.1624
 2386SOL    MW4 9592   4.076   0.914   3.772 -0.0076  0.6334  0.2379
 2387SOL     OW 9593   4.065   1.148   3.891  0.1178  0.0912  0.5151
 2387SOL    HW2 9594   4.057   1.143   3.986 -0.1583  0.8549  0.5384
 2387SOL    HW3 9595   4.152   1.186   3.876 -0.3071  1.0737  0.4954
 2387SOL    MW4 9596   4.075   1.152   3.902  0.0257  0.3217  0.5157
 2388SOL     OW 9597   4.317   1.276   3.836 -0.3972 -0.4766 -0.4655
 2388SOL    HW2 9598   4.285   1.352   3.884 -0.1774 -0.5993 -0.1199
 2388SOL    HW3 9599   4.286   1.288   3.747  1.6301  1.2346 -0.9886
 2388SOL    MW4 9600   4.309   1.288   3.831 -0.1001 -0.2670 -0.4890
 2389SOL     OW 9601   4.279   1.542   3.946 -0.2542 -0.0672  0.5243
 2389SOL    HW2 9602   4.208   1.586   3.898 -0.6653 -1.9624 -0.6711
 2389SOL    HW3 9603   4.359   1.566   3.899 -0.4689 -0.5316 -0.0809
 2389SOL    MW4 9604   4.280   1.551   3.933 -0.3371 -0.3785  0.2866
 2390SOL     OW 9605   4.100   1.665   3.786 -0.4337 -0.2331  0.1496
 2390SOL    HW2 9606   4.088   1.749   3.830  1.9413  0.0787  0.2724
 2390SOL    HW3 9607   4.022   1.614   3.809 -2.2200  2.1390 -0.4656
 2390SOL    MW4 9608   4.088   1.669   3.794 -0.3562  0.1210  0.0846
 2391SOL     OW 9609   4.088   1.919   3.894 -0.3406 -0.1555 -0.2269
 2391SOL    HW2 9610   4.103   1.936   3.986 -0.5284 -1.9339  0.1558
 2391SOL    HW3 9611   4.169   1.944   3.851 -0.0101  0.0416  0.5106
 2391SOL    MW4 9612   4.101   1.924   3.900 -0.3214 -0.3642 -0.0792
 2392SOL     OW 9613   4.314   2.050   3.779 -0.5249 -0.3016 -0.1897
 2392SOL    HW2 9614   4.318   2.144   3.799  0.8374 -0.6667  1.3649
 2392SOL    HW3 9615   4.313   2.046   3.683 -1.9936  1.3375 -0.2668
 2392SOL    MW4 9616   4.315   2.062   3.769 -0.5393 -0.1333  0.0050
 2393SOL     OW 9617   4.311   2.325   3.839  0.0240 -0.3858 -0.1556
 2393SOL    HW2 9618   4.297   2.333   3.934 -0.4074  1.0073 -0.3292
 2393SOL    HW3 9619   4.239   2.374   3.800  0.9070  0.1146 -1.1855
 2393SOL    MW4 9620   4.300   2.333   3.847  0.0834 -0.1361 -0.3145
 2394SOL     OW 9621   4.065   2.451   3.743  0.0807 -0.4816 -0.1123
 2394SOL    HW2 9622   4.053   2.537   3.783  0.7537 -0.3313 -0.2305
 2394SOL    HW3 9623   4.012   2.392   3.797 -0.1920 -0.0311  0.1105
 2394SOL    MW4 9624   4.057   2.454   3.756  0.1335 -0.4022 -0.0985
 2395SOL     OW 9625   4.071   2.713   3.867  0.0390  0.3140  0.0929
 2395SOL    HW2 9626   4.068   2.717   3.962  1.6097  1.9152  0.0977
 2395SOL    HW3 9627   4.136   2.778   3.842  0.4862 -0.8971 -2.0206
 2395SOL    MW4 9628   4.079   2.722   3.876  0.3047  0.3653 -0.1855
 2396SOL     OW 9629   4.297   2.891   3.773  0.3135 -0.0629 -0.2489
 2396SOL    HW2 9630   4.294   2.973   3.823 -1.7382 -1.3927  1.9384
 2396SOL    HW3 9631   4.364   2.839   3.818  0.2294 -0.3171 -0.4163
 2396SOL    MW4 9632   4.306   2.895   3.786  0.0319 -0.2720  0.0174
 2397SOL     OW 9633   4.259   3.139   3.879  0.1475  0.0840 -0.0199
 2397SOL    HW2 9634   4.195   3.175   3.818 -0.8797  0.2370  1.1283
 2397SOL    HW3 9635   4.337   3.192   3.866 -0.6528  1.3112  0.0874
 2397SOL    MW4 9636   4.261   3.150   3.869 -0.0939  0.2661  0.1454
 2398SOL     OW 9637   4.040   3.279   3.750  0.0840 -0.0516 -0.1408
 2398SOL    HW2 9638   3.974   3.226   3.795 -0.0491  0.4099  0.2052
 2398SOL    HW3 9639   4.033   3.253   3.658  1.3477 -2.0550  0.2947
 2398SOL    MW4 9640   4.031   3.268   3.744  0.2332 -0.2553 -0.0377
 2399SOL     OW 9641   4.047   3.500   3.914 -0.3505  0.1472 -0.1213
 2399SOL    HW2 9642   4.039   3.418   3.864 -0.4762  0.1273 -0.0690
 2399SOL    HW3 9643   3.976   3.555   3.881  0.0041  0.4018 -0.4677
 2399SOL    MW4 9644   4.037   3.496   3.903 -0.3200  0.1781 -0.1600
 2400SOL     OW 9645   4.274   3.632   3.824  0.2631  0.3732 -0.2712
 2400SOL    HW2 9646   4.200   3.581   3.858  0.4199 -0.6705 -1.4695
 2400SOL    HW3 9647   4.351   3.592   3.864  0.4027 -0.4981 -1.3754
 2400SOL    MW4 9648   4.274   3.620   3.834  0.3028  0.1204 -0.5751
 2401SOL     OW 9649   4.266   3.916   3.877  0.1510 -0.5061  0.2241
 2401SOL    HW2 9650   4.183   3.947   3.842  0.2905 -1.0473 -0.5859
 2401SOL    HW3 9651   4.259   3.821   3.877  0.6436 -0.5464  0.4816
 2401SOL    MW4 9652   4.255   3.908   3.873  0.2346 -0.5829  0.1514
 2402SOL     OW 9653   4.016   4.023   3.786 -0.1880 -0.6283 -0.1890
 2402SOL    HW2 9654   4.043   4.113   3.805 -0.5524 -0.7317  0.8098
 2402SOL    HW3 9655   4.012   4.020   3.690  1.1664  0.0235 -0.2926
 2402SOL    MW4 9656   4.019   4.035   3.776 -0.0572 -0.5565 -0.0708
 2403SOL     OW 9657   4.083   4.272   3.869  0.1212  0.4714 -0.2019
 2403SOL    HW2 9658   4.093   4.280   3.963  0.8098 -0.8038 -0.1589
 2403SOL    HW3 9659   4.156   4.322   3.832  0.1999  0.4678 -0.0509
 2403SOL    MW4 9660   4.094   4.280   3.876  0.2227  0.3028 -0.1764
 2404SOL     OW 9661   4.288   4.420   3.769  0.1496  0.3181 -0.1500
 2404SOL    HW2 9662   4.298   4.498   3.824  1.0935 -0.1716  0.3911
 2404SOL    HW3 9663   4.357   4.360   3.799 -0.7033 -0.8122 -0.4188
 2404SOL    MW4 9664   4.299   4.422   3.780  0.1616  0.1044 -0.1140
 2405SOL     OW 9665   0.319   4.633   4.152 -0.1759  0.3845  0.3304
 2405SOL    HW2 9666   0.404   4.676   4.155  0.3649 -0.8007  2.7279
 2405SOL    HW3 9667   0.334   4.547   4.193 -2.3487 -0.1186  0.1182
 2405SOL    MW4 9668   0.332   4.627   4.158 -0.3912  0.1616  0.6185
 2406SOL     OW 9669   0.099   0.124   4.252  0.0144  0.1434 -0.3155
 2406SOL    HW2 9670   0.120   0.110   4.344 -0.9457 -0.2740 -0.1570
 2406SOL    HW3 9671   0.165   0.074   4.205 -1.0371 -1.7553  0.1891
 2406SOL    MW4 9672   0.111   0.116   4.258 -0.2510 -0.1622 -0.2279
 2407SOL     OW 9673   0.038   0.397   4.193 -0.0471 -0.1937  0.1563
 2407SOL    HW2 9674   0.059   0.307   4.219  2.3220  0.1579 -0.4695
 2407SOL    HW3 9675   0.043   0.396   4.097  0.7222  0.7718  0.1818
 2407SOL    MW4 9676   0.041   0.385   4.183  0.3669 -0.0199  0.0772
 2408SOL     OW 9677   0.291   0.524   4.235 -0.1407 -0.1450 -0.2605
 2408SOL    HW2 9678   0.366   0.470   4.211 -0.4619 -0.5154 -0.4394
 2408SOL    HW3 9679   0.215   0.469   4.217 -0.3892 -0.5231  1.8921
 2408SOL    MW4 9680   0.291   0.510   4.229 -0.2159 -0.2438  0.0000
 2409SOL     OW 9681   0.250   0.762   4.090 -0.6859 -0.3241 -0.1727
 2409SOL    HW2 9682   0.184   0.796   4.150 -1.1194 -1.0632 -0.2145
 2409SOL    HW3 9683   0.266   0.673   4.121 -1.1662 -0.8325 -1.3437
 2409SOL    MW4 9684   0.243   0.755   4.102 -0.8065 -0.4886 -0.3328
 2410SOL     OW 9685   0.054   0.832   4.269 -0.0427  0.2241  0.4737
 2410SOL    HW2 9686  -0.030   0.795   4.242  0.2823  0.3775 -0.7770
 2410SOL    HW3 9687   0.047   0.925   4.252  0.8495  0.0520 -0.9011
 2410SOL    MW4 9688   0.042   0.839   4.263  0.1179  0.2217  0.1273
 2411SOL     OW 9689   0.039   1.105   4.225 -0.2370 -0.5694 -1.3537
 2411SOL    HW2 9690   0.104   1.170   4.253 -0.7411 -0.3369 -0.7109
 2411SOL    HW3 9691   0.040   1.110   4.130 -0.1629  0.2801 -1.3167
 2411SOL    MW4 9692   0.048   1.114   4.216 -0.2937 -0.4267 -1.2636
 2412SOL     OW 9693   0.220   1.333   4.254  0.2378 -0.0028 -0.1783
 2412SOL    HW2 9694   0.226   1.364   4.344  0.5832  1.4022 -0.6718
 2412SOL    HW3 9695   0.307   1.298   4.235  0.6073  1.0373 -0.4333
 2412SOL    MW4 9696   0.232   1.333   4.264  0.3322  0.3200 -0.2775
 2413SOL     OW 9697   0.464   1.606   4.538  0.2095  0.1821  0.4910
 2413SOL    HW2 9698   0.434   1.686   4.582  0.0488  0.4662 -0.1269
 2413SOL    HW3 9699   0.551   1.589   4.576 -0.2225  0.0326  1.4154
 2413SOL    MW4 9700   0.472   1.615   4.549  0.1312  0.1999  0.5317
 2414SOL     OW 9701   0.037   1.734   4.316 -0.2104 -0.0146  0.4914
 2414SOL    HW2 9702   0.016   1.819   4.279  1.5386  0.8521  1.4084
 2414SOL    HW3 9703   0.014   1.742   4.409 -1.3200 -1.0161  0.3261
 2414SOL    MW4 9704   0.031   1.746   4.324 -0.1261 -0.0325  0.5908
 2415SOL     OW 9705   0.238   2.096   4.216 -0.4688 -0.0945 -0.5932
 2415SOL    HW2 9706   0.261   2.108   4.308 -2.8767 -1.6829  0.2810
 2415SOL    HW3 9707   0.312   2.048   4.179 -0.3126 -1.1273  1.0011
 2415SOL    MW4 9708   0.251   2.091   4.223 -0.7659 -0.4406 -0.2675
 2416SOL     OW 9709   3.876   1.528   4.716  0.3892 -0.4946 -0.1369
 2416SOL    HW2 9710   3.787   1.562   4.725 -0.0846 -1.3127 -1.4676
 2416SOL    HW3 9711   3.866   1.452   4.659  2.1562  0.3390 -1.6072
 2416SOL    MW4 9712   3.863   1.522   4.710  0.5598 -0.4926 -0.5064
 2417SOL     OW 9713   0.188   2.372   4.182  0.3908 -0.4349 -0.2745
 2417SOL    HW2 9714   0.264   2.404   4.230  0.3381 -0.1175 -0.4026
 2417SOL    HW3 9715   0.196   2.276   4.186  1.7809 -0.4075 -1.8388
 2417SOL    MW4 9716   0.199   2.363   4.189  0.5672 -0.3896 -0.4978
 2418SOL     OW 9717   4.450   2.484   4.296  0.3746 -0.5256 -0.2852
 2418SOL    HW2 9718   4.378   2.439   4.252 -0.6971  1.3912 -0.5881
 2418SOL    HW3 9719   4.529   2.450   4.254 -0.4076 -1.9325 -0.6488
 2418SOL    MW4 9720   4.451   2.474   4.285  0.1297 -0.4582 -0.3738
 2419SOL     OW 9721   4.489   2.740   4.165 -0.3042 -0.2379  0.4244
 2419SOL    HW2 9722   4.553   2.797   4.208  0.3593 -1.1347  0.6303
 2419SOL    HW3 9723   4.487   2.661   4.219 -1.4738 -0.2755  0.3315
 2419SOL    MW4 9724   4.497   2.738   4.178 -0.3710 -0.3610  0.4392
 2420SOL     OW 9725   0.204   2.861   4.295 -0.0631  0.0713 -0.2631
 2420SOL    HW2 9726   0.270   2.813   4.245 -0.2337 -0.2530 -0.1721
 2420SOL    HW3 9727   0.215   2.952   4.267 -1.1370 -0.3057 -2.0035
 2420SOL    MW4 9728   0.214   2.867   4.285 -0.2273 -0.0212 -0.4807
 2421SOL     OW 9729   0.254   3.110   4.169 -0.4035  0.7348  0.2243
 2421SOL    HW2 9730   0.339   3.143   4.200 -0.4859  1.4324 -0.2750
 2421SOL    HW3 9731   0.190   3.162   4.218 -0.5459  0.1485  0.6628
 2421SOL    MW4 9732   0.257   3.121   4.179 -0.4331  0.7496  0.2160
 2422SOL     OW 9733   4.485   3.236   4.287 -0.0068 -0.4316 -0.4036
 2422SOL    HW2 9734   4.403   3.209   4.244 -0.8074 -0.8432  1.3151
 2422SOL    HW3 9735   4.482   3.332   4.286 -0.8655 -0.4442  0.2784
 2422SOL    MW4 9736   4.474   3.245   4.281 -0.2257 -0.4876 -0.0868
 2423SOL     OW 9737   0.015   3.510   4.214  0.1632 -0.4501 -0.0654
 2423SOL    HW2 9738  -0.064   3.547   4.252  0.1525  0.1213 -0.6251
 2423SOL    HW3 9739   0.000   3.515   4.119  0.9730 -0.0949 -0.1761
 2423SOL    MW4 9740   0.003   3.516   4.206  0.2686 -0.3278 -0.1540
 2424SOL     OW 9741   0.247   3.660   4.269 -0.1323  0.3385 -0.2648
 2424SOL    HW2 9742   0.327   3.613   4.246 -0.8693 -0.7573 -0.6284
 2424SOL    HW3 9743   0.181   3.592   4.277 -0.8423  1.1398  0.9130
 2424SOL    MW4 9744   0.249   3.645   4.267 -0.3232  0.2999 -0.1574
 2425SOL     OW 9745   0.241   3.941   4.158 -0.2129 -0.1902 -0.5539
 2425SOL    HW2 9746   0.161   3.976   4.196  0.9277  0.3838  1.3574
 2425SOL    HW3 9747   0.241   3.848   4.183  0.3043  0.0803  0.4508
 2425SOL    MW4 9748   0.231   3.933   4.166  0.0058 -0.0792 -0.1693
 2426SOL     OW 9749   0.025   4.053   4.288 -0.2257 -0.0849  0.1829
 2426SOL    HW2 9750   0.035   4.064   4.383 -1.4035 -0.0074  0.3048
 2426SOL    HW3 9751  -0.041   3.984   4.279  0.6122 -0.7824 -0.5820
 2426SOL    MW4 9752   0.017   4.046   4.300 -0.2706 -0.1659  0.0982
 2427SOL     OW 9753   0.041   4.296   4.167  0.0055  0.4221 -0.0828
 2427SOL    HW2 9754   0.037   4.210   4.208  1.8330  0.4188  0.1190
 2427SOL    HW3 9755   0.026   4.278   4.074  0.6600 -0.1609 -0.0839
 2427SOL    MW4 9756   0.039   4.282   4.160  0.3328  0.3443 -0.0563
 2428SOL     OW 9757   0.471   4.080   4.247  0.3895 -0.2080 -0.0640
 2428SOL    HW2 9758   0.397   4.031   4.211  0.0726  0.8910 -0.9174
 2428SOL    HW3 9759   0.454   4.082   4.341 -0.3989 -0.3936 -0.1965
 2428SOL    MW4 9760   0.459   4.074   4.255  0.2436 -0.0882 -0.1945
 2429SOL     OW 9761   0.616   0.054   4.158  0.0896 -0.1842 -0.2591
 2429SOL    HW2 9762   0.690   0.097   4.201 -0.8126 -0.2725  1.4163
 2429SOL    HW3 9763   0.646   0.040   4.068  1.4431  1.3805 -0.0822
 2429SOL    MW4 9764   0.630   0.057   4.151  0.1492  0.0106 -0.0143
 2430SOL     OW 9765   0.477   0.006   4.543 -0.1674 -0.5479  0.0368
 2430SOL    HW2 9766   0.396  -0.044   4.552 -0.7807  0.3113 -0.6677
 2430SOL    HW3 9767   0.451   0.098   4.553  0.4085 -0.1273 -2.0515
 2430SOL    MW4 9768   0.463   0.012   4.546 -0.1723 -0.3791 -0.3314
 2431SOL     OW 9769   0.504   0.340   4.230  0.0258  0.0684 -0.4238
 2431SOL    HW2 9770   0.581   0.394   4.245  0.4995 -0.1558 -1.8922
 2431SOL    HW3 9771   0.498   0.334   4.134 -0.3860 -1.9372 -0.2930
 2431SOL    MW4 9772   0.513   0.346   4.219  0.0339 -0.2258 -0.6003
 2432SOL     OW 9773   0.697   0.529   4.264  0.1203 -0.3923 -0.0984
 2432SOL    HW2 9774   0.769   0.475   4.230 -0.1064 -0.0886 -1.0807
 2432SOL    HW3 9775   0.695   0.604   4.205 -0.6960 -0.1633  0.2251
 2432SOL    MW4 9776   0.706   0.532   4.252 -0.0173 -0.3220 -0.1855
 2433SOL     OW 9777   0.696   0.775   4.130 -0.2564  0.0860  0.0442
 2433SOL    HW2 9778   0.621   0.827   4.157 -0.1317  0.8245 -0.9916
 2433SOL    HW3 9779   0.697   0.781   4.035  1.2983  0.3591  0.0546
 2433SOL    MW4 9780   0.686   0.782   4.121 -0.0348  0.2195 -0.0906
 2434SOL     OW 9781   0.458   0.881   4.215  0.8181  0.3243 -0.1539
 2434SOL    HW2 9782   0.442   0.976   4.217 -0.5634  0.0828  1.2646
 2434SOL    HW3 9783   0.377   0.844   4.179  1.1746 -0.3496 -0.2579
 2434SOL    MW4 9784   0.445   0.889   4.211  0.6828  0.2035  0.0196
 2435SOL     OW 9785   0.445   1.178   4.197  0.0226  0.2850 -0.3607
 2435SOL    HW2 9786   0.529   1.196   4.239  1.0726 -4.5825 -0.0345
 2435SOL    HW3 9787   0.460   1.197   4.104  0.4140  2.5817  0.1413
 2435SOL    MW4 9788   0.458   1.183   4.190  0.2128 -0.0541 -0.2508
 2436SOL     OW 9789   0.703   1.269   4.231 -0.3433  0.1136  0.1317
 2436SOL    HW2 9790   0.724   1.280   4.323 -1.5306 -0.8365  0.5165
 2436SOL    HW3 9791   0.708   1.358   4.195  1.7683  0.2665  0.7394
 2436SOL    MW4 9792   0.706   1.283   4.238 -0.2214  0.0086  0.2623
 2437SOL     OW 9793   0.697   1.539   4.159 -0.2489 -0.1855 -0.0055
 2437SOL    HW2 9794   0.627   1.604   4.172 -0.4682 -0.3177 -0.5254
 2437SOL    HW3 9795   0.731   1.558   4.072 -0.0358 -0.5087  0.0088
 2437SOL    MW4 9796   0.692   1.550   4.149 -0.2498 -0.2456 -0.0720
 2438SOL     OW 9797   0.234   1.606   4.163  0.3289  0.3488  0.1849
 2438SOL    HW2 9798   0.207   1.518   4.190 -1.7486  0.1159 -2.5308
 2438SOL    HW3 9799   0.178   1.665   4.214 -0.2122  0.0486 -0.0645
 2438SOL    MW4 9800   0.223   1.602   4.174 -0.0166  0.2784 -0.2065
 2439SOL     OW 9801   0.427   1.919   4.120 -0.1396 -0.6907  0.6328
 2439SOL    HW2 9802   0.447   1.833   4.157 -0.9947 -0.5877  1.3241
 2439SOL    HW3 9803   0.466   1.915   4.032  0.8850 -1.3417  1.0913
 2439SOL    MW4 9804   0.435   1.907   4.113 -0.1172 -0.7631  0.7844
 2440SOL     OW 9805   0.636   2.032   4.261  0.1261  0.0826 -0.1534
 2440SOL    HW2 9806   0.601   2.041   4.350 -0.5015 -0.5556 -0.3314
 2440SOL    HW3 9807   0.567   1.988   4.212  0.1068  1.2356 -1.1919
 2440SOL    MW4 9808   0.622   2.027   4.266  0.0408  0.1507 -0.3138
 2441SOL     OW 9809   0.615   2.306   4.183  0.2290 -0.1692  0.1042
 2441SOL    HW2 9810   0.618   2.214   4.211 -0.0035 -0.6320 -1.3553
 2441SOL    HW3 9811   0.604   2.302   4.088 -1.9848  1.3460  0.2405
 2441SOL    MW4 9812   0.614   2.293   4.174 -0.0938 -0.0305 -0.0701
 2442SOL     OW 9813   0.418   2.485   4.283 -0.6658 -0.3327  0.0668
 2442SOL    HW2 9814   0.440   2.569   4.243  0.1833 -0.4461  0.2960
 2442SOL    HW3 9815   0.485   2.425   4.252 -1.3638 -0.9677 -0.2234
 2442SOL    MW4 9816   0.430   2.488   4.274 -0.6458 -0.4318  0.0591
 2443SOL     OW 9817   0.416   2.722   4.140  0.1405  0.1017 -0.2077
 2443SOL    HW2 9818   0.483   2.783   4.170 -0.4943  0.3593  0.7204
 2443SOL    HW3 9819   0.418   2.728   4.045  1.2344  0.3182 -0.1733
 2443SOL    MW4 9820   0.425   2.730   4.131  0.2010  0.1640 -0.0811
 2444SOL     OW 9821   0.648   2.871   4.210 -0.0159  0.7418 -0.0874
 2444SOL    HW2 9822   0.618   2.874   4.301  0.9929  1.9961  0.2144
 2444SOL    HW3 9823   0.661   2.963   4.186  0.1984  0.3922 -1.3491
 2444SOL    MW4 9824   0.646   2.884   4.219  0.1454  0.8612 -0.2141
 2445SOL     OW 9825   0.672   3.139   4.146 -0.2056 -0.2113  0.5361
 2445SOL    HW2 9826   0.591   3.168   4.189  0.2660 -0.3882  1.5504
 2445SOL    HW3 9827   0.742   3.182   4.195  0.3340 -0.4217 -0.0518
 2445SOL    MW4 9828   0.670   3.148   4.158 -0.0721 -0.2625  0.5922
 2446SOL     OW 9829   0.647   3.544   4.613 -0.0598 -0.2497  0.0870
 2446SOL    HW2 9830   0.564   3.509   4.582 -0.3918  0.0383  0.6453
 2446SOL    HW3 9831   0.645   3.532   4.708  0.2595  0.3532  0.1749
 2446SOL    MW4 9832   0.636   3.538   4.621 -0.0615 -0.1321  0.1726
 2447SOL     OW 9833   0.461   3.506   4.200 -0.0591  0.1576  0.0474
 2447SOL    HW2 9834   0.546   3.545   4.218 -0.3732  0.8471  0.0502
 2447SOL    HW3 9835   0.446   3.523   4.107 -0.6067  0.8552  0.2598
 2447SOL    MW4 9836   0.470   3.513   4.190 -0.1728  0.3405  0.0758
 2448SOL     OW 9837   0.902   3.503   4.133 -0.1548 -0.0538 -0.1632
 2448SOL    HW2 9838   0.825   3.550   4.166 -0.5207  0.0163 -1.1014
 2448SOL    HW3 9839   0.899   3.516   4.039  0.8027 -0.3768 -0.2401
 2448SOL    MW4 9840   0.891   3.511   4.125 -0.0768 -0.0873 -0.2971
 2449SOL     OW 9841   0.712   3.664   4.246 -0.2732  0.0876 -0.4746
 2449SOL    HW2 9842   0.734   3.658   4.338  1.1550  0.0322 -0.8105
 2449SOL    HW3 9843   0.698   3.758   4.230 -2.3512 -0.0820  0.1932
 2449SOL    MW4 9844   0.713   3.676   4.256 -0.3590  0.0579 -0.4306
 2450SOL     OW 9845   0.504   4.341   4.558  0.2789  0.3574  0.2088
 2450SOL    HW2 9846   0.423   4.391   4.572 -0.3922 -0.8697  0.7467
 2450SOL    HW3 9847   0.573   4.406   4.565 -0.5609  1.1627  1.2787
 2450SOL    MW4 9848   0.502   4.356   4.561  0.0795  0.3014  0.4210
 2451SOL     OW 9849   0.468   4.320   4.137 -0.4663  0.1983  0.0183
 2451SOL    HW2 9850   0.476   4.227   4.158 -1.0022  0.1483  0.0032
 2451SOL    HW3 9851   0.451   4.322   4.043  0.9863  0.3823 -0.2489
 2451SOL    MW4 9852   0.467   4.308   4.128 -0.3454  0.2160 -0.0191
 2452SOL     OW 9853   0.708   4.453   4.226  0.3198 -0.3761 -0.0768
 2452SOL    HW2 9854   0.633   4.401   4.196  0.3697 -1.1167  1.0384
 2452SOL    HW3 9855   0.685   4.543   4.204 -0.4185 -0.7166 -0.7250
 2452SOL    MW4 9856   0.695   4.458   4.219  0.2289 -0.5188 -0.0148
 2453SOL     OW 9857   1.133   0.002   4.165 -0.8568 -0.1959 -0.0669
 2453SOL    HW2 9858   1.146  -0.091   4.184  0.2577 -0.1583 -0.5652
 2453SOL    HW3 9859   1.121   0.006   4.070 -0.3733  0.2153 -0.1167
 2453SOL    MW4 9860   1.134  -0.010   4.155 -0.6460 -0.1369 -0.1397
 2454SOL     OW 9861   0.886   0.094   4.233  0.1643  0.0086  0.3852
 2454SOL    HW2 9862   0.968   0.048   4.212  0.2630  0.2222  0.3028
 2454SOL    HW3 9863   0.896   0.122   4.324  0.0564 -0.2347  0.4723
 2454SOL    MW4 9864   0.898   0.092   4.242  0.1631  0.0047  0.3862
 2455SOL     OW 9865   0.909   0.362   4.182 -0.5613  0.7531 -0.1924
 2455SOL    HW2 9866   0.995   0.390   4.212 -1.0805  1.0571  1.0532
 2455SOL    HW3 9867   0.908   0.267   4.194  0.0670  0.5807 -1.4505
 2455SOL    MW4 9868   0.920   0.353   4.188 -0.5469  0.7705 -0.1936
 2456SOL     OW 9869   1.185   0.480   4.219  0.5128  0.5739  0.3138
 2456SOL    HW2 9870   1.193   0.477   4.314 -1.0478 -0.2802  0.4292
 2456SOL    HW3 9871   1.262   0.434   4.187  0.3753 -0.2893  1.1956
 2456SOL    MW4 9872   1.196   0.474   4.227  0.2887  0.3473  0.4454
 2457SOL     OW 9873   1.165   0.765   4.168 -0.5593  0.2039  0.1121
 2457SOL    HW2 9874   1.241   0.816   4.196  0.0797 -0.9970  0.5872
 2457SOL    HW3 9875   1.183   0.677   4.199 -1.2851 -0.4827 -1.4110
 2457SOL    MW4 9876   1.177   0.760   4.176 -0.5709 -0.0451 -0.0262
 2458SOL     OW 9877   0.926   0.890   4.226 -0.4078  0.4231 -0.6116
 2458SOL    HW2 9878   1.008   0.859   4.188  0.2968  1.0390  0.3762
 2458SOL    HW3 9879   0.859   0.836   4.185  0.6429 -1.2424 -0.1712
 2458SOL    MW4 9880   0.928   0.879   4.216 -0.1762  0.2846 -0.4230
 2459SOL     OW 9881   0.902   1.129   4.113  0.0607 -0.0091 -0.5849
 2459SOL    HW2 9882   0.909   1.048   4.164  0.2937 -0.0195 -0.6307
 2459SOL    HW3 9883   0.825   1.174   4.148  0.5122  0.2212  0.1097
 2459SOL    MW4 9884   0.893   1.124   4.124  0.1509  0.0199 -0.4992
 2460SOL     OW 9885   1.109   1.316   4.185 -0.2293  0.0640  0.3990
 2460SOL    HW2 9886   1.097   1.309   4.280 -0.8603 -0.0591  0.3188
 2460SOL    HW3 9887   1.046   1.252   4.149  0.4967 -0.3852 -0.0786
 2460SOL    MW4 9888   1.099   1.306   4.193 -0.2168 -0.0114  0.3252
 2461SOL     OW 9889   1.118   1.575   4.089 -0.2704  0.4561 -0.3271
 2461SOL    HW2 9890   1.055   1.623   4.143 -1.2328  0.9000 -1.7963
 2461SOL    HW3 9891   1.115   1.485   4.123 -1.9720  0.3877 -0.5662
 2461SOL    MW4 9892   1.109   1.569   4.101 -0.6218  0.5057 -0.5527
 2462SOL     OW 9893   0.928   1.681   4.263 -0.2855  0.0889  0.5419
 2462SOL    HW2 9894   0.845   1.636   4.246 -0.4070  1.1566 -1.9819
 2462SOL    HW3 9895   0.933   1.687   4.359 -2.3996 -1.2957  0.7714
 2462SOL    MW4 9896   0.917   1.676   4.274 -0.5804  0.0470  0.2389
 2463SOL     OW 9897   0.898   1.966   4.173 -0.1547  0.3351 -0.1215
 2463SOL    HW2 9898   0.808   1.996   4.187  0.0691  0.7093  0.5718
 2463SOL    HW3 9899   0.900   1.878   4.210 -0.3069  0.2197 -0.3880
 2463SOL    MW4 9900   0.887   1.958   4.180 -0.1453  0.3693 -0.0648
 2464SOL     OW 9901   1.120   2.098   4.294  0.2635 -0.5050 -0.0005
 2464SOL    HW2 9902   1.100   2.141   4.378  0.0490 -0.8728  0.1360
 2464SOL    HW3 9903   1.035   2.063   4.265  0.1764  0.3219 -0.7623
 2464SOL    MW4 9904   1.106   2.099   4.301  0.2238 -0.4444 -0.0830
 2465SOL     OW 9905   1.111   2.340   4.161 -0.3668  0.0286 -0.0938
 2465SOL    HW2 9906   1.153   2.400   4.223 -1.2528  0.4463  0.1009
 2465SOL    HW3 9907   1.119   2.254   4.202 -0.0189  0.1541  0.1059
 2465SOL    MW4 9908   1.118   2.336   4.174 -0.4379  0.1004 -0.0420
 2466SOL     OW 9909   0.844   2.468   4.198 -0.1466 -0.2957  0.5369
 2466SOL    HW2 9910   0.917   2.412   4.172 -0.2572 -0.5881  0.8556
 2466SOL    HW3 9911   0.771   2.407   4.214 -0.5321  0.0132 -0.0185
 2466SOL    MW4 9912   0.844   2.452   4.197 -0.2121 -0.2935  0.5059
 2467SOL     OW 9913   0.854   2.731   4.076  0.5534  0.2813 -0.2335
 2467SOL    HW2 9914   0.863   2.641   4.106  0.5450 -0.3508 -2.1290
 2467SOL    HW3 9915   0.780   2.766   4.126 -0.5192 -1.2742 -0.7177
 2467SOL    MW4 9916   0.846   2.724   4.087  0.4107 -0.0072 -0.5469
 2468SOL     OW 9917   1.075   2.841   4.188  0.3777 -0.3138  0.3123
 2468SOL    HW2 9918   1.068   2.932   4.159  3.0265 -0.0812  0.2555
 2468SOL    HW3 9919   1.011   2.794   4.135  1.7174  0.9119 -2.4969
 2468SOL    MW4 9920   1.066   2.847   4.177  0.9040 -0.1214 -0.0658
 2469SOL     OW 9921   1.067   3.107   4.129 -0.8624 -0.4020  0.1804
 2469SOL    HW2 9922   1.138   3.146   4.180 -1.6307  0.4769  0.5902
 2469SOL    HW3 9923   1.101   3.103   4.039  0.0993 -0.9825  0.5590
 2469SOL    MW4 9924   1.081   3.112   4.124 -0.8368 -0.3624  0.2847
 2470SOL     OW 9925   0.589   2.804   4.477  0.0668 -0.1351 -0.2384
 2470SOL    HW2 9926   0.628   2.870   4.533 -0.2499 -1.2868  1.3623
 2470SOL    HW3 9927   0.660   2.742   4.458 -0.3145 -0.8154  0.5277
 2470SOL    MW4 9928   0.603   2.804   4.482 -0.0253 -0.3769  0.0739
 2471SOL     OW 9929   0.905   3.264   4.270  0.1028 -0.5030  0.2864
 2471SOL    HW2 9930   0.955   3.208   4.210 -1.2567 -0.4419 -0.9281
 2471SOL    HW3 9931   0.893   3.345   4.220  1.3885  0.6051  1.7298
 2471SOL    MW4 9932   0.910   3.268   4.255  0.0930 -0.3488  0.3161
 2472SOL     OW 9933   1.113   3.625   4.261  0.5379  0.3890 -0.1491
 2472SOL    HW2 9934   1.101   3.718   4.244 -1.3665  0.1585 -0.0932
 2472SOL    HW3 9935   1.038   3.582   4.220  0.5521 -0.9832  1.1923
 2472SOL    MW4 9936   1.102   3.631   4.253  0.2885  0.1779  0.0353
 2473SOL     OW 9937   1.103   3.893   4.200  0.0247 -0.1804  0.0337
 2473SOL    HW2 9938   1.186   3.931   4.230 -0.4546 -0.6565  2.0341
 2473SOL    HW3 9939   1.036   3.946   4.244 -0.7622  0.5127 -1.9503
 2473SOL    MW4 9940   1.105   3.905   4.210 -0.1423 -0.1514  0.0362
 2474SOL     OW 9941   0.874   4.040   4.294 -0.0608 -0.6621 -0.0903
 2474SOL    HW2 9942   0.886   4.122   4.246 -0.6513 -0.5973 -0.1293
 2474SOL    HW3 9943   0.853   4.067   4.383  0.6337 -0.7808  0.1130
 2474SOL    MW4 9944   0.873   4.054   4.299 -0.0471 -0.6690 -0.0687
 2475SOL     OW 9945   0.917   4.286   4.149  0.0009 -0.0540  0.1430
 2475SOL    HW2 9946   0.998   4.319   4.187  0.7966 -0.7926 -0.8801
 2475SOL    HW3 9947   0.848   4.342   4.185  0.8274 -0.1794  1.9590
 2475SOL    MW4 9948   0.918   4.298   4.159  0.2149 -0.1683  0.2480
 2476SOL     OW 9949   1.161   4.395   4.245 -0.1550  0.6025 -0.0704
 2476SOL    HW2 9950   1.167   4.379   4.339 -1.8641 -0.5482 -0.1416
 2476SOL    HW3 9951   1.237   4.351   4.208  1.3053  2.2494  0.9022
 2476SOL    MW4 9952   1.171   4.387   4.253 -0.1879  0.6680  0.0486
 2477SOL     OW 9953   1.578   0.005   4.179  0.2503  0.2173 -0.0220
 2477SOL    HW2 9954   1.652   0.035   4.232 -0.0022  0.4887  0.1822
 2477SOL    HW3 9955   1.504   0.055   4.212  0.5200  2.2199 -2.2714
 2477SOL    MW4 9956   1.578   0.016   4.190  0.2527  0.5174 -0.2918
 2478SOL     OW 9957   1.341   0.140   4.283  0.5663 -0.5662 -0.6659
 2478SOL    HW2 9958   1.299   0.145   4.369  0.3190  1.1292 -0.8619
 2478SOL    HW3 9959   1.276   0.095   4.228 -0.0841  0.0609 -0.4259
 2478SOL    MW4 9960   1.327   0.135   4.287  0.4479 -0.2598 -0.6599
 2479SOL     OW 9961   1.428   0.359   4.153  0.0702  0.4455 -0.4878
 2479SOL    HW2 9962   1.483   0.416   4.207 -1.0957  0.9351  0.2259
 2479SOL    HW3 9963   1.407   0.286   4.211 -1.0879  0.9129 -0.3019
 2479SOL    MW4 9964   1.432   0.357   4.168 -0.2365  0.5718 -0.3691
 2480SOL     OW 9965   1.599   0.512   4.296  0.0685  0.2481  0.1213
 2480SOL    HW2 9966   1.587   0.527   4.390 -1.0992  1.1082 -0.1554
 2480SOL    HW3 9967   1.611   0.600   4.259  0.0296 -0.0500 -0.5995
 2480SOL    MW4 9968   1.599   0.526   4.304 -0.0907  0.3222 -0.0100
 2481SOL     OW 9969   1.601   0.754   4.176  0.5261 -0.3166  0.1588
 2481SOL    HW2 9970   1.658   0.822   4.212 -0.2086  0.6650 -0.4983
 2481SOL    HW3 9971   1.611   0.763   4.081  0.1790 -0.9175  0.0656
 2481SOL    MW4 9972   1.610   0.764   4.168  0.3834 -0.2664  0.0596
 2482SOL     OW 9973   1.380   0.903   4.281 -0.2250  0.2671 -0.1543
 2482SOL    HW2 9974   1.387   0.992   4.245  0.8957  0.4043  0.3989
 2482SOL    HW3 9975   1.455   0.856   4.245 -0.2623 -0.1780  0.3424
 2482SOL    MW4 9976   1.390   0.909   4.272 -0.0820  0.2265 -0.0157
 2483SOL     OW 9977   1.363   1.197   4.139 -0.0044 -0.2153  0.7070
 2483SOL    HW2 9978   1.277   1.239   4.145 -0.7723 -1.6353 -0.1986
 2483SOL    HW3 9979   1.365   1.158   4.052  1.3487 -0.6455  0.9189
 2483SOL    MW4 9980   1.351   1.198   4.128  0.0727 -0.4594  0.6156
 2484SOL     OW 9981   1.577   1.340   4.264  0.3998  0.2231  0.5084
 2484SOL    HW2 9982   1.558   1.314   4.355 -0.2864 -0.8731  0.0536
 2484SOL    HW3 9983   1.517   1.288   4.211  0.3084  1.3822 -0.5360
 2484SOL    MW4 9984   1.567   1.330   4.269  0.2974  0.2314  0.3104
 2485SOL     OW 9985   1.597   1.599   4.145 -0.1214 -0.4589 -0.5063
 2485SOL    HW2 9986   1.519   1.654   4.151  0.3280  0.2878 -1.4190
 2485SOL    HW3 9987   1.575   1.520   4.195 -1.0540  0.2170  0.1542
 2485SOL    MW4 9988   1.584   1.596   4.152 -0.1853 -0.2711 -0.5393
 2486SOL     OW 9989   1.343   1.686   4.233  0.1011  0.1539 -0.4774
 2486SOL    HW2 9990   1.335   1.782   4.233 -0.5758  0.1445  3.0908
 2486SOL    HW3 9991   1.270   1.656   4.180 -1.5534  1.5181  0.9971
 2486SOL    MW4 9992   1.333   1.695   4.226 -0.2066  0.3326  0.1879
 2487SOL     OW 9993   1.350   1.971   4.162  0.1733 -0.0217 -0.5171
 2487SOL    HW2 9994   1.436   1.974   4.205  0.3668 -0.7573 -0.8479
 2487SOL    HW3 9995   1.299   2.039   4.206  0.7272 -0.0064  0.1116
 2487SOL    MW4 9996   1.355   1.980   4.174  0.2719 -0.1167 -0.4773
 2488SOL     OW 9997   1.508   2.492   4.391  0.5428  0.1929  0.0553
 2488SOL    HW2 9998   1.573   2.540   4.443  0.4019  1.6910 -1.0962
 2488SOL    HW3 9999   1.560   2.440   4.329  0.6757  1.7999 -1.2225
 2488SOL    MW410000   1.524   2.492   4.389  0.5417  0.6027 -0.2656
 2489SOL     OW10001   1.644   2.298   4.226 -0.4296  0.2375 -0.2590
 2489SOL    HW210002   1.624   2.206   4.244  1.8994 -0.3513 -0.4994
 2489SOL    HW310003   1.634   2.306   4.131 -1.1453  0.3505 -0.1703
 2489SOL    MW410004   1.640   2.287   4.216 -0.2167  0.1748 -0.2794
 2490SOL     OW10005   1.261   2.556   4.323 -0.3894  0.2825  0.3165
 2490SOL    HW210006   1.280   2.618   4.253  0.6409  0.0907  0.4185
 2490SOL    HW310007   1.347   2.524   4.350 -0.7966  0.1720  1.4986
 2490SOL    MW410008   1.275   2.560   4.317 -0.3070  0.2425  0.4859
 2491SOL     OW10009   1.322   2.741   4.117 -0.3830 -0.0284  0.2816
 2491SOL    HW210010   1.392   2.797   4.150 -0.4020 -0.8734  1.8328
 2491SOL    HW310011   1.241   2.788   4.139 -0.3648 -0.1871  0.7081
 2491SOL    MW410012   1.321   2.754   4.125 -0.3830 -0.1609  0.5426
 2492SOL     OW10013   1.606   2.883   4.323 -0.1544 -0.1215  0.2992
 2492SOL    HW210014   1.542   2.889   4.394 -0.1203 -0.8095  0.3842
 2492SOL    HW310015   1.597   2.967   4.277  0.4840  0.7106  1.6553
 2492SOL    MW410016   1.596   2.895   4.326 -0.0656 -0.1023  0.4892
 2493SOL     OW10017   1.509   3.099   4.150  0.0115 -0.2958 -0.2194
 2493SOL    HW210018   1.595   3.139   4.165  0.2942 -1.9639  3.2389
 2493SOL    HW310019   1.446   3.168   4.169  0.5438  0.2574 -0.4460
 2493SOL    MW410020   1.512   3.113   4.154  0.1191 -0.4430  0.2065
 2494SOL     OW10021   1.294   3.238   4.252  0.3773  0.0437  0.0960
 2494SOL    HW210022   1.273   3.244   4.345  0.8918  0.5459  0.1816
 2494SOL    HW310023   1.307   3.328   4.224  2.2847 -0.2411  0.0117
 2494SOL    MW410024   1.293   3.251   4.260  0.6968  0.0725  0.0968
 2495SOL     OW10025   1.354   3.501   4.153  0.0804 -0.0503 -0.1812
 2495SOL    HW210026   1.281   3.549   4.190 -0.3512 -0.9468  0.1313
 2495SOL    HW310027   1.329   3.485   4.062  0.1651  0.2058 -0.2482
 2495SOL    MW410028   1.341   3.505   4.146  0.0347 -0.1349 -0.1488
 2496SOL     OW10029   1.608   3.631   4.241 -0.1206 -0.1533  0.0104
 2496SOL    HW210030   1.589   3.642   4.334 -0.6655  1.3679 -0.2673
 2496SOL    HW310031   1.526   3.597   4.204 -0.2330  0.2198 -0.0844
 2496SOL    MW410032   1.595   3.628   4.249 -0.2072  0.0968 -0.0391
 2497SOL     OW10033   1.586   3.902   4.182 -0.2827 -0.0974  0.2053
 2497SOL    HW210034   1.504   3.931   4.223 -0.1862  0.3202  0.0959
 2497SOL    HW310035   1.600   3.814   4.217  0.4685  0.7362  2.0391
 2497SOL    MW410036   1.577   3.894   4.192 -0.1707  0.0677  0.4334
 2498SOL     OW10037   1.342   4.037   4.272  0.4990  0.1631  0.2933
 2498SOL    HW210038   1.354   4.048   4.367  1.8417 -0.6874  0.2464
 2498SOL    HW310039   1.364   4.122   4.235  1.0489  0.1894  0.6685
 2498SOL    MW410040   1.347   4.050   4.280  0.7488  0.0544  0.3366
 2499SOL     OW10041   1.395   4.271   4.141  0.0087 -0.1921 -0.4368
 2499SOL    HW210042   1.467   4.327   4.171  0.5510 -1.0608 -0.1079
 2499SOL    HW310043   1.410   4.260   4.048  1.4908 -2.0651 -0.0079
 2499SOL    MW410044   1.407   4.277   4.133  0.2759 -0.5536 -0.3366
 2500SOL     OW10045   1.610   4.411   4.278 -0.8373 -0.1734 -0.1173
 2500SOL    HW210046   1.607   4.502   4.248 -2.1525 -0.1370  0.1060
 2500SOL    HW310047   1.689   4.376   4.238 -0.3102  1.0699 -0.2043
 2500SOL    MW410048   1.620   4.419   4.269 -0.9412 -0.0048 -0.0997
 2501SOL     OW10049   2.026   4.641   4.174  0.2614 -0.1956 -0.0357
 2501SOL    HW210050   1.953   4.684   4.218  0.3573 -1.2862  1.2261
 2501SOL    HW310051   2.008   4.654   4.081 -0.9174  0.5666  0.2772
 2501SOL    MW410052   2.014   4.648   4.168  0.1183 -0.2389  0.1721
 2502SOL     OW10053   1.804   0.108   4.265 -0.3885  0.2030 -0.6213
 2502SOL    HW210054   1.805   0.114   4.360  1.3318  0.2464 -0.6260
 2502SOL    HW310055   1.805   0.198   4.234 -1.8651  0.1973 -0.6765
 2502SOL    MW410056   1.805   0.121   4.273 -0.3562  0.2079 -0.6289
 2503SOL     OW10057   1.812   0.381   4.183 -0.1506  0.2638  0.1591
 2503SOL    HW210058   1.889   0.432   4.209  0.2832  0.5877 -1.6274
 2503SOL    HW310059   1.738   0.431   4.216  0.3457  1.0060  0.1662
 2503SOL    MW410060   1.813   0.394   4.190 -0.0279  0.4045 -0.0763
 2504SOL     OW10061   2.029   0.545   4.245  0.3504  0.5269 -0.4414
 2504SOL    HW210062   2.014   0.536   4.339 -0.3333 -0.1983 -0.6125
 2504SOL    HW310063   2.113   0.501   4.230  1.9653  3.2748  0.2869
 2504SOL    MW410064   2.038   0.538   4.255  0.4730  0.7937 -0.3676
 2505SOL     OW10065   2.022   0.809   4.161  0.4938  0.1545  0.4618
 2505SOL    HW210066   2.076   0.862   4.220 -0.3212  0.8938  0.5523
 2505SOL    HW310067   2.030   0.720   4.196  1.3858  0.3048  0.6678
 2505SOL    MW410068   2.030   0.804   4.173  0.5038  0.2719  0.5012
 2506SOL     OW10069   1.775   0.949   4.256  0.4746  0.1211  0.6367
 2506SOL    HW210070   1.795   1.042   4.247  0.5191  0.0751  0.2664
 2506SOL    HW310071   1.845   0.904   4.209  2.0349 -0.2063  3.1868
 2506SOL    MW410072   1.787   0.955   4.249  0.6864  0.0719  0.9241
 2507SOL     OW10073   1.811   1.215   4.173  0.0558 -0.0612 -0.3560
 2507SOL    HW210074   1.877   1.249   4.234  0.0118 -1.3499  0.4184
 2507SOL    HW310075   1.731   1.261   4.198 -0.0250 -0.7878  0.7479
 2507SOL    MW410076   1.810   1.226   4.185  0.0395 -0.3271 -0.1078
 2508SOL     OW10077   2.043   1.305   4.299 -0.5561  0.5753  0.0263
 2508SOL    HW210078   2.100   1.239   4.259 -3.1837 -1.2169 -0.8968
 2508SOL    HW310079   2.042   1.377   4.235  0.4095  0.5020 -0.0805
 2508SOL    MW410080   2.051   1.306   4.285 -0.7753  0.3293 -0.1092
 2509SOL     OW10081   2.066   1.525   4.114 -0.3936 -0.1591 -0.1993
 2509SOL    HW210082   2.077   1.540   4.020  0.6891 -0.0233 -0.0603
 2509SOL    HW310083   2.139   1.573   4.154 -0.8053 -0.2790  0.7074
 2509SOL    MW410084   2.077   1.533   4.107 -0.3052 -0.1570 -0.0615
 2510SOL     OW10085   1.840   1.673   4.192  0.0252  0.0454 -0.6289
 2510SOL    HW210086   1.899   1.628   4.131 -0.6866  0.6275 -1.7792
 2510SOL    HW310087   1.754   1.637   4.172 -0.3285  0.8214 -0.5346
 2510SOL    MW410088   1.837   1.662   4.181 -0.1155  0.2246 -0.7687
 2511SOL     OW10089   1.809   1.940   4.128 -0.2965 -0.2044 -0.1450
 2511SOL    HW210090   1.839   1.853   4.154 -0.1004  0.4070  1.7453
 2511SOL    HW310091   1.732   1.956   4.182 -0.6248  0.5904 -0.8427
 2511SOL    MW410092   1.803   1.931   4.139 -0.3139 -0.0188  0.0119
 2512SOL     OW10093   2.021   1.938   4.468 -0.2432  0.2307  0.1598
 2512SOL    HW210094   2.011   2.002   4.397 -0.3006 -0.6832 -0.6710
 2512SOL    HW310095   1.996   1.855   4.428  0.9662 -0.5013  0.8918
 2512SOL    MW410096   2.017   1.935   4.453 -0.0911  0.0137  0.1469
 2513SOL     OW10097   2.053   2.329   4.130 -0.3389  0.2460  0.4215
 2513SOL    HW210098   2.039   2.243   4.169 -0.9895  0.2428  0.1932
 2513SOL    HW310099   2.055   2.313   4.036  2.2100  0.1095  0.4482
 2513SOL    MW410100   2.052   2.316   4.123 -0.0882  0.2277  0.3948
 2514SOL     OW10101   1.861   2.487   4.236 -0.2122  0.1596 -0.4449
 2514SOL    HW210102   1.798   2.416   4.244 -0.6616  0.2886 -2.5506
 2514SOL    HW310103   1.931   2.451   4.181 -0.0738  1.0734 -0.8813
 2514SOL    MW410104   1.862   2.473   4.230 -0.2532  0.2971 -0.7801
 2515SOL     OW10105   1.818   2.756   4.201 -0.0527 -0.2785 -0.1883
 2515SOL    HW210106   1.828   2.665   4.227 -1.4780 -0.6511 -0.9453
 2515SOL    HW310107   1.733   2.782   4.235 -0.8802 -0.0636 -2.3776
 2515SOL    MW410108   1.808   2.748   4.209 -0.3500 -0.2995 -0.5770
 2516SOL     OW10109   2.105   2.855   4.213  0.5412  0.3361  0.6126
 2516SOL    HW210110   2.131   2.853   4.305 -1.1762  0.8328  1.1239
 2516SOL    HW310111   2.014   2.825   4.213  1.1294 -1.5987 -1.1545
 2516SOL    MW410112   2.096   2.850   4.225  0.3922  0.1466  0.4468
 2517SOL     OW10113   2.019   3.123   4.119 -0.1670 -0.0226  0.2025
 2517SOL    HW210114   2.038   3.039   4.160 -0.3549  0.2466  0.8544
 2517SOL    HW310115   2.028   3.107   4.025  2.4948 -0.1067  0.4329
 2517SOL    MW410116   2.022   3.110   4.112  0.1593  0.0019  0.3190
 2518SOL     OW10117   1.750   3.226   4.172 -0.6041  0.2587  0.0684
 2518SOL    HW210118   1.762   3.318   4.149 -1.1035  0.3294  0.0778
 2518SOL    HW310119   1.836   3.186   4.158 -0.4613  0.6652 -0.2277
 2518SOL    MW410120   1.763   3.233   4.167 -0.6512  0.3216  0.0300
 2519SOL     OW10121   1.829   3.498   4.150  0.3502 -0.6277 -0.7082
 2519SOL    HW210122   1.757   3.551   4.182  0.3926 -0.9721 -0.0243
 2519SOL    HW310123   1.816   3.493   4.055  0.1143  0.2464 -0.7228
 2519SOL    MW410124   1.818   3.504   4.142  0.3247 -0.5577 -0.6199
 2520SOL     OW10125   2.040   3.641   4.215 -0.1857 -0.4507 -0.5231
 2520SOL    HW210126   2.026   3.734   4.196 -0.2966 -0.5356 -0.8587
 2520SOL    HW310127   1.960   3.598   4.186 -0.0451 -0.6806 -0.5736
 2520SOL    MW410128   2.028   3.648   4.209 -0.1822 -0.4921 -0.5741
 2521SOL     OW10129   2.021   3.915   4.185  0.2078  0.2312  0.1252
 2521SOL    HW210130   1.944   3.930   4.240 -0.7661 -2.6346 -0.3848
 2521SOL    HW310131   1.986   3.916   4.095  0.7779 -0.8982 -0.1164
 2521SOL    MW410132   2.006   3.918   4.180  0.1545 -0.2959  0.0262
 2522SOL     OW10133   1.793   4.037   4.308 -0.2891  0.6493 -0.6245
 2522SOL    HW210134   1.814   4.115   4.256  0.7636 -0.0618 -1.2908
 2522SOL    HW310135   1.719   3.997   4.264  0.5682  0.0772 -1.5785
 2522SOL    MW410136   1.786   4.042   4.295 -0.0370  0.4802 -0.8383
 2523SOL     OW10137   1.832   4.296   4.187  0.3411 -0.6155  0.2237
 2523SOL    HW210138   1.917   4.330   4.215  0.1731 -0.5944  0.7090
 2523SOL    HW310139   1.838   4.292   4.091  0.8961 -0.6402  0.2585
 2523SOL    MW410140   1.844   4.300   4.178  0.3922 -0.6166  0.2928
 2524SOL     OW10141   2.081   4.389   4.269  0.2716  0.2716  0.2495
 2524SOL    HW210142   2.053   4.394   4.361  0.7632  1.2267  0.3475
 2524SOL    HW310143   2.074   4.479   4.237 -1.1794 -0.2736 -1.0352
 2524SOL    MW410144   2.076   4.402   4.277  0.1450  0.3252  0.0930
 2525SOL     OW10145   2.484   4.666   4.154  0.4571 -0.2767 -0.0217
 2525SOL    HW210146   2.553   4.722   4.190  1.2054 -2.0379  1.3731
 2525SOL    HW310147   2.480   4.591   4.214 -0.4380 -1.7735 -1.8947
 2525SOL    MW410148   2.492   4.663   4.167  0.4377 -0.7065 -0.0844
 2526SOL     OW10149   2.242   0.146   4.226 -0.7253  0.0420 -0.6335
 2526SOL    HW210150   2.315   0.095   4.192  0.2719 -0.4467  2.1342
 2526SOL    HW310151   2.164   0.097   4.199  0.1622 -2.3033  0.8655
 2526SOL    MW410152   2.241   0.133   4.218 -0.4768 -0.3319 -0.0710
 2527SOL     OW10153   2.265   0.395   4.165  0.3095 -0.3877 -0.1165
 2527SOL    HW210154   2.252   0.303   4.189 -1.7420  0.1914  1.2415
 2527SOL    HW310155   2.258   0.397   4.070 -1.0145 -1.4582 -0.0537
 2527SOL    MW410156   2.262   0.383   4.156 -0.1359 -0.4526  0.0715
 2528SOL     OW10157   2.518   0.446   4.225 -0.4295  0.4240  0.0011
 2528SOL    HW210158   2.503   0.447   4.320 -0.7794  0.0112 -0.0461
 2528SOL    HW310159   2.436   0.411   4.189  0.0520 -0.3264 -0.3815
 2528SOL    MW410160   2.505   0.441   4.233 -0.4122  0.2705 -0.0558
 2529SOL     OW10161   2.446   0.727   4.198  0.1598  0.1045  0.1327
 2529SOL    HW210162   2.466   0.636   4.218  1.6391  0.6246  1.0562
 2529SOL    HW310163   2.451   0.733   4.103 -1.0960 -1.0371 -0.0089
 2529SOL    MW410164   2.449   0.716   4.188  0.1891  0.0225  0.2356
 2530SOL     OW10165   2.249   0.904   4.305  0.3677 -0.5299  0.4975
 2530SOL    HW210166   2.248   0.885   4.398  0.0646 -0.1192  0.5814
 2530SOL    HW310167   2.315   0.845   4.268  1.1506 -0.0479  1.1126
 2530SOL    MW410168   2.257   0.894   4.312  0.4313 -0.4122  0.5894
 2531SOL     OW10169   2.244   1.142   4.158 -0.0931  0.3194 -0.2241
 2531SOL    HW210170   2.329   1.176   4.185 -0.2526  0.5502 -0.0110
 2531SOL    HW310171   2.240   1.054   4.196  0.1940  0.1750 -0.5266
 2531SOL    MW410172   2.255   1.135   4.167 -0.0763  0.3307 -0.2360
 2532SOL     OW10173   2.481   1.274   4.231 -0.2546  0.2026  0.0659
 2532SOL    HW210174   2.489   1.271   4.327  1.4664  0.2489 -0.0690
 2532SOL    HW310175   2.557   1.225   4.199 -0.9349  0.0182 -1.2764
 2532SOL    MW410176   2.492   1.267   4.240 -0.1173  0.1843 -0.1287
 2533SOL     OW10177   2.500   1.546   4.155 -0.1855 -0.4293 -0.1927
 2533SOL    HW210178   2.498   1.457   4.190  1.8337  0.0267  1.1960
 2533SOL    HW310179   2.479   1.537   4.062 -0.9587 -2.2223  0.1444
 2533SOL    MW410180   2.497   1.533   4.148 -0.0212 -0.6058  0.0353
 2534SOL     OW10181   2.267   1.673   4.248 -0.6564  0.5107  0.1024
 2534SOL    HW210182   2.276   1.658   4.342  1.0384 -1.2781 -0.3028
 2534SOL    HW310183   2.347   1.635   4.211 -1.9630 -0.0705 -2.1733
 2534SOL    MW410184   2.279   1.666   4.256 -0.6051  0.1980 -0.2518
 2535SOL     OW10185   2.249   1.951   4.154  0.5703 -0.0206  0.1077
 2535SOL    HW210186   2.324   2.009   4.167 -0.1942  1.0310 -0.0163
 2535SOL    HW310187   2.275   1.868   4.193  2.2952 -0.0766 -1.1298
 2535SOL    MW410188   2.262   1.948   4.161  0.6969  0.1107 -0.0725
 2536SOL     OW10189   2.494   2.068   4.225 -0.1164 -0.4476  0.2883
 2536SOL    HW210190   2.481   2.093   4.316 -0.1309  0.2292  0.1051
 2536SOL    HW310191   2.579   2.025   4.223 -0.1389 -0.5068  0.6313
 2536SOL    MW410192   2.503   2.066   4.237 -0.1214 -0.3660  0.3099
 2537SOL     OW10193   2.496   2.327   4.105  0.1746  0.1204  0.0215
 2537SOL    HW210194   2.506   2.238   4.140  0.3196 -0.1186 -0.6234
 2537SOL    HW310195   2.508   2.317   4.011 -0.1913  0.7691 -0.0953
 2537SOL    MW410196   2.499   2.314   4.097  0.1457  0.1743 -0.0792
 2538SOL     OW10197   2.286   2.427   4.232 -0.0384 -0.0796  0.4139
 2538SOL    HW210198   2.359   2.392   4.179 -0.7479  0.1710 -0.7560
 2538SOL    HW310199   2.208   2.390   4.191 -0.5133 -1.3307  2.4236
 2538SOL    MW410200   2.286   2.417   4.219 -0.1945 -0.2115  0.5240
 2539SOL     OW10201   2.279   2.675   4.090  0.0796 -0.1072  0.4294
 2539SOL    HW210202   2.280   2.588   4.132  0.4547 -0.4768 -0.3361
 2539SOL    HW310203   2.204   2.719   4.129  0.3964 -0.4636  1.4627
 2539SOL    MW410204   2.270   2.669   4.101  0.1709 -0.2029  0.4644
 2540SOL     OW10205   2.453   2.833   4.253 -0.0369 -0.1317 -0.1419
 2540SOL    HW210206   2.434   2.838   4.346  1.1896 -0.0914  0.1082
 2540SOL    HW310207   2.396   2.763   4.220 -1.1485  0.4838  0.4529
 2540SOL    MW410208   2.443   2.825   4.261 -0.0215 -0.0451 -0.0305
 2541SOL     OW10209   2.447   3.100   4.155 -0.1312 -0.1704  0.0529
 2541SOL    HW210210   2.362   3.144   4.155 -0.8387 -1.4882 -1.3525
 2541SOL    HW310211   2.433   3.021   4.208 -0.1759 -1.0811 -1.2912
 2541SOL    MW410212   2.434   3.095   4.162 -0.2303 -0.4642 -0.3099
 2542SOL     OW10213   2.239   3.262   4.209  0.6991 -0.1371  0.6338
 2542SOL    HW210214   2.231   3.355   4.184  1.5627 -0.2101  0.0696
 2542SOL    HW310215   2.157   3.223   4.180  0.8159  0.2156 -0.1910
 2542SOL    MW410216   2.227   3.269   4.202  0.8285 -0.1001  0.4511
 2543SOL     OW10217   2.269   3.515   4.136 -0.1724 -0.1489  0.1397
 2543SOL    HW210218   2.343   3.532   4.194 -0.3858 -2.1917  1.0653
 2543SOL    HW310219   2.199   3.571   4.169  0.2469  0.0264  0.7334
 2543SOL    MW410220   2.269   3.525   4.148 -0.1452 -0.3953  0.3409
 2544SOL     OW10221   2.478   3.647   4.268  0.3507 -0.2365  0.4944
 2544SOL    HW210222   2.457   3.658   4.361  0.6571  1.0171  0.4356
 2544SOL    HW310223   2.452   3.730   4.228  0.9496 -0.4734 -0.4038
 2544SOL    MW410224   2.472   3.660   4.275  0.4699 -0.1023  0.3681
 2545SOL     OW10225   2.435   3.894   4.156  0.0277 -0.1979 -0.1108
 2545SOL    HW210226   2.519   3.933   4.181  0.3342 -2.1970  2.1411
 2545SOL    HW310227   2.433   3.901   4.061  1.8106  1.7324 -0.0631
 2545SOL    MW410228   2.446   3.900   4.147  0.3033 -0.2069  0.1931
 2546SOL     OW10229   2.248   4.049   4.263 -0.2409 -0.0956  0.0538
 2546SOL    HW210230   2.317   3.988   4.238  0.7515  1.2292 -0.5469
 2546SOL    HW310231   2.167   4.006   4.236  0.4068 -1.3417  0.0673
 2546SOL    MW410232   2.247   4.036   4.256 -0.0246 -0.0849 -0.0234
 2547SOL     OW10233   2.265   4.263   4.107  0.1630  0.0192  0.4222
 2547SOL    HW210234   2.260   4.185   4.162  2.6219 -0.1182  0.4895
 2547SOL    HW310235   2.202   4.324   4.145 -1.0984 -1.5866  0.9173
 2547SOL    MW410236   2.256   4.261   4.119  0.3211 -0.2108  0.4964
 2548SOL     OW10237   2.455   4.415   4.260 -0.3847 -0.4603  0.2451
 2548SOL    HW210238   2.533   4.371   4.226 -0.5643 -0.3396 -0.3347
 2548SOL    HW310239   2.382   4.368   4.220 -0.6060 -0.4266  0.6056
 2548SOL    MW410240   2.456   4.403   4.250 -0.4375 -0.4401  0.2155
 2549SOL     OW10241   2.946   4.620   4.150  0.1412  0.3404 -0.0898
 2549SOL    HW210242   3.018   4.673   4.185  1.5188  0.1913 -2.5650
 2549SOL    HW310243   2.959   4.534   4.190  2.0114  0.0241 -1.2925
 2549SOL    MW410244   2.957   4.615   4.160  0.5696  0.2794 -0.5751
 2550SOL     OW10245   2.736   0.091   4.252 -0.1200 -0.5159 -0.0949
 2550SOL    HW210246   2.748   0.173   4.203  1.0150 -0.7518 -0.2264
 2550SOL    HW310247   2.794   0.029   4.209  0.4946 -0.8738  1.2162
 2550SOL    MW410248   2.746   0.094   4.240  0.1106 -0.5942  0.0601
 2551SOL     OW10249   2.770   0.346   4.156  0.4666 -0.1568 -0.6868
 2551SOL    HW210250   2.686   0.387   4.180  0.7590 -0.1866  0.4458
 2551SOL    HW310251   2.775   0.355   4.061 -0.9720 -0.4305 -0.8053
 2551SOL    MW410252   2.759   0.353   4.147  0.3154 -0.1968 -0.5527
 2552SOL     OW10253   2.944   0.505   4.275  0.0451 -0.1057 -0.4065
 2552SOL    HW210254   2.936   0.594   4.239 -0.3566 -0.3003 -0.8001
 2552SOL    HW310255   2.883   0.453   4.224 -1.2210 -0.1994  1.1784
 2552SOL    MW410256   2.935   0.510   4.263 -0.1748 -0.1438 -0.2499
 2553SOL     OW10257   2.919   0.748   4.169  0.0097 -0.2675  0.2378
 2553SOL    HW210258   2.995   0.804   4.183  0.6707 -0.9779 -0.4528
 2553SOL    HW310259   2.908   0.746   4.074  0.6997 -2.2361  0.1824
 2553SOL    MW410260   2.927   0.755   4.158  0.1879 -0.6210  0.1397
 2554SOL     OW10261   2.682   0.849   4.256 -0.1242 -0.1391  0.0682
 2554SOL    HW210262   2.758   0.795   4.234  0.0099 -0.4931  1.3812
 2554SOL    HW310263   2.606   0.796   4.231  0.0320 -0.3256 -0.0107
 2554SOL    MW410264   2.682   0.835   4.250 -0.0861 -0.2104  0.2308
 2555SOL     OW10265   2.715   1.110   4.169 -0.5270 -0.5720 -0.2478
 2555SOL    HW210266   2.678   1.029   4.205  1.5844 -1.6789 -0.5025
 2555SOL    HW310267   2.722   1.094   4.075 -0.8678  0.2350 -0.4156
 2555SOL    MW410268   2.711   1.097   4.162 -0.2933 -0.6115 -0.3042
 2556SOL     OW10269   2.910   1.301   4.291 -0.0237  0.0037 -0.1007
 2556SOL    HW210270   2.981   1.242   4.266  0.1591  0.1817 -0.0018
 2556SOL    HW310271   2.832   1.262   4.253  0.2235  0.1715 -0.7822
 2556SOL    MW410272   2.909   1.288   4.283  0.0329  0.0494 -0.1774
 2557SOL     OW10273   2.989   1.511   4.122  1.0028 -0.1264  0.1277
 2557SOL    HW210274   3.071   1.549   4.155 -0.3719  0.7948  2.6161
 2557SOL    HW310275   2.978   1.431   4.174  0.3861 -0.3225 -0.3066
 2557SOL    MW410276   2.999   1.505   4.133  0.7398 -0.0308  0.3986
 2558SOL     OW10277   2.749   1.671   4.202 -0.0626 -0.0559 -0.1728
 2558SOL    HW210278   2.815   1.615   4.160 -0.0094 -0.3901  0.3590
 2558SOL    HW310279   2.669   1.619   4.200 -0.1783  0.1267 -0.3031
 2558SOL    MW410280   2.747   1.657   4.196 -0.0708 -0.0759 -0.1197
 2559SOL     OW10281   2.743   1.935   4.136  0.2006 -0.4387 -0.3792
 2559SOL    HW210282   2.746   1.842   4.157  0.9991 -0.2753  0.2846
 2559SOL    HW310283   2.728   1.938   4.042  2.4551 -1.2860 -0.7963
 2559SOL    MW410284   2.742   1.923   4.127  0.6034 -0.5289 -0.3467
 2560SOL     OW10285   2.932   2.079   4.278 -0.4116 -0.1873  0.0009
 2560SOL    HW210286   2.953   2.149   4.216  0.5688 -1.7012 -1.4176
 2560SOL    HW310287   2.865   2.027   4.234 -0.6510 -0.5345  0.7647
 2560SOL    MW410288   2.926   2.082   4.264 -0.3140 -0.4327 -0.0854
 2561SOL     OW10289   2.917   2.349   4.112  0.1613  0.0740  0.2182
 2561SOL    HW210290   2.993   2.383   4.158  0.5060 -0.4475  0.0335
 2561SOL    HW310291   2.842   2.376   4.165  0.6181 -1.5492  1.7132
 2561SOL    MW410292   2.917   2.357   4.125  0.2670 -0.2091  0.3910
 2562SOL     OW10293   2.692   2.464   4.245 -0.2264 -0.3157 -0.3590
 2562SOL    HW210294   2.687   2.436   4.337  0.6183  0.4508 -0.0686
 2562SOL    HW310295   2.621   2.416   4.202 -0.5012 -0.8478  0.6485
 2562SOL    MW410296   2.682   2.454   4.252 -0.1512 -0.2847 -0.1879
 2563SOL     OW10297   2.707   2.736   4.169 -0.0076 -0.7349 -0.2403
 2563SOL    HW210298   2.702   2.643   4.191 -0.4840 -0.4391  0.9337
 2563SOL    HW310299   2.624   2.773   4.199  0.4522  0.1906 -0.0723
 2563SOL    MW410300   2.696   2.729   4.176 -0.0098 -0.5736 -0.0629
 2564SOL     OW10301   2.960   2.831   4.215 -0.1546  0.0639  0.1323
 2564SOL    HW210302   2.953   2.832   4.311 -1.5139 -0.3002  0.0433
 2564SOL    HW310303   2.880   2.789   4.186  1.3899 -2.1568 -1.0682
 2564SOL    MW410304   2.949   2.825   4.224 -0.1302 -0.2773 -0.0381
 2565SOL     OW10305   2.897   3.096   4.135 -0.4905 -0.0950 -0.0713
 2565SOL    HW210306   2.914   3.005   4.156 -3.5698 -0.7685 -0.3032
 2565SOL    HW310307   2.918   3.103   4.042  0.0621 -0.4705  0.0219
 2565SOL    MW410308   2.902   3.085   4.125 -0.8240 -0.2334 -0.0896
 2566SOL     OW10309   2.674   3.251   4.239  0.1315  0.1711  0.5757
 2566SOL    HW210310   2.744   3.200   4.199  0.0411  0.7335 -0.3039
 2566SOL    HW310311   2.595   3.199   4.223  0.2080  0.0180  0.6986
 2566SOL    MW410312   2.673   3.237   4.232  0.1302  0.2248  0.4759
 2567SOL     OW10313   2.656   3.502   4.108 -0.1256  0.7315  0.2502
 2567SOL    HW210314   2.658   3.414   4.146 -1.0397  0.8160  0.4921
 2567SOL    HW310315   2.590   3.549   4.159  0.6351  1.6790  0.3847
 2567SOL    MW410316   2.648   3.497   4.120 -0.1459  0.8676  0.2995
 2568SOL     OW10317   2.892   3.617   4.194 -0.0806  0.2068  0.4808
 2568SOL    HW210318   2.881   3.613   4.289  0.2954  0.5379  0.5359
 2568SOL    HW310319   2.809   3.584   4.159 -0.2701  0.2177  0.9232
 2568SOL    MW410320   2.879   3.612   4.202 -0.0558  0.2520  0.5465
 2569SOL     OW10321   2.918   3.870   4.124 -0.2119 -0.6267 -0.0200
 2569SOL    HW210322   3.003   3.908   4.145  0.2550 -1.7488  0.1272
 2569SOL    HW310323   2.915   3.789   4.174 -1.4769 -0.4667  0.1686
 2569SOL    MW410324   2.929   3.864   4.133 -0.3169 -0.7536  0.0248
 2570SOL     OW10325   2.696   4.018   4.234  0.0356  0.3252 -0.2082
 2570SOL    HW210326   2.697   4.112   4.215 -0.8322  0.7907  1.8513
 2570SOL    HW310327   2.771   3.983   4.187  1.8498  2.4901  0.9871
 2570SOL    MW410328   2.706   4.026   4.226  0.1602  0.6723  0.2213
 2571SOL     OW10329   2.679   4.294   4.147 -0.0886  0.1900  0.3854
 2571SOL    HW210330   2.767   4.305   4.182  0.7957 -0.8147 -1.4594
 2571SOL    HW310331   2.690   4.300   4.052 -2.1850  1.2333  0.1849
 2571SOL    MW410332   2.692   4.296   4.139 -0.2489  0.1950  0.1154
 2572SOL     OW10333   2.933   4.364   4.267  0.1820 -0.2518 -0.0381
 2572SOL    HW210334   2.934   4.386   4.360 -0.8220 -0.9992  0.1697
 2572SOL    HW310335   3.018   4.324   4.250 -1.0164 -3.5840  1.4584
 2572SOL    MW410336   2.944   4.362   4.277 -0.1085 -0.7901  0.1869
 2573SOL     OW10337   3.381   0.027   4.182 -0.0768 -0.0142  0.1348
 2573SOL    HW210338   3.448   0.087   4.216 -0.0325  0.4400 -0.7370
 2573SOL    HW310339   3.378  -0.044   4.246  0.9728  0.1536  0.3844
 2573SOL    MW410340   3.390   0.026   4.195  0.0675  0.0679  0.0525
 2574SOL     OW10341   3.139   0.133   4.237  0.2467  0.0242  0.1570
 2574SOL    HW210342   3.154   0.170   4.324 -0.5128 -1.8697  1.1125
 2574SOL    HW310343   3.225   0.103   4.208  1.0059  3.0671 -0.9173
 2574SOL    MW410344   3.152   0.134   4.245  0.2468  0.1758  0.1411
 2575SOL     OW10345   3.161   0.395   4.176 -0.2150 -0.5872 -0.2514
 2575SOL    HW210346   3.149   0.301   4.182  0.1035 -0.5029  2.2409
 2575SOL    HW310347   3.076   0.432   4.201 -0.4380 -0.2044 -1.5450
 2575SOL    MW410348   3.148   0.388   4.180 -0.2024 -0.5256 -0.0930
 2576SOL     OW10349   3.411   0.455   4.282 -0.0048  0.2900 -0.1911
 2576SOL    HW210350   3.465   0.404   4.222 -0.2321 -0.1242 -0.0425
 2576SOL    HW310351   3.321   0.438   4.254 -0.0264  1.6288 -0.9627
 2576SOL    MW410352   3.406   0.446   4.270 -0.0377  0.4120 -0.2737
 2577SOL     OW10353   3.360   0.707   4.175  0.1958  0.5258  0.1176
 2577SOL    HW210354   3.282   0.749   4.212 -1.6650 -1.7673 -1.1495
 2577SOL    HW310355   3.373   0.629   4.229  1.6203  0.8510  0.2800
 2577SOL    MW410356   3.352   0.702   4.187  0.1383  0.2661 -0.0281
 2578SOL     OW10357   3.161   0.896   4.243 -0.2587  0.0736 -0.1616
 2578SOL    HW210358   3.181   0.903   4.337  2.3705  0.0842 -0.6823
 2578SOL    HW310359   3.162   0.986   4.212  1.1627 -0.0759 -0.6073
 2578SOL    MW410360   3.164   0.909   4.252  0.2754  0.0553 -0.2894
 2579SOL     OW10361   3.115   1.165   4.170  0.0129  0.2148  0.1643
 2579SOL    HW210362   3.199   1.191   4.208  0.1508 -0.2276  0.1678
 2579SOL    HW310363   3.126   1.180   4.076 -0.1780  0.9021  0.2509
 2579SOL    MW410364   3.128   1.170   4.162  0.0057  0.2472  0.1764
 2580SOL     OW10365   3.370   1.229   4.259  0.1209 -0.0120 -0.0733
 2580SOL    HW210366   3.372   1.235   4.355 -0.3313  0.1871 -0.0724
 2580SOL    HW310367   3.362   1.320   4.230  0.4866 -0.0564 -0.3056
 2580SOL    MW410368   3.369   1.242   4.268  0.1094  0.0083 -0.1035
 2581SOL     OW10369   3.381   1.485   4.121 -0.3092  0.1675 -0.5492
 2581SOL    HW210370   3.321   1.544   4.167  0.7882  1.3564 -0.6351
 2581SOL    HW310371   3.372   1.509   4.029  0.8533  0.8645 -0.4857
 2581SOL    MW410372   3.372   1.496   4.115 -0.0110  0.4163 -0.5522
 2582SOL     OW10373   3.199   1.655   4.249 -0.0247  0.1027 -0.3751
 2582SOL    HW210374   3.168   1.657   4.340  1.1017  0.3516  0.0072
 2582SOL    HW310375   3.200   1.746   4.221 -0.2175  0.0409 -0.5870
 2582SOL    MW410376   3.195   1.667   4.257  0.0982  0.1276 -0.3529
 2583SOL     OW10377   3.156   1.919   4.178  0.1503  0.4557 -0.1251
 2583SOL    HW210378   3.233   1.960   4.216 -0.2813  1.1145  0.0495
 2583SOL    HW310379   3.083   1.952   4.230 -0.2467 -0.2129 -0.2455
 2583SOL    MW410380   3.156   1.928   4.190  0.0410  0.4543 -0.1178
 2584SOL     OW10381   3.398   2.053   4.253  0.6043 -0.0626  0.2498
 2584SOL    HW210382   3.480   2.013   4.227  0.4513  0.2810 -0.7694
 2584SOL    HW310383   3.406   2.145   4.226 -0.7181 -0.3733 -1.2765
 2584SOL    MW410384   3.410   2.060   4.246  0.4094 -0.0582 -0.0863
 2585SOL     OW10385   3.398   2.311   4.149 -0.4088 -0.4452 -0.1381
 2585SOL    HW210386   3.467   2.373   4.173 -1.3218  0.5947 -0.1567
 2585SOL    HW310387   3.408   2.300   4.055 -0.2020 -0.3683 -0.1272
 2585SOL    MW410388   3.408   2.318   4.140 -0.5021 -0.2980 -0.1392
 2586SOL     OW10389   3.159   2.439   4.226 -0.2845 -0.1191 -0.2062
 2586SOL    HW210390   3.177   2.529   4.199 -0.2890 -0.0939 -0.1254
 2586SOL    HW310391   3.233   2.388   4.193 -1.5053 -0.5048 -2.4564
 2586SOL    MW410392   3.171   2.444   4.218 -0.4461 -0.1667 -0.4926
 2587SOL     OW10393   3.197   2.696   4.142  0.2744  0.1007  0.1022
 2587SOL    HW210394   3.260   2.756   4.182 -0.1018  0.6909 -0.1821
 2587SOL    HW310395   3.111   2.729   4.170  0.0468 -0.0405 -0.4289
 2587SOL    MW410396   3.194   2.708   4.151  0.1948  0.1602 -0.0052
 2588SOL     OW10397   3.380   2.872   4.266 -0.0599 -0.6308  0.1859
 2588SOL    HW210398   3.458   2.822   4.244 -0.1311 -1.0988  0.9981
 2588SOL    HW310399   3.393   2.957   4.223  1.8518  0.0286  2.0063
 2588SOL    MW410400   3.392   2.877   4.257  0.1829 -0.6056  0.5326
 2589SOL     OW10401   3.377   3.127   4.126 -0.0873 -0.9415  0.3267
 2589SOL    HW210402   3.293   3.160   4.158  0.9068  1.0295  0.9628
 2589SOL    HW310403   3.364   3.118   4.031 -0.3293  1.5755  0.0774
 2589SOL    MW410404   3.364   3.130   4.118  0.0119 -0.3493  0.3781
 2590SOL     OW10405   3.130   3.223   4.202 -0.1749 -0.3168 -0.3865
 2590SOL    HW210406   3.118   3.318   4.198  0.0628 -0.2500  0.3224
 2590SOL    HW310407   3.053   3.187   4.159  0.7845  0.2293 -2.6173
 2590SOL    MW410408   3.119   3.231   4.196 -0.0172 -0.2360 -0.5879
 2591SOL     OW10409   3.131   3.495   4.170  0.0195  0.0175  0.1148
 2591SOL    HW210410   3.054   3.547   4.195 -0.2486 -1.2291  1.9784
 2591SOL    HW310411   3.135   3.504   4.075 -1.9436  0.7898  0.0711
 2591SOL    MW410412   3.121   3.503   4.161 -0.2747 -0.0453  0.3548
 2592SOL     OW10413   3.357   3.628   4.245  0.0583 -0.1976  0.3585
 2592SOL    HW210414   3.381   3.610   4.336  1.2326 -3.4675 -0.5302
 2592SOL    HW310415   3.288   3.564   4.225  1.4040 -1.0664 -1.7015
 2592SOL    MW410416   3.351   3.617   4.254  0.3905 -0.7436 -0.0305
 2593SOL     OW10417   3.433   3.874   4.120  0.2249  0.3064 -0.1296
 2593SOL    HW210418   3.426   3.779   4.125  2.4501  0.0261 -1.3795
 2593SOL    HW310419   3.421   3.894   4.027  1.2288  1.0846 -0.1026
 2593SOL    MW410420   3.430   3.864   4.108  0.6509  0.3722 -0.2909
 2594SOL     OW10421   3.186   3.953   4.184 -0.1081 -0.0084 -0.0015
 2594SOL    HW210422   3.204   3.939   4.277 -0.4392  0.2819  0.1053
 2594SOL    HW310423   3.261   3.914   4.139 -0.3526 -0.8980  0.3541
 2594SOL    MW410424   3.198   3.946   4.190 -0.1843 -0.0877  0.0596
 2595SOL     OW10425   3.180   4.231   4.135 -0.7648 -0.5879  0.3232
 2595SOL    HW210426   3.256   4.250   4.189 -0.4333 -0.3826 -0.2115
 2595SOL    HW310427   3.155   4.142   4.158 -0.0910 -0.8125  0.1678
 2595SOL    MW410428   3.186   4.222   4.145 -0.6323 -0.5908  0.2322
 2596SOL     OW10429   3.388   4.266   4.333 -0.1121 -0.1736  0.6460
 2596SOL    HW210430   3.362   4.356   4.353  0.2353 -0.1660  1.0695
 2596SOL    HW310431   3.467   4.275   4.280 -0.6673 -0.2072 -0.1940
 2596SOL    MW410432   3.395   4.279   4.329 -0.1397 -0.1774  0.5908
 2597SOL     OW10433   3.869   4.638   4.207  0.3156  0.1220 -0.2727
 2597SOL    HW210434   3.947   4.694   4.210  0.1812  0.3387 -0.7998
 2597SOL    HW310435   3.841   4.640   4.116  0.2832 -0.7752 -0.2905
 2597SOL    MW410436   3.876   4.645   4.196  0.2937  0.0319 -0.3448
 2598SOL     OW10437   3.655   0.136   4.297 -0.4255  0.0990  0.0601
 2598SOL    HW210438   3.637   0.209   4.238  0.1075  1.2914  1.3375
 2598SOL    HW310439   3.739   0.101   4.266 -0.9119 -0.2617 -0.8447
 2598SOL    MW410440   3.664   0.141   4.285 -0.4191  0.2087  0.1097
 2599SOL     OW10441   3.581   0.334   4.110 -0.0728 -0.4537 -0.2564
 2599SOL    HW210442   3.648   0.395   4.140  0.3943 -0.7346 -0.7130
 2599SOL    HW310443   3.578   0.346   4.016 -0.9292 -0.1817 -0.1958
 2599SOL    MW410444   3.590   0.343   4.102 -0.1245 -0.4548 -0.3085
 2600SOL     OW10445   3.807   0.489   4.203 -0.0777  0.0821 -0.0491
 2600SOL    HW210446   3.801   0.477   4.297 -1.2230 -0.7838 -0.2219
 2600SOL    HW310447   3.810   0.584   4.190 -0.5850  0.2144  0.8147
 2600SOL    MW410448   3.807   0.500   4.213 -0.2956 -0.0147  0.0420
 2601SOL     OW10449   3.848   0.750   4.158  0.0995 -0.5324 -0.5949
 2601SOL    HW210450   3.773   0.797   4.193  0.6226  0.2582 -0.5093
 2601SOL    HW310451   3.841   0.761   4.063 -0.2759 -1.0502 -0.6246
 2601SOL    MW410452   3.837   0.758   4.150  0.1190 -0.4964 -0.5875
 2602SOL     OW10453   3.617   0.847   4.245  0.0619  0.2966  0.4894
 2602SOL    HW210454   3.602   0.930   4.202 -0.3091 -0.1297 -0.2099
 2602SOL    HW310455   3.539   0.795   4.225  0.0872 -0.0614  1.2942
 2602SOL    MW410456   3.605   0.851   4.237  0.0162  0.1932  0.5035
 2603SOL     OW10457   3.597   1.097   4.166  0.0353 -0.1355 -0.3078
 2603SOL    HW210458   3.524   1.149   4.201  0.4063  0.6292 -0.6498
 2603SOL    HW310459   3.595   1.114   4.071  0.5256 -0.2809 -0.3453
 2603SOL    MW410460   3.587   1.106   4.158  0.1488 -0.0538 -0.3576
 2604SOL     OW10461   3.801   1.249   4.251 -0.5580 -0.7856 -0.3410
 2604SOL    HW210462   3.731   1.193   4.215  0.3879 -2.3820  0.2345
 2604SOL    HW310463   3.789   1.333   4.207 -1.6553 -1.6085 -1.6866
 2604SOL    MW410464   3.790   1.253   4.241 -0.5779 -1.1048 -0.4425
 2605SOL     OW10465   3.855   1.494   4.127  0.3157 -0.0586  0.2088
 2605SOL    HW210466   3.919   1.539   4.181  1.4961 -0.0935 -1.1313
 2605SOL    HW310467   3.771   1.535   4.150  1.3945  3.0792 -1.1856
 2605SOL    MW410468   3.852   1.505   4.137  0.6139  0.3508 -0.1521
 2606SOL     OW10469   4.273   1.413   4.476 -0.1108  0.1455  0.0721
 2606SOL    HW210470   4.269   1.472   4.401 -0.5473 -0.1569 -0.1445
 2606SOL    HW310471   4.281   1.326   4.438 -2.9038 -0.2675  0.2822
 2606SOL    MW410472   4.273   1.410   4.461 -0.5369  0.0510  0.0715
 2607SOL     OW10473   3.630   1.934   4.160 -0.1173 -0.1900  0.5478
 2607SOL    HW210474   3.642   1.845   4.193  0.7948  0.0890  0.9894
 2607SOL    HW310475   3.639   1.927   4.065  1.1955 -0.3786  0.6815
 2607SOL    MW410476   3.633   1.922   4.152  0.1760 -0.1781  0.6237
 2608SOL     OW10477   3.846   2.084   4.265  0.0239  0.1741 -0.1078
 2608SOL    HW210478   3.861   2.062   4.356 -1.7476  0.2927  0.2371
 2608SOL    HW310479   3.773   2.028   4.238  1.0213 -0.4067 -1.6690
 2608SOL    MW410480   3.838   2.074   4.273 -0.0782  0.1132 -0.2685
 2609SOL     OW10481   3.875   2.352   4.166 -0.3397 -0.5027 -0.3130
 2609SOL    HW210482   3.837   2.274   4.208  2.6004 -1.6379  0.3045
 2609SOL    HW310483   3.872   2.333   4.072 -1.2571 -0.5809 -0.2746
 2609SOL    MW410484   3.869   2.339   4.159 -0.0727 -0.6628 -0.2260
 2610SOL     OW10485   3.629   2.454   4.247 -0.0970 -0.4671 -0.1418
 2610SOL    HW210486   3.624   2.447   4.342 -1.1316  0.5146 -0.1118
 2610SOL    HW310487   3.716   2.420   4.225  0.5157  0.1551  1.2329
 2610SOL    MW410488   3.640   2.448   4.256 -0.1526 -0.2553  0.0434
 2611SOL     OW10489   3.583   2.715   4.167  0.0247  0.1685  0.1091
 2611SOL    HW210490   3.601   2.623   4.189 -0.7261 -0.0998 -0.4008
 2611SOL    HW310491   3.593   2.719   4.072 -0.5365  0.4850  0.0663
 2611SOL    MW410492   3.587   2.703   4.158 -0.1483  0.1748  0.0362
 2612SOL     OW10493   3.842   2.857   4.252  0.4276  0.1318  0.0955
 2612SOL    HW210494   3.839   2.862   4.348 -1.3620  2.2301 -0.0299
 2612SOL    HW310495   3.756   2.823   4.227  0.6505  0.2117 -0.7987
 2612SOL    MW410496   3.831   2.853   4.261  0.2210  0.4194 -0.0386
 2613SOL     OW10497   3.822   3.121   4.165 -0.0791 -0.0322 -0.3411
 2613SOL    HW210498   3.810   3.028   4.188 -0.3500 -0.0481 -0.5345
 2613SOL    HW310499   3.841   3.119   4.071  0.4909  0.0678 -0.2269
 2613SOL    MW410500   3.823   3.108   4.155 -0.0398 -0.0210 -0.3514
 2614SOL     OW10501   3.595   3.293   4.196 -0.0809  0.4422  0.0148
 2614SOL    HW210502   3.672   3.237   4.181 -0.0836  0.8045 -1.5007
 2614SOL    HW310503   3.520   3.237   4.174 -0.2507  0.1215  1.3923
 2614SOL    MW410504   3.595   3.278   4.191 -0.1037  0.4475 -0.0033
 2615SOL     OW10505   3.571   3.542   4.120  0.0532  0.2115  0.2724
 2615SOL    HW210506   3.583   3.451   4.148  1.2805 -0.2482 -1.6705
 2615SOL    HW310507   3.488   3.569   4.160 -0.5526 -1.9008  0.4855
 2615SOL    MW410508   3.562   3.534   4.129  0.1352 -0.1278  0.0439
 2616SOL     OW10509   3.809   3.639   4.268 -0.0017  0.4252 -0.0610
 2616SOL    HW210510   3.889   3.593   4.243  0.6501  1.6281 -0.2303
 2616SOL    HW310511   3.741   3.602   4.212  0.6359  0.1242 -0.6405
 2616SOL    MW410512   3.811   3.628   4.258  0.1686  0.5445 -0.1593
 2617SOL     OW10513   3.855   3.895   4.189  0.7680  0.2352  0.2561
 2617SOL    HW210514   3.777   3.935   4.226 -0.0326  0.8539 -2.0312
 2617SOL    HW310515   3.844   3.801   4.205 -0.5002  0.3098 -0.1168
 2617SOL    MW410516   3.844   3.888   4.196  0.4950  0.3266 -0.0949
 2618SOL     OW10517   3.632   4.023   4.264  0.2684  0.1097 -0.1471
 2618SOL    HW210518   3.645   4.015   4.359 -1.1604  0.0599  0.0653
 2618SOL    HW310519   3.558   3.965   4.246 -0.0570  0.8290 -1.1424
 2618SOL    MW410520   3.624   4.015   4.274  0.0370  0.1984 -0.2503
 2619SOL     OW10521   3.611   4.281   4.143  0.4723  0.1741 -0.5972
 2619SOL    HW210522   3.703   4.307   4.144  0.8962 -1.3317  1.2166
 2619SOL    HW310523   3.611   4.191   4.175 -1.8590  0.9136  1.6193
 2619SOL    MW410524   3.623   4.273   4.147  0.2205  0.0730 -0.0648
 2620SOL     OW10525   3.877   4.366   4.216 -0.2795 -0.5367 -0.1199
 2620SOL    HW210526   3.964   4.348   4.180  0.1009  0.3387  0.3493
 2620SOL    HW310527   3.873   4.462   4.222 -1.3454 -0.5630 -0.3087
 2620SOL    MW410528   3.888   4.377   4.212 -0.3698 -0.4244 -0.0830
 2621SOL     OW10529   4.332   0.030   4.173  0.3916 -0.0589 -0.1828
 2621SOL    HW210530   4.318  -0.041   4.236  1.2016 -1.0067 -1.0594
 2621SOL    HW310531   4.418   0.065   4.196  1.1803 -1.1196 -1.4211
 2621SOL    MW410532   4.341   0.025   4.185  0.6032 -0.3239 -0.4616
 2622SOL     OW10533   4.084   0.136   4.205 -0.1019  0.3025  0.3363
 2622SOL    HW210534   4.085   0.230   4.189  0.2883 -0.0905 -2.1358
 2622SOL    HW310535   4.174   0.108   4.191 -0.8048 -0.9014 -2.1450
 2622SOL    MW410536   4.096   0.144   4.201 -0.1431  0.0918 -0.3176
 2623SOL     OW10537   4.055   0.396   4.153  0.0938  0.0217 -0.0622
 2623SOL    HW210538   4.126   0.439   4.201  0.6159  2.4194 -2.8828
 2623SOL    HW310539   3.975   0.430   4.193  0.5024 -0.7891  1.4846
 2623SOL    MW410540   4.054   0.406   4.165  0.2170  0.2311 -0.2303
 2624SOL     OW10541   4.294   0.506   4.293 -0.1967  0.1553  0.3441
 2624SOL    HW210542   4.308   0.589   4.249 -0.0727  0.0353  0.1571
 2624SOL    HW310543   4.375   0.457   4.278 -0.4671 -0.1940  0.0233
 2624SOL    MW410544   4.307   0.510   4.285 -0.2160  0.0933  0.2770
 2625SOL     OW10545   4.300   0.754   4.175  0.0026 -0.6002 -0.1451
 2625SOL    HW210546   4.220   0.801   4.197 -0.6236 -1.7921  0.1153
 2625SOL    HW310547   4.306   0.758   4.080 -0.4245 -0.6200 -0.1706
 2625SOL    MW410548   4.290   0.761   4.165 -0.1359 -0.7600 -0.1140
 2626SOL     OW10549   4.063   0.856   4.295 -0.0573 -0.1622  0.7388
 2626SOL    HW210550   4.052   0.943   4.257 -0.3377  0.1689  1.5624
 2626SOL    HW310551   3.992   0.804   4.257  0.9020 -0.3930 -0.7694
 2626SOL    MW410552   4.052   0.861   4.285  0.0319 -0.1490  0.6485
 2627SOL     OW10553   4.043   1.110   4.160  0.1343  0.1712 -0.0696
 2627SOL    HW210554   4.109   1.165   4.202 -0.6677  1.4366 -0.4643
 2627SOL    HW310555   3.959   1.148   4.186 -0.4152 -0.4255 -0.9461
 2627SOL    MW410556   4.041   1.122   4.169 -0.0439  0.2594 -0.2375
 2628SOL     OW10557   4.292   1.170   4.365  0.2072 -0.1190  0.7421
 2628SOL    HW210558   4.270   1.107   4.434 -1.7452 -2.7342 -2.0900
 2628SOL    HW310559   4.365   1.129   4.318 -1.6251 -0.7841 -1.6396
 2628SOL    MW410560   4.299   1.156   4.368 -0.2923 -0.5518  0.0544
 2629SOL     OW10561   4.313   1.566   4.236 -0.1712  0.2171  0.2682
 2629SOL    HW210562   4.386   1.626   4.247  0.0534 -0.1079  0.5507
 2629SOL    HW310563   4.304   1.556   4.141 -0.0574  0.5112  0.2268
 2629SOL    MW410564   4.321   1.573   4.225 -0.1259  0.2131  0.2999
 2630SOL     OW10565   4.048   1.666   4.241  0.4773 -0.7485 -0.1790
 2630SOL    HW210566   4.135   1.632   4.219  0.4904 -0.5181 -0.4826
 2630SOL    HW310567   4.052   1.758   4.217  0.4542 -0.5132  0.6808
 2630SOL    MW410568   4.060   1.673   4.235  0.4754 -0.6870 -0.1054
 2631SOL     OW10569   4.264   2.088   4.282 -0.1000  0.1340 -0.0571
 2631SOL    HW210570   4.275   2.103   4.375  1.0971 -1.3573  0.0474
 2631SOL    HW310571   4.349   2.058   4.251 -0.6724 -0.0723 -1.5013
 2631SOL    MW410572   4.277   2.086   4.290 -0.0176 -0.0899 -0.2341
 2632SOL     OW10573   4.480   1.966   4.183  0.0117  0.0122 -0.0758
 2632SOL    HW210574   4.558   2.016   4.205 -0.7791  1.0400  0.4297
 2632SOL    HW310575   4.489   1.945   4.090 -0.2144  2.1287 -0.5870
 2632SOL    MW410576   4.491   1.970   4.174 -0.1225  0.4269 -0.0772
 2633SOL     OW10577   4.287   2.333   4.124  0.2240 -0.1403 -0.1252
 2633SOL    HW210578   4.221   2.385   4.170 -2.0409 -0.1326 -3.1543
 2633SOL    HW310579   4.290   2.250   4.172 -1.0287  0.3709  0.8694
 2633SOL    MW410580   4.279   2.329   4.136 -0.2403 -0.0720 -0.3939
 2634SOL     OW10581   4.114   2.489   4.262  0.4059  0.1809 -0.2478
 2634SOL    HW210582   4.126   2.459   4.352  0.1503  1.2066  0.1255
 2634SOL    HW310583   4.026   2.458   4.239  0.4633 -0.0651 -0.1397
 2634SOL    MW410584   4.104   2.481   4.271  0.3796  0.2835 -0.1841
 2635SOL     OW10585   4.055   2.724   4.141  0.3412  0.6584 -0.2758
 2635SOL    HW210586   4.063   2.640   4.186  0.9429  0.1032 -1.3917
 2635SOL    HW310587   3.993   2.774   4.194  0.7877 -0.0969  0.9772
 2635SOL    MW410588   4.048   2.719   4.154  0.4787  0.4854 -0.2580
 2636SOL     OW10589   4.251   2.860   4.258 -0.3045  0.0765 -0.3311
 2636SOL    HW210590   4.176   2.816   4.218  0.0933 -1.9648  1.0997
 2636SOL    HW310591   4.327   2.811   4.227  0.3120  1.0452 -0.3626
 2636SOL    MW410592   4.251   2.848   4.249 -0.1702 -0.0651 -0.1464
 2637SOL     OW10593   4.264   3.121   4.155 -0.3609 -0.2328  0.0557
 2637SOL    HW210594   4.278   3.028   4.176 -0.6763 -0.1926  0.4726
 2637SOL    HW310595   4.263   3.124   4.060  1.1701 -0.4197  0.0269
 2637SOL    MW410596   4.266   3.109   4.146 -0.2007 -0.2525  0.1068
 2638SOL     OW10597   4.034   3.226   4.297 -0.5306 -0.0242 -0.3451
 2638SOL    HW210598   4.120   3.195   4.268 -0.5520  0.5202 -1.0149
 2638SOL    HW310599   3.973   3.193   4.230 -0.7748  0.0001 -0.1340
 2638SOL    MW410600   4.037   3.218   4.284 -0.5655  0.0505 -0.4048
 2639SOL     OW10601   4.044   3.502   4.200 -0.1883 -0.7842  0.0852
 2639SOL    HW210602   4.053   3.417   4.241 -0.5435 -0.4516  0.8519
 2639SOL    HW310603   4.034   3.483   4.107 -0.8139 -1.6043  0.3169
 2639SOL    MW410604   4.044   3.488   4.193 -0.3181 -0.8483  0.2170
 2640SOL     OW10605   4.271   3.657   4.284  0.1549  0.2517 -0.5234
 2640SOL    HW210606   4.275   3.738   4.235  1.3450 -0.5272 -1.7601
 2640SOL    HW310607   4.190   3.614   4.256 -0.5643  1.0792  0.2677
 2640SOL    MW410608   4.261   3.662   4.274  0.2165  0.2580 -0.5827
 2641SOL     OW10609   4.310   3.900   4.162 -0.0108  0.4512 -0.4735
 2641SOL    HW210610   4.238   3.930   4.218  0.0433  1.1845 -0.7857
 2641SOL    HW310611   4.282   3.923   4.074  0.8075  1.1541 -0.5513
 2641SOL    MW410612   4.296   3.907   4.158  0.1044  0.6409 -0.5245
 2642SOL     OW10613   4.099   4.031   4.299 -0.5942 -0.0263  0.0518
 2642SOL    HW210614   4.086   4.029   4.394 -0.0611 -1.5672  0.1080
 2642SOL    HW310615   4.026   3.979   4.263  0.8548 -1.9723 -0.1577
 2642SOL    MW410616   4.088   4.024   4.307 -0.3324 -0.4859  0.0319
 2643SOL     OW10617   4.133   4.283   4.150 -0.3611 -0.3621 -0.0238
 2643SOL    HW210618   4.210   4.329   4.183  0.2250 -1.2264 -0.1796
 2643SOL    HW310619   4.139   4.196   4.187 -2.0887  0.0160  1.2173
 2643SOL    MW410620   4.144   4.278   4.159 -0.5121 -0.4258  0.1187
 2644SOL     OW10621   4.276   0.577   4.561 -0.0136 -0.2835  0.4351
 2644SOL    HW210622   4.263   0.587   4.467 -2.8104  1.5201  0.9630
 2644SOL    HW310623   4.268   0.483   4.577 -0.3347 -0.5007 -1.0069
 2644SOL    MW410624   4.273   0.566   4.551 -0.4253 -0.0742  0.3142
 2645SOL     OW10625   0.175   1.160   4.590 -0.4057  0.3013  0.4558
 2645SOL    HW210626   0.159   1.106   4.513  0.4095 -0.7784  1.0178
 2645SOL    HW310627   0.209   1.243   4.555 -0.6359  0.0565 -0.3623
 2645SOL    MW410628   0.177   1.164   4.575 -0.3285  0.1265  0.4220
 2646SOL     OW10629   3.604   4.491   4.548 -0.0734 -0.3904 -0.4464
 2646SOL    HW210630   3.597   4.434   4.624 -0.4893  0.3789  0.0904
 2646SOL    HW310631   3.694   4.478   4.517  0.1565 -0.5549  0.2826
 2646SOL    MW410632   3.615   4.481   4.554 -0.0978 -0.3109 -0.2799
 2647SOL     OW10633   3.874   4.408   4.492  0.4156  0.1354  0.0255
 2647SOL    HW210634   3.888   4.378   4.403 -0.0733 -1.0700  0.3397
 2647SOL    HW310635   3.856   4.328   4.542  0.2079  0.8381  1.1033
 2647SOL    MW410636   3.873   4.394   4.487  0.3238  0.0691  0.2089
 2648SOL     OW10637   0.280   1.407   4.529  0.0117 -0.1562 -0.2739
 2648SOL    HW210638   0.219   1.450   4.589  0.1108 -0.6888  0.2072
 2648SOL    HW310639   0.358   1.462   4.530 -0.5536  0.6683 -1.0878
 2648SOL    MW410640   0.282   1.420   4.537 -0.0498 -0.1177 -0.3181
 2649SOL     OW10641   0.145   0.113   4.544 -0.3204  0.6638 -0.2659
 2649SOL    HW210642   0.101   0.125   4.628 -0.4648 -2.0561  0.0830
 2649SOL    HW310643   0.206   0.186   4.538 -0.9658  1.4046  1.7649
 2649SOL    MW410644   0.147   0.124   4.554 -0.4246  0.4027  0.0482
 2650SOL     OW10645   1.002   0.946   4.483  0.4617 -0.3397  0.0396
 2650SOL    HW210646   0.926   0.914   4.532 -0.2481  1.6244  0.2648
 2650SOL    HW310647   0.987   0.917   4.394  0.2615 -1.3726  0.4080
 2650SOL    MW410648   0.990   0.938   4.478  0.3417 -0.2168  0.1183
 2651SOL     OW10649   0.405   1.020   4.679  0.6302  0.2501  0.2259
 2651SOL    HW210650   0.323   1.063   4.656  0.5441 -0.5372 -0.9547
 2651SOL    HW310651   0.410   0.945   4.620  2.4446  0.5746 -0.0390
 2651SOL    MW410652   0.395   1.016   4.669  0.8582  0.1891  0.0353
 2652SOL     OW10653   0.662   1.117   4.688  0.3869  0.0300  0.3643
 2652SOL    HW210654   0.572   1.086   4.681  0.1317  0.9498 -0.4987
 2652SOL    HW310655   0.665   1.164   4.772 -0.2912  1.1261 -0.2148
 2652SOL    MW410656   0.651   1.119   4.699  0.2638  0.2960  0.1740
 2653SOL     OW10657   1.024   1.903   4.759 -0.2547 -0.0790  0.4450
 2653SOL    HW210658   1.114   1.916   4.728 -1.1273  0.2626 -2.0852
 2653SOL    HW310659   1.033   1.842   4.832  1.8137 -2.0708 -1.3699
 2653SOL    MW410660   1.037   1.897   4.765 -0.0968 -0.2968 -0.1278
 2654SOL     OW10661   4.357   1.409   4.862  0.4640 -0.4377 -0.2086
 2654SOL    HW210662   4.342   1.426   4.955  1.6835 -0.0605 -0.0823
 2654SOL    HW310663   4.281   1.448   4.819  0.0504 -0.3371  0.5897
 2654SOL    MW410664   4.345   1.416   4.869  0.5703 -0.3746 -0.0868
 2655SOL     OW10665   4.475   1.775   4.582 -0.7360  0.1122 -0.3880
 2655SOL    HW210666   4.380   1.783   4.587 -0.6699 -0.2089  1.6852
 2655SOL    HW310667   4.493   1.685   4.611  0.4451  1.3381  2.8434
 2655SOL    MW410668   4.465   1.764   4.586 -0.5713  0.2315  0.3114
 2656SOL     OW10669   0.486   1.680   4.268  0.4589  0.1652  0.2797
 2656SOL    HW210670   0.400   1.645   4.242 -0.0909  0.6622  1.4010
 2656SOL    HW310671   0.488   1.670   4.363  2.0609 -0.7535  0.1535
 2656SOL    MW410672   0.475   1.674   4.277  0.5977  0.1097  0.4115
 2657SOL     OW10673   4.294   2.107   4.548 -0.1754 -0.1504  0.3579
 2657SOL    HW210674   4.371   2.126   4.602 -1.6212  0.7394  2.1309
 2657SOL    HW310675   4.246   2.040   4.597 -1.7796  1.0643  0.4499
 2657SOL    MW410676   4.298   2.100   4.561 -0.5774  0.1273  0.6037
 2658SOL     OW10677   0.349   2.449   4.548  0.0411 -0.4691 -0.5179
 2658SOL    HW210678   0.256   2.472   4.551 -0.0106 -0.6931 -0.4288
 2658SOL    HW310679   0.378   2.478   4.461  0.2827  1.1301  0.0793
 2658SOL    MW410680   0.340   2.456   4.537  0.0661 -0.2878 -0.4272
 2659SOL     OW10681   0.528   2.050   4.505 -0.0333  0.1208 -0.0546
 2659SOL    HW210682   0.485   1.971   4.540 -0.4505 -0.2992 -1.4847
 2659SOL    HW310683   0.580   2.083   4.578 -0.7739 -0.8256  0.9187
 2659SOL    MW410684   0.529   2.044   4.519 -0.1861 -0.0594 -0.1154
 2660SOL     OW10685   1.311   4.567   4.636  0.1147  0.4518  0.4663
 2660SOL    HW210686   1.399   4.590   4.608 -0.4046  1.6221 -0.2791
 2660SOL    HW310687   1.313   4.576   4.732  0.7156  0.8303  0.4212
 2660SOL    MW410688   1.323   4.571   4.645  0.1256  0.6561  0.3619
 2661SOL     OW10689   0.052   2.198   4.626 -0.4620 -0.0030  0.4164
 2661SOL    HW210690   0.044   2.293   4.620 -0.3933 -0.0030  0.3108
 2661SOL    HW310691   0.124   2.176   4.567 -0.8206 -0.1781  0.0434
 2661SOL    MW410692   0.061   2.207   4.618 -0.5003 -0.0260  0.3538
 2662SOL     OW10693   0.394   3.431   4.548  0.4066 -0.2817  0.2144
 2662SOL    HW210694   0.328   3.497   4.569  1.1541  0.5563 -0.0220
 2662SOL    HW310695   0.348   3.348   4.552 -1.0319  0.4054 -1.3917
 2662SOL    MW410696   0.380   3.429   4.551  0.3154 -0.0806 -0.0291
 2663SOL     OW10697   0.399   3.115   4.517  0.2926 -0.2314  0.0582
 2663SOL    HW210698   0.345   3.042   4.548 -0.2553  0.8905  1.8241
 2663SOL    HW310699   0.483   3.102   4.560  0.4841 -0.3119 -0.3368
 2663SOL    MW410700   0.403   3.104   4.527  0.2456 -0.0939  0.2389
 2664SOL     OW10701   0.042   4.322   4.629 -0.1385  0.5272  0.3882
 2664SOL    HW210702   0.108   4.380   4.590 -1.5204  1.6218 -0.3274
 2664SOL    HW310703  -0.009   4.379   4.687 -0.6620 -0.2663  0.7086
 2664SOL    MW410704   0.044   4.337   4.632 -0.3899  0.5665  0.3357
 2665SOL     OW10705   0.024   0.741   4.539  0.4149 -0.2385  0.2256
 2665SOL    HW210706   0.026   0.781   4.452  2.2567 -0.6039  0.0795
 2665SOL    HW310707  -0.053   0.685   4.538  0.5130 -0.3667 -1.2387
 2665SOL    MW410708   0.014   0.739   4.527  0.6708 -0.3036  0.0134
 2666SOL     OW10709   3.954   0.838   4.572  0.1480  0.0722 -0.2372
 2666SOL    HW210710   4.011   0.829   4.495 -1.2204  0.8694 -1.3823
 2666SOL    HW310711   3.962   0.931   4.596  1.0172 -0.3009  0.9552
 2666SOL    MW410712   3.962   0.849   4.565  0.0823  0.1282 -0.2313
 2667SOL     OW10713   0.473   4.065   4.525 -0.1824  0.0491  0.3193
 2667SOL    HW210714   0.491   4.152   4.561  0.8350 -0.3888  0.8838
 2667SOL    HW310715   0.398   4.033   4.575  0.2782  0.0615  1.0234
 2667SOL    MW410716   0.466   4.072   4.536  0.0126 -0.0072  0.4869
 2668SOL     OW10717   3.821   4.171   4.632 -0.3799  0.1332  0.3783
 2668SOL    HW210718   3.762   4.111   4.587 -0.3399 -1.0387  1.8611
 2668SOL    HW310719   3.907   4.129   4.625 -0.2452  0.3291  0.8951
 2668SOL    MW410720   3.825   4.157   4.625 -0.3567  0.0043  0.6418
 2669SOL     OW10721   1.201   0.145   4.538  0.1984  0.4354  0.0137
 2669SOL    HW210722   1.237   0.068   4.581 -0.4385 -0.1005 -0.4110
 2669SOL    HW310723   1.114   0.118   4.509  0.4794  0.9034 -1.2913
 2669SOL    MW410724   1.195   0.131   4.540  0.1515  0.4265 -0.2146
 2670SOL     OW10725   0.763   0.852   4.602  0.1981 -0.2035  0.2701
 2670SOL    HW210726   0.746   0.938   4.641  1.3645  0.3361 -0.3824
 2670SOL    HW310727   0.676   0.819   4.578 -0.2845  0.6421  0.8142
 2670SOL    MW410728   0.749   0.859   4.604  0.2884 -0.0207  0.2565
 2671SOL     OW10729   1.932   0.766   4.617  0.1913  0.2766 -0.0738
 2671SOL    HW210730   1.980   0.770   4.700 -1.7194 -1.2025  1.1490
 2671SOL    HW310731   1.956   0.681   4.580  1.7640  1.3243 -1.5202
 2671SOL    MW410732   1.942   0.755   4.623  0.1469  0.2197 -0.1030
 2672SOL     OW10733   4.261   0.286   4.694 -0.1418  0.2738 -0.0185
 2672SOL    HW210734   4.214   0.230   4.632  0.9651 -0.7667  0.0667
 2672SOL    HW310735   4.193   0.317   4.754 -0.6077 -1.9112  0.6191
 2672SOL    MW410736   4.246   0.283   4.694 -0.0572 -0.1518  0.0758
 2673SOL     OW10737   2.150   0.780   4.821  0.1342 -0.3764 -0.4714
 2673SOL    HW210738   2.115   0.792   4.909  0.1410  1.9219 -0.7475
 2673SOL    HW310739   2.244   0.768   4.834  0.3282  1.2852 -0.2266
 2673SOL    MW410740   2.158   0.780   4.834  0.1607  0.1460 -0.4754
 2674SOL     OW10741   0.454   0.803   4.511  0.2041  0.3472  0.4644
 2674SOL    HW210742   0.392   0.731   4.524 -0.5578  1.0650  0.8547
 2674SOL    HW310743   0.448   0.822   4.417 -1.3636  1.4610  0.7630
 2674SOL    MW410744   0.445   0.796   4.500 -0.1033  0.5888  0.5555
 2675SOL     OW10745   2.069   1.261   4.566 -0.0111  0.0989 -0.0221
 2675SOL    HW210746   2.021   1.319   4.626  2.2544  1.2176  0.7642
 2675SOL    HW310747   2.054   1.300   4.480 -0.4525  0.4745  0.2153
 2675SOL    MW410748   2.060   1.274   4.563  0.2298  0.2960  0.1130
 2676SOL     OW10749   0.581   1.925   4.879  0.2682  0.1085  0.0849
 2676SOL    HW210750   0.646   1.990   4.852  1.2944 -0.3903  1.3322
 2676SOL    HW310751   0.530   1.970   4.946 -1.0310  0.6779 -1.2552
 2676SOL    MW410752   0.583   1.940   4.884  0.2322  0.1178  0.0730
 2677SOL     OW10753   1.287   0.869   4.534  0.1212  0.2519 -0.5031
 2677SOL    HW210754   1.199   0.908   4.533 -0.3999 -0.9071  0.0031
 2677SOL    HW310755   1.314   0.869   4.442 -0.8884 -0.4514 -0.8035
 2677SOL    MW410756   1.279   0.874   4.521 -0.0807  0.0063 -0.4764
 2678SOL     OW10757   1.079   2.271   4.505  0.1591 -0.0835 -0.0585
 2678SOL    HW210758   1.171   2.296   4.516 -0.3010  1.4784  0.3949
 2678SOL    HW310759   1.031   2.354   4.509 -1.3848 -0.9988  0.9830
 2678SOL    MW410760   1.085   2.286   4.507 -0.1054  0.0014  0.1388
 2679SOL     OW10761   0.939   2.166   4.748 -0.6895 -0.0408 -0.3219
 2679SOL    HW210762   0.986   2.205   4.674  1.8922 -0.2607  1.1309
 2679SOL    HW310763   0.969   2.075   4.750 -0.5134  0.0434  1.1608
 2679SOL    MW410764   0.949   2.159   4.739 -0.3257 -0.0589  0.0658
 2680SOL     OW10765   0.678   2.152   4.735  0.2067  0.0698  0.2355
 2680SOL    HW210766   0.658   2.245   4.747  0.4138  0.3087 -1.1747
 2680SOL    HW310767   0.773   2.149   4.726  0.1971 -0.2759  0.2417
 2680SOL    MW410768   0.688   2.164   4.735  0.2327  0.0558  0.0505
 2681SOL     OW10769   0.296   2.192   4.490  0.2030  0.3213  0.1617
 2681SOL    HW210770   0.314   2.286   4.494 -0.3569  0.3973  1.1117
 2681SOL    HW310771   0.380   2.151   4.510  0.5729  0.6044 -0.7606
 2681SOL    MW410772   0.309   2.199   4.493  0.1779  0.3688  0.1655
 2682SOL     OW10773   0.967   2.891   4.431 -0.3784 -0.3502 -0.0319
 2682SOL    HW210774   1.036   2.863   4.491  0.1539 -1.6164 -1.2017
 2682SOL    HW310775   1.007   2.884   4.344 -1.9002 -0.8616 -0.7156
 2682SOL    MW410776   0.982   2.887   4.427 -0.5089 -0.5848 -0.2766
 2683SOL     OW10777   0.576   2.415   4.723 -0.1901 -0.3271  0.3041
 2683SOL    HW210778   0.499   2.434   4.669  0.7033  0.8820 -0.5523
 2683SOL    HW310779   0.570   2.478   4.795  1.3893  1.5594 -1.1669
 2683SOL    MW410780   0.565   2.426   4.726  0.1361  0.0813 -0.0033
 2684SOL     OW10781   1.402   2.952   4.536  0.0890 -0.1028 -0.6116
 2684SOL    HW210782   1.333   2.886   4.538  1.0730 -1.1221  0.3635
 2684SOL    HW310783   1.355   3.035   4.540 -1.1313 -0.7558 -1.1295
 2684SOL    MW410784   1.387   2.954   4.537  0.0578 -0.3233 -0.5512
 2685SOL     OW10785   0.779   3.752   4.510 -0.1016 -0.2741 -0.2206
 2685SOL    HW210786   0.712   3.691   4.543 -0.3561 -0.1631 -0.5244
 2685SOL    HW310787   0.860   3.722   4.550 -0.6298  0.7589  1.7275
 2685SOL    MW410788   0.781   3.740   4.520 -0.2049 -0.1233 -0.0033
 2686SOL     OW10789   1.701   4.352   4.551  0.3097 -0.7795  0.4518
 2686SOL    HW210790   1.680   4.373   4.460  0.0152  0.0789  0.7116
 2686SOL    HW310791   1.664   4.265   4.564 -0.1441 -0.6742 -0.0871
 2686SOL    MW410792   1.693   4.343   4.540  0.2110 -0.6523  0.4144
 2687SOL     OW10793   0.000   2.476   4.566  0.1779 -0.4293 -0.1096
 2687SOL    HW210794  -0.070   2.534   4.596 -1.0308 -2.0020  0.1652
 2687SOL    HW310795  -0.009   2.475   4.471 -0.2145 -0.6566 -0.0732
 2687SOL    MW410796  -0.010   2.483   4.557 -0.0333 -0.6671 -0.0687
 2688SOL     OW10797   0.042   4.049   4.582  0.0678 -0.5174  0.5541
 2688SOL    HW210798   0.119   4.014   4.627 -0.0553 -0.7683  0.5736
 2688SOL    HW310799   0.039   4.141   4.607  1.3726 -0.0719 -0.8590
 2688SOL    MW410800   0.051   4.056   4.592  0.2237 -0.4916  0.3705
 2689SOL     OW10801   0.932   4.278   4.569 -0.2532 -0.0220 -0.6108
 2689SOL    HW210802   0.881   4.359   4.559 -0.9981 -0.3369  0.5914
 2689SOL    HW310803   0.867   4.211   4.588  0.5441 -0.5806  0.1469
 2689SOL    MW410804   0.917   4.280   4.570 -0.2463 -0.1373 -0.3519
 2690SOL     OW10805   4.027   0.374   4.828 -0.2325  0.5214  0.4860
 2690SOL    HW210806   3.962   0.314   4.791  0.9722 -1.1203  0.9602
 2690SOL    HW310807   4.012   0.456   4.781  0.0385 -0.9679 -2.3826
 2690SOL    MW410808   4.016   0.377   4.817 -0.0372  0.1083  0.1698
 2691SOL     OW10809   0.261   4.355   4.318  0.6644 -0.1637  0.2878
 2691SOL    HW210810   0.201   4.339   4.245  2.5007  0.4207 -1.3978
 2691SOL    HW310811   0.341   4.309   4.293  1.6642  0.9107  1.4697
 2691SOL    MW410812   0.263   4.347   4.305  1.0386  0.0548  0.2208
 2692SOL     OW10813   4.473   0.120   4.770  0.2446 -0.2398  0.0478
 2692SOL    HW210814   4.410   0.180   4.729  0.8272 -0.2939 -0.9373
 2692SOL    HW310815   4.490   0.158   4.856  1.8730  1.9220 -1.1806
 2692SOL    MW410816   4.467   0.133   4.776  0.5360  0.0383 -0.2446
 2693SOL     OW10817   1.139   0.467   4.504  0.2589  0.0069 -0.1903
 2693SOL    HW210818   1.139   0.383   4.549  0.0657  1.3218  2.3153
 2693SOL    HW310819   1.047   0.488   4.491  0.2889  0.4041  0.2529
 2693SOL    MW410820   1.127   0.459   4.508  0.2372  0.2328  0.1984
 2694SOL     OW10821   0.252   4.495   4.543  0.0971 -0.4018 -0.0364
 2694SOL    HW210822   0.196   4.570   4.525 -0.1203 -0.3392  0.8968
 2694SOL    HW310823   0.246   4.441   4.464  1.3286  1.2256 -1.2702
 2694SOL    MW410824   0.244   4.498   4.530  0.2309 -0.1788 -0.0763
 2695SOL     OW10825   0.894   0.309   4.660  0.3873  0.5271  0.0057
 2695SOL    HW210826   0.927   0.378   4.716 -0.0001  1.3745 -0.8021
 2695SOL    HW310827   0.861   0.354   4.582 -0.4104 -0.5019 -0.2701
 2695SOL    MW410828   0.894   0.324   4.657  0.2308  0.5032 -0.1378
 2696SOL     OW10829   1.250   1.368   4.565 -0.1656 -0.4230  0.1644
 2696SOL    HW210830   1.329   1.314   4.561 -1.1308 -1.9596  1.1521
 2696SOL    HW310831   1.184   1.317   4.517 -0.7511  0.4670  0.0157
 2696SOL    MW410832   1.251   1.354   4.558 -0.3703 -0.5084  0.2751
 2697SOL     OW10833   1.701   0.813   4.492  0.0998 -0.0366  0.3475
 2697SOL    HW210834   1.776   0.793   4.548  0.3877 -0.3825 -0.1505
 2697SOL    HW310835   1.740   0.846   4.411 -0.3217  0.7611  0.4620
 2697SOL    MW410836   1.716   0.815   4.489  0.0821  0.0231  0.2971
 2698SOL     OW10837   0.152   1.947   4.712 -0.1768  0.1909  0.0445
 2698SOL    HW210838   0.087   1.891   4.671  0.1668  0.2614 -0.6068
 2698SOL    HW310839   0.112   2.034   4.714  0.1042  0.3438 -0.8471
 2698SOL    MW410840   0.138   1.951   4.707 -0.0944  0.2204 -0.1588
 2699SOL     OW10841   0.402   1.851   4.644 -0.0580  0.2126 -0.4993
 2699SOL    HW210842   0.449   1.879   4.723 -0.0196  0.6157 -0.6639
 2699SOL    HW310843   0.315   1.889   4.653 -0.8135 -1.6808  0.4742
 2699SOL    MW410844   0.397   1.859   4.656 -0.1526  0.0160 -0.3929
 2700SOL     OW10845   0.868   0.555   4.501  0.3450 -0.1139  0.7064
 2700SOL    HW210846   0.801   0.550   4.433  1.3369 -0.4521 -0.2394
 2700SOL    HW310847   0.846   0.634   4.550 -0.0318  0.4480 -0.3560
 2700SOL    MW410848   0.856   0.564   4.499  0.4262 -0.0844  0.4411
 2701SOL     OW10849   1.513   1.259   4.522 -0.3558  0.2818 -0.0547
 2701SOL    HW210850   1.519   1.166   4.542  0.2920  0.0538 -1.3004
 2701SOL    HW310851   1.561   1.302   4.593  1.5915 -0.5074 -0.8532
 2701SOL    MW410852   1.520   1.252   4.534 -0.0134  0.1476 -0.3247
 2702SOL     OW10853   0.742   1.685   4.895 -0.5498  0.7558  0.0120
 2702SOL    HW210854   0.832   1.692   4.927 -0.5507 -0.9535  0.4637
 2702SOL    HW310855   0.705   1.772   4.910  0.4923  0.9817  1.5068
 2702SOL    MW410856   0.749   1.698   4.901 -0.4124  0.5600  0.2689
 2703SOL     OW10857   0.902   2.469   4.605  0.2081 -0.0980 -0.0646
 2703SOL    HW210858   0.880   2.540   4.545 -0.0637 -1.9977 -2.2678
 2703SOL    HW310859   0.818   2.427   4.625  0.4985 -0.5477  0.2403
 2703SOL    MW410860   0.888   2.472   4.600  0.2105 -0.4079 -0.3157
 2704SOL     OW10861   1.645   3.044   4.648  0.1816  0.0942  0.2018
 2704SOL    HW210862   1.676   3.109   4.584 -0.1538 -1.5124 -1.6316
 2704SOL    HW310863   1.559   3.018   4.617  0.9688 -2.4145 -0.0487
 2704SOL    MW410864   1.638   3.049   4.635  0.2413 -0.4492 -0.0739
 2705SOL     OW10865   2.108   2.840   4.496 -0.1624 -0.0603 -0.2356
 2705SOL    HW210866   2.020   2.863   4.525  0.4408  0.0643  1.5646
 2705SOL    HW310867   2.105   2.745   4.482  0.1302 -0.5474  2.5943
 2705SOL    MW410868   2.096   2.830   4.498 -0.0446 -0.1082  0.3757
 2706SOL     OW10869   1.501   3.632   4.495  0.2532  0.0227 -0.1064
 2706SOL    HW210870   1.435   3.689   4.534  0.7511 -0.6241  1.7527
 2706SOL    HW310871   1.572   3.630   4.559  1.6829 -0.0382 -1.6509
 2706SOL    MW410872   1.502   3.639   4.508  0.5075 -0.0708 -0.0639
 2707SOL     OW10873   0.275   2.887   4.561  0.2812  0.0487 -0.3595
 2707SOL    HW210874   0.246   2.861   4.473  0.0901 -1.2723  0.0940
 2707SOL    HW310875   0.361   2.847   4.571  1.9141  3.1301 -1.3065
 2707SOL    MW410876   0.283   2.878   4.550  0.4714  0.2809 -0.4244
 2708SOL     OW10877   0.259   3.912   4.681  0.2099  0.2358 -0.2617
 2708SOL    HW210878   0.268   3.904   4.776 -1.7312  0.0154 -0.0844
 2708SOL    HW310879   0.235   3.825   4.651 -0.0069  0.5001 -0.8679
 2708SOL    MW410880   0.257   3.900   4.689 -0.0748  0.2415 -0.3185
 2709SOL     OW10881   0.975   3.400   4.614 -0.1681 -0.2072 -0.4829
 2709SOL    HW210882   0.882   3.423   4.607 -0.2046 -0.2917 -0.2645
 2709SOL    HW310883   0.978   3.306   4.599 -0.3689 -0.5791  1.6356
 2709SOL    MW410884   0.963   3.391   4.611 -0.1994 -0.2675 -0.1750
 2710SOL     OW10885   0.464   3.227   4.288 -0.3439 -0.3742  0.2398
 2710SOL    HW210886   0.438   3.200   4.376  0.5770 -0.6371  0.4321
 2710SOL    HW310887   0.437   3.319   4.282 -0.6553 -0.4368  0.6912
 2710SOL    MW410888   0.457   3.236   4.298 -0.2635 -0.4172  0.3242
 2711SOL     OW10889   1.766   3.377   4.745 -0.1619  0.6786 -0.1422
 2711SOL    HW210890   1.835   3.363   4.681 -0.8793  0.4731 -0.8840
 2711SOL    HW310891   1.787   3.318   4.818  0.9698  1.3292  0.0731
 2711SOL    MW410892   1.778   3.368   4.746 -0.1073  0.7372 -0.2117
 2712SOL     OW10893   0.933   3.151   4.502 -0.1231 -0.0571  0.1068
 2712SOL    HW210894   0.925   3.192   4.416 -0.8065  0.1557  0.2713
 2712SOL    HW310895   0.931   3.057   4.484  0.8757 -0.0251 -0.2156
 2712SOL    MW410896   0.932   3.144   4.489 -0.0815 -0.0250  0.0858
 2713SOL     OW10897   4.136   4.527   4.555  0.4307 -0.0055  0.5660
 2713SOL    HW210898   4.135   4.612   4.511  0.1039  0.4503  1.4470
 2713SOL    HW310899   4.047   4.493   4.543  0.7555 -0.5535 -0.3985
 2713SOL    MW410900   4.124   4.534   4.548  0.4301 -0.0172  0.5550
 2714SOL     OW10901   0.672   3.914   4.151  0.4793 -0.1556  0.0768
 2714SOL    HW210902   0.607   3.975   4.186  0.7489 -0.4675  1.1524
 2714SOL    HW310903   0.754   3.939   4.194  1.0633  0.2089 -1.2453
 2714SOL    MW410904   0.674   3.925   4.162  0.5919 -0.1485  0.0443
 2715SOL     OW10905   1.226   4.311   4.498  0.7180 -0.0072  0.4309
 2715SOL    HW210906   1.260   4.385   4.548  0.8409 -1.7790  3.0452
 2715SOL    HW310907   1.133   4.307   4.521  0.6952 -0.6276  0.2492
 2715SOL    MW410908   1.218   4.320   4.508  0.7311 -0.3233  0.7524
 2716SOL     OW10909   2.258   0.366   4.606  0.1061 -0.5970 -0.0929
 2716SOL    HW210910   2.318   0.429   4.567 -0.5860  0.2901  0.2549
 2716SOL    HW310911   2.293   0.350   4.693 -0.2174  0.0076  0.1516
 2716SOL    MW410912   2.270   0.372   4.612 -0.0277 -0.4002 -0.0153
 2717SOL     OW10913   1.799   0.104   4.553 -0.1659 -0.2489 -0.0790
 2717SOL    HW210914   1.864   0.054   4.603 -0.8695 -1.6662 -0.5487
 2717SOL    HW310915   1.775   0.176   4.611  2.3869  0.7622 -0.2083
 2717SOL    MW410916   1.804   0.107   4.567  0.0780 -0.3025 -0.1574
 2718SOL     OW10917   0.717   4.534   4.519  0.3494 -0.0237 -0.4000
 2718SOL    HW210918   0.721   4.497   4.431 -0.0128  1.8218 -1.2053
 2718SOL    HW310919   0.644   4.595   4.517  1.3537  1.2522  0.7057
 2718SOL    MW410920   0.708   4.537   4.507  0.4342  0.3881 -0.3605
 2719SOL     OW10921   2.497   1.108   4.843 -0.1510  0.5617  0.0714
 2719SOL    HW210922   2.576   1.111   4.790 -0.0135 -0.3913  0.2135
 2719SOL    HW310923   2.425   1.109   4.779  0.0190 -1.0113 -0.1658
 2719SOL    MW410924   2.498   1.109   4.827 -0.1104  0.2284  0.0587
 2720SOL     OW10925   1.999   0.496   4.531 -0.0208 -0.0297 -0.2325
 2720SOL    HW210926   1.930   0.443   4.570 -0.9079  0.9825 -0.4315
 2720SOL    HW310927   2.080   0.461   4.569 -0.6082 -1.3819 -0.1913
 2720SOL    MW410928   2.001   0.484   4.541 -0.2155 -0.0745 -0.2532
 2721SOL     OW10929   1.312   0.631   4.663 -0.3170  0.3882 -0.2865
 2721SOL    HW210930   1.238   0.585   4.624  1.6229 -1.3306 -2.0281
 2721SOL    HW310931   1.307   0.720   4.626 -0.3507 -0.3041 -1.9743
 2721SOL    MW410932   1.302   0.637   4.653 -0.0654  0.0701 -0.7386
 2722SOL     OW10933   2.410   0.824   4.907 -0.4198 -0.1893  0.7828
 2722SOL    HW210934   2.428   0.918   4.902 -0.5220 -0.2662 -1.0898
 2722SOL    HW310935   2.453   0.787   4.830 -0.3429 -1.6947  1.5292
 2722SOL    MW410936   2.418   0.831   4.896 -0.4230 -0.3980  0.6342
 2723SOL     OW10937   1.576   0.581   4.559  0.0175  0.0783 -0.5683
 2723SOL    HW210938   1.612   0.670   4.551  0.2980  0.1074  0.8126
 2723SOL    HW310939   1.487   0.594   4.592  0.5780 -0.1861  1.1285
 2723SOL    MW410940   1.569   0.594   4.562  0.1285  0.0473 -0.1621
 2724SOL     OW10941   2.484   0.334   4.841 -0.0795  0.1224  0.2951
 2724SOL    HW210942   2.479   0.239   4.856  2.6692  0.0029  0.6611
 2724SOL    HW310943   2.497   0.371   4.928  0.3183  0.7108 -0.0128
 2724SOL    MW410944   2.485   0.326   4.855  0.3355  0.1843  0.3033
 2725SOL     OW10945   1.526   0.995   4.621 -0.1952 -0.6461  0.0655
 2725SOL    HW210946   1.590   0.946   4.570 -0.5474  0.0677 -1.1015
 2725SOL    HW310947   1.444   0.947   4.611 -0.5663  0.2128 -1.1733
 2725SOL    MW410948   1.524   0.982   4.613 -0.2906 -0.4386 -0.2518
 2726SOL     OW10949   0.955   1.697   4.569  0.4090  0.6441 -0.4042
 2726SOL    HW210950   0.958   1.781   4.615  1.1742  0.1443  0.4680
 2726SOL    HW310951   1.045   1.683   4.539  0.0676  0.6222 -1.4368
 2726SOL    MW410952   0.967   1.706   4.571  0.4649  0.5752 -0.4253
 2727SOL     OW10953   1.272   1.908   4.635 -0.5503  0.4251  0.1653
 2727SOL    HW210954   1.339   1.964   4.595 -0.1754  0.7918  1.2735
 2727SOL    HW310955   1.248   1.847   4.566 -0.0793  1.1823 -0.6865
 2727SOL    MW410956   1.278   1.907   4.621 -0.4387  0.5733  0.1993
 2728SOL     OW10957   1.718   2.594   4.546 -0.9760  0.3895 -0.5332
 2728SOL    HW210958   1.779   2.520   4.543 -0.5182  0.7613 -0.5798
 2728SOL    HW310959   1.772   2.667   4.575 -1.2728  0.8627 -1.1695
 2728SOL    MW410960   1.733   2.594   4.550 -0.9547  0.5012 -0.6232
 2729SOL     OW10961   0.829   2.652   4.424  0.4715  0.1180 -0.1150
 2729SOL    HW210962   0.885   2.729   4.426  0.9071 -0.0637 -2.6722
 2729SOL    HW310963   0.860   2.602   4.348 -1.9290 -0.9217 -0.4680
 2729SOL    MW410964   0.840   2.655   4.414  0.2123 -0.0432 -0.4997
 2730SOL     OW10965   1.277   3.194   4.536  0.8787 -0.4753 -0.3089
 2730SOL    HW210966   1.192   3.232   4.557  0.9158  0.3430 -1.5385
 2730SOL    HW310967   1.340   3.263   4.558  1.0482 -0.2744 -1.3928
 2730SOL    MW410968   1.274   3.208   4.541  0.9059 -0.3409 -0.6142
 2731SOL     OW10969   1.266   2.547   4.728 -0.1783  0.7479  0.2263
 2731SOL    HW210970   1.297   2.464   4.691  0.9811  0.9823  0.6476
 2731SOL    HW310971   1.204   2.521   4.796 -1.2623  0.2849 -0.9092
 2731SOL    MW410972   1.262   2.533   4.732 -0.1683  0.7179  0.1326
 2732SOL     OW10973   1.728   3.239   4.458 -0.3807 -0.4151  0.2293
 2732SOL    HW210974   1.719   3.238   4.363 -1.2515 -0.5672  0.3067
 2732SOL    HW310975   1.644   3.273   4.489  1.1904  3.1156  0.8109
 2732SOL    MW410976   1.716   3.243   4.450 -0.2882  0.0308  0.3161
 2733SOL     OW10977   1.503   3.378   4.589 -0.0502 -0.1936  0.2308
 2733SOL    HW210978   1.556   3.370   4.668  1.0864 -0.0451 -0.5013
 2733SOL    HW310979   1.487   3.472   4.580 -0.2333 -0.2162  0.3137
 2733SOL    MW410980   1.508   3.389   4.598  0.0756 -0.1769  0.1450
 2734SOL     OW10981   1.103   3.650   4.557 -0.1623 -0.5755 -0.1632
 2734SOL    HW210982   1.110   3.644   4.462 -2.3539 -0.9272 -0.3350
 2734SOL    HW310983   1.084   3.561   4.586  0.8202 -0.5323  0.6526
 2734SOL    MW410984   1.101   3.637   4.548 -0.3219 -0.6163 -0.0787
 2735SOL     OW10985   1.315   3.782   4.668 -0.6348 -0.2739  0.4126
 2735SOL    HW210986   1.298   3.871   4.638 -0.0492 -0.6681 -1.1227
 2735SOL    HW310987   1.241   3.731   4.635 -0.2853 -0.5994  0.1266
 2735SOL    MW410988   1.303   3.787   4.660 -0.5115 -0.3686  0.1726
 2736SOL     OW10989   1.955   3.645   4.493 -0.2205 -0.2022 -0.0621
 2736SOL    HW210990   2.013   3.708   4.536  0.2549 -0.9349  0.3809
 2736SOL    HW310991   1.983   3.647   4.401  0.2316 -0.2376  0.0701
 2736SOL    MW410992   1.966   3.653   4.487 -0.0981 -0.3037  0.0134
 2737SOL     OW10993   2.468   3.159   4.483 -0.2595 -0.3943  0.3725
 2737SOL    HW210994   2.544   3.217   4.488 -0.0998 -0.6053  0.4052
 2737SOL    HW310995   2.393   3.217   4.491 -0.0810 -0.3626  1.9984
 2737SOL    MW410996   2.468   3.174   4.485 -0.2151 -0.4177  0.5913
 2738SOL     OW10997   1.991   4.372   4.514  0.1233 -0.3158 -0.1244
 2738SOL    HW210998   2.004   4.455   4.561  0.2014  0.6074 -1.7225
 2738SOL    HW310999   1.902   4.346   4.535 -0.0842  0.4561 -0.0211
 2738SOL    MW411000   1.981   4.380   4.523  0.1063 -0.0925 -0.3209
 2739SOL     OW11001   0.754   4.047   4.572  0.1510  0.2504 -0.1338
 2739SOL    HW211002   0.658   4.051   4.568  0.0432  0.8184  1.9870
 2739SOL    HW311003   0.775   3.954   4.565 -0.5566  0.1313 -0.6773
 2739SOL    MW411004   0.744   4.036   4.571  0.0433  0.3095  0.0739
 2740SOL     OW11005   2.744   3.785   4.616  0.1630 -0.2839  0.0839
 2740SOL    HW211006   2.677   3.850   4.592 -0.1102 -0.6953 -0.2680
 2740SOL    HW311007   2.695   3.716   4.661  0.1472 -1.2229 -1.3427
 2740SOL    MW411008   2.729   3.785   4.619  0.1249 -0.4623 -0.1512
 2741SOL     OW11009   2.252   0.106   4.498 -0.3276 -0.3338 -0.6227
 2741SOL    HW211010   2.255   0.196   4.529 -0.4381 -0.7327  0.5879
 2741SOL    HW311011   2.249   0.113   4.403 -0.8092  0.9466 -0.5219
 2741SOL    MW411012   2.252   0.119   4.490 -0.4055 -0.2175 -0.4497
 2742SOL     OW11013   1.572   4.601   4.573  0.2897  0.3826  0.0412
 2742SOL    HW211014   1.647   4.660   4.564  0.8286 -0.2862  0.0828
 2742SOL    HW311015   1.611   4.514   4.578 -0.5581 -0.0772 -1.1479
 2742SOL    MW411016   1.587   4.597   4.573  0.2488  0.2337 -0.1101
 2743SOL     OW11017   2.048   4.609   4.632 -0.4645 -0.1296  0.4117
 2743SOL    HW211018   2.119   4.664   4.598 -0.6774  0.9099  1.6129
 2743SOL    HW311019   2.084   4.572   4.712 -1.3232  0.5017  1.0901
 2743SOL    MW411020   2.062   4.612   4.638 -0.6058  0.0911  0.6595
 2744SOL     OW11021   2.724   4.244   4.590 -0.2354  0.0213 -0.2992
 2744SOL    HW211022   2.790   4.304   4.556  0.3074  0.2830  1.1755
 2744SOL    HW311023   2.647   4.300   4.606 -0.0061  0.1876  0.2666
 2744SOL    MW411024   2.723   4.259   4.588 -0.1333  0.0782 -0.0296
 2745SOL     OW11025   2.431   0.065   4.873  0.0886  0.0180 -0.2893
 2745SOL    HW211026   2.461   0.029   4.789 -0.9834 -0.4386 -0.4855
 2745SOL    HW311027   2.341   0.034   4.881  0.8235 -1.6197  1.9942
 2745SOL    MW411028   2.423   0.056   4.863  0.0441 -0.2584 -0.0138
 2746SOL     OW11029   1.768   0.370   4.657 -0.4129 -0.0964 -0.4537
 2746SOL    HW211030   1.706   0.433   4.621  0.2795  0.5458 -0.5549
 2746SOL    HW311031   1.779   0.396   4.748 -1.0816 -0.8495 -0.1516
 2746SOL    MW411032   1.761   0.382   4.664 -0.4097 -0.1110 -0.4268
 2747SOL     OW11033   2.248   1.655   4.530 -0.1212  0.2840 -0.3659
 2747SOL    HW211034   2.267   1.748   4.526  1.4427 -0.0111 -0.0258
 2747SOL    HW311035   2.152   1.650   4.529 -0.2175  1.8845 -0.2843
 2747SOL    MW411036   2.238   1.667   4.529  0.0725  0.4561 -0.3109
 2748SOL     OW11037   1.043   2.436   4.858  0.3943 -0.3284 -0.2762
 2748SOL    HW211038   1.014   2.345   4.863 -0.1906 -0.1741 -0.7733
 2748SOL    HW311039   1.015   2.465   4.771  1.4635  0.0251 -0.5055
 2748SOL    MW411040   1.036   2.428   4.847  0.4581 -0.2611 -0.3724
 2749SOL     OW11041   1.216   1.538   4.790  0.2258  0.1074  0.7831
 2749SOL    HW211042   1.215   1.461   4.733 -0.7594  0.5389  0.2148
 2749SOL    HW311043   1.293   1.587   4.763  0.3202 -0.1936  0.5009
 2749SOL    MW411044   1.226   1.534   4.779  0.1084  0.1247  0.6714
 2750SOL     OW11045   0.743   1.547   4.636  0.0860 -0.2000 -0.1047
 2750SOL    HW211046   0.727   1.579   4.724  0.3168 -1.9110  0.5857
 2750SOL    HW311047   0.819   1.596   4.605  1.2754 -1.0610  1.4347
 2750SOL    MW411048   0.751   1.557   4.643  0.2735 -0.5393  0.1898
 2751SOL     OW11049   1.238   1.649   4.492  0.4925  0.1565  0.3279
 2751SOL    HW211050   1.231   1.558   4.523  0.5061  0.0873  0.1294
 2751SOL    HW311051   1.273   1.641   4.403 -0.0555  0.3253  0.0953
 2751SOL    MW411052   1.242   1.636   4.484  0.4220  0.1695  0.2713
 2752SOL     OW11053   2.010   2.088   4.224  0.3156 -0.6634 -0.2191
 2752SOL    HW211054   2.093   2.052   4.192  0.8167  1.8499 -1.8174
 2752SOL    HW311055   1.943   2.041   4.175  0.8715 -0.9814 -0.6795
 2752SOL    MW411056   2.012   2.077   4.213  0.4549 -0.3738 -0.4907
 2753SOL     OW11057   1.348   2.295   4.539  0.1771  0.1387 -0.0173
 2753SOL    HW211058   1.408   2.357   4.498  1.0906 -1.5850 -1.3443
 2753SOL    HW311059   1.390   2.210   4.528 -1.3641 -0.8077  1.1969
 2753SOL    MW411060   1.361   2.292   4.532  0.0943 -0.2136 -0.0324
 2754SOL     OW11061   1.808   2.867   4.530 -0.0402  0.3365  0.1267
 2754SOL    HW211062   1.767   2.935   4.584 -2.1518 -1.3094  0.6643
 2754SOL    HW311063   1.751   2.861   4.453 -0.6610 -1.7321  0.7169
 2754SOL    MW411064   1.795   2.875   4.527 -0.4007 -0.1535  0.2751
 2755SOL     OW11065   2.808   2.849   4.690  0.8546  0.2183  0.1191
 2755SOL    HW211066   2.720   2.812   4.702  0.7315 -0.0885 -1.5222
 2755SOL    HW311067   2.836   2.873   4.778 -0.0651 -1.5186  0.9278
 2755SOL    MW411068   2.800   2.847   4.703  0.7169 -0.0513  0.0095
 2756SOL     OW11069   1.347   4.048   4.565  0.0138 -0.0860  0.1999
 2756SOL    HW211070   1.441   4.064   4.563 -0.0192  0.1526  0.5097
 2756SOL    HW311071   1.308   4.134   4.548 -0.1348 -0.5335 -1.8839
 2756SOL    MW411072   1.354   4.061   4.562 -0.0103 -0.1140 -0.0339
 2757SOL     OW11073   2.391   2.894   4.529  0.1137  0.3853  0.0150
 2757SOL    HW211074   2.412   2.986   4.513 -0.9468  0.4970 -0.8090
 2757SOL    HW311075   2.296   2.890   4.522  0.2981 -1.1256 -1.9225
 2757SOL    MW411076   2.381   2.906   4.526 -0.0019  0.2007 -0.3495
 2758SOL     OW11077   2.614   3.512   4.714  0.8903  0.4383  0.4532
 2758SOL    HW211078   2.636   3.433   4.666  0.0095  1.1558 -1.1559
 2758SOL    HW311079   2.591   3.482   4.802 -0.2502 -1.1673 -0.3815
 2758SOL    MW411080   2.614   3.498   4.720  0.6237  0.3211  0.1311
 2759SOL     OW11081   2.383   3.579   4.546 -0.0813 -0.1985 -0.3824
 2759SOL    HW211082   2.352   3.489   4.538  2.2766 -0.9348 -1.7760
 2759SOL    HW311083   2.469   3.572   4.585  0.1391  1.4565 -0.5145
 2759SOL    MW411084   2.390   3.566   4.550  0.2589 -0.0772 -0.5836
 2760SOL     OW11085   1.732   3.644   4.645 -0.2810 -0.4228 -0.2670
 2760SOL    HW211086   1.748   3.557   4.680  0.9316 -0.7498 -1.5766
 2760SOL    HW311087   1.811   3.666   4.596  0.6877  2.7048  2.4991
 2760SOL    MW411088   1.744   3.636   4.643  0.0067 -0.0534 -0.0749
 2761SOL     OW11089   2.899   3.543   4.472  0.0496 -0.4299 -0.5879
 2761SOL    HW211090   2.858   3.613   4.522 -0.9850 -0.5689 -1.2322
 2761SOL    HW311091   2.833   3.474   4.467  1.1701 -1.6165  0.3461
 2761SOL    MW411092   2.885   3.543   4.478  0.0610 -0.6049 -0.5498
 2762SOL     OW11093   1.605   3.902   4.718 -0.1686  0.1956  0.6248
 2762SOL    HW211094   1.514   3.875   4.728 -0.6266  1.2369 -0.5437
 2762SOL    HW311095   1.654   3.821   4.706 -0.9938 -0.3360  0.8737
 2762SOL    MW411096   1.600   3.888   4.718 -0.3380  0.2627  0.5031
 2763SOL     OW11097   2.180   3.775   4.598 -0.0620 -0.0853  0.0339
 2763SOL    HW211098   2.227   3.858   4.595 -0.6293  0.3329  2.1456
 2763SOL    HW311099   2.249   3.709   4.590  0.5631  0.5669 -0.0317
 2763SOL    MW411100   2.195   3.777   4.597 -0.0544  0.0560  0.3042
 2764SOL     OW11101   1.624   4.084   4.529 -0.2413 -0.2080 -0.4358
 2764SOL    HW211102   1.631   4.024   4.603 -0.1124  0.2941 -0.0403
 2764SOL    HW311103   1.687   4.050   4.465  0.8498  0.2959  0.3453
 2764SOL    MW411104   1.633   4.071   4.530 -0.0802 -0.0753 -0.2804
 2765SOL     OW11105   2.249   4.282   4.660  0.1684  0.1245  0.4725
 2765SOL    HW211106   2.161   4.287   4.622  0.8603  0.5035 -1.0908
 2765SOL    HW311107   2.283   4.198   4.631  0.2611 -0.1209  1.2606
 2765SOL    MW411108   2.242   4.272   4.651  0.2720  0.1421  0.3700
 2766SOL     OW11109   2.498   4.388   4.543 -0.0947 -0.5132  0.6929
 2766SOL    HW211110   2.417   4.343   4.569  0.2260 -1.2881  0.3897
 2766SOL    HW311111   2.497   4.385   4.448  0.9981 -1.8464  0.7030
 2766SOL    MW411112   2.488   4.381   4.534  0.0916 -0.7915  0.6537
 2767SOL     OW11113   1.046   1.230   4.456  0.2284 -0.0344 -0.5967
 2767SOL    HW211114   0.958   1.266   4.467  0.8373  0.6649  2.7189
 2767SOL    HW311115   1.037   1.137   4.475  0.0367 -0.1583 -1.2824
 2767SOL    MW411116   1.033   1.223   4.460  0.2834  0.0415 -0.2494
 2768SOL     OW11117   2.931   4.409   4.532 -0.1559  0.2626  0.3514
 2768SOL    HW211118   3.002   4.353   4.562 -0.8805 -0.4287  0.8041
 2768SOL    HW311119   2.952   4.495   4.568 -0.4904 -0.3355  2.0346
 2768SOL    MW411120   2.943   4.413   4.540 -0.2956  0.0920  0.6337
 2769SOL     OW11121   2.517   0.742   4.620  0.4831  0.0857 -0.2070
 2769SOL    HW211122   2.449   0.799   4.583 -0.0637 -0.6354 -0.3266
 2769SOL    HW311123   2.599   0.779   4.589  0.2316  1.9501  1.2876
 2769SOL    MW411124   2.519   0.754   4.611  0.3779  0.2365 -0.0262
 2770SOL     OW11125   3.206   0.863   4.511  0.1288  0.1023 -0.2598
 2770SOL    HW211126   3.291   0.824   4.533  0.5725  0.9979 -0.3774
 2770SOL    HW311127   3.198   0.938   4.570 -0.9131 -0.4061  0.2516
 2770SOL    MW411128   3.216   0.868   4.522  0.0501  0.1534 -0.2079
 2771SOL     OW11129   2.314   1.126   4.630 -0.6293 -0.2162  0.0378
 2771SOL    HW211130   2.232   1.170   4.607 -0.3419 -0.6090 -1.8674
 2771SOL    HW311131   2.378   1.163   4.569 -0.1307 -2.3828 -0.7963
 2771SOL    MW411132   2.312   1.137   4.619 -0.5257 -0.5538 -0.3233
 2772SOL     OW11133   2.503   1.261   4.511 -0.5317  0.1384  0.2337
 2772SOL    HW211134   2.572   1.220   4.563 -0.5580 -0.2326 -0.0300
 2772SOL    HW311135   2.486   1.344   4.556 -1.1718 -0.5685  1.3248
 2772SOL    MW411136   2.510   1.267   4.524 -0.6194 -0.0038  0.3428
 2773SOL     OW11137   2.667   1.571   4.839  0.0640  0.0865 -0.0066
 2773SOL    HW211138   2.670   1.663   4.865  0.3192  0.2211 -0.5072
 2773SOL    HW311139   2.598   1.567   4.773 -0.1924 -0.1511  0.2721
 2773SOL    MW411140   2.658   1.582   4.834  0.0639  0.0730 -0.0362
 2774SOL     OW11141   2.267   1.933   4.578  0.9092 -0.0927  0.1416
 2774SOL    HW211142   2.233   1.909   4.664  1.4758 -0.1050  0.3618
 2774SOL    HW311143   2.189   1.940   4.523  0.6080 -0.8296  0.4682
 2774SOL    MW411144   2.252   1.931   4.582  0.9444 -0.1915  0.2136
 2775SOL     OW11145   1.971   1.653   4.427  0.0404 -0.0272 -0.2794
 2775SOL    HW211146   1.904   1.620   4.487  0.7624  0.6413  0.9360
 2775SOL    HW311147   1.927   1.660   4.343 -0.8858 -1.4123  0.0682
 2775SOL    MW411148   1.957   1.650   4.424  0.0135 -0.1217 -0.0730
 2776SOL     OW11149   2.468   2.139   4.491  0.1498 -0.3295 -0.2704
 2776SOL    HW211150   2.392   2.081   4.496 -0.5648  0.4884 -1.3310
 2776SOL    HW311151   2.434   2.225   4.516  0.8232 -0.0256 -0.3851
 2776SOL    MW411152   2.453   2.143   4.495  0.1442 -0.1814 -0.4253
 2777SOL     OW11153   2.641   2.492   4.529 -0.3509  0.1404 -0.1091
 2777SOL    HW211154   2.548   2.470   4.527 -0.3531  0.1804 -0.5716
 2777SOL    HW311155   2.644   2.582   4.562 -0.5077  0.3047 -0.5458
 2777SOL    MW411156   2.629   2.501   4.533 -0.3719  0.1671 -0.2270
 2778SOL     OW11157   2.382   2.402   4.507  0.5109 -0.0278 -0.5374
 2778SOL    HW211158   2.315   2.424   4.572  0.8892  0.2180 -0.2252
 2778SOL    HW311159   2.344   2.427   4.423  0.4890  0.7512 -0.2936
 2778SOL    MW411160   2.368   2.408   4.505  0.5577  0.1073 -0.4644
 2779SOL     OW11161   1.961   3.368   4.552 -0.2615 -0.1651  0.1842
 2779SOL    HW211162   1.972   3.460   4.531 -0.6860 -0.4296 -1.2522
 2779SOL    HW311163   1.895   3.336   4.489  1.3230 -1.8910 -0.6704
 2779SOL    MW411164   1.954   3.376   4.541 -0.1085 -0.4277 -0.1178
 2780SOL     OW11165   1.195   2.751   4.523 -0.0949  0.1966 -0.4962
 2780SOL    HW211166   1.219   2.688   4.591 -0.9089  0.3831 -0.0312
 2780SOL    HW311167   1.214   2.706   4.441  2.0855  0.4281 -0.1603
 2780SOL    MW411168   1.201   2.737   4.522  0.0855  0.2520 -0.3901
 2781SOL     OW11169   2.237   3.327   4.470 -0.1917 -0.7030  0.0396
 2781SOL    HW211170   2.145   3.339   4.493 -0.1805 -1.9195  0.7724
 2781SOL    HW311171   2.235   3.303   4.377 -0.5099  0.5208 -0.2804
 2781SOL    MW411172   2.224   3.326   4.461 -0.2322 -0.7017  0.0939
 2782SOL     OW11173   0.929   0.084   4.506  0.0081 -0.1850  0.2376
 2782SOL    HW211174   0.893  -0.005   4.503  0.1464 -0.2838  1.3475
 2782SOL    HW311175   0.891   0.122   4.585  0.0792  0.6953 -0.1450
 2782SOL    MW411176   0.919   0.078   4.516  0.0357 -0.0819  0.3333
 2783SOL     OW11177   3.661   3.675   4.549 -0.2046  0.1729  0.6046
 2783SOL    HW211178   3.695   3.669   4.460  0.1822  2.0523  0.6139
 2783SOL    HW311179   3.573   3.640   4.543  0.2713 -0.9179 -0.2493
 2783SOL    MW411180   3.654   3.670   4.536 -0.0908  0.2770  0.4935
 2784SOL     OW11181   2.182   4.535   4.862 -0.0424  0.3368  0.3688
 2784SOL    HW211182   2.163   4.509   4.952 -0.0605  1.4240  0.6801
 2784SOL    HW311183   2.241   4.466   4.830  0.2418  0.1213  1.3244
 2784SOL    MW411184   2.187   4.522   4.870 -0.0074  0.4516  0.5360
 2785SOL     OW11185   3.429   3.519   4.490 -0.4118 -0.0062 -0.2665
 2785SOL    HW211186   3.472   3.434   4.484 -0.4281  0.0412 -1.1423
 2785SOL    HW311187   3.337   3.498   4.509 -0.0871 -0.1185  1.2324
 2785SOL    MW411188   3.423   3.505   4.492 -0.3710 -0.0145 -0.1841
 2786SOL     OW11189   3.382   4.068   4.537  0.2796  0.1285  0.3118
 2786SOL    HW211190   3.305   4.014   4.521 -1.0442  1.2033  2.7835
 2786SOL    HW311191   3.400   4.108   4.452 -1.5452 -0.5991 -0.4561
 2786SOL    MW411192   3.374   4.066   4.524 -0.1359  0.1745  0.5360
 2787SOL     OW11193   2.346   4.052   4.543 -0.1933  0.1273  0.1311
 2787SOL    HW211194   2.293   4.058   4.464 -1.7169 -0.5168  1.0819
 2787SOL    HW311195   2.436   4.047   4.511 -0.8192 -0.5586 -1.5687
 2787SOL    MW411196   2.351   4.052   4.529 -0.4771 -0.0486  0.0324
 2788SOL     OW11197   2.604   4.018   4.489  0.1689  0.3581  0.3896
 2788SOL    HW211198   2.646   4.012   4.403 -0.0238 -0.2506  0.3345
 2788SOL    HW311199   2.631   4.103   4.523 -0.1443  0.8179 -0.4823
 2788SOL    MW411200   2.613   4.029   4.482  0.1023  0.3381  0.2675
 2789SOL     OW11201   3.408   0.265   4.664  0.0981  0.5547  0.2943
 2789SOL    HW211202   3.463   0.200   4.620  0.9680  1.0679  0.6082
 2789SOL    HW311203   3.367   0.217   4.736  0.2390  0.2019  0.1426
 2789SOL    MW411204   3.410   0.250   4.667  0.2313  0.5759  0.3157
 2790SOL     OW11205   2.493   4.658   4.588  0.7244  0.2205 -0.6492
 2790SOL    HW211206   2.408   4.688   4.554  0.0796  0.1581  0.8803
 2790SOL    HW311207   2.499   4.567   4.560  1.8651  1.1817 -3.7401
 2790SOL    MW411208   2.482   4.650   4.580  0.7896  0.3390 -0.8554
 2791SOL     OW11209   2.508   0.480   4.507  0.0763 -0.3141  0.2637
 2791SOL    HW211210   2.586   0.435   4.539  0.4750 -1.3089 -2.0359
 2791SOL    HW311211   2.522   0.572   4.530  0.9257 -0.8026  1.7631
 2791SOL    MW411212   2.520   0.486   4.515  0.2408 -0.5098  0.1574
 2792SOL     OW11213   2.739   0.875   4.529 -0.2939  0.3760  0.2049
 2792SOL    HW211214   2.814   0.825   4.561 -0.9485 -0.1799  0.8750
 2792SOL    HW311215   2.735   0.854   4.435  1.3377  1.6455 -0.1544
 2792SOL    MW411216   2.748   0.865   4.521 -0.1650  0.4702  0.2460
 2793SOL     OW11217   2.865   1.549   4.641 -0.3266 -0.0940 -0.2223
 2793SOL    HW211218   2.803   1.591   4.582  0.3071 -0.4824 -1.1755
 2793SOL    HW311219   2.821   1.549   4.726 -1.1403  0.6987 -0.6367
 2793SOL    MW411220   2.851   1.554   4.644 -0.3502 -0.0407 -0.4025
 2794SOL     OW11221   2.263   0.864   4.578  0.1082 -0.0295  0.1661
 2794SOL    HW211222   2.273   0.954   4.609  1.8317  0.2089 -1.0530
 2794SOL    HW311223   2.191   0.829   4.631 -0.5631  2.0402  0.6858
 2794SOL    MW411224   2.255   0.871   4.589  0.2472  0.2751  0.0734
 2795SOL     OW11225   2.699   1.135   4.668  0.1343  0.0231 -0.1990
 2795SOL    HW211226   2.771   1.194   4.647  0.0844  0.0423 -0.3110
 2795SOL    HW311227   2.710   1.061   4.608  0.6864 -0.4716  0.4987
 2795SOL    MW411228   2.710   1.133   4.658  0.2005 -0.0396 -0.1216
 2796SOL     OW11229   2.912   1.285   4.573 -0.0661  0.2592  0.2618
 2796SOL    HW211230   2.898   1.373   4.607  1.8051  0.7885 -0.2977
 2796SOL    HW311231   2.917   1.295   4.478  0.8917 -0.3289  0.2362
 2796SOL    MW411232   2.911   1.298   4.565  0.3071  0.2514  0.1841
 2797SOL     OW11233   2.686   1.674   4.482  0.4488  0.2456  0.1108
 2797SOL    HW211234   2.704   1.764   4.510 -0.9710  0.8139 -0.7319
 2797SOL    HW311235   2.731   1.666   4.398  0.4203  0.2361  0.0964
 2797SOL    MW411236   2.694   1.685   4.474  0.2577  0.3192 -0.0024
 2798SOL     OW11237   2.494   1.527   4.618  0.0766 -0.2749  0.1188
 2798SOL    HW211238   2.412   1.565   4.586 -0.5840 -1.1026  0.8100
 2798SOL    HW311239   2.562   1.564   4.561 -0.6747  1.0595  0.0708
 2798SOL    MW411240   2.493   1.537   4.606 -0.1094 -0.2079  0.2031
 2799SOL     OW11241   2.700   1.950   4.578 -0.2105 -0.0696 -0.5685
 2799SOL    HW211242   2.633   2.017   4.562 -1.4107 -1.2695 -0.6957
 2799SOL    HW311243   2.783   1.995   4.561 -1.0148  1.2358 -1.1908
 2799SOL    MW411244   2.702   1.965   4.573 -0.4749 -0.0556 -0.6671
 2800SOL     OW11245   2.936   2.092   4.557  0.1295  0.3935 -0.1619
 2800SOL    HW211246   2.912   2.178   4.592  0.8468  0.0105  1.3336
 2800SOL    HW311247   2.942   2.106   4.462  0.7033  2.1119  0.0971
 2800SOL    MW411248   2.934   2.105   4.549  0.2999  0.5698  0.0701
 2801SOL     OW11249   3.110   2.507   4.482 -0.1170  0.1755  0.0488
 2801SOL    HW211250   3.197   2.506   4.522 -0.7842  0.0997  1.5216
 2801SOL    HW311251   3.127   2.491   4.389  1.4142 -0.2022  0.3698
 2801SOL    MW411252   3.124   2.505   4.475 -0.0031  0.1156  0.2856
 2802SOL     OW11253   2.059   2.567   4.435  0.3432 -0.1634  0.4388
 2802SOL    HW211254   1.987   2.536   4.379  0.6928 -0.1340 -0.0261
 2802SOL    HW311255   2.077   2.493   4.494 -0.9018  0.2721  1.3909
 2802SOL    MW411256   2.052   2.553   4.436  0.2253 -0.1020  0.5031
 2803SOL     OW11257   2.987   2.758   4.474  0.2307 -0.3900  0.0203
 2803SOL    HW211258   3.020   2.670   4.492  1.5599  0.4193  1.7486
 2803SOL    HW311259   2.927   2.776   4.546 -0.6150 -0.1595 -0.7351
 2803SOL    MW411260   2.984   2.749   4.486  0.2944 -0.2525  0.1488
 2804SOL     OW11261   2.373   2.554   4.824 -0.0344 -0.3248  0.1163
 2804SOL    HW211262   2.433   2.508   4.883  1.1724  0.0646 -0.7853
 2804SOL    HW311263   2.324   2.484   4.781  1.0163 -0.7378 -0.4305
 2804SOL    MW411264   2.375   2.538   4.826  0.2635 -0.3281 -0.0744
 2805SOL     OW11265   2.719   3.313   4.508  0.0440  0.0872  0.6147
 2805SOL    HW211266   2.708   3.295   4.414 -0.9328  0.0218  0.7360
 2805SOL    HW311267   2.784   3.249   4.537  0.9621  0.6389 -0.1858
 2805SOL    MW411268   2.726   3.302   4.499  0.0362  0.1516  0.5250
 2806SOL     OW11269   2.907   3.117   4.594  0.0878  0.4016  0.6044
 2806SOL    HW211270   2.882   3.025   4.593  0.7970  0.2139 -0.2075
 2806SOL    HW311271   2.988   3.121   4.543 -0.6148  1.6685 -0.4611
 2806SOL    MW411272   2.915   3.105   4.587  0.0887  0.5441  0.3567
 2807SOL     OW11273   4.038   3.075   4.545 -0.6579 -0.1526  0.2704
 2807SOL    HW211274   4.050   3.115   4.459 -1.4940 -2.5938 -1.0404
 2807SOL    HW311275   4.110   3.012   4.552  0.3718  1.1687  2.0962
 2807SOL    MW411276   4.049   3.072   4.535 -0.6328 -0.3004  0.3390
 2808SOL     OW11277   3.375   4.520   4.403  0.1588  0.3659 -0.1056
 2808SOL    HW211278   3.463   4.506   4.439  0.8657  1.3254 -1.3809
 2808SOL    HW311279   3.317   4.520   4.479  1.1667 -1.0171  0.6846
 2808SOL    MW411280   3.379   4.518   4.417  0.3853  0.3099 -0.1688
 2809SOL     OW11281   3.641   3.963   4.537  0.1595 -0.0546 -0.0275
 2809SOL    HW211282   3.668   3.876   4.568 -0.0062 -0.0518  0.1262
 2809SOL    HW311283   3.545   3.959   4.536  0.1433  0.2357  0.2930
 2809SOL    MW411284   3.632   3.951   4.541  0.1354 -0.0160  0.0348
 2810SOL     OW11285   3.156   3.463   4.512  0.3643  0.2517 -0.0132
 2810SOL    HW211286   3.156   3.367   4.517  0.0523  0.2411 -0.1942
 2810SOL    HW311287   3.063   3.487   4.517  0.3858  0.5005 -0.7667
 2810SOL    MW411288   3.144   3.453   4.514  0.3259  0.2830 -0.1369
 2811SOL     OW11289   3.182   3.891   4.483 -0.3920 -0.0860 -0.0067
 2811SOL    HW211290   3.184   3.799   4.510 -0.3881  0.2162  1.0359
 2811SOL    HW311291   3.101   3.926   4.519 -1.3473 -0.1531 -2.0292
 2811SOL    MW411292   3.172   3.884   4.491 -0.5171 -0.0551 -0.1364
 2812SOL     OW11293   2.944   3.968   4.597  0.3023 -0.0385 -0.1607
 2812SOL    HW211294   2.896   3.888   4.614  1.0372 -0.8020 -1.6488
 2812SOL    HW311295   2.878   4.031   4.568 -0.1877 -0.2587  0.4656
 2812SOL    MW411296   2.929   3.966   4.596  0.3347 -0.1683 -0.2737
 2813SOL     OW11297   2.742   0.109   4.537 -0.0368  0.2684 -0.2844
 2813SOL    HW211298   2.769   0.103   4.446 -0.0781  0.8499 -0.3417
 2813SOL    HW311299   2.652   0.076   4.539 -0.3186  0.9969 -0.6007
 2813SOL    MW411300   2.734   0.104   4.525 -0.0794  0.4413 -0.3333
 2814SOL     OW11301   2.962   0.748   4.611  0.7650  0.1681 -0.1810
 2814SOL    HW211302   3.050   0.773   4.581 -0.2188  0.8107 -2.6430
 2814SOL    HW311303   2.953   0.656   4.585  0.6463  0.1483 -0.0727
 2814SOL    MW411304   2.973   0.739   4.604  0.6196  0.2502 -0.4921
 2815SOL     OW11305   2.496   1.374   4.942  0.2610  0.0179 -0.0527
 2815SOL    HW211306   2.514   1.288   4.905 -1.0316  0.3114 -1.3799
 2815SOL    HW311307   2.572   1.427   4.917  0.2410 -0.2666 -0.7251
 2815SOL    MW411308   2.508   1.370   4.934  0.0880  0.0191 -0.3161
 2816SOL     OW11309   2.732   0.374   4.658  0.4569  0.4060  0.3435
 2816SOL    HW211310   2.737   0.281   4.636 -1.2630  0.5077 -0.5433
 2816SOL    HW311311   2.664   0.379   4.725  0.7894  0.9977  0.6410
 2816SOL    MW411312   2.724   0.362   4.664  0.2737  0.4975  0.2656
 2817SOL     OW11313   3.687   0.907   4.523 -0.1147 -0.5305 -0.2001
 2817SOL    HW211314   3.666   0.886   4.432 -2.3133 -1.4565  0.4820
 2817SOL    HW311315   3.773   0.868   4.537  0.9319  0.9745 -2.3247
 2817SOL    MW411316   3.695   0.899   4.513 -0.2668 -0.4542 -0.3910
 2818SOL     OW11317   3.377   1.290   4.574  0.4689  0.3462  0.0564
 2818SOL    HW211318   3.307   1.231   4.603  0.4857  0.3495  0.1039
 2818SOL    HW311319   3.457   1.253   4.611  0.4672  0.4528  0.1695
 2818SOL    MW411320   3.378   1.277   4.583  0.4709  0.3608  0.0777
 2819SOL     OW11321   2.568   1.837   4.827  0.3137 -0.3189  0.2652
 2819SOL    HW211322   2.477   1.808   4.834  0.5455 -1.4576 -1.1019
 2819SOL    HW311323   2.581   1.855   4.733  1.8507 -1.4690  0.2244
 2819SOL    MW411324   2.558   1.835   4.815  0.5469 -0.6210  0.0792
 2820SOL     OW11325   4.004   0.574   4.640  0.1084 -0.4758  0.1980
 2820SOL    HW211326   4.098   0.586   4.622 -0.0820 -0.1813 -0.6255
 2820SOL    HW311327   3.969   0.663   4.644 -0.3133 -0.6116 -0.4652
 2820SOL    MW411328   4.012   0.587   4.638  0.0277 -0.4548  0.0019
 2821SOL     OW11329   3.366   1.550   4.593 -0.0660  0.7740 -0.7471
 2821SOL    HW211330   3.277   1.578   4.572 -0.1257  1.3866  0.2475
 2821SOL    HW311331   3.365   1.455   4.585 -0.6142  0.8371 -1.4370
 2821SOL    MW411332   3.354   1.541   4.589 -0.1462  0.8631 -0.7067
 2822SOL     OW11333   3.096   1.651   4.496 -0.0675 -0.1434  0.3948
 2822SOL    HW211334   3.118   1.741   4.519 -0.0436 -0.0917  0.1716
 2822SOL    HW311335   3.015   1.633   4.544 -0.4557  0.2320 -0.1219
 2822SOL    MW411336   3.088   1.660   4.506 -0.1156 -0.0870  0.2975
 2823SOL     OW11337   3.204   1.921   4.516 -0.3603 -0.0380  0.4098
 2823SOL    HW211338   3.129   1.980   4.520  0.4655  1.0668 -0.0924
 2823SOL    HW311339   3.279   1.977   4.538  0.5343 -0.6891 -0.9145
 2823SOL    MW411340   3.204   1.936   4.519 -0.1330  0.0219  0.1693
 2824SOL     OW11341   3.619   1.614   4.179  0.4581 -0.6181 -0.3442
 2824SOL    HW211342   3.607   1.649   4.267 -0.3956 -0.8050 -0.3763
 2824SOL    HW311343   3.532   1.582   4.154  0.6763 -0.4981 -1.2816
 2824SOL    MW411344   3.606   1.614   4.187  0.3743 -0.6269 -0.4721
 2825SOL     OW11345   2.555   2.728   4.689 -0.0007  0.0817  0.0638
 2825SOL    HW211346   2.499   2.667   4.737 -0.8685  0.1646 -0.8366
 2825SOL    HW311347   2.496   2.794   4.655  0.3808 -0.7724 -2.3658
 2825SOL    MW411348   2.540   2.729   4.691 -0.0648 -0.0203 -0.3757
 2826SOL     OW11349   3.248   2.914   4.486 -0.2043  0.4884 -0.3647
 2826SOL    HW211350   3.164   2.881   4.456 -0.1210  0.0998 -0.1660
 2826SOL    HW311351   3.307   2.902   4.412 -0.4332  1.1993 -0.6725
 2826SOL    MW411352   3.245   2.908   4.472 -0.2234  0.5310 -0.3791
 2827SOL     OW11353   3.417   2.123   4.517 -0.5872  0.5442 -0.1483
 2827SOL    HW211354   3.403   2.216   4.535 -0.9066  0.4365  0.1480
 2827SOL    HW311355   3.406   2.116   4.422  0.2501  0.9536 -0.2865
 2827SOL    MW411356   3.414   2.135   4.507 -0.5190  0.5836 -0.1273
 2828SOL     OW11357   3.631   2.689   4.623 -0.0810 -0.0278  0.1530
 2828SOL    HW211358   3.565   2.753   4.652 -0.6877 -0.2551 -0.7208
 2828SOL    HW311359   3.708   2.742   4.602  0.3771  0.1533  2.1394
 2828SOL    MW411360   3.633   2.704   4.624 -0.1006 -0.0339  0.2999
 2829SOL     OW11361   4.299   3.900   4.622 -0.1565 -0.4580  0.0541
 2829SOL    HW211362   4.311   3.815   4.581  0.5621 -0.2620 -0.1475
 2829SOL    HW311363   4.384   3.944   4.613 -0.5753  0.3562 -0.0294
 2829SOL    MW411364   4.312   3.895   4.615 -0.1163 -0.3245  0.0162
 2830SOL     OW11365   3.158   3.188   4.481  0.1093  0.1707  0.0707
 2830SOL    HW211366   3.185   3.097   4.496 -0.6271 -0.0071  0.3424
 2830SOL    HW311367   3.141   3.193   4.387 -0.1914 -0.0694  0.1108
 2830SOL    MW411368   3.160   3.176   4.471 -0.0277  0.1156  0.1121
 2831SOL     OW11369   4.216   2.846   4.539  0.2119  0.2818  0.3093
 2831SOL    HW211370   4.301   2.862   4.581  0.1595  2.1985 -0.2536
 2831SOL    HW311371   4.235   2.851   4.445 -0.6192  1.2873  0.1918
 2831SOL    MW411372   4.230   2.849   4.532  0.0949  0.6673  0.2193
 2832SOL     OW11373   3.833   3.426   4.606 -0.1617  0.4023  0.0885
 2832SOL    HW211374   3.809   3.518   4.594 -0.0850  0.3169 -0.7782
 2832SOL    HW311375   3.834   3.414   4.700 -1.6841  0.8993  0.1907
 2832SOL    MW411376   3.830   3.437   4.616 -0.3524  0.4566 -0.0119
 2833SOL     OW11377   2.969   0.468   4.540 -0.3452 -0.2711  0.0308
 2833SOL    HW211378   2.950   0.481   4.447  0.8787 -0.1639 -0.2187
 2833SOL    HW311379   2.884   0.456   4.581 -0.9044 -0.1591 -1.0859
 2833SOL    MW411380   2.955   0.468   4.533 -0.2575 -0.2421 -0.1493
 2834SOL     OW11381   3.130   4.229   4.605  0.0400 -0.0106 -0.5380
 2834SOL    HW211382   3.225   4.214   4.612  0.1048 -0.2557 -1.8003
 2834SOL    HW311383   3.090   4.148   4.634  0.1854  0.4661  1.0309
 2834SOL    MW411384   3.137   4.217   4.610  0.0677  0.0196 -0.4973
 2835SOL     OW11385   3.223   4.505   4.648  0.7484 -0.4102  0.4326
 2835SOL    HW211386   3.179   4.422   4.666  1.3847 -0.8048  0.1911
 2835SOL    HW311387   3.157   4.571   4.667  0.0917 -0.9872  0.1917
 2835SOL    MW411388   3.209   4.502   4.653  0.7455 -0.5383  0.3686
 2836SOL     OW11389   3.154   0.250   4.494 -0.8297  0.2662  0.1656
 2836SOL    HW211390   3.237   0.255   4.541  0.1803  0.8012 -1.6186
 2836SOL    HW311391   3.111   0.334   4.511 -0.9647  0.0373  0.9883
 2836SOL    MW411392   3.159   0.261   4.502 -0.7145  0.3066  0.0386
 2837SOL     OW11393   4.270   4.286   4.514  0.2185 -0.2919 -0.1894
 2837SOL    HW211394   4.228   4.363   4.553  0.3121 -0.4159  0.1584
 2837SOL    HW311395   4.360   4.290   4.546 -0.0720 -1.1809  0.7731
 2837SOL    MW411396   4.276   4.297   4.524  0.1922 -0.4258 -0.0167
 2838SOL     OW11397   4.097   0.130   4.491 -0.1859 -0.1728  0.3236
 2838SOL    HW211398   4.073   0.131   4.399  0.6436 -2.2533  0.0534
 2838SOL    HW311399   4.016   0.148   4.538 -0.8664 -0.3847 -0.7686
 2838SOL    MW411400   4.083   0.133   4.485 -0.1655 -0.4752  0.1440
 2839SOL     OW11401   3.461   0.764   4.563  0.2073 -0.2391 -0.1027
 2839SOL    HW211402   3.485   0.671   4.562  1.5596  0.0953  0.9966
 2839SOL    HW311403   3.544   0.811   4.561 -0.4700  0.9617 -0.8430
 2839SOL    MW411404   3.475   0.758   4.562  0.2966 -0.0365 -0.0558
 2840SOL     OW11405   3.157   1.142   4.653 -0.5793  0.0249  0.4261
 2840SOL    HW211406   3.155   1.122   4.746 -1.8928 -0.0528  0.3884
 2840SOL    HW311407   3.070   1.176   4.634 -0.2517  0.2398 -0.7350
 2840SOL    MW411408   3.146   1.144   4.663 -0.7091  0.0430  0.2685
 2841SOL     OW11409   4.167   1.528   4.708 -0.0811 -0.2442 -0.1616
 2841SOL    HW211410   4.207   1.491   4.629  0.8385  1.1406 -0.3702
 2841SOL    HW311411   4.073   1.513   4.697  0.0455 -0.1241 -1.4998
 2841SOL    MW411412   4.160   1.521   4.696  0.0567 -0.0455 -0.3653
 2842SOL     OW11413   3.980   1.097   4.653 -0.1880  0.3186 -0.1568
 2842SOL    HW211414   3.945   1.170   4.601  1.5252  0.2226 -1.4857
 2842SOL    HW311415   4.074   1.113   4.656 -0.0798 -0.5294  1.6332
 2842SOL    MW411416   3.988   1.109   4.646  0.0522  0.1941 -0.0963
 2843SOL     OW11417   4.269   1.024   4.621 -0.2347 -0.1628 -0.2137
 2843SOL    HW211418   4.328   1.052   4.691 -1.3462  1.1061  0.2438
 2843SOL    HW311419   4.278   0.929   4.619  0.3349 -0.1553  1.2017
 2843SOL    MW411420   4.278   1.015   4.630 -0.3057  0.0056  0.0329
 2844SOL     OW11421   4.458   1.132   4.781 -0.6459  0.3353  0.1649
 2844SOL    HW211422   4.433   1.220   4.810 -1.8473  0.2662 -0.6077
 2844SOL    HW311423   4.534   1.146   4.724  0.5560  0.6468  1.8167
 2844SOL    MW411424   4.464   1.145   4.777 -0.6461  0.3673  0.2809
 2845SOL     OW11425   3.607   1.624   4.703 -0.1406  0.0971  0.2340
 2845SOL    HW211426   3.590   1.711   4.738  0.0820  0.0169  0.5399
 2845SOL    HW311427   3.522   1.593   4.670 -0.2327  0.3957  0.1963
 2845SOL    MW411428   3.594   1.631   4.703 -0.1235  0.1261  0.2699
 2846SOL     OW11429   3.597   1.941   4.590  0.0936 -0.0544  0.1505
 2846SOL    HW211430   3.533   2.011   4.575 -0.4784 -0.5387  0.2787
 2846SOL    HW311431   3.572   1.873   4.527 -0.2201 -0.7120  0.9796
 2846SOL    MW411432   3.585   1.941   4.580 -0.0229 -0.2050  0.2766
 2847SOL     OW11433   3.356   2.390   4.585  0.1103 -0.1545 -0.0658
 2847SOL    HW211434   3.362   2.356   4.674  1.4337  0.1547 -0.0348
 2847SOL    HW311435   3.445   2.419   4.564 -0.0344 -0.8763 -1.7362
 2847SOL    MW411436   3.369   2.389   4.594  0.2658 -0.2086 -0.2823
 2848SOL     OW11437   3.877   2.009   4.538 -0.4489 -0.0319  0.0728
 2848SOL    HW211438   3.785   1.996   4.562 -0.7714 -0.5285 -1.4046
 2848SOL    HW311439   3.915   1.922   4.545 -0.2269  0.0676  0.0878
 2848SOL    MW411440   3.870   1.996   4.542 -0.4623 -0.0842 -0.1206
 2849SOL     OW11441   0.034   1.492   4.630  0.3442  0.2649 -0.2660
 2849SOL    HW211442  -0.023   1.444   4.569 -0.2961  1.6744 -0.8030
 2849SOL    HW311443  -0.004   1.477   4.716 -0.3886  0.5518 -0.5361
 2849SOL    MW411444   0.021   1.484   4.633  0.1631  0.4886 -0.3719
 2850SOL     OW11445   4.159   2.362   4.529 -0.0294 -0.1697 -0.2825
 2850SOL    HW211446   4.197   2.434   4.581 -0.2458  0.5981 -1.1788
 2850SOL    HW311447   4.216   2.287   4.547  0.8114  0.4910 -0.1576
 2850SOL    MW411448   4.172   2.362   4.538  0.0529  0.0188 -0.3843
 2851SOL     OW11449   3.623   2.435   4.521  0.2131 -0.5250  0.2787
 2851SOL    HW211450   3.704   2.396   4.552  0.6813  0.0781 -0.1807
 2851SOL    HW311451   3.617   2.519   4.566 -0.2769 -0.6689  0.4907
 2851SOL    MW411452   3.633   2.441   4.531  0.2100 -0.4644  0.2460
 2852SOL     OW11453   4.361   3.386   4.662  0.0773 -0.6987  0.1513
 2852SOL    HW211454   4.267   3.370   4.648  0.2130 -0.7607 -0.7357
 2852SOL    HW311455   4.369   3.403   4.756 -0.9843  0.3917  0.0560
 2852SOL    MW411456   4.349   3.386   4.672 -0.0448 -0.5627  0.0215
 2853SOL     OW11457   4.408   3.125   4.536 -0.4017 -0.0771 -0.0097
 2853SOL    HW211458   4.403   3.204   4.590 -0.9128 -0.1352  0.0266
 2853SOL    HW311459   4.440   3.155   4.451  1.7537 -0.1698  0.7219
 2853SOL    MW411460   4.412   3.139   4.532 -0.1850 -0.0973  0.0911
 2854SOL     OW11461   3.617   3.052   4.648  0.1939  0.7675 -0.0447
 2854SOL    HW211462   3.600   3.134   4.602 -0.3798 -0.4457 -2.0436
 2854SOL    HW311463   3.531   3.016   4.667  0.4446 -0.1858 -0.6741
 2854SOL    MW411464   3.604   3.058   4.644  0.1516  0.4814 -0.3915
 2855SOL     OW11465   4.385   3.622   4.533 -0.6666  0.0842  0.4905
 2855SOL    HW211466   4.320   3.635   4.464  0.6223  0.9071 -0.5611
 2855SOL    HW311467   4.368   3.533   4.564 -0.9787 -0.4541 -1.1744
 2855SOL    MW411468   4.374   3.612   4.528 -0.5383  0.1221  0.1326
 2856SOL     OW11469   3.613   3.291   4.493  0.2148 -0.4144 -0.0597
 2856SOL    HW211470   3.683   3.347   4.527 -1.2742  2.2819 -1.2468
 2856SOL    HW311471   3.632   3.282   4.400 -0.7074 -0.0545 -0.2965
 2856SOL    MW411472   3.625   3.298   4.486 -0.1032 -0.0114 -0.2465
 2857SOL     OW11473   3.815   2.917   4.526  0.2740  0.2306  0.0774
 2857SOL    HW211474   3.895   2.965   4.545  0.7421 -1.0381  1.4398
 2857SOL    HW311475   3.746   2.965   4.572  0.3508  0.9179 -0.5132
 2857SOL    MW411476   3.816   2.929   4.535  0.3459  0.1538  0.1793
 2858SOL     OW11477   0.684   3.035   4.609 -0.2317 -0.2258 -0.0667
 2858SOL    HW211478   0.763   3.075   4.572  0.5548 -1.6379  0.0576
 2858SOL    HW311479   0.674   3.078   4.694 -0.3145  0.8479 -0.6069
 2858SOL    MW411480   0.693   3.046   4.616 -0.1389 -0.2701 -0.1221
 2859SOL     OW11481   4.077   4.068   4.582  0.3877 -0.0391 -0.5020
 2859SOL    HW211482   4.142   4.138   4.574 -0.2907  0.6977  0.3313
 2859SOL    HW311483   4.119   4.002   4.637  0.6863  0.1318 -0.5236
 2859SOL    MW411484   4.091   4.069   4.588  0.3376  0.0801 -0.3943
 2860SOL     OW11485   3.631   0.106   4.577  0.1810  0.3018  0.3205
 2860SOL    HW211486   3.640   0.011   4.583 -1.6392  0.1811  1.7759
 2860SOL    HW311487   3.641   0.126   4.484  0.0595 -1.3888 -0.0655
 2860SOL    MW411488   3.633   0.096   4.566 -0.0751  0.0629  0.4616
 2861SOL     OW11489   2.981   0.018   4.585 -0.0103  0.4512  0.1449
 2861SOL    HW211490   2.888   0.041   4.593 -0.1812  0.3498 -1.4334
 2861SOL    HW311491   3.018   0.087   4.529  0.4580 -0.5716 -0.8078
 2861SOL    MW411492   2.974   0.030   4.579  0.0288  0.3029 -0.1893
 2862SOL     OW11493   3.631   1.195   4.663  0.4927  0.3316 -0.0141
 2862SOL    HW211494   3.649   1.108   4.626 -0.2182  0.2531 -0.2022
 2862SOL    HW311495   3.650   1.186   4.756  0.4692 -0.0189 -0.0416
 2862SOL    MW411496   3.636   1.182   4.670  0.3960  0.2750 -0.0429
 2863SOL     OW11497   3.816   0.460   4.479  0.1475  0.1523  0.3167
 2863SOL    HW211498   3.876   0.526   4.514 -0.7718  1.0568  0.2209
 2863SOL    HW311499   3.732   0.480   4.521 -0.4339 -0.1781 -0.6826
 2863SOL    MW411500   3.813   0.471   4.489 -0.0508  0.2281  0.1726
 2864SOL     OW11501   0.363   0.278   4.517 -1.0029 -0.1659  0.4905
 2864SOL    HW211502   0.339   0.368   4.540  1.8535  0.5992  0.6390
 2864SOL    HW311503   0.400   0.285   4.429 -1.0136 -1.2577  0.3918
 2864SOL    MW411504   0.365   0.291   4.509 -0.6275 -0.2090  0.4969
 2865SOL     OW11505   0.246   0.539   4.505 -0.4547  0.1632  0.4689
 2865SOL    HW211506   0.246   0.547   4.409 -0.1177  0.9712  0.5258
 2865SOL    HW311507   0.171   0.592   4.533  0.1456  0.8819  0.7170
 2865SOL    MW411508   0.236   0.547   4.496 -0.3311  0.3645  0.5093
 2866SOL     OW11509   3.586   4.271   4.713  0.3109 -0.2853  0.2399
 2866SOL    HW211510   3.531   4.195   4.698  1.4928 -0.6031 -2.9404
 2866SOL    HW311511   3.675   4.236   4.713  0.7790  0.8725  0.6383
 2866SOL    MW411512   3.591   4.256   4.711  0.5286 -0.1745 -0.1273
 2867SOL     OW11513   3.844   1.302   4.527 -0.5198 -0.0683 -0.1766
 2867SOL    HW211514   3.830   1.260   4.442 -1.2724 -0.8144  0.3132
 2867SOL    HW311515   3.765   1.283   4.577 -0.0903  0.3844  0.6877
 2867SOL    MW411516   3.832   1.294   4.523 -0.5622 -0.1070  0.0019
 2868SOL     OW11517   0.764   1.300   4.500  0.2735 -0.0970  0.1911
 2868SOL    HW211518   0.741   1.384   4.540 -1.4595 -0.6932  0.5195
 2868SOL    HW311519   0.749   1.236   4.569  0.7510 -0.7715 -0.3196
 2868SOL    MW411520   0.759   1.303   4.514  0.1079 -0.2646  0.1669
 2869SOL     OW11521   1.044   1.670   4.970 -0.2780 -0.2660 -0.2261
 2869SOL    HW211522   1.088   1.614   4.905 -0.4213  0.4200 -0.9151
 2869SOL    HW311523   1.088   1.650   5.052 -0.2309 -1.2996 -0.4903
 2869SOL    MW411524   1.056   1.660   4.972 -0.2908 -0.3120 -0.3519
 2870SOL     OW11525   3.571   1.700   4.430 -0.1038  0.4863  0.1228
 2870SOL    HW211526   3.491   1.652   4.454 -0.0878  1.3541  2.0378
 2870SOL    HW311527   3.633   1.678   4.500  1.0406  0.5215 -0.8799
 2870SOL    MW411528   3.569   1.691   4.443  0.0494  0.6056  0.2432
 2871SOL     OW11529   2.878   2.370   4.595  0.0158 -0.2466 -0.3899
 2871SOL    HW211530   2.949   2.420   4.553 -0.7222  1.2922  0.1749
 2871SOL    HW311531   2.798   2.416   4.570 -0.6818 -1.1535  0.1465
 2871SOL    MW411532   2.877   2.382   4.586 -0.1736 -0.1636 -0.2446
 2872SOL     OW11533   3.909   1.731   4.503  0.5309 -0.2582  0.2732
 2872SOL    HW211534   3.937   1.661   4.562  0.6491  0.4210  1.0322
 2872SOL    HW311535   3.953   1.711   4.420 -2.0076 -2.8949 -0.5232
 2872SOL    MW411536   3.919   1.719   4.500  0.2115 -0.5165  0.2680
 2873SOL     OW11537   4.182   1.794   4.635 -0.2766  0.1478 -0.1981
 2873SOL    HW211538   4.188   1.718   4.693  1.0108 -1.1689 -1.9996
 2873SOL    HW311539   4.091   1.793   4.604 -0.0443 -1.1726 -0.8669
 2873SOL    MW411540   4.171   1.784   4.639 -0.0768 -0.2000 -0.5240
 2874SOL     OW11541   4.079   1.931   4.160 -0.2588 -0.0607  0.2488
 2874SOL    HW211542   4.006   1.990   4.179  0.4227  0.7276  0.4658
 2874SOL    HW311543   4.154   1.969   4.206  0.7229  0.2134 -1.4933
 2874SOL    MW411544   4.079   1.944   4.168 -0.0391  0.0796  0.0477
 2875SOL     OW11545   3.863   2.324   4.599  0.0555 -0.3191  0.1504
 2875SOL    HW211546   3.889   2.232   4.598 -0.2039 -0.4453  2.0567
 2875SOL    HW311547   3.943   2.372   4.578  0.4034 -0.9426  0.0343
 2875SOL    MW411548   3.877   2.318   4.596  0.0670 -0.4182  0.3872
 2876SOL     OW11549   4.239   2.593   4.659  0.5116  0.1028  0.8104
 2876SOL    HW211550   4.227   2.675   4.610  1.6280 -0.0651  0.2576
 2876SOL    HW311551   4.266   2.621   4.747  0.7170  0.3241  0.6749
 2876SOL    MW411552   4.241   2.608   4.664  0.6852  0.1097  0.7200
 2877SOL     OW11553   4.466   2.890   4.647  0.1046  0.0713 -0.3029
 2877SOL    HW211554   4.555   2.856   4.646  0.2136  0.3219  0.6900
 2877SOL    HW311555   4.471   2.972   4.598  0.2530 -0.3132 -0.9368
 2877SOL    MW411556   4.478   2.896   4.640  0.1388  0.0536 -0.2556
 2878SOL     OW11557   4.089   3.339   4.641  0.0943 -0.1951 -0.1073
 2878SOL    HW211558   4.007   3.381   4.614  0.0278 -0.8818 -0.9699
 2878SOL    HW311559   4.073   3.246   4.630  0.4213 -0.4307  1.3512
 2878SOL    MW411560   4.076   3.333   4.636  0.1287 -0.3166 -0.0291
 2879SOL     OW11561   0.171   3.685   4.541 -0.1728  0.0215  0.1694
 2879SOL    HW211562   0.214   3.686   4.455  0.3884 -0.7445  0.4365
 2879SOL    HW311563   0.080   3.662   4.522  0.2783 -1.6424 -0.0852
 2879SOL    MW411564   0.165   3.682   4.527 -0.0393 -0.2990  0.1712
 2880SOL     OW11565   4.352   4.489   4.779 -0.1973 -0.0558 -0.3431
 2880SOL    HW211566   4.260   4.495   4.751 -0.4725  0.4843  0.6799
 2880SOL    HW311567   4.382   4.579   4.784  0.5599 -0.2453 -1.1784
 2880SOL    MW411568   4.344   4.501   4.776 -0.1335 -0.0091 -0.3185
 2881SOL     OW11569   3.873   0.231   4.635  0.0353 -0.3721 -0.6516
 2881SOL    HW211570   3.791   0.182   4.626 -1.3195  0.9870  3.2396
 2881SOL    HW311571   3.858   0.312   4.587 -1.8153  0.8312  1.8476
 2881SOL    MW411572   3.860   0.235   4.628 -0.3877 -0.0340  0.1912
 2882SOL     OW11573   3.417   2.848   4.703  0.0122  0.0331  0.0899
 2882SOL    HW211574   3.360   2.814   4.772  0.0412  1.0707  0.6357
 2882SOL    HW311575   3.359   2.862   4.628 -0.1710 -0.3042  0.1675
 2882SOL    MW411576   3.402   2.846   4.702 -0.0081  0.1259  0.1717
 2883SOL     OW11577   3.539   0.481   4.535  0.3039  0.1320 -0.3707
 2883SOL    HW211578   3.498   0.411   4.587 -1.1704  1.0889 -0.2163
 2883SOL    HW311579   3.510   0.463   4.445 -0.8581  1.0549 -0.2013
 2883SOL    MW411580   3.529   0.469   4.530 -0.0439  0.3800 -0.3281
 2884SOL     OW11581   4.337   4.425   4.301  0.6590  0.0573 -0.1728
 2884SOL    HW211582   4.402   4.372   4.255 -0.0377 -0.2631 -0.8046
 2884SOL    HW311583   4.321   4.378   4.383  1.8370  0.5770  0.3515
 2884SOL    MW411584   4.343   4.412   4.306  0.7219  0.0834 -0.1869
 2885NA      NA11585   0.947   0.117   0.480  0.1637  0.0205  0.0726
   4.49070   4.66690  10.00000
